/*--------------------------------*- C++ -*----------------------------------*\
| =========                 |                                                 |
| \\      /  F ield         | OpenFOAM: The Open Source CFD Toolbox           |
|  \\    /   O peration     | Version:  2406                                  |
|   \\  /    A nd           | Website:  www.openfoam.com                      |
|    \\/     M anipulation  |                                                 |
\*---------------------------------------------------------------------------*/
FoamFile
{
    version     2.0;
    format      ascii;
    arch        "LSB;label=32;scalar=64";
    class       volScalarField;
    location    "44";
    object      p;
}
// * * * * * * * * * * * * * * * * * * * * * * * * * * * * * * * * * * * * * //

dimensions      [0 2 -2 0 0 0 0];

internalField   nonuniform List<scalar> 
1176
(
0.79699976
0.79702263
0.7970463
0.79705396
0.79702243
0.79692774
0.79677051
0.79658434
0.79640514
0.79623799
0.79608336
0.79598776
0.79598776
0.79608337
0.79623799
0.79640516
0.79658437
0.79677056
0.79692782
0.79702255
0.79705412
0.79704648
0.79702282
0.79699994
0.77385133
0.77380437
0.77375661
0.77373971
0.77380222
0.77400457
0.77436989
0.7748343
0.77526516
0.77555126
0.77567066
0.77570492
0.77570492
0.77567066
0.77555126
0.77526514
0.77483425
0.7743698
0.77400444
0.77380204
0.77373951
0.7737564
0.77380415
0.77385112
0.75676657
0.75678859
0.75680838
0.75680647
0.75674741
0.75658623
0.75631447
0.75598652
0.75568031
0.75546752
0.75535672
0.7553079
0.7553079
0.75535673
0.75546753
0.75568033
0.75598655
0.7563145
0.75658628
0.75674746
0.75680654
0.75680845
0.75678865
0.75676664
0.74009468
0.74010381
0.74011586
0.74013226
0.74015481
0.74017238
0.74014015
0.74000673
0.73977462
0.73950206
0.73927785
0.73915736
0.73915736
0.73927785
0.73950206
0.73977462
0.74000673
0.74014015
0.74017239
0.74015483
0.74013229
0.7401159
0.74010384
0.74009472
0.72367563
0.72367958
0.72368458
0.72369064
0.72370034
0.72372062
0.7237568
0.72379831
0.72381998
0.72379611
0.72373399
0.72368136
0.72368136
0.72373399
0.72379611
0.72381998
0.72379831
0.7237568
0.72372062
0.72370034
0.72369064
0.72368458
0.72367959
0.72367564
0.70721397
0.70721639
0.70721963
0.70722368
0.70722859
0.70723542
0.70724959
0.7072809
0.70733089
0.70738814
0.70743085
0.70744751
0.70744751
0.70743085
0.70738814
0.70733089
0.7072809
0.70724959
0.70723543
0.7072286
0.70722369
0.70721964
0.7072164
0.70721399
0.69080817
0.6908103
0.69081311
0.69081654
0.69082044
0.69082395
0.69082602
0.69082819
0.69083674
0.69085397
0.69087187
0.69088359
0.69088359
0.69087187
0.69085397
0.69083674
0.69082819
0.69082602
0.69082396
0.69082044
0.69081655
0.69081312
0.69081031
0.69080818
0.6744283
0.67443006
0.67443239
0.67443531
0.67443898
0.67444335
0.6744478
0.67445096
0.67445219
0.67445381
0.67445086
0.67444835
0.67444835
0.67445086
0.67445381
0.67445219
0.67445096
0.6744478
0.67444335
0.67443899
0.67443532
0.6744324
0.67443007
0.67442832
0.65807402
0.65807547
0.6580774
0.65807981
0.65808283
0.65808661
0.65809166
0.65809871
0.65810739
0.65811742
0.65812519
0.65812877
0.65812877
0.65812519
0.65811742
0.65810739
0.6580987
0.65809166
0.65808662
0.65808284
0.65807982
0.65807741
0.65807549
0.65807404
0.64173632
0.64173753
0.64173914
0.64174117
0.64174374
0.64174691
0.64175108
0.64175747
0.64176762
0.64178076
0.64179509
0.64180439
0.64180439
0.64179509
0.64178076
0.64176762
0.64175746
0.64175108
0.64174692
0.64174375
0.64174118
0.64173915
0.64173755
0.64173635
0.62541195
0.62541297
0.62541435
0.62541609
0.62541831
0.62542103
0.62542443
0.62542927
0.62543714
0.6254478
0.62546036
0.62546949
0.62546949
0.62546036
0.6254478
0.62543713
0.62542927
0.62542443
0.62542104
0.62541832
0.62541611
0.62541437
0.62541299
0.62541197
0.60909847
0.60909936
0.60910056
0.60910209
0.60910403
0.60910643
0.60910939
0.6091134
0.60911962
0.60912828
0.60913884
0.60914629
0.60914629
0.60913884
0.60912827
0.60911961
0.60911339
0.60910939
0.60910643
0.60910404
0.6091021
0.60910058
0.60909939
0.6090985
0.59279428
0.59279506
0.59279612
0.59279747
0.59279919
0.59280132
0.59280395
0.59280749
0.59281289
0.59282064
0.59283033
0.59283701
0.59283701
0.59283033
0.59282064
0.59281289
0.59280749
0.59280395
0.59280132
0.5927992
0.59279749
0.59279614
0.59279509
0.5927943
0.57649806
0.57649876
0.5764997
0.5765009
0.57650244
0.57650434
0.57650669
0.57650982
0.5765146
0.57652157
0.57653024
0.57653633
0.57653633
0.57653024
0.57652157
0.57651459
0.57650982
0.57650669
0.57650435
0.57650245
0.57650092
0.57649972
0.57649878
0.57649809
0.56020879
0.56020942
0.56021026
0.56021134
0.56021273
0.56021444
0.56021654
0.56021931
0.56022347
0.5602296
0.56023712
0.56024253
0.56024253
0.56023712
0.56022959
0.56022346
0.5602193
0.56021654
0.56021445
0.56021274
0.56021136
0.56021029
0.56020945
0.56020882
0.54392567
0.54392623
0.543927
0.54392798
0.54392923
0.54393079
0.54393268
0.54393514
0.54393877
0.54394415
0.54395069
0.54395548
0.54395548
0.54395069
0.54394415
0.54393877
0.54393513
0.54393268
0.54393079
0.54392925
0.543928
0.54392703
0.54392627
0.5439257
0.52764804
0.52764856
0.52764925
0.52765014
0.52765129
0.5276527
0.52765443
0.52765663
0.52765985
0.52766461
0.52767034
0.52767463
0.52767463
0.52767034
0.52766461
0.52765984
0.52765662
0.52765442
0.52765271
0.5276513
0.52765017
0.52764928
0.52764859
0.52764808
0.51137536
0.51137583
0.51137647
0.51137729
0.51137833
0.51137963
0.5113812
0.51138319
0.51138607
0.51139031
0.51139537
0.51139923
0.51139923
0.51139537
0.51139031
0.51138606
0.51138318
0.5113812
0.51137964
0.51137835
0.51137731
0.5113765
0.51137587
0.5113754
0.49510717
0.4951076
0.49510818
0.49510893
0.4951099
0.49511109
0.49511253
0.49511433
0.49511691
0.49512072
0.49512521
0.4951287
0.4951287
0.49512521
0.49512071
0.4951169
0.49511433
0.49511253
0.4951111
0.49510992
0.49510896
0.49510822
0.49510764
0.49510721
0.47884305
0.47884345
0.47884399
0.47884468
0.47884557
0.47884667
0.478848
0.47884964
0.47885196
0.47885539
0.47885942
0.47886258
0.47886258
0.47885942
0.47885539
0.47885196
0.47884964
0.478848
0.47884668
0.47884559
0.47884472
0.47884403
0.4788435
0.47884311
0.46258268
0.46258305
0.46258355
0.46258419
0.46258501
0.46258603
0.46258725
0.46258876
0.46259086
0.46259396
0.46259761
0.46260048
0.46260048
0.46259761
0.46259396
0.46259085
0.46258875
0.46258725
0.46258604
0.46258504
0.46258423
0.4625836
0.46258311
0.46258274
0.44632575
0.44632609
0.44632655
0.44632715
0.44632791
0.44632885
0.44632998
0.44633137
0.44633329
0.4463361
0.44633942
0.44634203
0.44634204
0.44633942
0.4463361
0.44633328
0.44633136
0.44632998
0.44632887
0.44632794
0.44632719
0.4463266
0.44632615
0.44632581
0.43007198
0.4300723
0.43007273
0.43007328
0.43007399
0.43007487
0.43007592
0.4300772
0.43007895
0.43008152
0.43008456
0.43008695
0.43008695
0.43008456
0.43008152
0.43007894
0.43007719
0.43007592
0.43007488
0.43007402
0.43007333
0.43007279
0.43007237
0.43007205
0.41382115
0.41382145
0.41382185
0.41382236
0.41382302
0.41382384
0.41382481
0.413826
0.41382761
0.41382996
0.41383275
0.41383494
0.41383494
0.41383275
0.41382996
0.41382759
0.41382599
0.41382481
0.41382385
0.41382305
0.41382241
0.41382191
0.41382152
0.41382123
0.39757303
0.39757331
0.39757368
0.39757416
0.39757478
0.39757554
0.39757645
0.39757755
0.39757903
0.3975812
0.39758377
0.39758578
0.39758578
0.39758377
0.39758119
0.39757902
0.39757754
0.39757645
0.39757556
0.39757481
0.39757422
0.39757375
0.39757339
0.39757312
0.38132744
0.3813277
0.38132805
0.38132849
0.38132907
0.38132978
0.38133064
0.38133166
0.38133303
0.38133502
0.3813374
0.38133925
0.38133925
0.3813374
0.38133501
0.38133301
0.38133165
0.38133064
0.3813298
0.38132911
0.38132855
0.38132812
0.38132778
0.38132753
0.3650842
0.36508444
0.36508477
0.36508518
0.36508572
0.36508639
0.36508719
0.36508814
0.36508941
0.36509125
0.36509346
0.36509517
0.36509517
0.36509346
0.36509124
0.36508939
0.36508813
0.36508719
0.36508641
0.36508577
0.36508525
0.36508484
0.36508453
0.3650843
0.34884315
0.34884337
0.34884368
0.34884407
0.34884458
0.3488452
0.34884595
0.34884684
0.34884801
0.34884972
0.34885178
0.34885336
0.34885336
0.34885178
0.34884971
0.348848
0.34884683
0.34884595
0.34884523
0.34884463
0.34884414
0.34884376
0.34884347
0.34884326
0.33260414
0.33260436
0.33260464
0.33260501
0.33260548
0.33260607
0.33260677
0.3326076
0.3326087
0.33261028
0.3326122
0.33261367
0.33261367
0.3326122
0.33261027
0.33260868
0.33260759
0.33260677
0.3326061
0.33260554
0.33260509
0.33260474
0.33260446
0.33260426
0.31636705
0.31636725
0.31636752
0.31636787
0.31636831
0.31636886
0.31636952
0.3163703
0.31637132
0.31637279
0.31637458
0.31637595
0.31637595
0.31637458
0.31637278
0.3163713
0.31637028
0.31636952
0.31636889
0.31636837
0.31636795
0.31636762
0.31636737
0.31636718
0.30013176
0.30013194
0.3001322
0.30013252
0.30013294
0.30013346
0.30013407
0.30013481
0.30013576
0.30013713
0.30013881
0.30014008
0.30014008
0.3001388
0.30013712
0.30013574
0.30013479
0.30013407
0.30013349
0.300133
0.30013261
0.30013231
0.30013207
0.3001319
0.28389814
0.28389832
0.28389855
0.28389886
0.28389925
0.28389974
0.28390032
0.28390101
0.2839019
0.28390318
0.28390474
0.28390593
0.28390593
0.28390474
0.28390316
0.28390187
0.28390099
0.28390032
0.28389977
0.28389932
0.28389896
0.28389867
0.28389846
0.28389829
0.2676661
0.26766627
0.26766649
0.26766678
0.26766715
0.26766761
0.26766815
0.2676688
0.26766963
0.26767083
0.2676723
0.26767341
0.26767341
0.2676723
0.26767081
0.2676696
0.26766877
0.26766815
0.26766764
0.26766722
0.26766688
0.26766662
0.26766642
0.26766626
0.25143554
0.2514357
0.25143591
0.25143618
0.25143653
0.25143696
0.25143747
0.25143808
0.25143886
0.25143998
0.25144136
0.2514424
0.2514424
0.25144136
0.25143996
0.25143883
0.25143806
0.25143747
0.251437
0.25143661
0.2514363
0.25143605
0.25143586
0.25143572
0.23520638
0.23520652
0.23520672
0.23520698
0.23520731
0.23520771
0.2352082
0.23520877
0.2352095
0.23521055
0.23521185
0.23521282
0.23521282
0.23521184
0.23521053
0.23520947
0.23520874
0.2352082
0.23520775
0.23520739
0.2352071
0.23520687
0.2352067
0.23520657
0.21897852
0.21897866
0.21897885
0.21897909
0.2189794
0.21897978
0.21898024
0.21898077
0.21898146
0.21898244
0.21898366
0.21898457
0.21898457
0.21898366
0.21898242
0.21898143
0.21898074
0.21898024
0.21897983
0.21897949
0.21897922
0.21897901
0.21897885
0.21897872
0.2027519
0.20275203
0.2027522
0.20275243
0.20275272
0.20275308
0.20275351
0.20275402
0.20275467
0.20275559
0.20275674
0.2027576
0.2027576
0.20275674
0.20275557
0.20275463
0.20275399
0.20275351
0.20275313
0.20275282
0.20275257
0.20275238
0.20275223
0.20275211
0.18652644
0.18652656
0.18652673
0.18652694
0.18652722
0.18652756
0.18652796
0.18652844
0.18652905
0.18652991
0.18653098
0.18653179
0.18653179
0.18653098
0.18652989
0.18652901
0.18652841
0.18652796
0.18652761
0.18652732
0.18652709
0.18652691
0.18652677
0.18652667
0.17030207
0.17030218
0.17030234
0.17030254
0.1703028
0.17030313
0.17030351
0.17030396
0.17030453
0.17030534
0.17030636
0.17030712
0.17030712
0.17030636
0.17030532
0.17030449
0.17030392
0.17030351
0.17030318
0.17030292
0.1703027
0.17030253
0.17030241
0.17030231
0.15407874
0.15407885
0.154079
0.15407919
0.15407943
0.15407974
0.1540801
0.15408052
0.15408106
0.15408181
0.15408276
0.15408347
0.15408347
0.15408276
0.15408179
0.15408101
0.15408048
0.1540801
0.15407979
0.15407955
0.15407935
0.1540792
0.15407908
0.15407899
0.13785637
0.13785648
0.13785662
0.1378568
0.13785703
0.13785732
0.13785766
0.13785805
0.13785856
0.13785927
0.13786017
0.13786084
0.13786085
0.13786017
0.13785925
0.13785851
0.13785802
0.13785766
0.13785738
0.13785715
0.13785697
0.13785683
0.13785672
0.13785664
0.12163495
0.12163504
0.12163518
0.12163535
0.12163557
0.12163584
0.12163616
0.12163653
0.121637
0.12163766
0.12163848
0.12163909
0.12163909
0.12163848
0.12163763
0.12163695
0.12163649
0.12163616
0.1216359
0.12163569
0.12163552
0.12163539
0.12163529
0.12163521
0.10541436
0.10541446
0.10541458
0.10541474
0.10541495
0.10541521
0.10541551
0.10541586
0.1054163
0.10541691
0.10541769
0.10541826
0.10541826
0.10541768
0.10541689
0.10541625
0.10541582
0.10541551
0.10541527
0.10541508
0.10541492
0.1054148
0.10541471
0.10541464
0.089194649
0.089194737
0.089194856
0.089195008
0.089195205
0.089195447
0.089195731
0.089196059
0.089196458
0.089197
0.089197662
0.089198143
0.089198147
0.089197661
0.089196973
0.089196408
0.089196014
0.089195728
0.089195507
0.089195331
0.089195191
0.089195075
0.089194989
0.089194923
0.072975644
0.072975727
0.072975838
0.072975983
0.07297617
0.072976402
0.072976675
0.072976986
0.07297736
0.072977856
0.072978448
0.07297886
0.072978864
0.072978447
0.072977828
0.072977308
0.072976941
0.072976671
0.072976461
0.072976295
0.072976163
0.072976054
0.072975975
0.072975914
0.056757524
0.056757605
0.056757713
0.05675785
0.056758026
0.05675824
0.056758489
0.056758769
0.056759086
0.056759462
0.056759847
0.056760077
0.056760081
0.056759847
0.056759435
0.056759034
0.056758722
0.056758482
0.056758294
0.056758144
0.056758022
0.056757918
0.05675784
0.05675778
0.040539737
0.040539808
0.040539906
0.040540036
0.04054021
0.040540433
0.040540695
0.040540982
0.040541304
0.04054171
0.040542187
0.040542508
0.040542513
0.040542187
0.040541685
0.040541254
0.040540936
0.040540686
0.040540481
0.040540317
0.040540189
0.040540088
0.040540016
0.040539962
0.024323468
0.02432355
0.024323658
0.024323785
0.024323931
0.024324091
0.024324261
0.02432444
0.024324602
0.024324679
0.024324599
0.024324382
0.024324386
0.024324601
0.024324657
0.024324558
0.024324399
0.024324254
0.024324134
0.024324022
0.024323911
0.024323805
0.024323714
0.024323642
0.0081053715
0.0081054416
0.008105534
0.008105655
0.0081058152
0.0081060137
0.0081062328
0.0081064696
0.0081068446
0.0081076792
0.0081091614
0.0081105377
0.0081105413
0.0081091645
0.0081076673
0.0081068173
0.0081064435
0.0081062283
0.0081060412
0.0081058725
0.0081057336
0.0081056235
0.0081055394
0.0081054744
)
;

boundaryField
{
    INLET
    {
        type            zeroGradient;
    }
    OUTLET
    {
        type            fixedValue;
        value           uniform 0;
    }
    WALL
    {
        type            zeroGradient;
    }
    frontAndBackPlanes
    {
        type            empty;
    }
}


// ************************************************************************* //
