/*--------------------------------*- C++ -*----------------------------------*\
| =========                 |                                                 |
| \\      /  F ield         | OpenFOAM: The Open Source CFD Toolbox           |
|  \\    /   O peration     | Version:  2406                                  |
|   \\  /    A nd           | Website:  www.openfoam.com                      |
|    \\/     M anipulation  |                                                 |
\*---------------------------------------------------------------------------*/
FoamFile
{
    version     2.0;
    format      ascii;
    arch        "LSB;label=32;scalar=64";
    class       surfaceScalarField;
    location    "44";
    object      phi;
}
// * * * * * * * * * * * * * * * * * * * * * * * * * * * * * * * * * * * * * //

dimensions      [0 3 -1 0 0 0 0];

oriented        oriented;

internalField   nonuniform List<scalar> 
2279
(
2.36175e-08
1.0148926e-05
2.0509767e-07
4.982375e-05
6.9331763e-07
0.00014252872
1.5784715e-06
0.00034353082
2.6788475e-06
0.00075378089
3.3472909e-06
0.0015415573
3.0435192e-06
0.0029497096
2.151683e-06
0.005249171
1.4318023e-06
0.008582269
9.8959005e-07
0.012685995
5.1266471e-07
0.016666385
-4.0650459e-12
0.01918202
-5.1267576e-07
0.01918202
-9.8961444e-07
0.016666385
-1.4318616e-06
0.012685995
-2.1518055e-06
0.0085822692
-3.0437158e-06
0.0052491712
-3.3475368e-06
0.0029497098
-2.6790893e-06
0.0015415575
-1.5786607e-06
0.00075378099
-6.9343744e-07
0.00034353086
-2.0515783e-07
0.00014252873
-2.3638765e-08
4.982375e-05
1.0148926e-05
-9.5248471e-08
1.0244175e-05
-5.3794009e-07
5.0266441e-05
-1.6230012e-06
0.00014361378
-3.5389525e-06
0.00034544677
-5.9201868e-06
0.00075616213
-7.4055029e-06
0.0015430426
-6.5847281e-06
0.0029488888
-3.9361609e-06
0.0052465224
-1.3883907e-06
0.0085797213
-6.5121524e-08
0.012684671
2.4240327e-07
0.016666078
-3.6842438e-12
0.019182263
-2.4240356e-07
0.019182263
6.5146377e-08
0.016666078
1.3884692e-06
0.012684671
3.9363282e-06
0.0085797212
6.5849955e-06
0.0052465223
7.4058229e-06
0.0029488887
5.9204682e-06
0.0015430425
3.5391346e-06
0.00075616205
1.6230873e-06
0.00034544673
5.3796678e-07
0.00014361376
9.5247888e-08
5.0266434e-05
1.0244173e-05
5.013984e-08
1.0194035e-05
2.6334497e-07
5.0053236e-05
7.4910713e-07
0.00014312802
1.5314583e-06
0.00034466442
2.3366555e-06
0.00075535693
2.5476617e-06
0.0015428316
1.8390958e-06
0.0029495974
9.7567409e-07
0.0052473858
6.7695681e-07
0.00858002
6.7178259e-07
0.012684677
4.8415531e-07
0.016666266
-1.7308548e-11
0.019182747
-4.8419598e-07
0.019182747
-6.7183794e-07
0.016666266
-6.7702743e-07
0.012684677
-9.7575223e-07
0.00858002
-1.8391739e-06
0.0052473859
-2.5477329e-06
0.0029495974
-2.3367082e-06
0.0015428317
-1.5314849e-06
0.00075535695
-7.4911341e-07
0.00034466443
-2.6334245e-07
0.00014312802
-5.0135545e-08
5.0053238e-05
1.0194036e-05
1.9586719e-08
1.0174448e-05
1.1184926e-07
4.9960974e-05
3.612843e-07
0.00014287858
9.0504783e-07
0.00034412066
1.8716601e-06
0.00075439032
3.0948239e-06
0.0015416085
3.8987245e-06
0.0029487935
3.7285556e-06
0.005247556
2.9242109e-06
0.0085808243
1.9733748e-06
0.012685627
1.0127718e-06
0.016667226
4.0049123e-12
0.01918376
-1.012762e-06
0.01918376
-1.9733616e-06
0.016667226
-2.9241967e-06
0.012685627
-3.7285486e-06
0.0085808243
-3.8987371e-06
0.005247556
-3.0948555e-06
0.0029487935
-1.8716962e-06
0.0015416085
-9.0507557e-07
0.00075439033
-3.6129976e-07
0.00034412066
-1.1185547e-07
0.00014287859
-1.9587898e-08
4.9960975e-05
1.0174449e-05
8.0839193e-09
1.0166364e-05
4.7141431e-08
4.9921916e-05
1.5494684e-07
0.00014277078
3.9846316e-07
0.00034387714
8.7979487e-07
0.00075390899
1.701517e-06
0.0015407867
2.7512761e-06
0.0029477437
3.4623622e-06
0.0052468449
3.4708619e-06
0.0085808158
2.8006857e-06
0.012686298
1.5505132e-06
0.016668476
-2.345213e-12
0.01918531
-1.5505179e-06
0.01918531
-2.8006903e-06
0.016668476
-3.4708659e-06
0.012686298
-3.4623662e-06
0.0085808158
-2.7512797e-06
0.0052468449
-1.70152e-06
0.0029477437
-8.7979745e-07
0.0015407867
-3.9846557e-07
0.00075390898
-1.5494877e-07
0.00034387714
-4.7142532e-08
0.00014277078
-8.0843837e-09
4.9921916e-05
1.0166364e-05
4.9358617e-09
1.0161429e-05
2.8698835e-08
4.9898153e-05
9.5121444e-08
0.00014270436
2.4921446e-07
0.00034372305
5.6360981e-07
0.00075359459
1.1213758e-06
0.001540229
1.918459e-06
0.0029469467
2.658822e-06
0.0052461046
2.8930598e-06
0.0085805816
2.4787663e-06
0.012686712
1.434425e-06
0.016669521
-1.5018364e-12
0.019186745
-1.4344277e-06
0.019186745
-2.4787686e-06
0.016669521
-2.8930626e-06
0.012686712
-2.6588266e-06
0.0085805816
-1.9184661e-06
0.0052461046
-1.1213848e-06
0.0029469467
-5.6361842e-07
0.001540229
-2.4922078e-07
0.00075359459
-9.5124867e-08
0.00034372305
-2.8700113e-08
0.00014270436
-4.9359991e-09
4.9898153e-05
1.0161429e-05
4.4123518e-09
1.0157016e-05
2.5525669e-08
4.987704e-05
8.383015e-08
0.00014264605
2.1689431e-07
0.00034358999
4.8450164e-07
0.00075332698
9.5636194e-07
0.0015397571
1.6413754e-06
0.0029462616
2.3245844e-06
0.0052454214
2.593955e-06
0.0085803122
2.239364e-06
0.012687066
1.3066742e-06
0.016670453
1.3881818e-12
0.019188051
-1.3066707e-06
0.019188051
-2.2393588e-06
0.016670453
-2.5939488e-06
0.012687066
-2.3245805e-06
0.0085803122
-1.6413767e-06
0.0052454214
-9.5636793e-07
0.0029462616
-4.8450981e-07
0.0015397571
-2.1690152e-07
0.00075332698
-8.3834648e-08
0.00034358999
-2.5527645e-08
0.00014264605
-4.4127881e-09
4.987704e-05
1.0157016e-05
3.625537e-09
1.0153391e-05
2.1036593e-08
4.9859629e-05
6.9438153e-08
0.00014259765
1.8114165e-07
0.00034347828
4.0971487e-07
0.00075309841
8.2390504e-07
0.0015393429
1.4539944e-06
0.0029456316
2.1430782e-06
0.0052447323
2.4674759e-06
0.0085799878
2.1883958e-06
0.012687346
1.2866449e-06
0.016671355
3.1286674e-12
0.019189338
-1.2866378e-06
0.019189338
-2.1883868e-06
0.016671355
-2.4674664e-06
0.012687346
-2.1430723e-06
0.0085799878
-1.4539944e-06
0.0052447323
-8.2391028e-07
0.0029456316
-4.0972283e-07
0.0015393429
-1.8114902e-07
0.00075309841
-6.9442874e-08
0.00034347828
-2.1038701e-08
0.00014259765
-3.626015e-09
4.9859629e-05
1.0153391e-05
2.9831338e-09
1.0150408e-05
1.7347006e-08
4.9845265e-05
5.7377315e-08
0.00014255762
1.5007396e-07
0.00034338559
3.4097155e-07
0.00075290751
6.9193281e-07
0.001538992
1.2441107e-06
0.0029450794
1.9041889e-06
0.0052440722
2.301604e-06
0.0085795904
2.0975113e-06
0.01268755
1.2520136e-06
0.016672201
3.9934293e-12
0.01919059
-1.2520047e-06
0.01919059
-2.0975005e-06
0.016672201
-2.3015934e-06
0.01268755
-1.9041835e-06
0.0085795904
-1.2441122e-06
0.0052440722
-6.9194034e-07
0.0029450794
-3.4098195e-07
0.001538992
-1.5008317e-07
0.00075290751
-5.7383029e-08
0.00034338559
-1.7349474e-08
0.00014255762
-2.983642e-09
4.9845265e-05
1.0150408e-05
2.4654282e-09
1.0147942e-05
1.4363123e-08
4.9833367e-05
4.7626499e-08
0.00014252436
1.2502876e-07
0.00034330818
2.8558922e-07
0.00075274695
5.8418019e-07
0.0015386934
1.0641859e-06
0.0029445994
1.6641603e-06
0.0052434722
2.0898775e-06
0.0085791647
1.9528974e-06
0.012687687
1.1802476e-06
0.016672973
3.6419197e-12
0.01919177
-1.1802393e-06
0.01919177
-1.9528872e-06
0.016672973
-2.089868e-06
0.012687687
-1.6641562e-06
0.0085791647
-1.064189e-06
0.0052434722
-5.8418997e-07
0.0029445994
-2.8560199e-07
0.0015386934
-1.2503979e-07
0.00075274695
-4.7633221e-08
0.00034330818
-1.4365983e-08
0.00014252436
-2.4659975e-09
4.9833367e-05
1.0147942e-05
2.1024523e-09
1.014584e-05
1.2258071e-08
4.9823212e-05
4.0688281e-08
0.00014249593
1.0699025e-07
0.00034324188
2.4507863e-07
0.00075260887
5.0385346e-07
0.0015384346
9.2623581e-07
0.002944177
1.4715129e-06
0.0052429269
1.8909105e-06
0.0085787453
1.8050245e-06
0.012687772
1.1036919e-06
0.016673675
2.6206772e-12
0.019192874
-1.1036856e-06
0.019192874
-1.8050163e-06
0.016673675
-1.8909032e-06
0.012687772
-1.4715106e-06
0.0085787453
-9.2624083e-07
0.005242927
-5.0386547e-07
0.002944177
-2.4509355e-07
0.0015384346
-1.0700285e-07
0.00075260887
-4.0695862e-08
0.00034324188
-1.2261261e-08
0.00014249593
-2.1030705e-09
4.9823212e-05
1.014584e-05
1.8282384e-09
1.0144011e-05
1.0665506e-08
4.9814374e-05
3.5430316e-08
0.00014247116
9.3283028e-08
0.00034318403
2.1413923e-07
0.00075248801
4.4192779e-07
0.0015382068
8.1811412e-07
0.0029438008
1.3163816e-06
0.0052424287
1.724495e-06
0.0085783372
1.6780436e-06
0.012687819
1.0378052e-06
0.016674315
1.3877282e-12
0.019193912
-1.0378011e-06
0.019193912
-1.6780377e-06
0.016674315
-1.7244898e-06
0.012687819
-1.316381e-06
0.0085783372
-8.1812096e-07
0.0052424287
-4.419419e-07
0.0029438008
-2.1415615e-07
0.0015382068
-9.3297106e-08
0.00075248801
-3.5438704e-08
0.00034318403
-1.0669006e-08
0.00014247116
-1.8289032e-09
4.9814374e-05
1.0144011e-05
1.6104949e-09
1.0142401e-05
9.3996827e-09
4.9806585e-05
3.1244441e-08
0.00014244932
8.2340432e-08
0.00034313293
1.8932074e-07
0.00075238103
3.9182319e-07
0.0015380043
7.2924187e-07
0.0029434634
1.1851461e-06
0.0052419728
1.5781756e-06
0.0085779441
1.5623391e-06
0.012687835
9.7669764e-07
0.0166749
2.9984937e-13
0.019194888
-9.766957e-07
0.019194888
-1.5623353e-06
0.0166749
-1.5781722e-06
0.012687835
-1.1851468e-06
0.0085779442
-7.2925015e-07
0.0052419728
-3.9183908e-07
0.0029434634
-1.8933945e-07
0.0015380043
-8.2355866e-08
0.00075238103
-3.1253595e-08
0.00034313293
-9.4034889e-09
0.00014244932
-1.6112119e-09
4.9806585e-05
1.0142401e-05
1.432324e-09
1.0140969e-05
8.363052e-09
4.9799655e-05
2.7812682e-08
0.00014242987
7.3352897e-08
0.00034308739
1.6886898e-07
0.00075228551
3.5026836e-07
0.0015378229
6.5458356e-07
0.0029431591
1.0720597e-06
0.0052415553
1.4464334e-06
0.0085775698
1.4548754e-06
0.012687826
9.1880819e-07
0.016675437
-3.9987764e-13
0.019195807
-9.1880764e-07
0.019195807
-1.4548727e-06
0.016675437
-1.4464308e-06
0.012687826
-1.072061e-06
0.0085775698
-6.545929e-07
0.0052415553
-3.5028576e-07
0.0029431591
-1.6888932e-07
0.0015378229
-7.3369633e-08
0.00075228551
-2.78226e-08
0.00034308739
-8.3671751e-09
0.00014242987
-1.4331008e-09
4.9799655e-05
1.0140969e-05
1.2850169e-09
1.0139684e-05
7.5051326e-09
4.9793434e-05
2.496896e-08
0.0001424124
6.5891334e-08
0.00034304647
1.5183843e-07
0.00075219957
3.1548598e-07
0.0015376593
5.9149747e-07
0.0029428831
9.7478766e-07
0.005241172
1.3297047e-06
0.0085772149
1.356786e-06
0.012687799
8.6525036e-07
0.016675928
-6.4051063e-13
0.019196672
-8.6525033e-07
0.019196672
-1.3567837e-06
0.016675928
-1.3297021e-06
0.012687799
-9.747892e-07
0.0085772149
-5.915076e-07
0.005241172
-3.155048e-07
0.0029428831
-1.5186041e-07
0.0015376593
-6.5909435e-08
0.00075219957
-2.4979702e-08
0.00034304647
-7.5096062e-09
0.0001424124
-1.2858642e-09
4.9793434e-05
1.0139684e-05
1.1615044e-09
1.0138522e-05
6.7852667e-09
4.9787811e-05
2.25806e-08
0.00014239661
5.9615669e-08
0.00034300944
1.3748158e-07
0.0007521217
2.8604744e-07
0.0015375107
5.3771207e-07
0.0029426314
8.9070693e-07
0.005240819
1.2263978e-06
0.0085768792
1.2674886e-06
0.012687758
8.1592508e-07
0.01667638
-5.3413848e-13
0.019197488
-8.1592483e-07
0.019197488
-1.2674859e-06
0.01667638
-1.2263947e-06
0.012687758
-8.9070836e-07
0.0085768792
-5.3772291e-07
0.005240819
-2.8606774e-07
0.0029426314
-1.3750536e-07
0.0015375107
-5.96353e-08
0.0007521217
-2.2592276e-08
0.00034300944
-6.7901413e-09
0.00014239661
-1.1624343e-09
4.9787811e-05
1.0138522e-05
1.0561646e-09
1.0137466e-05
6.1710445e-09
4.9782696e-05
2.0541492e-08
0.00014238224
5.4252396e-08
0.00034297572
1.2519126e-07
0.00075205076
2.6076877e-07
0.0015373751
4.9125279e-07
0.0029424009
8.1722608e-07
0.005240493
1.1341837e-06
0.0085765622
1.1857896e-06
0.012687707
7.7021334e-07
0.016676795
-2.0340493e-13
0.019198259
-7.7021241e-07
0.019198259
-1.1857861e-06
0.016676795
-1.1341798e-06
0.012687707
-8.1722733e-07
0.0085765622
-4.9126444e-07
0.005240493
-2.6079078e-07
0.0029424009
-1.2521712e-07
0.0015373751
-5.4273793e-08
0.00075205076
-2.0554245e-08
0.00034297573
-6.1763806e-09
0.00014238224
-1.057189e-09
4.9782696e-05
1.0137466e-05
9.651628e-10
1.0136501e-05
5.6402277e-09
4.9778021e-05
1.8778406e-08
0.0001423691
4.96115e-08
0.00034294489
1.1454209e-07
0.00075198583
2.3881169e-07
0.0015372509
4.5070494e-07
0.002942189
7.5248362e-07
0.0052401913
1.0514999e-06
0.0085762632
1.1108306e-06
0.012687647
7.2768741e-07
0.016677178
1.9744157e-13
0.019198986
-7.276856e-07
0.019198986
-1.1108261e-06
0.016677178
-1.0514951e-06
0.012687647
-7.5248471e-07
0.0085762632
-4.5071756e-07
0.0052401913
-2.388357e-07
0.002942189
-1.1457037e-07
0.0015372509
-4.9634936e-08
0.00075198583
-1.8792393e-08
0.00034294489
-5.6460887e-09
0.0001423691
-9.6629266e-10
4.9778021e-05
1.0136501e-05
8.8581945e-10
1.0135615e-05
5.1772529e-09
4.9773729e-05
1.7239963e-08
0.00014235704
4.5559115e-08
0.00034291657
1.0523261e-07
0.00075192616
2.195771e-07
0.0015371365
4.1504308e-07
0.0029419936
6.9508983e-07
0.0052399112
9.7709417e-07
0.0085759812
1.0418664e-06
0.012687582
6.8800395e-07
0.016677532
5.6152403e-13
0.019199674
-6.8800129e-07
0.019199674
-1.0418608e-06
0.016677532
-9.7708846e-07
0.012687582
-6.9509083e-07
0.0085759812
-4.1505684e-07
0.0052399112
-2.1960342e-07
0.0029419936
-1.0526366e-07
0.0015371365
-4.5584868e-08
0.00075192616
-1.7255341e-08
0.00034291657
-5.1837013e-09
0.00014235704
-8.8706472e-10
4.9773729e-05
1.0135615e-05
8.1603802e-10
1.0134799e-05
4.7699568e-09
4.9769776e-05
1.5886036e-08
0.00014234592
4.1990721e-08
0.00034289047
9.7027128e-08
0.00075187112
2.0259412e-07
0.0015370309
3.834496e-07
0.0029418127
6.438962e-07
0.0052396508
9.0984264e-07
0.0085757152
9.7823496e-07
0.012687514
6.5086526e-07
0.01667786
8.3222628e-13
0.019200325
-6.5086189e-07
0.019200325
-9.782284e-07
0.01667786
-9.0983612e-07
0.012687514
-6.438972e-07
0.0085757153
-3.8346469e-07
0.0052396508
-2.0262305e-07
0.0029418127
-9.7061281e-08
0.0015370309
-4.2019056e-08
0.00075187112
-1.5902958e-08
0.00034289047
-4.7770518e-09
0.00014234592
-8.1740776e-10
4.9769775e-05
1.0134799e-05
7.5416728e-10
1.0134045e-05
4.4087505e-09
4.9766121e-05
1.4684961e-08
0.00014233564
3.8823699e-08
0.00034286633
8.9738824e-08
0.00075182021
1.8748749e-07
0.0015369332
3.5526607e-07
0.0029416449
5.9795881e-07
0.0052394081
8.4878821e-07
0.0085754644
9.193657e-07
0.012687443
6.1600946e-07
0.016678163
1.0024881e-12
0.019200941
-6.1600555e-07
0.019200941
-9.1935828e-07
0.016678163
-8.487809e-07
0.012687443
-5.9795983e-07
0.0085754644
-3.5528262e-07
0.0052394081
-1.8751929e-07
0.0029416449
-8.9776393e-08
0.0015369332
-3.8854866e-08
0.00075182021
-1.4703569e-08
0.00034286633
-4.4165482e-09
0.00014233564
-7.5567022e-10
4.9766121e-05
1.0134045e-05
6.9891796e-10
1.0133346e-05
4.0861378e-09
4.9762734e-05
1.3611944e-08
0.00014232612
3.5993216e-08
0.00034284395
8.3220576e-08
0.00075177298
1.7396004e-07
0.0015368425
3.2996591e-07
0.0029414889
5.5650783e-07
0.0052391815
7.9312049e-07
0.0085752278
8.6476718e-07
0.012687372
5.8323056e-07
0.016678444
1.1006575e-12
0.019201524
-5.8322623e-07
0.019201524
-8.6475893e-07
0.016678444
-7.9311237e-07
0.012687372
-5.5650886e-07
0.0085752278
-3.2998403e-07
0.0052391815
-1.7399497e-07
0.0029414889
-8.3261852e-08
0.0015368425
-3.6027451e-08
0.00075177298
-1.3632374e-08
0.00034284395
-4.0946931e-09
0.00014232612
-7.0056313e-10
4.9762734e-05
1.0133346e-05
6.4927374e-10
1.0132697e-05
3.796205e-09
4.9759587e-05
1.2647406e-08
0.00014231727
3.3447999e-08
0.00034282315
7.7355787e-08
0.00075172907
1.6177542e-07
0.001536758
3.0712753e-07
0.0029413436
5.1892003e-07
0.0052389697
7.4217263e-07
0.0085750045
8.1401288e-07
0.0126873
5.523415e-07
0.016678706
1.1702016e-12
0.019202077
-5.5233678e-07
0.019202077
-8.1400379e-07
0.016678706
-7.4216364e-07
0.0126873
-5.1892104e-07
0.0085750046
-3.0714733e-07
0.0052389697
-1.618137e-07
0.0029413436
-7.7401052e-08
0.001536758
-3.3485534e-08
0.00075172907
-1.2669794e-08
0.00034282315
-3.8055736e-09
0.00014231727
-6.5107096e-10
4.9759587e-05
1.0132697e-05
6.0442056e-10
1.0132092e-05
3.5342131e-09
4.9756657e-05
1.1775647e-08
0.00014230903
3.1146889e-08
0.00034280378
7.2050677e-08
0.00075168817
1.5074287e-07
0.0015366793
2.864085e-07
0.0029412079
4.8468224e-07
0.0052387715
6.9538062e-07
0.0085747938
7.6674284e-07
0.012687229
5.2320357e-07
0.01667895
1.2510998e-12
0.0192026
-5.2319843e-07
0.0192026
-7.6673285e-07
0.01667895
-6.9537066e-07
0.012687229
-4.8468321e-07
0.0085747939
-2.8643008e-07
0.0052387715
-1.5078474e-07
0.0029412079
-7.210022e-08
0.0015366793
-3.1187963e-08
0.00075168817
-1.1800135e-08
0.00034280378
-3.5444539e-09
0.00014230903
-6.0638089e-10
4.9756657e-05
1.0132092e-05
5.6369986e-10
1.0131528e-05
3.2963267e-09
4.9753925e-05
1.0983955e-08
0.00014230134
2.9056536e-08
0.0003427857
6.7229175e-08
0.00075165
1.4070732e-07
0.0015366059
2.675294e-07
0.0029410811
4.5337298e-07
0.0052385856
6.5227556e-07
0.0085745949
7.2263519e-07
0.012687158
4.9567323e-07
0.016679177
1.3718189e-12
0.019203096
-4.9566758e-07
0.019203096
-7.2262418e-07
0.016679177
-6.5226453e-07
0.012687158
-4.5337389e-07
0.008574595
-2.6755288e-07
0.0052385856
-1.4075304e-07
0.0029410811
-6.7283302e-08
0.0015366059
-2.9101405e-08
0.00075165
-1.1010695e-08
0.00034278571
-3.3075041e-09
0.00014230134
-5.658358e-10
4.9753924e-05
1.0131528e-05
5.2657244e-10
1.0131002e-05
3.0794046e-09
4.9751372e-05
1.0261912e-08
0.00014229416
2.7149591e-08
0.00034276882
6.2828805e-08
0.00075161432
1.315411e-07
0.0015365372
2.5025887e-07
0.0029409624
4.2463869e-07
0.0052384112
6.124533e-07
0.0085744071
6.8142212e-07
0.012687089
4.6965653e-07
0.016679388
1.5448853e-12
0.019203565
-4.6965026e-07
0.019203565
-6.8140998e-07
0.016679388
-6.124411e-07
0.012687089
-4.2463953e-07
0.0085744071
-2.502844e-07
0.0052384113
-1.3159096e-07
0.0029409624
-6.2887856e-08
0.0015365372
-2.7198536e-08
0.00075161432
-1.0291074e-08
0.00034276882
-3.0915897e-09
0.00014229416
-5.28898e-10
4.9751372e-05
1.0131002e-05
4.9259377e-10
1.0130509e-05
2.8808562e-09
4.9748984e-05
9.600926e-09
0.00014228744
2.5403489e-08
0.00034275302
5.8798002e-08
0.00075158092
1.2313873e-07
0.0015364728
2.344055e-07
0.0029408511
3.9818643e-07
0.0052382475
5.7557736e-07
0.0085742297
6.4285148e-07
0.012687022
4.4503212e-07
0.016679586
1.7670896e-12
0.01920401
-4.4502514e-07
0.01920401
-6.4283808e-07
0.016679586
-5.7556389e-07
0.012687022
-3.9818719e-07
0.0085742298
-2.3443325e-07
0.0052382475
-1.2319305e-07
0.0029408511
-5.8862354e-08
0.0015364728
-2.5456823e-08
0.00075158092
-9.632696e-09
0.00034275302
-2.8941274e-09
0.00014228744
-4.951243e-10
4.9748983e-05
1.0130509e-05
4.6139233e-10
1.0130048e-05
2.6985165e-09
4.9746746e-05
8.9938137e-09
0.00014228114
2.3799348e-08
0.00034273821
5.5093551e-08
0.00075154963
1.1541158e-07
0.0015364125
2.1980751e-07
0.0029407467
3.7376482e-07
0.0052380935
5.4135022e-07
0.0085740621
6.0672303e-07
0.012686957
4.2174046e-07
0.016679771
2.0194453e-12
0.019204432
-4.2173268e-07
0.019204432
-6.0670828e-07
0.016679771
-5.413354e-07
0.012686957
-3.7376554e-07
0.0085740622
-2.1983768e-07
0.0052380935
-1.1547073e-07
0.0029407467
-5.5163622e-08
0.0015364125
-2.3857413e-08
0.00075154963
-9.0283955e-09
0.00034273821
-2.7129588e-09
0.00014228114
-4.6414411e-10
4.9746746e-05
1.0130048e-05
4.3265573e-10
1.0129615e-05
2.5305639e-09
4.9744649e-05
8.4345305e-09
0.00014227524
2.2321289e-08
0.00034272432
5.1679139e-08
0.00075152027
1.0828523e-07
0.0015363559
2.0632916e-07
0.0029406487
3.5116382e-07
0.0052379487
5.0952375e-07
0.0085739038
5.7282898e-07
0.012686893
3.9966698e-07
0.016679944
2.276483e-12
0.019204832
-3.9965838e-07
0.019204832
-5.7281281e-07
0.016679944
-5.0950752e-07
0.012686893
-3.5116454e-07
0.0085739038
-2.0636196e-07
0.0052379487
-1.0834959e-07
0.0029406486
-5.1755385e-08
0.0015363559
-2.2384457e-08
0.00075152027
-8.4721425e-09
0.00034272432
-2.5462675e-09
0.00014227524
-4.3564553e-10
4.9744648e-05
1.0129615e-05
4.0611874e-10
1.0129209e-05
2.3754531e-09
4.9742679e-05
7.9179472e-09
0.0001422697
2.0955813e-08
0.00034271129
4.8523806e-08
0.00075149271
1.0169596e-07
0.0015363027
1.9385339e-07
0.0029405565
3.3019884e-07
0.0052378123
4.798729e-07
0.0085737541
5.4102271e-07
0.012686832
3.7878383e-07
0.016680107
2.503056e-12
0.01920521
-3.7877444e-07
0.01920521
-5.410051e-07
0.016680107
-4.7985523e-07
0.012686832
-3.3019961e-07
0.0085737541
-1.9388909e-07
0.0052378123
-1.0176596e-07
0.0029405565
-4.8606706e-08
0.0015363027
-2.1024472e-08
0.00075149271
-7.9588156e-09
0.00034271129
-2.3925102e-09
0.0001422697
-4.0936299e-10
4.9742679e-05
1.0129209e-05
3.8155376e-10
1.0128828e-05
2.2318554e-09
4.9740829e-05
7.4396533e-09
0.00014226449
1.9691339e-08
0.00034269903
4.5601078e-08
0.0007514668
9.5589456e-08
0.0015362527
1.8228081e-07
0.0029404698
3.1071469e-07
0.0052376839
4.5220922e-07
0.0085736126
5.1112098e-07
0.012686773
3.5896977e-07
0.016680259
2.6660249e-12
0.019205569
-3.5895967e-07
0.019205569
-5.1110193e-07
0.016680259
-4.5219008e-07
0.012686773
-3.1071558e-07
0.0085736126
-1.8231964e-07
0.0052376839
-9.5665537e-08
0.0029404698
-4.5691126e-08
0.0015362527
-1.9765881e-08
0.0007514668
-7.484003e-09
0.00034269904
-2.2503559e-09
0.00014226449
-3.8506753e-10
4.9740829e-05
1.0128828e-05
3.5876668e-10
1.0128469e-05
2.0986419e-09
4.9739089e-05
6.9958996e-09
0.00014225959
1.8517976e-08
0.00034268751
4.2888179e-08
0.00075144243
8.991865e-08
0.0015362057
1.7152439e-07
0.0029403882
2.925724e-07
0.0052375628
4.2635989e-07
0.0085734788
4.8302599e-07
0.012686717
3.4023269e-07
0.016680402
2.7272719e-12
0.01920591
-3.4022203e-07
0.01920591
-4.8300556e-07
0.016680402
-4.2633929e-07
0.012686717
-2.925735e-07
0.0085734789
-1.7156662e-07
0.0052375629
-9.0001244e-08
0.0029403882
-4.2985859e-08
0.0015362057
-1.8598781e-08
0.00075144243
-7.0439462e-09
0.00034268751
-2.1186706e-09
0.00014225959
-3.6256332e-10
4.9739089e-05
1.0128469e-05
3.3758545e-10
1.0128131e-05
1.9748042e-09
4.9737452e-05
6.5833395e-09
0.00014225498
1.7426958e-08
0.00034267667
4.0365149e-08
0.00075141949
8.4642657e-08
0.0015361614
1.6150906e-07
0.0029403113
2.7565358e-07
0.0052374487
4.0217577e-07
0.0085733523
4.5656047e-07
0.012686662
3.2242996e-07
0.016680536
2.6586386e-12
0.019206232
-3.2241895e-07
0.019206232
-4.5653876e-07
0.016680536
-4.0215374e-07
0.012686662
-2.7565495e-07
0.0085733523
-1.6155492e-07
0.0052374487
-8.4732166e-08
0.0029403113
-4.0470902e-08
0.0015361614
-1.7514368e-08
0.00075141949
-6.6352697e-09
0.00034267667
-1.9964318e-09
0.00014225498
-3.4167433e-10
4.9737452e-05
1.0128131e-05
3.178672e-10
1.0127813e-05
1.8595169e-09
4.9735911e-05
6.1992283e-09
0.00014225064
1.6410994e-08
0.00034266646
3.8015031e-08
0.00075139789
7.9726127e-08
0.0015361197
1.5216915e-07
0.0029402389
2.5985274e-07
0.005237341
3.7952622e-07
0.0085732326
4.3167973e-07
0.01268661
3.0561614e-07
0.016680662
2.4296915e-12
0.019206538
-3.0560505e-07
0.019206538
-4.3165686e-07
0.016680662
-3.795028e-07
0.01268661
-2.5985444e-07
0.0085732327
-1.5221884e-07
0.005237341
-7.9822907e-08
0.0029402389
-3.8129241e-08
0.0015361197
-1.6505295e-08
0.00075139789
-6.2551946e-09
0.00034266646
-1.8827983e-09
0.00014225064
-3.2225394e-10
4.973591e-05
1.0127813e-05
2.9947486e-10
1.0127514e-05
1.7519683e-09
4.9734458e-05
5.8408737e-09
0.00014224655
1.5463097e-08
0.00034265684
3.5822107e-08
0.00075137753
7.5137129e-08
0.0015360804
1.4344576e-07
0.0029401706
2.4507501e-07
0.0052372394
3.5828355e-07
0.0085731194
4.081901e-07
0.01268656
2.8960786e-07
0.01668078
2.021796e-12
0.019206827
-2.8959698e-07
0.019206827
-4.0816625e-07
0.01668078
-3.5825879e-07
0.01268656
-2.450771e-07
0.0085731195
-1.4349944e-07
0.0052372394
-7.5241446e-08
0.0029401706
-3.5945053e-08
0.0015360804
-1.5564484e-08
0.00075137753
-5.9009715e-09
0.00034265684
-1.7769333e-09
0.00014224655
-3.0415949e-10
4.9734458e-05
1.0127514e-05
2.8230861e-10
1.0127232e-05
1.6515949e-09
4.9733089e-05
5.506396e-09
0.0001422427
1.4578153e-08
0.00034264777
3.3774118e-08
0.00075135833
7.0849504e-08
0.0015360433
1.3529012e-07
0.0029401061
2.3124347e-07
0.0052371434
3.3835968e-07
0.0085730123
3.8611614e-07
0.012686512
2.745265e-07
0.016680892
1.4199198e-12
0.019207102
-2.7451615e-07
0.019207102
-3.860915e-07
0.016680892
-3.3833366e-07
0.012686512
-2.31246e-07
0.0085730123
-1.3534788e-07
0.0052371434
-7.0961516e-08
0.0029401061
-3.3905943e-08
0.0015360433
-1.4686705e-08
0.00075135833
-5.5706462e-09
0.00034264777
-1.6782396e-09
0.0001422427
-2.8728325e-10
4.9733089e-05
1.0127232e-05
2.6624733e-10
1.0126965e-05
1.5576608e-09
4.9731798e-05
5.1933597e-09
0.00014223906
1.3749992e-08
0.00034263921
3.1857655e-08
0.00075134023
6.6836709e-08
0.0015360084
1.2765287e-07
0.0029400453
2.1827421e-07
0.0052370528
3.1962665e-07
0.0085729109
3.6521546e-07
0.012686467
2.6011969e-07
0.016680997
6.2216807e-13
0.019207362
-2.601102e-07
0.019207362
-3.6519025e-07
0.016680997
-3.1959946e-07
0.012686467
-2.1827718e-07
0.008572911
-1.2771473e-07
0.0052370528
-6.6956439e-08
0.0029400453
-3.199835e-08
0.0015360083
-1.386566e-08
0.00075134023
-5.2617085e-09
0.00034263921
-1.5859509e-09
0.00014223907
-2.7149886e-10
4.9731798e-05
1.0126965e-05
2.5124109e-10
1.0126714e-05
1.4699191e-09
4.9730579e-05
4.9009248e-09
0.00014223563
1.2976e-08
0.00034263114
3.006545e-08
0.00075132314
6.3081724e-08
0.0015359753
1.2050228e-07
0.0029399879
2.0612285e-07
0.0052369672
3.0205481e-07
0.008572815
3.4561684e-07
0.012686423
2.4660938e-07
0.016681096
-3.7158039e-13
0.019207609
-2.4660111e-07
0.019207609
-3.455913e-07
0.016681096
-3.0202656e-07
0.012686423
-2.0612625e-07
0.0085728151
-1.2056815e-07
0.0052369672
-6.3209001e-08
0.0029399879
-3.0214776e-08
0.0015359753
-1.3098538e-08
0.00075132314
-4.9731945e-09
0.00034263114
-1.4997651e-09
0.00014223563
-2.5674358e-10
4.9730579e-05
1.0126714e-05
2.3715621e-10
1.0126477e-05
1.3875196e-09
4.9729429e-05
4.6262932e-09
0.0001422324
1.2249417e-08
0.00034262351
2.838388e-08
0.000751307
5.9559277e-08
0.0015359442
1.1379078e-07
0.0029399337
1.9469907e-07
0.0052368863
2.8548125e-07
0.0085727242
3.2697767e-07
0.012686382
2.336318e-07
0.016681189
-1.5480393e-12
0.019207842
-2.3362508e-07
0.019207842
-3.2695206e-07
0.016681189
-2.8545206e-07
0.012686382
-1.9470287e-07
0.0085727243
-1.1386048e-07
0.0052368863
-5.9693781e-08
0.0029399337
-2.8541419e-08
0.0015359441
-1.2378434e-08
0.000751307
-4.7022238e-09
0.00034262352
-1.4188004e-09
0.0001422324
-2.4287977e-10
4.9729429e-05
1.0126477e-05
2.2403382e-10
1.0126253e-05
1.310809e-09
4.9728342e-05
4.370556e-09
0.00014222934
1.1572085e-08
0.00034261631
2.6813944e-08
0.00075129176
5.6266249e-08
0.0015359147
1.0751225e-07
0.0029398824
1.8401195e-07
0.0052368098
2.6997995e-07
0.0085726382
3.0959905e-07
0.012686342
2.2156531e-07
0.016681277
-2.8943012e-12
0.019208064
-2.2156044e-07
0.019208064
-3.0957361e-07
0.016681277
-2.6994996e-07
0.012686342
-1.8401609e-07
0.0085726383
-1.0758543e-07
0.0052368098
-5.6407377e-08
0.0029398824
-2.6978956e-08
0.0015359147
-1.1706922e-08
0.00075129176
-4.4497245e-09
0.00034261632
-1.343333e-09
0.00014222934
-2.2993343e-10
4.9728343e-05
1.0126253e-05
2.1165493e-10
1.0126041e-05
1.2383395e-09
4.9727316e-05
4.1289971e-09
0.00014222645
1.0933217e-08
0.00034260951
2.5335962e-08
0.00075127736
5.3170024e-08
0.0015358869
1.0160591e-07
0.002939834
1.7393153e-07
0.0052367375
2.5528878e-07
0.0085725569
2.9295489e-07
0.012686304
2.0987208e-07
0.01668136
-4.3837943e-12
0.019208274
-2.0986931e-07
0.019208274
-2.9292987e-07
0.01668136
-2.5525814e-07
0.012686304
-1.739359e-07
0.0085725569
-1.0168212e-07
0.0052367375
-5.3316958e-08
0.002939834
-2.5507451e-08
0.0015358869
-1.1073008e-08
0.00075127736
-4.2108622e-09
0.00034260951
-1.271869e-09
0.00014222645
-2.176783e-10
4.9727316e-05
1.0126041e-05
2.0030137e-10
1.0125841e-05
1.1720149e-09
4.9726344e-05
3.907725e-09
0.00014222371
1.0346025e-08
0.00034260307
2.3971315e-08
0.00075126374
5.0299839e-08
0.0015358605
9.6122009e-08
0.0029397882
1.6458105e-07
0.005236669
2.416921e-07
0.0085724798
2.7764797e-07
0.012686268
1.9918141e-07
0.016681439
-5.9468107e-12
0.019208473
-1.9918092e-07
0.019208473
-2.7762352e-07
0.016681439
-2.4166087e-07
0.012686269
-1.6458545e-07
0.0085724798
-9.6200582e-08
0.005236669
-5.0451418e-08
0.0029397881
-2.4147917e-08
0.0015358605
-1.0489612e-08
0.00075126374
-3.9915742e-09
0.00034260308
-1.2062403e-09
0.00014222371
-2.0638208e-10
4.9726345e-05
1.0125841e-05
1.893711e-10
1.0125652e-05
1.1079132e-09
4.9725426e-05
3.6941517e-09
0.00014222112
9.7824276e-09
0.00034259698
2.2671306e-08
0.00075125085
4.758234e-08
0.0015358356
9.0937192e-08
0.0029397448
1.5570748e-07
0.0052366042
2.2870228e-07
0.0085724068
2.6284554e-07
0.012686234
1.8869979e-07
0.016681513
-7.5567983e-12
0.019208662
-1.8870182e-07
0.019208662
-2.6282191e-07
0.016681513
-2.2867049e-07
0.012686234
-1.5571157e-07
0.0085724068
-9.1017202e-08
0.0052366042
-4.7737014e-08
0.0029397448
-2.2851182e-08
0.0015358356
-9.9282342e-09
0.00075125085
-3.7789999e-09
0.00034259699
-1.1423967e-09
0.00014222113
-1.9540888e-10
4.9725427e-05
1.0125652e-05
1.8000033e-10
1.0125472e-05
1.0532866e-09
4.9724553e-05
3.5113334e-09
0.00014221867
9.2935513e-09
0.0003425912
2.1523841e-08
0.00075123862
4.514684e-08
0.001535812
8.6257496e-08
0.0029397037
1.4770889e-07
0.0052365428
2.1705175e-07
0.0085723374
2.4969938e-07
0.012686202
1.7947796e-07
0.016681583
-9.0936754e-12
0.019208841
-1.7948251e-07
0.019208841
-2.4967675e-07
0.016681583
-2.1701936e-07
0.012686202
-1.4771205e-07
0.0085723375
-8.6337694e-08
0.0052365428
-4.5302702e-08
0.0029397037
-2.1704677e-08
0.001535812
-9.4394711e-09
0.00075123863
-3.5957856e-09
0.00034259121
-1.0873734e-09
0.00014221867
-1.8583109e-10
4.9724554e-05
1.0125472e-05
1.6889886e-10
1.0125303e-05
9.8839088e-10
4.9723734e-05
3.2980109e-09
0.00014221636
8.7442094e-09
0.00034258576
2.029705e-08
0.00075122707
4.2667005e-08
0.0015357896
8.1646403e-08
0.0029396647
1.3992798e-07
0.0052364845
2.0571809e-07
0.0085722716
2.3675396e-07
0.012686171
1.7030031e-07
0.01668165
-1.0351602e-11
0.019209011
-1.7030739e-07
0.019209011
-2.3673297e-07
0.01668165
-2.0568531e-07
0.012686171
-1.3992921e-07
0.0085722717
-8.1724813e-08
0.0052364845
-4.2821519e-08
0.0029396647
-2.0476123e-08
0.0015357896
-8.8879124e-09
0.00075122708
-3.3805868e-09
0.00034258577
-1.0214248e-09
0.00014221636
-1.7438953e-10
4.9723735e-05
1.0125303e-05
1.6410711e-10
1.0125139e-05
9.6050822e-10
4.9722938e-05
3.1989261e-09