/*--------------------------------*- C++ -*----------------------------------*\
| =========                 |                                                 |
| \\      /  F ield         | OpenFOAM: The Open Source CFD Toolbox           |
|  \\    /   O peration     | Version:  2406                                  |
|   \\  /    A nd           | Website:  www.openfoam.com                      |
|    \\/     M anipulation  |                                                 |
\*---------------------------------------------------------------------------*/
FoamFile
{
    version     2.0;
    format      ascii;
    arch        "LSB;label=32;scalar=64";
    class       volVectorField;
    location    "44";
    object      U;
}
// * * * * * * * * * * * * * * * * * * * * * * * * * * * * * * * * * * * * * //

dimensions      [0 1 -1 0 0 0 0];

internalField   nonuniform List<vector> 
1176
(
(0.019493789 7.0786338e-07 0)
(0.066677318 8.1696591e-06 0)
(0.13357994 3.9503162e-05 0)
(0.22724701 0.00010873575 0)
(0.35591522 0.00021176025 0)
(0.52772023 0.00030396282 0)
(0.74780387 0.00031818012 0)
(1.0136216 0.00024904577 0)
(1.3093323 0.0001666698 0)
(1.6017081 0.00011264658 0)
(1.8421723 7.0213801e-05 0)
(1.9793239 2.3940421e-05 0)
(1.9793239 -2.3941276e-05 0)
(1.8421723 -7.0215476e-05 0)
(1.6017081 -0.0001126506 0)
(1.3093323 -0.00016667883 0)
(1.0136216 -0.00024906237 0)
(0.74780389 -0.00031820434 0)
(0.52772026 -0.00030399048 0)
(0.35591524 -0.0002117834 0)
(0.227247 -0.00010875211 0)
(0.13357993 -3.9502967e-05 0)
(0.066677311 -8.1813192e-06 0)
(0.019493787 -7.0580431e-07 0)
(0.020187017 -3.7419179e-06 0)
(0.068813532 -2.463864e-05 0)
(0.13732107 -9.6548556e-05 0)
(0.23247391 -0.00024839461 0)
(0.36204617 -0.00047268784 0)
(0.53373557 -0.00067421189 0)
(0.75267407 -0.00069486952 0)
(1.0170176 -0.00049687381 0)
(1.3116385 -0.00023345939 0)
(1.6034438 -4.9824709e-05 0)
(1.8436588 1.9764334e-05 0)
(1.9807026 1.3427344e-05 0)
(1.9807026 -1.3427762e-05 0)
(1.8436588 -1.976327e-05 0)
(1.6034438 4.9829703e-05 0)
(1.3116385 0.00023347139 0)
(1.0170177 0.00049689551 0)
(0.75267408 0.00069489986 0)
(0.53373557 0.00067424342 0)
(0.36204618 0.00047271094 0)
(0.23247391 0.00024840727 0)
(0.13732107 9.6550544e-05 0)
(0.068813526 2.4642254e-05 0)
(0.020187014 3.7413356e-06 0)
(0.020018442 2.0918366e-06 0)
(0.068327405 1.2720774e-05 0)
(0.13655405 4.6877254e-05 0)
(0.23159544 0.00011389738 0)
(0.36138709 0.00019769267 0)
(0.53366969 0.00023903233 0)
(0.75344344 0.00020559808 0)
(1.0184881 0.00011361103 0)
(1.3134639 7.4313363e-05 0)
(1.6053464 7.953248e-05 0)
(1.8455118 7.0515809e-05 0)
(1.9825245 2.7824403e-05 0)
(1.9825245 -2.7827779e-05 0)
(1.8455118 -7.0520258e-05 0)
(1.6053464 -7.9538591e-05 0)
(1.3134639 -7.4320894e-05 0)
(1.0184881 -0.00011361915 0)
(0.75344342 -0.00020560508 0)
(0.53366967 -0.00023903833 0)
(0.36138707 -0.0001976961 0)
(0.23159543 -0.00011389841 0)
(0.13655404 -4.6878379e-05 0)
(0.068327405 -1.2719404e-05 0)
(0.020018442 -2.0921555e-06 0)
(0.019966547 7.0076302e-07 0)
(0.068159232 4.687054e-06 0)
(0.13624021 1.9355437e-05 0)
(0.2311194 5.6456172e-05 0)
(0.36078093 0.00013444566 0)
(0.53306293 0.00025829317 0)
(0.75295637 0.0003534474 0)
(1.0181104 0.00036911998 0)
(1.313184 0.00030758868 0)
(1.6051633 0.00022777235 0)
(1.8453995 0.00014555946 0)
(1.9824491 4.9997479e-05 0)
(1.9824491 -4.9996632e-05 0)
(1.8453995 -0.00014555836 0)
(1.6051633 -0.00022777111 0)
(1.313184 -0.00030758768 0)
(1.0181104 -0.00036912003 0)
(0.75295638 -0.00035344996 0)
(0.53306294 -0.00025829665 0)
(0.36078093 -0.00013444893 0)
(0.2311194 -5.6458262e-05 0)
(0.13624021 -1.9356153e-05 0)
(0.068159234 -4.6875749e-06 0)
(0.019966548 -7.0072327e-07 0)
(0.019942203 2.9076737e-07 0)
(0.068078703 1.9872077e-06 0)
(0.13608628 8.2361119e-06 0)
(0.23087699 2.3699326e-05 0)
(0.36044744 5.6881633e-05 0)
(0.53266448 0.00012306887 0)
(0.75256878 0.00022681818 0)
(1.017808 0.00032272217 0)
(1.3129044 0.00034572454 0)
(1.604912 0.00030729968 0)
(1.8452029 0.00021095299 0)
(1.9822898 7.461438e-05 0)
(1.9822898 -7.4614748e-05 0)
(1.8452029 -0.00021095343 0)
(1.604912 -0.00030730027 0)
(1.3129044 -0.00034572497 0)
(1.017808 -0.00032272249 0)
(0.75256878 -0.00022681849 0)
(0.53266449 -0.000123069 0)
(0.36044744 -5.6881839e-05 0)
(0.23087699 -2.3699514e-05 0)
(0.13608628 -8.2365003e-06 0)
(0.068078703 -1.9870482e-06 0)
(0.019942203 -2.9083641e-07 0)
(0.019933132 1.7181428e-07 0)
(0.068047755 1.1940786e-06 0)
(0.13602489 5.0651962e-06 0)
(0.23077535 1.4968866e-05 0)
(0.36029898 3.6219566e-05 0)
(0.5324792 7.6944291e-05 0)
(0.75239427 0.00014713779 0)
(1.0177222 0.00023749035 0)
(1.3129292 0.00028525602 0)
(1.6049746 0.00027441493 0)
(1.8452865 0.00019644619 0)
(1.9823834 7.1176927e-05 0)
(1.9823834 -7.1177147e-05 0)
(1.8452865 -0.00019644644 0)
(1.6049746 -0.00027441525 0)
(1.3129292 -0.0002852565 0)
(1.0177222 -0.00023749081 0)
(0.75239427 -0.00014713857 0)
(0.5324792 -7.6945116e-05 0)
(0.36029898 -3.6220258e-05 0)
(0.23077535 -1.4969272e-05 0)
(0.13602488 -5.0656001e-06 0)
(0.068047755 -1.1939456e-06 0)
(0.019933132 -1.7187558e-07 0)
(0.0199234 1.5587497e-07 0)
(0.068015507 1.0700789e-06 0)
(0.13596286 4.4934633e-06 0)
(0.23067607 1.3195472e-05 0)
(0.36015773 3.1857157e-05 0)
(0.53230178 6.6958303e-05 0)
(0.75221429 0.000124119 0)
(1.0176105 0.00019917068 0)
(1.3129358 0.00025490864 0)
(1.6050904 0.0002459519 0)
(1.8454579 0.00018127915 0)
(1.9825798 6.6548706e-05 0)
(1.9825798 -6.6548385e-05 0)
(1.8454579 -0.00018127878 0)
(1.6050904 -0.00024595138 0)
(1.3129358 -0.00025490811 0)
(1.0176105 -0.00019917056 0)
(0.75221429 -0.00012411934 0)
(0.53230178 -6.6958969e-05 0)
(0.36015773 -3.1857894e-05 0)
(0.23067607 -1.319599e-05 0)
(0.13596286 -4.4939393e-06 0)
(0.068015506 -1.0699989e-06 0)
(0.0199234 -1.5593302e-07 0)
(0.019915697 1.2758583e-07 0)
(0.067989792 8.7801939e-07 0)
(0.13591293 3.6960003e-06 0)
(0.23059503 1.0901612e-05 0)
(0.36003987 2.6613374e-05 0)
(0.53214753 5.7237183e-05 0)
(0.75204133 0.00010911061 0)
(1.0174723 0.00017936648 0)
(1.3128926 0.00023802505 0)
(1.6051414 0.00023746785 0)
(1.8455877 0.00017750711 0)
(1.9827514 6.5539743e-05 0)
(1.9827514 -6.5539098e-05 0)
(1.8455877 -0.00017750637 0)
(1.6051414 -0.00023746696 0)
(1.3128926 -0.00023802425 0)
(1.0174723 -0.00017936621 0)
(0.75204133 -0.00010911085 0)
(0.53214753 -5.7237772e-05 0)
(0.36003987 -2.6614095e-05 0)
(0.23059503 -1.0902136e-05 0)
(0.13591293 -3.6965735e-06 0)
(0.067989792 -8.7787098e-07 0)
(0.019915697 -1.2766577e-07 0)
(0.019909217 1.0465829e-07 0)
(0.067968141 7.2313754e-07 0)
(0.13587084 3.0521051e-06 0)
(0.23052654 9.0118371e-06 0)
(0.35993984 2.1999899e-05 0)
(0.53201542 4.7473488e-05 0)
(0.75188901 9.2014166e-05 0)
(1.0173341 0.00015618207 0)
(1.3128278 0.00021699704 0)
(1.6051595 0.00022709662 0)
(1.8456699 0.00017232668 0)
(1.982868 6.4148095e-05 0)
(1.982868 -6.4147294e-05 0)
(1.8456699 -0.00017232576 0)
(1.6051595 -0.00022709555 0)
(1.3128278 -0.00021699624 0)
(1.0173341 -0.00015618192 0)
(0.75188901 -9.2014586e-05 0)
(0.53201542 -4.7474289e-05 0)
(0.35993984 -2.2000817e-05 0)
(0.23052654 -9.012481e-06 0)
(0.13587084 -3.0527944e-06 0)
(0.067968141 -7.2295075e-07 0)
(0.019909217 -1.0475541e-07 0)
(0.019903971 8.6127217e-08 0)
(0.067950552 5.9696315e-07 0)
(0.13583649 2.5273802e-06 0)
(0.2304703 7.4916206e-06 0)
(0.35985692 1.8376318e-05 0)
(0.53190436 3.9835735e-05 0)
(0.75175836 7.7712251e-05 0)
(1.0172122 0.00013432452 0)
(1.3127613 0.00019323395 0)
(1.6051772 0.0002105838 0)
(1.8457533 0.00016273006 0)
(1.9829863 6.1084602e-05 0)
(1.9829863 -6.1083871e-05 0)
(1.8457533 -0.00016272918 0)
(1.6051772 -0.0002105828 0)
(1.3127613 -0.0001932333 0)
(1.0172122 -0.00013432451 0)
(0.75175836 -7.7712845e-05 0)
(0.53190436 -3.9836748e-05 0)
(0.35985692 -1.8377433e-05 0)
(0.2304703 -7.4923882e-06 0)
(0.13583649 -2.5281783e-06 0)
(0.067950552 -5.9675066e-07 0)
(0.019903971 -8.6238765e-08 0)
(0.019899543 7.335706e-08 0)
(0.067935688 5.0896268e-07 0)
(0.13580742 2.1568902e-06 0)
(0.23042259 6.4027702e-06 0)
(0.35978626 1.5747608e-05 0)
(0.5318089 3.4277863e-05 0)
(0.75164409 6.7204682e-05 0)
(1.0171021 0.00011723007 0)
(1.3126976 0.00017262484 0)
(1.6051928 0.00019308928 0)
(1.8458371 0.0001521989 0)
(1.9831061 5.7545038e-05 0)
(1.9831061 -5.7544496e-05 0)
(1.8458371 -0.00015219821 0)
(1.6051928 -0.00019308851 0)
(1.3126976 -0.00017262442 0)
(1.0171021 -0.00011723024 0)
(0.75164409 -6.7205462e-05 0)
(0.5318089 -3.4279074e-05 0)
(0.35978626 -1.5748897e-05 0)
(0.23042259 -6.4036434e-06 0)
(0.13580742 -2.157786e-06 0)
(0.067935688 -5.0872286e-07 0)
(0.019899543 -7.348244e-08 0)
(0.019895721 6.3727244e-08 0)
(0.06792285 4.4252232e-07 0)
(0.13578228 1.8767393e-06 0)
(0.23038125 5.5765348e-06 0)
(0.35972483 1.3738699e-05 0)
(0.53172535 2.9998042e-05 0)
(0.75154264 5.9111624e-05 0)
(1.0170011 0.00010388829 0)
(1.3126344 0.00015540294 0)
(1.6052015 0.00017849541 0)
(1.8459125 0.00014271567 0)
(1.9832185 5.4330733e-05 0)
(1.9832185 -5.4330416e-05 0)
(1.8459125 -0.00014271519 0)
(1.6052015 -0.00017849488 0)
(1.3126345 -0.00015540273 0)
(1.0170011 -0.00010388862 0)
(0.75154264 -5.9112583e-05 0)
(0.53172535 -2.9999442e-05 0)
(0.35972483 -1.3740152e-05 0)
(0.23038125 -5.5775071e-06 0)
(0.13578228 -1.8777243e-06 0)
(0.06792285 -4.422593e-07 0)
(0.019895721 -6.3864898e-08 0)
(0.019892371 5.6090029e-08 0)
(0.067911586 3.8977933e-07 0)
(0.13576021 1.6541263e-06 0)
(0.2303449 4.9187743e-06 0)
(0.35967069 1.2132032e-05 0)
(0.53165136 2.6542475e-05 0)
(0.7514519 5.2498834e-05 0)
(1.0169086 9.2875768e-05 0)
(1.3125728 0.00014061497 0)
(1.605205 0.00016529623 0)
(1.8459798 0.00013398931 0)
(1.9833221 5.1387463e-05 0)
(1.9833221 -5.1387341e-05 0)
(1.8459798 -0.00013398902 0)
(1.605205 -0.00016529592 0)
(1.3125728 -0.00014061491 0)
(1.0169086 -9.2876222e-05 0)
(0.7514519 -5.2499939e-05 0)
(0.53165136 -2.654404e-05 0)
(0.35967069 -1.2133633e-05 0)
(0.2303449 -4.9198389e-06 0)
(0.13576021 -1.6551955e-06 0)
(0.067911586 -3.8949584e-07 0)
(0.019892371 -5.6239022e-08 0)
(0.019889403 4.9848932e-08 0)
(0.067901607 3.4661915e-07 0)
(0.13574064 1.4717666e-06 0)
(0.23031264 4.3794016e-06 0)
(0.35962253 1.0812335e-05 0)
(0.53158531 2.3691451e-05 0)
(0.75137029 4.6984199e-05 0)
(1.016824 8.3546368e-05 0)
(1.3125139 0.00012773751 0)
(1.6052051 0.00015293348 0)
(1.8460415 0.00012582033 0)
(1.9834196 4.8616443e-05 0)
(1.9834196 -4.8616447e-05 0)
(1.8460415 -0.00012582018 0)
(1.6052051 -0.00015293329 0)
(1.3125139 -0.00012773753 0)
(1.016824 -8.35469e-05 0)
(0.75137029 -4.6985422e-05 0)
(0.53158531 -2.3693161e-05 0)
(0.35962253 -1.0814074e-05 0)
(0.23031264 -4.380556e-06 0)
(0.13574064 -1.4729217e-06 0)
(0.067901607 -3.4631484e-07 0)
(0.019889403 -5.000951e-08 0)
(0.019886752 4.4698971e-08 0)
(0.067892685 3.1094543e-07 0)
(0.13572313 1.3208218e-06 0)
(0.23028375 3.9322206e-06 0)
(0.35957935 9.7159107e-06 0)
(0.53152592 2.1315645e-05 0)
(0.75129648 4.2360335e-05 0)
(1.0167465 7.5619973e-05 0)
(1.3124581 0.0001165424 0)
(1.6052027 0.00014169871 0)
(1.8460982 0.00011827093 0)
(1.9835117 4.6031479e-05 0)
(1.9835117 -4.6031524e-05 0)
(1.8460982 -0.00011827083 0)
(1.6052027 -0.00014169856 0)
(1.3124581 -0.00011654242 0)
(1.0167465 -7.5620549e-05 0)
(0.75129648 -4.236166e-05 0)
(0.53152592 -2.1317496e-05 0)
(0.35957935 -9.7177915e-06 0)
(0.23028375 -3.9334698e-06 0)
(0.13572313 -1.3220713e-06 0)
(0.067892685 -3.1061797e-07 0)
(0.019886752 -4.4872369e-08 0)
(0.019884362 4.0386736e-08 0)
(0.067884644 2.8104067e-07 0)
(0.13570735 1.1941613e-06 0)
(0.23025769 3.5565031e-06 0)
(0.35954035 8.7929294e-06 0)
(0.53147216 1.9310095e-05 0)
(0.75122934 3.8440255e-05 0)
(1.0166753 6.8839044e-05 0)
(1.3124053 0.0001067836 0)
(1.6051983 0.00013155229 0)
(1.8461504 0.00011132792 0)
(1.9835985 4.3631067e-05 0)
(1.9835985 -4.3631083e-05 0)
(1.8461504 -0.00011132781 0)
(1.6051983 -0.00013155209 0)
(1.3124053 -0.0001067836 0)
(1.0166753 -6.883965e-05 0)
(0.75122934 -3.8441682e-05 0)
(0.53147216 -1.9312096e-05 0)
(0.35954035 -8.794967e-06 0)
(0.23025769 -3.557859e-06 0)
(0.13570735 -1.1955193e-06 0)
(0.067884644 -2.8068613e-07 0)
(0.019884362 -4.0574974e-08 0)
(0.019882195 3.6711994e-08 0)
(0.067877349 2.5553922e-07 0)
(0.13569303 1.0860856e-06 0)
(0.23023403 3.2356466e-06 0)
(0.3595049 8.0036198e-06 0)
(0.5314232 1.7590997e-05 0)
(0.75116797 3.5067323e-05 0)
(1.0166096 6.2964252e-05 0)
(1.3123553 9.8203288e-05 0)
(1.6051923 0.00012233362 0)
(1.8461982 0.00010491307 0)
(1.9836803 4.13904e-05 0)
(1.9836803 -4.1390345e-05 0)
(1.8461982 -0.00010491289 0)
(1.6051923 -0.00012233335 0)
(1.3123553 -9.8203233e-05 0)
(1.0166096 -6.2964891e-05 0)
(0.75116797 -3.5068868e-05 0)
(0.5314232 -1.759317e-05 0)
(0.3595049 -8.0058381e-06 0)
(0.23023403 -3.2371256e-06 0)
(0.13569303 -1.0875694e-06 0)
(0.067877349 -2.5515265e-07 0)
(0.019882195 -3.6917565e-08 0)
(0.019880219 3.3539551e-08 0)
(0.067870695 2.3351071e-07 0)
(0.13567996 9.9268128e-07 0)
(0.23021243 2.9581707e-06 0)
(0.35947252 7.3203322e-06 0)
(0.53137842 1.6100202e-05 0)
(0.75111164 3.2133099e-05 0)
(1.0165488 5.7823497e-05 0)
(1.3123082 9.060255e-05 0)
(1.6051852 0.00011395343 0)
(1.8462423 9.8955902e-05 0)
(1.9837576 3.9288922e-05 0)
(1.9837576 -3.9288781e-05 0)
(1.8462423 -9.895564e-05 0)
(1.6051852 -0.00011395307 0)
(1.3123082 -9.0602447e-05 0)
(1.0165488 -5.7824181e-05 0)
(0.75111164 -3.2134782e-05 0)
(0.53137842 -1.6102575e-05 0)
(0.35947252 -7.3227595e-06 0)
(0.23021243 -2.9597913e-06 0)
(0.13567996 -9.9430978e-07 0)
(0.067870695 -2.3308671e-07 0)
(0.019880219 -3.3765124e-08 0)
(0.019878409 3.0775261e-08 0)
(0.0678646 2.143061e-07 0)
(0.13566798 9.1121159e-07 0)
(0.23019263 2.716007e-06 0)
(0.35944282 6.7234667e-06 0)
(0.53133728 1.4796079e-05 0)
(0.75105977 2.9559779e-05 0)
(1.0164925 5.329264e-05 0)
(1.3122638 8.3831657e-05 0)
(1.6051772 0.00010632407 0)
(1.846283 9.3403184e-05 0)
(1.9838307 3.7312418e-05 0)
(1.9838307 -3.7312197e-05 0)
(1.846283 -9.3402833e-05 0)
(1.6051772 -0.00010632361 0)
(1.3122638 -8.3831514e-05 0)
(1.0164925 -5.3293381e-05 0)
(0.75105976 -2.9561622e-05 0)
(0.53133728 -1.4798682e-05 0)
(0.35944282 -6.7261322e-06 0)
(0.23019263 -2.7177881e-06 0)
(0.13566798 -9.1300331e-07 0)
(0.0678646 -2.138393e-07 0)
(0.019878409 -3.1023475e-08 0)
(0.019876745 2.834531e-08 0)
(0.067858993 1.9741739e-07 0)
(0.13565697 8.3953759e-07 0)
(0.23017441 2.5028555e-06 0)
(0.35941547 6.1977004e-06 0)
(0.53129936 1.3645876e-05 0)
(0.75101183 2.7285414e-05 0)
(1.0164401 4.9271839e-05 0)
(1.3122219 7.7767795e-05 0)
(1.6051688 9.9356154e-05 0)
(1.8463207 8.8213519e-05 0)
(1.9838998 3.5449508e-05 0)
(1.9838998 -3.5449224e-05 0)
(1.8463207 -8.8213089e-05 0)
(1.6051688 -9.9355619e-05 0)
(1.3122219 -7.7767623e-05 0)
(1.0164401 -4.9272649e-05 0)
(0.75101183 -2.7287438e-05 0)
(0.53129936 -1.3648737e-05 0)
(0.35941547 -6.2006323e-06 0)
(0.23017441 -2.5048153e-06 0)
(0.13565697 -8.415102e-07 0)
(0.067858993 -1.9690266e-07 0)
(0.019876745 -2.8618663e-08 0)
(0.019875209 2.6191663e-08 0)
(0.067853818 1.8244433e-07 0)
(0.1356468 7.7597267e-07 0)
(0.23015758 2.3137445e-06 0)
(0.3593902 5.7309333e-06 0)
(0.5312643 1.2623659e-05 0)
(0.75096742 2.5260473e-05 0)
(1.0163914 4.5679679e-05 0)
(1.3121824 7.2308172e-05 0)
(1.6051599 9.2973425e-05 0)
(1.8463555 8.3350296e-05 0)
(1.9839652 3.3689538e-05 0)
(1.9839652 -3.3689209e-05 0)
(1.8463555 -8.3349799e-05 0)
(1.6051599 -9.2972818e-05 0)
(1.3121824 -7.2307974e-05 0)
(1.0163914 -4.5680565e-05 0)
(0.75096742 -2.5262695e-05 0)
(0.5312643 -1.2626804e-05 0)
(0.3593902 -5.7341579e-06 0)
(0.23015758 -2.3158998e-06 0)
(0.1356468 -7.7814274e-07 0)
(0.067853818 -1.8187696e-07 0)
(0.019875208 -2.6492486e-08 0)
(0.019873787 2.4269139e-08 0)
(0.067849027 1.690745e-07 0)
(0.13563738 7.1919815e-07 0)
(0.230142 2.1447786e-06 0)
(0.35936679 5.3136616e-06 0)
(0.53123178 1.1709004e-05 0)
(0.75092616 2.3445727e-05 0)
(1.016346 4.2450706e-05 0)
(1.3121452 6.7367753e-05 0)
(1.6051509 8.7107604e-05 0)
(1.8463878 7.8785175e-05 0)
(1.9840271 3.2023931e-05 0)
(1.9840271 -3.202357e-05 0)
(1.8463878 -7.8784622e-05 0)
(1.6051509 -8.7106928e-05 0)
(1.3121452 -6.7367528e-05 0)
(1.016346 -4.2451673e-05 0)
(0.75092616 -2.3448164e-05 0)
(0.53123178 -1.1712457e-05 0)
(0.35936679 -5.3172037e-06 0)
(0.230142 -2.1471456e-06 0)
(0.13563738 -7.2158151e-07 0)
(0.067849027 -1.6845011e-07 0)
(0.019873786 -2.4599633e-08 0)
(0.019872467 2.2542185e-08 0)
(0.067844581 1.5706165e-07 0)
(0.13562864 6.6817377e-07 0)
(0.23012754 1.9928806e-06 0)
(0.35934505 4.9383625e-06 0)
(0.53120156 1.0885701e-05 0)
(0.75088776 2.1809955e-05 0)
(1.0163035 3.9532399e-05 0)
(1.31211 6.2876669e-05 0)
(1.6051418 8.1702185e-05 0)
(1.8464178 7.4491926e-05 0)
(1.9840857 3.0444547e-05 0)
(1.9840857 -3.0444156e-05 0)
(1.8464178 -7.4491318e-05 0)
(1.6051418 -8.1701438e-05 0)
(1.31211 -6.2876415e-05 0)
(1.0163035 -3.953345e-05 0)
(0.75088776 -2.181262e-05 0)
(0.53120156 -1.0889486e-05 0)
(0.35934505 -4.9422464e-06 0)
(0.23012754 -1.9954753e-06 0)
(0.13562864 -6.7078608e-07 0)
(0.067844581 -1.5637605e-07 0)
(0.019872467 -2.2904505e-08 0)
(0.01987124 2.0982345e-08 0)
(0.067840446 1.4620856e-07 0)
(0.13562051 6.2206593e-07 0)
(0.23011408 1.8555824e-06 0)
(0.35932481 4.5989918e-06 0)
(0.53117342 1.0140689e-05 0)
(0.75085195 2.0327899e-05 0)
(1.0162638 3.6882063e-05 0)
(1.3120768 5.8777206e-05 0)
(1.6051327 7.6706896e-05 0)
(1.8464458 7.0451435e-05 0)
(1.9841412 2.8945345e-05 0)
(1.9841412 -2.8944922e-05 0)
(1.8464458 -7.0450768e-05 0)
(1.6051327 -7.6706072e-05 0)
(1.3120768 -5.8776917e-05 0)
(1.0162638 -3.68832e-05 0)
(0.75085195 -2.0330809e-05 0)
(0.53117342 -1.0144831e-05 0)
(0.35932481 -4.6032422e-06 0)
(0.23011408 -1.8584212e-06 0)
(0.13562051 -6.2492352e-07 0)
(0.067840446 -1.4545752e-07 0)
(0.01987124 -2.1378711e-08 0)
(0.019870096 1.9566611e-08 0)
(0.067836592 1.3635569e-07 0)
(0.13561293 5.8019988e-07 0)
(0.23010153 1.7308849e-06 0)
(0.35930594 4.2906507e-06 0)
(0.53114716 9.4633691e-06 0)
(0.75081849 1.8979002e-05 0)
(1.0162266 3.4464704e-05 0)
(1.3120455 5.5021231e-05 0)
(1.6051237 7.2080947e-05 0)
(1.8464718 6.6642931e-05 0)
(1.9841938 2.7519895e-05 0)
(1.9841938 -2.7519431e-05 0)
(1.8464718 -6.6642197e-05 0)
(1.6051237 -7.2080037e-05 0)
(1.3120455 -5.5020902e-05 0)
(1.0162266 -3.4465933e-05 0)
(0.75081849 -1.8982174e-05 0)
(0.53114716 -9.4678923e-06 0)
(0.35930594 -4.2952943e-06 0)
(0.23010153 -1.7339857e-06 0)
(0.13561293 -5.8332037e-07 0)
(0.067836592 -1.3553468e-07 0)
(0.019870096 -1.9999406e-08 0)
(0.019869029 1.8276148e-08 0)
(0.067832994 1.2737246e-07 0)
(0.13560586 5.4202303e-07 0)
(0.23008981 1.6171502e-06 0)
(0.35928831 4.0093196e-06 0)
(0.53112262 8.8450243e-06 0)
(0.75078719 1.7746313e-05 0)
(1.0161917 3.2251382e-05 0)
(1.312016 5.1568546e-05 0)
(1.6051149 6.7786499e-05 0)
(1.846496 6.3053192e-05 0)
(1.9842436 2.6164168e-05 0)
(1.9842436 -2.6163651e-05 0)
(1.846496 -6.3052381e-05 0)
(1.6051149 -6.7785494e-05 0)
(1.312016 -5.1568171e-05 0)
(1.0161917 -3.2252709e-05 0)
(0.75078719 -1.7749768e-05 0)
(0.53112262 -8.8499582e-06 0)
(0.35928831 -4.0143855e-06 0)
(0.23008981 -1.6205324e-06 0)
(0.13560586 -5.4542591e-07 0)
(0.067832994 -1.2647644e-07 0)
(0.019869029 -1.8748004e-08 0)
(0.019868031 1.7095429e-08 0)
(0.067829631 1.1915122e-07 0)
(0.13559924 5.0707949e-07 0)
(0.23007886 1.5130267e-06 0)
(0.35927183 3.7516818e-06 0)
(0.53109966 8.2784623e-06 0)
(0.75075788 1.6615822e-05 0)
(1.0161589 3.0218008e-05 0)
(1.311988 4.8385119e-05 0)
(1.6051063 6.3793939e-05 0)
(1.8465187 5.9664024e-05 0)
(1.9842909 2.4872804e-05 0)
(1.9842909 -2.4872223e-05 0)
(1.8465187 -5.9663126e-05 0)
(1.6051063 -6.3792829e-05 0)
(1.311988 -4.8384695e-05 0)
(1.0161589 -3.0219443e-05 0)
(0.75075787 -1.6619583e-05 0)
(0.53109965 -8.2838387e-06 0)
(0.35927183 -3.7572024e-06 0)
(0.23007886 -1.5167119e-06 0)
(0.13559924 -5.1078642e-07 0)
(0.067829631 -1.181745e-07 0)
(0.019868031 -1.760927e-08 0)
(0.019867097 1.6011476e-08 0)
(0.067826482 1.1160207e-07 0)
(0.13559305 4.7498843e-07 0)
(0.2300686 1.4173843e-06 0)
(0.35925639 3.5149596e-06 0)
(0.53107814 7.7576436e-06 0)
(0.75073038 1.5575739e-05 0)
(1.0161281 2.8344327e-05 0)
(1.3119617 4.5442298e-05 0)
(1.6050979 6.0073753e-05 0)
(1.8465398 5.6466979e-05 0)
(1.9843356 2.3643483e-05 0)
(1.9843356 -2.3642831e-05 0)
(1.8465398 -5.6465986e-05 0)
(1.6050979 -6.007253e-05 0)
(1.3119617 -4.5441823e-05 0)
(1.0161281 -2.8345881e-05 0)
(0.75073038 -1.5579831e-05 0)
(0.53107814 -7.7634978e-06 0)
(0.35925639 -3.5209704e-06 0)
(0.2300686 -1.4213962e-06 0)
(0.13559305 -4.7902314e-07 0)
(0.067826482 -1.1053824e-07 0)
(0.019867096 -1.6570516e-08 0)
(0.019866221 1.501338e-08 0)
(0.067823531 1.0464933e-07 0)
(0.13558724 4.4542919e-07 0)
(0.23005898 1.3292723e-06 0)
(0.35924191 3.2968187e-06 0)
(0.53105796 7.2775002e-06 0)
(0.75070457 1.4616157e-05 0)
(1.0160992 2.6613152e-05 0)
(1.3119367 4.2715241e-05 0)
(1.6050897 5.6604267e-05 0)
(1.8465596 5.3444479e-05 0)
(1.984378 2.2471224e-05 0)
(1.984378 -2.2470498e-05 0)
(1.8465596 -5.3443387e-05 0)
(1.6050897 -5.6602927e-05 0)
(1.3119367 -4.2714717e-05 0)
(1.0160992 -2.6614838e-05 0)
(0.75070457 -1.462061e-05 0)
(0.53105795 -7.2838708e-06 0)
(0.35924191 -3.3033585e-06 0)
(0.23005898 -1.3336365e-06 0)
(0.13558724 -4.4981712e-07 0)
(0.06782353 -1.034914e-07 0)
(0.019866221 -1.5621055e-08 0)
(0.0198654 1.4091878e-08 0)
(0.067820761 9.8228895e-08 0)
(0.1355818 4.1813004e-07 0)
(0.23004996 1.2478835e-06 0)
(0.35922832 3.0952708e-06 0)
(0.53103901 6.8336961e-06 0)
(0.75068032 1.3728585e-05 0)
(1.0160719 2.500985e-05 0)
(1.3119132 4.0183056e-05 0)
(1.6050818 5.3361551e-05 0)
(1.8465781 5.0592708e-05 0)
(1.9844182 2.1355271e-05 0)
(1.9844182 -2.1354474e-05 0)
(1.8465781 -5.0591517e-05 0)
(1.6050819 -5.3360091e-05 0)
(1.3119132 -4.0182484e-05 0)
(1.0160719 -2.5011685e-05 0)
(0.75068032 -1.3733429e-05 0)
(0.531039 -6.8406238e-06 0)
(0.35922832 -3.1023801e-06 0)
(0.23004996 -1.2526266e-06 0)
(0.1355818 -4.228976e-07 0)
(0.067820761 -9.6969338e-08 0)
(0.019865399 -1.4751754e-08 0)
(0.019864628 1.3239027e-08 0)
(0.067818161 9.2285556e-08 0)
(0.13557668 3.9285693e-07 0)
(0.23004148 1.1725242e-06 0)
(0.35921555 2.9086147e-06 0)
(0.5310212 6.4225395e-06 0)
(0.75065752 1.2905786e-05 0)
(1.0160463 2.3521719e-05 0)
(1.3118909 3.7826925e-05 0)
(1.6050743 5.0329779e-05 0)
(1.8465955 4.7892922e-05 0)
(1.9844563 2.029031e-05 0)
(1.9844563 -2.0289451e-05 0)
(1.8465955 -4.7891638e-05 0)
(1.6050743 -5.0328201e-05 0)
(1.3118909 -3.7826309e-05 0)
(1.0160463 -2.3523718e-05 0)
(0.75065751 -1.2911051e-05 0)
(0.53102119 -6.4300663e-06 0)
(0.35921555 -2.9163349e-06 0)
(0.23004148 -1.1776729e-06 0)
(0.13557668 -3.9803041e-07 0)
(0.06781816 -9.0916623e-08 0)
(0.019864628 -1.3954634e-08 0)
(0.019863903 1.2448059e-08 0)
(0.067815716 8.67725e-08 0)
(0.13557187 3.6941156e-07 0)
(0.23003351 1.1026039e-06 0)
(0.35920355 2.7353899e-06 0)
(0.53100445 6.0408295e-06 0)
(0.75063606 1.2141471e-05 0)
(1.0160221 2.2137953e-05 0)
(1.3118699 3.5631463e-05 0)
(1.6050669 4.7488908e-05 0)
(1.8466118 4.5346636e-05 0)
(1.9844924 1.9277292e-05 0)
(1.9844924 -1.9276389e-05 0)
(1.8466118 -4.5345271e-05 0)
(1.6050669 -4.7487216e-05 0)
(1.3118699 -3.5630811e-05 0)
(1.0160221 -2.2140133e-05 0)
(0.75063606 -1.214719e-05 0)
(0.53100444 -6.0489968e-06 0)
(0.35920355 -2.7437612e-06 0)
(0.23003351 -1.1081842e-06 0)
(0.13557187 -3.7501591e-07 0)
(0.067815716 -8.528669e-08 0)
(0.019863903 -1.3222676e-08 0)
(0.019863221 1.1712974e-08 0)
(0.067813417 8.1647803e-08 0)
(0.13556735 3.4761604e-07 0)
(0.23002601 1.0375968e-06 0)
(0.35919226 2.5743125e-06 0)
(0.53098868 5.6857909e-06 0)
(0.75061585 1.1430186e-05 0)
(1.0159993 2.0848807e-05 0)
(1.31185 3.3581718e-05 0)
(1.6050599 4.4827412e-05 0)
(1.8466272 4.2931941e-05 0)
(1.9845266 1.8309787e-05 0)
(1.9845266 -1.8308862e-05 0)
(1.8466272 -4.2930509e-05 0)
(1.6050599 -4.4825614e-05 0)
(1.31185 -3.3581035e-05 0)
(1.0159993 -2.0851183e-05 0)
(0.75061585 -1.1436388e-05 0)
(0.53098868 -5.6946364e-06 0)
(0.35919225 -2.5833712e-06 0)
(0.23002601 -1.0436314e-06 0)
(0.13556735 -3.5367315e-07 0)
(0.067813416 -8.0037848e-08 0)
(0.019863221 -1.2549453e-08 0)
(0.019862579 1.1028803e-08 0)
(0.067811252 7.6877288e-08 0)
(0.13556309 3.2732587e-07 0)
(0.23001895 9.7706973e-07 0)
(0.35918162 2.4242993e-06 0)
(0.53097384 5.3550239e-06 0)
(0.75059681 1.0767202e-05 0)
(1.0159778 1.9646266e-05 0)
(1.3118312 3.1666613e-05 0)
(1.6050532 4.2328311e-05 0)
(1.8466415 4.0657256e-05 0)
(1.984559 1.7390972e-05 0)
(1.984559 -1.7390053e-05 0)
(1.8466415 -4.0655778e-05 0)
(1.6050532 -4.2326418e-05 0)
(1.3118312 -3.1665907e-05 0)
(1.0159778 -1.9648851e-05 0)
(0.75059681 -1.0773911e-05 0)
(0.53097383 -5.3645809e-06 0)
(0.35918162 -2.4340766e-06 0)
(0.23001895 -9.8357785e-07 0)
(0.13556309 -3.3385302e-07 0)
(0.067811252 -7.5137185e-08 0)
(0.019862579 -1.1929217e-08 0)
(0.019861974 1.0390773e-08 0)
(0.067809213 7.2427114e-08 0)
(0.13555907 3.0839718e-07 0)
(0.2300123 9.2060057e-07 0)
(0.3591716 2.2843349e-06 0)
(0.53095985 5.0463624e-06 0)
(0.75057886 1.0148253e-05 0)
(1.0159575 1.8522462e-05 0)
(1.3118134 2.9873339e-05 0)
(1.6050467 3.9982838e-05 0)
(1.8466551 3.8494868e-05 0)
(1.9845898 1.6512287e-05 0)
(1.9845898 -1.6511403e-05 0)
(1.8466551 -3.8493366e-05 0)
(1.6050467 -3.9980863e-05 0)
(1.3118134 -2.9872617e-05 0)
(1.0159575 -1.8525266e-05 0)
(0.75057886 -1.0155488e-05 0)
(0.53095984 -5.0566553e-06 0)
(0.3591716 -2.2948527e-06 0)
(0.2300123 -9.27595e-07 0)
(0.13555908 -3.154052e-07 0)
(0.067809213 -7.0552089e-08 0)
(0.019861974 -1.1356224e-08 0)
(0.019861404 9.795426e-09 0)
(0.067807292 6.8274085e-08 0)
(0.13555529 2.9073245e-07 0)
(0.23000603 8.6789089e-07 0)
(0.35916216 2.1536456e-06 0)
(0.53094666 4.7580366e-06 0)
(0.75056194 9.5698308e-06 0)
(1.0159384 1.7471709e-05 0)
(1.3117965 2.8194847e-05 0)
(1.6050405 3.777731e-05 0)
(1.8466677 3.6462814e-05 0)
(1.9846188 1.568015e-05 0)
(1.9846188 -1.5679336e-05 0)
(1.8466678 -3.6461315e-05 0)
(1.6050405 -3.777527e-05 0)
(1.3117965 -2.8194117e-05 0)
(1.0159384 -1.7474737e-05 0)
(0.75056193 -9.5776022e-06 0)
(0.53094665 -4.7690786e-06 0)
(0.35916216 -2.1649139e-06 0)
(0.23000603 -8.7537606e-07 0)
(0.13555529 -2.9822351e-07 0)
(0.067807291 -6.626098e-08 0)
(0.019861404 -1.0825722e-08 0)
(0.019860867 9.2385425e-09 0)
(0.067805479 6.4387327e-08 0)
(0.13555173 2.7419981e-07 0)
(0.23000012 8.185613e-07 0)
(0.35915325 2.0313533e-06 0)
(0.53093422 4.488243e-06 0)
(0.75054596 9.0283927e-06 0)
(1.0159203 1.6487066e-05 0)
(1.3117806 2.661867e-05 0)
(1.6050346 3.5703493e-05 0)
(1.8466798 3.4523832e-05 0)
(1.9846465 1.488241e-05 0)
(1.9846465 -1.48817e-05 0)
(1.8466798 -3.4522364e-05 0)
(1.6050346 -3.5701404e-05 0)
(1.3117806 -2.6617938e-05 0)
(1.0159203 -1.6490319e-05 0)
(0.75054595 -9.0367009e-06 0)
(0.53093421 -4.5000348e-06 0)
(0.35915325 -2.0433692e-06 0)
(0.23000012 -8.2653331e-07 0)
(0.13555173 -2.8216617e-07 0)
(0.067805479 -6.2236253e-08 0)
(0.019860867 -1.0331767e-08 0)
(0.01986036 8.7184288e-09 0)
(0.06780377 6.0757108e-08 0)
(0.13554837 2.5875962e-07 0)
(0.22999455 7.7247325e-07 0)
(0.35914485 1.9170253e-06 0)
(0.53092248 4.2358487e-06 0)
(0.75053089 8.5216352e-06 0)
(1.0159032 1.556535e-05 0)
(1.3117655 2.5142716e-05 0)
(1.605029 3.3753034e-05 0)
(1.846691 3.2709951e-05 0)
(1.9846726 1.4130479e-05 0)
(1.9846726 -1.4129908e-05 0)
(1.846691 -3.2708543e-05 0)
(1.605029 -3.3750915e-05 0)
(1.3117655 -2.5141987e-05 0)
(1.0159032 -1.5568821e-05 0)
(0.75053088 -8.5304664e-06 0)
(0.53092247 -4.248371e-06 0)
(0.35914485 -1.9297656e-06 0)
(0.22999455 -7.8091384e-07 0)
(0.13554837 -2.6718076e-07 0)
(0.06780377 -5.8469415e-08 0)
(0.01986036 -9.8709302e-09 0)
(0.019859881 8.2303915e-09 0)
(0.067802156 5.7347304e-08 0)
(0.13554519 2.4425646e-07 0)
(0.22998928 7.2919606e-07 0)
(0.35913691 1.8097385e-06 0)
(0.53091139 3.9991152e-06 0)
(0.75051664 8.0462078e-06 0)
(1.0158871 1.4699357e-05 0)
(1.3117512 2.3752248e-05 0)
(1.6050236 3.1914215e-05 0)
(1.8467017 3.0968906e-05 0)
(1.9846975 1.3406404e-05 0)
(1.9846975 -1.3406005e-05 0)
(1.8467017 -3.096759e-05 0)
(1.6050236 -3.1912087e-05 0)
(1.3117512 -2.3751528e-05 0)
(1.0158871 -1.4703035e-05 0)
(0.75051663 -8.0555381e-06 0)
(0.53091138 -4.0123352e-06 0)
(0.35913691 -1.8231655e-06 0)
(0.22998928 -7.3807817e-07 0)
(0.13554519 -2.5309904e-07 0)
(0.067802156 -5.4929946e-08 0)
(0.019859881 -9.4360354e-09 0)
(0.01985943 7.7759994e-09 0)
(0.067800634 5.4173776e-08 0)
(0.13554219 2.3076058e-07 0)
(0.22998431 6.8888574e-07 0)
(0.35912943 1.7096499e-06 0)
(0.53090093 3.7779145e-06 0)
(0.7505032 7.6016109e-06 0)
(1.0158719 1.3889785e-05 0)
(1.3117377 2.2453325e-05 0)
(1.6050185 3.0189482e-05 0)
(1.8467117 2.9353707e-05 0)
(1.9847208 1.2729519e-05 0)
(1.9847208 -1.2729321e-05 0)
(1.8467117 -2.9352507e-05 0)
(1.6050185 -3.0187366e-05 0)
(1.3117377 -2.2452616e-05 0)
(1.0158719 -1.3893646e-05 0)
(0.7505032 -7.611395e-06 0)
(0.53090093 -3.7917709e-06 0)
(0.35912943 -1.7236974e-06 0)
(0.22998432 -6.9816293e-07 0)
(0.1355422 -2.3997532e-07 0)
(0.067800634 -5.1634734e-08 0)
(0.01985943 -9.0265493e-09 0)
(0.019859002 7.347428e-09 0)
(0.067799193 5.1174007e-08 0)
(0.13553936 2.1800258e-07 0)
(0.22997961 6.5082523e-07 0)
(0.35912234 1.6153517e-06 0)
(0.53089102 3.569909e-06 0)
(0.75049047 7.1836213e-06 0)
(1.0158574 1.3126897e-05 0)
(1.3117249 2.1224166e-05 0)
(1.6050136 2.855611e-05 0)
(1.8467212 2.7789281e-05 0)
(1.9847433 1.2072766e-05 0)
(1.9847433 -1.2072799e-05 0)
(1.8467212 -2.7788225e-05 0)
(1.6050136 -2.8554025e-05 0)
(1.3117249 -2.1223471e-05 0)
(1.0158574 -1.3130913e-05 0)
(0.75049046 -7.1937997e-06 0)
(0.53089102 -3.58432e-06 0)
(0.35912234 -1.6299326e-06 0)
(0.22997961 -6.6043777e-07 0)
(0.13553936 -2.2752398e-07 0)
(0.067799193 -4.8527151e-08 0)
(0.019859002 -8.6317741e-09 0)
(0.0198586 6.9550149e-09 0)
(0.067797836 4.8431691e-08 0)
(0.13553669 2.0634109e-07 0)
(0.22997518 6.1593369e-07 0)
(0.35911566 1.528494e-06 0)
(0.5308817 3.3774084e-06 0)
(0.75047849 6.7958348e-06 0)
(1.0158438 1.2419637e-05 0)
(1.3117128 2.0087153e-05 0)
(1.605009 2.7039593e-05 0)
(1.84673 2.6361048e-05 0)
(1.9847642 1.1468372e-05 0)
(1.9847642 -1.1468655e-05 0)
(1.84673 -2.6360147e-05 0)
(1.605009 -2.7037551e-05 0)
(1.3117129 -2.0086461e-05 0)
(1.0158438 -1.2423763e-05 0)
(0.75047848 -6.8063212e-06 0)