/*--------------------------------*- C++ -*----------------------------------*\
  =========                 |
  \\      /  F ield         | OpenFOAM: The Open Source CFD Toolbox
   \\    /   O peration     | Website:  https://openfoam.org
    \\  /    A nd           | Version:  10
     \\/     M anipulation  |
\*---------------------------------------------------------------------------*/
FoamFile
{
    format      ascii;
    class       volScalarField;
    location    "9.5";
    object      T;
}
// * * * * * * * * * * * * * * * * * * * * * * * * * * * * * * * * * * * * * //

dimensions      [0 0 -1 0 0 0 0];

internalField   nonuniform List<scalar> 
100
(
-0.0199484
-0.0591381
-0.0962329
-0.129918
-0.159002
-0.182452
-0.199439
-0.209361
-0.211866
-0.206866
-0.194537
-0.175317
-0.149886
-0.119145
-0.0841835
-0.0462398
-0.00665793
0.0331598
0.0718028
0.107902
0.140179
0.16749
0.188868
0.203554
0.21103
0.21103
0.203554
0.188867
0.16749
0.140179
0.107902
0.0718025
0.0331594
-0.0066583
-0.0462402
-0.0841839
-0.119145
-0.149886
-0.175317
-0.194537
-0.206866
-0.211866
-0.209361
-0.199439
-0.182452
-0.159002
-0.129918
-0.0962326
-0.0591378
-0.019948
0.0199484
0.0591382
0.096233
0.129919
0.159002
0.182452
0.199439
0.209361
0.211866
0.206866
0.194537
0.175317
0.149886
0.119145
0.0841835
0.0462397
0.00665786
-0.0331599
-0.0718029
-0.107902
-0.140179
-0.16749
-0.188868
-0.203554
-0.21103
-0.21103
-0.203554
-0.188867
-0.16749
-0.140179
-0.107902
-0.0718024
-0.0331593
0.0066584
0.0462402
0.084184
0.119145
0.149886
0.175317
0.194537
0.206866
0.211866
0.209361
0.199439
0.182452
0.159001
0.129918
0.0962325
0.0591378
0.019948
)
;

boundaryField
{
    inlet
    {
        type            cyclic;
    }
    outlet
    {
        type            cyclic;
    }
    bottom
    {
        type            slip;
    }
    top
    {
        type            slip;
    }
    frontAndBack
    {
        type            empty;
    }
}


// ************************************************************************* //
