/*--------------------------------*- C++ -*----------------------------------*\
  =========                 |
  \\      /  F ield         | OpenFOAM: The Open Source CFD Toolbox
   \\    /   O peration     | Website:  https://openfoam.org
    \\  /    A nd           | Version:  10
     \\/     M anipulation  |
\*---------------------------------------------------------------------------*/
FoamFile
{
    format      ascii;
    class       volScalarField;
    location    "9.5";
    object      T_0;
}
// * * * * * * * * * * * * * * * * * * * * * * * * * * * * * * * * * * * * * //

dimensions      [0 0 -1 0 0 0 0];

internalField   nonuniform List<scalar> 
100
(
-0.0195165
-0.0578577
-0.0941492
-0.127106
-0.155559
-0.178502
-0.195121
-0.204828
-0.207279
-0.202387
-0.190325
-0.171521
-0.14664
-0.116565
-0.0823608
-0.0452386
-0.00651377
0.0324418
0.0702481
0.105566
0.137144
0.163864
0.184778
0.199147
0.206461
0.206461
0.199147
0.184778
0.163863
0.137144
0.105566
0.0702478
0.0324415
-0.00651413
-0.045239
-0.0823612
-0.116566
-0.146641
-0.171521
-0.190325
-0.202387
-0.207279
-0.204828
-0.195121
-0.178502
-0.155559
-0.127105
-0.094149
-0.0578573
-0.0195161
0.0195165
0.0578577
0.0941493
0.127106
0.155559
0.178502
0.195121
0.204828
0.207279
0.202387
0.190325
0.171521
0.146641
0.116565
0.0823608
0.0452385
0.0065137
-0.0324419
-0.0702482
-0.105566
-0.137144
-0.163864
-0.184778
-0.199147
-0.206461
-0.206461
-0.199147
-0.184778
-0.163863
-0.137144
-0.105565
-0.0702477
-0.0324414
0.00651423
0.045239
0.0823612
0.116566
0.146641
0.171521
0.190325
0.202387
0.207279
0.204828
0.195121
0.178502
0.155559
0.127105
0.0941489
0.0578573
0.0195161
)
;

boundaryField
{
    inlet
    {
        type            cyclic;
    }
    outlet
    {
        type            cyclic;
    }
    bottom
    {
        type            slip;
    }
    top
    {
        type            slip;
    }
    frontAndBack
    {
        type            empty;
    }
}


// ************************************************************************* //
