/*--------------------------------*- C++ -*----------------------------------*\
  =========                 |
  \\      /  F ield         | OpenFOAM: The Open Source CFD Toolbox
   \\    /   O peration     | Website:  https://openfoam.org
    \\  /    A nd           | Version:  10
     \\/     M anipulation  |
\*---------------------------------------------------------------------------*/
FoamFile
{
    format      ascii;
    class       volScalarField;
    location    "6.6";
    object      T;
}
// * * * * * * * * * * * * * * * * * * * * * * * * * * * * * * * * * * * * * //

dimensions      [0 0 -1 0 0 0 0];

internalField   nonuniform List<scalar> 
100
(
0.0226924
0.0672727
0.10947
0.147789
0.180873
0.207549
0.226872
0.238159
0.241009
0.23532
0.221296
0.199432
0.170503
0.135534
0.0957632
0.0526003
0.00757396
-0.0377206
-0.081679
-0.122744
-0.15946
-0.190528
-0.214846
-0.231553
-0.240057
-0.240057
-0.231553
-0.214846
-0.190528
-0.15946
-0.122744
-0.0816788
-0.0377204
0.00757416
0.0526004
0.0957633
0.135534
0.170503
0.199432
0.221296
0.23532
0.241008
0.238159
0.226872
0.207548
0.180872
0.147788
0.109469
0.0672721
0.0226918
-0.0226923
-0.0672726
-0.10947
-0.147789
-0.180872
-0.207548
-0.226872
-0.238159
-0.241008
-0.23532
-0.221296
-0.199431
-0.170502
-0.135533
-0.0957629
-0.0526
-0.00757367
0.0377209
0.0816792
0.122744
0.159461
0.190528
0.214846
0.231553
0.240057
0.240057
0.231553
0.214846
0.190528
0.15946
0.122743
0.0816785
0.0377202
-0.00757443
-0.0526007
-0.0957636
-0.135534
-0.170503
-0.199432
-0.221296
-0.23532
-0.241009
-0.238159
-0.226872
-0.207548
-0.180872
-0.147789
-0.109469
-0.0672722
-0.0226918
)
;

boundaryField
{
    inlet
    {
        type            cyclic;
    }
    outlet
    {
        type            cyclic;
    }
    bottom
    {
        type            slip;
    }
    top
    {
        type            slip;
    }
    frontAndBack
    {
        type            empty;
    }
}


// ************************************************************************* //
