/*--------------------------------*- C++ -*----------------------------------*\
  =========                 |
  \\      /  F ield         | OpenFOAM: The Open Source CFD Toolbox
   \\    /   O peration     | Website:  https://openfoam.org
    \\  /    A nd           | Version:  10
     \\/     M anipulation  |
\*---------------------------------------------------------------------------*/
FoamFile
{
    format      ascii;
    class       volScalarField;
    location    "26";
    object      T;
}
// * * * * * * * * * * * * * * * * * * * * * * * * * * * * * * * * * * * * * //

dimensions      [0 0 -1 0 0 0 0];

internalField   nonuniform List<scalar> 
100
(
1.15533
3.45527
5.72453
7.94299
10.0909
12.1493
14.0999
15.9253
17.6093
19.1371
20.4949
21.6709
22.6545
23.4371
24.0116
24.373
24.518
24.4454
24.1559
23.6519
22.938
22.0206
20.9076
19.6091
18.1365
16.503
14.723
12.8123
10.7878
8.66765
6.47054
4.216
1.92404
-0.384993
-2.69061
-4.97234
-7.20994
-9.38354
-11.4738
-13.4623
-15.3313
-17.0642
-18.6456
-20.0615
-21.2994
-22.3482
-23.1986
-23.8431
-24.276
-24.4934
-24.4934
-24.276
-23.8431
-23.1986
-22.3481
-21.2993
-20.0615
-18.6456
-17.0641
-15.3312
-13.4623
-11.4738
-9.3835
-7.20989
-4.9723
-2.69056
-0.384943
1.92409
4.21606
6.4706
8.66771
10.7879
12.8123
14.723
16.503
18.1366
19.6092
20.9077
22.0206
22.9381
23.652
24.1559
24.4455
24.5181
24.373
24.0116
23.4371
22.6546
21.6709
20.495
19.1371
17.6093
15.9253
14.0999
12.1493
10.091
7.943
5.72454
3.45527
1.15533
)
;

boundaryField
{
    xmin
    {
        type            fixedValue;
        value           uniform 0;
    }
    xmax
    {
        type            fixedValue;
        value           uniform 0;
    }
    frontAndBack
    {
        type            empty;
    }
}


// ************************************************************************* //
