/*--------------------------------*- C++ -*----------------------------------*\
  =========                 |
  \\      /  F ield         | OpenFOAM: The Open Source CFD Toolbox
   \\    /   O peration     | Website:  https://openfoam.org
    \\  /    A nd           | Version:  10
     \\/     M anipulation  |
\*---------------------------------------------------------------------------*/
FoamFile
{
    format      ascii;
    class       volScalarField;
    location    "26";
    object      T_0;
}
// * * * * * * * * * * * * * * * * * * * * * * * * * * * * * * * * * * * * * //

dimensions      [0 0 -1 0 0 0 0];

internalField   nonuniform List<scalar> 
100
(
1.15645
3.4586
5.73005
7.95064
10.1007
12.161
14.1135
15.9406
17.6263
19.1555
20.5147
21.6918
22.6764
23.4597
24.0347
24.3965
24.5416
24.469
24.1792
23.6747
22.9601
22.0418
20.9278
19.628
18.154
16.5189
14.7371
12.8246
10.7982
8.676
6.47678
4.22007
1.9259
-0.385364
-2.6932
-4.97713
-7.21689
-9.39258
-11.4849
-13.4753
-15.346
-17.0806
-18.6635
-20.0808
-21.3199
-22.3697
-23.2209
-23.8661
-24.2994
-24.517
-24.517
-24.2994
-23.8661
-23.2209
-22.3697
-21.3199
-20.0808
-18.6635
-17.0806
-15.346
-13.4752
-11.4849
-9.39254
-7.21684
-4.97709
-2.69315
-0.385314
1.92595
4.22012
6.47683
8.67606
10.7983
12.8247
14.7372
16.5189
18.1541
19.628
20.9278
22.0418
22.9602
23.6748
24.1792
24.469
24.5417
24.3965
24.0348
23.4597
22.6764
21.6918
20.5147
19.1555
17.6263
15.9406
14.1135
12.161
10.1007
7.95065
5.73006
3.4586
1.15645
)
;

boundaryField
{
    xmin
    {
        type            fixedValue;
        value           uniform 0;
    }
    xmax
    {
        type            fixedValue;
        value           uniform 0;
    }
    frontAndBack
    {
        type            empty;
    }
}


// ************************************************************************* //
