/*--------------------------------*- C++ -*----------------------------------*\
| =========                 |                                                 |
| \\      /  F ield         | OpenFOAM: The Open Source CFD Toolbox           |
|  \\    /   O peration     | Version:  2406                                  |
|   \\  /    A nd           | Website:  www.openfoam.com                      |
|    \\/     M anipulation  |                                                 |
\*---------------------------------------------------------------------------*/
FoamFile
{
    version     2.0;
    format      ascii;
    arch        "LSB;label=32;scalar=64";
    class       volScalarField;
    location    "19.5";
    object      p;
}
// * * * * * * * * * * * * * * * * * * * * * * * * * * * * * * * * * * * * * //

dimensions      [0 2 -2 0 0 0 0];

internalField   nonuniform List<scalar> 
34560
(
-42.270933
-42.262489
-42.252542
-42.242811
-42.234211
-42.228978
-42.227562
-42.229876
-42.234963
-42.333089
-42.323228
-42.311195
-42.298707
-42.286791
-42.277853
-42.272296
-42.271378
-42.274397
-42.389785
-42.378912
-42.365574
-42.351561
-42.337743
-42.325993
-42.317065
-42.312814
-42.312811
-42.444192
-42.432412
-42.417888
-42.402512
-42.387004
-42.372428
-42.360648
-42.352959
-42.34937
-42.495389
-42.482854
-42.467339
-42.450786
-42.433634
-42.416652
-42.402146
-42.390994
-42.383619
-42.541502
-42.528546
-42.512443
-42.495135
-42.476663
-42.457656
-42.440593
-42.426128
-42.41506
-42.582862
-42.569523
-42.552922
-42.535021
-42.515329
-42.494558
-42.47515
-42.457633
-42.443123
-42.618356
-42.604756
-42.587796
-42.569372
-42.548507
-42.526504
-42.505085
-42.484884
-42.467314
-42.64744
-42.633677
-42.616469
-42.597622
-42.575917
-42.552884
-42.529783
-42.50735
-42.487201
-42.669561
-42.655725
-42.638379
-42.619249
-42.596959
-42.573119
-42.548716
-42.524567
-42.502409
-42.684551
-42.67064
-42.653189
-42.633866
-42.611196
-42.586805
-42.561519
-42.536209
-42.51268
-42.692141
-42.678204
-42.660702
-42.64127
-42.618389
-42.593692
-42.567943
-42.542038
-42.517804
-42.692141
-42.678205
-42.660703
-42.64127
-42.618389
-42.593692
-42.567943
-42.542038
-42.517804
-42.684552
-42.670641
-42.653189
-42.633867
-42.611197
-42.586805
-42.561519
-42.53621
-42.512681
-42.669561
-42.655725
-42.63838
-42.61925
-42.596959
-42.57312
-42.548717
-42.524567
-42.502409
-42.647441
-42.633678
-42.61647
-42.597623
-42.575918
-42.552886
-42.529784
-42.507351
-42.487202
-42.618357
-42.604757
-42.587796
-42.569374
-42.548509
-42.526506
-42.505087
-42.484886
-42.467316
-42.582862
-42.569523
-42.552923
-42.535023
-42.515332
-42.494561
-42.475153
-42.457635
-42.443125
-42.541505
-42.528549
-42.512446
-42.495137
-42.476666
-42.457659
-42.440596
-42.426131
-42.415062
-42.49539
-42.482855
-42.467339
-42.450787
-42.433636
-42.416654
-42.402149
-42.390996
-42.383622
-42.444196
-42.432416
-42.417891
-42.402514
-42.387005
-42.37243
-42.36065
-42.352962
-42.349373
-42.389789
-42.378915
-42.365577
-42.351562
-42.337744
-42.325994
-42.317066
-42.312816
-42.312815
-42.333093
-42.323231
-42.311197
-42.298708
-42.286791
-42.277852
-42.272297
-42.271379
-42.274401
-42.270936
-42.262492
-42.252545
-42.242813
-42.234212
-42.228978
-42.227562
-42.229877
-42.234967
-39.531244
-39.530361
-39.529352
-39.528503
-39.527802
-39.526959
-39.52611
-39.524401
-39.521015
-39.538075
-39.537074
-39.535857
-39.534642
-39.533319
-39.531639
-39.529977
-39.526634
-39.521796
-39.544548
-39.543439
-39.542086
-39.540693
-39.538983
-39.536849
-39.534433
-39.529498
-39.522956
-39.551099
-39.549882
-39.54837
-39.546726
-39.544559
-39.542122
-39.538652
-39.532063
-39.523746
-39.557475
-39.556179
-39.554522
-39.552639
-39.550169
-39.547373
-39.542498
-39.534287
-39.5244
-39.563132
-39.561822
-39.56009
-39.558009
-39.555308
-39.552092
-39.54589
-39.536229
-39.52502
-39.568128
-39.566808
-39.564992
-39.562668
-39.559784
-39.556114
-39.548776
-39.537893
-39.525599
-39.572402
-39.571082
-39.569211
-39.566739
-39.563788
-39.559496
-39.551167
-39.539287
-39.526121
-39.575845
-39.574536
-39.572644
-39.570077
-39.566893
-39.562176
-39.553072
-39.540409
-39.52657
-39.578436
-39.577146
-39.575255
-39.572634
-39.569315
-39.564195
-39.554497
-39.541253
-39.526931
-39.580174
-39.578894
-39.576994
-39.57434
-39.570935
-39.565535
-39.555443
-39.541819
-39.527186
-39.581082
-39.579805
-39.577897
-39.575224
-39.57177
-39.566228
-39.555939
-39.542125
-39.527335
-39.581083
-39.579805
-39.577898
-39.575224
-39.57177
-39.566228
-39.55594
-39.542125
-39.527336
-39.580175
-39.578895
-39.576995
-39.574341
-39.570936
-39.565536
-39.555444
-39.54182
-39.527187
-39.578437
-39.577148
-39.575256
-39.572636
-39.569317
-39.564196
-39.554499
-39.541255
-39.526933
-39.575847
-39.574538
-39.572647
-39.570079
-39.566896
-39.562179
-39.553075
-39.540411
-39.526573
-39.572405
-39.571085
-39.569214
-39.566743
-39.563791
-39.559499
-39.55117
-39.53929
-39.526124
-39.568132
-39.566811
-39.564996
-39.562672
-39.559788
-39.556117
-39.54878
-39.537896
-39.525603
-39.563137
-39.561827
-39.560094
-39.558013
-39.555312
-39.552096
-39.545894
-39.536234
-39.525024
-39.557479
-39.556183
-39.554526
-39.552643
-39.550173
-39.547377
-39.542503
-39.534292
-39.524405
-39.551105
-39.549888
-39.548376
-39.546731
-39.544564
-39.542127
-39.538657
-39.532068
-39.523751
-39.544554
-39.543445
-39.542092
-39.540699
-39.538989
-39.536855
-39.534439
-39.529505
-39.522962
-39.538082
-39.537081
-39.535864
-39.534649
-39.533326
-39.531645
-39.529984
-39.526641
-39.521803
-39.531252
-39.530368
-39.529359
-39.528511
-39.527809
-39.526967
-39.526117
-39.524409
-39.521024
-38.196654
-38.196492
-38.19624
-38.195835
-38.195403
-38.195157
-38.195221
-38.194991
-38.194245
-38.201639
-38.201417
-38.201016
-38.200312
-38.199436
-38.198562
-38.197665
-38.196558
-38.195176
-38.206179
-38.205916
-38.20543
-38.204556
-38.203405
-38.20216
-38.200533
-38.198795
-38.196983
-38.210245
-38.209939
-38.209369
-38.208346
-38.206985
-38.205499
-38.203142
-38.200782
-38.198463
-38.213825
-38.213485
-38.21284
-38.211669
-38.210048
-38.208079
-38.20529
-38.202378
-38.199611
-38.216941
-38.216579
-38.215874
-38.214572
-38.212706
-38.210283
-38.207091
-38.203664
-38.200518
-38.219633
-38.219249
-38.218488
-38.217069
-38.214984
-38.212077
-38.208549
-38.204664
-38.201221
-38.221924
-38.221523
-38.220714
-38.219202
-38.216972
-38.213598
-38.209705
-38.205414
-38.201745
-38.223789
-38.223376
-38.222529
-38.220952
-38.218661
-38.214818
-38.210575
-38.205949
-38.202114
-38.225161
-38.224741
-38.223868
-38.222224
-38.219803
-38.215689
-38.211183
-38.206303
-38.202352
-38.22606
-38.225636
-38.224742
-38.223048
-38.220527
-38.216241
-38.211555
-38.206506
-38.202489
-38.2265
-38.226075
-38.225172
-38.223451
-38.22088
-38.216509
-38.21173
-38.206596
-38.202548
-38.2265
-38.226075
-38.225172
-38.223451
-38.22088
-38.21651
-38.211731
-38.206597
-38.202549
-38.226061
-38.225637
-38.224743
-38.223049
-38.220528
-38.216243
-38.211557
-38.206508
-38.20249
-38.225163
-38.224743
-38.22387
-38.222226
-38.219805
-38.215691
-38.211185
-38.206305
-38.202355
-38.223792
-38.223379
-38.222532
-38.220955
-38.218665
-38.214821
-38.210579
-38.205952
-38.202118
-38.221928
-38.221527
-38.220718
-38.219206
-38.216976
-38.213602
-38.209709
-38.205418
-38.201749
-38.219638
-38.219255
-38.218493
-38.217074
-38.214989
-38.212082
-38.208554
-38.20467
-38.201227
-38.216947
-38.216585
-38.21588
-38.214578
-38.212712
-38.210289
-38.207097
-38.20367
-38.200524
-38.213832
-38.213492
-38.212847
-38.211676
-38.210055
-38.208086
-38.205297
-38.202385
-38.199618
-38.210253
-38.209947
-38.209377
-38.208354
-38.206993
-38.205508
-38.20315
-38.200789
-38.19847
-38.206188
-38.205925
-38.205438
-38.204565
-38.203414
-38.202169
-38.200542
-38.198804
-38.196992
-38.201648
-38.201426
-38.201025
-38.200322
-38.199446
-38.198572
-38.197675
-38.196568
-38.195185
-38.196664
-38.196502
-38.19625
-38.195845
-38.195414
-38.195167
-38.195232
-38.195002
-38.194255
-36.263088
-36.262974
-36.262898
-36.262953
-36.263172
-36.263518
-36.26393
-36.264272
-36.264085
-36.265723
-36.265566
-36.265414
-36.265347
-36.265376
-36.265461
-36.265506
-36.265375
-36.264847
-36.268567
-36.268364
-36.26816
-36.268036
-36.267995
-36.267975
-36.267874
-36.267552
-36.266844
-36.271379
-36.271127
-36.270869
-36.270697
-36.270612
-36.270536
-36.270359
-36.269878
-36.268859
-36.27407
-36.273778
-36.273474
-36.273256
-36.273123
-36.272984
-36.27274
-36.272096
-36.270733
-36.276529
-36.276213
-36.275882
-36.27564
-36.27548
-36.275276
-36.274999
-36.274203
-36.272481
-36.278719
-36.278386
-36.278037
-36.277785
-36.277632
-36.277474
-36.277092
-36.276141
-36.274064
-36.280592
-36.280249
-36.279892
-36.27964
-36.279494
-36.279351
-36.278933
-36.277842
-36.275446
-36.282118
-36.281771
-36.281412
-36.281165
-36.281035
-36.280911
-36.28047
-36.279259
-36.276595
-36.283279
-36.282931
-36.282573
-36.282335
-36.282221
-36.282119
-36.28166
-36.280358
-36.277483
-36.284065
-36.283715
-36.28336
-36.28313
-36.28303
-36.282942
-36.282472
-36.281108
-36.278085
-36.284459
-36.28411
-36.283756
-36.28353
-36.283438
-36.283358
-36.282883
-36.281489
-36.278389
-36.28446
-36.284111
-36.283756
-36.28353
-36.283438
-36.283359
-36.282883
-36.281489
-36.278389
-36.284066
-36.283717
-36.283361
-36.283131
-36.283031
-36.282944
-36.282473
-36.28111
-36.278086
-36.283282
-36.282933
-36.282576
-36.282337
-36.282223
-36.282121
-36.281662
-36.280361
-36.277485
-36.282122
-36.281775
-36.281416
-36.281169
-36.281038
-36.280915
-36.280473
-36.279263
-36.276598
-36.280597
-36.280254
-36.279897
-36.279644
-36.279499
-36.279355
-36.278937
-36.277846
-36.27545
-36.278724
-36.278392
-36.278043
-36.277791
-36.277638
-36.27748
-36.277098
-36.276146
-36.27407
-36.276536
-36.27622
-36.275889
-36.275647
-36.275487
-36.275283
-36.275005
-36.27421
-36.272488
-36.274078
-36.273787
-36.273482
-36.273264
-36.273131
-36.272992
-36.272748
-36.272104
-36.270741
-36.271387
-36.271136
-36.270878
-36.270706
-36.270621
-36.270545
-36.270368
-36.269886
-36.268867
-36.268577
-36.268374
-36.26817
-36.268046
-36.268005
-36.267985
-36.267884
-36.267561
-36.266853
-36.265734
-36.265577
-36.265425
-36.265358
-36.265387
-36.265473
-36.265517
-36.265385
-36.264856
-36.2631
-36.262986
-36.26291
-36.262965
-36.263184
-36.26353
-36.263941
-36.264282
-36.264095
-34.511819
-34.511883
-34.511966
-34.512061
-34.512176
-34.512309
-34.512438
-34.512504
-34.512248
-34.512877
-34.512924
-34.512968
-34.512987
-34.512977
-34.512925
-34.512787
-34.512481
-34.511968
-34.514014
-34.514043
-34.514059
-34.514031
-34.513952
-34.513803
-34.513531
-34.513082
-34.51254
-34.515008
-34.51502
-34.515011
-34.514952
-34.514832
-34.514625
-34.514266
-34.513718
-34.513108
-34.515846
-34.515849
-34.515823
-34.515737
-34.515581
-34.51531
-34.514857
-34.514206
-34.513518
-34.516581
-34.516575
-34.516535
-34.516427
-34.51623
-34.515892
-34.515344
-34.514597
-34.513836
-34.517196
-34.517184
-34.517132
-34.517002
-34.516768
-34.516363
-34.515744
-34.51492
-34.514095
-34.517702
-34.517684
-34.517621
-34.517473
-34.517209
-34.516757
-34.516068
-34.515183
-34.514298
-34.518098
-34.518075
-34.518003
-34.51784
-34.517554
-34.517069
-34.516321
-34.515387
-34.514449
-34.518394
-34.518366
-34.518287
-34.518113
-34.517808
-34.517294
-34.516505
-34.515535
-34.514552
-34.518593
-34.518562
-34.518477
-34.518295
-34.517976
-34.51744
-34.516625
-34.515631
-34.514617
-34.518686
-34.518654
-34.518568
-34.518383
-34.518057
-34.51751
-34.516683
-34.515678
-34.514648
-34.518687
-34.518655
-34.518569
-34.518383
-34.518058
-34.517511
-34.516683
-34.515678
-34.514648
-34.518594
-34.518563
-34.518479
-34.518297
-34.517978
-34.517442
-34.516627
-34.515633
-34.514619
-34.518397
-34.518369
-34.51829
-34.518116
-34.517811
-34.517297
-34.516508
-34.515538
-34.514556
-34.518102
-34.518079
-34.518008
-34.517845
-34.517558
-34.517073
-34.516325
-34.515391
-34.514453
-34.517708
-34.517689
-34.517627
-34.517479
-34.517214
-34.516763
-34.516074
-34.515189
-34.514304
-34.517203
-34.517191
-34.517139
-34.517009
-34.516775
-34.51637
-34.515751
-34.514927
-34.514102
-34.516589
-34.516583
-34.516543
-34.516435
-34.516238
-34.5159
-34.515352
-34.514605
-34.513844
-34.515856
-34.515859
-34.515832
-34.515747
-34.51559
-34.515319
-34.514866
-34.514215
-34.513527
-34.515018
-34.515031
-34.515022
-34.514962
-34.514843
-34.514635
-34.514277
-34.513729
-34.513118
-34.514025
-34.514055
-34.51407
-34.514043
-34.513964
-34.513814
-34.513543
-34.513093
-34.512552
-34.512889
-34.512937
-34.512981
-34.513
-34.51299
-34.512938
-34.5128
-34.512494
-34.511981
-34.511833
-34.511897
-34.51198
-34.512075
-34.51219
-34.512322
-34.512452
-34.512517
-34.512262
-32.73388
-32.733924
-32.733992
-32.734089
-32.734217
-32.734374
-32.734552
-32.734739
-32.734772
-32.734624
-32.734662
-32.734714
-32.734776
-32.734846
-32.734909
-32.734942
-32.73492
-32.734797
-32.735473
-32.735505
-32.735546
-32.73559
-32.735626
-32.735638
-32.735599
-32.735498
-32.735364
-32.736281
-32.736303
-32.736332
-32.736362
-32.736382
-32.73637
-32.736292
-32.736145
-32.735973
-32.737045
-32.737057
-32.737072
-32.737085
-32.737087
-32.737054
-32.736946
-32.736758
-32.736543
-32.737754
-32.737756
-32.737759
-32.737756
-32.737741
-32.73769
-32.737557
-32.737331
-32.737065
-32.738379
-32.738374
-32.738366
-32.738351
-32.738322
-32.738254
-32.738095
-32.737833
-32.737515
-32.738916
-32.738905
-32.73889
-32.738866
-32.738825
-32.738744
-32.738554
-32.738256
-32.737889
-32.739356
-32.739341
-32.739321
-32.73929
-32.739235
-32.739134
-32.738927
-32.738599
-32.738188
-32.739691
-32.739674
-32.73965
-32.739612
-32.739549
-32.73944
-32.739212
-32.738859
-32.738413
-32.739915
-32.739896
-32.73987
-32.739829
-32.739758
-32.739635
-32.739402
-32.739033
-32.738563
-32.740025
-32.740006
-32.739979
-32.739935
-32.739862
-32.739733
-32.739498
-32.73912
-32.738638
-32.740026
-32.740007
-32.73998
-32.739936
-32.739863
-32.739734
-32.739498
-32.739121
-32.738639
-32.739917
-32.739898
-32.739872
-32.739831
-32.73976
-32.739637
-32.739405
-32.739035
-32.738565
-32.739694
-32.739677
-32.739653
-32.739616
-32.739553
-32.739444
-32.739216
-32.738862
-32.738417
-32.739361
-32.739346
-32.739326
-32.739295
-32.73924
-32.739139
-32.738932
-32.738604
-32.738193
-32.738923
-32.738912
-32.738896
-32.738872
-32.738831
-32.738751
-32.738561
-32.738263
-32.737895
-32.738387
-32.738382
-32.738374
-32.738359
-32.73833
-32.738262
-32.738103
-32.737841
-32.737523
-32.737764
-32.737766
-32.737768
-32.737766
-32.73775
-32.737699
-32.737566
-32.73734
-32.737075
-32.737056
-32.737068
-32.737083
-32.737096
-32.737097
-32.737065
-32.736957
-32.736769
-32.736554
-32.736293
-32.736316
-32.736345
-32.736374
-32.736394
-32.736382
-32.736304
-32.736157
-32.735986
-32.735486
-32.735519
-32.73556
-32.735604
-32.73564
-32.735652
-32.735613
-32.735512
-32.735379
-32.734639
-32.734678
-32.734729
-32.734792
-32.734861
-32.734924
-32.734957
-32.734935
-32.734812
-32.733897
-32.733941
-32.734009
-32.734105
-32.734234
-32.734391
-32.734569
-32.734755
-32.734789
-30.955203
-30.955225
-30.955256
-30.9553
-30.955354
-30.955414
-30.955474
-30.955539
-30.955528
-30.955602
-30.955619
-30.955638
-30.955658
-30.955673
-30.955671
-30.955646
-30.955597
-30.955509
-30.956048
-30.95606
-30.956072
-30.956079
-30.956073
-30.956043
-30.955985
-30.955908
-30.955833
-30.956461
-30.956467
-30.956471
-30.95647
-30.956454
-30.956412
-30.956342
-30.956253
-30.956165
-30.956836
-30.956838
-30.956836
-30.956826
-30.956799
-30.956743
-30.956657
-30.956546
-30.956435
-30.957174
-30.957172
-30.957165
-30.957148
-30.95711
-30.95704
-30.956934
-30.9568
-30.956664
-30.957463
-30.957458
-30.957447
-30.957425
-30.957379
-30.957298
-30.957175
-30.957021
-30.95686
-30.957707
-30.9577
-30.957686
-30.957658
-30.957607
-30.957516
-30.957379
-30.957208
-30.957024
-30.957904
-30.957895
-30.957878
-30.957846
-30.95779
-30.957691
-30.957546
-30.95736
-30.957156
-30.958054
-30.958043
-30.958023
-30.957989
-30.957928
-30.957818
-30.957672
-30.957476
-30.957256
-30.958156
-30.958144
-30.958122
-30.958087
-30.958025
-30.957916
-30.957759
-30.957554
-30.957322
-30.958207
-30.958194
-30.958172
-30.958135
-30.958073
-30.957964
-30.957803
-30.957593
-30.957356
-30.958208
-30.958195
-30.958173
-30.958136
-30.958073
-30.957965
-30.957803
-30.957594
-30.957357
-30.958159
-30.958146
-30.958125
-30.958089
-30.958027
-30.957919
-30.957761
-30.957556
-30.957324
-30.958058
-30.958047
-30.958027
-30.957993
-30.957932
-30.957822
-30.957676
-30.95748
-30.95726
-30.957909
-30.957901
-30.957883
-30.957852
-30.957796
-30.957697
-30.957552
-30.957366
-30.957162
-30.957714
-30.957708
-30.957693
-30.957666
-30.957614
-30.957524
-30.957387
-30.957215
-30.957031
-30.957472
-30.957467
-30.957456
-30.957434
-30.957389
-30.957307
-30.957184
-30.957029
-30.956868
-30.957185
-30.957183
-30.957176
-30.957159
-30.957121
-30.957051
-30.956945
-30.956811
-30.956674
-30.956849
-30.956851
-30.956849
-30.956839
-30.956812
-30.956756
-30.956669
-30.956559
-30.956447
-30.956475
-30.956481
-30.956486
-30.956485
-30.956469
-30.956427
-30.956356
-30.956267
-30.956179
-30.956065
-30.956077
-30.956089
-30.956096
-30.95609
-30.95606
-30.956001
-30.955924
-30.955848
-30.955621
-30.955638
-30.955657
-30.955677
-30.955691
-30.95569
-30.955664
-30.955615
-30.955526
-30.955224
-30.955245
-30.955277
-30.95532
-30.955374
-30.955434
-30.955494
-30.955558
-30.955546
-29.187933
-29.187947
-29.187968
-29.187995
-29.188029
-29.188072
-29.188122
-29.188177
-29.188186
-29.188157
-29.188169
-29.188184
-29.188199
-29.188213
-29.188223
-29.188224
-29.188208
-29.188164
-29.188409
-29.188419
-29.18843
-29.188439
-29.188441
-29.188434
-29.188411
-29.188373
-29.188333
-29.188646
-29.188654
-29.188662
-29.188665
-29.188662
-29.188647
-29.188613
-29.188565
-29.188522
-29.18887
-29.188874
-29.188878
-29.188877
-29.188868
-29.188846
-29.188803
-29.188747
-29.188698
-29.189079
-29.18908
-29.189081
-29.189075
-29.189061
-29.189033
-29.188984
-29.188921
-29.188864
-29.189266
-29.189265
-29.189261
-29.189252
-29.189234
-29.189201
-29.189149
-29.189081
-29.189014
-29.189429
-29.189426
-29.189419
-29.189407
-29.189385
-29.189349
-29.189293
-29.18922
-29.189144
-29.189565
-29.18956
-29.189552
-29.189536
-29.189511
-29.189472
-29.189413
-29.189336
-29.189251
-29.189671
-29.189665
-29.189654
-29.189636
-29.189609
-29.189568
-29.189507
-29.189425
-29.189333
-29.189743
-29.189736
-29.189724
-29.189705
-29.189676
-29.189634
-29.189571
-29.189486
-29.189388
-29.18978
-29.189772
-29.189759
-29.189739
-29.18971
-29.189667
-29.189603
-29.189517
-29.189417
-29.189781
-29.189773
-29.18976
-29.18974
-29.189711
-29.189668
-29.189604
-29.189518
-29.189417
-29.189746
-29.189738
-29.189727
-29.189708
-29.189679
-29.189636
-29.189573
-29.189489
-29.189391
-29.189676
-29.189669
-29.189659
-29.189641
-29.189613
-29.189572
-29.189511
-29.18943
-29.189337
-29.189572
-29.189566
-29.189558
-29.189543
-29.189518
-29.189479
-29.18942
-29.189342
-29.189257
-29.189437
-29.189434
-29.189428
-29.189415
-29.189393
-29.189358
-29.189301
-29.189228
-29.189152
-29.189276
-29.189275
-29.189272
-29.189262
-29.189244
-29.189212
-29.189159
-29.189091
-29.189024
-29.189091
-29.189093
-29.189093
-29.189088
-29.189073
-29.189045
-29.188996
-29.188933
-29.188875
-29.188884
-29.188889
-29.188893
-29.188892
-29.188883
-29.18886
-29.188817
-29.188761
-29.188711
-29.188662
-29.18867
-29.188678
-29.188682
-29.188679
-29.188663
-29.188629
-29.18858
-29.188537
-29.188427
-29.188438
-29.188449
-29.188457
-29.18846
-29.188452
-29.188429
-29.18839
-29.18835
-29.188178
-29.18819
-29.188205
-29.18822
-29.188234
-29.188244
-29.188244
-29.188228
-29.188183
-29.187956
-29.18797
-29.187991
-29.188018
-29.188052
-29.188095
-29.188145
-29.188199
-29.188207
-27.416356
-27.41636
-27.416368
-27.416379
-27.416396
-27.416416
-27.416441
-27.416472
-27.416483
-27.416493
-27.416496
-27.4165
-27.416504
-27.416509
-27.416511
-27.416511
-27.416507
-27.416493
-27.416641
-27.416642
-27.416644
-27.416645
-27.416644
-27.416639
-27.41663
-27.416618
-27.416608
-27.416779
-27.416779
-27.416778
-27.416777
-27.416774
-27.416766
-27.416755
-27.416741
-27.416728
-27.416906
-27.416905
-27.416903
-27.416899
-27.416893
-27.416883
-27.416868
-27.416849
-27.416831
-27.417021
-27.417019
-27.417015
-27.41701
-27.417002
-27.416988
-27.416969
-27.416945
-27.416919
-27.417121
-27.417118
-27.417114
-27.417107
-27.417097
-27.417082
-27.417059
-27.417028
-27.416995
-27.417207
-27.417203
-27.417197
-27.41719
-27.417179
-27.417162
-27.417135
-27.417099
-27.417057
-27.417276
-27.417272
-27.417266
-27.417258
-27.417246
-27.417227
-27.417198
-27.417157
-27.417108
-27.417329
-27.417325
-27.417318
-27.417309
-27.417297
-27.417277
-27.417246
-27.417201
-27.417146
-27.417366
-27.417361
-27.417354
-27.417345
-27.417332
-27.417312
-27.417279
-27.417231
-27.417172
-27.417385
-27.417379
-27.417372
-27.417363
-27.41735
-27.41733
-27.417296
-27.417246
-27.417185
-27.417385
-27.41738
-27.417373
-27.417364
-27.417351
-27.41733
-27.417296
-27.417247
-27.417186
-27.417369
-27.417364
-27.417357
-27.417348
-27.417335
-27.417315
-27.417281
-27.417234
-27.417175
-27.417334
-27.417329
-27.417323
-27.417314
-27.417302
-27.417282
-27.417251
-27.417205
-27.417151
-27.417283
-27.417278
-27.417272
-27.417264
-27.417253
-27.417234
-27.417204
-27.417163
-27.417114
-27.417215
-27.417211
-27.417206
-27.417199
-27.417188
-27.41717
-27.417144
-27.417108
-27.417066
-27.417132
-27.417129
-27.417124
-27.417118
-27.417108
-27.417092
-27.417069
-27.417039
-27.417005
-27.417034
-27.417031
-27.417028
-27.417023
-27.417015
-27.417001
-27.416982
-27.416958
-27.416931
-27.416921
-27.41692
-27.416917
-27.416914
-27.416908
-27.416898
-27.416883
-27.416864
-27.416845
-27.416796
-27.416796
-27.416795
-27.416794
-27.416791
-27.416783
-27.416772
-27.416757
-27.416745
-27.41666
-27.416661
-27.416663
-27.416664
-27.416663
-27.416658
-27.416648
-27.416637
-27.416627
-27.416514
-27.416517
-27.416521
-27.416525
-27.41653
-27.416532
-27.416532
-27.416528
-27.416513
-27.416379
-27.416384
-27.416391
-27.416403
-27.416419
-27.416439
-27.416464
-27.416494
-27.416505
-25.64797
-25.647973
-25.647977
-25.647983
-25.647992
-25.648003
-25.648017
-25.648033
-25.648036
-25.648041
-25.648043
-25.648046
-25.648048
-25.648051
-25.648052
-25.648051
-25.648046
-25.648033
-25.648117
-25.648119
-25.64812
-25.648121
-25.64812
-25.648117
-25.64811
-25.648099
-25.648088
-25.64819
-25.64819
-25.648191
-25.64819
-25.648188
-25.648183
-25.648174
-25.648161
-25.648149
-25.648257
-25.648257
-25.648257
-25.648255
-25.648251
-25.648245
-25.648233
-25.648219
-25.648205
-25.64832
-25.648319
-25.648318
-25.648315
-25.64831
-25.648302
-25.64829
-25.648273
-25.648257
-25.648376
-25.648375
-25.648373
-25.648369
-25.648363
-25.648354
-25.64834
-25.648322
-25.648303
-25.648425
-25.648423
-25.64842
-25.648416
-25.648409
-25.6484
-25.648385
-25.648365
-25.648344
-25.648465
-25.648463
-25.64846
-25.648455
-25.648448
-25.648437
-25.648422
-25.648401
-25.648377
-25.648496
-25.648494
-25.64849
-25.648485
-25.648477
-25.648467
-25.648451
-25.648429
-25.648402
-25.648517
-25.648515
-25.648511
-25.648505
-25.648498
-25.648487
-25.648471
-25.648448
-25.64842
-25.648529
-25.648526
-25.648522
-25.648516
-25.648508
-25.648498
-25.648482
-25.648458
-25.64843
-25.648529
-25.648527
-25.648523
-25.648517
-25.648509
-25.648499
-25.648483
-25.648459
-25.64843
-25.64852
-25.648517
-25.648514
-25.648508
-25.648501
-25.64849
-25.648474
-25.648451
-25.648423
-25.648501
-25.648498
-25.648495
-25.648489
-25.648482
-25.648472
-25.648456
-25.648434
-25.648407
-25.648471
-25.648469
-25.648466
-25.648461
-25.648454
-25.648444
-25.648429
-25.648408
-25.648383
-25.648433
-25.648431
-25.648429
-25.648424
-25.648418
-25.648408
-25.648394
-25.648374
-25.648352
-25.648386
-25.648385
-25.648383
-25.64838
-25.648374
-25.648365
-25.648351
-25.648333
-25.648313
-25.648333
-25.648332
-25.648331
-25.648328
-25.648323
-25.648315
-25.648302
-25.648285
-25.648269
-25.648272
-25.648272
-25.648272
-25.64827
-25.648266
-25.64826
-25.648248
-25.648233
-25.648219
-25.648206
-25.648207
-25.648208
-25.648207
-25.648205
-25.6482
-25.64819
-25.648177
-25.648165
-25.648136
-25.648138
-25.648139
-25.64814
-25.648139
-25.648136
-25.648129
-25.648117
-25.648106
-25.648062
-25.648064
-25.648067
-25.648069
-25.648072
-25.648073
-25.648072
-25.648066
-25.648053
-25.647993
-25.647996
-25.648
-25.648006
-25.648015
-25.648026
-25.648039
-25.648055
-25.648057
-23.878582
-23.878583
-23.878585
-23.878588
-23.878592
-23.878598
-23.878605
-23.878614
-23.878618
-23.878625
-23.878625
-23.878626
-23.878626
-23.878627
-23.878628
-23.878628
-23.878627
-23.878622
-23.878669
-23.878669
-23.878669
-23.878669
-23.878668
-23.878666
-23.878664
-23.87866
-23.878657
-23.878711
-23.87871
-23.87871
-23.878709
-23.878707
-23.878705
-23.878702
-23.878697
-23.878693
-23.878749
-23.878748
-23.878747
-23.878746
-23.878744
-23.87874
-23.878736
-23.87873
-23.878724
-23.878784
-23.878783
-23.878782
-23.87878
-23.878777
-23.878773
-23.878767
-23.87876
-23.878752
-23.878815
-23.878813
-23.878812
-23.87881
-23.878806
-23.878802
-23.878795
-23.878786
-23.878776
-23.878841
-23.87884
-23.878838
-23.878835
-23.878832
-23.878827
-23.878819
-23.878809
-23.878797
-23.878863
-23.878861
-23.878859
-23.878856
-23.878853
-23.878847
-23.878839
-23.878828
-23.878813
-23.878879
-23.878878
-23.878876
-23.878873
-23.878869
-23.878863
-23.878855
-23.878842
-23.878826
-23.878891
-23.878889
-23.878887
-23.878884
-23.87888
-23.878874
-23.878865
-23.878852
-23.878835
-23.878897
-23.878896
-23.878893
-23.87889
-23.878886
-23.87888
-23.878871
-23.878857
-23.87884
-23.878898
-23.878896
-23.878894
-23.878891
-23.878887
-23.878881
-23.878872
-23.878858
-23.878841
-23.878894
-23.878892
-23.87889
-23.878887
-23.878883
-23.878877
-23.878868
-23.878854
-23.878837
-23.878884
-23.878882
-23.87888
-23.878877
-23.878873
-23.878868
-23.878859
-23.878846
-23.87883
-23.878869
-23.878867
-23.878865
-23.878862
-23.878859
-23.878854
-23.878845
-23.878834
-23.878819
-23.878849
-23.878847
-23.878846
-23.878843
-23.87884
-23.878835
-23.878827
-23.878817
-23.878804
-23.878824
-23.878823
-23.878822
-23.878819
-23.878816
-23.878812
-23.878805
-23.878796
-23.878785
-23.878796
-23.878795
-23.878793
-23.878791
-23.878789
-23.878785
-23.878779
-23.878771
-23.878763
-23.878763
-23.878762
-23.878761
-23.87876
-23.878758
-23.878754
-23.878749
-23.878743
-23.878737
-23.878726
-23.878726
-23.878725
-23.878725
-23.878723
-23.878721
-23.878717
-23.878712
-23.878708
-23.878687
-23.878687
-23.878687
-23.878687
-23.878686
-23.878684
-23.878681
-23.878677
-23.878673
-23.878644
-23.878645
-23.878645
-23.878646
-23.878647
-23.878647
-23.878647
-23.878646
-23.878641
-23.878604
-23.878605
-23.878606
-23.878609
-23.878613
-23.878619
-23.878626
-23.878635
-23.878638
-22.109871
-22.109872
-22.109873
-22.109874
-22.109876
-22.109879
-22.109883
-22.109888
-22.109889
-22.109894
-22.109894
-22.109894
-22.109895
-22.109895
-22.109895
-22.109895
-22.109894
-22.109891
-22.109917
-22.109917
-22.109917
-22.109917
-22.109917
-22.109916
-22.109914
-22.109911
-22.109908
-22.109939
-22.109939
-22.109938
-22.109938
-22.109937
-22.109936
-22.109933
-22.10993
-22.109927
-22.109959
-22.109959
-22.109958
-22.109958
-22.109957
-22.109955
-22.109952
-22.109948
-22.109944
-22.109978
-22.109977
-22.109977
-22.109976
-22.109974
-22.109972
-22.109969
-22.109964
-22.10996
-22.109994
-22.109994
-22.109993
-22.109992
-22.10999
-22.109988
-22.109984
-22.109979
-22.109973
-22.110008
-22.110008
-22.110007
-22.110006
-22.110004
-22.110001
-22.109998
-22.109992
-22.109985
-22.11002
-22.11002
-22.110019
-22.110017
-22.110015
-22.110013
-22.110009
-22.110003
-22.109995
-22.110029
-22.110029
-22.110028
-22.110026
-22.110024
-22.110022
-22.110017
-22.110011
-22.110003
-22.110036
-22.110035
-22.110034
-22.110033
-22.110031
-22.110028
-22.110024
-22.110017
-22.110008
-22.110039
-22.110039
-22.110038
-22.110036
-22.110034
-22.110032
-22.110027
-22.11002
-22.110011
-22.11004
-22.110039
-22.110038
-22.110037
-22.110035
-22.110032
-22.110028
-22.110021
-22.110012
-22.110038
-22.110037
-22.110036
-22.110035
-22.110033
-22.11003
-22.110026
-22.110019
-22.11001
-22.110033
-22.110032
-22.110031
-22.11003
-22.110028
-22.110025
-22.110021
-22.110015
-22.110006
-22.110025
-22.110025
-22.110024
-22.110022
-22.110021
-22.110018
-22.110014
-22.110008
-22.11
-22.110015
-22.110014
-22.110014
-22.110012
-22.110011
-22.110008
-22.110004
-22.109998
-22.109992
-22.110002
-22.110002
-22.110001
-22.11
-22.109999
-22.109996
-22.109992
-22.109987
-22.109981
-22.109987
-22.109987
-22.109987
-22.109986
-22.109984
-22.109982
-22.109979
-22.109974
-22.109969
-22.10997
-22.10997
-22.10997
-22.109969
-22.109968
-22.109966
-22.109963
-22.109959
-22.109955
-22.109952
-22.109952
-22.109952
-22.109951
-22.109951
-22.109949
-22.109946
-22.109943
-22.109939
-22.109932
-22.109932
-22.109932
-22.109932
-22.109932
-22.10993
-22.109928
-22.109925
-22.109922
-22.10991
-22.109911
-22.109911
-22.109912
-22.109912
-22.109912
-22.109911
-22.10991
-22.109906
-22.109889
-22.10989
-22.109891
-22.109893
-22.109895
-22.109898
-22.109901
-22.109906
-22.109906
-20.340981
-20.340981
-20.340981
-20.340982
-20.340983
-20.340985
-20.340987
-20.340989
-20.34099
-20.340994
-20.340994
-20.340994
-20.340994
-20.340994
-20.340994
-20.340994
-20.340994
-20.340992
-20.341007
-20.341006
-20.341006
-20.341006
-20.341006
-20.341005
-20.341005
-20.341003
-20.341002
-20.341019
-20.341019
-20.341018
-20.341018
-20.341017
-20.341017
-20.341016
-20.341014
-20.341013
-20.34103
-20.34103
-20.341029
-20.341029
-20.341028
-20.341027
-20.341026
-20.341024
-20.341022
-20.34104
-20.34104
-20.34104
-20.341039
-20.341038
-20.341037
-20.341035
-20.341033
-20.341031
-20.34105
-20.341049
-20.341049
-20.341048
-20.341047
-20.341046
-20.341044
-20.341041
-20.341038
-20.341057
-20.341057
-20.341056
-20.341056
-20.341055
-20.341053
-20.341051
-20.341048
-20.341045
-20.341064
-20.341064
-20.341063
-20.341062