/*--------------------------------*- C++ -*----------------------------------*\
| =========                 |                                                 |
| \\      /  F ield         | OpenFOAM: The Open Source CFD Toolbox           |
|  \\    /   O peration     | Version:  2406                                  |
|   \\  /    A nd           | Website:  www.openfoam.com                      |
|    \\/     M anipulation  |                                                 |
\*---------------------------------------------------------------------------*/
FoamFile
{
    version     2.0;
    format      ascii;
    arch        "LSB;label=32;scalar=64";
    class       surfaceScalarField;
    location    "19.5";
    object      phi;
}
// * * * * * * * * * * * * * * * * * * * * * * * * * * * * * * * * * * * * * //

dimensions      [0 3 -1 0 0 0 0];

oriented        oriented;

internalField   nonuniform List<scalar> 
101088
(
-1.2401451e-05
1.4987944e-05
-9.6966874e-06
-1.3164346e-05
-8.9983516e-06
6.3206652e-05
-3.9069503e-05
-5.5912164e-05
2.2248311e-05
0.00014823842
-8.654031e-05
-0.00013153345
8.7373152e-05
0.00027363849
-0.00014610682
-0.00024307335
0.00017326822
0.00042609162
-0.00019563102
-0.00037871372
0.00024186124
0.00057522755
-0.00020509842
-0.00051055903
0.0002563891
0.0006852537
-0.00017087454
-0.00060482503
0.00020180951
0.00073858344
-0.00011211203
-0.00064475491
0.00073606452
-5.8867153e-05
-0.00063044217
9.1618533e-05
-1.4803112e-05
1.6576888e-05
-1.1656678e-05
-9.3058727e-06
6.9146222e-05
-4.6194669e-05
3.1607025e-05
0.00016061959
-0.0001005069
0.00011514754
0.00029427907
-0.0001658168
0.00022348684
0.00045662862
-0.00021515216
0.00031035533
0.00061659104
-0.00021637076
0.00033783057
0.00073777407
-0.00017379574
0.00029140896
0.00080041979
-0.00010657159
0.00080047725
-4.9261421e-05
0.00019541099
-1.7057917e-05
1.7690677e-05
-1.3565462e-05
-9.1373424e-06
7.3031753e-05
-5.2977977e-05
4.0859325e-05
0.00016815678
-0.00011335002
0.00013948088
0.00030574749
-0.00018281242
0.00026334155
0.00047187315
-0.00022896351
0.00036288642
0.00063499876
-0.00022175539
0.00039866251
0.00076167624
-0.00017036536
0.0003595298
0.00082805577
-9.6602097e-05
0.00082670593
-3.6987776e-05
0.00027361471
-1.9205864e-05
1.8150561e-05
-1.5291332e-05
-8.9530658e-06
7.4289767e-05
-5.8917433e-05
4.9350753e-05
0.00016978381
-0.00012406153
0.00016070222
0.00030672572
-0.00019568162
0.00029491936
0.00047099126
-0.00023607826
0.00040309738
0.00063212887
-0.00022377168
0.00044174751
0.00075815595
-0.0001613708
0.00040579037
0.00082371845
-8.3139343e-05
0.00081972343
-2.2975462e-05
0.0003249954
-2.1220886e-05
1.78207e-05
-1.678223e-05
-8.9175687e-06
7.2557628e-05
-6.3875262e-05
5.6421085e-05
0.00016500012
-0.00013251482
0.00017755768
0.00029677388
-0.00020447585
0.0003193884
0.00045402524
-0.00023954134
0.00043138686
0.00060790148
-0.00021966433
0.00046918513
0.00072842573
-0.0001483509
0.00043328634
0.00079008529
-6.7531129e-05
0.00078322033
-8.3486795e-06
0.00035506745
-2.3317874e-05
1.6869723e-05
-1.804511e-05
-9.9059903e-06
6.8310116e-05
-6.79136e-05
6.0322987e-05
0.0001545481
-0.00013893369
0.00018765074
0.00027671166
-0.00020964635
0.00033364504
0.00042144774
-0.00023892459
0.00044583618
0.00056299999
-0.00021123638
0.00048062018
0.00067375677
-0.00013284017
0.00044337283
0.00072928783
-5.0911713e-05
0.00072010903
6.1398054e-06
0.00036669707
-2.5123589e-05
1.518761e-05
-1.9048277e-05
-1.069779e-05
6.1270593e-05
-7.0969232e-05
6.3548541e-05
0.00013811503
-0.00014333255
0.00019475485
0.00024636227
-0.00021122473
0.00034269243
0.00037373434
-0.00023518646
0.00045238549
0.00049909826
-0.00020016598
0.00048223755
0.00059678924
-0.00011626034
0.00044209595
0.00064475856
-3.4340024e-05
0.00063438749
1.9862897e-05
0.00036548597
-2.6760593e-05
1.2881514e-05
-1.982537e-05
-1.1817781e-05
5.1834924e-05
-7.3229183e-05
6.5010053e-05
0.00011656116
-0.0001462303
0.00019815257
0.00020745419
-0.00021140522
0.00034745544
0.00031422061
-0.00023276026
0.00045269817
0.00041914601
-0.00018843027
0.00047678245
0.00050073133
-0.00010026816
0.00043305986
0.00054013299
-1.8940641e-05
0.00052987263
3.2208806e-05
0.00035572144
-2.8173343e-05
1.0081086e-05
-2.0409541e-05
-1.3095195e-05
4.0506525e-05
-7.4859407e-05
6.5187281e-05
9.0955886e-05
-0.00014806991
0.00019944088
0.00016168884
-0.00021119249
0.00034845907
0.00024459762
-0.0002288542
0.00044896419
0.00032599955
-0.00017755905
0.0004673821
0.00038915863
-8.6172319e-05
0.00042003229
0.00041927172
-5.6321548e-06
0.00041037036
4.265119e-05
0.00034161488
-2.9325182e-05
6.9428936e-06
-2.0823289e-05
-1.4387349e-05
2.7842912e-05
-7.5970345e-05
6.4538445e-05
6.2405957e-05
-0.00014915062
0.00019907369
0.00011076362
-0.00021051968
0.00034692733
0.00016733821
-0.00022496402
0.00044314469
0.00022283935
-0.00016857769
0.00045672884
0.0002658456
-7.4903254e-05
0.0004062588
0.00028616748
4.861351e-06
0.00027964228
5.0766565e-05
0.00032680971
-3.0075382e-05
3.5284252e-06
-2.1073124e-05
-1.521516e-05
1.414267e-05
-7.6589329e-05
6.4024006e-05
3.1689777e-05
-0.00014956394
0.00019842584
5.6232981e-05
-0.0002095941
0.00034490756
8.4906607e-05
-0.00022169394
0.00043775438
0.00011300544
-0.00016206795
0.00044776652
0.00013475237
-6.7059504e-05
0.00039502644
0.00014496849
1.2023561e-05
0.00014152486
5.6222922e-05
0.00031480315
-3.048299e-05
5.9115732e-11
-2.1196508e-05
-1.5736748e-05
1.2371195e-10
-7.6908071e-05
6.3579526e-05
1.1567122e-10
-0.00014981116
0.00019788723
8.3135744e-11
-0.00020921714
0.00034366438
-4.3355347e-10
-0.00022016307
0.00043479302
-8.8481878e-10
-0.00015895486
0.00044292005
-1.3895741e-09
-6.3274455e-05
0.00038888686
-1.5462034e-09
1.5484969e-05
-1.0716573e-09
5.8852535e-05
0.00030809167
-3.0483379e-05
-3.5283993e-06
-2.1196506e-05
-1.5737201e-05
-1.4142618e-05
-7.6908063e-05
6.3579456e-05
-3.1689654e-05
-0.00014981115
0.00019788691
-5.6232823e-05
-0.00020921713
0.00034366448
-8.4907417e-05
-0.00022016306
0.00043479302
-0.00011300709
-0.00015895485
0.00044291999
-0.00013475495
-6.3274447e-05
0.00038888691
-0.00014497135
1.5484977e-05
-0.00014152681
5.8852544e-05
0.00030809162
-3.0075776e-05
-6.9429738e-06
-2.1073125e-05
-1.5215301e-05
-2.7843059e-05
-7.6589332e-05
6.4024272e-05
-6.2405905e-05
-0.00014956394
0.00019842498
-0.00011076358
-0.00020959412
0.00034490793
-0.000167339
-0.00022169395
0.00043775439
-0.00022284073
-0.00016206795
0.00044776635
-0.00026584776
-6.7059498e-05
0.00039502657
-0.00028616981
1.2023577e-05
-0.00027964377
5.6222941e-05
0.00031480297
-2.9324724e-05
-1.0081034e-05
-2.0823284e-05
-1.4386287e-05
-4.0506376e-05
-7.5970332e-05
6.4538929e-05
-9.095574e-05
-0.0001491506
0.00019907245
-0.00016168924
-0.00021051966
0.00034692803
-0.00024459847
-0.00022496397
0.00044314458
-0.00032600064
-0.00016857766
0.00045672851
-0.0003891604
-7.4903232e-05
0.00040625892
-0.00041927347
4.8613735e-06
-0.00041037132
5.0766579e-05
0.00032680934
-2.8172916e-05
-1.288144e-05
-2.0409538e-05
-1.3094655e-05
-5.1834746e-05
-7.4859399e-05
6.5187395e-05
-0.00011656133
-0.00014806989
0.00019944033
-0.0002074551
-0.00021119246
0.00034846035
-0.00031422115
-0.00022885414
0.00044896398
-0.00041914691
-0.00017755904
0.00046738183
-0.00050073283
-8.6172314e-05
0.00042003238
-0.00054013422
-5.6321446e-06
-0.00052987323
4.2651192e-05
0.0003416143
-2.6760704e-05
-1.5187624e-05
-1.9825367e-05
-1.1817596e-05
-6.12704e-05
-7.322917e-05
6.5011383e-05
-0.00013811474
-0.00014623028
0.00019815392
-0.00024636233
-0.00021140519
0.00034745665
-0.00037373432
-0.00023276023
0.00045269775
-0.00049909963
-0.00018843031
0.00047678235
-0.00059679075
-0.0001002682
0.00043305971
-0.00064475952
-1.8940668e-05
-0.00063438807
3.2208803e-05
0.00035572056
-2.5123304e-05
-1.6869516e-05
-1.9048275e-05
-1.0696891e-05
-6.830951e-05
-7.0969225e-05
6.3549979e-05
-0.00015454746
-0.00014333255
0.00019475612
-0.00027671217
-0.00021122475
0.00034269222
-0.00042144948
-0.00023518651
0.00045238519
-0.00056300318
-0.00020016607
0.00048223773
-0.00067375917
-0.00011626043
0.00044209546
-0.00072928946
-3.4340082e-05
-0.00072010962
1.9862908e-05
0.00036548475
-2.3318622e-05
-1.7820901e-05
-1.8045114e-05
-9.908176e-06
-7.2558296e-05
-6.7913617e-05
6.0321462e-05
-0.00016500103
-0.00013893372
0.00018765204
-0.00029677498
-0.0002096464
0.00033364499
-0.00045402741
-0.00023892465
0.00044583701
-0.00060790483
-0.00021123645
0.00048062065
-0.00072842951
-0.00013284025
0.00044337226
-0.00079008822
-5.0911763e-05
-0.00078322022
6.1398301e-06
0.00036669541
-2.1221403e-05
-1.8150423e-05
-1.6782228e-05
-8.9181662e-06
-7.4289242e-05
-6.3875252e-05
5.6422012e-05
-0.00016978269
-0.00013251481
0.00017755956
-0.00030672482
-0.00020447584
0.0003193882
-0.0004709925
-0.00023954131
0.00043138786
-0.0006321312
-0.00021966431
0.00046918568
-0.00075815947
-0.0001483509
0.00043328623
-0.0008237204
-6.7531124e-05
-0.00081972256
-8.3486593e-06
0.00035506504
-1.9206026e-05
-1.7690676e-05
-1.5291328e-05
-8.9537946e-06
-7.3031753e-05
-5.8917419e-05
4.9349388e-05
-0.00016815687
-0.0001240615
0.00016070097
-0.00030574808
-0.00019568158
0.00029491947
-0.00047187512
-0.00023607819
0.00040309758
-0.00063500208
-0.00022377158
0.00044174788
-0.00076167842
-0.00016137072
0.00040579107
-0.00082805655
-8.3139296e-05
-0.00082670653
-2.2975449e-05
0.00032499334
-1.7058094e-05
-1.6576881e-05
-1.3565456e-05
-9.1380454e-06
-6.9146219e-05
-5.2977959e-05
4.0857783e-05
-0.0001606198
-0.00011334998
0.00013947892
-0.00029427995
-0.00018281235
0.00026334126
-0.00045663073
-0.00022896342
0.00036288715
-0.00061659466
-0.00022175524
0.00039866187
-0.00073777693
-0.00017036524
0.00035952953
-0.00080042125
-9.6602025e-05
-0.00080047417
-3.6987737e-05
0.0002736139
-1.4803162e-05
-1.4987925e-05
-1.1656674e-05
-9.3063834e-06
-6.3206585e-05
-4.6194654e-05
3.1605598e-05
-0.00014823832
-0.00010050686
0.00011514541
-0.00027363834
-0.00016581672
0.00022348643
-0.0004260915
-0.00021515205
0.00031035732
-0.00057522813
-0.00021637062
0.00033783037
-0.00068525599
-0.00017379562
0.00029141115
-0.00073858445
-0.00010657152
-0.00073606218
-4.9261388e-05
0.00019541073
-1.2401417e-05
-9.6966851e-06
-1.3164341e-05
-8.998503e-06
-3.9069495e-05
-5.5912189e-05
2.2247811e-05
-8.6540293e-05
-0.00013153364
8.7372424e-05
-0.00014610678
-0.000243074
0.00017326796
-0.00019563096
-0.00037871501
0.0002418613
-0.00020509837
-0.00051056085
0.00025638835
-0.00017087449
-0.00060482695
0.00020181087
-0.00011211194
-0.00064475646
-5.8867114e-05
-0.00063044514
9.1616165e-05
4.345676e-07
3.2098178e-06
-1.0789824e-05
-2.5512489e-06
3.4837649e-06
1.3948108e-05
-4.4870596e-05
-1.1196279e-05
1.1692698e-05
3.3096309e-05
-0.00010108991
-2.6755832e-05
2.6670398e-05
5.9724566e-05
-0.00017212352
-4.8685788e-05
4.851912e-05
8.5599761e-05
-0.00023263289
-7.0446737e-05
7.5570762e-05
9.7190853e-05
-0.00024927408
-8.0067092e-05
9.7592314e-05
8.9952451e-05
-0.00021137533
-7.1473284e-05
0.00010776238
6.904301e-05
-0.00014082187
-5.0501962e-05
4.779001e-05
-7.8481138e-05
-2.9567236e-05
0.00010915335
5.85283e-07
3.805062e-06
-1.2837182e-05
4.7174104e-06
1.6387579e-05
-5.2766056e-05
1.6001925e-05
3.8436145e-05
-0.00011713067
3.6945675e-05
6.8272152e-05
-0.00019530717
6.7448035e-05
9.6190841e-05
-0.00025624483
0.00010320575
0.00010850305
-0.00026344103
0.000127093
0.00010130031
-0.00020903044
0.0001356234
8.1522746e-05
-0.00012758173
6.1785953e-05
-6.0712792e-05
0.00013307892
8.077387e-07
4.2418051e-06
-1.4809987e-05
6.3463886e-06
1.8149913e-05
-6.0279142e-05
2.1261465e-05
4.2222612e-05
-0.00013205193
4.8505927e-05
7.4078194e-05
-0.00021586344
8.7906011e-05
0.00010299346
-0.0002751668
0.00013002219
0.00011619991
-0.00027156813
0.00015325698
0.00010850474
-0.00020080415
0.00015728287
8.9981039e-05
-0.00010908664
7.3026577e-05
-3.9147765e-05
0.00014820194
1.0490646e-06
4.4784755e-06
-1.65769e-05
8.0730092e-06
1.9077652e-05
-6.686856e-05
2.6799061e-05
4.4140814e-05
-0.0001447048
6.0543662e-05
7.6843421e-05
-0.00023219066
0.00010898651
0.00010627693
-0.0002878052
0.00015482519
0.00012025735
-0.00027366744
0.00017622119
0.00011232384
-0.00018658608
0.00017469877
9.5202163e-05
-8.683835e-05
8.0892143e-05
-1.5670067e-05
0.00015952795
1.2974467e-06
4.4698468e-06
-1.8071042e-05
9.8038793e-06
1.9021322e-05
-7.2325553e-05
3.2305951e-05
4.3909991e-05
-0.00015478661
7.2638282e-05
7.6129779e-05
-0.00024409495
0.00012870639
0.00010512793
-0.00029446011
0.00017622077
0.00011918834
-0.00026610985
0.000195655
0.00011233141
-0.0001677926
0.00018878111
9.6963981e-05
-6.2418991e-05
8.4732089e-05
8.1152111e-06
0.00016847711
1.4647146e-06
4.2656482e-06
-1.9305441e-05
1.1152562e-05
1.8130868e-05
-7.6710439e-05
3.683601e-05
4.176767e-05
-0.00016247441
8.3114912e-05
7.2207131e-05
-0.00025200329
0.00014536601
9.9928015e-05
-0.00029597529
0.00019396579
0.00011344764
-0.0002540954
0.00021135723
0.00010806781
-0.0001459684
0.00019984189
9.467301e-05
-3.7105621e-05
8.4160324e-05
3.1226474e-05
0.00017532664
1.6078682e-06
3.8741357e-06
-2.0264684e-05
1.2304188e-05
1.6458162e-05
-7.9992821e-05
4.066559e-05
3.7896243e-05
-0.00016782209
9.2354292e-05
6.5556482e-05
-0.00025626285
0.00015930224
9.1246404e-05
-0.00029345224
0.00020853612
0.00010343721
-0.00023938929
0.00022368289
9.9403093e-05
-0.00012274296
0.00020812363
8.8055591e-05
-1.216356e-05
7.9129847e-05
5.2879391e-05
0.00018013756
1.7249686e-06
3.3066421e-06
-2.0982969e-05
1.3258869e-05
1.4055982e-05
-8.2361027e-05
4.3886542e-05
3.2390499e-05
-0.00017135208
9.9988587e-05
5.6067148e-05
-0.00025801825
0.00016958283
7.799272e-05
-0.00028910081
0.00021947747
8.8901026e-05
-0.00022378865
0.00023254039
8.6255354e-05
-0.00010018361
0.00021361116
7.7068572e-05
1.0975735e-05
6.9748526e-05
7.2309779e-05
0.00018289191
1.7987933e-06
2.5995901e-06
-2.1501536e-05
1.3941761e-05
1.1062476e-05
-8.4008941e-05
4.628613e-05
2.5514104e-05
-0.00017353723
0.00010517219
4.425221e-05
-0.0002582633
0.00017725064
6.187991e-05
-0.00028481983
0.00022711975
7.0588276e-05
-0.00020911521
0.00023830242
6.894413e-05
-8.0043639e-05
0.00021664607
6.2036358e-05
3.1056831e-05
5.6419093e-05
8.8812238e-05
0.00018381513
1.8351708e-06
1.7950657e-06
-2.1854054e-05
1.4376293e-05
7.6389214e-06
-8.5088025e-05
4.7938331e-05
1.761025e-05
-0.00017480833
0.00010881198
3.0576791e-05
-0.00025771734
0.00018212609
4.2861164e-05
-0.00027925918
0.00023187766
4.9027108e-05
-0.0001967677
0.00024146549
4.8136364e-05
-6.3682927e-05
0.00021775464
4.3553417e-05
4.7055662e-05
3.9744784e-05
0.00010176214
0.00018343402
1.8728365e-06
9.1865633e-07
-2.2069429e-05
1.4708362e-05
3.9052185e-06
-8.5691131e-05
4.9090481e-05
8.9997998e-06
-0.00017533547
0.00011117572
1.5633353e-05
-0.0002567355
0.00018509502
2.1945655e-05
-0.00027469746
0.00023452881
2.5156778e-05
-0.00018763091
0.00024287613
2.4791019e-05
-5.2060973e-05
0.00021775611
2.2516524e-05
5.818092e-05
2.0592881e-05
0.00011063623
0.00018249512
1.8860048e-06
3.6637372e-11
-2.2163794e-05
1.484844e-05
9.5206569e-11
-8.5965339e-05
4.9615169e-05
1.4095205e-10
-0.00017557816
0.00011226973
1.2487374e-10
-0.00025623815
0.00018647227
-9.3889615e-11
-0.00027241954
0.00023569983
-4.2673358e-10
-0.00018302471
0.00024337662
-6.442829e-10
-4.6159064e-05
0.00021752453
-4.7456398e-10
6.3854385e-05
6.9065596e-11
0.00011516882
0.00018180118
1.8858966e-06
-9.1860141e-07
-2.2163792e-05
1.4848319e-05
-3.9050599e-06
-8.596533e-05
4.9615174e-05
-8.9995108e-06
-0.00017557814
0.00011226973
-1.5633064e-05
-0.00025623814
0.00018647232
-2.1945814e-05
-0.00027241953
0.00023569986
-2.5157652e-05
-0.00018302472
0.00024337665
-2.4792367e-05
-4.6159093e-05
0.00021752454
-2.2517535e-05
6.3854354e-05
-2.0592745e-05
0.0001151688
0.00018180105
1.8726811e-06
-1.7950335e-06
-2.206943e-05
1.470825e-05
-7.6387915e-06
-8.5691136e-05
4.9090553e-05
-1.7609928e-05
-0.00017533548
0.00011117572
-3.0576468e-05
-0.00025673553
0.00018509517
-4.2861341e-05
-0.00027469751
0.00023452892
-4.9028098e-05
-0.00018763098
0.00024287628
-4.8137909e-05
-5.2061051e-05
0.00021775622
-4.355458e-05
5.8180849e-05
-3.9744579e-05
0.00011063618
0.0001824948
1.8352525e-06
-2.5995351e-06
-2.1854051e-05
1.4376523e-05
-1.1062298e-05
-8.5088012e-05
4.7938416e-05
-2.5513776e-05
-0.00017480831
0.00010881183
-4.4252028e-05
-0.00025771733
0.00018212615
-6.1880288e-05
-0.00027925918
0.00023187775
-7.0589519e-05
-0.00019676775
0.00024146574
-6.8945977e-05
-6.3683019e-05
0.0002177549
-6.2037668e-05
4.7055563e-05
-5.6418653e-05
0.00010176207
0.00018343365
1.7990376e-06
-3.3065677e-06
-2.1501534e-05
1.3942132e-05
-1.4055791e-05
-8.4008934e-05
4.6286121e-05
-3.2390248e-05
-0.00017353722
0.00010517202
-5.606715e-05
-0.00025826329
0.00017725066
-7.7993275e-05
-0.00028481983
0.00022711986
-8.8902481e-05
-0.00020911527
0.00023830286
-8.6257402e-05
-8.0043733e-05
0.00021664661
-7.7069865e-05
3.1056724e-05
-6.9747766e-05
8.8812146e-05
0.00018381495
1.7250872e-06
-3.8740572e-06
-2.0982968e-05
1.3259056e-05
-1.6457914e-05
-8.2361024e-05
4.388651e-05
-3.7895868e-05
-0.00017135208
9.9988649e-05
-6.555637e-05
-0.00025801825
0.00016958288
-9.1246917e-05
-0.00028910082
0.00021947765
-0.00010343868
-0.00022378872
0.00023254106
-9.9405051e-05
-0.00010018371
0.00021361193
-8.8056739e-05
1.0975629e-05
-7.9129079e-05
7.2309685e-05
0.00018289212
1.6079041e-06
-4.2655702e-06
-2.0264685e-05
1.2304177e-05
-1.813062e-05
-7.9992826e-05
4.0665298e-05
-4.1767383e-05
-0.00016782211
9.2354348e-05
-7.2207206e-05
-0.00025626287
0.0001593023
-9.9928707e-05
-0.00029345228
0.00020853644
-0.00011344907
-0.00023938938
0.0002236837
-0.00010806945
-0.00012274308
0.00020812436
-9.4674076e-05
-1.2163657e-05
-8.4159877e-05
5.2879314e-05
0.00018013806
1.4645919e-06
-4.4698417e-06
-1.9305444e-05
1.1152107e-05
-1.9021304e-05
-7.6710455e-05
3.6835477e-05
-4.3909947e-05
-0.00016247445
8.3115265e-05
-7.6129858e-05
-0.00025200336
0.00014536634
-0.00010512874
-0.00029597538
0.00019396634
-0.00011918993
-0.00025409551
0.00021135798
-0.00011233317
-0.00014596851
0.00019984231
-9.6965263e-05
-3.7105701e-05
-8.4731631e-05
3.1226422e-05
0.00017532707
1.2973904e-06
-4.4783878e-06
-1.8071041e-05
9.8038787e-06
-1.9077364e-05
-7.2325549e-05
3.2306285e-05
-4.4140269e-05
-0.0001547866
7.2638972e-05
-7.6843069e-05
-0.00024409496
0.000128707
-0.00010627772
-0.00029446013
0.00017622145
-0.00012025903
-0.0002661099
0.00019565547
-0.00011232594
-0.00016779268
0.00018878125
-9.5203625e-05
-6.2419042e-05
-8.0891481e-05
8.1151781e-06
0.00016847737
1.0490228e-06
-4.2418147e-06
-1.6576895e-05
8.0728449e-06
-1.8149957e-05
-6.6868543e-05
2.6798746e-05
-4.2222718e-05
-0.00014470477
6.0543432e-05
-7.4078527e-05
-0.00023219062
0.00010898716
-0.00010299428
-0.00028780516
0.00015482561
-0.00011620155
-0.00027366744
0.00017622144
-0.00010850644
-0.00018658611
0.0001746991
-8.9982036e-05
-8.6838372e-05
-7.3026458e-05
-1.5670081e-05
0.00015952866
8.077578e-07
-3.8050235e-06
-1.480998e-05
6.3464812e-06
-1.6387482e-05
-6.0279117e-05
2.1261637e-05
-3.8436036e-05
-0.00013205188
4.8506082e-05
-6.8272248e-05
-0.00021586338
8.7906415e-05
-9.6191605e-05
-0.00027516675
0.00013002238
-0.00010850499
-0.00027156809
0.00015325682
-0.00010130257
-0.00020080415
0.00015728287
-8.1523827e-05
-0.00010908664
-6.1785792e-05
-3.914775e-05
0.00014820252
5.8530708e-07
-3.209816e-06
-1.2837177e-05
4.7174554e-06
-1.3948134e-05
-5.2766042e-05
1.6001938e-05
-3.3096434e-05
-0.00011713065
3.6945533e-05
-5.9724906e-05
-0.00019530713
6.7447954e-05
-8.5600452e-05
-0.0002562448
0.00010320614
-9.7192097e-05
-0.00026344101
0.00012709315
-8.9954525e-05
-0.00020903043
0.00013562272
-6.9043837e-05
-0.00012758173
-4.7790194e-05
-6.0712779e-05
0.00013307833
4.3457014e-07
-1.0789821e-05
-2.5512921e-06
3.483791e-06
-4.4870589e-05
-1.1196453e-05
1.1692865e-05
-0.0001010899
-2.6756255e-05
2.6670932e-05
-0.00017212351
-4.8686692e-05
4.8520161e-05
-0.00023263288
-7.0448415e-05
7.557206e-05
-0.00024927409
-8.0069593e-05
9.7594029e-05
-0.00021137535
-7.1475455e-05
0.00010776226
-0.00014082186
-5.0501886e-05
-7.8481132e-05
-2.9567403e-05
0.00010915202
1.9228664e-07
7.9926228e-07
-1.0850626e-05
-9.3074649e-07
8.7916653e-07
3.0996088e-06
-4.4909238e-05
-3.747856e-06
3.0289276e-06
6.218352e-06
-0.00010141298
-8.0450489e-06
9.1447318e-06
7.8534694e-06
-0.00017396221
-1.2130596e-05
2.2558577e-05
1.9537614e-06
-0.00023708852
-1.0911956e-05
4.5057289e-05
-1.966921e-05
-0.00025541727
3.3138107e-06
7.293601e-05
-5.8974033e-05
-0.00021474423
3.4464442e-05
0.00010137642
-0.00010066789
-0.00014082143
7.2227116e-05
-0.00012513609
-7.3806745e-05
0.00010045327
0.00012138435
2.7476391e-07
6.8651701e-07
-1.2999199e-05
1.3636546e-06
2.4629178e-06
-5.3218247e-05
4.8015195e-06
4.2876382e-06
-0.00011863773
1.4034685e-05
3.218436e-06
-0.00019990496
3.2677809e-05
-7.2566265e-06
-0.0002656769
6.0870796e-05
-3.5179393e-05
-0.00027612324
9.307571e-05
-7.9987374e-05
-0.00022022173
0.00012059686
-0.0001233929
-0.00013237748
-0.00014472509
-5.7886614e-05
0.00013735979
3.9522337e-07
5.7583128e-07
-1.5094549e-05
1.9751166e-06
1.8563199e-06
-6.1252554e-05
6.7630705e-06
2.4931416e-06
-0.00013504554
1.9008748e-05
-9.6957409e-07
-0.00022392112
4.254e-05
-1.5309164e-05
-0.00029064542
7.5198024e-05
-4.7771474e-05
-0.00029163396
0.00010999416
-9.5397538e-05
-0.00022019016
0.00013486342
-0.00013795802
-0.00011939077
-0.00015542241
-3.8884313e-05
0.00014529727
5.3572526e-07
4.5856831e-07
-1.6995336e-05
2.6859589e-06
1.2699339e-06
-6.8432312e-05
8.9801653e-06
8.8144107e-07
-0.00014938697
2.4374958e-05
-4.4516708e-06
-0.00024410271
5.2775437e-05
-2.158658e-05
-0.00030992788
8.8959026e-05
-5.7101876e-05
-0.00030052034
0.00012544993
-0.00010416533
-0.00021430901
0.00014688928
-0.00014366512
-0.0001025704
-0.00015734806
-1.7931539e-05
0.00015107664
6.5518771e-07
3.5565996e-07
-1.8623359e-05
3.3045389e-06
7.9201849e-07
-7.4496934e-05
1.0955286e-05
-3.3421035e-07
-0.00016122131
2.9212131e-05
-6.8224553e-06
-0.00025998042
6.1720793e-05
-2.5218962e-05
-0.00032333613
0.00010245648
-6.0827462e-05
-0.00030311937
0.00013973022
-0.00010577732
-0.00020345403
0.00015781383
-0.00014109624
-8.3071423e-05
-0.00015165547
3.657907e-06
0.00015657857
7.6462906e-07
2.7086403e-07
-1.9985331e-05
3.8830359e-06
4.3636206e-07
-7.9473239e-05
1.2828507e-05
-1.1260723e-06
-0.00017062777
3.3822063e-05
-8.0412232e-06
-0.00027177773
7.0290591e-05
-2.6278129e-05
-0.00033138439
0.00011534632
-6.0126953e-05
-0.00029985119
0.00015337577
-0.00010106776
-0.00018870735
0.00016854444
-0.00013146264
-6.1908021e-05
-0.00013954101
2.5020175e-05
0.00016263624
8.6322661e-07
2.0136478e-07
-2.1058369e-05
4.4107263e-06
1.9101277e-07
-8.3294748e-05
1.4532521e-05
-1.5266046e-06
-0.00017754282
3.801253e-05
-8.1881568e-06
-0.0002795957
7.7790892e-05
-2.4935666e-05
-0.00033457294
0.000126893
-5.5182334e-05
-0.00029343603
0.00016548783
-9.1043831e-05
-0.00017136168
0.00017839479
-0.00011631608
-4.021705e-05
-0.00012243787
4.5377409e-05
0.00016879377
9.4811598e-07
1.4264036e-07
-2.187244e-05
4.8729006e-06
3.0553459e-08
-8.6125362e-05
1.604953e-05
-1.6236762e-06
-0.00018243135
4.178262e-05
-7.5208328e-06
-0.00028441864
8.4083373e-05
-2.1807646e-05
-0.00033452928
0.00013656696
-4.7322055e-05
-0.00028413264
0.00017578789
-7.7010456e-05
-0.00015343778
0.0001870576
-9.7128857e-05
-1.9480911e-05
-0.00010164217
6.3904494e-05
0.00017466754
1.0175779e-06
9.0405998e-08
-2.2466902e-05
5.2539197e-06
-6.8923151e-08
-8.8145742e-05
1.7342118e-05
-1.4954771e-06
-0.00018575343
4.5040124e-05
-6.3274274e-06
-0.00028715482
8.8958743e-05
-1.7832135e-05
-0.00033271357
0.00014429081
-3.7415768e-05
-0.00027435357
0.0001840832
-6.0073656e-05
-0.00013677259
0.00019419308
-7.5088011e-05
-1.0934746e-06
-7.8259113e-05
7.9813874e-05
0.00017980887
1.0609351e-06
5.0967872e-08
-2.2875509e-05
5.5043066e-06
-9.6075902e-08
-8.9504115e-05
1.8217888e-05
-1.1464935e-06
-0.00018787073
4.7243687e-05
-4.5722264e-06
-0.00028849846
9.2937176e-05
-1.255175e-05
-0.00033023273
0.00015020028
-2.5858291e-05
-0.00026558812
0.00019041892
-4.1115529e-05
-0.00012285937
0.00019968925
-5.108065e-05
1.3778453e-05
-5.3096054e-05
9.2397849e-05
0.00018389098
1.0912603e-06
2.0592039e-08
-2.3130308e-05
5.6785131e-06
-7.0800896e-08
-9.0303608e-05
1.8813493e-05
-6.3286429e-07
-0.00018898395
4.8726647e-05
-2.4125708e-06
-0.00028880828
9.5703139e-05
-6.4921204e-06
-0.0003277333
0.00015420569
-1.3216848e-05
-0.0002587746
0.00019466864
-2.0878851e-05
-0.00011276019
0.00020337745
-2.5840021e-05
2.4231955e-05
-2.6818095e-05
0.00010106034
0.00018667578
1.0988888e-06
3.1859663e-11
-2.3242155e-05
5.7311981e-06
9.3074934e-11
-9.0668543e-05
1.9031314e-05
1.6186644e-10
-0.00018951116
4.9347105e-05
1.3145124e-10
-0.00028896642
9.6944485e-05
-7.86216e-11
-0.00032650864
0.00015606719
-4.3155741e-10
-0.0002553634
0.00019668613
-5.4635472e-10
-0.00010765587
0.00020516541
-1.3001554e-10
2.9535631e-05
6.9975951e-10
0.0001054579
0.00018805781
1.0989057e-06
-2.0521727e-08
-2.3242151e-05
5.7312322e-06
7.100869e-08
-9.0668532e-05
1.9031333e-05
6.3322743e-07
-0.00018951114
4.9347166e-05
2.4128869e-06
-0.00028896639
9.6944503e-05
6.4920081e-06
-0.00032650862
0.00015606722
1.3215982e-05
-0.0002553634
0.00019668619
2.0877705e-05
-0.0001076559
0.00020516544
2.5839707e-05
2.9535593e-05
2.6819523e-05
0.00010545787
0.00018805774
1.0912749e-06
-5.0885831e-08
-2.3130308e-05
5.6785289e-06
9.6322109e-08
-9.0303609e-05
1.881347e-05
1.1469232e-06
-0.00018898396
4.8726795e-05
4.5726289e-06
-0.0002888083
9.57032e-05
1.2551687e-05
-0.00032773333
0.00015420584
2.5857371e-05
-0.00025877466
0.00019466887
4.1114239e-05
-0.00011276029
0.00020337762
5.1080219e-05
2.4231851e-05
5.3097587e-05
0.00010106026
0.00018667571
1.06093e-06
-9.0319826e-08
-2.2875504e-05
5.5042497e-06
6.9179009e-08
-8.9504098e-05
1.8217745e-05
1.4959255e-06
-0.0001878707
4.724378e-05
6.3278596e-06
-0.00028849843
9.2937121e-05
1.7832012e-05
-0.00033023272
0.00015020045
3.7414671e-05
-0.00026558816
0.00019041926
6.0072121e-05
-0.00012285948
0.00019968959
7.5087406e-05
1.3778304e-05
7.8260744e-05
9.239772e-05
0.00018389114
1.0176249e-06
-1.4255684e-07
-2.2466899e-05
5.2539571e-06
-3.0319428e-08
-8.8145733e-05
1.7341984e-05
1.6241075e-06
-0.00018575341
4.5040129e-05
7.5212501e-06
-0.00028715481
8.895856e-05
2.1807359e-05
-0.00033271358
0.000144291
4.7320723e-05
-0.00027435363
0.00018408367
7.7008679e-05
-0.00013677272
0.00019419366
9.7128101e-05
-1.0936438e-06
0.0001016438
7.9813718e-05
0.00017980941
9.4818613e-07
-2.0127257e-07
-2.187244e-05
4.8729628e-06
-1.907704e-07
-8.6125363e-05
1.6049294e-05
1.5270286e-06
-0.00018243136
4.1782432e-05
8.1885106e-06
-0.00028441866
8.4083162e-05
2.493521e-05
-0.00033452932
0.00013656721
5.518088e-05
-0.00028413272
0.00017578846
9.1041948e-05
-0.00015343791
0.00018705836
0.00011631524
-1.9481081e-05
0.0001224393
6.3904332e-05
0.00017466836
8.6320451e-07
-2.7080427e-07
-2.1058371e-05
4.4105663e-06
-4.3621138e-07
-8.3294758e-05
1.4532056e-05
1.1263108e-06
-0.00017754284
3.8012205e-05
8.0413825e-06
-0.00027959574
7.7790847e-05
2.6277629e-05
-0.00033457301
0.00012689331
6.0125614e-05
-0.00029343614
0.00016548842
0.000101066
-0.00017136183
0.00017839556
0.00013146184
-4.0217209e-05
0.00013954217
4.5377262e-05
0.00016879458
7.6468427e-07
-3.5559676e-07
-1.9985337e-05
3.8831537e-06
-7.9183908e-07
-7.9473262e-05
1.2828495e-05
3.3448627e-07
-0.00017062782
3.3822013e-05
6.8226343e-06
-0.00027177782
7.0290793e-05
2.5218461e-05
-0.00033138451
0.00011534661
6.0826068e-05
-0.00029985133
0.00015337626
0.00010577563
-0.00018870751
0.00016854498
0.00014109548
-6.1908161e-05
0.0001516566
2.502006e-05
0.00016263677
6.5525469e-07
-4.585051e-07
-1.8623359e-05
3.3046854e-06
-1.2697794e-06
-7.4496935e-05
1.0955346e-05
-8.8122621e-07
-0.00016122131
2.9212113e-05
4.4517021e-06
-0.00025998044
6.1721111e-05
2.1585854e-05
-0.00032333619
0.00010245675
5.7100105e-05
-0.00030311947
0.00013973046
0.00010416325
-0.00020345416
0.00015781401
0.0001436641
-8.3071525e-05
0.00015734936
3.657832e-06
0.00015657888
5.357624e-07
-5.7579458e-07
-1.6995333e-05
2.6861052e-06
-1.8562486e-06
-6.84323e-05
8.9803857e-06
-2.4930876e-06
-0.00014938695
2.4375129e-05
9.6935578e-07
-0.00024410269
5.2775723e-05
1.530824e-05
-0.00030992789
8.8959208e-05
4.7769631e-05
-0.0003005204
0.00012544996
9.5395362e-05
-0.00021430909
0.00014688922
0.00013795703
-0.00010257047
0.00015542384
-1.7931571e-05
0.00015107679
3.9527167e-07
-6.864852e-07
-1.5094544e-05
1.9753234e-06
-2.4628538e-06
-6.1252535e-05
6.763483e-06
-4.2876052e-06
-0.0001350455
1.9009175e-05
-3.2186687e-06
-0.00022392107
4.2540224e-05
7.2557064e-06
-0.0002906454
7.5197934e-05
3.5177655e-05
-0.00029163398
0.00010999399
7.9985366e-05
-0.00022019022
0.00013486315
0.00012339213
-0.0001193908
0.00014472586
-3.8884309e-05
0.00014529724
2.7479301e-07
-7.9925258e-07
-1.2999197e-05
1.3638053e-06
-3.0996161e-06
-5.321824e-05
4.8018558e-06
-6.2184558e-06
-0.00011863772
1.4035099e-05
-7.8539005e-06
-0.00019990495
3.2677909e-05
-1.9548334e-06
-0.00026567691
6.087048e-05
1.9667445e-05
-0.00027612328
9.3075395e-05
5.8972108e-05
-0.00022022179
0.00012059577
0.00010066699
-0.00013237751
0.00012513639
-5.7886591e-05
0.00013735959
1.9230763e-07
-1.0850625e-05
-9.3076991e-07
8.7927967e-07
-4.4909235e-05
-3.747965e-06
3.0292212e-06
-0.00010141298
-8.0453422e-06
9.1452641e-06
-0.00017396221
-1.2131302e-05
2.2559122e-05
-0.00023708854
-1.0913336e-05
4.5057691e-05
-0.0002554173
3.3115315e-06
7.293654e-05
-0.00021474426
3.4462491e-05
0.0001013753
-0.00014082144
7.2227053e-05
-7.3806722e-05
0.00010045407
0.00012138355
-1.8615715e-09
6.0530551e-07
-1.0908161e-05
-5.4590812e-07
9.6613299e-08
2.3568676e-06
-4.5201233e-05
-2.1633385e-06
4.2357196e-07
4.6443481e-06
-0.00010194387
-4.4404001e-06
1.323646e-06
5.3380245e-06
-0.00017433512
-5.8651757e-06
4.183997e-06
-8.0657575e-07
-0.00023671515
-2.4271453e-06
1.2146527e-05
-2.0931112e-05
-0.00025398556
1.153699e-05
2.8267417e-05
-5.729776e-05
-0.00021262018
3.9053035e-05
5.1402721e-05
-9.8992387e-05
-0.0001384281
7.3463612e-05
-0.00012721872
-7.1846601e-05
0.00010114635
7.5514872e-05
2.2928064e-08
6.6572731e-07
-1.3082547e-05
3.1419579e-07
2.4947317e-06
-5.3647386e-05
1.2190251e-06
4.5920312e-06
-0.00011949026
3.340542e-06
4.1474284e-06
-0.00020083587