/*--------------------------------*- C++ -*----------------------------------*\
| =========                 |                                                 |
| \\      /  F ield         | OpenFOAM: The Open Source CFD Toolbox           |
|  \\    /   O peration     | Version:  2406                                  |
|   \\  /    A nd           | Website:  www.openfoam.com                      |
|    \\/     M anipulation  |                                                 |
\*---------------------------------------------------------------------------*/
FoamFile
{
    version     2.0;
    format      ascii;
    arch        "LSB;label=32;scalar=64";
    class       volVectorField;
    location    "19.5";
    object      U;
}
// * * * * * * * * * * * * * * * * * * * * * * * * * * * * * * * * * * * * * //

dimensions      [0 1 -1 0 0 0 0];

internalField   nonuniform List<vector> 
34560
(
(-0.033710454 0.0086132417 0.0091921488)
(-0.096809921 0.027089549 0.026813188)
(-0.15537197 0.050441438 0.042259203)
(-0.19423366 0.079163505 0.050243098)
(-0.19804669 0.11111977 0.047762344)
(-0.16105855 0.14327852 0.034876358)
(-0.095072847 0.17138906 0.016475985)
(-0.021848784 0.19298616 -8.7733733e-05)
(0.041112421 0.20742644 -0.0080585506)
(-0.036184788 0.0096210024 0.0092855785)
(-0.10114591 0.029602845 0.026525109)
(-0.1569373 0.054077481 0.040243608)
(-0.18692329 0.083340702 0.044745514)
(-0.17693222 0.11498134 0.037952627)
(-0.12565464 0.14578323 0.021586711)
(-0.050899921 0.17159429 0.0020741693)
(0.025334308 0.19083806 -0.012823004)
(0.087200694 0.20330893 -0.017445185)
(-0.038510798 0.010213389 0.0088412251)
(-0.10508914 0.031027789 0.024792252)
(-0.15800755 0.055991035 0.036108746)
(-0.1794832 0.085121382 0.037032892)
(-0.15693486 0.11573196 0.026561509)
(-0.094081347 0.14443605 0.0076844387)
(-0.012703475 0.1677449 -0.012047346)
(0.064454995 0.18426867 -0.025261136)
(0.12403031 0.19406165 -0.027710526)
(-0.040389445 0.010593961 0.0082742047)
(-0.10777719 0.031792603 0.02270585)
(-0.15725522 0.056659741 0.031440395)
(-0.17037918 0.084961494 0.028796109)
(-0.13651283 0.11382269 0.014991536)
(-0.064501469 0.13992632 -0.0058305189)
(0.021372062 0.16052525 -0.025341752)
(0.098017145 0.17427522 -0.036700979)
(0.1546878 0.18156806 -0.036882787)
(-0.041846312 0.010538095 0.0075210886)
(-0.1093784 0.03138578 0.020170564)
(-0.15506846 0.055452494 0.026279628)
(-0.16017536 0.082312032 0.020328428)
(-0.11620467 0.10900923 0.0036272607)
(-0.036863094 0.13234224 -0.018600068)
(0.051991101 0.15011187 -0.037529206)
(0.12724248 0.16122476 -0.046945703)
(0.18060362 0.16636802 -0.045077135)
(-0.042955393 0.010158792 0.0066219715)
(-0.11014552 0.030076914 0.017269478)
(-0.15193514 0.052699324 0.020754999)
(-0.14959382 0.077452189 0.011795694)
(-0.097077247 0.10141741 -0.0073264858)
(-0.01145561 0.12180909 -0.030437237)
(0.07939661 0.13675504 -0.048461569)
(0.15278805 0.14549502 -0.055905669)
(0.2026725 0.14890795 -0.052202129)
(-0.04369779 0.0093984252 0.0057000821)
(-0.11011431 0.027683882 0.014343995)
(-0.1480469 0.048169289 0.015325861)
(-0.13898509 0.070187079 0.0036682025)
(-0.079267697 0.090999102 -0.017458124)
(0.011440004 0.10837905 -0.041095081)
(0.1035484 0.12064738 -0.058030611)
(0.17490669 0.12733389 -0.06355628)
(0.22139066 0.12943035 -0.058256214)
(-0.044195939 0.008237731 0.0047986219)
(-0.10968827 0.024184451 0.011546113)
(-0.14409437 0.041868803 0.01029899)
(-0.12919126 0.060619063 -0.0036455144)
(-0.063552789 0.078034888 -0.026411588)
(0.031220054 0.09236687 -0.050382092)
(0.12413276 0.10211161 -0.066149832)
(0.19356311 0.1070662 -0.069886331)
(0.2369562 0.10823157 -0.063232273)
(-0.044534411 0.0067434265 0.003990048)
(-0.10914747 0.019757564 0.0090704333)
(-0.14057184 0.034091166 0.0059434683)
(-0.1208685 0.049156247 -0.0098642815)
(-0.050519994 0.062978343 -0.033890156)
(0.047427137 0.07416455 -0.058012529)
(0.14087796 0.081534765 -0.0727024)
(0.20865315 0.085054616 -0.074889301)
(0.24942735 0.085617202 -0.067134138)
(-0.044749607 0.005011234 0.003328614)
(-0.10861419 0.014657647 0.0070605341)
(-0.13770368 0.025219102 0.0024619154)
(-0.11432624 0.036239505 -0.014760454)
(-0.040455182 0.046249892 -0.039685066)
(0.059821657 0.054239309 -0.06382771)
(0.15360981 0.05937918 -0.077621508)
(0.22007522 0.061705194 -0.07857045)
(0.25879961 0.061918942 -0.069974738)
(-0.044823128 0.0031009243 0.0028657327)
(-0.1080538 0.009051037 0.005658255)
(-0.13547931 0.015526972 4.1365315e-05)
(-0.10962209 0.022236853 -0.018140886)
(-0.0334572 0.028281591 -0.043633646)
(0.068279544 0.033058947 -0.06772711)
(0.16220322 0.036082154 -0.080867065)
(0.22772882 0.03739552 -0.080947897)
(0.26503136 0.037445437 -0.071779127)
(-0.044890543 0.0010244204 0.0026336469)
(-0.1078695 0.0029972614 0.0049583103)
(-0.1345239 0.0051609644 -0.0011551036)
(-0.10748222 0.0074233862 -0.019806175)
(-0.030103283 0.0094646648 -0.045577616)
(0.072415003 0.011073265 -0.069645853)
(0.16644542 0.012084068 -0.082459211)
(0.23152188 0.01251675 -0.082101132)
(0.26811577 0.012526777 -0.072643396)
(-0.044890545 -0.001024384 0.0026336469)
(-0.1078695 -0.0029972083 0.0049583878)
(-0.13452389 -0.005160927 -0.0011550704)
(-0.10748223 -0.0074233624 -0.01980615)
(-0.030103286 -0.0094648349 -0.045577593)
(0.072415002 -0.011073546 -0.06964585)
(0.16644541 -0.012084463 -0.082459191)
(0.23152187 -0.012517176 -0.082101123)
(0.26811578 -0.012527089 -0.072643396)
(-0.04482313 -0.0031009242 0.0028657364)
(-0.10805381 -0.0090510152 0.0056583407)
(-0.1354793 -0.015526925 4.1353463e-05)
(-0.10962211 -0.02223683 -0.018140842)
(-0.033457205 -0.028281755 -0.043633589)
(0.068279544 -0.033059201 -0.067727113)
(0.16220321 -0.036082501 -0.080867015)
(0.22772881 -0.037395892 -0.080947869)
(0.26503137 -0.037445703 -0.071779122)
(-0.044749611 -0.0050112354 0.003328622)
(-0.10861421 -0.014657642 0.0070604459)
(-0.1377037 -0.025219092 0.0024617944)
(-0.11432629 -0.036239553 -0.014760385)
(-0.040455184 -0.046250052 -0.039685012)
(0.059821659 -0.054239524 -0.06382775)
(0.15360981 -0.059379466 -0.077621447)
(0.22007523 -0.061705486 -0.07857041)
(0.25879962 -0.061919137 -0.069974724)
(-0.044534412 -0.0067434074 0.0039900417)
(-0.10914747 -0.019757583 0.0090703079)
(-0.14057185 -0.034091255 0.0059434314)
(-0.12086851 -0.049156395 -0.0098642058)
(-0.050519979 -0.06297846 -0.033890207)
(0.047427134 -0.074164734 -0.058012619)
(0.14087797 -0.081535008 -0.072702334)
(0.20865316 -0.085054831 -0.074889247)
(0.24942736 -0.085617334 -0.067134095)
(-0.044195934 -0.0082377233 0.0047986079)
(-0.10968826 -0.024184486 0.011546098)
(-0.14409435 -0.041868908 0.010298921)
(-0.12919125 -0.060619201 -0.0036457181)
(-0.063552792 -0.078034945 -0.026411822)
(0.031220018 -0.092367092 -0.050382149)
(0.12413274 -0.10211185 -0.066149742)
(0.1935631 -0.10706636 -0.06988624)
(0.2369562 -0.10823168 -0.063232169)
(-0.043697786 -0.0093984047 0.005700087)
(-0.11011431 -0.027683881 0.014343916)
(-0.14804693 -0.048169342 0.015325645)
(-0.13898512 -0.070187254 0.0036679466)
(-0.079267748 -0.090999278 -0.017458188)
(0.01143994 -0.10837942 -0.041094934)
(0.10354834 -0.12064769 -0.058030502)
(0.17490666 -0.12733408 -0.063556103)
(0.22139067 -0.12943044 -0.058255996)
(-0.042955391 -0.010158794 0.0066219652)
(-0.11014553 -0.030076858 0.017269628)
(-0.15193515 -0.052699314 0.020755259)
(-0.14959383 -0.077452391 0.011795812)
(-0.09707727 -0.10141779 -0.0073264014)
(-0.011455648 -0.12180963 -0.03043707)
(0.079396551 -0.13675558 -0.048461481)
(0.15278802 -0.14549539 -0.055905358)
(0.20267253 -0.14890796 -0.052201771)
(-0.041846306 -0.010538084 0.0075210753)
(-0.10937839 -0.03138571 0.02017065)
(-0.15506845 -0.055452475 0.026279657)
(-0.16017538 -0.082312193 0.020328269)
(-0.11620467 -0.10900963 0.0036273089)
(-0.036863107 -0.13234276 -0.018599912)
(0.051991076 -0.15011262 -0.037529022)
(0.12724247 -0.1612253 -0.046945412)
(0.18060363 -0.16636784 -0.045076811)
(-0.040389446 -0.01059393 0.0082741867)
(-0.1077772 -0.031792506 0.022705861)
(-0.15725524 -0.056659573 0.031440465)
(-0.17037922 -0.084961411 0.028796284)
(-0.13651284 -0.11382299 0.014991785)
(-0.064501453 -0.13992685 -0.0058302676)
(0.021372073 -0.16052589 -0.025341487)
(0.098017152 -0.1742757 -0.036700971)
(0.1546878 -0.1815681 -0.036882657)
(-0.038510798 -0.010213386 0.0088412225)
(-0.10508914 -0.031027766 0.024792285)
(-0.15800755 -0.055990995 0.036108888)
(-0.17948321 -0.085121399 0.037033215)
(-0.15693487 -0.11573225 0.026561904)
(-0.094081303 -0.14443668 0.0076847546)
(-0.012703433 -0.16774553 -0.012047216)
(0.064455018 -0.18426916 -0.025261052)
(0.12403031 -0.19406173 -0.027710351)
(-0.036184781 -0.0096210006 0.009285576)
(-0.10114589 -0.029602826 0.026525137)
(-0.15693727 -0.054077431 0.040243736)
(-0.18692325 -0.083340649 0.044745795)
(-0.17693217 -0.11498141 0.037952965)
(-0.12565459 -0.14578361 0.02158682)
(-0.050899865 -0.17159484 0.0020742214)
(0.025334347 -0.19083881 -0.01282303)
(0.087200691 -0.20330916 -0.017445431)
(-0.033710446 -0.008613231 0.0091921413)
(-0.096809904 -0.027089539 0.026813176)
(-0.15537194 -0.050441404 0.042259278)
(-0.19423363 -0.079163505 0.050243303)
(-0.19804667 -0.11111985 0.047762617)
(-0.16105854 -0.14327875 0.034876547)
(-0.095072846 -0.17138946 0.016476333)
(-0.021848736 -0.19298656 -8.7875962e-05)
(0.041112423 -0.20742678 -0.0080588465)
(-0.070618901 0.0019178776 0.0017149394)
(-0.21275902 0.0061591935 0.0051766797)
(-0.36163843 0.011503473 0.0082663368)
(-0.48945766 0.017477705 0.0096970669)
(-0.56176391 0.023072724 0.0079880314)
(-0.55585245 0.027328918 0.0022369027)
(-0.47904022 0.030093107 -0.0061826102)
(-0.36907722 0.03116024 -0.014449446)
(-0.2694619 0.031501876 -0.021155844)
(-0.077036305 0.0023175791 0.0018342991)
(-0.22845505 0.0072996663 0.0054243659)
(-0.38081016 0.013330495 0.008297537)
(-0.50182283 0.019716667 0.0089030827)
(-0.55575827 0.02529497 0.0056542985)
(-0.52471442 0.029215596 -0.0019909706)
(-0.42553614 0.031489042 -0.011540332)
(-0.30532031 0.031799775 -0.019712048)
(-0.20426804 0.031465629 -0.025352006)
(-0.082961869 0.00259249 0.0017743371)
(-0.24282195 0.00809891 0.0051584349)
(-0.39801759 0.01462416 0.0075004923)
(-0.5121965 0.021289047 0.0071120898)
(-0.54891543 0.026905071 0.0023630653)
(-0.4955382 0.030779553 -0.0067014605)
(-0.3796421 0.032505692 -0.016801769)
(-0.25384448 0.032220813 -0.024128506)
(-0.15381927 0.031514339 -0.028121044)
(-0.087987663 0.0027757424 0.0016375891)
(-0.2545461 0.0086107322 0.0046553433)
(-0.41098399 0.015408721 0.0063028057)
(-0.51757506 0.022172355 0.0047906245)
(-0.53801436 0.027763172 -0.0014850022)
(-0.46517887 0.031546425 -0.011745046)
(-0.33704387 0.032592144 -0.021996643)
(-0.20926127 0.031708439 -0.028226403)
(-0.11200098 0.030646069 -0.030537831)
(-0.091984113 0.0028200279 0.0014278424)
(-0.26342409 0.0087227511 0.0039473285)
(-0.41963781 0.015545549 0.004784269)
(-0.51814531 0.022227522 0.0020971818)
(-0.52328542 0.027680364 -0.0056070647)
(-0.43353192 0.031219663 -0.016792898)
(-0.29683465 0.031732086 -0.026866396)
(-0.16958193 0.030438189 -0.031984707)
(-0.076403734 0.029158586 -0.032759928)
(-0.095103929 0.0027429675 0.0011584996)
(-0.26988885 0.0084745677 0.0030754986)
(-0.42468169 0.015057583 0.0030496262)
(-0.51481209 0.021444694 -0.00078019392)
(-0.50541815 0.026666843 -0.0097392471)
(-0.40156794 0.02982275 -0.021655775)
(-0.25903127 0.029998954 -0.031358871)
(-0.13388331 0.02848011 -0.035400164)
(-0.04555285 0.027087495 -0.034865815)
(-0.097418465 0.0025545533 0.00088259765)
(-0.2742242 0.007881348 0.0021902095)
(-0.42675016 0.013971447 0.001325029)
(-0.50868067 0.019861809 -0.0035750735)
(-0.4861666 0.024710405 -0.013648178)
(-0.37068714 0.027409538 -0.026121911)
(-0.22428786 0.027369417 -0.035385844)
(-0.1020277 0.025778245 -0.038416302)
(-0.01872868 0.02439067 -0.036799355)
(-0.099068855 0.0022555347 0.00061314311)
(-0.27696619 0.0069581663 0.0013317523)
(-0.42692744 0.012329713 -0.00032012193)
(-0.50140981 0.017513874 -0.0061682187)
(-0.4675953 0.021767198 -0.017130032)
(-0.34267743 0.02399372 -0.029963262)
(-0.19371047 0.023844133 -0.038802556)
(-0.074421559 0.022321396 -0.040943588)
(0.004175556 0.021045435 -0.038457347)
(-0.10021026 0.0018563966 0.00036995297)
(-0.27861885 0.0057318035 0.00056035276)
(-0.42613422 0.010156493 -0.0017614007)
(-0.4943167 0.014427313 -0.0083876455)
(-0.45125713 0.017911562 -0.020046711)
(-0.31892293 0.019678372 -0.033139484)
(-0.16823288 0.019493323 -0.041553976)
(-0.051555305 0.018175592 -0.04293828)
(0.022987756 0.017090901 -0.039759594)
(-0.10095182 0.0013822568 0.00016979953)
(-0.27952081 0.0042714811 -7.2001366e-05)
(-0.42496664 0.0075677143 -0.0029288286)
(-0.48818067 0.010762655 -0.010170204)
(-0.43807834 0.013363256 -0.022310851)
(-0.30029166 0.014633848 -0.035540811)
(-0.14851908 0.014456906 -0.043586548)
(-0.03393106 0.013444198 -0.044368207)
(0.037423884 0.012621807 -0.040671538)
(-0.10140162 0.00085906954 2.7277757e-05)
(-0.2798949 0.0026515878 -0.00052434723)
(-0.42369716 0.004688868 -0.0037690077)
(-0.48334421 0.0066597279 -0.011426056)
(-0.42844283 0.0082638001 -0.023888087)
(-0.28724871 0.0090333213 -0.037162616)
(-0.13499518 0.008908154 -0.044914899)
(-0.021931579 0.0082685017 -0.045261819)
(0.047208411 0.0077538519 -0.041218094)
(-0.10157843 0.0002871081 -4.2334893e-05)
(-0.28002342 0.00088613052 -0.00074440551)
(-0.42305444 0.0015708201 -0.0041778567)
(-0.48095043 0.0022352875 -0.012036521)
(-0.42370571 0.0027748191 -0.024662837)
(-0.28079249 0.0030311192 -0.037959909)
(-0.12825733 0.0029881269 -0.045561694)
(-0.015919563 0.0027764077 -0.045685382)
(0.052125603 0.0026096769 -0.041468277)
(-0.10157843 -0.00028706808 -4.2334029e-05)
(-0.28002342 -0.00088605086 -0.0007443885)
(-0.42305446 -0.001570724 -0.0041778491)
(-0.48095046 -0.0022352162 -0.012036523)
(-0.42370574 -0.0027748482 -0.024662841)
(-0.28079251 -0.0030312598 -0.037959914)
(-0.12825735 -0.0029883244 -0.045561698)
(-0.015919579 -0.0027765533 -0.045685386)
(0.052125597 -0.0026096609 -0.041468272)
(-0.10140162 -0.00085904271 2.7277008e-05)
(-0.27989492 -0.0026515238 -0.00052432866)
(-0.42369719 -0.004688774 -0.0037690122)
(-0.48334428 -0.0066596571 -0.011426067)
(-0.4284429 -0.0082638335 -0.023888095)
(-0.28724876 -0.0090334769 -0.037162627)
(-0.13499523 -0.0089083731 -0.044914909)
(-0.021931617 -0.0082686633 -0.045261831)
(0.047208389 -0.007753829 -0.04121809)
(-0.10095183 -0.0013822291 0.00016979194)
(-0.27952082 -0.0042714189 -7.2033965e-05)
(-0.42496668 -0.0075676242 -0.0029288752)
(-0.48818074 -0.010762599 -0.010170218)
(-0.43807839 -0.013363306 -0.022310852)
(-0.30029171 -0.014634033 -0.035540818)
(-0.14851914 -0.014457162 -0.043586562)
(-0.033931109 -0.013444382 -0.044368235)
(0.03742384 -0.012621766 -0.040671556)
(-0.10021026 -0.001856357 0.00036994149)
(-0.27861886 -0.0057317358 0.00056028724)
(-0.42613424 -0.010156416 -0.0017614545)
(-0.49431671 -0.014427284 -0.0083876582)
(-0.45125713 -0.017911635 -0.020046716)
(-0.31892299 -0.019678588 -0.033139483)
(-0.16823295 -0.019493614 -0.041553992)
(-0.051555372 -0.01817579 -0.042938334)
(0.022987686 -0.017090832 -0.039759657)
(-0.099068846 -0.0022554901 0.0006131312)
(-0.27696616 -0.0069580951 0.0013316778)
(-0.42692741 -0.01232963 -0.00032017933)
(-0.50140978 -0.017513848 -0.006168271)
(-0.4675953 -0.021767285 -0.017130063)
(-0.34267754 -0.023993959 -0.029963253)
(-0.19371058 -0.023844441 -0.038802575)
(-0.074421655 -0.022321596 -0.040943669)
(0.0041754804 -0.021045359 -0.038457457)
(-0.097418453 -0.0025545097 0.00088258236)
(-0.27422417 -0.0078812785 0.0021901254)
(-0.42675015 -0.013971362 0.0013249756)
(-0.50868066 -0.019861793 -0.0035751141)
(-0.48616664 -0.024710516 -0.013648189)
(-0.37068727 -0.027409788 -0.026121883)
(-0.22428801 -0.027369719 -0.035385865)
(-0.10202781 -0.025778441 -0.038416379)
(-0.01872873 -0.024390616 -0.036799468)
(-0.095103919 -0.0027429399 0.0011584936)
(-0.26988883 -0.0084745171 0.0030754882)
(-0.42468168 -0.015057528 0.003049657)
(-0.51481209 -0.021444718 -0.00078019488)
(-0.50541819 -0.026667017 -0.0097392531)
(-0.40156803 -0.029823033 -0.021655746)
(-0.25903141 -0.029999263 -0.031358878)
(-0.1338834 -0.028480303 -0.035400181)
(-0.045552869 -0.027087428 -0.034865867)
(-0.091984102 -0.0028200021 0.0014278333)
(-0.26342408 -0.0087227008 0.0039473127)
(-0.4196378 -0.015545504 0.0047842263)
(-0.51814534 -0.022227555 0.0020971086)
(-0.52328544 -0.027680581 -0.0056070851)
(-0.43353197 -0.031219998 -0.016792876)
(-0.29683474 -0.031732448 -0.026866359)
(-0.16958198 -0.03043839 -0.031984647)
(-0.076403739 -0.029158444 -0.032759931)
(-0.087987655 -0.0027757156 0.0016375768)
(-0.25454608 -0.0086106672 0.0046553401)
(-0.41098397 -0.015408643 0.0063028223)
(-0.51757505 -0.022172341 0.0047906823)
(-0.53801433 -0.027763349 -0.0014849409)
(-0.46517886 -0.031546767 -0.011744984)
(-0.33704388 -0.032592504 -0.021996556)
(-0.20926128 -0.031708602 -0.028226335)
(-0.11200098 -0.030645879 -0.030537883)
(-0.082961862 -0.0025924767 0.0017743293)
(-0.24282194 -0.0080988956 0.0051584218)
(-0.39801759 -0.014624168 0.0075004819)
(-0.51219651 -0.021289123 0.0071121005)
(-0.54891546 -0.02690527 0.0023631204)
(-0.49553816 -0.030779916 -0.0067013323)
(-0.37964209 -0.032506079 -0.016801623)
(-0.25384446 -0.032220929 -0.024128403)
(-0.1538192 -0.031514043 -0.028121089)
(-0.077036289 -0.0023175705 0.0018342944)
(-0.22845501 -0.0072996673 0.0054243596)
(-0.3808101 -0.013330516 0.0082975529)
(-0.50182275 -0.01971674 0.0089031515)
(-0.55575819 -0.025295136 0.0056544608)
(-0.52471432 -0.02921588 -0.0019907494)
(-0.42553607 -0.031489406 -0.011540215)
(-0.30532026 -0.031799967 -0.019712082)
(-0.20426798 -0.031465395 -0.025352129)
(-0.070618882 -0.0019178888 0.0017149495)
(-0.21275897 -0.0061592346 0.0051767149)
(-0.36163836 -0.011503555 0.0082664197)
(-0.48945757 -0.017477867 0.0096972175)
(-0.56176382 -0.023073001 0.0079882643)
(-0.55585241 -0.027329316 0.0022372245)
(-0.47904021 -0.030093498 -0.0061824226)
(-0.36907711 -0.031160335 -0.014449689)
(-0.26946185 -0.031501923 -0.021156129)
(-0.060509042 0.0005866036 0.00051570959)
(-0.18328807 0.001694328 0.0014372806)
(-0.31306069 0.0027904947 0.0020156394)
(-0.42514329 0.0035220337 0.0016416237)
(-0.48713452 0.0034399637 -0.00065496527)
(-0.47498031 0.0020113635 -0.00563944)
(-0.39327327 -0.0010308163 -0.01291563)
(-0.27765332 -0.0048819974 -0.020419331)
(-0.16964452 -0.0084755225 -0.026263859)
(-0.065931313 0.00048397873 0.00036476411)
(-0.19698497 0.0013083338 0.0009406476)
(-0.33063652 0.0019894534 0.0010171084)
(-0.43795746 0.0021618654 -9.8354722e-05)
(-0.48412684 0.0014090861 -0.0034586312)
(-0.44794958 -0.00075517642 -0.0097366636)
(-0.34307411 -0.0043290373 -0.01818376)
(-0.21312932 -0.0082500983 -0.026207643)
(-0.099829917 -0.011483133 -0.031593471)
(-0.071013566 0.00041383302 0.00025750973)
(-0.20988919 0.0010314925 0.0005800484)
(-0.34730412 0.0014000164 0.00027438358)
(-0.45040015 0.0011652014 -0.0014065396)
(-0.48236692 -7.7584391e-06 -0.0055798527)
(-0.42531519 -0.0024910741 -0.012768153)
(-0.30178373 -0.0060296563 -0.021928615)
(-0.16158255 -0.0095736479 -0.030107874)
(-0.045831587 -0.012312644 -0.034737081)
(-0.075368294 0.00033529458 0.0001638605)
(-0.22072044 0.00075250283 0.00027439069)
(-0.36076349 0.00085120091 -0.00035467989)
(-0.45925855 0.00030530118 -0.0025265375)
(-0.47801405 -0.0011553688 -0.0074118372)
(-0.40273661 -0.0038116797 -0.015359024)
(-0.26423892 -0.0070833752 -0.024974825)
(-0.11711663 -0.010180046 -0.03309154)
(-0.00079830807 -0.012571206 -0.036972258)
(-0.078824832 0.00026372362 9.3797106e-05)
(-0.22908658 0.00051290676 5.3819746e-05)
(-0.37052065 0.00040079514 -0.00080675256)
(-0.46402599 -0.00036884776 -0.0033382074)
(-0.47049934 -0.0020016914 -0.0087779534)
(-0.37949139 -0.0046278366 -0.017403325)
(-0.2288006 -0.0075168619 -0.027440456)
(-0.077397324 -0.010131379 -0.035387403)
(0.03780906 -0.012197612 -0.038552001)
(-0.081497581 0.00020544426 4.3012395e-05)
(-0.23526481 0.00033240374 -9.7744176e-05)
(-0.37694995 8.4603995e-05 -0.0011136718)
(-0.46507999 -0.00079420347 -0.003900064)
(-0.4600731 -0.0024442019 -0.0097579617)
(-0.3553519 -0.004876282 -0.018925933)
(-0.19490431 -0.0073644057 -0.029327531)
(-0.041246864 -0.0094909063 -0.03712092)
(0.071530235 -0.011273746 -0.039678987)
(-0.0834491 0.00015659269 7.2106859e-06)
(-0.23945578 0.00019771682 -0.00019815197)
(-0.38043219 -0.00012048017 -0.0013170727)
(-0.46301297 -0.0010062453 -0.0042816506)
(-0.44747033 -0.0025452452 -0.010443454)
(-0.3309963 -0.0046832266 -0.020041088)
(-0.16286697 -0.0067687086 -0.030745365)
(-0.0084240862 -0.0084482168 -0.038395938)
(0.10111771 -0.0099605064 -0.0404695)
(-0.084791486 0.00011556392 -1.7593014e-05)
(-0.24207962 0.00010332256 -0.00026178103)
(-0.38181009 -0.00022827229 -0.0014475452)
(-0.4591276 -0.0010340526 -0.0045407577)
(-0.43430858 -0.0023674305 -0.010905683)
(-0.30793275 -0.0041622572 -0.020799503)
(-0.13382516 -0.0058573649 -0.031748024)
(0.020540189 -0.0071485757 -0.039282276)
(0.12664566 -0.0083872581 -0.040995643)
(-0.08567054 7.9206378e-05 -3.466785e-05)
(-0.24359607 3.6376176e-05 -0.00030089632)
(-0.38191057 -0.00026909746 -0.0015318375)
(-0.4546045 -0.00095188 -0.0047222588)
(-0.42202326 -0.0020501723 -0.011212755)
(-0.28761177 -0.0034500489 -0.021291919)
(-0.10894411 -0.0047400987 -0.032424907)
(0.04490085 -0.0056975612 -0.039859343)
(0.14783348 -0.0066565667 -0.041307792)
(-0.086203329 4.8897721e-05 -4.4722105e-05)
(-0.24436048 -3.5135986e-06 -0.00031892879)
(-0.38134683 -0.00025323288 -0.0015636879)
(-0.4503109 -0.00078321885 -0.004801778)
(-0.41169288 -0.001611113 -0.011396547)
(-0.27117587 -0.0025858759 -0.021627933)
(-0.089226598 -0.0034784851 -0.032870108)
(0.063955996 -0.0041390594 -0.04021594)
(0.16425383 -0.0048253796 -0.041466909)
(-0.086532848 2.5095459e-05 -5.0185246e-05)
(-0.24469719 -1.6553155e-05 -0.00032627233)
(-0.38055462 -0.00018011139 -0.001575369)
(-0.44677424 -0.00051353135 -0.00483681)
(-0.40403756 -0.0010216311 -0.011496787)
(-0.2593956 -0.0015979562 -0.021838074)
(-0.075431922 -0.0021217325 -0.033139069)
(0.077092389 -0.00250974 -0.040417364)
(0.17547297 -0.0029246997 -0.041534022)
(-0.08663636 6.3731766e-06 -5.1849976e-05)
(-0.24476752 -1.2434165e-05 -0.00032575646)
(-0.38010133 -7.2146294e-05 -0.0015708359)
(-0.44502521 -0.00018841279 -0.0048369626)
(-0.40026905 -0.00036020594 -0.011524975)
(-0.25353221 -0.00055043853 -0.021922688)
(-0.068509959 -0.00072076607 -0.033255983)
(0.083712032 -0.00084576903 -0.040503757)
(0.18113786 -0.00098172327 -0.041553673)
(-0.086636361 -6.3299186e-06 -5.1851131e-05)
(-0.24476752 1.2525821e-05 -0.00032576373)
(-0.38010134 7.2264304e-05 -0.0015708434)
(-0.44502523 0.00018849206 -0.0048369732)
(-0.40026907 0.00036018791 -0.011524986)
(-0.25353224 0.00055030238 -0.021922696)
(-0.068510001 0.00072060231 -0.033255994)
(0.08371199 0.00084572609 -0.040503769)
(0.18113782 0.00098193329 -0.041553682)
(-0.08653285 -2.5048861e-05 -5.0188626e-05)
(-0.2446972 1.6651638e-05 -0.00032629096)
(-0.38055464 0.00018024067 -0.0015753844)
(-0.44677428 0.00051362375 -0.004836834)
(-0.40403762 0.0010216197 -0.011496812)
(-0.25939569 0.0015978113 -0.021838089)
(-0.075432035 0.0021215485 -0.033139097)
(0.077092272 0.0025096811 -0.0404174)
(0.17547287 0.0029249183 -0.041534059)
(-0.08620333 -4.8847153e-05 -4.4728662e-05)
(-0.24436048 3.6178122e-06 -0.00031895652)
(-0.38134685 0.00025337225 -0.0015637085)
(-0.45031095 0.0007833223 -0.0048018093)
(-0.41169295 0.0016110986 -0.01139657)
(-0.27117599 0.0025857087 -0.021627939)
(-0.089226751 0.0034782663 -0.032870141)
(0.063955828 0.0041389741 -0.040216002)
(0.16425367 0.0048256088 -0.041466999)
(-0.085670539 -7.9151948e-05 -3.4678645e-05)
(-0.24359607 -3.6266357e-05 -0.00030093667)
(-0.38191059 0.00026924442 -0.0015318771)
(-0.45460453 0.00095198611 -0.0047222995)
(-0.42202332 0.0020501347 -0.011212763)
(-0.28761188 0.0034498477 -0.021291901)
(-0.10894428 0.0047398404 -0.032424937)
(0.044900657 0.0056974466 -0.039859432)
(0.14783328 0.0066567975 -0.04130795)
(-0.084791483 -0.00011550711 -1.7608024e-05)
(-0.24207962 -0.00010321016 -0.00026184052)
(-0.3818101 0.0002284224 -0.0014475962)
(-0.45912762 0.0010341507 -0.0045407826)
(-0.43430862 0.002367358 -0.010905658)
(-0.30793286 0.0041620245 -0.020799464)
(-0.13382533 0.0058570768 -0.031748048)
(0.02053999 0.0071484396 -0.039282384)
(0.12664545 0.0083874774 -0.040995853)
(-0.083449096 -0.00015654317 7.1937403e-06)
(-0.23945577 -0.00019762259 -0.0001982045)
(-0.38043219 0.00012060712 -0.0013170913)
(-0.46301299 0.0010063209 -0.0042816329)
(-0.44747038 0.00254515 -0.01044341)
(-0.33099641 0.0046829842 -0.020041049)
(-0.16286713 0.0067684146 -0.030745377)
(-0.0084242746 0.0084480801 -0.038396041)
(0.10111752 0.0099607158 -0.04046971)
(-0.081497576 -0.00020540364 4.2995018e-05)
(-0.23526481 -0.00033233262 -9.7796307e-05)
(-0.37694995 -8.4516595e-05 -0.0011137196)
(-0.46508002 0.00079424296 -0.0039000898)
(-0.46007315 0.0024440852 -0.009757947)
(-0.35535201 0.0048760318 -0.018925892)
(-0.19490447 0.0073641289 -0.02932751)
(-0.041247027 0.009490804 -0.037120976)
(0.071530082 0.011273983 -0.039679144)
(-0.078824825 -0.00026368545 9.3780545e-05)
(-0.22908657 -0.00051284948 5.3759923e-05)
(-0.37052065 -0.00040073102 -0.00080681771)
(-0.46402601 0.00036885634 -0.0033382393)
(-0.4704994 0.0020015417 -0.008777928)
(-0.3794915 0.0046275423 -0.017403255)
(-0.22880074 0.0075165812 -0.027440376)
(-0.077397451 0.010131323 -0.035387364)
(0.037808954 0.012197936 -0.038552084)
(-0.075368286 -0.00033526243 0.00016384358)
(-0.22072043 -0.00075245791 0.0002743452)
(-0.36076348 -0.00085117082 -0.00035473004)
(-0.45925856 -0.0003053491 -0.0025265532)
(-0.4780141 0.0011551736 -0.0074117824)
(-0.40273671 0.0038113521 -0.015358895)
(-0.26423904 0.0070830884 -0.024974661)
(-0.11711673 0.010180057 -0.033091405)
(-0.000798364 0.012571656 -0.036972261)
(-0.071013556 -0.00041380822 0.00025749326)
(-0.20988917 -0.0010314628 0.00058000933)
(-0.34730411 -0.0014000183 0.00027433478)
(-0.45040015 -0.0011653006 -0.0014065628)
(-0.48236697 7.5236921e-06 -0.0055797784)
(-0.42531528 0.0024907478 -0.012767951)
(-0.30178384 0.0060294154 -0.021928368)
(-0.16158262 0.0095738114 -0.030107697)
(-0.045831591 0.012313138 -0.034736971)
(-0.065931299 -0.00048396557 0.00036475309)
(-0.19698494 -0.0013083333 0.00094062259)
(-0.33063649 -0.0019894937 0.0010170892)
(-0.43795745 -0.0021620012 -9.832936e-05)
(-0.48412686 -0.0014093413 -0.0034584892)
(-0.44794963 0.00075487533 -0.009736392)
(-0.34307418 0.0043288423 -0.018183509)
(-0.21312937 0.0082503299 -0.026207311)
(-0.099829899 0.011483744 -0.031593251)
(-0.060509024 -0.00058660977 0.00051571454)
(-0.18328802 -0.0016943617 0.0014373015)
(-0.31306063 -0.0027905793 0.0020156839)
(-0.42514323 -0.003522208 0.0016417228)
(-0.48713448 -0.0034402547 -0.00065475231)
(-0.47498032 -0.0020117023 -0.0056390683)
(-0.3932733 0.0010306264 -0.012915277)
(-0.27765334 0.0048821781 -0.020418988)
(-0.1696445 0.0084758161 -0.026263642)
(-0.065011423 0.00039094368 0.00035286919)
(-0.19642771 0.0011204803 0.00097843843)
(-0.33491139 0.001729017 0.0013982011)
(-0.45452768 0.0018041031 0.0012320773)
(-0.52160381 0.00070996227 1.9603469e-05)
(-0.51141163 -0.0021432769 -0.0026688898)
(-0.42856809 -0.0068000416 -0.0068759178)
(-0.30828235 -0.012430257 -0.011825156)
(-0.19551287 -0.017716683 -0.016288692)
(-0.071081173 0.00041377165 0.00032735803)
(-0.21188852 0.0011401223 0.00087191905)
(-0.35526835 0.0016550941 0.0011178505)
(-0.47103238 0.0014548226 0.00061769144)
(-0.52319201 -0.00019349849 -0.0011577859)
(-0.48998748 -0.0038748054 -0.0046488152)
(-0.38429457 -0.0094392283 -0.0097167746)
(-0.24926304 -0.015616126 -0.015231518)
(-0.12986018 -0.020775897 -0.019881352)
(-0.076812487 0.00044196392 0.00029760154)
(-0.2266029 0.0011765201 0.00075010188)
(-0.3748849 0.0016196831 0.00081021059)
(-0.4875723 0.0012008378 -4.3961211e-06)
(-0.52677863 -0.00085415098 -0.0022498355)
(-0.47397734 -0.0050669044 -0.0063504657)
(-0.34975984 -0.011070677 -0.011982031)
(-0.20365359 -0.017269179 -0.017710756)
(-0.08027462 -0.022052424 -0.021971688)
(-0.081768199 0.00043301351 0.00024385454)
(-0.23913626 0.0011118638 0.00056252848)
(-0.39118935 0.0014357011 0.0004005794)
(-0.50053579 0.00079727516 -0.00074214362)
(-0.5279789 -0.0015834125 -0.0034211377)
(-0.45831312 -0.0061429008 -0.0080099597)
(-0.31905506 -0.012328396 -0.013978415)
(-0.16486706 -0.018332553 -0.019638709)
(-0.03931116 -0.02261805 -0.023316051)
(-0.085760948 0.00039391706 0.00018174874)
(-0.24904645 0.00096652732 0.00035809934)
(-0.4035896 0.0011352903 -1.5750505e-05)
(-0.50922592 0.00028882797 -0.0014446852)
(-0.52586768 -0.00232729 -0.0044650617)
(-0.44156079 -0.0070375203 -0.0093770794)
(-0.29005688 -0.013163788 -0.015472571)
(-0.13021808 -0.018797208 -0.020858154)
(-0.0041603199 -0.022428263 -0.02389902)
(-0.088909517 0.00033507821 0.00011876986)
(-0.25661206 0.00077248177 0.0001604645)
(-0.4124384 0.00077356856 -0.00039082181)
(-0.51394928 -0.00024678716 -0.0020226573)
(-0.52056229 -0.0029612025 -0.0052358529)
(-0.42343369 -0.0075819317 -0.010284887)
(-0.26194457 -0.013403871 -0.016328761)
(-0.098422323 -0.018521701 -0.021297313)
(0.026734535 -0.021454913 -0.023743587)
(-0.091275462 0.00026442098 6.4317926e-05)
(-0.2620314 0.00055518551 -3.8917311e-06)
(-0.41810972 0.00040101741 -0.00068492111)
(-0.51526561 -0.00072411487 -0.0024420728)
(-0.51270484 -0.00338994 -0.0057350253)
(-0.40444976 -0.0077171424 -0.010746723)
(-0.23493254 -0.012989681 -0.016575575)
(-0.069234527 -0.017433111 -0.021097062)
(0.054018004 -0.019719443 -0.023033483)
(-0.092970862 0.00019379352 2.2570728e-05)
(-0.26571996 0.00035385208 -0.00012214044)
(-0.42142163 8.8950101e-05 -0.00087749642)
(-0.51440551 -0.0010493927 -0.0026760311)
(-0.50379014 -0.0035193746 -0.0059439027)
(-0.38610891 -0.0073663883 -0.010827552)
(-0.21014525 -0.011873414 -0.01637729)
(-0.04322643 -0.01553479 -0.020482531)
(0.077651494 -0.017257332 -0.022020746)
(-0.094139239 0.00013146463 -5.9900183e-06)
(-0.26812349 0.00019450456 -0.00019585273)
(-0.42315862 -0.0001157995 -0.00097944198)
(-0.51247691 -0.0011573184 -0.0027594663)