/*--------------------------------*- C++ -*----------------------------------*\
  =========                 |
  \\      /  F ield         | OpenFOAM: The Open Source CFD Toolbox
   \\    /   O peration     | Website:  https://openfoam.org
    \\  /    A nd           | Version:  10
     \\/     M anipulation  |
\*---------------------------------------------------------------------------*/
FoamFile
{
    format      ascii;
    class       volScalarField;
    location    "5.5";
    object      T;
}
// * * * * * * * * * * * * * * * * * * * * * * * * * * * * * * * * * * * * * //

dimensions      [0 0 -1 0 0 0 0];

internalField   nonuniform List<scalar> 
100
(
-0.0335811
-0.099553
-0.161998
-0.218705
-0.267663
-0.30714
-0.335736
-0.352438
-0.356655
-0.348238
-0.327483
-0.295128
-0.252318
-0.200569
-0.141715
-0.0778401
-0.0112081
0.055821
0.120873
0.181642
0.235977
0.281952
0.317939
0.342663
0.355248
0.355248
0.342663
0.317939
0.281952
0.235977
0.181642
0.120872
0.0558205
-0.0112086
-0.0778406
-0.141715
-0.200569
-0.252318
-0.295129
-0.327484
-0.348238
-0.356655
-0.352438
-0.335736
-0.30714
-0.267663
-0.218704
-0.161998
-0.0995525
-0.0335805
0.0335812
0.0995532
0.161998
0.218705
0.267663
0.30714
0.335736
0.352438
0.356655
0.348238
0.327484
0.295128
0.252318
0.200569
0.141714
0.0778399
0.0112078
-0.0558213
-0.120873
-0.181642
-0.235977
-0.281953
-0.317939
-0.342663
-0.355248
-0.355248
-0.342663
-0.317939
-0.281952
-0.235977
-0.181642
-0.120872
-0.0558203
0.0112088
0.0778408
0.141715
0.200569
0.252318
0.295128
0.327484
0.348238
0.356655
0.352438
0.335735
0.307139
0.267663
0.218704
0.161998
0.0995524
0.0335804
)
;

boundaryField
{
    inlet
    {
        type            cyclic;
    }
    outlet
    {
        type            cyclic;
    }
    bottom
    {
        type            slip;
    }
    top
    {
        type            slip;
    }
    frontAndBack
    {
        type            empty;
    }
}


// ************************************************************************* //
