/*--------------------------------*- C++ -*----------------------------------*\
  =========                 |
  \\      /  F ield         | OpenFOAM: The Open Source CFD Toolbox
   \\    /   O peration     | Website:  https://openfoam.org
    \\  /    A nd           | Version:  10
     \\/     M anipulation  |
\*---------------------------------------------------------------------------*/
FoamFile
{
    format      ascii;
    class       volScalarField;
    location    "5.5";
    object      T_0;
}
// * * * * * * * * * * * * * * * * * * * * * * * * * * * * * * * * * * * * * //

dimensions      [0 0 -1 0 0 0 0];

internalField   nonuniform List<scalar> 
100
(
-0.0329768
-0.0977615
-0.159083
-0.214769
-0.262847
-0.301613
-0.329694
-0.346096
-0.350237
-0.341971
-0.32159
-0.289817
-0.247777
-0.196959
-0.139164
-0.0764393
-0.0110064
0.0548165
0.118697
0.178374
0.231731
0.276879
0.312218
0.336497
0.348855
0.348855
0.336497
0.312218
0.276878
0.23173
0.178373
0.118697
0.054816
-0.0110069
-0.0764399
-0.139165
-0.19696
-0.247778
-0.289818
-0.321591
-0.341971
-0.350237
-0.346096
-0.329694
-0.301613
-0.262846
-0.214769
-0.159083
-0.097761
-0.0329762
0.0329769
0.0977617
0.159083
0.214769
0.262847
0.301613
0.329694
0.346096
0.350237
0.341971
0.32159
0.289817
0.247777
0.196959
0.139164
0.0764391
0.0110061
-0.0548167
-0.118698
-0.178374
-0.231731
-0.276879
-0.312218
-0.336497
-0.348855
-0.348855
-0.336497
-0.312218
-0.276878
-0.23173
-0.178373
-0.118697
-0.0548158
0.0110071
0.07644
0.139165
0.19696
0.247778
0.289818
0.321591
0.341971
0.350237
0.346096
0.329694
0.301612
0.262846
0.214768
0.159082
0.0977609
0.0329761
)
;

boundaryField
{
    inlet
    {
        type            cyclic;
    }
    outlet
    {
        type            cyclic;
    }
    bottom
    {
        type            slip;
    }
    top
    {
        type            slip;
    }
    frontAndBack
    {
        type            empty;
    }
}


// ************************************************************************* //
