/*--------------------------------*- C++ -*----------------------------------*\
  =========                 |
  \\      /  F ield         | OpenFOAM: The Open Source CFD Toolbox
   \\    /   O peration     | Website:  https://openfoam.org
    \\  /    A nd           | Version:  10
     \\/     M anipulation  |
\*---------------------------------------------------------------------------*/
FoamFile
{
    format      ascii;
    class       volScalarField;
    location    "4.5";
    object      ddt0(T);
}
// * * * * * * * * * * * * * * * * * * * * * * * * * * * * * * * * * * * * * //

dimensions      [0 0 -1 1 0 0 0];

internalField   nonuniform List<scalar> 
10000
(
6577.64
3195.52
3171.44
3224.21
3239.41
3243.12
3244.12
3244.45
3244.58
3244.65
3244.7
3244.75
3244.79
3244.83
3244.86
3244.89
3244.92
3244.95
3244.98
3245
3245.02
3245.04
3245.05
3245.07
3245.08
3245.09
3245.09
3245.1
3245.1
3245.11
3245.11
3245.11
3245.11
3245.11
3245.1
3245.1
3245.09
3245.09
3245.08
3245.07
3245.07
3245.06
3245.05
3245.04
3245.04
3245.03
3245.02
3245.01
3245.01
3245
3244.99
3244.98
3244.98
3244.97
3244.97
3244.96
3244.95
3244.95
3244.94
3244.94
3244.93
3244.93
3244.93
3244.92
3244.92
3244.92
3244.91
3244.91
3244.91
3244.91
3244.91
3244.9
3244.9
3244.9
3244.9
3244.9
3244.9
3244.9
3244.9
3244.89
3244.89
3244.89
3244.89
3244.89
3244.89
3244.89
3244.89
3244.89
3244.89
3244.89
3244.89
3244.89
3244.88
3244.87
3244.81
3244.48
3242.85
3236.2
3236.87
3771.39
3696.55
-763.757
-661.966
-528.795
-490.556
-481.139
-478.632
-477.825
-477.488
-477.294
-477.148
-477.02
-476.903
-476.793
-476.69
-476.594
-476.505
-476.423
-476.348
-476.28
-476.219
-476.165
-476.117
-476.076
-476.042
-476.013
-475.989
-475.971
-475.958
-475.95
-475.946
-475.946
-475.949
-475.956
-475.966
-475.978
-475.993
-476.01
-476.028
-476.048
-476.069
-476.091
-476.114
-476.137
-476.16
-476.184
-476.207
-476.23
-476.253
-476.275
-476.296
-476.317
-476.337
-476.356
-476.375
-476.392
-476.409
-476.424
-476.439
-476.453
-476.466
-476.478
-476.489
-476.499
-476.509
-476.517
-476.525
-476.533
-476.54
-476.546
-476.552
-476.557
-476.562
-476.566
-476.57
-476.574
-476.577
-476.58
-476.583
-476.586
-476.588
-476.591
-476.593
-476.595
-476.597
-476.599
-476.601
-476.603
-476.606
-476.608
-476.61
-476.614
-476.621
-476.645
-476.749
-477.251
-479.636
-489.568
-514.657
-411.607
3651.95
-699.119
-487.601
-311.53
-260.413
-247.421
-243.876
-242.713
-242.209
-241.906
-241.669
-241.46
-241.265
-241.083
-240.911
-240.751
-240.602
-240.465
-240.34
-240.226
-240.124
-240.034
-239.955
-239.886
-239.827
-239.779
-239.74
-239.709
-239.687
-239.673
-239.666
-239.665
-239.671
-239.682
-239.698
-239.718
-239.743
-239.77
-239.801
-239.834
-239.869
-239.906
-239.943
-239.982
-240.021
-240.06
-240.098
-240.137
-240.174
-240.211
-240.247
-240.281
-240.315
-240.347
-240.377
-240.406
-240.434
-240.46
-240.484
-240.507
-240.529
-240.549
-240.567
-240.584
-240.6
-240.615
-240.628
-240.641
-240.652
-240.663
-240.672
-240.681
-240.689
-240.696
-240.703
-240.709
-240.714
-240.719
-240.724
-240.729
-240.733
-240.737
-240.741
-240.744
-240.748
-240.751
-240.755
-240.758
-240.761
-240.765
-240.768
-240.773
-240.782
-240.804
-240.879
-241.19
-242.596
-248.599
-267.022
-254.189
3691.72
-588.994
-336.73
-144.645
-88.2004
-73.5146
-69.3949
-67.9939
-67.3567
-66.954
-66.631
-66.3414
-66.0717
-65.8182
-65.58
-65.3574
-65.1507
-64.9601
-64.7858
-64.6278
-64.4859
-64.3598
-64.2492
-64.1534
-64.0719
-64.0042
-63.9495
-63.9072
-63.8764
-63.8564
-63.8466
-63.8459
-63.8538
-63.8695
-63.892
-63.9208
-63.9549
-63.9939
-64.0368
-64.0831
-64.1322
-64.1833
-64.2361
-64.2899
-64.3443
-64.3988
-64.4531
-64.5067
-64.5594
-64.6109
-64.661
-64.7095
-64.7561
-64.8008
-64.8436
-64.8842
-64.9227
-64.959
-64.9932
-65.0253
-65.0553
-65.0832
-65.1092
-65.1332
-65.1555
-65.176
-65.1948
-65.2122
-65.228
-65.2426
-65.2558
-65.268
-65.2791
-65.2892
-65.2985
-65.307
-65.3148
-65.322
-65.3286
-65.3348
-65.3407
-65.3462
-65.3514
-65.3565
-65.3613
-65.3661
-65.3708
-65.3755
-65.3802
-65.3851
-65.3904
-65.397
-65.4074
-65.4285
-65.4796
-65.6251
-66.1447
-68.2449
-74.9005
-73.1152
3703.78
-556.957
-292.824
-95.5952
-37.1947
-21.7742
-17.3478
-15.7861
-15.0387
-14.5444
-14.1383
-13.7707
-13.4272
-13.1038
-12.8
-12.5159
-12.252
-12.0087
-11.7861
-11.5843
-11.4029
-11.2418
-11.1002
-10.9778
-10.8737
-10.7871
-10.7172
-10.6632
-10.6239
-10.5986
-10.5862
-10.5857
-10.5961
-10.6164
-10.6457
-10.6828
-10.7269
-10.7771
-10.8325
-10.8921
-10.9552
-11.0211
-11.089
-11.1582
-11.2281
-11.2982
-11.3679
-11.4369
-11.5046
-11.5708
-11.6352
-11.6974
-11.7573
-11.8148
-11.8697
-11.9218
-11.9713
-12.0179
-12.0618
-12.103
-12.1415
-12.1774
-12.2107
-12.2416
-12.2701
-12.2964
-12.3206
-12.3429
-12.3632
-12.3819
-12.3989
-12.4144
-12.4287
-12.4416
-12.4535
-12.4644
-12.4744
-12.4836
-12.4921
-12.5001
-12.5075
-12.5146
-12.5213
-12.5277
-12.5339
-12.54
-12.546
-12.552
-12.5581
-12.5642
-12.5709
-12.5787
-12.5902
-12.6113
-12.655
-12.7469
-12.9512
-13.5148
-14.9333
-14.0715
3706.8
-549.012
-281.643
-82.8153
-23.6975
-7.94464
-3.33922
-1.65767
-0.813736
-0.23324
0.253374
0.697177
1.11307
1.50491
1.87321
2.21759
2.53751
2.83254
3.10247
3.34729
3.56724
3.76274
3.93436
4.08285
4.20905
4.31391
4.39845
4.46376
4.51099
4.54129
4.55589
4.55599
4.54282
4.51759
4.48153
4.43582
4.38161
4.32006
4.25223
4.17918
4.1019
4.02132
3.93832
3.85371
3.76824
3.6826
3.5974
3.51319
3.43046
3.34964
3.27108
3.1951
3.12195
3.05183
2.98488
2.92121
2.86089
2.80395
2.75038
2.70016
2.65321
2.60947
2.56882
2.53116
2.49636
2.46428
2.43477
2.40768
2.38286
2.36015
2.3394
2.32044
2.30314
2.28733
2.27288
2.25965
2.24749
2.2363
2.22593
2.21628
2.20724
2.19871
2.19059
2.1828
2.17525
2.16788
2.1606
2.15337
2.14609
2.13869
2.13094
2.12223
2.11077
2.09174
2.05444
1.98166
1.85764
1.68367
1.60435
2.22031
3707.64
-546.87
-278.566
-79.201
-19.7867
-3.85653
0.872225
2.65333
3.58577
4.24869
4.81346
5.33166
5.81826
6.27699
6.70824
7.11149
7.48609
7.83153
8.14757
8.4342
8.69168
8.92049
9.1213
9.29497
9.44246
9.56489
9.66345
9.73942
9.79413
9.82895
9.84532
9.84464
9.82837
9.79795
9.75479
9.70031
9.63587
9.5628
9.48238
9.39585
9.30437
9.20903
9.11088
9.01087
8.90987
8.8087
8.70807
8.60864
8.51098
8.41558
8.32288
8.23323
8.14692
8.0642
7.98523
7.91014
7.839
7.77186
7.7087
7.64948
7.59414
7.54257
7.49466
7.45028
7.40927
7.37146
7.33669
7.30478
7.27555
7.24881
7.22437
7.20206
7.1817
7.1631
7.14611
7.13056
7.11628
7.10314
7.09097
7.07966
7.06907
7.05909
7.04959
7.04048
7.03166
7.02305
7.01457
7.00613
6.99767
6.9891
6.98029
6.9709
6.95988
6.94415
6.91602
6.86122
6.76627
6.65583
6.72873
7.20293
3707.93
-546.163
-277.533
-77.9426
-18.3716
-2.32263
2.50558
4.37606
5.39203
6.13436
6.77497
7.36554
7.92094
8.44474
8.9372
9.39764
9.82532
10.2197
10.5804
10.9075
11.2012
11.4622
11.6911
11.8889
12.0568
12.1959
12.3078
12.3937
12.4553
12.494
12.5117
12.5098
12.4901
12.4541
12.4036
12.3401
12.2652
12.1804
12.0873
11.9872
11.8815
11.7713
11.658
11.5426
11.4261
11.3094
11.1934
11.0788
10.9663
10.8564
10.7496
10.6463
10.547
10.4517
10.3608
10.2744
10.1925
10.1152
10.0426
9.97442
9.91075
9.85143
9.79633
9.74528
9.69812
9.65465
9.61468
9.57799
9.54439
9.51366
9.48559
9.45997
9.43659
9.41525
9.39576
9.37793
9.36157
9.34652
9.3326
9.31967
9.30758
9.29618
9.28535
9.27498
9.26494
9.25515
9.24551
9.23593
9.22634
9.21665
9.20678
9.19656
9.18551
9.17205
9.15147
9.11263
9.03769
8.92538
8.91923
9.39409
3708.05
-545.854
-277.066
-77.3462
-17.666
-1.52074
3.39609
5.35023
6.44614
7.26513
7.9792
8.63992
9.26199
9.84883
10.4005
10.9163
11.3952
11.8368
12.2405
12.6066
12.9352
13.2269
13.4827
13.7036
13.8908
14.0457
14.1699
14.2651
14.3328
14.3749
14.3933
14.3897
14.366
14.3242
14.2659
14.1932
14.1076
14.011
13.9051
13.7913
13.6712
13.5462
13.4177
13.2869
13.1549
13.0228
12.8914
12.7617
12.6344
12.51
12.3893
12.2725
12.1602
12.0525
11.9497
11.852
11.7595
11.6722
11.5901
11.5132
11.4412
11.3742
11.312
11.2544
11.2011
11.1521
11.1069
11.0655
11.0276
10.993
10.9613
10.9324
10.9061
10.8821
10.8601
10.84
10.8216
10.8047
10.7891
10.7746
10.7611
10.7483
10.7362
10.7246
10.7134
10.7025
10.6918
10.6811
10.6705
10.6597
10.6488
10.6376
10.626
10.6133
10.5969
10.5688
10.5086
10.3868
10.2822
10.8578
3708.11
-545.667
-276.772
-76.9534
-17.1816
-0.949735
4.04993
6.08379
7.25653
8.14947
8.93446
9.66291
10.3493
10.9969
11.6057
12.1746
12.7029
13.1897
13.6348
14.0381
14.4
14.7211
15.0024
15.2451
15.4504
15.6201
15.7558
15.8592
15.9323
15.9771
15.9955
15.9897
15.9617
15.9135
15.8473
15.765
15.6685
15.5599
15.4409
15.3133
15.1788
15.039
14.8952
14.749
14.6016
14.454
14.3074
14.1627
14.0206
13.8819
13.7473
13.6171
13.4919
13.3719
13.2574
13.1486
13.0455
12.9483
12.8568
12.7711
12.691
12.6165
12.5472
12.483
12.4238
12.3692
12.319
12.2729
12.2308
12.1923
12.1571
12.125
12.0957
12.069
12.0447
12.0224
12.0021
11.9833
11.9661
11.9501
11.9351
11.9211
11.9077
11.895
11.8827
11.8707
11.859
11.8473
11.8357
11.8239
11.812
11.7999
11.7875
11.7745
11.7598
11.7377
11.6875
11.5581
11.3653
12.0837
3708.16
-545.522
-276.537
-76.6305
-16.7749
-0.461761
4.6167
6.72693
7.9735
8.93756
9.79076
10.5843
11.3325
12.0384
12.7019
13.3218
13.8972
14.4273
14.9117
15.3504
15.7439
16.0928
16.3982
16.6613
16.8836
17.0669
17.2129
17.3238
17.4014
17.4481
17.466
17.4573
17.4244
17.3695
17.2949
17.2027
17.0951
16.9742
16.842
16.7006
16.5516
16.3968
16.2378
16.0762
15.9134
15.7504
15.5886
15.4289
15.2723
15.1194
14.9709
14.8275
14.6894
14.5572
14.4311
14.3113
14.1978
14.0907
13.99
13.8957
13.8076
13.7255
13.6493
13.5787
13.5135
13.4535
13.3983
13.3477
13.3013
13.259
13.2204
13.1851
13.153
13.1237
13.097
13.0727
13.0504
13.0299
13.011
12.9935
12.9772
12.962
12.9475
12.9337
12.9204
12.9074
12.8947
12.8821
12.8696
12.8569
12.8441
12.8311
12.8178
12.8042
12.7898
12.7707
12.7272
12.5933
12.3254
13.1894
3708.21
-545.393
-276.325
-76.3375
-16.4027
-0.0123801
5.14136
7.3247
8.64201
9.67421
10.5927
11.4485
12.2558
13.0174
13.733
14.4015
15.0217
15.5928
16.1145
16.5868
17.01
17.385
17.7129
17.995
18.2329
18.4286
18.584
18.7012
18.7825
18.8303
18.8469
18.8348
18.7965
18.7344
18.6509
18.5485
18.4295
18.2962
18.1507
17.9952
17.8316
17.6619
17.4877
17.3107
17.1325
16.9542
16.7773
16.6028
16.4316
16.2646
16.1024
15.9458
15.7952
15.6509
15.5133
15.3825
15.2587
15.1419
15.0322
14.9293
14.8332
14.7438
14.6607
14.5838
14.5128
14.4474
14.3873
14.3322
14.2817
14.2356
14.1936
14.1553
14.1204
14.0886
14.0596
14.0332
14.009
13.9868
13.9664
13.9475
13.93
13.9135
13.8979
13.8831
13.8689
13.855
13.8414
13.828
13.8146
13.8012
13.7875
13.7737
13.7596
13.7453
13.7307
13.7129
13.6738
13.538
13.2099
14.202
3708.25
-545.273
-276.127
-76.0626
-16.0527
0.411303
5.63686
7.88999
9.27479
10.372
11.3527
12.2678
13.1312
13.9457
14.7108
15.4253
16.0878
16.6977
17.2545
17.7583
18.2093
18.6086
18.9573
19.2569
19.5091
19.7159
19.8794
20.0019
20.086
20.134
20.1486
20.1325
20.0882
20.0184
19.9257
19.8128
19.6821
19.536
19.3771
19.2074
19.0292
18.8445
18.6551
18.4628
18.2691
18.0757
17.8837
17.6944
17.5088
17.3278
17.1522
16.9825
16.8194
16.6632
16.5142
16.3727
16.2387
16.1124
15.9936
15.8824
15.7785
15.6817
15.5919
15.5088
15.432
15.3614
15.2964
15.2369
15.1824
15.1327
15.0873
15.046
15.0083
14.9741
14.9429
14.9144
14.8885
14.8647
14.8428
14.8226
14.8038
14.7862
14.7696
14.7539
14.7387
14.7241
14.7097
14.6955
14.6814
14.6673
14.6529
14.6384
14.6236
14.6086
14.5935
14.5763
14.5402
14.4046
14.0321
15.1263
3708.29
-545.16
-275.939
-75.8028
-15.7214
0.812546
6.10637
8.42579
9.87468
11.0335
12.0732
13.0445
13.961
14.8255
15.6373
16.395
17.0974
17.7436
18.3332
18.8663
19.3432
19.7649
20.1327
20.4482
20.7131
20.9297
21.1002
21.227
21.3128
21.3602
21.3721
21.3511
21.3003
21.2223
21.12
20.9962
20.8535
20.6946
20.522
20.338
20.1451
19.9453
19.7407
19.5331
19.3242
19.1156
18.9087
18.7048
18.5049
18.31
18.121
17.9385
17.763
17.595
17.4348
17.2827
17.1387
17.0029
16.8753
16.7558
16.6442
16.5403
16.4439
16.3546
16.2723
16.1964
16.1267
16.0629
16.0045
15.9512
15.9025
15.8583
15.818
15.7813
15.748
15.7176
15.6899
15.6645
15.6412
15.6197
15.5998
15.5812
15.5637
15.547
15.5311
15.5157
15.5007
15.4858
15.4711
15.4563
15.4414
15.4262
15.4108
15.3952
15.3796
15.3626
15.3286
15.1946
14.7936
15.9617
3708.32
-545.054
-275.763
-75.5574
-15.4084
1.19172
6.55011
8.93221
10.4416
11.6586
12.754
13.7781
14.7446
15.656
16.5115
17.3097
18.0493
18.7294
19.3494
19.9096
20.4103
20.8525
21.2377
21.5674
21.8436
22.0685
22.2447
22.3747
22.4612
22.5071
22.5154
22.4891
22.431
22.3444
22.232
22.097
21.942
21.77
21.5836
21.3853
21.1776
20.9628
20.7429
20.52
20.296
20.0723
19.8506
19.6322
19.4182
19.2096
19.0073
18.812
18.6244
18.4448
18.2735
18.1109
17.9571
17.8121
17.6758
17.5481
17.429
17.3181
17.2151
17.1199
17.032
16.9511
16.8767
16.8087
16.7464
16.6896
16.6378
16.5907
16.5478
16.5088
16.4734
16.4411
16.4117
16.3848
16.3602
16.3375
16.3165
16.2969
16.2786
16.2612
16.2445
16.2285
16.2128
16.1974
16.1821
16.1668
16.1514
16.1358
16.1199
16.1038
16.0877
16.0707
16.0383
15.9071
15.492
16.7067
3708.36
-544.954
-275.597
-75.3266
-15.114
1.54842
6.96755
9.40856
10.9749
12.2464
13.3939
14.4676
15.4808
16.4359
17.3322
18.168
18.9421
19.6534
20.3015
20.8864
21.4088
21.8696
22.2702
22.6125
22.8984
23.1304
23.311
23.443
23.5292
23.5727
23.5767
23.5442
23.4784
23.3825
23.2597
23.1131
22.9456
22.7603
22.5599
22.3471
22.1246
21.8947
21.6596
21.4216
21.1824
20.9438
20.7074
20.4746
20.2466
20.0245
19.8091
19.6013
19.4016
19.2106
19.0285
18.8556
18.6921
18.5379
18.3931
18.2575
18.1309
18.0131
17.9038
17.8027
17.7094
17.6235
17.5447
17.4724
17.4064
17.3462
17.2913
17.2414
17.196
17.1548
17.1173
17.0833
17.0522
17.0239
16.998
16.9742
16.9522
16.9317
16.9126
16.8945
16.8772
16.8606
16.8444
16.8285
16.8128
16.7971
16.7813
16.7653
16.749
16.7326
16.7162
16.699
16.6678
16.5407
16.1237
17.3603
3708.39
-544.861
-275.442
-75.1108
-14.8387
1.88208
7.35802
9.8541
11.4735
12.796
13.9921
15.1117
16.1683
17.164
18.098
18.9685
19.7743
20.5142
21.1879
21.7954
22.3372
22.8146
23.2289
23.582
23.876
24.1136
24.2973
24.4302
24.5151
24.5553
24.5541
24.5147
24.4406
24.335
24.2013
24.0428
23.8625
23.6636
23.4491
23.2218
22.9844
22.7395
22.4893
22.2361
21.9818
21.7285
21.4775
21.2305
20.9887
20.7532
20.525
20.3048
20.0933
19.891
19.6982
19.5152
19.3422
19.1791
19.0259
18.8824
18.7486
18.624
18.5085
18.4016
18.303
18.2123
18.129
18.0528
17.9831
17.9195
17.8617
17.809
17.7612
17.7178
17.6784
17.6426
17.6101
17.5804
17.5533
17.5284
17.5055
17.4842
17.4643
17.4455
17.4277
17.4106
17.394
17.3778
17.3617
17.3457
17.3297
17.3134
17.2969
17.2802
17.2636
17.2464
17.2162
17.0941
16.6853
17.9223
3708.42
-544.774
-275.297
-74.9103
-14.5827
2.19229
7.72104
10.2683
11.9369
13.3066
14.5476
15.7098
16.8064
17.8395
18.808
19.7103
20.5449
21.3108
22.0076
22.6353
23.1945
23.6863
24.1124
24.4746
24.7753
25.017
25.2026
25.3351
25.4177
25.4537
25.4465
25.3996
25.3166
25.2008
25.0558
24.885
24.6916
24.4791
24.2503
24.0084
23.7561
23.4961
23.2308
22.9625
22.6934
22.4253
22.16
21.8989
21.6435
21.3948
21.1539
20.9216
20.6984
20.4851
20.2818
20.0889
19.9065
19.7346
19.5732
19.4222
19.2812
19.1501
19.0284
18.9159
18.8122
18.7167
18.6291
18.549
18.4757
18.4089
18.3481
18.2929
18.2427
18.1972
18.1559
18.1185
18.0845
18.0535
18.0252
17.9994
17.9756
17.9535
17.933
17.9137
17.8954
17.8778
17.8609
17.8444
17.8281
17.8119
17.7957
17.7793
17.7627
17.7459
17.7291
17.7119
17.6828
17.5665
17.1741
18.3933
3708.44
-544.694
-275.164
-74.7251
-14.3463
2.4788
8.05631
10.6507
12.3647
13.7779
15.0601
16.2614
17.3945
18.4617
19.4617
20.3928
21.2535
22.0427
22.7601
23.4056
23.9799
24.4843
24.9203
25.2899
25.5957
25.8401
26.0263
26.1573
26.2365
26.2674
26.2535
26.1984
26.1058
25.9793
25.8226
25.6392
25.4326
25.2061
24.9631
24.7064
24.4392
24.1642
23.8839
23.6007
23.3168
23.0342
22.7546
22.4797
22.2108
21.9492
21.6958
21.4515
21.2169
20.9927
20.7791
20.5765
20.385
20.2045
20.0351
19.8766
19.7286
19.5911
19.4635
19.3455
19.2367
19.1367
19.0449
18.9609
18.8842
18.8142
18.7506
18.6928
18.6404
18.5929
18.5498
18.5108
18.4753
18.4431
18.4138
18.387
18.3624
18.3397
18.3185
18.2987
18.28
18.2622
18.245
18.2283
18.2119
18.1956
18.1793
18.1629
18.1462
18.1295
18.1127
18.0956
18.0675
17.9579
17.5878
18.7743
3708.47
-544.621
-275.042
-74.5553
-14.1296
2.74157
8.36378
11.0014
12.7569
14.2097
15.5296
16.7663
17.9327
19.0307
20.059
21.016
21.9
22.7099
23.4454
24.1064
24.6937
25.2086
25.6526
26.028
26.3372
26.583
26.7685
26.8969
26.9717
26.9966
26.9751
26.9112
26.8085
26.6709
26.5022
26.3059
26.0858
25.8452
25.5877
25.3164
25.0343
24.7442
24.449
24.151
23.8524
23.5554
23.2618
22.9732
22.6911
22.4167
22.1511
21.895
21.6493
21.4144
21.1908
20.9787
20.7782
20.5893
20.4121
20.2462
20.0915
19.9477
19.8143
19.691
19.5773
19.4728
19.3769
19.2892
19.2091
19.1361
19.0698
19.0096
18.9549
18.9055
18.8607
18.8201
18.7833
18.75
18.7196
18.692
18.6666
18.6433
18.6216
18.6014
18.5824
18.5643
18.5469
18.5301
18.5136
18.4973
18.481
18.4647
18.4482
18.4315
18.4149
18.398
18.371
18.2686
17.925
19.0674
3708.49
-544.554
-274.931
-74.4008
-13.9322
2.98078
8.64365
11.3205
13.1137
14.6024
15.9563
17.225
18.4212
19.5468
20.6005
21.5803
22.4848
23.3128
24.0639
24.7382
25.3364
25.8597
26.31
26.6895
27.0006
27.2464
27.4299
27.5546
27.6241
27.6421
27.6124
27.539
27.4257
27.2765
27.0953
26.8859
26.652
26.3973
26.1253
25.8392
25.5422
25.2373
24.9272
24.6145
24.3014
23.9903
23.6828
23.3808
23.0857
22.7987
22.521
22.2534
21.9967
21.7515
21.518
21.2966
21.0874
20.8903
20.7054
20.5324
20.3711
20.2212
20.0821
19.9536
19.8352
19.7263
19.6265
19.5352
19.4518
19.3759
19.3069
19.2443
19.1876
19.1363
19.0898
19.0478
19.0098
18.9753
18.944
18.9155
18.8895
18.8656
18.8435
18.823
18.8037
18.7854
18.7679
18.751
18.7346
18.7184
18.7022
18.6861
18.6698
18.6534
18.637
18.6203
18.5945
18.4996
18.1853
19.275
3708.51
-544.494
-274.831
-74.2614
-13.7541
3.19676
8.8963
11.6085
13.4356
14.9565
16.3408
17.638
18.8608
20.0108
21.0867
22.0866
23.0089
23.8524
24.6167
25.302
25.9089
26.4389
26.8936
27.2755
27.5871
27.8315
28.0119
28.1318
28.195
28.2053
28.1667
28.0831
27.9587
27.7975
27.6036
27.3808
27.133
26.864
26.5774
26.2766
25.9647
25.645
25.3202
24.9929
24.6656
24.3404
24.0193
23.7041
23.3962
23.0969
22.8074
22.5286
22.2612
22.0057
21.7626
21.5321
21.3144
21.1094
20.917
20.7371
20.5694
20.4135
20.2689
20.1354
20.0124
19.8993
19.7956
19.7008
19.6143
19.5355
19.464
19.3991
19.3404
19.2872
19.2392
19.1958
19.1565
19.121
19.0889
19.0597
19.033
19.0086
18.9862
18.9653
18.9458
18.9274
18.9099
18.8931
18.8767
18.8606
18.8447
18.8288
18.8128
18.7967
18.7807
18.7644
18.7398
18.6527
18.3689
19.4
3708.53
-544.441
-274.741
-74.1366
-13.5946
3.39002
9.12232
11.866
13.7232
15.2727
16.684
18.0064
19.2524
20.4237
21.519
22.5361
23.4735
24.33
25.1052
25.7993
26.4129
26.9476
27.4051
27.7878
28.0984
28.3401
28.5162
28.6304
28.6863
28.6881
28.6399
28.5456
28.4097
28.2361
28.0291
27.7927
27.5309
27.2475
26.9463
26.6307
26.3042
25.9697
25.6303
25.2887
24.9472
24.6083
24.2738
23.9455
23.6251
23.3138
23.0127
22.7229
22.445
22.1796
21.9271
21.6878
21.4617
21.249
21.0494
20.8627
20.6887
20.527
20.3772
20.2388
20.1112
19.994
19.8867
19.7885
19.6989
19.6175
19.5435
19.4764
19.4157
19.3608
19.3113
19.2665
19.2262
19.1897
19.1567
19.1268
19.0996
19.0748
19.052
19.0309
19.0113
18.9928
18.9753
18.9586
18.9424
18.9265
18.9109
18.8953
18.8797
18.864
18.8484
18.8326
18.8092
18.7299
18.477
19.4459
3708.54
-544.393
-274.662
-74.026
-13.4534
3.56119
9.32243
12.0939
13.9776
15.5522
16.987
18.3312
19.5974
20.787
21.8986
22.9303
23.8802
24.7473
25.5311
26.2318
26.8502
27.3878
27.8463
28.2284
28.5367
28.7745
28.9452
29.0525
29.1004
29.093
29.0345
28.929
28.781
28.5947
28.3744
28.1242
27.8483
27.5505
27.2347
26.9044
26.5632
26.2141
25.8603
25.5045
25.1492
24.7966
24.449
24.108
23.7753
23.4522
23.1398
22.8392
22.5511
22.276
22.0144
21.7665
21.5324
21.312
21.1054
20.9122
20.7322
20.5649
20.4099
20.2667
20.1348
20.0137
19.9027
19.8013
19.7088
19.6247
19.5483
19.4791
19.4165
19.36
19.309
19.2631
19.2216
19.1842
19.1505
19.1199
19.0922
19.067
19.0439
19.0227
19.0029
18.9845
18.9671
18.9505
18.9345
18.9189
18.9037
18.8885
18.8734
18.8582
18.8431
18.8277
18.8057
18.7339
18.5111
19.4164
3708.56
-544.352
-274.593
-73.9292
-13.3297
3.71101
9.49749
12.2932
14.1999
15.7961
17.2511
18.614
19.8972
21.1022
22.2275
23.271
24.231
25.1063
25.8965
26.6019
27.2231
27.7618
28.2199
28.5998
28.9044
29.1371
29.3013
29.401
29.44
29.4227
29.3533
29.2362
29.0758
28.8765
28.6426
28.3785
28.0883
27.776
27.4456
27.1008
26.745
26.3815
26.0135
25.6437
25.2747
24.9088
24.5482
24.1948
23.85
23.5154
23.1921
22.881
22.5829
22.2984
22.0279
21.7716
21.5296
21.302
21.0885
20.889
20.7031
20.5303
20.3704
20.2226
20.0865
19.9616
19.8471
19.7425
19.6472
19.5606
19.4819
19.4107
19.3464
19.2883
19.2359
19.1887
19.1463
19.108
19.0736
19.0425
19.0143
18.9887
18.9654
18.944
18.9243
18.9059
18.8886
18.8722
18.8565
18.8413
18.8264
18.8117
18.7971
18.7825
18.7679
18.7532
18.7325
18.668
18.4739
19.3155
3708.57
-544.316
-274.533
-73.8456
-13.2229
3.84033
9.6485
12.4649
14.3911
16.0057
17.4778
18.8563
20.1537
21.3713
22.5075
23.5603
24.528
25.4093
26.2039
26.9119
27.5342
28.0723
28.5283
28.9047
29.2045
29.431
29.5878
29.6789
29.7083
29.6804
29.5997
29.4704
29.2972
29.0846
28.8371
28.5589
28.2544
27.9277
27.5828
27.2234
26.8532
26.4755
26.0934
25.7098
25.3274
24.9485
24.5753
24.2096
23.8531
23.5073
23.1732
22.8519
22.5441
22.2505
21.9713
21.7069
21.4574
21.2226
21.0025
20.7969
20.6052
20.4273
20.2625
20.1103
19.9702
19.8415
19.7237
19.6161
19.5181
19.429
19.3481
19.275
19.2089
19.1493
19.0956
19.0474
19.0039
18.9649
18.9298
18.8981
18.8696
18.8437
18.8202
18.7987
18.779
18.7606
18.7435
18.7274
18.712
18.6972
18.6827
18.6686
18.6545
18.6406
18.6267
18.6126
18.5932
18.5356
18.3684
19.1476
3708.58
-544.285
-274.482
-73.7746
-13.1322
3.95006
9.7765
12.6102
14.5529
16.1827
17.6687
19.06
20.3687
21.5961
22.7408
23.8005
24.7736
25.6588
26.4557
27.1645
27.7862
28.3223
28.7748
29.1464
29.4401
29.6593
29.8078
29.8895
29.9087
29.8697
29.777
29.6353
29.449
29.2229
28.9615
28.6692
28.3503
28.0092
27.6499
27.2762
26.8917
26.4999
26.104
25.7069
25.3114
24.9197
24.5341
24.1565
23.7886
23.4318
23.0873
22.7561
22.4389
22.1363
21.8488
21.5765
21.3196
21.078
20.8515
20.6399
20.4428
20.2597
20.0903
19.9338
19.7898
19.6576
19.5366
19.4261
19.3254
19.234
19.151
19.076
19.0083
18.9473
18.8924
18.843
18.7987
18.7589
18.7231
18.691
18.6621
18.636
18.6123
18.5908
18.5711
18.5529
18.536
18.5201
18.5051
18.4907
18.4768
18.4632
18.4497
18.4364
18.4233
18.4099
18.3918
18.3406
18.198
18.9172
3708.59
-544.26
-274.439
-73.7155
-13.0569
4.04117
9.88264
12.7306
14.6865
16.3285
17.8257
19.2269
20.5442
21.7791
22.9297
23.9941
24.9704
25.8575
26.6548
27.3628
27.9822
28.5147
28.9625
29.3281
29.6146
29.8257
29.9649
30.0366
30.0448
29.9942
29.8892
29.7346
29.5351
29.2953
29.0199
28.7134
28.3803
28.0248
27.6512
27.2632
26.8647
26.4591
26.0496
25.6393
25.2308
24.8266
24.429
24.0398
23.6607
23.2933
22.9386
22.5978
22.2715
21.9603
21.6646
21.3848
21.1207
20.8725
20.6398
20.4225
20.2201
20.0321
19.8582
19.6976
19.5499
19.4143
19.2901
19.1768
19.0736
18.9799
18.895
18.8182
18.7489
18.6865
18.6304
18.58
18.5348
18.4943
18.458
18.4255
18.3962
18.3699
18.3461
18.3246
18.3049
18.2869
18.2702
18.2547
18.2401
18.2261
18.2127
18.1997
18.187
18.1744
18.1619
18.1493
18.1326
18.0872
17.9669
18.6289
3708.6
-544.24
-274.405
-73.6678
-12.9959
4.1147
9.96813
12.8273
14.7935
16.445
17.9506
19.359
20.6826
21.9224
23.0768
24.1437
25.1212
26.0082
26.8043
27.5097
28.1254
28.653
29.0947
29.4532
29.7317
29.9336
30.0629
30.1238
30.1206
30.0579
29.9403
29.7726
29.5596
29.306
29.0165
28.6958
28.3485
27.9788
27.5909
27.189
26.7766
26.3574
25.9346
25.5113
25.0902
24.6738
24.2644
23.8639
23.4741
23.0963
22.7318
22.3816
22.0464
21.7269
21.4234
21.1362
20.8653
20.6106
20.372
20.1491
19.9416
19.749
19.5707
19.4062
19.2548
19.1159
18.9888
18.8728
18.7672
18.6714
18.5845
18.506
18.4352
18.3715
18.3143
18.263
18.217
18.1758
18.139
18.106
18.0764
18.0499
18.0261
18.0046
17.985
17.9672
17.9508
17.9356
17.9214
17.9079
17.8951
17.8827
17.8706
17.8588
17.8471
17.8353
17.8199
17.7799
17.6794
18.2875
3708.6
-544.224
-274.378
-73.6306
-12.9486
4.17169
10.0342
12.9018
14.8756
16.5338
18.0453
19.4586
20.7859
22.0285
23.1845
24.2519
25.2288
26.1141
26.9072
27.6086
28.2192
28.7406
29.1751
29.5255
29.7949
29.987
30.1057
30.1553
30.1402
30.0649
29.9344
29.7534
29.5267
29.2592
28.9557
28.6209
28.2594
27.8756
27.4737
27.0579
26.6319
26.1994
25.7636
25.3276
24.8942
24.466
24.0451
23.6336
23.2333
22.8454
22.4714
22.1122
21.7685
21.4409
21.1299
20.8355
20.558
20.2972
20.0528
19.8246
19.6122
19.4151
19.2326
19.0643
18.9095
18.7674
18.6375
18.5189
18.411
18.313
18.2243
18.1442
18.072
18.0071
17.9488
17.8965
17.8498
17.808
17.7706
17.7373
17.7075
17.6808
17.6569
17.6354
17.616
17.5984
17.5823
17.5674
17.5536
17.5407
17.5285
17.5167
17.5053
17.4943
17.4834
17.4725
17.4583
17.4232
17.3401
17.8977
3708.6
-544.212
-274.359
-73.6033
-12.914
4.21325
10.0822
12.9555
14.9344
16.5969
18.1118
19.5277
20.8567
22.0999
23.2556
24.3217
25.2962
26.178
26.9668
27.6627
28.2669
28.7811
29.2074
29.5487
29.8083
29.9899
30.0974
30.1351
30.1076
30.0196
29.8759
29.6813
29.4409
29.1595
28.8419
28.4931
28.1175
27.7198
27.3042
26.8748
26.4354
25.9898
25.5413
25.0929
24.6476
24.2078
23.7758
23.3537
22.9431
22.5456
22.1623
21.7944
21.4424
21.1071
20.7888
20.4876
20.2037
19.9369
19.687
19.4537
19.2366
19.0351
18.8487
18.6768
18.5186
18.3735
18.2408
18.1198
18.0097
17.9097
17.8193
17.7376
17.6641
17.5979
17.5386
17.4855
17.438
17.3956
17.3578
17.3241
17.2941
17.2673
17.2434
17.2219
17.2026
17.1852
17.1694
17.155
17.1416
17.1292
17.1176
17.1065
17.0958
17.0855
17.0755
17.0654
17.0525
17.0218
16.9537
17.4646
3708.61
-544.204
-274.346
-73.5852
-12.8911
4.24048
10.1133
12.9899
14.9715
16.6361
18.1522
19.5686
20.8972
22.1392
23.2927
24.3557
25.3263
26.2032
26.9862
27.6755
28.2722
28.778
29.1952
29.5267
29.7758
29.9461
30.0419
30.0674
30.0272
29.9261
29.769
29.5609
29.3066
29.0113
28.6799
28.3171
27.9276
27.5162
27.087
26.6442
26.1918
25.7334
25.2725
24.8121
24.3551
23.9041
23.4613
23.0289
22.6085
22.2016
21.8094
21.433
21.0732
20.7303
20.405
20.0973
19.8072
19.5347
19.2795
19.0413
18.8197
18.6141
18.4238
18.2484
18.087
17.9391
17.8038
17.6804
17.5681
17.4663
17.3742
17.291
17.2162
17.1489
17.0886
17.0347
16.9865
16.9436
16.9054
16.8714
16.8411
16.8142
16.7902
16.7689
16.7497
16.7326
16.7171
16.703
16.6901
16.6782
16.6672
16.6567
16.6468
16.6373
16.6281
16.6188
16.6072
16.5804
16.5253
16.993
3708.61
-544.2
-274.339
-73.5756
-12.8791
4.25451
10.1289
13.0066
14.9888
16.6532
18.1686
19.5835
20.9099
22.1488
23.2986
24.357
25.3221
26.1929
26.9689
27.6504
28.2386
28.7351
29.1424
29.4633
29.7012
29.8599
29.9435
29.9564
29.9033
29.789
29.6184
29.3965
29.1285
28.8193
28.474
28.0975
27.6944
27.2694
26.8269
26.371
25.9059
25.4351
24.962
24.4899
24.0216
23.5597
23.1066
22.6642
22.2342
21.8183
21.4176
21.0331
20.6655
20.3155
19.9834
19.6694
19.3734
19.0955
18.8352
18.5923
18.3664
18.1567
17.9629
17.7841
17.6197
17.469
17.3312
17.2055
17.0912
16.9876
16.8939
16.8093
16.7332
16.6649
16.6037
16.549
16.5002
16.4567
16.4181
16.3838
16.3533
16.3263
16.3024
16.2811
16.2621
16.2452
16.23
16.2163
16.2039
16.1925
16.182
16.1722
16.163
16.1543
16.1459
16.1376
16.1271
16.1038
16.0597
16.4876
3708.61
-544.2
-274.337
-73.5737
-12.8771
4.25644
10.1303
13.0071
14.9878
16.6502
18.163
19.5746
20.8971
22.1315
23.276
24.3284
25.2868
26.1502
26.918
27.5908
28.1695
28.656
29.0527
29.3624
29.5887
29.7352
29.8063
29.8064
29.7401
29.6124
29.4282
29.1927
28.911
28.5881
28.2291
27.8389
27.4224
26.9841
26.5286
26.06
25.5824
25.0994
24.6147
24.1312
23.652
23.1796
22.7164
22.2643
21.8252
21.4006
20.9916
20.5993
20.2244
19.8675
19.5289
19.2088
18.9072
18.624
18.3589
18.1116
17.8814
17.668
17.4706
17.2887
17.1214
16.968
16.8278
16.7
16.5838
16.4785
16.3832
16.2973
16.22
16.1507
16.0886
16.0332
15.9837
15.9398
15.9008
15.8662
15.8356
15.8085
15.7845
15.7633
15.7445
15.7278
15.7129
15.6996
15.6877
15.6768
15.6669
15.6578
15.6493
15.6413
15.6337
15.6262
15.6169
15.5968
15.5619
15.9533
3708.61
-544.202
-274.341
-73.5789
-12.884
4.24738
10.1188
12.9928
14.9703
16.6289
18.1375
19.5443
20.8614
22.0898
23.2276
24.2728
25.2234
26.0783
26.837
27.5001
28.0687
28.5444
28.9298
29.2279
29.442
29.5761
29.6344
29.6214
29.5419
29.4007
29.203
28.9539
28.6585
28.322
27.9495
27.546
27.1162
26.665
26.1968
25.7158
25.226
24.7313
24.2352
23.7407
23.2509
22.7684
22.2954
21.8341
21.3862
20.9532
20.5363
20.1365
19.7545
19.391
19.0462
18.7204
18.4134
18.1252
17.8554
17.6038
17.3697
17.1526
16.9519
16.7669
16.5969
16.441
16.2985
16.1687
16.0506
15.9437
15.8469
15.7597
15.6813
15.611
15.5481
15.492
15.442
15.3975
15.3582
15.3233
15.2925
15.2653
15.2414
15.2203
15.2016
15.1852
15.1706
15.1577
15.1461
15.1358
15.1265
15.118
15.1102
15.1029
15.0961
15.0895
15.0813
15.064
15.0368
15.3947
3708.61
-544.207
-274.349
-73.5904
-12.8992
4.22845
10.0958
12.9653
14.9379
16.5913
18.094
19.4946
20.805
22.0261
23.1562
24.193
25.1347
25.9802
26.7291
27.3818
27.9394
28.4039
28.7776
29.0635
29.2652
29.3866
29.4319
29.4057
29.3129
29.1582
28.947
28.6844
28.3755
28.0256
27.6399
27.2232
26.7806
26.3167
25.836
25.3429
24.8414
24.3354
23.8282
23.3231
22.8231
22.3308
21.8485
21.3782
20.9218
20.4808
20.0563
19.6493
19.2606
18.8908
18.5401
18.2087
17.8965
17.6035
17.3294
17.0736
16.8358
16.6152
16.4114
16.2235
16.0508
15.8925
15.7479
15.6161
15.4963
15.3877
15.2896
15.2012
15.1218
15.0505
14.9868
14.93
14.8794
14.8346
14.7948
14.7597
14.7288
14.7015
14.6776
14.6565
14.6381
14.6218
14.6076
14.595
14.5839
14.574
14.5653
14.5574
14.5502
14.5437
14.5377
14.5319
14.5248
14.51
14.4892
14.8164
3708.6
-544.214
-274.361
-73.6076
-12.9215
4.2007
10.0624
12.9259
14.8922
16.539
18.0347
19.4278
20.7302
21.943
23.0643
24.0918
25.0238
25.8591
26.5974
27.239
27.7853
28.2379
28.5995
28.873
29.0621
29.1705
29.2027
29.1633
29.0571
28.8891
28.6645
28.3885
28.0663
27.7032
27.3044
26.875
26.4197
25.9435
25.4508
24.946
24.4331
23.916
23.3982
22.8829
22.373
21.8713
21.38
20.9012
20.4367
19.9879
19.5561
19.1423
18.7472