/*--------------------------------*- C++ -*----------------------------------*\
  =========                 |
  \\      /  F ield         | OpenFOAM: The Open Source CFD Toolbox
   \\    /   O peration     | Website:  https://openfoam.org
    \\  /    A nd           | Version:  10
     \\/     M anipulation  |
\*---------------------------------------------------------------------------*/
FoamFile
{
    format      ascii;
    class       volScalarField;
    location    "4.5";
    object      T;
}
// * * * * * * * * * * * * * * * * * * * * * * * * * * * * * * * * * * * * * //

dimensions      [0 0 0 1 0 0 0];

internalField   nonuniform List<scalar> 
10000
(
374.899
361.005
356.128
353.883
352.577
351.685
351.007
350.457
349.99
349.58
349.212
348.876
348.567
348.279
348.009
347.755
347.515
347.288
347.073
346.87
346.676
346.493
346.319
346.154
345.997
345.849
345.71
345.577
345.453
345.335
345.225
345.121
345.024
344.933
344.848
344.769
344.695
344.626
344.562
344.503
344.448
344.398
344.351
344.308
344.269
344.232
344.199
344.169
344.142
344.116
344.094
344.073
344.054
344.037
344.022
344.009
343.996
343.985
343.976
343.967
343.959
343.952
343.946
343.941
343.937
343.933
343.929
343.926
343.924
343.922
343.92
343.918
343.917
343.916
343.916
343.916
343.915
343.916
343.916
343.916
343.917
343.917
343.918
343.919
343.921
343.922
343.923
343.925
343.926
343.928
343.93
343.932
343.934
343.936
343.938
343.941
343.943
343.946
343.949
343.954
388.33
373.973
365.73
360.685
357.297
354.818
352.875
351.27
349.894
348.679
347.586
346.587
345.664
344.804
343.998
343.238
342.521
341.842
341.199
340.589
340.009
339.46
338.938
338.444
337.975
337.532
337.113
336.717
336.344
335.992
335.661
335.35
335.059
334.786
334.531
334.293
334.071
333.865
333.674
333.496
333.332
333.18
333.04
332.912
332.793
332.685
332.586
332.495
332.412
332.337
332.269
332.207
332.151
332.1
332.055
332.014
331.977
331.944
331.915
331.889
331.866
331.845
331.827
331.811
331.798
331.786
331.775
331.766
331.759
331.753
331.747
331.743
331.74
331.737
331.736
331.735
331.734
331.734
331.735
331.736
331.738
331.74
331.743
331.746
331.749
331.753
331.757
331.762
331.767
331.772
331.777
331.783
331.789
331.796
331.803
331.81
331.817
331.825
331.833
331.842
392.749
380.848
372.152
365.848
361.129
357.439
354.428
351.882
349.665
347.69
345.901
344.259
342.737
341.315
339.981
338.723
337.533
336.407
335.339
334.325
333.362
332.449
331.582
330.76
329.981
329.244
328.547
327.888
327.267
326.682
326.131
325.614
325.13
324.676
324.251
323.855
323.486
323.143
322.824
322.529
322.256
322.003
321.77
321.556
321.359
321.179
321.014
320.863
320.725
320.6
320.486
320.383
320.29
320.206
320.13
320.062
320.001
319.946
319.897
319.854
319.815
319.781
319.751
319.725
319.702
319.682
319.665
319.65
319.637
319.627
319.618
319.611
319.605
319.601
319.598
319.597
319.596
319.596
319.598
319.6
319.603
319.606
319.61
319.615
319.621
319.627
319.634
319.642
319.65
319.658
319.667
319.677
319.687
319.698
319.71
319.721
319.734
319.747
319.76
319.774
394.541
384.534
376.194
369.441
363.952
359.404
355.547
352.198
349.23
346.556
344.113
341.858
339.759
337.793
335.944
334.197
332.545
330.978
329.49
328.078
326.737
325.463
324.254
323.107
322.021
320.992
320.018
319.099
318.232
317.415
316.646
315.925
315.247
314.614
314.021
313.468
312.952
312.473
312.028
311.615
311.233
310.881
310.555
310.256
309.981
309.729
309.498
309.287
309.095
308.92
308.761
308.617
308.487
308.369
308.263
308.168
308.083
308.006
307.938
307.878
307.824
307.776
307.734
307.697
307.665
307.637
307.613
307.592
307.575
307.56
307.548
307.538
307.53
307.525
307.52
307.518
307.517
307.518
307.519
307.522
307.526
307.531
307.537
307.544
307.552
307.561
307.57
307.58
307.592
307.604
307.616
307.63
307.644
307.659
307.675
307.691
307.709
307.727
307.745
307.764
395.396
386.573
378.667
371.792
365.859
360.712
356.195
352.175
348.551
345.244
342.196
339.365
336.717
334.228
331.88
329.659
327.554
325.556
323.657
321.853
320.139
318.51
316.964
315.496
314.105
312.788
311.541
310.364
309.253
308.206
307.222
306.297
305.429
304.616
303.857
303.148
302.487
301.873
301.302
300.773
300.284
299.831
299.415
299.031
298.678
298.355
298.059
297.789
297.543
297.318
297.114
296.93
296.763
296.612
296.476
296.354
296.244
296.146
296.059
295.981
295.912
295.851
295.797
295.75
295.709
295.673
295.642
295.615
295.593
295.574
295.558
295.545
295.536
295.528
295.523
295.52
295.518
295.519
295.521
295.525
295.53
295.536
295.544
295.553
295.563
295.574
295.586
295.599
295.613
295.629
295.645
295.662
295.68
295.7
295.72
295.741
295.763
295.786
295.809
295.834
395.843
387.714
380.13
373.228
367.015
361.433
356.394
351.814
347.618
343.743
340.14
336.77
333.603
330.615
327.789
325.109
322.564
320.146
317.846
315.658
313.578
311.6
309.721
307.938
306.247
304.645
303.13
301.697
300.346
299.072
297.874
296.748
295.692
294.703
293.778
292.915
292.11
291.362
290.667
290.023
289.427
288.876
288.369
287.901
287.472
287.078
286.718
286.389
286.089
285.815
285.567
285.342
285.139
284.955
284.789
284.641
284.507
284.388
284.281
284.186
284.102
284.028
283.962
283.905
283.854
283.811
283.773
283.741
283.713
283.69
283.671
283.656
283.643
283.634
283.628
283.624
283.622
283.623
283.625
283.63
283.636
283.643
283.653
283.663
283.675
283.689
283.704
283.72
283.737
283.755
283.775
283.796
283.818
283.841
283.866
283.891
283.918
283.946
283.974
284.004
396.078
388.333
380.936
374.006
367.584
361.659
356.194
351.138
346.44
342.054
337.942
334.072
330.416
326.955
323.67
320.549
317.58
314.753
312.062
309.5
307.062
304.743
302.539
300.446
298.46
296.578
294.797
293.114
291.526
290.028
288.619
287.295
286.053
284.89
283.802
282.787
281.841
280.96
280.143
279.385
278.683
278.035
277.438
276.888
276.383
275.919
275.495
275.108
274.755
274.433
274.141
273.876
273.636
273.42
273.225
273.05
272.893
272.753
272.627
272.515
272.416
272.329
272.252
272.184
272.124
272.073
272.028
271.99
271.958
271.931
271.908
271.89
271.876
271.865
271.857
271.853
271.851
271.851
271.854
271.859
271.866
271.875
271.886
271.898
271.912
271.928
271.945
271.964
271.984
272.006
272.029
272.053
272.079
272.106
272.134
272.164
272.195
272.228
272.262
272.296
396.192
388.63
381.306
374.313
367.702
361.487
355.656
350.183
345.039
340.191
335.612
331.276
327.161
323.251
319.529
315.984
312.606
309.385
306.315
303.389
300.602
297.95
295.427
293.03
290.756
288.6
286.559
284.629
282.808
281.09
279.474
277.955
276.53
275.196
273.947
272.782
271.696
270.685
269.747
268.877
268.072
267.328
266.642
266.01
265.43
264.898
264.411
263.966
263.56
263.191
262.856
262.552
262.276
262.028
261.804
261.603
261.423
261.261
261.117
260.989
260.875
260.774
260.686
260.608
260.54
260.48
260.429
260.385
260.348
260.317
260.291
260.27
260.253
260.241
260.232
260.226
260.224
260.225
260.228
260.233
260.241
260.251
260.264
260.278
260.294
260.312
260.331
260.352
260.375
260.4
260.426
260.454
260.483
260.514
260.547
260.581
260.616
260.653
260.692
260.731
396.23
388.717
381.378
374.283
367.482
360.999
354.839
348.993
343.444
338.173
333.162
328.392
323.846
319.51
315.372
311.422
307.65
304.049
300.612
297.333
294.207
291.23
288.397
285.704
283.147
280.723
278.427
276.256
274.206
272.274
270.454
268.744
267.139
265.636
264.23
262.917
261.694
260.555
259.498
258.517
257.61
256.772
255.999
255.287
254.633
254.034
253.485
252.983
252.526
252.11
251.731
251.389
251.078
250.798
250.546
250.319
250.116
249.934
249.771
249.627
249.498
249.385
249.285
249.197
249.12
249.053
248.995
248.946
248.904
248.868
248.839
248.815
248.796
248.782
248.772
248.766
248.763
248.763
248.767
248.773
248.782
248.793
248.806
248.822
248.84
248.86
248.882
248.905
248.931
248.958
248.988
249.019
249.051
249.086
249.122
249.16
249.2
249.241
249.284
249.328
396.216
388.663
381.241
374.008
367.006
360.266
353.799
347.608
341.686
336.024
330.611
325.433
320.481
315.742
311.208
306.87
302.72
298.753
294.962
291.341
287.887
284.595
281.46
278.479
275.647
272.961
270.416
268.009
265.736
263.592
261.574
259.676
257.895
256.227
254.666
253.209
251.851
250.587
249.413
248.324
247.316
246.385
245.527
244.736
244.01
243.344
242.734
242.177
241.669
241.207
240.787
240.406
240.061
239.75
239.47
239.218
238.992
238.789
238.609
238.448
238.305
238.179
238.068
237.97
237.885
237.81
237.746
237.691
237.644
237.605
237.572
237.545
237.524
237.508
237.497
237.49
237.487
237.487
237.49
237.497
237.507
237.519
237.534
237.551
237.57
237.592
237.616
237.642
237.67
237.7
237.732
237.766
237.802
237.84
237.88
237.922
237.965
238.011
238.058
238.107
396.169
388.511
380.958
373.554
366.34
359.344
352.583
346.067
339.796
333.768
327.977
322.417
317.08
311.959
307.047
302.338
297.827
293.507
289.375
285.424
281.652
278.055
274.627
271.365
268.266
265.325
262.538
259.901
257.41
255.06
252.847
250.766
248.813
246.983
245.272
243.673
242.183
240.796
239.507
238.313
237.207
236.185
235.243
234.375
233.578
232.847
232.177
231.566
231.008
230.5
230.039
229.621
229.243
228.901
228.593
228.316
228.068
227.846
227.647
227.471
227.314
227.176
227.053
226.946
226.852
226.77
226.7
226.639
226.587
226.544
226.508
226.478
226.455
226.438
226.425
226.417
226.413
226.413
226.417
226.424
226.434
226.447
226.463
226.482
226.503
226.526
226.552
226.58
226.611
226.643
226.678
226.715
226.754
226.795
226.838
226.884
226.931
226.98
227.032
227.084
396.097
388.289
380.568
372.97
365.531
358.279
351.232
344.405
337.803
331.428
325.281
319.358
313.657
308.172
302.901
297.838
292.979
288.321
283.86
279.592
275.513
271.62
267.908
264.375
261.016
257.827
254.804
251.943
249.24
246.69
244.287
242.028
239.907
237.92
236.06
234.324
232.704
231.197
229.797
228.499
227.297
226.187
225.162
224.219
223.353
222.558
221.83
221.165
220.559
220.007
219.505
219.051
218.639
218.268
217.933
217.632
217.362
217.12
216.904
216.712
216.542
216.391
216.258
216.141
216.039
215.95
215.873
215.807
215.75
215.703
215.664
215.632
215.606
215.587
215.573
215.564
215.559
215.559
215.563
215.57
215.581
215.595
215.612
215.632
215.654
215.679
215.707
215.737
215.77
215.805
215.842
215.882
215.924
215.968
216.014
216.063
216.113
216.166
216.221
216.278
396.008
388.019
380.103
372.293
364.618
357.107
349.78
342.652
335.733
329.028
322.542
316.275
310.226
304.395
298.78
293.379
288.188
283.205
278.428
273.854
269.479
265.3
261.314
257.518
253.907
250.478
247.227
244.149
241.239
238.494
235.907
233.474
231.19
229.049
227.046
225.175
223.43
221.806
220.297
218.898
217.602
216.405
215.301
214.284
213.35
212.493
211.708
210.991
210.337
209.742
209.201
208.71
208.267
207.866
207.505
207.18
206.889
206.628
206.395
206.188
206.004
205.841
205.698
205.572
205.461
205.365
205.282
205.21
205.15
205.098
205.056
205.021
204.993
204.972
204.957
204.947
204.942
204.941
204.945
204.952
204.964
204.978
204.996
205.017
205.041
205.068
205.097
205.129
205.164
205.201
205.24
205.282
205.327
205.374
205.423
205.474
205.528
205.585
205.643
205.703
395.908
387.714
379.585
371.548
363.631
355.859
348.255
340.834
333.609
326.588
319.778
313.182
306.803
300.641
294.698
288.973
283.463
278.17
273.089
268.22
263.56
259.106
254.856
250.805
246.951
243.29
239.817
236.528
233.419
230.484
227.719
225.117
222.674
220.384
218.241
216.239
214.372
212.634
211.019
209.522
208.135
206.853
205.671
204.583
203.583
202.665
201.825
201.057
200.357
199.719
199.14
198.615
198.14
197.71
197.323
196.976
196.664
196.384
196.135
195.913
195.716
195.541
195.387
195.252
195.134
195.031
194.941
194.865
194.799
194.744
194.698
194.661
194.631
194.608
194.591
194.58
194.574
194.574
194.577
194.585
194.596
194.612
194.63
194.652
194.677
194.705
194.736
194.77
194.806
194.845
194.887
194.931
194.978
195.027
195.079
195.134
195.19
195.25
195.311
195.374
395.798
387.384
379.029
370.756
362.591
354.559
346.681
338.974
331.453
324.127
317.006
310.096
303.4
296.923
290.666
284.63
278.816
273.224
267.852
262.7
257.765
253.047
248.541
244.245
240.157
236.271
232.584
229.092
225.789
222.671
219.732
216.967
214.37
211.936
209.657
207.528
205.542
203.694
201.976
200.383
198.908
197.544
196.287
195.128
194.064
193.087
192.193
191.376
190.631
189.952
189.336
188.777
188.271
187.814
187.402
187.032
186.699
186.402
186.136
185.9
185.69
185.504
185.34
185.196
185.07
184.96
184.865
184.783
184.713
184.654
184.605
184.565
184.533
184.508
184.49
184.478
184.471
184.47
184.473
184.481
184.493
184.509
184.528
184.551
184.577
184.606
184.638
184.673
184.711
184.752
184.795
184.842
184.891
184.942
184.996
185.053
185.113
185.175
185.239
185.305
395.684
387.039
378.448
369.933
361.517
353.225
345.077
337.091
329.282
321.662
314.242
307.03
300.032
293.252
286.694
280.362
274.256
268.377
262.726
257.302
252.104
247.131
242.38
237.848
233.533
229.431
225.537
221.848
218.359
215.064
211.958
209.035
206.289
203.714
201.304
199.052
196.952
194.996
193.179
191.493
189.932
188.489
187.158
185.932
184.805
183.772
182.825
181.96
181.171
180.453
179.8
179.208
178.672
178.188
177.752
177.36
177.008
176.693
176.412
176.161
175.939
175.742
175.568
175.415
175.281
175.165
175.064
174.977
174.903
174.84
174.788
174.745
174.71
174.684
174.664
174.651
174.644
174.642
174.645
174.653
174.665
174.681
174.701
174.724
174.751
174.781
174.815
174.851
174.89
174.933
174.978
175.026
175.077
175.13
175.187
175.246
175.308
175.372
175.439
175.508
395.566
386.684
377.853
369.092
360.425
351.873
343.459
335.2
327.112
319.208
311.5
303.998
296.709
289.639
282.794
276.177
269.792
263.639
257.72
252.035
246.585
241.367
236.38
231.621
227.088
222.778
218.685
214.807
211.137
207.671
204.404
201.328
198.439
195.729
193.192
190.821
188.609
186.55
184.637
182.861
181.217
179.697
178.295
177.004
175.817
174.728
173.73
172.819
171.987
171.23
170.543
169.919
169.354
168.844
168.384
167.971
167.6
167.268
166.971
166.707
166.473
166.265
166.081
165.92
165.779
165.656
165.549
165.457
165.379
165.313
165.257
165.212
165.175
165.147
165.126
165.111
165.103
165.101
165.104
165.111
165.123
165.139
165.16
165.184
165.211
165.242
165.277
165.314
165.355
165.398
165.445
165.494
165.547
165.602
165.66
165.721
165.785
165.852
165.921
165.992
395.446
386.324
377.25
368.243
359.325
350.517
341.841
333.315
324.956
316.777
308.792
301.011
293.444
286.096
278.975
272.086
265.433
259.017
252.842
246.908
241.214
235.762
230.548
225.572
220.83
216.319
212.035
207.975
204.132
200.501
197.078
193.855
190.827
187.987
185.328
182.842
180.524
178.365
176.358
174.496
172.771
171.177
169.706
168.352
167.107
165.964
164.918
163.962
163.089
162.295
161.573
160.918
160.326
159.79
159.308
158.874
158.485
158.136
157.825
157.547
157.301
157.083
156.89
156.721
156.572
156.443
156.33
156.234
156.151
156.081
156.023
155.975
155.936
155.906
155.883
155.868
155.859
155.855
155.858
155.865
155.877
155.894
155.914
155.938
155.967
155.998
156.033
156.072
156.113
156.158
156.206
156.257
156.31
156.367
156.427
156.49
156.555
156.624
156.695
156.767
395.326
385.963
376.647
367.394
358.227
349.167
340.234
331.449
322.826
314.382
306.129
298.08
290.245
282.631
275.246
268.097
261.187
254.52
248.099
241.926
236
230.323
224.892
219.707
214.764
210.061
205.594
201.358
197.349
193.56
189.987
186.624
183.462
180.497
177.719
175.124
172.702
170.446
168.35
166.404
164.603
162.937
161.4
159.984
158.683
157.489
156.395
155.396
154.484
153.653
152.899
152.214
151.595
151.035
150.53
150.077
149.67
149.305
148.979
148.689
148.431
148.203
148.001
147.824
147.668
147.533
147.415
147.314
147.227
147.154
147.092
147.041
147
146.968
146.944
146.928
146.918
146.914
146.916
146.923
146.935
146.951
146.972
146.996
147.025
147.057
147.093
147.132
147.174
147.22
147.268
147.32
147.375
147.433
147.494
147.558
147.625
147.695
147.768
147.842
395.206
385.603
376.047
366.552
357.139
347.831
338.649
329.61
320.732
312.031
303.521
295.214
287.122
279.252
271.615
264.216
257.061
250.154
243.498
237.096
230.948
225.056
219.418
214.032
208.897
204.01
199.367
194.963
190.794
186.854
183.138
179.638
176.349
173.262
170.372
167.67
165.149
162.801
160.619
158.593
156.717
154.982
153.382
151.907
150.552
149.308
148.169
147.128
146.177
145.312
144.526
143.813
143.167
142.584
142.058
141.586
141.161
140.781
140.442
140.139
139.87
139.632
139.422
139.237
139.075
138.933
138.81
138.704
138.613
138.537
138.472
138.419
138.376
138.342
138.316
138.298
138.287
138.283
138.284
138.29
138.302
138.318
138.339
138.364
138.392
138.425
138.461
138.5
138.543
138.59
138.639
138.692
138.748
138.807
138.869
138.934
139.002
139.073
139.147
139.222
395.088
385.249
375.455
365.721
356.068
346.518
337.091
327.807
318.682
309.733
300.975
292.421
284.081
275.968
268.088
260.451
253.061
245.924
239.044
232.423
226.064
219.966
214.129
208.552
203.234
198.17
193.359
188.794
184.472
180.387
176.533
172.903
169.491
166.289
163.291
160.487
157.871
155.434
153.169
151.066
149.118
147.318
145.656
144.125
142.718
141.426
140.243
139.162
138.175
137.277
136.46
135.719
135.049
134.443
133.897
133.405
132.964
132.57
132.217
131.902
131.623
131.375
131.157
130.964
130.795
130.648
130.52
130.41
130.315
130.235
130.167
130.112
130.066
130.031
130.003
129.984
129.972
129.967
129.967
129.973
129.984
130
130.021
130.046
130.074
130.107
130.143
130.183
130.227
130.273
130.323
130.377
130.433
130.493
130.556
130.621
130.69
130.762
130.837
130.914
394.972
384.9
374.874
364.906
355.019
345.233
335.569
326.046
316.683
307.495
298.498
289.706
281.131
272.783
264.672
256.806
249.193
241.837
234.742
227.913
221.351
215.056
209.03
203.271
197.777
192.545
187.573
182.855
178.387
174.163
170.177
166.423
162.893
159.581
156.479
153.578
150.87
148.348
146.003
143.827
141.811
139.947
138.226
136.642
135.184
133.847
132.622
131.502
130.481
129.55
128.704
127.937
127.242
126.615
126.049
125.54
125.083
124.674
124.308
123.983
123.693
123.436
123.209
123.01
122.835
122.682
122.549
122.434
122.336
122.252
122.182
122.124
122.076
122.039
122.01
121.989
121.976
121.97
121.969
121.975
121.986
122.001
122.022
122.046
122.075
122.108
122.144
122.184
122.228
122.275
122.325
122.378
122.435
122.495
122.559
122.625
122.694
122.767
122.842
122.919
394.859
384.56
374.306
364.111
353.995
343.98
334.087
324.334
314.741
305.323
296.097
287.077
278.275
269.703
261.371
253.288
245.461
237.895
230.597
223.568
216.813
210.332
204.125
198.191
192.53
187.138
182.012
177.147
172.54
168.183
164.072
160.199
156.557
153.14
149.938
146.944
144.15
141.546
139.125
136.879
134.797
132.872
131.096
129.459
127.954
126.573
125.308
124.151
123.096
122.135
121.261
120.468
119.751
119.102
118.518
117.992
117.52
117.097
116.719
116.382
116.083
115.817
115.583
115.376
115.195
115.036
114.899
114.78
114.678
114.591
114.518
114.457
114.408
114.368
114.338
114.316
114.302
114.294
114.293
114.298
114.308
114.323
114.343
114.367
114.396
114.428
114.465
114.505
114.548
114.595
114.646
114.7
114.757
114.817
114.88
114.947
115.016
115.089
115.165
115.242
394.748
384.229
373.755
363.338
353.001
342.765
332.649
322.675
312.86
303.222
293.776
284.537
275.519
266.733
258.19
249.899
241.868
234.103
226.61
219.392
212.453
205.794
199.415
193.316
187.495
181.95
176.678
171.674
166.933
162.45
158.219
154.233
150.485
146.966
143.67
140.587
137.71
135.029
132.536
130.221
128.077
126.095
124.265
122.578
121.028
119.605
118.302
117.11
116.022
115.032
114.131
113.314
112.575
111.906
111.304
110.762
110.275
109.839
109.449
109.102
108.793
108.519
108.277
108.064
107.877
107.713
107.571
107.448
107.342
107.252
107.177
107.113
107.062
107.021
106.989
106.965
106.95
106.941
106.939
106.943
106.953
106.967
106.987
107.011
107.039
107.071
107.107
107.147
107.19
107.237
107.287
107.341
107.398
107.458
107.522
107.588
107.658
107.731
107.806
107.884
394.641
383.909
373.22
362.59
352.039
341.589
331.26
321.072
311.045
301.194
291.538
282.091
272.866
263.876
255.131
246.643
238.418
230.463
222.785
215.387
208.273
201.444
194.901
188.645
182.673
176.982
171.571
166.434
161.567
156.965
152.62
148.526
144.676
141.061
137.675
134.507
131.551
128.796
126.234
123.856
121.652
119.614
117.733
116
114.406
112.943
111.603
110.377
109.259
108.241
107.315
106.475
105.714
105.027
104.407
103.849
103.349
102.9
102.499
102.142
101.824
101.542
101.293
101.073
100.88
100.712
100.565
100.438
100.329
100.236
100.158
100.092
100.038
99.9953
99.9619
99.9371
99.9203
99.9108
99.9078
99.911
99.9197
99.9337
99.9525
99.9758
100.004
100.035
100.071
100.11
100.153
100.2
100.25
100.303
100.36
100.42
100.483
100.549
100.618
100.691
100.766
100.843
394.538
383.6
372.705
361.869
351.112
340.456
329.922
319.529
309.298
299.245
289.387
279.74
270.318
261.133
252.198
243.521
235.111
226.976
219.122
211.553
204.273
197.283
190.586
184.179
178.063
172.235
166.692
161.429
156.442
151.725
147.272
143.076
139.129
135.424
131.951
128.704
125.672
122.847
120.219
117.78
115.52
113.429
111.5
109.722
108.086
106.586
105.211
103.953
102.806
101.761
100.81
99.9482
99.1675
98.4621
97.8259
97.2535
96.7394
96.2788
95.8672
95.5001
95.1736
94.8841
94.6281
94.4024
94.2042
94.0309
93.8799
93.7493
93.6368
93.5409
93.4597
93.3919
93.3361
93.2912
93.2562
93.23
93.212
93.2013
93.1973
93.1995
93.2074
93.2206
93.2387
93.2614
93.2885
93.3197
93.3548
93.3936
93.4362
93.4822
93.5316
93.5845
93.6406
93.6999
93.7625
93.8283
93.8972
93.9692
94.044
94.1205
394.439
383.302
372.209
361.175
350.22
339.367
328.636
318.047
307.621
297.374
287.325
277.488
267.878
258.508
249.39
240.534
231.95
223.644
215.623
207.892
200.454
193.312
186.467
179.919
173.666
167.707
162.039
156.657
151.556
146.731
142.175
137.882
133.844
130.052
126.498
123.175
120.071
117.179
114.49
111.992
109.678
107.538
105.562
103.742
102.067
100.53
99.1222
97.8345
96.6593
95.5887
94.6154
93.7323
92.9327
92.21
91.5582
90.9717
90.4449
89.973
89.5511
89.1748
88.8401
88.5433
88.2807
88.0492
87.8458
87.6678
87.5128
87.3785
87.2628
87.164
87.0803
87.0102
86.9524
86.9057
86.8691
86.8415
86.8221
86.8103
86.8052
86.8065
86.8135
86.8258
86.8431
86.8651
86.8914
86.9219
86.9563
86.9945
87.0363
87.0816
87.1304
87.1826
87.238
87.2966
87.3585
87.4235
87.4916
87.5629
87.6369
87.7126
394.344
383.017
371.734
360.51
349.366
338.323
327.404
316.629
306.016
295.585
285.353
275.335
265.546
256.001
246.71
237.684
228.934
220.465
212.286
204.402
196.815
189.528
182.544
175.862
169.48
163.398
157.611
152.115
146.907
141.98
137.327
132.942
128.816
124.943
121.313
117.917
114.746
111.791
109.042
106.49
104.125
101.937
99.9177
98.0568
96.3452
94.774
93.3344
92.0179
90.8164
89.7218
88.7266
87.8236
87.0059
86.2668
85.6003
85.0003
84.4616
83.9788
83.5471
83.1621
82.8196
82.5158
82.2469
82.0099
81.8015
81.6191
81.4602
81.3224
81.2036
81.102
81.0158
80.9435
80.8837
80.8353
80.797
80.768
80.7473
80.7342
80.728
80.7282
80.7343
80.7457
80.7621
80.7832
80.8087
80.8383
80.8719
80.9093
80.9503
80.9948
81.0428
81.094
81.1486
81.2063
81.2673
81.3313
81.3985
81.4687
81.5418
81.6163
394.253
382.744
371.279
359.874
348.549
337.326
326.228
315.274
304.484
293.877
283.471
273.282
263.324
253.611
244.157
234.97
226.062
217.441
209.112
201.082
193.354
185.931
178.815
172.006
165.503
159.303
153.404
147.802
142.492
137.468
132.724
128.252
124.044
120.093
116.39
112.926
109.691
106.677
103.872
101.268
98.8549
96.6227
94.5618
92.6626
90.9158
89.3122
87.8429
86.4992
85.2727
84.1554
83.1395
82.2176
81.3827
80.6281
79.9475
79.335
78.7847
78.2917
77.8508
77.4575
77.1076
76.797
76.5223
76.2799
76.0668
75.8802
75.7175
75.5763
75.4545
75.3502
75.2616
75.1871
75.1255
75.0752
75.0354
75.0049
74.9829
74.9685
74.9612
74.9603
74.9653
74.9757
74.9912
75.0113
75.0359
75.0646
75.0973
75.1337
75.1738
75.2173
75.2642
75.3145
75.368
75.4247
75.4845
75.5474
75.6134
75.6824
75.7542
75.8275
394.166
382.483
370.845
359.267
347.77
336.376
325.107
313.983
303.025
292.252
281.681
271.328
261.21
251.34
241.73
232.392
223.335
214.568
206.099
197.931
190.07
182.519
175.278
168.349
161.731
155.421
149.417
143.714
138.308
133.193
128.362
123.808
119.523
115.499
111.727
108.199
104.904
101.833
98.9754
96.3225
93.8637
91.5893
89.4893
87.554
85.774
84.1398
82.6424
81.2729
80.0229
78.884
77.8485
76.9088
76.0578
75.2885
74.5946
73.9701
73.409
72.9062
72.4565
72.0554
71.6984
71.3816
71.1012
70.8537
70.6361
70.4455
70.2791
70.1347
70.0101
69.9032
69.8122
69.7357
69.6721
69.6202
69.5787
69.5468
69.5234
69.5078
69.4993
69.4973
69.5012
69.5105
69.5249
69.544
69.5676
69.5952
69.6269
69.6622
69.7012
69.7437
69.7895
69.8386
69.8909
69.9463
70.0048
70.0664
70.131
70.1986
70.269
70.3408
394.084
382.236
370.433
358.691
347.03
335.473
324.041
312.757
301.64
290.708
279.981
269.475
259.204
249.185
239.428
229.947
220.75
211.846
203.243
194.946
186.96
179.287
171.93
164.888
158.162
151.748
145.644
139.846
134.35
129.149
124.236
119.605
115.247
111.155
107.318
103.729
100.377
97.253
94.3463
91.6472
89.1455
86.8313
84.6945
82.7252
80.9138
79.2508
77.7269
76.3331
75.0608
73.9017
72.8477
71.8912
71.0248
70.2417
69.5353
68.8994
68.3281
67.8161
67.3582
66.9496
66.5859
66.2631
65.9773
65.7251
65.5032
65.3087
65.1389
64.9914
64.8639
64.7545
64.6614
64.5828
64.5173
64.4637
64.4207
64.3873
64.3625
64.3457
64.3359
64.3327
64.3355
64.3437
64.357
64.375
64.3974
64.424
64.4545
64.4887
64.5265
64.5677
64.6123
64.6601
64.711
64.7651
64.8222
64.8823
64.9454
65.0114
65.0801
65.1503
394.005
382.001
370.042
358.144
346.328
334.616
323.031
311.595
300.327
289.246
278.371
267.719
257.306
247.145
237.251
227.634
218.305
209.272
200.544
192.125
184.021
176.234
168.766
161.619
154.79
148.279
142.081
136.195
130.613
125.331
120.342
115.638
111.212
107.055
103.158
99.5114
96.106
92.9317
89.9784
87.2359
84.6939
82.3422
80.1708
78.1695
76.3286
74.6384
73.0895
71.6729
70.3797
69.2015
68.1301
67.1577
66.2769
65.4808
64.7625
64.1159
63.535
63.0143
62.5485
62.1329
61.7629
61.4344
61.1436
60.8868
60.6608
60.4626
60.2896
60.1391
60.009
59.8972
59.8019
59.7213
59.654
59.5987
59.5542
59.5193
59.4932
59.475
59.4641
59.4596
59.4612
59.4683
59.4804
59.4973
59.5185
59.5439
59.5731
59.6061
59.6426
59.6825
59.7257
59.7721
59.8215
59.8741
59.9296
59.9881
60.0495
60.1138
60.1807
60.249
393.931
381.779
369.672
357.627
345.664
333.806
322.076
310.496
299.085
287.863
276.849
266.06
255.512
245.219
235.194
225.45
215.997
206.843
197.997
189.463
181.248
173.354
165.783
158.536
151.612
145.009
138.724
132.753
127.092
121.734
116.673
111.901
107.41
103.193
99.2387
95.5388
92.0832
88.862
85.8649
83.0816
80.5017
78.1149
75.9109
73.8796
72.011
70.2953
68.723
67.2849
65.972
64.7758
63.688
62.7007
61.8064
60.998
60.2686
59.6119
59.022
58.493
58.0199
57.5977
57.2218
56.8879
56.5922
56.3311
56.1013
55.8996
55.7235
55.5702
55.4375
55.3234
55.226
55.1435
55.0745
55.0175
54.9714
54.9351
54.9077
54.8882
54.8759
54.8703
54.8706
54.8765
54.8874
54.903
54.923
54.9471
54.9751
55.0067
55.0419
55.0804
55.1221
55.1669
55.2148
55.2657
55.3196
55.3763
55.4359
55.4983
55.5633
55.6297
393.861
381.569
369.323
357.138
345.037
333.042
321.175
309.459
297.914
286.56
275.415
264.496
253.821
243.403
233.256
223.393
213.823
204.555
195.598
186.958
178.639
170.644
162.976
155.635
148.621
141.932
135.565
129.516
123.78
118.351
113.223
108.387
103.836
99.5619
95.5544
91.8043
88.3017
85.0366
81.9984
79.1769
76.5615
74.1418
71.9073
69.8478
67.9531
66.2135
64.6192
63.161
61.8297
60.6166
59.5134
58.5122
57.6052
56.7852
56.0453
55.3792
54.7807
54.2441
53.764
53.3356
52.954
52.6151
52.3149
52.0497
51.8162
51.6113
51.4321
51.2762
51.1411
51.0248
50.9253
50.841
50.7702
50.7116
50.6641
50.6263
50.5975
50.5767
50.5632
50.5563
50.5554
50.56
50.5697
50.5841
50.6028
50.6255
50.6522
50.6824
50.7161
50.7531
50.7932
50.8365
50.8827
50.9319
50.9839
51.0388
51.0965
51.1569
51.2198
51.2841
393.795
381.372
368.994
356.678
344.446
332.322
320.326
308.483
296.812
285.333
274.064
263.025
252.23
241.696
231.434
221.459
211.779
202.405
193.344
184.603
176.187
168.098
160.34
152.912
145.814
139.044
132.6
126.478
120.672
115.177
109.985
105.09
100.483
96.155
92.0974
88.3004
84.7538
81.4475
78.371
75.5138
72.8651
70.4146
68.1515
66.0656
64.1467
62.3846
60.7698
59.2927
57.9441
56.7153
55.5977
54.5833
53.6644
52.8336
52.084
51.409
50.8025
50.2586
49.772
49.3377
48.9509
48.6072
48.3028
48.0337
47.7967
47.5887
47.4067
47.2482
47.1108
46.9924
46.8909
46.8048
46.7324
46.6723
46.6232
46.5841
46.5539
46.5318
46.517
46.5088
46.5067
46.51
46.5184
46.5315
46.5489
46.5703
46.5955
46.6242
46.6564
46.6918
46.7304
46.772
46.8164
46.8638
46.914
46.9669
47.0225
47.0808
47.1416
47.2037
393.734
381.186
368.685
356.246
343.892
331.645
319.529
307.566
295.776
284.18
272.797
261.644
250.738
240.093
229.725
219.644
209.862
200.388
191.231
182.396
173.888
165.712
157.868
150.359
143.183
136.338
129.822
123.631
117.76
112.203
106.952
102.001
97.3415
92.9642
88.86
85.0191
81.4315
78.0868
74.9744
72.0838
69.4041
66.9247
64.635
62.5245
60.5828
58.7999
57.1658
55.671
54.3063
53.0627
51.9317
50.905
49.975
49.1341
48.3753
47.692
47.078
46.5274
46.0347
45.5948
45.2031
44.8549
44.5464
44.2738
44.0336
43.8226
43.6379
43.477
43.3373
43.2169
43.1136
43.0257
42.9517
42.8901
42.8396
42.7991
42.7676
42.7442
42.7281
42.7186
42.7152
42.7172
42.7243
42.7361
42.7521
42.7721
42.7958
42.8231
42.8537
42.8875
42.9244
42.9642
43.0069
43.0524
43.1006
43.1515
43.205
43.2611
43.3196
43.3794
393.675
381.012
368.395
355.841
343.372
331.011
318.782
306.707
294.806
283.101
271.609
260.35
249.339
238.593
228.124
217.945
208.068
198.501
189.253
180.33
171.738
163.479
155.557
147.971
140.722
133.807
127.224
120.97
115.037
109.422
104.117
99.114
94.4052
89.9816
85.8339
81.9522
78.3263
74.9458
71.8
68.8782
66.1696
63.6634
61.3488
59.2153
57.2525
55.45
53.798
52.2868
50.907
49.6496
48.506
47.468
46.5275
45.6771
44.9098
44.2187
43.5977
43.0408
42.5424
42.0974
41.7009
41.3486
41.0364
40.7603
40.517
40.3032
40.116
39.9528
39.811
39.6886
39.5836
39.4941
39.4185
39.3554
39.3035
39.2616
39.2288
39.2041
39.1867
39.176
39.1713
39.172
39.1778
39.1882
39.2028
39.2214
39.2436
39.2694
39.2984
39.3305
39.3657
39.4037
39.4445
39.488
39.5342
39.583
39.6344
39.6883
39.7445
39.8019
393.621
380.849
368.124
355.462
342.886
330.418
318.084
305.903
293.899
282.091
270.499
259.141
248.033
237.19
226.628
216.358
206.391
196.738
187.405
178.401
169.729