/*--------------------------------*- C++ -*----------------------------------*\
  =========                 |
  \\      /  F ield         | OpenFOAM: The Open Source CFD Toolbox
   \\    /   O peration     | Website:  https://openfoam.org
    \\  /    A nd           | Version:  10
     \\/     M anipulation  |
\*---------------------------------------------------------------------------*/
FoamFile
{
    format      ascii;
    class       volScalarField;
    location    "7.4";
    object      T;
}
// * * * * * * * * * * * * * * * * * * * * * * * * * * * * * * * * * * * * * //

dimensions      [0 0 -1 0 0 0 0];

internalField   nonuniform List<scalar> 
100
(
-0.0319863
-0.0948251
-0.154305
-0.208318
-0.254951
-0.292553
-0.319791
-0.3357
-0.339717
-0.331699
-0.31193
-0.281112
-0.240334
-0.191043
-0.134984
-0.0741431
-0.0106756
0.0531701
0.115132
0.173016
0.22477
0.268562
0.302839
0.326389
0.338376
0.338376
0.326389
0.302839
0.268561
0.224769
0.173015
0.115131
0.053169
-0.0106767
-0.0741441
-0.134985
-0.191044
-0.240335
-0.281112
-0.311931
-0.331699
-0.339717
-0.3357
-0.319791
-0.292553
-0.254951
-0.208317
-0.154304
-0.0948244
-0.0319856
0.0319863
0.0948251
0.154305
0.208318
0.254951
0.292553
0.319791
0.3357
0.339717
0.331699
0.311931
0.281112
0.240335
0.191043
0.134984
0.0741435
0.010676
-0.0531697
-0.115132
-0.173015
-0.22477
-0.268561
-0.302839
-0.326389
-0.338376
-0.338376
-0.326389
-0.302839
-0.268561
-0.224769
-0.173015
-0.115132
-0.0531694
0.0106763
0.0741437
0.134985
0.191044
0.240335
0.281112
0.311931
0.331699
0.339717
0.3357
0.319791
0.292553
0.254951
0.208317
0.154304
0.0948244
0.0319856
)
;

boundaryField
{
    inlet
    {
        type            cyclic;
    }
    outlet
    {
        type            cyclic;
    }
    bottom
    {
        type            slip;
    }
    top
    {
        type            slip;
    }
    frontAndBack
    {
        type            empty;
    }
}


// ************************************************************************* //
