/*--------------------------------*- C++ -*----------------------------------*\
  =========                 |
  \\      /  F ield         | OpenFOAM: The Open Source CFD Toolbox
   \\    /   O peration     | Website:  https://openfoam.org
    \\  /    A nd           | Version:  10
     \\/     M anipulation  |
\*---------------------------------------------------------------------------*/
FoamFile
{
    format      ascii;
    class       volScalarField;
    location    "11.5";
    object      T_0;
}
// * * * * * * * * * * * * * * * * * * * * * * * * * * * * * * * * * * * * * //

dimensions      [0 0 -1 0 0 0 0];

internalField   nonuniform List<scalar> 
100
(
4.67288
13.9752
23.1535
32.1263
40.814
49.1394
57.0286
64.4116
71.2229
77.4021
82.8942
87.6505
91.6289
94.7939
97.1176
98.5793
99.1659
98.8724
97.7012
95.6629
92.7755
89.0646
84.5631
79.3111
73.3551
66.748
59.5484
51.8203
43.6322
35.0569
26.1703
17.0515
7.78138
-1.55784
-10.8832
-20.112
-29.1623
-37.9537
-46.4082
-54.4509
-62.0102
-69.0191
-75.4154
-81.1423
-86.1489
-90.3909
-93.8306
-96.4374
-98.1883
-99.0676
-99.0676
-98.1883
-96.4374
-93.8306
-90.3909
-86.1489
-81.1422
-75.4153
-69.019
-62.0101
-54.4508
-46.4082
-37.9536
-29.1622
-20.1119
-10.8831
-1.55772
7.7815
17.0516
26.1705
35.057
43.6323
51.8204
59.5485
66.7481
73.3552
79.3112
84.5632
89.0646
92.7756
95.663
97.7013
98.8724
99.166
98.5793
97.1177
94.794
91.6289
87.6506
82.8942
77.4021
71.223
64.4116
57.0286
49.1394
40.814
32.1264
23.1536
13.9752
4.67288
)
;

boundaryField
{
    xmin
    {
        type            fixedValue;
        value           uniform 0;
    }
    xmax
    {
        type            fixedValue;
        value           uniform 0;
    }
    frontAndBack
    {
        type            empty;
    }
}


// ************************************************************************* //
