/*--------------------------------*- C++ -*----------------------------------*\
| =========                 |                                                 |
| \\      /  F ield         | OpenFOAM: The Open Source CFD Toolbox           |
|  \\    /   O peration     | Version:  2406                                  |
|   \\  /    A nd           | Website:  www.openfoam.com                      |
|    \\/     M anipulation  |                                                 |
\*---------------------------------------------------------------------------*/
FoamFile
{
    version     2.0;
    format      ascii;
    arch        "LSB;label=32;scalar=64";
    class       volScalarField;
    location    "13.25";
    object      p;
}
// * * * * * * * * * * * * * * * * * * * * * * * * * * * * * * * * * * * * * //

dimensions      [0 2 -2 0 0 0 0];

internalField   nonuniform List<scalar> 
34560
(
-42.674905
-42.664984
-42.653032
-42.640559
-42.628461
-42.619293
-42.615043
-42.615168
-42.617454
-42.742413
-42.730792
-42.716319
-42.700392
-42.684043
-42.670331
-42.661491
-42.657374
-42.655778
-42.802855
-42.789963
-42.773841
-42.755878
-42.736932
-42.720044
-42.70741
-42.698618
-42.692456
-42.860719
-42.84667
-42.829003
-42.80912
-42.787791
-42.767993
-42.751806
-42.738004
-42.727059
-42.915013
-42.899969
-42.880971
-42.859396
-42.835907
-42.813373
-42.793561
-42.775023
-42.759392
-42.963515
-42.947875
-42.928007
-42.90521
-42.880019
-42.855126
-42.831707
-42.808777
-42.788996
-43.006832
-42.990655
-42.970016
-42.946163
-42.919495
-42.892585
-42.865757
-42.838865
-42.815376
-43.043959
-43.027382
-43.006151
-42.981458
-42.953584
-42.925054
-42.895195
-42.864861
-42.838089
-43.074282
-43.057422
-43.035755
-43.010411
-42.981541
-42.951514
-42.919397
-42.886262
-42.856732
-43.097218
-43.080197
-43.058253
-43.032455
-43.002845
-42.971615
-42.937862
-42.90262
-42.870957
-43.112662
-43.095513
-43.073372
-43.047272
-43.017172
-42.985116
-42.950234
-42.913637
-42.880533
-43.120498
-43.103287
-43.081039
-43.054762
-43.024382
-42.991869
-42.956347
-42.919115
-42.885277
-43.120498
-43.103286
-43.081039
-43.054762
-43.024382
-42.99187
-42.956348
-42.919116
-42.885278
-43.112662
-43.095512
-43.073372
-43.047273
-43.017172
-42.985117
-42.950235
-42.913639
-42.880534
-43.09722
-43.080199
-43.058254
-43.032456
-43.002846
-42.971616
-42.937863
-42.902622
-42.870959
-43.074284
-43.057424
-43.035757
-43.010412
-42.981542
-42.951515
-42.919399
-42.886264
-42.856734
-43.043961
-43.027383
-43.006153
-42.98146
-42.953585
-42.925055
-42.895197
-42.864863
-42.83809
-43.006834
-42.990657
-42.970018
-42.946165
-42.919496
-42.892585
-42.865757
-42.838866
-42.815376
-42.963516
-42.947876
-42.928008
-42.905211
-42.880019
-42.855126
-42.831708
-42.808777
-42.788996
-42.915013
-42.899969
-42.88097
-42.859396
-42.835908
-42.813374
-42.793562
-42.775023
-42.759392
-42.860718
-42.846669
-42.829003
-42.809121
-42.787792
-42.767994
-42.751807
-42.738005
-42.727058
-42.802855
-42.789963
-42.773842
-42.755879
-42.736934
-42.720046
-42.707411
-42.698618
-42.692455
-42.742412
-42.730791
-42.716318
-42.700392
-42.684044
-42.670333
-42.661492
-42.657375
-42.655778
-42.674906
-42.664985
-42.653033
-42.64056
-42.628462
-42.619295
-42.615045
-42.615169
-42.617453
-39.810128
-39.809482
-39.808708
-39.807995
-39.807213
-39.806025
-39.803913
-39.800395
-39.796207
-39.815353
-39.814644
-39.813723
-39.812707
-39.811366
-39.809218
-39.805724
-39.800716
-39.796135
-39.820036
-39.819281
-39.818278
-39.817118
-39.815439
-39.81257
-39.807848
-39.801754
-39.796814
-39.824714
-39.823921
-39.822823
-39.821467
-39.819382
-39.815734
-39.809713
-39.802973
-39.797157
-39.829123
-39.828317
-39.827142
-39.825581
-39.823089
-39.81862
-39.811407
-39.804211
-39.797214
-39.832948
-39.832166
-39.830963
-39.829278
-39.82642
-39.82109
-39.812815
-39.805342
-39.797148
-39.836278
-39.83551
-39.834283
-39.832504
-39.829258
-39.823044
-39.814204
-39.806268
-39.797011
-39.839075
-39.838331
-39.837094
-39.835204
-39.831559
-39.824468
-39.815334
-39.80693
-39.796846
-39.841355
-39.84064
-39.8394
-39.837409
-39.833448
-39.825813
-39.816501
-39.807428
-39.796697
-39.843059
-39.842375
-39.84114
-39.839076
-39.834876
-39.826862
-39.817325
-39.807773
-39.796585
-39.844185
-39.843523
-39.842292
-39.840183
-39.835818
-39.827547
-39.817887
-39.808004
-39.796523
-39.844796
-39.844142
-39.842911
-39.840777
-39.836325
-39.827921
-39.818251
-39.808151
-39.796518
-39.844796
-39.844142
-39.842911
-39.840777
-39.836325
-39.827921
-39.818251
-39.808151
-39.796518
-39.844185
-39.843523
-39.842293
-39.840183
-39.835819
-39.827547
-39.817888
-39.808004
-39.796523
-39.843059
-39.842376
-39.84114
-39.839077
-39.834876
-39.826863
-39.817326
-39.807773
-39.796586
-39.841355
-39.840641
-39.839401
-39.837409
-39.833449
-39.825814
-39.816502
-39.807429
-39.796698
-39.839076
-39.838332
-39.837095
-39.835205
-39.83156
-39.824468
-39.815335
-39.806931
-39.796847
-39.83628
-39.835511
-39.834284
-39.832505
-39.829259
-39.823044
-39.814205
-39.806269
-39.797012
-39.83295
-39.832167
-39.830964
-39.82928
-39.826421
-39.821091
-39.812816
-39.805343
-39.797149
-39.829125
-39.828319
-39.827143
-39.825582
-39.823091
-39.818622
-39.811408
-39.804212
-39.797215
-39.824716
-39.823923
-39.822825
-39.821469
-39.819385
-39.815736
-39.809714
-39.802975
-39.797158
-39.820038
-39.819283
-39.81828
-39.81712
-39.815441
-39.812572
-39.807849
-39.801755
-39.796815
-39.815354
-39.814646
-39.813725
-39.812709
-39.811368
-39.80922
-39.805725
-39.800716
-39.796134
-39.81013
-39.809484
-39.80871
-39.807997
-39.807216
-39.806027
-39.803914
-39.800395
-39.796205
-38.56412
-38.56397
-38.563755
-38.563433
-38.563194
-38.563388
-38.564299
-38.565987
-38.567581
-38.570531
-38.570321
-38.569965
-38.56937
-38.56875
-38.568504
-38.568928
-38.570027
-38.570916
-38.57627
-38.576029
-38.575605
-38.574877
-38.574064
-38.573573
-38.573711
-38.574511
-38.574421
-38.581491
-38.581217
-38.58073
-38.57989
-38.578926
-38.578226
-38.57807
-38.57833
-38.577326
-38.586229
-38.585929
-38.585392
-38.584454
-38.583306
-38.582372
-38.581915
-38.581106
-38.579721
-38.590388
-38.59009
-38.589531
-38.588495
-38.587177
-38.586062
-38.585504
-38.58357
-38.581755
-38.593952
-38.593656
-38.593072
-38.591945
-38.5905
-38.589196
-38.588312
-38.585637
-38.583434
-38.596895
-38.596602
-38.595997
-38.594806
-38.593259
-38.591775
-38.590506
-38.587277
-38.584759
-38.599206
-38.59892
-38.598305
-38.597076
-38.595447
-38.59378
-38.591972
-38.588484
-38.585751
-38.600925
-38.600647
-38.600026
-38.598764
-38.597069
-38.59526
-38.592931
-38.589316
-38.586444
-38.602066
-38.60179
-38.601164
-38.599877
-38.598136
-38.596234
-38.593463
-38.589821
-38.586873
-38.602626
-38.602353
-38.601726
-38.600427
-38.598664
-38.596723
-38.593736
-38.59006
-38.587074
-38.602626
-38.602353
-38.601726
-38.600427
-38.598664
-38.596723
-38.593736
-38.59006
-38.587074
-38.602066
-38.60179
-38.601164
-38.599877
-38.598136
-38.596234
-38.593463
-38.589821
-38.586873
-38.600925
-38.600647
-38.600026
-38.598764
-38.597069
-38.59526
-38.592931
-38.589316
-38.586444
-38.599206
-38.59892
-38.598304
-38.597076
-38.595447
-38.59378
-38.591972
-38.588484
-38.585751
-38.596895
-38.596602
-38.595997
-38.594806
-38.593259
-38.591776
-38.590507
-38.587278
-38.584759
-38.593952
-38.593657
-38.593073
-38.591945
-38.590501
-38.589197
-38.588313
-38.585638
-38.583435
-38.590389
-38.590091
-38.589532
-38.588496
-38.587178
-38.586063
-38.585505
-38.583571
-38.581757
-38.58623
-38.58593
-38.585394
-38.584455
-38.583307
-38.582373
-38.581916
-38.581106
-38.579722
-38.581493
-38.581218
-38.580731
-38.579891
-38.578927
-38.578227
-38.578071
-38.578331
-38.577328
-38.576271
-38.57603
-38.575606
-38.574878
-38.574065
-38.573574
-38.573712
-38.574512
-38.574423
-38.570532
-38.570323
-38.569966
-38.569371
-38.568751
-38.568504
-38.568929
-38.570028
-38.570916
-38.564121
-38.563971
-38.563756
-38.563434
-38.563195
-38.563388
-38.5643
-38.565988
-38.567581
-36.545923
-36.545808
-36.545714
-36.54572
-36.545826
-36.545949
-36.545951
-36.545673
-36.544907
-36.54801
-36.547855
-36.547692
-36.547584
-36.547502
-36.547342
-36.546937
-36.546169
-36.545114
-36.550311
-36.550112
-36.549897
-36.549733
-36.549574
-36.549295
-36.548699
-36.547689
-36.546543
-36.552617
-36.552373
-36.552105
-36.551889
-36.55168
-36.55133
-36.550603
-36.549349
-36.548062
-36.554836
-36.554555
-36.554241
-36.55398
-36.553725
-36.553307
-36.552481
-36.551155
-36.549528
-36.556877
-36.556573
-36.556232
-36.555939
-36.555642
-36.555172
-36.554264
-36.55284
-36.550914
-36.558674
-36.558352
-36.557989
-36.557674
-36.557359
-36.556857
-36.555877
-36.554368
-36.552186
-36.5602
-36.559866
-36.559489
-36.559163
-36.558842
-36.558317
-36.557254
-36.555708
-36.553308
-36.561443
-36.561101
-36.560715
-36.560384
-36.560061
-36.559514
-36.55831
-36.556822
-36.554248
-36.562392
-36.562046
-36.561656
-36.561324
-36.561006
-36.560464
-36.559263
-36.55771
-36.554984
-36.563037
-36.562688
-36.562296
-36.561966
-36.561655
-36.561133
-36.560027
-36.558335
-36.555492
-36.563364
-36.563014
-36.56262
-36.562291
-36.561984
-36.561473
-36.560403
-36.558655
-36.555753
-36.563364
-36.563014
-36.56262
-36.562291
-36.561984
-36.561473
-36.560403
-36.558655
-36.555753
-36.563037
-36.562689
-36.562297
-36.561966
-36.561655
-36.561134
-36.560027
-36.558335
-36.555492
-36.562392
-36.562046
-36.561657
-36.561325
-36.561007
-36.560464
-36.559263
-36.55771
-36.554985
-36.561443
-36.561101
-36.560716
-36.560384
-36.560062
-36.559514
-36.558311
-36.556823
-36.554249
-36.5602
-36.559866
-36.55949
-36.559164
-36.558842
-36.558318
-36.557255
-36.555709
-36.553308
-36.558675
-36.558352
-36.557989
-36.557674
-36.557359
-36.556857
-36.555878
-36.554368
-36.552187
-36.556877
-36.556573
-36.556232
-36.555939
-36.555642
-36.555173
-36.554264
-36.552841
-36.550915
-36.554837
-36.554555
-36.554242
-36.55398
-36.553725
-36.553308
-36.552481
-36.551156
-36.549529
-36.552617
-36.552373
-36.552105
-36.551889
-36.55168
-36.55133
-36.550603
-36.54935
-36.548064
-36.550311
-36.550112
-36.549898
-36.549733
-36.549574
-36.549295
-36.548699
-36.54769
-36.546545
-36.54801
-36.547855
-36.547692
-36.547584
-36.547502
-36.547342
-36.546937
-36.54617
-36.545117
-36.545923
-36.545808
-36.545714
-36.54572
-36.545826
-36.545949
-36.545951
-36.545674
-36.544909
-34.819558
-34.81963
-34.819721
-34.81982
-34.819944
-34.820119
-34.82036
-34.820643
-34.820667
-34.820476
-34.820536
-34.820595
-34.820628
-34.820646
-34.820668
-34.820695
-34.820676
-34.820469
-34.821443
-34.82149
-34.821526
-34.82152
-34.821481
-34.821426
-34.821355
-34.821226
-34.820991
-34.822285
-34.822317
-34.822332
-34.822299
-34.822224
-34.822128
-34.822
-34.821791
-34.821471
-34.822997
-34.823019
-34.823018
-34.822957
-34.822846
-34.822711
-34.822523
-34.822216
-34.821798
-34.823602
-34.823616
-34.8236
-34.82352
-34.823389
-34.823212
-34.822952
-34.822541
-34.822028
-34.82411
-34.824117
-34.824091
-34.823995
-34.823836
-34.823618
-34.823293
-34.822786
-34.822188
-34.824523
-34.824526
-34.824489
-34.824376
-34.824192
-34.823941
-34.823557
-34.822964
-34.822295
-34.824843
-34.824841
-34.824796
-34.82467
-34.824469
-34.824188
-34.823753
-34.823089
-34.822362
-34.825084
-34.825077
-34.825026
-34.82489
-34.824675
-34.824369
-34.82389
-34.823173
-34.822401
-34.825247
-34.825238
-34.825182
-34.825038
-34.824812
-34.824486
-34.823976
-34.823222
-34.82242
-34.825323
-34.825313
-34.825256
-34.825109
-34.824877
-34.824541
-34.824015
-34.823243
-34.822426
-34.825323
-34.825313
-34.825256
-34.825109
-34.824877
-34.824541
-34.824015
-34.823243
-34.822426
-34.825248
-34.825238
-34.825182
-34.825038
-34.824812
-34.824486
-34.823976
-34.823222
-34.82242
-34.825084
-34.825078
-34.825026
-34.82489
-34.824675
-34.824369
-34.823891
-34.823173
-34.822401
-34.824844
-34.824841
-34.824796
-34.82467
-34.824469
-34.824188
-34.823754
-34.82309
-34.822363
-34.824524
-34.824526
-34.82449
-34.824376
-34.824193
-34.823941
-34.823557
-34.822965
-34.822296
-34.82411
-34.824118
-34.824091
-34.823995
-34.823836
-34.823619
-34.823293
-34.822786
-34.822189
-34.823602
-34.823617
-34.8236
-34.823521
-34.823389
-34.823212
-34.822952
-34.822542
-34.822029
-34.822997
-34.82302
-34.823018
-34.822957
-34.822846
-34.822712
-34.822524
-34.822217
-34.8218
-34.822285
-34.822317
-34.822333
-34.822299
-34.822224
-34.822128
-34.822
-34.821791
-34.821473
-34.821444
-34.821491
-34.821526
-34.82152
-34.821481
-34.821426
-34.821355
-34.821227
-34.820993
-34.820476
-34.820537
-34.820595
-34.820628
-34.820647
-34.820668
-34.820695
-34.820677
-34.820472
-34.819559
-34.819631
-34.819721
-34.81982
-34.819945
-34.82012
-34.820362
-34.820645
-34.82067
-33.01229
-33.012326
-33.012385
-33.012476
-33.012601
-33.01275
-33.012906
-33.013056
-33.01306
-33.012974
-33.013004
-33.013047
-33.013106
-33.013175
-33.013235
-33.013257
-33.013219
-33.013091
-33.013768
-33.013791
-33.013823
-33.013864
-33.013905
-33.01392
-33.013882
-33.013781
-33.013651
-33.01453
-33.014543
-33.014563
-33.014591
-33.014615
-33.014611
-33.014545
-33.014409
-33.014246
-33.015248
-33.01525
-33.015257
-33.015269
-33.015275
-33.01525
-33.015158
-33.014986
-33.014784
-33.015913
-33.015906
-33.015901
-33.015899
-33.015888
-33.015844
-33.015725
-33.015517
-33.015273
-33.016503
-33.016489
-33.016475
-33.016462
-33.016439
-33.016378
-33.016232
-33.01599
-33.015703
-33.017016
-33.016997
-33.016976
-33.016955
-33.016921
-33.01684
-33.016669
-33.016397
-33.016069
-33.017437
-33.017415
-33.017391
-33.017363
-33.017316
-33.017219
-33.017028
-33.016731
-33.016367
-33.017755
-33.017731
-33.017704
-33.017671
-33.017615
-33.017508
-33.017303
-33.016987
-33.016593
-33.017968
-33.017943
-33.017913
-33.017877
-33.017816
-33.017702
-33.017488
-33.017159
-33.016744
-33.018072
-33.018047
-33.018017
-33.017978
-33.017916
-33.017798
-33.01758
-33.017246
-33.01682
-33.018072
-33.018047
-33.018017
-33.017978
-33.017916
-33.017798
-33.01758
-33.017246
-33.01682
-33.017968
-33.017943
-33.017913
-33.017877
-33.017816
-33.017702
-33.017488
-33.017159
-33.016745
-33.017755
-33.017731
-33.017704
-33.017671
-33.017615
-33.017508
-33.017303
-33.016987
-33.016593
-33.017437
-33.017415
-33.017391
-33.017363
-33.017316
-33.017219
-33.017028
-33.016732
-33.016367
-33.017016
-33.016997
-33.016977
-33.016955
-33.016921
-33.01684
-33.016669
-33.016397
-33.016069
-33.016503
-33.016489
-33.016475
-33.016462
-33.016439
-33.016378
-33.016232
-33.01599
-33.015703
-33.015913
-33.015906
-33.015901
-33.015899
-33.015888
-33.015844
-33.015725
-33.015517
-33.015273
-33.015249
-33.015251
-33.015257
-33.015269
-33.015275
-33.01525
-33.015158
-33.014986
-33.014784
-33.014531
-33.014543
-33.014563
-33.014592
-33.014615
-33.014611
-33.014545
-33.014409
-33.014246
-33.013769
-33.013791
-33.013823
-33.013865
-33.013905
-33.013921
-33.013883
-33.013782
-33.013651
-33.012975
-33.013005
-33.013047
-33.013107
-33.013176
-33.013235
-33.013258
-33.01322
-33.01309
-33.012291
-33.012327
-33.012386
-33.012477
-33.012602
-33.01275
-33.012907
-33.013056
-33.013059
-31.223189
-31.223213
-31.223247
-31.22329
-31.223342
-31.223397
-31.223451
-31.223497
-31.22346
-31.22352
-31.22354
-31.223564
-31.223586
-31.223601
-31.223599
-31.223568
-31.223501
-31.223386
-31.223896
-31.223912
-31.223929
-31.223939
-31.223935
-31.223906
-31.223841
-31.223742
-31.223639
-31.224247
-31.224258
-31.224267
-31.224269
-31.224256
-31.224214
-31.224134
-31.224022
-31.223913
-31.224569
-31.224576
-31.224579
-31.224573
-31.224548
-31.224492
-31.224397
-31.224269
-31.224144
-31.224859
-31.224862
-31.22486
-31.224847
-31.224811
-31.224743
-31.224635
-31.224491
-31.224345
-31.225105
-31.225105
-31.225099
-31.22508
-31.225037
-31.224961
-31.224842
-31.224684
-31.224518
-31.225313
-31.225311
-31.2253
-31.225276
-31.225227
-31.225145
-31.225017
-31.224846
-31.224662
-31.22548
-31.225475
-31.225461
-31.225432
-31.22538
-31.225293
-31.225158
-31.224976
-31.224776
-31.225607
-31.2256
-31.225583
-31.225551
-31.225496
-31.225406
-31.225265
-31.225074
-31.224862
-31.225693
-31.225684
-31.225666
-31.225632
-31.225575
-31.225482
-31.225337
-31.22514
-31.224918
-31.225736
-31.225726
-31.225707
-31.225672
-31.225614
-31.225519
-31.225373
-31.225173
-31.224947
-31.225736
-31.225726
-31.225707
-31.225672
-31.225614
-31.225519
-31.225373
-31.225173
-31.224947
-31.225693
-31.225685
-31.225666
-31.225632
-31.225575
-31.225482
-31.225337
-31.22514
-31.224918
-31.225607
-31.2256
-31.225583
-31.225551
-31.225496
-31.225406
-31.225265
-31.225074
-31.224862
-31.22548
-31.225475
-31.225461
-31.225432
-31.22538
-31.225293
-31.225158
-31.224976
-31.224776
-31.225314
-31.225311
-31.2253
-31.225276
-31.225227
-31.225145
-31.225017
-31.224846
-31.224662
-31.225106
-31.225106
-31.225099
-31.22508
-31.225037
-31.224961
-31.224842
-31.224684
-31.224518
-31.224859
-31.224862
-31.22486
-31.224847
-31.224811
-31.224743
-31.224635
-31.224491
-31.224345
-31.22457
-31.224576
-31.22458
-31.224573
-31.224548
-31.224492
-31.224397
-31.22427
-31.224144
-31.224247
-31.224258
-31.224267
-31.22427
-31.224257
-31.224214
-31.224134
-31.224022
-31.223913
-31.223896
-31.223913
-31.223929
-31.223939
-31.223936
-31.223906
-31.223841
-31.223742
-31.22364
-31.22352
-31.223541
-31.223565
-31.223586
-31.223601
-31.223599
-31.223569
-31.223502
-31.223387
-31.223189
-31.223214
-31.223247
-31.22329
-31.223343
-31.223398
-31.223452
-31.223498
-31.223461
-29.440288
-29.440301
-29.440321
-29.440347
-29.440382
-29.440424
-29.440474
-29.440534
-29.440555
-29.440492
-29.440503
-29.440518
-29.440534
-29.440549
-29.440562
-29.440569
-29.440567
-29.440543
-29.440722
-29.440732
-29.440743
-29.440752
-29.440758
-29.440758
-29.440748
-29.440729
-29.440709
-29.440938
-29.440945
-29.440953
-29.440959
-29.44096
-29.440954
-29.440938
-29.440914
-29.44089
-29.441141
-29.441145
-29.441149
-29.44115
-29.441146
-29.441135
-29.441113
-29.441082
-29.441051
-29.441328
-29.441329
-29.44133
-29.441326
-29.441318
-29.441302
-29.441274
-29.441236
-29.441198
-29.441495
-29.441494
-29.441491
-29.441483
-29.441471
-29.441451
-29.441418
-29.441374
-29.441327
-29.441641
-29.441637
-29.441631
-29.441621
-29.441605
-29.44158
-29.441543
-29.441492
-29.441437
-29.441763
-29.441757
-29.441749
-29.441737
-29.441717
-29.441688
-29.441646
-29.44159
-29.441527
-29.441857
-29.44185
-29.441841
-29.441826
-29.441803
-29.441771
-29.441726
-29.441665
-29.441594
-29.441921
-29.441913
-29.441903
-29.441886
-29.441861
-29.441828
-29.44178
-29.441715
-29.44164
-29.441952
-29.441945
-29.441934
-29.441916
-29.441891
-29.441856
-29.441807
-29.441741
-29.441663
-29.441952
-29.441945
-29.441934
-29.441916
-29.441891
-29.441856
-29.441807
-29.441741
-29.441663
-29.441921
-29.441914
-29.441903
-29.441886
-29.441862
-29.441828
-29.44178
-29.441715
-29.44164
-29.441857
-29.441851
-29.441841
-29.441826
-29.441803
-29.441771
-29.441726
-29.441665
-29.441595
-29.441763
-29.441758
-29.44175
-29.441737
-29.441717
-29.441688
-29.441647
-29.44159
-29.441527
-29.441641
-29.441637
-29.441631
-29.441621
-29.441605
-29.44158
-29.441543
-29.441493
-29.441438
-29.441495
-29.441494
-29.441491
-29.441483
-29.441471
-29.441451
-29.441419
-29.441374
-29.441328
-29.441328
-29.441329
-29.44133
-29.441326
-29.441318
-29.441302
-29.441274
-29.441237
-29.441199
-29.441141
-29.441145
-29.441149
-29.44115
-29.441146
-29.441135
-29.441113
-29.441083
-29.441052
-29.440939
-29.440945
-29.440953
-29.440959
-29.44096
-29.440954
-29.440938
-29.440914
-29.440891
-29.440722
-29.440732
-29.440743
-29.440752
-29.440758
-29.440757
-29.440748
-29.44073
-29.440711
-29.440492
-29.440503
-29.440518
-29.440533
-29.440549
-29.440562
-29.440569
-29.440568
-29.440544
-29.440288
-29.440301
-29.440321
-29.440347
-29.440381
-29.440423
-29.440474
-29.440534
-29.440556
-27.653219
-27.653224
-27.653232
-27.653243
-27.653259
-27.653276
-27.653295
-27.653314
-27.65331
-27.653336
-27.65334
-27.653344
-27.653349
-27.653353
-27.653353
-27.653347
-27.653331
-27.653302
-27.653465
-27.653467
-27.65347
-27.653471
-27.65347
-27.653463
-27.653446
-27.653422
-27.653398
-27.653587
-27.653588
-27.653588
-27.653588
-27.653584
-27.653573
-27.653554
-27.653527
-27.653503
-27.653701
-27.6537
-27.653699
-27.653696
-27.653689
-27.653676
-27.653653
-27.653623
-27.653595
-27.653804
-27.653802
-27.6538
-27.653795
-27.653786
-27.65377
-27.653744
-27.653711
-27.653676
-27.653894
-27.653891
-27.653887
-27.653881
-27.653871
-27.653853
-27.653826
-27.653788
-27.653747
-27.65397
-27.653967
-27.653962
-27.653955
-27.653943
-27.653925
-27.653896
-27.653855
-27.653808
-27.654033
-27.654028
-27.654023
-27.654014
-27.654003
-27.653984
-27.653953
-27.653909
-27.653856
-27.65408
-27.654076
-27.654069
-27.65406
-27.654048
-27.654029
-27.653997
-27.653951
-27.653894
-27.654112
-27.654107
-27.6541
-27.654091
-27.654079
-27.654059
-27.654027
-27.653979
-27.653919
-27.654128
-27.654123
-27.654116
-27.654107
-27.654094
-27.654074
-27.654042
-27.653993
-27.653931
-27.654128
-27.654123
-27.654116
-27.654107
-27.654094
-27.654074
-27.654042
-27.653993
-27.653931
-27.654112
-27.654107
-27.654101
-27.654091
-27.654079
-27.654059
-27.654027
-27.653979
-27.653919
-27.65408
-27.654076
-27.654069
-27.65406
-27.654048
-27.654029
-27.653997
-27.653951
-27.653894
-27.654033
-27.654029
-27.654023
-27.654015
-27.654003
-27.653984
-27.653953
-27.653909
-27.653857
-27.653971
-27.653967
-27.653962
-27.653955
-27.653944
-27.653925
-27.653896
-27.653855
-27.653808
-27.653894
-27.653892
-27.653888
-27.653881
-27.653871
-27.653854
-27.653826
-27.653789
-27.653748
-27.653805
-27.653803
-27.6538
-27.653795
-27.653786
-27.65377
-27.653745
-27.653711
-27.653677
-27.653702
-27.653701
-27.653699
-27.653696
-27.653689
-27.653676
-27.653653
-27.653624
-27.653596
-27.653588
-27.653588
-27.653588
-27.653588
-27.653584
-27.653573
-27.653554
-27.653528
-27.653504
-27.653465
-27.653467
-27.653469
-27.653471
-27.65347
-27.653463
-27.653446
-27.653422
-27.653399
-27.653336
-27.65334
-27.653344
-27.653349
-27.653353
-27.653353
-27.653346
-27.653331
-27.653302
-27.653219
-27.653224
-27.653231
-27.653243
-27.653258
-27.653276
-27.653294
-27.653313
-27.65331
-25.869738
-25.869741
-25.869746
-25.869752
-25.86976
-25.869771
-25.869785
-25.869802
-25.869808
-25.869801
-25.869803
-25.869806
-25.869809
-25.869812
-25.869814
-25.869815
-25.869813
-25.869804
-25.869869
-25.869871
-25.869873
-25.869874
-25.869874
-25.869872
-25.869868
-25.869862
-25.869855
-25.869933
-25.869934
-25.869935
-25.869935
-25.869933
-25.86993
-25.869925
-25.869917
-25.86991
-25.869993
-25.869993
-25.869992
-25.869991
-25.869989
-25.869984
-25.869977
-25.869968
-25.869959
-25.870047
-25.870047
-25.870045
-25.870043
-25.870039
-25.870034
-25.870026
-25.870015
-25.870003
-25.870096
-25.870095
-25.870093
-25.87009
-25.870085
-25.870079
-25.870069
-25.870057
-25.870043
-25.870138
-25.870137
-25.870134
-25.87013
-25.870125
-25.870117
-25.870107
-25.870093
-25.870076
-25.870173
-25.870171
-25.870168
-25.870164
-25.870157
-25.870149
-25.870138
-25.870122
-25.870103
-25.8702
-25.870197
-25.870194
-25.870189
-25.870182
-25.870174
-25.870162
-25.870145
-25.870124
-25.870218
-25.870215
-25.870212
-25.870206
-25.870199
-25.87019
-25.870178
-25.87016
-25.870138
-25.870227
-25.870224
-25.87022
-25.870215
-25.870208
-25.870199
-25.870186
-25.870168
-25.870145
-25.870227
-25.870224
-25.87022
-25.870215
-25.870208
-25.870199
-25.870186
-25.870168
-25.870145
-25.870218
-25.870215
-25.870212
-25.870206
-25.870199
-25.87019
-25.870178
-25.870161
-25.870138
-25.8702
-25.870198
-25.870194
-25.870189
-25.870182
-25.870174
-25.870162
-25.870145
-25.870124
-25.870173
-25.870171
-25.870168
-25.870164
-25.870158
-25.870149
-25.870138
-25.870123
-25.870104
-25.870139
-25.870137
-25.870134
-25.87013
-25.870125
-25.870117
-25.870107
-25.870093
-25.870077
-25.870096
-25.870095
-25.870093
-25.87009
-25.870085
-25.870079
-25.87007
-25.870057
-25.870044
-25.870047
-25.870047
-25.870046
-25.870043
-25.87004
-25.870034
-25.870026
-25.870016
-25.870004
-25.869993
-25.869993
-25.869993
-25.869991
-25.869989
-25.869984
-25.869978
-25.869969
-25.86996
-25.869933
-25.869934
-25.869935
-25.869935
-25.869934
-25.869931
-25.869925
-25.869918
-25.86991
-25.869869
-25.869871
-25.869873
-25.869874
-25.869874
-25.869872
-25.869868
-25.869862
-25.869855
-25.869801
-25.869804
-25.869806
-25.869809
-25.869812
-25.869814
-25.869815
-25.869813
-25.869804
-25.869738
-25.869741
-25.869745
-25.869752
-25.86976
-25.869771
-25.869785
-25.869802
-25.869808
-24.084979
-24.08498
-24.084982
-24.084985
-24.084989
-24.084994
-24.085
-24.085006
-24.085007
-24.085016
-24.085017
-24.085017
-24.085018
-24.085019
-24.085019
-24.085018
-24.085014
-24.085007
-24.085055
-24.085055
-24.085055
-24.085055
-24.085055
-24.085053
-24.085049
-24.085043
-24.085037
-24.085092
-24.085092
-24.085092
-24.085091
-24.08509
-24.085087
-24.085082
-24.085075
-24.085069
-24.085127
-24.085126
-24.085125
-24.085124
-24.085122
-24.085118
-24.085113
-24.085105
-24.085098
-24.085158
-24.085157
-24.085155
-24.085154
-24.085151
-24.085147
-24.085141
-24.085132
-24.085123
-24.085185
-24.085184
-24.085182
-24.08518
-24.085177
-24.085173
-24.085166
-24.085156
-24.085145
-24.085208
-24.085207
-24.085205
-24.085203
-24.085199
-24.085195
-24.085187
-24.085177
-24.085164
-24.085227
-24.085226
-24.085224
-24.085221
-24.085218
-24.085213
-24.085205
-24.085194
-24.08518
-24.085242
-24.08524
-24.085238
-24.085235
-24.085232
-24.085227
-24.085219
-24.085207
-24.085191
-24.085252
-24.08525
-24.085248
-24.085245
-24.085241
-24.085236
-24.085228
-24.085215
-24.085199
-24.085257
-24.085255
-24.085252
-24.08525
-24.085246
-24.085241
-24.085233
-24.08522
-24.085203
-24.085257
-24.085255
-24.085253
-24.08525
-24.085246
-24.085241
-24.085233
-24.08522
-24.085203
-24.085252
-24.08525
-24.085248
-24.085245
-24.085241
-24.085236
-24.085228
-24.085216
-24.085199
-24.085242
-24.08524
-24.085238
-24.085235
-24.085232
-24.085227
-24.085219
-24.085207
-24.085191
-24.085227
-24.085226
-24.085224
-24.085221
-24.085218
-24.085213
-24.085205
-24.085194
-24.08518
-24.085208
-24.085207
-24.085205
-24.085203
-24.0852
-24.085195
-24.085187
-24.085177
-24.085165
-24.085185
-24.085184
-24.085182
-24.08518
-24.085177
-24.085173
-24.085166
-24.085156
-24.085146
-24.085158
-24.085157
-24.085156
-24.085154
-24.085151
-24.085147
-24.085141
-24.085132
-24.085124
-24.085127
-24.085126
-24.085125
-24.085124
-24.085122
-24.085118
-24.085112
-24.085105
-24.085098
-24.085092
-24.085092
-24.085092
-24.085091
-24.085089
-24.085087
-24.085082
-24.085076
-24.08507
-24.085055
-24.085055
-24.085055
-24.085055
-24.085055
-24.085053
-24.085049
-24.085043
-24.085038
-24.085016
-24.085017
-24.085017
-24.085018
-24.085019
-24.085019
-24.085018
-24.085014
-24.085008
-24.084979
-24.08498
-24.084982
-24.084985
-24.084989
-24.084994
-24.085
-24.085006
-24.085007
-22.301023
-22.301024
-22.301025
-22.301027
-22.301029
-22.301031
-22.301035
-22.301039
-22.30104
-22.301043
-22.301043
-22.301044
-22.301044
-22.301045
-22.301045
-22.301045
-22.301044
-22.30104
-22.301063
-22.301063
-22.301063
-22.301063
-22.301063
-22.301062
-22.301061
-22.301059
-22.301056
-22.301082
-22.301082
-22.301082
-22.301081
-22.301081
-22.30108
-22.301078
-22.301075
-22.301073
-22.301099
-22.301099
-22.301099
-22.301098
-22.301097
-22.301096
-22.301094
-22.301091
-22.301088
-22.301115
-22.301115
-22.301114
-22.301113
-22.301112
-22.30111
-22.301108
-22.301105
-22.301101
-22.301129
-22.301129
-22.301128
-22.301127
-22.301125
-22.301124
-22.301121
-22.301117
-22.301113
-22.301141
-22.30114
-22.30114
-22.301139
-22.301137
-22.301135
-22.301132
-22.301128
-22.301123
-22.301151
-22.30115
-22.301149
-22.301148
-22.301146
-22.301144
-22.301141
-22.301137
-22.301131
-22.301158
-22.301158
-22.301157
-22.301155
-22.301153
-22.301151
-22.301148
-22.301143
-22.301137
-22.301163
-22.301162
-22.301161
-22.30116
-22.301158
-22.301156
-22.301153
-22.301148
-22.301141
-22.301166
-22.301165
-22.301164
-22.301163
-22.301161
-22.301159
-22.301155
-22.30115
-22.301143
-22.301166
-22.301165
-22.301164
-22.301163
-22.301161
-22.301159
-22.301155
-22.30115
-22.301143
-22.301163
-22.301163
-22.301162
-22.30116
-22.301158
-22.301156
-22.301153
-22.301148
-22.301141
-22.301158
-22.301158
-22.301157
-22.301155
-22.301154
-22.301151
-22.301148
-22.301143
-22.301137
-22.301151
-22.30115
-22.301149
-22.301148
-22.301146
-22.301144
-22.301141
-22.301137
-22.301131
-22.301141
-22.30114
-22.30114
-22.301139
-22.301137
-22.301135
-22.301132
-22.301128
-22.301123
-22.301129
-22.301129
-22.301128
-22.301127
-22.301125
-22.301124
-22.301121
-22.301117
-22.301113
-22.301115
-22.301115
-22.301114
-22.301113
-22.301112
-22.30111
-22.301108
-22.301105
-22.301101
-22.301099
-22.301099
-22.301099
-22.301098
-22.301097
-22.301096
-22.301094
-22.301091
-22.301088
-22.301082
-22.301082
-22.301081
-22.301081
-22.301081
-22.301079
-22.301078
-22.301075
-22.301073
-22.301063
-22.301063
-22.301063
-22.301063
-22.301063
-22.301062
-22.301061
-22.301059
-22.301056
-22.301042
-22.301043
-22.301043
-22.301044
-22.301044
-22.301044
-22.301044
-22.301044
-22.301041
-22.301023
-22.301024
-22.301025
-22.301026
-22.301028
-22.301031
-22.301034
-22.301039
-22.30104
-20.51682
-20.51682
-20.516821
-20.516821
-20.516822
-20.516824
-20.516825
-20.516827
-20.516827
-20.516831
-20.516831
-20.516831
-20.516831
-20.516831
-20.516831
-20.516831
-20.51683
-20.516828
-20.516842
-20.516842
-20.516842
-20.516842
-20.516841
-20.516841
-20.51684
-20.516838
-20.516836
-20.516852
-20.516852
-20.516852
-20.516852
-20.516851
-20.51685
-20.516849
-20.516847
-20.516845
-20.516862
-20.516862
-20.516861
-20.516861
-20.51686
-20.516859
-20.516858
-20.516856
-20.516854
-20.516871
-20.51687
-20.51687
-20.516869
-20.516869
-20.516868
-20.516866
-20.516864
-20.516861
-20.516878
-20.516878
-20.516878
-20.516877
-20.516876
-20.516875
-20.516873
-20.516871
-20.516868
-20.516885
-20.516885
-20.516884
-20.516883
-20.516883
-20.516881
-20.516879
-20.516877
-20.516873
-20.516891
-20.51689
-20.51689
-20.516889
-20.516888
-20.516886