/*--------------------------------*- C++ -*----------------------------------*\
| =========                 |                                                 |
| \\      /  F ield         | OpenFOAM: The Open Source CFD Toolbox           |
|  \\    /   O peration     | Version:  2406                                  |
|   \\  /    A nd           | Website:  www.openfoam.com                      |
|    \\/     M anipulation  |                                                 |
\*---------------------------------------------------------------------------*/
FoamFile
{
    version     2.0;
    format      ascii;
    arch        "LSB;label=32;scalar=64";
    class       surfaceScalarField;
    location    "13.25";
    object      phi;
}
// * * * * * * * * * * * * * * * * * * * * * * * * * * * * * * * * * * * * * //

dimensions      [0 3 -1 0 0 0 0];

oriented        oriented;

internalField   nonuniform List<scalar> 
101088
(
-4.0456842e-05
1.889285e-05
-1.2064555e-05
-1.6513681e-05
-7.0483203e-05
8.0841644e-05
-4.9812458e-05
-7.1171398e-05
-7.4798455e-05
0.00019234277
-0.00011352537
-0.00016993872
-4.1491487e-05
0.00035982264
-0.00019919564
-0.00031862476
2.2520537e-05
0.0005677635
-0.00028222623
-0.00050377485
8.3419549e-05
0.0007767566
-0.0003257606
-0.00068956034
9.4976574e-05
0.00094004409
-0.00030830482
-0.00083105062
3.4064508e-05
0.0010240217
-0.00024516139
-0.00089815816
0.0010156118
-0.00017201254
-0.00088250894
-8.391927e-05
-4.8957277e-05
2.089528e-05
-1.4555018e-05
-8.3339736e-05
8.8597508e-05
-5.93367e-05
-8.3275584e-05
0.00020897116
-0.00013346046
-3.3393667e-05
0.00038794964
-0.00023044596
5.6629496e-05
0.00060949152
-0.00032038916
0.00014458767
0.0008335793
-0.0003627512
0.00017811406
0.0010117939
-0.00033726024
0.00013530314
0.0011049644
-0.00026357552
0.0010962567
-0.00018652465
4.1234297e-05
-5.7353873e-05
2.2250587e-05
-1.6983976e-05
-9.5638225e-05
9.3532094e-05
-6.8476487e-05
-9.14751e-05
0.00021891213
-0.00015214848
-2.8290117e-05
0.00040346141
-0.00025855085
8.1457351e-05
0.00063034049
-0.00035282486
0.0001889022
0.00086038556
-0.00039096883
0.00023743698
0.0010449839
-0.00035547619
0.00021012794
0.0011396863
-0.00027475599
0.0011276794
-0.00019512489
0.00013473868
-6.5496363e-05
2.2778668e-05
-1.9212559e-05
-0.0001075767
9.5047399e-05
-7.668209e-05
-9.9809253e-05
0.00022098331
-0.00016844617
-2.5299498e-05
0.00040486094
-0.0002820487
9.9603367e-05
0.00062945642
-0.00037811206
0.00021980059
0.00085715802
-0.00040995237
0.00027576311
0.0010393546
-0.00036254232
0.0002586574
0.0011300978
-0.00027857371
0.0011148337
-0.00019771214
0.00019530378
-7.3159205e-05
2.22951e-05
-2.1161404e-05
-0.00011886291
9.2638118e-05
-8.3714943e-05
-0.00010830422
0.00021447387
-0.00018200935
-2.4906067e-05
0.00039145656
-0.00030070571
0.00011063525
0.00060669717
-0.00039639103
0.00023758983
0.00082471997
-0.00042070007
0.00029649427
0.00099741931
-0.00036390864
0.00028466132
0.0010799058
-0.00027695669
0.0010625494
-0.00019642674
0.00022899618
-8.0560469e-05
2.1038915e-05
-2.2834988e-05
-0.00013062401
8.7019941e-05
-8.9620071e-05
-0.00011950058
0.00020058675
-0.00019300347
-3.0904759e-05
0.00036466709
-0.00031500074
0.00011054633
0.00056352578
-0.00040868395
0.00023909095
0.00076469497
-0.00042451926
0.00029845625
0.00092196794
-0.000361628
0.00028998757
0.00099405301
-0.00027407605
0.00097501897
-0.00019261167
0.00023959763
-8.7082254e-05
1.8914735e-05
-2.4196872e-05
-0.00014099957
7.7992261e-05
-9.4303302e-05
-0.00012974152
0.00017922661
-0.00020139669
-3.7674492e-05
0.00032494298
-0.00032529595
0.00010660653
0.00050111794
-0.00041566316
0.00023262318
0.00067917286
-0.00042229148
0.00028984511
0.0008162504
-0.0003555587
0.00028223195
0.00087724013
-0.00026883537
0.00085770888
-0.00018723818
0.00023443254
-9.2757077e-05
1.602409e-05
-2.5270522e-05
-0.00015028291
6.5945999e-05
-9.7915512e-05
-0.00013958917
0.0001512464
-0.00020766153
-4.5848836e-05
0.00027374646
-0.00033232334
9.9164618e-05
0.00042151337
-0.00041899835
0.00022032716
0.00057014804
-0.00041561198
0.00027400615
0.00068417993
-0.00034758939
0.00026564567
0.00073385084
-0.0002619833
0.00071561742
-0.00018133049
0.00021897263
-9.7486281e-05
1.2520133e-05
-2.6086613e-05
-0.00015827542
5.148215e-05
-0.00010061095
-0.00014870708
0.00011794413
-0.00021219078
-5.4712493e-05
0.00021326972
-0.00033699009
8.91754e-05
0.00032809986
-0.00042010721
0.00020599679
0.00044324475
-0.00041085253
0.00025508534
0.00053111171
-0.00033952449
0.00024506626
0.00056897863
-0.0002550516
0.00055376953
-0.0001757268
0.00019863721
-0.00010119874
8.6049945e-06
-2.6670765e-05
-0.00016480448
3.5338978e-05
-0.00010251054
-0.00015669116
8.0839693e-05
-0.00021529624
-6.3362289e-05
0.00014600092
-0.00033993474
7.8573877e-05
0.00022441119
-0.00042002621
0.00019167297
0.00030285914
-0.00040680411
0.00023645943
0.00036228387
-0.00033258209
0.00022460256
0.00038795958
-0.00024910904
0.00037713624
-0.00017107399
0.00017806348
-0.00010366943
4.3725108e-06
-2.7042445e-05
-0.00016914764
1.7945994e-05
-0.00010367737
-0.00016212519
4.1036671e-05
-0.00021710831
-6.9626539e-05
7.409805e-05
-0.0003414237
7.0341334e-05
0.00011384762
-0.00041927965
0.00018034002
0.0001535206
-0.00040349076
0.00022198835
0.00018328993
-0.00032795315
0.00020848781
0.00019637839
-0.00024482188
0.00019079421
-0.00016780666
0.0001616962
-0.00010495034
-6.8814394e-11
-2.7216752e-05
-0.00017147647
-1.4679471e-10
-0.00010424098
-0.00016513457
-7.2023749e-11
-0.00021802106
-7.312391e-05
-4.0081822e-11
-0.00034224699
6.5825814e-05
-2.6994262e-10
-0.00041905493
0.00017415159
-3.6873737e-10
-0.00040203052
0.00021438333
-5.1536517e-10
-0.00032659335
0.00019977296
-4.1010978e-10
-0.00024287751
9.4586831e-10
-0.00016635079
0.000152636
-0.00010494983
-4.3725533e-06
-2.7216747e-05
-0.00017147544
-1.7946057e-05
-0.00010424096
-0.00016513409
-4.1036604e-05
-0.00021802102
-7.3123916e-05
-7.4098089e-05
-0.00034224695
6.5826066e-05
-0.00011384822
-0.0004190549
0.00017415168
-0.00015352145
-0.0004020305
0.00021438344
-0.00018329121
-0.00032659334
0.00019977347
-0.00019637959
-0.00024287751
-0.00019079311
-0.00016635081
0.0001526362
-0.00010366835
-8.6048408e-06
-2.7042444e-05
-0.00016914566
-3.5338563e-05
-0.00010367736
-0.00016212472
-8.0839266e-05
-0.00021710829
-6.9626905e-05
-0.00014600097
-0.0003414237
7.0341974e-05
-0.00022441191
-0.00041927969
0.00018034021
-0.00030286029
-0.0004034908
0.00022198862
-0.00036228576
-0.00032795317
0.00020848913
-0.00038796163
-0.00024482191
-0.00037713699
-0.00016780673
0.00016169659
-0.00010119822
-1.2519988e-05
-2.6670761e-05
-0.00016480404
-5.1481796e-05
-0.00010251053
-0.00015669236
-0.00011794402
-0.0002152962
-6.3363403e-05
-0.0002132701
-0.00033993472
7.8574598e-05
-0.00032810065
-0.00042002618
0.000191673
-0.0004432464
-0.0004068041
0.00023645969
-0.00053111437
-0.0003325821
0.0002246042
-0.0005689815
-0.00024910907
-0.00055377209
-0.00017107406
0.00017806367
-9.7487052e-05
-1.6024182e-05
-2.6086615e-05
-0.00015827727
-6.5946366e-05
-0.00010061095
-0.00014870934
-0.00015124702
-0.00021219079
-5.4713832e-05
-0.00027374684
-0.0003369901
8.9176032e-05
-0.00042151412
-0.00042010718
0.0002059967
-0.00057015057
-0.00041085256
0.00025508562
-0.00068418338
-0.00033952454
0.00024506783
-0.0007338542
-0.00025505164
-0.00071562086
-0.00017572686
0.00019863705
-9.2757406e-05
-1.8914754e-05
-2.5270521e-05
-0.0001502831
-7.7992453e-05
-9.7915508e-05
-0.00013958904
-0.00017922665
-0.00020766153
-4.5849709e-05
-0.00032494266
-0.00033232333
9.9164869e-05
-0.00050111897
-0.00041899832
0.00022032708
-0.0006791763
-0.00041561207
0.00027400641
-0.00081625419
-0.00034758944
0.00026564695
-0.00087724359
-0.00026198334
-0.0008577122
-0.00018133053
0.00021897245
-8.7081848e-05
-2.1039007e-05
-2.4196873e-05
-0.00014099873
-8.7020364e-05
-9.4303311e-05
-0.00012974131
-0.00020058754
-0.00020139674
-3.7676649e-05
-0.00036466816
-0.00032529602
0.000106606
-0.00056352742
-0.00041566324
0.00023262339
-0.0007646977
-0.00042229159
0.0002898454
-0.00092197072
-0.00035555873
0.00028223301
-0.00099405588
-0.00026883539
-0.00097502155
-0.0001872382
0.00023443273
-8.0560701e-05
-2.2295182e-05
-2.2834995e-05
-0.00013062462
-9.2638511e-05
-8.9620106e-05
-0.00011950146
-0.0002144748
-0.00019300357
-3.0906803e-05
-0.0003914571
-0.0003150009
0.00011054552
-0.00060669638
-0.00040868408
0.00023909146
-0.00082472009
-0.00042451936
0.00029845621
-0.00099742026
-0.00036162801
0.00028998814
-0.0010799074
-0.00027407607
-0.0010625512
-0.00019261168
0.0002395974
-7.3158868e-05
-2.2778589e-05
-2.1161399e-05
-0.00011886113
-9.5047114e-05
-8.3714926e-05
-0.00010830098
-0.00022098302
-0.00018200933
-2.4904503e-05
-0.00040486089
-0.00030070571
0.00011063451
-0.00062945677
-0.00039639097
0.00023758998
-0.00085715927
-0.0004207001
0.00029649296
-0.001039356
-0.00036390866
0.00028466067
-0.001130099
-0.0002769567
-0.0011148353
-0.00019642671
0.000228995
-6.5495654e-05
-2.2250496e-05
-1.9212554e-05
-0.00010757459
-9.3531875e-05
-7.6682072e-05
-9.9806782e-05
-0.00021891215
-0.00016844615
-2.5298801e-05
-0.0004034621
-0.00028204868
9.9602505e-05
-0.00063034138
-0.00037811208
0.00021980011
-0.00086038647
-0.00040995241
0.0002757615
-0.001044987
-0.00036254233
0.00025865617
-0.0011396874
-0.00027857369
-0.0011276788
-0.00019771207
0.00019530269
-5.7353547e-05
-2.0895323e-05
-1.6983967e-05
-9.5637019e-05
-8.8597717e-05
-6.8476451e-05
-9.1473207e-05
-0.00020897176
-0.00015214841
-2.8288492e-05
-0.00038795105
-0.00025855076
8.1457848e-05
-0.00060949405
-0.00035282482
0.00018890039
-0.00083358185
-0.00039096873
0.00023743696
-0.0010117951
-0.00035547615
0.00021012891
-0.001104964
-0.00027475593
-0.0010962557
-0.00019512482
0.00013473717
-4.8957255e-05
-1.8892816e-05
-1.4555012e-05
-8.3339182e-05
-8.0841547e-05
-5.9336678e-05
-8.3274264e-05
-0.00019234259
-0.00013346041
-3.3392127e-05
-0.00035982248
-0.0002304459
5.663073e-05
-0.0005677638
-0.00032038914
0.0001445868
-0.00077675744
-0.0003627512
0.00017811306
-0.00094004379
-0.00033726022
0.0001353041
-0.0010240193
-0.0002635755
-0.0010156133
-0.00018652461
4.1231276e-05
-4.0456702e-05
-1.2064553e-05
-1.6513703e-05
-7.0482607e-05
-4.9812453e-05
-7.1171505e-05
-7.479777e-05
-0.00011352536
-0.00016993902
-4.149169e-05
-0.00019919563
-0.00031862546
2.2520004e-05
-0.00028222625
-0.00050377633
8.341932e-05
-0.00032576065
-0.00068956336
9.4976754e-05
-0.00030830482
-0.00083105478
3.406586e-05
-0.00024516122
-0.00089815955
-0.00017201244
-0.0008825074
-8.3919251e-05
7.1762372e-08
2.9627772e-06
-1.27604e-05
-2.3387028e-06
1.6399095e-06
1.3048742e-05
-5.4023315e-05
-1.0406087e-05
6.4309009e-06
3.1498529e-05
-0.00012451471
-2.5300325e-05
1.5253404e-05
5.8387744e-05
-0.00021915579
-4.7250339e-05
2.8324963e-05
8.7475902e-05
-0.00031142691
-7.1347253e-05
4.3857837e-05
0.00010643218
-0.00036061522
-8.7110859e-05
5.7934599e-05
0.00010573569
-0.00034271871
-8.5397992e-05
6.7434516e-05
8.9637121e-05
-0.00027518755
-6.9110777e-05
7.1131837e-05
-0.00019606296
-5.0240398e-05
7.0593362e-05
9.7333537e-08
3.4973033e-06
-1.5186896e-05
2.2241544e-06
1.52971e-05
-6.371194e-05
8.8987258e-06
3.656709e-05
-0.00014520374
2.1666003e-05
6.6849841e-05
-0.00025167552
4.0690041e-05
9.8660161e-05
-0.00035059763
6.2060791e-05
0.00011862617
-0.00039631582
8.0006248e-05
0.00011782491
-0.00036729593
9.1770304e-05
0.00010330603
-0.00028901033
8.8062742e-05
-0.00020431541
9.2629198e-05
1.6525291e-07
3.8604307e-06
-1.7512452e-05
3.0797211e-06
1.6809985e-05
-7.2903999e-05
1.204459e-05
3.9936785e-05
-0.0001644832
2.9043767e-05
7.2297656e-05
-0.00028099793
5.3421292e-05
0.00010529463
-0.00038383678
7.9355079e-05
0.00012497243
-0.00042324813
9.9807189e-05
0.000123696
-0.00038179996
0.00011096476
0.00011265599
-0.00029526346
0.0001004656
-0.00020234274
0.00010577963
2.2710975e-07
4.0319742e-06
-1.961137e-05
3.9173402e-06
1.7506936e-05
-8.1069434e-05
1.5198172e-05
4.1416588e-05
-0.00018120654
3.6422919e-05
7.4448133e-05
-0.00030542287
6.5865915e-05
0.00010734766
-0.00040960699
9.5361063e-05
0.00012644084
-0.00044091636
0.00011805682
0.00012585883
-0.00038740082
0.00012536167
0.0001188185
-0.00029204164
0.00010874502
-0.00019509299
0.00011446232
2.7489289e-07
3.9938842e-06
-2.1398289e-05
4.6565428e-06
1.7339178e-05
-8.7929219e-05
1.804393e-05
4.0947866e-05
-0.00019492869
4.3051296e-05
7.3298842e-05
-0.00032456403
7.6879558e-05
0.00010521472
-0.0004280856
0.00010954081
0.00012334049
-0.00045026046
0.00013397103
0.00012381495
-0.0003862947
0.00013589211
0.00012046255
-0.00028052221
0.0001120292
-0.0001844215
0.00012060203
2.6209888e-07
3.7888769e-06
-2.289196e-05
5.1049487e-06
1.6436901e-05
-9.3560352e-05
2.0158608e-05
3.8743604e-05
-0.00020585248
4.8208655e-05
6.9141637e-05
-0.00033889328
8.5359533e-05
9.9031014e-05
-0.00043965191
0.00012100709
0.00011594259
-0.0004527697
0.00014680953
0.00011891196
-0.00038252756
0.00014303887
0.00011699891
-0.00026684166
0.00010979333
-0.00017181717
0.00012447995
2.5655322e-07
3.4138518e-06
-2.4078423e-05
5.5076175e-06
1.4810089e-05
-9.7927654e-05
2.1975875e-05
3.4866899e-05
-0.00021398824
5.2325897e-05
6.2158371e-05
-0.00034866206
9.2154115e-05
8.905715e-05
-0.00044551726
0.00013118387
0.00010440687
-0.00044978586
0.00015621456
0.00010928367
-0.00037096135
0.00014757797
0.0001081804
-0.00025138006
0.00010209812
-0.00015838762
0.00012642248
2.3030915e-07
2.8958687e-06
-2.4982698e-05
5.7421806e-06
1.2571047e-05
-0.00010118833
2.3170581e-05
2.9595566e-05
-0.00021981906
5.5123485e-05
5.2833858e-05
-0.00035495227
9.6736098e-05
7.5949776e-05
-0.00044750349
0.00013912845
9.0109657e-05
-0.00044370697
0.00016238618
9.6037695e-05
-0.00035760148
0.00014981434
9.4456997e-05
-0.00023568805
8.9259906e-05
-0.00014530226
0.00012662423
1.9050597e-07
2.2638782e-06
-2.5644974e-05
5.8397169e-06
9.8417937e-06
-0.00010353057
2.388141e-05
2.3198852e-05
-0.00022383558
5.6995383e-05
4.1483384e-05
-0.00035875426
0.00010018348
5.9832308e-05
-0.00044717818
0.00014456488
7.1519781e-05
-0.00043664379
0.00016524065
7.683885e-05
-0.00034100172
0.00015007604
7.5835934e-05
-0.00022126612
7.1759996e-05
-0.00013356162
0.00012541078
1.3950344e-07
1.5552389e-06
-2.6101826e-05
5.8241551e-06
6.7648088e-06
-0.00010511831
2.4205068e-05
1.5963887e-05
-0.00022644182
5.8024747e-05
2.8577502e-05
-0.00036084877
0.00010227069
4.130952e-05
-0.00044574966
0.0001474898
4.9618107e-05
-0.00043012127
0.00016619719
5.3837982e-05
-0.00032828865
0.00014905801
5.3189499e-05
-0.00020932365
5.0349881e-05
-0.00012398611
0.00012338037
1.1378446e-07
7.95605e-07
-2.6396802e-05
5.835986e-06
3.4551466e-06
-0.00010609009
2.4433199e-05
8.1575733e-06
-0.00022789889
5.8643395e-05
1.4610541e-05
-0.00036166683
0.00010342343
2.114676e-05
-0.00044389689
0.00014903287
2.549311e-05
-0.00042497492
0.00016613747
2.798321e-05
-0.00031920271
0.00014768368
2.7536711e-05
-0.00020071544
2.6038235e-05
-0.00011718456
0.0001213734
9.9869162e-08
-3.3768432e-13
-2.6521009e-05
5.831418e-06
1.2124552e-11
-0.00010651732
2.4525367e-05
6.247082e-11
-0.00022855723
5.8918479e-05
1.5103946e-11
-0.00036202941
0.00010393837
-3.0576344e-10
-0.00044292742
0.00014983424
-6.8810809e-10
-0.00042243239
0.00016583229
-1.0098016e-09
-0.00031460673
0.00014677947
-8.3874382e-10
-0.0001962872
4.9002101e-11
-0.00011367821
0.00012014521
9.9987641e-08
-7.9559384e-07
-2.6521005e-05
5.8316692e-06
-3.4550838e-06
-0.00010651731
2.4525472e-05
-8.1574049e-06
-0.00022855721
5.8918467e-05
-1.4610511e-05
-0.00036202938
0.0001039385
-2.1147387e-05
-0.0004429274
0.00014983428
-2.5494531e-05
-0.00042243238
0.00016583234
-2.7985292e-05
-0.00031460674
0.00014677963
-2.753842e-05
-0.00019628721
-2.6038212e-05
-0.00011367823
0.00012014531
1.1406956e-07
-1.5551795e-06
-2.6396802e-05
5.8365332e-06
-6.7646092e-06
-0.0001060901
2.4433328e-05
-1.5963592e-05
-0.00022789891
5.8643309e-05
-2.8577464e-05
-0.00036166686
0.00010342376
-4.1310169e-05
-0.00044389695
0.00014903296
-4.9619643e-05
-0.000424975
0.00016613764
-5.3840212e-05
-0.00031920278
0.00014768412
-5.3191274e-05
-0.00020071551
-5.0350022e-05
-0.00011718463
0.00012137364
1.3972455e-07
-2.2637779e-06
-2.6101822e-05
5.8244541e-06
-9.8414936e-06
-0.00010511829
2.420486e-05
-2.319853e-05
-0.0002264418
5.8024575e-05
-4.1483398e-05
-0.00036084875
0.00010227109
-5.983296e-05
-0.00044574966
0.00014748989
-7.1521474e-05
-0.00043012132
0.00016619749
-7.6841252e-05
-0.00032828874
0.00014905867
-7.5837773e-05
-0.00020932374
-7.1760294e-05
-0.00012398619
0.00012338068
1.9040533e-07
-2.8958064e-06
-2.5644974e-05
5.8393893e-06
-1.2570874e-05
-0.00010353057
2.3880908e-05
-2.9595416e-05
-0.00022383559
5.6995318e-05
-5.2833894e-05
-0.00035875427
0.00010018388
-7.59504e-05
-0.0004471782
0.00014456504
-9.0111572e-05
-0.0004366439
0.00016524114
-9.6040271e-05
-0.00034100188
0.0001500768
-9.4458927e-05
-0.00022126625
-8.926034e-05
-0.00013356171
0.00012541124
2.3016407e-07
-3.4137964e-06
-2.4982698e-05
5.7419978e-06
-1.4809938e-05
-0.00010118833
2.3170651e-05
-3.4866643e-05
-0.00021981908
5.5123745e-05
-6.2158184e-05
-0.00035495231
9.6736412e-05
-8.9057844e-05
-0.00044750356
0.00013912877
-0.00010440907
-0.00044370716
0.00016238684
-0.00010928643
-0.00035760167
0.00014981507
-0.0001081825
-0.00023568821
-0.00010209859
-0.00014530235
0.00012662493
2.5660515e-07
-3.7888519e-06
-2.4078426e-05
5.5078426e-06
-1.6436856e-05
-9.7927663e-05
2.1976237e-05
-3.8743536e-05
-0.00021398828
5.2325928e-05
-6.9141832e-05
-0.00034866214
9.2154235e-05
-9.9032094e-05
-0.00044551739
0.00013118435
-0.00011594483
-0.00044978608
0.00015621528
-0.0001189147
-0.00037096154
0.00014757863
-0.00011700109
-0.00025138021
-0.00010979353
-0.00015838771
0.0001264233
2.6204416e-07
-3.9939202e-06
-2.2891969e-05
5.1048119e-06
-1.7339341e-05
-9.3560387e-05
2.0158464e-05
-4.0948175e-05
-0.00020585257
4.8208445e-05
-7.3299286e-05
-0.00033889345
8.5359664e-05
-0.00010521541
-0.0004396521
0.00012100758
-0.00012334214
-0.00045276992
0.00014681007
-0.00012381734
-0.00038252774
0.00014303939
-0.00012046449
-0.00026684181
-0.00011202895
-0.00017181726
0.00012448052
2.7493728e-07
-4.0319646e-06
-2.1398287e-05
4.6568216e-06
-1.7506905e-05
-8.7929213e-05
1.8044568e-05
-4.1416504e-05
-0.00019492869
4.3051872e-05
-7.4448121e-05
-0.00032456408
7.6879568e-05
-0.00010734828
-0.00042808566
0.00010954086
-0.00012644262
-0.00045026059
0.00013397102
-0.00012586107
-0.00038629484
0.00013589218
-0.00011882007
-0.00028052233
-0.00010874476
-0.00018442155
0.00012060211
2.2727036e-07
-3.8604226e-06
-1.9611367e-05
3.9177405e-06
-1.6810024e-05
-8.1069423e-05
1.5198525e-05
-3.9937029e-05
-0.00018120652
3.6422764e-05
-7.2298362e-05
-0.00030542287
6.5865231e-05
-0.00010529598
-0.00040960703
9.5360604e-05
-0.00012497427
-0.00044091644
0.00011805616
-0.00012369845
-0.00038740091
0.00012536106
-0.00011265732
-0.00029204172
-0.00010046524
-0.00019509298
0.000114462
1.6536485e-07
-3.4973102e-06
-1.7512445e-05
3.0800562e-06
-1.5297158e-05
-7.290397e-05
1.2044969e-05
-3.6567294e-05
-0.00016448314
2.9043946e-05
-6.6850422e-05
-0.00028099787
5.3421211e-05
-9.8661535e-05
-0.00038383676
7.935423e-05
-0.00011862851
-0.0004232481
9.9806601e-05
-0.00011782724
-0.00038179998
0.00011096436
-0.00010330715
-0.00029526347
-8.8062772e-05
-0.00020234268
0.00010577928
9.7314268e-08
-2.9627845e-06
-1.5186893e-05
2.2241632e-06
-1.3048794e-05
-6.3711929e-05
8.8987084e-06
-3.1498692e-05
-0.00014520372
2.1665868e-05
-5.8388199e-05
-0.00025167551
4.0689872e-05
-8.7477016e-05
-0.00035059766
6.2060073e-05
-0.00010643417
-0.00039631586
8.0005864e-05
-0.00010573718
-0.00036729596
9.17703e-05
-8.9636745e-05
-0.00028901032
-7.1131565e-05
-0.00020431535
9.2629051e-05
7.1758339e-08
-1.2760399e-05
-2.3387016e-06
1.6399263e-06
-5.4023311e-05
-1.0406112e-05
6.4308579e-06
-0.00012451471
-2.5300464e-05
1.525315e-05
-0.00021915579
-4.7250852e-05
2.8324589e-05
-0.00031142694
-7.1348604e-05
4.3857369e-05
-0.00036061527
-8.7113357e-05
5.7934356e-05
-0.00034271872
-8.540068e-05
6.7433979e-05
-0.00027518745
-6.9112581e-05
-0.00019606288
-5.0240769e-05
7.0593101e-05
1.5536257e-07
1.1143368e-06
-1.2846027e-05
-1.1840723e-06
5.7604458e-07
4.4814502e-06
-5.4052883e-05
-4.8725086e-06
1.9958618e-06
9.6802025e-06
-0.0001247232
-1.0891368e-05
6.7437348e-06
1.4908075e-05
-0.00022079152
-1.8020019e-05
1.7841525e-05
1.4715371e-05
-0.00031554276
-2.1697389e-05
3.6627912e-05
1.0413752e-06
-0.00036600118
-1.4442348e-05
6.0845471e-05
-2.9239288e-05
-0.00034600832
8.3109805e-06
8.4337532e-05
-6.5945992e-05
-0.00027281296
4.007932e-05
-9.0241604e-05
-0.00018848704
6.7533545e-05
9.946951e-05
2.4573833e-07
1.0499498e-06
-1.5368229e-05
1.0505891e-06
4.052644e-06
-6.4087917e-05
3.6829718e-06
8.2456368e-06
-0.00014640139
1.1440634e-05
1.1227437e-05
-0.00025575238
2.7813506e-05
6.9924698e-06
-0.00035924768
5.2958461e-05
-1.2424504e-05
-0.00040799522
8.1562321e-05
-4.8237661e-05
-0.00037690196
0.00010445368
-8.6963908e-05
-0.00029088425
-0.00010978846
-0.00019769728
0.00011738245
3.6886109e-07
9.7398927e-07
-1.7805291e-05
1.6318126e-06
3.5888121e-06
-7.3702982e-05
5.5047443e-06
6.775683e-06
-0.0001668862
1.6070191e-05
7.6383717e-06
-0.00028797508
3.7121347e-05
-1.3040122e-07
-0.00039776628
6.7606075e-05
-2.3971956e-05
-0.00044218544
9.9207522e-05
-6.3211147e-05
-0.00039842737
0.00011892776
-0.00010233872
-0.0002996091
-0.00012129356
-0.00019923213
0.00012732216
5.0928551e-07
8.7527932e-07
-2.0021854e-05
2.2929389e-06
3.0712716e-06
-8.2335339e-05
7.5023138e-06
5.3109019e-06
-0.00018495107
2.0881863e-05
4.4148703e-06
-0.00031557951
4.617184e-05
-5.8864814e-06
-0.00042914162
8.1105084e-05
-3.2398814e-05
-0.00046742283
0.0001141686
-7.2758171e-05
-0.0004109178
0.00013079464
-0.00011125984
-0.00029974691
-0.0001253227
-0.00019492773
0.0001346587
6.4373173e-07
7.5769928e-07
-2.1924333e-05
2.9222755e-06
2.5327073e-06
-8.9669003e-05
9.4015762e-06
3.9536769e-06
-0.0002000509
2.5422244e-05
1.7987306e-06
-0.00033796932
5.4635867e-05
-1.0072032e-05
-0.00045311391
9.3390324e-05
-3.7235315e-05
-0.00048417879
0.00012585519
-7.58953e-05
-0.00041562304
0.00014149678
-0.00011106692
-0.00029635682
-0.00012231051
-0.00018683081
0.00014089412
7.5591864e-07
6.3568664e-07
-2.3525803e-05
3.4605611e-06
2.0205212e-06
-9.5752827e-05
1.1070961e-05
2.7950885e-06
-0.00021230494
2.953143e-05
-1.2801995e-07
-0.00035542821
6.2675541e-05
-1.255158e-05
-0.00047031622
0.00010519829
-3.8995398e-05
-0.0004935323
0.00013617794
-7.5443518e-05
-0.00041395845
0.00015112544
-0.00010503623
-0.00028781969
-0.00011355128
-0.00017632179
0.00014687075
8.488146e-07
5.1365912e-07
-2.4805095e-05
3.9087645e-06
1.5544419e-06
-0.00010052138
1.2475436e-05
1.8780768e-06
-0.00022163821
3.3117378e-05
-1.4133715e-06
-0.00036801936
6.9627249e-05
-1.3381815e-05
-0.00048119652
0.00011494207
-3.7615824e-05
-0.00049648065
0.00014569193
-6.9910781e-05
-0.00040724339
0.00015962321
-9.4153491e-05
-0.0002761939
-0.00010035335
-0.00016449139
0.00015252883
9.2242415e-07
3.9384243e-07
-2.5785276e-05
4.2707164e-06
1.1350717e-06
-0.00010411719
1.365378e-05
1.1612031e-06
-0.00022848538
3.6076613e-05
-2.0658645e-06
-0.00037672277
7.5310222e-05
-1.2720714e-05
-0.00048739779
0.00012279967
-3.3558891e-05
-0.00049525393
0.00015396651
-6.0995961e-05
-0.00039768305
0.00016708208
-7.955558e-05
-0.0002634014
-8.3790976e-05
-0.00015256613
0.0001577834
9.7129963e-07
2.841172e-07
-2.6506682e-05
4.5203602e-06
7.813939e-07
-0.00010672622
1.4523326e-05
6.4672439e-07
-0.00023332438
3.8309603e-05
-2.1274788e-06
-0.00038247897
7.9659956e-05
-1.0739803e-05
-0.00049050925
0.00012841904
-2.7148112e-05
-0.00049181404
0.00016103919
-4.8511795e-05
-0.00038610628
0.00017333977
-6.2041413e-05
-0.0002510808
-6.4778827e-05
-0.00014162954
0.00016239539
1.004693e-06
1.8469173e-07
-2.7007149e-05
4.691228e-06
4.9012374e-07
-0.00010851372
1.5131179e-05
3.1846748e-07
-0.00023655374
3.990648e-05
-1.7064036e-06
-0.00038604519
8.2803262e-05
-7.7362955e-06
-0.00049165013
0.00013227968
-1.9029704e-05
-0.00048771628
0.00016655421
-3.3757767e-05
-0.00037731765
0.00017824255
-4.2477069e-05
-0.0002405764
-4.4067281e-05
-0.00013259225
0.00016613701
1.0292296e-06
8.9775676e-08
-2.7331094e-05
4.8184681e-06
2.3254032e-07
-0.00010962176
1.5558291e-05
1.160535e-07
-0.00023843644
4.0983473e-05
-9.5490092e-07
-0.00038784364
8.4907243e-05
-4.0567696e-06
-0.00049150071
0.00013459126
-9.7803826e-06
-0.00048390841
0.00017034475
-1.7154282e-05
-0.00037156023
0.00018155869
-2.155254e-05
-0.00023285412
-2.229271e-05
-0.00012612981
0.00016872927
1.0371969e-06
3.4771734e-11
-2.7468458e-05
4.8638748e-06
1.1568018e-10
-0.00011011163
1.5721336e-05
1.7884524e-10
-0.000239299
4.1425312e-05
5.8664458e-11
-0.00038868859
8.5845591e-05
-4.0772735e-10
-0.00049140476
0.00013561503
-1.0462862e-09
-0.00048198137
0.00017209062
-1.4787048e-09
-0.00036823568
0.00018317502
-1.0968115e-09
-0.00022892328
-5.3979012e-11
-0.00012284003
0.00017004422
1.0371527e-06
-8.9717058e-08
-2.7468454e-05
4.8637593e-06
-2.3234367e-07
-0.00011011162
1.5721223e-05
-1.1575465e-07
-0.00023929898
4.1425234e-05
9.5495314e-07
-0.00038868856
8.5845591e-05
4.0559156e-06
-0.00049140472
0.00013561501
9.7782594e-06
-0.00048198135
0.00017209067
1.7151374e-05
-0.00036823568
0.00018317507
2.1550429e-05
-0.00022892329
2.2292704e-05
-0.00012284005
0.00017004431
1.0291573e-06
-1.8465687e-07
-2.7331094e-05
4.8183004e-06
-4.9000696e-07
-0.00010962176
1.5558181e-05
-3.1829083e-07
-0.00023843644
4.0983412e-05
1.7063448e-06
-0.00038784366
8.4907303e-05
7.7354002e-06
-0.00049150074
0.00013459128
1.9027547e-05
-0.00048390846
0.00017034495
3.3755001e-05
-0.00037156029
0.00018155886
4.2475162e-05
-0.00023285418
4.4067518e-05
-0.00012612987
0.00016872954
1.0046944e-06
-2.8408377e-07
-2.7007144e-05
4.6912866e-06
-7.8129721e-07
-0.0001085137
1.5131396e-05
-6.4656637e-07
-0.0002365537
3.9906679e-05
2.1274273e-06
-0.00038604513
8.2803407e-05
1.073896e-05
-0.00049165009
0.00013227983
2.7145996e-05
-0.00048771629
0.00016655456
4.8509203e-05
-0.00037731769
0.00017824283
6.2039687e-05
-0.0002405765
6.4779251e-05
-0.00013259234
0.00016613743
9.7138176e-07
-3.937753e-07
-2.6506678e-05
4.5206013e-06
-1.1348776e-06
-0.00010672621
1.4523773e-05
-1.1609229e-06
-0.00023332436
3.8310056e-05
2.065886e-06
-0.00038247894
7.9660153e-05
1.2719931e-05
-0.00049050926
0.00012841943
3.3556885e-05
-0.00049181411
0.00016103966
6.0993504e-05
-0.0003861064
0.0001733401
7.95539e-05
-0.00025108094
8.3791451e-05
-0.00014162965
0.00016239593
9.2242026e-07
-5.1360147e-07
-2.5785276e-05
4.2707159e-06
-1.5542543e-06
-0.00010411719
1.3654009e-05
-1.8778439e-06
-0.00022848538
3.6077138e-05
1.4132778e-06
-0.00037672279
7.5310396e-05
1.3380934e-05
-0.00048739786
0.00012280024
3.7613815e-05
-0.00049525407
0.00015396698
6.990819e-05
-0.00039768323
0.00016708239
9.4151654e-05
-0.00026340157
0.00010035384
-0.00015256625
0.00015778405
8.4873016e-07
-6.3563809e-07
-2.4805098e-05
3.9086074e-06
-2.0203763e-06
-0.00010052139
1.2475577e-05
-2.7949042e-06
-0.00022163824
3.3118079e-05
1.2786539e-07
-0.00036801942
6.9627475e-05
1.2550469e-05
-0.00048119664
0.00011494266
3.8993002e-05
-0.00049648084
0.00014569227
7.5440334e-05
-0.00040724362
0.00015962344
0.00010503413
-0.00027619409
0.00011355197
-0.0001644915
0.00015252959
7.5585957e-07
-7.5765053e-07
-2.3525811e-05
3.4604443e-06
-2.5325621e-06
-9.5752857e-05
1.1071142e-05
-3.9534323e-06
-0.00021230501
2.9532263e-05
-1.7988996e-06
-0.00035542833
6.2675885e-05
1.0070462e-05
-0.00047031641
0.00010519871
3.7232154e-05
-0.00049353255
0.00013617824
7.5891402e-05
-0.00041395871
0.00015112572
0.00011106471
-0.00028781988
0.00012231147
-0.00017632189
0.00014687159
6.4363604e-07
-8.7526283e-07
-2.1924335e-05
2.9219363e-06
-3.0712345e-06
-8.9669009e-05
9.4012158e-06
-5.3108913e-06
-0.00020005092
2.5422373e-05
-4.4153825e-06
-0.00033796937
5.4635944e-05
5.884583e-06
-0.00045311401
9.3390435e-05
3.2395546e-05
-0.00048417894
0.0001258556
7.2754549e-05
-0.00041562321
0.00014149722
0.00011125793
-0.00029635695
0.00012532365
-0.00018683088
0.00014089466
5.0916166e-07
-9.7398573e-07
-2.0021851e-05
2.2924463e-06
-3.5888374e-06
-8.2335328e-05
7.5015277e-06
-6.7758453e-06
-0.00018495105
2.0881409e-05
-7.6390833e-06
-0.00031557949
4.6171862e-05
1.2847429e-07
-0.00042914163
8.1105034e-05
2.3968901e-05
-0.00046742289
0.00011416871
6.3208205e-05
-0.0004109179
0.00013079469
0.00010233713
-0.00029974699
0.00012129393
-0.00019492775
0.00013465858
3.6877337e-07
-1.0499447e-06
-1.7805285e-05
1.6314195e-06
-4.052662e-06
-7.3702961e-05
5.5040919e-06
-8.2457592e-06
-0.00016688616
1.6069867e-05
-1.1227943e-05
-0.00028797502
3.7121619e-05
-6.993933e-06
-0.00039776624
6.7606134e-05
1.2421697e-05
-0.00044218545
9.9207125e-05
4.8234531e-05
-0.00039842741
0.00011892673
8.6961977e-05
-0.00029960913
0.00010978889
-0.00019923211
0.00012732192
2.4572841e-07
-1.114338e-06
-1.5368226e-05
1.0504858e-06
-4.4814843e-06
-6.4087909e-05
3.6827345e-06
-9.6803525e-06
-0.00014640138
1.1440363e-05
-1.4908605e-05
-0.00025575237
2.781323e-05
-1.4716778e-05
-0.0003592477
5.2958066e-05
-1.0439389e-06
-0.00040799526
8.1561782e-05
2.923658e-05
-0.00037690202
0.00010445214
6.5944545e-05
-0.00029088425
9.0242684e-05
-0.00019769723
0.00011738291
1.5534408e-07
-1.2846027e-05
-1.1840701e-06
5.75898e-07
-5.4052883e-05
-4.8725348e-06
1.9954758e-06
-0.00012472321
-1.0891502e-05
6.7430348e-06
-0.00022079154
-1.802047e-05
1.7840389e-05
-0.00031554279
-2.1698492e-05
3.6626487e-05
-0.00036600122
-1.4444062e-05
6.0843663e-05
-0.00034600835
8.3091963e-06
8.4335229e-05
-0.00027281296
4.0077167e-05
-0.000188487
6.753264e-05
9.9469187e-05
-1.6005284e-08
5.7314729e-07
-1.2910682e-05
-4.9248635e-07
7.8093696e-08
2.2807471e-06
-5.444023e-05
-1.9875111e-06
3.8178091e-07
4.6556971e-06
-0.00012550615
-4.1764733e-06
9.9562615e-07
5.9291869e-06
-0.00022152972
-5.804881e-06
2.8938737e-06
1.5732395e-06
-0.00031557232
-3.4419286e-06
8.7616569e-06
-1.4767211e-05
-0.00036506026
7.9585419e-06
2.1628308e-05
-4.5529523e-05
-0.00034464333
3.1297664e-05
4.15774e-05
-8.2002901e-05
-0.00027197168
6.1212407e-05
-0.00010830752
-0.00018854228
8.6257326e-05
6.3682973e-05
-8.5647122e-10
6.5002802e-07
-1.5444254e-05
2.5465338e-07
2.5076408e-06
-6.4570306e-05