/*--------------------------------*- C++ -*----------------------------------*\
  =========                 |
  \\      /  F ield         | OpenFOAM: The Open Source CFD Toolbox
   \\    /   O peration     | Website:  https://openfoam.org
    \\  /    A nd           | Version:  10
     \\/     M anipulation  |
\*---------------------------------------------------------------------------*/
FoamFile
{
    format      ascii;
    class       volScalarField;
    location    "5.7";
    object      T;
}
// * * * * * * * * * * * * * * * * * * * * * * * * * * * * * * * * * * * * * //

dimensions      [0 0 -1 0 0 0 0];

internalField   nonuniform List<scalar> 
100
(
0.0181207
0.0537197
0.0874156
0.118015
0.144433
0.165735
0.181166
0.190178
0.192454
0.187912
0.176713
0.159253
0.136153
0.108228
0.0764702
0.042003
0.00604783
-0.0301216
-0.065224
-0.0980157
-0.127335
-0.152144
-0.171563
-0.184904
-0.191695
-0.191695
-0.184904
-0.171563
-0.152144
-0.127335
-0.0980154
-0.0652236
-0.0301211
0.00604838
0.0420036
0.0764709
0.108229
0.136153
0.159254
0.176713
0.187912
0.192455
0.190179
0.181166
0.165735
0.144433
0.118015
0.0874155
0.0537194
0.0181203
-0.0181207
-0.0537198
-0.0874159
-0.118015
-0.144434
-0.165736
-0.181166
-0.190179
-0.192455
-0.187912
-0.176713
-0.159254
-0.136153
-0.108229
-0.0764705
-0.0420032
-0.00604797
0.0301215
0.0652239
0.0980158
0.127335
0.152144
0.171563
0.184904
0.191695
0.191695
0.184904
0.171563
0.152144
0.127335
0.0980154
0.0652236
0.0301212
-0.00604822
-0.0420034
-0.0764705
-0.108229
-0.136153
-0.159254
-0.176713
-0.187912
-0.192454
-0.190178
-0.181166
-0.165735
-0.144433
-0.118015
-0.0874153
-0.0537193
-0.0181203
)
;

boundaryField
{
    inlet
    {
        type            cyclic;
    }
    outlet
    {
        type            cyclic;
    }
    bottom
    {
        type            slip;
    }
    top
    {
        type            slip;
    }
    frontAndBack
    {
        type            empty;
    }
}


// ************************************************************************* //
