/*--------------------------------*- C++ -*----------------------------------*\
| =========                 |                                                 |
| \\      /  F ield         | OpenFOAM: The Open Source CFD Toolbox           |
|  \\    /   O peration     | Version:  2406                                  |
|   \\  /    A nd           | Website:  www.openfoam.com                      |
|    \\/     M anipulation  |                                                 |
\*---------------------------------------------------------------------------*/
FoamFile
{
    version     2.0;
    format      ascii;
    arch        "LSB;label=32;scalar=64";
    class       volScalarField;
    location    "6.5";
    object      p;
}
// * * * * * * * * * * * * * * * * * * * * * * * * * * * * * * * * * * * * * //

dimensions      [0 2 -2 0 0 0 0];

internalField   nonuniform List<scalar> 
34560
(
28.772013
28.758497
28.740718
28.719622
28.695659
28.670735
28.64702
28.625783
28.608541
28.853351
28.836668
28.814218
28.786796
28.754832
28.720929
28.688568
28.659726
28.636058
28.929264
28.90966
28.883137
28.850604
28.812405
28.771561
28.732012
28.696425
28.667219
29.004805
28.982418
28.951895
28.914261
28.869949
28.822603
28.776284
28.734098
28.69912
29.07813
29.053068
29.018697
28.976167
28.925986
28.872355
28.819472
28.770845
28.730009
29.145758
29.118505
29.080853
29.034014
28.978543
28.91909
28.860093
28.805398
28.758894
29.207258
29.177987
29.13732
29.086533
29.026229
28.961433
28.896845
28.836566
28.784811
29.261168
29.230096
29.18674
29.132449
29.067855
28.998283
28.928708
28.86344
28.807033
29.306263
29.273621
29.227933
29.170622
29.1024
29.02875
28.954909
28.885385
28.825142
29.341099
29.307199
29.259648
29.199949
29.128925
29.052115
28.974905
28.90199
28.838738
29.364841
29.329988
29.281087
29.219724
29.14681
29.067882
28.988351
28.913052
28.847743
29.377173
29.341785
29.292136
29.229863
29.155933
29.075867
28.995113
28.918564
28.852214
29.377173
29.341785
29.292137
29.229863
29.155933
29.075867
28.995113
28.918564
28.852214
29.364841
29.329988
29.281087
29.219724
29.14681
29.067882
28.988351
28.913051
28.847742
29.341099
29.307199
29.259648
29.199949
29.128925
29.052115
28.974905
28.90199
28.838737
29.306264
29.273621
29.227933
29.170622
29.1024
29.028749
28.954908
28.885384
28.825141
29.261168
29.230095
29.18674
29.132449
29.067854
28.998282
28.928707
28.863439
28.807032
29.207258
29.177987
29.137319
29.086533
29.026228
28.961433
28.896845
28.836565
28.78481
29.145758
29.118505
29.080854
29.034014
28.978543
28.91909
28.860093
28.805397
28.758893
29.078132
29.05307
29.018699
28.976169
28.925988
28.872355
28.819472
28.770845
28.730009
29.004807
28.982421
28.951897
28.914263
28.869951
28.822604
28.776285
28.734099
28.699121
28.929267
28.909663
28.88314
28.850606
28.812408
28.771563
28.732015
28.696428
28.66722
28.853355
28.836672
28.814222
28.786799
28.754835
28.720933
28.688573
28.659732
28.636061
28.772017
28.758501
28.740722
28.719626
28.695664
28.67074
28.647026
28.625791
28.608548
26.481922
26.482841
26.48411
26.486426
26.490447
26.49579
26.501363
26.505324
26.508186
26.473196
26.474634
26.476719
26.480297
26.486056
26.493229
26.500026
26.504853
26.508225
26.462771
26.464726
26.467588
26.472478
26.480181
26.489541
26.49816
26.504227
26.508142
26.45362
26.456105
26.459693
26.465733
26.47515
26.4865
26.496859
26.504176
26.508726
26.445527
26.44858
26.452944
26.460121
26.471227
26.484533
26.496583
26.505032
26.510135
26.438013
26.441677
26.447005
26.455483
26.468329
26.483615
26.497341
26.506807
26.51235
26.431413
26.435551
26.441952
26.452086
26.466694
26.483866
26.499151
26.509516
26.515341
26.425861
26.430276
26.437435
26.449458
26.466321
26.485282
26.501941
26.513054
26.519002
26.421258
26.425777
26.433345
26.447147
26.466911
26.487774
26.505541
26.51723
26.523152
26.418079
26.422602
26.430289
26.444792
26.467226
26.490962
26.509653
26.521706
26.527511
26.416676
26.421107
26.428896
26.443958
26.467633
26.493473
26.513479
26.525647
26.531222
26.416413
26.420718
26.42851
26.443872
26.468123
26.495038
26.515921
26.528063
26.533445
26.416413
26.420718
26.42851
26.443872
26.468123
26.495038
26.515921
26.528063
26.533444
26.416676
26.421106
26.428895
26.443957
26.467632
26.493472
26.513478
26.525646
26.531221
26.418078
26.422601
26.430288
26.444792
26.467226
26.490961
26.509652
26.521705
26.52751
26.421257
26.425777
26.433344
26.447146
26.46691
26.487772
26.50554
26.517228
26.52315
26.42586
26.430275
26.437434
26.449457
26.46632
26.485281
26.501939
26.513052
26.519
26.431412
26.43555
26.441951
26.452086
26.466693
26.483865
26.499149
26.509514
26.515338
26.438013
26.441676
26.447004
26.455482
26.468328
26.483614
26.49734
26.506805
26.512348
26.445527
26.448579
26.452944
26.46012
26.471227
26.484532
26.496582
26.50503
26.510133
26.45362
26.456105
26.459693
26.465733
26.47515
26.4865
26.496858
26.504175
26.508724
26.462772
26.464726
26.467589
26.472479
26.480181
26.489542
26.498161
26.504227
26.50814
26.473197
26.474635
26.47672
26.480298
26.486057
26.49323
26.500027
26.504854
26.508223
26.481923
26.482842
26.484112
26.486428
26.490448
26.495792
26.501365
26.505325
26.508186
25.823438
25.823498
25.823404
25.822998
25.82242
25.821997
25.822079
25.822565
25.822826
25.820305
25.82052
25.820605
25.820364
25.819979
25.819794
25.820115
25.820834
25.821397
25.815921
25.816282
25.816526
25.816448
25.816296
25.816457
25.817209
25.818369
25.819366
25.811525
25.812016
25.812388
25.812417
25.812414
25.812849
25.814013
25.815682
25.817241
25.8073
25.80783
25.808235
25.808358
25.808502
25.809194
25.810756
25.812924
25.815061
25.803529
25.804044
25.804289
25.80436
25.804628
25.805559
25.807494
25.81014
25.812823
25.800878
25.801399
25.801248
25.800778
25.801
25.802088
25.80431
25.807375
25.810581
25.799225
25.799822
25.799462
25.798108
25.797667
25.798806
25.801252
25.804668
25.808387
25.798808
25.799505
25.799128
25.796852
25.794918
25.795731
25.798345
25.80204
25.806282
25.798933
25.799698
25.799456
25.797173
25.793766
25.793002
25.795624
25.799547
25.80432
25.798849
25.799688
25.799505
25.797233
25.793524
25.791551
25.79344
25.797599
25.802901
25.798813
25.799696
25.799534
25.797245
25.793479
25.790929
25.792173
25.796496
25.802126
25.798813
25.799696
25.799534
25.797245
25.793479
25.790929
25.792173
25.796496
25.802126
25.798849
25.799687
25.799504
25.797232
25.793524
25.791551
25.79344
25.797599
25.8029
25.798932
25.799697
25.799455
25.797173
25.793765
25.793001
25.795624
25.799547
25.804319
25.798807
25.799504
25.799127
25.796851
25.794916
25.79573
25.798343
25.802039
25.80628
25.799223
25.79982
25.799461
25.798107
25.797666
25.798805
25.80125
25.804667
25.808386
25.800877
25.801397
25.801247
25.800777
25.800999
25.802086
25.804308
25.807373
25.810579
25.803528
25.804042
25.804287
25.804358
25.804626
25.805557
25.807492
25.810138
25.812821
25.807298
25.807828
25.808233
25.808356
25.8085
25.809192
25.810754
25.812922
25.81506
25.811523
25.812014
25.812386
25.812415
25.812413
25.812847
25.814011
25.81568
25.817239
25.815919
25.816281
25.816524
25.816446
25.816294
25.816455
25.817207
25.818367
25.819364
25.820303
25.820518
25.820603
25.820362
25.819978
25.819793
25.820113
25.820832
25.821394
25.823436
25.823496
25.823402
25.822996
25.822418
25.821995
25.822077
25.822562
25.822823
24.443735
24.443632
24.443552
24.443591
24.44375
24.443893
24.443799
24.443321
24.442773
24.444059
24.443971
24.443942
24.444079
24.44438
24.444642
24.44455
24.443947
24.443085
24.44404
24.443967
24.443986
24.444232
24.444704
24.445136
24.445126
24.444481
24.443412
24.444121
24.444072
24.444137
24.444473
24.44508
24.445646
24.445702
24.445032
24.443831
24.444212
24.444189
24.444307
24.444742
24.445491
24.446199
24.446325
24.445629
24.444322
24.444201
24.444215
24.4444
24.444953
24.44587
24.446743
24.446951
24.446234
24.444831
24.444194
24.444236
24.444479
24.445152
24.446261
24.447314
24.447574
24.446814
24.445313
24.444084
24.444156
24.444463
24.445274
24.446639
24.447922
24.448183
24.447338
24.445734
24.443678
24.443782
24.444136
24.44501
24.446497
24.448079
24.448659
24.447762
24.446047
24.44303
24.443162
24.443547
24.444461
24.445953
24.447662
24.448639
24.447986
24.446198
24.442351
24.442511
24.442927
24.443875
24.445458
24.44727
24.448304
24.44788
24.446195
24.441971
24.442144
24.44257
24.443545
24.44517
24.447015
24.448076
24.44768
24.446125
24.441971
24.442143
24.44257
24.443545
24.44517
24.447014
24.448076
24.44768
24.446125
24.44235
24.44251
24.442926
24.443874
24.445457
24.44727
24.448303
24.44788
24.446195
24.443029
24.443161
24.443546
24.44446
24.445952
24.447661
24.448638
24.447985
24.446197
24.443677
24.443781
24.444135
24.445008
24.446496
24.448078
24.448657
24.44776
24.446046
24.444082
24.444155
24.444461
24.445272
24.446637
24.447921
24.448182
24.447336
24.445732
24.444192
24.444234
24.444477
24.44515
24.446259
24.447312
24.447572
24.446812
24.445311
24.444199
24.444213
24.444398
24.444951
24.445868
24.446741
24.446949
24.446231
24.444829
24.44421
24.444186
24.444304
24.444739
24.445488
24.446196
24.446322
24.445627
24.44432
24.444118
24.444069
24.444134
24.44447
24.445076
24.445643
24.445699
24.445029
24.443828
24.444036
24.443964
24.443982
24.444229
24.4447
24.445132
24.445123
24.444478
24.443409
24.444055
24.443967
24.443938
24.444075
24.444376
24.444638
24.444547
24.443944
24.443082
24.44373
24.443627
24.443548
24.443587
24.443746
24.443889
24.443795
24.443318
24.44277
23.345086
23.345079
23.345038
23.344923
23.344742
23.344568
23.344524
23.344641
23.344772
23.344599
23.344611
23.344593
23.344496
23.344337
23.3442
23.344208
23.344395
23.34462
23.343892
23.34392
23.343919
23.343839
23.343707
23.343627
23.343721
23.344013
23.344349
23.343171
23.343212
23.343221
23.343147
23.343029
23.342996
23.34318
23.343595
23.344063
23.342445
23.342497
23.342515
23.342444
23.34234
23.342355
23.342634
23.343176
23.343783
23.341732
23.341793
23.341817
23.341748
23.341654
23.341713
23.342094
23.342768
23.343505
23.341111
23.341178
23.341201
23.341117
23.340998
23.341076
23.341574
23.342381
23.343239
23.340648
23.340718
23.340731
23.340605
23.340392
23.340435
23.34108
23.342035
23.342999
23.34055
23.340617
23.340631
23.340513
23.340313
23.340254
23.340722
23.341756
23.342806
23.340763
23.340831
23.340863
23.340796
23.340693
23.34064
23.340835
23.341615
23.342673
23.341047
23.341118
23.341164
23.341132
23.341047
23.341016
23.341218
23.341725
23.342612
23.341219
23.341296
23.341353
23.341327
23.341248
23.341229
23.341435
23.341893
23.342612
23.341219
23.341296
23.341353
23.341327
23.341248
23.341228
23.341435
23.341893
23.342612
23.341046
23.341118
23.341164
23.341131
23.341046
23.341015
23.341217
23.341725
23.342611
23.340762
23.34083
23.340862
23.340795
23.340692
23.340639
23.340834
23.341614
23.342672
23.340548
23.340616
23.34063
23.340511
23.340312
23.340252
23.34072
23.341755
23.342805
23.340647
23.340717
23.34073
23.340603
23.34039
23.340433
23.341078
23.342033
23.342998
23.341108
23.341176
23.341199
23.341114
23.340996
23.341073
23.341572
23.342379
23.343237
23.34173
23.341791
23.341814
23.341745
23.341651
23.34171
23.342091
23.342765
23.343503
23.342442
23.342493
23.342511
23.342441
23.342337
23.342351
23.34263
23.343173
23.343781
23.343167
23.343208
23.343217
23.343143
23.343025
23.342991
23.343176
23.343591
23.34406
23.343888
23.343915
23.343914
23.343834
23.343702
23.343622
23.343717
23.344009
23.344345
23.344593
23.344606
23.344587
23.344491
23.344331
23.344195
23.344203
23.34439
23.344615
23.34508
23.345073
23.345032
23.344918
23.344736
23.344562
23.344518
23.344635
23.344767
22.104844
22.104825
22.104808
22.104811
22.104826
22.104816
22.104733
22.10455
22.104352
22.104811
22.104794
22.104786
22.104808
22.10485
22.104863
22.104779
22.10457
22.104307
22.104737
22.10472
22.104719
22.104758
22.104828
22.104869
22.104794
22.104571
22.104264
22.10469
22.104676
22.10468
22.104731
22.104819
22.104876
22.104807
22.104577
22.104247
22.10465
22.104638
22.104648
22.104711
22.104817
22.10489
22.104827
22.104595
22.104251
22.104588
22.104582
22.104601
22.104678
22.104802
22.104893
22.104843
22.104615
22.104265
22.10452
22.104519
22.104545
22.104635
22.104775
22.104883
22.10485
22.104631
22.104283
22.10444
22.104443
22.104476
22.104574
22.104724
22.104848
22.104839
22.104639
22.1043
22.104372
22.104377
22.104414
22.104519
22.104676
22.104811
22.104815
22.104639
22.104313
22.104313
22.10432
22.104359
22.104467
22.104631
22.104783
22.104795
22.104635
22.104323
22.104256
22.104265
22.104306
22.104414
22.104577
22.104733
22.104776
22.104635
22.10433
22.104222
22.104231
22.104272
22.104378
22.104537
22.104685
22.104757
22.104635
22.104334
22.104221
22.10423
22.104271
22.104378
22.104537
22.104685
22.104757
22.104635
22.104334
22.104256
22.104264
22.104305
22.104413
22.104576
22.104732
22.104775
22.104634
22.10433
22.104312
22.104319
22.104358
22.104466
22.10463
22.104782
22.104794
22.104634
22.104323
22.104371
22.104376
22.104413
22.104517
22.104674
22.104809
22.104813
22.104637
22.104312
22.104439
22.104441
22.104474
22.104571
22.104722
22.104845
22.104837
22.104637
22.104299
22.104518
22.104516
22.104543
22.104632
22.104771
22.104879
22.104847
22.104628
22.104282
22.104585
22.104579
22.104597
22.104674
22.104798
22.104889
22.10484
22.104611
22.104263
22.104645
22.104634
22.104644
22.104706
22.104812
22.104885
22.104823
22.10459
22.104248
22.104685
22.104671
22.104675
22.104725
22.104814
22.104871
22.104802
22.104572
22.104243
22.10473
22.104714
22.104712
22.104751
22.104822
22.104862
22.104788
22.104565
22.104258
22.104804
22.104787
22.104779
22.1048
22.104842
22.104856
22.104772
22.104562
22.104299
22.104836
22.104817
22.1048
22.104803
22.104818
22.104808
22.104724
22.104541
22.104343
20.932138
20.932142
20.932139
20.932118
20.93208
20.93204
20.932031
20.932062
20.932101
20.93204
20.932048
20.93205
20.932031
20.931995
20.931962
20.931965
20.932017
20.932085
20.931892
20.931904
20.931909
20.931893
20.931861
20.931838
20.931859
20.931936
20.932034
20.93174
20.931754
20.931761
20.931745
20.931714
20.931699
20.93174
20.931846
20.931975
20.931583
20.9316
20.931608
20.931593
20.931564
20.931558
20.931619
20.931754
20.931917
20.931426
20.931444
20.931454
20.931439
20.931413
20.931417
20.931499
20.931664
20.931857
20.93128
20.931299
20.931309
20.931295
20.93127
20.931283
20.931385
20.931577
20.931797
20.931149
20.931169
20.93118
20.931164
20.931141
20.931161
20.931282
20.931497
20.931741
20.931042
20.931062
20.931073
20.931057
20.931033
20.931058
20.931194
20.931429
20.931692
20.930962
20.930982
20.930993
20.930976
20.930951
20.930974
20.931125
20.931375
20.931651
20.930912
20.930932
20.930943
20.930927
20.930906
20.930936
20.931085
20.931341
20.931624
20.930889
20.93091
20.930921
20.930906
20.93089
20.930934
20.93107
20.931324
20.931611
20.930889
20.93091
20.93092
20.930905
20.93089
20.930934
20.93107
20.931324
20.931611
20.930911
20.930932
20.930942
20.930926
20.930905
20.930936
20.931085
20.93134
20.931624
20.930961
20.930981
20.930991
20.930975
20.93095
20.930973
20.931124
20.931375
20.931651
20.93104
20.931061
20.931071
20.931055
20.931031
20.931055
20.931192
20.931427
20.931691
20.931147
20.931167
20.931177
20.931162
20.931138
20.931159
20.931279
20.931495
20.93174
20.931277
20.931296
20.931306
20.931291
20.931266
20.931279
20.931382
20.931574
20.931796
20.931422
20.93144
20.931449
20.931435
20.931408
20.931412
20.931495
20.93166
20.931855
20.931578
20.931594
20.931602
20.931587
20.931558
20.931552
20.931614
20.93175
20.931914
20.931733
20.931747
20.931754
20.931738
20.931707
20.931692
20.931733
20.93184
20.931971
20.931884
20.931895
20.9319
20.931884
20.931852
20.931829
20.931851
20.931929
20.932028
20.93203
20.932038
20.93204
20.932021
20.931985
20.931952
20.931955
20.932008
20.932078
20.932127
20.932131
20.932128
20.932107
20.932069
20.932029
20.93202
20.932052
20.932092
19.725813
19.725807
19.725802
19.725803
19.725809
19.725811
19.725797
19.725758
19.725714
19.725797
19.725792
19.725789
19.725795
19.725808
19.725816
19.725803
19.725759
19.725702
19.725777
19.725771
19.72577
19.72578
19.7258
19.725816
19.725804
19.725756
19.725688
19.725768
19.725762
19.725761
19.725775
19.7258
19.725819
19.725808
19.725756
19.725681
19.725764
19.725758
19.725759
19.725775
19.725804
19.725826
19.725815
19.725761
19.725679
19.725759
19.725754
19.725757
19.725776
19.725809
19.725835
19.725825
19.725768
19.725682
19.725757
19.725753
19.725757
19.725779
19.725815
19.725843
19.725834
19.725776
19.725687
19.725755
19.725752
19.725757
19.725782
19.725821
19.725852
19.725845
19.725785
19.725692
19.725754
19.725752
19.725758
19.725784
19.725826
19.725861
19.725855
19.725792
19.725697
19.725752
19.72575
19.725758
19.725785
19.725828
19.725863
19.725857
19.725796
19.725701
19.725749
19.725748
19.725756
19.725784
19.725826
19.725859
19.725852
19.725794
19.725701
19.725748
19.725747
19.725755
19.725783
19.725826
19.725858
19.72585
19.72579
19.7257
19.725748
19.725747
19.725755
19.725783
19.725826
19.725857
19.725849
19.72579
19.7257
19.725749
19.725747
19.725755
19.725783
19.725826
19.725858
19.725852
19.725794
19.725701
19.725751
19.725749
19.725756
19.725783
19.725826
19.725862
19.725856
19.725795
19.725701
19.725753
19.72575
19.725756
19.725782
19.725824
19.725859
19.725853
19.725791
19.725697
19.725753
19.72575
19.725755
19.725779
19.725818
19.725849
19.725842
19.725783
19.725692
19.725753
19.72575
19.725753
19.725775
19.725811
19.725839
19.725831
19.725774
19.725686
19.725754
19.72575
19.725752
19.725771
19.725803
19.725829
19.72582
19.725765
19.72568
19.725757
19.725752
19.725752
19.725768
19.725797
19.725819
19.725809
19.725756
19.725677
19.725759
19.725753
19.725753
19.725766
19.72579
19.72581
19.725799
19.72575
19.725677
19.725767
19.72576
19.725759
19.725769
19.725789
19.725804
19.725794
19.725748
19.725683
19.725785
19.725779
19.725776
19.725781
19.725794
19.725803
19.72579
19.725748
19.725695
19.725799
19.725793
19.725787
19.725788
19.725794
19.725797
19.725783
19.725745
19.725703
18.534544
18.534545
18.534545
18.534541
18.534531
18.534519
18.534512
18.534513
18.53452
18.534518
18.53452
18.534521
18.534518
18.534509
18.534499
18.534496
18.534504
18.534518
18.534478
18.534482
18.534484
18.53448
18.534473
18.534466
18.534469
18.534484
18.534505
18.534437
18.534441
18.534444
18.53444
18.534433
18.534429
18.534436
18.534459
18.53449
18.534395
18.5344
18.534403
18.5344
18.534393
18.534391
18.534403
18.534434
18.534473
18.534353
18.534358
18.534361
18.534358
18.534352
18.534352
18.534369
18.534408
18.534455
18.534314
18.53432
18.534323
18.53432
18.534313
18.534315
18.534337
18.534383
18.534437
18.534279
18.534285
18.534288
18.534285
18.534278
18.534281
18.534307
18.534359
18.53442
18.534251
18.534256
18.534259
18.534256
18.534249
18.53425
18.53428
18.53434
18.534406
18.53423
18.534236
18.534239
18.534235
18.534228
18.534232
18.534266
18.534327
18.534396
18.534217
18.534223
18.534226
18.534222
18.534218
18.534227
18.534263
18.534323
18.534392
18.534211
18.534217
18.53422
18.534217
18.534213
18.534224
18.534262
18.534324
18.53439
18.534211
18.534217
18.53422
18.534216
18.534212
18.534224
18.534261
18.534324
18.53439
18.534217
18.534222
18.534225
18.534222
18.534217
18.534226
18.534262
18.534322
18.534392
18.534229
18.534235
18.534238
18.534234
18.534227
18.534231
18.534265
18.534326
18.534397
18.534249
18.534255
18.534258
18.534254
18.534247
18.534248
18.534278
18.534339
18.534406
18.534277
18.534283
18.534286
18.534282
18.534275
18.534278
18.534305
18.534358
18.53442
18.534311
18.534316
18.534319
18.534315
18.534309
18.534311
18.534334
18.53438
18.534436
18.534349
18.534354
18.534356
18.534353
18.534346
18.534346
18.534365
18.534404
18.534453
18.534389
18.534393
18.534396
18.534392
18.534385
18.534383
18.534397
18.534429
18.53447
18.534429
18.534433
18.534434
18.534431
18.534424
18.53442
18.534428
18.534453
18.534486
18.534467
18.534471
18.534472
18.534469
18.534461
18.534455
18.534458
18.534475
18.5345
18.534504
18.534507
18.534508
18.534504
18.534495
18.534486
18.534483
18.534493
18.53451
18.534529
18.53453
18.53453
18.534526
18.534516
18.534504
18.534497
18.534499
18.534508
17.337319
17.337318
17.337316
17.337316
17.337317
17.337318
17.337315
17.337307
17.337296
17.337313
17.337312
17.337311
17.337312
17.337314
17.337316
17.337312
17.337302
17.337289
17.337306
17.337305
17.337305
17.337306
17.33731
17.337312
17.337308
17.337297
17.337281
17.337303
17.337302
17.337302
17.337304
17.337308
17.33731
17.337306
17.337293
17.337276
17.337303
17.337301
17.337302
17.337304
17.337309
17.337312
17.337307
17.337294
17.337274
17.337304
17.337303
17.337304
17.337307
17.337313
17.337317
17.337314
17.337299
17.337278
17.337309
17.337308
17.337308
17.337312
17.33732
17.337326
17.337324
17.337309
17.337286
17.337314
17.337313
17.337314
17.337319
17.337328
17.337336
17.337336
17.337321
17.337296
17.33732
17.337319
17.33732
17.337326
17.337336
17.337346
17.337346
17.337332
17.337306
17.337325
17.337324
17.337325
17.337331
17.337343
17.337354
17.337355
17.337341
17.337315
17.337329
17.337328
17.337329
17.337336
17.337348
17.33736
17.337361
17.337347
17.337321
17.337331
17.33733
17.337331
17.337338
17.337351
17.337362
17.337364
17.33735
17.337325
17.337331
17.33733
17.337331
17.337338
17.33735
17.337362
17.337364
17.33735
17.337325
17.337328
17.337327
17.337328
17.337335
17.337347
17.337359
17.33736
17.337347
17.337321
17.337324
17.337323
17.337324
17.33733
17.337342
17.337353
17.337354
17.33734
17.337315
17.337319
17.337317
17.337318
17.337324
17.337334
17.337344
17.337344
17.337331
17.337306
17.337312
17.337311
17.337312
17.337316
17.337325
17.337333
17.337333
17.337319
17.337296
17.337306
17.337304
17.337305
17.337308
17.337315
17.337322
17.33732
17.337307
17.337285
17.3373
17.337299
17.337299
17.337302
17.337307
17.337312
17.337309
17.337296
17.337276
17.337296
17.337295
17.337295
17.337297
17.337302
17.337305
17.337301
17.337289
17.337272
17.337295
17.337293
17.337293
17.337295
17.337299
17.337301
17.337298
17.337287
17.337272
17.337296
17.337294
17.337293
17.337295
17.337299
17.337301
17.337298
17.337288
17.337275
17.3373
17.337299
17.337298
17.337299
17.337301
17.337303
17.3373
17.33729
17.33728
17.337305
17.337303
17.337302
17.337302
17.337302
17.337303
17.3373
17.337292
17.337284
16.141964
16.141964
16.141964
16.141964
16.141962
16.14196
16.141958
16.141957
16.141959
16.141964
16.141964
16.141965
16.141964
16.141963
16.141961
16.14196
16.141962
16.141966
16.141959
16.14196
16.14196
16.14196
16.141959
16.141958
16.141959
16.141962
16.141967
16.141953
16.141954
16.141954
16.141954
16.141953
16.141953
16.141956
16.14196
16.141966
16.141946
16.141947
16.141948
16.141948
16.141947
16.141948
16.141951
16.141957
16.141964
16.141937
16.141938
16.141939
16.14194
16.141939
16.14194
16.141943
16.141951
16.14196
16.141927
16.141929
16.14193
16.14193
16.14193
16.14193
16.141933
16.141941
16.141952
16.141918
16.14192
16.141921
16.141921
16.14192
16.141919
16.141922
16.141931
16.141943
16.14191
16.141911
16.141913
16.141912
16.14191
16.141909
16.141912
16.141921
16.141935
16.141903
16.141905
16.141906
16.141905
16.141903
16.141901
16.141904
16.141914
16.141928
16.141898
16.1419
16.141901
16.1419
16.141898
16.141896
16.141899
16.141909
16.141923
16.141895
16.141897
16.141898
16.141897
16.141895
16.141893
16.141896
16.141906
16.141921
16.141895
16.141897
16.141898
16.141897
16.141894
16.141893
16.141896
16.141906
16.141921
16.141898
16.141899
16.1419
16.1419
16.141897
16.141895
16.141898
16.141909
16.141923
16.141902
16.141904
16.141905
16.141904
16.141902
16.1419
16.141903
16.141913
16.141928
16.141908
16.14191
16.141911
16.14191
16.141908
16.141907
16.14191
16.14192
16.141935
16.141916
16.141918
16.141919
16.141918
16.141917
16.141916
16.141919
16.141929
16.141943
16.141925
16.141926
16.141927
16.141926
16.141926
16.141926
16.141929
16.141939
16.141952
16.141933
16.141934
16.141934
16.141934
16.141934
16.141935
16.141939
16.141947
16.141958
16.14194
16.14194
16.141941
16.141941
16.14194
16.141941
16.141945
16.141952
16.141962
16.141945
16.141946
16.141946
16.141945
16.141944
16.141944
16.141948
16.141954
16.141962
16.141949
16.141949
16.141949
16.141949
16.141948
16.141947
16.141949
16.141954
16.141961
16.141951
16.141952
16.141952
16.141951
16.14195
16.141948
16.141948
16.141951
16.141957
16.14195
16.14195
16.14195
16.14195
16.141948
16.141946
16.141944
16.141943
16.141947
14.946388
14.946387
14.946387
14.946387
14.946387
14.946386
14.946386
14.946386
14.946385
14.946388
14.946387
14.946387
14.946387
14.946387
14.946387
14.946386
14.946385
14.946385
14.946388
14.946388
14.946388
14.946388
14.946389
14.946389
14.946389
14.946388
14.946387
14.94639
14.94639
14.94639
14.94639
14.946391
14.946392
14.946392
14.946392
14.946391
14.946392
14.946391
14.946392
14.946392
14.946394
14.946395
14.946396
14.946396
14.946395
14.946393
14.946393
14.946394
14.946394
14.946396
14.946398
14.9464
14.9464
14.946399
14.946395
14.946395
14.946396
14.946397
14.946399
14.946401
14.946404
14.946404
14.946403
14.946397
14.946397
14.946397
14.946399
14.946401
14.946404
14.946407
14.946408
14.946407
14.946398
14.946398
14.946399
14.9464
14.946403
14.946406
14.94641
14.946411
14.94641
14.9464
14.9464
14.9464
14.946402
14.946404
14.946408
14.946412
14.946414
14.946413
14.946401
14.946401
14.946401
14.946402
14.946405
14.946409
14.946413
14.946415
14.946415
14.946401
14.946401
14.946401
14.946403
14.946406
14.94641
14.946414
14.946416
14.946416
14.946401
14.946401
14.946401
14.946403
14.946406
14.94641
14.946414
14.946416
14.946416
14.9464
14.9464
14.9464
14.946402
14.946405
14.946409
14.946413
14.946415
14.946415
14.946399
14.946399
14.946399
14.9464
14.946403
14.946407
14.946411
14.946413
14.946413
14.946397
14.946397
14.946397
14.946399
14.946401
14.946404
14.946408
14.94641
14.94641
14.946395
14.946395
14.946395
14.946396
14.946398
14.946401
14.946404
14.946406
14.946407
14.946392
14.946392
14.946392
14.946393
14.946395
14.946398
14.9464
14.946402
14.946403
14.946389
14.946389
14.946389
14.94639
14.946391
14.946393
14.946396
14.946397
14.946398
14.946386
14.946386
14.946386
14.946386
14.946387
14.946389
14.946391
14.946392
14.946393
14.946382
14.946382
14.946382
14.946382
14.946383
14.946384
14.946385
14.946386
14.946387
14.946379
14.946379
14.946378
14.946378
14.946379
14.946379
14.94638
14.94638
14.946381
14.946376
14.946376
14.946376
14.946376
14.946376
14.946375
14.946375
14.946375
14.946377
14.946375
14.946375
14.946374
14.946374
14.946374
14.946373
14.946373
14.946374
14.946375
13.750532
13.750532
13.750532
13.750532
13.750532
13.750531
13.750531
13.75053
13.750529
13.75053
13.75053
13.75053
13.75053
13.75053
13.75053
13.750529
13.750528
13.750527
13.750527
13.750527
13.750528
13.750528
13.750528
13.750528
13.750527
13.750526
13.750524
13.750525
13.750525
13.750525
13.750525
13.750525
13.750525
13.750525
13.750524
13.750522
13.750522
13.750522
13.750522
13.750523
13.750523
13.750523
13.750523
13.750521
13.75052
13.750519
13.75052
13.75052
13.75052
13.750521
13.750521
13.75052
13.750519
13.750518
13.750517
13.750517
13.750517
13.750518
13.750518
13.750518
13.750518
13.750517
13.750516
13.750515
13.750515
13.750515
13.750516
13.750516
13.750516
13.750516
13.750515
13.750514
13.750513
13.750513
13.750513
13.750513
13.750514
13.750514
13.750513
13.750513
13.750512
13.750511
13.750511
13.750511
13.750512
13.750512
13.750512
13.750511
13.750511
13.750511
13.75051
13.75051
13.75051
13.75051
13.750511
13.75051
13.75051
13.75051
13.750509
13.750509
13.750509
13.75051
13.75051
13.75051
13.75051
13.750509
13.750509
13.750509
13.750509
13.750509
13.750509
13.75051
13.75051
13.75051
13.750509
13.750509
13.750509
13.750509
13.75051
13.75051
13.75051
13.75051
13.75051
13.75051
13.750509
13.750509
13.75051
13.75051
13.75051
13.750511
13.750511
13.750511
13.75051
13.75051
13.75051
13.750511
13.750512
13.750512
13.750512
13.750512
13.750512
13.750512
13.750512
13.750512
13.750513
13.750513
13.750513
13.750513
13.750513
13.750513
13.750513
13.750514
13.750514
13.750514
13.750514
13.750515
13.750515
13.750515
13.750515
13.750515
13.750515
13.750515
13.750516
13.750516
13.750516
13.750516
13.750516
13.750516
13.750517
13.750516
13.750516
13.750517
13.750517
13.750517
13.750517
13.750517
13.750518
13.750518
13.750518
13.750518
13.750518
13.750518
13.750518
13.750518
13.750519
13.750519
13.750519
13.750519
13.750519
13.750519
13.750519
13.750519
13.75052
13.75052
13.75052
13.75052
13.75052
13.750519
13.750521
13.750521
13.750521
13.750521
13.750521
13.750521
13.75052
13.75052
13.75052
13.750521
13.750521
13.750521
13.750521
13.750521
13.750521
13.75052
13.75052
13.75052
12.554947
12.554947
12.554947
12.554947
12.554947
12.554947
12.554947
12.554947
12.554947
12.554946
12.554946
12.554946
12.554946
12.554946
12.554945
12.554945
12.554946
12.554945
12.554944
12.554944
12.554944
12.554944
12.554944
12.554944
12.554944
12.554944
12.554944
12.554942
12.554942
12.554942
12.554942
12.554942
12.554943
12.554943
12.554943
12.554943
12.554941
12.554941
12.554941
12.554941
12.554941
12.554941
12.554941
12.554942
12.554942
12.55494
12.55494
12.55494
12.55494
12.55494
12.55494
12.55494
12.554941
12.554942
12.554939
12.554939
12.554939
12.554939
12.554939
12.554939
12.554939
12.55494
12.554941
12.554938
12.554938
12.554938
12.554938
12.554938
12.554939
12.554939
12.55494
12.554941
12.554938
12.554938
12.554938
12.554938
12.554938
12.554939
12.554939
12.55494
12.554941
12.554938
12.554938
12.554938
12.554938
12.554938
12.554938
12.554939
12.55494
12.554941
12.554937
12.554937
12.554938
12.554938
12.554938
12.554938
12.554939
12.55494
12.554941
12.554937
12.554937
12.554937
12.554937
12.554938
12.554938
12.554939
12.55494
12.554941
12.554937
12.554937
12.554937
12.554937
12.554937
12.554938
12.554939
12.55494
12.554941
12.554937
12.554937
12.554937
12.554937
12.554937
12.554938
12.554939
12.55494
12.554941
12.554937
12.554937
12.554937
12.554937
12.554937
12.554937
12.554938
12.55494
12.55494
12.554937
12.554937
12.554937
12.554937
12.554937
12.554937
12.554938
12.554939