/*--------------------------------*- C++ -*----------------------------------*\
| =========                 |                                                 |
| \\      /  F ield         | OpenFOAM: The Open Source CFD Toolbox           |
|  \\    /   O peration     | Version:  2406                                  |
|   \\  /    A nd           | Website:  www.openfoam.com                      |
|    \\/     M anipulation  |                                                 |
\*---------------------------------------------------------------------------*/
FoamFile
{
    version     2.0;
    format      ascii;
    arch        "LSB;label=32;scalar=64";
    class       surfaceScalarField;
    location    "6.5";
    object      phi;
}
// * * * * * * * * * * * * * * * * * * * * * * * * * * * * * * * * * * * * * //

dimensions      [0 3 -1 0 0 0 0];

oriented        oriented;

internalField   nonuniform List<scalar> 
101088
(
0.0001475995
-2.346492e-05
1.7805972e-05
2.0375596e-05
0.00031048998
-0.00010033352
7.6285092e-05
8.8302053e-05
0.00046495851
-0.00023959863
0.00018117872
0.00021289192
0.00057949824
-0.00045013856
0.00033554662
0.00040369281
0.00063189991
-0.00070725517
0.00051290074
0.00064119936
0.00062919697
-0.00094499334
0.00065625812
0.00086656322
0.00060432802
-0.0010910972
0.00071102939
0.0010127275
0.00059025323
-0.0011140722
0.00066611358
0.001045393
-0.0010243761
0.00055375202
0.00096979256
0.00059896138
0.00017942419
-2.5959568e-05
2.2184571e-05
0.00037267301
-0.00010948755
9.4176345e-05
0.00054736755
-0.00025813034
0.0002218231
0.00066200303
-0.00047846204
0.00040713662
0.00069052242
-0.00074173217
0.00061659509
0.00064650651
-0.00097867134
0.00078329048
0.00057601387
-0.0011174489
0.00084779938
0.00051880206
-0.0011278559
0.00080077399
-0.0010256296
0.00067819884
0.00048911053
0.00021115912
-2.7531257e-05
2.6665327e-05
0.00043366121
-0.00011459804
0.00011223212
0.00062728386
-0.0002671159
0.00026223019
0.00074311418
-0.00048909247
0.00047701319
0.00075307941
-0.00074795883
0.00071565068
0.00067673157
-0.00097316839
0.00090188082
0.00056946675
-0.0010967601
0.0009727317
0.00047753978
-0.0010920556
0.00092154929
-0.00098056389
0.00078892106
0.00041751999
0.00024194254
-2.8114157e-05
3.1141662e-05
0.00049247081
-0.00011559719
0.00013001068
0.00070393721
-0.00026659877
0.00030145039
0.00082094688
-0.00048257923
0.00054378667
0.0008149622
-0.00072819844
0.00080876333
0.00071190148
-0.00093325921
0.0010115669
0.00057496345
-0.0010356731
0.0010865148
0.00045625249
-0.0010151937
0.0010300336
-0.00089870878
0.00088698551
0.00037408929
0.00027083833
-2.749314e-05
3.5431597e-05
0.00054716571
-0.00011209585
0.00014690827
0.00077474378
-0.00025655153
0.00033844726
0.00089281544
-0.0004601042
0.00060630314
0.00087303048
-0.00068559271
0.00089527012
0.00074755227
-0.00086451769
0.0011126364
0.00058607013
-0.00094138724
0.0011902891
0.00044575979
-0.00090542007
0.001127856
-0.00078822663
0.00097422517
0.00034634696
0.00029776401
-2.5986328e-05
3.9499415e-05
0.00059836829
-0.00010515931
0.00016282022
0.00084145336
-0.00023898787
0.00037307784
0.0009611137
-0.0004246949
0.00066455685
0.00092890162
-0.00062415303
0.00097557919
0.00078277009
-0.00077198285
0.0012060006
0.00059899775
-0.00082033829
0.0012854255
0.00043979202
-0.00077021472
0.0012165441
-0.00065714063
0.0010522837
0.00032639063
0.00032140805
-2.3553351e-05
4.3257336e-05
0.00064261463
-9.4796045e-05
0.00017746011
0.00089770112
-0.00021429323
0.00040487105
0.0010163076
-0.00037767806
0.00071797123
0.0009703721
-0.00054694475
0.0010492437
0.0008039878
-0.00066118401
0.0012915039
0.0006006397
-0.00068113264
0.0013721091
0.00042696204
-0.00062024014
0.001296735
-0.00051632688
0.0011222548
0.00030448424
0.0003414995
-2.0245995e-05
4.6620233e-05
0.0006794818
-8.1217783e-05
0.00019061429
0.00094269191
-0.00018295507
0.00043363044
0.0010565157
-0.00032009665
0.00076664351
0.00099376892
-0.00045643001
0.0011168413
0.00080588541
-0.00053735023
0.0013701468
0.00058503161
-0.00053293324
0.0014516021
0.00040132268
-0.00046714643
0.0013699146
-0.0003776168
0.0011856831
0.00027497107
0.00035770438
-1.6113168e-05
4.952864e-05
0.00070825829
-6.4579042e-05
0.00020210465
0.00097514453
-0.00014521329
0.0004590893
0.0010794547
-0.00025247237
0.00081043387
0.00099593807
-0.00035448234
0.0011781092
0.00078516749
-0.00040557845
0.0014416163
0.00054943421
-0.00038523512
0.0015237099
0.00036051557
-0.00032277017
0.0014363132
-0.00025174793
0.0012427846
0.0002349289
0.0003698761
-1.1288054e-05
5.1900377e-05
0.00072890899
-4.5221289e-05
0.00021160578
0.00099550372
-0.00010150887
0.00048049111
0.0010865885
-0.00017544334
0.00084793134
0.00097962064
-0.00024279418
0.0012311393
0.00074605794
-0.00027023683
0.001503425
0.00049876204
-0.00024583318
0.0015860403
0.00030936444
-0.00019626067
0.0014936415
-0.00014732904
0.0012921262
0.00018904475
0.00037772507
-5.8341247e-06
5.3649168e-05
0.00074109462
-2.3345339e-05
0.00021863204
0.001004442
-5.2350855e-05
0.0004964165
0.0010815863
-9.01347e-05
0.00087610371
0.00095289702
-0.00012347273
0.0012714418
0.00070055718
-0.0001345293
0.001550128
0.00044619017
-0.00011833102
0.0016330976
0.0002598187
-9.0784654e-05
0.0015372854
-6.6044133e-05
0.0013299314
0.00014649826
0.00038163898
-3.1714094e-11
5.4520957e-05
0.00074694265
-1.4468617e-10
0.00022223798
0.0010078333
-4.1568114e-10
0.00050483186
0.0010761862
-9.2764172e-10
0.00089142223
0.00093411146
-1.446498e-09
0.001293881
0.00067061665
-2.0190442e-09
0.0015766904
0.00041277759
-2.4625196e-09
0.0016598376
0.00022906849
-2.5773774e-09
0.0015621483
-2.0171203e-09
0.0013512273
0.00012050818
0.00038163896
5.834058e-06
5.4520947e-05
0.00074694252
2.3345041e-05
0.00022223794
0.0010078332
5.2350041e-05
0.00050483177
0.0010761865
9.013295e-05
0.00089142204
0.00093411162
0.00012347003
0.0012938808
0.00067061676
0.00013452552
0.0015766901
0.00041277775
0.00011832643
0.0016598373
0.0002290688
9.077976e-05
0.001562148
6.6040093e-05
0.001351227
0.00012050856
0.00037772513
1.1287985e-05
5.3649165e-05
0.0007410945
4.5221011e-05
0.00021863203
0.0010044421
0.00010150817
0.00049641645
0.0010815871
0.0001754419
0.00087610352
0.00095289757
0.00024279192
0.0012714416
0.00070055764
0.00027023362
0.0015501277
0.00044619054
0.0002458294
0.0016330972
0.0002598195
0.00019625635
0.0015372849
0.00014732485
0.0013299309
0.00014649918
0.00036987623
1.6113109e-05
5.1900363e-05
0.00072890901
6.4578773e-05
0.00021160572
0.00099550364
0.00014521267
0.00048049095
0.0010865891
0.00025247113
0.00084793097
0.00097962115
0.00035448026
0.0012311389
0.00074605854
0.00040557555
0.0015034244
0.00049876233
0.00038523182
0.0015860397
0.00030936526
0.00032276626
0.0014936408
0.00025174336
0.0012921255
0.00018904565
0.00035770474
2.0245955e-05
4.952863e-05
0.00070825876
8.121747e-05
0.0002021046
0.00097514444
0.00018295445
0.00045908921
0.0010794555
0.00032009552
0.00081043365
0.00099593889
0.00045642789
0.001178109
0.00078516837
0.00053734724
0.001441616
0.00054943433
0.00053292967
0.0015237095
0.00036051607
0.00046714243
0.0014363127
0.00037761193
0.0012427839
0.00023492947
0.00034149971
2.3553292e-05
4.6620231e-05
0.00067948224
9.4795774e-05
0.00019061429
0.00094269204
0.00021429277
0.00043363044
0.001056517
0.00037767728
0.00076664342
0.00099377033
0.00054694291
0.0011168412
0.00080588649
0.00066118103
0.0013701466
0.00058503168
0.00068112866
0.0014516019
0.00040132269
0.00062023613
0.0013699142
0.00051632193
0.0011856825
0.00027497116
0.00032140838
2.5986314e-05
4.3257339e-05
0.00064261532
0.00010515926
0.00017746012
0.0008977014
0.00023898742
0.00040487108
0.0010163085
0.00042469395
0.00071797122
0.00097037316
0.00062415125
0.0010492436
0.00080398863
0.00077198008
0.0012915038
0.00060063996
0.00082033477
0.0013721089
0.00042696173
0.00077021141
0.0012967347
0.00065713554
0.0011222545
0.00030448341
0.00029776444
2.7493085e-05
3.9499426e-05
0.00059836902
0.00011209562
0.00016282026
0.00084145347
0.00025655073
0.00037307795
0.00096111393
0.00046010295
0.000664557
0.00092890227
0.00068559113
0.00097557934
0.00078277084
0.00086451555
0.0012060008
0.00059899837
0.00094138506
0.0012854256
0.00043979127
0.00090541776
0.001216544
0.00078822171
0.0010522835
0.00032638846
0.00027083847
2.8114077e-05
3.5431597e-05
0.0005471661
0.00011559694
0.00014690826
0.000774744
0.00026659834
0.00033844724
0.00089281546
0.00048257881
0.00060630309
0.00087303057
0.00072819798
0.00089526999
0.00074755298
0.00093325794
0.0011126363
0.0005860707
0.001035671
0.001190289
0.00044575855
0.0010151913
0.001127856
0.00089870625
0.00097422494
0.00034634362
0.00024194257
2.7531198e-05
3.1141656e-05
0.00049247104
0.00011459781
0.00013001065
0.00070393724
0.00026711541
0.00030145031
0.00082094606
0.00048909163
0.00054378656
0.00081496091
0.00074795789
0.00080876319
0.00071190094
0.00097316706
0.0010115667
0.0005749629
0.0010967579
0.0010865147
0.00045625128
0.0010920538
0.0010300335
0.00098056384
0.00088698538
0.0003740855
0.000211159
2.5959497e-05
2.6665323e-05
0.00043366095
0.00010948731
0.0001122321
0.00062728331
0.00025812988
0.00026223013
0.00074311296
0.00047846132
0.00047701309
0.00075307722
0.00074173139
0.00071565058
0.00067672877
0.00097867037
0.00090188073
0.00056946403
0.0011174471
0.00097273154
0.00047753891
0.0011278555
0.00092154902
0.0010256302
0.00078892097
0.00041751642
0.00017942406
2.3464888e-05
2.2184573e-05
0.00037267264
0.00010033342
9.4176346e-05
0.00054736681
0.00023959848
0.00022182309
0.00066200164
0.00045013834
0.00040713659
0.00069051974
0.00070725508
0.00061659506
0.0006465024
0.00094499343
0.00078329047
0.00057600937
0.0010910964
0.00084779934
0.00051879827
0.0011140725
0.000800774
0.0010243767
0.00067819875
0.00048910668
0.00014759944
1.7805977e-05
2.0375635e-05
0.00031048964
7.6285108e-05
8.83022e-05
0.00046495747
0.00018117875
0.00021289226
0.00057949626
0.00033554666
0.00040369344
0.00063189661
0.00051290079
0.00064120025
0.00062919219
0.00065625825
0.00086656391
0.00060432335
0.00071102948
0.0010127274
0.00059024946
0.00066611376
0.001045393
0.000553752
0.00096979076
0.00059896219
2.5506736e-06
-4.1469512e-06
1.6569383e-05
2.8328638e-06
1.1529576e-05
-2.1110043e-05
7.329672e-05
1.5119564e-05
3.0129323e-05
-6.0240025e-05
0.00017815646
4.4662674e-05
6.1398102e-05
-0.00013660886
0.00033647144
0.00010441538
0.00010399774
-0.00025731256
0.00052491128
0.00020270238
0.00015030246
-0.00040207592
0.0006861096
0.00032591973
0.00019521075
-0.0005243702
0.00075814683
0.0004323443
0.00023707794
-0.00058629112
0.000720906
0.00048963148
-0.00057855877
0.00060371403
0.00049085692
0.00027481745
3.3842684e-06
-5.272106e-06
1.9925519e-05
1.5203423e-05
-2.6657088e-05
8.7904469e-05
3.8839904e-05
-7.5023062e-05
0.00021297015
7.5816228e-05
-0.00016676164
0.0004003139
0.00012104448
-0.00030679885
0.00062085408
0.00016356229
-0.00046840964
0.00080710676
0.00019668976
-0.00059984126
0.00089014316
0.00022158698
-0.00066139235
0.00085097755
-0.0006451665
0.00072420433
0.00024218982
4.5489411e-06
-6.3116205e-06
2.3155887e-05
1.9873984e-05
-3.1685952e-05
0.00010193592
4.9120795e-05
-8.8249266e-05
0.00024620977
9.2024627e-05
-0.00019317659
0.00046052465
0.00013974517
-0.00034840151
0.00070953291
0.000178165
-0.00052080289
0.0009158547
0.00020080064
-0.00065475012
0.0010050046
0.00021175206
-0.00071175006
0.00096095519
-0.00068699067
0.00082464673
0.00021785045
5.9050489e-06
-7.2882041e-06
2.6213243e-05
2.5362576e-05
-3.6279266e-05
0.00011514659
6.1041735e-05
-9.9758925e-05
0.00027728145
0.00011032394
-0.0002148875
0.00051621617
0.00016049163
-0.00038015098
0.00079034519
0.00019497521
-0.00055679341
0.001013074
0.00020827452
-0.00068700956
0.0011054742
0.00020755354
-0.00073611677
0.0010551211
-0.00070272238
0.00090901338
0.00020125739
7.2472362e-06
-8.07099e-06
2.8967137e-05
3.076097e-05
-3.9964261e-05
0.00012707954
7.2789171e-05
-0.00010870544
0.00030536578
0.00012829916
-0.00023053618
0.00056644177
0.00018097028
-0.00040034209
0.00086279068
0.0002120773
-0.00057461976
0.0010993548
0.0002172548
-0.00069536127
0.0011934629
0.0002064589
-0.00073375123
0.0011362862
-0.00069241958
0.0009804232
0.00018995758
8.6535756e-06
-8.6697867e-06
3.1444574e-05
3.6308861e-05
-4.2620108e-05
0.00013782069
8.4966658e-05
-0.00011491889
0.00033063392
0.00014686461
-0.00023942021
0.00061154271
0.00020203941
-0.00040749359
0.00092755603
0.00022967286
-0.00057213921
0.0011758865
0.00022695384
-0.00067786121
0.0012706444
0.00020664704
-0.00070332384
0.0012064232
-0.00065578142
0.0010410394
0.00018125293
9.8799422e-06
-8.9354934e-06
3.3643101e-05
4.0976013e-05
-4.3590807e-05
0.00014733456
9.4486787e-05
-0.00011654411
0.0003529853
0.00016078774
-0.00023913421
0.00065138378
0.00021647891
-0.00039851571
0.00098457396
0.0002395447
-0.00054647877
0.001242777
0.0002293019
-0.00063289324
0.0013373841
0.00020140473
-0.00064499577
0.001266304
-0.00059401747
0.0010920915
0.00016980428
1.0829218e-05
-8.6778015e-06
3.5533053e-05
4.4340874e-05
-4.2051521e-05
0.00015556348
0.0001004665
-0.00011147861
0.00037243985
0.00016832458
-0.00022665145
0.00068630235
0.00022120238
-0.00036928884
0.0010347367
0.00023762973
-0.00049414908
0.0013013895
0.0002200634
-0.00055902447
0.0013953002
0.00018670399
-0.00055932596
0.0013176041
-0.00050862155
0.0011352713
0.00015172005
1.1539472e-05
-7.8029891e-06
3.711389e-05
4.6555461e-05
-3.7476137e-05
0.0001625131
0.00010339077
-9.8260184e-05
0.00038903604
0.00016757122
-0.0001968169
0.00071641837
0.00021324576
-0.00031518607
0.0010783325
0.00022067271
-0.00041217669
0.0013522174
0.00019609069
-0.00045579576
0.0014450638
0.00015960855
-0.00044767253
0.0013611415
-0.00040176495
0.0011714895
0.00012404719
1.1827762e-05
-6.1102329e-06
3.8379771e-05
4.679102e-05
-2.8971906e-05
0.00016813838
0.00010149487
-7.5075782e-05
0.00040260324
0.00015988165
-0.00014850378
0.00074123099
0.00019531742
-0.00023392194
0.0011144398
0.0001900904
-0.00029781828
0.001394294
0.00015851438
-0.00032405824
0.001485879
0.00012007948
-0.00031212503
0.0013965283
-0.00027630925
0.0012006325
8.6117568e-05
1.1618655e-05
-3.4278659e-06
3.9348262e-05
4.4982611e-05
-1.6063952e-05
0.00017236024
9.4851486e-05
-4.1177345e-05
0.0004126494
0.00014355056
-8.0513735e-05
0.00075941462
0.00016571822
-0.00012526864
0.001140621
0.00015132989
-0.00015780978
0.0014245079
0.00011436545
-0.0001689419
0.0015149456
7.7763349e-05
-0.00015982861
0.0014215907
-0.00014068553
0.0012211379
5.0933258e-05
1.1290573e-05
2.3453351e-11
3.9802572e-05
4.3034062e-05
5.94234e-11
0.00017443047
8.8947345e-05
1.0633343e-10
0.0004177411
0.00013100574
8.9711872e-11
0.00076885032
0.00014523538
1.5638406e-11
0.0011543827
0.00012361732
-2.7445828e-11
0.0014404986
8.4158238e-05
1.859594e-10
0.0015303545
5.1569911e-05
4.3285753e-10
0.0014349076
9.368279e-10
0.0012320535
3.0057487e-05
1.1290571e-05
3.4279101e-06
3.9802565e-05
4.3034139e-05
1.6064073e-05
0.00017443044
8.8947351e-05
4.1177581e-05
0.00041774103
0.00013100575
8.051387e-05
0.00076885018
0.00014523531
0.00012526853
0.0011543826
0.00012361729
0.00015780964
0.0014404984
8.415828e-05
0.00016894242
0.0015303542
5.1570113e-05
0.00015982948
0.0014349075
0.00014068723
0.0012320534
3.0057718e-05
1.1618671e-05
6.1102531e-06
3.9348259e-05
4.4982693e-05
2.8971981e-05
0.00017236023
9.4851288e-05
7.5075971e-05
0.00041264935
0.00014355057
0.00014850382
0.0007594145
0.0001657178
0.00023392184
0.0011406209
0.00015132938
0.00029781813
0.0014245077
0.00011436549
0.00032405861
0.0015149453
7.7763887e-05
0.00031212569
0.0014215905
0.00027631038
0.0012211376
5.0933804e-05
1.1827968e-05
7.8029989e-06
3.837976e-05
4.6791218e-05
3.7476203e-05
0.00016813833
0.00010149458
9.8260292e-05
0.00040260312
0.00015988211
0.00019681677
0.00074123071
0.00019531768
0.0003151858
0.0011144395
0.00019009043
0.0004121765
0.0013942936
0.00015851447
0.00045579594
0.0014858785
0.0001200802
0.00044767265
0.0013965279
0.00040176515
0.001200632
8.6118316e-05
1.1539971e-05
8.6778492e-06
3.711388e-05
4.6556023e-05
4.2051705e-05
0.00016251306
0.00010339068
0.00011147874
0.00038903597
0.00016757189
0.00022665125
0.00071641819
0.00021324607
0.00036928845
0.0010783323
0.00022067288
0.00049414868
0.0013522172
0.00019609053
0.00055902413
0.0014450635
0.00015960902
0.00055932535
0.0013611412
0.0005086206
0.001171489
0.0001240482
1.0829542e-05
8.9355278e-06
3.553305e-05
4.4341097e-05
4.3590944e-05
0.00015556347
0.00010046619
0.00011654413
0.00037243984
0.00016832477
0.00023913387
0.00068630229
0.00022120242
0.00039851522
0.0010347367
0.00023762986
0.00054647828
0.0013013894
0.00022006297
0.00063289255
0.0013953
0.00018670406
0.00064499473
0.0013176038
0.00059401582
0.0011352709
0.00015172069
9.8799648e-06
8.66981e-06
3.3643104e-05
4.0976142e-05
4.2620253e-05
0.00014733457
9.4486786e-05
0.00011491907
0.00035298534
0.00016078779
0.00023942016
0.00065138379
0.00021647884
0.00040749362
0.0009845739
0.00023954467
0.00057213918
0.001242777
0.00022930133
0.00067786079
0.001337384
0.00020140452
0.00070332282
0.0012663039
0.00065577913
0.0010920913
0.00016980423
8.6536652e-06
8.0709713e-06
3.1444581e-05
3.6309079e-05
3.9964275e-05
0.00013782071
8.4966451e-05
0.00010870552
0.00033063398
0.00014686445
0.00023053633
0.00061154277
0.00020203897
0.00040034236
0.00092755612
0.00022967246
0.00057461997
0.0011758867
0.00022695329
0.00069536127
0.0012706445
0.0002066466
0.00073375036
0.0012064232
0.00069241701
0.0010410393
0.00018125205
7.2471918e-06
7.2882124e-06
2.8967134e-05
3.0760817e-05
3.627931e-05
0.00012707952
7.2788717e-05
9.9759079e-05
0.00030536574
0.00012829863
0.0002148878
0.00056644172
0.00018096917
0.00038015116
0.00086279064
0.00021207669
0.0005567939
0.0010993548
0.00021725423
0.00068700959
0.001193463
0.00020645793
0.00073611593
0.0011362861
0.00070272067
0.00098042302
0.00018995602
5.9050336e-06
6.311599e-06
2.6213236e-05
2.5362592e-05
3.168592e-05
0.00011514656
6.1041548e-05
8.8249288e-05
0.00027728137
0.0001103233
0.00019317677
0.00051621606
0.00016049073
0.00034840188
0.00079034501
0.00019497408
0.00052080333
0.0010130739
0.00020827352
0.00065475041
0.0011054741
0.00020755222
0.00071174949
0.0010551209
0.00068698989
0.0009090133
0.0002012556
4.5489613e-06
5.2720919e-06
2.3155882e-05
1.9874039e-05
2.6657082e-05
0.0001019359
4.9120597e-05
7.5023104e-05
0.00024620971
9.2023796e-05
0.00016676179
0.00046052455
0.00013974387
0.00030679913
0.00070953279
0.00017816348
0.00046840993
0.00091585461
0.0002007992
0.00059984156
0.0010050045
0.0002117509
0.00066139237
0.00096095491
0.00064516682
0.00082464659
0.00021784849
3.3842446e-06
4.1469357e-06
1.9925519e-05
1.5203273e-05
2.1110018e-05
8.7904466e-05
3.8839271e-05
6.0240042e-05
0.00021297013
7.5814789e-05
0.00013660899
0.00040031385
0.00012104234
0.00025731284
0.000620854
0.0001635597
0.0004020766
0.0008071067
0.00019668656
0.00052437042
0.00089014311
0.00022158451
0.00058629226
0.00085097744
0.00057855976
0.00072420419
0.00024218781
2.5506197e-06
1.6569388e-05
2.8329048e-06
1.152923e-05
7.3296733e-05
1.5119733e-05
3.0128255e-05
0.00017815648
4.4663089e-05
6.1396291e-05
0.00033647146
0.0001044162
0.00010399507
0.00052491132
0.00020270351
0.00015029872
0.00068610971
0.00032592066
0.00019520748
0.00075814692
0.00043234456
0.00023707519
0.00072090617
0.00048963205
0.00060371407
0.00049085552
0.00027481676
2.9074962e-07
-1.4750063e-06
1.6501549e-05
1.2520891e-06
1.9331313e-06
-7.6551499e-06
7.279501e-05
6.5144702e-06
6.015393e-06
-2.2486958e-05
0.0001775754
1.8985738e-05
1.3164872e-05
-5.3163121e-05
0.0003380373
4.4447758e-05
2.3878391e-05
-0.00010593348
0.00053178697
8.8344238e-05
3.8811145e-05
-0.00017645459
0.00069924783
0.00014838363
5.9039231e-05
-0.00024332544
0.00077350626
0.00020773788
8.5428575e-05
-0.00028213529
0.00073203835
0.00024461396
-0.00028289053
0.00060789422
0.00024928222
0.00011485675
3.5043967e-07
-1.6115317e-06
1.9711626e-05
2.4646526e-06
-8.5831147e-06
8.6718303e-05
7.6078212e-06
-2.5669715e-05
0.00021100997
1.5861308e-05
-6.1345585e-05
0.00040024343
2.6418264e-05
-0.00012231809
0.00062668252
3.8304953e-05
-0.00020148663
0.00082025246
5.1966439e-05
-0.0002727482
0.00090590502
6.9108651e-05
-0.00031007478
0.00086177497
-0.00030645496
0.00072665005
9.0228095e-05
5.134117e-07
-1.7278539e-06
2.275876e-05
3.3653328e-06
-9.4012792e-06
9.9902079e-05
9.9950931e-06
-2.8584027e-05
0.00024249434
1.9962572e-05
-6.8925123e-05
0.00045813687
3.1015849e-05
-0.00013706672
0.00071322827
4.0453216e-05
-0.0002224765
0.00092740778
4.8238977e-05
-0.00029464498
0.0010191159
5.7453644e-05
-0.00032764328
0.00096930904
-0.00031856058
0.0008237428
7.0463258e-05
7.5288931e-07
-1.8583314e-06
2.5590865e-05
4.5912762e-06
-1.018573e-05
0.00011209274
1.3167043e-05
-3.1292655e-05
0.00027141466
2.5357681e-05
-7.5673391e-05
0.00051077428
3.7290891e-05
-0.00014937952
0.00079072461
4.4649516e-05
-0.00023813927
0.0010213787
4.7338484e-05
-0.00030786002
0.001116
4.9910153e-05
-0.00033429076
0.0010591969
-0.00031921251
0.00090349334
5.6082347e-05
1.017769e-06
-1.9911703e-06
2.8082223e-05
5.9341061e-06
-1.0867646e-05
0.00012284514
1.6558135e-05
-3.3503558e-05
0.00029695274
3.1198976e-05
-8.1041506e-05
0.00055716897
4.4278256e-05
-0.00015827253
0.00085860528
4.9911201e-05
-0.00024720254
0.0011027847
4.8156354e-05
-0.00031136867
0.0011987264
4.5147494e-05
-0.00032971781
0.001134722
-0.00030908394
0.00096943299
4.6008924e-05
1.3624231e-06
-2.1727781e-06
3.0263763e-05
7.6661971e-06
-1.1605416e-05
0.00013225466
2.0611392e-05
-3.5101401e-05
0.00031928681
3.8063276e-05
-8.4581199e-05
0.00059763024
5.255339e-05
-0.00016269124
0.00091748512
5.6548739e-05
-0.00024810137
0.0011727901
5.0516381e-05
-0.00030378396
0.0012690922
4.2441915e-05
-0.00031335569
0.0011981354
-0.00028846261
0.0010239291
3.8930807e-05
1.6688553e-06
-2.3292827e-06
3.21308e-05
9.2476817e-06
-1.2127413e-05
0.00014027774
2.4631237e-05
-3.5760384e-05
0.00033826065
4.4339524e-05
-8.4823991e-05
0.00063191809
5.9521064e-05
-0.00016045688
0.0009671579
6.1364306e-05
-0.0002386029
0.0012314349
5.1250594e-05
-0.00028381552
0.0013275297
3.9081502e-05
-0.0002851902
0.0012503077
-0.00025826307
0.0010682598
3.2713939e-05
1.9321677e-06
-2.3868817e-06
3.3658229e-05
1.0591104e-05
-1.2088193e-05
0.00014686553
2.8161171e-05
-3.4792224e-05
0.0003539022
4.913361e-05
-7.9866618e-05
0.0006603726
6.4098187e-05
-0.00014919603
0.0010085118
6.3184843e-05
-0.00021648344
0.0012801834
4.9192369e-05
-0.00025031479
0.0013757925
3.4086237e-05
-0.00024546837
0.0012929885
-0.00021957226
0.0011040862
2.6580755e-05
1.9962097e-06
-2.1262275e-06
3.4856636e-05
1.1007259e-05
-1.0648939e-05
0.00015206276
2.9350846e-05
-3.04247e-05
0.00036632552
5.2037688e-05
-6.9266077e-05
0.00068313078
6.5952652e-05
-0.00012689388
0.0010421162
6.1698479e-05
-0.00017997771
0.0013199664
4.4433228e-05
-0.0002029241
0.0014149389
2.8079061e-05
-0.00019518049
0.0013272077
-0.00017384656
0.0011323568
2.1486067e-05
2.0451718e-06
-1.5352646e-06
3.5743574e-05
1.1374047e-05
-7.774028e-06
0.00015593473
3.0224413e-05
-2.23174e-05
0.00037564618
5.2486361e-05
-5.0664168e-05
0.00070036702
6.4347964e-05
-9.2210785e-05
0.0010678957
5.8629565e-05
-0.0001307954
0.0013508307
3.9787545e-05
-0.00014338393
0.0014451812
2.5032644e-05
-0.00013706227
0.0013531648
-0.00012277351
0.0011532036
2.1388353e-05
2.2338653e-06
-8.049226e-07
3.638417e-05
1.2272269e-05
-4.1055403e-06
0.00015865345
3.2415565e-05
-1.1850404e-05
0.00038203952
5.6173908e-05
-2.6966607e-05
0.00071195903
6.8585066e-05
-4.8907693e-05
0.0010849073
5.9207545e-05
-6.8360272e-05
0.0013714507
3.9841638e-05
-7.4374487e-05
0.0014653022
2.5959771e-05
-7.1485081e-05
0.0013698953
-6.3732572e-05
0.0011661296
2.1927157e-05
2.3444907e-06
2.0153438e-11
3.6653235e-05
1.2802978e-05
6.9233891e-11
0.00015986639
3.3655677e-05
1.9904003e-10
0.00038503799
5.7928313e-05
4.2215839e-10
0.00071761116
7.001436e-05
7.3018422e-10
0.0010933887
6.0505637e-05
8.9943889e-10
0.0013816463
4.1098456e-05
7.82403e-10
0.0014753866
2.6311874e-05
6.9234089e-10
0.0013782086
6.0162603e-10
0.0011726204
2.2012009e-05
2.3444631e-06
8.0496445e-07
3.6653229e-05
1.2803036e-05
4.1056909e-06
0.00015986636
3.3655678e-05
1.1850829e-05
0.00038503794
5.7928277e-05
2.6967421e-05
0.00071761105
7.0014194e-05
4.8909106e-05
0.0010933885
6.0505429e-05
6.8362093e-05
0.0013816461
4.1098362e-05
7.4376081e-05
0.0014753864
2.6311818e-05
7.1486524e-05
0.0013782085
6.3733695e-05
0.0011726204
2.201195e-05
2.2338407e-06
1.5352898e-06
3.638417e-05
1.2272356e-05
7.7741509e-06
0.00015865344
3.2415428e-05
2.2317783e-05
0.00038203951
5.617396e-05
5.0664814e-05
0.00071195898
6.8585108e-05
9.2211886e-05
0.0010849073
5.9207521e-05
0.00013079722
0.0013714506
3.9841346e-05
0.00014338599
0.0014653021
2.5959532e-05
0.00013706379
0.0013698952
0.00012277428
0.0011661295
2.1926937e-05
2.0453089e-06
2.1262534e-06
3.5743566e-05
1.1374158e-05
1.0649092e-05
0.0001559347
3.0223994e-05
3.0425115e-05
0.0003756461
5.2486351e-05
6.9266751e-05
0.00070036684
6.4347608e-05
0.00012689503
0.0010678955
5.8629025e-05
0.00017997948
0.0013508304
3.9786767e-05
0.00020292616
0.0014451809
2.5031994e-05
0.00019518183
0.0013531646
0.00017384672
0.0011532034
2.1387789e-05
1.9966065e-06
2.38696e-06
3.485663e-05
1.1007627e-05
1.2088519e-05
0.00015206273
2.9350569e-05
3.4792819e-05
0.00036632547
5.2037825e-05
7.9867418e-05
0.00068313066
6.5952285e-05
0.00014919718
0.001042116
6.1697814e-05
0.00021648512
0.0013199663
4.4432063e-05
0.00025031662
0.0014149388
2.8078047e-05
0.00024546941
0.0013272075
0.00021957212
0.0011323565
2.1485068e-05
1.9324725e-06
2.3293557e-06
3.3658228e-05
1.0591284e-05
1.212773e-05
0.00014686552
2.816092e-05
3.5760903e-05
0.0003539022
4.913357e-05
8.4824646e-05
0.00066037258
6.4097628e-05
0.00016045804
0.0010085118
6.3184121e-05
0.0002386047
0.0012801834
4.9191015e-05
0.00028381733
0.0013757924
3.4085044e-05
0.0002851912
0.0012929883
0.00025826264
0.001104086
2.6579913e-05
1.6688443e-06
2.1728379e-06
3.2130804e-05
9.247661e-06
1.1605734e-05
0.00014027776
2.4631129e-05
3.5102027e-05
0.0003382607
4.4339339e-05
8.4582042e-05
0.00063191813
5.952042e-05
0.00016269285
0.00096715793
6.1363546e-05
0.00024810368
0.0012314349
5.1249236e-05
0.00030378619
0.0013275297
3.9080294e-05
0.00031335684
0.0012503076
0.00028846179
0.0010682597
3.2712844e-05
1.3624382e-06
1.9912044e-06
3.0263771e-05
7.6662788e-06
1.0867867e-05
0.00013225469
2.0611209e-05
3.3504147e-05
0.00031928687
3.8063134e-05
8.1042618e-05
0.00059763031
5.2552626e-05
0.00015827441
0.00091748525
5.6547893e-05
0.00024720506
0.0011727903
5.0515268e-05
0.00031137117
0.0012690924
4.2440874e-05
0.00032971901
0.0011981355
0.00030908289
0.001023929
3.8929369e-05
1.0177199e-06
1.8583794e-06
2.8082222e-05
5.9339703e-06
1.0185958e-05
0.00012284513
1.6557819e-05
3.1293315e-05
0.00029695271
3.1198675e-05
7.5674632e-05
0.00055716894
4.4277311e-05
0.00014938123
0.00085860528
4.9910566e-05
0.00023814194
0.0011027847
4.815565e-05
0.00030786248
0.0011987265
4.5146534e-05
0.00033429198
0.001134722
0.00031921209
0.00096943289
4.600732e-05
7.5287593e-07
1.7278906e-06
2.559086e-05
4.5912723e-06
9.4014766e-06
0.00011209271
1.3166944e-05
2.8584576e-05
0.0002714146
2.5357378e-05
6.8926239e-05
0.00051077417
3.7290551e-05
0.0001370686
0.00079072442
4.464883e-05
0.00022247902
0.0010213785
4.7337896e-05
0.00029464759
0.0011159998
4.9909087e-05
0.00032764478
0.0010591968
0.00031856092
0.00090349329
5.6080876e-05
5.1345881e-07
1.6115795e-06
2.2758754e-05
3.3654892e-06
8.5833374e-06
9.9902053e-05
9.9952102e-06
2.5670259e-05
0.00024249428
1.9962412e-05
6.1346638e-05
0.00045813676
3.1015643e-05
0.00012231978
0.00071322809
4.0452941e-05
0.00020148886
0.00092740761
4.8238574e-05
0.00027275069
0.0010191157
5.7452972e-05
0.00031007668
0.00096930879
0.00030645614
0.0008237427
7.0461966e-05
3.5045899e-07
1.4750377e-06
1.9711625e-05
2.4647038e-06
7.6552958e-06
8.6718298e-05
7.6077267e-06
2.2487338e-05
0.00021100995
1.5860919e-05
5.3163878e-05
0.00040024338
2.6417824e-05
0.00010593469
0.00062668242
3.8304731e-05
0.00017645653
0.00082025235
5.1965898e-05
0.00024332731
0.00090590493
6.9108824e-05
0.0002821377
0.00086177482
0.00028289224
0.00072664996
9.0228364e-05
2.9072018e-07
1.6501552e-05
1.2521493e-06
1.9329561e-06
7.2795022e-05
6.5147207e-06
6.0148604e-06
0.00017757543
1.8986342e-05
1.3164106e-05
0.00033803732
4.4448909e-05
2.3877341e-05
0.000531787
8.8345893e-05
3.8809656e-05
0.00069924789
0.00014838527
5.9038673e-05
0.0007735063
0.00020773907
8.5428729e-05
0.00073203848
0.00024461548
0.00060789432
0.000249282
0.00011485768
8.5224375e-08
-9.5008492e-07
1.6712055e-05
6.5435234e-07
3.8083114e-07
-4.580737e-06
7.3813274e-05
3.2668473e-06
1.4871698e-06
-1.2611845e-05
0.00017985422
9.2266519e-06
5.1188919e-06
-2.8209108e-05
0.00034152693
2.1087715e-05
1.3485931e-05
-5.4258042e-05
0.00053625389
4.1424085e-05
2.7341842e-05
-8.9424948e-05
0.00070498739
6.9829509e-05
4.449164e-05
-0.00012386684
0.00078108523
9.9138013e-05
6.1242685e-05
-0.00014412511
0.00074115707
0.00011825563
-0.00014366294
0.00061700048
0.00012127878
7.452067e-05
6.3380245e-08
-1.1979932e-06
1.9896156e-05
3.2862779e-07
-5.7527297e-06
8.762506e-05
1.5415643e-06
-1.571249e-05
0.00021289776
5.6755452e-06
-3.4748466e-05
0.0004026491
1.4927689e-05
-6.5892078e-05
0.00062906488
2.9211928e-05
-0.0001065471
0.00082309054
4.5113176e-05
-0.00014417821
0.00091031555
5.8585235e-05
-0.00016385598
0.00086803392
-0.00016026837
0.0007338516
6.7989536e-05
5.6204821e-08
-1.3927067e-06
2.2897243e-05
2.8734696e-07
-6.6817512e-06
0.0001005999
1.5529192e-06
-1.8218798e-05
0.0002437351
6.1215627e-06
-4.0138209e-05
0.00045895812
1.6184557e-05
-7.5476155e-05
0.0007127494
3.086283e-05
-0.00012012133
0.00092630415
4.5753578e-05
-0.00015900378
0.0010190509
5.6784615e-05
-0.00017676703
0.00097118909
-0.00017016918
0.00082743039
6.2997941e-05
6.6092634e-08
-1.5345848e-06
2.5666671e-05
3.3949128e-07
-7.3602736e-06
0.0001124979
1.8019449e-06
-2.0058533e-05
0.00027179211
6.9528124e-06
-4.4123324e-05
0.00050960875
1.7887015e-05
-8.2485918e-05
0.00078679996
3.2980864e-05
-0.00012944784
0.0010156117
4.7128616e-05
-0.0001678043
0.0011106526
5.6315344e-05
-0.00018265022
0.0010558934
-0.00017318906
0.00090285765
5.997116e-05
7.2274726e-08