/*--------------------------------*- C++ -*----------------------------------*\
  =========                 |
  \\      /  F ield         | OpenFOAM: The Open Source CFD Toolbox
   \\    /   O peration     | Website:  https://openfoam.org
    \\  /    A nd           | Version:  10
     \\/     M anipulation  |
\*---------------------------------------------------------------------------*/
FoamFile
{
    format      ascii;
    class       volScalarField;
    location    "0.025";
    object      T;
}
// * * * * * * * * * * * * * * * * * * * * * * * * * * * * * * * * * * * * * //

dimensions      [0 0 0 1 0 0 0];

internalField   nonuniform List<scalar> 
12225
(
1.00694
1.00397
1.00144
1.00053
1.00001
0.99965
0.999457
0.999369
0.999321
0.999285
0.999247
0.999171
0.998998
0.998562
0.997469
0.994807
0.987983
0.971094
0.994965
0.99447
0.996349
0.997908
0.99867
0.998979
0.999136
0.999239
0.9993
0.999327
0.999323
0.999273
0.999115
0.998701
0.997653
0.995116
0.988863
0.974029
0.999592
0.99992
1
0.999967
0.999819
0.999637
0.999514
0.999448
0.999408
0.999373
0.99933
0.999256
0.999089
0.998688
0.997706
0.995385
0.98994
0.978114
1.00032
1.00007
0.999547
0.99942
0.999421
0.999388
0.999355
0.999341
0.999333
0.999319
0.999292
0.999231
0.999082
0.998718
0.997839
0.995813
0.991318
0.982282
1.00013
0.999833
0.999434
0.999387
0.999436
0.999423
0.999388
0.999364
0.999347
0.999326
0.999294
0.999232
0.999091
0.998762
0.997996
0.996297
0.992734
0.986052
0.999993
0.999846
0.999578
0.999496
0.999494
0.99946
0.999411
0.999376
0.999349
0.999321
0.999284
0.999221
0.999091
0.998802
0.998158
0.99679
0.994073
0.989262
0.999975
0.999925
0.999719
0.999592
0.999547
0.999498
0.999443
0.999398
0.999361
0.999326
0.999284
0.99922
0.999101
0.998854
0.998331
0.997271
0.995271
0.991889
0.999983
0.999963
0.999798
0.999661
0.999596
0.999539
0.999477
0.999422
0.999377
0.999334
0.999286
0.999221
0.999111
0.998899
0.998471
0.997638
0.996126
0.993647
0.999986
0.999973
0.99984
0.999706
0.999627
0.99956
0.999491
0.999429
0.999376
0.999326
0.999275
0.999209
0.999107
0.998924
0.998573
0.997916
0.996762
0.994917
0.999984
0.999963
0.999852
0.999723
0.999631
0.999554
0.999478
0.99941
0.99935
0.999294
0.999238
0.999171
0.999078
0.998924
0.998645
0.998147
0.997302
0.995982
0.99998
0.999942
0.99984
0.999715
0.999612
0.999524
0.999441
0.999365
0.999299
0.999239
0.999178
0.999113
0.999029
0.998901
0.998686
0.998323
0.997731
0.99683
0.999976
0.999921
0.999818
0.999694
0.999583
0.999486
0.999398
0.999317
0.999245
0.999179
0.999116
0.999052
0.998976
0.998872
0.998711
0.998458
0.998062
0.997474
0.999975
0.999912
0.999811
0.99969
0.999577
0.999476
0.999384
0.9993
0.999223
0.999155
0.999093
0.99903
0.99896
0.998876
0.99876
0.998588
0.998335
0.997972
0.999978
0.999919
0.999828
0.999717
0.99961
0.999512
0.999421
0.999338
0.999263
0.999196
0.999135
0.999076
0.999015
0.998947
0.998864
0.998752
0.998596
0.998384
0.999982
0.999936
0.999861
0.999769
0.999677
0.99959
0.999511
0.999438
0.99937
0.999308
0.999253
0.999202
0.999153
0.999101
0.999042
0.99897
0.998879
0.998763
0.999987
0.999957
0.999905
0.99984
0.999774
0.999712
0.999654
0.9996
0.999548
0.999502
0.999461
0.999424
0.99939
0.999355
0.999317
0.999274
0.999225
0.999166
0.999993
0.999986
0.999968
0.999941
0.999912
0.999886
0.999864
0.999841
0.99982
0.999801
0.999783
0.999767
0.999753
0.99974
0.999725
0.999707
0.999687
0.999664
1
1.00003
1.00005
1.00007
1.00009
1.00011
1.00013
1.00015
1.00017
1.00018
1.0002
1.00021
1.00022
1.00023
1.00024
1.00024
1.00024
1.00024
1.00001
1.00006
1.00011
1.00017
1.00022
1.00028
1.00034
1.00039
1.00043
1.00048
1.00051
1.00055
1.00058
1.0006
1.00063
1.00065
1.00066
1.00068
1.00001
1.00006
1.00012
1.00019
1.00026
1.00033
1.00039
1.00046
1.00052
1.00057
1.00062
1.00067
1.00071
1.00075
1.00078
1.00081
1.00084
1.00086
1.00001
1.00006
1.00012
1.00018
1.00025
1.00031
1.00038
1.00045
1.00051
1.00057
1.00062
1.00068
1.00072
1.00077
1.00081
1.00085
1.00088
1.00091
1.00001
1.00006
1.00012
1.00017
1.00023
1.0003
1.00036
1.00043
1.00049
1.00055
1.00061
1.00067
1.00072
1.00077
1.00081
1.00085
1.00089
1.00092
1
1.00008
1.00013
1.00016
1.00021
1.00027
1.00034
1.00041
1.00048
1.00054
1.0006
1.00066
1.00071
1.00076
1.00081
1.00085
1.00089
1.00093
0.999997
1.0001
1.00014
1.00015
1.00019
1.00026
1.00033
1.0004
1.00047
1.00054
1.00061
1.00067
1.00072
1.00077
1.00082
1.00086
1.00091
1.00094
1
1.00009
1.0001
1.00012
1.00019
1.00028
1.00035
1.00042
1.00049
1.00056
1.00063
1.00069
1.00074
1.00079
1.00084
1.00088
1.00093
1.00097
1.00014
1.00014
0.999953
0.999972
1.00014
1.00029
1.00039
1.00047
1.00055
1.00062
1.00068
1.00074
1.0008
1.00084
1.00089
1.00093
1.00097
1.00101
1.0005
1.00058
1.0001
0.999927
1.00003
1.00018
1.00031
1.00042
1.00053
1.00062
1.0007
1.00076
1.00082
1.00088
1.00093
1.00097
1.00102
1.00106
1.00004
1.00088
1.00115
1.00111
1.00099
1.00088
1.00081
1.0008
1.00082
1.00085
1.00088
1.00092
1.00096
1.00099
1.00103
1.00106
1.0011
1.00113
0.994517
0.993822
0.99606
0.998048
0.999185
0.99978
1.00015
1.0004
1.00059
1.00072
1.00083
1.00091
1.00098
1.00104
1.00109
1.00114
1.00118
1.00121
1.00648
1.00454
1.00223
1.0015
1.00119
1.00097
1.00088
1.00087
1.00089
1.00092
1.00096
1.00099
1.00103
1.00107
1.0011
1.00114
1.00117
1.00122
0.231972
0.231903
0.231748
0.231514
0.231206
0.230824
0.230367
0.229837
0.229236
0.228565
0.227827
0.227023
0.226155
0.225227
0.22424
0.223198
0.222105
0.220963
0.219776
0.218549
0.217284
0.215987
0.214661
0.21331
0.211938
0.21055
0.209149
0.207738
0.206321
0.204901
0.203485
0.202084
0.20072
0.199432
0.198154
0.19684
0.195541
0.194248
0.192968
0.191705
0.190454
0.189238
0.188068
0.186914
0.185792
0.184716
0.183666
0.182649
0.181661
0.180705
0.179779
0.178882
0.178015
0.177177
0.176367
0.175585
0.17483
0.174102
0.1734
0.172723
0.172071
0.171442
0.170836
0.170252
0.169689
0.169146
0.168621
0.168114
0.167623
0.167148
0.166687
0.166238
0.165801
0.165374
0.164957
0.164546
0.164142
0.163742
0.163346
0.162952
0.162558
0.162164
0.161767
0.161366
0.160961
0.160549
0.160129
0.1597
0.15926
0.158809
0.158344
0.157864
0.157369
0.156856
0.156324
0.155773
0.155199
0.154602
0.153982
0.153337
0.152666
0.151968
0.15124
0.150483
0.149694
0.148872
0.148017
0.147127
0.146201
0.145237
0.144235
0.143194
0.142111
0.140987
0.13982
0.138609
0.137353
0.136052
0.134703
0.133306
0.131861
0.130366
0.128821
0.127224
0.125576
0.123876
0.122122
0.120316
0.118456
0.116543
0.114576
0.112556
0.110482
0.108356
0.106177
0.103946
0.101665
0.0993334
0.096954
0.0945278
0.0920567
0.0895427
0.086988
0.0843954
0.0817676
0.0791081
0.0764202
0.0737078
0.0709752
0.0682268
0.0654675
0.0627023
0.0599366
0.0571763
0.054427
0.0516951
0.0489868
0.0463085
0.0436669
0.0410684
0.0385196
0.036027
0.0335965
0.0312336
0.0289447
0.0267357
0.0246117
0.022577
0.0206353
0.0187897
0.0170427
0.0153958
0.0138499
0.0124052
0.011061
0.00981638
0.00867024
0.00762089
0.00667438
0.00583058
0.233989
0.23391
0.233756
0.233522
0.233212
0.232825
0.232364
0.231828
0.231218
0.230536
0.229785
0.228967
0.228085
0.227143
0.226143
0.225089
0.223984
0.222832
0.221636
0.2204
0.219129
0.217827
0.216498
0.215147
0.213778
0.212397
0.211008
0.209617
0.208227
0.206843
0.205465
0.204093
0.202722
0.201308
0.199876
0.198502
0.197165
0.195865
0.194599
0.19336
0.192155
0.190973
0.189805
0.188673
0.187578
0.186505
0.185461
0.184446
0.183461
0.182507
0.181583
0.180689
0.179825
0.178989
0.178182
0.177403
0.176651
0.175926
0.175227
0.174554
0.173905
0.173279
0.172677
0.172097
0.171538
0.170999
0.170478
0.169976
0.16949
0.16902
0.168564
0.168121
0.16769
0.16727
0.166858
0.166455
0.166057
0.165665
0.165276
0.16489
0.164504
0.164118
0.16373
0.163338
0.162942
0.162539
0.162129
0.161709
0.161279
0.160838
0.160383
0.159914
0.159428
0.158926
0.158405
0.157864
0.157302
0.156718
0.15611
0.155476
0.154816
0.154128
0.153411
0.152663
0.151885
0.151073
0.150227
0.149347
0.148429
0.147475
0.146481
0.145448
0.144373
0.143256
0.142096
0.140891
0.139641
0.138344
0.137
0.135607
0.134164
0.132672
0.131128
0.129531
0.127883
0.126181
0.124425
0.122615
0.12075
0.118831
0.116856
0.114827
0.112744
0.110605
0.108413
0.106168
0.10387
0.101521
0.099122
0.0966743
0.0941797
0.0916404
0.0890584
0.0864365
0.0837774
0.0810844
0.078361
0.075611
0.0728387
0.0700485
0.0672453
0.0644343
0.0616208
0.0588106
0.0560098
0.0532246
0.0504614
0.0477268
0.0450276
0.0423703
0.0397619
0.037209
0.0347182
0.0322958
0.0299479
0.02768
0.0254972
0.0234042
0.0214051
0.0195033
0.0177013
0.016001
0.0144035
0.0129093
0.0115179
0.0102282
0.00903947
0.00795004
0.00696439
0.00608352
0.238076
0.237973
0.237799
0.237547
0.237216
0.236806
0.236318
0.235754
0.235117
0.234408
0.233631
0.232787
0.23188
0.230912
0.229888
0.22881
0.227682
0.226508
0.225291
0.224036
0.222747
0.221428
0.220083
0.218717
0.217334
0.215938
0.214532
0.213122
0.211708
0.210294
0.208884
0.207481
0.20609
0.204709
0.203341
0.201994
0.20067
0.199371
0.1981
0.196859
0.195651
0.194475
0.193328
0.192209
0.191118
0.190052
0.189016
0.188009
0.187032
0.186084
0.185167
0.184279
0.18342
0.18259
0.181789
0.181016
0.18027
0.179551
0.178858
0.178192
0.17755
0.176932
0.176337
0.175765
0.175214
0.174684
0.174173
0.173681
0.173205
0.172746
0.172302
0.171871
0.171453
0.171046
0.170648
0.170259
0.169877
0.1695
0.169128
0.168759
0.168391
0.168022
0.167653
0.16728
0.166903
0.166521
0.166131
0.165733
0.165324
0.164905
0.164472
0.164025
0.163563
0.163083
0.162585
0.162067
0.161528
0.160967
0.160382
0.159771
0.159134
0.158469
0.157775
0.157051
0.156294
0.155505
0.154681
0.153821
0.152925
0.15199
0.151016
0.150001
0.148944
0.147844
0.1467
0.14551
0.144273
0.142989
0.141655
0.140272
0.138838
0.137351
0.135812
0.134218
0.13257
0.130867
0.129108
0.127292
0.125419
0.123489
0.121502
0.119457
0.117354
0.115194
0.112977
0.110703
0.108374
0.105989
0.103551
0.101061
0.09852
0.0959301
0.0932936
0.090613
0.087891
0.0851307
0.0823358
0.07951
0.0766574
0.0737827
0.0708907
0.0679866
0.065076
0.0621647
0.0592591
0.0563654
0.0534904
0.050641
0.0478243
0.0450473
0.0423173
0.0396413
0.0370265
0.0344797
0.0320075
0.0296158
0.0273103
0.0250961
0.0229779
0.0209595
0.019044
0.0172338
0.0155305
0.0139347
0.0124463
0.0110647
0.00978881
0.00861729
0.00755339
0.00659727
0.244199
0.24407
0.243869
0.243591
0.24323
0.242787
0.242265
0.241665
0.240991
0.240245
0.239431
0.238551
0.237608
0.236606
0.235547
0.234436
0.233277
0.232072
0.230827
0.229545
0.228231
0.226888
0.225521
0.224135
0.222733
0.22132
0.219899
0.218474
0.217049
0.215627
0.214212
0.212809
0.21142
0.210045
0.208686
0.207349
0.206035
0.204745
0.203481
0.202244
0.201036
0.199857
0.198708
0.197589
0.196499
0.195439
0.194408
0.193408
0.192436
0.191495
0.190584
0.189702
0.188849
0.188025
0.18723
0.186464
0.185725
0.185013
0.184328
0.183669
0.183036
0.182427
0.181842
0.18128
0.180741
0.180222
0.179724
0.179244
0.178783
0.178339
0.177911
0.177497
0.177096
0.176707
0.176329
0.17596
0.1756
0.175245
0.174896
0.174551
0.174207
0.173865
0.173522
0.173177
0.172828
0.172475
0.172114
0.171746
0.171369
0.170981
0.17058
0.170166
0.169736
0.16929
0.168825
0.168341
0.167837
0.167309
0.166758
0.166182
0.165579
0.164948
0.164288
0.163597
0.162873
0.162116
0.161325
0.160496
0.15963
0.158725
0.15778
0.156792
0.155762
0.154687
0.153566
0.152398
0.151182
0.149916
0.148599
0.14723
0.145808
0.144331
0.142799
0.141211
0.139565
0.13786
0.136096
0.134273
0.132389
0.130444
0.128438
0.12637
0.12424
0.122049
0.119796
0.117481
0.115106
0.11267
0.110176
0.107623
0.105015
0.102351
0.0996349
0.0968684
0.0940543
0.0911956
0.0882958
0.0853585
0.082388
0.0793889
0.0763659
0.0733246
0.0702705
0.0672098
0.0641489
0.0610946
0.0580538
0.055034
0.0520427
0.0490875
0.0461761
0.0433164
0.0405161
0.0377828
0.0351238
0.0325459
0.0300556
0.027659
0.0253613
0.0231672
0.0210807
0.0191047
0.0172415
0.0154922
0.0138573
0.0123365
0.0109289
0.00963323
0.00845198
0.00738385
0.252377
0.252218
0.251989
0.251681
0.251286
0.250806
0.250243
0.2496
0.248882
0.248092
0.247232
0.246307
0.245319
0.244273
0.243171
0.242019
0.24082
0.239577
0.238296
0.23698
0.235634
0.234262
0.232868
0.231457
0.230032
0.228599
0.227161
0.225722
0.224286
0.222856
0.221436
0.220029
0.218638
0.217263
0.215907
0.214574
0.213264
0.211979
0.21072
0.209488
0.208285
0.207111
0.205965
0.20485
0.203764
0.202708
0.201682
0.200687
0.199721
0.198785
0.197879
0.197002
0.196156
0.195338
0.194549
0.193789
0.193058
0.192354
0.191677
0.191027
0.190403
0.189804
0.18923
0.18868
0.188153
0.187648
0.187165
0.186701
0.186257
0.18583
0.185421
0.185027
0.184648
0.184281
0.183927
0.183583
0.183248
0.182921
0.182601
0.182285
0.181972
0.181661
0.181351
0.18104
0.180726
0.180408
0.180085
0.179754
0.179415
0.179066
0.178705
0.178331
0.177943
0.177538
0.177115
0.176673
0.176211
0.175727
0.175218
0.174685
0.174125
0.173537
0.172919
0.17227
0.171588
0.170872
0.17012
0.169332
0.168504
0.167637
0.166727
0.165775
0.164778
0.163734
0.162643
0.161503
0.160313
0.159071
0.157775
0.156425
0.155018
0.153554
0.152032
0.150449
0.148806
0.1471
0.145331
0.143498
0.1416
0.139637
0.137607
0.13551
0.133347
0.131115
0.128816
0.12645
0.124016
0.121515
0.118949
0.116317
0.113622
0.110864
0.108046
0.105169
0.102237
0.0992512
0.0962161
0.093135
0.090012
0.0868517
0.083659
0.0804394
0.0771988
0.0739435
0.0706801
0.0674159
0.0641583
0.0609151
0.0576945
0.0545049
0.0513547
0.0482526
0.0452072
0.0422271
0.0393205
0.0364955
0.0337595
0.0311198
0.0285827
0.026154
0.0238385
0.0216404
0.0195625
0.0176071
0.0157751
0.0140667
0.0124817
0.0110188
0.00968003
0.00846265
0.262644
0.262456
0.262197
0.261856
0.261425
0.260903
0.260295
0.259605
0.258838
0.257997
0.257085
0.256108
0.255069
0.253972
0.252821
0.251621
0.250375
0.249089
0.247766
0.24641
0.245028
0.243622
0.242197
0.240758
0.239309
0.237854
0.236397
0.234942
0.233493
0.232053
0.230625
0.229212
0.227816
0.226439
0.225083
0.22375
0.222441
0.221158
0.219901
0.218673
0.217473
0.216302
0.21516
0.214047
0.212965
0.211912
0.21089
0.209898
0.208935
0.208003
0.207101
0.206229
0.205387
0.204574
0.20379
0.203036
0.20231
0.201613
0.200944
0.200302
0.199687
0.199099
0.198536
0.197998
0.197484
0.196994
0.196525
0.196079
0.195652
0.195245
0.194856
0.194484
0.194128
0.193787
0.193459
0.193142
0.192836
0.19254
0.19225
0.191968
0.191689
0.191414
0.191141
0.190868
0.190594
0.190316
0.190034
0.189747
0.189451
0.189146
0.188831
0.188503
0.188162
0.187804
0.18743
0.187037
0.186623
0.186188
0.185729
0.185245
0.184735
0.184196
0.183627
0.183027
0.182393
0.181725
0.18102
0.180277
0.179495
0.178671
0.177804
0.176892
0.175934
0.174928
0.173872
0.172765
0.171605
0.170391
0.169121
0.167792
0.166405
0.164956
0.163446
0.161871
0.160231
0.158524
0.15675
0.154907
0.152993
0.151008
0.148951
0.146821
0.144618
0.14234
0.139988
0.13756
0.135058
0.132481
0.12983
0.127105
0.124307
0.121438
0.118498
0.11549
0.112417
0.10928
0.106083
0.10283
0.0995234
0.0961692
0.092772
0.0893371
0.0858708
0.0823793
0.0788699
0.0753501
0.0718278
0.0683114
0.0648099
0.0613324
0.0578883
0.0544872
0.0511389
0.0478531
0.0446393
0.0415069
0.0384648
0.0355215
0.0326848
0.0299619
0.0273588
0.0248809
0.0225324
0.0203164
0.0182349
0.0162889
0.0144787
0.0128033
0.0112649
0.00985926
0.275056
0.274841
0.274551
0.274176
0.273705
0.273139
0.272483
0.271742
0.270921
0.270024
0.269057
0.268023
0.266928
0.265775
0.26457
0.263317
0.26202
0.260685
0.259316
0.257918
0.256495
0.255051
0.253593
0.252123
0.250646
0.249167
0.247689
0.246216
0.244751
0.243298
0.241859
0.240437
0.239033
0.237651
0.23629
0.234954
0.233643
0.232359
0.231101
0.229872
0.228672
0.227501
0.226359
0.225247
0.224165
0.223113
0.222091
0.221099
0.220138
0.219207
0.218306
0.217436
0.216595
0.215785
0.215004
0.214254
0.213532
0.21284
0.212176
0.211541
0.210934
0.210354
0.209801
0.209273
0.208772
0.208294
0.207841
0.20741
0.207001
0.206613
0.206244
0.205894
0.205561
0.205245
0.204943
0.204655
0.204379
0.204113
0.203857
0.203608
0.203366
0.203128
0.202893
0.20266
0.202427
0.202193
0.201955
0.201712
0.201463
0.201206
0.200939
0.200661
0.200369
0.200063
0.199741
0.1994
0.199039
0.198657
0.198252
0.197821
0.197365
0.19688
0.196364
0.195817
0.195237
0.19462
0.193967
0.193275
0.192542
0.191766
0.190946
0.190079
0.189164
0.1882
0.187183
0.186113
0.184988
0.183805
0.182563
0.18126
0.179894
0.178464
0.176967
0.175402
0.173767
0.17206
0.170281
0.168427
0.166497
0.164489
0.162403
0.160237
0.157991
0.155662
0.153251
0.150757
0.148179
0.145517
0.142771
0.139942
0.13703
0.134035
0.130959
0.127804
0.124571
0.121262
0.117881
0.114432
0.110916
0.10734
0.103708
0.100026
0.0962993
0.0925349
0.0887403
0.0849234
0.0810926
0.0772572
0.0734266
0.0696109
0.0658207
0.0620666
0.0583598
0.0547112
0.0511319
0.0476329
0.0442247
0.0409174
0.0377206
0.034643
0.0316925
0.028876
0.026199
0.0236662
0.0212807
0.0190445
0.0169589
0.0150234
0.0132407
0.0116051
0.289691
0.289449
0.289128
0.288716
0.288202
0.287589
0.286883
0.286088
0.285211
0.284257
0.28323
0.282136
0.280981
0.279769
0.278506
0.277196
0.275845
0.274458
0.273039
0.271594
0.270127
0.268644
0.267148
0.265644
0.264137
0.26263
0.261127
0.259632
0.258148
0.256678
0.255224
0.253789
0.252374
0.250981
0.249613
0.248269
0.246951
0.245661
0.244398
0.243164
0.241959
0.240784
0.239638
0.238522
0.237436
0.23638
0.235355
0.23436
0.233396
0.232462
0.231558
0.230686
0.229844
0.229032
0.228251
0.2275
0.22678
0.226089
0.225428
0.224796
0.224193
0.223618
0.223071
0.222552
0.222059
0.221592
0.22115
0.220733
0.220339
0.219967
0.219616
0.219286
0.218974
0.21868
0.218403
0.218141
0.217893
0.217657
0.217431
0.217216
0.217008
0.216806
0.216609
0.216415
0.216223
0.216031
0.215837
0.215639
0.215436
0.215226
0.215008
0.214779
0.214538
0.214284
0.214014
0.213726
0.213419
0.213091
0.212741
0.212366
0.211964
0.211535
0.211075
0.210583
0.210057
0.209495
0.208895
0.208256
0.207574
0.206849
0.206078
0.205259
0.204391
0.20347
0.202496
0.201465
0.200376
0.199228
0.198017
0.196741
0.195399
0.193989
0.192508
0.190954
0.189326
0.187621
0.185837
0.183974
0.182027
0.179997
0.177882
0.175679
0.173388
0.171007
0.168534
0.165969
0.163311
0.16056
0.157714
0.154773
0.151738
0.148608
0.145385
0.14207
0.138664
0.135169
0.131588
0.127923
0.124178
0.120358
0.116466
0.112509
0.108493
0.104424
0.100311
0.0961603
0.0919823
0.0877864
0.083583
0.0793831
0.0751982
0.0710405
0.0669223
0.0628563
0.0588552
0.0549317
0.0510983
0.0473671
0.0437497
0.0402567
0.0368981
0.0336826
0.0306177
0.0277097
0.0249633
0.022382
0.019968
0.0177219
0.0156471
0.0137366
0.306645
0.306376
0.30602
0.305568
0.30501
0.304349
0.30359
0.302739
0.301803
0.300788
0.2997
0.298544
0.297326
0.296052
0.294727
0.293358
0.291949
0.290506
0.289035
0.28754
0.286026
0.284499
0.282963
0.281421
0.27988
0.278341
0.27681
0.275289
0.273781
0.272289
0.270815
0.269362
0.267931
0.266523
0.26514
0.263783
0.262453
0.261151
0.259878
0.258633
0.257418
0.256233
0.255077
0.253952
0.252857
0.251792
0.250758
0.249754
0.248782
0.24784
0.246929
0.246049
0.2452
0.244382
0.243596
0.24284
0.242115
0.24142
0.240756
0.240123
0.239519
0.238945
0.2384
0.237883
0.237394
0.236933
0.236498
0.236089
0.235705
0.235344
0.235007
0.234691
0.234396
0.23412
0.233863
0.233622
0.233397
0.233186
0.232987
0.2328
0.232622
0.232452
0.232289
0.23213
0.231974
0.23182
0.231666
0.231509
0.231349
0.231184
0.231011
0.230829
0.230636
0.23043
0.23021
0.229973
0.229718
0.229442
0.229145
0.228823
0.228475
0.2281
0.227694
0.227256
0.226784
0.226276
0.225729
0.225142
0.224513
0.223838
0.223117
0.222346
0.221524
0.220648
0.219716
0.218726
0.217676
0.216562
0.215384
0.214137
0.212821
0.211432
0.209969
0.208428
0.206808
0.205106
0.20332
0.201448
0.199487
0.197436
0.195292
0.193053
0.190718
0.188284
0.18575
0.183114
0.180375
0.177531
0.174582
0.171527
0.168365
0.165096
0.16172
0.158238
0.154651
0.150959
0.147166
0.143273
0.139284
0.135203
0.131034
0.126782
0.122453
0.118054
0.113594
0.10908
0.104521
0.0999294
0.0953147
0.0906893
0.086066
0.081458
0.0768794
0.0723445
0.0678679
0.0634642
0.0591482
0.0549342
0.0508361
0.0468669
0.0430388
0.039363
0.0358492
0.0325057
0.0293394
0.0263552
0.0235572
0.0209467
0.0185289
0.0162953
0.32603
0.325731
0.325338
0.324844
0.324239
0.323526
0.322712
0.321803
0.320807
0.319729
0.318576
0.317354
0.316071
0.314732
0.313343
0.311911
0.310442
0.30894
0.307413
0.305864
0.3043
0.302725
0.301143
0.29956
0.29798
0.296405
0.29484
0.293287
0.29175
0.290231
0.288731
0.287254
0.2858
0.28437
0.282967
0.281591
0.280242
0.278922
0.277631
0.276369
0.275137
0.273935
0.272763
0.271621
0.27051
0.26943
0.268381
0.267362
0.266374
0.265418
0.264493
0.263599
0.262737
0.261906
0.261107
0.260339
0.259603
0.258898
0.258225
0.257583
0.256971
0.25639
0.25584
0.255319
0.254827
0.254364
0.253928
0.25352
0.253138
0.252782
0.25245
0.252141
0.251855
0.251589
0.251344
0.251117
0.250907
0.250713
0.250534
0.250367
0.250211
0.250066
0.249928
0.249797
0.249671
0.249547
0.249426
0.249303
0.249179
0.24905
0.248916
0.248774
0.248622
0.248459
0.248283
0.248091
0.247881
0.247653
0.247403
0.24713
0.246831
0.246505
0.246149
0.245761
0.245339
0.244881
0.244384
0.243847
0.243266
0.24264
0.241965
0.241241
0.240464
0.239631
0.238741
0.237791
0.236778
0.2357
0.234553
0.233336
0.232046
0.23068
0.229235
0.227708
0.226098
0.224401
0.222614
0.220736
0.218763
0.216692
0.214522
0.21225
0.209872
0.207388
0.204795
0.20209
0.199272
0.196338
0.193287
0.190118
0.18683
0.183421
0.179891
0.17624
0.172468
0.168576
0.164566
0.160439
0.156197
0.151845
0.147386
0.142825
0.138168
0.133421
0.128592
0.123691
0.118726
0.113708
0.10865
0.103564
0.0984637
0.0933641
0.0882807
0.0832295
0.0782273
0.0732908
0.0684372
0.0636832
0.0590454
0.0545397
0.0501809
0.0459828
0.0419579
0.0381171
0.0344694
0.0310223
0.0277816
0.0247502
0.0219351
0.0193264
0.347974
0.347642
0.347209
0.34667
0.346014
0.345247
0.344374
0.343404
0.342343
0.341198
0.339978
0.338688
0.337335
0.335927
0.334471
0.332972
0.331438
0.329874
0.328285
0.326679
0.325059
0.323432
0.3218
0.32017
0.318545
0.316928
0.315323
0.313732
0.312159
0.310606
0.309074
0.307565
0.306081
0.304623
0.303192
0.301788
0.300413
0.299067
0.29775
0.296463
0.295206
0.29398
0.292784
0.291618
0.290483
0.289379
0.288306
0.287264
0.286254
0.285274
0.284327
0.283411
0.282527
0.281675
0.280854
0.280066
0.27931
0.278587
0.277895
0.277235
0.276607
0.27601
0.275444
0.274909
0.274405
0.27393
0.273484
0.273067
0.272677
0.272314
0.271977
0.271665
0.271376
0.27111
0.270866
0.270641
0.270436
0.270248
0.270076
0.269919
0.269774
0.269641
0.269518
0.269404
0.269295
0.269192
0.269091
0.268992
0.268893
0.268791
0.268684
0.268572
0.268451
0.268321
0.268178
0.268022
0.267849
0.267658
0.267447
0.267214
0.266956
0.266671
0.266357
0.266012
0.265633
0.265218
0.264765
0.264271
0.263733
0.26315
0.262518
0.261835
0.261099
0.260306
0.259454
0.258541
0.257563
0.256518
0.255402
0.254214
0.252949
0.251605
0.250179
0.248667
0.247068
0.245377
0.243592
0.241709
0.239726
0.237639
0.235446
0.233144
0.230729
0.228199
0.22555
0.222781
0.219888
0.216869
0.213721
0.210443
0.207032
0.203487
0.199807
0.19599
0.192037
0.187946
0.183719
0.179357
0.174862
0.170235
0.165482
0.160605
0.15561
0.150504
0.145294
0.139989
0.134599
0.129134
0.123607
0.118031
0.112422
0.106796
0.101169
0.0955589
0.0899855
0.0844675
0.0790246
0.0736763
0.0684421
0.0633408
0.0583906
0.0536083
0.0490096
0.0446083
0.0404164
0.0364441
0.0326996
0.0291877
0.0259177
0.0228785
0.372622
0.372253
0.371776
0.371186
0.370475
0.369648
0.368712
0.367675
0.366545
0.365329
0.364035
0.362671
0.361244
0.359763
0.358233
0.356662
0.355057
0.353425
0.35177
0.3501
0.348419
0.346732
0.345045
0.34336
0.341684
0.340017
0.338365
0.336729
0.335113
0.333517
0.331945
0.330397
0.328874
0.327379
0.325911
0.324472
0.323061
0.32168
0.320329
0.319007
0.317717
0.316456
0.315226
0.314027
0.312859
0.311722
0.310615
0.309541
0.308497
0.307485
0.306505
0.305557
0.304641
0.303757
0.302906
0.302087
0.3013
0.300546
0.299825
0.299136
0.298479
0.297854
0.297262
0.296701
0.296171
0.295672
0.295202
0.294763
0.294352
0.293969
0.293613
0.293283
0.292978
0.292697
0.292439
0.292203
0.291987
0.29179
0.291611
0.291448
0.2913
0.291165
0.291041
0.290928
0.290822
0.290724
0.29063
0.290539
0.29045
0.29036
0.290267
0.29017
0.290067
0.289955
0.289833
0.289698
0.289549
0.289383
0.289198
0.288992
0.288763
0.288508
0.288225
0.287912
0.287566
0.287184
0.286765
0.286305
0.285803
0.285254
0.284657
0.284009
0.283307
0.282548
0.281729
0.280847
0.2799
0.278884
0.277796
0.276633
0.275391
0.274068
0.27266
0.271163
0.269575
0.267891
0.266109
0.264224
0.262234
0.260135
0.257923
0.255595
0.253148
0.250577
0.24788
0.245053
0.242092
0.238995
0.235758
0.232379
0.228854
0.225182
0.221359
0.217385
0.213257
0.208975
0.204538
0.199947
0.195203
0.190306
0.18526
0.180069
0.174736
0.169268
0.163671
0.157954
0.152126
0.1462
0.140187
0.134101
0.127959
0.121777
0.115574
0.10937
0.103186
0.097043
0.0909635
0.0849702
0.0790857
0.0733323
0.0677316
0.0623042
0.0570691
0.0520438
0.0472438
0.0426823
0.0383707
0.0343162
0.0305307
0.0270022
0.400133
0.399725
0.399198
0.39855
0.397777
0.396882
0.395875
0.394763
0.393555
0.392259
0.390884
0.389438
0.387929
0.386365
0.384754
0.383103
0.38142
0.379711
0.377982
0.37624
0.37449
0.372737
0.370985
0.369239
0.367502
0.365778
0.36407
0.36238
0.360711
0.359065
0.357442
0.355845
0.354275
0.352733
0.351218
0.349733
0.348277
0.346851
0.345454
0.344088
0.342753
0.341447
0.340173
0.338929
0.337717
0.336535
0.335384
0.334265
0.333177
0.332121
0.331097
0.330104
0.329143
0.328215
0.32732
0.326456
0.325626
0.324828
0.324063
0.323331
0.322632
0.321965
0.32133
0.320728
0.320157
0.319618
0.319109
0.31863
0.318182
0.317761
0.317369
0.317004
0.316666
0.316352
0.316063
0.315796
0.315552
0.315327
0.315122
0.314935
0.314764
0.314608
0.314465
0.314334
0.314214
0.314101
0.313995
0.313894
0.313797
0.3137
0.313603
0.313504
0.3134
0.313289
0.31317
0.313041
0.312898
0.312741
0.312566
0.312373
0.312157
0.311917
0.311651
0.311355
0.311028
0.310667
0.310269
0.309832
0.309352
0.308827
0.308255
0.307631
0.306954
0.30622
0.305427
0.30457
0.303647
0.302654
0.301588
0.300446
0.299224
0.297919
0.296526
0.295043
0.293465
0.291789
0.290011
0.288126
0.286132
0.284024
0.281797
0.279449
0.276975
0.274371
0.271632
0.268756
0.265737
0.262571
0.259256
0.255786
0.252159
0.248371
0.244419
0.240299
0.23601
0.231549
0.226915
0.222107
0.217125
0.211969
0.20664
0.201142
0.195478
0.189652
0.183671
0.177543
0.171277
0.164883
0.158375
0.151767
0.145075
0.138318
0.131515
0.124688
0.11786
0.111054
0.104297
0.0976127
0.0910284
0.0845698
0.0782623
0.0721305
0.0661977
0.0604853
0.0550129
0.0497974
0.044854
0.0401925
0.0358286
0.0317491
0.430688
0.430232
0.429647
0.428933
0.428086
0.427113
0.426022
0.424822
0.423524
0.422135
0.420665
0.419124
0.41752
0.415862
0.414158
0.412416
0.410643
0.408847
0.407034
0.40521
0.40338
0.40155
0.399724
0.397906
0.396099
0.394308
0.392534
0.39078
0.389048
0.38734
0.385657
0.384001
0.382371
0.380771
0.379199
0.377656
0.376142
0.374659
0.373206
0.371783
0.37039
0.369028
0.367696
0.366395
0.365125
0.363886
0.362677
0.3615
0.360354
0.359239
0.358156
0.357104
0.356084
0.355097
0.354141
0.353218
0.352328
0.35147
0.350645
0.349853
0.349093
0.348366
0.347672
0.347009
0.346379
0.34578
0.345212
0.344675
0.344168
0.343691
0.343242
0.342821
0.342427
0.34206
0.341717
0.341399
0.341103
0.34083
0.340577
0.340343
0.340127
0.339927
0.339743
0.339572
0.339413
0.339264
0.339124
0.338991
0.338863
0.338739
0.338616
0.338492
0.338366
0.338236
0.3381
0.337955
0.3378
0.337631
0.337448
0.337247
0.337027
0.336784
0.336517
0.336222
0.335898
0.335541
0.335149
0.334719
0.334248
0.333734
0.333173
0.332562
0.331898
0.331178
0.330399
0.329558
0.32865
0.327673
0.326623
0.325495
0.324288
0.322995
0.321615
0.320142
0.318574
0.316904
0.31513
0.313247
0.311251
0.309136
0.3069
0.304537
0.302042
0.299412
0.296641
0.293724
0.290657
0.287436
0.284054
0.280508
0.276793
0.272904
0.268837
0.264589
0.260156
0.255534
0.25072
0.245713
0.24051
0.235112
0.229518
0.223729
0.217747
0.211577
0.205223
0.198693
0.191994
0.185137
0.178134
0.171001
0.163753
0.156409
0.14899
0.14152
0.134022
0.126524
0.119054
0.111639
0.104311
0.0970988
0.0900321
0.08314
0.0764503
0.0699892
0.0637809
0.0578466
0.0522057
0.0468718
0.0418645
0.0371701
0.464483
0.463973
0.463318
0.462523
0.461587
0.460517
0.459323
0.458016
0.456607
0.455105
0.453521
0.451866
0.450148
0.448377
0.446563
0.444713
0.442836
0.440938
0.439026
0.437107
0.435185
0.433265
0.431353
0.429451
0.427562
0.425691
0.42384
0.42201
0.420203
0.418422
0.416666
0.414938
0.413237
0.411565
0.409923
0.408309
0.406725
0.405171
0.403647
0.402153
0.400689
0.399255
0.397851
0.396477
0.395134
0.393821
0.392539
0.391287
0.390066
0.388876
0.387717
0.386589
0.385492
0.384427
0.383394
0.382392
0.381422
0.380485
0.37958
0.378707
0.377866
0.377058
0.376282
0.375538
0.374826
0.374145
0.373495
0.372877
0.372288
0.371729
0.3712
0.370699
0.370225
0.369778
0.369358
0.368962
0.368591
0.368242
0.367915
0.367609
0.367323
0.367054
0.366803
0.366566
0.366343
0.366133
0.365934
0.365743
0.36556
0.365382
0.365209
0.365037
0.364866
0.364692
0.364515
0.364332
0.36414
0.363939
0.363724
0.363495
0.363248
0.362982
0.362694
0.362381
0.36204
0.361669
0.361265
0.360825
0.360347
0.359827
0.359262
0.358649
0.357985
0.357266
0.35649
0.355652
0.354749
0.353777
0.352733
0.351613
0.350413
0.349128
0.347755
0.346289
0.344725
0.343061
0.34129
0.339409
0.337412
0.335294
0.333052
0.330679
0.32817
0.325522
0.322727
0.31978
0.316677
0.313411
0.309978
0.30637
0.302583
0.298612
0.29445
0.290093
0.285536
0.280774
0.275803
0.270619
0.26522
0.259602
0.253765
0.247708
0.241431
0.234938
0.22823
0.221315
0.214199
0.206892
0.199404
0.191752
0.183949
0.176017
0.167977
0.159852
0.151669
0.143457
0.135247
0.12707
0.118961
0.110952
0.103079
0.0953748
0.0878728
0.0806041
0.0735981
0.0668812
0.0604777
0.0544053
0.0486887
0.0433136
0.501764
0.501186
0.500445
0.499548
0.498497
0.497301
0.495974
0.494528
0.492975
0.491328
0.489598
0.487798
0.485938
0.484029
0.48208
0.480099
0.478095
0.476076
0.474047
0.472014
0.469983
0.467958
0.465944
0.463943
0.461959
0.459994
0.458051
0.456131
0.454236
0.452366
0.450524
0.448709
0.446922
0.445164
0.443435
0.441735
0.440065
0.438424
0.436812
0.43523
0.433677
0.432153
0.430659
0.429195