/*--------------------------------*- C++ -*----------------------------------*\
  =========                 |
  \\      /  F ield         | OpenFOAM: The Open Source CFD Toolbox
   \\    /   O peration     | Website:  https://openfoam.org
    \\  /    A nd           | Version:  10
     \\/     M anipulation  |
\*---------------------------------------------------------------------------*/
FoamFile
{
    format      ascii;
    class       volScalarField;
    location    "4.9";
    object      T_0;
}
// * * * * * * * * * * * * * * * * * * * * * * * * * * * * * * * * * * * * * //

dimensions      [0 0 -1 0 0 0 0];

internalField   nonuniform List<scalar> 
100
(
0.0577287
0.17114
0.278488
0.375971
0.460135
0.527998
0.577157
0.60587
0.613119
0.598648
0.56297
0.507349
0.433754
0.344793
0.243618
0.133813
0.0192672
-0.0959612
-0.20779
-0.312258
-0.405664
-0.484699
-0.546563
-0.589065
-0.610699
-0.610699
-0.589065
-0.546562
-0.484698
-0.405662
-0.312256
-0.207788
-0.0959595
0.0192688
0.133815
0.24362
0.344795
0.433755
0.50735
0.562971
0.598649
0.613119
0.605869
0.577157
0.527998
0.460134
0.37597
0.278487
0.171139
0.0577275
-0.0577287
-0.17114
-0.278488
-0.375971
-0.460135
-0.527998
-0.577157
-0.60587
-0.613119
-0.598648
-0.56297
-0.507349
-0.433754
-0.344794
-0.243619
-0.133813
-0.0192675
0.0959608
0.20779
0.312257
0.405663
0.484699
0.546563
0.589065
0.610699
0.610699
0.589065
0.546563
0.484698
0.405663
0.312257
0.207789
0.0959599
-0.0192684
-0.133814
-0.24362
-0.344795
-0.433755
-0.507349
-0.562971
-0.598649
-0.613119
-0.605869
-0.577156
-0.527998
-0.460134
-0.37597
-0.278487
-0.171139
-0.0577274
)
;

boundaryField
{
    inlet
    {
        type            cyclic;
    }
    outlet
    {
        type            cyclic;
    }
    bottom
    {
        type            slip;
    }
    top
    {
        type            slip;
    }
    frontAndBack
    {
        type            empty;
    }
}


// ************************************************************************* //
