/*--------------------------------*- C++ -*----------------------------------*\
| =========                 |                                                 |
| \\      /  F ield         | OpenFOAM: The Open Source CFD Toolbox           |
|  \\    /   O peration     | Version:  2406                                  |
|   \\  /    A nd           | Website:  www.openfoam.com                      |
|    \\/     M anipulation  |                                                 |
\*---------------------------------------------------------------------------*/
FoamFile
{
    version     2.0;
    format      ascii;
    arch        "LSB;label=32;scalar=64";
    class       volScalarField;
    location    "0.5";
    object      p;
}
// * * * * * * * * * * * * * * * * * * * * * * * * * * * * * * * * * * * * * //

dimensions      [0 2 -2 0 0 0 0];

internalField   nonuniform List<scalar> 
34560
(
-27.024244
-27.025604
-27.029099
-27.036591
-27.048673
-27.065802
-27.086974
-27.110178
-27.133656
-27.031073
-27.033342
-27.038413
-27.048509
-27.064065
-27.085099
-27.110146
-27.136902
-27.163684
-27.036735
-27.040199
-27.047253
-27.060359
-27.07962
-27.104354
-27.132569
-27.161638
-27.189771
-27.040143
-27.044857
-27.054039
-27.070411
-27.093616
-27.122068
-27.153227
-27.184165
-27.213139
-27.041706
-27.047773
-27.059196
-27.078926
-27.106097
-27.138158
-27.17211
-27.204751
-27.234276
-27.042092
-27.049468
-27.063076
-27.086079
-27.117064
-27.152496
-27.188996
-27.22314
-27.253022
-27.04177
-27.050336
-27.065963
-27.092008
-27.126504
-27.16497
-27.203716
-27.239144
-27.269252
-27.040839
-27.050486
-27.067933
-27.096704
-27.134311
-27.175417
-27.216091
-27.252594
-27.282861
-27.039515
-27.050094
-27.069103
-27.100197
-27.140436
-27.183746
-27.226018
-27.2634
-27.293778
-27.038215
-27.049521
-27.069753
-27.102668
-27.144955
-27.189966
-27.233466
-27.271516
-27.301972
-27.037341
-27.049127
-27.07018
-27.104322
-27.147983
-27.194126
-27.238444
-27.276937
-27.307444
-27.036631
-27.048702
-27.070211
-27.105008
-27.149388
-27.196122
-27.240866
-27.279595
-27.310141
-27.036631
-27.048702
-27.070211
-27.105008
-27.149388
-27.196122
-27.240867
-27.279595
-27.310141
-27.037341
-27.049127
-27.07018
-27.104322
-27.147983
-27.194127
-27.238444
-27.276938
-27.307444
-27.038215
-27.049521
-27.069753
-27.102668
-27.144956
-27.189967
-27.233467
-27.271517
-27.301973
-27.039516
-27.050095
-27.069104
-27.100199
-27.140437
-27.183747
-27.22602
-27.263401
-27.293778
-27.04084
-27.050487
-27.067934
-27.096705
-27.134313
-27.175419
-27.216093
-27.252596
-27.282861
-27.041772
-27.050339
-27.065966
-27.092011
-27.126507
-27.164973
-27.203718
-27.239146
-27.269253
-27.042095
-27.049472
-27.06308
-27.086083
-27.117068
-27.1525
-27.188999
-27.223143
-27.253023
-27.041711
-27.047778
-27.059201
-27.078931
-27.106103
-27.138163
-27.172114
-27.204754
-27.234277
-27.040149
-27.044863
-27.054045
-27.070418
-27.093624
-27.122075
-27.153233
-27.18417
-27.21314
-27.036744
-27.040209
-27.047262
-27.060368
-27.079628
-27.104362
-27.132576
-27.161642
-27.189775
-27.031082
-27.033352
-27.038422
-27.048518
-27.064075
-27.085108
-27.110154
-27.136907
-27.16369
-27.024254
-27.025615
-27.02911
-27.036602
-27.048684
-27.06581
-27.086982
-27.110187
-27.133664
-25.723669
-25.721811
-25.719717
-25.717127
-25.713113
-25.706258
-25.695604
-25.682052
-25.667496
-25.739871
-25.737445
-25.734417
-25.730187
-25.723567
-25.71307
-25.698132
-25.680749
-25.66408
-25.757979
-25.754982
-25.751162
-25.745566
-25.736699
-25.722953
-25.704052
-25.683047
-25.663974
-25.776031
-25.772434
-25.767791
-25.760839
-25.749868
-25.733237
-25.710794
-25.686379
-25.664623
-25.793613
-25.789473
-25.784027
-25.775667
-25.762557
-25.743226
-25.717595
-25.69
-25.665676
-25.809975
-25.805404
-25.799268
-25.789576
-25.774442
-25.75263
-25.724227
-25.693852
-25.667148
-25.824827
-25.819864
-25.813087
-25.802141
-25.785134
-25.761122
-25.730353
-25.697685
-25.668913
-25.837797
-25.832511
-25.825183
-25.813118
-25.794447
-25.76853
-25.735746
-25.701269
-25.670843
-25.848553
-25.843017
-25.835242
-25.82224
-25.802178
-25.774698
-25.740276
-25.704377
-25.672682
-25.856827
-25.851113
-25.843004
-25.829275
-25.808133
-25.779461
-25.743798
-25.706814
-25.674206
-25.862467
-25.85662
-25.848271
-25.834032
-25.812148
-25.782671
-25.746183
-25.708477
-25.675254
-25.865325
-25.859419
-25.850956
-25.836463
-25.814203
-25.784318
-25.747415
-25.709339
-25.675796
-25.865325
-25.85942
-25.850956
-25.836463
-25.814203
-25.784318
-25.747415
-25.709339
-25.675796
-25.862467
-25.85662
-25.848271
-25.834033
-25.812149
-25.782671
-25.746184
-25.708477
-25.675254
-25.856828
-25.851113
-25.843004
-25.829276
-25.808134
-25.779462
-25.743799
-25.706815
-25.674206
-25.848554
-25.843018
-25.835243
-25.822241
-25.802179
-25.774699
-25.740277
-25.704378
-25.672682
-25.837798
-25.832513
-25.825185
-25.81312
-25.79445
-25.768532
-25.735747
-25.701271
-25.670843
-25.82483
-25.819867
-25.81309
-25.802144
-25.785137
-25.761125
-25.730355
-25.697687
-25.668914
-25.809979
-25.805408
-25.799272
-25.78958
-25.774446
-25.752634
-25.72423
-25.693855
-25.667149
-25.793618
-25.789478
-25.784032
-25.775672
-25.762563
-25.743231
-25.717599
-25.690003
-25.665678
-25.776037
-25.77244
-25.767797
-25.760846
-25.749875
-25.733243
-25.7108
-25.686383
-25.664625
-25.757986
-25.75499
-25.75117
-25.745575
-25.736707
-25.722961
-25.704059
-25.683053
-25.663978
-25.73988
-25.737454
-25.734426
-25.730196
-25.723577
-25.713079
-25.698141
-25.680757
-25.664086
-25.723679
-25.721821
-25.719727
-25.717137
-25.713123
-25.706268
-25.695614
-25.682062
-25.667503
-24.528031
-24.527473
-24.526839
-24.526328
-24.52623
-24.526892
-24.527944
-24.528041
-24.525993
-24.531411
-24.530723
-24.529867
-24.529039
-24.528568
-24.528826
-24.529391
-24.528888
-24.526536
-24.534766
-24.533955
-24.532933
-24.531931
-24.531367
-24.531671
-24.532326
-24.531822
-24.529476
-24.53762
-24.536666
-24.535472
-24.534327
-24.533744
-24.534205
-24.535086
-24.534681
-24.532194
-24.540197
-24.539096
-24.537727
-24.536438
-24.535827
-24.536355
-24.537307
-24.536996
-24.534467
-24.542579
-24.541333
-24.5398
-24.538395
-24.537766
-24.538329
-24.539193
-24.538855
-24.53639
-24.544691
-24.543307
-24.541623
-24.540117
-24.539485
-24.540078
-24.54081
-24.540333
-24.537932
-24.546507
-24.545004
-24.543188
-24.541594
-24.540967
-24.541593
-24.542219
-24.541513
-24.53907
-24.547988
-24.546386
-24.544462
-24.542797
-24.542176
-24.542837
-24.543383
-24.542459
-24.539912
-24.549116
-24.547438
-24.54543
-24.543709
-24.543096
-24.543785
-24.544277
-24.543205
-24.540536
-24.549876
-24.548141
-24.546073
-24.544315
-24.54371
-24.54442
-24.544877
-24.543716
-24.540979
-24.550255
-24.548495
-24.546398
-24.54462
-24.544018
-24.544737
-24.545177
-24.543975
-24.541208
-24.550255
-24.548495
-24.546398
-24.544621
-24.544018
-24.544737
-24.545178
-24.543975
-24.541208
-24.549877
-24.548142
-24.546073
-24.544316
-24.543711
-24.54442
-24.544878
-24.543717
-24.540979
-24.549117
-24.547439
-24.545431
-24.54371
-24.543097
-24.543786
-24.544278
-24.543206
-24.540536
-24.547989
-24.546387
-24.544463
-24.542798
-24.542178
-24.542838
-24.543384
-24.54246
-24.539912
-24.546509
-24.545005
-24.543189
-24.541596
-24.540969
-24.541595
-24.542221
-24.541514
-24.53907
-24.544693
-24.54331
-24.541626
-24.54012
-24.539488
-24.540081
-24.540812
-24.540335
-24.537932
-24.542582
-24.541336
-24.539803
-24.538399
-24.53777
-24.538333
-24.539196
-24.538857
-24.536391
-24.540201
-24.539101
-24.537731
-24.536443
-24.535832
-24.53636
-24.537311
-24.536999
-24.534469
-24.537625
-24.536671
-24.535478
-24.534334
-24.53375
-24.534211
-24.535092
-24.534686
-24.532196
-24.534774
-24.533963
-24.53294
-24.531939
-24.531375
-24.531679
-24.532333
-24.531827
-24.52948
-24.53142
-24.530732
-24.529876
-24.529048
-24.528577
-24.528835
-24.529399
-24.528895
-24.52654
-24.528041
-24.527483
-24.526849
-24.526338
-24.52624
-24.526902
-24.527954
-24.528049
-24.525999
-23.408287
-23.408287
-23.408324
-23.408392
-23.408407
-23.408132
-23.407459
-23.406628
-23.405392
-23.413205
-23.413144
-23.413054
-23.412875
-23.412449
-23.411503
-23.409938
-23.408087
-23.406155
-23.418208
-23.418096
-23.417936
-23.417628
-23.416916
-23.415501
-23.413333
-23.410858
-23.408532
-23.422989
-23.422825
-23.422599
-23.422176
-23.421239
-23.419446
-23.416792
-23.413779
-23.410959
-23.427443
-23.427237
-23.426951
-23.426418
-23.425264
-23.423111
-23.420004
-23.416491
-23.413193
-23.43146
-23.431231
-23.430905
-23.430285
-23.428946
-23.426478
-23.422962
-23.419002
-23.415266
-23.435003
-23.434757
-23.4344
-23.433708
-23.432207
-23.42947
-23.425607
-23.421267
-23.417146
-23.438039
-23.437779
-23.437398
-23.436647
-23.435012
-23.432051
-23.427899
-23.423237
-23.418788
-23.440522
-23.440253
-23.439855
-23.439058
-23.437315
-23.434173
-23.42979
-23.424868
-23.420153
-23.442414
-23.442141
-23.441732
-23.440902
-23.439076
-23.435798
-23.431239
-23.426121
-23.421203
-23.443692
-23.443416
-23.442999
-23.442147
-23.440264
-23.436892
-23.432215
-23.426965
-23.421912
-23.44434
-23.444061
-23.44364
-23.442775
-23.440864
-23.437444
-23.432707
-23.42739
-23.422269
-23.444341
-23.444061
-23.44364
-23.442776
-23.440864
-23.437444
-23.432707
-23.42739
-23.422269
-23.443692
-23.443416
-23.443
-23.442147
-23.440265
-23.436893
-23.432216
-23.426965
-23.421912
-23.442414
-23.442141
-23.441733
-23.440903
-23.439077
-23.435799
-23.43124
-23.426121
-23.421203
-23.440523
-23.440254
-23.439856
-23.43906
-23.437316
-23.434174
-23.429791
-23.424869
-23.420153
-23.43804
-23.437781
-23.4374
-23.436649
-23.435014
-23.432053
-23.427901
-23.423238
-23.418788
-23.435005
-23.434759
-23.434403
-23.433711
-23.432211
-23.429474
-23.425609
-23.421269
-23.417146
-23.431463
-23.431235
-23.430909
-23.430289
-23.42895
-23.426482
-23.422965
-23.419004
-23.415267
-23.427448
-23.427242
-23.426956
-23.426423
-23.425269
-23.423116
-23.420009
-23.416494
-23.413195
-23.422995
-23.422831
-23.422605
-23.422183
-23.421246
-23.419452
-23.416798
-23.413783
-23.410961
-23.418215
-23.418104
-23.417943
-23.417636
-23.416924
-23.415508
-23.41334
-23.410863
-23.408535
-23.413214
-23.413152
-23.413063
-23.412884
-23.412458
-23.411512
-23.409946
-23.408094
-23.40616
-23.408296
-23.408297
-23.408334
-23.408401
-23.408417
-23.408141
-23.407468
-23.406637
-23.405399
-22.230265
-22.230214
-22.230177
-22.23019
-22.230285
-22.230474
-22.230718
-22.230922
-22.230741
-22.232428
-22.232345
-22.232252
-22.232172
-22.232129
-22.232132
-22.232108
-22.231929
-22.231435
-22.234383
-22.234283
-22.234164
-22.234047
-22.233965
-22.233912
-22.233795
-22.23348
-22.232914
-22.236111
-22.235996
-22.235853
-22.235714
-22.235622
-22.235563
-22.235413
-22.235025
-22.234357
-22.237676
-22.237545
-22.237378
-22.237217
-22.237115
-22.23705
-22.236864
-22.236395
-22.235611
-22.239077
-22.238935
-22.238758
-22.238588
-22.23848
-22.238406
-22.238177
-22.237616
-22.236707
-22.240328
-22.240172
-22.23998
-22.239802
-22.239693
-22.23961
-22.239338
-22.238686
-22.237653
-22.241404
-22.241237
-22.241033
-22.24085
-22.240741
-22.240649
-22.240339
-22.239602
-22.238454
-22.242286
-22.242111
-22.241899
-22.241712
-22.241605
-22.241509
-22.241166
-22.240356
-22.239111
-22.242962
-22.242781
-22.242562
-22.242375
-22.242271
-22.242173
-22.241805
-22.240939
-22.239617
-22.243421
-22.243235
-22.243012
-22.242824
-22.242725
-22.242625
-22.242242
-22.241337
-22.239963
-22.243654
-22.243466
-22.24324
-22.243052
-22.242953
-22.242854
-22.242464
-22.24154
-22.24014
-22.243655
-22.243466
-22.24324
-22.243052
-22.242954
-22.242855
-22.242464
-22.24154
-22.24014
-22.243421
-22.243235
-22.243012
-22.242825
-22.242725
-22.242626
-22.242242
-22.241337
-22.239962
-22.242963
-22.242781
-22.242563
-22.242376
-22.242272
-22.242174
-22.241806
-22.240939
-22.239616
-22.242287
-22.242112
-22.2419
-22.241714
-22.241607
-22.24151
-22.241167
-22.240357
-22.239111
-22.241405
-22.241238
-22.241035
-22.240852
-22.240743
-22.240652
-22.240341
-22.239603
-22.238454
-22.240331
-22.240175
-22.239982
-22.239805
-22.239696
-22.239613
-22.239341
-22.238688
-22.237653
-22.239081
-22.238938
-22.238761
-22.238592
-22.238484
-22.23841
-22.238181
-22.237619
-22.236708
-22.237681
-22.237549
-22.237383
-22.237223
-22.237121
-22.237056
-22.236869
-22.236398
-22.235613
-22.236117
-22.236002
-22.235859
-22.23572
-22.235629
-22.23557
-22.235419
-22.235029
-22.23436
-22.23439
-22.234291
-22.234171
-22.234055
-22.233973
-22.23392
-22.233802
-22.233486
-22.232918
-22.232437
-22.232354
-22.232261
-22.232181
-22.232138
-22.232141
-22.232116
-22.231937
-22.231442
-22.230275
-22.230224
-22.230187
-22.2302
-22.230295
-22.230484
-22.230728
-22.230933
-22.230751
-21.093247
-21.093261
-21.093279
-21.093293
-21.093292
-21.093275
-21.093246
-21.093189
-21.092947
-21.09432
-21.094323
-21.094317
-21.094283
-21.094197
-21.09404
-21.09382
-21.093523
-21.093089
-21.095407
-21.095402
-21.095383
-21.095326
-21.095202
-21.094974
-21.094633
-21.094202
-21.093703
-21.096483
-21.096469
-21.096437
-21.096364
-21.096213
-21.095939
-21.095517
-21.094982
-21.09439
-21.097519
-21.097497
-21.097454
-21.097366
-21.097193
-21.096875
-21.096382
-21.09575
-21.095057
-21.098479
-21.098453
-21.098406
-21.098308
-21.098117
-21.097765
-21.097212
-21.096495
-21.095705
-21.099349
-21.09932
-21.099267
-21.099164
-21.09896
-21.098581
-21.097979
-21.097191
-21.096314
-21.100107
-21.100075
-21.10002
-21.099912
-21.099699
-21.0993
-21.098661
-21.097814
-21.096864
-21.100735
-21.100701
-21.100644
-21.100534
-21.100315
-21.099902
-21.099235
-21.098343
-21.097332
-21.101218
-21.101183
-21.101125
-21.101014
-21.100792
-21.10037
-21.099683
-21.098757
-21.097701
-21.101546
-21.101511
-21.101452
-21.101341
-21.101118
-21.10069
-21.099989
-21.099041
-21.097954
-21.101714
-21.101678
-21.101619
-21.101508
-21.101283
-21.100852
-21.100145
-21.099186
-21.098083
-21.101714
-21.101678
-21.101619
-21.101508
-21.101283
-21.100852
-21.100145
-21.099186
-21.098083
-21.101546
-21.101511
-21.101453
-21.101342
-21.101118
-21.10069
-21.099989
-21.099041
-21.097953
-21.101218
-21.101183
-21.101126
-21.101015
-21.100793
-21.100371
-21.099683
-21.098757
-21.0977
-21.100736
-21.100702
-21.100645
-21.100535
-21.100316
-21.099903
-21.099236
-21.098343
-21.097331
-21.100108
-21.100076
-21.100021
-21.099913
-21.099701
-21.099302
-21.098662
-21.097815
-21.096863
-21.099351
-21.099321
-21.09927
-21.099167
-21.098963
-21.098583
-21.097982
-21.097192
-21.096313
-21.098482
-21.098456
-21.098409
-21.098312
-21.098121
-21.097769
-21.097215
-21.096497
-21.095704
-21.097523
-21.097501
-21.097459
-21.097372
-21.097198
-21.096881
-21.096387
-21.095753
-21.095058
-21.096489
-21.096476
-21.096444
-21.096371
-21.096221
-21.095946
-21.095523
-21.094986
-21.094392
-21.095415
-21.095411
-21.095391
-21.095335
-21.095211
-21.094983
-21.094641
-21.094209
-21.093706
-21.09433
-21.094334
-21.094328
-21.094294
-21.094208
-21.094051
-21.09383
-21.093532
-21.093095
-21.093258
-21.093273
-21.093291
-21.093305
-21.093304
-21.093287
-21.093257
-21.0932
-21.092956
-19.948777
-19.948774
-19.948774
-19.948784
-19.94881
-19.948863
-19.948941
-19.949024
-19.949029
-19.949307
-19.949298
-19.949288
-19.949279
-19.949276
-19.949284
-19.949292
-19.949275
-19.949193
-19.949791
-19.94978
-19.949766
-19.949752
-19.94974
-19.949728
-19.949701
-19.949643
-19.949544
-19.950244
-19.95023
-19.950212
-19.950194
-19.950177
-19.950154
-19.950109
-19.950027
-19.949907
-19.95066
-19.950644
-19.950624
-19.950601
-19.950579
-19.950548
-19.95049
-19.950386
-19.95024
-19.951029
-19.951012
-19.950991
-19.950969
-19.950945
-19.95091
-19.950841
-19.950717
-19.950544
-19.951357
-19.95134
-19.951317
-19.951294
-19.95127
-19.951232
-19.951153
-19.951011
-19.950813
-19.951639
-19.95162
-19.951598
-19.951575
-19.95155
-19.95151
-19.951423
-19.951264
-19.951041
-19.95187
-19.951851
-19.951828
-19.951805
-19.951781
-19.951739
-19.951644
-19.95147
-19.951226
-19.952046
-19.952027
-19.952005
-19.951982
-19.951958
-19.951914
-19.951814
-19.951628
-19.951367
-19.952165
-19.952146
-19.952124
-19.952101
-19.952078
-19.952033
-19.951929
-19.951734
-19.951461
-19.952226
-19.952207
-19.952184
-19.952162
-19.952138
-19.952093
-19.951986
-19.951787
-19.951508
-19.952226
-19.952207
-19.952184
-19.952162
-19.952138
-19.952093
-19.951986
-19.951787
-19.951508
-19.952164
-19.952146
-19.952124
-19.952102
-19.952078
-19.952033
-19.951929
-19.951733
-19.95146
-19.952045
-19.952027
-19.952005
-19.951982
-19.951958
-19.951915
-19.951814
-19.951627
-19.951365
-19.951869
-19.951851
-19.951829
-19.951806
-19.951782
-19.95174
-19.951644
-19.951469
-19.951224
-19.951639
-19.951621
-19.951599
-19.951576
-19.951552
-19.951512
-19.951424
-19.951263
-19.951039
-19.951358
-19.951341
-19.951319
-19.951296
-19.951272
-19.951235
-19.951155
-19.951011
-19.950811
-19.951031
-19.951015
-19.950994
-19.950972
-19.950949
-19.950914
-19.950843
-19.950718
-19.950543
-19.950664
-19.950649
-19.950629
-19.950607
-19.950584
-19.950554
-19.950494
-19.950388
-19.950239
-19.95025
-19.950237
-19.95022
-19.950202
-19.950185
-19.950162
-19.950115
-19.950031
-19.949907
-19.9498
-19.949789
-19.949775
-19.949762
-19.94975
-19.949737
-19.949709
-19.949648
-19.949546
-19.949318
-19.949309
-19.9493
-19.949291
-19.949289
-19.949296
-19.949303
-19.949283
-19.949196
-19.94879
-19.948787
-19.948787
-19.948797
-19.948824
-19.948876
-19.948953
-19.949035
-19.949036
-18.80857
-18.808571
-18.808573
-18.808575
-18.808579
-18.808586
-18.8086
-18.808613
-18.808595
-18.80879
-18.808789
-18.808787
-18.808781
-18.80877
-18.808754
-18.808734
-18.808703
-18.808646
-18.808995
-18.808993
-18.808989
-18.80898
-18.808963
-18.808936
-18.808898
-18.808848
-18.808784
-18.809198
-18.809195
-18.809189
-18.809178
-18.809157
-18.809124
-18.809075
-18.809011
-18.808937
-18.809391
-18.809387
-18.80938
-18.809367
-18.809344
-18.809305
-18.809247
-18.80917
-18.809082
-18.809569
-18.809565
-18.809558
-18.809545
-18.80952
-18.809478
-18.809411
-18.809322
-18.80922
-18.809732
-18.809728
-18.80972
-18.809707
-18.809681
-18.809635
-18.809562
-18.809462
-18.809346
-18.809873
-18.809869
-18.809862
-18.809848
-18.809822
-18.809774
-18.809696
-18.809586
-18.809457
-18.809991
-18.809987
-18.80998
-18.809967
-18.809941
-18.809891
-18.809809
-18.809691
-18.809551
-18.810082
-18.810078
-18.810072
-18.810059
-18.810033
-18.809983
-18.809897
-18.809773
-18.809625
-18.810143
-18.81014
-18.810134
-18.810121
-18.810095
-18.810045
-18.809957
-18.80983
-18.809676
-18.810175
-18.810171
-18.810165
-18.810153
-18.810127
-18.810077
-18.809988
-18.809859
-18.809701
-18.810175
-18.810171
-18.810165
-18.810153
-18.810127
-18.810077
-18.809988
-18.809859
-18.809701
-18.810143
-18.810139
-18.810133
-18.810121
-18.810095
-18.810045
-18.809957
-18.809829
-18.809674
-18.810081
-18.810078
-18.810071
-18.810058
-18.810033
-18.809983
-18.809897
-18.809773
-18.809623
-18.809991
-18.809987
-18.80998
-18.809967
-18.809941
-18.809892
-18.809809
-18.80969
-18.809549
-18.809873
-18.809869
-18.809862
-18.809849
-18.809823
-18.809776
-18.809696
-18.809585
-18.809455
-18.809732
-18.809728
-18.809721
-18.809708
-18.809683
-18.809637
-18.809563
-18.809461
-18.809343
-18.809571
-18.809567
-18.809561
-18.809548
-18.809524
-18.809481
-18.809413
-18.809322
-18.809217
-18.809395
-18.809391
-18.809385
-18.809372
-18.809349
-18.80931
-18.80925
-18.809171
-18.80908
-18.809203
-18.809201
-18.809195
-18.809185
-18.809164
-18.80913
-18.80908
-18.809014
-18.808936
-18.809003
-18.809002
-18.808998
-18.808989
-18.808972
-18.808945
-18.808906
-18.808853
-18.808785
-18.808801
-18.8088
-18.808798
-18.808792
-18.808781
-18.808765
-18.808743
-18.80871
-18.80865
-18.808581
-18.808583
-18.808584
-18.808587
-18.808591
-18.808598
-18.808611
-18.808624
-18.808603
-17.668146
-17.668145
-17.668145
-17.668147
-17.66815
-17.668157
-17.66817
-17.668186
-17.668188
-17.668243
-17.668242
-17.66824
-17.668238
-17.668237
-17.668235
-17.668235
-17.668232
-17.668217
-17.66833
-17.668329
-17.668326
-17.668324
-17.66832
-17.668315
-17.668308
-17.668298
-17.668281
-17.668414
-17.668412
-17.66841
-17.668406
-17.668402
-17.668395
-17.668384
-17.668368
-17.668348
-17.668494
-17.668492
-17.668489
-17.668485
-17.668479
-17.668471
-17.668457
-17.668437
-17.668412
-17.668565
-17.668563
-17.668561
-17.668557
-17.668551
-17.668542
-17.668526
-17.668502
-17.668472
-17.66863
-17.668628
-17.668625
-17.668621
-17.668616
-17.668606
-17.668589
-17.668561
-17.668527
-17.668686
-17.668684
-17.668681
-17.668678
-17.668672
-17.668662
-17.668644
-17.668613
-17.668575
-17.668732
-17.66873
-17.668728
-17.668724
-17.668719
-17.668709
-17.668689
-17.668657
-17.668614
-17.668767
-17.668765
-17.668763
-17.66876
-17.668755
-17.668745
-17.668725
-17.66869
-17.668644
-17.668791
-17.668789
-17.668787
-17.668784
-17.668779
-17.668769
-17.668749
-17.668713
-17.668665
-17.668803
-17.668801
-17.668799
-17.668796
-17.668791
-17.668782
-17.668761
-17.668724
-17.668675
-17.668802
-17.668801
-17.668799
-17.668796
-17.668791
-17.668782
-17.668761
-17.668724
-17.668675
-17.66879
-17.668788
-17.668786
-17.668783
-17.668779
-17.668769
-17.668748
-17.668712
-17.668664
-17.668766
-17.668765
-17.668762
-17.668759
-17.668755
-17.668745
-17.668724
-17.668689
-17.668642
-17.668731
-17.668729
-17.668727
-17.668724
-17.668719
-17.668709
-17.668689
-17.668655
-17.668611
-17.668685
-17.668684
-17.668681
-17.668678
-17.668673
-17.668663
-17.668644
-17.668612
-17.668571
-17.66863
-17.668628
-17.668626
-17.668623
-17.668617
-17.668608
-17.668589
-17.66856
-17.668524
-17.668566
-17.668565
-17.668562
-17.668559
-17.668553
-17.668544
-17.668528
-17.668502
-17.668469
-17.668496
-17.668494
-17.668492
-17.668488
-17.668483
-17.668475
-17.66846
-17.668438
-17.66841
-17.668419
-17.668417
-17.668415
-17.668412
-17.668407
-17.6684
-17.668389
-17.668371
-17.668347
-17.668337
-17.668335
-17.668334
-17.668331
-17.668328
-17.668323
-17.668314
-17.668301
-17.668282
-17.668252
-17.668251
-17.668249
-17.668247
-17.668246
-17.668244
-17.668242
-17.668238
-17.668221
-17.668155
-17.668155
-17.668155
-17.668156
-17.66816
-17.668167
-17.66818
-17.668195
-17.668195
-16.528151
-16.528151
-16.528151
-16.528151
-16.528152
-16.528154
-16.528158
-16.528164
-16.528164
-16.528191
-16.52819
-16.528189
-16.528188
-16.528187
-16.528185
-16.528184
-16.528182
-16.528176
-16.528225
-16.528224
-16.528223
-16.528222
-16.52822
-16.528217
-16.528213
-16.528208
-16.528202
-16.528259
-16.528258
-16.528257
-16.528255
-16.528252
-16.528249
-16.528244
-16.528237
-16.528229
-16.528291
-16.528291
-16.528289
-16.528287
-16.528284
-16.52828
-16.528273
-16.528265
-16.528256
-16.528321
-16.52832
-16.528319
-16.528317
-16.528314
-16.528309
-16.528301
-16.528291
-16.52828
-16.528347
-16.528347
-16.528346
-16.528344
-16.528341
-16.528335
-16.528327
-16.528315
-16.528302
-16.52837
-16.52837
-16.528369
-16.528367
-16.528364
-16.528358
-16.528349
-16.528336
-16.528321
-16.528389
-16.528389
-16.528388
-16.528386
-16.528383
-16.528377
-16.528368
-16.528354
-16.528337
-16.528403
-16.528403
-16.528402
-16.528401
-16.528398
-16.528392
-16.528382
-16.528367
-16.528349
-16.528413
-16.528413
-16.528412
-16.528411
-16.528408
-16.528402
-16.528392
-16.528376
-16.528357
-16.528418
-16.528417
-16.528417
-16.528416
-16.528413
-16.528407
-16.528396
-16.52838
-16.52836
-16.528417
-16.528417
-16.528417
-16.528416
-16.528413
-16.528407
-16.528396
-16.52838
-16.52836
-16.528412
-16.528412
-16.528412
-16.52841
-16.528407
-16.528402
-16.528391
-16.528375
-16.528355
-16.528402
-16.528402
-16.528402
-16.5284
-16.528397
-16.528392
-16.528382
-16.528366
-16.528346
-16.528388
-16.528388
-16.528387
-16.528386
-16.528383
-16.528377
-16.528367
-16.528352
-16.528334
-16.528369
-16.528369
-16.528368
-16.528367
-16.528364
-16.528359
-16.528349
-16.528335
-16.528318
-16.528347
-16.528347
-16.528346
-16.528345
-16.528342
-16.528337
-16.528327
-16.528314
-16.528298
-16.528322
-16.528321
-16.52832
-16.528319
-16.528316
-16.528311
-16.528303
-16.528291
-16.528277
-16.528294
-16.528293
-16.528292
-16.528291
-16.528288
-16.528283
-16.528276
-16.528265
-16.528253
-16.528263
-16.528262
-16.528262
-16.52826
-16.528258
-16.528254
-16.528248
-16.528239
-16.528228
-16.528231
-16.52823
-16.52823
-16.528229
-16.528226
-16.528223
-16.528219
-16.528212
-16.528202
-16.528198
-16.528198
-16.528197
-16.528196
-16.528195
-16.528193
-16.528191
-16.528188
-16.528179
-16.52816
-16.52816
-16.52816
-16.52816
-16.528161
-16.528163
-16.528166
-16.528172
-16.52817
-15.388246
-15.388246
-15.388246
-15.388246
-15.388246
-15.388247
-15.388249
-15.388252
-15.388253
-15.388261
-15.388261
-15.388261
-15.38826
-15.38826
-15.388259
-15.388259
-15.38826
-15.388259
-15.388275
-15.388275
-15.388274
-15.388273
-15.388273
-15.388272
-15.388271
-15.38827
-15.388269
-15.388289
-15.388288
-15.388288
-15.388287
-15.388286
-15.388285
-15.388283
-15.388282
-15.38828
-15.388302
-15.388302
-15.388301
-15.3883
-15.388299
-15.388298
-15.388296
-15.388293
-15.388291
-15.388314
-15.388313
-15.388313
-15.388312
-15.388311
-15.38831
-15.388307
-15.388304
-15.388301
-15.388325
-15.388324
-15.388324
-15.388323
-15.388322
-15.38832
-15.388318
-15.388314
-15.38831
-15.388334
-15.388334
-15.388333
-15.388333
-15.388332
-15.38833
-15.388327
-15.388323
-15.388318
-15.388341
-15.388341
-15.388341
-15.38834
-15.38834
-15.388338
-15.388335
-15.38833
-15.388325
-15.388347
-15.388347
-15.388347
-15.388346
-15.388346
-15.388344
-15.388341
-15.388336
-15.38833
-15.388351
-15.388351
-15.388351
-15.38835
-15.38835
-15.388348
-15.388345
-15.38834
-15.388333
-15.388352
-15.388353
-15.388352
-15.388352
-15.388352
-15.38835
-15.388347
-15.388342
-15.388335
-15.388352
-15.388352
-15.388352
-15.388352
-15.388352
-15.38835
-15.388347
-15.388341
-15.388334
-15.38835
-15.38835
-15.38835
-15.38835
-15.38835
-15.388348
-15.388345
-15.388339
-15.388332
-15.388346
-15.388346
-15.388346
-15.388346
-15.388346
-15.388344
-15.388341
-15.388335
-15.388328
-15.38834
-15.38834
-15.38834
-15.38834
-15.38834
-15.388338
-15.388335
-15.388329
-15.388322
-15.388333
-15.388333
-15.388333
-15.388333
-15.388332
-15.38833
-15.388327
-15.388322
-15.388315
-15.388324
-15.388324
-15.388324
-15.388324
-15.388323
-15.388322
-15.388318
-15.388313
-15.388307
-15.388315
-15.388315
-15.388314
-15.388314
-15.388313
-15.388312
-15.388308
-15.388304
-15.388298
-15.388304
-15.388304
-15.388304
-15.388303
-15.388303
-15.388301
-15.388298
-15.388294
-15.388288
-15.388293
-15.388293
-15.388292
-15.388292
-15.388291
-15.38829
-15.388287
-15.388283
-15.388279
-15.388281
-15.388281
-15.388281
-15.38828
-15.388279
-15.388278
-15.388276
-15.388273
-15.388269
-15.388269
-15.388269
-15.388269
-15.388268
-15.388268
-15.388267
-15.388266
-15.388265
-15.388261
-15.388254
-15.388254
-15.388254
-15.388254
-15.388255
-15.388256
-15.388257
-15.38826
-15.388258
-14.248372
-14.248372
-14.248372
-14.248372
-14.248372
-14.248372
-14.248373
-14.248375
-14.248375
-14.248378
-14.248378
-14.248378
-14.248377
-14.248377
-14.248377
-14.248377
-14.248378
-14.248379
-14.248383
-14.248383
-14.248383
-14.248382
-14.248382
-14.248382
-14.248382
-14.248382
-14.248383
-14.248389
-14.248389
-14.248388
-14.248388
-14.248387
-14.248387
-14.248387
-14.248387
-14.248387
-14.248394
-14.248394
-14.248394
-14.248393
-14.248393
-14.248392
-14.248392
-14.248391
-14.248391
-14.248399
-14.248399
-14.248398
-14.248398
-14.248398
-14.248397
-14.248396
-14.248395
-14.248395
-14.248403
-14.248403
-14.248403
-14.248402
-14.248402
-14.248401
-14.2484
-14.248399
-14.248398
-14.248407
-14.248407
-14.248406
-14.248406
-14.248406
-14.248405
-14.248404
-14.248403
-14.248401
-14.24841
-14.24841
-14.248409
-14.248409
-14.248409
-14.248408
-14.248407
-14.248406
-14.248404
-14.248412
-14.248412
-14.248412
-14.248411
-14.248411
-14.24841
-14.248409
-14.248408
-14.248406
-14.248413
-14.248413
-14.248413
-14.248413
-14.248413
-14.248412
-14.248411
-14.248409
-14.248407
-14.248414
-14.248414
-14.248414
-14.248414
-14.248413
-14.248413
-14.248411
-14.24841
-14.248407
-14.248414
-14.248414
-14.248414
-14.248414
-14.248413
-14.248413
-14.248411
-14.248409
-14.248407
-14.248413
-14.248413
-14.248413
-14.248413
-14.248413
-14.248412
-14.248411
-14.248409
-14.248406
-14.248411
-14.248411
-14.248411
-14.248411
-14.248411
-14.24841
-14.248409
-14.248407
-14.248404
-14.248409
-14.248409
-14.248409
-14.248409
-14.248409
-14.248408
-14.248407
-14.248405
-14.248402
-14.248406
-14.248407
-14.248407
-14.248407
-14.248406
-14.248406
-14.248404
-14.248402
-14.248399
-14.248403
-14.248403
-14.248403
-14.248403
-14.248403
-14.248403
-14.248401
-14.248399
-14.248396
-14.2484
-14.2484
-14.2484
-14.2484
-14.2484
-14.248399
-14.248398
-14.248395
-14.248393
-14.248396
-14.248396
-14.248396
-14.248396
-14.248396
-14.248395
-14.248394
-14.248392
-14.248389
-14.248392
-14.248392
-14.248392
-14.248392
-14.248392
-14.248391
-14.24839
-14.248388
-14.248386
-14.248388
-14.248389
-14.248389
-14.248388
-14.248388
-14.248388
-14.248387
-14.248385
-14.248383
-14.248385
-14.248385
-14.248385
-14.248384
-14.248384
-14.248384
-14.248384
-14.248383
-14.248381
-14.24838
-14.24838
-14.24838
-14.24838
-14.24838
-14.24838
-14.248381
-14.248382
-14.248381
-13.108515
-13.108515
-13.108515
-13.108515
-13.108515
-13.108515
-13.108515
-13.108516
-13.108517
-13.108517
-13.108517
-13.108517
-13.108517
-13.108517
-13.108517
-13.108517
-13.108518
-13.108518
-13.10852
-13.108519
-13.108519
-13.108519
-13.108519
-13.108519
-13.108519
-13.108519
-13.10852
-13.108522
-13.108522
-13.108522
-13.108521
-13.108521
-13.108521
-13.108521
-13.108521
-13.108522
-13.108524
-13.108524
-13.108524
-13.108524
-13.108523
-13.108523
-13.108523
-13.108523
-13.108524
-13.108526
-13.108526
-13.108526
-13.108526
-13.108525
-13.108525
-13.108525
-13.108525
-13.108525
-13.108528
-13.108528
-13.108528
-13.108527
-13.108527
-13.108527
-13.108527
-13.108527
-13.108527
-13.108529
-13.108529
-13.108529
-13.108529
-13.108529
-13.108529
-13.108528
-13.108528
-13.108528
-13.10853
-13.10853
-13.10853
-13.10853
-13.10853
-13.10853
-13.108529
-13.108529