/*--------------------------------*- C++ -*----------------------------------*\
| =========                 |                                                 |
| \\      /  F ield         | OpenFOAM: The Open Source CFD Toolbox           |
|  \\    /   O peration     | Version:  2406                                  |
|   \\  /    A nd           | Website:  www.openfoam.com                      |
|    \\/     M anipulation  |                                                 |
\*---------------------------------------------------------------------------*/
FoamFile
{
    version     2.0;
    format      ascii;
    arch        "LSB;label=32;scalar=64";
    class       surfaceScalarField;
    location    "0.5";
    object      phi;
}
// * * * * * * * * * * * * * * * * * * * * * * * * * * * * * * * * * * * * * //

dimensions      [0 3 -1 0 0 0 0];

oriented        oriented;

internalField   nonuniform List<scalar> 
101088
(
0.00010736031
-5.1009209e-06
3.3933137e-06
4.2521871e-06
0.00024685317
-2.3792319e-05
1.7683588e-05
2.0416176e-05
0.00041354901
-6.1654572e-05
5.0006345e-05
5.4137679e-05
0.00058849007
-0.00012468393
0.00011079866
0.00011225158
0.00073837929
-0.00021081066
0.00020431864
0.00019464503
0.00082788129
-0.00030085918
0.00031520026
0.00028557548
0.00084158646
-0.0003629036
0.00040560321
0.00035513192
0.00079381912
-0.00037098009
0.00043881542
0.00037492689
-0.00031797892
0.00040633004
0.00034140758
0.00070794468
0.00013072256
-5.733368e-06
4.7307906e-06
0.00029742001
-2.6339531e-05
2.4268108e-05
0.00049110682
-6.7148095e-05
6.7741989e-05
0.00068522756
-0.00013266509
0.00014797486
0.00083833802
-0.00021894499
0.00026848592
0.00091192086
-0.00030410947
0.00040742833
0.00089614623
-0.00035639325
0.00051774009
0.00081453749
-0.0003531977
0.00055796059
-0.00029344899
0.00052137073
0.0007068926
0.0001541036
-6.0718715e-06
6.2026734e-06
0.00034712734
-2.7535777e-05
3.1362696e-05
0.00056539149
-6.9332294e-05
8.6496657e-05
0.00077505006
-0.00013453592
0.000186431
0.00092808975
-0.0002178927
0.00033300814
0.00098555218
-0.00029583694
0.00049696269
0.00094486876
-0.00033822696
0.00062253584
0.00083922493
-0.00032714694
0.00066557561
-0.00026703291
0.00062275723
0.00071410673
0.0001767765
-6.1824986e-06
7.845718e-06
0.00039480278
-2.7620788e-05
3.9046348e-05
0.00063546532
-6.8622889e-05
0.00010627485
0.00085776783
-0.00013087102
0.00022586823
0.001008316
-0.00020864071
0.0003971458
0.0010497791
-0.00027812158
0.00058299846
0.00098779229
-0.00031178991
0.00071987614
0.00086355715
-0.00029625731
0.00076244906
-0.00023956135
0.00071167265
0.00072478554
0.00019804783
-5.9806475e-06
9.5477877e-06
0.00043893599
-2.6428142e-05
4.6865682e-05
0.00069930783
-6.5004809e-05
0.00012607143
0.00093180707
-0.00012227766
0.00026460055
0.0010788212
-0.00019270605
0.0004586932
0.0011056136
-0.00025336947
0.00066341067
0.0010255608
-0.00027988212
0.00080859542
0.00088632365
-0.00026253441
0.00084851429
-0.00021148596
0.00078874411
0.00073665185
0.00021769634
-5.5478668e-06
1.1253642e-05
0.00047946779
-2.4289254e-05
5.4572682e-05
0.0007574901
-5.9209419e-05
0.00014528007
0.00099869652
-0.00011003348
0.0003015236
0.0011420424
-0.00017181627
0.00051612182
0.0011556403
-0.00022347479
0.00073680481
0.0010599078
-0.00024405917
0.00088780525
0.00090788398
-0.00022680117
0.00092376722
-0.00018255318
0.00085458292
0.00074884843
0.00023505572
-4.9515485e-06
1.291236e-05
0.00051497205
-2.1453925e-05
6.1914854e-05
0.0008079148
-5.1814223e-05
0.00016324084
0.0010559817
-9.5194447e-05
0.00033538049
0.001195594
-0.00014748455
0.00056767924
0.0011978078
-0.00019018553
0.00080134407
0.0010891321
-0.00020589464
0.0009561396
0.00092681331
-0.00019009737
0.0009875899
-0.00015306167
0.00090938575
0.00076023445
0.00024987573
-4.1975957e-06
1.4407855e-05
0.00054507704
-1.8009132e-05
6.8462236e-05
0.00085034659
-4.3124155e-05
0.00017909102
0.0011038279
-7.8429927e-05
0.00036491077
0.0012400631
-0.00012072297
0.00061202213
0.0012328231
-0.00015462398
0.00085604275
0.0011136621
-0.00016628398
0.0010132405
0.00094307357
-0.00015284571
0.0010401822
-0.00012315218
0.00095393018
0.00077043247
0.00026196081
-3.2875488e-06
1.5667428e-05
0.00056949901
-1.4009922e-05
7.3936337e-05
0.00088457383
-3.3337355e-05
0.00019225367
0.0011422255
-6.0163826e-05
0.00038924911
0.0012756293
-9.2165868e-05
0.00064822031
0.0012608725
-0.00011746088
0.00090022717
0.0011335153
-0.00012570694
0.0010588808
0.00095648323
-0.00011521748
0.0010817784
-9.2877284e-05
0.0009887744
0.00077911927
0.00027117893
-2.263511e-06
1.6650451e-05
0.00058808634
-9.614914e-06
7.8186507e-05
0.0009105441
-2.2766552e-05
0.00020241848
0.0011712648
-4.0836541e-05
0.00040792184
0.001302466
-6.2317828e-05
0.0006757566
0.0012820647
-7.9113586e-05
0.00093352314
0.0011486305
-8.4364303e-05
0.0010929502
0.00096681332
-7.7175366e-05
0.0011125449
-6.2202522e-05
0.0010142968
0.0007859788
0.00027732452
-1.1795441e-06
1.7369218e-05
0.0006003285
-4.9511622e-06
8.1220577e-05
0.00092740143
-1.1633626e-05
0.00020951863
0.0011898123
-2.0729885e-05
0.00042069401
0.0013193286
-3.1506672e-05
0.00069422824
0.0012952264
-3.9872443e-05
0.00095548719
0.0011580364
-4.2415056e-05
0.0011151172
0.00097339506
-3.8752441e-05
0.0011323464
-3.121243e-05
0.0010305854
0.00079062987
0.00028040146
-5.4508692e-12
1.7694962e-05
0.0006064525
-1.0155859e-11
8.2632426e-05
0.00093584522
-1.3643207e-10
0.00021289484
0.0011991333
-3.030987e-10
0.00042688012
0.0013278336
-4.4342523e-10
0.00070328943
0.0013018872
-4.2142533e-10
0.00096633423
0.0011628047
-4.2674053e-10
0.0011260878
0.00097672209
-4.9604691e-10
0.0011421465
-4.2263412e-10
0.0010386573
0.00079298501
0.00028040155
1.1795057e-06
1.7694961e-05
0.00060645215
4.9510353e-06
8.2632418e-05
0.00093584489
1.1633301e-05
0.00021289481
0.0011991332
2.0729564e-05
0.00042688007
0.0013278336
3.1506225e-05
0.00070328935
0.0013018871
3.9871876e-05
0.00096633411
0.0011628046
4.2414265e-05
0.0011260877
0.00097672207
3.8751417e-05
0.0011421465
3.1211248e-05
0.0010386573
0.00079298519
0.00027732492
2.2635024e-06
1.736922e-05
0.00060032843
9.6148e-06
8.1220584e-05
0.00092740172
2.2766441e-05
0.00020951864
0.0011898126
4.0836912e-05
0.00042069402
0.0013193288
6.231809e-05
0.00069422822
0.0012952265
7.9113391e-05
0.00095548714
0.0011580364
8.4363564e-05
0.0011151171
0.0009733949
7.717436e-05
0.0011323464
6.2200914e-05
0.0010305854
0.00079063002
0.00027117919
3.287587e-06
1.6650449e-05
0.00058808673
1.4009833e-05
7.8186493e-05
0.0009105451
3.3337398e-05
0.00020241844
0.0011712649
6.0164337e-05
0.00040792178
0.0013024659
9.2166108e-05
0.00067575648
0.0012820647
0.00011746061
0.00093352302
0.0011486303
0.00012570606
0.0010929501
0.00096681266
0.00011521659
0.0011125448
9.287588e-05
0.0010142968
0.00078597837
0.00026196038
4.1975225e-06
1.5667425e-05
0.00056949886
1.8008717e-05
7.3936321e-05
0.00088457451
4.3123853e-05
0.00019225363
0.0011422253
7.8430025e-05
0.00038924907
0.0012756295
0.00012072305
0.00064822026
0.0012608723
0.00015462368
0.00090022716
0.001133515
0.00016628311
0.0010588808
0.0009564823
0.0001528452
0.0010817784
0.00012315151
0.00098877437
0.00077911836
0.00024987507
4.95156e-06
1.4407855e-05
0.00054507653
2.1453886e-05
6.8462232e-05
0.0008503473
5.1814392e-05
0.00017909102
0.0011038284
9.5195108e-05
0.00036491079
0.0012400637
0.00014748496
0.00061202214
0.0012328227
0.00019018527
0.00085604276
0.0011136622
0.00020589401
0.0010132405
0.00094307292
0.00019009729
0.0010401822
0.00015306122
0.00095393021
0.00077043163
0.00023505516
5.5479461e-06
1.2912363e-05
0.00051497108
2.4289437e-05
6.1914862e-05
0.0008079152
5.9209571e-05
0.00016324085
0.0010559818
0.00011003367
0.0003353805
0.0011955945
0.00017181566
0.00056767923
0.0011978076
0.00022347427
0.00080134405
0.0010891328
0.00024405898
0.00095613959
0.00092681296
0.00022680153
0.00098758995
0.00018255259
0.00090938584
0.00076023332
0.00021769644
5.9807487e-06
1.1253644e-05
0.00047946811
2.6428408e-05
5.4572692e-05
0.00075749102
6.5004814e-05
0.00014528008
0.00099869642
0.00012227719
0.00030152362
0.0011420437
0.00019270594
0.00051612182
0.0011556409
0.00025336994
0.00073680485
0.0010599088
0.00027988249
0.00088780534
0.00090788346
0.00026253474
0.00092376729
0.00021148575
0.00085458298
0.00074884643
0.00019804764
6.1825301e-06
9.5477863e-06
0.00043893522
2.7620858e-05
4.6865677e-05
0.00069930721
6.8623159e-05
0.00012607142
0.00093180819
0.00013087182
0.00026460052
0.0010788228
0.00020864227
0.00045869316
0.0011056144
0.00027812273
0.00066341063
0.0010255614
0.00031179064
0.00080859539
0.00088632347
0.00029625679
0.00084851424
0.00023956179
0.0007887441
0.0007366507
0.00017677664
6.0719734e-06
7.8457162e-06
0.00039480307
2.7536028e-05
3.9046339e-05
0.00063546605
6.9332835e-05
0.00010627483
0.00085776961
0.00013453631
0.00022586816
0.0010083168
0.00021789218
0.0003971457
0.00104978
0.00029583662
0.00058299832
0.00098779247
0.00033822625
0.00071987604
0.00086355774
0.00032714574
0.00076244895
0.0002670347
0.00071167266
0.00072478531
0.0001541036
5.7333748e-06
6.2026701e-06
0.00034712697
2.6339507e-05
3.1362682e-05
0.00056539068
6.71481e-05
8.6496621e-05
0.00077504984
0.00013266495
0.00018643092
0.00092809073
0.00021894449
0.000333008
0.00098555237
0.00030410944
0.00049696256
0.00094486825
0.0003563934
0.00062253573
0.00083922538
0.00035319502
0.00066557557
0.00029344883
0.00062275728
0.00071410632
0.00013072241
5.1009255e-06
4.7307905e-06
0.00029741943
2.3792325e-05
2.4268108e-05
0.00049110593
6.1654591e-05
6.7741987e-05
0.00068522719
0.00012468391
0.00014797485
0.0008383386
0.00021081064
0.0002684859
0.00091192102
0.0003008587
0.00040742835
0.00089614527
0.00036290306
0.00051774015
0.00081453783
0.00037097865
0.00055796069
0.0003179776
0.00052137079
0.00070689264
0.00010736032
3.3933153e-06
4.2521764e-06
0.00024685314
1.7683595e-05
2.041609e-05
0.00041354899
5.0006362e-05
5.413736e-05
0.00058848998
0.00011079869
0.00011225065
0.00073837891
0.00020431869
0.00019464332
0.00082788208
0.00031520033
0.00028557448
0.00084158825
0.00040560328
0.00035513373
0.00079381897
0.00043881553
0.00037492658
0.00040633009
0.00034140905
0.00070794563
2.5551876e-06
2.9088346e-06
5.8314495e-07
-2.6538548e-06
1.3458214e-05
1.0193036e-05
6.1616868e-06
-9.5740923e-06
3.8834727e-05
1.5902559e-05
2.489311e-05
-1.6165659e-05
8.4577332e-05
5.3019949e-06
7.0508521e-05
-1.0754211e-05
0.00015178865
-4.4248649e-05
0.00015501835
2.6337755e-05
0.00023208203
-0.00014515967
0.00027061801
0.00010944841
0.00030782501
-0.00026903572
0.00037847344
0.00022042256
0.00036440021
-0.00036118872
0.00043108785
0.00031234109
-0.00038812325
0.00041000012
0.00034949737
0.00039935554
3.5146566e-06
3.3539666e-06
7.7103662e-07
1.8534745e-05
1.1216502e-05
8.224666e-06
5.3158089e-05
1.5826628e-05
3.319473e-05
0.0001135556
-5.3935635e-07
9.3418578e-05
0.00019632279
-6.1740897e-05
0.00020321032
0.0002846059
-0.00017618043
0.00035016587
0.00035490495
-0.00030604142
0.00048444734
0.00039504396
-0.000393273
0.00054990529
-0.00040975593
0.00052829498
0.00040975204
4.9074262e-06
3.730084e-06
9.1916063e-07
2.525965e-05
1.2064955e-05
1.0162194e-05
7.0642198e-05
1.5654086e-05
4.1286923e-05
0.00014626399
-5.6729947e-06
0.00011594275
0.00024289851
-7.5528653e-05
0.00025016099
0.0003353705
-0.00019749009
0.00042580045
0.0003967279
-0.0003267637
0.00058190027
0.0004192555
-0.00040607745
0.00065585296
-0.00041376327
0.00063160906
0.00041441053
6.5549906e-06
3.8907622e-06
1.1300474e-06
3.3086227e-05
1.2236565e-05
1.234343e-05
9.0492215e-05
1.4676894e-05
4.9845578e-05
0.00018197672
-1.0214806e-05
0.00013892453
0.00029142545
-8.4435189e-05
0.00029660411
0.00038594147
-0.0002070968
0.00049808939
0.00043750921
-0.00033025774
0.00067180292
0.00044373968
-0.00040027851
0.00075041977
-0.00040149256
0.00072141193
0.00042172959
8.2141894e-06
3.8558937e-06
1.3685891e-06
4.087865e-05
1.1841738e-05
1.4596457e-05
0.00011003201
1.3180193e-05
5.841486e-05
0.00021656015
-1.3605575e-05
0.00016146232
0.00033745709
-8.7832241e-05
0.0003411926
0.00043355259
-0.00020547568
0.0005656943
0.00047683942
-0.00031847997
0.00075353075
0.00046979952
-0.00037870662
0.00083398291
-0.00037576561
0.00079860913
0.00043420767
9.8221982e-06
3.6512319e-06
1.6360737e-06
4.8380165e-05
1.0967966e-05
1.6888282e-05
0.00012868858
1.1329717e-05
6.6821552e-05
0.00024921894
-1.5680385e-05
0.00018306869
0.00038062602
-8.6129565e-05
0.00038301154
0.00047846654
-0.00019410846
0.00062759752
0.00051539264
-0.00029413566
0.00082653461
0.00049815833
-0.00034449831
0.00090679362
-0.00033883141
0.00086405938
0.00045174773
1.1338452e-05
3.2788201e-06
1.9465674e-06
5.5353242e-05
9.6555097e-06
1.921246e-05
0.00014576701
9.266673e-06
7.4889103e-05
0.00027861732
-1.628209e-05
0.00020313232
0.00041906953
-7.9722599e-05
0.00042082047
0.00051853888
-0.00017446935
0.00068223667
0.0005508611
-0.00025988515
0.00088956684
0.00052611652
-0.0003005266
0.00096836303
-0.00029326794
0.0009181783
0.00047176065
1.2675692e-05
2.7711162e-06
2.2402473e-06
6.1455008e-05
8.0211814e-06
2.1317217e-05
0.00016059347
7.1770261e-06
8.2041412e-05
0.00030391762
-1.5359848e-05
0.00022066459
0.00045199347
-6.916212e-05
0.00045338574
0.00055290939
-0.00014791998
0.00072857827
0.00058154707
-0.00021749796
0.00094221591
0.00055142465
-0.00024922031
0.0010189988
-0.0002416224
0.00096191007
0.00049179936
1.3787851e-05
2.1635951e-06
2.4872875e-06
6.6500545e-05
6.1810494e-06
2.306396e-05
0.00017278349
5.212004e-06
8.7935635e-05
0.00032459001
-1.2955611e-05
0.00023503925
0.00047881983
-5.5067418e-05
0.00047989598
0.00058099478
-0.00011580919
0.00076594196
0.00060687256
-0.00016871601
0.00098422134
0.00057269373
-0.00019221191
0.0010589492
-0.00018545496
0.00099593649
0.00050936414
1.4641727e-05
1.4918629e-06
2.6803511e-06
7.036996e-05
4.2237957e-06
2.4415722e-05
0.00018211908
3.4138003e-06
9.2467552e-05
0.00034038343
-9.3266997e-06
0.00024602934
0.00049930781
-3.8247797e-05
0.00050001299
0.00060250899
-7.952276e-05
0.00079403594
0.0006263533
-0.00011512052
0.0010155105
0.00058892925
-0.00013067756
0.0010884346
-0.00012576914
0.0010207748
0.00052276519
1.5252168e-05
7.5095101e-07
2.857925e-06
7.309964e-05
2.1053827e-06
2.5491854e-05
0.00018860108
1.6226042e-06
9.5808398e-05
0.000351181
-4.9501158e-06
0.0002537377
0.00051315947
-1.9644319e-05
0.00051364646
0.00061696542
-4.0469004e-05
0.00081262772
0.00063941058
-5.8319003e-05
0.0010358705
0.00059973344
-6.6046411e-05
0.0011073923
-6.3484283e-05
0.0010365901
0.0005314438
1.5531175e-05
1.7092688e-11
2.914748e-06
7.4353036e-05
6.0805742e-11
2.5916097e-05
0.00019160548
7.2776442e-11
9.7264975e-05
0.00035622828
1.9828347e-11
0.00025730731
0.00051968691
-1.0776933e-10
0.00052018677
0.00062384213
-2.5450452e-10
0.00082171052
0.00064569772
-3.7725614e-10
0.0010459137
0.00060500219
-4.3123302e-10
0.0011167961
-3.4055803e-10
0.001044468
0.00053570759
1.5531145e-05
-7.5092407e-07
2.9147477e-06
7.4352837e-05
-2.105288e-06
2.5916094e-05
0.00019160534
-1.6224521e-06
9.7264963e-05
0.00035622824
4.9503158e-06
0.00025730728
0.00051968687
1.9644354e-05
0.00052018671
0.00062384205
4.0468695e-05
0.00082171043
0.00064569763
5.831837e-05
0.0010459136
0.00060500211
6.6045601e-05
0.001116796
6.3483563e-05
0.001044468
0.00053570755
1.5252205e-05
-1.4918318e-06
2.8579255e-06
7.3099457e-05
-4.223707e-06
2.5491855e-05
0.00018860116
-3.4135538e-06
9.5808399e-05
0.00035118115
9.327274e-06
0.0002537377
0.00051315962
3.8248292e-05
0.00051364644
0.0006169654
7.9522814e-05
0.00081262768
0.00063941044
0.00011512014
0.0010358705
0.0005997332
0.00013067696
0.0011073923
0.00012576854
0.0010365901
0.00053144359
1.4641853e-05
-2.1635273e-06
2.6803509e-06
7.037008e-05
-6.1809086e-06
2.4415717e-05
0.00018211954
-5.2116574e-06
9.2467532e-05
0.0003403835
1.2956327e-05
0.00024602929
0.00049930782
5.5067972e-05
0.00050001289
0.00060250876
0.00011580928
0.00079403581
0.00062635291
0.00016871572
0.0010155104
0.00058892869
0.00019221159
0.0010884346
0.00018545473
0.0010207748
0.00052276478
1.3787769e-05
-2.7710711e-06
2.4872866e-06
6.6500585e-05
-8.0211329e-06
2.3063954e-05
0.00017278401
-7.1768201e-06
8.7935614e-05
0.00032459001
1.5360352e-05
0.00023503922
0.00047881989
6.9162474e-05
0.00047989592
0.00058099446
0.00014791998
0.00076594191
0.00060687211
0.00021749768
0.00098422131
0.00057269305
0.00024922032
0.0010589492
0.00024162258
0.00099593646
0.00050936372
1.2675363e-05
-3.2787794e-06
2.2402456e-06
6.145476e-05
-9.6554408e-06
2.131721e-05
0.00016059397
-9.2664016e-06
8.2041394e-05
0.00030391781
1.6282677e-05
0.00022066457
0.00045199377
7.9722926e-05
0.0004533857
0.0005529091
0.00017446929
0.00072857824
0.00058154685
0.00025988486
0.00094221589
0.00055142419
0.00030052674
0.0010189988
0.0002932681
0.00096191008
0.000491799
1.1338179e-05
-3.6511733e-06
1.946566e-06
5.5352926e-05
-1.0967811e-05
1.9212455e-05
0.00014576762
-1.1329351e-05
7.4889092e-05
0.00027861772
1.5680912e-05
0.0002031323
0.00041907009
8.612967e-05
0.00042082044
0.00051853879
0.00019410834
0.00068223663
0.00055086119
0.00029413539
0.00088956683
0.0005261162
0.0003444984
0.00096836306
0.00033883129
0.00091817835
0.00047175997
9.8221709e-06
-3.8557893e-06
1.6360732e-06
4.8380175e-05
-1.1841429e-05
1.6888281e-05
0.00012868914
-1.3179763e-05
6.6821552e-05
0.00024921921
1.3605869e-05
0.00018306869
0.00038062681
8.7832452e-05
0.00038301154
0.0004784667
0.00020547571
0.00062759754
0.00051539274
0.00031847967
0.00082653466
0.00049815775
0.00037870648
0.00090679369
0.00037576551
0.00086405943
0.00045174667
8.2141197e-06
-3.8906768e-06
1.3685878e-06
4.0878351e-05
-1.2236334e-05
1.4596452e-05
0.00011003184
-1.4676481e-05
5.8414847e-05
0.0002165607
1.0215412e-05
0.00016146229
0.00033745788
8.4435876e-05
0.00034119254
0.00043355272
0.00020709706
0.00056569422
0.00047683922
0.00033025752
0.00075353068
0.00046979884
0.00040027791
0.00083398288
0.00040149274
0.00079860914
0.00043420687
6.555008e-06
-3.7299863e-06
1.1300467e-06
3.3086261e-05
-1.2064679e-05
1.2343425e-05
9.0492483e-05
-1.5653513e-05
4.9845561e-05
0.00018197769
5.6736909e-06
0.00013892448
0.00029142617
7.5528841e-05
0.00029660402
0.00038594193
0.00019749006
0.00049808926
0.00043750901
0.00032676334
0.0006718028
0.00044373921
0.00040607681
0.00075041971
0.00041376397
0.00072141195
0.00042172888
4.9074458e-06
-3.3539015e-06
9.1915966e-07
2.5259553e-05
-1.1216329e-05
1.0162188e-05
7.0642017e-05
-1.5826317e-05
4.1286903e-05
0.00014626431
5.3963865e-07
0.0001159427
0.00024289954
6.1740805e-05
0.00025016088
0.00033537123
0.00017618034
0.00042580031
0.00039672776
0.00030604191
0.00058190014
0.00041925455
0.00039327265
0.00065585291
0.00040975602
0.0006316091
0.00041440959
3.5146361e-06
-2.9088077e-06
7.7103622e-07
1.8534622e-05
-1.0192969e-05
8.224664e-06
5.3158022e-05
-1.5902471e-05
3.3194725e-05
0.00011355611
-5.3020127e-06
9.3418563e-05
0.0001963241
4.4248348e-05
0.00020321029
0.00028460737
0.00014515903
0.00035016583
0.00035490637
0.00026903569
0.0004844473
0.00039504578
0.00036118864
0.0005499053
0.00038812287
0.00052829506
0.00040975366
2.5552227e-06
5.8314535e-07
-2.6538787e-06
1.3458358e-05
6.1616893e-06
-9.5741981e-06
3.8835218e-05
2.4893117e-05
-1.616594e-05
8.4578257e-05
7.0508534e-05
-1.07549e-05
0.00015178982
0.00015501837
2.6336373e-05
0.00023208423
0.00027061803
0.00010944705
0.00030782841
0.00037847345
0.00022042271
0.0003644029
0.00043108791
0.00031234126
0.00041000021
0.00034949972
0.00039935708
6.4789225e-07
4.0994308e-07
2.394031e-07
-7.1409287e-07
3.6465148e-06
1.2541611e-06
4.4899988e-06
-2.5810864e-06
1.1370284e-05
9.748669e-07
2.053626e-05
-4.3417722e-06
2.7305596e-05
-5.2682634e-06
6.1864193e-05
-2.0227022e-06
5.5609012e-05
-2.8811239e-05
0.00014157483
1.3951402e-05
9.8448031e-05
-8.5329236e-05
0.00025539776
5.7710593e-05
0.00015236649
-0.00017593827
0.0003670106
0.00013348285
0.00020742013
-0.00026519541
0.00042662019
0.00021460954
-0.00030912644
0.00041067148
0.00026362661
0.0002522488
8.3696041e-07
1.7721386e-07
1.668116e-07
4.8856656e-06
1.1138499e-07
5.318788e-06
1.5492856e-05
-2.120776e-06
2.5683286e-05
3.7132246e-05
-1.2136427e-05
7.8647496e-05
7.3737725e-05
-4.2656493e-05
0.00018045032
0.00012449665
-0.00011038817
0.00032446615
0.00018080607
-0.00021226879
0.00046446866
0.00023044801
-0.00030535057
0.00054041879
-0.00034494128
0.00052703559
0.00026752254
1.0835089e-06
1.1928724e-08
9.4161643e-10
6.3219528e-06
-7.191214e-07
5.754262e-06
2.0012757e-05
-4.4322361e-06
2.990752e-05
4.7643625e-05
-1.7436243e-05
9.3611563e-05
9.2802579e-05
-5.3577191e-05
0.00021592266
0.00015078957
-0.00012980493
0.00038723009
0.00020748066
-0.00023835926
0.00055129958
0.00024941908
-0.00033113236
0.0006396964
-0.00036465096
0.00062711832
0.00027361947
1.3758379e-06
-9.5684265e-08
-1.381399e-07
8.0054429e-06
-1.2620581e-06
6.2568184e-06
2.5206156e-05
-5.9284999e-06
3.4141084e-05
5.9387662e-05
-2.0844404e-05
0.00010815098
0.00011333259
-6.0580044e-05
0.00024966191
0.00017793529
-0.00014174246
0.00044542417
0.00023405403
-0.00025214323
0.00062946799
0.00026777791
-0.00034101228
0.00072657577
-0.00036785895
0.00071280056
0.00027959723
1.6712325e-06
-1.3894445e-07
-2.5935907e-07
9.7276053e-06
-1.4956957e-06
6.7737339e-06
3.0564931e-05
-6.5779873e-06
3.8226881e-05
7.1532266e-05
-2.2298695e-05
0.00012194902
0.00013434696
-6.3410639e-05
0.00028120827
0.00020482908
-0.00014532594
0.00049879567
0.00025984398
-0.0002528776
0.00069925019
0.00028619121
-0.0003354011
0.00080202457
-0.00035615198
0.00078535153
0.0002877418
1.9956795e-06
-1.5252119e-07
-3.4601382e-07
1.1584441e-05
-1.546728e-06
7.3505245e-06
3.6269939e-05
-6.6442056e-06
4.2202008e-05
8.4320206e-05
-2.2217319e-05
0.00013493673
0.00015604522
-6.2473395e-05
0.00031034897
0.00023220583
-0.00014094022
0.0005470513
0.00028607265
-0.00024106747
0.00076085778
0.00030570468
-0.00031505301
0.00086681358
-0.00033088953
0.00084596081
0.0002985408
2.3144564e-06
-1.4755856e-07
-3.7282038e-07
1.339971e-05
-1.4647982e-06
8.0452062e-06
4.1803397e-05
-6.2322969e-06
4.6073229e-05
9.6569561e-05
-2.0729825e-05
0.00014687866
0.00017643785
-5.7907065e-05
0.00033638576
0.00025761797
-0.00012908471
0.00058920122
0.00031041325
-0.00021780948
0.00081351377
0.0003246463
-0.00028182831
0.00092090546
-0.00029400507
0.00089532937
0.00031061084
2.602936e-06
-1.2916462e-07
-3.8103131e-07
1.5044351e-05
-1.277465e-06
8.688435e-06
4.6815698e-05
-5.4231753e-06
4.9460682e-05
0.00010764002
-1.8025047e-05
0.00015713557
0.00019478849
-5.0168031e-05
0.00035849825
0.00028057816
-0.00011086339
0.00062456755
0.00033307544
-0.00018516771
0.00085707712
0.00034305007
-0.00023775589
0.0009649519
-0.00024697743
0.00093465391
0.0003232786
2.8460814e-06
-1.0047373e-07
-3.8750208e-07
1.6436483e-05
-1.007536e-06
9.2036048e-06
5.1068841e-05
-4.2969344e-06
5.2176871e-05
0.00011704151
-1.4325427e-05
0.00016536708
0.0002103714
-3.9829477e-05
0.00037622757
0.00030018789
-8.7512467e-05
0.00065277476
0.00035282415
-0.00014510089
0.00089151839
0.00035982412
-0.00018518272
0.00099937607
-0.00019184519
0.00096487321
0.000335755
3.0370515e-06
-6.6189719e-08
-3.9101072e-07
1.7535414e-05
-6.8663163e-07
9.5964519e-06
5.4436293e-05
-2.9604706e-06
5.4230096e-05
0.00012449336
-9.9195387e-06
0.0001715664
0.00022272893
-2.7582731e-05
0.00038953056
0.00031582544
-6.0380504e-05
0.00067380741
0.00036886836
-9.962031e-05
0.00091698684
0.00037413706
-0.00012659811
0.0010245811
-0.00013084243
0.00098671377
0.00034719506
3.1835316e-06
-3.5480212e-08
-3.5629991e-07
1.8352672e-05
-3.5597125e-07
9.9919963e-06
5.6876768e-05
-1.5206538e-06
5.5844259e-05
0.00012978491
-5.0830423e-06
0.00017599286
0.00023137931
-1.4109447e-05
0.00039857849
0.0003267139
-3.079467e-05
0.00068770697
0.00038011193
-5.0642796e-05
0.00093349458
0.00038440861
-6.4186842e-05
0.001040684
-6.6240762e-05
0.0010004891
0.00035590774
3.2437659e-06
1.6862656e-11
-3.6452578e-07
1.8709943e-05
4.6537371e-11
1.0093751e-05
5.7992121e-05
6.9133213e-11
5.6461777e-05
0.00013227677
3.8839492e-11
0.00017793926
0.00023552856
-1.4224469e-10
0.00040282532
0.0003320049
-4.2374183e-10
0.00069443954
0.00038566626
-5.9670423e-10
0.00094160977
0.00038962234
-5.0238142e-10
0.0010486534
-2.3010541e-10
0.0010073264
0.00036052328
3.2437143e-06
3.551872e-08
-3.6452581e-07
1.870986e-05
3.5608458e-07
1.0093749e-05
5.7992078e-05
1.5208482e-06
5.646177e-05
0.00013227669
5.0832116e-06
0.00017793924
0.00023552846
1.4109268e-05
0.00040282528
0.00033200479
3.0793942e-05
0.00069443947
0.00038566615
5.0641721e-05
0.0009416097
0.00038962223
6.4185923e-05
0.0010486533
6.6240383e-05
0.0010073264
0.00036052312
3.1834684e-06
6.6226861e-08
-3.5630008e-07
1.8352574e-05
6.8675317e-07
9.991996e-06
5.687679e-05
2.960726e-06
5.5844258e-05
0.00012978487
9.9198436e-06
0.00017599287
0.00023137926
2.7582744e-05
0.00039857848
0.00032671377
6.038003e-05
0.00068770696
0.00038011175
9.9619526e-05
0.00093349457
0.00038440833
0.00012659746
0.001040684
0.00013084233
0.0010004891
0.00035590736
3.0370584e-06
1.0052432e-07
-3.9101101e-07
1.7535382e-05
1.0076955e-06
9.596449e-06
5.4436344e-05
4.2972506e-06
5.4230084e-05
0.00012449327
1.4325811e-05
0.00017156637
0.0002227288
3.9829588e-05
0.0003895305
0.00031582514
8.7512118e-05
0.00067380732
0.00036886793
0.00014510028
0.00091698674
0.0003741365
0.00018518232
0.001024581
0.00019184542
0.00098671373
0.0003471945
2.846098e-06
1.2923075e-07
-3.875024e-07
1.643649e-05
1.2776746e-06
9.2036029e-06
5.1068967e-05
5.4235453e-06
5.2176864e-05
0.00011704145
1.8025445e-05
0.00016536706
0.00021037127
5.0168116e-05
0.00037622753
0.0003001875
0.00011086298
0.00065277472
0.00035282356
0.00018516709
0.00089151834
0.00035982334
0.00023775568
0.00099937603
0.000246978
0.00096487319
0.00033575415
2.6028888e-06
1.4762696e-07
-3.8103192e-07
1.5044314e-05
1.4650172e-06
8.6884333e-06
4.6815849e-05
6.2326879e-06
4.9460678e-05
0.00010763999
2.0730217e-05
0.00015713556
0.0001947884
5.7907079e-05
0.00035849825
0.0002805778
0.00012908417
0.00062456755
0.00033307485
0.00021780878
0.00085707711
0.00034304921
0.00028182818
0.00096495189
0.00029400586
0.00093465391
0.00032327745
2.3144048e-06
1.5260088e-07
-3.7282088e-07
1.3399665e-05
1.5469734e-06
8.0452052e-06
4.1803512e-05
6.6446497e-06
4.6073229e-05
9.6569576e-05
2.2217739e-05
0.00014687866
0.00017643788
6.2473384e-05
0.00033638577
0.00025761777
0.0001409396
0.00058920123
0.0003104128
0.0002410667
0.00081351379
0.00032464547
0.00031505292
0.00092090548
0.00033089038
0.0008953294
0.00031060959
1.9956363e-06
1.3903767e-07
-3.4601398e-07
1.1584352e-05
1.4959706e-06
7.3505259e-06
3.6269982e-05
6.5784973e-06
4.2202017e-05
8.4320357e-05
2.2299237e-05
0.00013493676
0.00015604547
6.3410706e-05
0.00031034902
0.00023220586
0.00014532525
0.00054705136
0.00028607244
0.00025287674
0.00076085786
0.00030570398
0.00033540113
0.00086681364
0.00035615297
0.00084596084
0.00029853974
1.6711957e-06
9.5783905e-08
-2.5935928e-07
9.7275232e-06
1.2623361e-06
6.7737329e-06
3.0564945e-05
5.9289894e-06
3.8226878e-05
7.1532454e-05
2.0844895e-05
0.00012194901
0.00013434727
6.0579992e-05
0.00028120824
0.00020482929
0.00014174164
0.00049879562
0.00025984402
0.00025214232
0.00069925014
0.00028619074
0.00034101254
0.00080202453
0.00036786026
0.00078535153
0.00028774098
1.3758194e-06
-1.1848943e-08
-1.3814069e-07
8.0054257e-06
7.1933412e-07
6.2568138e-06
2.5206279e-05
4.4326232e-06
3.4141069e-05
5.9388072e-05
1.7436621e-05
0.00010815095
0.00011333319
5.3577063e-05
0.00024966184
0.00017793588
0.00012980416
0.00044542405
0.00023405449
0.00023835856
0.00062946787
0.00026777792
0.0003311331
0.0007265757
0.00036465262
0.00071280057
0.00027959685
1.0835279e-06
-1.7716347e-07
9.4036084e-10
6.3220401e-06
-1.112659e-07
5.7542551e-06
2.0013088e-05
2.1209712e-06
2.99075e-05
4.764439e-05
1.2136538e-05
9.3611513e-05
9.2803755e-05
4.2656168e-05
0.00021592256
0.00015079091
0.00011038742
0.00038722993
0.00020748167
0.00021226845
0.00055129943
0.0002494192
0.00030535195
0.00063969633
0.00034494327
0.00062711835
0.00027361949
8.3700839e-07
-4.0993841e-07
1.6681032e-07
4.8858595e-06
-1.2541896e-06
5.3187823e-06
1.5493427e-05
-9.7499073e-07
2.5683272e-05
3.7133443e-05
5.267859e-06
7.8647463e-05
7.3739615e-05
2.8810267e-05
0.00018045026
0.00012449896
8.5327909e-05
0.00032446606
0.00018080851
0.00017593791
0.00046446858
0.00023045006
0.00026519687
0.0005404188
0.00030912852
0.0005270357
0.00026752419
6.4793138e-07
2.3940283e-07
-7.1411974e-07
3.6466798e-06
4.4899982e-06
-2.5812023e-06
1.1370729e-05
2.053626e-05
-4.3420567e-06
2.7306351e-05
6.1864191e-05
-2.0232976e-06
5.5610049e-05
0.00014157483
1.3950186e-05
9.8449555e-05
0.00025539775
5.7708798e-05
0.00015236914
0.00036701061
0.00013348134
0.0002074245
0.00042662027
0.00021460919
0.0004106716
0.00026362945
0.00025225215
-1.5977106e-07
9.2485311e-07
3.299689e-07
-8.5564749e-07
-7.8152849e-07
3.5579948e-06
4.9003324e-06
-3.3465672e-06
-1.80193e-06
6.9426059e-06
2.1440704e-05
-6.8266408e-06
-1.9150555e-06
7.8698984e-06
6.3151184e-05
-9.0437495e-06
2.5370709e-06
-1.617593e-06
0.00014270041
-3.9600318e-06
1.7059461e-05
-3.2233165e-05
0.00025584626
1.7262438e-05
4.4187462e-05
-8.4802686e-05
0.00036712507
5.7560353e-05
7.9287959e-05
-0.00014131159
0.00042751943
0.00010531189
-0.00017673269
0.00041245198
0.00014128152
0.00011295878
-1.4860448e-07
1.0166877e-06
2.2358313e-07
-6.1823127e-07
3.7812962e-06
5.5651407e-06
-1.0038799e-06
6.9288835e-06
2.6082719e-05
6.3411848e-07
6.2531324e-06
7.8626393e-05
8.6178216e-06
-7.9800735e-06
0.00017882938
2.7620082e-05
-4.7232555e-05
0.00032046349
5.7811115e-05
-0.00010979564
0.00045927063
9.2868429e-05
-0.0001726037
0.00053665381
-0.00020829398
0.00052575081
0.00012571472
-6.9380237e-08
1.0818738e-06
5.1447915e-09
-1.8624931e-07
3.9097909e-06
5.7426533e-06
3.8796647e-07
6.7348276e-06
2.9527358e-05
4.1924155e-06
4.4275598e-06
9.1632737e-05
1.5902411e-05
-1.4062444e-05
0.00021029519
3.904244e-05
-5.9989196e-05
0.0003768467
7.1409551e-05
-0.00012951188
0.0005386488
0.00010484331
-0.00019569423
0.00062935322
-0.00022982239
0.00062120101
0.00013228911
5.5586008e-08
1.0887094e-06
-2.0053111e-07
4.6698829e-07
3.8387938e-06
5.9164834e-06
2.3441537e-06
6.226274e-06
3.2772551e-05
8.7246334e-06
2.4822537e-06
0.00010371589
2.4289872e-05