/*--------------------------------*- C++ -*----------------------------------*\
| =========                 |                                                 |
| \\      /  F ield         | OpenFOAM: The Open Source CFD Toolbox           |
|  \\    /   O peration     | Version:  2406                                  |
|   \\  /    A nd           | Website:  www.openfoam.com                      |
|    \\/     M anipulation  |                                                 |
\*---------------------------------------------------------------------------*/
FoamFile
{
    version     2.0;
    format      ascii;
    arch        "LSB;label=32;scalar=64";
    class       volVectorField;
    location    "0.5";
    object      U;
}
// * * * * * * * * * * * * * * * * * * * * * * * * * * * * * * * * * * * * * //

dimensions      [0 1 -1 0 0 0 0];

internalField   nonuniform List<vector> 
34560
(
(0.036290953 0.0022269461 -0.0088012563)
(0.12216471 0.0076277934 -0.029823071)
(0.2360331 0.013949261 -0.056531032)
(0.3769485 0.021799827 -0.088279794)
(0.53707067 0.029765458 -0.12093382)
(0.7027555 0.036276188 -0.14854931)
(0.85449141 0.04001859 -0.16557557)
(0.97616186 0.040976622 -0.1696639)
(1.0615487 0.041536643 -0.16214674)
(0.045539166 0.0021148402 -0.010855016)
(0.1508074 0.0074285385 -0.036390136)
(0.2863815 0.013608202 -0.067826139)
(0.44790471 0.02142516 -0.10369291)
(0.62302916 0.029319206 -0.13850753)
(0.79516514 0.035648772 -0.16505476)
(0.94405417 0.039203294 -0.17790513)
(1.0567705 0.040248762 -0.17618545)
(1.1320017 0.040704375 -0.16174426)
(0.055056866 0.0021796215 -0.012567627)
(0.17967248 0.0076830949 -0.041946732)
(0.33596093 0.013907518 -0.077305164)
(0.51574335 0.02161129 -0.11644335)
(0.70236559 0.029097203 -0.1528759)
(0.87736932 0.034743038 -0.17833605)
(1.0209231 0.037559266 -0.18786807)
(1.1239442 0.037983807 -0.18203484)
(1.1896812 0.037457382 -0.16447967)
(0.065004574 0.0020973651 -0.014242177)
(0.20916769 0.0075357715 -0.047294927)
(0.38544313 0.013630806 -0.086213821)
(0.58160583 0.021097469 -0.12806881)
(0.77716694 0.028101209 -0.16558058)
(0.9527623 0.033065505 -0.18967094)
(1.089797 0.035252466 -0.19619389)
(1.1831948 0.03522333 -0.18722262)
(1.2401857 0.034184195 -0.16753325)
(0.074805789 0.00202011 -0.015732483)
(0.23785045 0.0073512376 -0.052080295)
(0.4328887 0.01324392 -0.094091937)
(0.64365628 0.02034476 -0.13818294)
(0.84627687 0.026750572 -0.17648856)
(1.0211958 0.031005606 -0.19923683)
(1.1514457 0.03264608 -0.20318479)
(1.2357118 0.032303282 -0.19173004)
(1.2847338 0.030924703 -0.17059597)
(0.08423063 0.0018935645 -0.017033102)
(0.26508333 0.006947926 -0.056280712)
(0.47734387 0.012479714 -0.10095713)
(0.70088292 0.019048208 -0.14690011)
(0.90898658 0.024772431 -0.18581865)
(1.0824492 0.028346868 -0.20733662)
(1.2061024 0.029538869 -0.20911843)
(1.2819421 0.028993853 -0.19567097)
(1.323856 0.027444902 -0.17351138)
(0.093112506 0.0017016454 -0.018181151)
(0.29038237 0.0063076849 -0.059967281)
(0.51806014 0.011323279 -0.10691387)
(0.75247186 0.017219655 -0.15436328)
(0.96467935 0.022202303 -0.19372825)
(1.1362048 0.025133064 -0.21413366)
(1.253715 0.025955534 -0.2141099)
(1.3220559 0.025287266 -0.1990835)
(1.3576768 0.023716275 -0.17616076)
(0.10095013 0.0014445708 -0.01914944)
(0.31253497 0.00542998 -0.063082869)
(0.55343487 0.009767722 -0.11191205)
(0.79687675 0.01484113 -0.1605743)
(1.0121806 0.019023088 -0.20028187)
(1.181737 0.021356277 -0.21974168)
(1.2938997 0.02189832 -0.21825437)
(1.3558827 0.021201666 -0.20199643)
(1.3861043 0.019747752 -0.1784726)
(0.10746054 0.0011523236 -0.019923072)
(0.3308398 0.0043883076 -0.06558755)
(0.58251779 0.0079111994 -0.11591629)
(0.83316499 0.012018739 -0.16552864)
(1.0507633 0.015336302 -0.20550447)
(1.2185605 0.017105072 -0.22420606)
(1.3263397 0.017440567 -0.22157679)
(1.3832005 0.016800873 -0.20438905)
(1.4090754 0.01557042 -0.18040303)
(0.11249609 0.00083967664 -0.020497537)
(0.34494358 0.0032166622 -0.067461837)
(0.60483423 0.0058021109 -0.11891145)
(0.86086506 0.0088117562 -0.16922763)
(1.0800538 0.011208862 -0.20940085)
(1.2463954 0.012447582 -0.22752998)
(1.3508041 0.012646723 -0.2240587)
(1.4037954 0.012144518 -0.20620976)
(1.4264086 0.011224302 -0.18188033)
(0.11611798 0.0004888123 -0.020906093)
(0.35491572 0.0019066458 -0.068766315)
(0.62037473 0.0034672963 -0.1209612)
(0.87987334 0.0053007413 -0.17172192)
(1.0999181 0.0067602106 -0.21198437)
(1.2650925 0.0075105753 -0.2297012)
(1.3671326 0.0076301621 -0.22566533)
(1.4174998 0.0073236445 -0.20739967)
(1.4379462 0.0067668523 -0.18285242)
(0.11778755 0.00016880864 -0.0210943)
(0.35960558 0.00067198647 -0.069389019)
(0.62780485 0.0012211455 -0.12194437)
(0.88908813 0.0018590596 -0.17292048)
(1.1096253 0.0023503715 -0.21323575)
(1.2742828 0.002585797 -0.23075704)
(1.375188 0.0026034696 -0.22644903)
(1.4242748 0.0024800038 -0.2079875)
(1.4436685 0.0022781963 -0.1833399)
(0.11778755 -0.00016882267 -0.021094312)
(0.35960559 -0.00067201548 -0.069389016)
(0.62780486 -0.001221242 -0.12194433)
(0.88908813 -0.0018591894 -0.17292047)
(1.1096253 -0.0023505331 -0.21323578)
(1.2742828 -0.0025859512 -0.23075707)
(1.3751879 -0.002603626 -0.22644903)
(1.4242748 -0.0024801775 -0.20798749)
(1.4436685 -0.0022783629 -0.18333991)
(0.11611799 -0.00048883223 -0.020906138)
(0.35491574 -0.0019066997 -0.06876635)
(0.62037475 -0.0034673573 -0.12096124)
(0.87987337 -0.0053007404 -0.17172199)
(1.0999181 -0.0067602407 -0.21198444)
(1.2650924 -0.0075106471 -0.22970126)
(1.3671326 -0.0076302855 -0.22566533)
(1.4174998 -0.0073238009 -0.20739963)
(1.4379463 -0.0067670772 -0.18285241)
(0.11249609 -0.00083967382 -0.02049761)
(0.34494359 -0.0032166645 -0.067461918)
(0.60483422 -0.0058020979 -0.11891169)
(0.86086509 -0.0088116851 -0.16922784)
(1.0800538 -0.01120883 -0.20940093)
(1.2463954 -0.012447608 -0.22753003)
(1.3508041 -0.012646838 -0.22405869)
(1.4037954 -0.012144647 -0.20620967)
(1.4264086 -0.011224523 -0.18188026)
(0.10746053 -0.0011522954 -0.019923114)
(0.33083977 -0.0043882432 -0.065587567)
(0.58251772 -0.007911156 -0.11591647)
(0.833165 -0.012018751 -0.16552878)
(1.0507633 -0.015336333 -0.20550454)
(1.2185606 -0.017105129 -0.2242061)
(1.3263398 -0.0174407 -0.22157676)
(1.3832006 -0.016800964 -0.20438894)
(1.4090754 -0.015570517 -0.18040293)
(0.10095013 -0.0014445442 -0.019149397)
(0.31253495 -0.0054299408 -0.063082793)
(0.55343485 -0.0097677101 -0.11191204)
(0.79687682 -0.014841207 -0.16057438)
(1.0121806 -0.019023176 -0.20028199)
(1.181737 -0.021356376 -0.2197417)
(1.2938997 -0.02189844 -0.21825433)
(1.3558828 -0.021201712 -0.20199636)
(1.3861044 -0.019747715 -0.17847255)
(0.093112513 -0.0017016077 -0.018181047)
(0.29038239 -0.006307671 -0.059967203)
(0.51806015 -0.011323252 -0.10691377)
(0.75247188 -0.017219674 -0.15436334)
(0.96467929 -0.022202413 -0.19372837)
(1.1362047 -0.025133168 -0.21413367)
(1.2537149 -0.025955597 -0.2141099)
(1.322056 -0.025287264 -0.19908349)
(1.357677 -0.023716217 -0.1761607)
(0.084230627 -0.0018935203 -0.017033111)
(0.26508332 -0.0069478701 -0.05628074)
(0.4773438 -0.012479697 -0.10095719)
(0.70088282 -0.019048227 -0.14690019)
(0.90898637 -0.024772511 -0.18581873)
(1.082449 -0.028346899 -0.20733674)
(1.2061023 -0.029538867 -0.20911852)
(1.2819421 -0.028993832 -0.19567095)
(1.3238561 -0.027444922 -0.17351119)
(0.074805781 -0.0020200565 -0.015732463)
(0.23785043 -0.0073511429 -0.052080233)
(0.43288865 -0.013243816 -0.094091903)
(0.6436562 -0.020344694 -0.13818303)
(0.8462768 -0.026750518 -0.17648891)
(1.0211957 -0.03100558 -0.1992371)
(1.1514457 -0.032645977 -0.20318484)
(1.2357117 -0.032303334 -0.19172981)
(1.2847338 -0.030924828 -0.17059563)
(0.065004573 -0.0020973277 -0.014242199)
(0.20916769 -0.0075357493 -0.047295082)
(0.38544311 -0.013630759 -0.08621408)
(0.58160577 -0.021097477 -0.12806918)
(0.77716689 -0.028101238 -0.1655809)
(0.95276222 -0.033065521 -0.18967102)
(1.0897969 -0.035252335 -0.19619374)
(1.1831947 -0.035223481 -0.18722197)
(1.2401857 -0.034184288 -0.16753284)
(0.055056861 -0.0021795795 -0.012567676)
(0.17967247 -0.0076830061 -0.041946839)
(0.3359609 -0.013907368 -0.077305224)
(0.51574326 -0.021611207 -0.11644336)
(0.70236547 -0.029097336 -0.15287592)
(0.8773693 -0.034743206 -0.1783361)
(1.0209231 -0.037559321 -0.18786749)
(1.1239442 -0.037983778 -0.18203397)
(1.1896813 -0.03745715 -0.16447968)
(0.045539169 -0.0021148261 -0.010855029)
(0.15080741 -0.0074285083 -0.03639013)
(0.28638151 -0.013608128 -0.067826057)
(0.44790471 -0.021425082 -0.10369281)
(0.62302915 -0.029319266 -0.13850744)
(0.79516521 -0.035649037 -0.16505434)
(0.94405431 -0.039203538 -0.17790423)
(1.0567706 -0.040248172 -0.1761852)
(1.1320018 -0.040703882 -0.16174434)
(0.036290961 -0.0022269537 -0.0088012402)
(0.12216474 -0.0076278341 -0.029823015)
(0.23603315 -0.013949308 -0.056530905)
(0.37694857 -0.021799834 -0.088279512)
(0.53707077 -0.029765392 -0.12093316)
(0.70275557 -0.036276228 -0.14854842)
(0.85449142 -0.040018706 -0.16557551)
(0.976162 -0.040976087 -0.16966388)
(1.0615487 -0.041536153 -0.16214657)
(0.0066733591 0.0019821207 0.0015971764)
(0.037374954 0.0055153721 0.0036514248)
(0.10129703 0.0085738425 0.0025082598)
(0.21193955 0.0094695683 -0.0046836725)
(0.37370381 0.0065088452 -0.01963603)
(0.56976607 -0.00070267377 -0.04117616)
(0.76672713 -0.010334362 -0.063317366)
(0.93368897 -0.019507815 -0.079774649)
(1.0525081 -0.02603302 -0.08917529)
(0.0087594184 0.0021142927 0.0014286449)
(0.047532211 0.0055957295 0.0028103302)
(0.12627108 0.0081353823 -1.9333709e-05)
(0.25857579 0.0078092144 -0.010273282)
(0.44410593 0.0030700998 -0.029044433)
(0.65631937 -0.0058179735 -0.053745325)
(0.8558133 -0.016201651 -0.076475245)
(1.0144356 -0.024946801 -0.090969251)
(1.1238037 -0.030327002 -0.096941831)
(0.010756756 0.0024334826 0.0013427264)
(0.057291503 0.0062534648 0.0022210552)
(0.15023584 0.0087476827 -0.002091912)
(0.3029196 0.0078100877 -0.01498203)
(0.50953121 0.0021640696 -0.036636453)
(0.73355359 -0.0072872651 -0.063229129)
(0.93129703 -0.017451327 -0.085547923)
(1.0794237 -0.025395791 -0.097861798)
(1.1789272 -0.029982508 -0.10099537)
(0.013143256 0.0025823876 0.0011101526)
(0.067998365 0.0065043097 0.001254438)
(0.17528535 0.0088675391 -0.0047090983)
(0.34762328 0.0074997924 -0.020183253)
(0.57320559 0.0014285564 -0.044214971)
(0.80608143 -0.0079654102 -0.071917238)
(0.99997088 -0.017440803 -0.093270163)
(1.1369213 -0.024484702 -0.10339761)
(1.2261837 -0.028528726 -0.1042155)
(0.01562056 0.0026085635 0.00082477139)
(0.078765525 0.0064642707 0.00018831093)
(0.19995045 0.008627039 -0.0073559047)
(0.39083629 0.0069682576 -0.025154254)
(0.63341656 0.00083793024 -0.051053604)
(0.87301428 -0.0080989946 -0.079321831)
(1.0625169 -0.016617443 -0.099786968)
(1.1887044 -0.022675471 -0.10810314)
(1.2677086 -0.026148505 -0.1071676)
(0.018132265 0.0025328434 0.00050085003)
(0.089344055 0.0061968546 -0.00093155808)
(0.22367028 0.0081166106 -0.0099229756)
(0.43163218 0.0063096546 -0.029696251)
(0.68901154 0.00043645358 -0.056917143)
(0.93375299 -0.0077267153 -0.085476284)
(1.1186348 -0.015162077 -0.10500325)
(1.2352472 -0.020165175 -0.11216905)
(1.304507 -0.023043442 -0.10997846)
(0.020716075 0.0023395812 0.00017271913)
(0.099708081 0.0056538768 -0.0020224136)
(0.24616649 0.0072748277 -0.012311422)
(0.46936502 0.0054466009 -0.033748698)
(0.73924898 8.8609421e-05 -0.061920474)
(0.98769885 -0.0070668064 -0.090599732)
(1.1680374 -0.013356227 -0.10929351)
(1.2763326 -0.017314014 -0.11567292)
(1.3369321 -0.019553499 -0.1126456)
(0.023055634 0.0020473757 -0.00013456253)
(0.10894506 0.004895826 -0.0030093988)
(0.26597884 0.0062010454 -0.014391219)
(0.50225744 0.004483205 -0.03716456)
(0.78251514 -0.00015706209 -0.065993006)
(1.0337021 -0.0061602379 -0.09468976)
(1.2099894 -0.011302072 -0.11269746)
(1.3112462 -0.014360461 -0.11833671)
(1.3647608 -0.01596244 -0.11499406)
(0.024998822 0.0016727317 -0.00040222071)
(0.11657594 0.0039659223 -0.0038457851)
(0.28228001 0.0049569664 -0.016098652)
(0.52922637 0.003472001 -0.039894567)
(0.8177816 -0.00029414857 -0.069152147)
(1.0709963 -0.0050477394 -0.097810539)
(1.2439379 -0.0090474387 -0.11527539)
(1.3395713 -0.011342366 -0.12034233)
(1.3874659 -0.012430987 -0.11678209)
(0.026498804 0.001242939 -0.00061522049)
(0.12245422 0.0029292393 -0.0044974666)
(0.29479978 0.0036229381 -0.017395579)
(0.54986453 0.0024754738 -0.041922816)
(0.84460212 -0.00030228309 -0.071440861)
(1.0991891 -0.0037432558 -0.10003531)
(1.2695201 -0.0066053168 -0.11708696)
(1.3609311 -0.0082216603 -0.12173508)
(1.4046069 -0.0089413355 -0.11791386)
(0.027742217 0.0007713635 -0.00076615982)
(0.12700254 0.0018119366 -0.0049553825)
(0.30401517 0.0022246256 -0.018294872)
(0.5644805 0.0015003037 -0.043294644)
(0.86304009 -0.00020102906 -0.072948836)
(1.1181924 -0.0022834409 -0.10146511)
(1.2865601 -0.0040059549 -0.11822201)
(1.375083 -0.0049776414 -0.12258264)
(1.4159519 -0.0054037174 -0.11856538)
(0.028208579 0.00024546074 -0.00083956101)
(0.12888736 0.00056696485 -0.0051741855)
(0.30809014 0.0006849811 -0.018717865)
(0.5712521 0.00042915471 -0.043941801)
(0.87184616 -0.00014054853 -0.073656272)
(1.1274078 -0.00082541178 -0.10213971)
(1.2948801 -0.001382835 -0.11875806)
(1.3820108 -0.0016880273 -0.12297744)
(1.4215227 -0.0018153151 -0.11885901)
(0.02820858 -0.00024544187 -0.00083955798)
(0.12888736 -0.00056691609 -0.0051741801)
(0.30809014 -0.0006849331 -0.01871785)
(0.5712521 -0.00042913513 -0.043941807)
(0.87184615 0.00014051372 -0.073656293)
(1.1274077 0.00082532425 -0.10213972)
(1.2948801 0.0013827108 -0.11875806)
(1.3820108 0.0016878879 -0.12297743)
(1.4215227 0.0018151976 -0.11885901)
(0.027742219 -0.00077134199 -0.00076616193)
(0.12700254 -0.0018118822 -0.0049553958)
(0.30401517 -0.0022245436 -0.018294885)
(0.5644805 -0.0015002086 -0.0432947)
(0.86304006 0.00020107548 -0.072948903)
(1.1181924 0.0022834198 -0.10146514)
(1.2865601 0.0040058801 -0.118222)
(1.375083 0.0049775372 -0.1225826)
(1.415952 0.0054036069 -0.11856535)
(0.026498805 -0.001242907 -0.00061524283)
(0.12245422 -0.0029291688 -0.0044975315)
(0.29479977 -0.0036228255 -0.017395699)
(0.54986453 -0.0024753309 -0.041922959)
(0.84460209 0.00030237761 -0.071440962)
(1.0991891 0.0037432769 -0.10003536)
(1.2695201 0.0066052797 -0.11708694)
(1.3609312 0.0082216076 -0.12173499)
(1.4046069 0.0089412728 -0.11791382)
(0.024998818 -0.0016726896 -0.00040224767)
(0.11657593 -0.0039658326 -0.0038458381)
(0.28227998 -0.0049568537 -0.0160988)
(0.52922635 -0.0034718929 -0.03989473)
(0.81778158 0.00029420542 -0.069152256)
(1.0709964 0.0050477406 -0.097810582)
(1.2439379 0.0090474039 -0.11527535)
(1.3395714 0.011342368 -0.12034223)
(1.3874659 0.012431012 -0.11678207)
(0.023055627 -0.0020473309 -0.00013456429)
(0.10894504 -0.0048957305 -0.0030094067)
(0.26597879 -0.0062009456 -0.014391321)
(0.5022574 -0.0044831492 -0.037164719)
(0.78251509 0.00015706007 -0.06599314)
(1.0337021 0.0061602049 -0.094689815)
(1.2099894 0.011302033 -0.11269743)
(1.3112462 0.014360503 -0.11833661)
(1.3647609 0.015962528 -0.11499408)
(0.02071607 -0.0023395374 0.00017273315)
(0.099708062 -0.0056537908 -0.00202243)
(0.24616644 -0.0072747246 -0.012311506)
(0.46936495 -0.0054465467 -0.033748883)
(0.73924886 -8.8633231e-05 -0.061920651)
(0.98769873 0.0070667612 -0.090599811)
(1.1680373 0.013356194 -0.10929348)
(1.2763326 0.017314068 -0.11567281)
(1.3369322 0.019553584 -0.11264556)
(0.018132261 -0.0025327928 0.00050083561)
(0.089344037 -0.006196767 -0.00093164561)
(0.22367022 -0.0081165002 -0.0099231251)
(0.43163208 -0.0063095889 -0.029696456)
(0.68901137 -0.00043645972 -0.056917337)
(0.93375284 0.0077266745 -0.085476376)
(1.1186347 0.015162053 -0.10500319)
(1.2352472 0.020165218 -0.11216885)
(1.3045071 0.02304352 -0.10997827)
(0.015620554 -0.0026085005 0.00082474738)
(0.078765507 -0.0064641591 0.00018821164)
(0.19995041 -0.0086268891 -0.0073560551)
(0.39083622 -0.0069681616 -0.025154473)
(0.63341646 -0.00083790634 -0.051053854)
(0.87301417 0.0080989818 -0.079321907)
(1.0625169 0.016617469 -0.099786838)
(1.1887043 0.022675503 -0.10810277)
(1.2677086 0.026148623 -0.1071673)
(0.013143255 -0.0025823299 0.0011101102)
(0.067998363 -0.0065042209 0.0012542782)
(0.17528534 -0.008867413 -0.0047093239)
(0.34762324 -0.0074997179 -0.020183534)
(0.57320551 -0.0014285629 -0.044215184)
(0.80608133 0.0079654216 -0.071917232)
(0.99997082 0.017440952 -0.093269892)
(1.1369212 0.024484901 -0.10339706)
(1.2261838 0.028528991 -0.1042151)
(0.010756754 -0.0024334301 0.0013426838)
(0.057291498 -0.0062533846 0.0022209224)
(0.15023582 -0.0087475516 -0.00209204)
(0.30291956 -0.0078099902 -0.014982146)
(0.50953113 -0.0021640959 -0.036636525)
(0.73355353 0.0072872556 -0.063229101)
(0.93129701 0.017451595 -0.085547598)
(1.0794238 0.025396387 -0.09786114)
(1.1789274 0.029982962 -0.10099478)
(0.0087594214 -0.0021142612 0.001428621)
(0.047532221 -0.0055956917 0.0028102677)
(0.1262711 -0.008135321 -1.9373346e-05)
(0.25857581 -0.0078091751 -0.010273318)
(0.44410593 -0.0030701502 -0.02904446)
(0.65631939 0.0058178501 -0.053745238)
(0.85581338 0.016201764 -0.076474843)
(1.0144358 0.02494761 -0.090968258)
(1.1238039 0.030327782 -0.096940886)
(0.0066733665 -0.0019821202 0.0015971783)
(0.037374978 -0.0055153917 0.0036514295)
(0.10129707 -0.0085738839 0.0025082784)
(0.2119396 -0.0094696441 -0.0046836096)
(0.37370387 -0.006508929 -0.019635787)
(0.56976613 0.00070261482 -0.04117573)
(0.76672718 0.01033454 -0.063316956)
(0.93368911 0.019508648 -0.079773534)
(1.0525083 0.026033794 -0.08917423)
(0.00012415579 0.00041810412 0.00033130655)
(0.015316652 0.0011562369 0.00069760862)
(0.059779335 0.0017895758 0.00017271832)
(0.14987424 0.001769243 -0.0022934599)
(0.29697399 -2.427513e-05 -0.0081285298)
(0.49515095 -0.0050486238 -0.018426283)
(0.71310715 -0.013714235 -0.032389653)
(0.90821224 -0.02383628 -0.046014777)
(1.0484478 -0.032224267 -0.055618748)
(-0.00045173766 0.000189451 9.0719821e-05)
(0.016755873 0.00041891519 -8.2213967e-05)
(0.068870721 0.00044780176 -0.0013819895)
(0.17396705 -0.00027277104 -0.0049999494)
(0.34196555 -0.0029661291 -0.012493864)
(0.56066379 -0.0091705515 -0.024876013)
(0.79012913 -0.018898821 -0.040510471)
(0.98481823 -0.02920644 -0.054421344)
(1.1206439 -0.036744862 -0.063212029)
(-0.0013974935 8.5891402e-05 -1.5010731e-05)
(0.016847695 5.1538292e-05 -0.00047070057)
(0.075164565 -0.00025170829 -0.0022857864)
(0.19317289 -0.0013564854 -0.0067853928)
(0.37919698 -0.0045132056 -0.015620137)
(0.61471333 -0.011223481 -0.029672805)
(0.85163112 -0.021085963 -0.046360128)
(1.0437168 -0.030847713 -0.060091237)
(1.1745579 -0.037498488 -0.067617183)
(-0.0021070833 -2.3260419e-06 -9.3038055e-05)
(0.017422651 -0.00024228998 -0.00076345662)
(0.081787737 -0.00077646459 -0.0030289641)
(0.21188063 -0.0021238371 -0.0083589791)
(0.41432375 -0.0055573022 -0.018482629)
(0.66407009 -0.012502251 -0.033977742)
(0.90590516 -0.02221309 -0.051345947)
(1.0940689 -0.031288977 -0.064605929)
(1.2192968 -0.03716146 -0.070859982)
(-0.0026724896 -4.2937091e-05 -0.00012969575)
(0.018221695 -0.0003860531 -0.00092759592)
(0.088357569 -0.0010367383 -0.0035557866)
(0.2297523 -0.0025058864 -0.0096408533)
(0.44735964 -0.0060685804 -0.020976543)
(0.70967967 -0.013018972 -0.037801941)
(0.95469896 -0.022378261 -0.055429509)
(1.1382886 -0.030677034 -0.068104993)
(1.2574273 -0.035708687 -0.073239783)
(-0.0030481126 -5.5247543e-05 -0.0001472613)
(0.019345059 -0.00042787282 -0.0010272537)
(0.094970207 -0.0011030892 -0.0039647804)
(0.24682395 -0.0025808809 -0.010732362)
(0.47828836 -0.0060922208 -0.023177756)
(0.75145539 -0.012764756 -0.041028215)
(0.99864873 -0.021475256 -0.05881214)
(1.1772984 -0.028945275 -0.070677668)
(1.2902263 -0.033184964 -0.074925375)
(-0.0031476704 -5.9027996e-05 -0.00015952155)
(0.020973173 -0.00042695584 -0.0011032835)
(0.10177621 -0.0010749996 -0.0043151536)
(0.26305728 -0.002475193 -0.01169359)
(0.50664489 -0.0057589192 -0.02507713)
(0.78887982 -0.011869072 -0.043683453)
(1.0374439 -0.019640248 -0.061471261)
(1.2112745 -0.02618736 -0.072529022)
(1.3182578 -0.029740822 -0.076079414)
(-0.0031668631 -5.4230626e-05 -0.00016681392)
(0.022531111 -0.00038618799 -0.0011558818)
(0.10781965 -0.00096290271 -0.0045953747)
(0.27717052 -0.002207986 -0.012488116)
(0.53105115 -0.0051069417 -0.026638351)
(0.8208047 -0.010412471 -0.045808924)
(1.0703478 -0.017019214 -0.063529497)
(1.2400706 -0.022503958 -0.07407327)
(1.3416331 -0.025463595 -0.07688929)
(-0.0031812666 -4.4634755e-05 -0.00017125443)
(0.023777329 -0.00031906359 -0.0011919195)
(0.11266609 -0.00079237628 -0.0048116232)
(0.28853492 -0.0018193368 -0.013115041)
(0.55076041 -0.0042032002 -0.027864498)
(0.84655162 -0.0085139434 -0.047448157)
(1.09685 -0.013794933 -0.065080677)
(1.2632856 -0.01811444 -0.075246832)
(1.3603448 -0.020457082 -0.077552325)
(-0.0031861489 -3.1069753e-05 -0.00017367781)
(0.024730957 -0.00023184033 -0.0012154155)
(0.1163386 -0.00057993766 -0.0049701955)
(0.29712785 -0.0013430013 -0.013582547)
(0.56564267 -0.0031137022 -0.028773456)
(0.86592076 -0.006289141 -0.048646738)
(1.1167289 -0.010131642 -0.066200419)
(1.2806924 -0.013230163 -0.076100478)
(1.3743588 -0.014905778 -0.078170246)
(-0.0030402357 -1.7027106e-05 -0.00017655728)
(0.025772205 -0.00013659099 -0.0012361189)
(0.1193812 -0.00034802491 -0.005090144)
(0.30349632 -0.0008183774 -0.01391774)
(0.57607034 -0.0019091865 -0.029400987)
(0.87907358 -0.0038519982 -0.049449537)
(1.1299878 -0.0061825482 -0.066936244)
(1.2921974 -0.0080421666 -0.076664279)
(1.3835753 -0.0090409112 -0.078614341)
(-0.0030710304 -9.2972477e-06 -0.00017756312)
(0.026004429 -5.6072873e-05 -0.0012438355)
(0.12046479 -0.00012987965 -0.0051419436)
(0.30618027 -0.00028723187 -0.014070691)
(0.58082913 -0.0006522501 -0.029695367)
(0.88530293 -0.0013038519 -0.049832115)
(1.1363747 -0.002083591 -0.067290336)
(1.2977819 -0.0027013012 -0.076941132)
(1.3880673 -0.0030293515 -0.07884251)
(-0.0030710306 9.3196362e-06 -0.00017756076)
(0.026004428 5.6118124e-05 -0.0012438356)
(0.12046479 0.00012993076 -0.0051419491)
(0.30618027 0.00028725626 -0.014070706)
(0.58082913 0.00065219749 -0.029695377)
(0.88530291 0.0013037139 -0.049832116)
(1.1363747 0.0020834127 -0.06729033)
(1.2977819 0.0027011512 -0.076941117)
(1.3880673 0.0030292756 -0.078842497)
(-0.0030402359 1.7052371e-05 -0.00017655424)
(0.025772203 0.00013664874 -0.0012361268)
(0.11938119 0.00034810177 -0.0050901643)
(0.30349631 0.00081843362 -0.013917779)
(0.57607032 0.0019091689 -0.029401016)
(0.87907355 0.0038519006 -0.049449542)
(1.1299877 0.0061824116 -0.066936222)
(1.2921974 0.0080420532 -0.076664229)
(1.3835753 0.0090408675 -0.078614303)
(-0.0031861503 3.1098383e-05 -0.00017368342)
(0.024730952 0.00023190664 -0.0012154577)
(0.11633859 0.00058003375 -0.0049702519)
(0.29712784 0.0013430854 -0.013582621)
(0.56564264 0.0031137184 -0.028773514)
(0.86592074 0.0062890821 -0.048646754)
(1.1167288 0.010131552 -0.066200378)
(1.2806924 0.013230104 -0.076100383)
(1.3743587 0.014905792 -0.078170182)
(-0.0031812697 4.4669672e-05 -0.00017126977)
(0.02377732 0.00031913782 -0.0011919866)
(0.11266607 0.0007924799 -0.004811717)
(0.2885349 0.0018194278 -0.013115158)
(0.55076038 0.0042032203 -0.027864586)
(0.84655161 0.0085138864 -0.047448181)
(1.09685 0.013794861 -0.065080616)
(1.2632856 0.018114433 -0.075246691)
(1.3603448 0.020457169 -0.077552234)
(-0.0031668683 5.4270417e-05 -0.00016683004)
(0.022531096 0.00038626969 -0.0011559545)
(0.10781963 0.0009630104 -0.004595491)
(0.27717048 0.0022080682 -0.012488265)
(0.5310511 0.0051069393 -0.026638456)
(0.82080466 0.010412388 -0.045808947)
(1.0703478 0.017019135 -0.063529416)
(1.2400706 0.022503994 -0.074073089)
(1.3416331 0.025463754 -0.07688916)
(-0.0031476763 5.9072816e-05 -0.00015954452)
(0.020973155 0.00042704043 -0.001103383)
(0.10177617 0.001075109 -0.0043152978)
(0.26305722 0.0024752586 -0.011693763)
(0.50664481 0.0057588869 -0.025077245)
(0.78887972 0.011868959 -0.043683473)
(1.0374438 0.019640158 -0.061471164)
(1.2112745 0.026187433 -0.072528796)
(1.3182578 0.029741033 -0.076079247)
(-0.0030481165 5.5301391e-05 -0.00014728307)
(0.019345045 0.00042796273 -0.0010273612)
(0.094970176 0.0011032098 -0.0039649228)
(0.24682389 0.0025809456 -0.010732539)
(0.47828827 0.006092171 -0.023177882)
(0.75145527 0.012764617 -0.041028227)
(0.99864864 0.021475155 -0.058812019)
(1.1772983 0.028945381 -0.070677376)
(1.2902263 0.033185228 -0.074925164)
(-0.0026724941 4.2996606e-05 -0.00012972427)
(0.018221681 0.00038614031 -0.00092772531)
(0.088357542 0.0010368596 -0.0035559478)
(0.22975225 0.0025059489 -0.0096410407)
(0.44735955 0.0060685171 -0.020976656)
(0.70967956 0.01301882 -0.037801917)
(0.95469886 0.022378157 -0.055429347)
(1.1382885 0.030677173 -0.068104607)
(1.2574273 0.035709025 -0.073239488)
(-0.0021070891 2.3843087e-06 -9.3070557e-05)
(0.017422633 0.00024236901 -0.00076358102)
(0.081787703 0.00077656684 -0.0030291148)
(0.21188057 0.0021238775 -0.0083591421)
(0.41432366 0.0055572223 -0.018482711)
(0.66406997 0.012502114 -0.033977682)
(0.90590507 0.022213024 -0.051345714)
(1.0940689 0.031289161 -0.064605398)
(1.2192969 0.037161901 -0.070859547)
(-0.0013975012 -8.5846955e-05 -1.5038734e-05)
(0.016847672 -5.1492086e-05 -0.0004708016)
(0.075164525 0.00025175857 -0.0022859088)
(0.19317283 0.0013564721 -0.0067855283)
(0.37919689 0.0045130974 -0.015620196)
(0.61471322 0.011223372 -0.029672691)
(0.85163104 0.02108602 -0.046359776)
(1.0437168 0.030848028 -0.060090521)
(1.174558 0.037498976 -0.067616518)
(-0.00045174511 -0.00018943634 9.0707631e-05)
(0.016755851 -0.00041893498 -8.2262317e-05)
(0.068870685 -0.00044785392 -0.0013820418)
(0.17396699 0.0002726416 -0.0049999948)
(0.34196546 0.0029659211 -0.01249382)
(0.56066368 0.0091703836 -0.024875785)
(0.79012905 0.018898928 -0.040509924)
(0.98481827 0.029206978 -0.05442031)
(1.1206441 0.036745634 -0.063211261)
(0.00012415261 -0.00041811559 0.00033131643)
(0.015316645 -0.0011562852 0.00069763748)
(0.059779326 -0.0017896715 0.00017276311)
(0.14987423 -0.0017694028 -0.0022933759)
(0.29697396 2.4060754e-05 -0.0081283407)
(0.49515092 0.0050484762 -0.018425877)
(0.71310714 0.013714375 -0.032388928)
(0.90821235 0.023836865 -0.04601355)
(1.048448 0.032224939 -0.055618096)
(0.0023712752 0.00059775878 0.00055274447)
(0.022248715 0.001660167 0.0015488634)
(0.071489058 0.0024426173 0.0023109492)
(0.16478238 0.002336889 0.0022849279)
(0.31173845 0.00052344786 0.0006062619)
(0.50641762 -0.0036491774 -0.0036658675)
(0.72044389 -0.0099523598 -0.010376396)
(0.91551272 -0.017064919 -0.017865538)
(1.0583891 -0.02330922 -0.02433236)
(0.0018103681 0.00062083985 0.00050496706)
(0.023487837 0.0016587906 0.0013774772)
(0.079540203 0.0022801535 0.001907631)
(0.18588261 0.0017529938 0.0014210618)
(0.35050257 -0.00085908333 -0.0011215352)
(0.56216682 -0.0061722544 -0.006686413)
(0.78595681 -0.01353556 -0.014624977)
(0.98125506 -0.021130459 -0.022870814)
(1.121963 -0.027090322 -0.029620283)
(0.00084759847 0.00067333885 0.00046988056)
(0.023221545 0.0017500175 0.0012417726)
(0.084390088 0.0022932544 0.001574366)
(0.20128077 0.0014748493 0.00071253648)
(0.38027347 -0.0016870589 -0.002540483)
(0.60496323 -0.0076037607 -0.008970435)
(0.8348744 -0.015345879 -0.017762316)
(1.028705 -0.022867001 -0.02649107)
(1.1666744 -0.028427597 -0.03308455)
(0.00010424142 0.00068878748 0.0004081512)
(0.023347074 0.0017527627 0.0010367066)
(0.089324396 0.0022031779 0.0011406665)
(0.21569048 0.0011502193 -0.00010105686)
(0.40713653 -0.0023632797 -0.0039265771)
(0.64245758 -0.0085647497 -0.011020138)
(0.87639909 -0.016367049 -0.020440081)
(1.0677439 -0.02363845 -0.029415936)
(1.2022815 -0.02880268 -0.035697845)
(-0.00051190996 0.00067143042 0.00033560866)
(0.023633609 0.0016776885 0.00081123508)
(0.094075611 0.0020259166 0.00070179973)
(0.22905982 0.00081113762 -0.00085623425)
(0.43151866 -0.0028501792 -0.0050897999)
(0.67596079 -0.0090788142 -0.012716394)
(0.91284283 -0.016695043 -0.022584336)
(1.1012302 -0.023549821 -0.031643175)
(1.2317198 -0.028200079 -0.03755962)
(-0.00095076629 0.00062860331 0.00025587405)
(0.024206153 0.0015465314 0.00057520112)
(0.098808164 0.0017984273 0.00027823924)
(0.24153373 0.00052188142 -0.0014939649)
(0.45369734 -0.0030953682 -0.0060158862)
(0.70598708 -0.0090885409 -0.014030366)
(0.94510705 -0.016260996 -0.024184514)
(1.1304126 -0.022543297 -0.033194866)
(1.2565477 -0.026624074 -0.038763627)
(-0.0011296176 0.00056438664 0.00018112862)
(0.025242859 0.0013683345 0.00035908802)
(0.10369384 0.0015361846 -9.0577145e-05)
(0.25317191 0.0002797382 -0.0020196377)
(0.47364659 -0.0031131488 -0.006742977)
(0.73250783 -0.0086208322 -0.015019365)
(0.97330943 -0.015101245 -0.025323693)
(1.1556794 -0.020670505 -0.034204221)
(1.2775258 -0.024166092 -0.039458751)
(-0.0012309128 0.00048447006 0.00011442969)
(0.026234671 0.0011606606 0.00017058193)
(0.10794895 0.0012660858 -0.00039781611)
(0.26306615 0.00011456758 -0.002434198)
(0.49045469 -0.0028904036 -0.0072862998)
(0.7547813 -0.0076936301 -0.015729648)
(0.99697452 -0.013271187 -0.02609728)
(1.1768609 -0.018001288 -0.03483764)
(1.2948569 -0.020907969 -0.039811179)
(-0.0013190528 0.00039143902 5.796036e-05)
(0.026989566 0.00093017664 1.4526675e-05)
(0.11126143 0.00099299606 -0.00064404279)
(0.27083243 2.0926832e-05 -0.0027491924)
(0.50372558 -0.0024574122 -0.0076764945)
(0.77245097 -0.0063749376 -0.01622022)
(1.0158159 -0.010878934 -0.026604512)
(1.193765 -0.014659876 -0.035220299)
(1.3085665 -0.016956137 -0.039981255)
(-0.0013840281 0.00028829716 1.3307094e-05)
(0.027553256 0.00068167246 -0.00010732968)
(0.1137271 0.00071782376 -0.00083131484)
(0.2766056 -1.6127736e-05 -0.0029784561)
(0.51358456 -0.0018602857 -0.0079467515)
(0.78557579 -0.0047533792 -0.016547969)
(1.0298112 -0.0080558311 -0.02692907)
(1.2063246 -0.010806214 -0.035449551)
(1.3186793 -0.012464251 -0.040077204)
(-0.0012817928 0.00017721563 -1.7774682e-05)
(0.028312488 0.00041754424 -0.00019202165)
(0.11591007 0.00043595854 -0.00096109923)
(0.28099982 -2.0019317e-05 -0.0031357749)
(0.52055544 -0.0011549912 -0.008127932)
(0.79450208 -0.002927341 -0.016759817)
(1.0391295 -0.0049413384 -0.027129448)
(1.2145871 -0.0066098269 -0.035585855)