/*--------------------------------*- C++ -*----------------------------------*\
| =========                 |                                                 |
| \\      /  F ield         | OpenFOAM: The Open Source CFD Toolbox           |
|  \\    /   O peration     | Version:  2406                                  |
|   \\  /    A nd           | Website:  www.openfoam.com                      |
|    \\/     M anipulation  |                                                 |
\*---------------------------------------------------------------------------*/
FoamFile
{
    version     2.0;
    format      ascii;
    arch        "LSB;label=32;scalar=64";
    class       volScalarField;
    location    "6";
    object      p;
}
// * * * * * * * * * * * * * * * * * * * * * * * * * * * * * * * * * * * * * //

dimensions      [0 2 -2 0 0 0 0];

internalField   nonuniform List<scalar> 
34560
(
-3.9230678
-3.9168879
-3.9100837
-3.9021833
-3.8906804
-3.8726662
-3.8486016
-3.822213
-3.8001991
-3.9627677
-3.9561556
-3.9489223
-3.9394552
-3.9241825
-3.9003159
-3.8701854
-3.8414019
-3.8206077
-3.9773771
-3.9711014
-3.9651127
-3.9575332
-3.9434059
-3.918895
-3.887556
-3.8580908
-3.8367852
-3.9851581
-3.9795916
-3.9750893
-3.9694546
-3.9570626
-3.9333365
-3.9018734
-3.8715421
-3.8494645
-3.9849844
-3.9803837
-3.9780163
-3.9751818
-3.9652175
-3.9429583
-3.911845
-3.8813444
-3.8586703
-3.9735554
-3.970522
-3.971079
-3.9723255
-3.9664657
-3.9470596
-3.9172563
-3.8871436
-3.8639171
-3.9556508
-3.9543169
-3.957945
-3.9634569
-3.9621576
-3.9462477
-3.9182545
-3.8888788
-3.864771
-3.9321751
-3.9327276
-3.939655
-3.9497451
-3.9533619
-3.9412847
-3.9152359
-3.8866857
-3.8613466
-3.9057245
-3.9082611
-3.91848
-3.9330874
-3.9416576
-3.9334847
-3.9090212
-3.8813405
-3.8545746
-3.879504
-3.8840059
-3.8972945
-3.9159828
-3.9289783
-3.9239473
-3.9018542
-3.8745656
-3.846112
-3.8577828
-3.864012
-3.8798085
-3.9016034
-3.9178058
-3.9153024
-3.8958903
-3.8679506
-3.8379622
-3.8457804
-3.8528802
-3.869944
-3.8933182
-3.9112012
-3.9101686
-3.8919507
-3.8634466
-3.8324854
-3.84578
-3.8528799
-3.8699438
-3.8933181
-3.9112012
-3.9101686
-3.8919506
-3.8634466
-3.8324857
-3.8577821
-3.8640115
-3.8798081
-3.9016031
-3.9178056
-3.9153022
-3.8958903
-3.8679507
-3.8379626
-3.8795029
-3.8840047
-3.8972933
-3.9159816
-3.9289773
-3.9239467
-3.9018541
-3.8745656
-3.8461118
-3.9057217
-3.9082583
-3.9184773
-3.9330849
-3.9416557
-3.9334835
-3.9090207
-3.88134
-3.8545735
-3.9321705
-3.9327232
-3.9396509
-3.9497415
-3.953359
-3.9412826
-3.9152346
-3.8866846
-3.861345
-3.9556455
-3.9543118
-3.9579403
-3.9634526
-3.9621538
-3.9462446
-3.9182522
-3.8888769
-3.8647693
-3.9735493
-3.9705161
-3.9710735
-3.9723207
-3.9664613
-3.9470557
-3.9172531
-3.8871411
-3.8639153
-3.9849775
-3.9803774
-3.9780107
-3.9751768
-3.9652128
-3.9429538
-3.911841
-3.8813411
-3.8586679
-3.9851519
-3.9795858
-3.9750841
-3.9694497
-3.9570578
-3.9333317
-3.901869
-3.8715382
-3.8494614
-3.9773712
-3.9710959
-3.9651076
-3.9575285
-3.9434013
-3.9188902
-3.8875516
-3.8580873
-3.836783
-3.9627625
-3.9561505
-3.9489176
-3.9394507
-3.9241783
-3.900312
-3.8701821
-3.8414002
-3.8206078
-3.9230639
-3.9168839
-3.9100797
-3.9021797
-3.8906774
-3.872664
-3.8486001
-3.822213
-3.8002017
-3.7232397
-3.7227178
-3.7225872
-3.7228649
-3.7229287
-3.7220276
-3.7201919
-3.7183655
-3.7167475
-3.7290501
-3.72831
-3.728082
-3.7283684
-3.7282813
-3.7267754
-3.7238069
-3.7203076
-3.7167245
-3.7297912
-3.7288885
-3.7287336
-3.7293163
-3.7294113
-3.7276275
-3.7239157
-3.7194118
-3.7146893
-3.7244853
-3.7234178
-3.7234078
-3.7244813
-3.7250626
-3.723365
-3.7193248
-3.7141039
-3.7083097
-3.7132085
-3.7119736
-3.712144
-3.7138087
-3.7150325
-3.7135834
-3.7092516
-3.7033643
-3.6967052
-3.6969757
-3.6954392
-3.6956523
-3.6978144
-3.6996144
-3.6983241
-3.6936428
-3.6871389
-3.6796999
-3.6760498
-3.6741788
-3.6743659
-3.6769365
-3.679216
-3.6779781
-3.6728252
-3.665707
-3.657648
-3.6520448
-3.6497825
-3.6498124
-3.6525961
-3.6551323
-3.6537372
-3.6479424
-3.6401246
-3.6316136
-3.6271183
-3.6244297
-3.6241724
-3.6269456
-3.6294667
-3.6276652
-3.621077
-3.6124571
-3.603636
-3.6042189
-3.6010859
-3.6004259
-3.6029689
-3.6052091
-3.6027897
-3.5953648
-3.5858871
-3.5768703
-3.5864669
-3.5829537
-3.5818942
-3.584114
-3.5859602
-3.582896
-3.5747399
-3.5644964
-3.5553624
-3.5764592
-3.5727854
-3.5715358
-3.5735787
-3.5751879
-3.5717396
-3.5631605
-3.5524633
-3.5432748
-3.5764592
-3.5727854
-3.5715357
-3.5735786
-3.5751878
-3.5717396
-3.5631605
-3.5524633
-3.543275
-3.5864667
-3.5829534
-3.5818939
-3.5841137
-3.5859599
-3.5828957
-3.5747397
-3.5644964
-3.5553629
-3.6042184
-3.6010853
-3.6004253
-3.6029683
-3.6052084
-3.6027891
-3.5953643
-3.5858871
-3.5768708
-3.6271172
-3.6244285
-3.6241713
-3.6269444
-3.6294655
-3.6276641
-3.6210762
-3.6124568
-3.6036364
-3.652043
-3.6497807
-3.6498106
-3.6525943
-3.6551306
-3.6537355
-3.6479412
-3.6401239
-3.6316137
-3.6760475
-3.6741764
-3.6743636
-3.6769342
-3.6792136
-3.6779759
-3.6728234
-3.6657059
-3.657648
-3.696973
-3.6954364
-3.6956495
-3.6978115
-3.6996115
-3.6983214
-3.6936404
-3.6871374
-3.6796998
-3.7132055
-3.7119705
-3.7121408
-3.7138054
-3.7150291
-3.7135801
-3.7092487
-3.7033623
-3.6967048
-3.724482
-3.7234144
-3.7234044
-3.7244778
-3.725059
-3.7233613
-3.7193215
-3.7141015
-3.7083086
-3.7297877
-3.7288849
-3.72873
-3.7293126
-3.7294074
-3.7276236
-3.723912
-3.7194088
-3.7146879
-3.7290465
-3.7283063
-3.7280782
-3.7283646
-3.7282774
-3.7267713
-3.7238028
-3.7203041
-3.7167233
-3.723236
-3.7227141
-3.7225834
-3.7228609
-3.7229248
-3.7220238
-3.7201881
-3.7183625
-3.7167465
-3.626161
-3.6261813
-3.6262117
-3.6262253
-3.6262074
-3.6261227
-3.6259314
-3.6255993
-3.6249269
-3.6292064
-3.6292476
-3.6292656
-3.6291835
-3.6289621
-3.6285551
-3.6279165
-3.6270553
-3.6259788
-3.6314153
-3.6314803
-3.6315315
-3.6314789
-3.6312536
-3.6307632
-3.6299249
-3.6287678
-3.6274311
-3.633243
-3.6333266
-3.6334005
-3.63337
-3.6331609
-3.6326528
-3.6317173
-3.6303624
-3.6287818
-3.634577
-3.6346743
-3.6347718
-3.6347758
-3.6346115
-3.6341334
-3.6331677
-3.6316873
-3.6299157
-3.6353735
-3.6354868
-3.6356127
-3.6356638
-3.6355711
-3.6351681
-3.6342346
-3.6327036
-3.6308082
-3.6357444
-3.635862
-3.6360036
-3.6360927
-3.6360732
-3.635767
-3.6349081
-3.6333867
-3.6314291
-3.635746
-3.6358609
-3.63601
-3.6361298
-3.6361805
-3.6359783
-3.6352172
-3.6337471
-3.6317747
-3.63549
-3.635597
-3.6357457
-3.635886
-3.6359951
-3.6358888
-3.635229
-3.6338284
-3.6318645
-3.6351086
-3.6352057
-3.6353491
-3.6355003
-3.6356514
-3.6356226
-3.6350493
-3.6337134
-3.631769
-3.6347471
-3.6348356
-3.6349717
-3.6351254
-3.6353008
-3.6353225
-3.6348089
-3.633518
-3.6316024
-3.6345187
-3.6346028
-3.6347349
-3.6348889
-3.6350768
-3.6351238
-3.6346407
-3.6333721
-3.6314766
-3.6345186
-3.6346027
-3.6347348
-3.6348887
-3.6350767
-3.6351237
-3.6346405
-3.6333721
-3.6314766
-3.6347467
-3.6348352
-3.6349712
-3.635125
-3.6353003
-3.635322
-3.6348085
-3.6335178
-3.6316025
-3.6351079
-3.635205
-3.6353483
-3.6354996
-3.6356506
-3.6356218
-3.6350486
-3.6337131
-3.6317691
-3.6354889
-3.6355959
-3.6357445
-3.6358848
-3.6359939
-3.6358875
-3.635228
-3.6338278
-3.6318647
-3.6357445
-3.6358593
-3.6360084
-3.6361282
-3.6361788
-3.6359765
-3.6352158
-3.6337463
-3.6317748
-3.6357424
-3.6358599
-3.6360014
-3.6360905
-3.6360708
-3.6357647
-3.6349061
-3.6333854
-3.631429
-3.6353708
-3.6354841
-3.6356098
-3.6356608
-3.6355679
-3.6351651
-3.6342319
-3.6327018
-3.6308078
-3.6345735
-3.6346708
-3.6347681
-3.6347719
-3.6346075
-3.6341295
-3.6331641
-3.6316847
-3.6299149
-3.6332387
-3.6333221
-3.6333958
-3.6333652
-3.633156
-3.6326479
-3.6317128
-3.6303592
-3.6287808
-3.6314101
-3.631475
-3.631526
-3.6314733
-3.6312478
-3.6307573
-3.6299195
-3.628764
-3.6274299
-3.6292004
-3.6292415
-3.6292594
-3.6291771
-3.6289555
-3.6285486
-3.6279105
-3.6270512
-3.6259775
-3.6261546
-3.6261748
-3.6262052
-3.6262187
-3.6262008
-3.6261162
-3.6259256
-3.625595
-3.6249248
-3.3289689
-3.3290471
-3.3291429
-3.3292633
-3.32938
-3.329412
-3.3292743
-3.3289505
-3.3284795
-3.3287538
-3.3288322
-3.3289245
-3.3290377
-3.3291334
-3.3291143
-3.3288808
-3.3283897
-3.3276874
-3.3285129
-3.3285879
-3.3286741
-3.3287796
-3.3288613
-3.3288147
-3.3285359
-3.3279792
-3.3272295
-3.3280459
-3.3281153
-3.3281959
-3.3282995
-3.3283797
-3.3283257
-3.3280284
-3.3274415
-3.3266447
-3.3273783
-3.3274414
-3.3275145
-3.3276138
-3.3276912
-3.3276315
-3.3273204
-3.3267146
-3.3258893
-3.3265745
-3.3266238
-3.3266817
-3.3267703
-3.3268415
-3.3267774
-3.3264592
-3.3258473
-3.3250178
-3.3256427
-3.3256773
-3.3257193
-3.3257982
-3.3258655
-3.3258021
-3.3254877
-3.3248885
-3.3240876
-3.3246647
-3.3246822
-3.3247053
-3.3247739
-3.3248374
-3.3247762
-3.3244715
-3.3238989
-3.323154
-3.3237242
-3.3237243
-3.3237286
-3.3237817
-3.3238436
-3.3237843
-3.323489
-3.3229326
-3.3221697
-3.3229168
-3.3228996
-3.3228854
-3.3229256
-3.3229779
-3.3229206
-3.3226311
-3.3220748
-3.3212259
-3.3223201
-3.3222891
-3.32226
-3.3222895
-3.3223347
-3.322278
-3.3219859
-3.3214004
-3.3205309
-3.3219948
-3.3219582
-3.3219229
-3.3219477
-3.3219898
-3.3219327
-3.3216317
-3.3210082
-3.3201669
-3.3219947
-3.3219581
-3.3219228
-3.3219476
-3.3219896
-3.3219325
-3.3216315
-3.3210081
-3.3201669
-3.3223198
-3.3222888
-3.3222596
-3.322289
-3.3223342
-3.3222775
-3.3219854
-3.3214001
-3.3205308
-3.3229162
-3.322899
-3.3228848
-3.3229248
-3.3229771
-3.3229198
-3.3226303
-3.3220742
-3.3212257
-3.3237233
-3.3237233
-3.3237275
-3.3237806
-3.3238424
-3.323783
-3.3234878
-3.3229317
-3.3221694
-3.3246633
-3.3246808
-3.3247038
-3.3247723
-3.3248356
-3.3247744
-3.3244698
-3.3238976
-3.3231533
-3.3256408
-3.3256753
-3.3257172
-3.3257959
-3.3258631
-3.3257996
-3.3254855
-3.3248866
-3.3240865
-3.326572
-3.3266212
-3.3266789
-3.3267673
-3.3268384
-3.3267743
-3.3264563
-3.3258449
-3.3250161
-3.327375
-3.327438
-3.327511
-3.3276101
-3.3276875
-3.3276277
-3.3273167
-3.3267115
-3.3258868
-3.3280419
-3.3281113
-3.3281917
-3.3282951
-3.3283753
-3.3283212
-3.328024
-3.3274376
-3.3266414
-3.3285083
-3.3285832
-3.3286694
-3.3287747
-3.3288563
-3.3288096
-3.3285309
-3.3279745
-3.3272252
-3.3287487
-3.3288271
-3.3289193
-3.3290325
-3.3291281
-3.3291089
-3.3288753
-3.3283842
-3.3276819
-3.3289635
-3.3290416
-3.3291374
-3.3292578
-3.3293745
-3.3294064
-3.3292685
-3.3289441
-3.3284729
-3.2554713
-3.2555086
-3.2555554
-3.2555945
-3.2556318
-3.2556854
-3.2557703
-3.255884
-3.2558861
-3.2556353
-3.2556785
-3.2557238
-3.2557434
-3.2557383
-3.2557254
-3.2557217
-3.2557318
-3.2556954
-3.25582
-3.2558643
-3.2559081
-3.255917
-3.2558901
-3.2558459
-3.255807
-3.2557892
-3.2557807
-3.2559754
-3.2560172
-3.2560565
-3.2560557
-3.2560144
-3.2559545
-3.2559026
-3.2558773
-3.2558794
-3.256099
-3.2561374
-3.2561712
-3.25616
-3.2561046
-3.2560309
-3.2559712
-3.2559435
-3.2559532
-3.2561969
-3.2562308
-3.2562581
-3.2562365
-3.2561678
-3.2560843
-3.2560214
-3.2559972
-3.2560134
-3.2562634
-3.2562927
-3.2563144
-3.2562836
-3.2562037
-3.2561143
-3.2560538
-3.2560355
-3.2560465
-3.256305
-3.2563301
-3.2563467
-3.2563062
-3.2562197
-3.2561277
-3.2560734
-3.2560581
-3.2560512
-3.2563273
-3.2563484
-3.2563591
-3.256313
-3.2562216
-3.2561314
-3.2560881
-3.2560929
-3.2561654
-3.2563385
-3.2563557
-3.2563616
-3.2563112
-3.2562174
-3.256132
-3.2561036
-3.2561513
-3.2563826
-3.2563448
-3.256359
-3.2563613
-3.2563076
-3.2562129
-3.2561334
-3.2561242
-3.2562441
-3.2565457
-3.256344
-3.256357
-3.2563581
-3.2563035
-3.2562095
-3.256135
-3.2561451
-3.2563295
-3.2566278
-3.2563439
-3.2563569
-3.2563579
-3.2563033
-3.2562093
-3.2561348
-3.256145
-3.2563294
-3.2566278
-3.2563445
-3.2563586
-3.2563609
-3.2563071
-3.2562124
-3.2561328
-3.2561238
-3.2562438
-3.2565456
-3.2563379
-3.2563551
-3.2563609
-3.2563104
-3.2562165
-3.2561311
-3.2561027
-3.2561507
-3.2563825
-3.2563265
-3.2563474
-3.256358
-3.2563118
-3.2562203
-3.25613
-3.2560868
-3.2560919
-3.256165
-3.2563037
-3.2563287
-3.2563451
-3.2563045
-3.2562178
-3.2561258
-3.2560716
-3.2560567
-3.2560503
-3.2562616
-3.2562908
-3.2563124
-3.2562813
-3.2562013
-3.2561118
-3.2560514
-3.2560334
-3.256045
-3.2561945
-3.2562283
-3.2562555
-3.2562335
-3.2561647
-3.2560811
-3.2560184
-3.2559945
-3.2560111
-3.2560958
-3.2561342
-3.2561678
-3.2561564
-3.2561009
-3.256027
-3.2559675
-3.25594
-3.2559497
-3.2559714
-3.2560131
-3.2560523
-3.2560514
-3.25601
-3.25595
-3.2558983
-3.2558728
-3.2558743
-3.2558151
-3.2558594
-3.2559031
-3.2559119
-3.255885
-3.2558409
-3.2558017
-3.2557832
-3.2557735
-3.2556297
-3.2556728
-3.2557182
-3.2557377
-3.2557325
-3.2557195
-3.2557151
-3.2557237
-3.2556856
-3.2554651
-3.2555024
-3.2555491
-3.2555882
-3.2556251
-3.255678
-3.2557617
-3.2558734
-3.2558744
-3.0313146
-3.0313233
-3.0313426
-3.0313877
-3.0314537
-3.0315151
-3.0315401
-3.0315164
-3.0314518
-3.0313497
-3.0313573
-3.0313749
-3.0314179
-3.0314774
-3.0315206
-3.0315082
-3.0314206
-3.0312791
-3.0314306
-3.0314351
-3.0314493
-3.0314899
-3.0315464
-3.0315825
-3.0315558
-3.0314466
-3.0312898
-3.0315005
-3.0315013
-3.0315115
-3.0315497
-3.0316043
-3.0316366
-3.0316012
-3.0314789
-3.0312997
-3.031559
-3.0315563
-3.0315622
-3.0315965
-3.031647
-3.0316732
-3.0316279
-3.0314932
-3.0312975
-3.0316063
-3.0316002
-3.0316017
-3.0316319
-3.0316775
-3.0316969
-3.031643
-3.0315002
-3.0312974
-3.031636
-3.0316269
-3.0316245
-3.0316514
-3.0316924
-3.0317058
-3.0316456
-3.0314979
-3.0312893
-3.0316512
-3.0316399
-3.0316344
-3.0316576
-3.0316943
-3.0317015
-3.0316347
-3.0314766
-3.0312056
-3.0316536
-3.0316408
-3.031633
-3.0316524
-3.0316853
-3.0316849
-3.0316073
-3.0313986
-3.0310516
-3.0316476
-3.0316339
-3.0316242
-3.0316407
-3.031668
-3.031656
-3.0315479
-3.0312868
-3.0309188
-3.0316384
-3.031624
-3.031613
-3.0316273
-3.0316488
-3.0316236
-3.0314838
-3.0312048
-3.030827
-3.0316316
-3.0316169
-3.0316055
-3.0316186
-3.0316369
-3.0316052
-3.0314519
-3.0311636
-3.0307802
-3.0316316
-3.0316169
-3.0316054
-3.0316185
-3.0316368
-3.0316051
-3.0314518
-3.0311636
-3.0307803
-3.0316383
-3.0316238
-3.0316128
-3.031627
-3.0316484
-3.0316232
-3.0314835
-3.0312047
-3.0308273
-3.0316473
-3.0316335
-3.0316238
-3.0316401
-3.0316674
-3.0316553
-3.0315473
-3.0312866
-3.0309191
-3.0316531
-3.0316402
-3.0316322
-3.0316515
-3.0316842
-3.0316838
-3.0316063
-3.0313982
-3.031052
-3.0316503
-3.0316389
-3.0316332
-3.0316562
-3.0316927
-3.0316999
-3.0316334
-3.0314759
-3.0312058
-3.0316345
-3.0316252
-3.0316227
-3.0316492
-3.0316901
-3.0317035
-3.0316437
-3.0314968
-3.0312892
-3.0316041
-3.0315977
-3.031599
-3.0316289
-3.0316743
-3.0316937
-3.0316403
-3.0314985
-3.0312969
-3.0315556
-3.0315527
-3.0315583
-3.0315924
-3.0316427
-3.031669
-3.0316243
-3.0314907
-3.0312961
-3.0314957
-3.0314963
-3.0315062
-3.0315442
-3.0315987
-3.0316312
-3.0315965
-3.0314753
-3.0312973
-3.0314242
-3.0314286
-3.0314425
-3.0314829
-3.0315394
-3.0315758
-3.0315496
-3.0314414
-3.0312859
-3.0313417
-3.0313492
-3.0313666
-3.0314096
-3.031469
-3.0315122
-3.0315001
-3.0314134
-3.0312734
-3.0313055
-3.0313141
-3.0313334
-3.0313784
-3.0314442
-3.0315053
-3.0315302
-3.0315068
-3.031444
-2.9005197
-2.9005341
-2.9005505
-2.9005616
-2.9005692
-2.9005803
-2.900602
-2.9006333
-2.9006321
-2.9004673
-2.9004834
-2.9005
-2.9005073
-2.9005066
-2.9005043
-2.9005061
-2.900512
-2.9005013
-2.9004458
-2.9004615
-2.9004764
-2.9004792
-2.9004715
-2.9004615
-2.9004577
-2.9004637
-2.9004714
-2.9004234
-2.9004373
-2.9004497
-2.9004485
-2.9004358
-2.9004222
-2.9004188
-2.9004306
-2.9004509
-2.9004036
-2.9004155
-2.9004248
-2.9004188
-2.9004005
-2.900383
-2.9003803
-2.9003973
-2.9004263
-2.9003919
-2.900401
-2.9004065
-2.9003952
-2.9003706
-2.9003494
-2.900347
-2.9003668
-2.9003988
-2.9003853
-2.9003916
-2.9003935
-2.9003767
-2.9003475
-2.900323
-2.9003204
-2.9003425
-2.9003805
-2.9003863
-2.9003896
-2.9003874
-2.9003663
-2.9003329
-2.9003064
-2.9003055
-2.9003399
-2.9004467
-2.9003945
-2.9003947
-2.9003888
-2.9003639
-2.9003278
-2.9003021
-2.9003097
-2.9004014
-2.9005842
-2.9004074
-2.9004049
-2.9003959
-2.9003685
-2.900332
-2.9003129
-2.9003515
-2.900499
-2.9006979
-2.9004202
-2.9004158
-2.9004047
-2.9003759
-2.9003405
-2.9003317
-2.9004036
-2.9005675
-2.9007736
-2.9004268
-2.9004216
-2.9004097
-2.9003803
-2.9003458
-2.9003423
-2.9004287
-2.9006004
-2.9008118
-2.9004269
-2.9004216
-2.9004097
-2.9003803
-2.9003458
-2.9003422
-2.9004286
-2.9006005
-2.9008121
-2.9004203
-2.9004158
-2.9004047
-2.9003758
-2.9003403
-2.9003316
-2.9004035
-2.9005677
-2.9007743
-2.9004075
-2.9004049
-2.9003958
-2.9003682
-2.9003316
-2.9003125
-2.9003513
-2.9004992
-2.9006989
-2.9003944
-2.9003945
-2.9003884
-2.9003633
-2.9003271
-2.9003013
-2.9003093
-2.9004016
-2.9005854
-2.9003858
-2.9003889
-2.9003865
-2.9003652
-2.9003316
-2.9003052
-2.9003046
-2.90034
-2.900448
-2.9003841
-2.9003902
-2.9003919
-2.9003748
-2.9003454
-2.900321
-2.900319
-2.9003423
-2.9003818
-2.9003897
-2.9003986
-2.9004038
-2.9003922
-2.9003674
-2.9003464
-2.9003447
-2.9003661
-2.9004
-2.9004
-2.9004117
-2.9004207
-2.9004143
-2.9003958
-2.9003786
-2.9003769
-2.9003958
-2.900427
-2.9004179
-2.9004316
-2.9004437
-2.9004422
-2.9004295
-2.9004162
-2.9004139
-2.9004279
-2.9004509
-2.9004383
-2.9004538
-2.9004685
-2.900471
-2.9004632
-2.9004535
-2.9004509
-2.9004591
-2.9004701
-2.9004578
-2.9004738
-2.9004902
-2.9004974
-2.9004966
-2.9004945
-2.9004971
-2.9005052
-2.900498
-2.9005088
-2.9005232
-2.9005395
-2.9005505
-2.9005582
-2.9005694
-2.9005912
-2.9006238
-2.9006259
-2.7166678
-2.7166674
-2.7166703
-2.716682
-2.7167015
-2.7167216
-2.7167329
-2.7167316
-2.7167177
-2.7167047
-2.7167039
-2.7167062
-2.716717
-2.716734
-2.7167476
-2.7167459
-2.7167226
-2.7166835
-2.7167519
-2.7167502
-2.7167515
-2.7167616
-2.7167777
-2.7167888
-2.7167819
-2.716751
-2.7167047
-2.7167958
-2.7167929
-2.716793
-2.7168024
-2.7168177
-2.7168272
-2.716817
-2.7167811
-2.7167263
-2.7168354
-2.7168314
-2.7168301
-2.7168384
-2.7168523
-2.7168595
-2.716846
-2.7168058
-2.7167455
-2.7168691
-2.7168643
-2.716862
-2.7168688
-2.7168811
-2.716886
-2.7168697
-2.716827
-2.716764
-2.7168947
-2.7168893
-2.7168862
-2.7168918
-2.7169023
-2.7169048
-2.7168859
-2.7168388
-2.7167567
-2.7169123
-2.7169066
-2.7169028
-2.7169073
-2.7169156
-2.7169148
-2.716891
-2.7168253
-2.7167174
-2.7169225
-2.7169167
-2.7169125
-2.7169157
-2.7169215
-2.7169154
-2.7168797
-2.7167929
-2.7166747
-2.7169277
-2.7169219
-2.7169172
-2.7169193
-2.7169224
-2.7169107
-2.7168612
-2.7167652
-2.7166414
-2.7169296
-2.7169238
-2.7169188
-2.7169199
-2.7169206
-2.7169041
-2.7168474
-2.7167458
-2.7166186
-2.7169298
-2.7169241
-2.7169189
-2.7169194
-2.7169186
-2.7168987
-2.7168397
-2.7167357
-2.7166072
-2.71693
-2.7169242
-2.716919
-2.7169195
-2.7169186
-2.7168987
-2.7168397
-2.7167359
-2.7166075
-2.7169298
-2.716924
-2.7169189
-2.7169199
-2.7169206
-2.716904
-2.7168474
-2.7167462
-2.7166195
-2.716928
-2.7169221
-2.7169173
-2.7169192
-2.7169221
-2.7169105
-2.7168612
-2.7167657
-2.7166428
-2.7169228
-2.7169168
-2.7169123
-2.7169154
-2.7169209
-2.7169149
-2.7168795
-2.7167935
-2.7166766
-2.7169122
-2.7169063
-2.7169022
-2.7169064
-2.7169145
-2.7169138
-2.7168904
-2.7168258
-2.7167194
-2.7168939
-2.7168883
-2.7168848
-2.7168902
-2.7169004
-2.716903
-2.7168847
-2.716839
-2.7167587
-2.7168672
-2.7168622
-2.7168595
-2.716866
-2.7168781
-2.7168832
-2.7168677
-2.7168266
-2.7167656
-2.716832
-2.7168278
-2.7168261
-2.7168341
-2.7168477
-2.7168552
-2.7168428
-2.7168044
-2.7167463
-2.7167905
-2.7167873
-2.7167871
-2.7167962
-2.7168114
-2.7168212
-2.7168121
-2.7167781
-2.7167257
-2.7167445
-2.7167425
-2.7167435
-2.7167534
-2.7167694
-2.7167808
-2.7167749
-2.7167458
-2.7167019
-2.7166951
-2.7166942
-2.7166963
-2.7167069
-2.7167239
-2.7167375
-2.7167363
-2.7167143
-2.7166778
-2.7166568
-2.7166564
-2.7166592
-2.7166708
-2.7166902
-2.7167099
-2.7167209
-2.7167198
-2.7167083
-2.5614264
-2.5614304
-2.5614346
-2.561437
-2.561438
-2.5614402
-2.5614461
-2.5614573
-2.5614614
-2.5614085
-2.5614129
-2.5614172
-2.5614185
-2.5614173
-2.5614163
-2.5614179
-2.5614231
-2.5614243
-2.5613981
-2.5614023
-2.5614059
-2.5614057
-2.5614027
-2.5613999
-2.561401
-2.5614074
-2.5614149
-2.5613875
-2.5613912
-2.561394
-2.5613925
-2.561388
-2.5613845
-2.5613863
-2.561395
-2.5614065
-2.5613787
-2.5613817
-2.5613835
-2.5613806
-2.5613744
-2.5613699
-2.5613721
-2.5613819
-2.5613952
-2.5613735
-2.5613757
-2.5613763
-2.5613718
-2.561364
-2.5613585
-2.5613605
-2.5613705
-2.5613841
-2.5613716
-2.5613729
-2.5613725
-2.5613665
-2.5613574
-2.5613513
-2.561354
-2.5613672
-2.5613988
-2.5613736
-2.561374
-2.5613724
-2.5613652
-2.5613554
-2.5613502
-2.5613565
-2.561388
-2.5614437
-2.5613786
-2.5613781
-2.5613755
-2.5613676
-2.5613581
-2.561356
-2.5613735
-2.5614245
-2.5614898
-2.5613848
-2.5613836
-2.5613802
-2.5613719
-2.5613631
-2.5613652
-2.5613959
-2.5614546
-2.5615249
-2.5613906
-2.5613888
-2.561385
-2.5613765
-2.5613688
-2.5613746
-2.5614115
-2.5614748
-2.5615481
-2.5613939
-2.561392
-2.5613879
-2.5613795
-2.5613727
-2.5613814
-2.5614197
-2.5614851
-2.5615596
-2.5613941
-2.5613921
-2.561388
-2.5613796
-2.5613727
-2.5613814
-2.5614197
-2.5614852
-2.56156
-2.5613909
-2.5613891
-2.5613852
-2.5613766
-2.5613687
-2.5613745
-2.5614115
-2.5614752
-2.561549
-2.5613853
-2.5613839
-2.5613804
-2.5613719
-2.5613629
-2.561365
-2.5613959
-2.5614552
-2.5615264
-2.561379
-2.5613783
-2.5613755
-2.5613674
-2.5613576
-2.5613555
-2.5613733
-2.5614252
-2.5614917
-2.5613736
-2.5613738
-2.5613719
-2.5613645
-2.5613544
-2.5613492
-2.5613559
-2.5613885
-2.5614458
-2.561371
-2.5613721
-2.5613713
-2.5613649
-2.5613556
-2.5613496
-2.5613529
-2.5613674
-2.5614008
-2.5613719
-2.5613738
-2.5613741
-2.5613691
-2.5613611
-2.5613557
-2.5613585
-2.56137
-2.5613857
-2.5613757
-2.5613784
-2.5613799
-2.5613765
-2.5613702
-2.5613659
-2.5613689
-2.5613804
-2.5613959
-2.5613828
-2.5613861
-2.5613886
-2.5613868
-2.5613822
-2.5613789
-2.5613817
-2.561392
-2.5614058
-2.5613913
-2.5613953
-2.5613986
-2.5613982
-2.5613951
-2.5613926
-2.5613946
-2.5614024
-2.5614121
-2.5613999
-2.5614042
-2.5614082
-2.5614094
-2.5614082
-2.5614073
-2.5614094
-2.5614155
-2.5614189
-2.5614165
-2.5614205
-2.5614247
-2.5614269
-2.5614279
-2.5614299
-2.5614355
-2.5614469
-2.5614529
-2.3916161
-2.3916157
-2.3916162
-2.3916189
-2.3916238
-2.3916289
-2.3916319
-2.3916306
-2.3916221
-2.3916251
-2.3916245
-2.3916248
-2.3916273
-2.3916312
-2.391634
-2.3916322
-2.3916234
-2.391607
-2.391637
-2.3916362
-2.3916361
-2.3916383
-2.3916417
-2.3916431
-2.391639
-2.3916268
-2.3916073
-2.3916481
-2.3916469
-2.3916465
-2.3916483
-2.3916512
-2.3916519
-2.3916461
-2.3916313
-2.3916079
-2.3916579
-2.3916564
-2.3916556
-2.391657
-2.3916594
-2.3916592
-2.3916521
-2.3916348
-2.3916076
-2.3916662
-2.3916645
-2.3916633
-2.3916642
-2.3916661
-2.3916652
-2.391657
-2.3916366
-2.3916052
-2.3916724
-2.3916704
-2.3916689
-2.3916694
-2.3916706
-2.3916689
-2.3916585
-2.3916346
-2.3915995
-2.3916764
-2.3916742
-2.3916724
-2.3916724
-2.3916727
-2.3916695
-2.3916562
-2.3916293
-2.3915919
-2.3916787
-2.3916764
-2.3916743
-2.3916739
-2.3916733
-2.3916683
-2.3916529
-2.391624
-2.391585
-2.39168
-2.3916776
-2.3916753
-2.3916744
-2.3916732
-2.3916673
-2.3916503
-2.3916198
-2.3915794
-2.3916807
-2.3916782
-2.3916757
-2.3916745
-2.3916728
-2.3916664
-2.3916485
-2.3916167
-2.3915756
-2.391681
-2.3916785
-2.3916759
-2.3916745
-2.3916725
-2.3916659
-2.3916475
-2.3916151
-2.3915738
-2.3916812
-2.3916786
-2.391676
-2.3916745
-2.3916725
-2.3916659
-2.3916475
-2.3916153
-2.3915741
-2.391681
-2.3916785
-2.3916759
-2.3916745
-2.3916727
-2.3916664
-2.3916485
-2.3916171
-2.3915765
-2.3916805
-2.3916779
-2.3916755
-2.3916744
-2.391673
-2.3916671
-2.3916503
-2.3916203
-2.3915809
-2.3916791
-2.3916767
-2.3916744
-2.3916736
-2.3916728
-2.3916678
-2.3916528
-2.3916247
-2.3915868
-2.3916764
-2.3916741
-2.391672
-2.3916717
-2.3916718
-2.3916686
-2.3916557
-2.3916298
-2.3915939
-2.3916718
-2.3916696
-2.3916678
-2.3916679
-2.3916689
-2.3916672
-2.3916574
-2.3916348
-2.3916014
-2.3916647
-2.3916626
-2.3916611
-2.3916617
-2.3916633
-2.3916625
-2.391655
-2.3916361
-2.3916068
-2.391655
-2.3916532
-2.391652
-2.3916531
-2.3916552
-2.3916552
-2.391649
-2.3916333
-2.3916084
-2.3916434
-2.391642
-2.3916412
-2.3916427
-2.3916455
-2.3916464
-2.3916415
-2.3916285
-2.3916075
-2.3916304
-2.3916294
-2.391629
-2.391631
-2.3916342
-2.391636
-2.3916327
-2.3916221
-2.3916051
-2.3916167
-2.391616
-2.3916161
-2.3916184
-2.3916223
-2.3916252
-2.3916241
-2.3916164
-2.3916024
-2.3916065
-2.3916061
-2.3916065
-2.3916092
-2.3916139
-2.3916189
-2.3916219
-2.391621
-2.3916146
-2.2287787
-2.2287797
-2.2287808
-2.2287814
-2.2287818
-2.2287825
-2.2287843
-2.2287874
-2.2287884
-2.2287699
-2.2287711
-2.2287723
-2.2287728
-2.2287727
-2.2287726
-2.2287731
-2.2287743
-2.2287739
-2.2287626
-2.2287638
-2.2287648
-2.228765
-2.2287644
-2.228764
-2.2287645
-2.2287659
-2.2287673
-2.2287552
-2.2287563
-2.2287571
-2.2287569
-2.228756
-2.2287554
-2.228756
-2.2287582
-2.2287612
-2.2287486
-2.2287494
-2.2287499
-2.2287494
-2.228748
-2.2287469
-2.2287474
-2.2287503
-2.228755
-2.2287432
-2.2287439
-2.228744
-2.228743
-2.228741
-2.2287394
-2.2287395
-2.2287437
-2.2287505
-2.2287393
-2.2287397
-2.2287396
-2.2287381
-2.2287357
-2.2287337
-2.2287347
-2.2287404
-2.2287484
-2.228737
-2.2287372
-2.2287368
-2.228735
-2.2287326
-2.228731
-2.2287333
-2.2287392
-2.2287475
-2.2287358
-2.2287358
-2.2287352
-2.2287333
-2.2287309
-2.22873
-2.2287323
-2.2287379
-2.2287463
-2.2287353
-2.2287352
-2.2287344
-2.2287324
-2.2287299
-2.2287288
-2.2287307
-2.2287363
-2.2287451
-2.2287352
-2.228735
-2.2287341
-2.228732
-2.2287295
-2.228728
-2.2287294
-2.228735
-2.2287442
-2.2287351
-2.2287348
-2.2287339
-2.2287318
-2.2287292
-2.2287275
-2.2287286
-2.2287343
-2.2287438
-2.2287353
-2.228735
-2.228734
-2.2287318
-2.2287292
-2.2287275
-2.2287287
-2.2287345
-2.2287441
-2.2287355
-2.2287352
-2.2287343
-2.2287321
-2.2287295
-2.2287279
-2.2287294
-2.2287354
-2.2287451
-2.2287358
-2.2287355
-2.2287346
-2.2287325
-2.2287298
-2.2287287
-2.2287308
-2.2287369
-2.2287465
-2.2287361
-2.228736
-2.2287352
-2.2287331
-2.2287305
-2.2287296
-2.2287321
-2.2287385
-2.228748
-2.2287371
-2.2287371
-2.2287364
-2.2287344
-2.2287318
-2.2287302
-2.2287328
-2.2287397
-2.2287494
-2.2287388
-2.228739
-2.2287385
-2.2287367
-2.2287341
-2.2287321
-2.2287338
-2.2287406
-2.2287503
-2.2287418
-2.2287422
-2.228742
-2.2287406
-2.2287384
-2.2287369
-2.2287378
-2.2287434
-2.228752
-2.2287458
-2.2287464
-2.2287466
-2.2287456
-2.2287441
-2.2287432
-2.2287446
-2.2287491
-2.2287558
-2.2287508
-2.2287516
-2.2287521
-2.2287516
-2.2287506
-2.2287502
-2.2287517
-2.2287557
-2.2287608
-2.2287562
-2.2287572
-2.228758
-2.2287579
-2.2287573
-2.2287571
-2.2287584
-2.2287614
-2.228765
-2.2287618
-2.2287628
-2.2287638
-2.2287641
-2.228764
-2.228764
-2.228765
-2.2287671
-2.2287692
-2.2287693
-2.2287703
-2.2287713
-2.2287719
-2.2287721
-2.2287725
-2.2287741
-2.2287774
-2.2287807
-2.0629897
-2.0629896
-2.0629898
-2.0629904
-2.0629913
-2.0629921
-2.0629923
-2.0629914
-2.062989
-2.0629897
-2.0629896
-2.0629898
-2.0629904
-2.0629913
-2.0629918
-2.062991
-2.0629887
-2.0629846
-2.0629906
-2.0629905
-2.0629906
-2.0629912
-2.062992
-2.0629924
-2.0629916
-2.0629889
-2.0629846
-2.0629916
-2.0629914
-2.0629914
-2.0629919
-2.0629926
-2.062993
-2.0629922
-2.0629895
-2.062985
-2.0629924
-2.0629921
-2.062992
-2.0629924
-2.0629931
-2.0629934
-2.0629925
-2.0629898
-2.0629851
-2.0629932
-2.0629928
-2.0629926
-2.0629929
-2.0629934
-2.0629936
-2.0629926
-2.0629899
-2.0629853
-2.0629938
-2.0629934
-2.062993
-2.0629932
-2.0629935
-2.0629936
-2.0629925
-2.0629898
-2.0629855
-2.0629943
-2.0629938
-2.0629934
-2.0629934
-2.0629936
-2.0629934
-2.0629922
-2.0629898
-2.0629857
-2.0629946
-2.062994
-2.0629935
-2.0629934
-2.0629935
-2.0629931
-2.062992
-2.0629898
-2.0629861
-2.0629948
-2.0629942
-2.0629936
-2.0629934
-2.0629933
-2.0629929
-2.0629919
-2.06299
-2.0629865
-2.062995
-2.0629943
-2.0629937
-2.0629934
-2.0629932
-2.0629927
-2.0629919
-2.0629901
-2.0629869
-2.0629951
-2.0629944
-2.0629937
-2.0629934
-2.0629932
-2.0629926
-2.0629919
-2.0629902
-2.0629872
-2.0629952
-2.0629944
-2.0629938
-2.0629934
-2.0629931
-2.0629926
-2.0629919
-2.0629903
-2.0629874
-2.0629952
-2.0629945
-2.0629938
-2.0629934
-2.0629932
-2.0629926
-2.0629919
-2.0629904
-2.0629875
-2.0629951
-2.0629944
-2.0629937
-2.0629933
-2.0629931
-2.0629927
-2.0629919
-2.0629903
-2.0629875
-2.0629948
-2.0629941
-2.0629934
-2.0629931
-2.062993
-2.0629927
-2.0629918
-2.0629902
-2.0629874
-2.0629942
-2.0629935
-2.0629929
-2.0629927
-2.0629927
-2.0629925
-2.0629917
-2.0629901
-2.0629872
-2.0629932
-2.0629926
-2.062992
-2.0629919
-2.062992
-2.0629921
-2.0629915
-2.0629898
-2.0629869
-2.0629918
-2.0629912
-2.0629907
-2.0629907
-2.062991
-2.0629913
-2.0629909
-2.0629894
-2.0629864
-2.0629899
-2.0629894
-2.062989
-2.0629891
-2.0629896
-2.0629901
-2.0629899
-2.0629886
-2.0629857
-2.0629876
-2.0629872
-2.062987
-2.0629872
-2.0629878
-2.0629884
-2.0629884
-2.0629872
-2.0629844
-2.062985
-2.0629848
-2.0629847
-2.062985
-2.0629858
-2.0629864
-2.0629863
-2.0629849
-2.0629824
-2.0629825
-2.0629824
-2.0629824
-2.0629829
-2.0629837
-2.0629843
-2.0629839
-2.0629823
-2.0629802
-2.0629814
-2.0629814
-2.0629815
-2.062982
-2.0629828
-2.0629834
-2.0629833
-2.0629826
-2.0629822
-1.8983127
-1.8983129
-1.8983131
-1.8983133
-1.8983134
-1.8983136
-1.8983138
-1.8983143
-1.8983135
-1.8983114
-1.8983116
-1.8983119
-1.898312
-1.898312
-1.8983119
-1.8983118
-1.8983115
-1.8983103
-1.8983101
-1.8983103
-1.8983105
-1.8983106
-1.8983105
-1.8983104
-1.8983101
-1.8983097
-1.8983088
-1.8983086
-1.8983088
-1.898309
-1.898309
-1.898309
-1.8983088
-1.8983085
-1.8983082
-1.8983075
-1.8983072
-1.8983073
-1.8983074
-1.8983074
-1.8983072
-1.8983071
-1.8983069
-1.8983067
-1.8983064
-1.8983058
-1.8983059
-1.8983059
-1.8983057
-1.8983055
-1.8983053
-1.8983053
-1.8983054
-1.8983054
-1.8983045
-1.8983046
-1.8983045
-1.8983043
-1.8983039
-1.8983036
-1.8983038
-1.8983041
-1.8983046
-1.8983035
-1.8983035
-1.8983034
-1.898303
-1.8983026
-1.8983023
-1.8983025
-1.8983032
-1.8983039
-1.8983028
-1.8983027
-1.8983025
-1.8983021
-1.8983016
-1.8983013
-1.8983016
-1.8983024