/*--------------------------------*- C++ -*----------------------------------*\
| =========                 |                                                 |
| \\      /  F ield         | OpenFOAM: The Open Source CFD Toolbox           |
|  \\    /   O peration     | Version:  2406                                  |
|   \\  /    A nd           | Website:  www.openfoam.com                      |
|    \\/     M anipulation  |                                                 |
\*---------------------------------------------------------------------------*/
FoamFile
{
    version     2.0;
    format      ascii;
    arch        "LSB;label=32;scalar=64";
    class       surfaceScalarField;
    location    "6";
    object      phi;
}
// * * * * * * * * * * * * * * * * * * * * * * * * * * * * * * * * * * * * * //

dimensions      [0 3 -1 0 0 0 0];

oriented        oriented;

internalField   nonuniform List<scalar> 
101088
(
-0.00017448473
3.7209793e-05
-1.3004175e-05
-3.1165458e-05
-0.00039405671
0.00017078487
-6.1289202e-05
-0.00014383591
-0.0006462748
0.00043108312
-0.00015953846
-0.00036467451
-0.00089624649
0.00084173139
-0.00032511377
-0.00071785392
-0.0010912038
0.0013543336
-0.00054775262
-0.0011697045
-0.0011979891
0.0018567826
-0.00077022283
-0.0016226752
-0.0012429338
0.0022423095
-0.00090827637
-0.0019685049
-0.0012922499
0.0024458533
-0.00090980635
-0.002138838
0.0024289789
-0.00078976847
-0.0021221507
-0.001377039
-0.00021168268
4.1289112e-05
-1.4975573e-05
-0.00047137355
0.00019083005
-7.1418624e-05
-0.0007569388
0.00048186679
-0.00018774846
-0.0010168017
0.00093499418
-0.00038499924
-0.0011862381
0.001490861
-0.00064968899
-0.0012371749
0.0020312972
-0.0009123259
-0.0012113769
0.0024524498
-0.0010753914
-0.0011850938
0.0026862258
-0.001082437
0.0026769436
-0.00095323563
-0.0012033523
-0.00025000104
4.3548861e-05
-1.6352996e-05
-0.00055123869
0.00020279816
-7.9199097e-05
-0.00087170852
0.0005136048
-0.00021079686
-0.0011455247
0.00099346593
-0.00043547967
-0.001296488
0.0015732377
-0.0007355796
-0.0012990414
0.0021340695
-0.0010291893
-0.0012094695
0.0025803026
-0.0012080115
-0.0011174821
0.0028422218
-0.0012153945
0.0028497012
-0.0010764492
-0.0010789664
-0.00028778165
4.3863846e-05
-1.7148097e-05
-0.00063067035
0.00020596535
-8.4545911e-05
-0.00098642263
0.00052365249
-0.00022823505
-0.0012745405
0.0010111337
-0.00047549776
-0.0014109815
0.0015943747
-0.000804167
-0.0013761276
0.0021595396
-0.0011205076
-0.0012401796
0.0026229875
-0.0013084009
-0.0010994624
0.0029081346
-0.0013112687
0.0029374637
-0.0011627043
-0.0010156898
-0.00032360526
4.1663476e-05
-1.7251549e-05
-0.00070614773
0.00019847998
-8.6998998e-05
-0.0010964116
0.00050907735
-0.00023912197
-0.0014018315
0.00098549088
-0.0005038012
-0.0015329836
0.0015538916
-0.00085465051
-0.001475539
0.0021089768
-0.001187217
-0.0013078339
0.0025773659
-0.001377529
-0.0011328366
0.0028798225
-0.0013733192
0.0029328393
-0.0012158225
-0.0010137987
-0.00035816304
3.785125e-05
-1.671827e-05
-0.00078178974
0.00018301539
-8.6700295e-05
-0.0012116046
0.00047410106
-0.00024361704
-0.0015432642
0.00092155056
-0.00052061678
-0.0016802716
0.0014550637
-0.00088738497
-0.0016125448
0.0019823917
-0.0012293532
-0.0014262407
0.0024417257
-0.0014174584
-0.0012267569
0.0027518163
-0.0014045582
0.0028263158
-0.0012391127
-0.0010771812
-0.00038934723
3.2468144e-05
-1.562971e-05
-0.00085141971
0.00015990323
-8.3833519e-05
-0.0013205109
0.00041964246
-0.00024178584
-0.0016825294
0.00082135689
-0.00052551181
-0.001836154
0.0013024117
-0.00090157535
-0.001773174
0.0017848344
-0.0012469906
-0.00158175
0.0022173725
-0.0014291769
-0.0013692396
0.0025232354
-0.0014069834
0.0026132963
-0.001235235
-0.0011959901
-0.00041698913
2.5961964e-05
-1.4060371e-05
-0.00091531207
0.00013084172
-7.868426e-05
-0.0014245762
0.00034912526
-0.00023421066
-0.0018225393
0.0006902238
-0.00051950015
-0.0020029859
0.0011022915
-0.00089893126
-0.0019579147
0.0015225609
-0.0012428139
-0.0017719648
0.0019064187
-0.0014164472
-0.0015541341
0.0021929431
-0.0013846693
0.0022895556
-0.0012084352
-0.0013611839
-0.00044064074
1.8959984e-05
-1.220162e-05
-0.00097241413
9.8233789e-05
-7.2005794e-05
-0.0015218472
0.00026725874
-0.00022241882
-0.0019598263
0.00053508107
-0.00050501577
-0.0021747966
0.000862579
-0.00088286557
-0.0021577887
0.001203597
-0.001221241
-0.0019849107
0.0015133426
-0.0013846651
-0.0017672783
0.0017627629
-0.0013432391
0.0018537011
-0.0011642618
-0.0015567195
-0.00045971684
1.2140865e-05
-1.0339333e-05
-0.0010207757
6.4749706e-05
-6.4982512e-05
-0.0016081064
0.00017954151
-0.00020893473
-0.0020865736
0.00036390449
-0.00048613933
-0.0023385969
0.00059205673
-0.00085895589
-0.0023526066
0.00083588852
-0.0011890843
-0.0022013405
0.0010521303
-0.0013423941
-0.0019852862
0.00123896
-0.0012916148
0.0013110848
-0.0011112732
-0.0017580208
-0.00047324565
5.9330998e-06
-8.8534985e-06
-0.0010565409
3.2174241e-05
-5.9171603e-05
-0.0016742833
9.0199568e-05
-0.00019716695
-0.0021870552
0.0001840927
-0.00046836439
-0.0024722046
0.00030126304
-0.00083486217
-0.002510774
0.00042840481
-0.0011563754
-0.0023817747
0.00054025366
-0.00130086
-0.0021693134
0.00064065218
-0.001242175
0.00068093909
-0.0010614156
-0.0019286004
-0.00048019674
-8.231568e-11
-7.9518313e-06
-0.0010753002
-3.206182e-10
-5.5599881e-05
-0.001709805
-6.8842233e-10
-0.00018977538
-0.0022424314
-1.1897749e-09
-0.0004569174
-0.0025475772
-1.6746969e-09
-0.00081915473
-0.0026022451
-1.9796985e-09
-0.0011352578
-0.0024870177
-1.7959666e-09
-0.0012744646
-0.0022776311
-3.54557e-10
-0.0012110985
1.535428e-09
-0.0010302778
-0.0020293515
-0.00048019671
-5.9332208e-06
-7.9518307e-06
-0.0010753002
-3.2174775e-05
-5.5599878e-05
-0.0017098051
-9.020073e-05
-0.00018977537
-0.0022424313
-0.0001840949
-0.00045691736
-0.002547577
-0.00030126643
-0.00081915465
-0.0026022449
-0.00042840894
-0.0011352577
-0.0024870173
-0.00054025734
-0.0012744645
-0.0022776304
-0.00064065295
-0.0012110985
-0.00068093632
-0.0010302778
-0.0020293506
-0.00047324568
-1.2140942e-05
-8.8535013e-06
-0.001056541
-6.47501e-05
-5.9171617e-05
-0.0016742836
-0.00017954251
-0.00019716698
-0.0021870554
-0.0003639067
-0.00046836444
-0.0024722047
-0.00059206038
-0.00083486219
-0.0025107737
-0.00083589302
-0.0011563754
-0.002381774
-0.0010521343
-0.0013008601
-0.002169312
-0.0012389613
-0.001242175
-0.0013110829
-0.0010614155
-0.0019285983
-0.00045971669
-1.8960054e-05
-1.0339335e-05
-0.0010207755
-9.823404e-05
-6.4982522e-05
-0.0016081061
-0.00026725958
-0.00020893475
-0.0020865733
-0.00053508331
-0.00048613935
-0.0023385964
-0.00086258265
-0.00085895584
-0.0023526056
-0.0012036016
-0.0011890843
-0.0022013392
-0.001513347
-0.001342394
-0.0019852845
-0.0017627648
-0.0012916147
-0.0018536998
-0.0011112731
-0.0017580186
-0.00044064064
-2.596205e-05
-1.2201624e-05
-0.00097241411
-0.00013084199
-7.2005813e-05
-0.0015218471
-0.00034912616
-0.00022241886
-0.0019598261
-0.00069022616
-0.00050501585
-0.0021747961
-0.0011022952
-0.00088286562
-0.0021577877
-0.0015225658
-0.001221241
-0.0019849094
-0.0019064234
-0.001384665
-0.0017672767
-0.0021929453
-0.0013432389
-0.0022895544
-0.0011642618
-0.0015567179
-0.00041698909
-3.2468212e-05
-1.4060375e-05
-0.00091531208
-0.0001599035
-7.868428e-05
-0.0014245763
-0.0004196434
-0.00023421071
-0.0018225392
-0.00082135917
-0.00051950026
-0.0020029859
-0.0013024153
-0.00089893136
-0.0019579144
-0.0017848392
-0.001242814
-0.0017719642
-0.0022173774
-0.0014164472
-0.001554133
-0.0025232381
-0.0013846693
-0.002613295
-0.0012084353
-0.0013611832
-0.00038934724
-3.7851333e-05
-1.5629714e-05
-0.00085141971
-0.00018301567
-8.3833544e-05
-0.0013205111
-0.00047410202
-0.00024178591
-0.0016825295
-0.00092155265
-0.00052551194
-0.0018361545
-0.0014550671
-0.00090157551
-0.0017731744
-0.0019823962
-0.0012469908
-0.0015817503
-0.0024417305
-0.0014291772
-0.0013692391
-0.0027518194
-0.0014069836
-0.0028263142
-0.001235235
-0.0011959899
-0.00035816316
-4.1663555e-05
-1.6718275e-05
-0.00078179004
-0.00019848024
-8.6700325e-05
-0.0012116052
-0.00050907807
-0.00024361712
-0.0015432652
-0.00098549238
-0.00052061695
-0.0016802731
-0.0015538945
-0.00088738526
-0.0016125464
-0.002108981
-0.0012293536
-0.0014262421
-0.0025773705
-0.0014174588
-0.0012267575
-0.002879826
-0.0014045585
-0.0029328386
-0.0012391127
-0.0010771813
-0.00032360532
-4.386386e-05
-1.7251549e-05
-0.00070614792
-0.00020596549
-8.6999004e-05
-0.0010964122
-0.0005236528
-0.00023912199
-0.0014018327
-0.0010111347
-0.00050380124
-0.0015329853
-0.001594377
-0.00085465058
-0.0014755408
-0.0021595434
-0.0011872172
-0.0013078358
-0.0026229919
-0.0013775292
-0.0011328382
-0.0029081383
-0.0013733193
-0.0029374644
-0.0012158226
-0.0010137985
-0.00028778162
-4.3548846e-05
-1.7148092e-05
-0.0006306705
-0.00020279812
-8.4545889e-05
-0.00098642322
-0.00051360469
-0.000228235
-0.0012745417
-0.00099346633
-0.00047549766
-0.0014109833
-0.0015732394
-0.00080416686
-0.0013761298
-0.0021340727
-0.0011205075
-0.0012401822
-0.0025803063
-0.0013084009
-0.0010994651
-0.0028422253
-0.0013112688
-0.0028497043
-0.0011627043
-0.0010156902
-0.00025000099
-4.1289039e-05
-1.6352986e-05
-0.00055123874
-0.00019082983
-7.9199054e-05
-0.00087170879
-0.00048186648
-0.00021079676
-0.0011455254
-0.0009349943
-0.00043547948
-0.0012964891
-0.0014908623
-0.00073557932
-0.0012990433
-0.0020312997
-0.001029189
-0.0012094725
-0.0024524523
-0.0012080114
-0.0011174854
-0.0026862286
-0.0012153945
-0.0026769486
-0.0010764494
-0.0010789679
-0.00021168266
-3.7209712e-05
-1.4975567e-05
-0.00047137351
-0.00017078463
-7.1418599e-05
-0.0007569388
-0.00043108276
-0.0001877484
-0.0010168019
-0.00084173125
-0.00038499913
-0.0011862389
-0.0013543344
-0.00064968882
-0.0012371767
-0.0018567842
-0.00091232572
-0.0012113798
-0.0022423109
-0.0010753913
-0.0011850966
-0.0024458558
-0.0010824372
-0.0024289843
-0.00095323581
-0.0012033542
-0.00017448471
-1.3004174e-05
-3.1165428e-05
-0.00039405656
-6.1289193e-05
-0.00014383583
-0.00064627434
-0.00015953844
-0.00036467439
-0.00089624591
-0.00032511371
-0.00071785387
-0.0010912039
-0.0005477525
-0.0011697048
-0.0011979905
-0.00077022273
-0.0016226758
-0.0012429361
-0.00090827636
-0.0019685058
-0.0012922533
-0.00090980647
-0.0021388394
-0.0007897687
-0.0021221551
-0.0013770438
1.4804704e-06
-1.1517641e-06
-1.3031817e-05
-3.0106482e-07
6.2379354e-06
-6.1171666e-06
-5.9775609e-05
-1.5389495e-07
1.3823245e-05
-1.8323238e-05
-0.00015177655
2.9760193e-06
2.1526665e-05
-4.4932244e-05
-0.00030262512
1.4740187e-05
2.73244e-05
-9.4366333e-05
-0.00050287708
4.369308e-05
3.4346814e-05
-0.00016803017
-0.0007037761
9.4561055e-05
4.9725302e-05
-0.00025333986
-0.00083044005
0.00016012505
7.8253093e-05
-0.00032764601
-0.00083345705
0.00022276893
-0.00036759263
-0.00072382234
0.0002649633
0.00011493637
2.4056045e-06
-3.1137529e-06
-1.5419198e-05
1.0237121e-05
-1.4561935e-05
-7.0805405e-05
2.2624407e-05
-3.850378e-05
-0.00017995527
3.4419063e-05
-8.3053067e-05
-0.00035867317
4.0660237e-05
-0.00015532195
-0.00059497464
4.358944e-05
-0.00025237568
-0.00083090967
5.1320621e-05
-0.00035619904
-0.00098026338
7.0057624e-05
-0.00043995296
-0.000988867
-0.00047960656
-0.00087190962
0.0001007455
3.585424e-06
-5.5078888e-06
-1.7544292e-05
1.5101282e-05
-2.4619011e-05
-8.0657868e-05
3.2824953e-05
-6.1914178e-05
-0.00020511012
4.8449235e-05
-0.00012587997
-0.00040827701
5.3822244e-05
-0.00022131143
-0.00067496309
5.079295e-05
-0.0003405009
-0.00093803476
4.9081942e-05
-0.0004607252
-0.0011017743
5.670379e-05
-0.00055227923
-0.0011106901
-0.0005901274
-0.00098620636
7.6981767e-05
4.9092847e-06
-8.1261961e-06
-1.9439079e-05
2.0537345e-05
-3.5381757e-05
-8.9411229e-05
4.40236e-05
-8.6314201e-05
-0.0002273213
6.3310725e-05
-0.00016909783
-0.00045156706
6.6923198e-05
-0.00028563508
-0.00074345588
5.7014933e-05
-0.00042387257
-0.0010272277
4.5281994e-05
-0.00055795238
-0.0011994408
4.2223497e-05
-0.00065513823
-0.0012053513
-0.00068856488
-0.0010731723
5.1128952e-05
6.2364031e-06
-1.0613507e-05
-2.100062e-05
2.6020076e-05
-4.5462273e-05
-9.6702123e-05
5.5211125e-05
-0.00010869522
-0.00024593198
7.7773875e-05
-0.00020764283
-0.00048781895
7.9051499e-05
-0.00034126208
-0.00080030118
6.1888582e-05
-0.00049408669
-0.00109984
4.0971179e-05
-0.00063784874
-0.0012767153
2.8239402e-05
-0.0007377735
-0.0012779522
-0.00076556859
-0.0011383076
2.7728137e-05
7.6640309e-06
-1.2725392e-05
-2.2270394e-05
3.1942601e-05
-5.3766451e-05
-0.00010267468
6.7356575e-05
-0.00012649311
-0.00026123313
9.3624987e-05
-0.00023695856
-0.0005175695
9.2887133e-05
-0.0003813733
-0.00084653592
6.9265759e-05
-0.00054196345
-0.001157855
4.0420985e-05
-0.00068964884
-0.0013368136
1.957206e-05
-0.0007888243
-0.0013326587
-0.00080997416
-0.001186037
1.0901945e-05
8.9294927e-06
-1.4010441e-05
-2.3274148e-05
3.7300151e-05
-5.8572662e-05
-0.00010739798
7.8427594e-05
-0.00013609477
-0.00027331159
0.00010806352
-0.00025118824
-0.00054091811
0.0001055724
-0.00039804292
-0.00088241457
7.6648143e-05
-0.00055800135
-0.0012020285
4.189138e-05
-0.0007027052
-0.0013813639
1.5244668e-05
-0.00079715413
-0.001372007
-0.00081158749
-0.0012194482
1.071168e-06
9.993285e-06
-1.4072719e-05
-2.3991398e-05
4.1933921e-05
-5.8356165e-05
-0.00011084137
8.8191344e-05
-0.00013432587
-0.00028223686
0.00012101726
-0.00024522735
-0.00055828693
0.00011738687
-0.0003842833
-0.00090906042
8.4673763e-05
-0.00053366605
-0.0012344362
4.5946455e-05
-0.0006671344
-0.0014132908
1.5794964e-05
-0.00075228927
-0.0013993827
-0.00076079119
-0.001242018
-1.4183939e-06
1.0800109e-05
-1.2617369e-05
-2.4457072e-05
4.5614347e-05
-5.2019831e-05
-0.00011315638
9.6219022e-05
-0.00011896121
-0.00028838809
0.00013198605
-0.00021556056
-0.00057044952
0.0001279643
-0.00033530507
-0.00092782211
9.2969879e-05
-0.00046284013
-0.0012570726
5.1849579e-05
-0.00057557803
-0.0014351012
2.0297385e-05
-0.00064648119
-0.0014174949
-0.00065050993
-0.0012564687
2.2230509e-06
1.1370678e-05
-9.5940267e-06
-2.4733356e-05
4.8359384e-05
-3.9388504e-05
-0.00011460248
0.00010249098
-8.9671524e-05
-0.00029235601
0.00014091682
-0.00016168411
-0.00057844154
0.00013717774
-0.00025030737
-0.00094021452
0.00010129704
-0.00034416263
-0.0012718811
5.8901106e-05
-0.00042659298
-0.0014489832
2.7359247e-05
-0.00047799436
-0.0014285597
-0.0004793099
-0.0012649317
9.8176644e-06
1.1723705e-05
-5.2322917e-06
-2.4938941e-05
5.0137126e-05
-2.1385864e-05
-0.00011558765
0.00010668997
-4.8493261e-05
-0.00029489809
0.00014708186
-8.7114738e-05
-0.00058332567
0.00014383858
-0.00013443118
-0.00094749506
0.00010790028
-0.00018438045
-0.0012802192
6.493427e-05
-0.00022812142
-0.0014563656
3.4062419e-05
-0.00025527233
-0.0014340252
-0.00025545398
-0.0012688298
1.7620729e-05
1.1789739e-05
1.0129054e-11
-2.4973879e-05
5.0656959e-05
3.6396636e-11
-0.00011585299
0.00010815188
6.5168945e-11
-0.00029576357
0.00014936234
6.9127175e-11
-0.00058524267
0.00014637401
2.9815111e-11
-0.00095059762
0.00011064668
-5.5142649e-11
-0.0012839108
6.7707364e-05
-1.4216977e-10
-0.0014596465
3.7727881e-05
2.3614746e-11
-0.0014363914
4.9672187e-10
-0.0012704573
2.2452962e-05
1.1789741e-05
5.232303e-06
-2.4973875e-05
5.0656935e-05
2.1385917e-05
-0.00011585297
0.00010815183
4.8493376e-05
-0.00029576353
0.00014936229
8.7114864e-05
-0.00058524259
0.00014637396
0.00013443119
-0.0009505975
0.00011064664
0.00018438025
-0.0012839107
6.7707372e-05
0.0002281211
-0.0014596464
3.7727985e-05
0.00025527238
-0.0014363914
0.00025545487
-0.0012704574
2.2453233e-05
1.1723701e-05
9.5940411e-06
-2.4938941e-05
5.0137082e-05
3.9388579e-05
-0.00011558764
0.0001066899
8.9671681e-05
-0.00029489808
0.00014708176
0.00016168424
-0.00058332566
0.00014383848
0.00025030735
-0.00094749501
0.0001079002
0.00034416236
-0.0012802192
6.4934297e-05
0.00042659261
-0.0014563656
3.406262e-05
0.00047799438
-0.0014340253
0.00047931059
-0.0012688299
1.7621284e-05
1.1370681e-05
1.2617375e-05
-2.4733351e-05
4.8359333e-05
5.2019893e-05
-0.00011460245
0.00010249091
0.00011896131
-0.00029235595
0.00014091668
0.00021556055
-0.00057844143
0.00013717765
0.00033530492
-0.00094021434
0.00010129703
0.00046283975
-0.001271881
5.8901206e-05
0.00057557753
-0.0014489831
2.7359447e-05
0.00064648113
-0.0014285597
0.0006505106
-0.0012649318
9.818035e-06
1.0800113e-05
1.4072716e-05
-2.445707e-05
4.5614367e-05
5.8356218e-05
-0.00011315637
9.621897e-05
0.00013432593
-0.00028838806
0.00013198593
0.00024522719
-0.00057044948
0.00012796421
0.000384283
-0.00092782202
9.2969891e-05
0.00053366555
-0.0012570725
5.1849712e-05
0.00066713381
-0.0014351011
2.0297548e-05
0.00075228926
-0.0014174949
0.00076079216
-0.0012564688
2.2229513e-06
9.9933099e-06
1.401044e-05
-2.3991399e-05
4.1933911e-05
5.857271e-05
-0.00011084137
8.8191227e-05
0.00013609477
-0.00028223686
0.00012101712
0.00025118798
-0.00055828692
0.00011738673
0.0003980424
-0.00090906038
8.4673763e-05
0.00055800063
-0.0012344362
4.5946621e-05
0.00070270443
-0.0014132908
1.5795202e-05
0.00079715403
-0.0013993828
0.00081158877
-0.0012420182
-1.4185447e-06
8.929493e-06
1.2725387e-05
-2.327415e-05
3.730016e-05
5.3766467e-05
-0.00010739798
7.8427526e-05
0.00012649306
-0.0002733116
0.00010806342
0.00023695824
-0.00054091814
0.00010557228
0.00038137259
-0.00088241459
7.6648104e-05
0.00054196247
-0.0012020286
4.1891469e-05
0.00068964782
-0.001381364
1.5244948e-05
0.00078882406
-0.0013720072
0.00080997574
-0.0012194484
1.0713669e-06
7.6640142e-06
1.0613502e-05
-2.22704e-05
3.1942596e-05
4.5462273e-05
-0.00010267471
6.7356532e-05
0.00010869516
-0.00026123319
9.3624885e-05
0.00020764248
-0.00051756961
9.2886998e-05
0.00034126119
-0.00084653607
6.9265613e-05
0.00049408542
-0.0011578552
4.0420956e-05
0.00063784746
-0.0013368138
1.9572327e-05
0.00073777309
-0.0013326589
0.00076557
-0.0011860371
1.0902473e-05
6.2363879e-06
8.1261828e-06
-2.1000621e-05
2.6020056e-05
3.5381721e-05
-9.6702124e-05
5.5211083e-05
8.6314112e-05
-0.00024593198
7.7773768e-05
0.00016909748
-0.00048781893
7.9051341e-05
0.00028563419
-0.00080030114
6.188842e-05
0.00042387123
-0.00109984
4.0971067e-05
0.00055795102
-0.0012767154
2.8239536e-05
0.00065513763
-0.0012779523
0.00068856577
-0.0011383077
2.7728977e-05
4.9092774e-06
5.5078852e-06
-1.9439076e-05
2.0537288e-05
2.4619006e-05
-8.9411211e-05
4.402346e-05
6.1914146e-05
-0.00022732125
6.3310489e-05
0.0001258797
-0.00045156696
6.6922854e-05
0.00022131066
-0.00074345573
5.7014583e-05
0.00034049955
-0.0010272276
4.5281727e-05
0.00046072368
-0.0011994407
4.222365e-05
0.00055227827
-0.0012053513
0.00059012756
-0.0010731723
5.1129839e-05
3.5854223e-06
3.1137692e-06
-1.7544287e-05
1.510123e-05
1.4561991e-05
-8.0657843e-05
3.2824855e-05
3.8503838e-05
-0.00020511005
4.8449031e-05
8.3052951e-05
-0.00040827689
5.3821882e-05
0.00015532141
-0.00067496291
5.0792524e-05
0.00025237457
-0.00093803457
4.9081498e-05
0.00035619762
-0.0011017741
5.6703666e-05
0.00043995172
-0.00111069
0.00047960621
-0.00098620637
7.6982058e-05
2.405615e-06
1.1517829e-06
-1.5419197e-05
1.023715e-05
6.1172214e-06
-7.0805396e-05
2.2624492e-05
1.8323276e-05
-0.00017995524
3.4419179e-05
4.4932156e-05
-0.00035867313
4.0660335e-05
9.4365957e-05
-0.00059497457
4.3589319e-05
0.00016802939
-0.00083090959
5.1320056e-05
0.00025333885
-0.00098026332
7.0056654e-05
0.00032764499
-0.00098886703
0.00036759206
-0.00087190968
0.00010074468
1.4804993e-06
-1.303182e-05
-3.010701e-07
6.2380633e-06
-5.9775616e-05
-1.5391833e-07
1.3823556e-05
-0.00015177657
2.9759549e-06
2.1527243e-05
-0.00030262514
1.4740008e-05
2.7325235e-05
-0.00050287709
4.3692672e-05
3.4347708e-05
-0.0007037761
9.4560374e-05
4.9725822e-05
-0.00083044006
0.00016012446
7.8252075e-05
-0.00083345711
0.00022276941
-0.00072382244
0.00026496311
0.00011493456
-2.787473e-07
1.5301751e-06
-1.2842133e-05
-1.4411125e-06
-1.5851114e-06
6.7157945e-06
-5.8827325e-05
-6.3577122e-06
-4.6459699e-06
1.6174107e-05
-0.00014951205
-1.5377749e-05
-9.6600569e-06
2.99448e-05
-0.00029887098
-2.8684837e-05
-1.5718472e-05
4.5003838e-05
-0.00049804807
-4.3774439e-05
-2.0974036e-05
5.5529405e-05
-0.00069858356
-5.5466379e-05
-2.3807055e-05
5.6640273e-05
-0.00082531055
-5.8936775e-05
-2.3959308e-05
4.8470613e-05
-0.00082845279
-5.3322667e-05
3.5322717e-05
-0.00071903612
-4.1207929e-05
-2.2860335e-05
-2.9213222e-07
1.5428415e-06
-1.5139736e-05
-1.6741928e-06
6.7440314e-06
-6.9451597e-05
-4.7741431e-06
1.6123987e-05
-0.00017680525
-9.3786971e-06
2.9504734e-05
-0.00035362864
-1.4124775e-05
4.3594475e-05
-0.00058881931
-1.7102799e-05
5.2393558e-05
-0.00082479592
-1.7144445e-05
5.119735e-05
-0.00097477891
-1.4591936e-05
4.0885285e-05
-0.00098383422
2.6840777e-05
-0.00086697023
-1.1049383e-05
-2.6742226e-07
1.4588396e-06
-1.7192864e-05
-1.5821503e-06
6.3638324e-06
-7.8962933e-05
-4.5300497e-06
1.5164877e-05
-0.0002012031
-8.6962271e-06
2.7538818e-05
-0.00040214491
-1.2397057e-05
4.0084894e-05
-0.00066775268
-1.3617371e-05
4.68882e-05
-0.00093130911
-1.1576516e-05
4.3632816e-05
-0.0010962506
-7.3415364e-06
3.1889263e-05
-0.0011059291
1.7910573e-05
-0.00098143159
-3.1860942e-06
-2.3010611e-07
1.2888216e-06
-1.903896e-05
-1.4347035e-06
5.6276772e-06
-8.7470505e-05
-4.1319256e-06
1.3414144e-05
-0.00022287341
-7.7111265e-06
2.4267867e-05
-0.000444717
-1.0308276e-05
3.4905874e-05
-0.0007356798
-9.9863371e-06
3.9732439e-05
-0.001020394
-6.4527849e-06
3.4929993e-05
-0.0011942715
-1.4629807e-06
2.26507e-05
-0.0012011026
9.5716119e-06
-0.0010687155
2.4191876e-06
-1.7335509e-07
1.0478545e-06
-2.0586291e-05
-1.2093716e-06
4.6129988e-06
-9.4651415e-05
-3.5722974e-06
1.108025e-05
-0.00024123516
-6.5041902e-06
2.0102581e-05
-0.00048072176
-8.0355254e-06
2.8692891e-05
-0.00079255688
-6.3918054e-06
3.1747357e-05
-0.0010934987
-1.8004118e-06
2.597698e-05
-0.0012723537
3.4134307e-06
1.3954324e-05
-0.0012744696
2.3097123e-06
-0.0011342853
6.6530633e-06
-1.2298716e-07
7.8208998e-07
-2.1881645e-05
-1.0059889e-06
3.4923422e-06
-0.00010067104
-3.0551452e-06
8.5158007e-06
-0.00025661955
-5.369024e-06
1.5590169e-05
-0.00051074325
-5.898708e-06
2.2141774e-05
-0.00083945514
-3.0811405e-06
2.3689902e-05
-0.0011526151
2.3208083e-06
1.7493903e-05
-0.0013337324
7.4978176e-06
6.345472e-06
-0.0013302268
-3.5544903e-06
-0.0011825991
9.9240969e-06
-6.5032446e-08
5.1897485e-07
-2.2945997e-05
-7.7299754e-07
2.3846981e-06
-0.00010558236
-2.4743588e-06
5.9870294e-06
-0.00026908144
-4.1564973e-06
1.1177717e-05
-0.00053482352
-3.7511866e-06
1.5860972e-05
-0.00087653906
5.9991581e-08
1.6257358e-05
-0.0011984071
6.0239897e-06
1.0153196e-05
-0.0013799872
1.0966322e-05
3.2346241e-07
-0.0013709273
-7.7123347e-06
-0.0012168171
1.2492981e-05
-8.6760909e-09
2.9053031e-07
-2.375428e-05
-5.4665964e-07
1.416243e-06
-0.00010933494
-1.9121409e-06
3.7580047e-06
-0.00027864234
-3.0011432e-06
7.2760811e-06
-0.0005532963
-1.7609481e-06
1.0366983e-05
-0.0009048066
2.8790527e-06
9.993564e-06
-0.0012328124
9.2414319e-06
4.4400362e-06
-0.00141394
1.3876466e-05
-3.7596496e-06
-0.0013999346
-9.9503789e-06
-0.0012404474
1.4543815e-05
4.1117612e-08
1.2193567e-07
-2.4329585e-05
-3.4777123e-07
6.8455621e-07
-0.00011203582
-1.4166273e-06
2.0275288e-06
-0.00028558873
-1.9874473e-06
4.1860657e-06
-0.00056678868
-4.137832e-08
6.023504e-06
-0.00092542469
5.2637856e-06
5.2692039e-06
-0.0012576534
1.190388e-05
6.6816349e-07
-0.0014379694
1.6240847e-05
-5.6850327e-06
-0.0014199065
-1.0149843e-05
-0.0012562212
1.6192765e-05
8.0071145e-08
2.4970364e-08
-2.471646e-05
-1.937535e-07
2.347663e-07
-0.00011387886
-1.0299783e-06
8.8655353e-07
-0.00029037882
-1.1898118e-06
2.0414476e-06
-0.00057613707
1.3101391e-06
2.9826446e-06
-0.00093967359
7.1212594e-06
2.2059235e-06
-0.001274629
1.3969662e-05
-1.1050694e-06
-0.0014540583
1.8080528e-05
-5.4426379e-06
-0.001432913
-8.3176286e-06
-0.001266185
1.7501545e-05
1.0444296e-07
-8.29078e-09
-2.5010124e-05
-9.6470487e-08
3.63435e-08
-0.0001151883
-7.7489906e-07
2.7310794e-07
-0.00029360623
-6.4173547e-07
7.4508218e-07
-0.00058216247
2.2532723e-06
1.1123339e-06
-0.00094851975
8.4194063e-06
6.2438698e-07
-0.0012848038
1.5411488e-05
-1.1142075e-06
-0.0014633485
1.9399771e-05
-3.3115309e-06
-0.0014401446
-4.7127772e-06
-0.0012714916
1.8456679e-05
1.160176e-07
-8.5080657e-12
-2.5098183e-05
-5.0001225e-08
-3.1145986e-11
-0.00011565059
-6.495519e-07
-7.3750257e-11
-0.00029489085
-3.6842164e-07
-1.5013634e-10
-0.00058477859
2.7298398e-06
-2.3972035e-10
-0.00095258332
9.073782e-06
-2.9810802e-10
-0.0012896301
1.6139178e-05
-2.2332411e-10
-0.0014678259
2.0089563e-05
1.2768933e-10
-0.0014436534
7.2484314e-10
-0.0012740491
1.8967819e-05
1.1602152e-07
8.2698836e-09
-2.509818e-05
-5.0002783e-08
-3.6415933e-08
-0.00011565058
-6.4954234e-07
-2.7326773e-07
-0.00029489081
-3.6839758e-07
-7.453902e-07
-0.00058477852
2.7298775e-06
-1.1128174e-06
-0.00095258321
9.0738266e-06
-6.2499513e-07
-0.00128963
1.613923e-05
1.1137464e-06
-0.0014678258
2.0089613e-05
3.3117817e-06
-0.0014436534
4.7142127e-06
-0.0012740491
1.8967879e-05
1.0444187e-07
-2.4991746e-08
-2.5010124e-05
-9.6487485e-08
-2.3484012e-07
-0.0001151883
-7.7490369e-07
-8.867123e-07
-0.00029360622
-6.4172684e-07
-2.0417549e-06
-0.00058216246
2.2533144e-06
-2.9831317e-06
-0.00094851973
8.4194743e-06
-2.2065703e-06
-0.0012848038
1.5411591e-05
1.1045512e-06
-0.0014633485
1.9399883e-05
5.4428564e-06
-0.0014401446
8.3190299e-06
-0.0012714916
1.8456825e-05
8.007047e-08
-1.2195949e-07
-2.4716454e-05
-1.9374587e-07
-6.8463344e-07
-0.00011387884
-1.0299553e-06
-2.0276947e-06
-0.00029037876
-1.1897786e-06
-4.1864095e-06
-0.00057613696
1.3102234e-06
-6.0240625e-06
-0.00093967342
7.1213916e-06
-5.2699581e-06
-0.0012746288
1.3969852e-05
-6.6879273e-07
-0.0014540582
1.8080739e-05
5.6852015e-06
-0.0014329129
1.0151189e-05
-0.001266185
1.750181e-05
4.1115466e-08
-2.9055942e-07
-2.4329582e-05
-3.4774534e-07
-1.416323e-06
-0.00011203581
-1.4166008e-06
-3.7581924e-06
-0.0002855887
-1.9873922e-06
-7.2764913e-06
-0.00056678862
-4.1263318e-08
-1.0367661e-05
-0.00092542458
5.263979e-06
-9.9944751e-06
-0.0012576532
1.1904167e-05
-4.44081e-06
-0.0014379693
1.6241197e-05
3.7597315e-06
-0.0014199065
9.9515287e-06
-0.0012562212
1.619326e-05
-8.6746172e-09
-5.1900073e-07
-2.3754281e-05
-5.4666947e-07
-2.3847637e-06
-0.00010933494
-1.9121716e-06
-5.9872245e-06
-0.00027864234
-3.0011282e-06
-1.1178192e-05
-0.00055329629
-1.760835e-06
-1.5861793e-05
-0.00090480656
2.8792909e-06
-1.6258458e-05
-0.0012328123
9.2418016e-06
-1.0154157e-05
-0.00141394
1.3876946e-05
-3.2356039e-07
-0.0013999346
7.7131203e-06
-0.0012404475
1.4544577e-05
-6.5032694e-08
-7.8211788e-07
-2.2945999e-05
-7.7300867e-07
-3.4924076e-06
-0.00010558237
-2.4743718e-06
-8.5160244e-06
-0.00026908146
-4.156459e-06
-1.5590723e-05
-0.00053482355
-3.7510372e-06
-2.2142751e-05
-0.00087653909
6.0251577e-08
-2.3691214e-05
-0.0011984071
6.0243852e-06
-1.7495108e-05
-0.0013799872
1.0966875e-05
-6.3458256e-06
-0.0013709274
3.5549714e-06
-0.0012168172
1.2493816e-05
-1.229863e-07
-1.0478822e-06
-2.1881651e-05
-1.0059827e-06
-4.6130543e-06
-0.00010067107
-3.0551398e-06
-1.1080455e-05
-0.00025661962
-5.3690059e-06
-2.0103136e-05
-0.00051074337
-5.898616e-06
-2.8693962e-05
-0.0008394553
-3.08095e-06
-3.1748855e-05
-0.0011526153
2.3211638e-06
-2.5978478e-05
-0.0013337326
7.4983866e-06
-1.3955002e-05
-0.001330227
-2.3092952e-06
-0.0011825992
9.9246803e-06
-1.7336171e-07
-1.288853e-06
-2.0586291e-05
-1.2093822e-06
-5.6277524e-06
-9.4651413e-05
-3.5723246e-06
-1.3414358e-05
-0.00024123515
-6.5042466e-06
-2.4268418e-05
-0.00048072175
-8.0355589e-06
-3.4906957e-05
-0.00079255685
-6.3917576e-06
-3.9734034e-05
-0.0010934987
-1.8001821e-06
-3.4931786e-05
-0.0012723537
3.4139194e-06
-2.2651769e-05
-0.0012744697
-9.5710151e-06
-0.0011342854
6.6533276e-06
-2.3011901e-07
-1.458855e-06
-1.9038956e-05
-1.4347454e-06
-6.3638582e-06
-8.7470485e-05
-4.1320194e-06
-1.5164979e-05
-0.00022287336
-7.7113125e-06
-2.7539189e-05
-0.0004447169
-1.0308557e-05
-4.0085785e-05
-0.00073567966
-9.9866386e-06
-4.6889755e-05
-0.0010203938
-6.4530019e-06
-4.363475e-05
-0.0011942714
-1.462973e-06
-3.189061e-05
-0.0012011025
-1.7909868e-05
-0.0010687155
2.4190556e-06
-2.6744391e-07
-1.5428391e-06
-1.7192858e-05
-1.5822344e-06
-6.7440074e-06
-7.8962905e-05
-4.5302493e-06
-1.6123982e-05
-0.00020120303
-8.6966256e-06
-2.9504925e-05
-0.00040214478
-1.2397725e-05
-4.3595125e-05
-0.00066775248
-1.3618341e-05
-5.2394813e-05
-0.00093130889
-1.157764e-05
-5.1199139e-05
-0.0010962504
-7.342538e-06
-4.0886758e-05
-0.001105929
-2.6840372e-05
-0.00098143164
-3.1867739e-06
-2.9214835e-07
-1.5301525e-06
-1.5139734e-05
-1.674251e-06
-6.7157073e-06
-6.9451588e-05
-4.7742831e-06
-1.6173959e-05
-0.00017680522
-9.379057e-06
-2.9944669e-05
-0.0003536286
-1.4125594e-05
-4.5003885e-05
-0.00058881923
-1.7104223e-05
-5.5529917e-05
-0.00082479583
-1.7146239e-05
-5.6641578e-05
-0.00097477885
-1.459389e-05
-4.847189e-05
-0.00098383426
-3.5322604e-05
-0.00086697034
-1.105103e-05
-2.7874717e-07
-1.2842134e-05
-1.441091e-06
-1.5851037e-06
-5.8827329e-05
-6.3576377e-06
-4.6459573e-06
-0.00014951206
-1.5377615e-05
-9.6600379e-06
-0.000298871
-2.8684703e-05
-1.571841e-05
-0.00049804807
-4.3774497e-05
-2.0973993e-05
-0.00069858357
-5.5466843e-05
-2.3807444e-05
-0.00082531059
-5.8937584e-05
-2.3960902e-05
-0.00082845288
-5.3322661e-05
-0.00071903622
-4.1207725e-05
-2.2862065e-05
-1.1312173e-07
-2.2898659e-07
-1.2674343e-05
1.7431838e-07
-4.776299e-07
-1.1003803e-06
-5.8223485e-05
8.6104924e-07
-1.2442529e-06
-3.0419918e-06
-0.00014811164
2.4082113e-06
-2.6577352e-06
-6.9683224e-06
-0.00029601733
5.52815e-06
-4.5544851e-06
-1.4075531e-05
-0.00049322037
1.1144579e-05
-5.7175885e-06
-2.519047e-05
-0.00069211443
1.9884441e-05
-3.9806421e-06
-3.9607861e-05
-0.00081860578
3.1166138e-05
2.3774882e-06
-5.4353784e-05
-0.00082317603
4.2718876e-05
-6.4967155e-05
-0.00071584072
5.1683084e-05
1.2466153e-05
-1.4127466e-07
-2.9622746e-07
-1.493122e-05
-5.7031923e-07
-1.4014206e-06
-6.8721513e-05
-1.4570922e-06
-3.8159689e-06
-0.0001751445
-3.144689e-06
-8.6304205e-06
-0.00035027896
-5.5476517e-06
-1.729308e-05
-0.0005831988
-7.4171149e-06
-3.0814713e-05
-0.00081730222
-6.4748632e-06
-4.8294821e-05
-0.00096703423
-9.2206692e-07
-6.5921606e-05