/*--------------------------------*- C++ -*----------------------------------*\
| =========                 |                                                 |
| \\      /  F ield         | OpenFOAM: The Open Source CFD Toolbox           |
|  \\    /   O peration     | Version:  2406                                  |
|   \\  /    A nd           | Website:  www.openfoam.com                      |
|    \\/     M anipulation  |                                                 |
\*---------------------------------------------------------------------------*/
FoamFile
{
    version     2.0;
    format      ascii;
    arch        "LSB;label=32;scalar=64";
    class       volVectorField;
    location    "6";
    object      U;
}
// * * * * * * * * * * * * * * * * * * * * * * * * * * * * * * * * * * * * * //

dimensions      [0 1 -1 0 0 0 0];

internalField   nonuniform List<vector> 
34560
(
(-0.070991722 0.013860871 0.030163264)
(-0.25246762 0.045670399 0.099136711)
(-0.51128492 0.087365097 0.18132954)
(-0.84670824 0.13469354 0.26602033)
(-1.2246874 0.18186843 0.33476378)
(-1.5841148 0.22673104 0.37289522)
(-1.8681528 0.27276247 0.37913033)
(-2.0523307 0.3221296 0.36315992)
(-2.1413215 0.36860579 0.33880509)
(-0.071307358 0.016697162 0.033836334)
(-0.26012812 0.054650585 0.11080924)
(-0.53624352 0.10306362 0.20065305)
(-0.89578198 0.15548407 0.28959111)
(-1.2928275 0.20475418 0.3566629)
(-1.6535814 0.2497445 0.38847243)
(-1.919526 0.29583204 0.38719904)
(-2.0756041 0.34479757 0.36552998)
(-2.1398746 0.39171461 0.33604575)
(-0.067880006 0.017390506 0.035130875)
(-0.25721551 0.057912378 0.11582136)
(-0.54452667 0.1101252 0.20985067)
(-0.92295137 0.16584366 0.3015233)
(-1.3333192 0.216446 0.36775691)
(-1.6897545 0.2614494 0.39560755)
(-1.9349453 0.30722821 0.38968102)
(-2.065919 0.35787225 0.36442039)
(-2.1079991 0.40433915 0.33264911)
(-0.061173176 0.017868657 0.036252652)
(-0.244619 0.06000858 0.11977867)
(-0.53691047 0.11418558 0.21642071)
(-0.92876798 0.17093031 0.30914607)
(-1.3478335 0.22095769 0.37367761)
(-1.6966582 0.26504582 0.39847013)
(-1.9220627 0.31123134 0.39017118)
(-2.0263269 0.36093733 0.36348077)
(-2.047774 0.40663618 0.33202938)
(-0.050992216 0.017209624 0.036663757)
(-0.22161224 0.05885712 0.12158455)
(-0.51238782 0.11306722 0.21964419)
(-0.9126362 0.16929872 0.31266143)
(-1.337296 0.21795946 0.37616247)
(-1.6778656 0.26038796 0.39963121)
(-1.8799562 0.30524487 0.39046927)
(-1.9583359 0.35371688 0.36438362)
(-1.9599816 0.39845912 0.33471233)
(-0.037839891 0.015727341 0.036520135)
(-0.18929576 0.055023524 0.12160072)
(-0.47217265 0.10706456 0.2200785)
(-0.87586759 0.16088286 0.31350206)
(-1.3024525 0.20678049 0.37683051)
(-1.6310915 0.2468251 0.40039691)
(-1.8093059 0.28989729 0.39228203)
(-1.8624557 0.33621857 0.36862277)
(-1.8446043 0.3796992 0.34146451)
(-0.022289107 0.013677767 0.036298651)
(-0.14880108 0.049045654 0.12114369)
(-0.4170705 0.096847933 0.21961433)
(-0.81798255 0.14628908 0.31340317)
(-1.24206 0.1881376 0.37749683)
(-1.5567402 0.22486838 0.40285967)
(-1.710601 0.26515152 0.39744523)
(-1.7390922 0.30859123 0.37722376)
(-1.7019609 0.34992009 0.3529792)
(-0.0049429936 0.011032074 0.03601088)
(-0.10169189 0.040915062 0.12042503)
(-0.34920158 0.082533376 0.21892178)
(-0.74131006 0.12591675 0.31368399)
(-1.1585615 0.16269001 0.37978431)
(-1.4573853 0.19521233 0.40848955)
(-1.5868073 0.23113907 0.40726533)
(-1.5905637 0.27093571 0.3908855)
(-1.5345715 0.30884668 0.36958961)
(0.012935363 0.0081084282 0.035808755)
(-0.051566765 0.031433042 0.11993002)
(-0.27390449 0.065190034 0.21877451)
(-0.65220198 0.10091718 0.31526363)
(-1.0587383 0.13146337 0.38449771)
(-1.3400101 0.15876956 0.41774683)
(-1.4454251 0.18889247 0.42173747)
(-1.4242131 0.22352307 0.40939339)
(-1.3500347 0.25639291 0.3906618)
(0.029482518 0.005288558 0.035750163)
(-0.0040491668 0.021657767 0.11985988)
(-0.20011749 0.046373105 0.2194258)
(-0.56183833 0.073058822 0.31826498)
(-0.95495837 0.096282185 0.39123806)
(-1.2174975 0.11799235 0.42911496)
(-1.3017495 0.13890848 0.43929248)
(-1.256161 0.1671437 0.4307883)
(-1.1652537 0.1931002 0.41390188)
(0.04239019 0.0029124867 0.035840871)
(0.033700908 0.012532467 0.12019892)
(-0.14003326 0.027544289 0.22071328)
(-0.48601591 0.043987047 0.32194708)
(-0.8658112 0.058498706 0.39840984)
(-1.1115438 0.072386733 0.4405742)
(-1.1785607 0.085421302 0.45536488)
(-1.1122021 0.10365688 0.45073815)
(-1.0076178 0.12049726 0.4349515)
(0.049765794 0.00095380284 0.035943028)
(0.055562262 0.0041714884 0.12056176)
(-0.10463142 0.009243744 0.22172327)
(-0.4405445 0.014793199 0.32446865)
(-0.81173978 0.01971459 0.40311417)
(-1.0471271 0.024505253 0.44799548)
(-1.1038251 0.028992965 0.46553599)
(-1.0249526 0.035395321 0.46332732)
(-0.91236796 0.04133299 0.44805153)
(0.049765783 -0.00095388777 0.035943037)
(0.055562225 -0.0041717401 0.1205618)
(-0.10463149 -0.0092441603 0.22172331)
(-0.44054459 -0.014793776 0.3244687)
(-0.81173984 -0.019715253 0.40311419)
(-1.0471272 -0.02450589 0.4479955)
(-1.1038252 -0.028993453 0.46553599)
(-1.0249526 -0.03539539 0.46332726)
(-0.91236781 -0.041332565 0.44805138)
(0.042390156 -0.002912554 0.035840879)
(0.033700799 -0.012532666 0.12019896)
(-0.14003346 -0.027544634 0.22071335)
(-0.48601616 -0.043987583 0.32194721)
(-0.86581139 -0.05849939 0.39840994)
(-1.1115439 -0.072387441 0.44057426)
(-1.1785607 -0.085421868 0.45536486)
(-1.112202 -0.10365702 0.45073796)
(-1.0076174 -0.12049689 0.43495115)
(0.029482464 -0.005288598 0.035750158)
(-0.0040493494 -0.021657898 0.11985988)
(-0.20011783 -0.046373381 0.2194259)
(-0.56183878 -0.07305934 0.31826517)
(-0.95495874 -0.096282902 0.39123824)
(-1.2174977 -0.11799314 0.42911506)
(-1.3017495 -0.13890915 0.43929243)
(-1.2561608 -0.16714395 0.43078804)
(-1.1652534 -0.19309994 0.41390146)
(0.012935298 -0.0081084605 0.035808796)
(-0.05156698 -0.031433171 0.1199301)
(-0.27390487 -0.065190315 0.2187747)
(-0.65220251 -0.10091771 0.31526389)
(-1.0587387 -0.1314641 0.38449797)
(-1.3400104 -0.15877038 0.417747)
(-1.445425 -0.18889317 0.42173743)
(-1.4242129 -0.22352341 0.40939315)
(-1.3500346 -0.25639277 0.39066146)
(-0.0049430532 -0.011032127 0.036010979)
(-0.10169209 -0.040915248 0.1204252)
(-0.34920193 -0.082533707 0.21892202)
(-0.74131057 -0.12591728 0.31368429)
(-1.158562 -0.16269071 0.37978462)
(-1.4573856 -0.1952131 0.4084898)
(-1.5868074 -0.23113978 0.40726542)
(-1.5905638 -0.27093614 0.39088538)
(-1.5345715 -0.30884663 0.36958942)
(-0.022289166 -0.013677827 0.036298732)
(-0.14880128 -0.049045852 0.1211438)
(-0.41707085 -0.096848278 0.21961453)
(-0.81798303 -0.14628956 0.31340345)
(-1.2420605 -0.18813819 0.37749712)
(-1.5567407 -0.22486908 0.40286001)
(-1.7106014 -0.26515222 0.39744552)
(-1.7390925 -0.30859172 0.37722383)
(-1.7019609 -0.34992001 0.35297913)
(-0.037839931 -0.015727381 0.036520177)
(-0.1892959 -0.055023646 0.12160079)
(-0.47217289 -0.10706481 0.22007863)
(-0.87586793 -0.16088322 0.31350222)
(-1.302453 -0.20678099 0.3768308)
(-1.6310922 -0.24682571 0.40039739)
(-1.8093065 -0.28989793 0.39228249)
(-1.862456 -0.33621907 0.36862295)
(-1.8446043 -0.37969917 0.34146458)
(-0.050992258 -0.017209636 0.036663804)
(-0.22161239 -0.058857212 0.12158457)
(-0.51238808 -0.11306738 0.21964426)
(-0.91263656 -0.16929897 0.3126616)
(-1.3372965 -0.21795989 0.37616287)
(-1.6778663 -0.26038851 0.3996318)
(-1.8799567 -0.30524537 0.39046985)
(-1.9583363 -0.35371721 0.36438392)
(-1.9599819 -0.39845923 0.33471249)
(-0.061173195 -0.017868651 0.03625266)
(-0.24461907 -0.060008644 0.1197786)
(-0.53691059 -0.11418565 0.21642074)
(-0.92876815 -0.17093048 0.30914626)
(-1.3478338 -0.22095799 0.37367801)
(-1.6966586 -0.26504626 0.39847068)
(-1.9220632 -0.3112317 0.39017171)
(-2.0263274 -0.36093749 0.36348122)
(-2.0477743 -0.406636 0.33202945)
(-0.067879997 -0.017390465 0.035130868)
(-0.25721548 -0.057912331 0.1158213)
(-0.54452661 -0.11012511 0.20985068)
(-0.9229513 -0.16584368 0.30152341)
(-1.3333192 -0.21644614 0.3677572)
(-1.6897546 -0.26144968 0.39560797)
(-1.9349458 -0.30722845 0.38968152)
(-2.0659194 -0.35787219 0.36442067)
(-2.1079997 -0.40433882 0.33264918)
(-0.071307348 -0.016697102 0.033836308)
(-0.26012808 -0.054650486 0.11080916)
(-0.53624346 -0.1030635 0.20065298)
(-0.89578189 -0.15548405 0.28959108)
(-1.2928273 -0.20475425 0.356663)
(-1.6535813 -0.24974455 0.3884726)
(-1.9195263 -0.29583216 0.3871992)
(-2.0756046 -0.34479754 0.36553026)
(-2.1398752 -0.39171426 0.33604588)
(-0.070991703 -0.01386083 0.030163232)
(-0.25246755 -0.045670345 0.099136611)
(-0.51128478 -0.087365042 0.18132943)
(-0.84670797 -0.13469359 0.26602019)
(-1.224687 -0.18186855 0.3347636)
(-1.5841144 -0.22673108 0.37289516)
(-1.8681527 -0.27276237 0.37913051)
(-2.0523309 -0.32212955 0.36315984)
(-2.1413223 -0.36860613 0.33880544)
(-0.080811794 -0.00012113772 -0.00024946771)
(-0.26993308 -0.00080889689 -0.0013919405)
(-0.51665096 -0.0023518787 -0.0039159287)
(-0.81356069 -0.0058237511 -0.008125072)
(-1.1345222 -0.012529688 -0.013681385)
(-1.4374411 -0.022936576 -0.019416497)
(-1.6785669 -0.036184391 -0.024118483)
(-1.8355847 -0.050746657 -0.027248415)
(-1.9095632 -0.064779511 -0.028661614)
(-0.087881723 -0.0012494782 -0.0012286372)
(-0.29283936 -0.0042400417 -0.0044171426)
(-0.55828948 -0.0082895516 -0.009331728)
(-0.87278856 -0.014365617 -0.015825246)
(-1.2036128 -0.023637633 -0.022798365)
(-1.5028363 -0.036304917 -0.028523816)
(-1.7262923 -0.05124979 -0.031960801)
(-1.8585924 -0.066839823 -0.033298984)
(-1.9132437 -0.081198274 -0.033419185)
(-0.093536473 -0.0025702655 -0.0021113967)
(-0.31133403 -0.0081833486 -0.0071688729)
(-0.59197425 -0.01495441 -0.014261418)
(-0.92010665 -0.02360782 -0.022690459)
(-1.2569258 -0.035080638 -0.030547521)
(-1.5495964 -0.049360914 -0.035727695)
(-1.7547733 -0.065275532 -0.037613465)
(-1.8650567 -0.081284373 -0.037111584)
(-1.9051257 -0.095655105 -0.035773899)
(-0.098441436 -0.0041173884 -0.0029087216)
(-0.32726295 -0.012688054 -0.0096407645)
(-0.62071033 -0.022350043 -0.018676716)
(-0.95980893 -0.033481143 -0.028721753)
(-1.3004275 -0.046770807 -0.03705726)
(-1.5858319 -0.062131925 -0.04135601)
(-1.7741868 -0.078546623 -0.041570118)
(-1.8656835 -0.094580757 -0.039316828)
(-1.8938856 -0.1085877 -0.036668661)
(-0.10222409 -0.0056786233 -0.0034862352)
(-0.33978193 -0.017178648 -0.011457816)
(-0.64358952 -0.029597663 -0.021992964)
(-0.99155138 -0.042920691 -0.033228789)
(-1.3349256 -0.057609061 -0.041687379)
(-1.613742 -0.073606824 -0.04490903)
(-1.7878217 -0.09011599 -0.043517053)
(-1.8638483 -0.10579017 -0.039787859)
(-1.8822357 -0.11896853 -0.036110612)
(-0.10509812 -0.0071175754 -0.0037471682)
(-0.34944603 -0.021251704 -0.012336109)
(-0.6614484 -0.03602205 -0.023787089)
(-1.0164239 -0.051010219 -0.035736414)
(-1.3617984 -0.066497245 -0.04399959)
(-1.6350128 -0.08255488 -0.046066722)
(-1.7973979 -0.098635034 -0.04323907)
(-1.8610065 -0.11351811 -0.03835008)
(-1.8713762 -0.12550032 -0.033985814)
(-0.10734961 -0.0082216418 -0.0037027413)
(-0.35699168 -0.024291003 -0.012292877)
(-0.67535743 -0.040649155 -0.024038658)
(-1.0356922 -0.056530101 -0.036191206)
(-1.3823835 -0.072086615 -0.043969261)
(-1.6508892 -0.087557068 -0.044856286)
(-1.8038923 -0.10264266 -0.040807556)
(-1.8577743 -0.11632225 -0.035076481)
(-1.8616776 -0.12681094 -0.030339659)
(-0.10881491 -0.0087027537 -0.0033350697)
(-0.36209558 -0.025515175 -0.011293276)
(-0.68505327 -0.042297371 -0.022721638)
(-1.0493965 -0.058049371 -0.034624341)
(-1.3971213 -0.072841975 -0.041730826)
(-1.6620601 -0.087057702 -0.041509688)
(-1.8079042 -0.10064876 -0.03651022)
(-1.8544276 -0.11270011 -0.030238053)
(-1.8532345 -0.12147572 -0.02540529)
(-0.10959938 -0.0083311174 -0.0027148536)
(-0.36507283 -0.024291038 -0.0095430074)
(-0.69107862 -0.039999514 -0.020163115)
(-1.0582933 -0.054385323 -0.031470301)
(-1.4068965 -0.067475814 -0.037815498)
(-1.6693358 -0.079756896 -0.036650054)
(-1.809964 -0.091248237 -0.030888138)
(-1.8510841 -0.10128236 -0.024348203)
(-1.845996 -0.10822013 -0.019648708)
(-0.10991953 -0.0069776917 -0.0019733492)
(-0.3665621 -0.020270191 -0.0074250782)
(-0.69445161 -0.033231693 -0.016977112)
(-1.0636026 -0.044904017 -0.027522587)
(-1.4128757 -0.055294943 -0.033135114)
(-1.6736438 -0.064852556 -0.03121854)
(-1.8106427 -0.073655555 -0.024910589)
(-1.8479193 -0.081261543 -0.018281491)
(-1.8399624 -0.08628037 -0.013838811)
(-0.1102859 -0.0046915854 -0.001312464)
(-0.36781867 -0.013581673 -0.0055246939)
(-0.69685239 -0.022188421 -0.014076643)
(-1.0670122 -0.029844702 -0.023908216)
(-1.416434 -0.036552506 -0.028918518)
(-1.6759117 -0.042640436 -0.026475897)
(-1.8104776 -0.04819976 -0.0198207)
(-1.8451834 -0.052976835 -0.013191531)
(-1.8353019 -0.056021356 -0.0090152598)
(-0.11017706 -0.0016625443 -0.00093791868)
(-0.36773525 -0.0048010202 -0.0044417067)
(-0.697105 -0.0078208575 -0.012393374)
(-1.0677856 -0.010496227 -0.021781432)
(-1.4174867 -0.012833551 -0.026437263)
(-1.6765666 -0.014944423 -0.023711431)
(-1.8100815 -0.016859346 -0.016878981)
(-1.8435458 -0.01849506 -0.010265086)
(-1.8326745 -0.019515403 -0.0062523511)
(-0.11017705 0.0016625526 -0.00093792187)
(-0.36773524 0.0048010449 -0.0044417013)
(-0.69710498 0.0078208907 -0.012393367)
(-1.0677856 0.010496251 -0.021781421)
(-1.4174866 0.012833546 -0.026437252)
(-1.6765666 0.014944385 -0.023711421)
(-1.8100815 0.01685929 -0.016878973)
(-1.8435459 0.018495055 -0.010265089)
(-1.8326745 0.019515528 -0.0062523673)
(-0.11028589 0.0046915938 -0.0013124679)
(-0.36781866 0.013581705 -0.0055246841)
(-0.69685235 0.022188468 -0.014076631)
(-1.0670122 0.029844737 -0.023908191)
(-1.4164339 0.036552502 -0.028918486)
(-1.6759117 0.04264039 -0.026475869)
(-1.8104777 0.048199702 -0.019820684)
(-1.8451835 0.052976833 -0.013191541)
(-1.835302 0.056021471 -0.0090152963)
(-0.10991952 0.0069777007 -0.0019733469)
(-0.36656207 0.020270227 -0.0074250742)
(-0.69445155 0.033231745 -0.016977095)
(-1.0636026 0.044904051 -0.027522552)
(-1.4128756 0.055294935 -0.033135062)
(-1.6736438 0.064852502 -0.031218496)
(-1.8106427 0.073655491 -0.024910569)
(-1.8479194 0.081261539 -0.018281503)
(-1.8399625 0.086280488 -0.013838842)
(-0.10959937 0.0083311213 -0.0027148439)
(-0.36507281 0.024291057 -0.0095430095)
(-0.69107858 0.039999541 -0.020163087)
(-1.0582933 0.054385328 -0.031470254)
(-1.4068964 0.067475787 -0.037815429)
(-1.6693358 0.079756829 -0.036649995)
(-1.809964 0.091248162 -0.030888115)
(-1.8510841 0.10128236 -0.024348221)
(-1.8459962 0.10822028 -0.019648725)
(-0.1088149 0.0087027458 -0.0033350567)
(-0.36209555 0.025515159 -0.011293262)
(-0.68505321 0.042297351 -0.022721584)
(-1.0493965 0.05804933 -0.034624271)
(-1.3971212 0.072841911 -0.041730737)
(-1.6620601 0.087057612 -0.041509619)
(-1.8079041 0.10064866 -0.036510197)
(-1.8544277 0.11270009 -0.030238082)
(-1.8532348 0.12147589 -0.025405317)
(-0.10734959 0.0082216324 -0.0037027279)
(-0.35699163 0.024290981 -0.012292843)
(-0.67535733 0.040649115 -0.0240386)
(-1.0356921 0.056530033 -0.036191128)
(-1.3823834 0.072086513 -0.043969167)
(-1.6508891 0.087556942 -0.044856215)
(-1.8038923 0.10264254 -0.040807527)
(-1.8577745 0.1163222 -0.035076532)
(-1.8616779 0.12681111 -0.030339739)
(-0.10509811 0.0071175679 -0.0037471579)
(-0.34944598 0.021251686 -0.01233607)
(-0.66144831 0.036022007 -0.023787023)
(-1.0164238 0.051010134 -0.035736322)
(-1.3617983 0.066497104 -0.043999478)
(-1.6350128 0.082554705 -0.04606663)
(-1.7973979 0.098634863 -0.043239033)
(-1.8610067 0.11351802 -0.038350173)
(-1.8713764 0.12550042 -0.033985944)
(-0.10222407 0.0056786165 -0.0034862296)
(-0.33978188 0.017178638 -0.011457775)
(-0.64358942 0.029597625 -0.021992901)
(-0.99155121 0.042920604 -0.033228688)
(-1.3349254 0.057608902 -0.041687256)
(-1.6137419 0.073606605 -0.04490893)
(-1.7878218 0.090115778 -0.043517031)
(-1.8638485 0.10579004 -0.039787967)
(-1.8822358 0.11896851 -0.036110742)
(-0.098441416 0.0041173816 -0.0029087182)
(-0.32726289 0.012688044 -0.0096407307)
(-0.62071021 0.022350009 -0.018676655)
(-0.95980875 0.033481063 -0.02872165)
(-1.3004272 0.046770653 -0.03705713)
(-1.5858317 0.062131687 -0.041355909)
(-1.7741868 0.078546362 -0.041570107)
(-1.8656836 0.094580557 -0.039316884)
(-1.8938856 0.10858764 -0.036668779)
(-0.093536454 0.0025702692 -0.0021113972)
(-0.31133396 0.0081833545 -0.007168865)
(-0.59197412 0.014954401 -0.014261392)
(-0.92010647 0.023607766 -0.022690401)
(-1.2569255 0.035080521 -0.030547425)
(-1.5495962 0.049360709 -0.035727607)
(-1.7547732 0.065275212 -0.037613407)
(-1.8650567 0.081284052 -0.037111593)
(-1.9051258 0.09565513 -0.035774093)
(-0.087881704 0.001249492 -0.0012286468)
(-0.29283929 0.0042400697 -0.0044171636)
(-0.55828934 0.0082895717 -0.009331746)
(-0.87278836 0.014365585 -0.015825248)
(-1.2036125 0.023637538 -0.022798314)
(-1.502836 0.036304792 -0.028523695)
(-1.7262921 0.051249587 -0.031960709)
(-1.8585925 0.066839549 -0.033299214)
(-1.9132438 0.081198279 -0.033419556)
(-0.080811788 0.00012114099 -0.00024947697)
(-0.26993304 0.00080889714 -0.0013919647)
(-0.51665088 0.002351864 -0.0039159495)
(-0.81356055 0.0058236847 -0.0081250763)
(-1.134522 0.012529561 -0.013681361)
(-1.4374409 0.022936392 -0.019416434)
(-1.6785666 0.036184212 -0.024118496)
(-1.8355847 0.050746636 -0.027248903)
(-1.9095634 0.064779418 -0.028662004)
(-0.072792775 0.00097253648 0.00090060037)
(-0.24375271 0.0030506846 0.0028463799)
(-0.46904819 0.0053889752 0.0050686188)
(-0.74478809 0.0075819608 0.0072326761)
(-1.0494972 0.0091275642 0.0088129734)
(-1.3439867 0.0096721816 0.0093660293)
(-1.5830758 0.0092269096 0.0088252398)
(-1.7402496 0.0081082677 0.0075601886)
(-1.812651 0.006613448 0.0060275105)
(-0.078108495 0.0010072627 0.00082942491)
(-0.26124303 0.0031187945 0.0026150188)
(-0.50156951 0.005413701 0.0046463625)
(-0.79234303 0.0074385645 0.0065822444)
(-1.1064858 0.0086815477 0.0078731576)
(-1.398728 0.0088295353 0.0080702028)
(-1.6220891 0.0079661525 0.0071413839)
(-1.7556583 0.0064944767 0.0055271032)
(-1.8088575 0.004866218 0.0037036711)
(-0.082280654 0.00095218855 0.00068259177)
(-0.27508037 0.0029413814 0.0021679167)
(-0.52733245 0.0050753323 0.0038903076)
(-0.82946508 0.0068957048 0.0055596656)
(-1.1491079 0.0079067288 0.0066443339)
(-1.4356412 0.0078330413 0.0066636029)
(-1.6416873 0.0067932435 0.0055502645)
(-1.75348 0.0052208423 0.0037559162)
(-1.791725 0.0036056415 0.0019192195)
(-0.085804457 0.0008634264 0.00053811832)
(-0.28669594 0.0026599045 0.0017206044)
(-0.54876703 0.0045680213 0.003122427)
(-0.85979671 0.0061512039 0.0045060351)
(-1.1826782 0.0069495794 0.005367877)
(-1.4623196 0.006721383 0.0052187944)
(-1.651762 0.0055970544 0.0039779847)
(-1.744288 0.0040088758 0.0021225343)
(-1.7699222 0.0024384541 0.00038775865)
(-0.088381908 0.00072515345 0.00039090686)
(-0.29541516 0.0022446586 0.0012695149)
(-0.56514661 0.0038684391 0.0023546746)
(-0.88308488 0.0052040919 0.0034639806)
(-1.2080025 0.0058297731 0.0041194945)
(-1.4809752 0.0055173097 0.003824582)
(-1.6556642 0.0043858865 0.0025012563)
(-1.7317062 0.0028539448 0.00066053602)
(-1.7465137 0.0013947208 -0.00090477678)
(-0.090270522 0.00056391041 0.000255385)
(-0.3019143 0.0017647673 0.00085310257)
(-0.57748607 0.0030735269 0.0016457012)
(-0.90059568 0.0041582895 0.0025028329)
(-1.226565 0.0046415595 0.0029716174)
(-1.4933502 0.0043001692 0.0025531327)
(-1.6553589 0.0032265323 0.0011815755)
(-1.7176044 0.0018176899 -0.00059187653)
(-1.7232388 0.00051259366 -0.001962072)
(-0.091689252 0.00039841169 0.00014795089)
(-0.30678006 0.001271991 0.00051834459)
(-0.5866695 0.0022616164 0.0010645083)
(-0.91341179 0.0031037983 0.0016982431)
(-1.2395629 0.0034696343 0.0019933347)
(-1.5006843 0.0031395763 0.0014617254)
(-1.6520522 0.0021742453 6.1383476e-05)
(-1.7030753 0.0009331719 -0.0016237339)
(-1.7011382 -0.00018884931 -0.0027923419)
(-0.092517822 0.00024411832 6.9787476e-05)
(-0.30978672 0.00081218077 0.00027094362)
(-0.5925517 0.0015040648 0.00062464355)
(-0.92168079 0.0021248281 0.0010732625)
(-1.247562 0.002396077 0.0012157779)
(-1.5038937 0.002105957 0.00058381525)
(-1.6467253 0.0012837806 -0.00083498428)
(-1.6889606 0.00023992123 -0.0024276356)
(-1.6810231 -0.00068453244 -0.0034124426)
(-0.09285958 0.00011975152 2.103964e-05)
(-0.31125199 0.00043618296 0.00011128414)
(-0.59570471 0.00087446087 0.00032804027)
(-0.92625183 0.0013018321 0.00063264479)
(-1.2516525 0.0014944729 0.00064723115)
(-1.5041713 0.0012601634 -7.0494188e-05)
(-1.6404621 0.00060317067 -0.0015000213)
(-1.6760956 -0.00022405762 -0.0030094102)
(-1.6636289 -0.00093632313 -0.0038424197)
(-0.092911062 3.7494969e-05 -3.2724988e-06)
(-0.31176793 0.00017753676 2.5729066e-05)
(-0.59711932 0.00042179373 0.00015612578)
(-0.92842414 0.00068874408 0.00035824754)
(-1.2532707 0.00081388135 0.00027366822)
(-1.5028893 0.00064215844 -0.00051272315)
(-1.6344166 0.00016414733 -0.0019484858)
(-1.6653432 -0.00043484312 -0.0033980808)
(-1.6496628 -0.00094658668 -0.0041180145)
(-0.093097751 -1.1807877e-06 -1.1245446e-05)
(-0.31240964 4.0407116e-05 -7.9716452e-06)
(-0.59830979 0.00015255518 7.667155e-05)
(-0.92986488 0.0002930652 0.00021433681)
(-1.2539933 0.00036147554 6.0594361e-05)
(-1.5014054 0.00025592134 -0.00077610483)
(-1.6296734 -3.4757462e-05 -0.0022186311)
(-1.657534 -0.00039457991 -0.003632392)
(-1.6397974 -0.00070298609 -0.0042788707)
(-0.092950573 -5.1070177e-06 -1.2096288e-05)
(-0.31215227 5.3797678e-07 -1.5814694e-05)
(-0.59814888 3.1302274e-05 5.0986409e-05)
(-0.9298464 7.4165062e-05 0.0001587609)
(-1.2537665 9.5477741e-05 -2.9581545e-05)
(-1.5002501 5.9444389e-05 -0.00089242597)
(-1.6270169 -3.8539379e-05 -0.0023397243)
(-1.6534162 -0.00015895624 -0.003739051)
(-1.6346785 -0.00026062537 -0.004351698)
(-0.092950573 5.095256e-06 -1.209515e-05)
(-0.31215227 -5.6764202e-07 -1.5809078e-05)
(-0.59814888 -3.1352216e-05 5.0993694e-05)
(-0.9298464 -7.4240497e-05 0.00015876807)
(-1.2537665 -9.5573018e-05 -2.9576406e-05)
(-1.5002501 -5.9544487e-05 -0.00089242279)
(-1.6270169 3.8471161e-05 -0.0023397244)
(-1.6534162 0.00015899038 -0.0037390572)
(-1.6346785 0.00026084094 -0.0043517012)
(-0.093097752 1.1676992e-06 -1.1242646e-05)
(-0.31240965 -4.0438672e-05 -7.9610827e-06)
(-0.59830979 -0.000152606 7.6685684e-05)
(-0.92986488 -0.00029314098 0.00021435324)
(-1.2539933 -0.00036157337 6.0609621e-05)
(-1.5014054 -0.00025602838 -0.00077609429)
(-1.6296734 3.4681097e-05 -0.002218632)
(-1.6575341 0.00039460927 -0.0036324118)
(-1.6397975 0.00070319907 -0.0042788876)
(-0.092911065 -3.7508452e-05 -3.2673137e-06)
(-0.31176794 -0.00017756898 2.574106e-05)
(-0.59711932 -0.00042184714 0.00015614386)
(-0.92842415 -0.00068882775 0.00035827301)
(-1.2532707 -0.00081399134 0.00027369784)
(-1.5028893 -0.00064228165 -0.00051270014)
(-1.6344166 -0.00016423939 -0.0019484877)
(-1.6653433 0.00043486193 -0.0033981189)
(-1.6496629 0.00094679126 -0.0041180622)
(-0.092859585 -0.00011976716 2.1048855e-05)
(-0.311252 -0.0004362203 0.00011130328)
(-0.59570472 -0.00087452427 0.0003280749)
(-0.92625185 -0.0013019334 0.00063269229)
(-1.2516525 -0.001494606 0.00064728194)
(-1.5041712 -0.0012603109 -7.0458208e-05)
(-1.640462 -0.00060328391 -0.0015000288)
(-1.6760956 0.00022405746 -0.0030094742)
(-1.6636291 0.00093650029 -0.0038425096)
(-0.092517826 -0.00024413787 6.9801027e-05)
(-0.30978673 -0.00081222793 0.00027097756)
(-0.59255171 -0.0015041451 0.00062470207)
(-0.92168079 -0.0021249506 0.0010733414)
(-1.247562 -0.0023962365 0.0012158549)
(-1.5038936 -0.0021061323 0.00058386208)
(-1.6467253 -0.0012839223 -0.000835001)
(-1.6889607 -0.0002399563 -0.0024277256)
(-1.6810233 0.0006846571 -0.0034125673)
(-0.091689253 -0.00039843347 0.00014796658)
(-0.30678006 -0.0012720404 0.00051839648)
(-0.58666949 -0.0022617078 0.0010645894)
(-0.91341177 -0.0031039373 0.0016983521)
(-1.2395629 -0.0034698167 0.0019934351)
(-1.5006842 -0.0031397831 0.0014617803)
(-1.6520522 -0.0021744287 6.1361013e-05)
(-1.7030754 -0.00093326104 -0.0016238461)
(-1.7011384 0.00018892284 -0.0027924834)
(-0.090270524 -0.0005639338 0.0002553963)
(-0.3019143 -0.0017648123 0.00085316127)
(-0.57748607 -0.0030736197 0.0016457899)
(-0.90059566 -0.0041584362 0.0025029545)
(-1.226565 -0.0046417597 0.0029717347)
(-1.4933502 -0.0043004095 0.0025532017)
(-1.6553589 -0.003226769 0.0011815549)
(-1.7176045 -0.0018178457 -0.0005920229)
(-1.723239 -0.00051254995 -0.0019622186)
(-0.08838191 -0.00072517618 0.00039092207)
(-0.29541517 -0.0022446925 0.0012695908)
(-0.56514661 -0.0038685187 0.0023547786)
(-0.88308487 -0.0052042269 0.003464121)
(-1.2080024 -0.0058299755 0.0041196325)
(-1.4809752 -0.0055175771 0.0038246697)
(-1.6556642 -0.004386179 0.0025012383)
(-1.7317063 -0.0028541644 0.00066033079)
(-1.7465139 -0.0013947006 -0.00090495838)
(-0.08580446 -0.0008634443 0.00053813105)
(-0.28669594 -0.0026599223 0.001720667)
(-0.54876703 -0.0045680695 0.0031225145)
(-0.85979669 -0.0061513029 0.0045061599)
(-1.1826782 -0.0069497557 0.005368012)
(-1.4623196 -0.0067216516 0.0052188914)
(-1.6517621 -0.0055973617 0.0039779368)
(-1.7442881 -0.0040091111 0.0021222237)
(-1.7699224 -0.0024384765 0.00038748969)
(-0.082280657 -0.00095219246 0.0006825966)
(-0.27508037 -0.0029413652 0.0021679507)
(-0.52733244 -0.0050753263 0.0038903587)
(-0.82946508 -0.0068957393 0.0055597567)
(-1.1491079 -0.0079068419 0.0066444483)
(-1.4356412 -0.0078332712 0.0066636573)
(-1.6416874 -0.0067935636 0.005550143)
(-1.7534802 -0.0052210943 0.0037555387)
(-1.7917252 -0.0036056907 0.0019188748)
(-0.078108498 -0.0010072489 0.0008294167)
(-0.26124303 -0.0031187434 0.0026150082)
(-0.50156951 -0.0054136445 0.0046463506)
(-0.79234303 -0.0074385491 0.0065822475)
(-1.1064858 -0.0086816086 0.0078731693)
(-1.398728 -0.008829675 0.0080701575)
(-1.6220892 -0.0079663827 0.0071411324)
(-1.7556585 -0.0064947657 0.0055266204)
(-1.8088577 -0.0048664477 0.0037034026)
(-0.072792782 -0.00097251943 0.00090058169)
(-0.24375272 -0.0030506407 0.0028463336)
(-0.4690482 -0.005388924 0.0050685568)
(-0.7447881 -0.0075819439 0.0072326087)
(-1.0494972 -0.009127625 0.0088128992)
(-1.3439866 -0.0096723464 0.0093659008)
(-1.5830758 -0.0092271027 0.0088250013)
(-1.7402498 -0.0081083065 0.0075597461)
(-1.8126513 -0.0066135047 0.0060271675)
(-0.076874733 -0.00013148306 -0.00010933038)
(-0.25704751 -0.00047311013 -0.00036841362)
(-0.49325252 -0.0010228502 -0.00069708281)
(-0.77991429 -0.0019133394 -0.0010830992)
(-1.0933793 -0.0033089704 -0.0014840709)
(-1.3932712 -0.0053249684 -0.0018465479)
(-1.63526 -0.0079080401 -0.0021812739)
(-1.7948157 -0.010809451 -0.0025825438)
(-1.8701726 -0.013697843 -0.003139141)
(-0.082734302 -0.00017634355 -0.00013035818)
(-0.27628227 -0.00061089707 -0.00042478171)
(-0.52881487 -0.0012743042 -0.00078248654)
(-0.83153868 -0.0023119788 -0.0011871418)
(-1.1549051 -0.0039063532 -0.0015929242)
(-1.4525519 -0.0061800027 -0.0019522983)
(-1.6788024 -0.0090646239 -0.0023016334)
(-1.8151269 -0.012260603 -0.0027799671)
(-1.8720867 -0.0153258 -0.0035423649)
(-0.087460357 -0.0002175045 -0.00013987832)
(-0.29188414 -0.00073754525 -0.00045080165)
(-0.55762644 -0.0015003946 -0.00082213658)
(-0.8727156 -0.0026538757 -0.0012331936)
(-1.202119 -0.0043849953 -0.0016322539)
(-1.4943531 -0.0068155759 -0.0019724049)
(-1.7037407 -0.0098585802 -0.0023024352)
(-1.8190465 -0.013160717 -0.0027717335)
(-1.8621178 -0.016222409 -0.0034936804)
(-0.091639664 -0.00027510154 -0.00015473882)
(-0.30554884 -0.00090518341 -0.0004906083)
(-0.58256705 -0.0017783767 -0.00088260615)
(-0.90771855 -0.003033068 -0.0013027687)
(-1.2410754 -0.0048522844 -0.0016898968)
(-1.5269339 -0.0073568632 -0.0019954357)
(-1.7204004 -0.010449964 -0.0022736281)
(-1.8173752 -0.013744958 -0.0026649921)
(-1.8488306 -0.016708521 -0.003271471)
(-0.094959076 -0.00033013128 -0.00016105391)
(-0.31656952 -0.0010639788 -0.00050592242)
(-0.60287793 -0.0020351363 -0.00090306849)
(-0.93627942 -0.0033639817 -0.0013186079)
(-1.2725658 -0.0052204606 -0.0016810926)
(-1.5524563 -0.0077205982 -0.001937412)
(-1.732025 -0.010762353 -0.0021428586)
(-1.8134576 -0.013938776 -0.0024271114)
(-1.8349357 -0.016691249 -0.0028949085)
(-0.097671263 -0.00037600392 -0.00015449012)
(-0.32559787 -0.0011924794 -0.00048309826)
(-0.61951589 -0.0022306786 -0.00086144181)
(-0.95956421 -0.0035874314 -0.0012516146)
(-1.2979353 -0.0054138105 -0.0015709537)
(-1.5724658 -0.0078184024 -0.0017607415)
(-1.7402709 -0.01069917 -0.0018772679)
(-1.8088073 -0.013645039 -0.0020450175)
(-1.8217811 -0.016099182 -0.0023791488)
(-0.099990258 -0.00040288114 -0.00013669996)
(-0.33318759 -0.0012613406 -0.00042663151)
(-0.63328275 -0.0023174419 -0.00076340125)
(-0.9785061 -0.0036425459 -0.0011074136)
(-1.318158 -0.0053651517 -0.0013660481)
(-1.5879169 -0.0075836277 -0.0014753222)
(-1.7459784 -0.010200359 -0.0014942252)
(-1.8040798 -0.012819133 -0.0015494248)
(-1.8100053 -0.014918218 -0.0017669196)
(-0.10173239 -0.00039950501 -0.00010792019)
(-0.33893781 -0.0012394593 -0.00033817436)
(-0.64376108 -0.0022473838 -0.00061421993)
(-0.99291319 -0.0034713052 -0.00089722921)
(-1.3334055 -0.0050147843 -0.0010847781)
(-1.5992635 -0.0069636716 -0.0011081269)
(-1.7496306 -0.0092293115 -0.0010304147)
(-1.7996051 -0.011451577 -0.00098495679)
(-1.799909 -0.013163448 -0.0011120077)
(-0.10293706 -0.00036124581 -7.2937362e-05)
(-0.34297976 -0.0011137106 -0.00023169679)
(-0.65121632 -0.0020002501 -0.00043589081)
(-1.003228 -0.0030499489 -0.0006512553)
(-1.3442853 -0.0043421722 -0.00076683269)
(-1.6071529 -0.0059464203 -0.00070568642)
(-1.7517213 -0.0077878343 -0.00053478889)
(-1.7956264 -0.0095544782 -0.00038942535)
(-1.791672 -0.010769986 -0.0004512968)
(-0.10372933 -0.00028878785 -3.774157e-05)
(-0.34569963 -0.00088643842 -0.00012544621)
(-0.65630279 -0.0015811971 -0.00025964014)
(-1.0102982 -0.0023884062 -0.00041010844)
(-1.3516891 -0.0033644321 -0.0004605764)
(-1.6123521 -0.0045590951 -0.00032652464)
(-1.7527507 -0.0059163983 -7.16279e-05)
(-1.792371 -0.0071927947 0.00016080309)
(-1.7854275 -0.0080524689 0.00013500716)
(-0.10448915 -0.00018774232 -9.5084296e-06)
(-0.34801815 -0.00057386372 -4.0481387e-05)
(-0.66024732 -0.0010180277 -0.00011961869)
(-1.0153723 -0.0015269186 -0.00022012149)
(-1.3566724 -0.002134028 -0.00022107201)
(-1.61562 -0.0028706994 -3.1244209e-05)