/*--------------------------------*- C++ -*----------------------------------*\
  =========                 |
  \\      /  F ield         | OpenFOAM: The Open Source CFD Toolbox
   \\    /   O peration     | Website:  https://openfoam.org
    \\  /    A nd           | Version:  10
     \\/     M anipulation  |
\*---------------------------------------------------------------------------*/
FoamFile
{
    format      ascii;
    class       volScalarField;
    location    "26.5";
    object      T;
}
// * * * * * * * * * * * * * * * * * * * * * * * * * * * * * * * * * * * * * //

dimensions      [0 0 -1 0 0 0 0];

internalField   nonuniform List<scalar> 
100
(
1.10102
3.29283
5.45541
7.56958
9.61655
11.5782
13.437
15.1766
16.7815
18.2374
19.5314
20.6521
21.5895
22.3353
22.8828
23.2272
23.3654
23.2962
23.0203
22.54
21.8597
20.9853
19.9247
18.6873
17.2839
15.7272
14.0308
12.2099
10.2807
8.26018
6.16636
4.01781
1.8336
-0.366883
-2.56411
-4.73857
-6.87098
-8.94239
-10.9344
-12.8294
-14.6105
-16.2619
-17.769
-19.1184
-20.298
-21.2975
-22.108
-22.7222
-23.1347
-23.3419
-23.3419
-23.1347
-22.7222
-22.108
-21.2975
-20.298
-19.1183
-17.769
-16.2619
-14.6105
-12.8294
-10.9344
-8.94235
-6.87093
-4.73853
-2.56406
-0.366835
1.83365
4.01786
6.16641
8.26023
10.2807
12.21
14.0309
15.7272
17.284
18.6873
19.9248
20.9854
21.8597
22.5401
23.0203
23.2963
23.3654
23.2272
22.8828
22.3353
21.5895
20.6522
19.5315
18.2374
16.7815
15.1766
13.437
11.5782
9.61656
7.56959
5.45542
3.29283
1.10102
)
;

boundaryField
{
    xmin
    {
        type            fixedValue;
        value           uniform 0;
    }
    xmax
    {
        type            fixedValue;
        value           uniform 0;
    }
    frontAndBack
    {
        type            empty;
    }
}


// ************************************************************************* //
