/*--------------------------------*- C++ -*----------------------------------*\
| =========                 |                                                 |
| \\      /  F ield         | OpenFOAM: The Open Source CFD Toolbox           |
|  \\    /   O peration     | Version:  2406                                  |
|   \\  /    A nd           | Website:  www.openfoam.com                      |
|    \\/     M anipulation  |                                                 |
\*---------------------------------------------------------------------------*/
FoamFile
{
    version     2.0;
    format      ascii;
    arch        "LSB;label=32;scalar=64";
    class       volScalarField;
    location    "7";
    object      p;
}
// * * * * * * * * * * * * * * * * * * * * * * * * * * * * * * * * * * * * * //

dimensions      [0 2 -2 0 0 0 0];

internalField   nonuniform List<scalar> 
34560
(
-41.902911
-41.892012
-41.878609
-41.863988
-41.84884
-41.835899
-41.827765
-41.824856
-41.826056
-41.973051
-41.96033
-41.944141
-41.925513
-41.905315
-41.886984
-41.873623
-41.866356
-41.864638
-42.034111
-42.020037
-42.00204
-41.981065
-41.957795
-41.9357
-41.918124
-41.90655
-41.900611
-42.092027
-42.076722
-42.056996
-42.033727
-42.007554
-41.981955
-41.960337
-41.944201
-41.933346
-42.145908
-42.129532
-42.108295
-42.082997
-42.054184
-42.025288
-41.999746
-41.979029
-41.963263
-42.193383
-42.176365
-42.154131
-42.127351
-42.09642
-42.064678
-42.035569
-42.010572
-41.990232
-42.235333
-42.217731
-42.194605
-42.166518
-42.133722
-42.099477
-42.067192
-42.038372
-42.013961
-42.27094
-42.252896
-42.229071
-42.199921
-42.16556
-42.129185
-42.094157
-42.062059
-42.034175
-42.299852
-42.281501
-42.257159
-42.227179
-42.191564
-42.153447
-42.116123
-42.081346
-42.050636
-42.321594
-42.303069
-42.278397
-42.247835
-42.211295
-42.171855
-42.132768
-42.095963
-42.06311
-42.336133
-42.317481
-42.292585
-42.261641
-42.224487
-42.18416
-42.143891
-42.105726
-42.071335
-42.343538
-42.324813
-42.299784
-42.268612
-42.231105
-42.19029
-42.149398
-42.110537
-42.075343
-42.343538
-42.324814
-42.299785
-42.268612
-42.231105
-42.19029
-42.149398
-42.110538
-42.075343
-42.336135
-42.317482
-42.292586
-42.261642
-42.224488
-42.184161
-42.143892
-42.105727
-42.071335
-42.321595
-42.30307
-42.278398
-42.247836
-42.211296
-42.171856
-42.13277
-42.095965
-42.063111
-42.299854
-42.281503
-42.257161
-42.227181
-42.191567
-42.153449
-42.116125
-42.081348
-42.050638
-42.270943
-42.2529
-42.229075
-42.199924
-42.165563
-42.129187
-42.09416
-42.062062
-42.034178
-42.235338
-42.217736
-42.194609
-42.166521
-42.133726
-42.099481
-42.067196
-42.038375
-42.013965
-42.193387
-42.176369
-42.154135
-42.127355
-42.096425
-42.064683
-42.035573
-42.010577
-41.990236
-42.145913
-42.129537
-42.1083
-42.083001
-42.054188
-42.025292
-41.999751
-41.979034
-41.963267
-42.092031
-42.076726
-42.057
-42.033731
-42.007558
-41.98196
-41.960343
-41.944207
-41.933351
-42.034116
-42.020042
-42.002045
-41.98107
-41.9578
-41.935705
-41.91813
-41.906556
-41.900617
-41.973055
-41.960335
-41.944146
-41.925517
-41.90532
-41.88699
-41.873629
-41.866363
-41.864644
-41.902916
-41.892017
-41.878614
-41.863993
-41.848845
-41.835904
-41.82777
-41.824863
-41.826063
-39.031829
-39.031399
-39.030856
-39.030319
-39.029628
-39.028428
-39.026211
-39.022129
-39.016095
-39.036834
-39.036365
-39.03572
-39.034953
-39.033779
-39.031698
-39.02805
-39.022036
-39.013953
-39.041008
-39.040527
-39.039851
-39.039007
-39.03757
-39.034811
-39.029836
-39.021986
-39.01205
-39.045032
-39.044553
-39.043839
-39.042874
-39.041103
-39.0376
-39.031257
-39.021665
-39.010055
-39.048648
-39.048181
-39.047442
-39.04636
-39.044251
-39.039943
-39.032186
-39.020948
-39.007802
-39.051617
-39.051203
-39.050487
-39.049332
-39.046906
-39.041814
-39.032725
-39.019942
-39.005408
-39.054052
-39.053689
-39.052995
-39.051754
-39.049008
-39.043221
-39.03293
-39.018729
-39.002943
-39.055932
-39.055619
-39.054943
-39.053625
-39.050644
-39.044276
-39.032894
-39.017419
-39.000539
-39.057357
-39.057079
-39.056415
-39.055046
-39.051874
-39.044948
-39.032643
-39.016136
-38.998471
-39.058309
-39.058061
-39.057406
-39.055991
-39.052649
-39.045268
-39.03229
-39.01502
-38.996917
-39.058873
-39.058644
-39.058001
-39.056581
-39.053123
-39.045413
-39.031995
-39.014217
-38.995978
-39.059208
-39.058988
-39.058351
-39.05693
-39.053397
-39.045514
-39.031882
-39.013834
-38.99555
-39.059208
-39.058988
-39.058352
-39.05693
-39.053397
-39.045514
-39.031883
-39.013835
-38.99555
-39.058874
-39.058645
-39.058001
-39.056582
-39.053124
-39.045414
-39.031996
-39.014218
-38.995979
-39.058311
-39.058062
-39.057407
-39.055992
-39.052651
-39.045269
-39.032292
-39.015022
-38.996919
-39.057358
-39.05708
-39.056417
-39.055047
-39.051876
-39.04495
-39.032645
-39.016138
-38.998473
-39.055934
-39.055621
-39.054945
-39.053627
-39.050646
-39.044279
-39.032897
-39.017421
-39.000542
-39.054055
-39.053692
-39.052997
-39.051757
-39.049011
-39.043224
-39.032933
-39.018732
-39.002946
-39.05162
-39.051206
-39.05049
-39.049335
-39.046909
-39.041817
-39.032729
-39.019945
-39.005411
-39.048652
-39.048185
-39.047446
-39.046363
-39.044254
-39.039947
-39.03219
-39.020952
-39.007805
-39.045036
-39.044557
-39.043843
-39.042878
-39.041107
-39.037604
-39.031261
-39.021669
-39.010058
-39.041013
-39.040532
-39.039855
-39.03901
-39.037574
-39.034815
-39.02984
-39.02199
-39.012054
-39.036838
-39.036369
-39.035724
-39.034957
-39.033784
-39.031703
-39.028055
-39.022041
-39.013956
-39.031834
-39.031404
-39.030861
-39.030323
-39.029632
-39.028433
-39.026216
-39.022134
-39.016098
-37.873151
-37.872983
-37.872768
-37.872486
-37.872345
-37.872762
-37.874129
-37.876627
-37.879516
-37.880121
-37.879898
-37.879545
-37.878995
-37.878481
-37.878504
-37.879531
-37.881745
-37.884608
-37.88641
-37.886162
-37.885756
-37.885093
-37.884419
-37.884284
-37.885195
-37.887339
-37.890265
-37.892267
-37.891999
-37.891548
-37.890799
-37.890019
-37.889796
-37.890653
-37.892719
-37.895548
-37.897655
-37.897375
-37.896894
-37.896077
-37.89522
-37.894931
-37.89574
-37.897715
-37.900427
-37.902484
-37.902213
-37.901726
-37.900872
-37.899963
-37.899624
-37.900383
-37.902293
-37.904916
-37.906794
-37.906529
-37.90604
-37.905165
-37.904229
-37.903796
-37.904492
-37.906385
-37.908987
-37.910473
-37.910221
-37.909743
-37.908862
-37.907855
-37.907298
-37.90798
-37.909922
-37.912565
-37.913416
-37.913182
-37.912717
-37.911818
-37.91074
-37.910142
-37.910863
-37.912848
-37.91545
-37.915665
-37.91545
-37.915003
-37.914102
-37.912992
-37.912385
-37.913104
-37.915111
-37.917587
-37.917202
-37.917
-37.916562
-37.915638
-37.914512
-37.913921
-37.914626
-37.916658
-37.919063
-37.917952
-37.917756
-37.917319
-37.916384
-37.915268
-37.914692
-37.915377
-37.917427
-37.919752
-37.917952
-37.917756
-37.917319
-37.916384
-37.915268
-37.914692
-37.915378
-37.917428
-37.919753
-37.917203
-37.917001
-37.916563
-37.915639
-37.914512
-37.913922
-37.914626
-37.916659
-37.919063
-37.915666
-37.915452
-37.915004
-37.914104
-37.912993
-37.912386
-37.913105
-37.915112
-37.917589
-37.913418
-37.913184
-37.912718
-37.911819
-37.910741
-37.910143
-37.910864
-37.912849
-37.915451
-37.910475
-37.910223
-37.909745
-37.908863
-37.907857
-37.907299
-37.907982
-37.909923
-37.912567
-37.906796
-37.906531
-37.906042
-37.905167
-37.904231
-37.903798
-37.904494
-37.906387
-37.908989
-37.902486
-37.902215
-37.901728
-37.900874
-37.899966
-37.899626
-37.900385
-37.902295
-37.904918
-37.897657
-37.897377
-37.896896
-37.89608
-37.895223
-37.894933
-37.895743
-37.897717
-37.900429
-37.892269
-37.892001
-37.891551
-37.890802
-37.890022
-37.889799
-37.890656
-37.892722
-37.89555
-37.886412
-37.886164
-37.885758
-37.885095
-37.884421
-37.884287
-37.885198
-37.887342
-37.890267
-37.880123
-37.8799
-37.879548
-37.878997
-37.878483
-37.878507
-37.879534
-37.881746
-37.88461
-37.873153
-37.872985
-37.87277
-37.872488
-37.872347
-37.872764
-37.87413
-37.876627
-37.879516
-35.828968
-35.828883
-35.828812
-35.82882
-35.828879
-35.828858
-35.828569
-35.8278
-35.826337
-35.830458
-35.83034
-35.83021
-35.830116
-35.829994
-35.829677
-35.828931
-35.827561
-35.825582
-35.832154
-35.831996
-35.831818
-35.831667
-35.831457
-35.830978
-35.829961
-35.828232
-35.825924
-35.83387
-35.833673
-35.833445
-35.833238
-35.832951
-35.832348
-35.831116
-35.829068
-35.826374
-35.835515
-35.835284
-35.835011
-35.83475
-35.834387
-35.833658
-35.832212
-35.82985
-35.826776
-35.837002
-35.836751
-35.836449
-35.836149
-35.835722
-35.834883
-35.83324
-35.830589
-35.827166
-35.838307
-35.838038
-35.837713
-35.83738
-35.836902
-35.83597
-35.834161
-35.831264
-35.827532
-35.839404
-35.839124
-35.83878
-35.838423
-35.837902
-35.836895
-35.834954
-35.831852
-35.827856
-35.840284
-35.839995
-35.83964
-35.839265
-35.838712
-35.837647
-35.835602
-35.832336
-35.82812
-35.840942
-35.840649
-35.840285
-35.839899
-35.839324
-35.838219
-35.836096
-35.832699
-35.828276
-35.84138
-35.841082
-35.840714
-35.84032
-35.839733
-35.838602
-35.836425
-35.832934
-35.82832
-35.841599
-35.8413
-35.840929
-35.840532
-35.839939
-35.838796
-35.836594
-35.833059
-35.828382
-35.841599
-35.8413
-35.840929
-35.840532
-35.839939
-35.838796
-35.836594
-35.833059
-35.828382
-35.84138
-35.841083
-35.840714
-35.840321
-35.839733
-35.838602
-35.836426
-35.832934
-35.82832
-35.840943
-35.840649
-35.840286
-35.839899
-35.839325
-35.838219
-35.836096
-35.832699
-35.828276
-35.840284
-35.839995
-35.83964
-35.839265
-35.838712
-35.837648
-35.835603
-35.832336
-35.82812
-35.839404
-35.839124
-35.838781
-35.838424
-35.837902
-35.836895
-35.834954
-35.831853
-35.827857
-35.838307
-35.838039
-35.837713
-35.837381
-35.836902
-35.83597
-35.834162
-35.831265
-35.827533
-35.837002
-35.836751
-35.836449
-35.836149
-35.835722
-35.834883
-35.833241
-35.83059
-35.827167
-35.835515
-35.835284
-35.835012
-35.834751
-35.834387
-35.833659
-35.832212
-35.829851
-35.826778
-35.833871
-35.833673
-35.833445
-35.833239
-35.832952
-35.832348
-35.831116
-35.829069
-35.826376
-35.832154
-35.831996
-35.831818
-35.831667
-35.831457
-35.830978
-35.829961
-35.828233
-35.825926
-35.830458
-35.830339
-35.83021
-35.830115
-35.829994
-35.829677
-35.828931
-35.827562
-35.825584
-35.828968
-35.828883
-35.828812
-35.828819
-35.828879
-35.828858
-35.828569
-35.827801
-35.826339
-34.180836
-34.180908
-34.180998
-34.181091
-34.18122
-34.18144
-34.18181
-34.182346
-34.182749
-34.181727
-34.181791
-34.181853
-34.181889
-34.181929
-34.182031
-34.182248
-34.182564
-34.182829
-34.182641
-34.182695
-34.182738
-34.182742
-34.182738
-34.182796
-34.182967
-34.183241
-34.183562
-34.18343
-34.183472
-34.183498
-34.183479
-34.183455
-34.1835
-34.183662
-34.183923
-34.184249
-34.184107
-34.18414
-34.184152
-34.184112
-34.184066
-34.184095
-34.184245
-34.184487
-34.184802
-34.184702
-34.184727
-34.184727
-34.184669
-34.184601
-34.184612
-34.184743
-34.184962
-34.185256
-34.185198
-34.185217
-34.185207
-34.185135
-34.18505
-34.185046
-34.185159
-34.185354
-34.18562
-34.185606
-34.185619
-34.185601
-34.185516
-34.185418
-34.1854
-34.185497
-34.185669
-34.185901
-34.185928
-34.185938
-34.185913
-34.185819
-34.185708
-34.185679
-34.18576
-34.18591
-34.18611
-34.186173
-34.186179
-34.186148
-34.186046
-34.185926
-34.185886
-34.185952
-34.186084
-34.186253
-34.186338
-34.186342
-34.186307
-34.186199
-34.186071
-34.186023
-34.186078
-34.186194
-34.186339
-34.186415
-34.186418
-34.186382
-34.186272
-34.186141
-34.186088
-34.186137
-34.186246
-34.186378
-34.186415
-34.186418
-34.186382
-34.186272
-34.186141
-34.186088
-34.186137
-34.186246
-34.186378
-34.186338
-34.186341
-34.186306
-34.186198
-34.186071
-34.186022
-34.186077
-34.186194
-34.186339
-34.186172
-34.186178
-34.186148
-34.186045
-34.185925
-34.185886
-34.185952
-34.186083
-34.186253
-34.185928
-34.185937
-34.185912
-34.185818
-34.185707
-34.185678
-34.185759
-34.185909
-34.186109
-34.185604
-34.185618
-34.1856
-34.185515
-34.185417
-34.185399
-34.185495
-34.185668
-34.1859
-34.185197
-34.185215
-34.185205
-34.185133
-34.185049
-34.185044
-34.185157
-34.185353
-34.185619
-34.1847
-34.184725
-34.184725
-34.184667
-34.184599
-34.18461
-34.184741
-34.18496
-34.185255
-34.184104
-34.184138
-34.18415
-34.18411
-34.184063
-34.184093
-34.184242
-34.184485
-34.1848
-34.183427
-34.183469
-34.183496
-34.183477
-34.183452
-34.183497
-34.18366
-34.18392
-34.184247
-34.182638
-34.182692
-34.182735
-34.182739
-34.182735
-34.182793
-34.182965
-34.183238
-34.18356
-34.181724
-34.181788
-34.18185
-34.181886
-34.181925
-34.182028
-34.182245
-34.182561
-34.182826
-34.180833
-34.180905
-34.180994
-34.181087
-34.181216
-34.181437
-34.181807
-34.182343
-34.182747
-32.3876
-32.387628
-32.387678
-32.387761
-32.387873
-32.387991
-32.388084
-32.388125
-32.387992
-32.388164
-32.388186
-32.388222
-32.388277
-32.388336
-32.388366
-32.388322
-32.388173
-32.387899
-32.388852
-32.388866
-32.388891
-32.388929
-32.388961
-32.388947
-32.388841
-32.388621
-32.388327
-32.389526
-32.389531
-32.389544
-32.389568
-32.389584
-32.389547
-32.389407
-32.389144
-32.388801
-32.39017
-32.390165
-32.390165
-32.390173
-32.390171
-32.390112
-32.38994
-32.38963
-32.389231
-32.390769
-32.390756
-32.390745
-32.390741
-32.390722
-32.390643
-32.390438
-32.390082
-32.389626
-32.391304
-32.391285
-32.391266
-32.391252
-32.391219
-32.391119
-32.390886
-32.390488
-32.389979
-32.391768
-32.391744
-32.391719
-32.391697
-32.391651
-32.391532
-32.391274
-32.390841
-32.390284
-32.392144
-32.392118
-32.392088
-32.392059
-32.392003
-32.391871
-32.391593
-32.391132
-32.390535
-32.392429
-32.3924
-32.392368
-32.392334
-32.392272
-32.39213
-32.391838
-32.391355
-32.390728
-32.392621
-32.392591
-32.392557
-32.39252
-32.392453
-32.392305
-32.392004
-32.391506
-32.390858
-32.392715
-32.392685
-32.39265
-32.392612
-32.392543
-32.392392
-32.392087
-32.391582
-32.390923
-32.392715
-32.392685
-32.39265
-32.392611
-32.392543
-32.392392
-32.392086
-32.391582
-32.390923
-32.39262
-32.39259
-32.392556
-32.392519
-32.392452
-32.392304
-32.392003
-32.391505
-32.390857
-32.392427
-32.392399
-32.392367
-32.392333
-32.39227
-32.392128
-32.391837
-32.391354
-32.390726
-32.392142
-32.392115
-32.392086
-32.392057
-32.392001
-32.391868
-32.391591
-32.39113
-32.390533
-32.391765
-32.391741
-32.391716
-32.391694
-32.391648
-32.391529
-32.391271
-32.390838
-32.390282
-32.391301
-32.391282
-32.391263
-32.391249
-32.391216
-32.391116
-32.390882
-32.390485
-32.389976
-32.390765
-32.390752
-32.390741
-32.390736
-32.390718
-32.390639
-32.390434
-32.390078
-32.389622
-32.390165
-32.39016
-32.39016
-32.390169
-32.390166
-32.390108
-32.389935
-32.389625
-32.389226
-32.389521
-32.389526
-32.389539
-32.389563
-32.389579
-32.389542
-32.389402
-32.389138
-32.388796
-32.388846
-32.388861
-32.388885
-32.388923
-32.388955
-32.388941
-32.388835
-32.388615
-32.388321
-32.388158
-32.38818
-32.388216
-32.38827
-32.38833
-32.38836
-32.388316
-32.388167
-32.387892
-32.387593
-32.387621
-32.387671
-32.387754
-32.387867
-32.387985
-32.388078
-32.388117
-32.387985
-30.640248
-30.640274
-30.640309
-30.640351
-30.6404
-30.640454
-30.640514
-30.640581
-30.640583
-30.64052
-30.640543
-30.64057
-30.640593
-30.64061
-30.640614
-30.640602
-30.640569
-30.6405
-30.64083
-30.64085
-30.64087
-30.640883
-30.640883
-30.640866
-30.640827
-30.640772
-30.640718
-30.641115
-30.64113
-30.641144
-30.641149
-30.641142
-30.641116
-30.641067
-30.641005
-30.640951
-30.641377
-30.641388
-30.641396
-30.641394
-30.641377
-30.641338
-30.641279
-30.641208
-30.641146
-30.641615
-30.641622
-30.641624
-30.641615
-30.641588
-30.641538
-30.641468
-30.641387
-30.641315
-30.641814
-30.641818
-30.641816
-30.6418
-30.641765
-30.641708
-30.641631
-30.641542
-30.641459
-30.641979
-30.64198
-30.641974
-30.641952
-30.641911
-30.641849
-30.641767
-30.64167
-30.641577
-30.642112
-30.64211
-30.6421
-30.642073
-30.642028
-30.641962
-30.641876
-30.641773
-30.641669
-30.642212
-30.642208
-30.642195
-30.642165
-30.642117
-30.642048
-30.641958
-30.64185
-30.641737
-30.642281
-30.642276
-30.64226
-30.642228
-30.642178
-30.642106
-30.642013
-30.641901
-30.641782
-30.642315
-30.642308
-30.642292
-30.642259
-30.642207
-30.642135
-30.64204
-30.641925
-30.641804
-30.642314
-30.642308
-30.642292
-30.642259
-30.642207
-30.642134
-30.642039
-30.641925
-30.641803
-30.64228
-30.642274
-30.642259
-30.642227
-30.642176
-30.642105
-30.642011
-30.641899
-30.641781
-30.64221
-30.642206
-30.642193
-30.642163
-30.642115
-30.642046
-30.641956
-30.641848
-30.641735
-30.642108
-30.642107
-30.642096
-30.64207
-30.642024
-30.641959
-30.641872
-30.64177
-30.641666
-30.641975
-30.641976
-30.64197
-30.641948
-30.641907
-30.641845
-30.641762
-30.641666
-30.641573
-30.641809
-30.641813
-30.641811
-30.641794
-30.641759
-30.641703
-30.641626
-30.641537
-30.641455
-30.641609
-30.641616
-30.641618
-30.641609
-30.641582
-30.641532
-30.641462
-30.641381
-30.64131
-30.64137
-30.641381
-30.641389
-30.641387
-30.641369
-30.641331
-30.641272
-30.641201
-30.641139
-30.641107
-30.641122
-30.641135
-30.64114
-30.641133
-30.641107
-30.641059
-30.640997
-30.640943
-30.64082
-30.64084
-30.640861
-30.640873
-30.640873
-30.640856
-30.640818
-30.640762
-30.640709
-30.640509
-30.640533
-30.640559
-30.640582
-30.640599
-30.640604
-30.640592
-30.640559
-30.640491
-30.640236
-30.640262
-30.640297
-30.640339
-30.640388
-30.640443
-30.640503
-30.64057
-30.640572
-28.88862
-28.888631
-28.888649
-28.888674
-28.888707
-28.888746
-28.88879
-28.888838
-28.888848
-28.888801
-28.888811
-28.888824
-28.888839
-28.888854
-28.888866
-28.888869
-28.888861
-28.88883
-28.88901
-28.889018
-28.889028
-28.889037
-28.889044
-28.889043
-28.889032
-28.88901
-28.888986
-28.889208
-28.889213
-28.889219
-28.889225
-28.889227
-28.889223
-28.889207
-28.88918
-28.889154
-28.889394
-28.889396
-28.889399
-28.8894
-28.889398
-28.889388
-28.889368
-28.889336
-28.889303
-28.889567
-28.889566
-28.889565
-28.889562
-28.889555
-28.889541
-28.889516
-28.889478
-28.889436
-28.889721
-28.889718
-28.889714
-28.889707
-28.889696
-28.889679
-28.889649
-28.889605
-28.889553
-28.889856
-28.889851
-28.889845
-28.889835
-28.889822
-28.889801
-28.889765
-28.889714
-28.889653
-28.889971
-28.889964
-28.889956
-28.889945
-28.889927
-28.889901
-28.889861
-28.889804
-28.889734
-28.890059
-28.890051
-28.890042
-28.890028
-28.890008
-28.889978
-28.889935
-28.889873
-28.889795
-28.890117
-28.890109
-28.890099
-28.890084
-28.890061
-28.890029
-28.889984
-28.889919
-28.889836
-28.890146
-28.890138
-28.890127
-28.890111
-28.890087
-28.890055
-28.890009
-28.889942
-28.889857
-28.890145
-28.890137
-28.890126
-28.89011
-28.890087
-28.890054
-28.890008
-28.889941
-28.889856
-28.890115
-28.890107
-28.890097
-28.890082
-28.890059
-28.890028
-28.889982
-28.889917
-28.889835
-28.890056
-28.890048
-28.890039
-28.890025
-28.890004
-28.889975
-28.889932
-28.88987
-28.889793
-28.889967
-28.88996
-28.889952
-28.88994
-28.889923
-28.889897
-28.889857
-28.8898
-28.88973
-28.889851
-28.889846
-28.889839
-28.88983
-28.889816
-28.889795
-28.88976
-28.889709
-28.889648
-28.889714
-28.889711
-28.889707
-28.8897
-28.889689
-28.889672
-28.889642
-28.889598
-28.889547
-28.889558
-28.889558
-28.889557
-28.889554
-28.889546
-28.889533
-28.889508
-28.88947
-28.889429
-28.889385
-28.889387
-28.889389
-28.88939
-28.889388
-28.889378
-28.889358
-28.889327
-28.889294
-28.889197
-28.889202
-28.889208
-28.889213
-28.889216
-28.889211
-28.889196
-28.88917
-28.889144
-28.888997
-28.889005
-28.889015
-28.889024
-28.889031
-28.88903
-28.889019
-28.888998
-28.888975
-28.888787
-28.888797
-28.88881
-28.888825
-28.88884
-28.888851
-28.888855
-28.888848
-28.888818
-28.888604
-28.888615
-28.888633
-28.888658
-28.888691
-28.88873
-28.888774
-28.888824
-28.888834
-27.135358
-27.135363
-27.135371
-27.135382
-27.135396
-27.135412
-27.135427
-27.135441
-27.135432
-27.135458
-27.135462
-27.135467
-27.135472
-27.135476
-27.135475
-27.135466
-27.135447
-27.135412
-27.135568
-27.135571
-27.135574
-27.135576
-27.135576
-27.135568
-27.13555
-27.135522
-27.135491
-27.135674
-27.135675
-27.135676
-27.135676
-27.135673
-27.135661
-27.13564
-27.13561
-27.135578
-27.135771
-27.135771
-27.13577
-27.135768
-27.135762
-27.135747
-27.135724
-27.135691
-27.135655
-27.135859
-27.135858
-27.135855
-27.135851
-27.135843
-27.135827
-27.1358
-27.135765
-27.135725
-27.135935
-27.135933
-27.135929
-27.135923
-27.135913
-27.135896
-27.135868
-27.13583
-27.135787
-27.135999
-27.135996
-27.135991
-27.135984
-27.135973
-27.135955
-27.135927
-27.135886
-27.135839
-27.13605
-27.136047
-27.136041
-27.136033
-27.136021
-27.136003
-27.135974
-27.135932
-27.135881
-27.13609
-27.136086
-27.136079
-27.136071
-27.136058
-27.13604
-27.136011
-27.135967
-27.135913
-27.136117
-27.136112
-27.136105
-27.136096
-27.136083
-27.136065
-27.136035
-27.13599
-27.135934
-27.136129
-27.136125
-27.136118
-27.136108
-27.136096
-27.136077
-27.136047
-27.136002
-27.135944
-27.136129
-27.136124
-27.136117
-27.136108
-27.136095
-27.136076
-27.136046
-27.136001
-27.135944
-27.136114
-27.13611
-27.136103
-27.136094
-27.136081
-27.136063
-27.136033
-27.135988
-27.135932
-27.136087
-27.136082
-27.136076
-27.136067
-27.136055
-27.136037
-27.136007
-27.135964
-27.135909
-27.136046
-27.136042
-27.136036
-27.136028
-27.136016
-27.135998
-27.135969
-27.135927
-27.135876
-27.135992
-27.135989
-27.135984
-27.135977
-27.135966
-27.135948
-27.13592
-27.13588
-27.135833
-27.135927
-27.135925
-27.135921
-27.135915
-27.135905
-27.135888
-27.13586
-27.135823
-27.13578
-27.135849
-27.135848
-27.135846
-27.135841
-27.135833
-27.135817
-27.135791
-27.135755
-27.135717
-27.13576
-27.13576
-27.135759
-27.135756
-27.13575
-27.135736
-27.135712
-27.13568
-27.135646
-27.13566
-27.135661
-27.135662
-27.135663
-27.135659
-27.135648
-27.135627
-27.135598
-27.135567
-27.135553
-27.135556
-27.135559
-27.135561
-27.13556
-27.135553
-27.135535
-27.135508
-27.135478
-27.135441
-27.135445
-27.13545
-27.135455
-27.135459
-27.135458
-27.135449
-27.135431
-27.135397
-27.13534
-27.135345
-27.135352
-27.135363
-27.135378
-27.135394
-27.135409
-27.135423
-27.135415
-25.385431
-25.385434
-25.385438
-25.385444
-25.385452
-25.385462
-25.385475
-25.385491
-25.385497
-25.385484
-25.385487
-25.385489
-25.385492
-25.385495
-25.385497
-25.385498
-25.385498
-25.385491
-25.385543
-25.385544
-25.385546
-25.385547
-25.385548
-25.385547
-25.385544
-25.38554
-25.385537
-25.385597
-25.385598
-25.385599
-25.385599
-25.385598
-25.385597
-25.385593
-25.385589
-25.385586
-25.385648
-25.385648
-25.385648
-25.385647
-25.385645
-25.385642
-25.385638
-25.385633
-25.385629
-25.385695
-25.385694
-25.385693
-25.385691
-25.385688
-25.385685
-25.38568
-25.385673
-25.385667
-25.385737
-25.385736
-25.385734
-25.385731
-25.385727
-25.385722
-25.385717
-25.385709
-25.385701
-25.385773
-25.385772
-25.385769
-25.385766
-25.385761
-25.385755
-25.385749
-25.38574
-25.385729
-25.385803
-25.385801
-25.385799
-25.385794
-25.385789
-25.385782
-25.385775
-25.385765
-25.385752
-25.385826
-25.385824
-25.38582
-25.385816
-25.385809
-25.385802
-25.385795
-25.385783
-25.385769
-25.385841
-25.385838
-25.385835
-25.38583
-25.385823
-25.385816
-25.385808
-25.385796
-25.38578
-25.385848
-25.385845
-25.385842
-25.385836
-25.38583
-25.385822
-25.385814
-25.385802
-25.385785
-25.385847
-25.385845
-25.385841
-25.385836
-25.385829
-25.385822
-25.385813
-25.385801
-25.385785
-25.385839
-25.385836
-25.385833
-25.385828
-25.385821
-25.385814
-25.385805
-25.385794
-25.385778
-25.385822
-25.38582
-25.385817
-25.385812
-25.385806
-25.385799
-25.385791
-25.38578
-25.385765
-25.385798
-25.385796
-25.385793
-25.385789
-25.385783
-25.385777
-25.385769
-25.385759
-25.385747
-25.385767
-25.385765
-25.385762
-25.385759
-25.385754
-25.385748
-25.385742
-25.385733
-25.385723
-25.385728
-25.385727
-25.385725
-25.385722
-25.385718
-25.385713
-25.385708
-25.385701
-25.385693
-25.385685
-25.385684
-25.385683
-25.38568
-25.385677
-25.385674
-25.385669
-25.385664
-25.385658
-25.385636
-25.385636
-25.385636
-25.385635
-25.385633
-25.38563
-25.385626
-25.385622
-25.385618
-25.385583
-25.385584
-25.385585
-25.385585
-25.385584
-25.385582
-25.385579
-25.385576
-25.385573
-25.385526
-25.385528
-25.38553
-25.385531
-25.385531
-25.38553
-25.385528
-25.385525
-25.385522
-25.385466
-25.385468
-25.385471
-25.385474
-25.385476
-25.385479
-25.38548
-25.38548
-25.385474
-25.38541
-25.385413
-25.385417
-25.385423
-25.385431
-25.385441
-25.385455
-25.385471
-25.385478
-23.633978
-23.633979
-23.633981
-23.633983
-23.633987
-23.633991
-23.633996
-23.634
-23.633999
-23.634009
-23.634009
-23.63401
-23.634011
-23.634012
-23.634012
-23.63401
-23.634004
-23.633995
-23.634042
-23.634042
-23.634043
-23.634043
-23.634042
-23.63404
-23.634035
-23.634028
-23.634019
-23.634074
-23.634073
-23.634073
-23.634073
-23.634072
-23.634069
-23.634063
-23.634055
-23.634046
-23.634103
-23.634102
-23.634102
-23.634101
-23.634099
-23.634095
-23.634089
-23.63408
-23.63407
-23.634129
-23.634128
-23.634127
-23.634126
-23.634124
-23.63412
-23.634113
-23.634103
-23.634092
-23.634152
-23.634151
-23.63415
-23.634148
-23.634145
-23.634141
-23.634134
-23.634124
-23.634111
-23.634172
-23.63417
-23.634169
-23.634167
-23.634164
-23.634159
-23.634152
-23.634141
-23.634127
-23.634188
-23.634186
-23.634184
-23.634182
-23.634179
-23.634174
-23.634167
-23.634155
-23.634141
-23.634199
-23.634198
-23.634196
-23.634193
-23.63419
-23.634185
-23.634178
-23.634166
-23.63415
-23.634207
-23.634206
-23.634203
-23.634201
-23.634197
-23.634193
-23.634185
-23.634173
-23.634157
-23.634211
-23.634209
-23.634207
-23.634204
-23.634201
-23.634196
-23.634189
-23.634176
-23.63416
-23.63421
-23.634208
-23.634206
-23.634203
-23.6342
-23.634195
-23.634188
-23.634176
-23.634159
-23.634205
-23.634203
-23.634201
-23.634199
-23.634195
-23.634191
-23.634183
-23.634171
-23.634155
-23.634196
-23.634194
-23.634192
-23.634189
-23.634186
-23.634182
-23.634174
-23.634163
-23.634147
-23.634182
-23.634181
-23.634179
-23.634176
-23.634173
-23.634169
-23.634161
-23.63415
-23.634136
-23.634165
-23.634164
-23.634162
-23.63416
-23.634156
-23.634152
-23.634145
-23.634135
-23.634121
-23.634144
-23.634143
-23.634141
-23.634139
-23.634136
-23.634132
-23.634125
-23.634116
-23.634104
-23.634119
-23.634118
-23.634117
-23.634115
-23.634113
-23.634109
-23.634102
-23.634093
-23.634083
-23.634091
-23.63409
-23.63409
-23.634088
-23.634086
-23.634083
-23.634077
-23.634069
-23.634059
-23.63406
-23.634059
-23.634059
-23.634059
-23.634057
-23.634054
-23.634049
-23.634042
-23.634034
-23.634026
-23.634026
-23.634026
-23.634026
-23.634026
-23.634024
-23.634019
-23.634013
-23.634005
-23.633991
-23.633991
-23.633992
-23.633993
-23.633994
-23.633994
-23.633992
-23.633987
-23.633978
-23.633958
-23.633959
-23.63396
-23.633963
-23.633967
-23.633971
-23.633976
-23.633981
-23.63398
-21.883467
-21.883467
-21.883468
-21.883469
-21.883471
-21.883474
-21.883477
-21.883481
-21.883482
-21.883482
-21.883483
-21.883483
-21.883484
-21.883484
-21.883484
-21.883484
-21.883483
-21.88348
-21.883499
-21.883499
-21.883499
-21.883499
-21.883499
-21.883499
-21.883497
-21.883495
-21.883493
-21.883514
-21.883514
-21.883514
-21.883514
-21.883513
-21.883513
-21.883511
-21.883509
-21.883507
-21.883528
-21.883528
-21.883528
-21.883527
-21.883526
-21.883525
-21.883524
-21.883522
-21.88352
-21.883541
-21.88354
-21.88354
-21.883539
-21.883538
-21.883537
-21.883536
-21.883533
-21.883531
-21.883552
-21.883552
-21.883551
-21.88355
-21.883549
-21.883548
-21.883546
-21.883543
-21.88354
-21.883562
-21.883561
-21.88356
-21.883559
-21.883558
-21.883557
-21.883555
-21.883552
-21.883548
-21.883569
-21.883569
-21.883568
-21.883567
-21.883565
-21.883564
-21.883562
-21.883558
-21.883554
-21.883575
-21.883574
-21.883573
-21.883572
-21.883571
-21.883569
-21.883567
-21.883563
-21.883559
-21.883579
-21.883578
-21.883577
-21.883576
-21.883574
-21.883572
-21.88357
-21.883567
-21.883561
-21.88358
-21.883579
-21.883578
-21.883577
-21.883575
-21.883574
-21.883571
-21.883568
-21.883563
-21.883579
-21.883579
-21.883578
-21.883576
-21.883575
-21.883573
-21.883571
-21.883567
-21.883562
-21.883577
-21.883576
-21.883575
-21.883574
-21.883572
-21.88357
-21.883568
-21.883565
-21.88356
-21.883572
-21.883571
-21.88357
-21.883569
-21.883567
-21.883565
-21.883563
-21.88356
-21.883556
-21.883565
-21.883564
-21.883563
-21.883562
-21.88356
-21.883559
-21.883557
-21.883554
-21.88355
-21.883556
-21.883555
-21.883554
-21.883553
-21.883552
-21.88355
-21.883548
-21.883546
-21.883542
-21.883545
-21.883544
-21.883543
-21.883542
-21.883541
-21.88354
-21.883538
-21.883536
-21.883533
-21.883532
-21.883531
-21.883531
-21.88353
-21.883529
-21.883528
-21.883526
-21.883525
-21.883523
-21.883517
-21.883517
-21.883517
-21.883516
-21.883515
-21.883514
-21.883513
-21.883512
-21.88351
-21.883501
-21.883501
-21.883501
-21.883501
-21.883501
-21.8835
-21.883499
-21.883498
-21.883496
-21.883484
-21.883485
-21.883485
-21.883485
-21.883485
-21.883484
-21.883483
-21.883482
-21.883481
-21.883466
-21.883467
-21.883467
-21.883468
-21.883468
-21.883468
-21.883468
-21.883468
-21.883466
-21.883449
-21.883449
-21.88345
-21.883452
-21.883454
-21.883456
-21.883459
-21.883464
-21.883466
-20.132633
-20.132634
-20.132634
-20.132635
-20.132635
-20.132637
-20.132638
-20.132639
-20.132639
-20.132642
-20.132642
-20.132642
-20.132642
-20.132642
-20.132642
-20.132642
-20.13264
-20.132637
-20.13265
-20.13265
-20.132651
-20.132651
-20.13265
-20.13265
-20.132648
-20.132646
-20.132644
-20.132659
-20.132659
-20.132659
-20.132658
-20.132658
-20.132657
-20.132656
-20.132654
-20.132651
-20.132666
-20.132666
-20.132666
-20.132666
-20.132665
-20.132664
-20.132663
-20.132661
-20.132658
-20.132673
-20.132673
-20.132673
-20.132672
-20.132672
-20.132671
-20.132669
-20.132667
-20.132664
-20.132679
-20.132679
-20.132679
-20.132678
-20.132678
-20.132676
-20.132675
-20.132672
-20.132669
-20.132685
-20.132684
-20.132684
-20.132683
-20.132682
-20.132681
-20.13268
-20.132677
-20.132673
-20.132689
-20.132688
-20.132688
-20.132687
-20.132686
-20.132685
-20.132683
-20.132681
-20.132677