/*--------------------------------*- C++ -*----------------------------------*\
| =========                 |                                                 |
| \\      /  F ield         | OpenFOAM: The Open Source CFD Toolbox           |
|  \\    /   O peration     | Version:  2406                                  |
|   \\  /    A nd           | Website:  www.openfoam.com                      |
|    \\/     M anipulation  |                                                 |
\*---------------------------------------------------------------------------*/
FoamFile
{
    version     2.0;
    format      ascii;
    arch        "LSB;label=32;scalar=64";
    class       surfaceScalarField;
    location    "7";
    object      phi;
}
// * * * * * * * * * * * * * * * * * * * * * * * * * * * * * * * * * * * * * //

dimensions      [0 3 -1 0 0 0 0];

oriented        oriented;

internalField   nonuniform List<scalar> 
101088
(
-6.7518019e-05
2.2515118e-05
-1.4017693e-05
-1.9611898e-05
-0.00013058392
9.7415946e-05
-5.8920076e-05
-8.546778e-05
-0.00017121791
0.00023419909
-0.00013696457
-0.0002062639
-0.00017197282
0.00044256653
-0.00024650783
-0.00039084387
-0.00013277367
0.0007044431
-0.00036162338
-0.00062387409
-8.5016907e-05
0.00097215437
-0.0004366533
-0.0008618707
-7.8335281e-05
0.0011863913
-0.00043838656
-0.0010491253
-0.0001416901
0.0012983366
-0.00037539995
-0.0011421866
0.0012887612
-0.00028567804
-0.0011267981
-0.00026401217
-8.1912342e-05
2.4871778e-05
-1.6903121e-05
-0.00015578087
0.00010681505
-7.0336437e-05
-0.00019768623
0.00025483906
-0.00016184615
-0.00018447168
0.00047810045
-0.0002877942
-0.00011686458
0.00075739805
-0.00041637789
-3.5030771e-05
0.0010445485
-0.00049604686
4.3346567e-06
0.0012766792
-0.00049344746
-2.7060627e-05
0.0013995262
-0.00042332715
0.0013897475
-0.00032570804
-0.00011589506
-9.6285298e-05
2.6408147e-05
-1.9701213e-05
-0.00018049968
0.00011262262
-8.1275923e-05
-0.00022382475
0.00026696218
-0.00018527799
-0.00019973899
0.0004975402
-0.0003255721
-0.00011053449
0.00078383238
-0.00046413918
-2.7120546e-06
0.0010784454
-0.00054430637
6.2714369e-05
0.0013171167
-0.00053515207
5.7091889e-05
0.0014431435
-0.00045724165
0.0014319973
-0.0003530833
-7.0165214e-06
-0.00011028539
2.6955377e-05
-2.2272283e-05
-0.00020462344
0.00011426304
-9.1166642e-05
-0.00024970299
0.00026934012
-0.00020602688
-0.00021657263
0.00049913932
-0.00035800214
-0.00011068853
0.00078271362
-0.00050323651
1.5178821e-05
0.0010740201
-0.00058089252
9.8167629e-05
0.0013093719
-0.00056485079
0.00010974236
0.0014325022
-0.00047964861
0.0014195218
-0.00037047373
6.3149671e-05
-0.0001234977
2.6298207e-05
-2.451523e-05
-0.00022742867
0.00011115165
-9.9683907e-05
-0.00027475162
0.00026116794
-0.00022357384
-0.00023505873
0.00048225026
-0.00038460813
-0.0001174984
0.00075408721
-0.00053369681
2.0047149e-05
0.0010326237
-0.00060766915
0.00011338438
0.0012565581
-0.00058459563
0.00013516197
0.0013721482
-0.00049300894
0.0013573188
-0.00038041658
0.00010046444
-0.00013611368
2.4734645e-05
-2.6437325e-05
-0.00025013718
0.00010418582
-0.00010687376
-0.0003018555
0.00024395819
-0.00023807453
-0.00025966321
0.00044882623
-0.00040582792
-0.00013582051
0.00069993457
-0.00055645661
8.0121547e-06
0.00095626898
-0.00062574556
0.00010680212
0.0011613075
-0.00059586643
0.00013501165
0.0012655953
-0.00049937472
0.0012493973
-0.00038476981
0.00010936596
-0.00014726957
2.2172365e-05
-2.8004642e-05
-0.00027023418
9.3191162e-05
-0.00011263401
-0.00032626518
0.00021772228
-0.00024940563
-0.00028330177
0.00039953358
-0.00042172311
-0.00015673565
0.00062190115
-0.00057198022
-1.0945449e-05
0.00084805908
-0.00063630901
8.8793409e-05
0.0010282732
-0.00060033651
0.00011934955
0.0011186328
-0.00050030301
0.0011021159
-0.00038487704
9.8959449e-05
-0.00015695526
1.8738412e-05
-2.9234759e-05
-0.00028798805
7.8667251e-05
-0.00011709436
-0.00034860154
0.00018357392
-0.00025799508
-0.00030656524
0.00033635802
-0.00043329042
-0.00017990124
0.00052292406
-0.00058218285
-3.4843669e-05
0.00071214452
-0.00064187108
6.3214516e-05
0.00086267301
-0.00060047497
9.3679725e-05
0.00093720891
-0.00049785157
0.00092173828
-0.00038225467
7.5932787e-05
-0.00016499395
1.4611868e-05
-3.0162737e-05
-0.00030302389
6.1329232e-05
-0.0001204236
-0.00036818922
0.00014305542
-0.00026429174
-0.00032819785
0.00026192143
-0.00044145394
-0.00020293314
0.00040699163
-0.00058898311
-6.0088056e-05
0.00055385777
-0.00064466673
3.4918281e-05
0.00067049595
-0.00059832665
6.3960105e-05
0.00072770284
-0.00049376427
0.000714651
-0.00037819545
4.7051403e-05
-0.00017125214
1.0024639e-05
-3.0822848e-05
-0.00031501571
4.2048162e-05
-0.00012277288
-0.00038437755
9.7993568e-05
-0.00026866895
-0.00034696678
0.00017923403
-0.00044693854
-0.00022386494
0.00027834276
-0.00059315144
-8.382489e-05
0.0003785629
-0.00064548317
7.9835091e-06
0.00045807723
-0.00059546254
3.5253528e-05
0.00049677641
-0.0004894567
0.00048700341
-0.00037385041
1.8496253e-05
-0.00017543536
5.0947046e-06
-3.1251154e-05
-0.00032302766
2.1353777e-05
-0.00012425525
-0.00039532004
4.9750437e-05
-0.00027134068
-0.00036005974
9.0962816e-05
-0.00045010989
-0.00023907859
0.00014121034
-0.00059524739
-0.00010168629
0.00019196304
-0.00064523561
-1.2642925e-05
0.00023219863
-0.00059284501
1.2817883e-05
0.00025169954
-0.00048591696
0.0002465246
-0.00037172099
-3.7359861e-06
-0.00017758206
4.0588921e-11
-3.1443431e-05
-0.00032722236
7.5270652e-11
-0.00012494466
-0.00040114586
-2.2021111e-11
-0.00027263436
-0.00036706267
-1.7666239e-10
-0.00045173866
-0.00024716807
1.0124011e-10
-0.00059648004
-0.00011114053
-9.3642291e-12
-0.00064539975
-2.3598369e-05
6.163842e-11
-0.00059185288
7.2080044e-07
7.009962e-11
-0.00048436951
-2.8457121e-10
-0.00037085918
-1.5887127e-05
-0.0001775824
-5.0946423e-06
-3.1443426e-05
-0.00032722304
-2.1353647e-05
-0.00012494465
-0.00040114582
-4.9750452e-05
-0.00027263431
-0.00036706152
-9.0963025e-05
-0.00045173858
-0.00024716778
-0.00014121015
-0.00059647999
-0.00011114026
-0.00019196329
-0.00064539971
-2.3598422e-05
-0.0002321989
-0.00059185288
7.2028209e-07
-0.00025169972
-0.00048436953
-0.00024652511
-0.00037085919
-1.5887234e-05
-0.00017543643
-1.0024638e-05
-3.1251155e-05
-0.00032302957
-4.204814e-05
-0.00012425525
-0.00039531998
-9.7993465e-05
-0.00027134065
-0.00036005694
-0.00017923378
-0.00045010983
-0.00023907812
-0.00027834265
-0.00059524744
-0.00010168559
-0.00037856377
-0.00064523567
-1.2642987e-05
-0.00045807846
-0.00059284511
1.2816588e-05
-0.00049677742
-0.00048591708
-0.00048700379
-0.00037172104
-3.7362087e-06
-0.00017125298
-1.4611919e-05
-3.0822843e-05
-0.00031501684
-6.1329321e-05
-0.00012277285
-0.00038437663
-0.00014305513
-0.00026866887
-0.00034696351
-0.0002619209
-0.00044693843
-0.00022386489
-0.00040699212
-0.00059315143
-8.3823986e-05
-0.00055385939
-0.00064548315
7.9836077e-06
-0.00067049817
-0.00059546261
3.5252056e-05
-0.00072770482
-0.00048945682
-0.00071465127
-0.00037385048
1.849612e-05
-0.0001649932
-1.8738325e-05
-3.0162733e-05
-0.0003030224
-7.8666982e-05
-0.00012042359
-0.00036818773
-0.00018357328
-0.00026429172
-0.0003281957
-0.0003363577
-0.00044145393
-0.00020293363
-0.00052292517
-0.00058898316
-6.0087053e-05
-0.00071214613
-0.00064466673
3.4918724e-05
-0.0008626755
-0.00059832673
6.3959234e-05
-0.00093721146
-0.00049376438
-0.00092173858
-0.00037819551
4.7051655e-05
-0.00015695446
-2.2172279e-05
-2.9234765e-05
-0.00028798761
-9.3190982e-05
-0.00011709439
-0.00034860291
-0.00021772234
-0.00025799516
-0.00030656535
-0.00039953413
-0.00043329051
-0.00017990181
-0.00062190201
-0.00058218291
-3.4842953e-05
-0.00084805962
-0.00064187107
6.3215113e-05
-0.001028275
-0.00060047501
9.367981e-05
-0.0011186352
-0.00049785164
-0.0011021167
-0.00038225474
7.593336e-05
-0.00014727042
-2.473468e-05
-2.800465e-05
-0.00027023652
-0.00010418589
-0.00011263404
-0.00032626828
-0.00024395833
-0.00024940569
-0.0002833023
-0.00044882601
-0.00042172315
-0.0001567357
-0.0006999342
-0.00057198025
-1.0945447e-05
-0.00095626885
-0.00063630904
8.8793952e-05
-0.0011613084
-0.00060033654
0.00011935037
-0.0012655967
-0.00050030305
-0.001249399
-0.00038487712
9.8959981e-05
-0.0001361135
-2.6298072e-05
-2.6437332e-05
-0.00025013664
-0.0001111511
-0.00010687379
-0.00030185587
-0.00026116719
-0.00023807462
-0.0002596634
-0.00048225017
-0.00040582809
-0.00013582053
-0.00075408843
-0.00055645681
8.0114995e-06
-0.0010326254
-0.00062574578
0.00010680253
-0.0012565592
-0.00059586654
0.00013501235
-0.001372149
-0.0004993748
-0.0013573209
-0.0003847699
0.00010936626
-0.00012349778
-2.6955492e-05
-2.4515238e-05
-0.00022743038
-0.00011426351
-9.968394e-05
-0.00027475554
-0.00026934119
-0.00022357392
-0.00023506074
-0.00049914074
-0.0003846082
-0.00011749732
-0.00078271493
-0.00053369679
2.0047743e-05
-0.0010740221
-0.00060766924
0.00011338537
-0.0013093738
-0.0005845957
0.0001351622
-0.0014325035
-0.00049300903
-0.0014195225
-0.0003804166
0.00010046511
-0.00011028572
-2.6408127e-05
-2.2272275e-05
-0.00020462458
-0.00011262257
-9.116661e-05
-0.0002497041
-0.00026696207
-0.0002060268
-0.00021657179
-0.00049753996
-0.00035800201
-0.00011068651
-0.0007838323
-0.00050323641
1.5180471e-05
-0.0010784462
-0.00058089253
9.816929e-05
-0.001317118
-0.00056485082
0.00010974271
-0.0014431448
-0.00047964869
-0.0014319972
-0.0003704737
6.314986e-05
-9.6285437e-05
-2.4871789e-05
-1.9701205e-05
-0.00018050021
-0.00010681513
-8.1275891e-05
-0.00022382511
-0.00025483925
-0.00018527792
-0.0001997379
-0.00047810063
-0.000325572
-0.00011053265
-0.0007573982
-0.00046413911
-2.7099774e-06
-0.0010445491
-0.00054430629
6.27159e-05
-0.0012766817
-0.00053515208
5.7092332e-05
-0.0013995287
-0.00045724168
-0.0013897495
-0.00035308326
-7.0159244e-06
-8.1912277e-05
-2.2515115e-05
-1.6903117e-05
-0.00015578057
-9.7415963e-05
-7.0336422e-05
-0.0001976852
-0.00023419916
-0.00016184612
-0.00018446917
-0.00044256685
-0.00028779417
-0.00011686257
-0.00070444421
-0.00041637793
-3.5029525e-05
-0.00097215616
-0.00049604696
4.3362182e-06
-0.0011863938
-0.00049344752
-2.7062382e-05
-0.0012983394
-0.00042332719
-0.0012887596
-0.0003257079
-0.0001158927
-6.7518045e-05
-1.4017691e-05
-1.9611904e-05
-0.00013058383
-5.8920065e-05
-8.5467822e-05
-0.00017121701
-0.00013696454
-0.000206264
-0.0001719701
-0.00024650779
-0.00039084408
-0.00013277072
-0.00036162337
-0.0006238749
-8.5014663e-05
-0.00043665334
-0.0008618724
-7.8333578e-05
-0.00043838657
-0.0010491264
-0.00014169174
-0.00037539986
-0.0011421876
-0.00028567791
-0.0011267978
-0.00026401086
-1.764027e-07
2.6503183e-06
-1.4403343e-05
-2.0882594e-06
2.7993889e-07
1.1755252e-05
-6.1769238e-05
-9.3623865e-06
2.3527428e-06
2.8659213e-05
-0.00014468625
-2.3010219e-05
6.0850131e-06
5.38853e-05
-0.00026047591
-4.364942e-05
1.1623683e-05
8.2348031e-05
-0.00038213472
-6.7375103e-05
1.8992523e-05
0.00010315068
-0.00046234565
-8.4826155e-05
2.6757844e-05
0.00010735804
-0.00046622099
-8.7288782e-05
3.2092411e-05
9.6975909e-05
-0.00040190256
-7.5809318e-05
7.7514253e-05
-0.00030743543
-5.8553737e-05
3.4888699e-05
-2.0843085e-07
3.1003795e-06
-1.7144768e-05
5.1034917e-07
1.3683924e-05
-7.2984023e-05
3.6851498e-06
3.3076232e-05
-0.0001694382
9.8255845e-06
6.1375857e-05
-0.00030142541
1.9170262e-05
9.2399509e-05
-0.00043577354
3.0743161e-05
0.00011433711
-0.00051880566
4.1414512e-05
0.00011902804
-0.00051578969
4.6986492e-05
0.00010939789
-0.00044131955
9.0586667e-05
-0.0003397187
4.7924158e-05
-2.2231589e-07
3.3808656e-06
-1.9759235e-05
9.0031395e-07
1.4874649e-05
-8.3589026e-05
5.423348e-06
3.5770745e-05
-0.00019249527
1.4024424e-05
6.5761215e-05
-0.00033855843
2.6737028e-05
9.7737788e-05
-0.0004821901
4.142226e-05
0.00011955248
-0.0005642074
5.2849306e-05
0.00012441483
-0.00055196487
5.6101622e-05
0.00011523758
-0.00046633418
9.8045443e-05
-0.00035865242
5.4211422e-05
-2.4199786e-07
3.481516e-06
-2.2130752e-05
1.2602824e-06
1.5289636e-05
-9.3083636e-05
7.1200597e-06
3.6638868e-05
-0.0002127547
1.819145e-05
6.6917465e-05
-0.00037023039
3.3995901e-05
9.8611464e-05
-0.00051991519
5.1116449e-05
0.00011984776
-0.00059830777
6.1495065e-05
0.00012470561
-0.0005755199
6.1409988e-05
0.00011593366
-0.00048025947
0.00010070912
-0.00036802917
5.6302149e-05
-2.6105585e-07
3.3860219e-06
-2.4158529e-05
1.5784946e-06
1.4897485e-05
-0.00010113043
8.6078259e-06
3.5692163e-05
-0.00022965465
2.1813964e-05
6.4999648e-05
-0.00039589564
4.0310329e-05
9.5307506e-05
-0.00054889002
5.9055152e-05
0.00011548711
-0.00062205227
6.7378069e-05
0.00012029046
-0.00058850367
6.3986186e-05
0.00011218529
-0.00048586903
9.8802689e-05
-0.00037091843
5.6394195e-05
-3.3869721e-07
3.1522577e-06
-2.5864953e-05
1.6088249e-06
1.3890779e-05
-0.00010781486
9.3488847e-06
3.3281007e-05
-0.00024340355
2.4062571e-05
6.048231e-05
-0.00041602464
4.4591863e-05
8.8353102e-05
-0.00057003085
6.4313636e-05
0.00010704896
-0.00063702752
7.0508118e-05
0.00011193087
-0.00059370125
6.4181685e-05
0.00010448038
-0.00048534447
9.2737877e-05
-0.00036948306
5.4959011e-05
-4.1521737e-07
2.801006e-06
-2.7237917e-05
1.5766198e-06
1.2365024e-05
-0.0001130992
9.7985337e-06
2.963682e-05
-0.00025398234
2.5514878e-05
5.3785779e-05
-0.00043074379
4.7542671e-05
7.8294393e-05
-0.00058394947
6.7634372e-05
9.538985e-05
-0.00064474216
7.1576735e-05
0.00010017904
-0.00059252691
6.2749555e-05
9.3356559e-05
-0.00048035253
8.3289633e-05
-0.00036540195
5.2722393e-05
-4.9922077e-07
2.358902e-06
-2.8293701e-05
1.4539009e-06
1.0427643e-05
-0.00011710995
9.90049e-06
2.501473e-05
-0.0002618188
2.6081576e-05
4.5401602e-05
-0.00044108754
4.8777989e-05
6.5903341e-05
-0.00059248763
6.8382862e-05
8.0638986e-05
-0.00064672668
7.0664129e-05
8.4976655e-05
-0.00058755352
6.0055457e-05
7.9182189e-05
-0.00047306788
7.1349347e-05
-0.00036079152
5.0532846e-05
-5.6126864e-07
1.8296891e-06
-2.9072336e-05
1.3668645e-06
8.1104547e-06
-0.00012003465
1.0001015e-05
1.9491882e-05
-0.00026740344
2.6604477e-05
3.5410677e-05
-0.00044806698
4.9392221e-05
5.1443741e-05
-0.00059730992
6.7661706e-05
6.3219288e-05
-0.00064551754
6.8469413e-05
6.6798621e-05
-0.00058095572
5.6858334e-05
6.2336438e-05
-0.00046530592
5.6980526e-05
-0.00035527476
4.8306964e-05
-6.2598771e-07
1.2468208e-06
-2.9613597e-05
1.223963e-06
5.537922e-06
-0.00012204989
9.8885996e-06
1.3325354e-05
-0.00027116779
2.6641093e-05
2.4216399e-05
-0.00045249765
4.9259613e-05
3.5358339e-05
-0.00059968345
6.6142634e-05
4.3564957e-05
-0.00064271197
6.5733842e-05
4.6169839e-05
-0.00057442429
5.3828023e-05
4.3238497e-05
-0.00045845115
4.0246293e-05
-0.00034922115
4.5933504e-05
-6.687025e-07
6.3889829e-07
-2.9974311e-05
1.1184198e-06
2.8313537e-06
-0.00012333553
9.7363635e-06
6.8047618e-06
-0.00027343848
2.6405516e-05
1.2322607e-05
-0.00045488562
4.8776612e-05
1.8077914e-05
-0.00060033741
6.4595566e-05
2.2333402e-05
-0.00063982241
6.3212859e-05
2.3720959e-05
-0.00056901294
5.1554574e-05
2.2280911e-05
-0.00045329951
2.0912425e-05
-0.00034458208
4.3749981e-05
-6.8288425e-07
2.8661513e-11
-3.012183e-05
1.0920213e-06
7.2911208e-11
-0.0001238885
9.7129442e-06
7.0090816e-11
-0.0002744508
2.6261199e-05
2.6059329e-11
-0.00045596388
4.8425997e-05
8.8786659e-11
-0.00060056678
6.3645719e-05
-1.2469784e-10
-0.00063828504
6.1693287e-05
-1.1046189e-10
-0.00056617927
5.0319097e-05
2.8664311e-10
-0.00045071364
4.8992557e-10
-0.0003421597
4.253197e-05
-6.8294272e-07
-6.3884101e-07
-3.0121825e-05
1.0918482e-06
-2.8311964e-06
-0.00012388848
9.7129312e-06
-6.8045937e-06
-0.00027445075
2.6261665e-05
-1.2322522e-05
-0.00045596382
4.842605e-05
-1.8077806e-05
-0.00060056673
6.3645859e-05
-2.2333879e-05
-0.00063828501
6.1693384e-05
-2.3721491e-05
-0.00056617927
5.0318881e-05
-2.228066e-05
-0.00045071366
-2.0911533e-05
-0.00034215972
4.2531902e-05
-6.6897269e-07
-1.2467965e-06
-2.997431e-05
1.1177784e-06
-5.5378379e-06
-0.00012333552
9.7362299e-06
-1.3325225e-05
-0.00027343846
2.6406687e-05
-2.4216308e-05
-0.00045488559
4.8776653e-05
-3.5358511e-05
-0.00060033743
6.4596007e-05
-4.3566072e-05
-0.00063982247
6.3213203e-05
-4.6171178e-05
-0.00056901304
5.1554061e-05
-4.3239067e-05
-0.00045329961
-4.0245584e-05
-0.00034458215
4.374985e-05
-6.2633726e-07
-1.8296999e-06
-2.9613591e-05
1.2232461e-06
-8.1104632e-06
-0.00012204986
9.8885522e-06
-1.9491749e-05
-0.00027116772
2.6642527e-05
-3.5410533e-05
-0.00045249755
4.9259382e-05
-5.1444329e-05
-0.0005996834
6.6143324e-05
-6.3221115e-05
-0.00064271198
6.5734458e-05
-6.6800844e-05
-0.00057442439
5.3827539e-05
-6.2337984e-05
-0.00045845127
-5.698004e-05
-0.00034922124
4.5933539e-05
-5.6120306e-07
-2.3588688e-06
-2.9072331e-05
1.3669074e-06
-1.042755e-05
-0.00012003463
1.000117e-05
-2.501444e-05
-0.00026740341
2.6605572e-05
-4.5401481e-05
-0.00044806695
4.9391702e-05
-6.590433e-05
-0.00059730993
6.7662638e-05
-8.064102e-05
-0.00064551762
6.8470295e-05
-8.4979267e-05
-0.00058095587
5.6858269e-05
-7.9184406e-05
-0.00046530607
-7.1349157e-05
-0.00035527486
4.8307434e-05
-4.9895394e-07
-2.8009445e-06
-2.8293703e-05
1.4539809e-06
-1.236489e-05
-0.00011710996
9.8998405e-06
-2.9636659e-05
-0.00026181883
2.6081814e-05
-5.378593e-05
-0.0004410876
4.8777537e-05
-7.8295338e-05
-0.0005924877
6.8383854e-05
-9.5391203e-05
-0.00064672679
7.0665082e-05
-0.00010018127
-0.00058755367
6.0055956e-05
-9.335875e-05
-0.00047306803
-8.3289832e-05
-0.00036079163
5.0533685e-05
-4.1534995e-07
-3.1522641e-06
-2.7237923e-05
1.5758861e-06
-1.3890827e-05
-0.00011309923
9.7971823e-06
-3.3281098e-05
-0.0002539824
2.5514886e-05
-6.0482365e-05
-0.00043074389
4.7542775e-05
-8.8353484e-05
-0.00058394958
6.7635016e-05
-0.00010704962
-0.00064474231
7.157748e-05
-0.00011193255
-0.00059252705
6.2750337e-05
-0.00010448203
-0.00048035267
-9.2738471e-05
-0.00036540209
5.2723223e-05
-3.3861649e-07
-3.3859343e-06
-2.5864962e-05
1.6090103e-06
-1.4897183e-05
-0.0001078149
9.3488617e-06
-3.5691662e-05
-0.00024340365
2.4063082e-05
-6.4999318e-05
-0.00041602483
4.4592568e-05
-9.5308132e-05
-0.00057003106
6.4313785e-05
-0.0001154884
-0.00063702773
7.0508566e-05
-0.00012029214
-0.00059370143
6.4182207e-05
-0.00011218656
-0.00048534463
-9.8803472e-05
-0.00036948323
5.4959751e-05
-2.6103683e-07
-3.4815233e-06
-2.4158535e-05
1.578089e-06
-1.5289731e-05
-0.00010113045
8.6065497e-06
-3.6639207e-05
-0.0002296547
2.1813186e-05
-6.6918126e-05
-0.00039589573
4.0311071e-05
-9.8612448e-05
-0.00054889009
5.9055287e-05
-0.0001198494
-0.00062205237
6.7378359e-05
-0.00012470734
-0.00058850379
6.3986162e-05
-0.00011593502
-0.00048586916
-0.0001007094
-0.00037091854
5.6394797e-05
-2.4214521e-07
-3.3808754e-06
-2.2130748e-05
1.2597962e-06
-1.4874722e-05
-9.3083616e-05
7.1194968e-06
-3.577094e-05
-0.00021275466
1.8191709e-05
-6.5761599e-05
-0.00037023034
3.3996876e-05
-9.7738595e-05
-0.00051991519
5.1116989e-05
-0.00011955399
-0.00059830782
6.1495179e-05
-0.00012441626
-0.00057551998
6.1409698e-05
-0.00011523863
-0.00048025956
-9.8045506e-05
-0.00036802922
5.6301952e-05
-2.2247286e-07
-3.1004066e-06
-1.9759231e-05
8.9984178e-07
-1.3684053e-05
-8.3589006e-05
5.4229315e-06
-3.3076508e-05
-0.00019249523
1.4024849e-05
-6.1376241e-05
-0.00033855839
2.6737817e-05
-9.239993e-05
-0.00048219009
4.1423234e-05
-0.00011433773
-0.00056420739
5.2849502e-05
-0.00011902964
-0.0005519649
5.6101163e-05
-0.00010939915
-0.00046633419
-9.0588494e-05
-0.00035865242
5.4211633e-05
-2.0843407e-07
-2.6503458e-06
-1.7144766e-05
5.1035733e-07
-1.1755369e-05
-7.2984012e-05
3.6855045e-06
-2.8659453e-05
-0.00016943818
9.8268796e-06
-5.3885741e-05
-0.00030142539
1.9171228e-05
-8.2348951e-05
-0.00043577356
3.0743345e-05
-0.00010315211
-0.00051880574
4.1415284e-05
-0.00010736002
-0.00051578976
4.6985007e-05
-9.6978182e-05
-0.00044131954
-7.7513984e-05
-0.00033971868
4.7925612e-05
-1.7638068e-07
-1.4403343e-05
-2.0883033e-06
2.8003172e-07
-6.1769234e-05
-9.3625679e-06
2.3531608e-06
-0.00014468625
-2.3010623e-05
6.0863119e-06
-0.00026047592
-4.3650133e-05
1.1625036e-05
-0.00038213476
-6.737635e-05
1.8993141e-05
-0.00046234573
-8.4827914e-05
2.6758232e-05
-0.00046622105
-8.7290318e-05
3.2090288e-05
-0.0004019025
-7.581025e-05
-0.00030743538
-5.8553886e-05
3.4889979e-05
1.2280596e-07
1.4573518e-06
-1.4514443e-05
-1.4690594e-06
3.2445747e-07
5.9896194e-06
-6.1827274e-05
-6.1332278e-06
1.1398093e-06
1.3383647e-05
-0.0001448852
-1.4000025e-05
4.6954047e-06
2.2195403e-05
-0.00026206793
-2.4158926e-05
1.37483e-05
2.7271668e-05
-0.00038610367
-3.2355499e-05
2.9443355e-05
2.0739582e-05
-0.00046748622
-3.1293983e-05
4.9355012e-05
-1.7254762e-06
-0.00046871249
-1.5694882e-05
6.7969811e-05
-3.2408339e-05
-0.00039833875
1.0229508e-05
-5.4047783e-05
-0.00029903353
3.5029556e-05
7.8585962e-05
2.1263426e-07
1.4437012e-06
-1.7343754e-05
7.6622769e-07
5.776619e-06
-7.3324655e-05
2.69792e-06
1.245842e-05
-0.00017044477
9.0929277e-06
1.9483711e-05
-0.00030510886
2.3196365e-05
2.1128447e-05
-0.00044373378
4.5109668e-05
9.5935011e-06
-0.00052957248
6.9700917e-05
-1.7976161e-05
-0.0005241294
8.9457217e-05
-5.1008649e-05
-0.0004424757
-7.1149012e-05
-0.00033317879
0.00010001794
3.3941589e-07
1.4027442e-06
-2.0057714e-05
1.3327767e-06
5.4592296e-06
-8.42651e-05
4.4193962e-06
1.1333114e-05
-0.00019445669
1.3448522e-05
1.6544701e-05
-0.00034464834
3.2036138e-05
1.5055453e-05
-0.00049470423
5.9246311e-05
-5.1376883e-07
-0.00058131052
8.709533e-05
-3.132588e-05
-0.00056646468
0.00010681149
-6.4304361e-05
-0.00047275452
-8.198211e-05
-0.00035474832
0.00011374022
4.7602925e-07
1.3265803e-06
-2.2530669e-05
1.9418166e-06
5.028318e-06
-9.4118647e-05
6.2257579e-06
1.0047761e-05
-0.00021575336
1.7835488e-05
1.3604688e-05
-0.00037889976
4.0545605e-05
9.6530189e-06
-0.00053722205
7.2235816e-05
-8.5468405e-06
-0.00062196428
0.00010255794
-4.0533699e-05
-0.00059663418
0.00012136183
-7.1610695e-05
-0.00049175716
-8.6382892e-05
-0.00036662051
0.0001243534
6.0437928e-07
1.2199679e-06
-2.4656396e-05
2.5079125e-06
4.5177287e-06
-0.00010252365
7.8942767e-06
8.7096908e-06
-0.000233703
2.1857244e-05
1.0907752e-05
-0.00040716093
4.8284683e-05
5.3297411e-06
-0.00057099354
8.372856e-05
-1.3928056e-05
-0.0006521151
0.00011628264
-4.5016777e-05
-0.00061657431
0.00013390034
-7.3185555e-05
-0.00050191206
-8.5161893e-05
-0.00037151552
0.00013327627
7.1675545e-07
1.0918493e-06
-2.6453638e-05
3.0126611e-06
3.954406e-06
-0.0001095474
9.4100012e-06
7.3674573e-06
-0.00024845832
2.5536934e-05
8.5216805e-06
-0.00042976459
5.5360854e-05
2.193043e-06
-0.00059671777
9.4045508e-05
-1.6646553e-05
-0.00067299441
0.00012864607
-4.5504595e-05
-0.0006278139
0.00014521019
-6.99321e-05
-0.00050516193
-7.9343658e-05
-0.00037134541
0.0001412546
8.277095e-07
9.2979899e-07
-2.7903723e-05
3.5068382e-06
3.3043507e-06
-0.00011512848
1.0857079e-05
5.9725442e-06
-0.00025993758
2.8971467e-05
6.4000442e-06
-0.00044673571
6.1732498e-05
2.4829033e-07
-0.00061476542
0.00010309672
-1.7225914e-05
-0.00068552689
0.00013950195
-4.2740719e-05
-0.00063169591
0.00015516137
-6.2906278e-05
-0.00050303766
-7.0166798e-05
-0.00036753042
0.00014811334
9.1749068e-07
7.4170373e-07
-2.9022946e-05
3.9071582e-06
2.5927833e-06
-0.00011938795
1.2057337e-05
4.5457303e-06
-0.00026854217
3.1933624e-05
4.4531827e-06
-0.00045901645
6.7418336e-05
-9.2144143e-07
-0.00062680259
0.00011133115
-1.5838717e-05
-0.00069202593
0.00014889566
-3.7084668e-05
-0.00063077392
0.00016370842
-5.3075616e-05
-0.00049771139
-5.8940309e-05
-0.00036167915
0.0001533698
9.6601719e-07
5.5472524e-07
-2.9851128e-05
4.1232736e-06
1.9110551e-06
-0.00012250986
1.2747059e-05
3.2650338e-06
-0.00027474639
3.3750973e-05
2.9493455e-06
-0.00046756669
7.1401817e-05
-1.4375174e-06
-0.0006344449
0.00011784548
-1.3155647e-05
-0.00069464352
0.00015646821
-2.9377482e-05
-0.00062728539
0.00017042357
-4.1262021e-05
-0.00049107506
-4.5925211e-05
-0.00035510412
0.00015723806
9.9868344e-07
3.7177219e-07
-3.0429307e-05
4.265835e-06
1.2674713e-06
-0.00012467333
1.3215231e-05
2.1296151e-06
-0.0002789815
3.5027339e-05
1.8376124e-06
-0.00047319762
7.4222514e-05
-1.3566369e-06
-0.00063895952
0.00012271522
-9.3411057e-06
-0.00069501867
0.0001621822
-2.0269672e-05
-0.00062299866
0.00017525712
-2.8130278e-05
-0.00048465783
-3.1207359e-05
-0.00034876269
0.00016008114
1.0274121e-06
1.8332373e-07
-3.081335e-05
4.3955143e-06
6.2103355e-07
-0.00012605715
1.3625691e-05
1.031121e-06
-0.00028156983
3.6081518e-05
8.8896831e-07
-0.0004763924
7.6240122e-05
-8.0791829e-07
-0.00064104435
0.00012602838
-4.8534578e-06
-0.00069409793
0.00016610872
-1.0341396e-05
-0.00061902087
0.00017845766
-1.4290922e-05
-0.00047948755
-1.5986969e-05
-0.00034318249
0.00016183814
1.0338704e-06
8.9150838e-12
-3.0972369e-05
4.4238605e-06
3.0602692e-11
-0.00012665732
1.3742523e-05
7.3711429e-11
-0.00028273805
3.6547766e-05
5.1726792e-11
-0.00047787993
7.7196084e-05
-2.4254543e-10
-0.0006420221
0.00012763477
-6.6994325e-10
-0.00069357618
0.00016809
-9.0824405e-10
-0.0006169741
0.00017992106
-5.4795247e-10
-0.0004768346
6.0299358e-10
-0.00034090715
0.00016268136
1.0339436e-06
-1.8329437e-07
-3.0972365e-05
4.4239946e-06
-6.2094335e-07
-0.0001266573
1.3742585e-05
-1.0309375e-06
-0.00028273801
3.6547672e-05
-8.8884801e-07
-0.00047787988
7.7196093e-05
8.0743502e-07
-0.00064202204
0.00012763481
4.8521176e-06
-0.00069357613
0.00016809007
1.0339544e-05
-0.00061697408
0.00017992122
1.4289758e-05
-0.00047683461
1.5988042e-05
-0.00034090717
0.00016268143
1.0275598e-06
-3.7171698e-07
-3.081335e-05
4.3957678e-06
-1.2673154e-06
-0.00012605715
1.3625781e-05
-2.1293587e-06
-0.00028156984
3.6081242e-05
-1.8374489e-06
-0.00047639241
7.6240202e-05
1.3561698e-06
-0.00064104437
0.00012602851
9.3397643e-06
-0.00069409798
0.00016610894
2.0267735e-05
-0.00061902094
0.00017845811
2.8128964e-05
-0.00047948763
3.1208126e-05
-0.00034318257
0.00016183834
9.9870382e-07
-5.5466128e-07
-3.0429302e-05
4.2658185e-06
-1.9108789e-06
-0.00012467331
1.3215098e-05
-3.2647686e-06
-0.00027898145
3.5026884e-05
-2.9491816e-06
-0.00047319755
7.4222701e-05
1.4370519e-06
-0.00063895945
0.00012271537
1.3154214e-05
-0.00069501867
0.00016218247
2.9375379e-05
-0.00062299872
0.00017525769
4.126055e-05
-0.00048465792
4.5925696e-05
-0.00034876281
0.00016008138
9.6580971e-07
-7.4166668e-07
-2.9851128e-05
4.1228672e-06
-2.5926827e-06
-0.00012250986
1.2746732e-05
-4.5455617e-06
-0.00027474638
3.3750488e-05
-4.4531002e-06
-0.00046756668
7.1402116e-05
9.2087963e-07
-0.0006344449
0.00011784564
1.5836986e-05
-0.0006946436
0.00015646847
3.708231e-05
-0.00062728553
0.00017042411
5.3074087e-05
-0.00049107519
5.8940752e-05
-0.00035510426
0.00015723822
9.1735169e-07
-9.2977794e-07
-2.902295e-05
3.9069799e-06
-3.3042911e-06
-0.00011938796
1.2057343e-05
-5.9724292e-06
-0.0002685422
3.1933376e-05
-6.4000675e-06
-0.0004590165
6.7418633e-05
-2.4907298e-07
-0.00062680269
0.00011133136
1.7223754e-05
-0.00069202611
0.00014889594
4.2738146e-05
-0.00063077412
0.00016370887
6.2904868e-05
-0.00049771157
7.0167517e-05
-0.00036167929
0.00015336981
8.2784363e-07
-1.0918214e-06
-2.7903729e-05
3.5071861e-06
-3.9543276e-06
-0.0001151285
1.0857514e-05
-7.3673663e-06
-0.00025993764
2.897142e-05
-8.5218478e-06
-0.00044673583
6.1732619e-05
-2.1940461e-06
-0.0006147656
0.0001030971
1.6644251e-05
-0.00068552713
0.00013950232
4.5502115e-05
-0.00063169617
0.00015516174
6.9931005e-05
-0.00050303787
7.9344706e-05
-0.00036753056
0.00014811316
7.1683498e-07
-1.2199664e-06
-2.645365e-05
3.0128625e-06
-4.5177427e-06
-0.00010954744
9.4102659e-06
-8.7097849e-06
-0.00024845843
2.5536767e-05
-1.0908123e-05
-0.00042976479
5.5360721e-05
-5.3307433e-06
-0.00059671803
9.4046028e-05
1.3926197e-05
-0.00067299469
0.00012864646
4.5014734e-05
-0.00062781419
0.00014521043
7.3184898e-05
-0.00050516217
8.5163047e-05
-0.00037134555
0.00014125418
6.0447619e-07
-1.3265681e-06
-2.46564e-05
2.5083303e-06
-5.0282995e-06
-0.00010252366
7.8949211e-06
-1.0047845e-05
-0.00023370303
2.1857449e-05
-1.3605159e-05
-0.000407161
4.8284637e-05
-9.6541478e-06
-0.00057099366
8.3728882e-05
8.5450076e-06
-0.00065211525
0.00011628274
4.0531722e-05
-0.00061657451
0.00013390024
7.161034e-05
-0.00050191222
8.6384192e-05
-0.00037151561
0.00013327551
4.7611447e-07
-1.4027386e-06
-2.2530667e-05
1.9421989e-06
-5.4592316e-06
-9.4118637e-05
6.2264569e-06
-1.1333217e-05
-0.00021575334
1.7836058e-05
-1.6545216e-05
-0.00037889977
4.0545712e-05
-1.5056871e-05
-0.0005372221
7.223572e-05
5.1138883e-07
-0.00062196437
0.0001025577
3.1323764e-05
-0.00059663431
0.00012136131
6.4303995e-05
-0.00049175725
8.1983966e-05
-0.00036662052
0.00012435254
3.3946991e-07
-1.4437048e-06
-2.005771e-05
1.3330683e-06
-5.7766566e-06
-8.4265081e-05
4.4199528e-06
-1.2458595e-05
-0.00019445666
1.3448882e-05
-1.948435e-05
-0.00034464831
3.2035919e-05
-2.1129924e-05
-0.00049470422
5.9245888e-05
-9.5955987e-06
-0.00058131054
8.7094586e-05
1.7974705e-05
-0.00056646471
0.00010681076
5.1008522e-05
-0.00047275452
7.115107e-05
-0.00035474827
0.00011373949
2.1267737e-07
-1.457372e-06
-1.7343753e-05
7.664124e-07
-5.9897167e-06
-7.3324651e-05
2.6982198e-06
-1.3383936e-05
-0.00017044477
9.0929764e-06
-2.2196147e-05
-0.00030510886
2.3196056e-05
-2.7273216e-05
-0.00044373382
4.5108957e-05
-2.0741921e-05
-0.00052957255
6.9699414e-05
1.7234962e-06
-0.00052412944
8.9456857e-05
3.2407685e-05
-0.00044247565
5.4048336e-05
-0.00033317875
0.00010001713
1.2282504e-07
-1.4514444e-05
-1.4690764e-06
3.2451839e-07
-6.1827278e-05
-6.1333029e-06
1.1398009e-06
-0.00014488522
-1.4000222e-05
4.6949528e-06
-0.00026206797
-2.4159407e-05
1.374739e-05
-0.00038610372
-3.2356504e-05
2.9442023e-05
-0.00046748628
-3.1295544e-05
4.9352917e-05
-0.00046871252
-1.5696388e-05
6.7969767e-05
-0.00039833868
1.0228621e-05
-0.00029903347
3.5029372e-05
7.8585657e-05
-4.7780324e-08
4.8998854e-07
-1.4560234e-05
-3.9641814e-07
-3.4904654e-08
1.9693968e-06
-6.2196464e-05
-1.6130772e-06
8.2406167e-08
4.0601398e-06
-0.00014565923
-3.4033956e-06
1.7923379e-07
5.2527738e-06
-0.00026271773
-4.6997501e-06
8.7950679e-07
1.6511112e-06
-0.00038588877
-2.5662949e-06
4.5968619e-06
-1.2300647e-05
-0.00046627614
7.3729775e-06
1.4529086e-05
-3.8880855e-05
-0.00046739031
2.7626349e-05
3.1573547e-05
-7.1084177e-05
-0.00039818385
5.3885026e-05
-9.5760081e-05
-0.00030013823
7.6578681e-05
5.1859623e-05
-4.6204072e-08