/*--------------------------------*- C++ -*----------------------------------*\
| =========                 |                                                 |
| \\      /  F ield         | OpenFOAM: The Open Source CFD Toolbox           |
|  \\    /   O peration     | Version:  2406                                  |
|   \\  /    A nd           | Website:  www.openfoam.com                      |
|    \\/     M anipulation  |                                                 |
\*---------------------------------------------------------------------------*/
FoamFile
{
    version     2.0;
    format      ascii;
    arch        "LSB;label=32;scalar=64";
    class       volVectorField;
    location    "7";
    object      U;
}
// * * * * * * * * * * * * * * * * * * * * * * * * * * * * * * * * * * * * * //

dimensions      [0 1 -1 0 0 0 0];

internalField   nonuniform List<vector> 
34560
(
(-0.05857552 0.010468348 0.016473574)
(-0.18027254 0.033129466 0.050601035)
(-0.31486811 0.062506525 0.085312566)
(-0.44342116 0.098822057 0.11315728)
(-0.54002971 0.13998269 0.12746691)
(-0.58338924 0.18323894 0.12522417)
(-0.5716514 0.22476562 0.11069268)
(-0.52497614 0.26009321 0.092235876)
(-0.47107468 0.28574561 0.078475262)
(-0.063653239 0.01188196 0.017607576)
(-0.19333701 0.036813389 0.053552503)
(-0.33234254 0.06811163 0.08854132)
(-0.45845605 0.10560106 0.11417729)
(-0.54417003 0.14688965 0.12412883)
(-0.57073027 0.18936143 0.11705881)
(-0.54242076 0.22901967 0.099223249)
(-0.48519856 0.26161543 0.079890929)
(-0.42645149 0.28427871 0.066875913)
(-0.068337404 0.012558367 0.017795835)
(-0.2053954 0.038570313 0.05391273)
(-0.34836468 0.07072576 0.087833362)
(-0.47181985 0.10845259 0.11071227)
(-0.54664136 0.14901941 0.11676564)
(-0.5570964 0.1898449 0.10601149)
(-0.51422959 0.22684505 0.086047799)
(-0.4485165 0.25609587 0.066525504)
(-0.38657672 0.275561 0.054538661)
(-0.072346228 0.013018338 0.017821437)
(-0.21550091 0.039579723 0.053716387)
(-0.36126502 0.071797315 0.086115106)
(-0.48145505 0.10873973 0.10588412)
(-0.54590144 0.14752526 0.10806759)
(-0.54205102 0.18568336 0.094155615)
(-0.48744763 0.21916067 0.072819891)
(-0.41549017 0.24461166 0.053779868)
(-0.35174315 0.26076176 0.043364322)
(-0.075543201 0.012899746 0.017528701)
(-0.22338142 0.039013175 0.052671555)
(-0.3707911 0.07033056 0.083222004)
(-0.48722974 0.1056339 0.099928547)
(-0.54197594 0.14195852 0.098677211)
(-0.52577149 0.17682506 0.082221428)
(-0.46187395 0.20641386 0.060149655)
(-0.38562661 0.22804191 0.042117688)
(-0.3213483 0.24110506 0.033564935)
(-0.078046816 0.012378751 0.016962668)
(-0.22935781 0.037294151 0.050866053)
(-0.37744228 0.066822327 0.079320187)
(-0.48977741 0.099558713 0.093122219)
(-0.53552556 0.13266604 0.088951366)
(-0.50878533 0.1636754 0.070616287)
(-0.43755417 0.18917894 0.048401346)
(-0.35860653 0.20709639 0.031727202)
(-0.29485073 0.21736895 0.0250841)
(-0.07991622 0.01141812 0.016316594)
(-0.23361082 0.034281008 0.048825298)
(-0.38157654 0.061105055 0.075142457)
(-0.48972036 0.090416211 0.086224648)
(-0.52734164 0.11962342 0.079545814)
(-0.49185975 0.1463643 0.059812954)
(-0.41491742 0.16775986 0.03784698)
(-0.33443961 0.18222077 0.022705629)
(-0.27192166 0.19005898 0.017879605)
(-0.081237355 0.00998313 0.015620511)
(-0.23646653 0.029920078 0.046681129)
(-0.38385239 0.053159565 0.070984676)
(-0.4880588 0.078278852 0.079689166)
(-0.51864905 0.103004 0.070962999)
(-0.47604442 0.12521154 0.050230451)
(-0.39468614 0.14258705 0.028733948)
(-0.31343696 0.15390738 0.015137644)
(-0.25249669 0.15969188 0.011967284)
(-0.082132202 0.0081467088 0.014957638)
(-0.2382981 0.024401504 0.04466769)
(-0.38493043 0.043280227 0.06721115)
(-0.48573208 0.063536729 0.073956867)
(-0.51059313 0.083296455 0.063625019)
(-0.46235889 0.10078162 0.042199798)
(-0.37758326 0.11423031 0.021254176)
(-0.29599651 0.12270965 0.0090839425)
(-0.23665668 0.12679249 0.0073458565)
(-0.082705941 0.0060311398 0.014392784)
(-0.23939933 0.018060189 0.04296513)
(-0.38528859 0.031986122 0.064100849)
(-0.48337237 0.046840901 0.069354378)
(-0.50384481 0.061239322 0.057856666)
(-0.45139065 0.073839837 0.036002133)
(-0.36416391 0.083395294 0.015577561)
(-0.28249133 0.089259081 0.0045934266)
(-0.22454962 0.09191323 0.0039824536)
(-0.083061104 0.0037274101 0.014001936)
(-0.2399998 0.011145911 0.041778508)
(-0.38524817 0.019691244 0.061931673)
(-0.48138587 0.028749056 0.066168035)
(-0.49887203 0.037481897 0.05391223)
(-0.44363538 0.045065444 0.031826237)
(-0.35487295 0.050761517 0.011818121)
(-0.27325382 0.054187187 0.0017029322)
(-0.21635114 0.055651225 0.0018495909)
(-0.08319439 0.0012293265 0.013803543)
(-0.24022805 0.0036810486 0.041187707)
(-0.38517378 0.0065321877 0.060871286)
(-0.48037232 0.0095809184 0.064618836)
(-0.4963827 0.012532114 0.051991482)
(-0.43974309 0.015094744 0.029787404)
(-0.35019838 0.017014814 0.0099852121)
(-0.2686016 0.018162563 0.00031463844)
(-0.21222562 0.018643416 0.00083548074)
(-0.083194392 -0.0012292901 0.013803552)
(-0.24022805 -0.0036810044 0.041187798)
(-0.38517376 -0.0065322125 0.060871351)
(-0.48037229 -0.0095809929 0.064618762)
(-0.49638275 -0.012532068 0.051991359)
(-0.43974313 -0.015094756 0.029787355)
(-0.35019843 -0.017014815 0.009985192)
(-0.26860165 -0.018162545 0.00031469854)
(-0.21222565 -0.018643476 0.00083554868)
(-0.083061115 -0.0037273787 0.014001986)
(-0.23999982 -0.011145846 0.041778766)
(-0.38524811 -0.019691203 0.061931831)
(-0.4813858 -0.028749048 0.066167818)
(-0.49887215 -0.037481871 0.053911927)
(-0.44363548 -0.045065532 0.031826137)
(-0.35487308 -0.050761633 0.011818074)
(-0.27325396 -0.05418726 0.0017030847)
(-0.2163512 -0.055651273 0.0018497513)
(-0.082705951 -0.0060311385 0.014392849)
(-0.23939934 -0.018060148 0.04296533)
(-0.38528852 -0.031986028 0.064100875)
(-0.48337234 -0.046840837 0.069354031)
(-0.503845 -0.061239387 0.057856364)
(-0.45139075 -0.073840042 0.036002079)
(-0.36416406 -0.083395572 0.015577509)
(-0.28249151 -0.089259286 0.0045936064)
(-0.2245497 -0.091913254 0.0039826107)
(-0.082132191 -0.0081466865 0.014957593)
(-0.23829806 -0.024401433 0.044667492)
(-0.38493041 -0.043280082 0.067210878)
(-0.48573214 -0.06353669 0.073956564)
(-0.51059332 -0.083296649 0.063624912)
(-0.46235891 -0.1007819 0.042199816)
(-0.37758338 -0.1142307 0.021254123)
(-0.29599667 -0.12270997 0.0090840738)
(-0.23665676 -0.1267925 0.0073459098)
(-0.08123737 -0.0099830913 0.015620426)
(-0.23646659 -0.029920019 0.046680971)
(-0.38385253 -0.053159492 0.070984731)
(-0.48805889 -0.078278887 0.079689349)
(-0.5186491 -0.1030042 0.07096312)
(-0.47604433 -0.12521172 0.050230473)
(-0.39468616 -0.14258741 0.028733905)
(-0.31343704 -0.15390774 0.015137679)
(-0.25249676 -0.15969191 0.011967204)
(-0.07991623 -0.011418136 0.016316642)
(-0.23361085 -0.034281041 0.048825533)
(-0.38157655 -0.061105042 0.07514288)
(-0.48972022 -0.090416143 0.08622493)
(-0.5273415 -0.11962342 0.079545834)
(-0.49185966 -0.14636431 0.05981294)
(-0.41491737 -0.16776006 0.037846988)
(-0.33443961 -0.18222103 0.022705571)
(-0.2719217 -0.1900591 0.017879467)
(-0.078046801 -0.012378723 0.016962622)
(-0.22935778 -0.037294089 0.050865916)
(-0.37744227 -0.066822209 0.079320056)
(-0.48977744 -0.099558604 0.093122181)
(-0.5355256 -0.13266611 0.088951401)
(-0.50878547 -0.16367551 0.070616393)
(-0.43755418 -0.18917906 0.04840142)
(-0.35860653 -0.20709649 0.031727147)
(-0.29485072 -0.21736916 0.02508402)
(-0.075543231 -0.012899747 0.017528709)
(-0.22338152 -0.039013135 0.052671713)
(-0.37079127 -0.070330483 0.083222451)
(-0.48722977 -0.10563385 0.099929132)
(-0.5419758 -0.14195871 0.098677415)
(-0.5257716 -0.17682544 0.082221434)
(-0.461874 -0.20641412 0.060149645)
(-0.38562667 -0.22804197 0.042117732)
(-0.3213482 -0.24110516 0.033564926)
(-0.072346215 -0.013018374 0.01782147)
(-0.21550086 -0.039579779 0.053716541)
(-0.3612649 -0.071797405 0.086115336)
(-0.48145486 -0.10873986 0.10588421)
(-0.5459013 -0.1475255 0.10806741)
(-0.54205109 -0.18568376 0.094155452)
(-0.48744772 -0.21916098 0.07281972)
(-0.41549028 -0.24461187 0.053779912)
(-0.35174301 -0.26076177 0.043364451)
(-0.068337389 -0.012558329 0.017795824)
(-0.20539535 -0.038570212 0.053912738)
(-0.34836459 -0.07072563 0.087833405)
(-0.47181974 -0.10845255 0.1107122)
(-0.54664131 -0.14901951 0.11676542)
(-0.55709639 -0.18984518 0.1060112)
(-0.51422977 -0.2268455 0.086047716)
(-0.44851666 -0.25609629 0.066525773)
(-0.38657661 -0.27556131 0.054538945)
(-0.063653233 -0.011881971 0.017607582)
(-0.19333699 -0.036813451 0.053552499)
(-0.33234251 -0.068111763 0.088541304)
(-0.45845608 -0.10560137 0.11417715)
(-0.54417021 -0.1468901 0.12412866)
(-0.57073049 -0.1893619 0.11705885)
(-0.5424209 -0.22902026 0.099223508)
(-0.48519876 -0.2616159 0.079891393)
(-0.42645102 -0.28427865 0.066875877)
(-0.058575498 -0.010468349 0.016473582)
(-0.18027246 -0.033129493 0.050601041)
(-0.31486796 -0.062506576 0.08531258)
(-0.44342097 -0.098822255 0.11315719)
(-0.54002959 -0.13998308 0.12746683)
(-0.58338925 -0.18323938 0.12522431)
(-0.57165137 -0.22476599 0.11069276)
(-0.52497601 -0.26009349 0.09223599)
(-0.47107426 -0.28574547 0.078474941)
(-0.095410932 0.0015533769 0.0014342425)
(-0.29633495 0.005029612 0.0044866588)
(-0.5230963 0.0094131164 0.0076560618)
(-0.7465762 0.01431128 0.010182185)
(-0.92514274 0.018931336 0.011038496)
(-1.0228063 0.022383182 0.0094291943)
(-1.0331807 0.024361246 0.0054699814)
(-0.98355619 0.025424967 0.00036717764)
(-0.91395249 0.025762753 -0.0049377533)
(-0.10440974 0.0018892342 0.0015514782)
(-0.32061092 0.0060161939 0.0047908203)
(-0.55830729 0.011020646 0.0079878349)
(-0.78274251 0.01631347 0.010221705)
(-0.9485854 0.020937787 0.010386282)
(-1.0223395 0.024007617 0.0078662729)
(-1.0064516 0.025469867 0.0031829097)
(-0.93738651 0.025968122 -0.0019770119)
(-0.85874546 0.025820071 -0.0068691426)
(-0.11263697 0.0020588441 0.0014767762)
(-0.34269254 0.0065332774 0.0045419263)
(-0.58999472 0.01187694 0.007434147)
(-0.81452879 0.01735268 0.0091827947)
(-0.9678891 0.021886651 0.0087079026)
(-1.0199869 0.024651715 0.0055630217)
(-0.98196341 0.025757005 0.00066565934)
(-0.89839678 0.025727003 -0.0039153866)
(-0.81466483 0.025090208 -0.0076377476)
(-0.11985516 0.0021562832 0.0013525864)
(-0.36172025 0.0068088863 0.0041275547)
(-0.61657871 0.012280789 0.0065856243)
(-0.83987272 0.017738293 0.0077404312)
(-0.9810883 0.022063684 0.0065879974)
(-1.014105 0.02451668 0.002916682)
(-0.95806669 0.025291481 -0.0019369954)
(-0.86429512 0.02473613 -0.0056442291)
(-0.77797365 0.023746782 -0.0079649719)
(-0.12577525 0.0021323527 0.0011704428)
(-0.37708245 0.006731941 0.0035498273)
(-0.63742714 0.012105275 0.005496564)
(-0.85840951 0.017373907 0.0060484588)
(-0.98811393 0.021417296 0.0042917626)
(-1.0045867 0.023607365 0.00017826672)
(-0.93423218 0.024061105 -0.0044327193)
(-0.83378134 0.023078996 -0.0071738485)
(-0.74688318 0.021871677 -0.0082373835)
(-0.13059682 0.0020191272 0.00095234558)
(-0.38931184 0.0063842145 0.002868937)
(-0.653359 0.011461341 0.0042726077)
(-0.87114391 0.01637827 0.0042572246)
(-0.98997373 0.020069877 0.0019780724)
(-0.99199861 0.022010783 -0.002418015)
(-0.91049334 0.022230872 -0.0066966755)
(-0.80611901 0.02097489 -0.0084753719)
(-0.72015579 0.019661978 -0.0084768232)
(-0.13443951 0.0018358934 0.00074139908)
(-0.39877702 0.0058112542 0.0022074744)
(-0.66504728 0.010418265 0.0030915916)
(-0.87909482 0.014838764 0.0025576764)
(-0.98791011 0.018111748 -0.00015206208)
(-0.97755541 0.019816581 -0.0047211386)
(-0.88753873 0.019885698 -0.0086301858)
(-0.78116848 0.018485152 -0.0095146319)
(-0.69709468 0.017190281 -0.0086961295)
(-0.13734103 0.0015922501 0.00054666247)
(-0.40574814 0.0050452656 0.0015974859)
(-0.67319414 0.0090369825 0.002011055)
(-0.88350852 0.012830961 0.0010274432)
(-0.98368163 0.015507816 -0.00198141)
(-0.96311036 0.016990968 -0.006576403)
(-0.8665368 0.017035734 -0.010116314)
(-0.7593149 0.015657462 -0.010259374)
(-0.6774964 0.014539327 -0.0089152033)
(-0.13944176 0.0012952502 0.00037591831)
(-0.41067804 0.0041111763 0.0010588225)
(-0.67862892 0.0073670031 0.0010584016)
(-0.88558112 0.010455223 -0.00030983094)
(-0.97866762 0.012617412 -0.0035453014)
(-0.94994175 0.013805015 -0.0080741963)
(-0.84849531 0.013745513 -0.011180304)
(-0.74105283 0.012540441 -0.010754171)
(-0.66141612 0.011718719 -0.0090993987)
(-0.14087651 0.00095078061 0.00023751322)
(-0.41397839 0.0030267681 0.00062286593)
(-0.68205388 0.0054326922 0.00029430232)
(-0.88626252 0.0077176213 -0.0013670405)
(-0.97392458 0.0093186129 -0.0047621486)
(-0.93910624 0.010189954 -0.0091932863)
(-0.83420805 0.010104306 -0.011892575)
(-0.72684897 0.0091928558 -0.01106432)
(-0.64904855 0.008691469 -0.0092255437)
(-0.14189629 0.00058580494 0.00014155289)
(-0.41620346 0.001863775 0.00031790456)
(-0.68416228 0.0033391188 -0.00024031247)
(-0.88627788 0.0047160613 -0.0020765435)
(-0.97013225 0.0057347568 -0.0055853748)
(-0.93124359 0.0062695859 -0.0099275547)
(-0.82421409 0.0061953315 -0.012294901)
(-0.71707673 0.0056428272 -0.011240163)
(-0.64061268 0.0053944138 -0.0092948898)
(-0.14226542 0.00019730476 9.4696622e-05)
(-0.41704469 0.00062663538 0.00016833877)
(-0.6849563 0.001121886 -0.00050309634)
(-0.88613052 0.0015814034 -0.0024278338)
(-0.968179 0.0019213736 -0.005977587)
(-0.92729044 0.0020988058 -0.010273942)
(-0.81919605 0.0020689564 -0.012448497)
(-0.7121513 0.0018928269 -0.011312704)
(-0.63631637 0.0018265017 -0.0093350435)
(-0.14226541 -0.00019727364 9.469454e-05)
(-0.41704468 -0.00062657895 0.00016835347)
(-0.68495627 -0.001121848 -0.00050307988)
(-0.88613048 -0.0015813934 -0.0024278643)
(-0.96817901 -0.0019213465 -0.0059776352)
(-0.92729047 -0.0020988633 -0.010273961)
(-0.8191961 -0.0020690096 -0.012448523)
(-0.71215136 -0.001892762 -0.011312694)
(-0.6363164 -0.0018263536 -0.0093350175)
(-0.14189628 -0.00058577697 0.00014156064)
(-0.41620344 -0.0018637155 0.00031797398)
(-0.68416221 -0.0033390629 -0.00024024821)
(-0.8862778 -0.0047160376 -0.0020766157)
(-0.97013229 -0.0057347621 -0.0055854873)
(-0.93124367 -0.0062697131 -0.0099275889)
(-0.82421423 -0.0061954738 -0.012294968)
(-0.71707688 -0.0056428462 -0.011240142)
(-0.64061277 -0.0053942839 -0.0092948343)
(-0.14087651 -0.00095076978 0.0002375355)
(-0.41397838 -0.0030267278 0.00062295753)
(-0.68205383 -0.0054326282 0.00029435672)
(-0.88626248 -0.0077175971 -0.0013671513)
(-0.97392466 -0.0093186943 -0.0047622614)
(-0.93910636 -0.010190194 -0.0091932974)
(-0.83420826 -0.010104587 -0.011892666)
(-0.72684918 -0.0091930107 -0.011064308)
(-0.64904866 -0.0086913714 -0.0092255169)
(-0.13944176 -0.001295237 0.00037591453)
(-0.41067805 -0.0041111298 0.0010588013)
(-0.67862894 -0.0073669199 0.0010583481)
(-0.88558117 -0.010455217 -0.00030994058)
(-0.97866774 -0.012617584 -0.0035453357)
(-0.94994188 -0.013805336 -0.0080741707)
(-0.84849551 -0.013745909 -0.011180406)
(-0.74105304 -0.012540731 -0.010754194)
(-0.66141623 -0.011718672 -0.0090994605)
(-0.13734105 -0.0015922164 0.0005466288)
(-0.40574821 -0.0050451978 0.0015974095)
(-0.67319427 -0.0090368944 0.0020110523)
(-0.88350868 -0.012830979 0.0010274911)
(-0.98368174 -0.015508015 -0.001981348)
(-0.96311045 -0.016991261 -0.0065763842)
(-0.86653694 -0.017036146 -0.010116408)
(-0.75931504 -0.015657817 -0.010259436)
(-0.67749652 -0.014539347 -0.0089153522)
(-0.13443953 -0.0018358842 0.00074139722)
(-0.39877709 -0.0058112369 0.002207533)
(-0.66504739 -0.010418227 0.0030917552)
(-0.87909493 -0.014838773 0.0025578098)
(-0.98791017 -0.018111886 -0.00015204281)
(-0.97755546 -0.019816767 -0.0047211635)
(-0.88753878 -0.019886027 -0.0086302274)
(-0.78116857 -0.018485463 -0.0095146961)
(-0.69709486 -0.017190363 -0.008696295)
(-0.13059682 -0.002019109 0.00095231531)
(-0.38931185 -0.0063841759 0.0028688791)
(-0.65335907 -0.011461275 0.0042725445)
(-0.87114408 -0.016378236 0.00425715)
(-0.98997385 -0.020069998 0.0019780001)
(-0.99199869 -0.022010968 -0.0024180273)
(-0.91049337 -0.022231125 -0.0066966323)
(-0.8061191 -0.0209751 -0.0084753729)
(-0.720156 -0.019662089 -0.0084769425)
(-0.12577528 -0.0021323345 0.0011704233)
(-0.37708254 -0.0067318939 0.0035498227)
(-0.63742731 -0.012105198 0.0054966528)
(-0.8584097 -0.017373871 0.0060486221)
(-0.98811401 -0.021417443 0.0042918427)
(-1.0045868 -0.023607639 0.00017830659)
(-0.93423231 -0.024061356 -0.0044326271)
(-0.8337815 -0.023079144 -0.0071737398)
(-0.74688333 -0.021871719 -0.0082374163)
(-0.11985515 -0.0021562912 0.0013525908)
(-0.36172021 -0.0068089066 0.0041276055)
(-0.61657862 -0.01228084 0.0065857317)
(-0.83987264 -0.01773842 0.0077405152)
(-0.98108837 -0.022063924 0.0065879974)
(-1.0141052 -0.02451701 0.0029167214)
(-0.95806689 -0.025291698 -0.0019368893)
(-0.8642953 -0.024736205 -0.005644066)
(-0.7779737 -0.023746758 -0.007964838)
(-0.11263697 -0.0020588442 0.0014767841)
(-0.34269254 -0.0065332774 0.0045419748)
(-0.58999474 -0.011876956 0.0074342404)
(-0.81452888 -0.017352769 0.009182849)
(-0.9678893 -0.021886832 0.0087078852)
(-1.019987 -0.024651976 0.0055630018)
(-0.98196359 -0.025757227 0.00066575718)
(-0.89839687 -0.025727003 -0.0039151091)
(-0.81466484 -0.025090271 -0.0076374348)
(-0.10440972 -0.0018892527 0.0015514923)
(-0.32061088 -0.0060162509 0.0047908586)
(-0.55830723 -0.011020749 0.0079878792)
(-0.78274248 -0.016313663 0.010221676)
(-0.94858552 -0.020938042 0.010386228)
(-1.0223398 -0.024007865 0.0078663733)
(-1.0064518 -0.025470125 0.0031831594)
(-0.93738651 -0.025968145 -0.0019765659)
(-0.85874528 -0.025820109 -0.0068687981)
(-0.095410914 -0.0015534045 0.0014342648)
(-0.29633489 -0.0050296934 0.0044867215)
(-0.52309621 -0.0094132524 0.0076561493)
(-0.74657611 -0.014311504 0.01018225)
(-0.92514273 -0.018931644 0.011038611)
(-1.0228064 -0.022383499 0.0094294381)
(-1.0331807 -0.024361568 0.0054702339)
(-0.98355587 -0.025425113 0.00036762101)
(-0.9139522 -0.025762626 -0.0049376506)
(-0.079477839 0.00097553206 0.00087259194)
(-0.24803256 0.0029252399 0.002558424)
(-0.44011474 0.0050140402 0.004087619)
(-0.63128454 0.0069044142 0.0048205623)
(-0.78408964 0.0081710955 0.0038206291)
(-0.86309635 0.008367321 0.000373732)
(-0.85846009 0.0071874548 -0.0053255068)
(-0.7949942 0.0047229153 -0.011533229)
(-0.71309315 0.0020402695 -0.016202638)
(-0.086356603 0.0009513511 0.00074302944)
(-0.26679479 0.0027663282 0.0021218168)
(-0.46763932 0.0045872538 0.0031961615)
(-0.65960943 0.0060477729 0.0032492659)
(-0.80118682 0.0067491352 0.0012583835)
(-0.85771395 0.006314326 -0.0034165364)
(-0.82673558 0.0045711733 -0.010238271)
(-0.74268654 0.0018664866 -0.017051717)
(-0.64973493 -0.0006756141 -0.021528763)
(-0.092613905 0.00091810554 0.0006106897)
(-0.28385937 0.0025984387 0.001689524)
(-0.49257329 0.0041765252 0.0023496106)
(-0.68494242 0.0052789677 0.001835999)
(-0.81583202 0.005567559 -0.00092688513)
(-0.85198622 0.0047797624 -0.0065197367)
(-0.79839462 0.0028700029 -0.014129442)
(-0.69806283 0.00036538542 -0.021256809)
(-0.59803294 -0.0018320158 -0.025379979)
(-0.098039871 0.00087054589 0.00048862159)
(-0.29845727 0.0024011291 0.0012975943)
(-0.51346838 0.0037432474 0.0015906338)
(-0.70530004 0.0045311458 0.00058366445)
(-0.82593685 0.0044932597 -0.002838738)
(-0.84404975 0.0034755073 -0.0091847141)
(-0.77165264 0.0015433384 -0.017395765)
(-0.658886 -0.00065829411 -0.02466363)
(-0.55418213 -0.0025671442 -0.02843969)
(-0.10237209 0.00080613545 0.00037721594)
(-0.30997541 0.0021740322 0.00095197046)
(-0.52955957 0.0032953933 0.00094110807)
(-0.71998889 0.0038254715 -0.0004625115)
(-0.83099841 0.0035586774 -0.004407146)
(-0.83334674 0.0024181188 -0.011372418)
(-0.74566105 0.00059603064 -0.020042421)
(-0.62374771 -0.0012517371 -0.027391189)
(-0.51644099 -0.0028467579 -0.030811663)
(-0.10578887 0.0007326183 0.00027369439)
(-0.31885147 0.0019372475 0.00064026294)
(-0.54144445 0.0028613125 0.00037760498)
(-0.72963525 0.0031926197 -0.001338429)
(-0.8315148 0.0027879521 -0.0056940945)
(-0.82009594 0.0016361528 -0.013119306)
(-0.7200618 8.6661651e-06 -0.022138629)
(-0.59176692 -0.001474841 -0.029550548)
(-0.48358 -0.0027748139 -0.032660097)
(-0.1084113 0.00064134981 0.00018126556)
(-0.32543377 0.0016662283 0.00036755087)
(-0.54970398 0.0024056547 -0.00010595072)
(-0.7350274 0.0025898469 -0.0020715379)
(-0.82837176 0.0021337605 -0.0067500873)
(-0.80507537 0.0010674737 -0.014535844)
(-0.69521637 -0.00032975199 -0.023805568)
(-0.56270962 -0.0014452407 -0.031273338)
(-0.4549368 -0.0024989171 -0.034082018)
(-0.11028774 0.00053025087 0.0001004636)
(-0.32998488 0.0013583232 0.00013651078)
(-0.55497072 0.0019244637 -0.00049697949)
(-0.73725104 0.002020279 -0.0026386521)
(-0.82297323 0.0017086881 -0.0075888622)
(-0.78974996 0.00076775202 -0.015704029)
(-0.67222474 -0.00045507592 -0.025147304)
(-0.53702976 -0.0012655738 -0.032634397)
(-0.43043001 -0.0021599357 -0.035108936)
(-0.11156322 0.0004100139 3.6790122e-05)
(-0.33296056 0.0010358842 -3.8060739e-05)
(-0.5580654 0.0014374589 -0.00077353955)
(-0.73750742 0.0014558966 -0.0030163536)
(-0.81688742 0.0011846224 -0.0081471148)
(-0.7757228 0.00044804435 -0.016523123)
(-0.65225723 -0.00044988697 -0.026166848)
(-0.51538336 -0.0010193108 -0.033636237)
(-0.41027148 -0.0017881832 -0.035796471)
(-0.11237696 0.00029363298 -9.3241461e-06)
(-0.33478142 0.0007333727 -0.00016181068)
(-0.55970042 0.0010001082 -0.00096187352)
(-0.73675783 0.00098271992 -0.0032628532)
(-0.81121291 0.00076767161 -0.0085037729)
(-0.76406181 0.00024607017 -0.017067111)
(-0.63626855 -0.00036096217 -0.02688981)
(-0.49841595 -0.00073938446 -0.034317009)
(-0.3947527 -0.00133763 -0.036213828)
(-0.11296878 0.00017707881 -4.0266389e-05)
(-0.33600105 0.000440045 -0.00024390471)
(-0.5605988 0.00059811349 -0.0010877466)
(-0.73577369 0.00060550748 -0.0034518079)
(-0.80672966 0.00043482131 -0.0087436112)
(-0.75553572 0.00012411742 -0.017419082)
(-0.62497353 -0.00021928645 -0.027385804)
(-0.48667366 -0.00044763674 -0.034750974)
(-0.3841824 -0.00083346603 -0.036440031)
(-0.11313643 5.7734225e-05 -5.4449313e-05)
(-0.33635188 0.00014230726 -0.00027993099)
(-0.56078192 0.00019176127 -0.0011405423)
(-0.73510243 0.00019258587 -0.0035277873)
(-0.80440552 0.00013526375 -0.0088542904)
(-0.75122888 3.4688779e-05 -0.017582614)
(-0.61927427 -7.1937634e-05 -0.027645828)
(-0.48074909 -0.00015213251 -0.03495358)
(-0.378887 -0.00028926691 -0.036528467)
(-0.11313643 -5.7719573e-05 -5.4454131e-05)
(-0.33635187 -0.00014227266 -0.00027994985)
(-0.56078191 -0.00019170648 -0.0011405596)
(-0.73510243 -0.00019255911 -0.0035277877)
(-0.80440552 -0.00013535878 -0.0088542797)
(-0.75122889 -3.4910545e-05 -0.017582613)
(-0.6192743 7.1663024e-05 -0.027645833)
(-0.48074913 0.00015196429 -0.034953602)
(-0.37888703 0.00028943111 -0.036528499)
(-0.11296877 -0.00017705516 -4.027897e-05)
(-0.33600104 -0.00043999477 -0.00024394638)
(-0.56059877 -0.00059804496 -0.0010877807)
(-0.73577368 -0.0006054746 -0.0034517995)
(-0.80672967 -0.00043491647 -0.008743582)
(-0.75553577 -0.0001243421 -0.017419082)
(-0.62497362 0.00021900122 -0.027385815)
(-0.48667376 0.00044744949 -0.03475103)
(-0.38418249 0.00083359384 -0.036440112)
(-0.11237696 -0.00029359548 -9.3335963e-06)
(-0.33478141 -0.00073329591 -0.00016183192)
(-0.55970041 -0.0010000161 -0.00096187893)
(-0.73675783 -0.00098267391 -0.0032628197)
(-0.81121294 -0.00076776393 -0.0085037357)
(-0.76406192 -0.00024630517 -0.017067112)
(-0.63626871 0.00036065775 -0.026889813)
(-0.49841611 0.00073917157 -0.034317074)
(-0.39475284 0.0013377098 -0.036213926)
(-0.11156322 -0.00040997648 3.6798248e-05)
(-0.33296057 -0.001035806 -3.8034525e-05)
(-0.55806543 -0.0014373654 -0.00077350222)
(-0.73750747 -0.0014558499 -0.0030163072)
(-0.81688749 -0.0011847212 -0.0081470828)
(-0.77572298 -0.00044831206 -0.016523117)
(-0.65225744 0.00044955237 -0.02616683)
(-0.51538356 0.0010190803 -0.033636286)
(-0.41027165 0.0017882381 -0.035796557)
(-0.11028775 -0.00053023001 0.00010047499)
(-0.32998491 -0.0013582786 0.000136524)
(-0.55497077 -0.0019244057 -0.00049698141)
(-0.73725114 -0.0020202632 -0.0026386489)
(-0.82297336 -0.0017088202 -0.0075888381)
(-0.7897502 -0.00076808042 -0.015703995)
(-0.67222498 0.00045470216 -0.025147263)
(-0.53702998 0.0012653434 -0.03263442)
(-0.43043021 0.0021600124 -0.035108997)
(-0.10841132 -0.00064133232 0.0001812542)
(-0.32543381 -0.0016661976 0.00036749584)
(-0.54970406 -0.002405626 -0.00010603146)
(-0.73502755 -0.002589874 -0.0020715727)
(-0.82837193 -0.002133937 -0.0067500403)
(-0.8050756 -0.0010678583 -0.014535769)
(-0.69521661 0.00032935065 -0.023805519)
(-0.56270986 0.0014450282 -0.031273345)
(-0.45493703 0.0024990449 -0.034082058)
(-0.10578888 -0.0007326074 0.00027368711)
(-0.31885152 -0.0019372363 0.00064023021)
(-0.54144455 -0.0028613227 0.00037756205)
(-0.72963542 -0.0031926905 -0.0013384192)
(-0.83151495 -0.0027881423 -0.005694)
(-0.8200961 -0.0016365151 -0.013119204)
(-0.72006201 -9.048483e-06 -0.022138579)
(-0.59176716 0.001474662 -0.02955053)
(-0.48358025 0.002774971 -0.032660083)
(-0.10237211 -0.00080613815 0.0003772122)
(-0.30997545 -0.002174062 0.00095193863)
(-0.52955964 -0.0032954732 0.00094104507)
(-0.71998902 -0.0038256175 -0.00046253639)
(-0.83099857 -0.0035589023 -0.0044070674)
(-0.8333469 -0.0024184511 -0.011372299)
(-0.74566126 -0.00059637843 -0.020042317)
(-0.62374796 0.0012515951 -0.027391074)
(-0.51644121 0.0028469117 -0.030811519)
(-0.098039876 -0.00087054248 0.00048861523)
(-0.29845729 -0.0024011492 0.0012975593)
(-0.51346841 -0.0037433276 0.001590573)
(-0.70530014 -0.0045313289 0.00058363267)
(-0.82593703 -0.0044935532 -0.0028386579)
(-0.84404995 -0.0034758858 -0.0091845319)
(-0.77165287 -0.0015436966 -0.017395535)
(-0.65888621 0.00065815541 -0.024663333)
(-0.55418226 0.0025673316 -0.028439424)
(-0.092613912 -0.00091810474 0.00061068633)
(-0.28385939 -0.0025984646 0.0016895035)
(-0.49257333 -0.0041766098 0.002349583)
(-0.68494252 -0.0052791598 0.0018360188)
(-0.81583221 -0.0055678739 -0.0009267257)
(-0.85198642 -0.0047801526 -0.0065194444)
(-0.7983948 -0.0028703314 -0.014129067)
(-0.69806293 -0.00036552152 -0.021256364)
(-0.59803299 0.001832248 -0.025379667)
(-0.086356603 -0.00095136524 0.00074303714)
(-0.26679478 -0.0027663853 0.0021218377)
(-0.46763933 -0.0045873743 0.0031962025)
(-0.65960947 -0.006047984 0.0032493767)
(-0.80118692 -0.0067494608 0.0012586344)
(-0.8577141 -0.0063147227 -0.0034161357)
(-0.82673571 -0.0045715069 -0.01023769)
(-0.74268648 -0.0018666616 -0.017051084)
(-0.64973497 0.00067569988 -0.021528245)
(-0.079477833 -0.0009755442 0.00087260089)
(-0.24803254 -0.0029252826 0.0025584542)
(-0.44011471 -0.0050141284 0.0040876801)
(-0.63128453 -0.0069045513 0.0048207165)
(-0.78408967 -0.0081712962 0.0038209391)
(-0.86309641 -0.0083675732 0.00037423185)
(-0.85846014 -0.0071876726 -0.0053248065)
(-0.79499407 -0.0047229649 -0.011532528)
(-0.71309312 -0.0020401489 -0.01620222)
(-0.087877186 0.00029859664 0.00027382681)
(-0.27341951 0.00087636911 0.00078422465)
(-0.48369476 0.0013998383 0.0011598006)
(-0.69175965 0.0015288644 0.0011460278)
(-0.85759196 0.00073758366 0.00044082419)
(-0.94463377 -0.0014741219 -0.0012305962)
(-0.94360369 -0.005180783 -0.0039533342)
(-0.88082966 -0.0097326011 -0.0073955959)
(-0.79786192 -0.014189293 -0.011019643)
(-0.095754177 0.00034718604 0.00028143745)
(-0.29491988 0.00098997854 0.00078451809)
(-0.51543355 0.0015147093 0.0010835192)
(-0.72525583 0.0014985503 0.00087104109)
(-0.88033431 0.0003291334 -0.00020212872)
(-0.94511162 -0.0025089145 -0.0024098029)
(-0.9178017 -0.0069549949 -0.0057500282)
(-0.83384005 -0.012073208 -0.0097005613)
(-0.73870265 -0.016622444 -0.013641821)
(-0.10297087 0.00038607745 0.00026919954)
(-0.31463863 0.0010749411 0.00072301477)
(-0.54450819 0.0015891069 0.0009005976)
(-0.75581253 0.0014466953 0.00046888334)
(-0.90097599 -6.2793351e-06 -0.00092525318)
(-0.94598842 -0.0032492941 -0.0035316005)
(-0.89636694 -0.0080692197 -0.0072597636)
(-0.79538386 -0.01332557 -0.011383253)
(-0.692005 -0.017722972 -0.015024173)
(-0.10927941 0.00039143222 0.0002327073)
(-0.33168837 0.0010639262 0.00059177933)
(-0.56927219 0.0015120468 0.00060398493)
(-0.7811783 0.0012203191 -7.4980736e-05)
(-0.91706561 -0.00047230306 -0.0017808766)
(-0.94484565 -0.0039847108 -0.0047122039)
(-0.87668546 -0.0089667586 -0.0086725846)
(-0.76238853 -0.014158529 -0.012729287)
(-0.65309324 -0.018274339 -0.015840317)
(-0.11439293 0.0003673011 0.00018464291)
(-0.34539807 0.0009707087 0.00043203834)
(-0.58887769 0.0013095499 0.00027597798)
(-0.80054088 0.00086171221 -0.00062680323)
(-0.92787659 -0.001008782 -0.0025830229)
(-0.94081271 -0.0046551328 -0.005741397)
(-0.8574313 -0.0096042608 -0.0097762727)
(-0.73301694 -0.014542902 -0.013611055)
(-0.61986863 -0.018206054 -0.01613605)
(-0.11850306 0.00032315977 0.00013236576)
(-0.35623333 0.00082465576 0.00026662645)
(-0.60394628 0.0010327893 -3.889592e-05)
(-0.81451304 0.00044486691 -0.0011126945)
(-0.93383447 -0.001520022 -0.0032251059)
(-0.93389447 -0.0051312254 -0.0064793401)
(-0.83805841 -0.0098474861 -0.010455765)
(-0.70617664 -0.014353418 -0.013977746)
(-0.59094458 -0.017464757 -0.015954216)
(-0.12173181 0.00026661209 8.5545605e-05)
(-0.36454225 0.0006494481 0.00012313131)
(-0.61504987 0.00072710659 -0.00029850248)
(-0.82384589 4.0470242e-05 -0.0014840009)
(-0.93574042 -0.0019135051 -0.0036646393)
(-0.92473497 -0.005317688 -0.0069065878)
(-0.8187988 -0.0096095849 -0.010727134)
(-0.68158255 -0.013547129 -0.013894586)
(-0.56562975 -0.016074125 -0.015412147)
(-0.12411746 0.00020699938 4.7904877e-05)
(-0.37056088 0.00047595074 1.2774356e-05)
(-0.6227739 0.00044987449 -0.000484925)
(-0.8295492 -0.00026844305 -0.0017228416)
(-0.93491247 -0.0020903806 -0.0038971315)
(-0.91465734 -0.0051237099 -0.0070515351)
(-0.80064986 -0.0088327497 -0.010666596)
(-0.65966604 -0.012119445 -0.013493971)
(-0.54384373 -0.014080546 -0.014680187)
(-0.12580022 0.00015042633 2.031613e-05)
(-0.37472487 0.00032318631 -6.3667359e-05)
(-0.62788854 0.00023482585 -0.00060256009)
(-0.83271169 -0.00043614616 -0.0018477391)
(-0.93264652 -0.0020049162 -0.0039667212)
(-0.90496029 -0.0045230127 -0.0069942267)
(-0.78467619 -0.0075241332 -0.010397065)
(-0.64106518 -0.010110092 -0.012940027)
(-0.52579629 -0.011566714 -0.013922915)
(-0.12692117 0.0001002897 1.8130168e-06)