/*--------------------------------*- C++ -*----------------------------------*\
  =========                 |
  \\      /  F ield         | OpenFOAM: The Open Source CFD Toolbox
   \\    /   O peration     | Website:  https://openfoam.org
    \\  /    A nd           | Version:  10
     \\/     M anipulation  |
\*---------------------------------------------------------------------------*/
FoamFile
{
    format      ascii;
    class       volScalarField;
    location    "24.5";
    object      T_0;
}
// * * * * * * * * * * * * * * * * * * * * * * * * * * * * * * * * * * * * * //

dimensions      [0 0 -1 0 0 0 0];

internalField   nonuniform List<scalar> 
100
(
1.33617
3.99611
6.62057
9.18627
11.6704
14.051
16.3069
18.418
20.3656
22.1325
23.7029
25.063
26.2006
27.1056
27.77
28.188
28.3557
28.2718
27.9369
27.3541
26.5284
25.4673
24.1802
22.6784
20.9754
19.0861
17.0275
14.8177
12.4764
10.0243
7.48332
4.87589
2.22517
-0.445289
-3.1118
-5.75068
-8.33852
-10.8523
-13.2698
-15.5696
-17.7311
-19.7352
-21.5642
-23.2017
-24.6333
-25.8463
-26.8298
-27.5752
-28.0759
-28.3273
-28.3273
-28.0758
-27.5752
-26.8298
-25.8463
-24.6333
-23.2017
-21.5641
-19.7352
-17.731
-15.5695
-13.2698
-10.8523
-8.33847
-5.75063
-3.11175
-0.445236
2.22523
4.87594
7.48338
10.0244
12.4764
14.8177
17.0275
19.0862
20.9754
22.6785
24.1802
25.4674
26.5285
27.3541
27.937
28.2718
28.3558
28.188
27.7701
27.1056
26.2006
25.063
23.703
22.1325
20.3657
18.418
16.3069
14.051
11.6704
9.18628
6.62058
3.99611
1.33617
)
;

boundaryField
{
    xmin
    {
        type            fixedValue;
        value           uniform 0;
    }
    xmax
    {
        type            fixedValue;
        value           uniform 0;
    }
    frontAndBack
    {
        type            empty;
    }
}


// ************************************************************************* //
