/*--------------------------------*- C++ -*----------------------------------*\
  =========                 |
  \\      /  F ield         | OpenFOAM: The Open Source CFD Toolbox
   \\    /   O peration     | Website:  https://openfoam.org
    \\  /    A nd           | Version:  10
     \\/     M anipulation  |
\*---------------------------------------------------------------------------*/
FoamFile
{
    format      ascii;
    class       volScalarField;
    location    "43.5";
    object      ddt0(T);
}
// * * * * * * * * * * * * * * * * * * * * * * * * * * * * * * * * * * * * * //

dimensions      [0 0 -1 1 0 0 0];

internalField   nonuniform List<scalar> 
10000
(
324.669
5.92146
56.7138
54.0406
53.812
53.8797
53.8865
53.8862
53.8868
53.8875
53.8882
53.8889
53.8896
53.8902
53.8909
53.8915
53.8922
53.8928
53.8934
53.8941
53.8947
53.8953
53.8959
53.8965
53.8971
53.8977
53.8983
53.8989
53.8995
53.9001
53.9006
53.9012
53.9018
53.9023
53.9029
53.9034
53.9039
53.9045
53.905
53.9055
53.906
53.9065
53.907
53.9075
53.908
53.9085
53.9089
53.9094
53.9098
53.9103
53.9107
53.9111
53.9116
53.912
53.9124
53.9128
53.9131
53.9135
53.9139
53.9143
53.9146
53.915
53.9153
53.9156
53.9159
53.9162
53.9165
53.9168
53.9171
53.9174
53.9177
53.9179
53.9182
53.9184
53.9186
53.9189
53.9191
53.9193
53.9195
53.9197
53.9198
53.92
53.9202
53.9203
53.9204
53.9206
53.9207
53.9208
53.9209
53.921
53.9211
53.9212
53.9212
53.9213
53.9207
53.9186
53.9609
54.4414
51.7309
38.1571
18.9079
-54.348
-15.6165
-23.003
-23.0681
-22.9026
-22.8973
-22.9002
-22.8988
-22.8968
-22.8948
-22.8929
-22.8909
-22.889
-22.8871
-22.8852
-22.8833
-22.8814
-22.8795
-22.8776
-22.8758
-22.8739
-22.8721
-22.8703
-22.8684
-22.8666
-22.8649
-22.8631
-22.8613
-22.8596
-22.8579
-22.8562
-22.8545
-22.8528
-22.8512
-22.8496
-22.8479
-22.8464
-22.8448
-22.8432
-22.8417
-22.8402
-22.8387
-22.8372
-22.8358
-22.8344
-22.833
-22.8316
-22.8303
-22.8289
-22.8276
-22.8263
-22.8251
-22.8238
-22.8226
-22.8215
-22.8203
-22.8192
-22.818
-22.817
-22.8159
-22.8149
-22.8139
-22.8129
-22.8119
-22.811
-22.8101
-22.8092
-22.8084
-22.8075
-22.8067
-22.806
-22.8052
-22.8045
-22.8038
-22.8032
-22.8025
-22.8019
-22.8013
-22.8008
-22.8002
-22.7997
-22.7993
-22.7988
-22.7984
-22.798
-22.7976
-22.7973
-22.797
-22.7967
-22.7965
-22.7962
-22.796
-22.7957
-22.7963
-22.8044
-22.8127
-22.5156
-23.057
-15.5752
63.7676
-19.7826
12.7826
5.45721
5.63217
5.82656
5.83001
5.82738
5.83007
5.83347
5.83677
5.84002
5.84325
5.84648
5.84969
5.85288
5.85606
5.85922
5.86237
5.8655
5.8686
5.87169
5.87475
5.87779
5.88081
5.88381
5.88678
5.88972
5.89264
5.89553
5.8984
5.90123
5.90404
5.90682
5.90956
5.91228
5.91496
5.91761
5.92023
5.92281
5.92536
5.92787
5.93035
5.93279
5.9352
5.93757
5.9399
5.94219
5.94445
5.94666
5.94884
5.95097
5.95307
5.95513
5.95714
5.95912
5.96105
5.96294
5.96479
5.9666
5.96836
5.97008
5.97176
5.9734
5.97499
5.97654
5.97804
5.97951
5.98092
5.9823
5.98363
5.98491
5.98615
5.98735
5.9885
5.9896
5.99066
5.99168
5.99265
5.99358
5.99446
5.99529
5.99608
5.99683
5.99753
5.99818
5.99879
5.99936
5.99987
6.00035
6.00077
6.00116
6.00153
6.00201
6.00198
5.99331
5.96151
6.0737
5.34299
4.62757
61.7089
-26.2459
6.33543
-0.720327
-0.495111
-0.303155
-0.301271
-0.303036
-0.299023
-0.2943
-0.289698
-0.285154
-0.280629
-0.276122
-0.271633
-0.267166
-0.26272
-0.258298
-0.2539
-0.249528
-0.245184
-0.240867
-0.236581
-0.232325
-0.228101
-0.22391
-0.219754
-0.215633
-0.211548
-0.207502
-0.203494
-0.199526
-0.195598
-0.191713
-0.18787
-0.184071
-0.180317
-0.176609
-0.172946
-0.169332
-0.165765
-0.162247
-0.158779
-0.155362
-0.151995
-0.148681
-0.145419
-0.14221
-0.139055
-0.135954
-0.132909
-0.129919
-0.126985
-0.124107
-0.121287
-0.118524
-0.115819
-0.113172
-0.110584
-0.108055
-0.105586
-0.103176
-0.100826
-0.098537
-0.0963085
-0.0941408
-0.0920343
-0.0899892
-0.0880057
-0.0860839
-0.0842242
-0.0824266
-0.0806913
-0.0790184
-0.0774081
-0.0758606
-0.0743758
-0.072954
-0.0715951
-0.0702994
-0.0690668
-0.0678975
-0.0667915
-0.0657489
-0.0647696
-0.0638538
-0.0630016
-0.0622128
-0.0614877
-0.0608263
-0.0602299
-0.0596979
-0.0591872
-0.0584147
-0.0568122
-0.0573584
-0.0695122
0.0208422
0.108203
-0.126334
61.5206
-26.3197
6.48366
-0.521773
-0.297226
-0.107662
-0.105337
-0.10584
-0.100496
-0.0944634
-0.0885612
-0.0827213
-0.0769057
-0.0711119
-0.0653425
-0.0595994
-0.0538846
-0.0481998
-0.0425466
-0.0369267
-0.0313418
-0.0257934
-0.0202832
-0.0148127
-0.00938336
-0.00399678
0.0013456
0.00664233
0.011892
0.0170931
0.0222445
0.0273446
0.0323922
0.037386
0.0423248
0.0472073
0.0520323
0.0567988
0.0615055
0.0661514
0.0707354
0.0752565
0.0797137
0.0841061
0.0884326
0.0926925
0.0968849
0.101009
0.105064
0.109049
0.112963
0.116806
0.120577
0.124275
0.1279
0.131451
0.134927
0.138329
0.141655
0.144905
0.148079
0.151176
0.154196
0.157138
0.160002
0.162788
0.165495
0.168124
0.170673
0.173143
0.175533
0.177843
0.180073
0.182223
0.184293
0.186282
0.18819
0.190017
0.191764
0.193429
0.195013
0.196516
0.197937
0.199277
0.200536
0.201713
0.202809
0.203823
0.204755
0.205605
0.206371
0.207043
0.207614
0.208208
0.209301
0.209475
0.197843
0.202031
0.231531
0.244625
61.578
-26.1767
6.65444
-0.352738
-0.130482
0.059338
0.0628716
0.0637084
0.0703724
0.0777103
0.0849106
0.0920441
0.0991487
0.106226
0.113274
0.12029
0.127271
0.134215
0.141121
0.147986
0.154808
0.161586
0.168317
0.175
0.181632
0.188213
0.194739
0.201209
0.207622
0.213976
0.220269
0.226499
0.232665
0.238765
0.244799
0.250763
0.256657
0.26248
0.26823
0.273905
0.279505
0.285028
0.290473
0.295838
0.301124
0.306328
0.311449
0.316487
0.32144
0.326308
0.33109
0.335784
0.340391
0.344908
0.349337
0.353674
0.357921
0.362077
0.36614
0.37011
0.373987
0.377771
0.38146
0.385054
0.388553
0.391956
0.395263
0.398474
0.401588
0.404605
0.407525
0.410347
0.413072
0.415698
0.418226
0.420656
0.422987
0.425219
0.427353
0.429387
0.431322
0.433158
0.434894
0.436532
0.438069
0.439507
0.440845
0.442084
0.443223
0.444262
0.445202
0.446034
0.446741
0.447362
0.448301
0.449818
0.447387
0.443764
0.44141
0.451923
61.5837
-26.1717
6.6581
-0.350415
-0.127699
0.0633271
0.0681998
0.0703616
0.0783334
0.0869714
0.0954673
0.103892
0.112283
0.120643
0.128967
0.137253
0.145498
0.1537
0.161856
0.169964
0.178022
0.186027
0.193977
0.20187
0.209704
0.217476
0.225184
0.232826
0.2404
0.247904
0.255337
0.262695
0.269978
0.277183
0.284309
0.291353
0.298315
0.305192
0.311983
0.318686
0.3253
0.331823
0.338254
0.344592
0.350834
0.35698
0.363029
0.368979
0.37483
0.380579
0.386227
0.391771
0.397212
0.402548
0.407778
0.412901
0.417917
0.422825
0.427624
0.432313
0.436893
0.441361
0.445718
0.449963
0.454095
0.458115
0.462021
0.465813
0.469491
0.473055
0.476503
0.479837
0.483054
0.486156
0.489142
0.492012
0.494765
0.497402
0.499922
0.502324
0.50461
0.506778
0.508829
0.510763
0.512579
0.514277
0.515858
0.517321
0.518666
0.519894
0.521004
0.521995
0.522848
0.523543
0.524227
0.525337
0.525938
0.52578
0.523263
0.526252
61.5835
-26.1739
6.65624
-0.351378
-0.127405
0.064959
0.0711564
0.0746271
0.0839
0.0938349
0.103624
0.113338
0.123013
0.132652
0.142249
0.151803
0.16131
0.170767
0.180171
0.18952
0.198811
0.208041
0.217208
0.226308
0.23534
0.244302
0.253189
0.262001
0.270734
0.279387
0.287956
0.296441
0.304838
0.313146
0.321362
0.329484
0.337511
0.345441
0.353271
0.360999
0.368625
0.376147
0.383562
0.390869
0.398066
0.405153
0.412127
0.418988
0.425734
0.432363
0.438875
0.445268
0.451541
0.457693
0.463723
0.469631
0.475414
0.481073
0.486606
0.492013
0.497293
0.502445
0.507469
0.512363
0.517128
0.521763
0.526267
0.530639
0.53488
0.538989
0.542965
0.546809
0.550519
0.554095
0.557538
0.560847
0.564022
0.567062
0.569967
0.572737
0.575373
0.577873
0.580238
0.582467
0.584561
0.586519
0.588342
0.590029
0.591579
0.592995
0.594275
0.595421
0.596425
0.597261
0.597937
0.598632
0.599358
0.60022
0.598161
0.600876
61.5841
-26.1725
6.65901
-0.347295
-0.121994
0.0716902
0.0791954
0.0839673
0.0945376
0.105766
0.116845
0.127845
0.138802
0.149716
0.160585
0.171403
0.182169
0.192878
0.203528
0.214114
0.224635
0.235088
0.245468
0.255774
0.266002
0.276149
0.286214
0.296192
0.306082
0.31588
0.325584
0.335192
0.344701
0.354109
0.363413
0.372611
0.3817
0.39068
0.399546
0.408299
0.416934
0.425451
0.433848
0.442123
0.450273
0.458298
0.466196
0.473965
0.481604
0.489111
0.496485
0.503724
0.510828
0.517795
0.524623
0.531313
0.537862
0.54427
0.550536
0.556659
0.562638
0.568472
0.574161
0.579704
0.585099
0.590347
0.595448
0.600399
0.605202
0.609854
0.614357
0.618709
0.622911
0.626961
0.63086
0.634607
0.638201
0.641644
0.644934
0.648071
0.651056
0.653887
0.656565
0.659089
0.66146
0.663678
0.665742
0.667652
0.669408
0.671011
0.67246
0.673756
0.6749
0.675881
0.676677
0.67731
0.677915
0.67916
0.67623
0.680077
61.5849
-26.1705
6.66239
-0.34259
-0.115979
0.0790095
0.087815
0.0938839
0.105748
0.118267
0.130633
0.142915
0.15515
0.167337
0.179473
0.191554
0.203574
0.215532
0.227424
0.239245
0.250993
0.262664
0.274255
0.285763
0.297184
0.308515
0.319753
0.330894
0.341937
0.352878
0.363714
0.374443
0.385061
0.395565
0.405954
0.416225
0.426375
0.436401
0.446302
0.456075
0.465717
0.475228
0.484604
0.493843
0.502944
0.511905
0.520724
0.529399
0.537928
0.546311
0.554544
0.562628
0.57056
0.578339
0.585964
0.593434
0.600747
0.607903
0.614899
0.621736
0.628412
0.634927
0.641279
0.647468
0.653493
0.659353
0.665048
0.670577
0.675939
0.681135
0.686162
0.691022
0.695714
0.700236
0.70459
0.708774
0.712788
0.716632
0.720305
0.723808
0.727141
0.730302
0.733292
0.736111
0.738759
0.741235
0.74354
0.745673
0.747634
0.749423
0.75104
0.752487
0.753763
0.754868
0.755787
0.75648
0.757051
0.758784
0.754675
0.759728
61.5856
-26.1685
6.66568
-0.337992
-0.110081
0.0862062
0.0963076
0.10367
0.116824
0.13063
0.144279
0.15784
0.171349
0.184805
0.198205
0.211543
0.224816
0.238019
0.251148
0.264201
0.277172
0.290059
0.302857
0.315562
0.328172
0.340683
0.353092
0.365394
0.377587
0.389667
0.401631
0.413477
0.4252
0.436799
0.44827
0.45961
0.470816
0.481887
0.492819
0.503609
0.514256
0.524756
0.535109
0.54531
0.555359
0.565253
0.57499
0.584568
0.593986
0.603241
0.612332
0.621258
0.630016
0.638605
0.647024
0.655272
0.663346
0.671247
0.678972
0.686521
0.693892
0.701085
0.708098
0.714932
0.721584
0.728055
0.734342
0.740447
0.746368
0.752104
0.757656
0.763022
0.768201
0.773195
0.778002
0.782621
0.787053
0.791298
0.795354
0.799222
0.802901
0.806392
0.809693
0.812806
0.815729
0.818463
0.821008
0.823363
0.825528
0.827504
0.82929
0.830886
0.832293
0.833514
0.83454
0.835306
0.83586
0.838133
0.832894
0.839053
61.5862
-26.1665
6.66893
-0.333445
-0.104239
0.093342
0.104735
0.113386
0.127827
0.142916
0.157844
0.172679
0.187458
0.202179
0.216838
0.23143
0.245951
0.260395
0.274759
0.289038
0.303229
0.317327
0.331328
0.345228
0.359023
0.37271
0.386285
0.399744
0.413083
0.426299
0.439388
0.452347
0.465172
0.477861
0.49041
0.502816
0.515077
0.527188
0.539147
0.550952
0.562599
0.574087
0.585412
0.596573
0.607566
0.61839
0.629043
0.639521
0.649824
0.65995
0.669895
0.67966
0.689241
0.698638
0.707848
0.716871
0.725704
0.734348
0.742799
0.751057
0.759122
0.766991
0.774664
0.782139
0.789417
0.796496
0.803375
0.810053
0.816531
0.822806
0.828879
0.83475
0.840416
0.845879
0.851138
0.856192
0.861041
0.865684
0.870121
0.874353
0.878378
0.882197
0.885809
0.889214
0.892412
0.895404
0.898187
0.900764
0.903133
0.905294
0.907248
0.908994
0.910533
0.911868
0.912995
0.913833
0.914368
0.917136
0.910929
0.918038
61.5869
-26.1646
6.67217
-0.328918
-0.098421
0.10045
0.11313
0.123066
0.138788
0.155155
0.171357
0.187463
0.203507
0.219489
0.235403
0.251244
0.267008
0.282689
0.298283
0.313785
0.32919
0.344495
0.359695
0.374785
0.389762
0.404621
0.419358
0.433969
0.44845
0.462798
0.477007
0.491076
0.505
0.518775
0.532399
0.545867
0.559177
0.572325
0.585308
0.598124
0.610768
0.62324
0.635535
0.647651
0.659585
0.671336
0.682901
0.694276
0.705462
0.716454
0.727251
0.737851
0.748253
0.758454
0.768453
0.778248
0.787838
0.797222
0.806396
0.815362
0.824117
0.832659
0.840989
0.849105
0.857006
0.864691
0.872159
0.879409
0.886441
0.893254
0.899847
0.90622
0.912372
0.918303
0.924011
0.929498
0.934762
0.939803
0.94462
0.949214
0.953584
0.95773
0.961651
0.965348
0.96882
0.972067
0.97509
0.977887
0.980459
0.982805
0.984926
0.986822
0.988492
0.989941
0.991168
0.99208
0.992602
0.995778
0.988809
0.996686
61.5875
-26.1627
6.67539
-0.324408
-0.0926242
0.107531
0.121494
0.132709
0.149708
0.167348
0.184819
0.20219
0.219495
0.236732
0.253897
0.270983
0.287985
0.304897
0.321716
0.338436
0.355052
0.37156
0.387954
0.40423
0.420383
0.436409
0.452304
0.468063
0.483682
0.499156
0.514483
0.529657
0.544674
0.559532
0.574226
0.588752
0.603107
0.617288
0.631292
0.645114
0.658752
0.672203
0.685464
0.698532
0.711404
0.724078
0.736551
0.748821
0.760884
0.77274
0.784386
0.795819
0.807038
0.81804
0.828825
0.83939
0.849733
0.859853
0.869749
0.879419
0.888861
0.898075
0.907059
0.915813
0.924334
0.932623
0.940677
0.948497
0.956082
0.96343
0.970541
0.977415
0.98405
0.990447
0.996604
1.00252
1.0082
1.01364
1.01883
1.02379
1.0285
1.03297
1.0372
1.04119
1.04493
1.04844
1.0517
1.05471
1.05749
1.06002
1.06231
1.06435
1.06615
1.06771
1.06904
1.07003
1.07055
1.07404
1.06652
1.07498
61.5882
-26.1608
6.6786
-0.319916
-0.0868513
0.114583
0.129822
0.142312
0.160582
0.17949
0.198226
0.216856
0.235416
0.253904
0.272314
0.290639
0.308874
0.327014
0.345053
0.362985
0.380806
0.398511
0.416094
0.433551
0.450876
0.468065
0.485113
0.502015
0.518766
0.535363
0.551801
0.568076
0.584183
0.600118
0.615878
0.631458
0.646855
0.662064
0.677083
0.691908
0.706536
0.720962
0.735185
0.749201
0.763007
0.7766
0.789978
0.803137
0.816076
0.828792
0.841282
0.853544
0.865577
0.877377
0.888944
0.900275
0.911369
0.922223
0.932837
0.943208
0.953335
0.963217
0.972853
0.982241
0.991381
1.00027
1.00891
1.0173
1.02543
1.03331
1.04094
1.04831
1.05543
1.06229
1.06889
1.07524
1.08133
1.08716
1.09273
1.09805
1.1031
1.1079
1.11243
1.11671
1.12073
1.12448
1.12798
1.13122
1.13419
1.13691
1.13936
1.14155
1.14349
1.14516
1.14658
1.14765
1.14819
1.15189
1.14402
1.1529
61.5888
-26.1588
6.6818
-0.315445
-0.0811043
0.121603
0.138114
0.151872
0.171408
0.191578
0.211572
0.231456
0.251266
0.270999
0.290648
0.310207
0.32967
0.349031
0.368284
0.387424
0.406445
0.425342
0.444109
0.462741
0.481232
0.499578
0.517774
0.535814
0.553693
0.571408
0.588953
0.606323
0.623514
0.640522
0.657343
0.673972
0.690405
0.706639
0.722669
0.738492
0.754104
0.769502
0.784682
0.799642
0.814377
0.828886
0.843164
0.857209
0.871019
0.884591
0.897922
0.91101
0.923852
0.936448
0.948793
0.960887
0.972727
0.984312
0.99564
1.00671
1.01752
1.02807
1.03835
1.04837
1.05813
1.06761
1.07683
1.08579
1.09447
1.10288
1.11102
1.11889
1.12649
1.13381
1.14086
1.14763
1.15413
1.16035
1.1663
1.17197
1.17737
1.18249
1.18733
1.1919
1.19618
1.20019
1.20392
1.20738
1.21055
1.21345
1.21607
1.21841
1.22047
1.22226
1.22378
1.22493
1.2255
1.22934
1.22128
1.23042
61.5895
-26.1569
6.68498
-0.310996
-0.075385
0.12859
0.146365
0.161386
0.182181
0.203607
0.224853
0.245986
0.26704
0.288011
0.308894
0.329681
0.350365
0.370941
0.391403
0.411745
0.43196
0.452043
0.471988
0.49179
0.511442
0.53094
0.550278
0.56945
0.588452
0.607279
0.625925
0.644386
0.662656
0.680732
0.698608
0.716281
0.733746
0.750999
0.768035
0.784852
0.801444
0.817808
0.833942
0.84984
0.8655
0.880919
0.896094
0.911021
0.925698
0.940121
0.954289
0.968199
0.981848
0.995233
1.00835
1.02121
1.03379
1.0461
1.05814
1.06991
1.08139
1.0926
1.10353
1.11418
1.12455
1.13463
1.14443
1.15395
1.16317
1.17211
1.18077
1.18913
1.1972
1.20498
1.21247
1.21967
1.22658
1.2332
1.23952
1.24555
1.25128
1.25672
1.26187
1.26672
1.27127
1.27553
1.2795
1.28317
1.28655
1.28963
1.29241
1.2949
1.29709
1.29899
1.3006
1.30183
1.30246
1.30635
1.29825
1.30754
61.5901
-26.155
6.68814
-0.306569
-0.0696951
0.13554
0.154574
0.170851
0.192899
0.215575
0.238067
0.260442
0.282733
0.304937
0.327046
0.349054
0.370954
0.39274
0.414404
0.435941
0.457344
0.478608
0.499725
0.52069
0.541497
0.562141
0.582615
0.602914
0.623033
0.642966
0.662707
0.682253
0.701597
0.720735
0.739662
0.758374
0.776865
0.795131
0.813169
0.830973
0.848541
0.865867
0.882948
0.899781
0.916361
0.932686
0.948752
0.964557
0.980096
0.995367
1.01037
1.02509
1.03955
1.05372
1.06761
1.08122
1.09454
1.10758
1.12032
1.13278
1.14494
1.15681
1.16838
1.17966
1.19063
1.20131
1.21168
1.22176
1.23153
1.24099
1.25015
1.25901
1.26755
1.27579
1.28372
1.29135
1.29866
1.30566
1.31236
1.31874
1.32481
1.33057
1.33602
1.34115
1.34598
1.35049
1.35469
1.35858
1.36215
1.36541
1.36836
1.37099
1.37331
1.37532
1.37703
1.37834
1.37902
1.38292
1.3749
1.38424
61.5908
-26.1532
6.69129
-0.302167
-0.0640362
0.142453
0.162739
0.180265
0.203559
0.227478
0.251209
0.274819
0.29834
0.321769
0.345099
0.368323
0.391432
0.41442
0.43728
0.460006
0.48259
0.505027
0.52731
0.549433
0.571388
0.593172
0.614776
0.636196
0.657425
0.678458
0.69929
0.719914
0.740326
0.760521
0.780492
0.800237
0.819748
0.839023
0.858056
0.876844
0.895381
0.913663
0.931687
0.949449
0.966945
0.984171
1.00112
1.0178
1.0342
1.05031
1.06614
1.08168
1.09693
1.11188
1.12654
1.1409
1.15496
1.16871
1.18216
1.19531
1.20814
1.22066
1.23288
1.24477
1.25636
1.26762
1.27857
1.2892
1.29951
1.30949
1.31916
1.3285
1.33752
1.34622
1.35458
1.36263
1.37035
1.37774
1.3848
1.39153
1.39794
1.40402
1.40977
1.41519
1.42028
1.42504
1.42947
1.43357
1.43734
1.44078
1.44389
1.44667
1.44912
1.45124
1.45304
1.45443
1.45519
1.45904
1.4512
1.46049
61.5914
-26.1513
6.69442
-0.29779
-0.0584101
0.149326
0.170856
0.189624
0.214157
0.239311
0.264275
0.289112
0.313857
0.338505
0.363049
0.38748
0.41179
0.435974
0.460023
0.483931
0.507691
0.531294
0.554736
0.578009
0.601107
0.624023
0.646751
0.669285
0.691619
0.713746
0.735661
0.757358
0.778832
0.800076
0.821087
0.841858
0.862385
0.882662
0.902685
0.922449
0.94195
0.961184
0.980145
0.998831
1.01724
1.03536
1.05319
1.07074
1.08799
1.10494
1.12159
1.13794
1.15398
1.16971
1.18513
1.20024
1.21503
1.2295
1.24365
1.25748
1.27098
1.28415
1.297
1.30951
1.3217
1.33355
1.34507
1.35625
1.36709
1.3776
1.38777
1.3976
1.40709
1.41623
1.42504
1.4335
1.44162
1.44939
1.45682
1.46391
1.47065
1.47704
1.48309
1.48879
1.49415
1.49915
1.50382
1.50813
1.5121
1.51572
1.51899
1.52192
1.52449
1.52672
1.52862
1.53008
1.53091
1.53469
1.52709
1.53629
61.592
-26.1494
6.69753
-0.293439
-0.0528182
0.156156
0.178924
0.198926
0.224691
0.251073
0.277261
0.303319
0.32928
0.355139
0.380888
0.40652
0.432025
0.457398
0.482629
0.507711
0.532638
0.557402
0.581996
0.606412
0.630645
0.654687
0.678532
0.702173
0.725604
0.748819
0.77181
0.794574
0.817103
0.839391
0.861434
0.883226
0.904761
0.926035
0.947042
0.967777
0.988237
1.00841
1.02831
1.04791
1.06722
1.08623
1.10495
1.12335
1.14145
1.15923
1.1767
1.19385
1.21068
1.22719
1.24337
1.25922
1.27473
1.28991
1.30476
1.31926
1.33343
1.34725
1.36073
1.37386
1.38664
1.39908
1.41116
1.42289
1.43427
1.44529
1.45596
1.46627
1.47623
1.48582
1.49506
1.50394
1.51245
1.52061
1.52841
1.53584
1.54291
1.54962
1.55596
1.56195
1.56757
1.57282
1.57771
1.58224
1.5864
1.5902
1.59363
1.5967
1.5994
1.60175
1.60373
1.60528
1.60619
1.60987
1.60256
1.61162
61.5926
-26.1476
6.70062
-0.289117
-0.0472622
0.162943
0.18694
0.208168
0.235156
0.262759
0.290164
0.317434
0.344603
0.371666
0.398614
0.425438
0.452131
0.478683
0.505089
0.531339
0.557425
0.583342
0.60908
0.634633
0.659994
0.685155
0.710109
0.73485
0.759372
0.783667
0.807728
0.831551
0.855128
0.878454
0.901523
0.924329
0.946866
0.96913
0.991114
1.01281
1.03423
1.05534
1.07616
1.09668
1.11689
1.13678
1.15637
1.17563
1.19457
1.21318
1.23146
1.24941
1.26702
1.2843
1.30123
1.31782
1.33405
1.34994
1.36548
1.38066
1.39548
1.40995
1.42405
1.43779
1.45117
1.46418
1.47683
1.48911
1.50101
1.51255
1.52372
1.53451
1.54492
1.55497
1.56463
1.57392
1.58284
1.59137
1.59953
1.60731
1.61471
1.62173
1.62837
1.63463
1.64051
1.64601
1.65113
1.65587
1.66023
1.6642
1.66779
1.67101
1.67384
1.67629
1.67836
1.67999
1.68098
1.68455
1.67757
1.68645
61.5932
-26.1457
6.70369
-0.284824
-0.0417437
0.169685
0.194901
0.217348
0.245552
0.274367
0.30298
0.331455
0.359824
0.388082
0.41622
0.444229
0.4721
0.499826
0.527398
0.554807
0.582046
0.609107
0.635982
0.662664
0.689144
0.715417
0.741473
0.767308
0.792912
0.81828
0.843404
0.868279
0.892898
0.917254
0.941341
0.965154
0.988687
1.01193
1.03489
1.05755
1.07991
1.10196
1.12369
1.14512
1.16622
1.18699
1.20744
1.22755
1.24733
1.26676
1.28585
1.30459
1.32299
1.34102
1.3587
1.37602
1.39297
1.40956
1.42579
1.44164
1.45712
1.47222
1.48695
1.5013
1.51527
1.52885
1.54206
1.55488
1.56731
1.57936
1.59101
1.60228
1.61316
1.62364
1.63374
1.64344
1.65275
1.66166
1.67018
1.6783
1.68603
1.69336
1.70029
1.70683
1.71297
1.71871
1.72406
1.72901
1.73355
1.73771
1.74146
1.74481
1.74777
1.75032
1.75249
1.75419
1.75527
1.75872
1.75208
1.76077
61.5939
-26.1439
6.70674
-0.280561
-0.0362642
0.176378
0.202807
0.226464
0.255874
0.285892
0.315705
0.345376
0.374937
0.404382
0.433702
0.462887
0.491929
0.520819
0.549549
0.578109
0.606492
0.63469
0.662694
0.690496
0.718089
0.745465
0.772616
0.799535
0.826215
0.852648
0.878828
0.904748
0.9304
0.955779
0.980879
1.00569
1.03021
1.05444
1.07836
1.10197
1.12526
1.14824
1.17089
1.19321
1.2152
1.23685
1.25815
1.27911
1.29972
1.31997
1.33986
1.35939
1.37855
1.39734
1.41577
1.43381
1.45148
1.46877
1.48567
1.50219
1.51831
1.53405
1.5494
1.56435
1.57891
1.59306
1.60682
1.62018
1.63314
1.64569
1.65783
1.66958
1.68091
1.69184
1.70235
1.71246
1.72216
1.73145
1.74033
1.74879
1.75684
1.76448
1.77171
1.77852
1.78492
1.7909
1.79647
1.80162
1.80636
1.81069
1.8146
1.81809
1.82117
1.82384
1.8261
1.82788
1.82904
1.83236
1.82607
1.83457
61.5945
-26.1421
6.70976
-0.276329
-0.0308252
0.183022
0.210654
0.235511
0.26612
0.297333
0.328336
0.359195
0.389938
0.420561
0.451054
0.481407
0.511611
0.541657
0.571536
0.60124
0.630758
0.660084
0.689209
0.718123
0.74682
0.775291
0.803529
0.831525
0.859272
0.886763
0.91399
0.940947
0.967626
0.99402
1.02012
1.04593
1.07143
1.09662
1.1215
1.14606
1.17028
1.19418
1.21774
1.24095
1.26382
1.28633
1.30849
1.33029
1.35172
1.37278
1.39347
1.41378
1.43371
1.45325
1.47241
1.49118
1.50955
1.52753
1.54511
1.56229
1.57906
1.59543
1.61139
1.62694
1.64208
1.6568
1.67111
1.685
1.69847
1.71153
1.72416
1.73637
1.74816
1.75952
1.77046
1.78098
1.79106
1.80072
1.80995
1.81876
1.82713
1.83508
1.84259
1.84968
1.85633
1.86255
1.86835
1.87371
1.87864
1.88314
1.8872
1.89084
1.89404
1.89681
1.89916
1.90102
1.90226
1.90546
1.89951
1.90782
61.5951
-26.1403
6.71276
-0.27213
-0.0254282
0.189615
0.218441
0.24449
0.276286
0.308685
0.34087
0.372907
0.404824
0.436616
0.468273
0.499785
0.531142
0.562335
0.593354
0.624191
0.654837
0.685282
0.715518
0.745537
0.775329
0.804887
0.834203
0.863268
0.892074
0.920614
0.948881
0.976866
1.00456
1.03197
1.05907
1.08586
1.11233
1.13849
1.16431
1.1898
1.21496
1.23976
1.26422
1.28832
1.31206
1.33544
1.35844
1.38107
1.40332
1.42518
1.44666
1.46774
1.48843
1.50873
1.52861
1.5481
1.56717
1.58584
1.60409
1.62192
1.63934
1.65633
1.6729
1.68904
1.70476
1.72004
1.7349
1.74932
1.76331
1.77686
1.78998
1.80265
1.81489
1.82669
1.83805
1.84896
1.85943
1.86946
1.87904
1.88818
1.89688
1.90512
1.91293
1.92028
1.92719
1.93365
1.93967
1.94523
1.95035
1.95502
1.95924
1.96302
1.96634
1.96922
1.97166
1.97359
1.97492
1.978
1.97238
1.98051
61.5957
-26.1385
6.71574
-0.267965
-0.0200746
0.196155
0.226165
0.253395
0.286371
0.319945
0.353303
0.386508
0.419589
0.452541
0.485353
0.518014
0.550515
0.582845
0.614996
0.646958
0.678722
0.710277
0.741616
0.77273
0.803609
0.834245
0.86463
0.894755
0.924612
0.954193
0.98349
1.0125
1.0412
1.06961
1.09769
1.12546
1.1529
1.18001
1.20678
1.2332
1.25927
1.28498
1.31033
1.33531
1.35992
1.38414
1.40799
1.43144
1.4545
1.47716
1.49942
1.52128
1.54272
1.56375
1.58437
1.60456
1.62433
1.64368
1.66259
1.68108
1.69913
1.71674
1.73391
1.75064
1.76693
1.78278
1.79817
1.81312
1.82762
1.84167
1.85526
1.8684
1.88108
1.89331
1.90508
1.9164
1.92725
1.93764
1.94758
1.95705
1.96606
1.97461
1.9827
1.99032
1.99748
2.00418
2.01041
2.01618
2.02149
2.02633
2.0307
2.03461
2.03806
2.04105
2.04357
2.04558
2.04699
2.04996
2.04466
2.05262
61.5962
-26.1367
6.71869
-0.263834
-0.014766
0.20264
0.233824
0.262226
0.296371
0.331112
0.365632
0.399995
0.434231
0.468333
0.502289
0.53609
0.569725
0.603184
0.636457
0.669534
0.702406
0.735063
0.767495
0.799695
0.831651
0.863356
0.894801
0.925977
0.956876
0.98749
1.01781
1.04783
1.07754
1.10693
1.136
1.16473
1.19313
1.22119
1.24889
1.27623
1.30321
1.32982
1.35605
1.38191
1.40737
1.43244
1.45712
1.48139
1.50525
1.5287
1.55174
1.57436
1.59655
1.61832
1.63965
1.66055
1.68101
1.70103
1.72061
1.73974
1.75841
1.77664
1.79441
1.81173
1.82859
1.84498
1.86092
1.87639
1.89139
1.90593
1.92
1.93359
1.94672
1.95938
1.97156
1.98327
1.9945
2.00525
2.01553
2.02534
2.03466
2.04351
2.05188
2.05977
2.06718
2.07411
2.08056
2.08653
2.09202
2.09703
2.10156
2.10561
2.10918
2.11227
2.11488
2.11696
2.11845
2.12132
2.11632
2.12412
61.5968
-26.135
6.72162
-0.25974
-0.00950373
0.209068
0.241417
0.27098
0.306284
0.34218
0.377853
0.413365
0.448745
0.483986
0.519078
0.554009
0.588768
0.623345
0.65773
0.691913
0.725883
0.759632
0.793148
0.826424
0.859448
0.892213
0.924709
0.956927
0.988859
1.0205
1.05183
1.08285
1.11355
1.14393
1.17397
1.20366
1.23301
1.262
1.29063
1.31889
1.34677
1.37427
1.40138
1.42809
1.45441
1.48032
1.50582
1.5309
1.55556
1.5798
1.60361
1.62698
1.64991
1.67241
1.69445
1.71605
1.73719
1.75788
1.77811
1.79788
1.81718
1.83602
1.85439
1.87228
1.8897
1.90665
1.92311
1.9391
1.95461
1.96963
1.98417
1.99822
2.01179
2.02486
2.03745
2.04955
2.06116
2.07227
2.0829
2.09303
2.10267
2.11181
2.12046
2.12861
2.13627
2.14343
2.1501
2.15627
2.16195
2.16712
2.17181
2.17599
2.17968
2.18287
2.18557
2.18772
2.18929
2.19207
2.18734
2.19501
61.5974
-26.1332
6.72451
-0.255683
-0.00428917
0.215438
0.24894
0.279655
0.316107
0.353149
0.389963
0.426613
0.463127
0.499498
0.535714
0.571765
0.607638
0.643323
0.67881
0.714089
0.749148
0.783978
0.818569
0.852911
0.886994
0.920809
0.954346
0.987597
1.02055
1.0532
1.08554
1.11756
1.14924
1.18059
1.21159
1.24224
1.27253
1.30245
1.33199
1.36116
1.38993
1.41831
1.44629
1.47386
1.50102
1.52776
1.55408
1.57996
1.60541
1.63043
1.655
1.67912
1.70279
1.726
1.74876
1.77105
1.79287
1.81422
1.8351
1.8555
1.87542
1.89486
1.91382
1.93228
1.95026
1.96775
1.98474
2.00124
2.01725
2.03275
2.04775
2.06226
2.07626
2.08975
2.10275
2.11523
2.12721
2.13869
2.14965
2.16011
2.17005
2.17949
2.18842
2.19683
2.20474
2.21213
2.21901
2.22538
2.23123
2.23658
2.24141
2.24573
2.24953
2.25283
2.25561
2.25784
2.25948
2.26219
2.2577
2.26526
61.598
-26.1315
6.72739
-0.251664
0.000876299
0.221748
0.256393
0.288248
0.325838
0.364014
0.401959
0.439737
0.477374
0.514864
0.552194
0.589353
0.62633
0.663113
0.699692
0.736056
0.772193
0.808095
0.84375
0.879148
0.914279
0.949135
0.983704
1.01798
1.05195
1.0856
1.11893
1.15193
1.18459
1.21691
1.24886
1.28045
1.31167
1.34251
1.37297
1.40303
1.43269
1.46194
1.49078
1.5192
1.54719
1.57476
1.60188
1.62856
1.6548
1.68058
1.70591
1.73077
1.75517
1.77909
1.80255
1.82552
1.84802
1.87003
1.89155
1.91257
1.93311
1.95315
1.97268
1.99172
2.01025
2.02828
2.0458
2.0628
2.0793
2.09528
2.11074
2.12569
2.14012
2.15404
2.16743
2.1803
2.19265
2.20447
2.21577
2.22655
2.2368
2.24653
2.25573
2.26441
2.27255
2.28017
2.28727
2.29383
2.29987
2.30538
2.31036
2.31481
2.31873
2.32213
2.325
2.3273
2.32901
2.33165
2.32739
2.33485
61.5985
-26.1298
6.73023
-0.247684
0.00599133
0.227997
0.263772
0.296757
0.335473
0.374772
0.413838
0.452732
0.491482
0.530079
0.568513
0.60677
0.64484
0.68271
0.72037
0.757808
0.795014
0.831976
0.868685
0.905129
0.941299
0.977184
1.01277
1.04806
1.08303
1.11768
1.152
1.18598
1.2196
1.25287
1.28577
1.31829
1.35044
1.38219
1.41354
1.44449
1.47503
1.50514
1.53483
1.56409
1.59291
1.62129
1.64922
1.67669
1.7037
1.73024
1.75632
1.78192
1.80703
1.83167
1.85581
1.87947
1.90263
1.92528
1.94744
1.96909
1.99023
2.01086
2.03098
2.05058
2.06966
2.08821
2.10625
2.12376
2.14074
2.15719
2.17312
2.18851
2.20336
2.21769
2.23147
2.24473
2.25744
2.26961
2.28125
2.29235
2.3029
2.31292
2.32239
2.33132
2.33971
2.34756
2.35486
2.36162
2.36783
2.37351
2.37863
2.38322
2.38726
2.39075
2.39371
2.39608
2.39786
2.40044
2.39638
2.40376
61.5991
-26.1281
6.73305
-0.243744
0.0110546
0.234182
0.271078
0.30518
0.345011
0.385423
0.425597
0.465596
0.505447
0.545141
0.584667
0.624011
0.663162
0.702108
0.740838
0.77934
0.817603
0.855616
0.893367
0.930847
0.968044
1.00495
1.04155
1.07784
1.11381
1.14944
1.18473
1.21967
1.25425
1.28847
1.3223
1.35575
1.38881
1.42146
1.4537
1.48553
1.51694
1.54791
1.57844
1.60853
1.63817
1.66736
1.69608
1.72433
1.7521
1.7794
1.80622
1.83254
1.85837
1.88371
1.90854
1.93287
1.95668
1.97998
2.00277
2.02504
2.04678
2.06799
2.08868
2.10884
2.12846
2.14754
2.16609
2.1841
2.20156
2.21848
2.23486
2.25068
2.26596
2.28069
2.29487
2.3085
2.32158
2.3341
2.34606
2.35748
2.36833
2.37863
2.38837
2.39756
2.40619
2.41426
2.42177
2.42872
2.43511
2.44094
2.44622
2.45093
2.45509
2.45868
2.46172
2.46416
2.46601
2.46855
2.46467
2.47198
61.5997
-26.1264
6.73583
-0.239846
0.0160649
0.240302
0.278306
0.313514
0.354449
0.395961
0.437233
0.478325
0.519265
0.560045
0.600651
0.641071
0.681293
0.721304
0.761092
0.800647
0.839956
0.879008
0.917791
0.956296
0.99451
1.03242
1.07003
1.10731
1.14426
1.18086
1.21712
1.25302
1.28854
1.32369
1.35845
1.39281
1.42677
1.46032
1.49345
1.52614
1.55841
1.59023
1.62159
1.65251
1.68296
1.71294
1.74244
1.77147
1.8
1.82805
1.85559
1.88264
1.90918
1.9352
1.96071
1.98571
2.01017
2.03411
2.05752
2.08039
2.10273
2.12453
2.14578
2.16648
2.18664
2.20625
2.2253
2.2438
2.26174
2.27913
2.29595
2.31221
2.32791
2.34304
2.35761
2.37161
2.38504
2.3979
2.4102
2.42192
2.43308
2.44366
2.45367
2.4631
2.47197
2.48026
2.48797
2.49511
2.50168
2.50767
2.51309
2.51794
2.52221
2.5259
2.52902
2.53153
2.53345
2.53595
2.53223
2.53949
61.6002
-26.1248
6.73859
-0.23599
0.0210208
0.246357
0.285457
0.321759
0.363785
0.406385
0.448742
0.490916
0.532934
0.574787
0.616463
0.657947
0.699227
0.740291
0.781127
0.821723
0.862066
0.902146
0.941951
0.981469
1.02069
1.0596
1.09819
1.13645
1.17438
1.21195
1.24916
1.286
1.32246
1.35853
1.39421