/*--------------------------------*- C++ -*----------------------------------*\
  =========                 |
  \\      /  F ield         | OpenFOAM: The Open Source CFD Toolbox
   \\    /   O peration     | Website:  https://openfoam.org
    \\  /    A nd           | Version:  10
     \\/     M anipulation  |
\*---------------------------------------------------------------------------*/
FoamFile
{
    format      ascii;
    class       volScalarField;
    location    "43.5";
    object      T;
}
// * * * * * * * * * * * * * * * * * * * * * * * * * * * * * * * * * * * * * //

dimensions      [0 0 0 1 0 0 0];

internalField   nonuniform List<scalar> 
10000
(
374.99
361.306
356.636
354.596
353.494
352.802
352.324
351.97
351.696
351.475
351.293
351.139
351.006
350.89
350.788
350.696
350.612
350.536
350.466
350.401
350.341
350.284
350.231
350.181
350.133
350.088
350.045
350.003
349.963
349.925
349.888
349.853
349.819
349.786
349.753
349.722
349.692
349.663
349.634
349.606
349.579
349.553
349.527
349.502
349.478
349.454
349.431
349.408
349.386
349.364
349.343
349.323
349.303
349.283
349.264
349.245
349.227
349.209
349.192
349.175
349.159
349.143
349.128
349.113
349.098
349.084
349.07
349.057
349.044
349.031
349.019
349.008
348.997
348.986
348.975
348.965
348.956
348.947
348.938
348.929
348.922
348.914
348.907
348.9
348.894
348.888
348.882
348.877
348.873
348.868
348.864
348.861
348.858
348.855
348.853
348.851
348.85
348.849
348.848
348.848
388.63
374.902
367.279
362.848
360.069
358.194
356.847
355.83
355.033
354.387
353.85
353.395
353.002
352.658
352.352
352.078
351.829
351.602
351.393
351.199
351.019
350.85
350.69
350.54
350.397
350.261
350.132
350.008
349.889
349.774
349.664
349.558
349.455
349.356
349.259
349.166
349.075
348.987
348.902
348.818
348.737
348.658
348.581
348.506
348.433
348.361
348.292
348.224
348.157
348.092
348.029
347.968
347.907
347.849
347.791
347.736
347.681
347.628
347.576
347.526
347.477
347.429
347.383
347.338
347.294
347.252
347.21
347.17
347.132
347.094
347.058
347.023
346.99
346.957
346.926
346.896
346.867
346.84
346.813
346.788
346.765
346.742
346.721
346.7
346.681
346.664
346.647
346.632
346.618
346.605
346.593
346.583
346.574
346.566
346.559
346.554
346.549
346.546
346.544
346.543
393.256
382.396
374.729
369.447
365.743
363.057
361.04
359.472
358.218
357.189
356.327
355.589
354.95
354.387
353.886
353.435
353.026
352.651
352.305
351.985
351.686
351.406
351.142
350.892
350.655
350.43
350.214
350.008
349.811
349.62
349.437
349.26
349.089
348.924
348.764
348.608
348.458
348.311
348.168
348.03
347.895
347.763
347.635
347.51
347.388
347.269
347.152
347.039
346.929
346.821
346.716
346.613
346.513
346.415
346.319
346.226
346.136
346.047
345.961
345.877
345.796
345.716
345.639
345.564
345.491
345.42
345.351
345.285
345.22
345.158
345.098
345.04
344.983
344.929
344.877
344.827
344.78
344.734
344.69
344.648
344.609
344.571
344.535
344.502
344.47
344.441
344.413
344.388
344.364
344.343
344.324
344.306
344.291
344.278
344.266
344.257
344.25
344.245
344.241
344.24
395.253
386.697
379.795
374.469
370.397
367.253
364.783
362.802
361.18
359.826
358.678
357.687
356.821
356.055
355.37
354.751
354.188
353.671
353.194
352.75
352.336
351.947
351.58
351.233
350.903
350.589
350.289
350.002
349.726
349.461
349.205
348.959
348.72
348.489
348.265
348.048
347.837
347.632
347.433
347.239
347.05
346.866
346.687
346.512
346.342
346.175
346.013
345.854
345.7
345.549
345.402
345.258
345.118
344.981
344.847
344.717
344.59
344.467
344.346
344.229
344.115
344.004
343.895
343.79
343.688
343.589
343.493
343.4
343.31
343.223
343.138
343.057
342.978
342.903
342.83
342.76
342.693
342.629
342.568
342.509
342.454
342.401
342.351
342.304
342.26
342.219
342.18
342.145
342.112
342.082
342.055
342.031
342.009
341.991
341.975
341.962
341.952
341.944
341.94
341.938
396.312
389.346
383.283
378.239
374.123
370.776
368.038
365.772
363.873
362.26
360.871
359.661
358.594
357.644
356.789
356.014
355.305
354.654
354.05
353.488
352.962
352.467
352
351.558
351.138
350.737
350.354
349.986
349.634
349.294
348.967
348.651
348.345
348.049
347.763
347.484
347.214
346.951
346.696
346.447
346.204
345.968
345.738
345.514
345.295
345.081
344.873
344.669
344.471
344.277
344.088
343.903
343.723
343.547
343.376
343.209
343.046
342.887
342.732
342.582
342.435
342.292
342.153
342.018
341.887
341.76
341.636
341.517
341.401
341.289
341.18
341.076
340.975
340.878
340.784
340.694
340.608
340.526
340.447
340.372
340.301
340.233
340.169
340.109
340.052
339.999
339.949
339.904
339.861
339.823
339.788
339.757
339.729
339.705
339.685
339.669
339.656
339.646
339.641
339.638
396.96
391.091
385.752
381.08
377.082
373.691
370.82
368.376
366.282
364.47
362.888
361.493
360.252
359.138
358.13
357.211
356.368
355.589
354.866
354.191
353.558
352.962
352.398
351.864
351.355
350.869
350.404
349.959
349.53
349.118
348.72
348.336
347.964
347.604
347.255
346.916
346.586
346.266
345.955
345.651
345.356
345.068
344.787
344.514
344.247
343.986
343.732
343.483
343.241
343.005
342.774
342.549
342.329
342.114
341.905
341.701
341.502
341.308
341.119
340.935
340.756
340.582
340.412
340.247
340.087
339.932
339.781
339.635
339.493
339.357
339.224
339.096
338.973
338.855
338.74
338.631
338.526
338.425
338.329
338.237
338.15
338.067
337.989
337.915
337.846
337.781
337.721
337.665
337.614
337.567
337.524
337.486
337.452
337.423
337.398
337.378
337.362
337.351
337.344
337.341
397.395
392.309
387.554
383.248
379.432
376.089
373.174
370.632
368.408
366.451
364.718
363.172
361.784
360.527
359.383
358.335
357.368
356.472
355.637
354.855
354.12
353.427
352.77
352.146
351.552
350.984
350.44
349.917
349.415
348.931
348.464
348.012
347.575
347.151
346.741
346.342
345.954
345.577
345.21
344.853
344.505
344.165
343.835
343.512
343.197
342.89
342.59
342.297
342.011
341.732
341.46
341.194
340.935
340.682
340.435
340.194
339.959
339.73
339.507
339.29
339.079
338.873
338.673
338.478
338.289
338.106
337.928
337.755
337.588
337.427
337.27
337.12
336.974
336.834
336.699
336.57
336.446
336.327
336.213
336.105
336.002
335.904
335.812
335.725
335.643
335.567
335.495
335.429
335.369
335.313
335.263
335.218
335.178
335.144
335.114
335.09
335.072
335.058
335.05
335.047
397.706
393.196
388.906
384.928
381.31
378.059
375.157
372.572
370.269
368.21
366.363
364.696
363.185
361.807
360.543
359.379
358.3
357.296
356.357
355.475
354.644
353.858
353.113
352.403
351.726
351.078
350.457
349.86
349.285
348.731
348.196
347.678
347.177
346.691
346.219
345.761
345.316
344.883
344.461
344.05
343.65
343.26
342.879
342.508
342.146
341.792
341.447
341.11
340.781
340.46
340.146
339.84
339.541
339.25
338.966
338.688
338.418
338.154
337.897
337.647
337.403
337.166
336.935
336.711
336.493
336.282
336.077
335.878
335.686
335.499
335.319
335.145
334.978
334.816
334.661
334.512
334.369
334.232
334.101
333.976
333.857
333.745
333.638
333.538
333.444
333.355
333.273
333.197
333.127
333.063
333.005
332.953
332.908
332.868
332.834
332.806
332.785
332.769
332.76
332.756
397.937
393.865
389.945
386.249
382.822
379.681
376.823
374.232
371.886
369.76
367.828
366.067
364.455
362.974
361.607
360.34
359.16
358.057
357.022
356.048
355.126
354.253
353.423
352.631
351.874
351.15
350.454
349.784
349.139
348.517
347.915
347.333
346.769
346.222
345.69
345.174
344.672
344.183
343.707
343.244
342.792
342.351
341.921
341.502
341.092
340.693
340.303
339.922
339.55
339.187
338.832
338.486
338.149
337.819
337.497
337.183
336.877
336.579
336.288
336.005
335.73
335.461
335.2
334.947
334.7
334.461
334.229
334.004
333.786
333.575
333.371
333.175
332.985
332.802
332.626
332.457
332.295
332.14
331.992
331.851
331.717
331.589
331.469
331.355
331.248
331.148
331.055
330.969
330.89
330.817
330.752
330.693
330.641
330.596
330.558
330.527
330.502
330.485
330.474
330.47
398.115
394.382
390.759
387.302
384.05
381.022
378.223
375.649
373.285
371.116
369.124
367.29
365.597
364.03
362.574
361.216
359.946
358.754
357.631
356.57
355.565
354.609
353.698
352.829
351.996
351.197
350.429
349.69
348.976
348.287
347.621
346.975
346.35
345.742
345.152
344.579
344.021
343.477
342.948
342.432
341.929
341.439
340.96
340.493
340.037
339.592
339.157
338.733
338.319
337.914
337.519
337.133
336.756
336.389
336.03
335.68
335.339
335.006
334.682
334.366
334.058
333.759
333.468
333.185
332.91
332.643
332.384
332.133
331.89
331.654
331.427
331.207
330.995
330.791
330.595
330.407
330.226
330.053
329.888
329.73
329.58
329.438
329.303
329.176
329.057
328.946
328.842
328.746
328.657
328.576
328.503
328.438
328.38
328.329
328.287
328.252
328.225
328.205
328.193
328.189
398.254
394.79
391.408
388.152
385.053
382.134
379.401
376.856
374.492
372.299
370.264
368.374
366.616
364.977
363.445
362.008
360.658
359.385
358.182
357.041
355.957
354.924
353.938
352.994
352.089
351.219
350.382
349.574
348.795
348.041
347.312
346.605
345.919
345.252
344.605
343.975
343.362
342.765
342.183
341.616
341.063
340.523
339.996
339.482
338.98
338.49
338.011
337.543
337.087
336.641
336.205
335.78
335.365
334.959
334.564
334.178
333.802
333.435
333.077
332.729
332.39
332.059
331.738
331.426
331.122
330.828
330.542
330.265
329.997
329.737
329.486
329.244
329.01
328.785
328.569
328.361
328.161
327.97
327.788
327.614
327.448
327.291
327.143
327.003
326.871
326.748
326.634
326.527
326.43
326.34
326.26
326.187
326.123
326.068
326.021
325.982
325.952
325.931
325.917
325.912
398.365
395.117
391.932
388.843
385.88
383.06
380.393
377.884
375.53
373.325
371.262
369.33
367.52
365.821
364.223
362.718
361.297
359.951
358.674
357.46
356.303
355.198
354.14
353.126
352.152
351.214
350.31
349.437
348.594
347.778
346.987
346.22
345.475
344.751
344.048
343.363
342.696
342.046
341.412
340.794
340.191
339.603
339.029
338.468
337.92
337.386
336.863
336.353
335.854
335.367
334.892
334.427
333.974
333.531
333.099
332.678
332.267
331.866
331.475
331.094
330.724
330.363
330.012
329.67
329.339
329.017
328.705
328.402
328.108
327.825
327.55
327.285
327.03
326.784
326.547
326.319
326.101
325.892
325.693
325.503
325.322
325.15
324.988
324.835
324.691
324.556
324.431
324.315
324.208
324.11
324.022
323.943
323.873
323.812
323.761
323.719
323.686
323.662
323.648
323.642
398.456
395.383
392.359
389.412
386.564
383.833
381.229
378.758
376.42
374.213
372.13
370.167
368.315
366.567
364.913
363.348
361.863
360.452
359.109
357.828
356.603
355.43
354.305
353.224
352.184
351.181
350.214
349.278
348.373
347.496
346.646
345.821
345.019
344.239
343.48
342.741
342.021
341.319
340.635
339.967
339.315
338.679
338.058
337.451
336.858
336.28
335.714
335.161
334.621
334.094
333.579
333.076
332.584
332.105
331.637
331.18
330.734
330.299
329.876
329.463
329.061
328.67
328.289
327.919
327.559
327.21
326.871
326.543
326.224
325.917
325.619
325.332
325.054
324.787
324.53
324.284
324.047
323.82
323.604
323.397
323.201
323.015
322.839
322.673
322.516
322.37
322.234
322.108
321.992
321.887
321.791
321.705
321.629
321.563
321.507
321.462
321.426
321.4
321.384
321.379
398.529
395.6
392.709
389.881
387.133
384.481
381.935
379.502
377.182
374.977
372.883
370.896
369.011
367.221
365.52
363.902
362.361
360.891
359.487
358.143
356.856
355.62
354.432
353.288
352.186
351.121
350.092
349.097
348.132
347.197
346.288
345.406
344.548
343.714
342.901
342.109
341.338
340.585
339.85
339.134
338.434
337.751
337.083
336.431
335.794
335.172
334.563
333.969
333.388
332.821
332.266
331.725
331.196
330.68
330.176
329.684
329.204
328.736
328.279
327.835
327.402
326.98
326.57
326.171
325.784
325.407
325.042
324.688
324.345
324.014
323.693
323.383
323.084
322.796
322.52
322.254
321.998
321.754
321.521
321.298
321.087
320.886
320.696
320.517
320.349
320.191
320.045
319.909
319.784
319.67
319.566
319.474
319.392
319.321
319.261
319.211
319.173
319.145
319.128
319.122
398.589
395.779
392.999
390.27
387.608
385.025
382.531
380.133
377.833
375.633
373.532
371.527
369.614
367.789
366.047
364.383
362.792
361.269
359.81
358.409
357.063
355.768
354.521
353.318
352.156
351.033
349.945
348.892
347.87
346.878
345.914
344.977
344.065
343.177
342.311
341.468
340.645
339.843
339.06
338.295
337.548
336.818
336.105
335.408
334.728
334.062
333.412
332.776
332.155
331.548
330.955
330.375
329.809
329.256
328.717
328.19
327.676
327.175
326.686
326.21
325.746
325.295
324.855
324.428
324.013
323.61
323.219
322.839
322.472
322.116
321.773
321.441
321.12
320.812
320.515
320.23
319.957
319.695
319.445
319.206
318.979
318.764
318.56
318.368
318.188
318.019
317.862
317.716
317.582
317.46
317.349
317.25
317.162
317.086
317.022
316.969
316.928
316.898
316.88
316.873
398.639
395.927
393.24
390.594
388.004
385.481
383.033
380.667
378.387
376.194
374.089
372.07
370.134
368.28
366.502
364.797
363.161
361.589
360.079
358.626
357.226
355.876
354.573
353.314
352.096
350.916
349.773
348.664
347.587
346.54
345.522
344.532
343.567
342.627
341.711
340.817
339.945
339.093
338.262
337.45
336.656
335.881
335.123
334.383
333.659
332.951
332.259
331.583
330.921
330.275
329.644
329.027
328.424
327.835
327.26
326.699
326.151
325.617
325.097
324.589
324.095
323.613
323.145
322.69
322.247
321.817
321.4
320.996
320.604
320.225
319.858
319.504
319.163
318.834
318.517
318.213
317.921
317.642
317.375
317.121
316.879
316.65
316.432
316.228
316.035
315.855
315.687
315.532
315.389
315.258
315.14
315.034
314.941
314.86
314.791
314.734
314.69
314.659
314.639
314.632
398.681
396.049
393.44
390.864
388.336
385.863
383.456
381.119
378.856
376.671
374.563
372.532
370.578
368.697
366.888
365.147
363.47
361.855
360.298
358.796
357.346
355.945
354.589
353.277
352.005
350.772
349.575
348.413
347.283
346.183
345.113
344.071
343.055
342.065
341.098
340.155
339.235
338.335
337.457
336.599
335.76
334.94
334.138
333.354
332.587
331.838
331.105
330.388
329.688
329.003
328.333
327.679
327.04
326.416
325.806
325.211
324.63
324.063
323.511
322.972
322.448
321.937
321.44
320.956
320.487
320.03
319.588
319.158
318.742
318.34
317.951
317.575
317.212
316.863
316.526
316.204
315.894
315.597
315.314
315.044
314.787
314.543
314.312
314.095
313.89
313.699
313.521
313.356
313.204
313.065
312.94
312.827
312.728
312.642
312.569
312.509
312.462
312.428
312.408
312.4
398.715
396.151
393.606
391.089
388.612
386.184
383.81
381.498
379.252
377.073
374.963
372.924
370.953
369.049
367.211
365.437
363.724
362.069
360.469
358.922
357.425
355.975
354.57
353.208
351.885
350.601
349.353
348.139
346.958
345.808
344.687
343.595
342.529
341.49
340.475
339.484
338.516
337.57
336.645
335.742
334.858
333.994
333.149
332.322
331.514
330.723
329.95
329.194
328.454
327.731
327.025
326.334
325.659
324.999
324.355
323.726
323.112
322.513
321.929
321.36
320.806
320.266
319.74
319.229
318.732
318.25
317.781
317.327
316.887
316.462
316.05
315.652
315.269
314.899
314.543
314.202
313.874
313.56
313.261
312.975
312.703
312.445
312.201
311.97
311.754
311.552
311.363
311.189
311.028
310.881
310.748
310.629
310.524
310.433
310.356
310.292
310.243
310.207
310.185
310.177
398.744
396.236
393.743
391.276
388.842
386.45
384.106
381.816
379.582
377.41
375.298
373.25
371.264
369.34
367.477
365.673
363.926
362.234
360.594
359.005
357.464
355.969
354.517
353.107
351.736
350.404
349.106
347.844
346.613
345.414
344.245
343.104
341.99
340.903
339.84
338.803
337.788
336.797
335.827
334.879
333.951
333.044
332.157
331.288
330.439
329.608
328.795
327.999
327.222
326.461
325.717
324.99
324.279
323.585
322.907
322.245
321.598
320.968
320.352
319.753
319.168
318.6
318.046
317.507
316.984
316.475
315.982
315.503
315.039
314.591
314.157
313.737
313.333
312.943
312.568
312.208
311.863
311.532
311.216
310.914
310.628
310.356
310.098
309.855
309.627
309.414
309.215
309.031
308.862
308.707
308.567
308.441
308.33
308.234
308.152
308.086
308.033
307.996
307.973
307.964
398.767
396.305
393.857
391.43
389.033
386.671
384.351
382.079
379.857
377.688
375.575
373.519
371.519
369.577
367.69
365.858
364.08
362.353
360.676
359.048
357.465
355.927
354.431
352.976
351.56
350.18
348.836
347.526
346.249
345.002
343.785
342.597
341.437
340.303
339.195
338.112
337.052
336.016
335.002
334.01
333.04
332.09
331.161
330.252
329.362
328.491
327.639
326.805
325.989
325.191
324.411
323.648
322.903
322.174
321.462
320.767
320.088
319.426
318.78
318.15
317.537
316.939
316.358
315.792
315.242
314.708
314.189
313.686
313.199
312.727
312.271
311.831
311.405
310.996
310.602
310.223
309.86
309.512
309.18
308.863
308.562
308.276
308.005
307.75
307.51
307.286
307.077
306.883
306.705
306.542
306.395
306.263
306.146
306.045
305.96
305.889
305.834
305.795
305.771
305.762
398.786
396.363
393.951
391.557
389.189
386.852
384.553
382.294
380.081
377.915
375.8
373.735
371.723
369.763
367.854
365.996
364.189
362.43
360.718
359.053
357.431
355.853
354.315
352.817
351.356
349.932
348.543
347.188
345.865
344.572
343.31
342.076
340.871
339.692
338.539
337.411
336.307
335.228
334.171
333.137
332.124
331.133
330.163
329.213
328.283
327.373
326.482
325.611
324.758
323.923
323.107
322.309
321.529
320.766
320.021
319.293
318.583
317.89
317.213
316.554
315.911
315.285
314.676
314.083
313.507
312.947
312.404
311.877
311.366
310.872
310.394
309.932
309.487
309.057
308.644
308.248
307.867
307.502
307.154
306.822
306.506
306.206
305.922
305.655
305.403
305.168
304.949
304.746
304.559
304.388
304.234
304.096
303.973
303.867
303.777
303.704
303.646
303.605
303.579
303.57
398.802
396.409
394.026
391.66
389.316
386.999
384.715
382.468
380.261
378.097
375.978
373.905
371.88
369.903
367.974
366.092
364.257
362.467
360.723
359.022
357.364
355.747
354.169
352.63
351.127
349.661
348.228
346.829
345.462
344.126
342.819
341.541
340.292
339.069
337.872
336.701
335.555
334.432
333.333
332.257
331.204
330.172
329.161
328.172
327.203
326.254
325.326
324.417
323.527
322.657
321.805
320.972
320.158
319.362
318.584
317.824
317.082
316.358
315.652
314.963
314.291
313.637
313.001
312.381
311.779
311.194
310.626
310.076
309.542
309.025
308.526
308.043
307.577
307.128
306.696
306.281
305.883
305.502
305.138
304.791
304.46
304.147
303.85
303.57
303.307
303.061
302.832
302.62
302.424
302.246
302.084
301.94
301.812
301.701
301.607
301.53
301.469
301.426
301.4
301.39
398.815
396.446
394.087
391.742
389.417
387.116
384.844
382.605
380.402
378.238
376.115
374.033
371.996
370.002
368.053
366.147
364.286
362.468
360.693
358.958
357.265
355.611
353.995
352.417
350.874
349.366
347.892
346.451
345.042
343.663
342.313
340.993
339.7
338.435
337.196
335.983
334.794
333.63
332.49
331.373
330.279
329.207
328.157
327.129
326.122
325.135
324.17
323.224
322.298
321.392
320.506
319.639
318.791
317.962
317.151
316.36
315.587
314.832
314.096
313.378
312.678
311.997
311.333
310.687
310.059
309.449
308.857
308.283
307.726
307.188
306.666
306.163
305.677
305.209
304.758
304.326
303.91
303.513
303.133
302.77
302.425
302.098
301.789
301.497
301.222
300.966
300.727
300.505
300.301
300.115
299.946
299.795
299.662
299.546
299.448
299.368
299.305
299.259
299.232
299.222
398.824
396.476
394.135
391.807
389.496
387.207
384.944
382.71
380.509
378.343
376.214
374.124
372.073
370.063
368.095
366.167
364.281
362.435
360.63
358.864
357.137
355.447
353.795
352.179
350.598
349.051
347.537
346.055
344.604
343.184
341.793
340.431
339.097
337.79
336.51
335.255
334.026
332.822
331.641
330.484
329.351
328.24
327.151
326.085
325.04
324.016
323.014
322.032
321.071
320.13
319.209
318.308
317.427
316.566
315.723
314.901
314.097
313.312
312.547
311.8
311.072
310.363
309.673
309.001
308.348
307.713
307.097
306.499
305.92
305.359
304.817
304.293
303.787
303.3
302.831
302.38
301.948
301.534
301.138
300.761
300.402
300.061
299.739
299.435
299.149
298.882
298.633
298.403
298.19
297.996
297.821
297.663
297.525
297.404
297.302
297.218
297.153
297.105
297.077
297.066
398.832
396.498
394.171
391.855
389.555
387.275
385.018
382.787
380.585
378.416
376.28
374.18
372.116
370.09
368.103
366.153
364.243
362.371
360.537
358.74
356.981
355.258
353.57
351.918
350.3
348.715
347.162
345.641
344.151
342.691
341.26
339.857
338.483
337.136
335.815
334.52
333.251
332.007
330.787
329.591
328.419
327.27
326.143
325.039
323.958
322.898
321.859
320.842
319.846
318.87
317.916
316.982
316.068
315.174
314.3
313.447
312.613
311.799
311.004
310.229
309.474
308.737
308.021
307.323
306.645
305.986
305.346
304.725
304.123
303.541
302.977
302.433
301.908
301.401
300.914
300.446
299.997
299.567
299.156
298.764
298.391
298.037
297.702
297.386
297.089
296.811
296.552
296.313
296.092
295.89
295.708
295.544
295.4
295.275
295.169
295.081
295.013
294.965
294.935
294.924
398.837
396.514
394.197
391.89
389.597
387.322
385.068
382.838
380.635
378.46
376.317
374.206
372.129
370.087
368.08
366.11
364.175
362.277
360.416
358.59
356.799
355.044
353.323
351.635
349.981
348.359
346.769
345.21
343.682
342.183
340.713
339.272
337.858
336.472
335.112
333.778
332.47
331.187
329.929
328.694
327.484
326.298
325.134
323.993
322.875
321.779
320.705
319.653
318.623
317.614
316.626
315.659
314.713
313.788
312.883
311.999
311.135
310.292
309.468
308.665
307.882
307.12
306.377
305.654
304.951
304.267
303.604
302.961
302.337
301.733
301.149
300.584
300.039
299.514
299.009
298.523
298.058
297.611
297.185
296.778
296.391
296.024
295.677
295.349
295.041
294.753
294.484
294.236
294.007
293.798
293.608
293.439
293.289
293.159
293.049
292.959
292.888
292.837
292.806
292.795
398.841
396.525
394.214
391.913
389.625
387.352
385.098
382.867
380.659
378.478
376.326
374.204
372.113
370.055
368.029
366.038
364.081
362.158
360.269
358.415
356.594
354.807
353.054
351.332
349.644
347.986
346.36
344.764
343.199
341.662
340.155
338.675
337.223
335.798
334.4
333.029
331.682
330.362
329.066
327.794
326.547
325.323
324.123
322.947
321.793
320.662
319.553
318.467
317.403
316.36
315.339
314.34
313.363
312.406
311.471
310.557
309.664
308.792
307.94
307.11
306.3
305.51
304.742
303.994
303.266
302.559
301.872
301.206
300.561
299.935
299.331
298.746
298.182
297.639
297.116
296.613
296.13
295.668
295.227
294.806
294.405
294.025
293.665
293.326
293.007
292.708
292.43
292.173
291.935
291.719
291.523
291.347
291.192
291.057
290.943
290.85
290.777
290.724
290.692
290.68
398.843
396.531
394.224
391.925
389.638
387.366
385.111
382.875
380.662
378.474
376.312
374.177
372.072
369.997
367.953
365.941
363.961
362.014
360.099
358.217
356.367
354.55
352.764
351.011
349.288
347.597
345.935
344.304
342.702
341.129
339.585
338.068
336.579
335.117
333.682
332.273
330.889
329.532
328.199
326.891
325.607
324.348
323.112
321.9
320.711
319.546
318.403
317.283
316.186
315.11
314.057
313.027
312.018
311.031
310.065
309.122
308.2
307.299
306.42
305.562
304.725
303.91
303.116
302.343
301.591
300.861
300.151
299.463
298.796
298.149
297.524
296.92
296.337
295.775
295.234
294.715
294.216
293.738
293.282
292.846
292.432
292.039
291.667
291.316
290.986
290.677
290.39
290.123
289.878
289.654
289.452
289.27
289.109
288.97
288.852
288.755
288.68
288.625
288.592
288.58
398.844
396.533
394.227
391.928
389.64
387.366
385.107
382.866
380.646
378.449
376.276
374.129
372.008
369.917
367.854
365.821
363.819
361.848
359.907
357.998
356.12
354.273
352.457
350.671
348.916
347.191
345.496
343.83
342.193
340.584
339.004
337.452
335.926
334.428
332.957
331.511
330.092
328.698
327.329
325.985
324.666
323.371
322.101
320.854
319.631
318.431
317.255
316.102
314.972
313.865
312.78
311.718
310.678
309.661
308.666
307.693
306.743
305.814
304.907
304.023
303.16
302.319
301.5
300.702
299.927
299.173
298.441
297.73
297.042
296.375
295.73
295.106
294.505
293.924
293.366
292.83
292.315
291.822
291.35
290.901
290.473
290.067
289.683
289.32
288.98
288.661
288.364
288.089
287.836
287.605
287.395
287.208
287.042
286.898
286.776
286.676
286.598
286.542
286.508
286.495
398.843
396.531
394.224
391.923
389.632
387.353
385.088
382.841
380.613
378.405
376.22
374.06
371.924
369.815
367.734
365.681
363.656
361.661
359.696
357.76
355.854
353.978
352.132
350.316
348.529
346.771
345.043
343.343
341.672
340.029
338.414
336.826
335.266
333.732
332.225
330.744
329.289
327.86
326.456
325.077
323.723
322.394
321.089
319.809
318.552
317.319
316.11
314.925
313.762
312.623
311.508
310.415
309.345
308.298
307.274
306.272
305.294
304.337
303.404
302.492
301.604
300.737
299.894
299.072
298.273
297.496
296.742
296.01
295.3
294.613
293.948
293.305
292.685
292.087
291.511
290.958
290.427
289.919
289.433
288.969
288.528
288.11
287.713
287.34
286.988
286.66
286.354
286.07
285.809
285.57
285.354
285.161
284.99
284.842
284.716
284.613
284.533
284.475
284.439
284.426
398.842
396.526
394.215
391.91
389.614
387.329
385.058
382.802
380.564
378.345
376.148
373.973
371.821
369.695
367.595
365.521
363.475
361.456
359.466
357.504
355.571
353.667
351.792
349.945
348.127
346.338
344.578
342.845
341.141
339.464
337.815
336.193
334.598
333.03
331.488
329.973
328.483
327.02
325.581
324.168
322.78
321.417
320.079
318.765
317.475
316.21
314.968
313.751
312.557
311.387
310.241
309.118
308.018
306.942
305.889
304.859
303.853
302.869
301.909
300.972
300.057
299.166
298.298
297.453
296.63
295.831
295.054
294.301
293.57
292.863
292.178
291.517
290.878
290.262
289.67
289.1
288.554
288.03
287.53
287.052
286.598
286.167
285.759
285.374
285.013
284.674
284.359
284.067
283.798
283.552
283.329
283.13
282.954
282.802
282.672
282.566
282.483
282.423
282.387
282.374
398.839
396.518
394.201
391.89
389.587
387.295
385.015
382.75
380.501
378.27
376.059
373.869
371.702
369.558
367.438
365.344
363.276
361.234
359.219
357.232
355.273
353.341
351.437
349.561
347.713
345.893
344.101
342.337
340.6
338.89
337.208
335.553
333.924
332.322
330.747
329.198
327.674
326.177
324.705
323.258
321.837
320.44
319.069
317.722
316.4
315.103
313.83
312.581
311.356
310.156
308.979
307.827
306.698
305.593
304.512
303.454
302.421
301.41
300.424
299.461
298.521
297.606
296.713
295.844
294.999
294.178
293.379
292.605
291.854
291.126
290.422
289.742
289.085
288.452
287.843
287.257
286.695
286.156
285.642
285.151
284.684
284.24
283.82
283.425
283.052
282.704
282.38
282.079
281.803
281.55
281.321
281.116
280.935
280.778
280.645
280.535
280.45
280.389
280.351
280.338
398.836
396.508
394.184
391.865
389.554
387.252
384.963
382.687
380.426
378.182
375.957
373.752
371.567
369.405
367.266
365.152
363.061
360.997
358.958
356.946
354.96
353.001
351.069
349.165
347.287
345.437
343.614
341.819
340.05
338.309
336.594
334.906
333.245
331.61
330.001
328.419
326.862
325.332
323.827
322.347
320.893
319.465
318.061
316.682
315.329
314
312.696
311.416
310.161
308.93
307.724
306.543
305.385
304.252
303.143
302.058
300.997
299.961
298.948
297.96
296.996
296.056
295.14
294.248
293.38
292.536
291.717
290.921
290.15
289.403
288.68
287.981
287.307
286.656
286.03
285.429
284.851
284.298
283.769
283.265
282.785
282.329
281.898
281.491
281.109
280.751
280.418
280.109
279.824
279.565
279.329
279.119
278.933
278.771
278.634
278.522
278.435
278.371
278.333
278.319
398.832
396.495
394.162
391.834
389.514
387.202
384.901
382.613
380.34
378.082
375.842
373.621
371.419
369.239
367.08
364.945
362.833
360.746
358.683
356.646
354.634
352.649
350.69
348.757
346.851
344.971
343.118
341.292
339.492
337.72
335.973
334.254
332.56
330.893
329.252
327.637
326.049
324.486
322.948
321.437
319.951
318.49
317.055
315.645
314.26
312.9
311.566
310.256
308.971
307.711
306.476
305.266
304.08
302.919
301.782
300.671
299.584
298.521
297.483
296.47
295.482
294.518
293.578
292.664
291.774
290.908
290.068
289.252
288.46
287.694
286.952
286.235
285.543
284.876
284.233
283.616
283.023
282.455
281.913
281.395
280.902
280.434
279.992
279.574
279.182
278.815
278.472
278.155
277.864
277.597
277.355
277.139
276.948
276.782
276.642
276.527
276.437
276.372
276.333
276.318
398.827
396.48
394.137
391.799
389.468
387.145
384.832
382.531
380.244
377.972
375.716
373.478
371.259
369.06
366.882
364.726
362.592
360.482
358.396
356.334
354.297
352.285
350.299
348.339
346.404
344.496
342.614
340.758
338.928
337.124
335.347
333.596
331.871
330.173
328.5
326.854
325.233
323.639
322.07
320.527
319.01
317.518
316.052
314.611
313.196
311.806
310.441
309.102
307.787
306.499
305.235
303.996
302.783
301.594
300.431
299.293
298.18
297.092
296.029
294.991
293.979
292.991
292.029
291.092
290.18
289.293
288.432
287.595
286.785
285.999
285.239
284.504
283.794
283.11
282.452
281.818
281.211
280.629
280.072
279.542
279.036
278.557
278.103
277.675
277.272
276.896
276.545
276.22
275.92
275.647
275.399
275.178
274.982
274.812
274.668
274.549
274.457
274.391
274.35
274.336
398.821
396.464
394.11
391.76
389.416
387.081
384.755
382.441
380.139
377.852
375.58
373.325
371.088
368.87
366.672
364.495
362.34
360.207
358.098
356.012
353.95
351.912
349.899
347.912
345.95
344.013
342.102
340.216
338.357
336.524
334.716
332.935
331.179
329.45
327.747
326.069
324.418
322.792
321.192
319.619
318.07
316.548
315.052
313.581
312.135
310.716
309.322
307.953
306.61
305.293
304.001
302.735
301.494
300.279
299.089
297.925
296.786
295.673
294.586
293.524
292.488
291.477
290.492
289.533
288.6
287.692
286.81
285.954
285.123
284.319
283.54
282.788
282.061
281.361
280.686
280.038
279.415
278.819
278.249
277.705
277.188
276.697
276.232
275.793
275.381
274.995
274.635
274.302
273.996
273.715
273.462
273.234
273.034
272.86
272.712
272.591
272.496
272.428
272.387
272.372
398.815
396.446
394.079
391.717
389.36
387.012
384.672
382.343
380.026
377.723
375.435
373.162
370.907
368.67
366.452
364.255
362.078
359.923
357.79
355.68
353.593
351.53
349.491
347.477
345.487
343.523
341.583
339.669
337.781
335.918
334.081
332.27
330.484
328.725
326.991
325.284
323.602
321.946
320.316
318.712
317.134
315.581
314.055
312.554
311.08
309.631
308.208
306.811
305.44
304.095
302.776
301.482
300.215
298.973
297.757
296.568
295.404
294.266
293.154
292.069
291.009
289.976
288.969
287.988
287.033
286.105
285.202
284.327
283.477
282.654
281.858
281.088
280.344
279.627
278.937
278.274
277.637
277.027
276.443
275.887
275.357
274.854
274.378
273.929
273.507
273.112
272.744
272.403
272.089
271.803
271.543
271.31
271.105
270.927
270.776
270.652
270.555
270.485
270.443
270.427
398.809
396.426
394.046
391.671
389.3
386.937
384.583
382.239
379.907
377.587
375.281
372.991
370.718
368.461
366.223
364.005
361.806
359.629
357.473
355.339
353.228
351.14
349.075
347.035