/*--------------------------------*- C++ -*----------------------------------*\
  =========                 |
  \\      /  F ield         | OpenFOAM: The Open Source CFD Toolbox
   \\    /   O peration     | Website:  https://openfoam.org
    \\  /    A nd           | Version:  10
     \\/     M anipulation  |
\*---------------------------------------------------------------------------*/
FoamFile
{
    format      ascii;
    class       volScalarField;
    location    "0.3";
    object      T;
}
// * * * * * * * * * * * * * * * * * * * * * * * * * * * * * * * * * * * * * //

dimensions      [0 0 0 1 0 0 0];

internalField   nonuniform List<scalar> 
100
(
1
1
1
1
1
1
1
1
1
1
1
1
1
1
1
1
1
1
0.999999
0.999997
0.999988
0.999947
0.99977
0.999038
0.996053
0.984106
0.945432
0.867571
0.746985
0.591999
0.422001
0.26147
0.131791
0.0454767
0.00722361
0.000994701
0.000136925
1.8838e-05
2.59019e-06
3.55951e-07
4.88913e-08
6.71252e-09
9.2124e-10
1.26392e-10
1.7335e-11
2.37729e-12
3.25897e-13
4.4723e-14
6.05969e-15
6.98903e-16
-1.17966e-16
-2.82358e-16
-2.28073e-16
-1.26665e-16
-4.71038e-17
-4.76446e-18
9.36425e-18
9.26935e-18
5.10316e-18
1.64183e-18
-3.8749e-20
-4.49477e-19
-3.29431e-19
-1.33455e-19
-1.78237e-20
1.85124e-20
1.68858e-20
7.33028e-21
1.19092e-21
-7.89115e-22
-7.54158e-22
-3.12054e-22
-4.11012e-23
3.64622e-23
2.96153e-23
1.04299e-23
5.09847e-25
-1.60702e-24
-9.84824e-25
-2.57925e-25
3.0168e-26
5.95125e-26
2.6111e-26
3.76289e-27
-2.26566e-27
-1.72529e-27
-5.01263e-28
1.81905e-29
8.36558e-29
3.69688e-29
5.1886e-30
-2.86812e-30
-2.0352e-30
-5.20829e-31
4.48566e-32
8.94377e-32
3.29433e-32
2.52948e-33
-3.1756e-33
-1.27832e-33
)
;

boundaryField
{
    top
    {
        type            zeroGradient;
    }
    bottom
    {
        type            zeroGradient;
    }
    in
    {
        type            fixedValue;
        value           uniform 1;
    }
    out
    {
        type            zeroGradient;
    }
    frontAndBack
    {
        type            empty;
    }
}


// ************************************************************************* //
