/*--------------------------------*- C++ -*----------------------------------*\
  =========                 |
  \\      /  F ield         | OpenFOAM: The Open Source CFD Toolbox
   \\    /   O peration     | Website:  https://openfoam.org
    \\  /    A nd           | Version:  10
     \\/     M anipulation  |
\*---------------------------------------------------------------------------*/
FoamFile
{
    format      ascii;
    class       volScalarField;
    location    "18.5";
    object      ddt0(T);
}
// * * * * * * * * * * * * * * * * * * * * * * * * * * * * * * * * * * * * * //

dimensions      [0 0 -1 1 0 0 0];

internalField   nonuniform List<scalar> 
10000
(
2135.68
595.275
710.18
722.727
722.118
722.037
722.114
722.15
722.161
722.166
722.17
722.173
722.176
722.179
722.182
722.185
722.188
722.19
722.193
722.196
722.198
722.201
722.203
722.205
722.207
722.21
722.212
722.214
722.216
722.218
722.22
722.221
722.223
722.225
722.227
722.228
722.23
722.231
722.233
722.234
722.235
722.236
722.238
722.239
722.24
722.241
722.242
722.242
722.243
722.244
722.245
722.245
722.246
722.247
722.247
722.248
722.248
722.248
722.249
722.249
722.249
722.249
722.25
722.25
722.25
722.25
722.25
722.25
722.25
722.25
722.25
722.25
722.25
722.25
722.25
722.25
722.25
722.249
722.249
722.249
722.249
722.249
722.249
722.249
722.248
722.248
722.248
722.248
722.248
722.248
722.248
722.248
722.247
722.247
722.249
722.266
722.237
720.111
695.697
712.815
726.613
-448.919
-219.155
-205.404
-209.12
-209.81
-209.777
-209.736
-209.719
-209.709
-209.7
-209.692
-209.683
-209.675
-209.666
-209.658
-209.65
-209.642
-209.635
-209.627
-209.62
-209.612
-209.605
-209.598
-209.592
-209.585
-209.579
-209.572
-209.566
-209.56
-209.555
-209.549
-209.544
-209.539
-209.534
-209.529
-209.524
-209.52
-209.516
-209.512
-209.508
-209.504
-209.501
-209.497
-209.494
-209.491
-209.488
-209.486
-209.483
-209.481
-209.479
-209.477
-209.475
-209.473
-209.472
-209.47
-209.469
-209.468
-209.467
-209.466
-209.465
-209.465
-209.464
-209.464
-209.463
-209.463
-209.463
-209.463
-209.463
-209.463
-209.463
-209.463
-209.463
-209.463
-209.464
-209.464
-209.464
-209.465
-209.465
-209.465
-209.466
-209.466
-209.467
-209.467
-209.467
-209.468
-209.468
-209.469
-209.469
-209.47
-209.47
-209.47
-209.471
-209.471
-209.466
-209.414
-209.176
-209.448
-220.079
-197.678
815.43
-248.569
-7.69535
3.03877
-1.77123
-2.59271
-2.5458
-2.49126
-2.46739
-2.45155
-2.43694
-2.42255
-2.40833
-2.39429
-2.38044
-2.36679
-2.35337
-2.34018
-2.32724
-2.31457
-2.30216
-2.29002
-2.27816
-2.26658
-2.25528
-2.24426
-2.23353
-2.22309
-2.21295
-2.2031
-2.19355
-2.1843
-2.17535
-2.16672
-2.15839
-2.15037
-2.14266
-2.13527
-2.12819
-2.12141
-2.11495
-2.10879
-2.10294
-2.09739
-2.09214
-2.08718
-2.08251
-2.07813
-2.07403
-2.07019
-2.06663
-2.06333
-2.06028
-2.05747
-2.05491
-2.05258
-2.05047
-2.04858
-2.04689
-2.0454
-2.04411
-2.04299
-2.04205
-2.04127
-2.04065
-2.04017
-2.03983
-2.03962
-2.03953
-2.03955
-2.03967
-2.03988
-2.04018
-2.04056
-2.041
-2.04151
-2.04206
-2.04266
-2.0433
-2.04397
-2.04466
-2.04536
-2.04608
-2.04679
-2.04751
-2.04821
-2.0489
-2.04956
-2.05021
-2.05082
-2.0514
-2.05202
-2.05297
-2.05516
-2.05746
-2.02828
-1.80572
-1.52521
-7.13837
2.44641
825.785
-236.061
1.93156
11.1561
6.03007
5.19196
5.25307
5.31723
5.34784
5.36964
5.39002
5.41008
5.4299
5.44947
5.46876
5.48777
5.50647
5.52485
5.54288
5.56056
5.57788
5.59483
5.6114
5.62759
5.64338
5.65879
5.67379
5.68839
5.70258
5.71636
5.72972
5.74265
5.75516
5.76724
5.77888
5.79009
5.80087
5.81121
5.82111
5.83058
5.83961
5.84822
5.8564
5.86415
5.87149
5.87842
5.88494
5.89107
5.89681
5.90216
5.90714
5.91175
5.91602
5.91993
5.92351
5.92677
5.92971
5.93236
5.93471
5.93679
5.93859
5.94015
5.94146
5.94255
5.94342
5.94408
5.94455
5.94484
5.94497
5.94494
5.94476
5.94446
5.94404
5.94351
5.94289
5.94218
5.9414
5.94056
5.93966
5.93873
5.93776
5.93677
5.93577
5.93476
5.93376
5.93276
5.93179
5.93085
5.92993
5.92906
5.92824
5.92744
5.92633
5.92331
5.91443
5.90826
6.02397
6.53442
5.66716
7.68207
825.28
-239.187
-2.23607
6.6762
1.51521
0.690069
0.76235
0.833962
0.870714
0.898312
0.9244
0.950112
0.975523
1.00062
1.02537
1.04977
1.07378
1.09737
1.12054
1.14326
1.16552
1.1873
1.2086
1.22941
1.24972
1.26952
1.28881
1.30757
1.32581
1.34351
1.36068
1.3773
1.39337
1.40888
1.42384
1.43824
1.45208
1.46535
1.47807
1.49022
1.50182
1.51287
1.52337
1.53333
1.54275
1.55164
1.56002
1.56788
1.57524
1.58211
1.5885
1.59442
1.59989
1.60491
1.6095
1.61368
1.61746
1.62085
1.62386
1.62652
1.62884
1.63083
1.63252
1.6339
1.63501
1.63586
1.63646
1.63683
1.63698
1.63694
1.63671
1.63632
1.63577
1.63509
1.63428
1.63337
1.63237
1.63128
1.63013
1.62892
1.62768
1.6264
1.62511
1.62381
1.62252
1.62125
1.62
1.61878
1.6176
1.61648
1.61543
1.61448
1.61356
1.61165
1.60414
1.58291
1.57747
1.74976
1.85333
2.24573
825.217
-239.773
-2.95107
5.94372
0.795384
-0.0179253
0.0624227
0.140417
0.183052
0.216395
0.248166
0.279509
0.310492
0.341094
0.371291
0.401053
0.430348
0.459146
0.487422
0.515155
0.542328
0.568924
0.594933
0.620342
0.645141
0.669321
0.692872
0.715785
0.738053
0.759668
0.780622
0.800909
0.820524
0.83946
0.857716
0.875287
0.892172
0.908372
0.923887
0.938719
0.952871
0.966349
0.979158
0.991305
1.0028
1.01364
1.02386
1.03345
1.04242
1.0508
1.05859
1.06581
1.07248
1.0786
1.0842
1.08929
1.09389
1.09802
1.1017
1.10493
1.10776
1.11018
1.11222
1.11391
1.11526
1.11628
1.11701
1.11745
1.11763
1.11757
1.11729
1.1168
1.11613
1.11529
1.1143
1.11318
1.11195
1.11062
1.10921
1.10773
1.1062
1.10464
1.10306
1.10148
1.0999
1.09834
1.09681
1.09532
1.09388
1.09251
1.09121
1.09004
1.0891
1.08825
1.08548
1.07355
1.04892
1.05634
1.11845
1.24772
825.283
-239.743
-2.90915
5.999
0.861618
0.0563423
0.143178
0.227111
0.275519
0.314569
0.351996
0.388942
0.425469
0.461553
0.497162
0.53226
0.56681
0.600778
0.634135
0.666853
0.698913
0.730296
0.760986
0.79097
0.820235
0.848768
0.876559
0.903597
0.929872
0.955376
0.980098
1.00403
1.02717
1.04951
1.07104
1.09177
1.11169
1.13079
1.14909
1.16658
1.18327
1.19916
1.21427
1.22859
1.24214
1.25492
1.26696
1.27827
1.28885
1.29872
1.3079
1.31641
1.32426
1.33148
1.33807
1.34407
1.34949
1.35435
1.35867
1.36248
1.3658
1.36865
1.37105
1.37303
1.37461
1.37581
1.37665
1.37717
1.37737
1.37729
1.37695
1.37636
1.37556
1.37456
1.37339
1.37206
1.37059
1.36902
1.36734
1.36559
1.36379
1.36194
1.36007
1.35819
1.35632
1.35448
1.35267
1.3509
1.3492
1.34758
1.34603
1.34459
1.34337
1.34254
1.34185
1.33839
1.32595
1.30636
1.30253
1.38501
825.314
-239.705
-2.85995
6.05754
0.927541
0.128634
0.221408
0.311124
0.36525
0.40997
0.453021
0.495537
0.537577
0.579109
0.620096
0.660498
0.700271
0.739377
0.777781
0.815454
0.85237
0.888509
0.923852
0.958382
0.992084
1.02494
1.05695
1.08808
1.11834
1.14771
1.17618
1.20373
1.23037
1.25609
1.28088
1.30474
1.32767
1.34966
1.37072
1.39085
1.41006
1.42834
1.44572
1.4622
1.47779
1.49251
1.50636
1.51936
1.53153
1.54289
1.55345
1.56323
1.57226
1.58055
1.58813
1.59502
1.60125
1.60683
1.61179
1.61617
1.61997
1.62324
1.62599
1.62826
1.63006
1.63143
1.63239
1.63296
1.63319
1.63308
1.63267
1.63199
1.63105
1.62989
1.62853
1.62699
1.62529
1.62346
1.62153
1.6195
1.61741
1.61528
1.61312
1.61095
1.60879
1.60665
1.60456
1.60253
1.60056
1.59868
1.59689
1.59521
1.59366
1.59243
1.59172
1.59105
1.58727
1.57231
1.54341
1.62457
825.324
-239.69
-2.8373
6.08689
0.963021
0.169996
0.268545
0.363981
0.423783
0.474138
0.522774
0.570824
0.618339
0.665282
0.711611
0.757278
0.802238
0.846444
0.88986
0.932452
0.97419
1.01505
1.05501
1.09406
1.13217
1.16932
1.20551
1.24071
1.27492
1.30812
1.34031
1.37146
1.40158
1.43065
1.45867
1.48563
1.51155
1.5364
1.5602
1.58295
1.60465
1.62532
1.64495
1.66357
1.68118
1.6978
1.71345
1.72813
1.74188
1.7547
1.76662
1.77767
1.78785
1.79721
1.80577
1.81354
1.82056
1.82685
1.83245
1.83737
1.84166
1.84534
1.84843
1.85097
1.85299
1.85452
1.85559
1.85622
1.85646
1.85632
1.85585
1.85506
1.85398
1.85265
1.8511
1.84934
1.84741
1.84533
1.84313
1.84083
1.83845
1.83603
1.83357
1.83111
1.82866
1.82623
1.82386
1.82155
1.81933
1.8172
1.81517
1.81326
1.81147
1.80987
1.80869
1.80828
1.80787
1.79827
1.75261
1.85036
825.329
-239.68
-2.82162
6.10856
0.990493
0.203218
0.307479
0.408589
0.474028
0.529976
0.584158
0.6377
0.690649
0.742961
0.794588
0.84548
0.895583
0.94485
0.993237
1.04071
1.08723
1.13277
1.17732
1.22084
1.26332
1.30473
1.34507
1.38431
1.42244
1.45944
1.49531
1.53003
1.56359
1.59598
1.62721
1.65725
1.68612
1.71381
1.74033
1.76567
1.78984
1.81286
1.83473
1.85547
1.87508
1.89359
1.911
1.92735
1.94265
1.95692
1.97019
1.98248
1.99382
2.00422
2.01374
2.02238
2.03018
2.03717
2.04339
2.04886
2.05361
2.05768
2.06111
2.06392
2.06615
2.06783
2.069
2.06969
2.06993
2.06976
2.06921
2.06831
2.06709
2.06559
2.06383
2.06186
2.05969
2.05735
2.05488
2.0523
2.04964
2.04692
2.04417
2.04142
2.03867
2.03596
2.0333
2.03072
2.02823
2.02585
2.02359
2.02146
2.01946
2.01762
2.01606
2.01537
2.01626
2.01031
1.94697
2.06796
825.333
-239.671
-2.80699
6.12898
1.01663
0.235049
0.344974
0.451714
0.522745
0.584241
0.643923
0.702911
0.761246
0.818881
0.875761
0.93183
0.987032
1.04131
1.09463
1.14693
1.19819
1.24838
1.29747
1.34542
1.39223
1.43787
1.48231
1.52555
1.56756
1.60833
1.64785
1.6861
1.72307
1.75876
1.79315
1.82625
1.85805
1.88854
1.91774
1.94565
1.97227
1.99761
2.02169
2.04452
2.06611
2.08648
2.10565
2.12364
2.14047
2.15617
2.17077
2.18429
2.19675
2.20819
2.21865
2.22814
2.23671
2.24439
2.25121
2.25721
2.26242
2.26688
2.27063
2.2737
2.27613
2.27796
2.27922
2.27995
2.28019
2.27998
2.27934
2.27833
2.27696
2.27529
2.27333
2.27113
2.26872
2.26612
2.26338
2.26052
2.25757
2.25456
2.25151
2.24846
2.24542
2.24241
2.23947
2.23662
2.23386
2.23123
2.22873
2.22638
2.22419
2.22214
2.22032
2.21933
2.2209
2.21798
2.13717
2.28172
825.336
-239.663
-2.79257
6.14911
1.04243
0.266487
0.382026
0.494348
0.57092
0.637915
0.703046
0.767429
0.8311
0.894005
0.956086
1.01728
1.07753
1.13678
1.19497
1.25206
1.30802
1.3628
1.41638
1.46873
1.51982
1.56963
1.61815
1.66534
1.7112
1.7557
1.79883
1.84057
1.88092
1.91986
1.95739
1.9935
2.02819
2.06146
2.09332
2.12376
2.15279
2.18044
2.2067
2.23159
2.25513
2.27734
2.29823
2.31784
2.33619
2.3533
2.3692
2.38393
2.3975
2.40996
2.42134
2.43167
2.441
2.44935
2.45676
2.46327
2.46893
2.47377
2.47782
2.48114
2.48376
2.48573
2.48707
2.48784
2.48807
2.4878
2.48708
2.48594
2.48442
2.48257
2.4804
2.47797
2.47531
2.47246
2.46944
2.4663
2.46305
2.45975
2.4564
2.45305
2.44971
2.44642
2.44319
2.44006
2.43704
2.43415
2.43141
2.42884
2.42644
2.42421
2.42217
2.42093
2.4229
2.42266
2.32661
2.49197
825.339
-239.654
-2.7783
6.16901
1.06794
0.297589
0.41869
0.536538
0.618597
0.691035
0.76156
0.831282
0.900232
0.968352
1.03558
1.10185
1.16709
1.23125
1.29426
1.35609
1.41668
1.47601
1.53404
1.59073
1.64606
1.70001
1.75255
1.80365
1.85331
1.90149
1.94819
1.99339
2.03707
2.07923
2.11985
2.15894
2.19649
2.2325
2.26698
2.29992
2.33134
2.36125
2.38966
2.41659
2.44205
2.46607
2.48867
2.50988
2.52971
2.54821
2.56539
2.5813
2.59597
2.60943
2.62171
2.63286
2.64292
2.65192
2.65991
2.66693
2.67302
2.67822
2.68257
2.68613
2.68893
2.69102
2.69244
2.69323
2.69344
2.69312
2.6923
2.69103
2.68935
2.68731
2.68493
2.68227
2.67936
2.67624
2.67294
2.66951
2.66597
2.66237
2.65872
2.65506
2.65143
2.64785
2.64434
2.64093
2.63764
2.6345
2.63152
2.62872
2.62612
2.6237
2.62146
2.61998
2.62216
2.62412
2.51608
2.69828
825.342
-239.645
-2.7642
6.18868
1.09316
0.328337
0.454939
0.578253
0.66574
0.74356
0.819418
0.894418
0.968587
1.04186
1.11417
1.18545
1.25563
1.32464
1.39243
1.45893
1.52411
1.58793
1.65035
1.71133
1.77085
1.82888
1.88539
1.94036
1.99377
2.04559
2.09581
2.14442
2.19139
2.23673
2.28041
2.32244
2.36281
2.40152
2.43858
2.47399
2.50776
2.5399
2.57043
2.59936
2.62672
2.65252
2.6768
2.69957
2.72087
2.74072
2.75917
2.77624
2.79197
2.80641
2.81958
2.83153
2.84231
2.85195
2.8605
2.868
2.8745
2.88005
2.88469
2.88847
2.89144
2.89364
2.89512
2.89593
2.89612
2.89573
2.89481
2.8934
2.89156
2.88932
2.88673
2.88383
2.88066
2.87727
2.87369
2.86996
2.86613
2.86222
2.85827
2.85431
2.85038
2.8465
2.8427
2.83902
2.83546
2.83207
2.82885
2.82583
2.82302
2.82041
2.81799
2.81627
2.81851
2.8221
2.70554
2.90038
825.345
-239.637
-2.75028
6.20809
1.11806
0.358705
0.490743
0.61946
0.712308
0.795445
0.876571
0.956784
1.03611
1.11447
1.19181
1.26803
1.34308
1.41689
1.48938
1.5605
1.63021
1.69846
1.76521
1.83043
1.89408
1.95614
2.01657
2.07536
2.13247
2.18788
2.24158
2.29355
2.34377
2.39223
2.43892
2.48385
2.527
2.56837
2.60797
2.64581
2.68189
2.71623
2.74885
2.77975
2.80897
2.83652
2.86244
2.88675
2.90948
2.93067
2.95035
2.96856
2.98534
3.00073
3.01477
3.0275
3.03897
3.04923
3.05832
3.0663
3.0732
3.07908
3.08399
3.08799
3.09111
3.09341
3.09495
3.09576
3.09591
3.09545
3.09442
3.09287
3.09085
3.0884
3.08559
3.08245
3.07902
3.07535
3.07149
3.06746
3.06333
3.05911
3.05486
3.05059
3.04636
3.04219
3.0381
3.03414
3.03032
3.02667
3.02321
3.01996
3.01695
3.01415
3.01154
3.00962
3.01179
3.01643
2.89462
3.0981
825.348
-239.629
-2.73655
6.22723
1.14262
0.388666
0.52607
0.660118
0.758258
0.846642
0.932965
1.01832
1.10273
1.18611
1.2684
1.34951
1.42937
1.50789
1.58503
1.66071
1.73488
1.8075
1.87853
1.94793
2.01566
2.08168
2.14598
2.20852
2.26928
2.32823
2.38535
2.44063
2.49405
2.5456
2.59526
2.64303
2.68892
2.73291
2.77501
2.81524
2.85359
2.89009
2.92475
2.9576
2.98864
3.01791
3.04544
3.07126
3.0954
3.11789
3.13878
3.1581
3.1759
3.19222
3.2071
3.22059
3.23274
3.2436
3.25321
3.26164
3.26892
3.27512
3.28029
3.28448
3.28774
3.29014
3.29171
3.29253
3.29263
3.29208
3.29093
3.28922
3.28702
3.28437
3.28133
3.27793
3.27424
3.27029
3.26614
3.26182
3.25737
3.25285
3.24829
3.24372
3.23918
3.23471
3.23034
3.22609
3.222
3.2181
3.2144
3.21093
3.20771
3.20472
3.20195
3.19983
3.20183
3.207
3.08282
3.2914
825.35
-239.621
-2.72303
6.24609
1.16683
0.41819
0.560885
0.700188
0.803545
0.897101
0.988547
1.07897
1.16839
1.25673
1.3439
1.42982
1.51441
1.59759
1.6793
1.75946
1.83804
1.91497
1.99021
2.06372
2.13546
2.2054
2.2735
2.33974
2.40409
2.46652
2.52702
2.58556
2.64212
2.6967
2.74928
2.79985
2.84842
2.89499
2.93955
2.98212
3.02271
3.06133
3.098
3.13274
3.16557
3.19653
3.22564
3.25293
3.27844
3.30221
3.32428
3.34469
3.36348
3.3807
3.3964
3.41063
3.42343
3.43487
3.44499
3.45385
3.4615
3.468
3.47341
3.47778
3.48117
3.48364
3.48524
3.48604
3.48609
3.48544
3.48416
3.48229
3.4799
3.47704
3.47376
3.47011
3.46614
3.46191
3.45746
3.45283
3.44808
3.44325
3.43837
3.43349
3.42865
3.42388
3.41922
3.41469
3.41034
3.40618
3.40224
3.39855
3.39512
3.39195
3.389
3.38671
3.38847
3.39375
3.26963
3.48023
825.353
-239.613
-2.70972
6.26464
1.19064
0.447249
0.595154
0.739634
0.848128
0.946777
1.04327
1.13869
1.23304
1.32625
1.41822
1.50888
1.59813
1.6859
1.77211
1.85669
1.93959
2.02076
2.10015
2.1777
2.25339
2.32718
2.39903
2.46891
2.53679
2.60265
2.66646
2.7282
2.78785
2.84541
2.90085
2.95418
3.00539
3.05448
3.10146
3.14633
3.18911
3.2298
3.26844
3.30504
3.33963
3.37223
3.40288
3.43161
3.45847
3.48348
3.5067
3.52816
3.54792
3.56602
3.58251
3.59745
3.61089
3.62288
3.63348
3.64276
3.65075
3.65754
3.66317
3.66771
3.67121
3.67374
3.67536
3.67613
3.67611
3.67536
3.67394
3.6719
3.66931
3.66623
3.6627
3.65879
3.65454
3.65002
3.64527
3.64033
3.63527
3.63012
3.62493
3.61974
3.61459
3.60952
3.60457
3.59976
3.59513
3.59072
3.58654
3.58263
3.57899
3.57564
3.57253
3.57006
3.57154
3.5766
3.45452
3.66459
825.356
-239.605
-2.69666
6.28287
1.21406
0.475819
0.628851
0.778423
0.89197
0.99563
1.09708
1.19741
1.29662
1.39462
1.49132
1.58663
1.68047
1.77274
1.86338
1.95231
2.03947
2.1248
2.20826
2.2898
2.36937
2.44694
2.52247
2.59593
2.66728
2.7365
2.80356
2.86844
2.93113
2.99161
3.04987
3.1059
3.15969
3.21126
3.2606
3.30773
3.35264
3.39537
3.43594
3.47435
3.51065
3.54487
3.57702
3.60716
3.63532
3.66155
3.68588
3.70837
3.72907
3.74802
3.76528
3.7809
3.79495
3.80747
3.81854
3.8282
3.83653
3.84358
3.84942
3.85411
3.85771
3.86029
3.86191
3.86264
3.86254
3.86167
3.86009
3.85788
3.85508
3.85177
3.84799
3.84381
3.83928
3.83446
3.8294
3.82416
3.81878
3.81331
3.8078
3.80229
3.79684
3.79146
3.78621
3.78113
3.77623
3.77156
3.76714
3.76301
3.75917
3.75563
3.75236
3.74973
3.75089
3.75547
3.63698
3.84448
825.358
-239.597
-2.68383
6.30077
1.23705
0.50388
0.66195
0.816526
0.93504
1.04362
1.14995
1.25511
1.35908
1.46179
1.56314
1.66303
1.76137
1.85807
1.95306
2.04625
2.1376
2.22702
2.31448
2.39993
2.48331
2.56459
2.64373
2.7207
2.79545
2.86797
2.93823
3.00619
3.07186
3.1352
3.19621
3.25489
3.31122
3.36521
3.41686
3.46619
3.51321
3.55792
3.60037
3.64056
3.67853
3.71431
3.74793
3.77944
3.80888
3.83628
3.8617
3.88518
3.90678
3.92655
3.94455
3.96084
3.97547
3.98851
4.00001
4.01005
4.01868
4.02598
4.032
4.03682
4.04051
4.04312
4.04473
4.0454
4.04521
4.04421
4.04248
4.04008
4.03706
4.03351
4.02947
4.02501
4.0202
4.01507
4.0097
4.00414
3.99844
3.99265
3.98682
3.981
3.97523
3.96955
3.96401
3.95864
3.95347
3.94854
3.94389
3.93953
3.93548
3.93176
3.92833
3.92555
3.92636
3.93029
3.81656
4.01989
825.361
-239.59
-2.67125
6.31833
1.25961
0.531414
0.694431
0.85392
0.97731
1.09073
1.20185
1.31174
1.42039
1.52772
1.63363
1.73801
1.84077
1.94182
2.04108
2.13846
2.23391
2.32735
2.41874
2.50801
2.59514
2.68006
2.76274
2.84314
2.92123
2.99699
3.07037
3.14136
3.20993
3.27608
3.33979
3.40105
3.45986
3.51622
3.57013
3.62162
3.67068
3.71733
3.76161
3.80354
3.84313
3.88044
3.91549
3.94833
3.979
4.00755
4.03401
4.05846
4.08094
4.1015
4.12021
4.13713
4.15232
4.16584
4.17776
4.18815
4.19707
4.20459
4.21079
4.21572
4.21947
4.2221
4.22369
4.22429
4.22399
4.22286
4.22095
4.21835
4.21511
4.21131
4.20701
4.20226
4.19715
4.19172
4.18603
4.18015
4.17412
4.16801
4.16185
4.15571
4.14962
4.14364
4.1378
4.13214
4.12671
4.12152
4.11663
4.11204
4.1078
4.10389
4.10031
4.09737
4.09781
4.10098
3.99281
4.19082
825.363
-239.582
-2.65893
6.33554
1.28172
0.558409
0.726276
0.890585
1.01876
1.13692
1.25273
1.36726
1.48051
1.59238
1.70275
1.81154
1.91864
2.02395
2.12739
2.22888
2.32834
2.42572
2.52096
2.61399
2.70477
2.79326
2.87941
2.96318
3.04454
3.12346
3.1999
3.27384
3.34527
3.41416
3.4805
3.54429
3.60552
3.66419
3.72032
3.7739
3.82495
3.8735
3.91957
3.96317
4.00436
4.04315
4.07959
4.11372
4.14558
4.17523
4.20272
4.22809
4.25141
4.27274
4.29213
4.30965
4.32537
4.33935
4.35167
4.36238
4.37157
4.3793
4.38564
4.39068
4.39447
4.39711
4.39865
4.39917
4.39876
4.39747
4.39538
4.39257
4.3891
4.38504
4.38046
4.37542
4.37
4.36426
4.35825
4.35204
4.34569
4.33924
4.33276
4.32629
4.31989
4.3136
4.30746
4.30152
4.29581
4.29037
4.28523
4.28042
4.27597
4.27189
4.26815
4.26506
4.26513
4.26746
4.16536
4.35725
825.366
-239.575
-2.64687
6.3524
1.30338
0.584849
0.75747
0.9265
1.05936
1.18216
1.30258
1.42166
1.53941
1.65572
1.77047
1.88357
1.99492
2.1044
2.21194
2.31745
2.42085
2.52208
2.62108
2.71779
2.81216
2.90414
2.99368
3.08074
3.1653
3.24731
3.32674
3.40357
3.47778
3.54935
3.61826
3.68452
3.74811
3.80904
3.86731
3.92294
3.97594
4.02633
4.07413
4.11938
4.1621
4.20233
4.24011
4.27549
4.30851
4.33923
4.36769
4.39396
4.41809
4.44015
4.46019
4.47829
4.49451
4.50893
4.52161
4.53263
4.54206
4.54997
4.55645
4.56156
4.56539
4.56801
4.56949
4.56992
4.56938
4.56792
4.56564
4.56261
4.55889
4.55457
4.5497
4.54437
4.53864
4.53258
4.52624
4.5197
4.51301
4.50623
4.49942
4.49262
4.4859
4.4793
4.47286
4.46663
4.46065
4.45495
4.44957
4.44454
4.43989
4.43562
4.43173
4.4285
4.42818
4.42965
4.33387
4.51917
825.368
-239.568
-2.63507
6.36889
1.32458
0.610726
0.787999
0.961652
1.0991
1.22645
1.35136
1.47491
1.59706
1.71771
1.83675
1.95407
2.06957
2.18314
2.29469
2.40413
2.51138
2.61638
2.71907
2.81937
2.91724
3.01262
3.10548
3.19577
3.28344
3.36847
3.45082
3.53047
3.60739
3.68157
3.753
3.82166
3.88755
3.95068
4.01104
4.06866
4.12355
4.17572
4.22521
4.27205
4.31626
4.35788
4.39697
4.43355
4.46769
4.49944
4.52884
4.55597
4.58087
4.60363
4.62429
4.64294
4.65964
4.67446
4.68749
4.69878
4.70843
4.71651
4.7231
4.72827
4.73211
4.7347
4.73611
4.73643
4.73574
4.73411
4.73162
4.72836
4.72439
4.71979
4.71463
4.709
4.70295
4.69656
4.68989
4.68301
4.67598
4.66886
4.66171
4.65459
4.64755
4.64063
4.63389
4.62737
4.62112
4.61516
4.60954
4.60429
4.59943
4.59498
4.59094
4.58756
4.58688
4.58747
4.49806
4.67654
825.371
-239.561
-2.62354
6.38501
1.3453
0.636027
0.817851
0.996023
1.13795
1.26975
1.39907
1.52697
1.65342
1.77832
1.90156
2.02301
2.14257
2.26013
2.37559
2.48887
2.59989
2.70857
2.81485
2.91866
3.01995
3.11867
3.21476
3.30818
3.3989
3.48687
3.57207
3.65447
3.73404
3.81076
3.88463
3.95563
4.02376
4.08902
4.15142
4.21097
4.26769
4.3216
4.37273
4.4211
4.46675
4.50972
4.55006
4.58781
4.62303
4.65576
4.68607
4.71402
4.73967
4.76308
4.78434
4.8035
4.82065
4.83585
4.84919
4.86075
4.87059
4.87881
4.88549
4.8907
4.89454
4.89708
4.8984
4.8986
4.89775
4.89593
4.89322
4.88971
4.88548
4.88059
4.87514
4.86919
4.86282
4.85609
4.84908
4.84186
4.83449
4.82703
4.81955
4.81209
4.80472
4.79749
4.79045
4.78364
4.7771
4.77089
4.76503
4.75955
4.75449
4.74987
4.74567
4.74215
4.74111
4.74085
4.65767
4.82934
825.373
-239.555
-2.61228
6.40077
1.36555
0.660745
0.847013
1.0296
1.17591
1.31205
1.44567
1.57783
1.70848
1.83753
1.96486
2.09034
2.21387
2.33532
2.45461
2.57164
2.68633
2.79861
2.90839
3.01563
3.12025
3.22221
3.32146
3.41794
3.51162
3.60247
3.69044
3.7755
3.85765
3.93685
4.01309
4.08636
4.15666
4.224
4.28837
4.3498
4.4083
4.46389
4.51659
4.56645
4.61349
4.65777
4.69932
4.73819
4.77444
4.80812
4.83929
4.86803
4.89438
4.91843
4.94024
4.95989
4.97745
4.99301
5.00664
5.01842
5.02844
5.03678
5.04353
5.04876
5.05258
5.05505
5.05627
5.05633
5.0553
5.05328
5.05034
5.04658
5.04207
5.03689
5.03113
5.02486
5.01815
5.01109
5.00373
4.99617
4.98845
4.98064
4.97281
4.96502
4.95733
4.94978
4.94243
4.93533
4.92852
4.92204
4.91594
4.91024
4.90498
4.90017
4.89583
4.89216
4.89078
4.88971
4.81252
4.97753
825.375
-239.548
-2.60128
6.41614
1.38531
0.684869
0.875475
1.06237
1.21296
1.35334
1.49116
1.62746
1.76222
1.89532
2.02663
2.15605
2.28344
2.4087
2.53171
2.6524
2.77067
2.88644
2.99965
3.11022
3.21809
3.32321
3.42553
3.52499
3.62156
3.71519
3.80585
3.89352
3.97816
4.05977
4.13831
4.21379
4.2862
4.35555
4.42184
4.48508
4.54529
4.6025
4.65674
4.70803
4.75642
4.80194
4.84466
4.8846
4.92184
4.95643
4.98843
5.01791
5.04493
5.06958
5.09191
5.11202
5.12997
5.14585
5.15974
5.17173
5.1819
5.19034
5.19713
5.20237
5.20614
5.20853
5.20963
5.20953
5.20831
5.20608
5.2029
5.19887
5.19408
5.1886
5.18251
5.17591
5.16887
5.16146
5.15375
5.14583
5.13776
5.1296
5.12143
5.1133
5.10528
5.09741
5.08975
5.08236
5.07527
5.06853
5.06219
5.05627
5.0508
5.04582
5.04132
5.03752
5.03581
5.03397
4.96243
5.12105
825.377
-239.542
-2.59056
6.43114
1.40457
0.70839
0.903226
1.09432
1.24908
1.39359
1.5355
1.67585
1.8146
1.95165
2.08685
2.2201
2.35126
2.48021
2.60687
2.73111
2.85287
2.97205
3.08858
3.20239
3.31342
3.42162
3.52692
3.62928
3.72865
3.82499
3.91827
4.00846
4.09553
4.17946
4.26024
4.33786
4.41232
4.48361
4.55174
4.61674
4.67861
4.73739
4.7931
4.84577
4.89545
4.94218
4.98601
5.02698
5.06517
5.10062
5.13341
5.16359
5.19125
5.21646
5.23928
5.25981
5.27812
5.2943
5.30842
5.32059
5.33089
5.3394
5.34622
5.35144
5.35514
5.35743
5.3584
5.35813
5.35671
5.35424
5.35081
5.34651
5.34141
5.33562
5.32922
5.32228
5.31488
5.30712
5.29906
5.29078
5.28235
5.27384
5.26532
5.25685
5.24849
5.2403
5.23234
5.22465
5.21728
5.21029
5.2037
5.19755
5.19189
5.18672
5.18207
5.17814
5.17611
5.17358
5.10728
5.25986
825.379
-239.535
-2.58012
6.44574
1.42334
0.731302
0.930256
1.12544
1.28426
1.43279
1.57868
1.72297
1.86562
2.0065
2.1455
2.28247
2.41729
2.54985
2.68003
2.80774
2.93289
3.05538
3.17514
3.29211
3.40621
3.51739
3.62559
3.73076
3.83285
3.93183
4.02764
4.12028
4.2097
4.29589
4.37883
4.45852
4.53495
4.60812
4.67804
4.74473
4.8082
4.86849
4.92561
4.97961
5.03053
5.07841
5.12331
5.16527
5.20436
5.24063
5.27416
5.30502
5.33327
5.359
5.38228
5.4032
5.42184
5.43828
5.45262
5.46494
5.47534
5.4839
5.49072
5.4959
5.49953
5.5017
5.50251
5.50205
5.50042
5.49771
5.49401
5.48942
5.48402
5.4779
5.47116
5.46388
5.45613
5.44801
5.43959
5.43094
5.42215
5.41329
5.40441
5.3956
5.3869
5.37839
5.37012
5.36213
5.35449
5.34723
5.34039
5.33403
5.32816
5.32282
5.31802
5.31395
5.31163
5.30846
5.24698
5.39391
825.381
-239.529
-2.56996
6.45996
1.44161
0.753596
0.956556
1.15572
1.31848
1.47093
1.62069
1.76881
1.91525
2.05987
2.20254
2.34313
2.48152
2.61758
2.75119
2.88227
3.0107
3.13641
3.25931
3.37934
3.49642
3.6105
3.72151
3.8294
3.93413
4.03565
4.13393
4.22893
4.32062
4.409
4.49403
4.57571
4.65405
4.72903
4.80068
4.869
4.93401
4.99574
5.05423
5.1095
5.16161
5.21059
5.2565
5.2994
5.33935
5.3764
5.41063
5.44212
5.47093
5.49715
5.52085
5.54213
5.56106
5.57774
5.59226
5.60471
5.61518
5.62377
5.63058
5.6357
5.63923
5.64126
5.6419
5.64124
5.63938
5.63641
5.63243
5.62754
5.62182
5.61538
5.60829
5.60065
5.59255
5.58406
5.57527
5.56626
5.5571
5.54787
5.53864
5.52948
5.52045
5.51161
5.50302
5.49474
5.48682
5.47929
5.47222
5.46563
5.45956
5.45404
5.44909
5.44489
5.4423
5.43855
5.38147
5.52314
825.383
-239.523
-2.56008
6.47378
1.45936
0.775264
0.982117
1.18515
1.35175
1.50799
1.66152
1.81336
1.96347
2.11171
2.25796
2.40207
2.54392
2.68337
2.82032
2.95466
3.08628
3.21511
3.34106
3.46405
3.58402
3.7009
3.81464
3.92517
4.03245
4.13643
4.23708
4.33437
4.42826
4.51874
4.60579
4.68941
4.76958
4.84631
4.91961
4.98949
5.05598
5.11911
5.1789
5.23539
5.28863
5.33866
5.38554
5.42933
5.47009
5.50788
5.54277
5.57485
5.60418
5.63085
5.65495
5.67655
5.69575
5.71264
5.72731
5.73986
5.75038
5.75898
5.76574
5.77078
5.77419
5.77607
5.77652
5.77564
5.77353
5.77029
5.76602
5.76082
5.75478
5.74799
5.74055
5.73255
5.72408
5.71522
5.70605
5.69667
5.68714
5.67755
5.66796
5.65845
5.64908
5.63991
5.63101
5.62243
5.61422
5.60644
5.59912
5.59231
5.58604
5.58034
5.57524
5.5709
5.56807
5.56381
5.5107
5.6475
825.385
-239.518
-2.55049
6.48719
1.4766
0.7963
1.00693
1.21372
1.38403
1.54397
1.70115
1.8566
2.01027
2.16204
2.31175
2.45927
2.60447
2.74721
2.88739
3.02489
3.15961
3.29146
3.42035
3.54622
3.66898
3.78858
3.90494
4.01802
4.12777
4.23413
4.33708
4.43657
4.53259
4.6251
4.71409
4.79956
4.88149
4.9599
5.03479
5.10618
5.17409
5.23854
5.29958
5.35723
5.41155
5.46258
5.51039
5.55502
5.59654
5.63502
5.67054
5.70316
5.73298
5.76007
5.78451
5.80641
5.82584
5.84291
5.8577
5.87033
5.88088
5.88945
5.89616
5.9011
5.90436
5.90607
5.90632
5.9052
5.90284
5.89932
5.89474
5.88922
5.88284
5.8757
5.8679
5.85953
5.85068
5.84144
5.83189
5.82213
5.81223
5.80227
5.79232
5.78245
5.77274
5.76324
5.75403
5.74515
5.73666
5.72862
5.72105
5.71402
5.70755
5.70167
5.69642
5.69196
5.68889
5.68419
5.63464
5.76697
825.387
-239.512
-2.54119
6.5002
1.49331
0.816699
1.03099
1.24141
1.41534
1.57885
1.73957
1.89852
2.05565
2.21081
2.36388
2.51471
2.66315
2.80908
2.95239
3.09294
3.23065
3.36543
3.49717
3.62581
3.75128
3.87349
3.9924
4.10794
4.22006
4.32873
4.43388
4.5355
4.63356
4.72802
4.81889
4.90613
4.98977
5.06978
5.1462
5.21903
5.28829
5.35401
5.41624
5.475
5.53035
5.58233
5.631
5.67642
5.71867
5.7578
5.79389
5.82703
5.85729
5.88475
5.90952
5.93167
5.95131
5.96853
5.98342
5.99609
6.00664
6.01518
6.0218
6.02661
6.02972
6.03124
6.03126
6.0299
6.02726
6.02344
6.01855
6.01269
6.00596
5.99847
5.99029
5.98155
5.97231
5.96269
5.95276
5.94262
5.93233
5.922
5.91168
5.90146
5.89141
5.88158
5.87205
5.86287
5.8541
5.84579
5.83798
5.83073
5.82406
5.81801
5.81261
5.80801
5.80473
5.79964
5.75329
5.88149
825.389
-239.507
-2.53218
6.51281
1.5095
0.836456
1.0543
1.26824
1.44566
1.61263
1.77677
1.9391
2.09957
2.25804
2.41435
2.56837
2.71996
2.86897
3.01529
3.15881
3.29941
3.437
3.5715
3.70282
3.83089
3.95563
4.07699
4.19491
4.30932
4.42019
4.52748
4.63114
4.73116
4.8275
4.92016
5.00912
5.09437
5.17593
5.25381
5.32801
5.39856
5.4655
5.52885
5.58866
5.64498
5.69786
5.74735
5.79352
5.83644
5.87618
5.91281
5.94641
5.97708
6.00489
6.02994
6.05232
6.07213
6.08946
6.10442
6.11712
6.12764
6.13611
6.14263
6.1473
6.15023
6.15154
6.15133
6.1497
6.14677
6.14264
6.13743
6.13122
6.12413
6.11626
6.10771
6.09858
6.08896
6.07895
6.06863
6.05809
6.04743
6.03672
6.02603
6.01545
6.00505
5.99489
5.98504
5.97557
5.96651
5.95794
5.94989
5.94241
5.93555
5.92932
5.92377
5.91904
5.91556
5.91014
5.86664
5.99104
825.39
-239.501
-2.52346
6.525
1.52516
0.855565
1.07683
1.29418
1.47498
1.64529
1.81274
1.97835
2.14205
2.3037
2.46315
2.62026
2.77487
2.92686
3.0761
3.22247
3.36586
3.50617
3.64333
3.77723
3.9078
4.03498
4.1587
4.2789
4.39552
4.50852
4.61785
4.72348
4.82537
4.92352
5.01789
5.10849
5.1953
5.27833
5.35759
5.4331
5.50489
5.57297
5.6374
5.69821
5.75544
5.80916
5.85942
5.90629
5.94984
5.99014
6.02726
6.0613
6.09233
6.12045
6.14575
6.16832
6.18827
6.2057
6.2207
6.23339
6.24387
6.25225
6.25864
6.26314
6.26588
6.26696
6.26649
6.26459
6.26135
6.2569
6.25134
6.24478
6.23733
6.22908
6.22014
6.21062
6.2006
6.19019
6.17948
6.16855
6.1575
6.1464
6.13535
6.12441
6.11366
6.10317
6.093
6.08322
6.07388
6.06505
6.05676
6.04906
6.04199
6.03559
6.0299
6.02504
6.02137
6.01567
5.97473
6.09561
825.392
-239.496
-2.51504
6.53678
1.54029
0.874025
1.09861
1.31924
1.5033
1.67684
1.84749
2.01625
2.18307
2.34779
2.51027
2.67035
2.82789
2.98275
3.13479
3.28391
3.42999
3.57293
3.71263
3.84902
3.98201
4.11154
4.23752
4.35991
4.47865
4.59368
4.70497
4.81249
4.91619
5.01605
5.11207
5.20423
5.29252
5.37696
5.45754
5.5343
5.60725
5.67643
5.74187
5.80361
5.86171
5.91622
5.96721
6.01473
6.05886
6.09967
6.13725
6.17167
6.20303
6.23142
6.25694
6.27967
6.29973
6.31722
6.33223
6.34489
6.3553
6.36357
6.36981
6.37413
6.37665
6.37749
6.37675
6.37455
6.371
6.36621
6.3603
6.35337
6.34554
6.3369
6.32757
6.31764
6.30723
6.29641
6.2853
6.27397
6.26253
6.25105
6.23962
6.22832
6.21722
6.20639
6.19591
6.18583
6.17621
6.16711
6.15857
6.15066
6.14339
6.13682
6.13098
6.12599
6.12215
6.11621
6.07756
6.19516
825.394
-239.491
-2.50691
6.54815
1.55488
0.891833
1.11961
1.34341
1.53061
1.70727
1.881
2.05281
2.22263
2.39031
2.5557
2.71865
2.87901
3.03663
3.19138
3.34314
3.4918
3.63726
3.77942
3.9182
4.05351
4.18528
4.31344
4.43793
4.5587
4.67569
4.78886
4.89817
5.00359
5.10511
5.20269
5.29634
5.38604
5.47181
5.55366
5.63159
5.70565
5.77586
5.84225
5.90488
5.96379
6.01904
6.0707
6.11882
6.16349
6.20477
6.24276
6.27753
6.30919
6.33781