/*--------------------------------*- C++ -*----------------------------------*\
  =========                 |
  \\      /  F ield         | OpenFOAM: The Open Source CFD Toolbox
   \\    /   O peration     | Website:  https://openfoam.org
    \\  /    A nd           | Version:  10
     \\/     M anipulation  |
\*---------------------------------------------------------------------------*/
FoamFile
{
    format      ascii;
    class       volScalarField;
    location    "18.5";
    object      T;
}
// * * * * * * * * * * * * * * * * * * * * * * * * * * * * * * * * * * * * * //

dimensions      [0 0 0 1 0 0 0];

internalField   nonuniform List<scalar> 
10000
(
374.976
361.257
356.554
354.479
353.344
352.619
352.107
351.72
351.413
351.159
350.945
350.758
350.593
350.445
350.311
350.187
350.073
349.966
349.865
349.77
349.68
349.594
349.512
349.433
349.357
349.284
349.214
349.145
349.079
349.015
348.953
348.892
348.834
348.776
348.721
348.667
348.614
348.563
348.513
348.464
348.417
348.371
348.326
348.282
348.239
348.198
348.157
348.118
348.079
348.042
348.006
347.971
347.937
347.903
347.871
347.84
347.809
347.78
347.751
347.724
347.697
347.671
347.646
347.622
347.599
347.576
347.554
347.533
347.513
347.494
347.475
347.458
347.44
347.424
347.408
347.394
347.379
347.366
347.353
347.341
347.329
347.318
347.308
347.299
347.29
347.281
347.274
347.266
347.26
347.254
347.249
347.244
347.24
347.236
347.233
347.231
347.229
347.228
347.227
347.227
388.581
374.75
367.026
362.494
359.615
357.639
356.192
355.076
354.179
353.434
352.8
352.247
351.757
351.317
350.916
350.548
350.206
349.886
349.586
349.301
349.031
348.774
348.528
348.292
348.064
347.845
347.634
347.429
347.231
347.039
346.852
346.671
346.495
346.324
346.157
345.995
345.837
345.683
345.533
345.387
345.245
345.106
344.971
344.84
344.712
344.588
344.466
344.348
344.233
344.122
344.013
343.907
343.805
343.705
343.608
343.515
343.423
343.335
343.25
343.167
343.086
343.009
342.934
342.861
342.791
342.724
342.659
342.596
342.535
342.477
342.422
342.368
342.317
342.268
342.221
342.176
342.134
342.093
342.054
342.018
341.983
341.951
341.92
341.891
341.864
341.839
341.816
341.795
341.776
341.758
341.742
341.728
341.716
341.705
341.696
341.689
341.683
341.68
341.678
341.677
393.174
382.143
374.308
368.858
364.986
362.133
359.949
358.216
356.797
355.603
354.577
353.678
352.877
352.154
351.494
350.886
350.321
349.793
349.295
348.824
348.376
347.949
347.54
347.147
346.769
346.405
346.053
345.713
345.383
345.063
344.753
344.451
344.158
343.873
343.596
343.325
343.062
342.806
342.557
342.314
342.077
341.846
341.622
341.403
341.19
340.982
340.78
340.583
340.392
340.206
340.025
339.849
339.678
339.512
339.351
339.195
339.043
338.896
338.753
338.615
338.481
338.352
338.227
338.106
337.99
337.877
337.769
337.664
337.564
337.467
337.374
337.285
337.2
337.118
337.04
336.965
336.894
336.826
336.762
336.701
336.644
336.589
336.538
336.49
336.446
336.404
336.365
336.33
336.298
336.268
336.242
336.218
336.197
336.18
336.165
336.153
336.144
336.138
336.134
336.134
395.137
386.343
379.205
373.645
369.338
365.961
363.257
361.044
359.191
357.607
356.23
355.012
353.921
352.931
352.024
351.186
350.405
349.672
348.982
348.327
347.704
347.11
346.54
345.993
345.466
344.958
344.467
343.992
343.532
343.085
342.651
342.23
341.82
341.422
341.034
340.656
340.289
339.931
339.582
339.242
338.911
338.588
338.274
337.968
337.67
337.38
337.097
336.822
336.554
336.294
336.041
335.795
335.556
335.324
335.098
334.879
334.667
334.461
334.262
334.068
333.881
333.7
333.526
333.357
333.193
333.036
332.884
332.738
332.597
332.462
332.332
332.207
332.088
331.973
331.864
331.76
331.66
331.565
331.476
331.39
331.31
331.234
331.162
331.095
331.033
330.975
330.921
330.871
330.826
330.784
330.747
330.714
330.686
330.661
330.64
330.623
330.611
330.602
330.597
330.597
396.162
388.891
382.526
377.18
372.763
369.116
366.077
363.513
361.318
359.409
357.727
356.225
354.868
353.63
352.491
351.433
350.445
349.516
348.638
347.805
347.012
346.253
345.526
344.826
344.153
343.503
342.874
342.265
341.675
341.103
340.547
340.007
339.481
338.97
338.473
337.988
337.516
337.057
336.609
336.173
335.747
335.333
334.93
334.537
334.154
333.781
333.419
333.065
332.722
332.387
332.062
331.746
331.439
331.141
330.851
330.57
330.297
330.033
329.777
329.529
329.288
329.056
328.831
328.614
328.404
328.202
328.007
327.819
327.638
327.465
327.298
327.138
326.984
326.837
326.697
326.562
326.435
326.313
326.198
326.088
325.985
325.887
325.795
325.709
325.629
325.554
325.485
325.421
325.362
325.309
325.262
325.22
325.183
325.151
325.124
325.103
325.086
325.075
325.069
325.068
396.777
390.536
384.828
379.787
375.421
371.664
368.426
365.618
363.161
360.989
359.048
357.297
355.702
354.237
352.881
351.618
350.433
349.316
348.259
347.253
346.293
345.375
344.493
343.644
342.826
342.036
341.272
340.531
339.813
339.116
338.439
337.781
337.141
336.518
335.912
335.321
334.745
334.185
333.639
333.107
332.588
332.083
331.59
331.111
330.644
330.189
329.746
329.315
328.896
328.488
328.091
327.705
327.33
326.966
326.612
326.269
325.936
325.613
325.301
324.998
324.704
324.42
324.146
323.881
323.625
323.378
323.14
322.911
322.69
322.478
322.274
322.078
321.891
321.711
321.54
321.376
321.22
321.071
320.93
320.797
320.67
320.551
320.439
320.334
320.236
320.144
320.06
319.982
319.911
319.846
319.788
319.736
319.691
319.652
319.62
319.593
319.573
319.56
319.552
319.551
397.179
391.654
386.463
381.722
377.472
373.696
370.349
367.377
364.725
362.342
360.186
358.219
356.413
354.743
353.188
351.732
350.362
349.067
347.837
346.665
345.544
344.47
343.438
342.444
341.484
340.557
339.659
338.789
337.944
337.125
336.328
335.553
334.799
334.065
333.351
332.655
331.977
331.316
330.672
330.045
329.433
328.837
328.257
327.691
327.14
326.603
326.081
325.572
325.078
324.596
324.128
323.673
323.23
322.801
322.383
321.978
321.585
321.204
320.835
320.478
320.131
319.796
319.472
319.16
318.857
318.566
318.285
318.014
317.754
317.503
317.262
317.032
316.81
316.598
316.396
316.203
316.018
315.843
315.676
315.519
315.369
315.229
315.096
314.972
314.856
314.748
314.649
314.557
314.473
314.396
314.328
314.267
314.213
314.167
314.129
314.098
314.074
314.058
314.05
314.048
397.456
392.441
387.649
383.17
379.051
375.301
371.901
368.821
366.025
363.475
361.14
358.989
356.997
355.141
353.404
351.771
350.227
348.763
347.369
346.038
344.762
343.538
342.359
341.223
340.125
339.063
338.034
337.037
336.068
335.127
334.212
333.322
332.456
331.612
330.791
329.991
329.211
328.45
327.71
326.988
326.284
325.598
324.93
324.278
323.644
323.026
322.425
321.839
321.269
320.715
320.175
319.651
319.142
318.646
318.166
317.699
317.247
316.808
316.382
315.97
315.571
315.185
314.812
314.452
314.104
313.768
313.444
313.132
312.832
312.543
312.266
312
311.745
311.501
311.267
311.044
310.832
310.63
310.438
310.256
310.084
309.922
309.77
309.627
309.493
309.369
309.254
309.148
309.051
308.963
308.884
308.813
308.752
308.699
308.655
308.619
308.592
308.573
308.563
308.562
397.655
393.011
388.522
384.259
380.266
376.56
373.139
369.988
367.084
364.402
361.918
359.609
357.453
355.431
353.529
351.731
350.025
348.402
346.852
345.368
343.944
342.575
341.255
339.98
338.748
337.554
336.397
335.274
334.183
333.123
332.092
331.088
330.111
329.159
328.232
327.328
326.448
325.589
324.752
323.936
323.141
322.366
321.61
320.874
320.157
319.459
318.778
318.116
317.472
316.845
316.235
315.642
315.065
314.505
313.962
313.434
312.922
312.425
311.944
311.478
311.027
310.59
310.168
309.76
309.366
308.986
308.619
308.266
307.927
307.6
307.286
306.985
306.697
306.42
306.156
305.904
305.664
305.435
305.218
305.012
304.817
304.634
304.461
304.299
304.148
304.008
303.877
303.757
303.648
303.548
303.459
303.379
303.309
303.249
303.199
303.159
303.128
303.107
303.096
303.094
397.799
393.429
389.172
385.082
381.198
377.54
374.113
370.913
367.927
365.139
362.531
360.085
357.785
355.615
353.561
351.611
349.754
347.981
346.284
344.655
343.089
341.579
340.122
338.714
337.35
336.029
334.746
333.501
332.29
331.113
329.967
328.852
327.765
326.706
325.675
324.669
323.688
322.732
321.8
320.892
320.006
319.142
318.3
317.48
316.681
315.902
315.144
314.405
313.687
312.988
312.308
311.646
311.003
310.379
309.773
309.184
308.613
308.059
307.522
307.002
306.499
306.012
305.541
305.085
304.646
304.222
303.813
303.419
303.04
302.676
302.326
301.99
301.668
301.36
301.065
300.784
300.515
300.26
300.018
299.788
299.571
299.366
299.174
298.993
298.824
298.667
298.522
298.388
298.266
298.155
298.055
297.966
297.888
297.821
297.765
297.72
297.686
297.663
297.65
297.648
397.906
393.739
389.658
385.703
381.907
378.292
374.867
371.632
368.581
365.705
362.991
360.426
357.998
355.694
353.502
351.413
349.415
347.502
345.665
343.898
342.195
340.551
338.962
337.424
335.933
334.486
333.082
331.716
330.388
329.096
327.838
326.612
325.418
324.254
323.119
322.012
320.933
319.881
318.855
317.854
316.879
315.927
315
314.096
313.216
312.358
311.522
310.708
309.916
309.145
308.395
307.666
306.958
306.269
305.6
304.951
304.321
303.711
303.119
302.545
301.99
301.453
300.933
300.431
299.946
299.479
299.028
298.593
298.175
297.773
297.387
297.016
296.661
296.321
295.996
295.685
295.39
295.108
294.841
294.587
294.348
294.122
293.909
293.71
293.524
293.351
293.19
293.042
292.907
292.785
292.675
292.577
292.491
292.417
292.355
292.306
292.268
292.242
292.228
292.226
397.985
393.969
390.019
386.167
382.441
378.861
375.438
372.174
369.07
366.118
363.313
360.643
358.101
355.675
353.357
351.138
349.009
346.963
344.994
343.096
341.262
339.49
337.773
336.109
334.495
332.927
331.403
329.92
328.478
327.073
325.704
324.37
323.07
321.802
320.566
319.36
318.184
317.036
315.917
314.826
313.761
312.723
311.711
310.725
309.763
308.826
307.914
307.025
306.16
305.319
304.5
303.703
302.929
302.177
301.447
300.737
300.049
299.382
298.735
298.108
297.502
296.915
296.347
295.798
295.269
294.757
294.265
293.79
293.333
292.893
292.471
292.066
291.678
291.306
290.951
290.612
290.288
289.981
289.688
289.411
289.149
288.902
288.67
288.452
288.249
288.059
287.884
287.723
287.575
287.441
287.32
287.213
287.119
287.039
286.971
286.917
286.876
286.847
286.832
286.829
398.042
394.137
390.284
386.509
382.835
379.281
375.856
372.567
369.414
366.397
363.51
360.747
358.101
355.564
353.13
350.79
348.538
346.368
344.274
342.25
340.292
338.395
336.556
334.771
333.037
331.351
329.71
328.114
326.559
325.043
323.566
322.126
320.722
319.352
318.016
316.712
315.44
314.199
312.988
311.806
310.654
309.53
308.435
307.366
306.325
305.31
304.322
303.359
302.422
301.51
300.622
299.759
298.92
298.105
297.313
296.544
295.798
295.075
294.374
293.694
293.036
292.4
291.784
291.189
290.615
290.061
289.526
289.011
288.516
288.039
287.581
287.142
286.721
286.318
285.933
285.565
285.214
284.88
284.563
284.263
283.979
283.711
283.459
283.222
283.002
282.796
282.606
282.431
282.271
282.125
281.994
281.878
281.776
281.689
281.616
281.557
281.512
281.481
281.465
281.462
398.084
394.258
390.474
386.754
383.116
379.577
376.146
372.831
369.635
366.558
363.596
360.748
358.007
355.368
352.825
350.373
348.006
345.718
343.505
341.362
339.284
337.268
335.311
333.408
331.558
329.758
328.004
326.296
324.631
323.008
321.425
319.881
318.375
316.904
315.47
314.069
312.703
311.369
310.068
308.798
307.559
306.35
305.172
304.022
302.902
301.81
300.747
299.71
298.702
297.72
296.764
295.835
294.932
294.054
293.202
292.374
291.57
290.791
290.036
289.304
288.596
287.91
287.247
286.606
285.987
285.39
284.815
284.26
283.726
283.213
282.719
282.246
281.792
281.358
280.943
280.546
280.168
279.809
279.467
279.144
278.838
278.549
278.277
278.022
277.785
277.563
277.358
277.17
276.997
276.84
276.699
276.574
276.464
276.37
276.291
276.228
276.179
276.146
276.128
276.125
398.112
394.341
390.605
386.921
383.305
379.771
376.33
372.988
369.749
366.614
363.584
360.656
357.827
355.093
352.449
349.891
347.415
345.016
342.69
340.433
338.241
336.111
334.039
332.023
330.061
328.149
326.285
324.469
322.697
320.968
319.281
317.635
316.028
314.459
312.928
311.433
309.973
308.548
307.158
305.8
304.476
303.184
301.923
300.694
299.496
298.328
297.19
296.081
295.001
293.95
292.928
291.933
290.966
290.026
289.114
288.227
287.367
286.533
285.724
284.94
284.181
283.447
282.737
282.051
281.388
280.748
280.132
279.537
278.966
278.416
277.887
277.38
276.894
276.429
275.984
275.559
275.154
274.769
274.403
274.056
273.728
273.419
273.128
272.855
272.6
272.363
272.143
271.941
271.756
271.588
271.437
271.303
271.185
271.084
271
270.931
270.88
270.844
270.825
270.821
398.131
394.394
390.688
387.024
383.418
379.881
376.423
373.051
369.77
366.581
363.485
360.483
357.57
354.746
352.007
349.35
346.77
344.266
341.832
339.465
337.164
334.923
332.742
330.617
328.545
326.525
324.554
322.632
320.756
318.924
317.135
315.389
313.684
312.018
310.392
308.804
307.252
305.738
304.259
302.816
301.407
300.032
298.691
297.383
296.107
294.864
293.652
292.472
291.322
290.203
289.114
288.055
287.024
286.023
285.051
284.106
283.19
282.301
281.439
280.604
279.795
279.013
278.256
277.525
276.818
276.136
275.479
274.846
274.236
273.65
273.087
272.546
272.028
271.532
271.058
270.605
270.173
269.763
269.372
269.003
268.653
268.323
268.013
267.722
267.45
267.197
266.963
266.747
266.55
266.371
266.21
266.067
265.941
265.834
265.743
265.671
265.615
265.577
265.557
265.553
398.141
394.423
390.731
387.075
383.468
379.92
376.441
373.036
369.711
366.468
363.31
360.235
357.244
354.335
351.506
348.753
346.076
343.47
340.933
338.462
336.055
333.709
331.421
329.189
327.012
324.887
322.813
320.787
318.809
316.876
314.988
313.144
311.342
309.582
307.862
306.182
304.541
302.938
301.373
299.845
298.353
296.897
295.476
294.09
292.738
291.42
290.136
288.884
287.666
286.479
285.324
284.201
283.108
282.046
281.015
280.013
279.041
278.098
277.183
276.297
275.439
274.609
273.806
273.03
272.28
271.557
270.859
270.187
269.54
268.918
268.32
267.746
267.196
266.67
266.166
265.686
265.228
264.792
264.377
263.985
263.614
263.263
262.934
262.625
262.337
262.068
261.82
261.591
261.381
261.191
261.02
260.868
260.735
260.62
260.525
260.447
260.389
260.348
260.326
260.323
398.144
394.432
390.743
387.084
383.466
379.901
376.394
372.954
369.584
366.287
363.067
359.923
356.857
353.866
350.95
348.107
345.335
342.633
339.997
337.425
334.916
332.468
330.077
327.743
325.464
323.237
321.061
318.935
316.857
314.826
312.841
310.901
309.005
307.152
305.34
303.57
301.841
300.151
298.5
296.889
295.315
293.778
292.279
290.816
289.389
287.998
286.642
285.32
284.033
282.78
281.56
280.373
279.219
278.097
277.007
275.949
274.922
273.925
272.959
272.022
271.115
270.238
269.389
268.568
267.776
267.011
266.274
265.563
264.879
264.221
263.589
262.983
262.401
261.844
261.312
260.804
260.319
259.858
259.42
259.005
258.613
258.242
257.894
257.567
257.262
256.978
256.715
256.473
256.252
256.05
255.869
255.709
255.568
255.447
255.346
255.264
255.202
255.159
255.136
255.132
398.142
394.425
390.727
387.056
383.421
379.831
376.293
372.814
369.397
366.047
362.765
359.554
356.414
353.345
350.345
347.415
344.553
341.757
339.026
336.358
333.751
331.204
328.714
326.28
323.901
321.575
319.301
317.076
314.902
312.775
310.695
308.661
306.672
304.728
302.827
300.968
299.152
297.377
295.643
293.948
292.294
290.679
289.102
287.563
286.062
284.599
283.172
281.781
280.426
279.107
277.823
276.574
275.359
274.178
273.03
271.915
270.833
269.784
268.766
267.78
266.825
265.9
265.006
264.142
263.307
262.501
261.724
260.976
260.255
259.562
258.896
258.257
257.644
257.057
256.497
255.961
255.45
254.965
254.503
254.066
253.652
253.261
252.894
252.55
252.228
251.929
251.652
251.397
251.163
250.951
250.761
250.591
250.443
250.315
250.208
250.122
250.057
250.012
249.987
249.983
398.135
394.404
390.689
386.998
383.339
379.719
376.146
372.624
369.159
365.754
362.412
359.135
355.923
352.777
349.697
346.683
343.734
340.848
338.025
335.263
332.561
329.918
327.332
324.802
322.326
319.904
317.533
315.214
312.944
310.724
308.551
306.425
304.346
302.312
300.323
298.378
296.476
294.617
292.8
291.025
289.292
287.599
285.946
284.332
282.758
281.223
279.727
278.268
276.847
275.462
274.115
272.804
271.529
270.289
269.084
267.914
266.778
265.676
264.608
263.572
262.569
261.598
260.659
259.752
258.875
258.029
257.213
256.427
255.67
254.942
254.242
253.571
252.927
252.311
251.722
251.159
250.623
250.112
249.627
249.168
248.733
248.323
247.937
247.576
247.238
246.923
246.632
246.364
246.118
245.896
245.695
245.517
245.361
245.227
245.115
245.024
244.955
244.908
244.882
244.877
398.124
394.371
390.633
386.915
383.226
379.572
375.959
372.393
368.877
365.417
362.014
358.671
355.389
352.168
349.01
345.914
342.88
339.908
336.996
334.143
331.35
328.614
325.934
323.31
320.74
318.224
315.76
313.348
310.986
308.674
306.41
304.195
302.027
299.905
297.83
295.799
293.814
291.873
289.975
288.121
286.309
284.539
282.811
281.125
279.479
277.873
276.308
274.782
273.295
271.847
270.437
269.065
267.73
266.432
265.171
263.946
262.757
261.604
260.485
259.401
258.351
257.334
256.351
255.4
254.482
253.596
252.741
251.918
251.125
250.362
249.63
248.926
248.252
247.607
246.989
246.4
245.838
245.303
244.795
244.314
243.858
243.429
243.025
242.646
242.291
241.962
241.657
241.376
241.119
240.885
240.675
240.489
240.325
240.184
240.067
239.972
239.9
239.85
239.823
239.818
398.11
394.328
390.561
386.811
383.087
379.394
375.738
372.125
368.558
365.041
361.577
358.169
354.817
351.524
348.289
345.114
341.997
338.94
335.942
333.002
330.119
327.292
324.522
321.807
319.146
316.538
313.983
311.48
309.028
306.626
304.274
301.971
299.716
297.509
295.348
293.235
291.167
289.145
287.168
285.236
283.347
281.502
279.701
277.942
276.225
274.55
272.917
271.325
269.773
268.261
266.79
265.358
263.964
262.61
261.293
260.014
258.773
257.568
256.4
255.267
254.17
253.109
252.082
251.089
250.13
249.204
248.311
247.451
246.622
245.826
245.06
244.325
243.621
242.946
242.301
241.686
241.098
240.54
240.009
239.506
239.03
238.581
238.158
237.762
237.392
237.048
236.729
236.435
236.166
235.922
235.703
235.508
235.337
235.19
235.067
234.967
234.892
234.84
234.811
234.806
398.094
394.278
390.475
386.689
382.925
379.19
375.488
371.826
368.205
364.631
361.106
357.633
354.213
350.847
347.538
344.285
341.088
337.949
334.866
331.841
328.871
325.957
323.098
320.294
317.544
314.848
312.204
309.612
307.072
304.583
302.144
299.755
297.415
295.124
292.88
290.685
288.537
286.436
284.38
282.371
280.407
278.488
276.614
274.784
272.998
271.255
269.555
267.897
266.282
264.708
263.176
261.684
260.233
258.822
257.451
256.119
254.825
253.57
252.353
251.173
250.03
248.924
247.853
246.819
245.819
244.854
243.924
243.027
242.164
241.333
240.535
239.77
239.035
238.332
237.66
237.018
236.405
235.823
235.269
234.745
234.249
233.78
233.34
232.927
232.541
232.182
231.849
231.543
231.263
231.008
230.779
230.576
230.397
230.244
230.116
230.012
229.933
229.879
229.849
229.844
398.075
394.221
390.378
386.551
382.745
378.964
375.214
371.5
367.825
364.193
360.606
357.068
353.58
350.144
346.76
343.431
340.156
336.937
333.772
330.663
327.609
324.61
321.665
318.774
315.938
313.154
310.424
307.746
305.119
302.545
300.021
297.548
295.125
292.751
290.427
288.151
285.924
283.745
281.613
279.529
277.491
275.499
273.554
271.654
269.799
267.989
266.223
264.501
262.823
261.188
259.596
258.046
256.538
255.071
253.646
252.261
250.917
249.612
248.346
247.12
245.931
244.781
243.668
242.592
241.553
240.549
239.581
238.649
237.751
236.887
236.057
235.26
234.497
233.765
233.066
232.398
231.761
231.155
230.579
230.033
229.517
229.03
228.572
228.142
227.74
227.367
227.021
226.702
226.41
226.145
225.907
225.695
225.51
225.35
225.216
225.109
225.026
224.97
224.939
224.933
398.054
394.157
390.272
386.401
382.548
378.72
374.919
371.152
367.421
363.73
360.081
356.478
352.923
349.416
345.961
342.557
339.205
335.907
332.662
329.472
326.335
323.253
320.224
317.249
314.328
311.46
308.644
305.882
303.172
300.514
297.907
295.352
292.847
290.393
287.989
285.635
283.33
281.075
278.868
276.709
274.599
272.536
270.52
268.551
266.629
264.753
262.923
261.138
259.398
257.702
256.051
254.444
252.88
251.359
249.88
248.443
247.048
245.695
244.381
243.109
241.875
240.682
239.527
238.41
237.331
236.29
235.285
234.317
233.385
232.488
231.627
230.8
230.007
229.247
228.521
227.828
227.166
226.537
225.939
225.373
224.836
224.331
223.855
223.409
222.992
222.604
222.244
221.913
221.61
221.335
221.088
220.868
220.675
220.509
220.37
220.258
220.173
220.114
220.082
220.075
398.031
394.089
390.158
386.24
382.338
378.459
374.607
370.784
366.996
363.246
359.535
355.867
352.245
348.669
345.142
341.664
338.237
334.862
331.539
328.269
325.052
321.888
318.777
315.72
312.716
309.765
306.868
304.023
301.231
298.491
295.803
293.167
290.583
288.05
285.568
283.137
280.757
278.426
276.145
273.914
271.732
269.599
267.515
265.479
263.49
261.549
259.655
257.808
256.007
254.253
252.543
250.879
249.26
247.685
246.154
244.666
243.222
241.82
240.46
239.141
237.864
236.627
235.431
234.274
233.156
232.077
231.037
230.034
229.068
228.139
227.246
226.389
225.567
224.78
224.027
223.309
222.624
221.971
221.352
220.764
220.209
219.684
219.191
218.729
218.296
217.894
217.522
217.178
216.864
216.579
216.323
216.094
215.894
215.723
215.579
215.462
215.374
215.313
215.279
215.273
398.007
394.017
390.037
386.069
382.117
378.186
374.279
370.401
366.555
362.744
358.971
355.238
351.549
347.905
344.307
340.757
337.256
333.805
330.406
327.058
323.762
320.518
317.328
314.19
311.105
308.074
305.095
302.17
299.297
296.477
293.71
290.996
288.334
285.724
283.166
280.659
278.204
275.8
273.447
271.145
268.893
266.691
264.539
262.436
260.383
258.378
256.422
254.514
252.653
250.84
249.074
247.354
245.68
244.052
242.47
240.932
239.438
237.989
236.582
235.219
233.898
232.619
231.382
230.186
229.03
227.914
226.837
225.8
224.801
223.84
222.916
222.029
221.179
220.365
219.586
218.843
218.134
217.459
216.818
216.21
215.635
215.093
214.582
214.104
213.656
213.24
212.855
212.499
212.174
211.879
211.614
211.377
211.17
210.992
210.843
210.723
210.631
210.568
210.533
210.526
397.982
393.942
389.911
385.891
381.887
377.901
373.939
370.004
366.099
362.227
358.391
354.595
350.839
347.126
343.458
339.837
336.263
332.739
329.264
325.839
322.466
319.145
315.876
312.66
309.496
306.386
303.328
300.324
297.373
294.475
291.631
288.839
286.101
283.415
280.782
278.202
275.674
273.198
270.774
268.402
266.081
263.812
261.594
259.426
257.308
255.241
253.223
251.255
249.336
247.465
245.643
243.868
242.141
240.461
238.828
237.24
235.699
234.202
232.751
231.343
229.979
228.659
227.381
226.146
224.952
223.8
222.688
221.617
220.585
219.592
218.638
217.723
216.845
216.004
215.199
214.431
213.699
213.002
212.339
211.711
211.117
210.557
210.03
209.535
209.073
208.643
208.244
207.877
207.542
207.237
206.962
206.718
206.504
206.32
206.166
206.042
205.947
205.881
205.845
205.838
397.956
393.863
389.78
385.707
381.648
377.607
373.589
369.595
365.631
361.698
357.8
353.938
350.117
346.336
342.6
338.908
335.262
331.665
328.116
324.617
321.168
317.771
314.425
311.132
307.891
304.704
301.569
298.488
295.46
292.486
289.565
286.699
283.885
281.126
278.419
275.767
273.167
270.621
268.128
265.687
263.299
260.963
258.68
256.448
254.268
252.139
250.061
248.034
246.057
244.13
242.252
240.424
238.645
236.913
235.23
233.594
232.005
230.462
228.966
227.515
226.109
224.748
223.43
222.157
220.926
219.738
218.591
217.486
216.422
215.399
214.415
213.47
212.565
211.697
210.868
210.075
209.32
208.601
207.918
207.27
206.657
206.079
205.535
205.025
204.548
204.104
203.693
203.314
202.968
202.653
202.37
202.118
201.897
201.707
201.548
201.419
201.321
201.254
201.216
201.209
397.929
393.783
389.645
385.517
381.403
377.306
373.23
369.178
365.153
361.159
357.198
353.272
349.385
345.538
341.733
337.971
334.255
330.586
326.964
323.392
319.869
316.397
312.977
309.608
306.292
303.029
299.818
296.662
293.559
290.51
287.515
284.575
281.688
278.856
276.079
273.355
270.685
268.07
265.509
263.001
260.547
258.146
255.799
253.504
251.263
249.074
246.937
244.851
242.818
240.835
238.904
237.022
235.191
233.409
231.677
229.993
228.357
226.77
225.229
223.736
222.288
220.887
219.53
218.219
216.951
215.728
214.547
213.409
212.314
211.259
210.246
209.273
208.34
207.447
206.592
205.776
204.998
204.257
203.554
202.886
202.255
201.659
201.099
200.573
200.082
199.625
199.201
198.811
198.454
198.129
197.838
197.578
197.35
197.155
196.991
196.858
196.757
196.687
196.649
196.641
397.902
393.7
389.507
385.324
381.153
376.998
372.864
368.753
364.668
360.612
356.588
352.599
348.646
344.732
340.86
337.03
333.244
329.504
325.811
322.167
318.571
315.026
311.532
308.09
304.7
301.362
298.078
294.848
291.672
288.55
285.482
282.47
279.512
276.609
273.761
270.968
268.23
265.546
262.918
260.345
257.826
255.362
252.952
250.596
248.294
246.045
243.85
241.708
239.619
237.582
235.597
233.664
231.782
229.951
228.17
226.439
224.758
223.126
221.542
220.006
218.518
217.077
215.682
214.333
213.03
211.772
210.558
209.387
208.26
207.176
206.134
205.133
204.173
203.254
202.375
201.536
200.735
199.973
199.249
198.562
197.913
197.3
196.723
196.183
195.677
195.206
194.771
194.369
194.002
193.668
193.367
193.1
192.866
192.664
192.496
192.359
192.255
192.183
192.143
192.135
397.874
393.616
389.367
385.126
380.898
376.686
372.493
368.322
364.176
360.059
355.972
351.919
347.902
343.922
339.983
336.085
332.231
328.421
324.658
320.943
317.276
313.659
310.093
306.578
303.116
299.706
296.35
293.047
289.799
286.606
283.467
280.384
277.356
274.383
271.467
268.606
265.801
263.051
260.358
257.72
255.137
252.611
250.139
247.723
245.362
243.055
240.803
238.606
236.462
234.371
232.334
230.35
228.418
226.538
224.71
222.933
221.207
219.531
217.905
216.328
214.799
213.319
211.887
210.502
209.163
207.87
206.623
205.421
204.263
203.149
202.079
201.051
200.065
199.12
198.217
197.355
196.532
195.749
195.005
194.299
193.632
193.002
192.41
191.854
191.334
190.851
190.403
189.99
189.612
189.269
188.96
188.685
188.445
188.237
188.064
187.923
187.816
187.742
187.701
187.692
397.845
393.531
389.225
384.927
380.641
376.37
372.118
367.887
363.681
359.502
355.353
351.236
347.154
343.109
339.104
335.139
331.217
327.339
323.507
319.722
315.985
312.298
308.661
305.076
301.542
298.062
294.635
291.262
287.943
284.68
281.471
278.319
275.222
272.182
269.198
266.271
263.4
260.585
257.828
255.127
252.482
249.894
247.363
244.888
242.468
240.105
237.797
235.544
233.347
231.204
229.116
227.082
225.101
223.173
221.299
219.476
217.706
215.987
214.319
212.701
211.134
209.615
208.146
206.725
205.351
204.025
202.746
201.512
200.324
199.181
198.082
197.027
196.015
195.046
194.119
193.234
192.39
191.586
190.822
190.098
189.413
188.767
188.158
187.588
187.054
186.558
186.098
185.674
185.286
184.934
184.617
184.335
184.088
183.875
183.696
183.552
183.442
183.366
183.323
183.315
397.817
393.445
389.081
384.725
380.381
376.051
371.74
367.449
363.182
358.942
354.73
350.55
346.405
342.295
338.224
334.193
330.205
326.259
322.359
318.506
314.701
310.944
307.238
303.583
299.981
296.431
292.934
289.492
286.105
282.772
279.496
276.276
273.112
270.006
266.956
263.963
261.028
258.15
255.33
252.567
249.862
247.214
244.623
242.09
239.614
237.195
234.832
232.526
230.276
228.082
225.943
223.86
221.831
219.857
217.936
216.07
214.256
212.495
210.786
209.128
207.522
205.966
204.46
203.004
201.596
200.237
198.925
197.661
196.443
195.272
194.145
193.064
192.027
191.033
190.083
189.175
188.31
187.486
186.703
185.96
185.258
184.595
183.971
183.386
182.839
182.33
181.858
181.424
181.026
180.664
180.339
180.05
179.796
179.578
179.395
179.247
179.134
179.055
179.012
179.002
397.788
393.358
388.936
384.522
380.12
375.731
371.36
367.009
362.682
358.38
354.107
349.864
345.655
341.482
337.346
333.25
329.195
325.184
321.217
317.296
313.424
309.6
305.825
302.102
298.432
294.814
291.249
287.739
284.285
280.885
277.542
274.256
271.027
267.855
264.741
261.684
258.686
255.746
252.864
250.041
247.276
244.569
241.921
239.331
236.799
234.326
231.909
229.551
227.249
225.005
222.817
220.685
218.609
216.589
214.624
212.714
210.857
209.055
207.306
205.609
203.965
202.372
200.83
199.339
197.898
196.507
195.164
193.869
192.622
191.422
190.269
189.162
188.1
187.082
186.109
185.179
184.293
183.449
182.647
181.886
181.167
180.488
179.849
179.249
178.689
178.167
177.684
177.239
176.831
176.461
176.128
175.831
175.571
175.347
175.16
175.008
174.892
174.812
174.767
174.757
397.759
393.271
388.791
384.319
379.858
375.41
370.98
366.569
362.181
357.818
353.483
349.179
344.907
340.67
336.471
332.31
328.19
324.114
320.081
316.095
312.155
308.265
304.424
300.634
296.897
293.212
289.581
286.005
282.484
279.02
275.611
272.26
268.967
265.731
262.554
259.435
256.375
253.374
250.432
247.55
244.727
241.963
239.258
236.612
234.026
231.499
229.03
226.62
224.268
221.974
219.738
217.559
215.437
213.372
211.363
209.409
207.512
205.668
203.88
202.145
200.463
198.834
197.258
195.733
194.259
192.835
191.462
190.137
188.862
187.634
186.454
185.321
184.235
183.194
182.198
181.247
180.34
179.476
178.655
177.877
177.141
176.446
175.792
175.179
174.605
174.071
173.577
173.121
172.704
172.325
171.984
171.68
171.414
171.185
170.992
170.837
170.718
170.636
170.59
170.58
397.73
393.184
388.646
384.115
379.595
375.089
370.599
366.129
361.68
357.257
352.861
348.495
344.161
339.862
335.599
331.375
327.191
323.05
318.953
314.902
310.897
306.941
303.035
299.18
295.377
291.627
287.932
284.291
280.705
277.176
273.704
270.29
266.933
263.635
260.396
257.217
254.096
251.036
248.035
245.095
242.214
239.394
236.634
233.934
231.294
228.714
226.194
223.734
221.332
218.99
216.706
214.481
212.314
210.205
208.153
206.158
204.219
202.336
200.509
198.736
197.018
195.354
193.743
192.184
190.678
189.223
187.82
186.466
185.163
183.908
182.702
181.544
180.433
179.369
178.351
177.379
176.452
175.569
174.73
173.934
173.181
172.471
171.802
171.175
170.589
170.043
169.537
169.071
168.644
168.257
167.908
167.597
167.325
167.09
166.894
166.735
166.613
166.529
166.481
166.471
397.701
393.097
388.501
383.912
379.333
374.768
370.219
365.69
361.182
356.698
352.241
347.814
343.419
339.058
334.733
330.446