/*--------------------------------*- C++ -*----------------------------------*\
  =========                 |
  \\      /  F ield         | OpenFOAM: The Open Source CFD Toolbox
   \\    /   O peration     | Website:  https://openfoam.org
    \\  /    A nd           | Version:  10
     \\/     M anipulation  |
\*---------------------------------------------------------------------------*/
FoamFile
{
    format      ascii;
    class       volScalarField;
    location    "250";
    object      T;
}
// * * * * * * * * * * * * * * * * * * * * * * * * * * * * * * * * * * * * * //

dimensions      [0 0 0 1 0 0 0];

internalField   nonuniform List<scalar> 
10000
(
324.999
338.658
343.303
345.319
346.397
347.064
347.518
347.847
348.097
348.294
348.452
348.581
348.69
348.782
348.861
348.929
348.988
349.04
349.087
349.128
349.165
349.198
349.227
349.254
349.279
349.301
349.321
349.339
349.356
349.372
349.386
349.399
349.41
349.421
349.431
349.44
349.448
349.455
349.462
349.468
349.473
349.478
349.482
349.486
349.489
349.491
349.493
349.495
349.496
349.496
349.496
349.496
349.495
349.493
349.491
349.489
349.486
349.482
349.478
349.473
349.468
349.462
349.455
349.448
349.44
349.431
349.421
349.41
349.399
349.386
349.372
349.356
349.339
349.321
349.301
349.279
349.254
349.227
349.198
349.165
349.128
349.087
349.04
348.988
348.929
348.86
348.782
348.69
348.581
348.452
348.294
348.097
347.847
347.518
347.064
346.397
345.319
343.303
338.658
324.999
311.334
324.988
332.538
336.896
339.601
341.404
342.677
343.621
344.346
344.919
345.383
345.766
346.086
346.358
346.592
346.795
346.971
347.127
347.265
347.388
347.497
347.596
347.685
347.765
347.838
347.904
347.965
348.02
348.07
348.116
348.158
348.197
348.232
348.264
348.293
348.32
348.344
348.366
348.386
348.404
348.42
348.434
348.447
348.458
348.467
348.474
348.48
348.484
348.487
348.489
348.489
348.487
348.484
348.48
348.474
348.467
348.458
348.447
348.434
348.42
348.404
348.386
348.366
348.344
348.32
348.293
348.264
348.232
348.197
348.158
348.116
348.07
348.02
347.965
347.904
347.838
347.765
347.685
347.596
347.497
347.388
347.265
347.127
346.971
346.795
346.592
346.358
346.086
345.766
345.383
344.919
344.346
343.621
342.677
341.404
339.601
336.896
332.538
324.988
311.334
306.683
317.421
324.966
330.126
333.708
336.272
338.168
339.613
340.746
341.654
342.396
343.012
343.531
343.974
344.355
344.686
344.976
345.232
345.458
345.66
345.841
346.004
346.151
346.284
346.404
346.514
346.614
346.705
346.788
346.865
346.934
346.998
347.056
347.11
347.158
347.203
347.243
347.28
347.313
347.343
347.369
347.393
347.413
347.431
347.446
347.459
347.468
347.476
347.481
347.483
347.483
347.481
347.476
347.468
347.459
347.446
347.431
347.413
347.393
347.369
347.343
347.313
347.28
347.243
347.203
347.158
347.11
347.056
346.998
346.934
346.865
346.788
346.705
346.614
346.514
346.404
346.284
346.151
346.004
345.841
345.66
345.458
345.232
344.976
344.686
344.355
343.974
343.531
343.012
342.396
341.654
340.746
339.613
338.168
336.272
333.708
330.126
324.966
317.421
306.683
304.662
313.046
319.778
324.933
328.835
331.808
334.108
335.919
337.371
338.555
339.534
340.356
341.053
341.65
342.168
342.619
343.015
343.365
343.676
343.954
344.204
344.428
344.631
344.814
344.981
345.133
345.272
345.398
345.514
345.619
345.716
345.805
345.886
345.96
346.028
346.09
346.146
346.197
346.243
346.284
346.321
346.354
346.382
346.407
346.428
346.446
346.459
346.47
346.476
346.48
346.48
346.476
346.47
346.459
346.446
346.428
346.407
346.382
346.354
346.321
346.284
346.243
346.197
346.146
346.09
346.028
345.96
345.886
345.805
345.716
345.619
345.514
345.398
345.272
345.133
344.981
344.814
344.631
344.428
344.204
343.954
343.676
343.365
343.015
342.619
342.168
341.65
341.053
340.356
339.534
338.555
337.371
335.919
334.108
331.808
328.835
324.933
319.778
313.046
304.662
303.579
310.325
316.169
320.993
324.889
328.017
330.537
332.584
334.264
335.66
336.83
337.823
338.674
339.408
340.046
340.606
341.1
341.538
341.928
342.277
342.591
342.874
343.13
343.362
343.573
343.766
343.941
344.102
344.249
344.383
344.506
344.619
344.723
344.817
344.903
344.982
345.054
345.119
345.177
345.23
345.277
345.319
345.356
345.387
345.414
345.436
345.454
345.467
345.476
345.48
345.48
345.476
345.467
345.454
345.436
345.414
345.387
345.356
345.319
345.277
345.23
345.177
345.119
345.054
344.982
344.903
344.817
344.722
344.619
344.506
344.383
344.249
344.102
343.941
343.766
343.573
343.362
343.13
342.874
342.591
342.277
341.928
341.537
341.1
340.606
340.046
339.408
338.674
337.823
336.83
335.66
334.264
332.584
330.537
328.017
324.889
320.993
316.169
310.325
303.579
302.906
308.506
313.578
317.981
321.712
324.834
327.439
329.615
331.443
332.989
334.305
335.434
336.41
337.26
338.004
338.66
339.241
339.758
340.22
340.635
341.009
341.346
341.653
341.931
342.184
342.415
342.626
342.82
342.996
343.159
343.307
343.443
343.568
343.682
343.786
343.881
343.968
344.047
344.118
344.182
344.239
344.289
344.334
344.372
344.404
344.431
344.453
344.468
344.479
344.484
344.484
344.479
344.468
344.453
344.431
344.404
344.372
344.334
344.289
344.239
344.182
344.118
344.047
343.968
343.881
343.786
343.682
343.568
343.443
343.307
343.158
342.996
342.819
342.626
342.415
342.184
341.931
341.653
341.346
341.008
340.635
340.22
339.758
339.241
338.66
338.004
337.26
336.41
335.434
334.305
332.989
331.443
329.615
327.439
324.834
321.712
317.981
313.578
308.506
302.906
302.447
307.216
311.654
315.643
319.143
322.17
324.769
326.995
328.904
330.547
331.966
333.198
334.274
335.218
336.051
336.788
337.445
338.032
338.559
339.034
339.462
339.851
340.203
340.524
340.817
341.085
341.329
341.553
341.759
341.947
342.12
342.278
342.424
342.557
342.678
342.789
342.891
342.982
343.065
343.14
343.207
343.266
343.318
343.363
343.401
343.432
343.457
343.475
343.488
343.494
343.494
343.488
343.475
343.457
343.432
343.401
343.363
343.318
343.266
343.207
343.14
343.065
342.982
342.891
342.789
342.678
342.557
342.424
342.278
342.12
341.947
341.759
341.553
341.329
341.085
340.817
340.524
340.203
339.851
339.462
339.034
338.559
338.032
337.445
336.788
336.051
335.218
334.274
333.198
331.966
330.547
328.904
326.995
324.769
322.17
319.143
315.643
311.654
307.216
302.447
302.112
306.256
310.181
313.794
317.047
319.933
322.471
324.692
326.632
328.328
329.814
331.119
332.269
333.287
334.192
334.998
335.72
336.368
336.951
337.479
337.957
338.391
338.786
339.146
339.475
339.777
340.053
340.306
340.538
340.752
340.947
341.127
341.292
341.443
341.581
341.707
341.822
341.927
342.021
342.106
342.182
342.25
342.309
342.36
342.403
342.439
342.468
342.489
342.503
342.51
342.51
342.503
342.489
342.467
342.439
342.403
342.36
342.309
342.25
342.182
342.106
342.021
341.927
341.822
341.707
341.581
341.443
341.292
341.127
340.947
340.751
340.538
340.306
340.053
339.777
339.475
339.146
338.786
338.391
337.957
337.479
336.951
336.367
335.72
334.998
334.192
333.287
332.269
331.119
329.814
328.328
326.632
324.692
322.471
319.933
317.047
313.794
310.181
306.256
302.112
301.856
305.515
309.021
312.303
315.317
318.045
320.491
322.67
324.605
326.32
327.842
329.194
330.397
331.47
332.431
333.292
334.068
334.767
335.4
335.973
336.495
336.97
337.403
337.799
338.162
338.494
338.799
339.079
339.337
339.573
339.791
339.99
340.174
340.342
340.496
340.637
340.765
340.881
340.987
341.082
341.167
341.242
341.308
341.365
341.414
341.454
341.485
341.509
341.525
341.533
341.533
341.525
341.509
341.485
341.454
341.413
341.365
341.308
341.242
341.167
341.082
340.987
340.881
340.765
340.636
340.496
340.342
340.174
339.99
339.791
339.573
339.337
339.079
338.799
338.494
338.162
337.799
337.403
336.969
336.494
335.973
335.399
334.767
334.067
333.292
332.431
331.47
330.397
329.194
327.842
326.32
324.605
322.67
320.491
318.045
315.317
312.303
309.021
305.515
301.856
301.654
304.925
308.086
311.081
313.873
316.44
318.777
320.892
322.796
324.506
326.041
327.418
328.654
329.767
330.769
331.673
332.491
333.233
333.907
334.52
335.079
335.59
336.057
336.486
336.878
337.239
337.571
337.876
338.156
338.414
338.652
338.87
339.071
339.255
339.424
339.578
339.719
339.847
339.963
340.067
340.161
340.243
340.316
340.379
340.432
340.476
340.511
340.537
340.555
340.563
340.563
340.555
340.537
340.511
340.476
340.432
340.379
340.316
340.243
340.16
340.067
339.963
339.847
339.719
339.578
339.424
339.255
339.071
338.87
338.652
338.414
338.156
337.875
337.57
337.239
336.878
336.485
336.057
335.59
335.079
334.52
333.907
333.233
332.491
331.673
330.768
329.766
328.654
327.418
326.041
324.506
322.796
320.892
318.777
316.44
313.873
311.081
308.086
304.925
301.654
301.491
304.445
307.317
310.064
312.652
315.063
317.287
319.324
321.181
322.868
324.397
325.782
327.036
328.173
329.204
330.14
330.992
331.767
332.474
333.121
333.712
334.254
334.751
335.207
335.627
336.013
336.369
336.696
336.998
337.276
337.532
337.768
337.984
338.184
338.366
338.533
338.686
338.825
338.95
339.064
339.165
339.255
339.334
339.402
339.46
339.508
339.546
339.575
339.593
339.603
339.603
339.593
339.574
339.546
339.508
339.46
339.402
339.334
339.255
339.165
339.064
338.95
338.825
338.686
338.533
338.366
338.183
337.984
337.767
337.532
337.276
336.998
336.696
336.368
336.013
335.627
335.207
334.751
334.254
333.712
333.121
332.474
331.767
330.991
330.14
329.204
328.173
327.036
325.782
324.397
322.868
321.181
319.324
317.287
315.063
312.652
310.064
307.317
304.445
301.491
301.356
304.045
306.673
309.204
311.61
313.873
315.984
317.937
319.736
321.387
322.897
324.277
325.536
326.685
327.734
328.692
329.568
330.369
331.103
331.776
332.394
332.962
333.485
333.966
334.409
334.818
335.195
335.542
335.863
336.159
336.432
336.684
336.916
337.129
337.324
337.503
337.667
337.816
337.95
338.072
338.181
338.277
338.362
338.436
338.498
338.55
338.591
338.621
338.641
338.652
338.652
338.641
338.621
338.591
338.55
338.498
338.436
338.362
338.277
338.181
338.072
337.95
337.815
337.667
337.503
337.324
337.128
336.915
336.684
336.432
336.159
335.863
335.542
335.194
334.818
334.409
333.966
333.485
332.962
332.394
331.776
331.103
330.369
329.568
328.692
327.734
326.685
325.536
324.276
322.897
321.387
319.736
317.937
315.984
313.873
311.61
309.204
306.673
304.045
301.356
301.242
303.708
306.127
308.468
310.711
312.837
314.837
316.705
318.44
320.046
321.528
322.892
324.145
325.297
326.355
327.326
328.218
329.039
329.793
330.487
331.127
331.717
332.26
332.762
333.226
333.654
334.05
334.416
334.754
335.066
335.354
335.62
335.865
336.091
336.298
336.488
336.662
336.82
336.964
337.093
337.209
337.312
337.402
337.48
337.547
337.602
337.645
337.678
337.7
337.711
337.711
337.7
337.678
337.645
337.602
337.547
337.48
337.402
337.312
337.209
337.093
336.964
336.82
336.662
336.488
336.298
336.091
335.865
335.62
335.354
335.066
334.753
334.415
334.05
333.654
333.226
332.762
332.26
331.716
331.127
330.487
329.793
329.038
328.218
327.326
326.355
325.297
324.145
322.892
321.528
320.046
318.44
316.705
314.837
312.837
310.711
308.468
306.127
303.708
301.242
301.144
303.42
305.657
307.832
309.927
311.927
313.822
315.605
317.274
318.83
320.276
321.617
322.857
324.003
325.062
326.039
326.941
327.774
328.543
329.253
329.909
330.516
331.078
331.597
332.078
332.523
332.935
333.317
333.67
333.996
334.298
334.577
334.835
335.072
335.29
335.49
335.673
335.84
335.991
336.128
336.25
336.359
336.454
336.537
336.607
336.665
336.711
336.746
336.769
336.78
336.78
336.769
336.746
336.711
336.665
336.607
336.537
336.454
336.359
336.25
336.128
335.991
335.84
335.673
335.49
335.29
335.072
334.835
334.577
334.298
333.996
333.669
333.316
332.935
332.523
332.078
331.597
331.078
330.516
329.909
329.253
328.543
327.774
326.941
326.039
325.062
324.003
322.857
321.617
320.276
318.83
317.274
315.604
313.822
311.927
309.927
307.832
305.657
303.42
301.144
301.06
303.17
305.248
307.277
309.239
311.123
312.918
314.618
316.221
317.724
319.13
320.442
321.663
322.797
323.85
324.827
325.733
326.573
327.351
328.073
328.741
329.362
329.937
330.471
330.966
331.425
331.851
332.246
332.612
332.951
333.265
333.556
333.824
334.072
334.3
334.509
334.7
334.875
335.033
335.176
335.305
335.419
335.519
335.606
335.68
335.741
335.789
335.825
335.849
335.861
335.861
335.849
335.825
335.789
335.741
335.679
335.606
335.519
335.419
335.305
335.176
335.033
334.875
334.7
334.509
334.3
334.072
333.824
333.556
333.265
332.951
332.612
332.246
331.851
331.425
330.965
330.47
329.937
329.362
328.741
328.072
327.351
326.573
325.733
324.827
323.85
322.797
321.663
320.442
319.13
317.724
316.22
314.618
312.918
311.123
309.239
307.277
305.248
303.17
301.06
300.987
302.951
304.89
306.787
308.63
310.407
312.109
313.73
315.266
316.716
318.079
319.358
320.555
321.673
322.715
323.687
324.591
325.433
326.216
326.945
327.622
328.252
328.838
329.383
329.889
330.36
330.798
331.204
331.581
331.932
332.256
332.557
332.835
333.092
333.328
333.545
333.744
333.926
334.091
334.24
334.374
334.493
334.597
334.688
334.765
334.828
334.879
334.917
334.942
334.955
334.955
334.942
334.917
334.879
334.828
334.765
334.688
334.597
334.492
334.374
334.24
334.091
333.926
333.744
333.545
333.328
333.091
332.835
332.557
332.256
331.931
331.581
331.204
330.797
330.36
329.889
329.383
328.838
328.252
327.622
326.944
326.216
325.433
324.591
323.686
322.715
321.672
320.555
319.358
318.079
316.716
315.266
313.729
312.109
310.407
308.63
306.787
304.89
302.951
300.986
300.922
302.758
304.572
306.353
308.087
309.766
311.381
312.926
314.397
315.793
317.113
318.357
319.526
320.623
321.651
322.613
323.512
324.352
325.136
325.868
326.55
327.187
327.78
328.333
328.848
329.328
329.775
330.191
330.578
330.937
331.271
331.58
331.867
332.131
332.375
332.6
332.806
332.994
333.164
333.319
333.457
333.581
333.689
333.783
333.863
333.929
333.982
334.021
334.047
334.06
334.06
334.047
334.021
333.982
333.929
333.863
333.783
333.689
333.581
333.457
333.319
333.164
332.993
332.806
332.6
332.375
332.131
331.867
331.58
331.271
330.937
330.578
330.191
329.775
329.328
328.848
328.333
327.78
327.187
326.55
325.868
325.136
324.352
323.512
322.613
321.651
320.623
319.526
318.356
317.113
315.793
314.397
312.926
311.38
309.766
308.087
306.353
304.572
302.757
300.922
300.864
302.585
304.289
305.964
307.6
309.188
310.722
312.195
313.605
314.948
316.222
317.429
318.569
319.643
320.653
321.602
322.492
323.327
324.108
324.84
325.524
326.164
326.762
327.321
327.843
328.33
328.784
329.207
329.602
329.969
330.31
330.627
330.92
331.192
331.443
331.673
331.885
332.078
332.254
332.414
332.556
332.684
332.796
332.893
332.975
333.044
333.098
333.139
333.166
333.179
333.179
333.166
333.139
333.098
333.044
332.975
332.893
332.796
332.684
332.556
332.413
332.254
332.078
331.885
331.673
331.442
331.192
330.92
330.627
330.31
329.969
329.602
329.207
328.784
328.33
327.843
327.321
326.762
326.164
325.524
324.84
324.108
323.327
322.492
321.602
320.653
319.643
318.569
317.429
316.222
314.947
313.605
312.195
310.722
309.188
307.6
305.964
304.289
302.585
300.864
300.812
302.431
304.035
305.614
307.16
308.666
310.124
311.529
312.879
314.17
315.4
316.569
317.678
318.726
319.716
320.65
321.528
322.355
323.131
323.86
324.543
325.184
325.784
326.346
326.872
327.364
327.824
328.253
328.653
329.026
329.374
329.696
329.996
330.273
330.53
330.766
330.982
331.181
331.361
331.525
331.671
331.802
331.917
332.017
332.102
332.172
332.228
332.27
332.298
332.312
332.312
332.298
332.27
332.228
332.172
332.102
332.017
331.917
331.802
331.671
331.524
331.361
331.181
330.982
330.765
330.529
330.273
329.996
329.696
329.373
329.026
328.653
328.253
327.823
327.364
326.872
326.346
325.784
325.184
324.543
323.859
323.131
322.354
321.528
320.649
319.716
318.726
317.677
316.569
315.4
314.169
312.879
311.529
310.124
308.665
307.16
305.614
304.035
302.431
300.812
300.765
302.292
303.805
305.298
306.762
308.19
309.578
310.919
312.212
313.452
314.638
315.77
316.846
317.868
318.836
319.752
320.617
321.432
322.201
322.924
323.605
324.244
324.844
325.408
325.936
326.43
326.894
327.327
327.732
328.11
328.462
328.789
329.094
329.376
329.637
329.877
330.098
330.301
330.485
330.652
330.802
330.936
331.054
331.156
331.243
331.315
331.372
331.415
331.444
331.458
331.458
331.443
331.415
331.372
331.315
331.243
331.156
331.053
330.936
330.802
330.652
330.485
330.301
330.098
329.877
329.637
329.376
329.093
328.789
328.461
328.109
327.732
327.327
326.893
326.43
325.935
325.407
324.844
324.244
323.604
322.924
322.201
321.432
320.616
319.752
318.836
317.868
316.846
315.77
314.638
313.452
312.212
310.919
309.578
308.19
306.761
305.298
303.805
302.292
300.765
300.723
302.165
303.597
305.01
306.398
307.756
309.077
310.359
311.597
312.788
313.932
315.025
316.07
317.064
318.009
318.905
319.754
320.557
321.316
322.032
322.707
323.343
323.941
324.504
325.032
325.529
325.994
326.43
326.837
327.218
327.574
327.905
328.214
328.5
328.764
329.009
329.233
329.439
329.627
329.797
329.949
330.086
330.206
330.31
330.399
330.472
330.531
330.575
330.604
330.618
330.618
330.604
330.574
330.531
330.472
330.399
330.31
330.206
330.085
329.949
329.796
329.626
329.439
329.233
329.008
328.764
328.499
328.213
327.905
327.574
327.218
326.837
326.429
325.994
325.528
325.032
324.504
323.941
323.343
322.707
322.032
321.316
320.557
319.754
318.905
318.008
317.064
316.069
315.025
313.931
312.788
311.597
310.359
309.077
307.756
306.398
305.01
303.597
302.165
300.723
300.685
302.05
303.406
304.747
306.065
307.357
308.617
309.842
311.028
312.173
313.274
314.331
315.343
316.309
317.229
318.105
318.937
319.726
320.474
321.181
321.849
322.479
323.074
323.634
324.162
324.657
325.123
325.56
325.97
326.353
326.711
327.045
327.356
327.645
327.912
328.159
328.387
328.595
328.786
328.958
329.113
329.252
329.374
329.48
329.57
329.645
329.704
329.749
329.778
329.793
329.793
329.778
329.749
329.704
329.645
329.57
329.479
329.373
329.251
329.113
328.958
328.785
328.595
328.387
328.159
327.912
327.644
327.355
327.045
326.711
326.353
325.969
325.56
325.123
324.657
324.161
323.634
323.074
322.479
321.848
321.18
320.473
319.726
318.937
318.105
317.229
316.309
315.342
314.331
313.274
312.173
311.028
309.842
308.617
307.357
306.065
304.747
303.406
302.05
300.684
300.649
301.945
303.232
304.505
305.759
306.99
308.193
309.364
310.501
311.601
312.661
313.682
314.661
315.599
316.495
317.35
318.164
318.937
319.672
320.368
321.028
321.652
322.241
322.798
323.322
323.816
324.281
324.718
325.128
325.512
325.872
326.207
326.52
326.811
327.08
327.33
327.559
327.77
327.962
328.137
328.294
328.434
328.558
328.665
328.756
328.832
328.893
328.938
328.968
328.983
328.983
328.968
328.938
328.893
328.832
328.756
328.665
328.557
328.434
328.294
328.137
327.962
327.77
327.559
327.33
327.08
326.811
326.52
326.207
325.871
325.512
325.128
324.718
324.281
323.816
323.322
322.797
322.241
321.651
321.028
320.368
319.672
318.937
318.163
317.35
316.495
315.599
314.661
313.682
312.661
311.6
310.501
309.364
308.193
306.99
305.759
304.505
303.232
301.945
300.649
300.617
301.848
303.071
304.282
305.477
306.651
307.8
308.92
310.01
311.067
312.089
313.074
314.022
314.931
315.802
316.635
317.43
318.187
318.908
319.593
320.243
320.858
321.441
321.993
322.514
323.005
323.468
323.903
324.312
324.696
325.056
325.392
325.706
325.998
326.269
326.52
326.751
326.963
327.157
327.333
327.491
327.633
327.758
327.866
327.959
328.035
328.096
328.142
328.172
328.188
328.188
328.172
328.142
328.096
328.035
327.958
327.866
327.758
327.633
327.491
327.333
327.157
326.963
326.751
326.52
326.269
325.998
325.706
325.392
325.056
324.696
324.312
323.903
323.467
323.005
322.513
321.993
321.441
320.858
320.242
319.592
318.908
318.187
317.43
316.635
315.802
314.931
314.021
313.074
312.089
311.067
310.01
308.92
307.799
306.651
305.477
304.282
303.071
301.848
300.617
300.587
301.758
302.923
304.077
305.216
306.336
307.434
308.508
309.553
310.569
311.553
312.504
313.42
314.302
315.148
315.958
316.734
317.474
318.18
318.852
319.491
320.098
320.673
321.219
321.734
322.221
322.681
323.114
323.522
323.905
324.264
324.6
324.914
325.206
325.478
325.73
325.962
326.175
326.37
326.547
326.706
326.848
326.974
327.083
327.177
327.254
327.315
327.361
327.392
327.407
327.407
327.392
327.361
327.315
327.254
327.176
327.083
326.974
326.848
326.706
326.546
326.37
326.175
325.962
325.729
325.478
325.206
324.914
324.6
324.264
323.905
323.522
323.114
322.681
322.221
321.734
321.218
320.673
320.098
319.491
318.852
318.18
317.474
316.734
315.958
315.147
314.301
313.42
312.503
311.553
310.569
309.553
308.508
307.434
306.336
305.216
304.077
302.923
301.758
300.587
300.559
301.675
302.785
303.886
304.973
306.043
307.094
308.123
309.126
310.103
311.05
311.967
312.853
313.707
314.529
315.317
316.072
316.795
317.486
318.145
318.772
319.369
319.936
320.474
320.983
321.466
321.921
322.351
322.756
323.137
323.495
323.83
324.143
324.436
324.707
324.959
325.191
325.405
325.6
325.778
325.938
326.081
326.207
326.317
326.41
326.488
326.55
326.596
326.627
326.643
326.643
326.627
326.596
326.55
326.488
326.41
326.317
326.207
326.08
325.938
325.777
325.6
325.405
325.191
324.959
324.707
324.435
324.143
323.83
323.495
323.137
322.756
322.351
321.921
321.465
320.983
320.474
319.936
319.369
318.772
318.144
317.486
316.795
316.072
315.317
314.528
313.707
312.853
311.967
311.05
310.102
309.126
308.123
307.094
306.043
304.973
303.886
302.785
301.675
300.559
300.533
301.598
302.657
303.708
304.747
305.771
306.777
307.763
308.726
309.665
310.578
311.463
312.319
313.146
313.942
314.708
315.444
316.149
316.824
317.468
318.084
318.67
319.227
319.757
320.26
320.736
321.187
321.613
322.015
322.393
322.749
323.082
323.394
323.685
323.956
324.207
324.44
324.653
324.848
325.026
325.186
325.33
325.456
325.566
325.66
325.738
325.8
325.847
325.878
325.893
325.893
325.878
325.847
325.8
325.738
325.66
325.566
325.456
325.329
325.186
325.026
324.848
324.653
324.439
324.207
323.956
323.685
323.394
323.082
322.748
322.393
322.015
321.613
321.187
320.736
320.26
319.757
319.227
318.669
318.083
317.468
316.823
316.149
315.444
314.708
313.942
313.145
312.319
311.462
310.577
309.665
308.726
307.763
306.777
305.771
304.747
303.708
302.657
301.598
300.533
300.509
301.526
302.538
303.542
304.535
305.516
306.48
307.425
308.351
309.254
310.133
310.986
311.814
312.614
313.386
314.13
314.846
315.533
316.191
316.822
317.424
317.999
318.547
319.068
319.563
320.033
320.478
320.899
321.297
321.671
322.024
322.355
322.665
322.955
323.225
323.475
323.706
323.92
324.115
324.292
324.452
324.595
324.722
324.832
324.926
325.004
325.066
325.113
325.144
325.159
325.159
325.144
325.113
325.066
325.004
324.926
324.832
324.722
324.595
324.452
324.292
324.114
323.919
323.706
323.475
323.224
322.955
322.665
322.355
322.024
321.671
321.296
320.899
320.478
320.033
319.563
319.067
318.546
317.999
317.424
316.821
316.191
315.533
314.846
314.13
313.386
312.614
311.814
310.986
310.133
309.254
308.351
307.425
306.48
305.515
304.535
303.542
302.538
301.526
300.509
300.487
301.458
302.426
303.387
304.338
305.276
306.201
307.109
307.998
308.866
309.713
310.537
311.336
312.11
312.859
313.581
314.276
314.945
315.588
316.203
316.792
317.355
317.892
318.404
318.891
319.354
319.793
320.208
320.601
320.972
321.321
321.649
321.957
322.245
322.513
322.762
322.992
323.204
323.398
323.575
323.735
323.878
324.004
324.114
324.208
324.286
324.348
324.394
324.425
324.441
324.441
324.425
324.394
324.348
324.286
324.208
324.114
324.004
323.877
323.735
323.575
323.398
323.204
322.992
322.761
322.512
322.244
321.957
321.649
321.321
320.972
320.601
320.208
319.793
319.354
318.891
318.404
317.892
317.355
316.792
316.203
315.587
314.945
314.276
313.581
312.859
312.11
311.336
310.537
309.713
308.866
307.997
307.108
306.201
305.276
304.338
303.387
302.426
301.458
300.487
300.466
301.395
302.321
303.241
304.152
305.052
305.939
306.81
307.665
308.501
309.317
310.111
310.883
311.632
312.357
313.058
313.734
314.385
315.01
315.611
316.186
316.737
317.263
317.765
318.244
318.699
319.131
319.541
319.928
320.294
320.64
320.964
321.269
321.554
321.82
322.067
322.295
322.506
322.699
322.875
323.034
323.176
323.302
323.412
323.505
323.583
323.645
323.691
323.722
323.738
323.738
323.722
323.691
323.645
323.583
323.505
323.412
323.302
323.176
323.034
322.875
322.699
322.506
322.295
322.066
321.819
321.554
321.269
320.964
320.639
320.294
319.928
319.54
319.131
318.699
318.244
317.765
317.263
316.737
316.186
315.61
315.01
314.384
313.734
313.058
312.357
311.632
310.883
310.111
309.316
308.501
307.665
306.81
305.938
305.052
304.152
303.241
302.321
301.395
300.466
300.446
301.336
302.223
303.104
303.977
304.84
305.692
306.529
307.351
308.155
308.942
309.708
310.454
311.178
311.881
312.56
313.216
313.849
314.458
315.043
315.605
316.144
316.659
317.151
317.62
318.067
318.491
318.895
319.277
319.638
319.978
320.299
320.6
320.882
321.145
321.39
321.617
321.826
322.018
322.192
322.35
322.492
322.617
322.726
322.819
322.896
322.958
323.004
323.035
323.05
323.05
323.035
323.004
322.958
322.896
322.819
322.726
322.617
322.492
322.35
322.192
322.018
321.826
321.617
321.39
321.145
320.882
320.6
320.299
319.978
319.637
319.276
318.894
318.491
318.066
317.62
317.15
316.658
316.143
315.605
315.043
314.458
313.849
313.216
312.56
311.88
311.178
310.454
309.708
308.941
308.155
307.35
306.529
305.691
304.84
303.977
303.104
302.223
301.336
300.446
300.427
301.28
302.13
302.975
303.813
304.641
305.458
306.263
307.054
307.828
308.586
309.326
310.046
310.747
311.426
312.085
312.722
313.337
313.929
314.5
315.048
315.573
316.077
316.558
317.018
317.457
317.874
318.27
318.646
319.001
319.337
319.653
319.951
320.229
320.489
320.732
320.956
321.163
321.353
321.526
321.683
321.823
321.948
322.056
322.148
322.225
322.286
322.332
322.363
322.378
322.378
322.363
322.332
322.286
322.225
322.148
322.056
321.947
321.823
321.683
321.526
321.353
321.163
320.956
320.731
320.489
320.229
319.95
319.653
319.337
319.001
318.645
318.27
317.873
317.456
317.018
316.558
316.077
315.573
315.047
314.499
313.929
313.336
312.722
312.085
311.426
310.746
310.046
309.325
308.586
307.828
307.053
306.263
305.458
304.641
303.813
302.975
302.13
301.28
300.427
300.41
301.228
302.043
302.853
303.657
304.453
305.238
306.012
306.772
307.518
308.249
308.962
309.658
310.335
310.994
311.632
312.25
312.847
313.423
313.978
314.512
315.025
315.517
315.988
316.438
316.868
317.277
317.666
318.035
318.385
318.715
319.027
319.32
319.595
319.852
320.091
320.313
320.518
320.706
320.877
321.032
321.171
321.294
321.401
321.493
321.569
321.63
321.676
321.706
321.721
321.721
321.706
321.676
321.63
321.569
321.493
321.401
321.294
321.171
321.032
320.877
320.705
320.517
320.313
320.091
319.851
319.595
319.32
319.027
318.715
318.384
318.035
317.665
317.276
316.867
316.438
315.988
315.517
315.025
314.512
313.978
313.423
312.847
312.249
311.632
310.993
310.335
309.658
308.962
308.249
307.518
306.772
306.011
305.238
304.452
303.657
302.853
302.043
301.228
300.41
300.393
301.178
301.96
302.738
303.51
304.274
305.029
305.773
306.505
307.224
307.928
308.617
309.289
309.944
310.58
311.199
311.798
312.378
312.938
313.478
313.998
314.498
314.978
315.438
315.879
316.299
316.7
317.081
317.444
317.787
318.112
318.419
318.707
318.978
319.231
319.467
319.686
319.889
320.074
320.244
320.397
320.535
320.656
320.763
320.853
320.929
320.989
321.034
321.064
321.079
321.079
321.064
321.034
320.989
320.929
320.853
320.763
320.656
320.535
320.397
320.244
320.074
319.889
319.686
319.467
319.231
318.978
318.707
318.419
318.112
317.787
317.444
317.081
316.7
316.299
315.878
315.438
314.978
314.498
313.998
313.478
312.938
312.378
311.798
311.199
310.58
309.943
309.289
308.617
307.928
307.224
306.505
305.773
305.029
304.274
303.51
302.738
301.96
301.178
300.393
300.377
301.131
301.882
302.629
303.371
304.105
304.831
305.547
306.252
306.944
307.623
308.288
308.937
309.57
310.186
310.785
311.366
311.929
312.473
312.998
313.504
313.991
314.46
314.909
315.339
315.75
316.142
316.516
316.871
317.208
317.528
317.829
318.113
318.379
318.628
318.861
319.077
319.276
319.46
319.627
319.778
319.914
320.034
320.139
320.229
320.304
320.363
320.408
320.438
320.452
320.452
320.438
320.408
320.363
320.304
320.229
320.139
320.034
319.914
319.778
319.627
319.459
319.276
319.077
318.861
318.628
318.379
318.112
317.829
317.527
317.208
316.871
316.516
316.142
315.75
315.339
314.909
314.459
313.991
313.504
312.998
312.472
311.928
311.366
310.785
310.186
309.57
308.937
308.287
307.623
306.944
306.252
305.547
304.831
304.105
303.371
302.629
301.882
301.131
300.377
300.362
301.086
301.808
302.526
303.238
303.944
304.643
305.332
306.011
306.678
307.333
307.974
308.601
309.213
309.809
310.389
310.952
311.498
312.026
312.537
313.029
313.504
313.96
314.398
314.818
315.22
315.603
315.969
316.317
316.648
316.961
317.256
317.535
317.797
318.042
318.271
318.484
318.68
318.861
319.026
319.175
319.309
319.428
319.531
319.62
319.694
319.752
319.796
319.826
319.841
319.84
319.826
319.796
319.752
319.694
319.62
319.531
319.428
319.309
319.175
319.026
318.861
318.68
318.484
318.271
318.042
317.797
317.535
317.256
316.961
316.647
316.317
315.969
315.603
315.219
314.818
314.398
313.96
313.503
313.029
312.536
312.026
311.498
310.952
310.389
309.809
309.213
308.601
307.974
307.332
306.678
306.01
305.332
304.643
303.944
303.238
302.526
301.808
301.086
300.362
300.348
301.044
301.737
302.427
303.113
303.792
304.464
305.127
305.781
306.424
307.056
307.674
308.28
308.871
309.448
310.01
310.555
311.085
311.597
312.093
312.572
313.034
313.479
313.906
314.315
314.707
315.082
315.44
315.781
316.104
316.411
316.701
316.975
317.232
317.473
317.698
317.907
318.1
318.278
318.44
318.587
318.719
318.836
318.938
319.026
319.098
319.156
319.2
319.229
319.243
319.243
319.229
319.2
319.156
319.098
319.026
318.938
318.836
318.719
318.587
318.44
318.277
318.1
317.906
317.697
317.473
317.232
316.974
316.701
316.411
316.104
315.781
315.44
315.082
314.707
314.315
313.905
313.478
313.034
312.572
312.093
311.597
311.084
310.555
310.009
309.448
308.871
308.28
307.674
307.055
306.424
305.781
305.127
304.464
303.792
303.113
302.427
301.737
301.044
300.348
300.335
301.003
301.67
302.334
302.993
303.646
304.293
304.932
305.562
306.182
306.791
307.388
307.973