/*--------------------------------*- C++ -*----------------------------------*\
  =========                 |
  \\      /  F ield         | OpenFOAM: The Open Source CFD Toolbox
   \\    /   O peration     | Website:  https://openfoam.org
    \\  /    A nd           | Version:  10
     \\/     M anipulation  |
\*---------------------------------------------------------------------------*/
FoamFile
{
    format      ascii;
    class       volScalarField;
    location    "3.5";
    object      ddt0(T);
}
// * * * * * * * * * * * * * * * * * * * * * * * * * * * * * * * * * * * * * //

dimensions      [0 0 -1 1 0 0 0];

internalField   nonuniform List<scalar> 
10000
(
7145.06
3593.12
3537.69
3593.5
3611.88
3616.76
3618.13
3618.57
3618.76
3618.86
3618.94
3619
3619.06
3619.12
3619.17
3619.21
3619.26
3619.29
3619.33
3619.35
3619.38
3619.4
3619.41
3619.43
3619.44
3619.44
3619.45
3619.45
3619.45
3619.44
3619.44
3619.43
3619.42
3619.41
3619.4
3619.39
3619.38
3619.36
3619.35
3619.34
3619.32
3619.31
3619.3
3619.29
3619.27
3619.26
3619.25
3619.24
3619.23
3619.22
3619.21
3619.2
3619.2
3619.19
3619.18
3619.18
3619.17
3619.17
3619.16
3619.16
3619.16
3619.15
3619.15
3619.15
3619.14
3619.14
3619.14
3619.14
3619.14
3619.14
3619.13
3619.13
3619.13
3619.13
3619.13
3619.13
3619.13
3619.13
3619.13
3619.13
3619.13
3619.13
3619.13
3619.13
3619.13
3619.13
3619.12
3619.12
3619.12
3619.12
3619.12
3619.12
3619.11
3619.1
3619.01
3618.62
3616.84
3610.76
3622.9
4255.94
4145.05
-732.192
-694.001
-549.686
-502.099
-489.138
-485.506
-484.327
-483.831
-483.539
-483.316
-483.122
-482.945
-482.783
-482.633
-482.496
-482.373
-482.263
-482.165
-482.081
-482.008
-481.948
-481.899
-481.861
-481.833
-481.814
-481.803
-481.801
-481.806
-481.817
-481.833
-481.855
-481.881
-481.91
-481.943
-481.977
-482.014
-482.052
-482.09
-482.129
-482.168
-482.206
-482.244
-482.281
-482.317
-482.351
-482.384
-482.415
-482.445
-482.473
-482.499
-482.524
-482.547
-482.568
-482.587
-482.605
-482.621
-482.636
-482.65
-482.662
-482.673
-482.683
-482.691
-482.699
-482.706
-482.712
-482.718
-482.723
-482.727
-482.731
-482.734
-482.737
-482.74
-482.742
-482.744
-482.746
-482.748
-482.75
-482.751
-482.753
-482.755
-482.756
-482.758
-482.76
-482.762
-482.764
-482.766
-482.768
-482.771
-482.774
-482.777
-482.782
-482.793
-482.831
-482.983
-483.653
-486.534
-497.249
-519.58
-393.201
4073.67
-726.75
-572.761
-377.255
-312.721
-294.665
-289.475
-287.746
-286.99
-286.528
-286.165
-285.845
-285.553
-285.282
-285.034
-284.806
-284.601
-284.417
-284.255
-284.114
-283.993
-283.892
-283.81
-283.746
-283.698
-283.667
-283.649
-283.645
-283.652
-283.67
-283.698
-283.734
-283.776
-283.825
-283.879
-283.936
-283.997
-284.06
-284.124
-284.188
-284.253
-284.317
-284.38
-284.441
-284.501
-284.558
-284.613
-284.665
-284.715
-284.761
-284.805
-284.846
-284.884
-284.919
-284.951
-284.981
-285.008
-285.033
-285.055
-285.075
-285.093
-285.11
-285.124
-285.138
-285.149
-285.159
-285.169
-285.177
-285.184
-285.19
-285.196
-285.2
-285.205
-285.209
-285.212
-285.215
-285.218
-285.221
-285.224
-285.227
-285.229
-285.232
-285.235
-285.238
-285.241
-285.244
-285.248
-285.252
-285.256
-285.26
-285.265
-285.273
-285.286
-285.323
-285.446
-285.922
-287.838
-294.999
-314.568
-304.123
4115.37
-608.45
-405.985
-189.728
-117.747
-97.1779
-91.1029
-89.0027
-88.0377
-87.4201
-86.9235
-86.4817
-86.0757
-85.7006
-85.3553
-85.0399
-84.7546
-84.4994
-84.2741
-84.078
-83.9105
-83.7704
-83.6565
-83.5674
-83.5016
-83.4574
-83.4333
-83.4275
-83.4382
-83.4637
-83.5024
-83.5525
-83.6125
-83.6809
-83.7561
-83.8367
-83.9216
-84.0093
-84.099
-84.1895
-84.2799
-84.3696
-84.4576
-84.5435
-84.6267
-84.7069
-84.7836
-84.8567
-84.9258
-84.991
-85.0522
-85.1092
-85.1623
-85.2113
-85.2565
-85.298
-85.336
-85.3705
-85.4018
-85.4302
-85.4556
-85.4785
-85.499
-85.5172
-85.5335
-85.5478
-85.5606
-85.5718
-85.5817
-85.5905
-85.5982
-85.605
-85.6111
-85.6166
-85.6215
-85.626
-85.6301
-85.6341
-85.6379
-85.6416
-85.6453
-85.6491
-85.6529
-85.657
-85.6613
-85.6659
-85.6708
-85.6761
-85.6818
-85.6881
-85.6953
-85.7047
-85.7197
-85.7515
-85.8344
-86.0858
-86.9382
-89.8904
-98.0488
-99.8243
4129.96
-568.723
-350.686
-127.245
-52.3739
-30.6758
-24.1196
-21.7658
-20.6272
-19.8668
-19.2419
-18.6814
-18.1649
-17.6872
-17.2475
-16.8457
-16.4823
-16.1572
-15.8702
-15.6205
-15.407
-15.2287
-15.0837
-14.9704
-14.8869
-14.831
-14.8008
-14.7939
-14.8082
-14.8415
-14.8916
-14.9564
-15.0338
-15.1218
-15.2187
-15.3225
-15.4316
-15.5445
-15.6598
-15.7761
-15.8924
-16.0075
-16.1206
-16.231
-16.3379
-16.4408
-16.5393
-16.6331
-16.7219
-16.8056
-16.884
-16.9573
-17.0253
-17.0883
-17.1463
-17.1996
-17.2482
-17.2926
-17.3328
-17.3691
-17.4018
-17.4311
-17.4574
-17.4808
-17.5016
-17.52
-17.5363
-17.5507
-17.5635
-17.5747
-17.5845
-17.5933
-17.6011
-17.608
-17.6143
-17.62
-17.6253
-17.6303
-17.6351
-17.6399
-17.6445
-17.6493
-17.6543
-17.6594
-17.6649
-17.6707
-17.6769
-17.6836
-17.6909
-17.6988
-17.7078
-17.7188
-17.7349
-17.764
-17.8262
-17.97
-18.3308
-19.3146
-21.6155
-22.4965
4133.95
-557.8
-335.161
-109.351
-33.377
-11.1567
-4.31707
-1.77386
-0.483875
0.410526
1.15905
1.83497
2.4591
3.0367
3.56857
4.0544
4.49383
4.88685
5.23382
5.53559
5.79335
6.0087
6.18351
6.31992
6.42023
6.48693
6.52259
6.52985
6.51139
6.46988
6.40795
6.3282
6.23312
6.12512
6.00651
5.87944
5.74594
5.60789
5.46701
5.32488
5.1829
5.04231
4.90421
4.76953
4.63907
4.51348
4.39328
4.27888
4.17056
4.06851
3.97282
3.88352
3.80054
3.72376
3.65303
3.58812
3.5288
3.47479
3.4258
3.38154
3.34168
3.30592
3.27393
3.24542
3.22008
3.19762
3.17775
3.16022
3.14476
3.13113
3.11911
3.10848
3.09904
3.09061
3.08301
3.07608
3.06966
3.06363
3.05784
3.05218
3.04654
3.04081
3.03489
3.02871
3.02217
3.01521
3.00775
2.99973
2.99107
2.98165
2.9712
2.95897
2.94271
2.91648
2.86658
2.7672
2.57746
2.23688
1.77816
1.71736
4135.09
-554.696
-330.655
-104.017
-27.5773
-5.07636
1.95849
4.65845
6.08662
7.10834
7.97603
8.76369
9.49221
10.1667
10.7878
11.355
11.8679
12.3264
12.7311
13.0829
13.3831
13.6337
13.8369
13.995
14.1109
14.1874
14.2275
14.2343
14.211
14.1606
14.0864
13.9912
13.8782
13.75
13.6094
13.4589
13.301
13.1378
12.9713
12.8034
12.6357
12.4698
12.3068
12.1479
11.994
11.8459
11.7042
11.5693
11.4416
11.3213
11.2086
11.1033
11.0056
10.9151
10.8318
10.7553
10.6854
10.6218
10.5641
10.512
10.4651
10.423
10.3853
10.3517
10.3219
10.2955
10.2721
10.2515
10.2333
10.2173
10.2032
10.1907
10.1796
10.1698
10.1609
10.1528
10.1453
10.1383
10.1316
10.125
10.1185
10.1119
10.105
10.0979
10.0903
10.0823
10.0737
10.0645
10.0545
10.0437
10.0319
10.0187
10.0028
9.98021
9.94168
9.86928
9.74152
9.56518
9.49866
9.73205
4135.47
-553.66
-329.116
-102.126
-25.4383
-2.74936
4.44217
7.28195
8.83958
9.98297
10.9653
11.8607
12.6899
13.4578
14.1647
14.8101
15.3935
15.9149
16.3747
16.7741
17.1147
17.3986
17.6283
17.8066
17.9366
18.0216
18.065
18.0704
18.0414
17.9815
17.8944
17.7834
17.652
17.5033
17.3405
17.1665
16.984
16.7956
16.6035
16.4099
16.2167
16.0255
15.8378
15.6548
15.4776
15.3072
15.1441
14.9889
14.842
14.7037
14.574
14.453
14.3405
14.2366
14.1408
14.0529
13.9726
13.8995
13.8332
13.7733
13.7193
13.671
13.6277
13.5892
13.5549
13.5246
13.4977
13.4741
13.4532
13.4349
13.4187
13.4044
13.3918
13.3805
13.3703
13.3611
13.3527
13.3447
13.3371
13.3297
13.3223
13.3149
13.3072
13.2992
13.2908
13.2818
13.2722
13.2618
13.2506
13.2386
13.2256
13.2113
13.1952
13.1751
13.1453
13.0921
12.994
12.8454
12.7861
13.184
4135.64
-553.203
-328.412
-101.218
-24.3585
-1.51808
5.81202
8.78156
10.4619
11.7217
12.814
13.8128
14.7385
15.5958
16.3848
17.1049
17.7555
18.3366
18.8487
19.2931
19.6716
19.9866
20.2408
20.4374
20.5799
20.672
20.7176
20.7205
20.6849
20.6148
20.5141
20.3867
20.2365
20.067
19.8818
19.6841
19.477
19.2634
19.0457
18.8265
18.6077
18.3914
18.1791
17.9722
17.7719
17.5793
17.395
17.2198
17.0539
16.8976
16.7512
16.6146
16.4877
16.3704
16.2623
16.1631
16.0725
15.99
15.9152
15.8477
15.7869
15.7323
15.6835
15.6401
15.6015
15.5673
15.5371
15.5104
15.4869
15.4663
15.4481
15.4321
15.4179
15.4052
15.3939
15.3836
15.3742
15.3653
15.3569
15.3488
15.3407
15.3325
15.3241
15.3153
15.306
15.2962
15.2856
15.2743
15.262
15.2489
15.2346
15.2193
15.2024
15.1832
15.1583
15.1175
15.0368
14.8839
14.7488
15.314
4135.74
-552.92
-327.961
-100.612
-23.6094
-0.634089
6.82424
9.91613
11.7132
13.0839
14.2812
15.3786
16.3963
17.3386
18.2057
18.9966
19.7108
20.3482
20.9094
21.3959
21.8097
22.1533
22.4299
22.643
22.7963
22.8939
22.9402
22.9396
22.8964
22.8151
22.7001
22.5558
22.3863
22.1957
21.9879
21.7663
21.5345
21.2956
21.0524
20.8076
20.5635
20.3222
20.0854
19.8548
19.6317
19.4171
19.2119
19.0167
18.8321
18.6582
18.4952
18.3432
18.2021
18.0715
17.9513
17.841
17.7402
17.6485
17.5654
17.4903
17.4227
17.3621
17.3079
17.2596
17.2167
17.1787
17.1452
17.1156
17.0896
17.0667
17.0465
17.0288
17.0131
16.9992
16.9867
16.9754
16.9651
16.9554
16.9462
16.9374
16.9286
16.9197
16.9107
16.9012
16.8913
16.8807
16.8693
16.8571
16.844
16.8298
16.8145
16.7981
16.7803
16.7609
16.738
16.7041
16.6343
16.4729
16.2507
16.9924
4135.82
-552.697
-327.597
-100.113
-22.9802
0.120268
7.69915
10.9068
12.8147
14.2907
15.5875
16.7784
17.8832
18.906
19.8467
20.7043
21.4781
22.1682
22.7752
23.3007
23.7469
24.1166
24.4132
24.6405
24.8028
24.9044
24.95
24.9444
24.8926
24.7992
24.6693
24.5075
24.3183
24.1062
23.8754
23.6299
23.3733
23.1091
22.8404
22.5701
22.3007
22.0346
21.7736
21.5196
21.2738
21.0375
20.8116
20.5968
20.3935
20.2023
20.023
19.8559
19.7006
19.5571
19.4249
19.3037
19.193
19.0922
19.0008
18.9183
18.844
18.7774
18.7179
18.6649
18.6178
18.5761
18.5393
18.5069
18.4784
18.4533
18.4312
18.4118
18.3947
18.3795
18.366
18.3537
18.3425
18.3321
18.3223
18.3128
18.3034
18.294
18.2844
18.2744
18.2638
18.2526
18.2406
18.2277
18.2138
18.1988
18.1826
18.1653
18.1466
18.1265
18.1041
18.0738
18.0112
17.8434
17.5416
18.4501
4135.88
-552.499
-327.272
-99.6631
-22.4093
0.808692
8.50118
11.8182
13.8306
15.4061
16.7969
18.0758
19.2625
20.3608
21.3704
22.2902
23.1195
23.8584
24.5076
25.0688
25.5444
25.9374
26.2516
26.491
26.6602
26.764
26.8075
26.7957
26.7341
26.6278
26.4821
26.3021
26.0928
25.8588
25.6049
25.3351
25.0537
24.7642
24.4701
24.1745
23.88
23.5893
23.3043
23.027
22.7588
22.5011
22.2547
22.0206
21.7991
21.5906
21.3954
21.2133
21.0442
20.8879
20.744
20.612
20.4915
20.3818
20.2824
20.1926
20.1118
20.0394
19.9746
19.917
19.8658
19.8205
19.7805
19.7453
19.7143
19.6871
19.6632
19.6422
19.6237
19.6074
19.5928
19.5796
19.5676
19.5566
19.5461
19.5361
19.5262
19.5163
19.5062
19.4957
19.4847
19.473
19.4605
19.447
19.4325
19.4169
19.4
19.3819
19.3624
19.3416
19.3191
19.2905
19.2329
19.0619
18.695
19.7465
4135.94
-552.317
-326.972
-99.2463
-21.8791
1.44915
9.24837
12.6681
14.7787
16.4475
17.9262
19.2875
20.5506
21.7192
22.7928
23.7702
24.6507
25.4343
26.1219
26.7154
27.2173
27.6308
27.96
28.2092
28.3833
28.4875
28.5272
28.508
28.4354
28.3152
28.153
27.9542
27.7242
27.468
27.1906
26.8966
26.5903
26.2755
25.9561
25.6352
25.3159
25.0008
24.6921
24.3917
24.1015
23.8226
23.5561
23.3028
23.0634
22.8381
22.6271
22.4303
22.2477
22.0789
21.9234
21.7809
21.6508
21.5324
21.4251
21.3282
21.241
21.1628
21.093
21.0308
20.9756
20.9268
20.8837
20.8457
20.8124
20.7831
20.7575
20.7349
20.7151
20.6976
20.682
20.6681
20.6554
20.6437
20.6327
20.6222
20.6119
20.6016
20.5912
20.5803
20.569
20.5569
20.544
20.5302
20.5153
20.4991
20.4818
20.4631
20.443
20.4216
20.3987
20.3711
20.317
20.1455
19.7307
20.8945
4136
-552.149
-326.692
-98.8583
-21.3852
2.04607
9.94498
13.4605
15.6627
17.4184
18.9789
20.4166
21.7505
22.9839
24.1164
25.1466
26.0738
26.898
27.6203
28.2425
28.7674
29.1985
29.54
29.7967
29.9736
30.0764
30.1107
30.0826
29.9979
29.8629
29.6833
29.4651
29.2139
28.9352
28.6342
28.3157
27.9844
27.6445
27.2998
26.9539
26.6099
26.2706
25.9385
25.6155
25.3034
25.0036
24.7174
24.4454
24.1883
23.9464
23.7199
23.5088
23.3129
23.1318
22.9651
22.8123
22.6727
22.5458
22.4307
22.3269
22.2335
22.1497
22.0749
22.0083
21.9492
21.8969
21.8508
21.8102
21.7746
21.7433
21.7159
21.6919
21.6709
21.6523
21.6358
21.6211
21.6077
21.5955
21.584
21.5731
21.5625
21.5519
21.5412
21.5302
21.5186
21.5063
21.4932
21.4791
21.4639
21.4475
21.4298
21.4108
21.3903
21.3685
21.3454
21.3183
21.2669
21.0971
20.6519
21.8956
4136.05
-551.992
-326.433
-98.4984
-20.927
2.59999
10.5914
14.1958
16.4827
18.3186
19.9546
21.4626
22.8614
24.1543
25.3404
26.4185
27.3878
28.2484
29.0013
29.6486
30.1932
30.6389
30.9901
31.2518
31.4294
31.5289
31.5563
31.5178
31.42
31.269
31.0714
30.8331
30.5604
30.2588
29.9339
29.5909
29.2346
28.8696
28.4998
28.1291
27.7606
27.3975
27.0421
26.6968
26.3632
26.043
25.7373
25.4469
25.1724
24.9143
24.6727
24.4475
24.2386
24.0455
23.8678
23.7049
23.5562
23.4209
23.2983
23.1877
23.0882
22.999
22.9193
22.8484
22.7855
22.7299
22.6808
22.6377
22.5998
22.5667
22.5376
22.5122
22.4899
22.4704
22.453
22.4376
22.4237
22.4109
22.3991
22.3879
22.377
22.3662
22.3554
22.3442
22.3325
22.3202
22.307
22.2928
22.2775
22.261
22.2432
22.224
22.2034
22.1814
22.1581
22.1314
22.0823
21.9161
21.4563
22.7491
4136.1
-551.849
-326.194
-98.1666
-20.5046
3.11051
11.187
14.8731
17.2379
19.1473
20.8523
22.4244
23.8822
25.2288
26.4633
27.5844
28.5911
29.4837
30.2633
30.932
31.4931
31.9503
32.3085
32.5728
32.749
32.8433
32.8621
32.8121
32.6998
32.5321
32.3155
32.0567
31.7619
31.4371
31.0882
30.7206
30.3394
29.9493
29.5546
29.1592
28.7666
28.3799
28.0017
27.6344
27.2797
26.9394
26.6146
26.3061
26.0147
25.7408
25.4843
25.2454
25.0237
24.8189
24.6305
24.4577
24.3001
24.1567
24.0268
23.9095
23.8041
23.7096
23.6252
23.5502
23.4836
23.4247
23.3728
23.3272
23.2872
23.2522
23.2216
23.1948
23.1714
23.1508
23.1327
23.1166
23.1022
23.089
23.0769
23.0654
23.0544
23.0435
23.0326
23.0214
23.0097
22.9974
22.9843
22.9702
22.955
22.9386
22.9209
22.9017
22.8811
22.8592
22.836
22.8097
22.7626
22.6017
22.141
23.4549
4136.15
-551.717
-325.975
-97.8633
-20.1184
3.57723
11.7315
15.492
17.9275
19.9037
21.6711
23.301
24.8119
26.2066
27.4842
28.6432
29.6828
30.6031
31.4054
32.0919
32.666
33.1319
33.4943
33.7588
33.9315
34.0188
34.0275
33.9644
33.8367
33.6512
33.4151
33.1351
32.8178
32.4696
32.0965
31.7043
31.2982
30.8832
30.4638
30.044
29.6276
29.2176
28.8169
28.428
28.0526
27.6926
27.349
27.0229
26.715
26.4255
26.1546
25.9023
25.6682
25.452
25.253
25.0708
24.9044
24.7531
24.6161
24.4924
24.3812
24.2816
24.1926
24.1135
24.0433
23.9813
23.9267
23.8787
23.8366
23.7998
23.7677
23.7396
23.7151
23.6937
23.6748
23.6582
23.6433
23.6298
23.6174
23.6057
23.5946
23.5837
23.5728
23.5617
23.5502
23.538
23.5251
23.5112
23.4963
23.4801
23.4627
23.4438
23.4235
23.4018
23.3788
23.3532
23.3081
23.1539
22.7035
24.0141
4136.19
-551.598
-325.777
-97.5885
-19.7685
4.00004
12.2245
16.0522
18.5514
20.5876
22.4109
24.0925
25.6505
27.0877
28.4031
29.5951
30.6628
31.6065
32.4275
33.1283
33.7122
34.1837
34.5477
34.8101
34.9772
35.0558
35.0527
34.9754
34.831
34.627
34.3706
34.0689
33.7287
33.3569
32.9595
32.5426
32.1118
31.672
31.2281
30.7843
30.3443
29.9115
29.4888
29.0786
28.6829
28.3036
27.9417
27.5984
27.2743
26.9696
26.6847
26.4193
26.1731
25.9458
25.7367
25.5452
25.3703
25.2114
25.0674
24.9375
24.8208
24.7162
24.6228
24.5397
24.4661
24.4011
24.3438
24.2935
24.2494
24.2109
24.1773
24.148
24.1225
24.1002
24.0807
24.0635
24.0482
24.0344
24.0218
24.0101
23.9989
23.9881
23.9773
23.9664
23.9551
23.9432
23.9306
23.9171
23.9025
23.8868
23.8698
23.8514
23.8315
23.8103
23.7879
23.7629
23.72
23.5739
23.1426
24.4295
4136.22
-551.491
-325.6
-97.3421
-19.4547
4.37921
12.6665
16.5542
19.1102
21.1996
23.0723
24.7994
26.3986
27.8728
29.2207
30.4408
31.5321
32.495
33.331
34.0424
34.6329
35.107
35.4701
35.7281
35.8877
35.9557
35.9395
35.8466
35.6846
35.4612
35.1838
34.86
34.4967
34.101
33.6793
33.2378
32.7823
32.318
31.8499
31.3823
30.9192
30.4639
30.0195
29.5885
29.173
28.7748
28.3951
28.035
27.6951
27.3757
27.0771
26.799
26.5411
26.303
26.084
25.8835
25.7004
25.5341
25.3834
25.2475
25.1253
25.0159
24.9182
24.8314
24.7544
24.6864
24.6266
24.5741
24.5281
24.488
24.453
24.4226
24.3961
24.373
24.3528
24.3351
24.3195
24.3055
24.2928
24.281
24.2699
24.2592
24.2486
24.238
24.227
24.2155
24.2033
24.1903
24.1762
24.1611
24.1447
24.1269
24.1077
24.0872
24.0655
24.0414
24.0007
23.8637
23.4582
24.7049
4136.25
-551.397
-325.442
-97.1235
-19.1763
4.71541
13.0583
16.9988
19.6047
21.7407
23.6566
25.423
27.0578
28.5635
29.9388
31.1821
32.2927
33.2707
34.1177
34.8364
35.4304
35.9044
36.264
36.5155
36.6655
36.7213
36.6905
36.5809
36.4004
36.1568
35.858
35.5115
35.1249
34.7051
34.2591
33.7931
33.3131
32.8246
32.3326
31.8416
31.3557
30.8784
30.4127
29.9614
29.5266
29.1099
28.7129
28.3364
27.9811
27.6475
27.3355
27.0451
26.7759
26.5273
26.2988
26.0895
25.8986
25.725
25.5679
25.4261
25.2987
25.1847
25.0829
24.9924
24.9122
24.8414
24.7791
24.7244
24.6766
24.6349
24.5986
24.5671
24.5397
24.5159
24.4951
24.477
24.4611
24.4469
24.4341
24.4223
24.4113
24.4008
24.3905
24.3802
24.3696
24.3586
24.347
24.3345
24.3211
24.3067
24.291
24.2741
24.2557
24.2361
24.2153
24.1922
24.154
24.027
23.6517
24.8455
4136.28
-551.314
-325.304
-96.932
-18.9326
5.0097
13.401
17.3875
20.0366
22.2128
24.1656
25.9655
27.6302
29.1621
30.5599
31.8219
32.9473
33.9365
34.791
35.5135
36.108
36.5793
36.933
37.1758
37.3144
37.3565
37.3099
37.1825
36.9825
36.7181
36.3972
36.0279
35.6176
35.1739
34.7035
34.2131
33.7089
33.1964
32.6808
32.1669
31.6586
31.1597
30.6733
30.2022
29.7484
29.3139
28.8999
28.5075
28.1374
27.7898
27.465
27.1626
26.8824
26.6238
26.386
26.1683
25.9697
25.7892
25.6258
25.4784
25.346
25.2275
25.1217
25.0277
24.9444
24.8709
24.8062
24.7495
24.6999
24.6567
24.6192
24.5866
24.5583
24.5338
24.5126
24.4941
24.4779
24.4635
24.4507
24.439
24.4282
24.418
24.408
24.3981
24.388
24.3775
24.3665
24.3547
24.3421
24.3285
24.3137
24.2977
24.2804
24.2618
24.242
24.2202
24.1845
24.0679
23.726
24.8574
4136.31
-551.243
-325.185
-96.7669
-18.7224
5.26345
13.6963
17.722
20.4079
22.618
24.6018
26.4295
28.1187
29.6718
31.0873
32.3635
33.4997
34.4961
35.3546
36.0779
36.67
37.136
37.4816
37.7137
37.8393
37.8662
37.8025
37.6563
37.4361
37.1502
36.807
36.4144
35.9804
35.5126
35.018
34.5035
33.9753
33.4391
32.9004
32.3638
31.8337
31.3137
30.8071
30.3166
29.8445
29.3925
28.9621
28.5543
28.1698
27.8088
27.4715
27.1576
26.8667
26.5983
26.3516
26.1258
25.9198
25.7326
25.5632
25.4105
25.2732
25.1503
25.0407
24.9433
24.8571
24.7809
24.714
24.6554
24.6041
24.5595
24.5207
24.4871
24.4581
24.433
24.4112
24.3924
24.376
24.3615
24.3487
24.3372
24.3265
24.3166
24.307
24.2975
24.288
24.2781
24.2678
24.2568
24.2451
24.2323
24.2186
24.2036
24.1874
24.17
24.1514
24.131
24.098
23.9921
23.6848
24.7477
4136.33
-551.182
-325.085
-96.6268
-18.5442
5.47832
13.9461
18.0047
20.721
22.9591
24.9682
26.8183
28.5269
30.0962
31.5248
32.811
33.954
34.9542
35.8133
36.5344
37.1214
37.5797
37.9152
38.1347
38.2457
38.2561
38.1742
38.0083
37.7672
37.4594
37.0933
36.6774
36.2196
35.7278
35.2092
34.6707
34.1188
33.5594
32.9979
32.4393
31.8878
31.3472
30.8209
30.3115
29.8215
29.3527
28.9064
28.4837
28.0852
27.7112
27.3618
27.0368
26.7358
26.458
26.2027
25.969
25.7559
25.5623
25.3871
25.2292
25.0873
24.9603
24.847
24.7463
24.6572
24.5786
24.5095
24.449
24.3961
24.3501
24.3102
24.2757
24.2459
24.2202
24.198
24.1788
24.1622
24.1477
24.135
24.1236
24.1132
24.1036
24.0944
24.0855
24.0765
24.0673
24.0578
24.0476
24.0368
24.0251
24.0124
23.9986
23.9836
23.9675
23.9503
23.9313
23.9011
23.8059
23.5334
24.5241
4136.34
-551.132
-325.001
-96.5108
-18.3966
5.65621
14.1526
18.2379
20.9788
23.2393
25.2681
27.1354
28.8585
30.4395
31.8769
33.1691
34.3152
35.3158
36.1725
36.8885
37.468
37.9163
38.2397
38.445
38.54
38.5326
38.4315
38.2452
37.9826
37.6524
37.2633
36.8239
36.3423
35.8266
35.2841
34.722
34.1468
33.5646
32.9808
32.4006
31.8282
31.2676
30.7221
30.1945
29.6872
29.202
28.7403
28.3032
27.8912
27.5048
27.1438
26.8081
26.4971
26.2103
25.9468
25.7056
25.4857
25.2859
25.1052
24.9422
24.7959
24.6649
24.5481
24.4443
24.3525
24.2715
24.2003
24.138
24.0836
24.0363
23.9953
23.9599
23.9294
23.9031
23.8805
23.8611
23.8443
23.8298
23.8171
23.8059
23.7958
23.7865
23.7778
23.7694
23.7611
23.7527
23.7439
23.7347
23.7248
23.7141
23.7026
23.69
23.6764
23.6616
23.6459
23.6285
23.6011
23.5163
23.2777
24.1951
4136.36
-551.092
-324.934
-96.4172
-18.2777
5.79918
14.3182
18.4245
21.1844
23.4618
25.5054
27.385
29.118
30.7064
32.1486
33.443
34.5888
35.5865
36.4379
37.1463
37.7159
38.1523
38.4617
38.6513
38.729
38.7029
38.5817
38.3743
38.0896
37.7368
37.3245
36.8615
36.3563
35.8168
35.2508
34.6654
34.0673
33.4627
32.8572
32.2559
31.6632
31.0831
30.519
29.9738
29.4497
28.9487
28.4722
28.0211
27.5962
27.1977
26.8255
26.4795
26.1591
25.8636
25.5922
25.3438
25.1173
24.9117
24.7256
24.5579
24.4073
24.2725
24.1523
24.0456
23.9511
23.8678
23.7947
23.7306
23.6748
23.6263
23.5843
23.548
23.5168
23.49
23.467
23.4474
23.4305
23.4159
23.4034
23.3923
23.3825
23.3737
23.3655
23.3576
23.35
23.3423
23.3344
23.3261
23.3172
23.3076
23.2973
23.286
23.2738
23.2605
23.2462
23.2305
23.2059
23.1311
22.9249
23.7693
4136.37
-551.061
-324.881
-96.3448
-18.1858
5.90948
14.4456
18.5673
21.3411
23.6305
25.6839
27.5714
29.31
30.9017
32.345
33.6381
34.7804
35.7723
36.6159
37.3143
37.8719
38.2945
38.5884
38.7609
38.8201
38.7743
38.6323
38.4033
38.0963
37.7205
37.2849
36.7985
36.2697
35.7068
35.1175
34.5092
33.8887
33.2622
32.6355
32.0137
31.4013
30.8023
30.2202
29.6579
29.1177
28.6014
28.1106
27.6461
27.2087
26.7986
26.4158
26.0599
25.7304
25.4266
25.1476
24.8923
24.6596
24.4483
24.2572
24.0849
23.9302
23.7918
23.6684
23.5588
23.4619
23.3764
23.3014
23.2357
23.1785
23.1288
23.0858
23.0487
23.0169
22.9896
22.9663
22.9464
22.9294
22.9149
22.9024
22.8916
22.8821
22.8736
22.8659
22.8587
22.8517
22.8448
22.8377
22.8304
22.8226
22.8141
22.805
22.7951
22.7842
22.7725
22.7598
22.7457
22.7239
22.6585
22.4826
23.2561
4136.37
-551.038
-324.843
-96.2919
-18.1189
5.98941
14.5374
18.6697
21.4524
23.7491
25.808
27.6991
29.4393
31.0307
32.4716
33.7603
34.8961
35.8797
36.7129
37.3991
37.943
38.3501
38.627
38.7813
38.821
38.7547
38.5914
38.3403
38.0107
37.6119
37.1531
36.6433
36.0912
35.5051
34.893
34.2623
33.6198
32.972
32.3247
31.6829
31.0514
30.4342
29.8347
29.2559
28.7001
28.1691
27.6646
27.1873
26.7379
26.3167
25.9236
25.5583
25.2201
24.9084
24.6221
24.3602
24.1216
23.9049
23.7089
23.5323
23.3737
23.2318
23.1054
22.9931
22.8938
22.8063
22.7294
22.6622
22.6036
22.5528
22.5089
22.471
22.4386
22.4109
22.3872
22.3671
22.35
22.3355
22.3232
22.3126
22.3034
22.2954
22.2882
22.2815
22.2752
22.2691
22.2629
22.2565
22.2497
22.2425
22.2346
22.226
22.2166
22.2064
22.1953
22.183
22.1638
22.1073
21.959
22.6645
4136.38
-551.023
-324.818
-96.2571
-18.0751
6.04139
14.5965
18.7346
21.5219
23.8216
25.882
27.7728
29.5111
31.0987
32.5341
33.8155
34.9423
35.915
36.7358
37.408
37.9363
38.3265
38.5853
38.7203
38.7398
38.6524
38.4673
38.1938
37.8414
37.4196
36.9376
36.4047
35.8295
35.2207
34.5862
33.9335
33.2697
32.6012
31.9337
31.2727
30.6227
29.9879
29.3716
28.7769
28.2061
27.6611
27.1433
26.6537
26.1929
25.7611
25.3582
24.9839
24.6374
24.3181
24.0249
23.7568
23.5124
23.2906
23.09
22.9093
22.747
22.6018
22.4725
22.3576
22.256
22.1665
22.0879
22.0192
21.9594
21.9075
21.8627
21.8242
21.7911
21.763
21.739
21.7187
21.7016
21.6871
21.6749
21.6645
21.6557
21.648
21.6413
21.6353
21.6297
21.6243
21.619
21.6135
21.6078
21.6017
21.5951
21.5878
21.5799
21.5712
21.5617
21.5511
21.5345
21.4861
21.3628
22.0041
4136.38
-551.015
-324.805
-96.2387
-18.0523
6.06785
14.6257
18.7655
21.5532
23.8521
25.9102
27.7974
29.5304
31.1112
32.5383
33.8098
34.9251
35.8849
36.6913
37.3478
37.8592
38.2312
38.4709
38.5858
38.5843
38.4754
38.2681
37.9721
37.5969
37.1521
36.6472
36.0914
35.4936
34.8625
34.2061
33.5321
32.8474
32.1588
31.4719
30.7923
30.1245
29.4726
28.8402
28.2302
27.6451
27.0866
26.5562
26.0548
25.5831
25.1411
24.7289
24.3459
23.9916
23.665
23.3653
23.0911
22.8414
22.6147
22.4097
22.225
22.0593
21.911
21.7789
21.6616
21.5578
21.4664
21.3862
21.3161
21.2551
21.2022
21.1566
21.1173
21.0837
21.0551
21.0309
21.0104
20.9932
20.9788
20.9666
20.9565
20.948
20.9407
20.9345
20.929
20.9241
20.9195
20.915
20.9105
20.9059
20.9009
20.8955
20.8896
20.883
20.8759
20.868
20.8591
20.8451
20.804
20.7029
21.2842
4136.38
-551.013
-324.802
-96.2353
-18.0486
6.07122
14.6278
18.7655
21.5501
23.8446
25.8972
27.7775
29.5024
31.0737
32.4899
33.7492
34.851
35.7961
36.5865
37.2259
37.719
38.0719
38.2916
38.3857
38.3628
38.2319
38.0024
37.6838
37.2859
36.8183
36.2907
35.7124
35.0924
34.4395
33.7617
33.0669
32.3621
31.6539
30.9483
30.2507
29.5657
28.8976
28.2497
27.6251
27.0262
26.4548
25.9123
25.3997
24.9175
24.4659
24.0448
23.6536
23.2918
22.9584
22.6524
22.3726
22.1177
21.8864
21.6773
21.4889
21.3198
21.1685
21.0338
20.9142
20.8084
20.7152
20.6335
20.562
20.4999
20.446
20.3995
20.3596
20.3255
20.2966
20.272
20.2514
20.2341
20.2197
20.2077
20.1977
20.1895
20.1827
20.1769
20.172
20.1677
20.1638
20.1602
20.1566
20.1529
20.1491
20.1449
20.1403
20.1351
20.1294
20.1232
20.116
20.1043
20.0699
19.9881
20.5139
4136.38
-551.018
-324.809
-96.2451
-18.0619
6.05392
14.6058
18.738
21.5161
23.8031
25.8472
27.718
29.4321
30.9916
32.3947
33.6399
34.7264
35.655
36.4281
37.0491
37.5231
37.856
38.055
38.1278
38.0832
37.9302
37.6783
37.3372
36.9167
36.4266
35.8767
35.2763
34.6347
33.9604
33.262
32.547
31.8227
31.0957
30.372
29.6571
28.9557
28.2718
27.6092
26.9706
26.3585
25.7748
25.2208
24.6975
24.2054
23.7447
23.315
22.9161
22.5472
22.2073
21.8954
21.6102
21.3505
21.1148
20.9017
20.7098
20.5375
20.3835
20.2462
20.1244
20.0167
19.9219
19.8387
19.766
19.7027
19.6479
19.6007
19.5602
19.5256
19.4962
19.4714
19.4506
19.4332
19.4188
19.4069
19.3972
19.3892
19.3827
19.3774
19.3731
19.3694
19.3662
19.3634
19.3607
19.358
19.3552
19.3521
19.3488
19.345
19.3407
19.336
19.3304
19.321
19.2926
19.2276
19.7023
4136.38
-551.027
-324.824
-96.2667
-18.0902
6.01834
14.5624
18.686
21.4548
23.7317
25.7648
27.6235
29.3247
30.8702
32.2584
33.4877
34.5574
35.4684
36.2229
36.8246
37.2786
37.5909
37.7687
37.8199
37.7534
37.5782
37.304
36.9405
36.4977
35.9856
35.4137
34.7918
34.129
33.4341
32.7155
31.981
31.2379
30.4928
29.7518
29.0203
28.303
27.6042
26.9274
26.2755
25.6509
25.0555
24.4906
23.9571
23.4556
22.9861
22.5485
22.1422
21.7665
21.4205
21.1029
20.8127
20.5484
20.3086
20.0918
19.8965
19.7213
19.5646
19.425
19.3011
19.1916
19.0952
19.0106
18.9366
18.8724
18.8167
18.7687
18.7276
18.6925
18.6628
18.6377
18.6167
18.5993
18.5849
18.5731
18.5635
18.5558
18.5497
18.5448
18.5409
18.5378
18.5353
18.5332
18.5313
18.5296
18.5278
18.5258
18.5237
18.5212
18.5184
18.5151
18.5111
18.5038
18.4806
18.43
18.8581
4136.37
-551.04
-324.847
-96.2987
-18.1317
5.96678
14.5003
18.6128
21.3698
23.6341
25.6539
27.4986
29.1849
30.7147
32.0865
33.2984
34.3501
35.2423
35.9773
36.559
36.9924
37.2836
37.4399
37.4695
37.381
37.1837
36.8873
36.5018
36.0371
35.5032
34.91
34.267
33.5837
32.8688
32.1308
31.3775
30.6162
29.8538
29.0961
28.3487
27.6164
26.9033
26.213
25.5483
24.9118
24.3053
23.73
23.1869
22.6765
22.1988
21.7535
21.3403
20.9582
20.6064
20.2836
19.9886
19.72
19.4762
19.2559
19.0575
18.8795
18.7203
18.5785
18.4527
18.3414
18.2435
18.1575
18.0825
18.0172
17.9607
17.9121
17.8704
17.8348
17.8047
17.7794
17.7582
17.7407
17.7263
17.7146
17.7052
17.6977
17.6919
17.6874
17.6839
17.6814
17.6795
17.6781
17.677
17.6761
17.6752
17.6744
17.6733
17.6721
17.6705
17.6687
17.6662
17.6608
17.6424
17.6039
17.9894
4136.37
-551.058
-324.876
-96.3395
-18.1846
5.90148
14.4221
18.5213
21.2643
23.5142
25.5189
27.3477
29.0176
30.5302
31.8842
33.0777
34.1103
34.9829
35.6978
36.2589
36.6712
36.9411
37.0759
37.0836
36.9732
36.754
36.4358
36.0286
35.5424
34.9873
34.3733
33.71
33.0067
32.2725
31.5158
30.7444
29.9658
29.1867
28.4131
27.6506
26.9038
26.1771
25.474
24.7973
24.1495
23.5324
22.9473
22.3951
21.8762
21.3907
20.9383
20.5185
20.1305
19.7732
19.4454
19.1459
18.8732
18.6258
18.4022
18.2008
18.0202
17.8586
17.7148
17.5871
17.4742
17.3748
17.2876
17.2115
17.1453
17.088
17.0387
16.9964
16.9605
16.93
16.9044
16.8831
16.8654
16.851
16.8393
16.8301
16.8228
16.8172
16.8131
16.8101
16.808
16.8067
16.8059
16.8055
16.8054
16.8055
16.8056
16.8056
16.8055
16.8052
16.8046
16.8035
16.8
16.7857
16.7573
17.1044
4136.36
-551.079
-324.91
-96.3878
-18.2471
5.82456
14.3304
18.4143
21.1417
23.3754
25.3634
27.175
28.8271
30.3215
31.6566
32.8308
33.8436
34.696
35.3903
35.9304
36.3215
36.57
36.6831
36.6692
36.5371
36.2963
35.9567
35.5282
35.021
34.4454
33.8111
33.1281
32.4057
31.6529
30.8782
30.0895
29.2943
28.4992
27.7104
26.9335
26.1731
25.4334
24.7181
24.03
23.3715
22.7444
22.1501
21.5893
21.0624
20.5696
20.1105
19.6845
19.2908
18.9284
18.5959
18.2922
18.0157
17.7648
17.5381
17.334
17.1508
16.9871
16.8413
16.7118
16.5974
16.4967
16.4084
16.3312
16.2642
16.2061
16.1561
16.1133
16.0769
16.0461
16.0202
15.9987
15.981
15.9665
15.9549
15.9457
15.9386
15.9333
15.9294
15.9268
15.9252
15.9243
15.9241
15.9244
15.9251
15.9259
15.9269
15.9279
15.9288
15.9297
15.9303
15.9306
15.9288
15.918
15.898
16.2102
4136.35
-551.102
-324.949
-96.4423
-18.3175
5.73805
14.2275
18.2946
21.005
23.2211
25.1912
26.9845
28.6178
30.0931
31.4086
32.5628
33.5553
34.3871
35.0605
35.5794
35.9493
36.1763
36.268
36.2327
36.0792
35.8173
35.4566
35.0074
34.4799
33.8843
33.2306
32.5286
31.7877
31.017
30.2251
29.4199
28.6087
27.7985
26.9953
26.2046
25.4313
24.6794
23.9526
23.2537
22.5851
21.9486
21.3455
20.7766
20.2423
19.7425
19.2771
18.8453
18.4463
18.0791
17.7423
17.4345
17.1544
16.9004
16.6708
16.464
16.2785
16.1127
15.9651
15.834
15.7182
15.6162
15.5267
15.4486
15.3807
15.3219
15.2713
15.228
15.1912
15.16
15.1339
15.1122
15.0943
15.0798
15.0682
15.0591
15.0521
15.047
15.0434
15.0411
15.0398
15.0394
15.0398
15.0407
15.0419
15.0435
15.0453
15.0472
15.0491
15.051
15.0528
15.0542
15.054
15.0463
15.0332
15.314
4136.34
-551.128
-324.991
-96.5018
-18.3943
5.64384
14.1156
18.1648
20.8569
23.0546
25.0058
26.7799
28.3937
29.8492
31.1446
32.2784
33.2503
34.0612
34.7136
35.2115
35.5601
35.7659
35.8365
35.7801
35.6057
35.3231
34.942
34.4727
33.9255
33.3106
32.6381
31.9179
31.1593
30.3716
29.5632
28.7422
27.916
27.0913
26.2744
25.4708
24.6851
23.9217
23.184
22.4749
21.7968
21.1514