/*--------------------------------*- C++ -*----------------------------------*\
  =========                 |
  \\      /  F ield         | OpenFOAM: The Open Source CFD Toolbox
   \\    /   O peration     | Website:  https://openfoam.org
    \\  /    A nd           | Version:  10
     \\/     M anipulation  |
\*---------------------------------------------------------------------------*/
FoamFile
{
    format      ascii;
    class       volScalarField;
    location    "3.5";
    object      T;
}
// * * * * * * * * * * * * * * * * * * * * * * * * * * * * * * * * * * * * * //

dimensions      [0 0 0 1 0 0 0];

internalField   nonuniform List<scalar> 
10000
(
374.868
360.907
355.966
353.656
352.287
351.333
350.595
349.986
349.462
348.998
348.578
348.193
347.837
347.505
347.195
346.903
346.629
346.37
346.127
345.897
345.681
345.478
345.288
345.108
344.941
344.784
344.637
344.501
344.374
344.256
344.147
344.046
343.953
343.867
343.788
343.716
343.65
343.59
343.535
343.485
343.44
343.399
343.363
343.33
343.3
343.273
343.25
343.229
343.21
343.193
343.178
343.165
343.154
343.144
343.135
343.128
343.121
343.115
343.11
343.106
343.102
343.099
343.097
343.095
343.093
343.091
343.09
343.089
343.089
343.088
343.088
343.088
343.088
343.089
343.089
343.09
343.09
343.091
343.092
343.093
343.095
343.096
343.098
343.099
343.101
343.103
343.105
343.107
343.11
343.112
343.115
343.118
343.121
343.124
343.127
343.13
343.134
343.138
343.142
343.149
388.233
373.679
365.241
360.004
356.427
353.762
351.638
349.857
348.312
346.935
345.686
344.54
343.477
342.486
341.557
340.685
339.864
339.091
338.362
337.675
337.028
336.42
335.848
335.312
334.809
334.339
333.9
333.491
333.11
332.757
332.43
332.127
331.848
331.591
331.355
331.139
330.941
330.761
330.596
330.447
330.312
330.19
330.08
329.981
329.892
329.812
329.741
329.678
329.621
329.571
329.527
329.488
329.454
329.424
329.397
329.375
329.355
329.337
329.322
329.31
329.299
329.29
329.282
329.275
329.27
329.266
329.262
329.26
329.258
329.257
329.256
329.256
329.257
329.258
329.259
329.261
329.263
329.266
329.269
329.272
329.276
329.28
329.284
329.289
329.295
329.3
329.307
329.313
329.32
329.328
329.336
329.344
329.353
329.362
329.372
329.382
329.393
329.404
329.416
329.429
392.587
380.359
371.339
364.715
359.681
355.683
352.372
349.534
347.035
344.791
342.743
340.856
339.102
337.463
335.926
334.48
333.118
331.835
330.624
329.484
328.41
327.399
326.449
325.557
324.721
323.94
323.21
322.529
321.896
321.309
320.764
320.261
319.796
319.369
318.976
318.616
318.287
317.987
317.714
317.466
317.241
317.038
316.855
316.69
316.542
316.409
316.291
316.185
316.092
316.008
315.935
315.87
315.813
315.763
315.719
315.681
315.648
315.619
315.594
315.573
315.555
315.54
315.527
315.516
315.507
315.5
315.494
315.49
315.487
315.485
315.484
315.484
315.485
315.486
315.489
315.492
315.495
315.5
315.505
315.51
315.516
315.523
315.531
315.539
315.548
315.557
315.568
315.579
315.59
315.603
315.616
315.63
315.644
315.66
315.676
315.693
315.711
315.729
315.749
315.769
394.315
383.853
375.061
367.863
361.934
356.957
352.681
348.925
345.565
342.514
339.712
337.115
334.693
332.424
330.292
328.285
326.391
324.605
322.921
321.332
319.835
318.426
317.101
315.857
314.692
313.601
312.583
311.634
310.75
309.93
309.17
308.468
307.819
307.223
306.675
306.172
305.713
305.294
304.912
304.566
304.252
303.968
303.712
303.482
303.275
303.09
302.925
302.778
302.647
302.531
302.428
302.338
302.258
302.188
302.127
302.074
302.027
301.987
301.953
301.923
301.898
301.876
301.858
301.843
301.831
301.821
301.813
301.807
301.802
301.8
301.798
301.798
301.799
301.801
301.804
301.809
301.814
301.82
301.827
301.834
301.843
301.853
301.863
301.875
301.887
301.9
301.914
301.93
301.946
301.963
301.981
302.001
302.021
302.042
302.065
302.089
302.113
302.139
302.166
302.194
395.106
385.701
377.219
369.774
363.28
357.584
352.531
347.992
343.866
340.078
336.57
333.302
330.241
327.366
324.657
322.102
319.69
317.412
315.262
313.232
311.319
309.518
307.824
306.233
304.742
303.346
302.043
300.827
299.697
298.646
297.673
296.774
295.944
295.179
294.477
293.834
293.245
292.709
292.22
291.776
291.374
291.01
290.683
290.388
290.123
289.886
289.674
289.485
289.317
289.169
289.037
288.921
288.819
288.73
288.651
288.583
288.524
288.472
288.428
288.39
288.357
288.33
288.307
288.287
288.271
288.259
288.248
288.241
288.235
288.232
288.23
288.23
288.231
288.234
288.238
288.243
288.249
288.257
288.266
288.276
288.287
288.299
288.312
288.327
288.342
288.359
288.377
288.397
288.417
288.439
288.463
288.487
288.513
288.541
288.569
288.599
288.631
288.664
288.698
288.734
395.49
386.656
378.372
370.778
363.885
357.636
351.948
346.737
341.933
337.473
333.313
329.413
325.746
322.289
319.025
315.94
313.024
310.267
307.661
305.201
302.88
300.694
298.637
296.705
294.893
293.197
291.613
290.136
288.761
287.484
286.301
285.206
284.197
283.267
282.413
281.63
280.915
280.261
279.667
279.127
278.638
278.195
277.796
277.437
277.115
276.827
276.569
276.339
276.135
275.954
275.794
275.653
275.528
275.419
275.324
275.241
275.169
275.106
275.052
275.006
274.966
274.933
274.905
274.881
274.862
274.846
274.834
274.824
274.817
274.813
274.811
274.81
274.812
274.815
274.82
274.826
274.834
274.843
274.854
274.866
274.879
274.894
274.91
274.927
274.946
274.967
274.989
275.012
275.037
275.063
275.092
275.121
275.153
275.186
275.22
275.257
275.295
275.335
275.376
275.419
395.665
387.094
378.877
371.135
363.916
357.21
350.984
345.189
339.778
334.708
329.943
325.452
321.211
317.2
313.404
309.809
306.404
303.182
300.134
297.253
294.535
291.972
289.56
287.293
285.167
283.177
281.317
279.582
277.967
276.468
275.078
273.792
272.606
271.513
270.51
269.59
268.749
267.981
267.282
266.647
266.072
265.552
265.083
264.661
264.282
263.943
263.64
263.37
263.13
262.917
262.729
262.563
262.417
262.289
262.177
262.079
261.994
261.92
261.857
261.802
261.756
261.716
261.683
261.655
261.633
261.614
261.6
261.588
261.58
261.575
261.572
261.572
261.574
261.577
261.583
261.59
261.599
261.61
261.622
261.636
261.652
261.669
261.687
261.708
261.73
261.754
261.779
261.806
261.835
261.866
261.899
261.934
261.97
262.009
262.049
262.092
262.136
262.182
262.231
262.281
395.72
387.214
378.952
371.034
363.512
356.404
349.703
343.387
337.428
331.799
326.474
321.429
316.646
312.109
307.803
303.718
299.843
296.171
292.694
289.406
286.299
283.37
280.611
278.018
275.585
273.307
271.177
269.19
267.34
265.622
264.029
262.556
261.197
259.945
258.794
257.74
256.775
255.895
255.094
254.366
253.706
253.11
252.572
252.088
251.654
251.265
250.917
250.607
250.332
250.088
249.872
249.682
249.514
249.367
249.238
249.126
249.029
248.944
248.871
248.809
248.755
248.71
248.672
248.64
248.614
248.593
248.576
248.563
248.554
248.548
248.544
248.544
248.545
248.55
248.556
248.564
248.574
248.586
248.6
248.616
248.634
248.653
248.674
248.697
248.722
248.749
248.778
248.809
248.842
248.877
248.914
248.953
248.995
249.039
249.085
249.133
249.183
249.236
249.291
249.347
395.7
387.13
378.74
370.607
362.785
355.303
348.168
341.376
334.915
328.77
322.923
317.359
312.065
307.027
302.236
297.681
293.354
289.249
285.357
281.673
278.192
274.906
271.811
268.9
266.167
263.607
261.214
258.981
256.902
254.97
253.179
251.523
249.994
248.585
247.291
246.105
245.02
244.029
243.128
242.309
241.566
240.895
240.29
239.745
239.256
238.818
238.427
238.079
237.769
237.494
237.251
237.036
236.848
236.682
236.537
236.411
236.301
236.206
236.124
236.053
235.993
235.942
235.899
235.863
235.834
235.81
235.791
235.776
235.766
235.759
235.755
235.754
235.756
235.76
235.767
235.776
235.788
235.801
235.816
235.834
235.853
235.875
235.899
235.924
235.952
235.982
236.014
236.048
236.085
236.124
236.165
236.209
236.255
236.304
236.355
236.408
236.464
236.523
236.584
236.647
395.632
386.911
378.33
369.95
361.822
353.978
346.436
339.202
332.274
325.647
319.312
313.26
307.482
301.97
296.716
291.712
286.952
282.429
278.138
274.073
270.228
266.597
263.175
259.955
256.932
254.099
251.45
248.977
246.674
244.534
242.55
240.714
239.02
237.459
236.025
234.709
233.506
232.409
231.409
230.501
229.678
228.933
228.262
227.658
227.116
226.63
226.196
225.81
225.466
225.161
224.891
224.653
224.444
224.26
224.1
223.96
223.838
223.732
223.641
223.563
223.496
223.439
223.392
223.352
223.319
223.292
223.271
223.255
223.243
223.235
223.23
223.229
223.231
223.236
223.243
223.253
223.266
223.28
223.297
223.316
223.337
223.361
223.387
223.415
223.445
223.478
223.513
223.551
223.591
223.633
223.678
223.726
223.776
223.829
223.885
223.944
224.005
224.07
224.136
224.205
395.532
386.601
377.784
369.131
360.689
352.49
344.557
336.905
329.537
322.458
315.663
309.15
302.915
296.952
291.257
285.824
280.649
275.727
271.052
266.619
262.423
258.459
254.721
251.203
247.898
244.8
241.902
239.197
236.677
234.335
232.162
230.153
228.297
226.588
225.017
223.576
222.258
221.056
219.96
218.965
218.064
217.248
216.513
215.851
215.256
214.724
214.249
213.825
213.448
213.114
212.818
212.557
212.328
212.127
211.95
211.797
211.663
211.547
211.447
211.362
211.288
211.226
211.174
211.13
211.094
211.064
211.041
211.023
211.01
211.001
210.996
210.995
210.997
211.001
211.009
211.02
211.033
211.049
211.067
211.087
211.11
211.136
211.163
211.194
211.226
211.262
211.299
211.34
211.383
211.429
211.478
211.529
211.584
211.641
211.701
211.764
211.831
211.9
211.972
212.046
395.41
386.229
377.144
368.199
359.435
350.885
342.574
334.522
326.738
319.229
312
305.051
298.382
291.991
285.876
280.034
274.462
269.156
264.113
259.327
254.794
250.509
246.466
242.659
239.082
235.728
232.589
229.658
226.928
224.39
222.035
219.857
217.845
215.991
214.288
212.726
211.296
209.992
208.803
207.724
206.746
205.861
205.063
204.345
203.7
203.122
202.606
202.146
201.737
201.375
201.054
200.771
200.522
200.303
200.112
199.945
199.8
199.674
199.566
199.472
199.393
199.325
199.268
199.22
199.181
199.149
199.123
199.104
199.089
199.079
199.074
199.072
199.074
199.079
199.087
199.098
199.112
199.129
199.148
199.17
199.194
199.221
199.251
199.283
199.318
199.356
199.396
199.439
199.485
199.534
199.586
199.641
199.699
199.76
199.824
199.892
199.963
200.037
200.113
200.192
395.273
385.815
376.442
367.191
358.099
349.201
340.523
332.085
323.903
315.987
308.345
300.982
293.9
287.102
280.587
274.355
268.404
262.732
257.335
252.21
247.353
242.76
238.423
234.339
230.499
226.898
223.527
220.379
217.445
214.717
212.187
209.844
207.681
205.689
203.856
202.176
200.639
199.236
197.957
196.796
195.744
194.792
193.933
193.16
192.466
191.845
191.289
190.794
190.354
189.964
189.618
189.313
189.045
188.81
188.604
188.424
188.268
188.133
188.016
187.916
187.83
187.757
187.695
187.644
187.601
187.567
187.539
187.518
187.502
187.491
187.485
187.483
187.484
187.49
187.498
187.51
187.524
187.542
187.562
187.585
187.611
187.639
187.67
187.704
187.741
187.781
187.823
187.869
187.917
187.969
188.024
188.082
188.143
188.208
188.276
188.347
188.422
188.5
188.581
188.664
395.127
385.375
375.699
366.133
356.713
347.47
338.433
329.623
321.058
312.753
304.717
296.96
289.487
282.301
275.406
268.802
262.489
256.466
250.732
245.283
240.115
235.226
230.608
226.256
222.164
218.325
214.73
211.373
208.243
205.332
202.632
200.132
197.823
195.695
193.739
191.945
190.303
188.805
187.439
186.199
185.075
184.058
183.14
182.314
181.573
180.909
180.315
179.786
179.316
178.899
178.53
178.204
177.918
177.666
177.446
177.254
177.087
176.942
176.817
176.71
176.618
176.54
176.474
176.419
176.373
176.336
176.306
176.283
176.266
176.254
176.247
176.245
176.246
176.251
176.26
176.272
176.287
176.305
176.326
176.35
176.377
176.407
176.439
176.475
176.513
176.555
176.599
176.647
176.698
176.752
176.809
176.87
176.934
177.002
177.073
177.147
177.225
177.307
177.392
177.479
394.976
384.919
374.933
365.049
355.299
345.717
336.328
327.158
318.226
309.548
301.137
293.005
285.158
277.604
270.346
263.387
256.729
250.372
244.315
238.556
233.092
227.919
223.031
218.424
214.09
210.022
206.213
202.653
199.335
196.249
193.385
190.733
188.284
186.026
183.951
182.047
180.304
178.714
177.265
175.948
174.754
173.675
172.7
171.824
171.036
170.331
169.701
169.139
168.64
168.197
167.805
167.459
167.154
166.887
166.653
166.449
166.271
166.118
165.985
165.871
165.773
165.69
165.62
165.561
165.512
165.473
165.441
165.416
165.398
165.385
165.377
165.374
165.375
165.38
165.389
165.401
165.417
165.436
165.457
165.482
165.51
165.541
165.574
165.611
165.651
165.694
165.74
165.79
165.843
165.899
165.958
166.021
166.088
166.158
166.232
166.309
166.39
166.475
166.564
166.654
394.822
384.455
374.156
363.953
353.877
343.96
334.23
324.711
315.425
306.39
297.621
289.13
280.928
273.022
265.419
258.123
251.137
244.461
238.097
232.042
226.295
220.85
215.705
210.852
206.287
202
197.985
194.233
190.734
187.479
184.458
181.661
179.076
176.694
174.504
172.494
170.655
168.976
167.446
166.056
164.795
163.655
162.627
161.701
160.869
160.125
159.459
158.866
158.338
157.87
157.456
157.09
156.769
156.486
156.239
156.024
155.836
155.673
155.533
155.412
155.309
155.221
155.147
155.085
155.033
154.991
154.957
154.931
154.911
154.897
154.889
154.885
154.886
154.891
154.899
154.912
154.928
154.947
154.969
154.994
155.023
155.054
155.089
155.127
155.168
155.213
155.26
155.311
155.366
155.423
155.485
155.55
155.618
155.691
155.767
155.847
155.93
156.018
156.109
156.202
394.667
383.991
373.379
362.859
352.462
342.217
332.155
322.299
312.673
303.295
294.183
285.351
276.81
268.57
260.638
253.021
245.722
238.744
232.087
225.75
219.732
214.029
208.638
203.552
198.764
194.269
190.057
186.12
182.449
179.032
175.861
172.924
170.21
167.709
165.408
163.297
161.365
159.601
157.994
156.533
155.209
154.011
152.93
151.957
151.083
150.301
149.601
148.977
148.423
147.931
147.495
147.111
146.773
146.476
146.216
145.989
145.792
145.621
145.473
145.346
145.237
145.145
145.066
145.001
144.946
144.902
144.866
144.838
144.817
144.802
144.793
144.788
144.789
144.794
144.802
144.815
144.83
144.85
144.872
144.898
144.927
144.96
144.995
145.034
145.076
145.122
145.17
145.222
145.278
145.337
145.4
145.467
145.537
145.611
145.689
145.771
145.856
145.946
146.039
146.135
394.514
383.53
372.609
361.777
351.064
340.501
330.116
319.935
309.982
300.276
290.836
281.678
272.814
264.257
256.013
248.091
240.495
233.228
226.292
219.688
213.413
207.464
201.838
196.529
191.531
186.837
182.437
178.324
174.487
170.917
167.602
164.532
161.694
159.079
156.673
154.465
152.444
150.599
148.918
147.39
146.004
144.751
143.62
142.601
141.687
140.868
140.136
139.483
138.902
138.387
137.931
137.529
137.175
136.864
136.592
136.355
136.148
135.969
135.814
135.681
135.567
135.47
135.388
135.319
135.262
135.215
135.177
135.147
135.125
135.109
135.099
135.094
135.094
135.098
135.107
135.119
135.135
135.154
135.177
135.203
135.233
135.266
135.302
135.341
135.384
135.43
135.48
135.533
135.589
135.65
135.714
135.781
135.853
135.928
136.008
136.091
136.178
136.269
136.364
136.461
394.363
383.077
371.853
360.716
349.695
338.823
328.126
317.632
307.364
297.344
287.592
278.123
268.952
260.092
251.552
243.34
235.462
227.922
220.722
213.863
207.343
201.161
195.312
189.792
184.593
179.709
175.131
170.85
166.856
163.139
159.688
156.49
153.535
150.81
148.304
146.004
143.898
141.976
140.224
138.631
137.187
135.881
134.702
133.64
132.687
131.833
131.07
130.389
129.784
129.247
128.772
128.352
127.983
127.659
127.375
127.127
126.911
126.725
126.563
126.424
126.305
126.204
126.118
126.046
125.986
125.936
125.897
125.866
125.842
125.825
125.814
125.808
125.807
125.811
125.819
125.832
125.847
125.867
125.89
125.916
125.946
125.979
126.016
126.055
126.099
126.145
126.195
126.249
126.306
126.367
126.432
126.501
126.573
126.649
126.729
126.814
126.902
126.994
127.09
127.189
394.215
382.635
371.115
359.681
348.362
337.19
326.193
315.398
304.829
294.509
284.458
274.694
265.232
256.084
247.263
238.776
230.63
222.831
215.38
208.28
201.529
195.125
189.065
183.344
177.955
172.891
168.143
163.703
159.56
155.703
152.121
148.803
145.736
142.907
140.306
137.918
135.732
133.735
131.916
130.262
128.762
127.405
126.181
125.078
124.088
123.201
122.408
121.7
121.072
120.514
120.02
119.584
119.2
118.863
118.568
118.311
118.086
117.892
117.724
117.579
117.456
117.35
117.261
117.185
117.123
117.071
117.03
116.997
116.972
116.954
116.942
116.935
116.934
116.938
116.945
116.957
116.973
116.992
117.015
117.042
117.072
117.105
117.141
117.181
117.225
117.272
117.322
117.376
117.434
117.495
117.56
117.629
117.702
117.779
117.86
117.944
118.033
118.126
118.223
118.322
394.072
382.205
370.398
358.677
347.071
335.61
324.324
313.241
302.384
291.778
281.443
271.398
261.659
252.239
243.151
234.403
226.005
217.96
210.272
202.944
195.973
189.36
183.1
177.189
171.619
166.385
161.477
156.885
152.601
148.612
144.906
141.473
138.3
135.373
132.681
130.209
127.947
125.88
123.996
122.284
120.732
119.327
118.059
116.917
115.892
114.973
114.152
113.419
112.768
112.19
111.679
111.227
110.829
110.48
110.175
109.908
109.676
109.474
109.3
109.15
109.021
108.912
108.819
108.741
108.676
108.622
108.579
108.544
108.518
108.499
108.486
108.479
108.477
108.48
108.487
108.498
108.514
108.533
108.556
108.582
108.612
108.645
108.681
108.721
108.765
108.812
108.862
108.916
108.974
109.035
109.1
109.169
109.242
109.319
109.4
109.485
109.574
109.667
109.764
109.863
393.934
381.79
369.707
357.709
345.826
334.088
322.526
311.167
300.036
289.157
278.553
268.24
258.238
248.561
239.22
230.227
221.589
213.312
205.4
197.856
190.679
183.867
177.418
171.327
165.588
160.192
155.132
150.398
145.979
141.865
138.043
134.501
131.227
128.208
125.429
122.879
120.544
118.41
116.466
114.699
113.096
111.646
110.337
109.158
108.099
107.15
106.302
105.546
104.873
104.276
103.748
103.282
102.871
102.51
102.195
101.919
101.679
101.471
101.291
101.135
101.002
100.889
100.793
100.712
100.644
100.589
100.544
100.508
100.48
100.459
100.446
100.438
100.435
100.437
100.444
100.455
100.47
100.489
100.511
100.537
100.567
100.6
100.636
100.676
100.719
100.766
100.816
100.87
100.927
100.988
101.053
101.122
101.195
101.271
101.352
101.437
101.525
101.618
101.715
101.814
393.801
381.392
369.043
356.779
344.631
332.629
320.802
309.18
297.788
286.651
275.79
265.225
254.974
245.053
235.474
226.248
217.384
208.889
200.766
193.018
185.646
178.648
172.021
165.76
159.859
154.312
149.109
144.24
139.695
135.462
131.53
127.886
124.517
121.409
118.55
115.925
113.521
111.325
109.324
107.504
105.854
104.36
103.012
101.798
100.708
99.731
98.8576
98.0786
97.3857
96.7709
96.2267
95.7462
95.3231
94.9516
94.6262
94.342
94.0946
93.8799
93.6943
93.5343
93.3972
93.2801
93.1808
93.0971
93.0272
92.9695
92.9226
92.8851
92.856
92.8345
92.8197
92.8108
92.8075
92.8091
92.8153
92.8258
92.8403
92.8586
92.8806
92.9061
92.9351
92.9676
93.0035
93.0428
93.0856
93.1319
93.1816
93.235
93.292
93.3527
93.4171
93.4854
93.5575
93.6335
93.7136
93.7976
93.8857
93.9778
94.0737
94.1717
393.674
381.01
368.407
355.89
343.489
331.234
319.157
307.285
295.645
284.262
273.158
262.355
251.869
241.718
231.914
222.469
213.393
204.691
196.369
188.43
180.874
173.7
166.905
160.485
154.433
148.743
143.405
138.409
133.745
129.401
125.366
121.625
118.166
114.976
112.039
109.344
106.876
104.62
102.565
100.696
99.0009
97.467
96.0823
94.8354
93.7153
92.7114
91.814
91.0137
90.3017
89.67
89.1107
88.6169
88.1821
87.8002
87.4657
87.1736
86.9192
86.6984
86.5075
86.3429
86.2017
86.0812
85.9789
85.8926
85.8204
85.7608
85.7121
85.6732
85.6428
85.6202
85.6043
85.5946
85.5905
85.5913
85.5969
85.6068
85.6207
85.6384
85.6598
85.6848
85.7133
85.7452
85.7806
85.8193
85.8614
85.9071
85.9562
86.0088
86.0651
86.125
86.1886
86.256
86.3273
86.4024
86.4814
86.5645
86.6515
86.7425
86.8372
86.934
393.553
380.647
367.802
355.043
342.401
329.906
317.59
305.482
293.607
281.992
270.66
259.631
248.924
238.556
228.54
218.89
209.613
200.718
192.209
184.09
176.361
169.022
162.07
155.5
149.306
143.481
138.017
132.902
128.126
123.678
119.545
115.713
112.17
108.902
105.894
103.132
100.603
98.2919
96.1856
94.2703
92.533
90.9609
89.5416
88.2635
87.1153
86.0863
85.1663
84.3459
83.616
82.9682
82.3948
81.8885
81.4426
81.0509
80.7079
80.4082
80.1472
79.9207
79.7247
79.5558
79.4108
79.287
79.1818
79.093
79.0187
78.9571
78.9068
78.8664
78.8348
78.811
78.7942
78.7835
78.7785
78.7787
78.7835
78.7927
78.8059
78.823
78.8438
78.8681
78.8959
78.9271
78.9617
78.9997
79.0411
79.0859
79.1341
79.1858
79.2411
79.3
79.3626
79.4289
79.499
79.5728
79.6506
79.7323
79.8178
79.9074
80.0006
80.0958
393.438
380.302
367.227
354.239
341.368
328.647
316.105
303.773
291.677
279.843
268.295
257.053
246.138
235.566
225.352
215.508
206.044
196.967
188.283
179.995
172.105
164.611
157.511
150.801
144.474
138.523
132.939
127.713
122.832
118.286
114.061
110.145
106.523
103.181
100.106
97.2823
94.696
92.3329
90.1788
88.22
86.4431
84.8351
83.3834
82.0761
80.9015
79.8488
78.9076
78.0682
77.3214
76.6587
76.0719
75.5538
75.0975
74.6967
74.3455
74.0388
73.7716
73.5397
73.3389
73.1659
73.0173
72.8903
72.7824
72.6912
72.6148
72.5515
72.4996
72.4578
72.4249
72.4
72.3821
72.3706
72.3647
72.364
72.3681
72.3765
72.389
72.4053
72.4253
72.4489
72.4759
72.5063
72.54
72.5771
72.6176
72.6613
72.7085
72.7592
72.8133
72.871
72.9322
72.9972
73.0658
73.1381
73.2143
73.2943
73.3782
73.4659
73.5572
73.6504
393.329
379.975
366.683
353.479
340.392
327.456
314.702
302.158
289.853
277.813
266.062
254.622
243.511
232.748
222.348
212.322
202.682
193.435
184.587
176.142
168.1
160.461
153.224
146.382
139.931
133.862
128.167
122.836
117.858
113.22
108.91
104.913
101.218
97.8077
94.6691
91.7873
89.1476
86.7355
84.5367
82.5372
80.7232
79.0816
77.5995
76.2647
75.0655
73.9906
73.0296
72.1724
71.4098
70.7329
70.1337
69.6045
69.1384
68.729
68.3703
68.0569
67.7839
67.5468
67.3416
67.1647
67.0127
66.8827
66.7722
66.6788
66.6004
66.5353
66.4818
66.4387
66.4046
66.3785
66.3597
66.3472
66.3404
66.3389
66.3421
66.3497
66.3614
66.3769
66.3961
66.4188
66.4449
66.4744
66.5071
66.5432
66.5825
66.6252
66.6711
66.7205
66.7733
66.8295
66.8892
66.9526
67.0195
67.0901
67.1644
67.2425
67.3243
67.4099
67.499
67.59
393.226
379.667
366.17
352.761
339.472
326.334
313.379
300.637
288.136
275.903
263.962
252.334
241.041
230.099
219.524
209.329
199.524
190.118
181.117
172.525
164.342
156.568
149.201
142.237
135.67
129.491
123.693
118.264
113.194
108.471
104.081
100.01
96.2455
92.7717
89.5742
86.6381
83.9485
81.4907
79.2501
77.2125
75.364
73.691
72.1805
70.82
69.5977
68.5021
67.5225
66.6487
65.8713
65.1813
64.5703
64.0308
63.5556
63.1381
62.7722
62.4526
62.1741
61.9323
61.7229
61.5423
61.3871
61.2543
61.1413
61.0457
60.9655
60.8987
60.8438
60.7993
60.764
60.7368
60.7169
60.7035
60.6958
60.6934
60.6958
60.7025
60.7133
60.728
60.7463
60.768
60.7931
60.8216
60.8532
60.8881
60.9262
60.9676
61.0122
61.0601
61.1114
61.166
61.224
61.2855
61.3506
61.4192
61.4915
61.5673
61.6469
61.7301
61.8167
61.9052
393.129
379.377
365.688
352.087
338.607
325.279
312.137
299.209
286.524
274.11
261.99
250.188
238.724
227.615
216.877
206.524
196.566
187.012
177.868
169.138
160.824
152.924
145.438
138.359
131.684
125.403
119.508
113.989
108.834
104.03
99.5658
95.4262
91.5972
88.0639
84.8114
81.8247
79.0887
76.5883
74.3088
72.2358
70.3549
68.6526
67.1157
65.7313
64.4874
63.3725
62.3756
61.4863
60.6951
59.9927
59.3709
58.8217
58.3379
57.9129
57.5404
57.215
56.9314
56.685
56.4717
56.2876
56.1294
55.994
55.8787
55.7811
55.699
55.6306
55.5743
55.5285
55.492
55.4638
55.4429
55.4285
55.4199
55.4166
55.4181
55.4239
55.4338
55.4475
55.4648
55.4855
55.5096
55.5369
55.5674
55.601
55.6378
55.6778
55.7209
55.7672
55.8168
55.8696
55.9258
55.9854
56.0483
56.1148
56.1847
56.2582
56.3353
56.4158
56.4998
56.5854
393.039
379.106
365.236
351.456
337.797
324.292
310.973
297.871
285.015
272.432
260.146
248.181
236.557
225.292
214.403
203.902
193.802
184.11
174.834
165.976
157.539
149.523
141.925
134.74
127.964
121.588
115.603
110
104.766
99.8884
95.3548
91.1509
87.2622
83.6736
80.3701
77.3364
74.5572
72.0172
69.7015
67.5955
65.6846
63.9551
62.3935
60.9869
59.723
58.5901
57.577
56.6733
55.8692
55.1555
54.5235
53.9653
53.4735
53.0415
52.6628
52.3319
52.0435
51.7929
51.5759
51.3887
51.2276
51.0897
50.9722
50.8727
50.7889
50.719
50.6613
50.6142
50.5766
50.5474
50.5254
50.5101
50.5006
50.4963
50.4969
50.5018
50.5107
50.5235
50.5397
50.5594
50.5823
50.6084
50.6376
50.6699
50.7053
50.7437
50.7853
50.8299
50.8776
50.9286
50.9828
51.0402
51.101
51.1651
51.2325
51.3034
51.3778
51.4556
51.5365
51.6192
392.954
378.852
364.814
350.866
337.04
323.369
309.886
296.622
283.606
270.865
258.425
246.308
234.536
223.126
212.096
201.459
191.226
181.406
172.006
163.03
154.48
146.355
138.654
131.371
124.502
118.038
111.97
106.288
100.98
96.0346
91.4369
87.1734
83.2293
79.5895
76.2387
73.1613
70.342
67.7654
65.4161
63.2795
61.3408
59.586
58.0016
56.5743
55.2918
54.1422
53.1142
52.1971
51.3811
50.6567
50.0152
49.4487
48.9495
48.5109
48.1265
47.7905
47.4977
47.2432
47.0228
46.8325
46.6688
46.5286
46.409
46.3076
46.2223
46.1509
46.0918
46.0436
46.0049
45.9746
45.9517
45.9353
45.9249
45.9197
45.9193
45.9233
45.9313
45.943
45.9582
45.9767
45.9984
46.0233
46.0512
46.082
46.1159
46.1527
46.1926
46.2354
46.2813
46.3302
46.3823
46.4374
46.4958
46.5574
46.6223
46.6905
46.762
46.8368
46.9146
46.9941
392.875
378.616
364.421
350.316
336.334
322.51
308.874
295.46
282.295
269.408
256.823
244.566
232.655
221.112
209.951
199.187
188.832
178.894
169.379
160.294
151.638
143.413
135.616
128.242
121.287
114.741
108.596
102.842
97.4669
92.4575
87.8007
83.482
79.4867
75.7995
72.4049
69.2872
66.4308
63.8202
61.4399
59.2749
57.3105
55.5323
53.9267
52.4804
51.1807
50.0156
48.9737
48.0442
47.2171
46.4828
45.8326
45.2583
44.7523
44.3076
43.9179
43.5772
43.2802
43.0221
42.7985
42.6054
42.4392
42.2968
42.1753
42.0722
41.9853
41.9126
41.8523
41.8029
41.7631
41.7317
41.7079
41.6906
41.6792
41.6731
41.6718
41.6748
41.6817
41.6924
41.7065
41.7238
41.7444
41.7679
41.7944
41.8238
41.8561
41.8913
41.9293
41.9703
42.0142
42.061
42.1108
42.1637
42.2196
42.2786
42.3408
42.4061
42.4746
42.5462
42.6208
42.697
392.802
378.397
364.055
349.805
335.68
321.712
307.935
294.38
281.077
268.054
255.337
242.949
230.911
219.243
207.962
197.081
186.612
176.564
166.945
157.758
149.005
140.687
132.802
125.344
118.309
111.688
105.473
99.6516
94.2136
89.1456
84.4341
80.0645
76.022
72.291
68.856
65.7011
62.8105
60.1685
57.7595
55.5684
53.5801
51.7804
50.1552
48.6913
47.3757
46.1963
45.1416
44.2006
43.3633
42.6199
41.9617
41.3802
40.8678
40.4175
40.0228
39.6778
39.3769
39.1155
38.8889
38.6931
38.5247
38.3802
38.2569
38.1522
38.0639
37.9898
37.9283
37.8778
37.837
37.8047
37.7798
37.7616
37.7493
37.7423
37.74
37.742
37.7479
37.7575
37.7705
37.7867
37.8059
37.8281
37.8532
37.8811
37.9118
37.9452
37.9815
38.0205
38.0623
38.107
38.1545
38.205
38.2583
38.3147
38.374
38.4364
38.5018
38.5702
38.6414
38.7141
392.734
378.193
363.717
349.332
335.073
320.973
307.065
293.381
279.95
266.802
253.961
241.453
229.297
217.515
206.122
195.132
184.559
174.41
164.693
155.413
146.571
138.168
130.201
122.666
115.558
108.868
102.587
96.7043
91.2086
86.0867
81.3248
76.9084
72.8223
69.0511
65.5788
62.3897
59.4676
56.7967
54.3613
52.1461
50.1359
48.3163
46.6731
45.1929
43.8626
42.6701
41.6035
40.6521
39.8053
39.0535
38.3878
37.7997
37.2815
36.826
36.4267
36.0776
35.7733
35.5086
35.2793
35.0811
34.9105
34.7642
34.6392
34.533
34.4433
34.368
34.3053
34.2538
34.2119
34.1787
34.1529
34.1338
34.1206
34.1126
34.1094
34.1104
34.1153
34.1238
34.1356
34.1506
34.1685
34.1894
34.213
34.2393
34.2684
34.3001
34.3345
34.3715
34.4113
34.4537
34.4989
34.5469
34.5976
34.6512
34.7077
34.767
34.8293
34.8944
34.9622
35.0314
392.672
378.006
363.404
348.895
334.513
320.29
306.261
292.457
278.909
265.645
252.691
240.072
227.808
215.92
204.424
193.335
182.665
172.424
162.618
153.251
144.327
135.846
127.804
120.198
113.022
106.268
99.9273
93.9885
88.4398
83.2684
78.4603
74.0008
69.8747
66.0665
62.56
59.3394
56.3883
53.6909
51.2312
48.9939
46.9636
45.1257
43.4659
41.9707
40.627
39.4224
38.345
37.3838
36.5283
35.7689
35.0963
34.5021
33.9784
33.5182
33.1147
32.7619
32.4542
32.1867
31.9548
31.7544
31.5818
31.4337
31.3072
31.1996
31.1085
31.0321
30.9683
30.9158
30.873
30.8388
30.8121
30.7921
30.778
30.7691
30.7649
30.7649
30.7688
30.7762
30.7869
30.8007
30.8173
30.8368
30.859
30.8837
30.9111
30.9411
30.9736
31.0086
31.0462
31.0864
31.1293
31.1747
31.2228
31.2737
31.3272
31.3835
31.4425
31.5043
31.5686
31.6342
392.614
377.832
363.116
348.493
333.996
319.661
305.521
291.607
277.951
264.58
251.522
238.8
226.437
214.452
202.862
191.681
180.923
170.596
160.708
151.263
142.264
133.71
125.6
117.929
110.691
103.879
97.4827
91.4921
85.895
80.6781
75.8276
71.3286
67.1659
63.3238
59.786
56.5364
53.5589
50.8371
48.3552
46.0975
44.0488
42.1941
40.5192
39.0103
37.6542
36.4385
35.3511
34.381
33.5176
32.751
32.0721
31.4723
30.9437
30.4791
30.0717
29.7155
29.4048
29.1347
28.9004
28.6979
28.5235
28.3737
28.2457
28.1368
28.0446
27.967
27.9022
27.8487
27.805
27.7699
27.7424
27.7215
27.7065
27.6967
27.6916
27.6906
27.6935
27.6998
27.7094
27.7219
27.7373
27.7554
27.776
27.7993
27.825
27.8531
27.8837
27.9168
27.9523
27.9902
28.0307
28.0736
28.1191
28.1671
28.2177
28.2709
28.3267
28.3851
28.446
28.508
392.561
377.673
362.851
348.123
333.522
319.084
304.841
290.826
277.071
263.603
250.448
237.633
225.178
213.104
201.427
190.163
179.324
168.919
158.956
149.439
140.371
131.751
123.578
115.847
108.553
101.687
95.2411
89.2032
83.5616
78.3032
73.4139
68.8789
64.6827
60.8095
57.2431
53.9671
50.9653
48.2212
45.719
43.4428
41.3771
39.5071
37.8183
36.2969
34.9295
33.7036
32.6071
31.6288
30.7581
29.9851
29.3004
28.6955
28.1623
27.6937
27.2828
26.9234
26.6099
26.3373
26.1009
25.8965
25.7204
25.5691
25.4397
25.3295
25.2362
25.1576
25.0919
25.0374
24.9929
24.9569
24.9285
24.9068
24.8909
24.8803
24.8742
24.8723
24.8741
24.8794
24.8878
24.8991
24.9132
24.9299
24.9492
24.9708
24.9949
25.0213
25.05
25.081
25.1144
25.1501
25.1882
25.2286
25.2714
25.3167
25.3643
25.4145
25.4671
25.5221
25.5795
25.6379
392.512
377.528
362.609
347.784
333.088
318.554
304.218
290.111
276.264
262.707
249.465
236.564
224.026
211.87
200.114
188.774
177.861
167.384
157.352
147.77
138.638