/*--------------------------------*- C++ -*----------------------------------*\
  =========                 |
  \\      /  F ield         | OpenFOAM: The Open Source CFD Toolbox
   \\    /   O peration     | Website:  https://openfoam.org
    \\  /    A nd           | Version:  10
     \\/     M anipulation  |
\*---------------------------------------------------------------------------*/
FoamFile
{
    format      ascii;
    class       volScalarField;
    location    "3.5";
    object      T_0;
}
// * * * * * * * * * * * * * * * * * * * * * * * * * * * * * * * * * * * * * //

dimensions      [0 0 0 1 0 0 0];

internalField   nonuniform List<scalar> 
10000
(
374.838
360.885
355.944
353.634
352.264
351.309
350.57
349.96
349.436
348.97
348.55
348.165
347.808
347.476
347.165
346.872
346.598
346.339
346.095
345.865
345.649
345.446
345.255
345.076
344.908
344.751
344.604
344.468
344.341
344.223
344.114
344.013
343.92
343.834
343.756
343.684
343.618
343.558
343.503
343.453
343.408
343.368
343.331
343.298
343.269
343.242
343.219
343.198
343.179
343.162
343.148
343.135
343.124
343.114
343.105
343.097
343.091
343.085
343.08
343.076
343.072
343.069
343.067
343.065
343.063
343.061
343.06
343.06
343.059
343.059
343.058
343.058
343.059
343.059
343.059
343.06
343.061
343.062
343.063
343.064
343.065
343.066
343.068
343.07
343.071
343.073
343.075
343.078
343.08
343.082
343.085
343.088
343.091
343.094
343.097
343.101
343.104
343.108
343.112
343.113
388.208
373.673
365.237
359.996
356.416
353.749
351.622
349.839
348.291
346.913
345.662
344.514
343.449
342.457
341.527
340.653
339.831
339.056
338.326
337.639
336.992
336.383
335.81
335.274
334.771
334.3
333.861
333.452
333.071
332.718
332.391
332.089
331.81
331.553
331.317
331.101
330.904
330.724
330.56
330.411
330.277
330.155
330.045
329.946
329.858
329.778
329.708
329.645
329.588
329.539
329.495
329.456
329.422
329.392
329.366
329.343
329.324
329.307
329.292
329.279
329.268
329.259
329.252
329.245
329.24
329.236
329.232
329.23
329.228
329.227
329.226
329.226
329.227
329.228
329.229
329.231
329.233
329.236
329.239
329.242
329.246
329.25
329.255
329.26
329.265
329.271
329.277
329.284
329.291
329.298
329.306
329.315
329.324
329.333
329.343
329.353
329.364
329.375
329.387
329.398
392.563
380.354
371.333
364.704
359.666
355.663
352.348
349.506
347.004
344.756
342.706
340.815
339.058
337.417
335.877
334.429
333.065
331.78
330.568
329.426
328.35
327.339
326.388
325.495
324.659
323.877
323.147
322.466
321.834
321.246
320.702
320.199
319.735
319.308
318.916
318.557
318.228
317.929
317.656
317.408
317.184
316.982
316.799
316.635
316.487
316.355
316.238
316.133
316.039
315.957
315.884
315.819
315.763
315.713
315.669
315.632
315.599
315.57
315.546
315.525
315.507
315.492
315.479
315.468
315.459
315.452
315.447
315.443
315.44
315.438
315.437
315.437
315.437
315.439
315.441
315.444
315.448
315.452
315.457
315.463
315.469
315.476
315.484
315.492
315.501
315.511
315.521
315.532
315.544
315.556
315.569
315.583
315.598
315.613
315.63
315.647
315.665
315.683
315.703
315.723
394.289
383.845
375.051
367.845
361.91
356.927
352.645
348.884
345.519
342.464
339.657
337.056
334.63
332.358
330.222
328.211
326.315
324.527
322.84
321.249
319.75
318.34
317.014
315.769
314.603
313.512
312.494
311.544
310.661
309.841
309.081
308.379
307.732
307.136
306.588
306.087
305.628
305.21
304.829
304.484
304.171
303.888
303.633
303.403
303.198
303.013
302.849
302.702
302.572
302.457
302.355
302.265
302.186
302.116
302.055
302.003
301.957
301.917
301.883
301.853
301.828
301.807
301.789
301.774
301.762
301.752
301.744
301.738
301.734
301.732
301.73
301.73
301.731
301.733
301.737
301.741
301.746
301.752
301.759
301.767
301.776
301.785
301.796
301.807
301.82
301.833
301.847
301.862
301.879
301.896
301.914
301.934
301.954
301.976
301.998
302.022
302.047
302.073
302.1
302.128
395.08
385.69
377.203
369.75
363.248
357.544
352.484
347.939
343.807
340.012
336.499
333.225
330.16
327.279
324.566
322.008
319.592
317.311
315.157
313.125
311.21
309.407
307.712
306.12
304.628
303.231
301.928
300.712
299.581
298.532
297.559
296.66
295.831
295.067
294.366
293.724
293.136
292.601
292.113
291.67
291.269
290.907
290.58
290.286
290.023
289.787
289.576
289.388
289.221
289.073
288.943
288.827
288.726
288.637
288.559
288.491
288.433
288.382
288.338
288.3
288.268
288.241
288.218
288.199
288.183
288.17
288.16
288.153
288.147
288.144
288.142
288.142
288.143
288.146
288.15
288.156
288.162
288.17
288.179
288.189
288.2
288.212
288.225
288.24
288.256
288.273
288.291
288.31
288.331
288.353
288.376
288.401
288.427
288.454
288.483
288.514
288.545
288.578
288.613
288.648
395.463
386.643
378.353
370.748
363.846
357.588
351.891
346.672
341.86
337.394
333.226
329.32
325.646
322.184
318.915
315.825
312.904
310.143
307.534
305.071
302.748
300.559
298.5
296.567
294.754
293.058
291.473
289.995
288.621
287.344
286.162
285.068
284.059
283.131
282.278
281.497
280.782
280.13
279.537
278.999
278.511
278.07
277.672
277.315
276.994
276.706
276.45
276.221
276.018
275.838
275.679
275.539
275.415
275.307
275.213
275.13
275.058
274.996
274.943
274.897
274.858
274.825
274.797
274.774
274.754
274.739
274.727
274.718
274.711
274.707
274.705
274.704
274.706
274.709
274.714
274.721
274.728
274.738
274.748
274.76
274.774
274.788
274.805
274.822
274.841
274.862
274.884
274.907
274.932
274.959
274.987
275.017
275.048
275.081
275.116
275.153
275.191
275.231
275.273
275.316
395.637
387.078
378.853
371.1
363.869
357.154
350.917
345.113
339.693
334.615
329.841
325.343
321.094
317.077
313.274
309.674
306.264
303.037
299.985
297.101
294.379
291.814
289.4
287.132
285.005
283.014
281.153
279.418
277.804
276.304
274.915
273.631
272.445
271.354
270.352
269.434
268.594
267.828
267.131
266.498
265.924
265.406
264.938
264.518
264.141
263.803
263.501
263.233
262.994
262.782
262.595
262.43
262.285
262.158
262.047
261.95
261.865
261.792
261.729
261.675
261.629
261.59
261.557
261.53
261.508
261.489
261.475
261.464
261.456
261.451
261.449
261.448
261.45
261.454
261.459
261.467
261.476
261.487
261.499
261.513
261.529
261.546
261.565
261.585
261.607
261.631
261.657
261.684
261.713
261.744
261.777
261.812
261.848
261.887
261.928
261.97
262.015
262.061
262.11
262.16
395.691
387.196
378.925
370.993
363.458
356.339
349.627
343.3
337.331
331.692
326.357
321.304
316.513
311.968
307.656
303.564
299.683
296.006
292.524
289.232
286.122
283.19
280.429
277.834
275.4
273.121
270.99
269.003
267.154
265.436
263.844
262.372
261.014
259.763
258.615
257.562
256.599
255.721
254.921
254.195
253.538
252.943
252.407
251.925
251.493
251.105
250.76
250.451
250.177
249.935
249.72
249.531
249.364
249.218
249.091
248.979
248.883
248.799
248.727
248.665
248.612
248.567
248.529
248.498
248.472
248.451
248.435
248.422
248.413
248.407
248.404
248.403
248.405
248.41
248.416
248.424
248.434
248.447
248.461
248.477
248.494
248.514
248.535
248.558
248.583
248.61
248.639
248.67
248.703
248.738
248.776
248.815
248.857
248.901
248.947
248.995
249.046
249.099
249.154
249.21
395.671
387.11
378.709
370.561
362.726
355.23
348.083
341.279
334.807
328.65
322.793
317.219
311.916
306.87
302.071
297.509
293.176
289.064
285.167
281.479
277.994
274.705
271.607
268.694
265.96
263.4
261.006
258.773
256.694
254.763
252.973
251.317
249.79
248.383
247.091
245.906
244.823
243.835
242.936
242.119
241.379
240.71
240.107
239.564
239.077
238.641
238.252
237.905
237.597
237.323
237.082
236.869
236.681
236.517
236.373
236.248
236.139
236.044
235.963
235.893
235.834
235.783
235.741
235.705
235.676
235.653
235.634
235.62
235.609
235.602
235.599
235.598
235.6
235.605
235.612
235.621
235.632
235.646
235.661
235.679
235.698
235.72
235.744
235.77
235.797
235.827
235.86
235.894
235.931
235.97
236.011
236.055
236.101
236.15
236.201
236.255
236.311
236.37
236.432
236.495
395.602
386.889
378.295
369.9
361.756
353.898
346.342
339.095
332.154
325.515
319.168
313.106
307.318
301.797
296.534
291.522
286.755
282.226
277.929
273.859
270.01
266.376
262.951
259.729
256.704
253.87
251.22
248.748
246.445
244.306
242.323
240.489
238.796
237.237
235.805
234.492
233.291
232.195
231.198
230.292
229.472
228.73
228.061
227.459
226.919
226.436
226.004
225.619
225.277
224.974
224.706
224.47
224.262
224.08
223.92
223.781
223.66
223.556
223.465
223.388
223.322
223.266
223.218
223.179
223.146
223.12
223.099
223.083
223.072
223.064
223.06
223.059
223.061
223.066
223.073
223.083
223.096
223.11
223.127
223.147
223.168
223.192
223.218
223.246
223.276
223.309
223.344
223.382
223.422
223.465
223.51
223.558
223.608
223.662
223.718
223.777
223.838
223.903
223.97
224.039
395.501
386.577
377.746
369.076
360.617
352.403
344.455
336.788
329.407
322.314
315.507
308.983
302.737
296.764
291.059
285.618
280.435
275.506
270.825
266.387
262.187
258.219
254.478
250.957
247.651
244.552
241.653
238.948
236.428
234.087
231.916
229.908
228.054
226.347
224.778
223.34
222.025
220.825
219.732
218.74
217.841
217.028
216.295
215.636
215.044
214.514
214.041
213.619
213.244
212.912
212.618
212.359
212.131
211.931
211.756
211.604
211.471
211.357
211.258
211.173
211.1
211.039
210.987
210.943
210.908
210.879
210.856
210.838
210.825
210.817
210.812
210.811
210.813
210.818
210.826
210.837
210.85
210.866
210.884
210.904
210.927
210.953
210.981
211.011
211.044
211.079
211.117
211.158
211.201
211.247
211.296
211.348
211.402
211.46
211.52
211.584
211.65
211.72
211.792
211.867
395.378
386.203
377.103
368.14
359.358
350.791
342.464
334.396
326.597
319.075
311.832
304.871
298.19
291.788
285.663
279.812
274.232
268.919
263.869
259.077
254.539
250.25
246.204
242.395
238.816
235.461
232.322
229.391
226.661
224.124
221.771
219.594
217.585
215.733
214.032
212.473
211.046
209.744
208.559
207.483
206.507
205.626
204.83
204.115
203.473
202.898
202.384
201.926
201.52
201.159
200.84
200.559
200.312
200.095
199.905
199.739
199.595
199.471
199.363
199.271
199.192
199.125
199.069
199.022
198.983
198.951
198.926
198.907
198.893
198.883
198.878
198.876
198.878
198.884
198.892
198.903
198.917
198.934
198.953
198.975
199
199.027
199.056
199.089
199.124
199.161
199.202
199.245
199.291
199.341
199.393
199.448
199.506
199.567
199.632
199.7
199.77
199.845
199.922
200.001
395.241
385.787
376.398
367.127
358.017
349.101
340.406
331.951
323.753
315.822
308.166
300.789
293.696
286.886
280.36
274.119
268.159
262.478
257.075
251.944
247.082
242.484
238.145
234.058
230.216
226.614
223.242
220.094
217.161
214.435
211.906
209.566
207.405
205.415
203.585
201.908
200.374
198.973
197.698
196.54
195.491
194.542
193.687
192.917
192.226
191.607
191.054
190.562
190.124
189.736
189.393
189.09
188.823
188.59
188.385
188.207
188.052
187.918
187.802
187.703
187.618
187.546
187.485
187.434
187.392
187.358
187.331
187.31
187.294
187.284
187.278
187.276
187.278
187.283
187.292
187.304
187.318
187.336
187.356
187.379
187.405
187.434
187.465
187.499
187.536
187.576
187.618
187.664
187.713
187.765
187.82
187.878
187.939
188.004
188.072
188.144
188.219
188.297
188.379
188.462
395.095
385.345
375.653
366.066
356.626
347.364
338.308
329.481
320.9
312.578
304.528
296.757
289.27
282.073
275.166
268.551
262.229
256.198
250.457
245.002
239.829
234.935
230.314
225.959
221.866
218.025
214.43
211.073
207.944
205.035
202.336
199.838
197.532
195.407
193.454
191.663
190.024
188.529
187.167
185.93
184.809
183.796
182.881
182.059
181.321
180.66
180.069
179.543
179.075
178.66
178.293
177.97
177.685
177.435
177.217
177.026
176.861
176.717
176.593
176.487
176.396
176.319
176.254
176.199
176.154
176.118
176.088
176.066
176.049
176.038
176.031
176.029
176.03
176.036
176.044
176.056
176.072
176.09
176.111
176.135
176.162
176.192
176.225
176.26
176.299
176.34
176.385
176.433
176.484
176.538
176.596
176.657
176.721
176.789
176.86
176.935
177.013
177.095
177.181
177.268
394.943
384.888
374.884
364.978
355.208
345.605
336.198
327.009
318.059
309.365
300.938
292.791
284.93
277.363
270.093
263.124
256.457
250.091
244.027
238.261
232.792
227.614
222.723
218.112
213.777
209.708
205.898
202.339
199.022
195.937
193.075
190.426
187.979
185.725
183.652
181.752
180.013
178.426
176.98
175.667
174.477
173.401
172.431
171.557
170.773
170.071
169.444
168.885
168.389
167.948
167.558
167.215
166.912
166.647
166.415
166.213
166.037
165.884
165.753
165.639
165.543
165.461
165.391
165.333
165.285
165.246
165.215
165.191
165.172
165.16
165.153
165.15
165.151
165.156
165.165
165.178
165.193
165.212
165.234
165.259
165.287
165.318
165.352
165.389
165.429
165.472
165.518
165.568
165.621
165.677
165.737
165.8
165.867
165.937
166.011
166.089
166.17
166.255
166.344
166.435
394.788
384.423
374.105
363.879
353.781
343.843
334.093
324.556
315.251
306.199
297.413
288.907
280.69
272.771
265.156
257.849
250.852
244.168
237.796
231.734
225.981
220.532
215.383
210.528
205.96
201.673
197.658
193.906
190.408
187.155
184.136
181.341
178.759
176.381
174.194
172.188
170.352
168.677
167.151
165.765
164.508
163.372
162.347
161.425
160.597
159.856
159.194
158.603
158.079
157.613
157.202
156.839
156.519
156.239
155.994
155.78
155.594
155.433
155.293
155.174
155.072
154.985
154.911
154.85
154.799
154.757
154.724
154.698
154.679
154.665
154.657
154.654
154.655
154.66
154.669
154.681
154.697
154.716
154.739
154.764
154.793
154.825
154.86
154.898
154.939
154.983
155.031
155.082
155.137
155.195
155.256
155.322
155.39
155.463
155.539
155.619
155.703
155.791
155.882
155.976
394.633
383.957
373.326
362.782
352.362
342.096
332.013
322.137
312.492
303.096
293.967
285.118
276.563
268.309
260.365
252.736
245.427
238.439
231.774
225.431
219.407
213.699
208.304
203.215
198.426
193.93
189.718
185.782
182.111
178.697
175.528
172.594
169.883
167.385
165.088
162.981
161.053
159.293
157.69
156.234
154.914
153.72
152.643
151.674
150.804
150.024
149.328
148.708
148.156
147.667
147.234
146.853
146.517
146.222
145.964
145.739
145.544
145.374
145.228
145.102
144.994
144.903
144.825
144.76
144.707
144.663
144.628
144.6
144.579
144.565
144.556
144.552
144.552
144.557
144.566
144.579
144.595
144.614
144.637
144.663
144.692
144.725
144.76
144.799
144.841
144.887
144.936
144.988
145.044
145.103
145.166
145.233
145.304
145.378
145.456
145.538
145.624
145.714
145.807
145.903
394.479
383.495
372.554
361.697
350.961
340.376
329.969
319.768
309.795
300.07
290.613
281.438
272.559
263.987
255.73
247.796
240.189
232.913
225.97
219.358
213.077
207.124
201.494
196.183
191.183
186.487
182.088
177.976
174.14
170.572
167.259
164.192
161.358
158.746
156.344
154.141
152.124
150.283
148.606
147.083
145.701
144.452
143.326
142.311
141.401
140.585
139.857
139.208
138.63
138.118
137.665
137.266
136.914
136.606
136.336
136.1
135.895
135.718
135.564
135.432
135.32
135.224
135.142
135.074
135.018
134.972
134.934
134.905
134.883
134.868
134.858
134.853
134.853
134.858
134.867
134.879
134.895
134.915
134.938
134.964
134.994
135.027
135.063
135.102
135.145
135.192
135.241
135.294
135.351
135.412
135.476
135.544
135.615
135.691
135.77
135.854
135.941
136.033
136.128
136.226
394.328
383.041
371.796
360.633
349.589
338.693
327.975
317.459
307.171
297.133
287.362
277.876
268.69
259.815
251.261
243.037
235.148
227.598
220.39
213.524
206.999
200.812
194.959
189.436
184.236
179.351
174.773
170.493
166.501
162.786
159.337
156.142
153.191
150.47
147.968
145.672
143.571
141.653
139.906
138.318
136.878
135.577
134.402
133.345
132.396
131.546
130.786
130.109
129.508
128.974
128.501
128.085
127.718
127.396
127.115
126.869
126.655
126.47
126.31
126.172
126.054
125.954
125.869
125.798
125.739
125.69
125.651
125.621
125.597
125.581
125.57
125.565
125.564
125.568
125.577
125.589
125.605
125.625
125.648
125.674
125.704
125.737
125.774
125.814
125.857
125.904
125.954
126.008
126.065
126.127
126.191
126.26
126.333
126.409
126.49
126.574
126.663
126.755
126.852
126.95
394.18
382.598
371.056
359.596
348.253
337.057
326.038
315.221
304.632
294.292
284.223
274.441
264.962
255.8
246.965
238.465
230.309
222.5
215.041
207.933
201.176
194.768
188.704
182.98
177.59
172.525
167.778
163.339
159.197
155.343
151.764
148.449
145.385
142.561
139.964
137.581
135.399
133.408
131.593
129.944
128.449
127.097
125.877
124.779
123.793
122.91
122.121
121.418
120.792
120.238
119.747
119.314
118.933
118.599
118.306
118.05
117.828
117.636
117.469
117.326
117.203
117.099
117.01
116.936
116.875
116.824
116.783
116.751
116.726
116.708
116.697
116.691
116.69
116.693
116.701
116.713
116.729
116.749
116.772
116.798
116.828
116.861
116.898
116.938
116.982
117.029
117.079
117.133
117.191
117.253
117.318
117.387
117.46
117.537
117.618
117.703
117.792
117.886
117.983
118.082
394.037
382.167
370.338
358.591
346.959
335.475
324.166
313.06
302.183
291.557
281.203
271.14
261.383
251.949
242.846
234.087
225.677
217.622
209.926
202.59
195.614
188.996
182.732
176.818
171.247
166.013
161.105
156.515
152.232
148.245
144.543
141.114
137.944
135.022
132.334
129.868
127.61
125.549
123.67
121.963
120.416
119.016
117.753
116.616
115.595
114.681
113.863
113.135
112.487
111.913
111.405
110.956
110.561
110.215
109.912
109.647
109.417
109.217
109.044
108.896
108.769
108.66
108.568
108.491
108.427
108.374
108.331
108.298
108.272
108.253
108.24
108.233
108.232
108.235
108.242
108.254
108.27
108.289
108.312
108.338
108.368
108.401
108.438
108.478
108.522
108.569
108.619
108.673
108.731
108.793
108.858
108.927
109
109.077
109.159
109.244
109.333
109.426
109.524
109.623
393.898
381.752
369.646
357.621
345.712
333.95
322.365
310.983
299.831
288.932
278.307
267.977
257.958
248.265
238.911
229.905
221.255
212.968
205.048
197.497
190.314
183.498
177.045
170.951
165.21
159.815
154.755
150.022
145.606
141.494
137.676
134.138
130.868
127.853
125.08
122.535
120.205
118.077
116.138
114.376
112.778
111.333
110.029
108.855
107.801
106.857
106.013
105.261
104.592
103.999
103.474
103.011
102.603
102.245
101.932
101.658
101.42
101.214
101.036
100.882
100.75
100.638
100.543
100.463
100.397
100.342
100.297
100.262
100.234
100.215
100.201
100.193
100.191
100.194
100.201
100.212
100.227
100.246
100.269
100.295
100.324
100.357
100.394
100.433
100.477
100.523
100.574
100.628
100.685
100.747
100.812
100.881
100.954
101.03
101.111
101.196
101.285
101.378
101.475
101.574
393.765
381.353
368.98
356.69
344.515
332.488
320.638
308.993
297.58
286.422
275.541
264.958
254.69
244.753
235.16
225.922
217.046
208.541
200.409
192.654
185.276
178.273
171.643
165.38
159.478
153.931
148.728
143.861
139.318
135.089
131.16
127.52
124.156
121.053
118.198
115.579
113.18
110.99
108.994
107.18
105.535
104.047
102.705
101.496
100.41
99.438
98.569
97.7944
97.1054
96.4943
95.9536
95.4764
95.0563
94.6876
94.3647
94.0829
93.8376
93.6249
93.441
93.2826
93.1469
93.0311
92.9329
92.8502
92.7813
92.7243
92.6781
92.6412
92.6127
92.5916
92.5772
92.5687
92.5656
92.5675
92.5739
92.5846
92.5993
92.6177
92.6399
92.6655
92.6947
92.7272
92.7632
92.8026
92.8455
92.8918
92.9417
92.9952
93.0523
93.1131
93.1776
93.246
93.3183
93.3945
93.4747
93.5589
93.6472
93.7395
93.8357
93.9339
393.638
380.971
368.344
355.8
343.372
331.092
318.99
307.095
295.434
284.03
272.907
262.085
251.582
241.415
231.597
222.139
213.051
204.339
196.009
188.063
180.501
173.322
166.524
160.102
154.049
148.359
143.021
138.027
133.366
129.026
124.994
121.257
117.803
114.618
111.687
108.998
106.535
104.285
102.236
100.373
98.6832
97.1548
95.7756
94.534
93.4189
92.4199
91.5271
90.7312
90.0233
89.3954
88.8398
88.3494
87.9176
87.5386
87.2068
86.9171
86.6649
86.4461
86.2569
86.094
85.9543
85.8351
85.7339
85.6487
85.5775
85.5186
85.4707
85.4323
85.4026
85.3804
85.3649
85.3556
85.3517
85.3529
85.3587
85.3687
85.3828
85.4007
85.4222
85.4474
85.4759
85.5079
85.5434
85.5822
85.6244
85.6701
85.7193
85.7721
85.8284
85.8885
85.9522
86.0197
86.0911
86.1664
86.2456
86.3288
86.416
86.5072
86.6021
86.6991
393.517
380.607
367.738
354.952
342.283
329.763
317.423
305.291
293.394
281.758
270.406
259.358
248.634
238.25
228.22
218.556
209.268
200.363
191.846
183.72
175.986
168.642
161.687
155.115
148.92
143.096
137.632
132.519
127.746
123.301
119.172
115.345
111.807
108.544
105.542
102.786
100.263
97.9578
95.8575
93.9482
92.2168
90.6505
89.2369
87.9642
86.8213
85.7972
84.882
84.0661
83.3404
82.6966
82.1269
81.6241
81.1814
80.7927
80.4524
80.1552
79.8965
79.672
79.4779
79.3107
79.1672
79.0447
78.9407
78.853
78.7796
78.7189
78.6693
78.6296
78.5986
78.5752
78.5588
78.5486
78.5439
78.5443
78.5493
78.5587
78.5721
78.5893
78.6102
78.6347
78.6626
78.6939
78.7286
78.7666
78.8081
78.853
78.9013
78.9531
79.0085
79.0675
79.1302
79.1966
79.2667
79.3408
79.4187
79.5005
79.5862
79.6759
79.7693
79.8647
393.401
380.261
367.163
354.147
341.249
328.502
315.936
303.58
291.462
279.607
268.038
256.779
245.846
235.259
225.03
215.173
205.697
196.61
187.918
179.623
171.727
164.229
157.127
150.414
144.087
138.136
132.554
127.33
122.452
117.91
113.689
109.778
106.161
102.825
99.7553
96.9377
94.3576
92.0007
89.8528
87.9003
86.1295
84.5275
83.0816
81.7798
80.6107
79.5631
78.6269
77.7921
77.0497
76.391
75.8081
75.2936
74.8406
74.4428
74.0944
73.7903
73.5254
73.2956
73.0968
72.9254
72.7784
72.6528
72.5461
72.456
72.3806
72.3181
72.267
72.2258
72.1935
72.1691
72.1517
72.1405
72.135
72.1346
72.1388
72.1474
72.1601
72.1766
72.1968
72.2204
72.2475
72.278
72.3118
72.349
72.3895
72.4333
72.4806
72.5313
72.5855
72.6433
72.7046
72.7697
72.8384
72.9109
72.9872
73.0673
73.1513
73.2392
73.3307
73.4241
393.292
379.935
366.618
353.386
340.272
327.311
314.532
301.964
289.637
277.576
265.805
254.346
243.218
232.439
222.024
211.986
202.334
193.077
184.221
175.769
167.722
160.079
152.839
145.995
139.543
133.475
127.782
122.454
117.478
112.844
108.539
104.548
100.857
97.4531
94.3206
91.4451
88.8118
86.4061
84.2138
82.2207
80.413
78.7776
77.3015
75.9725
74.7788
73.7092
72.7532
71.9008
71.1427
70.47
69.8747
69.3492
68.8865
68.4802
68.1244
67.8136
67.543
67.3081
67.1049
66.9297
66.7793
66.6507
66.5415
66.4492
66.3718
66.3076
66.2549
66.2124
66.1789
66.1534
66.1349
66.1228
66.1164
66.1151
66.1186
66.1264
66.1383
66.1539
66.1732
66.1961
66.2223
66.2518
66.2846
66.3208
66.3602
66.4029
66.4489
66.4983
66.5511
66.6075
66.6673
66.7307
66.7977
66.8684
66.9429
67.0211
67.103
67.1888
67.278
67.3692
393.19
379.626
366.105
352.668
339.352
326.188
313.208
300.443
287.92
275.665
263.703
252.057
240.746
229.789
219.2
208.992
199.176
189.761
180.751
172.152
163.964
156.186
148.817
141.851
135.283
129.106
123.309
117.883
112.817
108.097
103.712
99.6468
95.8877
92.4199
89.2287
86.2991
83.6161
81.165
78.9311
76.9001
75.058
73.3913
71.887
70.5325
69.3159
68.2257
67.2513
66.3824
65.6096
64.9239
64.317
63.7812
63.3094
62.8951
62.5322
62.2153
61.9393
61.6996
61.4922
61.3134
61.1599
61.0286
60.9169
60.8224
60.7432
60.6773
60.6232
60.5794
60.5447
60.5181
60.4986
60.4855
60.4782
60.4761
60.4787
60.4856
60.4966
60.5114
60.5298
60.5517
60.5769
60.6054
60.6371
60.6721
60.7103
60.7517
60.7963
60.8443
60.8956
60.9503
61.0084
61.07
61.1351
61.2038
61.2762
61.3522
61.4318
61.5152
61.6019
61.6905
393.093
379.337
365.623
351.994
338.486
325.133
311.966
299.014
286.307
273.872
261.732
249.911
238.429
227.305
216.553
206.187
196.218
186.655
177.503
168.766
160.446
152.543
145.054
137.975
131.299
125.019
119.126
113.61
108.458
103.659
99.1999
95.0658
91.2426
87.7156
84.4697
81.4897
78.7605
76.267
73.9943
71.928
70.0539
68.3581
66.8274
65.4492
64.2112
63.1018
62.1102
61.2259
60.4394
59.7415
59.1238
58.5784
58.0982
57.6764
57.3069
56.9842
56.7031
56.459
56.2478
56.0656
55.909
55.7751
55.6611
55.5647
55.4837
55.4162
55.3606
55.3155
55.2797
55.252
55.2316
55.2175
55.2093
55.2063
55.208
55.214
55.2241
55.238
55.2554
55.2762
55.3004
55.3277
55.3583
55.392
55.4288
55.4688
55.512
55.5584
55.608
55.6609
55.7171
55.7767
55.8398
55.9063
55.9763
56.0499
56.127
56.2077
56.2918
56.3775
393.003
379.065
365.171
351.362
337.676
324.145
310.802
297.677
284.798
272.193
259.888
247.904
236.263
224.982
214.079
203.566
193.455
183.753
174.469
165.605
157.163
149.143
141.543
134.357
127.581
121.207
115.224
109.624
104.393
99.5207
94.9924
90.7942
86.9116
83.3295
80.0328
77.006
74.2337
71.7008
69.3922
67.2931
65.3891
63.6662
62.1111
60.7108
59.4528
58.3256
57.318
56.4194
55.6201
54.9109
54.2831
53.7288
53.2407
52.812
52.4364
52.1083
51.8224
51.5742
51.3593
51.1739
51.0146
50.8782
50.7621
50.6637
50.581
50.512
50.4551
50.4088
50.3718
50.3431
50.3216
50.3067
50.2975
50.2936
50.2943
50.2995
50.3086
50.3215
50.3378
50.3576
50.3806
50.4068
50.4361
50.4684
50.5038
50.5423
50.5838
50.6285
50.6763
50.7273
50.7815
50.839
50.8998
50.964
51.0315
51.1025
51.1769
51.2548
51.3358
51.4186
392.918
378.812
364.749
350.772
336.919
323.223
309.716
296.428
283.39
270.627
258.167
246.032
234.242
222.817
211.773
201.124
190.88
181.051
171.643
162.661
154.106
145.978
138.274
130.991
124.122
117.659
111.594
105.915
100.612
95.6708
91.0786
86.821
82.8832
79.2501
75.9063
72.8361
70.024
67.4545
65.1125
62.983
61.0513
59.3034
57.7255
56.3047
55.0283
53.8845
52.862
51.9502
51.139
50.4192
49.7821
49.2195
48.7241
48.2889
47.9076
47.5745
47.2842
47.0321
46.8138
46.6254
46.4635
46.3248
46.2066
46.1065
46.0222
45.9518
45.8936
45.8461
45.808
45.7782
45.7558
45.7399
45.7298
45.7249
45.7248
45.7289
45.7371
45.7489
45.7642
45.7829
45.8047
45.8296
45.8575
45.8885
45.9224
45.9592
45.9991
46.0419
46.0878
46.1368
46.1889
46.2441
46.3025
46.3642
46.4291
46.4973
46.5689
46.6437
46.7217
46.8012
392.839
378.575
364.355
350.223
336.214
322.364
308.704
295.266
282.079
269.17
256.566
244.29
232.363
220.804
209.629
198.853
188.487
178.54
169.018
159.927
151.267
143.038
135.239
127.865
120.91
114.366
108.224
102.473
97.1024
92.0981
87.4469
83.1344
79.1456
75.4653
72.0779
68.9675
66.1186
63.5153
61.1424
58.9847
57.0274
55.2563
53.6574
52.2176
50.9241
49.765
48.7287
47.8046
46.9825
46.253
45.6071
45.0369
44.5346
44.0934
43.7069
43.3691
43.0747
42.819
42.5976
42.4064
42.242
42.1012
41.9811
41.8793
41.7935
41.7217
41.6622
41.6136
41.5744
41.5436
41.5203
41.5034
41.4924
41.4866
41.4855
41.4887
41.4958
41.5066
41.5208
41.5383
41.5589
41.5825
41.609
41.6385
41.6708
41.706
41.7441
41.7851
41.829
41.8758
41.9257
41.9786
42.0345
42.0935
42.1557
42.2211
42.2896
42.3613
42.436
42.5122
392.766
378.356
363.99
349.712
335.56
321.566
307.765
294.187
280.862
267.818
255.081
242.675
230.62
218.937
207.642
196.749
186.269
176.213
166.586
157.393
148.636
140.315
132.428
124.97
117.936
111.317
105.104
99.2871
93.8536
88.791
84.0853
79.7221
75.6863
71.9625
68.5348
65.3874
62.5044
59.87
57.4686
55.2849
53.304
51.5113
49.8931
48.4357
47.1265
45.9532
44.9042
43.9687
43.1365
42.3979
41.7441
41.1667
40.6582
40.2114
39.8199
39.4778
39.1797
38.9207
38.6963
38.5025
38.3359
38.193
38.0712
37.9677
37.8805
37.8074
37.7468
37.697
37.6568
37.6251
37.6007
37.583
37.571
37.5643
37.5622
37.5645
37.5706
37.5803
37.5934
37.6097
37.629
37.6512
37.6764
37.7043
37.735
37.7685
37.8047
37.8438
37.8856
37.9303
37.9778
38.0283
38.0817
38.138
38.1974
38.2598
38.3252
38.3937
38.4649
38.5377
392.698
378.153
363.652
349.24
334.954
320.828
306.896
293.188
279.736
266.567
253.707
241.18
229.008
217.21
205.804
194.803
184.219
174.061
164.337
155.052
146.206
137.8
129.831
122.296
115.189
108.501
102.223
96.3444
90.8536
85.7372
80.9814
76.5715
72.4924
68.7285
65.2637
62.0823
59.1679
56.5048
54.0771
51.8695
49.8668
48.0544
46.4183
44.9448
43.621
42.4346
41.374
40.428
39.5864
38.8395
38.1783
37.5944
37.0801
36.6282
36.2322
35.8861
35.5845
35.3223
35.0952
34.8991
34.7303
34.5855
34.462
34.3571
34.2685
34.1942
34.1324
34.0816
34.0405
34.0078
33.9825
33.9638
33.951
33.9433
33.9403
33.9415
33.9466
33.9553
33.9672
33.9823
34.0003
34.0212
34.0449
34.0713
34.1003
34.132
34.1664
34.2035
34.2432
34.2857
34.3309
34.3788
34.4296
34.4832
34.5397
34.599
34.6613
34.7264
34.7943
34.8635
392.636
377.965
363.34
348.803
334.394
320.146
306.093
292.266
278.696
265.412
252.438
239.801
227.52
215.617
204.108
193.008
182.328
172.078
162.265
152.893
143.965
135.481
127.438
119.832
112.657
105.906
99.5682
93.6336
88.09
82.9242
78.1224
73.6697
69.5508
65.75
62.2513
59.0385
56.0953
53.4058
50.9541
48.7244
46.7017
44.8712
43.2186
41.7303
40.3932
39.1948
38.1234
37.1678
36.3176
35.563
34.895
34.3051
33.7854
33.3288
32.9286
32.5789
32.274
32.009
31.7794
31.581
31.4102
31.2638
31.1387
31.0324
30.9425
30.867
30.8042
30.7524
30.7103
30.6767
30.6505
30.6309
30.6172
30.6086
30.6047
30.6049
30.609
30.6165
30.6273
30.6412
30.6579
30.6774
30.6996
30.7245
30.7518
30.7818
30.8143
30.8493
30.887
30.9272
30.97
31.0154
31.0635
31.1144
31.1679
31.2242
31.2832
31.345
31.4093
31.4749
392.578
377.792
363.052
348.401
333.879
319.518
305.354
291.417
277.739
264.348
251.271
238.531
226.151
214.152
202.548
191.357
180.588
170.253
160.358
150.908
141.905
133.349
125.238
117.567
110.331
103.521
97.1287
91.1425
85.5505
80.3395
75.4955
71.0035
66.8482
63.0136
59.4837
56.2422
53.2727
50.559
48.0851
45.8354
43.7943
41.9472
40.2795
38.7776
37.4282
36.2188
35.1375
34.1731
33.315
32.5534
31.8792
31.2837
30.7591
30.2982
29.8942
29.541
29.2332
28.9655
28.7336
28.5332
28.3606
28.2125
28.086
27.9783
27.8873
27.8107
27.7469
27.6942
27.6511
27.6166
27.5896
27.5692
27.5545
27.545
27.5402
27.5394
27.5425
27.549
27.5586
27.5713
27.5867
27.6048
27.6256
27.6488
27.6745
27.7027
27.7333
27.7663
27.8018
27.8397
27.8802
27.9231
27.9685
28.0165
28.0671
28.1203
28.1761
28.2345
28.2954
28.3574
392.525
377.634
362.788
348.032
333.405
318.941
304.675
290.638
276.86
263.372
250.199
237.366
224.895
212.806
201.117
189.842
178.993
168.58
158.61
149.088
140.016
131.394
123.22
115.49
108.198
101.335
94.8922
88.8589
83.2227
77.9703
73.0877
68.5598
64.3712
60.5058
56.9474
53.6796
50.686
47.9502
45.4561
43.1879
41.1301
39.2677
37.5863
36.0719
34.7113
33.4919
32.4015
31.429
30.5637
29.7957
29.1158
28.5152
27.9861
27.5212
27.1137
26.7574
26.4468
26.1768
25.9427
25.7404
25.5661
25.4165
25.2887
25.1798
25.0877
25.0101
24.9453
24.8916
24.8477
24.8124
24.7845
24.7632
24.7477
24.7374
24.7316
24.7299
24.7319
24.7373
24.7459
24.7573
24.7715
24.7882
24.8075
24.8292
24.8532
24.8796
24.9083
24.9393
24.9727
25.0084
25.0464
25.0868
25.1296
25.1748
25.2225
25.2726
25.3252
25.3802
25.4375
25.496
392.477
377.488
362.546
347.694
332.971
318.413
304.053
289.924
276.056
262.478
249.217
236.299
223.745
211.575
199.807