/*--------------------------------*- C++ -*----------------------------------*\
| =========                 |                                                 |
| \\      /  F ield         | OpenFOAM: The Open Source CFD Toolbox           |
|  \\    /   O peration     | Version:  2406                                  |
|   \\  /    A nd           | Website:  www.openfoam.com                      |
|    \\/     M anipulation  |                                                 |
\*---------------------------------------------------------------------------*/
FoamFile
{
    version     2.0;
    format      ascii;
    arch        "LSB;label=32;scalar=64";
    class       volScalarField;
    location    "9.75";
    object      p;
}
// * * * * * * * * * * * * * * * * * * * * * * * * * * * * * * * * * * * * * //

dimensions      [0 2 -2 0 0 0 0];

internalField   nonuniform List<scalar> 
34560
(
-8.1629584
-8.1558247
-8.1477543
-8.1382695
-8.1249418
-8.1054384
-8.0809797
-8.0557735
-8.0358674
-8.2089558
-8.2012336
-8.192431
-8.1809095
-8.163276
-8.1375156
-8.1067993
-8.0790269
-8.0601665
-8.2301488
-8.2226498
-8.2148627
-8.2047922
-8.1877185
-8.1607349
-8.1283415
-8.0993779
-8.0795358
-8.2443334
-8.2374101
-8.2308797
-8.222358
-8.2064272
-8.1795868
-8.1464373
-8.1159562
-8.094679
-8.2506158
-8.2445371
-8.2398422
-8.2336065
-8.219466
-8.1933472
-8.1597553
-8.1284576
-8.1058236
-8.2456318
-8.2410142
-8.2389986
-8.2363075
-8.2254799
-8.2013367
-8.1682093
-8.1366287
-8.1125852
-8.2342301
-8.2311714
-8.2319361
-8.2329508
-8.2258349
-8.2042118
-8.1719454
-8.1403795
-8.1147158
-8.2172984
-8.2159514
-8.2196799
-8.2246519
-8.2215926
-8.2027991
-8.1712981
-8.1399864
-8.1125775
-8.1972436
-8.1976404
-8.204273
-8.2131224
-8.2140725
-8.1977851
-8.1676051
-8.1365851
-8.1072897
-8.1768187
-8.1788853
-8.1881686
-8.2004629
-8.2048984
-8.1909707
-8.1629128
-8.1314804
-8.1003522
-8.1598715
-8.1633708
-8.1747783
-8.1896822
-8.1967111
-8.1847995
-8.1583851
-8.1261784
-8.0935545
-8.1506221
-8.1548077
-8.1672518
-8.1834554
-8.1918154
-8.181019
-8.1552941
-8.122509
-8.0889672
-8.1506214
-8.1548072
-8.1672515
-8.1834552
-8.1918153
-8.181019
-8.1552941
-8.122509
-8.0889672
-8.1598704
-8.1633698
-8.1747774
-8.1896815
-8.1967105
-8.1847993
-8.1583849
-8.1261783
-8.0935545
-8.176817
-8.1788837
-8.188167
-8.2004614
-8.2048973
-8.19097
-8.1629123
-8.13148
-8.1003517
-8.1972402
-8.1976374
-8.2042702
-8.21312
-8.2140706
-8.1977837
-8.1676043
-8.1365844
-8.1072885
-8.2172934
-8.2159468
-8.2196758
-8.2246483
-8.2215897
-8.202797
-8.1712966
-8.139985
-8.1125757
-8.2342248
-8.2311663
-8.2319313
-8.2329464
-8.2258311
-8.2042089
-8.1719432
-8.1403775
-8.1147138
-8.2456252
-8.241008
-8.2389929
-8.2363024
-8.2254754
-8.2013329
-8.1682061
-8.1366261
-8.1125833
-8.2506089
-8.2445307
-8.2398366
-8.2336014
-8.2194612
-8.1933428
-8.1597514
-8.1284544
-8.1058213
-8.2443269
-8.2374042
-8.2308743
-8.2223531
-8.2064225
-8.1795822
-8.1464332
-8.1159527
-8.0946761
-8.2301429
-8.2226444
-8.2148578
-8.2047877
-8.1877141
-8.1607306
-8.1283378
-8.0993752
-8.079534
-8.2089509
-8.201229
-8.1924266
-8.1809054
-8.1632722
-8.1375122
-8.1067968
-8.0790262
-8.0601673
-8.1629551
-8.1558213
-8.1477509
-8.1382664
-8.1249392
-8.1054368
-8.0809792
-8.0557748
-8.035871
-7.6340474
-7.6336143
-7.6335538
-7.633846
-7.6338722
-7.632913
-7.6309968
-7.628996
-7.6270914
-7.6384469
-7.6378377
-7.6377139
-7.6380402
-7.6379296
-7.6363876
-7.6333745
-7.6297086
-7.6256869
-7.637938
-7.6372025
-7.6371679
-7.63777
-7.6377976
-7.6359365
-7.6321395
-7.6273576
-7.6220044
-7.6317831
-7.6309198
-7.6310346
-7.6320747
-7.6324868
-7.6305914
-7.6263242
-7.6206403
-7.6140886
-7.6201598
-7.6191607
-7.6194454
-7.6209898
-7.6219034
-7.6200972
-7.6153516
-7.6088363
-7.6011874
-7.604153
-7.6028891
-7.6032093
-7.6051605
-7.6064871
-7.6046585
-7.5993349
-7.5920171
-7.583404
-7.5841238
-7.5825613
-7.5828479
-7.5851132
-7.5867527
-7.5848013
-7.5788082
-7.5706762
-7.5613025
-7.5616603
-7.5597446
-7.5598772
-7.5622803
-7.5640348
-7.5617796
-7.5550092
-7.546025
-7.5360922
-7.5387778
-7.536477
-7.5363455
-7.5386963
-7.5403387
-7.5375783
-7.5299853
-7.5201083
-7.509791
-7.5180948
-7.5153959
-7.5149101
-7.5170326
-7.5183587
-7.5149451
-7.50659
-7.4958315
-7.4852776
-7.5022615
-7.4992252
-7.4983963
-7.5002309
-7.5011852
-7.4971596
-7.4881452
-7.4766704
-7.4659906
-7.4934196
-7.4902407
-7.489252
-7.4909359
-7.4916799
-7.4873073
-7.4779155
-7.4660397
-7.4553077
-7.4934195
-7.4902406
-7.4892519
-7.4909357
-7.4916798
-7.4873072
-7.4779155
-7.4660398
-7.4553078
-7.5022612
-7.4992248
-7.4983959
-7.5002305
-7.5011848
-7.4971593
-7.488145
-7.4766704
-7.4659909
-7.518094
-7.5153951
-7.5149093
-7.5170318
-7.5183578
-7.5149444
-7.5065895
-7.4958314
-7.4852779
-7.5387763
-7.5364756
-7.5363441
-7.5386948
-7.5403373
-7.5375771
-7.5299844
-7.5201079
-7.5097911
-7.561658
-7.5597424
-7.5598751
-7.5622782
-7.5640328
-7.5617778
-7.5550078
-7.5460243
-7.5360922
-7.5841211
-7.5825585
-7.5828452
-7.5851106
-7.5867502
-7.584799
-7.5788064
-7.5706751
-7.5613024
-7.60415
-7.6028861
-7.6032063
-7.6051575
-7.6064842
-7.6046558
-7.5993326
-7.5920156
-7.5834038
-7.6201569
-7.6191577
-7.6194423
-7.6209867
-7.6219003
-7.6200941
-7.6153489
-7.6088344
-7.601187
-7.6317802
-7.6309168
-7.6310315
-7.6320716
-7.6324835
-7.6305881
-7.6263213
-7.6206382
-7.6140877
-7.6379353
-7.6371998
-7.6371652
-7.637767
-7.6377944
-7.6359331
-7.6321364
-7.6273551
-7.6220033
-7.6384444
-7.6378352
-7.6377113
-7.6380374
-7.6379267
-7.6363844
-7.6333713
-7.6297061
-7.6256863
-7.634045
-7.6336118
-7.6335512
-7.6338433
-7.6338695
-7.6329103
-7.6309943
-7.6289945
-7.6270915
-7.4314948
-7.4315147
-7.4315361
-7.4315147
-7.4314416
-7.4313114
-7.4311285
-7.4308864
-7.4303337
-7.4350617
-7.435101
-7.4351007
-7.4349603
-7.4346463
-7.4341488
-7.4334744
-7.4326701
-7.4316826
-7.4377642
-7.4378291
-7.4378595
-7.4377342
-7.4373874
-7.4367664
-7.4358521
-7.434715
-7.4334637
-7.4400712
-7.4401567
-7.440208
-7.4400924
-7.4397359
-7.4390594
-7.4380085
-7.4366403
-7.4351337
-7.4418738
-7.4419758
-7.4420494
-7.4419566
-7.4416187
-7.4409323
-7.4398079
-7.43828
-7.4365689
-7.4431252
-7.4432468
-7.4433497
-7.4432949
-7.4430034
-7.442353
-7.4412143
-7.4395985
-7.4377465
-7.4439359
-7.4440658
-7.4441861
-7.4441615
-7.4439199
-7.4433275
-7.4422189
-7.440575
-7.4386401
-7.444353
-7.4444847
-7.4446151
-7.4446158
-7.4444221
-7.4438984
-7.4428474
-7.4412182
-7.4392466
-7.4444719
-7.4446004
-7.4447334
-7.4447502
-7.4445999
-7.4441418
-7.4431571
-7.4415651
-7.4395825
-7.4444048
-7.4445276
-7.4446588
-7.4446839
-7.4445662
-7.4441621
-7.4432368
-7.4416844
-7.4397056
-7.4442743
-7.4443917
-7.4445185
-7.444545
-7.4444451
-7.444077
-7.4431929
-7.4416679
-7.4397065
-7.444171
-7.4442851
-7.4444093
-7.4444358
-7.4443441
-7.4439938
-7.4431305
-7.4416197
-7.4396723
-7.4441708
-7.4442849
-7.4444091
-7.4444356
-7.4443439
-7.4439936
-7.4431304
-7.4416196
-7.4396723
-7.4442737
-7.4443911
-7.4445178
-7.4445444
-7.4444445
-7.4440764
-7.4431924
-7.4416677
-7.4397066
-7.4444037
-7.4445266
-7.4446577
-7.4446828
-7.4445651
-7.4441611
-7.443236
-7.441684
-7.4397057
-7.4444703
-7.4445989
-7.4447319
-7.4447486
-7.4445984
-7.4441403
-7.4431559
-7.4415644
-7.4395826
-7.4443508
-7.4444826
-7.444613
-7.4446136
-7.4444199
-7.4438964
-7.4428458
-7.4412173
-7.4392467
-7.4439332
-7.4440631
-7.4441834
-7.4441588
-7.4439171
-7.4433248
-7.4422167
-7.4405737
-7.4386399
-7.4431219
-7.4432434
-7.4433462
-7.4432913
-7.4429999
-7.4423496
-7.4412114
-7.4395964
-7.4377459
-7.4418697
-7.4419717
-7.4420452
-7.4419523
-7.4416144
-7.4409282
-7.4398041
-7.4382773
-7.436568
-7.4400664
-7.4401518
-7.4402031
-7.4400874
-7.4397308
-7.4390544
-7.4380039
-7.4366368
-7.4351325
-7.4377588
-7.4378237
-7.437854
-7.4377286
-7.4373817
-7.4367607
-7.435847
-7.4347114
-7.4334625
-7.4350559
-7.4350951
-7.4350948
-7.4349543
-7.4346402
-7.4341429
-7.4334692
-7.4326667
-7.4316818
-7.4314889
-7.4315088
-7.4315301
-7.4315088
-7.4314359
-7.4313061
-7.4311241
-7.4308837
-7.4303328
-6.9250119
-6.9250835
-6.9251757
-6.9253029
-6.9254348
-6.9254807
-6.9253457
-6.9250018
-6.9244814
-6.9248341
-6.9249046
-6.9249917
-6.9251105
-6.9252187
-6.9252054
-6.9249566
-6.924413
-6.9236358
-6.9246573
-6.9247227
-6.9248022
-6.9249123
-6.9250043
-6.9249573
-6.9246492
-6.9240202
-6.9231642
-6.9242763
-6.9243349
-6.9244073
-6.924514
-6.9246015
-6.9245395
-6.9241969
-6.9235175
-6.9225884
-6.9237109
-6.9237624
-6.9238262
-6.9239272
-6.9240083
-6.9239317
-6.9235589
-6.9228388
-6.9218577
-6.9230182
-6.9230565
-6.9231055
-6.923196
-6.9232677
-6.9231775
-6.9227822
-6.9220335
-6.9210216
-6.9222056
-6.9222298
-6.9222632
-6.9223447
-6.9224103
-6.9223121
-6.9219051
-6.921149
-6.9201415
-6.9213492
-6.9213576
-6.9213735
-6.9214421
-6.9215047
-6.9214006
-6.920989
-6.9202418
-6.9192677
-6.9205253
-6.9205177
-6.9205167
-6.9205725
-6.9206249
-6.9205189
-6.9201057
-6.9193589
-6.9183487
-6.9198168
-6.9197937
-6.9197754
-6.9198186
-6.919861
-6.9197535
-6.9193367
-6.9185792
-6.9174769
-6.9192936
-6.919258
-6.9192265
-6.9192599
-6.9192963
-6.9191825
-6.9187588
-6.9179711
-6.916847
-6.9190087
-6.9189681
-6.9189311
-6.9189603
-6.9189936
-6.9188765
-6.9184429
-6.9176183
-6.9165182
-6.9190086
-6.918968
-6.918931
-6.9189601
-6.9189934
-6.9188764
-6.9184427
-6.9176182
-6.9165182
-6.9192932
-6.9192576
-6.9192261
-6.9192595
-6.9192958
-6.9191821
-6.9187584
-6.9179708
-6.9168469
-6.9198161
-6.919793
-6.9197747
-6.9198178
-6.9198601
-6.9197527
-6.9193359
-6.9185787
-6.9174768
-6.9205242
-6.9205167
-6.9205156
-6.9205713
-6.9206237
-6.9205176
-6.9201045
-6.919358
-6.9183484
-6.9213477
-6.9213561
-6.9213719
-6.9214404
-6.9215029
-6.9213988
-6.9209873
-6.9202405
-6.919267
-6.9222036
-6.9222277
-6.922261
-6.9223424
-6.9224079
-6.9223097
-6.9219028
-6.9211472
-6.9201403
-6.9230156
-6.9230538
-6.9231027
-6.923193
-6.9232647
-6.9231744
-6.9227793
-6.922031
-6.9210198
-6.9237076
-6.923759
-6.9238227
-6.9239236
-6.9240045
-6.923928
-6.9235553
-6.9228356
-6.9218552
-6.9242724
-6.924331
-6.9244032
-6.9245099
-6.9245972
-6.9245351
-6.9241926
-6.9235135
-6.922585
-6.924653
-6.9247183
-6.9247978
-6.9249078
-6.9249996
-6.9249526
-6.9246445
-6.9240155
-6.9231601
-6.9248295
-6.9248999
-6.924987
-6.9251058
-6.9252139
-6.9252006
-6.9249517
-6.924408
-6.9236308
-6.9250072
-6.9250788
-6.9251709
-6.9252981
-6.9254302
-6.9254761
-6.925341
-6.9249966
-6.9244757
-6.6890078
-6.6890487
-6.6890983
-6.6891367
-6.6891718
-6.6892284
-6.68933
-6.6894784
-6.6895166
-6.6892437
-6.6892901
-6.6893366
-6.6893515
-6.6893387
-6.689323
-6.6893302
-6.6893688
-6.689367
-6.6894908
-6.6895382
-6.6895823
-6.6895843
-6.6895468
-6.6894975
-6.6894688
-6.68948
-6.689514
-6.6896957
-6.6897402
-6.689779
-6.6897699
-6.6897166
-6.6896513
-6.6896113
-6.6896184
-6.6896673
-6.6898592
-6.6899001
-6.6899327
-6.6899118
-6.6898429
-6.689764
-6.6897174
-6.689725
-6.6897852
-6.6899902
-6.6900263
-6.6900519
-6.6900195
-6.689936
-6.6898467
-6.6897977
-6.6898108
-6.6898797
-6.6900831
-6.6901143
-6.690134
-6.690091
-6.6899964
-6.6899002
-6.6898537
-6.6898729
-6.689936
-6.6901471
-6.6901738
-6.6901874
-6.6901341
-6.6900315
-6.6899321
-6.6898912
-6.6899116
-6.6899567
-6.6901865
-6.690209
-6.6902165
-6.6901576
-6.690049
-6.6899506
-6.6899193
-6.6899586
-6.6900832
-6.6902102
-6.690229
-6.6902317
-6.6901681
-6.6900566
-6.6899619
-6.6899441
-6.6900252
-6.6902976
-6.6902248
-6.6902407
-6.6902399
-6.6901728
-6.6900599
-6.68997
-6.689971
-6.6901176
-6.6904492
-6.6902283
-6.690243
-6.6902409
-6.6901728
-6.6900605
-6.6899753
-6.689994
-6.6901991
-6.6905255
-6.6902283
-6.6902429
-6.6902408
-6.6901727
-6.6900604
-6.6899752
-6.6899939
-6.6901991
-6.6905255
-6.6902246
-6.6902405
-6.6902396
-6.6901725
-6.6900595
-6.6899696
-6.6899706
-6.6901174
-6.6904492
-6.6902099
-6.6902286
-6.6902312
-6.6901675
-6.6900559
-6.6899612
-6.6899434
-6.6900248
-6.6902976
-6.6901859
-6.6902083
-6.6902157
-6.6901566
-6.6900479
-6.6899495
-6.6899183
-6.6899579
-6.690083
-6.6901461
-6.6901728
-6.6901862
-6.6901328
-6.69003
-6.6899306
-6.6898897
-6.6899105
-6.6899561
-6.6900817
-6.6901128
-6.6901323
-6.6900891
-6.6899944
-6.6898981
-6.6898517
-6.6898712
-6.6899348
-6.6899882
-6.6900242
-6.6900497
-6.6900171
-6.6899334
-6.689844
-6.6897951
-6.6898085
-6.6898778
-6.6898565
-6.6898974
-6.6899298
-6.6899087
-6.6898397
-6.6897607
-6.6897142
-6.689722
-6.6897823
-6.6896922
-6.6897367
-6.6897754
-6.6897661
-6.6897127
-6.6896474
-6.6896075
-6.6896145
-6.6896631
-6.6894866
-6.6895339
-6.6895779
-6.6895798
-6.6895422
-6.689493
-6.6894641
-6.6894748
-6.6895078
-6.6892387
-6.6892851
-6.6893316
-6.6893464
-6.6893335
-6.6893176
-6.6893242
-6.6893616
-6.6893586
-6.6890023
-6.6890432
-6.6890928
-6.689131
-6.6891658
-6.6892217
-6.6893222
-6.689469
-6.6895063
-6.2832905
-6.2833
-6.2833212
-6.2833707
-6.2834423
-6.2835076
-6.2835318
-6.283501
-6.2834225
-6.2833562
-6.2833644
-6.2833834
-6.2834297
-6.2834924
-6.2835351
-6.2835148
-6.2834104
-6.2832489
-6.2834705
-6.2834753
-6.2834906
-6.2835341
-6.2835932
-6.2836271
-6.2835891
-6.2834596
-6.283279
-6.2835741
-6.2835748
-6.2835858
-6.2836266
-6.2836834
-6.2837124
-6.2836639
-6.283519
-6.2833127
-6.2836656
-6.2836625
-6.2836689
-6.2837056
-6.2837577
-6.2837796
-6.2837199
-6.2835618
-6.283336
-6.2837431
-6.2837365
-6.2837385
-6.2837708
-6.2838177
-6.2838321
-6.2837638
-6.2835996
-6.2833595
-6.2837989
-6.2837894
-6.2837875
-6.2838162
-6.2838579
-6.2838656
-6.2837914
-6.2836262
-6.2833558
-6.283836
-6.2838241
-6.2838188
-6.283844
-6.2838803
-6.2838797
-6.2837925
-6.2835931
-6.2832592
-6.2838564
-6.2838431
-6.2838353
-6.2838563
-6.2838877
-6.2838767
-6.2837705
-6.283501
-6.2831092
-6.2838644
-6.2838503
-6.2838408
-6.2838584
-6.2838843
-6.2838603
-6.2837229
-6.2834078
-6.2829878
-6.2838649
-6.2838503
-6.2838398
-6.2838553
-6.2838749
-6.2838369
-6.2836665
-6.2833377
-6.2829036
-6.2838632
-6.2838485
-6.2838377
-6.283852
-6.2838682
-6.2838229
-6.2836385
-6.2833009
-6.2828608
-6.2838632
-6.2838485
-6.2838377
-6.2838519
-6.2838681
-6.2838228
-6.2836384
-6.2833009
-6.2828609
-6.2838649
-6.2838503
-6.2838397
-6.2838551
-6.2838747
-6.2838367
-6.2836663
-6.2833377
-6.282904
-6.2838644
-6.2838501
-6.2838405
-6.283858
-6.2838839
-6.2838598
-6.2837225
-6.2834078
-6.2829883
-6.2838561
-6.2838427
-6.2838348
-6.2838556
-6.2838869
-6.2838758
-6.2837699
-6.2835009
-6.2831098
-6.2838354
-6.2838234
-6.2838179
-6.2838429
-6.283879
-6.2838784
-6.2837915
-6.2835927
-6.2832597
-6.2837979
-6.2837882
-6.2837861
-6.2838145
-6.283856
-6.2838637
-6.2837899
-6.2836255
-6.2833561
-6.2837412
-6.2837345
-6.2837362
-6.2837683
-6.2838149
-6.2838294
-6.2837617
-6.2835983
-6.2833595
-6.2836627
-6.2836594
-6.2836656
-6.283702
-6.2837539
-6.2837759
-6.2837169
-6.2835599
-6.2833354
-6.2835699
-6.2835704
-6.2835811
-6.2836218
-6.2836784
-6.2837076
-6.2836598
-6.2835161
-6.2833113
-6.2834648
-6.2834694
-6.2834845
-6.2835278
-6.2835868
-6.283621
-6.2835836
-6.2834553
-6.2832763
-6.2833489
-6.283357
-6.2833759
-6.283422
-6.2834847
-6.2835275
-6.2835076
-6.2834043
-6.2832445
-6.2832822
-6.2832916
-6.2833128
-6.2833622
-6.2834337
-6.2834987
-6.2835229
-6.2834927
-6.2834161
-5.9786627
-5.9786785
-5.9786963
-5.9787082
-5.9787163
-5.9787284
-5.9787514
-5.9787855
-5.9787858
-5.9786188
-5.9786362
-5.9786538
-5.9786613
-5.9786599
-5.9786568
-5.9786583
-5.9786651
-5.9786552
-5.9786072
-5.978624
-5.9786397
-5.9786422
-5.9786334
-5.9786225
-5.9786189
-5.9786269
-5.9786389
-5.9785949
-5.9786097
-5.9786226
-5.9786207
-5.9786067
-5.9785922
-5.9785898
-5.978605
-5.9786318
-5.9785855
-5.978598
-5.9786074
-5.9786002
-5.9785802
-5.9785618
-5.9785604
-5.9785806
-5.9786173
-5.9785842
-5.9785937
-5.978599
-5.9785861
-5.9785598
-5.9785377
-5.9785357
-5.9785554
-5.9786001
-5.9785884
-5.9785949
-5.9785963
-5.978578
-5.9785471
-5.9785223
-5.9785193
-5.9785364
-5.9786132
-5.9786
-5.9786034
-5.9786008
-5.9785784
-5.978544
-5.978519
-5.978524
-5.97858
-5.9787258
-5.9786173
-5.9786177
-5.9786115
-5.9785856
-5.9785494
-5.9785279
-5.9785508
-5.9786864
-5.9788891
-5.9786374
-5.9786349
-5.9786255
-5.9785971
-5.978561
-5.978548
-5.9786045
-5.9787887
-5.9790157
-5.9786555
-5.9786507
-5.9786389
-5.978609
-5.9785746
-5.9785729
-5.9786649
-5.9788614
-5.979101
-5.9786647
-5.9786589
-5.978646
-5.9786155
-5.9785822
-5.9785864
-5.9786938
-5.9788978
-5.9791447
-5.9786648
-5.978659
-5.9786461
-5.9786156
-5.9785822
-5.9785864
-5.9786939
-5.9788979
-5.979145
-5.9786557
-5.9786509
-5.978639
-5.9786091
-5.9785746
-5.9785728
-5.978665
-5.9788617
-5.9791018
-5.9786377
-5.9786352
-5.9786256
-5.9785971
-5.9785609
-5.9785478
-5.9786046
-5.9787893
-5.979017
-5.9786176
-5.9786179
-5.9786115
-5.9785854
-5.978549
-5.9785275
-5.9785507
-5.978687
-5.9788907
-5.9785999
-5.9786032
-5.9786004
-5.9785777
-5.9785431
-5.9785182
-5.9785237
-5.9785806
-5.9787277
-5.9785877
-5.978594
-5.9785952
-5.9785766
-5.9785455
-5.9785208
-5.9785184
-5.9785368
-5.9786152
-5.9785827
-5.978592
-5.9785969
-5.9785837
-5.9785572
-5.9785353
-5.9785341
-5.9785553
-5.978602
-5.9785826
-5.9785949
-5.978604
-5.9785964
-5.9785763
-5.9785582
-5.9785578
-5.9785799
-5.978619
-5.9785904
-5.9786049
-5.9786175
-5.9786153
-5.9786012
-5.9785871
-5.9785858
-5.9786031
-5.9786328
-5.9786007
-5.9786173
-5.9786327
-5.978635
-5.9786261
-5.9786155
-5.9786131
-5.9786233
-5.9786387
-5.9786104
-5.9786276
-5.9786451
-5.9786524
-5.978651
-5.9786481
-5.9786504
-5.9786594
-5.9786532
-5.978653
-5.9786688
-5.9786866
-5.9786984
-5.9787065
-5.9787186
-5.9787421
-5.9787775
-5.978781
-5.6180412
-5.6180412
-5.6180449
-5.6180581
-5.6180797
-5.6181013
-5.618113
-5.6181118
-5.6180953
-5.6180925
-5.618092
-5.6180949
-5.6181067
-5.6181247
-5.618138
-5.6181339
-5.618106
-5.6180599
-5.6181557
-5.6181542
-5.618156
-5.6181669
-5.6181831
-5.6181927
-5.6181816
-5.6181435
-5.6180875
-5.6182134
-5.6182108
-5.6182113
-5.6182213
-5.6182364
-5.6182437
-5.6182282
-5.6181831
-5.6181154
-5.618265
-5.6182613
-5.6182604
-5.6182691
-5.6182825
-5.6182872
-5.6182678
-5.6182173
-5.6181396
-5.618309
-5.6183043
-5.6183023
-5.6183094
-5.6183212
-5.6183236
-5.6183019
-5.6182479
-5.61816
-5.6183429
-5.6183375
-5.6183345
-5.6183403
-5.61835
-5.6183498
-5.6183257
-5.6182585
-5.6181512
-5.6183667
-5.618361
-5.6183573
-5.6183616
-5.6183684
-5.618363
-5.6183274
-5.6182395
-5.6181111
-5.6183817
-5.6183759
-5.6183716
-5.6183744
-5.6183782
-5.6183664
-5.6183132
-5.6182104
-5.6180717
-5.6183901
-5.6183842
-5.6183794
-5.6183808
-5.6183812
-5.6183628
-5.6182989
-5.6181873
-5.6180433
-5.618394
-5.618388
-5.6183828
-5.6183829
-5.6183805
-5.6183561
-5.6182877
-5.6181712
-5.618025
-5.6183954
-5.6183894
-5.618384
-5.6183835
-5.6183797
-5.6183527
-5.6182817
-5.618163
-5.6180161
-5.6183956
-5.6183896
-5.6183841
-5.6183836
-5.6183797
-5.6183528
-5.6182818
-5.6181632
-5.6180165
-5.6183944
-5.6183884
-5.6183831
-5.6183831
-5.6183806
-5.6183563
-5.618288
-5.6181718
-5.6180261
-5.6183908
-5.6183848
-5.6183799
-5.618381
-5.6183814
-5.6183629
-5.6182993
-5.6181882
-5.6180451
-5.6183824
-5.6183765
-5.618372
-5.6183746
-5.6183781
-5.6183664
-5.6183135
-5.6182115
-5.6180741
-5.6183672
-5.6183613
-5.6183574
-5.6183614
-5.618368
-5.6183626
-5.6183275
-5.6182407
-5.6181138
-5.6183429
-5.6183373
-5.618334
-5.6183394
-5.6183489
-5.6183488
-5.6183253
-5.6182595
-5.618154
-5.6183081
-5.6183031
-5.6183008
-5.6183074
-5.618319
-5.6183216
-5.6183007
-5.6182484
-5.6181626
-5.6182628
-5.6182587
-5.6182575
-5.6182658
-5.618279
-5.618284
-5.6182656
-5.6182169
-5.6181414
-5.6182094
-5.6182064
-5.6182066
-5.6182162
-5.6182312
-5.6182389
-5.6182245
-5.6181814
-5.618116
-5.6181495
-5.6181478
-5.6181493
-5.6181599
-5.6181761
-5.618186
-5.6181758
-5.6181395
-5.6180861
-5.6180843
-5.6180837
-5.6180863
-5.618098
-5.6181159
-5.6181294
-5.6181257
-5.6180991
-5.6180556
-5.6180317
-5.6180316
-5.6180353
-5.6180484
-5.6180698
-5.6180911
-5.6181025
-5.6181015
-5.6180875
-5.2870328
-5.287037
-5.2870416
-5.2870443
-5.2870459
-5.2870488
-5.2870555
-5.2870697
-5.2870779
-5.2870154
-5.2870201
-5.2870246
-5.2870261
-5.2870253
-5.2870247
-5.2870272
-5.2870344
-5.2870387
-5.2870056
-5.2870101
-5.2870139
-5.287014
-5.2870112
-5.2870089
-5.2870109
-5.287019
-5.2870298
-5.2869956
-5.2869994
-5.2870024
-5.2870011
-5.2869968
-5.2869936
-5.2869959
-5.287006
-5.2870212
-5.2869874
-5.2869906
-5.2869925
-5.2869896
-5.2869834
-5.2869787
-5.2869804
-5.2869908
-5.2870094
-5.2869835
-5.2869858
-5.2869864
-5.2869817
-5.2869735
-5.286967
-5.2869669
-5.2869762
-5.287
-5.2869835
-5.2869849
-5.2869844
-5.286978
-5.2869683
-5.2869609
-5.2869603
-5.2869805
-5.2870187
-5.286988
-5.2869885
-5.2869868
-5.2869794
-5.2869694
-5.2869643
-5.2869738
-5.2870116
-5.2870642
-5.2869955
-5.286995
-5.2869923
-5.2869843
-5.2869748
-5.286974
-5.2869993
-5.2870471
-5.2871046
-5.2870039
-5.2870027
-5.2869993
-5.2869911
-5.2869829
-5.2869868
-5.2870198
-5.2870729
-5.2871306
-5.2870112
-5.2870096
-5.2870058
-5.2869976
-5.286991
-5.2869995
-5.2870345
-5.2870894
-5.2871454
-5.2870152
-5.2870134
-5.2870094
-5.2870013
-5.2869953
-5.2870058
-5.2870419
-5.2870973
-5.2871522
-5.2870154
-5.2870136
-5.2870096
-5.2870014
-5.2869954
-5.2870059
-5.287042
-5.2870976
-5.2871526
-5.2870118
-5.2870101
-5.2870062
-5.2869979
-5.2869912
-5.2869997
-5.2870348
-5.28709
-5.2871466
-5.2870047
-5.2870034
-5.2869998
-5.2869914
-5.2869831
-5.286987
-5.2870202
-5.2870738
-5.2871325
-5.2869964
-5.2869957
-5.2869928
-5.2869846
-5.2869749
-5.286974
-5.2869996
-5.2870483
-5.287107
-5.2869887
-5.286989
-5.286987
-5.2869793
-5.286969
-5.286964
-5.2869739
-5.2870128
-5.287067
-5.2869837
-5.2869848
-5.286984
-5.2869773
-5.2869673
-5.2869599
-5.2869599
-5.2869814
-5.2870216
-5.2869828
-5.2869848
-5.2869851
-5.28698
-5.2869715
-5.2869651
-5.2869658
-5.2869766
-5.2870025
-5.2869855
-5.2869883
-5.2869898
-5.2869865
-5.2869801
-5.2869756
-5.2869782
-5.2869903
-5.2870112
-5.2869919
-5.2869955
-5.2869981
-5.2869964
-5.286992
-5.286989
-5.2869923
-5.2870042
-5.2870217
-5.287
-5.2870042
-5.2870078
-5.2870077
-5.2870048
-5.2870028
-5.2870056
-5.2870153
-5.2870284
-5.287008
-5.2870126
-5.2870169
-5.2870183
-5.2870175
-5.287017
-5.2870199
-5.2870282
-5.2870347
-5.2870243
-5.2870285
-5.287033
-5.2870356
-5.2870371
-5.2870398
-5.2870463
-5.2870607
-5.287071
-4.9414881
-4.9414879
-4.9414885
-4.9414916
-4.9414968
-4.9415025
-4.9415063
-4.9415043
-4.9414927
-4.9414959
-4.9414955
-4.9414959
-4.9414986
-4.9415027
-4.9415055
-4.9415033
-4.9414926
-4.941473
-4.9415073
-4.9415065
-4.9415066
-4.9415089
-4.9415123
-4.9415134
-4.9415083
-4.9414942
-4.941472
-4.9415182
-4.9415171
-4.9415167
-4.9415186
-4.9415214
-4.9415215
-4.9415145
-4.9414977
-4.9414721
-4.9415282
-4.9415267
-4.9415259
-4.9415273
-4.9415294
-4.9415285
-4.9415197
-4.9415001
-4.9414711
-4.941537
-4.9415351
-4.9415339
-4.9415347
-4.9415362
-4.9415344
-4.9415237
-4.941501
-4.9414688
-4.9415436
-4.9415415
-4.9415399
-4.9415402
-4.941541
-4.9415378
-4.9415249
-4.9414993
-4.9414645
-4.941548
-4.9415457
-4.9415437
-4.9415435
-4.9415434
-4.9415387
-4.9415235
-4.9414957
-4.9414594
-4.9415509
-4.9415484
-4.9415462
-4.9415454
-4.9415444
-4.9415384
-4.9415213
-4.9414919
-4.9414549
-4.9415528
-4.9415502
-4.9415477
-4.9415466
-4.941545
-4.9415379
-4.9415191
-4.9414884
-4.9414515
-4.941554
-4.9415513
-4.9415486
-4.9415472
-4.9415452
-4.9415372
-4.9415174
-4.9414859
-4.9414494
-4.9415547
-4.9415519
-4.9415491
-4.9415476
-4.9415454
-4.9415369
-4.9415164
-4.9414847
-4.9414485
-4.9415549
-4.9415521
-4.9415493
-4.9415477
-4.9415454
-4.9415369
-4.9415165
-4.9414849
-4.9414489
-4.9415546
-4.9415518
-4.941549
-4.9415475
-4.9415454
-4.9415374
-4.9415176
-4.9414865
-4.9414505
-4.9415536
-4.9415509
-4.9415482
-4.9415469
-4.9415452
-4.941538
-4.9415195
-4.9414893
-4.9414533
-4.9415518
-4.9415492
-4.9415467
-4.9415456
-4.9415444
-4.9415383
-4.9415216
-4.9414929
-4.9414572
-4.9415487
-4.9415462
-4.9415439
-4.9415433
-4.941543
-4.9415382
-4.9415235
-4.9414968
-4.941462
-4.9415437
-4.9415413
-4.9415394
-4.9415394
-4.9415399
-4.9415368
-4.9415244
-4.9415002
-4.9414672
-4.9415362
-4.9415341
-4.9415325
-4.9415329
-4.9415341
-4.9415324
-4.9415224
-4.9415013
-4.9414713
-4.9415262
-4.9415244
-4.9415232
-4.9415241
-4.941526
-4.9415253
-4.9415174
-4.9414995
-4.9414729
-4.9415145
-4.941513
-4.9415124
-4.9415139
-4.9415165
-4.9415169
-4.9415109
-4.9414959
-4.9414728
-4.9415017
-4.9415007
-4.9415005
-4.9415026
-4.9415058
-4.9415072
-4.9415031
-4.9414906
-4.9414709
-4.9414886
-4.941488
-4.9414883
-4.9414909
-4.9414949
-4.9414978
-4.9414962
-4.9414868
-4.9414696
-4.9414798
-4.9414795
-4.9414801
-4.9414831
-4.9414882
-4.9414938
-4.9414976
-4.9414959
-4.9414864
-4.6025817
-4.6025828
-4.602584
-4.6025848
-4.6025854
-4.6025863
-4.6025881
-4.6025911
-4.6025917
-4.6025741
-4.6025753
-4.6025765
-4.6025771
-4.6025772
-4.6025771
-4.6025775
-4.602578
-4.6025769
-4.6025679
-4.6025691
-4.6025701
-4.6025704
-4.60257
-4.6025696
-4.6025699
-4.6025709
-4.6025716
-4.6025614
-4.6025624
-4.6025632
-4.6025631
-4.6025624
-4.6025618
-4.6025625
-4.6025647
-4.6025672
-4.6025553
-4.6025561
-4.6025566
-4.6025561
-4.6025548
-4.602554
-4.602555
-4.6025584
-4.6025627
-4.6025502
-4.6025508
-4.6025509
-4.6025499
-4.6025481
-4.6025468
-4.6025482
-4.6025529
-4.6025588
-4.6025463
-4.6025466
-4.6025464
-4.602545
-4.6025427
-4.6025414
-4.6025433
-4.6025487
-4.6025557
-4.6025438
-4.6025439
-4.6025435
-4.6025417
-4.6025392
-4.602538
-4.6025399
-4.6025454
-4.6025534
-4.6025421
-4.602542
-4.6025414
-4.6025394
-4.6025368
-4.6025352
-4.6025369
-4.6025427
-4.6025516
-4.602541
-4.6025408
-4.6025399
-4.6025376
-4.6025346
-4.6025327
-4.6025344
-4.6025407
-4.6025503
-4.6025402
-4.6025399
-4.6025389
-4.6025364
-4.6025331
-4.6025308
-4.6025326
-4.6025394
-4.6025496
-4.6025398
-4.6025395
-4.6025384
-4.6025358
-4.6025323
-4.6025299
-4.6025317
-4.6025389
-4.6025494
-4.60254
-4.6025396
-4.6025385
-4.6025359
-4.6025323
-4.6025299
-4.6025318
-4.6025391
-4.6025498
-4.6025407
-4.6025403
-4.6025393
-4.6025367
-4.6025332
-4.602531
-4.6025328
-4.60254
-4.6025507
-4.6025417
-4.6025414
-4.6025404
-4.6025379
-4.6025348
-4.6025328
-4.6025347
-4.6025416
-4.602552
-4.6025429
-4.6025426
-4.6025418
-4.6025396
-4.6025368
-4.6025352
-4.6025372
-4.6025438
-4.6025538
-4.6025444
-4.6025443
-4.6025436
-4.6025416
-4.6025388
-4.6025376
-4.60254
-4.6025465
-4.6025558
-4.6025464
-4.6025465
-4.602546
-4.6025442
-4.6025416
-4.6025404
-4.6025429
-4.6025495
-4.6025583
-4.6025495
-4.6025498
-4.6025496
-4.6025481
-4.6025461
-4.6025449
-4.6025471
-4.6025532
-4.6025611
-4.6025533
-4.6025538
-4.602554
-4.602553
-4.6025516
-4.602551
-4.6025529
-4.6025579
-4.6025644
-4.6025578
-4.6025585
-4.602559
-4.6025585
-4.6025577
-4.6025574
-4.6025591
-4.602563
-4.6025678
-4.6025624
-4.6025634
-4.6025641
-4.6025641
-4.6025636
-4.6025635
-4.6025647
-4.6025673
-4.6025704
-4.6025669
-4.602568
-4.602569
-4.6025694
-4.6025694
-4.6025695
-4.6025702
-4.6025719
-4.6025732
-4.6025734
-4.6025744
-4.6025755
-4.6025763
-4.6025767
-4.6025774
-4.602579
-4.6025821
-4.602585
-4.2610428
-4.2610428
-4.261043
-4.2610437
-4.2610447
-4.2610457
-4.261046
-4.2610455
-4.2610432
-4.2610437
-4.2610437
-4.261044
-4.2610446
-4.2610455
-4.2610459
-4.2610452
-4.2610429
-4.2610388
-4.2610455
-4.2610455
-4.2610456
-4.2610462
-4.2610469
-4.2610472
-4.2610464
-4.2610439
-4.2610396
-4.2610474
-4.2610472
-4.2610473
-4.2610477
-4.2610483
-4.2610486
-4.2610479
-4.2610453
-4.2610409
-4.2610492
-4.2610489
-4.2610489
-4.2610492
-4.2610497
-4.2610499
-4.2610491
-4.2610465
-4.261042
-4.261051
-4.2610506
-4.2610504
-4.2610505
-4.2610509
-4.261051
-4.2610501
-4.2610476
-4.2610431
-4.2610525
-4.261052
-4.2610516
-4.2610516
-4.2610519
-4.2610518
-4.261051
-4.2610486
-4.2610443
-4.2610537
-4.2610531
-4.2610526
-4.2610525
-4.2610526
-4.2610525
-4.2610517
-4.2610495
-4.2610454
-4.2610547
-4.261054
-4.2610535
-4.2610533
-4.2610532
-4.2610531
-4.2610524
-4.2610504
-4.2610464
-4.2610554
-4.2610548
-4.2610542
-4.2610538
-4.2610537
-4.2610536
-4.2610531
-4.2610511
-4.2610472
-4.261056
-4.2610553
-4.2610546
-4.2610542
-4.261054
-4.261054
-4.2610535
-4.2610516
-4.2610479
-4.2610564
-4.2610557
-4.2610549
-4.2610545
-4.2610543
-4.2610542
-4.2610538
-4.261052
-4.2610484
-4.2610565
-4.2610558
-4.261055
-4.2610546
-4.2610543
-4.2610542
-4.2610538
-4.2610521
-4.2610487
-4.2610564
-4.2610556
-4.2610549
-4.2610544
-4.2610541
-4.261054
-4.2610537
-4.261052
-4.2610487
-4.2610559
-4.2610552
-4.2610544
-4.261054
-4.2610537
-4.2610536
-4.2610532
-4.2610517
-4.2610485
-4.2610552
-4.2610544
-4.2610537
-4.2610533
-4.261053
-4.2610529
-4.2610525
-4.2610511
-4.2610481
-4.261054
-4.2610533
-4.2610526
-4.2610522
-4.2610521
-4.261052
-4.2610516
-4.2610503
-4.2610473
-4.2610523
-4.2610517
-4.2610511
-4.2610508
-4.2610508
-4.2610508
-4.2610504
-4.2610491
-4.2610463
-4.2610501
-4.2610496
-4.261049
-4.2610489
-4.2610491
-4.2610493
-4.261049
-4.2610477
-4.2610449
-4.2610473
-4.2610468
-4.2610464
-4.2610464
-4.2610468
-4.2610472
-4.2610471
-4.261046
-4.2610432
-4.2610441
-4.2610437
-4.2610435
-4.2610436
-4.2610441
-4.2610447
-4.2610447
-4.2610437
-4.2610411
-4.2610406
-4.2610404
-4.2610403
-4.2610407
-4.2610414
-4.2610418
-4.2610417
-4.2610406
-4.2610383
-4.2610373
-4.2610372
-4.2610373
-4.2610378
-4.2610386
-4.2610391
-4.2610387
-4.2610374
-4.2610353
-4.2610353
-4.2610353
-4.2610355
-4.2610361
-4.261037
-4.2610377
-4.2610379
-4.2610375
-4.2610373
-3.9204173
-3.9204175
-3.9204177
-3.9204179
-3.9204181
-3.9204183
-3.9204187
-3.9204192
-3.9204183
-3.9204167
-3.9204169
-3.9204171
-3.9204172
-3.9204172
-3.9204173
-3.9204172
-3.9204167
-3.9204152
-3.9204161
-3.9204163
-3.9204165
-3.9204166
-3.9204166
-3.9204165
-3.9204162
-3.9204155
-3.9204142
-3.9204154
-3.9204155
-3.9204157
-3.9204158
-3.9204157
-3.9204156
-3.9204152
-3.9204145
-3.9204134
-3.9204145
-3.9204146
-3.9204147
-3.9204147
-3.9204146
-3.9204144
-3.920414
-3.9204135
-3.9204127
-3.9204135
-3.9204136
-3.9204136
-3.9204135
-3.9204132
-3.920413
-3.9204128
-3.9204126
-3.9204121
-3.9204127
-3.9204127
-3.9204126
-3.9204123
-3.920412
-3.9204117
-3.9204117
-3.9204117
-3.9204116
-3.920412
-3.920412
-3.9204118
-3.9204115
-3.920411
-3.9204107
-3.9204108
-3.920411
-3.9204113
-3.9204116
-3.9204115
-3.9204112
-3.9204108
-3.9204103
-3.92041
-3.9204101
-3.9204105
-3.920411
-3.9204113