/*--------------------------------*- C++ -*----------------------------------*\
| =========                 |                                                 |
| \\      /  F ield         | OpenFOAM: The Open Source CFD Toolbox           |
|  \\    /   O peration     | Version:  2406                                  |
|   \\  /    A nd           | Website:  www.openfoam.com                      |
|    \\/     M anipulation  |                                                 |
\*---------------------------------------------------------------------------*/
FoamFile
{
    version     2.0;
    format      ascii;
    arch        "LSB;label=32;scalar=64";
    class       surfaceScalarField;
    location    "9.75";
    object      phi;
}
// * * * * * * * * * * * * * * * * * * * * * * * * * * * * * * * * * * * * * //

dimensions      [0 3 -1 0 0 0 0];

oriented        oriented;

internalField   nonuniform List<scalar> 
101088
(
-0.00017523682
3.7766209e-05
-1.41078e-05
-3.1783191e-05
-0.0003927019
0.0001725209
-6.5683909e-05
-0.00014596677
-0.00063787002
0.0004336287
-0.00016905708
-0.00036840004
-0.00087491104
0.00084410632
-0.0003405534
-0.00072248697
-0.0010538106
0.0013571458
-0.00056717674
-0.0011750466
-0.0011478656
0.0018639928
-0.00078886953
-0.0016307619
-0.0011891254
0.0022580492
-0.00092117588
-0.0019822083
-0.0012442457
0.0024697451
-0.00091513584
-0.002158486
0.0024567543
-0.00078958554
-0.0021450818
-0.0013400602
-0.00021266617
4.1840728e-05
-1.633889e-05
-0.00047000701
0.00019227098
-7.6760046e-05
-0.00074748323
0.00048317676
-0.00019906607
-0.00099271993
0.00093469719
-0.00040278128
-0.0011445639
0.0014902897
-0.00067111
-0.0011820159
0.0020360619
-0.00093169857
-0.0011523902
0.0024675425
-0.0010874415
-0.0011318382
0.0027106763
-0.0010858839
0.002704699
-0.00095049417
-0.001160462
-0.0002511496
4.4110343e-05
-1.8004524e-05
-0.00054966292
0.00020401973
-8.5597041e-05
-0.0008610477
0.00051387213
-0.00022411689
-0.001118911
0.00099069538
-0.00045583528
-0.0012513621
0.0015692584
-0.00075918006
-0.0012404348
0.0021357864
-0.0010494373
-0.0011471937
0.0025926919
-0.0012194429
-0.0010603649
0.0028630361
-0.0012168204
0.002873211
-0.0010711099
-0.0010320844
-0.00028909029
4.4469787e-05
-1.9102328e-05
-0.00062889801
0.00020714258
-9.2065185e-05
-0.00097462432
0.00052326595
-0.00024367106
-0.001245805
0.00100663
-0.00049858311
-0.00136342
0.0015877928
-0.00083010531
-0.0013150079
0.0021577795
-0.0011417904
-0.0011751078
0.0026303043
-0.0013192167
-0.0010392956
0.0029218959
-0.001310982
0.0029525546
-0.0011551259
-0.0009651547
-0.00032506995
4.2377199e-05
-1.9519183e-05
-0.00070420885
0.00019990991
-9.5695246e-05
-0.0010836316
0.00050871045
-0.00025678617
-0.0013712984
0.00098030621
-0.00052969393
-0.0014830295
0.0015454301
-0.00088303498
-0.0014116326
0.0021033481
-0.0012097714
-0.0012398554
0.0025780799
-0.0013882631
-0.0010695899
0.0028840427
-0.0013720059
0.0029360004
-0.0012067382
-0.00095934322
-0.00035972598
3.8724007e-05
-1.9315504e-05
-0.00077945937
0.00018495474
-9.6658406e-05
-0.0011973319
0.00047440168
-0.00026371147
-0.0015099064
0.00091666942
-0.00054968601
-0.0016267101
0.0014458387
-0.00091869298
-0.0015448559
0.0019735048
-0.0012538328
-0.0013535952
0.0024345938
-0.0014290096
-0.0011585978
0.0027452017
-0.0014033213
0.0028155272
-0.0012296913
-0.0010171312
-0.00039092127
3.3520952e-05
-1.8571293e-05
-0.00084836143
0.00016250803
-9.5143112e-05
-0.0013039199
0.00042108329
-0.00026454499
-0.0016449247
0.00081769024
-0.00055817578
-0.0017767546
0.0012935289
-0.0009364739
-0.0016989047
0.0017739037
-0.0012744129
-0.0015012097
0.0022023523
-0.001443007
-0.0012923822
0.0025056782
-0.0014073932
0.0025887196
-0.0012271875
-0.0011268636
-0.00041846197
2.7168238e-05
-1.7363932e-05
-0.00091105428
0.00013408393
-9.1455567e-05
-0.0014045019
0.00035188209
-0.00025994385
-0.0017784703
0.00068835331
-0.00055636989
-0.0019341927
0.0010946541
-0.000938419
-0.0018723848
0.0015112717
-0.0012746177
-0.0016779396
0.0018846571
-0.0014344871
-0.0014631456
0.0021668508
-0.0013889153
0.0022541386
-0.0012040109
-0.0012779299
-0.00044185375
2.0194874e-05
-1.587572e-05
-0.00096630294
0.00010173422
-8.6311449e-05
-0.0014966791
0.00027091657
-0.00025139676
-0.0019061474
0.00053476287
-0.0005466812
-0.0020913965
0.00085620407
-0.00092798045
-0.00205345
0.0011929209
-0.001258886
-0.0018724703
0.0014910505
-0.0014091923
-0.0016560708
0.0017321211
-0.0013538938
0.0018134836
-0.0011660248
-0.00145363
-0.00046056607
1.3212452e-05
-1.4365229e-05
-0.0010124434
6.7891435e-05
-8.0773105e-05
-0.0015769286
0.0001832662
-0.00024118722
-0.0020218879
0.00036477008
-0.00053283139
-0.0022391881
0.00058775538
-0.00091034875
-0.0022254774
0.00082562644
-0.0012338144
-0.0020635738
0.0010343926
-0.0013750437
-0.0018484723
0.0012115225
-0.0013107642
0.0012753764
-0.0011213253
-0.0016307364
-0.00047364672
6.5617262e-06
-1.3168644e-05
-0.0010457802
3.4045025e-05
-7.619443e-05
-0.0016366754
9.254568e-05
-0.00023218939
-0.0021106144
0.00018495321
-0.00051945804
-0.0023555849
0.00029906876
-0.00089205405
-0.0023633644
0.00042214843
-0.0012081008
-0.0022192904
0.00053019409
-0.0013414018
-0.0020072924
0.00062428708
-0.0012699844
0.00065966098
-0.001079978
-0.0017777762
-0.00048030642
-1.1254187e-10
-1.2433767e-05
-0.0010630071
-4.1335874e-10
-7.3346722e-05
-0.0016681371
-8.6299455e-10
-0.00022646595
-0.0021584741
-1.5582511e-09
-0.00051074616
-0.0024199471
-2.223921e-09
-0.0008800826
-0.0024415847
-2.6175529e-09
-0.0011916419
-0.0023085084
-2.4710468e-09
-0.0013203281
-0.0020991053
-9.8449724e-10
-0.0012448318
1.0254338e-09
-0.0010546558
-0.0018631821
-0.00048030631
-6.5618838e-06
-1.2433766e-05
-0.0010630071
-3.4045705e-05
-7.334672e-05
-0.0016681371
-9.2547179e-05
-0.00022646594
-0.0021584739
-0.00018495607
-0.00051074615
-0.0024199469
-0.0002990732
-0.0008800826
-0.0024415845
-0.00042215396
-0.0011916419
-0.0023085081
-0.00053019945
-0.0013203281
-0.0020991048
-0.00062428926
-0.0012448318
-0.0006596589
-0.0010546558
-0.0018631815
-0.00047364672
-1.3212565e-05
-1.3168647e-05
-0.0010457805
-6.7891947e-05
-7.6194452e-05
-0.0016366757
-0.00018326745
-0.00023218945
-0.0021106145
-0.00036477271
-0.00051945817
-0.0023555848
-0.00058775978
-0.00089205426
-0.0023633643
-0.00082563234
-0.0012081011
-0.0022192899
-0.0010343985
-0.0013414021
-0.0020072913
-0.0012115252
-0.0012699846
-0.0012753747
-0.001079978
-0.0017777746
-0.00046056585
-2.0194984e-05
-1.4365231e-05
-0.0010124436
-0.00010173459
-8.0773118e-05
-0.0015769283
-0.00027091763
-0.00024118725
-0.0020218873
-0.00053476546
-0.00053283144
-0.0022391876
-0.0008562084
-0.00091034879
-0.0022254769
-0.0011929269
-0.0012338145
-0.0020635729
-0.0014910565
-0.0013750438
-0.001848471
-0.0017321242
-0.0013107644
-0.0018134827
-0.0011213253
-0.0016307347
-0.00044185352
-2.7168343e-05
-1.5875723e-05
-0.00096630306
-0.00013408431
-8.6311465e-05
-0.0014966789
-0.0003518833
-0.00025139681
-0.001906147
-0.00068835615
-0.00054668126
-0.0020913962
-0.0010946587
-0.00092798051
-0.0020534494
-0.0015112776
-0.0012588861
-0.0018724696
-0.0018846632
-0.0014091925
-0.0016560698
-0.0021668543
-0.001353894
-0.0022541379
-0.0011660248
-0.0014536287
-0.00041846195
-3.3521022e-05
-1.7363936e-05
-0.00091105448
-0.00016250836
-9.1455588e-05
-0.0014045019
-0.0004210844
-0.00025994392
-0.0017784702
-0.0008176929
-0.00055637003
-0.0019341927
-0.0012935333
-0.00093841917
-0.0018723849
-0.0017739093
-0.0012746179
-0.0016779397
-0.0022023583
-0.0014344873
-0.0014631453
-0.002505682
-0.0013889155
-0.0025887183
-0.0012040109
-0.0012779294
-0.0003909213
-3.8724123e-05
-1.8571298e-05
-0.00084836153
-0.00018495514
-9.5143141e-05
-0.0013039201
-0.00047440281
-0.00026454507
-0.0016449247
-0.00091667188
-0.00055817596
-0.0017767549
-0.0014458429
-0.0009364742
-0.0016989054
-0.0019735103
-0.0012744131
-0.0015012106
-0.0024345996
-0.0014430073
-0.0012923825
-0.0027452055
-0.0014073934
-0.0028155257
-0.0012271874
-0.0011268638
-0.00035972605
-4.2377262e-05
-1.931551e-05
-0.0007794596
-0.00019991016
-9.6658437e-05
-0.0011973326
-0.00050871117
-0.00026371156
-0.0015099073
-0.00098030786
-0.00054968623
-0.0016267113
-0.0015454335
-0.00091869337
-0.0015448576
-0.002103353
-0.0012538332
-0.001353597
-0.0025780855
-0.0014290099
-0.0011585991
-0.0028840468
-0.0014033216
-0.0029359994
-0.0012296913
-0.0010171317
-0.00032506995
-4.4469826e-05
-1.9519181e-05
-0.0007042089
-0.00020714281
-9.5695244e-05
-0.0010836322
-0.00052326644
-0.00025678618
-0.0013712996
-0.0010066312
-0.00052969399
-0.001483031
-0.0015877957
-0.00088303509
-0.0014116345
-0.0021577839
-0.0012097714
-0.0012398575
-0.0026303091
-0.0013882632
-0.0010695918
-0.0029219003
-0.001372006
-0.0029525554
-0.0012067382
-0.00095934332
-0.00028909024
-4.4110332e-05
-1.9102322e-05
-0.00062889813
-0.00020401974
-9.2065164e-05
-0.00097462501
-0.00051387218
-0.00024367101
-0.0012458062
-0.00099069607
-0.00049858303
-0.0013634217
-0.0015692605
-0.00083010519
-0.0013150097
-0.0021357901
-0.0011417902
-0.0011751104
-0.0025926957
-0.0013192166
-0.0010392983
-0.0028630395
-0.001310982
-0.0028732141
-0.0011551259
-0.00096515525
-0.00025114959
-4.1840661e-05
-1.8004514e-05
-0.00054966311
-0.00019227082
-8.5597003e-05
-0.00086104822
-0.00048317664
-0.0002241168
-0.0011189119
-0.00093469767
-0.00045583512
-0.0012513633
-0.0014902916
-0.00075917983
-0.0012404364
-0.0020360651
-0.0010494371
-0.0011471963
-0.0024675454
-0.0012194427
-0.0010603682
-0.0027106794
-0.0012168203
-0.0027047037
-0.0010711099
-0.0010320857
-0.00021266621
-3.7766136e-05
-1.6338887e-05
-0.00047000711
-0.00017252071
-7.6760033e-05
-0.0007474834
-0.0004336285
-0.00019906605
-0.00099272046
-0.00084410651
-0.00040278123
-0.0011445648
-0.0013571472
-0.00067110992
-0.0011820176
-0.0018639952
-0.00093169856
-0.0011523923
-0.0022580511
-0.0010874415
-0.0011318403
-0.002469748
-0.0010858839
-0.0024567597
-0.00095049428
-0.0011604636
-0.0001752368
-1.4107801e-05
-3.1783168e-05
-0.0003927018
-6.5683911e-05
-0.00014596673
-0.00063786978
-0.00016905709
-0.00036840007
-0.0008749109
-0.0003405534
-0.0007224873
-0.0010538108
-0.00056717678
-0.0011750476
-0.0011478664
-0.00078886963
-0.0016307633
-0.0011891265
-0.00092117603
-0.00198221
-0.0012442478
-0.00091513602
-0.0021584881
-0.00078958566
-0.0021450859
-0.001340064
1.2987871e-06
-1.1001637e-06
-1.4082605e-05
-2.2381867e-07
5.4507494e-06
-5.6992332e-06
-6.4146627e-05
1.0006672e-08
1.1810495e-05
-1.6798908e-05
-0.00016158626
2.9683978e-06
1.7659291e-05
-4.0805158e-05
-0.00031920133
1.3604438e-05
2.1216057e-05
-8.5449834e-05
-0.00052505245
3.9768928e-05
2.5920413e-05
-0.00015243231
-0.00072718352
8.6041968e-05
3.9028009e-05
-0.00023081295
-0.00084971853
0.00014624798
6.5303785e-05
-0.00030001006
-0.00084588627
0.00020448478
-0.00033822282
-0.00073033891
0.00024421381
0.00010006623
2.1192044e-06
-2.878554e-06
-1.6679712e-05
8.9624818e-06
-1.3306252e-05
-7.5996363e-05
1.9449995e-05
-3.4901667e-05
-0.00019145093
2.8566235e-05
-7.4968893e-05
-0.0003777339
3.2033924e-05
-0.00014021085
-0.00061981683
3.2681005e-05
-0.0002285963
-0.00085618175
3.8626427e-05
-0.00032423954
-0.00099996033
5.5672463e-05
-0.0004024715
-0.0010004684
-0.00044057251
-0.00087700257
8.4530645e-05
3.1622316e-06
-5.0311534e-06
-1.9014151e-05
1.3223895e-05
-2.2300698e-05
-8.6664212e-05
2.82378e-05
-5.5765045e-05
-0.0002182673
4.0298178e-05
-0.00011311914
-0.0004297453
4.2410974e-05
-0.00019919555
-0.00070230809
3.7199271e-05
-0.00030788107
-0.00096494075
3.4164268e-05
-0.00041895789
-0.0011216895
4.0801669e-05
-0.00050459666
-0.0011213325
-0.00054077976
-0.00098983156
5.9730534e-05
4.3289308e-06
-7.3579736e-06
-2.1104465e-05
1.7958496e-05
-3.1823104e-05
-9.6172436e-05
3.781452e-05
-7.72971e-05
-0.00024199515
5.2578359e-05
-0.00015128407
-0.00047518207
5.2451658e-05
-0.00025623252
-0.00077294168
4.0459401e-05
-0.00038227853
-0.0010554008
2.7864229e-05
-0.00050625002
-0.0012193294
2.4262104e-05
-0.0005970024
-0.0012149742
-0.00062908284
-0.0010753749
3.2814226e-05
5.4962681e-06
-9.5326861e-06
-2.2840727e-05
2.2716681e-05
-4.0604808e-05
-0.00010413397
4.7322147e-05
-9.6751738e-05
-0.000261937
6.4432977e-05
-0.00018481535
-0.00051327339
6.1524218e-05
-0.00030483011
-0.00083152866
4.2357053e-05
-0.00044398942
-0.0011288934
2.1025368e-05
-0.00057683889
-0.0012963426
8.4752567e-06
-0.00066993778
-0.0012865203
-0.00069643903
-0.0011391962
8.2894655e-06
6.7555176e-06
-1.1338174e-05
-2.4265565e-05
2.7868211e-05
-4.7679112e-05
-0.00011069691
5.7675526e-05
-0.0001118775
-0.00027839303
7.7483839e-05
-0.00020973336
-0.00054457638
7.2102966e-05
-0.00033899788
-0.00087914443
4.6574452e-05
-0.00048485265
-0.0011874411
1.7603811e-05
-0.00062091298
-0.0013559649
-2.5580226e-06
-0.00071294557
-0.0013401516
-0.00073298628
-0.0011857067
-9.9952863e-06
7.8729484e-06
-1.2379953e-05
-2.5402464e-05
3.2524499e-05
-5.1551622e-05
-0.00011592215
6.7090178e-05
-0.00011955068
-0.00029143755
8.932895e-05
-0.00022096759
-0.00056918038
8.1764251e-05
-0.00035185527
-0.00091605194
5.0954187e-05
-0.00049659866
-0.0012318568
1.619153e-05
-0.00062926921
-0.0013998881
-9.3588675e-06
-0.00071635624
-0.0013784322
-0.00072996628
-0.0012180255
-2.154097e-05
8.8213063e-06
-1.2332694e-05
-2.6232552e-05
3.657651e-05
-5.0973082e-05
-0.00011978921
7.5428884e-05
-0.00011717575
-0.00030117119
0.00010001428
-0.0002143462
-0.0005875768
9.0901169e-05
-0.00033767473
-0.00094348637
5.6214526e-05
-0.00047218421
-0.0012643456
1.7384035e-05
-0.00059375336
-0.0014311724
-1.1373374e-05
-0.00067168634
-0.001404828
-0.00067968782
-0.0012396619
-2.6001118e-05
9.5561952e-06
-1.0972536e-05
-2.6792084e-05
3.9843869e-05
-4.5115645e-05
-0.00012245646
8.2348208e-05
-0.00010308336
-0.00030799355
0.00010914593
-0.00018723951
-0.0006005857
9.9241978e-05
-0.00029287379
-0.00096287738
6.2251443e-05
-0.00040706487
-0.0012870149
2.0749862e-05
-0.00050900868
-0.0014524354
-9.3117408e-06
-0.00057337675
-0.0014221418
-0.0005771866
-0.0012533915
-2.4446343e-05
1.0094483e-05
-8.2897944e-06
-2.7142476e-05
4.2343605e-05
-3.3956447e-05
-0.00012418129
8.7830919e-05
-7.7263763e-05
-0.00031249419
0.00011668834
-0.00013967717
-0.00060925121
0.00010668159
-0.00021744097
-0.00097577482
6.8648804e-05
-0.00030098069
-0.0013018657
2.5673141e-05
-0.00037514901
-0.0014659277
-4.4184323e-06
-0.00042140115
-0.0014326482
-0.00042266786
-0.0012613717
-1.8890654e-05
1.0443027e-05
-4.5003809e-06
-2.7401103e-05
4.4012773e-05
-1.8357598e-05
-0.00012536296
9.1579305e-05
-4.1611876e-05
-0.00031540787
0.0001220018
-7.4956487e-05
-0.00061460125
0.00011222044
-0.00011630802
-0.00098340562
7.3945307e-05
-0.0001605591
-0.0013102471
3.0233e-05
-0.00019975812
-0.0014730803
6.7004462e-07
-0.00022402842
-0.0014377942
-0.00022423099
-0.0012650138
-1.2731035e-05
1.0528514e-05
7.2612286e-12
-2.7462691e-05
4.4554783e-05
2.6938731e-11
-0.00012573061
9.2950836e-05
5.4497607e-11
-0.00031647398
0.00012402918
5.2663779e-11
-0.00061678106
0.00011436252
-1.7645883e-11
-0.00098672389
7.6162502e-05
-1.0833762e-10
-0.0013140008
3.2354527e-05
-1.8627744e-10
-0.001476278
3.5230289e-06
-6.4168949e-11
-0.0014400287
2.8028284e-10
-0.0012665404
-8.8237982e-06
1.0528514e-05
4.5003911e-06
-2.7462687e-05
4.4554763e-05
1.8357649e-05
-0.00012573059
9.2950838e-05
4.1611993e-05
-0.00031647395
0.00012402919
7.4956579e-05
-0.000616781
0.00011436255
0.00011630793
-0.00098672382
7.6162496e-05
0.00016055872
-0.0013140007
3.2354482e-05
0.00019975752
-0.0014762779
3.5230264e-06
0.00022402818
-0.0014400287
0.00022423152
-0.0012665404
-8.8236071e-06
1.0443031e-05
8.2897926e-06
-2.7401104e-05
4.4012707e-05
3.3956466e-05
-0.00012536297
9.1579266e-05
7.7263805e-05
-0.00031540788
0.0001220018
0.00013967707
-0.00061460128
0.00011222047
0.00021744061
-0.00098340568
7.3945257e-05
0.00030097993
-0.0013102472
3.023291e-05
0.00037514804
-0.0014730803
6.7003251e-07
0.00042140068
-0.0014377942
0.00042266819
-0.0012650139
-1.2730673e-05
1.0094503e-05
1.0972523e-05
-2.7142472e-05
4.2343502e-05
4.5115634e-05
-0.00012418128
8.7830842e-05
0.0001030833
-0.00031249414
0.00011668837
0.00018723918
-0.00060925114
0.00010668162
0.00029287316
-0.00097577471
6.8648803e-05
0.00040706382
-0.0013018656
2.5673136e-05
0.0005090075
-0.0014659276
-4.4184355e-06
0.00057337611
-0.0014326482
0.00057718675
-0.0012613718
-1.8890516e-05
9.5562023e-06
1.2332668e-05
-2.6792083e-05
3.9843756e-05
5.0973051e-05
-0.00012245646
8.2348113e-05
0.00011717562
-0.00030799354
0.00010914596
0.00021434574
-0.00060058568
9.9241982e-05
0.00033767394
-0.00096287733
6.2251501e-05
0.000472183
-0.0012870148
2.0749889e-05
0.00059375203
-0.0014524353
-9.3118009e-06
0.00067168566
-0.0014221418
0.00067968832
-0.0012533916
-2.4446608e-05
8.8213482e-06
1.2379933e-05
-2.6232555e-05
3.6576399e-05
5.1551584e-05
-0.00011978921
7.5428752e-05
0.00011955049
-0.00030117121
0.00010001421
0.00022096701
-0.00058757685
9.0901101e-05
0.00035185426
-0.00094348641
5.6214608e-05
0.00049659724
-0.0012643456
1.7384092e-05
0.00062926768
-0.0014311724
-1.1373315e-05
0.00071635562
-0.0014048279
0.00072996743
-0.0012396619
-2.6001305e-05
7.8729535e-06
1.1338148e-05
-2.5402468e-05
3.2524482e-05
4.7679036e-05
-0.00011592217
6.709017e-05
0.00011187726
-0.00029143759
8.9328864e-05
0.00020973276
-0.00056918047
8.1764229e-05
0.00033899677
-0.00091605207
5.0954262e-05
0.00048485106
-0.0012318569
1.6191632e-05
0.00062091129
-0.0013998881
-9.3586478e-06
0.00071294489
-0.0013784323
0.00073298767
-0.0012180255
-2.1540807e-05
6.7555329e-06
9.5326672e-06
-2.4265574e-05
2.7868286e-05
4.0604733e-05
-0.00011069695
5.7675525e-05
9.6751531e-05
-0.00027839311
7.748378e-05
0.00018481483
-0.00054457655
7.2102933e-05
0.00030482898
-0.00087914467
4.6574474e-05
0.00044398771
-0.0011874413
1.7603913e-05
0.00057683701
-0.0013559651
-2.5578111e-06
0.0006699368
-0.0013401517
0.00069644017
-0.0011857068
-9.9947303e-06
5.4962594e-06
7.3579473e-06
-2.2840729e-05
2.2716694e-05
3.1822997e-05
-0.00010413397
4.7322163e-05
7.7296883e-05
-0.00026193699
6.4432891e-05
0.00015128357
-0.00051327339
6.1524068e-05
0.00025623143
-0.00083152868
4.2356991e-05
0.00038227683
-0.0011288935
2.1025359e-05
0.00050624815
-0.0012963426
8.4753777e-06
0.00059700113
-0.0012865203
0.00062908324
-0.0011391962
8.2903504e-06
4.3289446e-06
5.0311473e-06
-2.1104463e-05
1.7958516e-05
2.2300665e-05
-9.6172421e-05
3.7814496e-05
5.5764959e-05
-0.00024199511
5.2578145e-05
0.00011311877
-0.000475182
5.245125e-05
0.00019919461
-0.00077294158
4.0459065e-05
0.00030787952
-0.0010554007
2.7863917e-05
0.00041895604
-0.0012193293
2.4262143e-05
0.00050459509
-0.0012149741
0.0005407793
-0.0010753749
3.2815022e-05
3.1622291e-06
2.878558e-06
-1.9014147e-05
1.3223824e-05
1.330625e-05
-8.6664188e-05
2.8237627e-05
3.4901607e-05
-0.00021826724
4.0297884e-05
7.4968617e-05
-0.00042974519
4.2410588e-05
0.00014021013
-0.00070230792
3.7198768e-05
0.00022859497
-0.00096494058
3.4163699e-05
0.00032423784
-0.0011216893
4.0801295e-05
0.00040246958
-0.0011213324
0.00044057159
-0.00098983156
5.9730733e-05
2.1192029e-06
1.1001692e-06
-1.6679712e-05
8.9624778e-06
5.699232e-06
-7.5996359e-05
1.9450058e-05
1.6798822e-05
-0.00019145092
2.8566354e-05
4.0804886e-05
-0.00037773387
3.203402e-05
8.544922e-05
-0.00061981678
3.2680793e-05
0.00015243116
-0.00085618173
3.8625805e-05
0.00023081158
-0.00099996032
5.5671455e-05
0.00030000845
-0.0010004684
0.00033822174
-0.00087700263
8.45296e-05
1.2988192e-06
-1.4082608e-05
-2.2383482e-07
5.450883e-06
-6.4146636e-05
9.9349495e-09
1.1810825e-05
-0.00016158628
2.9682215e-06
1.7659769e-05
-0.00031920136
1.3604061e-05
2.1216628e-05
-0.00052505249
3.9768176e-05
2.5921236e-05
-0.0007271836
8.6040747e-05
3.9028778e-05
-0.00084971859
0.00014624654
6.5303289e-05
-0.00084588638
0.00020448416
-0.00073033898
0.00024421356
0.00010006481
-2.7630066e-07
1.6136e-06
-1.3889942e-05
-1.5299625e-06
-1.6091375e-06
7.0414733e-06
-6.3140953e-05
-6.7143191e-06
-4.6864269e-06
1.6852823e-05
-0.00015920698
-1.6154836e-05
-9.4864109e-06
3.0946525e-05
-0.0003154024
-2.9945503e-05
-1.4848716e-05
4.5979641e-05
-0.00052034
-4.5329828e-05
-1.8904572e-05
5.5798424e-05
-0.00072211677
-5.6809419e-05
-2.0348336e-05
5.551691e-05
-0.00084435906
-5.9432696e-05
-1.9418567e-05
4.5821692e-05
-0.00084002899
-5.2608744e-05
3.1809998e-05
-0.00072422279
-3.9377848e-05
-1.7966839e-05
-2.882377e-07
1.6251602e-06
-1.6403044e-05
-1.6970909e-06
7.0509942e-06
-7.4597085e-05
-4.7872958e-06
1.67189e-05
-0.00018822692
-9.0499733e-06
3.0251503e-05
-0.00037277636
-1.283018e-05
4.39792e-05
-0.00061403638
-1.4259339e-05
5.15905e-05
-0.00085054482
-1.2627365e-05
4.8528766e-05
-0.00099460424
-8.8703705e-06
3.6432991e-05
-0.00099483676
2.1672353e-05
-0.00087075942
-4.9758846e-06
-2.621365e-07
1.5442444e-06
-1.8671103e-05
-1.6104623e-06
6.6700973e-06
-8.4935002e-05
-4.5470251e-06
1.5716516e-05
-0.00021432836
-8.2986566e-06
2.8098367e-05
-0.00042384056
-1.0848997e-05
3.9976781e-05
-0.00069575535
-1.0265206e-05
4.5162704e-05
-0.00095909673
-6.3459605e-06
3.9650736e-05
-0.0011167307
-8.6954867e-07
2.5952212e-05
-0.0011163281
1.1302707e-05
-0.00098393207
3.6005978e-06
-2.2348698e-07
1.3802899e-06
-2.0717042e-05
-1.4697877e-06
5.9480176e-06
-9.4204119e-05
-4.1606644e-06
1.396099e-05
-0.00023754887
-7.2742468e-06
2.4717857e-05
-0.0004686881
-8.5860571e-06
3.4448467e-05
-0.00076610163
-6.2751157e-06
3.7317145e-05
-0.0010498663
-7.2716199e-07
2.9967514e-05
-0.0012151941
5.5269761e-06
1.5639095e-05
-0.0012109152
1.9247242e-06
-0.0010700738
9.6038904e-06
-1.6647172e-07
1.1472279e-06
-2.2441197e-05
-1.2562895e-06
4.9583361e-06
-0.00010205448
-3.6290372e-06
1.1655913e-05
-0.00025725919
-6.0725672e-06
2.0524669e-05
-0.00050663666
-6.2254724e-06
2.804985e-05
-0.00082497714
-2.4615245e-06
2.8932186e-05
-0.0011242725
4.2386633e-06
2.0453472e-05
-0.0012935288
1.0731462e-05
6.350334e-06
-0.0012837243
-5.89328e-06
-0.0011346976
1.4051029e-05
-1.1732934e-07
8.8929216e-07
-2.3890317e-05
-1.0710242e-06
3.8659306e-06
-0.00010865086
-3.1561938e-06
9.1374561e-06
-0.00027378944
-4.9786717e-06
1.6043505e-05
-0.00053827279
-4.0708252e-06
2.146386e-05
-0.00087346632
9.7398171e-07
2.0765634e-05
-0.0011843194
8.5666489e-06
1.1863001e-05
-0.0013549671
1.5032361e-05
-1.3194598e-06
-0.0013389474
-1.1760808e-05
-0.0011822409
1.743416e-05
-6.1625427e-08
6.3072794e-07
-2.5082272e-05
-8.593475e-07
2.7771494e-06
-0.00011403564
-2.6292581e-06
6.646644e-06
-0.00028717686
-3.8354057e-06
1.1689647e-05
-0.00056362039
-1.9618718e-06
1.5269814e-05
-0.00091173148
4.1469801e-06
1.3502347e-05
-0.0012307024
1.237348e-05
4.8499478e-06
-0.0014011015
1.8624499e-05
-6.8709589e-06
-0.0013791317
-1.5378609e-05
-0.0012158437
2.0060545e-05
-8.3455111e-09
4.0032179e-07
-2.599381e-05
-6.5660366e-07
1.8053891e-06
-0.00011816917
-2.1286645e-06
4.4218679e-06
-0.00029747438
-2.7682615e-06
7.8325971e-06
-0.00058308018
-5.3810036e-08
9.9437761e-06
-0.00094087479
6.9396101e-06
7.6369021e-06
-0.0012654736
1.5627639e-05
-1.5899095e-07
-0.0014348515
2.1595476e-05
-9.9983413e-06
-0.0014076684
-1.6579941e-05
-0.0012390002
2.2135053e-05
3.8056002e-08
2.203394e-07
-2.6650155e-05
-4.810285e-07
1.0363806e-06
-0.00012116835
-1.695797e-06
2.6376022e-06
-0.00030499454
-1.8557183e-06
4.7372058e-06
-0.00059733042
1.562772e-06
5.7881369e-06
-0.00096214023
9.2674848e-06
3.4614547e-06
-0.0012905442
1.8288248e-05
-2.942673e-06
-0.0014586725
2.3988399e-05
-1.0589823e-05
-0.0014272505
-1.5356629e-05
-0.0012544322
2.3805786e-05
7.4305415e-08
1.0057869e-07
-2.7097025e-05
-3.4535273e-07
5.0689852e-07
-0.00012323212
-1.3597885e-06
1.3652498e-06
-0.00031020741
-1.1424272e-06
2.4999899e-06
-0.00060723137
2.8243154e-06
2.8950574e-06
-0.00097684849
1.106966e-05
1.0111366e-06
-0.0013076608
2.0336951e-05
-3.5531643e-06
-0.0014745845
2.5847261e-05
-8.7823373e-06
-0.001439966
-1.1866358e-05
-0.001264161
2.5146316e-05
9.6871026e-08
3.3281177e-08
-2.7430689e-05
-2.5992961e-07
1.8631428e-07
-0.00012468555
-1.1378201e-06
5.3909088e-07
-0.00031370384
-6.5102826e-07
1.0089212e-06
-0.00061359699
3.702746e-06
1.0957202e-06
-0.00098596008
1.231694e-05
3.6748799e-08
-0.0013178869
2.1755545e-05
-2.3410584e-06
-0.0014837309
2.717588e-05
-4.9918044e-06
-0.001447005
-6.500569e-06
-0.0012693248
2.6121076e-05
1.0828219e-07
-1.258203e-11
-2.7537689e-05
-2.174742e-07
-4.3140742e-11
-0.00012521847
-1.0275345e-06
-9.7805931e-11
-0.00031512474
-4.0773076e-07
-2.0890989e-10
-0.00061639173
4.1356908e-06
-3.6292825e-10
-0.00099017122
1.2927787e-05
-4.9091879e-10
-0.0013227557
2.2458797e-05
-4.4174529e-10
-0.0014881496
2.7863593e-05
-5.6000642e-11
-0.0014504253
6.0796923e-10
-0.001271819
2.6640913e-05
1.0828851e-07
-3.3309998e-08
-2.7537685e-05
-2.1747408e-07
-1.8641211e-07
-0.00012521846
-1.0275178e-06
-5.3930546e-07
-0.0003151247
-4.0770505e-07
-1.0093642e-06
-0.00061639166
4.1357424e-06
-1.096474e-06
-0.00099017112
1.2927842e-05
-3.778386e-08
-0.0013227555
2.245885e-05
2.3401048e-06
-0.0014881495
2.7863644e-05
4.9916773e-06
-0.0014504253
6.5018046e-06
-0.001271819
2.6640986e-05
9.6880162e-08
-1.0060885e-07
-2.7430689e-05
-2.5994077e-07
-5.0700457e-07
-0.00012468555
-1.1378049e-06
-1.3654875e-06
-0.00031370384
-6.5099118e-07
-2.5004821e-06
-0.00061359699
3.7028298e-06
-2.8958852e-06
-0.00098596009
1.2317049e-05
-1.012298e-06
-0.0013178869
2.1755687e-05
3.5520693e-06
-0.0014837309
2.7176025e-05
8.7821352e-06
-0.001447005
1.186755e-05
-0.0012693248
2.6121255e-05
7.4310787e-08
-2.2037402e-07
-2.7097019e-05
-3.4537034e-07
-1.0364976e-06
-0.00012323209
-1.3597704e-06
-2.6378625e-06
-0.00031020735
-1.1423453e-06
-4.7377486e-06
-0.00060723126
2.8244536e-06
-5.7890577e-06
-0.00097684832
1.106987e-05
-3.4627522e-06
-0.0013076605
2.0337234e-05
2.9414463e-06
-0.0014745843
2.5847544e-05
1.0589515e-05
-0.0014399659
1.5357694e-05
-0.001264161
2.5146621e-05
3.805695e-08
-4.0036214e-07
-2.6650152e-05
-4.8104547e-07
-1.8055128e-06
-0.00012116834
-1.6957701e-06
-4.4221522e-06
-0.00030499451
-1.8556017e-06
-7.8331967e-06
-0.00059733036
1.5629557e-06
-9.944797e-06
-0.00096214012
9.2677994e-06
-7.6383355e-06
-0.0012905441
1.8288657e-05
1.5760901e-07
-0.0014586724
2.3988836e-05
9.997924e-06
-0.0014272504
1.6580826e-05
-0.0012544322
2.3806324e-05
-8.3367794e-09
-6.3076323e-07
-2.599381e-05
-6.5662431e-07
-2.7772585e-06
-0.00011816917
-2.1286434e-06
-6.6469387e-06
-0.00029747439
-2.7681782e-06
-1.169032e-05
-0.00058308018
-5.3615694e-08
-1.5271003e-05
-0.00094087477
6.9399852e-06
-1.3503975e-05
-0.0012654736
1.5628143e-05
-4.8515198e-06
-0.0014348514
2.1596058e-05
6.8703915e-06
-0.0014076684
1.5379222e-05
-0.0012390002
2.2135838e-05
-6.1617349e-08
-8.8933297e-07
-2.5082275e-05
-8.5933548e-07
-3.866051e-06
-0.00011403565
-2.629175e-06
-9.1377937e-06
-0.00028717689
-3.8352655e-06
-1.604427e-05
-0.00056362044
-1.9616051e-06
-2.1465181e-05
-0.00091173155
4.1473836e-06
-2.0767434e-05
-0.0012307024
1.2374027e-05
-1.1864775e-05
-0.0014011015
1.8625171e-05
1.3186194e-06
-0.0013791317
1.1761134e-05
-0.0012158437
2.0061358e-05
-1.1731281e-07
-1.1472691e-06
-2.3890324e-05
-1.0709644e-06
-4.9584561e-06
-0.0001086509
-3.1560984e-06
-1.1656248e-05
-0.00027378951
-4.9785205e-06
-2.0525426e-05
-0.00053827293
-4.070593e-06
-2.8051219e-05
-0.00087346652
9.7431136e-07
-2.8934106e-05
-0.0011843196
8.5671311e-06
-2.0455481e-05
-0.0013549673
1.5033016e-05
-6.3515724e-06
-0.0013389475
5.8935214e-06
-0.001182241
1.7434756e-05
-1.6646524e-07
-1.3803344e-06
-2.2441197e-05
-1.2562475e-06
-5.9481588e-06
-0.00010205448
-3.6289385e-06
-1.3961327e-05
-0.00025725919
-6.0724454e-06
-2.4718587e-05
-0.00050663667
-6.2253658e-06
-3.4449817e-05
-0.00082497715
-2.4613877e-06
-3.7319111e-05
-0.0011242725
4.2389652e-06
-2.9969775e-05
-0.0012935288
1.0731983e-05
-1.5640741e-05
-0.0012837243
-1.9244443e-06
-0.0011346976
1.4051359e-05
-2.2348208e-07
-1.5442699e-06
-2.0717038e-05
-1.4697583e-06
-6.6701796e-06
-9.42041e-05
-4.160596e-06
-1.5716727e-05
-0.00023754883
-7.27423e-06
-2.8098905e-05
-0.00046868802
-8.5861739e-06
-3.9977916e-05
-0.00076610152
-6.2753154e-06
-4.5164538e-05
-0.0010498661
-7.2738331e-07
-3.9653054e-05
-0.001215194
5.5269599e-06
-2.5954183e-05
-0.0012109151
-1.1302548e-05
-0.0010700738
9.603856e-06
-2.6214177e-07
-1.6251696e-06
-1.8671097e-05
-1.6104878e-06
-7.0510316e-06
-8.4934976e-05
-4.5471058e-06
-1.6719021e-05
-0.0002143283
-8.298858e-06
-3.025188e-05
-0.00042384044
-1.0849399e-05
-4.3980078e-05
-0.00069575518
-1.0265994e-05
-5.1592001e-05
-0.00095909652
-6.3470859e-06
-4.8530847e-05
-0.0011167305
-8.705622e-07
-3.6435201e-05
-0.001116328
-2.167259e-05
-0.00098393207
3.5999556e-06
-2.8824505e-07
-1.6135882e-06
-1.6403043e-05
-1.6971092e-06
-7.0414374e-06
-7.4597078e-05
-4.7873267e-06
-1.6852785e-05
-0.0001882269
-9.0501171e-06
-3.0946555e-05
-0.00037277633
-1.2830686e-05
-4.5979907e-05
-0.00061403633
-1.4260422e-05
-5.5799231e-05
-0.00085054479
-1.2628893e-05
-5.5518517e-05
-0.0009946042
-8.8723013e-06
-4.5823499e-05
-0.00099483677
-3.1810685e-05
-0.00087075947
-4.9774455e-06
-2.7630277e-07
-1.3889944e-05
-1.5299477e-06
-1.6091364e-06
-6.3140961e-05
-6.7142751e-06
-4.6864042e-06
-0.000159207
-1.6154769e-05
-9.4863944e-06
-0.00031540244
-2.9945484e-05
-1.4848685e-05
-0.00052034005
-4.5330091e-05
-1.890443e-05
-0.00072211684
-5.6810241e-05
-2.0348305e-05
-0.00084435913
-5.9434167e-05
-1.9419397e-05
-0.00084002908
-5.2609791e-05
-0.00072422284
-3.9377914e-05
-1.7968326e-05
-1.1508031e-07
-2.0277054e-07
-1.3735386e-05
1.6329524e-07
-4.650699e-07
-9.871645e-07
-6.2615823e-05
8.1201947e-07
-1.2008563e-06
-2.778488e-06
-0.00015798506
2.2923375e-06
-2.6223437e-06
-6.5219955e-06
-0.00031279562
5.3366857e-06
-4.6027615e-06
-1.3540397e-05
-0.00051576954
1.0950326e-05
-5.8508181e-06
-2.4873262e-05
-0.00071590384
1.9908336e-05
-4.0236407e-06
-3.9971907e-05
-0.0008379743
3.1759926e-05
2.7258852e-06
-5.5739502e-05
-0.00083521148
4.4172423e-05
-6.7270118e-05
-0.00072158773
5.388507e-05
1.3475835e-05
-1.4475922e-07
-2.5392841e-07
-1.620713e-05
-5.5873472e-07
-1.2206868e-06
-7.3949601e-05
-1.4130474e-06
-3.3998986e-06
-0.00018675122
-3.1178532e-06
-7.9303834e-06
-0.0003696632
-5.6295593e-06
-1.6439389e-05
-0.00060862574
-7.6187516e-06
-3.021058e-05
-0.00084321838
-6.6252058e-06