/*--------------------------------*- C++ -*----------------------------------*\
| =========                 |                                                 |
| \\      /  F ield         | OpenFOAM: The Open Source CFD Toolbox           |
|  \\    /   O peration     | Version:  2406                                  |
|   \\  /    A nd           | Website:  www.openfoam.com                      |
|    \\/     M anipulation  |                                                 |
\*---------------------------------------------------------------------------*/
FoamFile
{
    version     2.0;
    format      ascii;
    arch        "LSB;label=32;scalar=64";
    class       volVectorField;
    location    "9.75";
    object      U;
}
// * * * * * * * * * * * * * * * * * * * * * * * * * * * * * * * * * * * * * //

dimensions      [0 1 -1 0 0 0 0];

internalField   nonuniform List<vector> 
34560
(
(-0.07504578 0.014204928 0.030581871)
(-0.26375814 0.046597176 0.10004025)
(-0.52806617 0.088988078 0.18192534)
(-0.86432206 0.13741992 0.26515971)
(-1.2364969 0.18649531 0.33165166)
(-1.5840567 0.23419904 0.36750029)
(-1.8527177 0.2833555 0.37204887)
(-2.0213755 0.33492643 0.35533493)
(-2.0981938 0.38280072 0.33108143)
(-0.075886896 0.016984539 0.034191306)
(-0.27251975 0.055286438 0.11143595)
(-0.55368758 0.10404541 0.20057575)
(-0.91205947 0.1572421 0.287578)
(-1.3001961 0.20829524 0.35208857)
(-1.6462477 0.25617892 0.38161115)
(-1.8952493 0.30542554 0.37887234)
(-2.0360327 0.35686552 0.35678612)
(-2.0880657 0.40464718 0.32769359)
(-0.073213837 0.017687757 0.035476154)
(-0.27145513 0.058450972 0.11634298)
(-0.56392657 0.11074474 0.20936137)
(-0.9396249 0.16691207 0.29868903)
(-1.3384005 0.21909629 0.36207961)
(-1.6777287 0.26692307 0.38760699)
(-1.90479 0.31577289 0.38041255)
(-2.0191452 0.36844234 0.35471966)
(-2.0488524 0.41553568 0.32350013)
(-0.067445926 0.018166633 0.036582511)
(-0.26136188 0.060450896 0.1202085)
(-0.55937712 0.11451164 0.21564129)
(-0.9474797 0.1714217 0.30569347)
(-1.3526615 0.22280901 0.36717545)
(-1.6821457 0.26950882 0.38962746)
(-1.8876095 0.31836068 0.37985327)
(-1.974686 0.36965546 0.35278158)
(-1.9835551 0.41567867 0.32186003)
(-0.05840221 0.01755208 0.037006057)
(-0.24153607 0.059329737 0.12202456)
(-0.53907852 0.11324263 0.21867018)
(-0.93464468 0.16939049 0.30882627)
(-1.3434574 0.21912798 0.36905583)
(-1.6628446 0.26373739 0.38987197)
(-1.8438491 0.31082525 0.37905381)
(-1.9046125 0.36031018 0.35257331)
(-1.8934917 0.40507409 0.32325457)
(-0.046630227 0.016161862 0.036885748)
(-0.2132315 0.055689289 0.12209308)
(-0.50457527 0.10738127 0.21903472)
(-0.903348 0.16087698 0.30930694)
(-1.3123982 0.20747328 0.36904645)
(-1.6183171 0.24920416 0.38968453)
(-1.77466 0.29385944 0.37963666)
(-1.8100495 0.34077322 0.3552627)
(-1.7795023 0.38374566 0.32831115)
(-0.032731962 0.014223536 0.036677652)
(-0.1776947 0.04998766 0.12166565)
(-0.45689594 0.097468067 0.21844521)
(-0.85325725 0.1464384 0.30877544)
(-1.2586372 0.188681 0.36887263)
(-1.549601 0.22654948 0.39085229)
(-1.6815099 0.26747024 0.38316747)
(-1.6921857 0.31123654 0.36166089)
(-1.6429928 0.35150236 0.33745133)
(-0.017328134 0.011699581 0.036385535)
(-0.13656922 0.042190813 0.12092351)
(-0.39837617 0.08358528 0.21750538)
(-0.78715346 0.12640847 0.30837553)
(-1.1852459 0.16321898 0.36991075)
(-1.4599286 0.19632997 0.39457323)
(-1.5680351 0.23225156 0.39051051)
(-1.5544751 0.27189448 0.37227749)
(-1.4876083 0.30832685 0.35075941)
(-0.0016057849 0.0088568949 0.036144608)
(-0.093212524 0.032970751 0.1202895)
(-0.33411745 0.066655122 0.2168982)
(-0.7111641 0.10181628 0.30889773)
(-1.0988729 0.13221038 0.37276784)
(-1.3560497 0.16027474 0.40072977)
(-1.4421684 0.18856986 0.4017527)
(-1.4047898 0.22313204 0.38678263)
(-1.3214375 0.25436178 0.36753521)
(0.012778939 0.0060147039 0.036013433)
(-0.052567476 0.023215345 0.11996402)
(-0.27202968 0.047986316 0.21692713)
(-0.63522073 0.074131511 0.31053573)
(-1.0106879 0.096935298 0.37724159)
(-1.2500757 0.11853082 0.40892628)
(-1.3174718 0.13905523 0.41480852)
(-1.2578487 0.16614225 0.40338594)
(-1.1599205 0.19050646 0.38575021)
(0.023839187 0.0034627089 0.036017983)
(-0.020713704 0.013745677 0.11999971)
(-0.22213973 0.028874242 0.21749949)
(-0.57236891 0.044957935 0.31272542)
(-0.93619416 0.059080483 0.38206303)
(-1.1604327 0.072664843 0.41723623)
(-1.2124205 0.085426398 0.426859)
(-1.1347824 0.10267701 0.41865908)
(-1.0253799 0.11833344 0.40200218)
(0.030125189 0.0011523831 0.036058905)
(-0.0023707975 0.0046086921 0.12014976)
(-0.19293291 0.009725123 0.21802833)
(-0.5349719 0.01514321 0.31426865)
(-0.89148024 0.0199078 0.3852337)
(-1.1066617 0.024555517 0.42259748)
(-1.1495578 0.028930971 0.43446739)
(-1.061373 0.034947826 0.42820316)
(-0.94543546 0.0404317 0.41200466)
(0.030125174 -0.001152497 0.036058912)
(-0.002370852 -0.0046090141 0.12014978)
(-0.19293301 -0.0097256437 0.21802836)
(-0.53497207 -0.015143948 0.31426868)
(-0.89148047 -0.019908659 0.38523372)
(-1.106662 -0.024556372 0.42259751)
(-1.149558 -0.028931686 0.4344674)
(-1.061373 -0.03494809 0.42820312)
(-0.94543544 -0.040431396 0.41200456)
(0.023839146 -0.0034627978 0.036017995)
(-0.020713848 -0.013745937 0.11999976)
(-0.22214 -0.028874682 0.21749958)
(-0.57236931 -0.044958607 0.31272553)
(-0.93619467 -0.059081354 0.38206312)
(-1.1604332 -0.07266579 0.41723631)
(-1.2124209 -0.085427224 0.42685903)
(-1.1347827 -0.10267734 0.41865896)
(-1.0253799 -0.11833314 0.40200192)
(0.012778885 -0.0060147736 0.036013437)
(-0.05256767 -0.023215548 0.11996406)
(-0.27203005 -0.047986688 0.21692725)
(-0.63522123 -0.074132145 0.31053588)
(-1.0106884 -0.096936179 0.37724175)
(-1.2500763 -0.11853184 0.40892644)
(-1.3174723 -0.13905614 0.41480857)
(-1.2578492 -0.16614268 0.4033858)
(-1.1599205 -0.19050625 0.38574989)
(-0.0016058367 -0.0088569508 0.03614466)
(-0.093212707 -0.032970947 0.1202896)
(-0.33411778 -0.066655499 0.21689841)
(-0.71116451 -0.10181692 0.30889797)
(-1.0988733 -0.13221125 0.3727681)
(-1.3560502 -0.16027575 0.40073001)
(-1.4421689 -0.18857077 0.40175282)
(-1.4047903 -0.22313256 0.38678257)
(-1.3214376 -0.2543617 0.36753498)
(-0.017328187 -0.011699639 0.036385646)
(-0.1365694 -0.042191032 0.1209237)
(-0.39837651 -0.083585691 0.21750564)
(-0.78715395 -0.12640911 0.30837583)
(-1.1852464 -0.16321982 0.36991107)
(-1.4599291 -0.1963309 0.39457354)
(-1.5680357 -0.23225245 0.39051076)
(-1.5544755 -0.27189505 0.37227758)
(-1.4876083 -0.30832681 0.35075934)
(-0.032732017 -0.0142236 0.036677733)
(-0.17769489 -0.049987869 0.12166577)
(-0.45689629 -0.097468449 0.21844543)
(-0.85325777 -0.14643898 0.30877573)
(-1.2586379 -0.18868176 0.36887296)
(-1.5496016 -0.22655031 0.39085266)
(-1.6815104 -0.26747108 0.38316788)
(-1.692186 -0.31123709 0.36166113)
(-1.6429928 -0.35150225 0.33745141)
(-0.046630262 -0.016161902 0.036885788)
(-0.21323162 -0.055689423 0.12209314)
(-0.50457549 -0.10738155 0.21903484)
(-0.90334843 -0.16087742 0.30930712)
(-1.3123988 -0.20747392 0.36904677)
(-1.6183176 -0.24920492 0.38968502)
(-1.7746604 -0.2938602 0.37963721)
(-1.8100499 -0.34077376 0.35526303)
(-1.7795024 -0.38374555 0.32831135)
(-0.058402247 -0.017552095 0.037006103)
(-0.2415362 -0.059329839 0.12202459)
(-0.53907878 -0.11324282 0.21867026)
(-0.93464513 -0.1693908 0.30882648)
(-1.343458 -0.21912851 0.36905627)
(-1.662845 -0.26373805 0.38987256)
(-1.8438495 -0.31082585 0.37905445)
(-1.9046129 -0.36031058 0.35257371)
(-1.8934919 -0.4050741 0.32325479)
(-0.067445956 -0.018166636 0.036582522)
(-0.26136199 -0.060450985 0.12020844)
(-0.55937731 -0.11451176 0.21564133)
(-0.94747995 -0.17142193 0.3056937)
(-1.3526618 -0.22280941 0.36717589)
(-1.682146 -0.26950934 0.38962802)
(-1.8876097 -0.31836108 0.3798538)
(-1.9746863 -0.36965562 0.35278204)
(-1.9835553 -0.41567844 0.32186014)
(-0.07321385 -0.017687717 0.03547615)
(-0.27145518 -0.058450936 0.11634295)
(-0.56392666 -0.11074471 0.20936143)
(-0.93962503 -0.16691216 0.29868924)
(-1.3384007 -0.21909653 0.36208)
(-1.677729 -0.26692345 0.38760747)
(-1.9047902 -0.31577314 0.38041301)
(-2.0191454 -0.36844226 0.35471995)
(-2.0488525 -0.41553526 0.3235002)
(-0.075886919 -0.016984484 0.034191285)
(-0.27251982 -0.055286351 0.1114359)
(-0.55368773 -0.10404534 0.20057574)
(-0.91205967 -0.15724216 0.28757807)
(-1.3001963 -0.20829543 0.3520888)
(-1.6462481 -0.25617909 0.38161142)
(-1.8952496 -0.30542566 0.37887253)
(-2.0360329 -0.35686537 0.35678637)
(-2.0880659 -0.4046467 0.32769369)
(-0.075045794 -0.014204893 0.03058184)
(-0.26375818 -0.046597135 0.10004017)
(-0.52806624 -0.088988063 0.18192528)
(-0.86432215 -0.13742002 0.2651597)
(-1.2364971 -0.18649553 0.33165166)
(-1.5840569 -0.23419923 0.3675004)
(-1.8527181 -0.28335555 0.37204916)
(-2.0213758 -0.33492637 0.35533496)
(-2.098194 -0.38280097 0.33108172)
(-0.088443533 -0.00014912689 -0.00025700126)
(-0.29293757 -0.00082593341 -0.0013234751)
(-0.5557663 -0.0022689292 -0.0035815436)
(-0.86656576 -0.0054771517 -0.007271206)
(-1.1956122 -0.011697102 -0.012078077)
(-1.498471 -0.021412457 -0.017001613)
(-1.7322828 -0.033842978 -0.021044807)
(-1.8786354 -0.047541743 -0.023780707)
(-1.9429658 -0.060692799 -0.025156117)
(-0.096340595 -0.001171963 -0.0011385373)
(-0.31799282 -0.0039176158 -0.0040336828)
(-0.60034794 -0.0076027136 -0.008407883)
(-0.92852601 -0.01315388 -0.014094485)
(-1.2660405 -0.02171731 -0.020103867)
(-1.5630372 -0.033530146 -0.024960488)
(-1.7771415 -0.047557674 -0.027827414)
(-1.8976265 -0.062255789 -0.028928242)
(-1.9422697 -0.075790165 -0.029139357)
(-0.1028023 -0.0023672142 -0.0019309905)
(-0.33859501 -0.0074653592 -0.0064909701)
(-0.63694257 -0.013578895 -0.012780949)
(-0.978612 -0.021446095 -0.020136156)
(-1.3208997 -0.03203211 -0.026855707)
(-1.6094928 -0.045383159 -0.031151364)
(-1.8037084 -0.060392137 -0.032557622)
(-1.9013656 -0.075514461 -0.031928236)
(-1.9312346 -0.089033395 -0.030735536)
(-0.10844056 -0.0037492213 -0.0026353244)
(-0.35642254 -0.011471438 -0.0086662072)
(-0.66826685 -0.020141136 -0.016643422)
(-1.0207263 -0.030221527 -0.025362352)
(-1.3656917 -0.042479765 -0.032409638)
(-1.6454258 -0.056884192 -0.03581939)
(-1.8215514 -0.072427645 -0.035632592)
(-1.8997971 -0.087591363 -0.033334712)
(-1.9176882 -0.10072529 -0.030867188)
(-0.11286154 -0.0051254055 -0.0031347114)
(-0.37058352 -0.015414454 -0.010233359)
(-0.69335222 -0.026491698 -0.019487797)
(-1.0544555 -0.038504621 -0.029178226)
(-1.4011346 -0.052036987 -0.036220783)
(-1.6728701 -0.067067808 -0.038543706)
(-1.8336394 -0.08274455 -0.036806619)
(-1.8959569 -0.097568464 -0.033064735)
(-1.9040263 -0.1098812 -0.029583627)
(-0.11629369 -0.0063702082 -0.0033452148)
(-0.38167112 -0.018926082 -0.010948226)
(-0.71309107 -0.032018014 -0.020953796)
(-1.0809485 -0.04546733 -0.031181566)
(-1.4286364 -0.059708249 -0.037920923)
(-1.6934722 -0.074809777 -0.039070159)
(-1.8415805 -0.090100456 -0.035914249)
(-1.8911487 -0.10415417 -0.031028427)
(-1.891227 -0.11528625 -0.026838973)
(-0.11902419 -0.007295324 -0.0032823344)
(-0.39042767 -0.021463901 -0.010841848)
(-0.72856885 -0.035867537 -0.021049918)
(-1.1014955 -0.050043065 -0.031364778)
(-1.4495646 -0.064311403 -0.037541785)
(-1.708514 -0.078860986 -0.037489137)
(-1.8463824 -0.093193916 -0.033108899)
(-1.8859506 -0.10607137 -0.027346692)
(-1.8796499 -0.11574821 -0.02275328)
(-0.12089573 -0.007655389 -0.0029377524)
(-0.3965586 -0.022365089 -0.0099052509)
(-0.73958531 -0.037040089 -0.019788906)
(-1.1162367 -0.051019657 -0.029803079)
(-1.4644816 -0.064538975 -0.035260009)
(-1.7188047 -0.077885537 -0.034077327)
(-1.8487722 -0.09075276 -0.02868371)
(-1.880727 -0.10204546 -0.02233402)
(-1.8694362 -0.11008182 -0.017604601)
(-0.12202021 -0.0072673694 -0.0023810799)
(-0.40040069 -0.021126237 -0.0083399658)
(-0.74672647 -0.034768498 -0.017490543)
(-1.1260008 -0.047460666 -0.02691985)
(-1.4743716 -0.059372785 -0.031593925)
(-1.7252727 -0.070854584 -0.029446678)
(-1.8494211 -0.081683031 -0.023233973)
(-1.8757596 -0.091027147 -0.016541153)
(-1.8606854 -0.097331034 -0.011890726)
(-0.12261202 -0.0060420171 -0.0017308278)
(-0.40258803 -0.017507079 -0.0064902847)
(-0.75101052 -0.028693282 -0.014705424)
(-1.1320291 -0.038930698 -0.023426942)
(-1.480465 -0.048335099 -0.0273678)
(-1.7289593 -0.057228442 -0.024463268)
(-1.8490095 -0.065484499 -0.017655389)
(-1.8713463 -0.072519781 -0.010787703)
(-1.8535186 -0.07704589 -0.006336421)
(-0.12318271 -0.0040386305 -0.0011598963)
(-0.40436552 -0.011665243 -0.0048558772)
(-0.75409232 -0.019055318 -0.012213044)
(-1.1359873 -0.025738037 -0.020294694)
(-1.484149 -0.031780984 -0.023649053)
(-1.7308438 -0.037416085 -0.020214432)
(-1.8481266 -0.042616835 -0.013020562)
(-1.8678175 -0.047007042 -0.0060889322)
(-1.8481712 -0.049736183 -0.0018507814)
(-0.12317623 -0.0014263645 -0.00083947538)
(-0.40455753 -0.0041102238 -0.0039339662)
(-0.75472821 -0.0066952171 -0.010783466)
(-1.1371004 -0.0090238679 -0.018476985)
(-1.485333 -0.011123649 -0.021494345)
(-1.7313593 -0.013070902 -0.017773517)
(-1.8474056 -0.014858578 -0.010383738)
(-1.8658184 -0.016354699 -0.0034341381)
(-1.8452442 -0.017265459 0.00067396031)
(-0.12317623 0.0014263713 -0.00083947699)
(-0.40455753 0.004110245 -0.0039339609)
(-0.75472821 0.0066952501 -0.010783466)
(-1.1371005 0.0090238876 -0.018476987)
(-1.4853331 0.011123629 -0.021494348)
(-1.7313593 0.013070845 -0.017773516)
(-1.8474056 0.014858501 -0.010383727)
(-1.8658185 0.016354666 -0.0034341249)
(-1.8452442 0.017265527 0.00067396187)
(-0.12318271 0.0040386342 -0.0011598968)
(-0.40436552 0.011665262 -0.0048558644)
(-0.75409233 0.019055346 -0.012213037)
(-1.1359873 0.025738039 -0.020294683)
(-1.4841491 0.031780936 -0.023649045)
(-1.7308439 0.037415985 -0.020214414)
(-1.8481267 0.042616717 -0.013020531)
(-1.8678176 0.047006989 -0.0060889053)
(-1.8481712 0.049736248 -0.0018507776)
(-0.12261202 0.006042014 -0.0017308223)
(-0.40258803 0.017507083 -0.0064902723)
(-0.75101053 0.028693284 -0.014705402)
(-1.1320291 0.038930659 -0.023426917)
(-1.480465 0.048335004 -0.027367774)
(-1.7289593 0.057228287 -0.024463226)
(-1.8490096 0.06548434 -0.017655347)
(-1.8713464 0.072519705 -0.010787675)
(-1.8535188 0.077045946 -0.0063364025)
(-0.12202021 0.0072673591 -0.002381067)
(-0.4004007 0.021126221 -0.008339948)
(-0.7467265 0.03476847 -0.0174905)
(-1.1260008 0.04746059 -0.026919805)
(-1.4743716 0.059372653 -0.031593872)
(-1.7252727 0.070854393 -0.029446618)
(-1.8494211 0.081682849 -0.02323393)
(-1.8757597 0.091027056 -0.016541121)
(-1.8606856 0.097331108 -0.011890689)
(-0.12089573 0.0076553704 -0.0029377353)
(-0.39655859 0.022365042 -0.0099052239)
(-0.73958532 0.037040017 -0.019788843)
(-1.1162368 0.051019542 -0.029803009)
(-1.4644816 0.064538806 -0.035259923)
(-1.7188046 0.077885321 -0.034077254)
(-1.8487721 0.090752553 -0.028683664)
(-1.880727 0.10204536 -0.022333999)
(-1.8694362 0.11008195 -0.01760459)
(-0.11902418 0.0072953045 -0.0032823142)
(-0.39042764 0.021463846 -0.010841806)
(-0.72856882 0.03586744 -0.021049854)
(-1.1014955 0.050042922 -0.031364697)
(-1.4495646 0.064311204 -0.037541684)
(-1.7085139 0.078860739 -0.037489058)
(-1.8463823 0.093193675 -0.033108854)
(-1.8859506 0.10607126 -0.027346714)
(-1.8796498 0.11574838 -0.022753337)
(-0.11629368 0.0063701894 -0.0033452032)
(-0.38167108 0.018926029 -0.010948185)
(-0.71309099 0.032017912 -0.020953726)
(-1.0809485 0.045467179 -0.031181468)
(-1.4286363 0.059708031 -0.037920803)
(-1.6934721 0.0748095 -0.039070061)
(-1.8415804 0.090100182 -0.035914205)
(-1.8911487 0.10415403 -0.031028497)
(-1.8912269 0.11528638 -0.026839087)
(-0.11286151 0.0051253923 -0.0031347023)
(-0.37058343 0.015414417 -0.010233311)
(-0.69335206 0.026491614 -0.019487726)
(-1.0544554 0.038504484 -0.02917812)
(-1.4011345 0.052036774 -0.036220648)
(-1.67287 0.067067517 -0.038543584)
(-1.8336393 0.08274426 -0.036806575)
(-1.8959569 0.097568297 -0.033064816)
(-1.9040262 0.10988121 -0.029583758)
(-0.10844054 0.0037492119 -0.0026353203)
(-0.35642247 0.01147141 -0.0086661767)
(-0.66826672 0.020141072 -0.016643368)
(-1.0207261 0.030221411 -0.025362251)
(-1.3656916 0.042479574 -0.03240949)
(-1.6454256 0.056883918 -0.035819253)
(-1.8215513 0.072427359 -0.035632545)
(-1.8997971 0.087591187 -0.033334748)
(-1.9176883 0.10072529 -0.0308673)
(-0.10280228 0.0023672145 -0.0019309881)
(-0.33859493 0.0074653493 -0.0064909531)
(-0.63694242 0.013578862 -0.012780906)
(-0.97861178 0.021446017 -0.02013607)
(-1.3208994 0.032031966 -0.026855581)
(-1.6094926 0.045382947 -0.031151245)
(-1.8037082 0.060391856 -0.032557545)
(-1.9013656 0.075514238 -0.031928218)
(-1.9312347 0.089033521 -0.030735696)
(-0.096340577 0.0011719686 -0.0011385389)
(-0.31799275 0.0039176181 -0.0040336808)
(-0.60034781 0.0076026911 -0.0084078695)
(-0.9285258 0.013153802 -0.014094452)
(-1.2660403 0.021717176 -0.020103791)
(-1.563037 0.03353 -0.024960352)
(-1.7771415 0.047557531 -0.027827317)
(-1.8976266 0.062255667 -0.028928441)
(-1.9422699 0.075790274 -0.029139639)
(-0.088443524 0.00014912219 -0.00025700358)
(-0.29293753 0.00082590929 -0.0013234784)
(-0.5557662 0.0022688674 -0.0035815348)
(-0.86656559 0.0054770236 -0.0072711756)
(-1.195612 0.011696914 -0.012078007)
(-1.4984709 0.021412202 -0.017001513)
(-1.7322828 0.033842742 -0.021044798)
(-1.8786355 0.047541755 -0.023781049)
(-1.942966 0.060692788 -0.025156357)
(-0.078235201 0.0010297223 0.00095238386)
(-0.26014164 0.0032135488 0.0029933233)
(-0.49683247 0.0056487318 0.0052969554)
(-0.78208631 0.0079116333 0.0074846721)
(-1.0913591 0.0094931204 0.0089698694)
(-1.3831741 0.010041345 0.0092763616)
(-1.6128914 0.0095643162 0.008377264)
(-1.7575394 0.0083756936 0.0067510117)
(-1.8186083 0.0067805893 0.004988092)
(-0.084065499 0.0010602432 0.00087147554)
(-0.27894253 0.0032614658 0.0027306736)
(-0.53106548 0.0056242157 0.0048145278)
(-0.83097705 0.0076734346 0.0067311698)
(-1.1483175 0.0088929068 0.0078626325)
(-1.4358079 0.0089794353 0.007735678)
(-1.6478057 0.0080270185 0.006382174)
(-1.767657 0.0064529513 0.0043816771)
(-1.809006 0.0047438303 0.0023486351)
(-0.088746303 0.00100508 0.00071884388)
(-0.29410604 0.0030769441 0.0022652683)
(-0.55863314 0.0052590838 0.004024007)
(-0.8696895 0.0070663616 0.0056486604)
(-1.1914324 0.0080008609 0.0065308329)
(-1.4715338 0.0078090075 0.0061710398)
(-1.6646686 0.0066360503 0.0045842534)
(-1.7618271 0.0049411429 0.0023762739)
(-1.7879985 0.0032459799 0.00033329009)
(-0.092730317 0.0009185905 0.00057072863)
(-0.30692032 0.0027964523 0.0018072573)
(-0.58170057 0.0047400511 0.0032368126)
(-0.90147915 0.0062794621 0.0045604009)
(-1.2255488 0.0069547249 0.0051906919)
(-1.4973963 0.0065583967 0.0046231991)
(-1.6727061 0.0052644005 0.0028729552)
(-1.7500317 0.0035402725 0.00058379786)
(-1.7634895 0.0018872872 -0.0013556203)
(-0.09570373 0.00078433521 0.00042111548)
(-0.31667063 0.0023888798 0.0013503814)
(-0.59948078 0.0040420835 0.0024611986)
(-0.92601051 0.0053112369 0.0035048078)
(-1.2513298 0.0057754933 0.0039133027)
(-1.515385 0.0052528429 0.0031765246)
(-1.675045 0.0039226438 0.0013196808)
(-1.735542 0.0022463505 -0.000967512)
(-1.7382166 0.00069959506 -0.0027447329)
(-0.09793243 0.00062808653 0.00028326753)
(-0.32405002 0.0019212293 0.00092931969)
(-0.6130032 0.0032592787 0.0017496336)
(-0.94455127 0.0042636269 0.0025446225)
(-1.2702382 0.0045580354 0.0027647239)
(-1.5271502 0.0039768348 0.0018962295)
(-1.6734706 0.0026858383 -2.0879878e-05)
(-1.7200184 0.0011267215 -0.0022538758)
(-1.7136615 -0.00026188673 -0.0038383718)
(-0.099639625 0.00046666819 0.00017286091)
(-0.32965617 0.0014396947 0.00058879492)
(-0.62316813 0.0024615143 0.0011666163)
(-0.95819343 0.0032178378 0.0017485887)
(-1.2834705 0.0033814892 0.0018048626)
(-1.533946 0.0027990953 0.00082821813)
(-1.6691158 0.0016130049 -0.0011180431)
(-1.7044244 0.00022318618 -0.0032735854)
(-1.6907186 -0.00097623098 -0.0046610076)
(-0.10071149 0.00031353962 9.0614449e-05)
(-0.33328838 0.00098462427 0.00033285281)
(-0.62988088 0.0017123912 0.00072227437)
(-0.96716376 0.0022506204 0.0011337729)
(-1.2916786 0.0023231554 0.0010565099)
(-1.5367407 0.0017874413 -6.448621e-06)
(-1.6629862 0.00075585808 -0.0019648869)
(-1.6895458 -0.00042549579 -0.0040332213)
(-1.6701021 -0.0014163725 -0.0052405286)
(-0.10125608 0.00018546452 3.6719087e-05)
(-0.33527891 0.00060118827 0.00016162783)
(-0.63374097 0.0010772467 0.0004170163)
(-0.972352 0.0014333092 0.00069978642)
(-1.2959969 0.0014483019 0.00051823542)
(-1.536756 0.00099471234 -0.00061043119)
(-1.6561776 0.00015481111 -0.0025703808)
(-1.6761858 -0.00078867547 -0.004555134)
(-1.6524674 -0.0015547159 -0.0056164596)
(-0.10146757 9.287603e-05 6.6288484e-06)
(-0.33621253 0.00031794818 6.2287936e-05)
(-0.63572555 0.00059743898 0.00023215418)
(-0.97503877 0.00081050242 0.00042569164)
(-1.297844 0.00079498394 0.00016784314)
(-1.5353441 0.00044915599 -0.0010079658)
(-1.6498028 -0.00017103791 -0.0029636106)
(-1.6651616 -0.00085724306 -0.0048837879)
(-1.6384362 -0.0014072906 -0.0058414812)
(-0.10177073 3.6454973e-05 -6.5310307e-06)
(-0.3371518 0.00013641586 1.5708997e-05)
(-0.63731469 0.00027433191 0.00013900708)
(-0.9768362 0.00038175079 0.00027771513)
(-1.2987332 0.00035949644 -3.1328e-05)
(-1.5337959 0.00014171521 -0.0012389292)
(-1.6448769 -0.00023882022 -0.0031907177)
(-1.6572264 -0.00065293585 -0.0050727373)
(-1.6285956 -0.00098425387 -0.0059638221)
(-0.10168003 8.2731887e-06 -1.0382496e-05)
(-0.33704531 3.4703473e-05 2.5868803e-07)
(-0.63736576 7.472421e-05 0.00010476655)
(-0.97702189 0.00010612105 0.00021904745)
(-1.298624 9.5850354e-05 -0.00011420599)
(-1.5326449 2.1279288e-05 -0.0013373751)
(-1.6421613 -0.00010649698 -0.0032869392)
(-1.6530747 -0.00024563147 -0.0051551434)
(-1.6235176 -0.00035504907 -0.0060159483)
(-0.10168003 -8.2894475e-06 -1.0380856e-05)
(-0.33704531 -3.4742936e-05 2.6302501e-07)
(-0.63736577 -7.4789026e-05 0.00010477108)
(-0.9770219 -0.00010622557 0.00021905175)
(-1.298624 -9.5994102e-05 -0.00011420351)
(-1.5326449 -2.144363e-05 -0.0013373739)
(-1.6421613 0.00010636269 -0.0032869396)
(-1.6530747 0.000245614 -0.0051551495)
(-1.6235176 0.00035523279 -0.0060159542)
(-0.10177073 -3.6473209e-05 -6.5271152e-06)
(-0.33715181 -0.0001364603 1.5717541e-05)
(-0.63731471 -0.00027440499 0.00013901733)
(-0.97683624 -0.00038186717 0.00027772643)
(-1.2987332 -0.00035965519 -3.1318099e-05)
(-1.5337959 -0.00014190053 -0.0012389219)
(-1.6448769 0.00023866498 -0.0031907209)
(-1.6572264 0.00065290796 -0.0050727611)
(-1.6285957 0.00098443518 -0.0059638477)
(-0.10146758 -9.2896201e-05 6.6350894e-06)
(-0.33621255 -0.00031799817 6.2301043e-05)
(-0.63572558 -0.000597523 0.00023217385)
(-0.97503882 -0.00081063731 0.00042571449)
(-1.2978441 -0.00079516751 0.00016786706)
(-1.5353441 -0.0004493709 -0.0010079472)
(-1.6498028 0.00017085536 -0.0029636196)
(-1.6651616 0.00085719427 -0.0048838355)
(-1.6384362 0.0014074553 -0.0058415407)
(-0.10125608 -0.00018548719 3.6730045e-05)
(-0.33527894 -0.00060124494 0.00016165249)
(-0.63374101 -0.0010773431 0.00041705429)
(-0.97235206 -0.0014334627 0.00069983109)
(-1.295997 -0.0014485109 0.00051828006)
(-1.536756 -0.00099495512 -0.00061040109)
(-1.6561776 -0.0001550207 -0.0025703974)
(-1.6761858 0.00078860015 -0.0045552065)
(-1.6524674 0.0015548489 -0.0056165595)
(-0.1007115 -0.00031356458 9.0631245e-05)
(-0.33328841 -0.00098468921 0.00033289072)
(-0.62988093 -0.0017125036 0.00072233059)
(-0.96716383 -0.0022507947 0.0011338431)
(-1.2916787 -0.0023233916 0.0010565798)
(-1.5367407 -0.0017877114 -6.405369e-06)
(-1.6629862 -0.0007560977 -0.001964909)
(-1.6895458 0.00042538791 -0.0040333172)
(-1.6701021 0.0014164636 -0.005240659)
(-0.099639633 -0.00046669594 0.00017287984)
(-0.32965619 -0.0014397643 0.00058884768)
(-0.62316817 -0.0024616407 0.0011666918)
(-0.9581935 -0.0032180316 0.001748686)
(-1.2834705 -0.0033817492 0.0018049549)
(-1.533946 -0.002799395 0.00082827097)
(-1.6691158 -0.0016132817 -0.0011180674)
(-1.7044244 -0.00022333995 -0.0032737002)
(-1.6907186 0.00097628768 -0.0046611487)
(-0.097932438 -0.00062811726 0.00028328091)
(-0.32405004 -0.001921299 0.00092937801)
(-0.61300324 -0.003259413 0.0017497148)
(-0.94455134 -0.0042638311 0.0025447308)
(-1.2702383 -0.0045583106 0.0027648313)
(-1.5271502 -0.0039771608 0.001896299)
(-1.6734706 -0.002686158 -2.0893598e-05)
(-1.7200185 -0.0011269306 -0.0022540138)
(-1.7136616 0.00026193284 -0.0038385167)
(-0.095703736 -0.00078436422 0.0004211337)
(-0.31667065 -0.0023889393 0.0013504577)
(-0.59948081 -0.0040422074 0.0024612929)
(-0.92601056 -0.005311431 0.0035049304)
(-1.2513299 -0.005775768 0.0039134304)
(-1.515385 -0.0052531831 0.0031766206)
(-1.675045 -0.0039229941 0.0013196833)
(-1.735542 -0.0022465987 -0.00096769748)
(-1.7382167 -0.00069955009 -0.002744919)
(-0.092730326 -0.00091861388 0.00057074388)
(-0.30692035 -0.0027964972 0.0018073181)
(-0.58170061 -0.0047401462 0.003236888)
(-0.90147921 -0.0062796227 0.0045605094)
(-1.2255489 -0.0069549703 0.0051908209)
(-1.4973964 -0.0065587184 0.0046233064)
(-1.6727061 -0.0052647243 0.0028729371)
(-1.7500317 -0.0035404879 0.00058352137)
(-1.7634897 -0.0018872431 -0.0013559057)
(-0.088746312 -0.0010050898 0.00071885167)
(-0.29410607 -0.0030769563 0.0022653074)
(-0.55863319 -0.0052591281 0.0040240603)
(-0.86968957 -0.0070664595 0.0056487527)
(-1.1914325 -0.0080010411 0.0065309468)
(-1.4715339 -0.0078092733 0.0061711026)
(-1.6646687 -0.0066363389 0.0045841645)
(-1.7618272 -0.0049413023 0.0023759256)
(-1.7879986 -0.0032459187 0.00033294219)
(-0.084065508 -0.001060238 0.00087147367)
(-0.27894256 -0.0032614464 0.0027306823)
(-0.53106553 -0.0056242168 0.004814537)
(-0.83097712 -0.0076734881 0.0067311914)
(-1.1483175 -0.0088930339 0.0078626519)
(-1.435808 -0.0089796033 0.0077356359)
(-1.6478058 -0.0080271805 0.0063819305)
(-1.7676571 -0.0064530472 0.0043812098)
(-1.8090062 -0.004743851 0.0023483809)
(-0.078235209 -0.0010297125 0.00095237232)
(-0.26014166 -0.0032135267 0.0029933004)
(-0.49683252 -0.0056487215 0.0052969209)
(-0.78208637 -0.0079116647 0.00748463)
(-1.0913592 -0.0094932284 0.0089698082)
(-1.3831742 -0.010041541 0.0092762344)
(-1.6128916 -0.0095645034 0.0083770328)
(-1.7575396 -0.0083756677 0.0067506979)
(-1.8186085 -0.0067805692 0.0049879325)
(-0.083380937 -0.00011923649 -9.8113008e-05)
(-0.2766673 -0.00043399603 -0.00033463677)
(-0.52659877 -0.00095137693 -0.00064393833)
(-0.82494244 -0.0018167436 -0.0010198951)
(-1.144659 -0.003218729 -0.0014249125)
(-1.4429816 -0.0052975524 -0.0018105166)
(-1.6762651 -0.0080085772 -0.0021948134)
(-1.8237412 -0.011083225 -0.0026791459)
(-1.8880844 -0.014142309 -0.0033367482)
(-0.089880123 -0.00015395153 -0.00011214307)
(-0.29754795 -0.00054135501 -0.00037038781)
(-0.56436718 -0.0011519151 -0.00069676023)
(-0.87846056 -0.0021503449 -0.0010840106)
(-1.206683 -0.0037506284 -0.0014927404)
(-1.5006174 -0.0061027568 -0.0018798272)
(-1.7161211 -0.009140579 -0.0022872661)
(-1.8391587 -0.012527286 -0.0028594144)
(-1.8846104 -0.015773806 -0.003743781)
(-0.095220549 -0.00018571088 -0.00011736456)
(-0.31475125 -0.00064004889 -0.00038402137)
(-0.59537337 -0.0013320632 -0.00071805205)
(-0.92164633 -0.0024349006 -0.0011097099)
(-1.2547724 -0.0041726273 -0.001513293)
(-1.541564 -0.0066945185 -0.0018842268)
(-1.7386426 -0.0099079436 -0.002273911)
(-1.8397995 -0.013412309 -0.0028314581)
(-1.8711288 -0.01665342 -0.0036616652)
(-0.099943219 -0.00023475053 -0.00012988476)
(-0.32982249 -0.00078289081 -0.00041757012)
(-0.62222626 -0.0015708401 -0.00077077803)
(-0.95838858 -0.0027674183 -0.0011733644)
(-1.2945087 -0.0045963156 -0.0015683036)
(-1.5735308 -0.0072033819 -0.00190608)
(-1.7535191 -0.010477337 -0.0022406319)
(-1.8357792 -0.013975998 -0.0027062036)
(-1.8553658 -0.017109113 -0.0033942584)
(-0.10371444 -0.00028314737 -0.00013593274)
(-0.3420048 -0.00092285486 -0.00043263786)
(-0.6440969 -0.0017987214 -0.00079288737)
(-0.98833113 -0.0030656832 -0.0011942099)
(-1.3265612 -0.0049358641 -0.0015666851)
(-1.598487 -0.0075461552 -0.0018535525)
(-1.7637057 -0.010771823 -0.0021069898)
(-1.8300764 -0.014145047 -0.0024475441)
(-1.8396743 -0.017048548 -0.0029680574)
(-0.10679685 -0.00032444729 -0.00013107145)
(-0.35197129 -0.001038822 -0.00041532361)
(-0.66196435 -0.0019764825 -0.00076127074)
(-1.012647 -0.0032710166 -0.0011406345)
(-1.3522443 -0.0051147909 -0.0014696456)
(-1.6178849 -0.0076322859 -0.001684028)
(-1.7706859 -0.010692411 -0.001835621)
(-1.8239787 -0.01381878 -0.0020392041)
(-1.8251548 -0.016402229 -0.0024021489)
(-0.10940873 -0.00034936493 -0.00011627694)
(-0.3602886 -0.0011030498 -0.00036800925)
(-0.67665329 -0.0020585122 -0.00067884348)
(-1.032299 -0.0033242166 -0.0010158683)
(-1.372554 -0.005066544 -0.0012813948)
(-1.6326669 -0.0073947352 -0.0014054149)
(-1.7752361 -0.010177599 -0.001443929)
(-1.8180198 -0.012956384 -0.0015139697)
(-1.812297 -0.015160009 -0.001739103)
(-0.11137452 -0.00034736782 -9.155745e-05)
(-0.36658725 -0.0010862635 -0.00029151029)
(-0.68780756 -0.0019989746 -0.00054836979)
(-1.0471833 -0.0031687573 -0.00082787377)
(-1.3877592 -0.0047331206 -0.0010191734)
(-1.6433623 -0.0067820246 -0.0010449366)
(-1.7778669 -0.0091932502 -0.00097008521)
(-1.8124993 -0.011549292 -0.00091947419)
(-1.8013343 -0.01334015 -0.0010324464)
(-0.11274468 -0.00031457913 -6.1211539e-05)
(-0.37103152 -0.00097718709 -0.00019878958)
(-0.69574964 -0.0017803054 -0.00039135908)
(-1.0578162 -0.0027839124 -0.00060455171)
(-1.3985403 -0.0040952783 -0.00071912067)
(-1.6506789 -0.0057829854 -0.00065049021)
(-1.7791022 -0.0077426918 -0.00046629356)
(-1.8076692 -0.0096149899 -0.00029864887)
(-1.792426 -0.010888527 -0.0003302892)
(-0.11365251 -0.00025177434 -3.0551703e-05)
(-0.3740306 -0.00077849702 -0.00010564557)
(-0.7011671 -0.0014081543 -0.00023522941)
(-1.0650851 -0.0021798904 -0.00038603464)
(-1.4058323 -0.0031699461 -0.00043131808)
(-1.6554156 -0.0044285319 -0.0002800614)
(-1.7794685 -0.0058719101 9.3164316e-07)
(-1.8037665 -0.0072240724 0.00026771685)
(-1.7856726 -0.0081276637 0.00027763396)
(-0.11449063 -0.00016379283 -5.9525703e-06)
(-0.37652975 -0.00050424471 -3.126499e-05)
(-0.70531224 -0.00090680384 -0.00011142754)
(-1.0702577 -0.0013932878 -0.00021403153)
(-1.410702 -0.0020093207 -0.00020575553)
(-1.6583357 -0.0027863643 8.1602509e-06)
(-1.7794221 -0.0036672765 0.00036038806)