/*--------------------------------*- C++ -*----------------------------------*\
  =========                 |
  \\      /  F ield         | OpenFOAM: The Open Source CFD Toolbox
   \\    /   O peration     | Website:  https://openfoam.org
    \\  /    A nd           | Version:  10
     \\/     M anipulation  |
\*---------------------------------------------------------------------------*/
FoamFile
{
    format      ascii;
    class       volScalarField;
    location    "13.5";
    object      T;
}
// * * * * * * * * * * * * * * * * * * * * * * * * * * * * * * * * * * * * * //

dimensions      [0 0 -1 0 0 0 0];

internalField   nonuniform List<scalar> 
100
(
3.8505
11.5157
19.0787
26.4724
33.6311
40.4913
46.9921
53.0758
58.6884
63.78
68.3056
72.2249
75.5031
78.1111
80.0258
81.2302
81.7136
81.4718
80.5067
78.8271
76.4479
73.39
69.6808
65.3531
60.4453
55.0009
49.0684
42.7004
35.9534
28.8872
21.5646
14.0507
6.41196
-1.28364
-8.96784
-16.5724
-24.0299
-31.2742
-38.2408
-44.868
-51.0969
-56.8723
-62.1429
-66.8619
-70.9874
-74.4829
-77.3172
-79.4653
-80.908
-81.6326
-81.6326
-80.908
-79.4652
-77.3172
-74.4828
-70.9874
-66.8618
-62.1428
-56.8722
-51.0968
-44.8679
-38.2407
-31.2741
-24.0299
-16.5723
-8.96774
-1.28354
6.41206
14.0508
21.5647
28.8873
35.9535
42.7005
49.0685
55.001
60.4454
65.3532
69.6809
73.3901
76.4479
78.8272
80.5068
81.4718
81.7137
81.2303
80.0259
78.1112
75.5031
72.2249
68.3056
63.7801
58.6884
53.0758
46.9921
40.4913
33.6311
26.4724
19.0787
11.5157
3.8505
)
;

boundaryField
{
    xmin
    {
        type            fixedValue;
        value           uniform 0;
    }
    xmax
    {
        type            fixedValue;
        value           uniform 0;
    }
    frontAndBack
    {
        type            empty;
    }
}


// ************************************************************************* //
