/*--------------------------------*- C++ -*----------------------------------*\
  =========                 |
  \\      /  F ield         | OpenFOAM: The Open Source CFD Toolbox
   \\    /   O peration     | Website:  https://openfoam.org
    \\  /    A nd           | Version:  10
     \\/     M anipulation  |
\*---------------------------------------------------------------------------*/
FoamFile
{
    format      ascii;
    class       volScalarField;
    location    "13.5";
    object      T_0;
}
// * * * * * * * * * * * * * * * * * * * * * * * * * * * * * * * * * * * * * //

dimensions      [0 0 -1 0 0 0 0];

internalField   nonuniform List<scalar> 
100
(
3.85421
11.5268
19.0971
26.4979
33.6635
40.5303
47.0374
53.1269
58.7449
63.8415
68.3714
72.2945
75.5758
78.1864
80.1029
81.3085
81.7924
81.5503
80.5843
78.9031
76.5215
73.4607
69.7479
65.416
60.5035
55.0539
49.1157
42.7415
35.988
28.915
21.5854
14.0642
6.41814
-1.28487
-8.97648
-16.5884
-24.0531
-31.3043
-38.2776
-44.9112
-51.1461
-56.9271
-62.2028
-66.9263
-71.0558
-74.5546
-77.3917
-79.5418
-80.9859
-81.7112
-81.7112
-80.9859
-79.5418
-77.3917
-74.5546
-71.0558
-66.9263
-62.2027
-56.927
-51.1461
-44.9111
-38.2775
-31.3042
-24.053
-16.5883
-8.97638
-1.28478
6.41824
14.0643
21.5855
28.9151
35.9881
42.7416
49.1158
55.054
60.5036
65.4161
69.748
73.4608
76.5216
78.9032
80.5844
81.5503
81.7924
81.3086
80.103
78.1864
75.5759
72.2945
68.3714
63.8415
58.7449
53.1269
47.0374
40.5303
33.6635
26.4979
19.0971
11.5268
3.85421
)
;

boundaryField
{
    xmin
    {
        type            fixedValue;
        value           uniform 0;
    }
    xmax
    {
        type            fixedValue;
        value           uniform 0;
    }
    frontAndBack
    {
        type            empty;
    }
}


// ************************************************************************* //
