/*--------------------------------*- C++ -*----------------------------------*\
  =========                 |
  \\      /  F ield         | OpenFOAM: The Open Source CFD Toolbox
   \\    /   O peration     | Website:  https://openfoam.org
    \\  /    A nd           | Version:  10
     \\/     M anipulation  |
\*---------------------------------------------------------------------------*/
FoamFile
{
    format      ascii;
    class       volScalarField;
    location    "0.09";
    object      T;
}
// * * * * * * * * * * * * * * * * * * * * * * * * * * * * * * * * * * * * * //

dimensions      [0 0 0 1 0 0 0];

internalField   nonuniform List<scalar> 
12225
(
1.00694
1.00397
1.00144
1.00053
1.00001
0.99965
0.999458
0.99937
0.999324
0.999293
0.999271
0.999238
0.999176
0.999024
0.998644
0.997747
0.995321
0.989937
0.994965
0.99447
0.996349
0.997908
0.99867
0.998979
0.999136
0.99924
0.999303
0.999335
0.999346
0.999338
0.999288
0.999149
0.998785
0.997925
0.995747
0.990769
0.999592
0.99992
1
0.999967
0.999819
0.999637
0.999514
0.999449
0.999411
0.999381
0.999353
0.999318
0.999254
0.99911
0.998765
0.997968
0.996075
0.992088
1.00032
1.00007
0.999547
0.99942
0.999421
0.999388
0.999355
0.999341
0.999335
0.999326
0.999313
0.999289
0.999235
0.999108
0.998801
0.998104
0.996551
0.993475
1.00013
0.999833
0.999434
0.999387
0.999436
0.999423
0.999388
0.999365
0.999349
0.999333
0.999314
0.999286
0.999231
0.999112
0.998842
0.998254
0.997023
0.994734
0.999993
0.999846
0.999578
0.999496
0.999494
0.99946
0.999412
0.999377
0.999351
0.999327
0.999302
0.99927
0.999215
0.999107
0.998877
0.9984
0.99746
0.995806
0.999975
0.999925
0.999719
0.999592
0.999547
0.999499
0.999444
0.999399
0.999363
0.999332
0.9993
0.999262
0.999207
0.99911
0.998919
0.998545
0.99785
0.996684
0.999983
0.999963
0.999798
0.999661
0.999596
0.999539
0.999477
0.999423
0.999379
0.999339
0.999301
0.999258
0.999202
0.999114
0.998953
0.998654
0.998125
0.997267
0.999986
0.999973
0.99984
0.999706
0.999627
0.99956
0.999491
0.99943
0.999378
0.999331
0.999287
0.999241
0.999184
0.999103
0.998966
0.998727
0.998318
0.997676
0.999984
0.999963
0.999852
0.999723
0.999631
0.999554
0.999478
0.99941
0.999351
0.999298
0.999248
0.999198
0.999142
0.999068
0.998953
0.998766
0.998462
0.997998
0.99998
0.999942
0.99984
0.999715
0.999612
0.999524
0.999441
0.999366
0.9993
0.999242
0.999187
0.999134
0.999078
0.99901
0.998915
0.998772
0.998553
0.998232
0.999976
0.999921
0.999818
0.999694
0.999583
0.999486
0.999398
0.999317
0.999246
0.999181
0.999123
0.999068
0.999013
0.99895
0.998871
0.998764
0.998611
0.998397
0.999975
0.999912
0.999811
0.99969
0.999577
0.999476
0.999384
0.9993
0.999224
0.999157
0.999098
0.999041
0.998986
0.998929
0.998865
0.998784
0.998679
0.998541
0.999978
0.999919
0.999828
0.999717
0.99961
0.999512
0.999421
0.999338
0.999264
0.999197
0.999138
0.999084
0.999031
0.99898
0.998927
0.998867
0.998796
0.99871
0.999982
0.999936
0.999861
0.999769
0.999677
0.99959
0.999511
0.999438
0.99937
0.999309
0.999255
0.999207
0.999162
0.99912
0.999077
0.999032
0.998985
0.998934
0.999987
0.999957
0.999905
0.99984
0.999774
0.999712
0.999654
0.9996
0.999549
0.999503
0.999462
0.999427
0.999395
0.999364
0.999334
0.999305
0.999276
0.999248
0.999993
0.999986
0.999968
0.999941
0.999912
0.999886
0.999864
0.999841
0.99982
0.999801
0.999783
0.999768
0.999756
0.999745
0.999732
0.99972
0.999709
0.999698
1
1.00003
1.00005
1.00007
1.00009
1.00011
1.00013
1.00015
1.00017
1.00018
1.0002
1.00021
1.00022
1.00023
1.00024
1.00025
1.00025
1.00026
1.00001
1.00006
1.00011
1.00017
1.00022
1.00028
1.00034
1.00039
1.00043
1.00048
1.00051
1.00055
1.00058
1.0006
1.00063
1.00065
1.00067
1.00068
1.00001
1.00006
1.00012
1.00019
1.00026
1.00033
1.00039
1.00046
1.00052
1.00057
1.00062
1.00067
1.00071
1.00075
1.00078
1.00081
1.00084
1.00086
1.00001
1.00006
1.00012
1.00018
1.00025
1.00031
1.00038
1.00045
1.00051
1.00057
1.00062
1.00068
1.00072
1.00077
1.00081
1.00085
1.00088
1.00091
1.00001
1.00006
1.00012
1.00017
1.00023
1.0003
1.00036
1.00043
1.00049
1.00055
1.00061
1.00067
1.00072
1.00077
1.00081
1.00085
1.00089
1.00092
1
1.00008
1.00013
1.00016
1.00021
1.00027
1.00034
1.00041
1.00048
1.00054
1.0006
1.00066
1.00071
1.00076
1.00081
1.00085
1.00089
1.00093
0.999997
1.0001
1.00014
1.00015
1.00019
1.00026
1.00033
1.0004
1.00047
1.00054
1.00061
1.00067
1.00072
1.00077
1.00082
1.00086
1.00091
1.00094
1
1.00009
1.0001
1.00012
1.00019
1.00028
1.00035
1.00042
1.00049
1.00056
1.00063
1.00069
1.00074
1.00079
1.00084
1.00088
1.00093
1.00097
1.00014
1.00014
0.999953
0.999972
1.00014
1.00029
1.00039
1.00047
1.00055
1.00062
1.00068
1.00074
1.0008
1.00084
1.00089
1.00093
1.00097
1.00101
1.0005
1.00058
1.0001
0.999927
1.00003
1.00018
1.00031
1.00042
1.00053
1.00062
1.0007
1.00076
1.00082
1.00088
1.00093
1.00097
1.00102
1.00106
1.00004
1.00088
1.00115
1.00111
1.00099
1.00088
1.00081
1.0008
1.00082
1.00085
1.00088
1.00092
1.00096
1.00099
1.00103
1.00106
1.0011
1.00113
0.994517
0.993822
0.99606
0.998048
0.999185
0.99978
1.00015
1.0004
1.00059
1.00072
1.00083
1.00091
1.00098
1.00104
1.00109
1.00114
1.00118
1.00121
1.00648
1.00454
1.00223
1.0015
1.00119
1.00097
1.00088
1.00087
1.00089
1.00092
1.00096
1.00099
1.00103
1.00107
1.0011
1.00114
1.00117
1.00122
0.763137
0.763145
0.763113
0.763068
0.763026
0.762983
0.762935
0.762883
0.762832
0.762781
0.762731
0.762682
0.762633
0.762585
0.762539
0.762495
0.762454
0.762417
0.762385
0.76236
0.762342
0.762333
0.762335
0.762347
0.762372
0.76241
0.762462
0.762525
0.762598
0.762684
0.762794
0.762957
0.76325
0.763805
0.764367
0.764742
0.765128
0.765474
0.765801
0.766117
0.766394
0.766721
0.76714
0.767526
0.767944
0.768443
0.76895
0.76948
0.77003
0.770599
0.771185
0.771785
0.7724
0.773027
0.773666
0.774315
0.774975
0.775643
0.776319
0.777001
0.77769
0.778384
0.779083
0.779785
0.780489
0.781196
0.781905
0.782613
0.783322
0.78403
0.784737
0.785443
0.786146
0.786846
0.787543
0.788236
0.788925
0.78961
0.79029
0.790965
0.791634
0.792298
0.792956
0.793608
0.794254
0.794893
0.795525
0.796151
0.79677
0.797382
0.797988
0.798586
0.799177
0.799761
0.800336
0.800904
0.80146
0.802005
0.802545
0.80308
0.803607
0.804126
0.804637
0.805139
0.805633
0.806118
0.806594
0.807062
0.80752
0.80797
0.808411
0.808843
0.809265
0.809679
0.810083
0.810478
0.810864
0.81124
0.811606
0.811963
0.812309
0.812646
0.812971
0.813285
0.813588
0.81388
0.814161
0.814431
0.81469
0.814938
0.815174
0.8154
0.815615
0.815818
0.816011
0.816192
0.816362
0.816521
0.816669
0.816805
0.816931
0.817044
0.817146
0.817235
0.817311
0.817374
0.817424
0.817461
0.817485
0.817495
0.817491
0.817474
0.817444
0.817399
0.817341
0.817269
0.817184
0.817084
0.816971
0.816844
0.816702
0.816544
0.816361
0.816142
0.815889
0.815619
0.815337
0.815044
0.814741
0.814426
0.8141
0.813763
0.813412
0.813045
0.812664
0.812258
0.811848
0.811306
0.811017
0.809385
0.763748
0.763744
0.763739
0.763722
0.763704
0.763683
0.763659
0.763628
0.763589
0.763544
0.763493
0.763439
0.763385
0.763332
0.763282
0.763235
0.763193
0.763158
0.76313
0.763111
0.763102
0.763107
0.763127
0.763166
0.763227
0.763315
0.763434
0.76359
0.763785
0.764022
0.76429
0.764572
0.764846
0.764923
0.764894
0.765036
0.765265
0.765572
0.765934
0.766328
0.76677
0.767218
0.767624
0.768081
0.768592
0.769088
0.769596
0.770119
0.770661
0.771221
0.771797
0.772389
0.772996
0.773615
0.774247
0.774889
0.775541
0.776202
0.776872
0.777547
0.778229
0.778917
0.779609
0.780304
0.781002
0.781703
0.782404
0.783106
0.783809
0.78451
0.785211
0.785909
0.786606
0.7873
0.787991
0.788677
0.78936
0.790038
0.790712
0.79138
0.792043
0.7927
0.793351
0.793997
0.794636
0.795268
0.795893
0.796512
0.797123
0.797728
0.798325
0.798915
0.799497
0.800072
0.80064
0.8012
0.801754
0.802303
0.802842
0.803371
0.803891
0.804401
0.804903
0.805397
0.805882
0.806357
0.806824
0.807282
0.807731
0.808171
0.808602
0.809023
0.809435
0.809838
0.810232
0.810616
0.810991
0.811356
0.811711
0.812056
0.812391
0.812715
0.813029
0.813331
0.813621
0.813901
0.814169
0.814426
0.814672
0.814907
0.81513
0.815343
0.815544
0.815733
0.815912
0.816079
0.816234
0.816378
0.816511
0.816633
0.816743
0.816841
0.816926
0.816999
0.817059
0.817105
0.817138
0.817158
0.817164
0.817156
0.817134
0.817098
0.817049
0.816985
0.816907
0.816815
0.816709
0.816589
0.816455
0.816306
0.816141
0.815961
0.815767
0.815563
0.815346
0.815113
0.814866
0.814606
0.814333
0.814048
0.81375
0.813438
0.813113
0.812773
0.812418
0.81204
0.811656
0.81117
0.810842
0.809666
0.765075
0.765023
0.764998
0.764977
0.764953
0.764922
0.764883
0.764838
0.764787
0.76473
0.764671
0.764608
0.764546
0.764484
0.764425
0.764369
0.764319
0.764275
0.764239
0.764213
0.764198
0.764197
0.76421
0.76424
0.76429
0.764359
0.764449
0.764559
0.764685
0.764826
0.764979
0.765149
0.76534
0.765535
0.765733
0.765963
0.766217
0.766504
0.766826
0.767185
0.767585
0.768023
0.768485
0.768966
0.769457
0.769954
0.770464
0.77099
0.771531
0.772088
0.77266
0.773246
0.773846
0.774459
0.775084
0.77572
0.776365
0.77702
0.777682
0.778351
0.779027
0.779708
0.780395
0.781084
0.781777
0.782472
0.783168
0.783866
0.784564
0.785261
0.785957
0.786652
0.787345
0.788035
0.788723
0.789407
0.790087
0.790762
0.791433
0.7921
0.792761
0.793416
0.794066
0.79471
0.795348
0.795979
0.796603
0.797221
0.797833
0.798437
0.799034
0.799624
0.800207
0.800782
0.80135
0.801909
0.802461
0.803005
0.803541
0.804069
0.804589
0.8051
0.805602
0.806096
0.806581
0.807057
0.807524
0.807982
0.808431
0.808872
0.809303
0.809725
0.810137
0.81054
0.810934
0.811318
0.811693
0.812058
0.812413
0.812757
0.813092
0.813416
0.813728
0.814029
0.814319
0.814597
0.814864
0.81512
0.815365
0.815598
0.81582
0.81603
0.816229
0.816416
0.816592
0.816756
0.816909
0.81705
0.81718
0.817297
0.817403
0.817497
0.817578
0.817646
0.817701
0.817742
0.817769
0.817783
0.817783
0.817769
0.817741
0.817698
0.817641
0.81757
0.817485
0.817385
0.817271
0.817143
0.817
0.816843
0.816672
0.816486
0.816288
0.816082
0.815868
0.81564
0.815399
0.815144
0.814877
0.814596
0.814302
0.813994
0.813673
0.813336
0.812983
0.812608
0.812221
0.811746
0.811382
0.810477
0.767048
0.76695
0.766897
0.766861
0.766822
0.766775
0.766719
0.766658
0.766591
0.766521
0.766447
0.766372
0.766297
0.766224
0.766152
0.766085
0.766023
0.765968
0.765922
0.765885
0.765859
0.765847
0.765849
0.765866
0.7659
0.765952
0.766022
0.76611
0.766215
0.766339
0.766483
0.766651
0.76684
0.767044
0.767263
0.767508
0.767776
0.768068
0.768385
0.768727
0.769096
0.769491
0.769908
0.77035
0.770812
0.771291
0.771788
0.772301
0.772831
0.773376
0.773936
0.774511
0.775099
0.775699
0.776312
0.776935
0.777568
0.778211
0.778862
0.77952
0.780185
0.780856
0.781531
0.782211
0.782894
0.78358
0.784268
0.784957
0.785647
0.786337
0.787027
0.787715
0.788402
0.789087
0.789769
0.790448
0.791124
0.791796
0.792464
0.793128
0.793787
0.79444
0.795088
0.795731
0.796368
0.796999
0.797623
0.798241
0.798853
0.799459
0.800057
0.800649
0.801234
0.801811
0.802381
0.802944
0.803499
0.804046
0.804585
0.805116
0.805639
0.806153
0.80666
0.807157
0.807646
0.808126
0.808598
0.80906
0.809514
0.809959
0.810394
0.81082
0.811237
0.811645
0.812044
0.812432
0.812811
0.813181
0.81354
0.813889
0.814227
0.814555
0.814871
0.815176
0.81547
0.815752
0.816022
0.816282
0.81653
0.816766
0.81699
0.817203
0.817404
0.817594
0.817772
0.817938
0.818092
0.818234
0.818364
0.818483
0.818589
0.818682
0.818763
0.81883
0.818884
0.818924
0.81895
0.818962
0.818959
0.818943
0.818912
0.818867
0.818807
0.818732
0.818644
0.81854
0.818423
0.81829
0.818144
0.817983
0.817807
0.817619
0.817417
0.817206
0.816985
0.816751
0.816504
0.816244
0.815971
0.815685
0.815386
0.815073
0.814747
0.814404
0.814045
0.813663
0.813263
0.812784
0.812394
0.811612
0.769628
0.769486
0.769408
0.76936
0.769309
0.769246
0.769174
0.769096
0.769012
0.768924
0.768833
0.768741
0.768649
0.768558
0.768469
0.768385
0.768307
0.768235
0.768172
0.768118
0.768076
0.768046
0.768029
0.768028
0.768043
0.768075
0.768125
0.768194
0.768283
0.768392
0.768523
0.768676
0.76885
0.769042
0.769254
0.769489
0.769748
0.77003
0.770335
0.770664
0.771017
0.771392
0.771789
0.772207
0.772647
0.773106
0.773584
0.774079
0.774591
0.77512
0.775663
0.776221
0.776792
0.777377
0.777973
0.778581
0.779198
0.779825
0.780461
0.781105
0.781755
0.782412
0.783074
0.783741
0.784412
0.785086
0.785763
0.786442
0.787121
0.787801
0.788482
0.789162
0.789841
0.790518
0.791194
0.791867
0.792537
0.793204
0.793868
0.794527
0.795182
0.795833
0.796479
0.797119
0.797755
0.798385
0.799009
0.799627
0.800239
0.800845
0.801445
0.802038
0.802624
0.803203
0.803776
0.804341
0.804899
0.805449
0.805991
0.806526
0.807053
0.807572
0.808082
0.808584
0.809077
0.809562
0.810039
0.810506
0.810965
0.811415
0.811856
0.812287
0.81271
0.813123
0.813527
0.813921
0.814305
0.814679
0.815044
0.815398
0.815741
0.816074
0.816395
0.816704
0.817002
0.817288
0.817563
0.817826
0.818078
0.818317
0.818545
0.818761
0.818965
0.819157
0.819337
0.819505
0.81966
0.819804
0.819935
0.820054
0.82016
0.820253
0.820333
0.8204
0.820452
0.82049
0.820514
0.820524
0.820519
0.8205
0.820466
0.820417
0.820354
0.820275
0.820183
0.820075
0.819953
0.819816
0.819664
0.819498
0.819318
0.819124
0.818918
0.8187
0.818471
0.818229
0.817974
0.817707
0.817427
0.817134
0.816828
0.816509
0.816176
0.815827
0.81546
0.815069
0.814658
0.814175
0.813772
0.813028
0.772817
0.772644
0.772548
0.772488
0.772423
0.772345
0.772257
0.772161
0.772058
0.77195
0.77184
0.771727
0.771614
0.771503
0.771394
0.771289
0.771189
0.771097
0.771013
0.770938
0.770875
0.770824
0.770787
0.770765
0.770759
0.77077
0.7708
0.770849
0.770919
0.771009
0.771122
0.771255
0.77141
0.771585
0.771781
0.772
0.772241
0.772506
0.772794
0.773104
0.773438
0.773793
0.77417
0.774568
0.774987
0.775424
0.77588
0.776353
0.776844
0.777351
0.777873
0.77841
0.77896
0.779524
0.7801
0.780687
0.781285
0.781893
0.78251
0.783135
0.783767
0.784406
0.785051
0.785702
0.786357
0.787016
0.787678
0.788342
0.789009
0.789676
0.790344
0.791013
0.791681
0.792349
0.793015
0.79368
0.794342
0.795002
0.795659
0.796312
0.796962
0.797608
0.798249
0.798887
0.799519
0.800146
0.800769
0.801385
0.801997
0.802602
0.803202
0.803795
0.804382
0.804963
0.805537
0.806104
0.806664
0.807217
0.807762
0.8083
0.80883
0.809353
0.809867
0.810373
0.810871
0.81136
0.811841
0.812314
0.812778
0.813233
0.813679
0.814116
0.814543
0.814962
0.815371
0.81577
0.816159
0.816539
0.816909
0.817268
0.817616
0.817953
0.818278
0.818593
0.818895
0.819185
0.819464
0.819731
0.819986
0.820229
0.820459
0.820678
0.820884
0.821078
0.821259
0.821428
0.821585
0.821729
0.821861
0.821979
0.822085
0.822177
0.822256
0.82232
0.82237
0.822406
0.822427
0.822433
0.822425
0.822402
0.822363
0.82231
0.822242
0.822159
0.82206
0.821947
0.821819
0.821676
0.821518
0.821345
0.821159
0.820958
0.820745
0.820519
0.820282
0.820032
0.819769
0.819494
0.819206
0.818906
0.818592
0.818266
0.817925
0.817569
0.817194
0.816795
0.816375
0.815887
0.815474
0.814724
0.77663
0.776441
0.776332
0.77626
0.776182
0.776088
0.775982
0.775867
0.775744
0.775615
0.775483
0.775348
0.775212
0.775078
0.774945
0.774817
0.774694
0.774578
0.774471
0.774373
0.774286
0.774212
0.774152
0.774107
0.774079
0.774067
0.774075
0.774102
0.77415
0.774219
0.774309
0.77442
0.774553
0.774707
0.774882
0.77508
0.7753
0.775543
0.775808
0.776096
0.776406
0.776738
0.77709
0.777464
0.777857
0.778269
0.778699
0.779147
0.779612
0.780093
0.780589
0.7811
0.781625
0.782164
0.782715
0.783278
0.783851
0.784435
0.785029
0.785631
0.786241
0.786859
0.787483
0.788113
0.788748
0.789388
0.790032
0.790679
0.791328
0.791979
0.792632
0.793286
0.793941
0.794595
0.795249
0.795902
0.796554
0.797204
0.797851
0.798496
0.799138
0.799777
0.800412
0.801044
0.801671
0.802294
0.802912
0.803526
0.804134
0.804737
0.805335
0.805928
0.806514
0.807095
0.807669
0.808236
0.808797
0.809352
0.809899
0.810439
0.810972
0.811497
0.812015
0.812524
0.813026
0.813519
0.814004
0.814481
0.814949
0.815408
0.815859
0.816301
0.816733
0.817156
0.81757
0.817974
0.818369
0.818753
0.819127
0.819491
0.819844
0.820185
0.820515
0.820833
0.821139
0.821433
0.821716
0.821986
0.822244
0.822489
0.822723
0.822943
0.823151
0.823347
0.823529
0.823699
0.823856
0.824
0.824131
0.824249
0.824353
0.824444
0.82452
0.824582
0.824629
0.824661
0.824678
0.82468
0.824667
0.824639
0.824596
0.824537
0.824462
0.824373
0.824268
0.824148
0.824012
0.823862
0.823696
0.823516
0.823322
0.823114
0.822892
0.822658
0.822411
0.822152
0.82188
0.821596
0.8213
0.820991
0.820669
0.820334
0.819986
0.819621
0.819239
0.818832
0.818402
0.817907
0.817484
0.816709
0.781099
0.780902
0.780783
0.780699
0.780606
0.780496
0.780372
0.780237
0.780093
0.779942
0.779787
0.779628
0.779468
0.779308
0.779151
0.778997
0.778849
0.778708
0.778575
0.778452
0.77834
0.778241
0.778156
0.778086
0.778033
0.777997
0.77798
0.777983
0.778006
0.77805
0.778114
0.778201
0.778308
0.778437
0.778587
0.77876
0.778954
0.779171
0.779409
0.77967
0.779953
0.780256
0.78058
0.780924
0.781288
0.78167
0.78207
0.782488
0.782923
0.783373
0.78384
0.784321
0.784816
0.785325
0.785846
0.78638
0.786925
0.787481
0.788046
0.788621
0.789205
0.789796
0.790395
0.791
0.791611
0.792228
0.792849
0.793474
0.794102
0.794734
0.795368
0.796003
0.79664
0.797278
0.797916
0.798554
0.799191
0.799827
0.800462
0.801096
0.801727
0.802355
0.802981
0.803604
0.804223
0.804839
0.805451
0.806059
0.806662
0.807261
0.807854
0.808443
0.809027
0.809605
0.810177
0.810744
0.811304
0.811858
0.812406
0.812946
0.81348
0.814006
0.814525
0.815037
0.81554
0.816036
0.816524
0.817003
0.817475
0.817938
0.818392
0.818837
0.819273
0.8197
0.820118
0.820526
0.820924
0.821312
0.82169
0.822058
0.822414
0.822759
0.823092
0.823413
0.823723
0.82402
0.824305
0.824578
0.824838
0.825086
0.825321
0.825543
0.825752
0.825948
0.826131
0.8263
0.826457
0.8266
0.82673
0.826846
0.826949
0.827036
0.82711
0.827168
0.827211
0.827239
0.827252
0.827249
0.82723
0.827196
0.827146
0.827081
0.826999
0.826902
0.82679
0.826662
0.826518
0.826359
0.826186
0.825997
0.825793
0.825576
0.825345
0.825101
0.824845
0.824575
0.824294
0.824
0.823694
0.823375
0.823044
0.8227
0.822343
0.82197
0.821579
0.821164
0.820727
0.820224
0.819788
0.818983
0.786259
0.786057
0.785929
0.785832
0.785724
0.785596
0.785453
0.785298
0.785133
0.784959
0.78478
0.784596
0.784411
0.784225
0.784041
0.783861
0.783685
0.783517
0.783357
0.783207
0.783068
0.782942
0.78283
0.782734
0.782654
0.782592
0.782548
0.782523
0.782519
0.782535
0.782571
0.782629
0.782708
0.782808
0.782929
0.783072
0.783237
0.783423
0.783631
0.78386
0.784111
0.784381
0.784672
0.784983
0.785312
0.78566
0.786026
0.786409
0.786809
0.787225
0.787656
0.788102
0.788563
0.789037
0.789524
0.790024
0.790535
0.791057
0.79159
0.792133
0.792685
0.793246
0.793814
0.79439
0.794972
0.795561
0.796154
0.796753
0.797356
0.797963
0.798573
0.799186
0.7998
0.800417
0.801035
0.801654
0.802273
0.802891
0.80351
0.804127
0.804744
0.805358
0.805971
0.806581
0.807189
0.807794
0.808396
0.808995
0.809589
0.81018
0.810767
0.811349
0.811927
0.8125
0.813068
0.81363
0.814187
0.814738
0.815283
0.815822
0.816354
0.816879
0.817397
0.817908
0.818412
0.818908
0.819397
0.819877
0.82035
0.820814
0.82127
0.821717
0.822155
0.822584
0.823004
0.823414
0.823815
0.824205
0.824586
0.824955
0.825314
0.825661
0.825996
0.826319
0.826631
0.82693
0.827217
0.827491
0.827752
0.828
0.828236
0.828458
0.828667
0.828863
0.829045
0.829214
0.829369
0.82951
0.829638
0.829752
0.829851
0.829935
0.830004
0.830058
0.830096
0.830119
0.830126
0.830117
0.830092
0.830051
0.829994
0.829921
0.829832
0.829726
0.829605
0.829468
0.829316
0.829148
0.828964
0.828766
0.828553
0.828325
0.828084
0.82783
0.827562
0.827282
0.82699
0.826685
0.826369
0.82604
0.825699
0.825346
0.824979
0.824597
0.824198
0.823775
0.82333
0.822819
0.822372
0.821534
0.792144
0.791941
0.791804
0.791692
0.791568
0.791423
0.79126
0.791084
0.790896
0.790699
0.790495
0.790285
0.790074
0.789861
0.789649
0.789441
0.789238
0.789041
0.788852
0.788674
0.788506
0.788352
0.788211
0.788086
0.787977
0.787886
0.787813
0.787758
0.787723
0.787709
0.787714
0.78774
0.787787
0.787855
0.787944
0.788053
0.788184
0.788336
0.788508
0.788701
0.788915
0.789148
0.789402
0.789674
0.789965
0.790273
0.7906
0.790943
0.791303
0.791679
0.79207
0.792476
0.792897
0.793332
0.793779
0.79424
0.794712
0.795196
0.795691
0.796196
0.796712
0.797236
0.797769
0.79831
0.798858
0.799413
0.799974
0.800542
0.801114
0.801691
0.802272
0.802857
0.803444
0.804035
0.804628
0.805222
0.805818
0.806414
0.807011
0.807608
0.808205
0.808801
0.809396
0.80999
0.810582
0.811172
0.81176
0.812344
0.812927
0.813506
0.814081
0.814653
0.815222
0.815785
0.816345
0.8169
0.817449
0.817994
0.818533
0.819066
0.819593
0.820114
0.820629
0.821137
0.821637
0.822131
0.822617
0.823096
0.823567
0.82403
0.824485
0.824931
0.825369
0.825798
0.826217
0.826628
0.827029
0.827419
0.8278
0.82817
0.828528
0.828876
0.829211
0.829535
0.829846
0.830145
0.830432
0.830706
0.830967
0.831214
0.831449
0.83167
0.831877
0.832071
0.832251
0.832418
0.83257
0.832709
0.832833
0.832942
0.833037
0.833117
0.833181
0.833229
0.833261
0.833278
0.833278
0.833262
0.833229
0.833181
0.833115
0.833034
0.832936
0.832822
0.832691
0.832545
0.832382
0.832204
0.83201
0.831801
0.831577
0.831339
0.831087
0.830821
0.830542
0.830251
0.829947
0.829632
0.829304
0.828964
0.828613
0.82825
0.827874
0.827483
0.827076
0.826645
0.826194
0.825675
0.825217
0.824349
0.798794
0.798591
0.798444
0.798317
0.798175
0.798011
0.797829
0.797631
0.797419
0.797198
0.796968
0.796732
0.796493
0.796252
0.796012
0.795774
0.795542
0.795315
0.795097
0.794888
0.794691
0.794506
0.794335
0.794179
0.794039
0.793916
0.793811
0.793724
0.793656
0.793608
0.793579
0.79357
0.793582
0.793613
0.793665
0.793738
0.79383
0.793943
0.794076
0.794228
0.794401
0.794592
0.794803
0.795032
0.795279
0.795544
0.795825
0.796124
0.796439
0.79677
0.797116
0.797477
0.797852
0.798241
0.798644
0.799059
0.799488
0.799927
0.800379
0.800841
0.801313
0.801796
0.802287
0.802787
0.803296
0.803812
0.804335
0.804865
0.8054
0.805942
0.806488
0.807039
0.807594
0.808153
0.808715
0.809279
0.809846
0.810414
0.810985
0.811556
0.812127
0.812699
0.813271
0.813843
0.814414
0.814983
0.815552
0.816118
0.816683
0.817245
0.817805
0.818362
0.818915
0.819466
0.820012
0.820555
0.821093
0.821627
0.822156
0.82268
0.823198
0.823711
0.824217
0.824718
0.825212
0.8257
0.82618
0.826654
0.82712
0.827578
0.828029
0.828471
0.828905
0.82933
0.829747
0.830154
0.830552
0.830941
0.831319
0.831686
0.832042
0.832387
0.832721
0.833042
0.833352
0.833649
0.833933
0.834204
0.834463
0.834708
0.834939
0.835157
0.835361
0.835552
0.835728
0.83589
0.836039
0.836172
0.836292
0.836396
0.836485
0.836558
0.836616
0.836657
0.836682
0.836691
0.836684
0.836659
0.836618
0.836561
0.836487
0.836396
0.836288
0.836164
0.836023
0.835866
0.835693
0.835504
0.835299
0.835079
0.834843
0.834594
0.83433
0.834052
0.833762
0.833459
0.833143
0.832816
0.832477
0.832126
0.831764
0.831391
0.831006
0.830606
0.830191
0.829754
0.829296
0.828771
0.828304
0.82741
0.806252
0.806048
0.805891
0.805748
0.805588
0.805404
0.805199
0.804978
0.804742
0.804495
0.804238
0.803975
0.803707
0.803437
0.803167
0.802899
0.802635
0.802378
0.802128
0.801888
0.801658
0.801441
0.801238
0.801049
0.800875
0.800718
0.800578
0.800456
0.800353
0.800268
0.800202
0.800155
0.800127
0.800119
0.80013
0.800161
0.800211
0.80028
0.800369
0.800476
0.800602
0.800747
0.80091
0.801091
0.801289
0.801505
0.801737
0.801985
0.802249
0.802529
0.802824
0.803134
0.803459
0.803797
0.804149
0.804513
0.804891
0.805281
0.805682
0.806095
0.806519
0.806953
0.807397
0.80785
0.808312
0.808782
0.809261
0.809747
0.810239
0.810739
0.811244
0.811754
0.81227
0.81279
0.813315
0.813843
0.814374
0.814909
0.815445
0.815984
0.816525
0.817066
0.817609
0.818152
0.818696
0.819239
0.819782
0.820324
0.820865
0.821405
0.821943
0.822479
0.823013
0.823544
0.824073
0.824598
0.825119
0.825637
0.826151
0.82666
0.827165
0.827664
0.828159
0.828647
0.82913
0.829607
0.830078
0.830541
0.830998
0.831448
0.83189
0.832325
0.832751
0.83317
0.833579
0.83398
0.834372
0.834754
0.835127
0.835488
0.835839
0.836179
0.836507
0.836824
0.837128
0.83742
0.837699
0.837966
0.838219
0.838459
0.838685
0.838898
0.839097
0.839281
0.839452
0.839608
0.83975
0.839878
0.83999
0.840087
0.840169
0.840234
0.840284
0.840317
0.840334
0.840334
0.840318
0.840284
0.840233
0.840166
0.840082
0.839981
0.839862
0.839727
0.839575
0.839407
0.839223
0.839022
0.838806
0.838573
0.838326
0.838065
0.837789
0.837499
0.837196
0.836881
0.836554
0.836215
0.835864
0.835503
0.83513
0.834747
0.834352
0.833944
0.833522
0.833079
0.832617
0.832087
0.831613
0.830699
0.814567
0.814361
0.814192
0.814031
0.81385
0.813644
0.813416
0.813169
0.812907
0.812632
0.812347
0.812054
0.811755
0.811454
0.811152
0.810853
0.810557
0.810266
0.809983
0.80971
0.809446
0.809195
0.808957
0.808732
0.808523
0.808329
0.808152
0.807992
0.80785
0.807725
0.807618
0.807529
0.807459
0.807407
0.807373
0.807358
0.807361
0.807382
0.807421
0.807479
0.807554
0.807647
0.807757
0.807884
0.808028
0.808188
0.808365
0.808557
0.808765
0.808989
0.809227
0.809479
0.809746
0.810027
0.810322
0.81063
0.81095
0.811283
0.811628
0.811985
0.812353
0.812732
0.813121
0.813521
0.81393
0.814347
0.814774
0.815209
0.815651
0.816101
0.816558
0.817021
0.81749
0.817965
0.818445
0.818929
0.819418
0.819911
0.820407
0.820907
0.821409
0.821913
0.82242
0.822928
0.823437
0.823947
0.824458
0.824969
0.82548
0.82599
0.8265
0.827009
0.827517
0.828023
0.828527
0.829028
0.829527
0.830023
0.830516
0.831005
0.83149
0.831971
0.832447
0.832919
0.833385
0.833846
0.834301
0.834751
0.835193
0.83563
0.836059
0.836481
0.836896
0.837302
0.837701
0.838091
0.838473
0.838845
0.839208
0.83956
0.839901
0.840232
0.840552
0.84086
0.841156
0.84144
0.841711
0.841969
0.842215
0.842447
0.842665
0.84287
0.843061
0.843237
0.8434
0.843548
0.843681
0.8438
0.843904
0.843992
0.844064
0.844121
0.844161
0.844184
0.844191
0.844181
0.844154
0.84411
0.844049
0.843971
0.843875
0.843763
0.843633
0.843486
0.843323
0.843142
0.842946
0.842733
0.842505
0.84226
0.842001
0.841727
0.841438
0.841137
0.840822
0.840494
0.840155
0.839804
0.839442
0.839069
0.838687
0.838294
0.83789
0.837475
0.837047
0.836599
0.836133
0.8356
0.835122
0.834194
0.823788
0.823579
0.823396
0.823214
0.82301
0.822779
0.822525
0.82225
0.821959
0.821653
0.821336
0.82101
0.820678
0.820343
0.820008
0.819673
0.819342
0.819017
0.818699
0.818389
0.81809
0.817802
0.817526
0.817264
0.817016
0.816783
0.816566
0.816365
0.81618
0.816012
0.81586
0.815726
0.815609
0.815508
0.815425
0.81536
0.815311
0.815279
0.815264
0.815266
0.815285
0.815321
0.815372
0.81544
0.815524
0.815623
0.815738
0.815868
0.816013
0.816174
0.816348
0.816537
0.81674
0.816957
0.817188
0.817431
0.817688
0.817957
0.818239
0.818532
0.818837
0.819154
0.819481
0.819819
0.820167
0.820525
0.820892
0.821268
0.821653
0.822046
0.822446
0.822854
0.823269
0.82369
0.824118
0.824551
0.824989
0.825433
0.825881
0.826333
0.826789
0.827248
0.827711
0.828176
0.828643
0.829113
0.829584
0.830056
0.830529
0.831004
0.831478
0.831952
0.832427
0.8329
0.833373
0.833844
0.834313
0.834781
0.835246
0.835708
0.836168
0.836624
0.837076
0.837524
0.837968
0.838407
0.838842
0.839271
0.839694
0.840111
0.840522
0.840927
0.841324
0.841715
0.842097
0.842472
0.842838
0.843196
0.843544
0.843883
0.844211
0.844529
0.844836
0.845131
0.845415
0.845687
0.845947
0.846194
0.846428
0.846649
0.846857
0.847051
0.84723
0.847396
0.847548
0.847685
0.847808
0.847916
0.848008
0.848085
0.848147
0.848192
0.84822
0.848233
0.848228
0.848206
0.848167
0.848112
0.848038
0.847948
0.84784
0.847716
0.847574
0.847415
0.847239
0.847046
0.846837
0.846612
0.84637
0.846113
0.845841
0.845555
0.845254
0.84494
0.844612
0.844273
0.843922
0.843559
0.843186
0.842803
0.842411
0.842009
0.841597
0.841175
0.840741
0.84029
0.839822
0.83929
0.838811
0.837876
0.833977
0.83376
0.83356
0.833354
0.833122
0.832862
0.832576
0.832268
0.831942
0.831601
0.831247
0.830884
0.830515
0.830142
0.829769
0.829396
0.829027
0.828664
0.828307
0.827959
0.82762
0.827293
0.826978
0.826675
0.826386
0.826111
0.82585
0.825604
0.825373
0.825158
0.824958
0.824774
0.824605
0.824453
0.824315
0.824194
0.824088
0.823998
0.823924
0.823864
0.823821
0.823792
0.823779
0.823781
0.823798
0.82383
0.823877
0.823938
0.824014
0.824104
0.824208
0.824326
0.824458
0.824604
0.824763
0.824935
0.82512
0.825318
0.825529
0.825751
0.825986
0.826232
0.82649
0.826758
0.827038
0.827327
0.827627
0.827936
0.828255
0.828582
0.828918
0.829263
0.829615
0.829974
0.830341
0.830714
0.831094
0.831479
0.83187
0.832267
0.832668
0.833074
0.833484
0.833898
0.834315
0.834736
0.835159
0.835585
0.836013
0.836442
0.836873
0.837306
0.837739
0.838172
0.838606
0.839039
0.839472
0.839904
0.840334
0.840763
0.841189
0.841613
0.842035
0.842453
0.842868
0.843279
0.843686
0.844089
0.844486
0.844879
0.845266
0.845647
0.846021
0.84639
0.846751
0.847105
0.847452
0.847789
0.848119
0.848439
0.848749
0.849049
0.849339
0.849618
0.849886
0.850142
0.850386
0.850618
0.850838
0.851044
0.851237
0.851417
0.851582
0.851734
0.851872
0.851996
0.852106
0.8522
0.852279
0.852343
0.85239
0.852422
0.852438
0.852437
0.852419
0.852384
0.852332
0.852263
0.852176
0.852073
0.851952
0.851814
0.851659
0.851486
0.851297
0.851092
0.850869
0.850631
0.850377
0.850107
0.849822
0.849523
0.84921
0.848883
0.848544
0.848193
0.84783
0.847457
0.847073
0.84668
0.846278
0.845868
0.845449
0.845021
0.844583
0.84413
0.843662
0.843132
0.842656
0.841721
0.845231
0.845002
0.844779
0.844542
0.844276
0.843976
0.843649
0.843298
0.842926
0.842538
0.842138
0.841728
0.841313
0.840894
0.840475
0.840058
0.839645
0.839237
0.838837
0.838446
0.838064
0.837693
0.837334
0.836987
0.836652
0.83633
0.836022
0.835728
0.835447
0.83518
0.834927
0.834688
0.834463
0.834252
0.834055
0.833871
0.833702
0.833547
0.833406
0.833278
0.833165
0.833066
0.832981
0.832909
0.832852
0.832809
0.832779
0.832764
0.832762
0.832774
0.8328
0.832839
0.832892
0.832958
0.833037
0.83313
0.833235
0.833353
0.833484
0.833627
0.833782
0.833949
0.834129
0.834319
0.834521
0.834734
0.834957
0.835191
0.835434
0.835687
0.83595
0.836222
0.836502
0.836791
0.837088
0.837393
0.837705
0.838024
0.83835
0.838682
0.83902
0.839364
0.839713
0.840067
0.840426
0.840789
0.841156
0.841527
0.841901
0.842278