/*--------------------------------*- C++ -*----------------------------------*\
  =========                 |
  \\      /  F ield         | OpenFOAM: The Open Source CFD Toolbox
   \\    /   O peration     | Website:  https://openfoam.org
    \\  /    A nd           | Version:  10
     \\/     M anipulation  |
\*---------------------------------------------------------------------------*/
FoamFile
{
    format      ascii;
    class       volScalarField;
    location    "32";
    object      T;
}
// * * * * * * * * * * * * * * * * * * * * * * * * * * * * * * * * * * * * * //

dimensions      [0 0 -1 0 0 0 0];

internalField   nonuniform List<scalar> 
100
(
0.648275
1.9388
3.21212
4.45693
5.66218
6.81717
7.91165
8.93591
9.88085
10.7381
11.5
12.1599
12.7118
13.1509
13.4733
13.6761
13.7574
13.7167
13.5543
13.2715
12.8709
12.3561
11.7316
11.003
10.1767
9.26013
8.26133
7.18921
6.05328
4.86363
3.6308
2.36575
1.0797
-0.215929
-1.50964
-2.78995
-4.04549
-5.26513
-6.43803
-7.55378
-8.60248
-9.57482
-10.4622
-11.2567
-11.9512
-12.5397
-13.0169
-13.3786
-13.6215
-13.7435
-13.7435
-13.6215
-13.3786
-13.0169
-12.5397
-11.9512
-11.2567
-10.4622
-9.5748
-8.60245
-7.55375
-6.438
-5.2651
-4.04546
-2.78991
-1.5096
-0.215892
1.07974
2.36579
3.63084
4.86367
6.05332
7.18926
8.26138
9.26017
10.1768
11.003
11.7317
12.3561
12.871
13.2715
13.5543
13.7168
13.7575
13.6761
13.4733
13.1509
12.7118
12.1599
11.5001
10.7381
9.88087
8.93593
7.91167
6.81718
5.66219
4.45694
3.21213
1.93881
0.648276
)
;

boundaryField
{
    xmin
    {
        type            fixedValue;
        value           uniform 0;
    }
    xmax
    {
        type            fixedValue;
        value           uniform 0;
    }
    frontAndBack
    {
        type            empty;
    }
}


// ************************************************************************* //
