/*--------------------------------*- C++ -*----------------------------------*\
  =========                 |
  \\      /  F ield         | OpenFOAM: The Open Source CFD Toolbox
   \\    /   O peration     | Website:  https://openfoam.org
    \\  /    A nd           | Version:  10
     \\/     M anipulation  |
\*---------------------------------------------------------------------------*/
FoamFile
{
    format      ascii;
    class       volScalarField;
    location    "32";
    object      T_0;
}
// * * * * * * * * * * * * * * * * * * * * * * * * * * * * * * * * * * * * * //

dimensions      [0 0 -1 0 0 0 0];

internalField   nonuniform List<scalar> 
100
(
0.648899
1.94067
3.21522
4.46122
5.66763
6.82374
7.91927
8.94452
9.89037
10.7484
11.5111
12.1716
12.7241
13.1636
13.4863
13.6892
13.7707
13.7299
13.5673
13.2843
12.8833
12.368
11.7429
11.0136
10.1865
9.26905
8.26929
7.19614
6.05912
4.86831
3.6343
2.36803
1.08074
-0.216137
-1.51109
-2.79264
-4.04939
-5.2702
-6.44423
-7.56106
-8.61077
-9.58405
-10.4723
-11.2675
-11.9628
-12.5518
-13.0295
-13.3915
-13.6346
-13.7567
-13.7567
-13.6346
-13.3915
-13.0295
-12.5518
-11.9627
-11.2675
-10.4722
-9.58403
-8.61074
-7.56103
-6.4442
-5.27017
-4.04936
-2.7926
-1.51106
-0.2161
1.08078
2.36807
3.63434
4.86835
6.05916
7.19618
8.26934
9.26909
10.1866
11.0136
11.743
12.368
12.8834
13.2843
13.5674
13.73
13.7707
13.6893
13.4863
13.1636
12.7241
12.1716
11.5111
10.7485
9.8904
8.94454
7.91929
6.82375
5.66765
4.46123
3.21522
1.94067
0.648901
)
;

boundaryField
{
    xmin
    {
        type            fixedValue;
        value           uniform 0;
    }
    xmax
    {
        type            fixedValue;
        value           uniform 0;
    }
    frontAndBack
    {
        type            empty;
    }
}


// ************************************************************************* //
