/*--------------------------------*- C++ -*----------------------------------*\
  =========                 |
  \\      /  F ield         | OpenFOAM: The Open Source CFD Toolbox
   \\    /   O peration     | Website:  https://openfoam.org
    \\  /    A nd           | Version:  10
     \\/     M anipulation  |
\*---------------------------------------------------------------------------*/
FoamFile
{
    format      ascii;
    class       volScalarField;
    location    "3";
    object      T;
}
// * * * * * * * * * * * * * * * * * * * * * * * * * * * * * * * * * * * * * //

dimensions      [0 0 -1 0 0 0 0];

internalField   nonuniform List<scalar> 
100
(
-0.00457349
-0.0135583
-0.0220629
-0.0297858
-0.0364536
-0.04183
-0.0457246
-0.0479993
-0.0485736
-0.0474272
-0.0446006
-0.0401941
-0.0343636
-0.0273158
-0.0193004
-0.0106012
-0.00152642
0.00760239
0.0164619
0.0247381
0.032138
0.0383994
0.0433005
0.0466676
0.0483815
0.0483814
0.0466675
0.0433003
0.0383992
0.0321378
0.0247379
0.0164616
0.00760225
-0.00152645
-0.0106011
-0.0193001
-0.0273155
-0.0343631
-0.0401935
-0.0445999
-0.0474264
-0.0485728
-0.0479985
-0.0457238
-0.0418293
-0.036453
-0.0297853
-0.0220625
-0.013558
-0.00457333
0.0045734
0.0135581
0.0220625
0.0297854
0.036453
0.0418294
0.0457238
0.0479985
0.0485728
0.0474264
0.0445999
0.0401934
0.0343631
0.0273154
0.0193
0.010601
0.00152634
-0.00760235
-0.0164617
-0.0247379
-0.0321378
-0.0383992
-0.0433003
-0.0466675
-0.0483814
-0.0483815
-0.0466676
-0.0433004
-0.0383994
-0.032138
-0.0247381
-0.0164618
-0.00760229
0.00152652
0.0106013
0.0193005
0.0273159
0.0343637
0.0401942
0.0446007
0.0474272
0.0485736
0.0479993
0.0457245
0.04183
0.0364536
0.0297858
0.0220628
0.0135582
0.00457338
)
;

boundaryField
{
    inlet
    {
        type            cyclic;
    }
    outlet
    {
        type            cyclic;
    }
    bottom
    {
        type            slip;
    }
    top
    {
        type            slip;
    }
    frontAndBack
    {
        type            empty;
    }
}


// ************************************************************************* //
