/*--------------------------------*- C++ -*----------------------------------*\
  =========                 |
  \\      /  F ield         | OpenFOAM: The Open Source CFD Toolbox
   \\    /   O peration     | Website:  https://openfoam.org
    \\  /    A nd           | Version:  10
     \\/     M anipulation  |
\*---------------------------------------------------------------------------*/
FoamFile
{
    format      ascii;
    class       volScalarField;
    location    "3";
    object      T_0;
}
// * * * * * * * * * * * * * * * * * * * * * * * * * * * * * * * * * * * * * //

dimensions      [0 0 -1 0 0 0 0];

internalField   nonuniform List<scalar> 
100
(
-0.00555664
-0.0164729
-0.0268057
-0.0361888
-0.0442899
-0.0508221
-0.0555538
-0.0583175
-0.0590153
-0.0576225
-0.0541883
-0.0488345
-0.0417507
-0.0331878
-0.0234493
-0.0128801
-0.00185455
0.00923665
0.0200006
0.030056
0.0390467
0.0466541
0.0526087
0.0566996
0.058782
0.0587819
0.0566995
0.0526085
0.0466538
0.0390464
0.0300557
0.0200004
0.00923649
-0.0018546
-0.01288
-0.0234491
-0.0331875
-0.0417502
-0.0488339
-0.0541876
-0.0576217
-0.0590145
-0.0583167
-0.055553
-0.0508213
-0.0442893
-0.0361883
-0.0268052
-0.0164726
-0.00555645
0.00555655
0.0164727
0.0268053
0.0361883
0.0442894
0.0508214
0.0555531
0.0583168
0.0590145
0.0576217
0.0541876
0.0488338
0.0417501
0.0331874
0.023449
0.0128799
0.00185447
-0.00923661
-0.0200005
-0.0300558
-0.0390465
-0.0466539
-0.0526085
-0.0566995
-0.0587819
-0.058782
-0.0566996
-0.0526087
-0.046654
-0.0390466
-0.0300559
-0.0200005
-0.00923653
0.00185467
0.0128802
0.0234494
0.033188
0.0417508
0.0488346
0.0541884
0.0576225
0.0590153
0.0583175
0.0555538
0.050822
0.0442899
0.0361887
0.0268056
0.0164728
0.00555651
)
;

boundaryField
{
    inlet
    {
        type            cyclic;
    }
    outlet
    {
        type            cyclic;
    }
    bottom
    {
        type            slip;
    }
    top
    {
        type            slip;
    }
    frontAndBack
    {
        type            empty;
    }
}


// ************************************************************************* //
