/*--------------------------------*- C++ -*----------------------------------*\
| =========                 |                                                 |
| \\      /  F ield         | OpenFOAM: The Open Source CFD Toolbox           |
|  \\    /   O peration     | Version:  2406                                  |
|   \\  /    A nd           | Website:  www.openfoam.com                      |
|    \\/     M anipulation  |                                                 |
\*---------------------------------------------------------------------------*/
FoamFile
{
    version     2.0;
    format      ascii;
    arch        "LSB;label=32;scalar=64";
    class       volScalarField;
    location    "2";
    object      p;
}
// * * * * * * * * * * * * * * * * * * * * * * * * * * * * * * * * * * * * * //

dimensions      [0 2 -2 0 0 0 0];

internalField   nonuniform List<scalar> 
34560
(
-40.484878
-40.473478
-40.459336
-40.44343
-40.426211
-40.410437
-40.399015
-40.392803
-40.390678
-40.556175
-40.542927
-40.52592
-40.505732
-40.482913
-40.460973
-40.443655
-40.432469
-40.426895
-40.616638
-40.602059
-40.583273
-40.560691
-40.534554
-40.508405
-40.486342
-40.470266
-40.460099
-40.673481
-40.657712
-40.637225
-40.612262
-40.582939
-40.552892
-40.526265
-40.505063
-40.489742
-40.725892
-40.709096
-40.687139
-40.66005
-40.627806
-40.594076
-40.562982
-40.536697
-40.51627
-40.771377
-40.754011
-40.731139
-40.702522
-40.66794
-40.630995
-40.59581
-40.564859
-40.539721
-40.811151
-40.793274
-40.769592
-40.739634
-40.703
-40.663175
-40.624299
-40.589236
-40.559954
-40.844508
-40.826263
-40.801971
-40.770942
-40.732587
-40.690286
-40.648233
-40.609651
-40.576859
-40.871293
-40.852798
-40.828058
-40.796189
-40.756436
-40.712109
-40.667462
-40.62601
-40.590369
-40.891201
-40.87258
-40.847565
-40.815107
-40.774306
-40.728446
-40.681833
-40.638217
-40.600429
-40.904374
-40.88567
-40.86048
-40.827638
-40.786151
-40.739224
-40.691308
-40.646259
-40.607045
-40.911088
-40.892325
-40.867019
-40.833943
-40.792059
-40.744553
-40.695946
-40.650158
-40.610216
-40.911089
-40.892326
-40.86702
-40.833943
-40.792059
-40.744553
-40.695946
-40.650157
-40.610216
-40.904376
-40.885672
-40.860482
-40.82764
-40.786152
-40.739225
-40.691308
-40.646258
-40.607044
-40.891203
-40.872582
-40.847568
-40.815109
-40.774307
-40.728447
-40.681833
-40.638217
-40.600429
-40.871296
-40.8528
-40.82806
-40.796191
-40.756438
-40.712112
-40.667464
-40.626011
-40.590369
-40.84451
-40.826265
-40.801973
-40.770945
-40.732591
-40.69029
-40.648237
-40.609653
-40.576861
-40.811153
-40.793277
-40.769595
-40.739638
-40.703005
-40.66318
-40.624303
-40.58924
-40.559956
-40.771381
-40.754015
-40.731143
-40.702525
-40.667944
-40.631
-40.595815
-40.564864
-40.539725
-40.725895
-40.709099
-40.687142
-40.660054
-40.627811
-40.59408
-40.562987
-40.536702
-40.516276
-40.673485
-40.657716
-40.63723
-40.612267
-40.582943
-40.552896
-40.52627
-40.505069
-40.489749
-40.616643
-40.602063
-40.583278
-40.560696
-40.534558
-40.508409
-40.486347
-40.470272
-40.460107
-40.55618
-40.542932
-40.525924
-40.505736
-40.482916
-40.460976
-40.443659
-40.432476
-40.426907
-40.484883
-40.473483
-40.459342
-40.443435
-40.426215
-40.410441
-40.399022
-40.392812
-40.390691
-37.687095
-37.686823
-37.686493
-37.686194
-37.685782
-37.684971
-37.683495
-37.681115
-37.677956
-37.692379
-37.692071
-37.691662
-37.691189
-37.690429
-37.689024
-37.686623
-37.682973
-37.678135
-37.696571
-37.696259
-37.69584
-37.695332
-37.694411
-37.692567
-37.689339
-37.684463
-37.677969
-37.700373
-37.700077
-37.69965
-37.699076
-37.697948
-37.695621
-37.691523
-37.685354
-37.677167
-37.703593
-37.703324
-37.702906
-37.702282
-37.700953
-37.698135
-37.693138
-37.685647
-37.675901
-37.706083
-37.705865
-37.705488
-37.70485
-37.703353
-37.700078
-37.694224
-37.685464
-37.674367
-37.707982
-37.707804
-37.707458
-37.706805
-37.705162
-37.701471
-37.694832
-37.68492
-37.672705
-37.709321
-37.70918
-37.708864
-37.708201
-37.70644
-37.702391
-37.695049
-37.684161
-37.671075
-37.710214
-37.710105
-37.709815
-37.709146
-37.707298
-37.702958
-37.695035
-37.683361
-37.669616
-37.710774
-37.710692
-37.710426
-37.709756
-37.707835
-37.703272
-37.694907
-37.682655
-37.668441
-37.711081
-37.711015
-37.710767
-37.710105
-37.708145
-37.703437
-37.694782
-37.682152
-37.667637
-37.711255
-37.711195
-37.710955
-37.7103
-37.708326
-37.703553
-37.694754
-37.681932
-37.667261
-37.711255
-37.711195
-37.710956
-37.7103
-37.708326
-37.703553
-37.694754
-37.681932
-37.667261
-37.711082
-37.711016
-37.710769
-37.710107
-37.708145
-37.703438
-37.694783
-37.682153
-37.667637
-37.710775
-37.710693
-37.710427
-37.709758
-37.707837
-37.703273
-37.694908
-37.682656
-37.668442
-37.710215
-37.710106
-37.709817
-37.709148
-37.7073
-37.70296
-37.695037
-37.683362
-37.669618
-37.709323
-37.709182
-37.708866
-37.708204
-37.706443
-37.702394
-37.695052
-37.684164
-37.671077
-37.707985
-37.707807
-37.707461
-37.706808
-37.705166
-37.701475
-37.694836
-37.684923
-37.672709
-37.706087
-37.705869
-37.705492
-37.704854
-37.703357
-37.700082
-37.694229
-37.685468
-37.674371
-37.703597
-37.703328
-37.702911
-37.702286
-37.700958
-37.69814
-37.693143
-37.685652
-37.675905
-37.700379
-37.700082
-37.699656
-37.699082
-37.697953
-37.695627
-37.691529
-37.685359
-37.677172
-37.696577
-37.696265
-37.695847
-37.695339
-37.694417
-37.692574
-37.689346
-37.684469
-37.677974
-37.692386
-37.692078
-37.69167
-37.691196
-37.690436
-37.689031
-37.68663
-37.682981
-37.678142
-37.687103
-37.68683
-37.686501
-37.686202
-37.685789
-37.684978
-37.683503
-37.681124
-37.677964
-36.585849
-36.585648
-36.585376
-36.584996
-36.584663
-36.584736
-36.585567
-36.587031
-36.58824
-36.591803
-36.591564
-36.591169
-36.590516
-36.589773
-36.589349
-36.589595
-36.590461
-36.591363
-36.597107
-36.596855
-36.596414
-36.595644
-36.594704
-36.594025
-36.593963
-36.594501
-36.595321
-36.602039
-36.601769
-36.601283
-36.600417
-36.599329
-36.598464
-36.598175
-36.598462
-36.599187
-36.606555
-36.606273
-36.605755
-36.604809
-36.60359
-36.602556
-36.602057
-36.60212
-36.602745
-36.610561
-36.610291
-36.609767
-36.608771
-36.607451
-36.606268
-36.605589
-36.605483
-36.605989
-36.614097
-36.613838
-36.613311
-36.61227
-36.61086
-36.609545
-36.60872
-36.608506
-36.608886
-36.617095
-36.61685
-36.616323
-36.615249
-36.613772
-36.612348
-36.611391
-36.611128
-36.611384
-36.619529
-36.619295
-36.618774
-36.617677
-36.616144
-36.614629
-36.613565
-36.613271
-36.613428
-36.621368
-36.621147
-36.620632
-36.619522
-36.61795
-36.616366
-36.615229
-36.614902
-36.614982
-36.622609
-36.622396
-36.621885
-36.620767
-36.619168
-36.617536
-36.61635
-36.615997
-36.616022
-36.623235
-36.623025
-36.622516
-36.621393
-36.619779
-36.618121
-36.61691
-36.616541
-36.616539
-36.623235
-36.623025
-36.622516
-36.621393
-36.619779
-36.618122
-36.61691
-36.616541
-36.616539
-36.62261
-36.622397
-36.621886
-36.620768
-36.619169
-36.617537
-36.616351
-36.615998
-36.616023
-36.62137
-36.621148
-36.620633
-36.619524
-36.617952
-36.616367
-36.615231
-36.614903
-36.614983
-36.61953
-36.619297
-36.618775
-36.617678
-36.616145
-36.614631
-36.613567
-36.613273
-36.61343
-36.617097
-36.616852
-36.616325
-36.615251
-36.613775
-36.61235
-36.611394
-36.61113
-36.611386
-36.614099
-36.61384
-36.613313
-36.612272
-36.610863
-36.609547
-36.608722
-36.608509
-36.608888
-36.610564
-36.610294
-36.60977
-36.608774
-36.607454
-36.606272
-36.605592
-36.605486
-36.605991
-36.606559
-36.606277
-36.605759
-36.604812
-36.603594
-36.602559
-36.60206
-36.602123
-36.602747
-36.602042
-36.601773
-36.601287
-36.60042
-36.599333
-36.598468
-36.598179
-36.598465
-36.59919
-36.59711
-36.596859
-36.596418
-36.595647
-36.594708
-36.594029
-36.593967
-36.594504
-36.595323
-36.591807
-36.591568
-36.591173
-36.59052
-36.589777
-36.589353
-36.589599
-36.590464
-36.591364
-36.585853
-36.585652
-36.58538
-36.585
-36.584667
-36.58474
-36.585571
-36.587033
-36.588241
-34.580332
-34.580276
-34.58024
-34.580288
-34.580398
-34.580442
-34.580267
-34.579728
-34.578656
-34.58179
-34.581704
-34.581618
-34.581585
-34.581549
-34.581353
-34.580809
-34.579762
-34.578206
-34.583409
-34.583288
-34.583161
-34.583081
-34.582976
-34.582653
-34.581898
-34.58056
-34.578721
-34.585019
-34.584864
-34.584694
-34.584567
-34.584401
-34.583979
-34.583056
-34.581459
-34.579281
-34.586538
-34.586354
-34.586147
-34.585975
-34.585743
-34.585222
-34.584133
-34.582265
-34.579749
-34.587901
-34.5877
-34.587468
-34.587261
-34.586973
-34.58636
-34.585113
-34.583002
-34.580164
-34.589086
-34.588871
-34.588618
-34.588381
-34.588047
-34.587373
-34.585981
-34.583638
-34.580528
-34.590083
-34.589858
-34.589586
-34.589327
-34.588975
-34.588242
-34.586711
-34.584168
-34.580838
-34.590893
-34.590659
-34.590377
-34.590114
-34.589739
-34.588939
-34.587295
-34.584594
-34.581089
-34.591514
-34.591274
-34.590984
-34.590714
-34.590316
-34.589464
-34.587734
-34.584916
-34.58128
-34.591926
-34.591682
-34.59139
-34.591114
-34.590699
-34.589815
-34.588028
-34.585134
-34.581411
-34.592136
-34.591891
-34.591596
-34.591314
-34.590889
-34.589992
-34.588178
-34.585248
-34.581482
-34.592136
-34.591891
-34.591596
-34.591314
-34.590889
-34.589992
-34.588179
-34.585248
-34.581482
-34.591926
-34.591682
-34.59139
-34.591114
-34.590699
-34.589815
-34.588028
-34.585134
-34.581412
-34.591515
-34.591274
-34.590985
-34.590715
-34.590316
-34.589465
-34.587734
-34.584916
-34.581281
-34.590894
-34.59066
-34.590377
-34.590114
-34.589739
-34.58894
-34.587295
-34.584595
-34.581089
-34.590084
-34.589858
-34.589587
-34.589328
-34.588976
-34.588243
-34.586712
-34.584169
-34.580839
-34.589087
-34.588872
-34.588618
-34.588382
-34.588047
-34.587373
-34.585982
-34.583638
-34.580529
-34.587901
-34.587701
-34.587468
-34.587262
-34.586974
-34.586361
-34.585114
-34.583003
-34.580164
-34.586538
-34.586355
-34.586148
-34.585976
-34.585744
-34.585223
-34.584134
-34.582266
-34.579749
-34.585019
-34.584864
-34.584694
-34.584568
-34.584401
-34.58398
-34.583057
-34.58146
-34.579282
-34.583409
-34.583288
-34.583161
-34.583081
-34.582977
-34.582653
-34.581898
-34.58056
-34.578722
-34.58179
-34.581704
-34.581618
-34.581584
-34.581549
-34.581353
-34.580809
-34.579762
-34.578206
-34.580331
-34.580275
-34.58024
-34.580288
-34.580397
-34.580442
-34.580266
-34.579728
-34.578656
-33.022512
-33.022569
-33.022635
-33.022694
-33.022783
-33.022977
-33.023349
-33.023919
-33.024357
-33.023401
-33.023449
-33.023489
-33.023491
-33.023492
-33.023573
-33.023803
-33.024169
-33.024486
-33.02428
-33.02432
-33.024342
-33.024313
-33.024273
-33.024312
-33.024506
-33.024844
-33.025232
-33.025042
-33.02507
-33.025076
-33.025024
-33.024963
-33.02499
-33.025183
-33.025521
-33.025937
-33.025705
-33.025724
-33.025715
-33.025642
-33.02556
-33.025576
-33.025763
-33.026106
-33.026539
-33.026296
-33.026306
-33.026284
-33.026194
-33.026096
-33.026106
-33.026287
-33.026617
-33.027065
-33.0268
-33.026803
-33.026771
-33.026668
-33.026558
-33.026545
-33.026718
-33.027053
-33.027497
-33.02722
-33.027217
-33.027178
-33.027064
-33.02692
-33.026885
-33.02706
-33.027395
-33.027832
-33.027541
-33.027535
-33.027487
-33.02735
-33.027184
-33.027145
-33.027321
-33.027654
-33.028084
-33.027767
-33.027758
-33.027704
-33.027552
-33.027375
-33.027335
-33.02751
-33.027841
-33.028263
-33.027919
-33.027906
-33.027843
-33.027683
-33.027501
-33.027461
-33.027633
-33.02796
-33.028377
-33.027986
-33.027972
-33.027907
-33.027746
-33.027563
-33.027521
-33.027691
-33.028016
-33.02843
-33.027986
-33.027972
-33.027907
-33.027745
-33.027562
-33.027521
-33.027691
-33.028016
-33.02843
-33.027919
-33.027905
-33.027843
-33.027683
-33.027501
-33.02746
-33.027633
-33.02796
-33.028377
-33.027767
-33.027757
-33.027703
-33.027552
-33.027374
-33.027335
-33.027509
-33.02784
-33.028263
-33.027541
-33.027534
-33.027487
-33.027349
-33.027183
-33.027145
-33.02732
-33.027654
-33.028083
-33.027219
-33.027216
-33.027177
-33.027063
-33.026919
-33.026884
-33.027059
-33.027395
-33.027831
-33.026798
-33.026802
-33.02677
-33.026667
-33.026556
-33.026544
-33.026717
-33.027052
-33.027496
-33.026294
-33.026305
-33.026283
-33.026192
-33.026094
-33.026104
-33.026285
-33.026616
-33.027064
-33.025703
-33.025722
-33.025713
-33.02564
-33.025558
-33.025574
-33.025761
-33.026104
-33.026538
-33.025039
-33.025068
-33.025073
-33.025021
-33.02496
-33.024987
-33.02518
-33.025519
-33.025935
-33.024277
-33.024317
-33.024339
-33.024309
-33.02427
-33.024309
-33.024503
-33.024842
-33.02523
-33.023397
-33.023446
-33.023485
-33.023487
-33.023489
-33.02357
-33.023799
-33.024167
-33.024483
-33.022508
-33.022564
-33.02263
-33.02269
-33.022779
-33.022973
-33.023345
-33.023915
-33.024354
-31.273313
-31.273329
-31.273365
-31.273435
-31.273529
-31.273618
-31.27366
-31.273623
-31.273403
-31.273797
-31.273808
-31.273831
-31.273876
-31.273923
-31.273929
-31.27384
-31.273618
-31.273247
-31.274391
-31.274394
-31.274407
-31.274437
-31.274461
-31.274426
-31.274277
-31.273984
-31.273581
-31.274984
-31.274978
-31.274979
-31.274997
-31.275005
-31.274947
-31.274763
-31.274423
-31.273963
-31.275552
-31.275536
-31.275526
-31.275529
-31.275519
-31.27544
-31.275222
-31.274833
-31.274312
-31.276077
-31.276054
-31.276033
-31.276025
-31.276
-31.2759
-31.27565
-31.275216
-31.274638
-31.276544
-31.276515
-31.276487
-31.276469
-31.276431
-31.276312
-31.276038
-31.275566
-31.274936
-31.276946
-31.276912
-31.276878
-31.276852
-31.276802
-31.276671
-31.27638
-31.275875
-31.275199
-31.277273
-31.277237
-31.277198
-31.277165
-31.27711
-31.276972
-31.276666
-31.276134
-31.275419
-31.277524
-31.277485
-31.277443
-31.277406
-31.277348
-31.277206
-31.276888
-31.276336
-31.27559
-31.277695
-31.277654
-31.27761
-31.277571
-31.27751
-31.277364
-31.277039
-31.276472
-31.275706
-31.27778
-31.277739
-31.277694
-31.277654
-31.277592
-31.277444
-31.277115
-31.276541
-31.275765
-31.27778
-31.277739
-31.277693
-31.277653
-31.277591
-31.277444
-31.277114
-31.276541
-31.275765
-31.277694
-31.277653
-31.277609
-31.27757
-31.277509
-31.277364
-31.277038
-31.276471
-31.275705
-31.277523
-31.277484
-31.277442
-31.277405
-31.277346
-31.277204
-31.276887
-31.276334
-31.275589
-31.277271
-31.277235
-31.277196
-31.277163
-31.277107
-31.27697
-31.276664
-31.276132
-31.275417
-31.276943
-31.276909
-31.276875
-31.276849
-31.276799
-31.276669
-31.276377
-31.275872
-31.275197
-31.27654
-31.276511
-31.276483
-31.276465
-31.276427
-31.276308
-31.276035
-31.275562
-31.274933
-31.276072
-31.276049
-31.276029
-31.276021
-31.275996
-31.275896
-31.275646
-31.275212
-31.274634
-31.275547
-31.275532
-31.275521
-31.275524
-31.275514
-31.275435
-31.275217
-31.274828
-31.274308
-31.274979
-31.274972
-31.274973
-31.274991
-31.274999
-31.274941
-31.274758
-31.274418
-31.273958
-31.274384
-31.274387
-31.2744
-31.27443
-31.274454
-31.27442
-31.274271
-31.273978
-31.273575
-31.273789
-31.273801
-31.273824
-31.273868
-31.273916
-31.273922
-31.273833
-31.273612
-31.27324
-31.273305
-31.273321
-31.273358
-31.273427
-31.273521
-31.27361
-31.273652
-31.273615
-31.273395
-29.595152
-29.595173
-29.595201
-29.595231
-29.595265
-29.595305
-29.595357
-29.595428
-29.595445
-29.595391
-29.595411
-29.595431
-29.595444
-29.59545
-29.595448
-29.595441
-29.595429
-29.595385
-29.595641
-29.595658
-29.595672
-29.595677
-29.595669
-29.595652
-29.595629
-29.595603
-29.595578
-29.595868
-29.59588
-29.595888
-29.595885
-29.595871
-29.59585
-29.595823
-29.595798
-29.595779
-29.596075
-29.596083
-29.596085
-29.596076
-29.596055
-29.596024
-29.595993
-29.595966
-29.595948
-29.596264
-29.596268
-29.596267
-29.596251
-29.596221
-29.596181
-29.596144
-29.596113
-29.596093
-29.596424
-29.596425
-29.596419
-29.596397
-29.596359
-29.596314
-29.596273
-29.596239
-29.596216
-29.596553
-29.596552
-29.596541
-29.596514
-29.596471
-29.596423
-29.59638
-29.596344
-29.596316
-29.596656
-29.596652
-29.596638
-29.596606
-29.59656
-29.596509
-29.596465
-29.596427
-29.596395
-29.596733
-29.596727
-29.59671
-29.596676
-29.596627
-29.596575
-29.596529
-29.596489
-29.596453
-29.596786
-29.596779
-29.59676
-29.596723
-29.596672
-29.596619
-29.596572
-29.596529
-29.596491
-29.596812
-29.596804
-29.596784
-29.596746
-29.596695
-29.59664
-29.596593
-29.596549
-29.596509
-29.596812
-29.596803
-29.596784
-29.596746
-29.596694
-29.59664
-29.596592
-29.596549
-29.596509
-29.596785
-29.596777
-29.596759
-29.596722
-29.596671
-29.596618
-29.59657
-29.596528
-29.59649
-29.596731
-29.596725
-29.596708
-29.596673
-29.596624
-29.596572
-29.596527
-29.596486
-29.596451
-29.596652
-29.596648
-29.596634
-29.596602
-29.596556
-29.596506
-29.596461
-29.596423
-29.596392
-29.596549
-29.596547
-29.596537
-29.59651
-29.596467
-29.596418
-29.596375
-29.596339
-29.596312
-29.596418
-29.596419
-29.596413
-29.596391
-29.596354
-29.596308
-29.596267
-29.596234
-29.59621
-29.596258
-29.596262
-29.59626
-29.596244
-29.596214
-29.596175
-29.596137
-29.596107
-29.596087
-29.596067
-29.596075
-29.596078
-29.596068
-29.596047
-29.596016
-29.595985
-29.595958
-29.59594
-29.595859
-29.595871
-29.595879
-29.595876
-29.595862
-29.595841
-29.595814
-29.595789
-29.595771
-29.595631
-29.595647
-29.595662
-29.595666
-29.595659
-29.595642
-29.595618
-29.595593
-29.595568
-29.595379
-29.595399
-29.595419
-29.595433
-29.595438
-29.595436
-29.59543
-29.595417
-29.595373
-29.595139
-29.595161
-29.595188
-29.595218
-29.595252
-29.595292
-29.595344
-29.595415
-29.595433
-27.900661
-27.900668
-27.900679
-27.900697
-27.900722
-27.900749
-27.900777
-27.900804
-27.900792
-27.900826
-27.900831
-27.900839
-27.900849
-27.900859
-27.900863
-27.900856
-27.900834
-27.900781
-27.901006
-27.901009
-27.901014
-27.90102
-27.901023
-27.901018
-27.901001
-27.900966
-27.900916
-27.901182
-27.901183
-27.901185
-27.901187
-27.901186
-27.901178
-27.901157
-27.901118
-27.901063
-27.90135
-27.901348
-27.901347
-27.901345
-27.90134
-27.901329
-27.901304
-27.901259
-27.901198
-27.901504
-27.901501
-27.901497
-27.901492
-27.901483
-27.901469
-27.901441
-27.901391
-27.901322
-27.901643
-27.901637
-27.901631
-27.901623
-27.901613
-27.901596
-27.901565
-27.90151
-27.901433
-27.901766
-27.901759
-27.90175
-27.901741
-27.901728
-27.901709
-27.901673
-27.901614
-27.901529
-27.90187
-27.901862
-27.901852
-27.901841
-27.901826
-27.901802
-27.901763
-27.901699
-27.901608
-27.901949
-27.901941
-27.90193
-27.901918
-27.9019
-27.901874
-27.901833
-27.901765
-27.901669
-27.902002
-27.901993
-27.901982
-27.901968
-27.901949
-27.901921
-27.901879
-27.901809
-27.901709
-27.902028
-27.902019
-27.902007
-27.901993
-27.901973
-27.901945
-27.901902
-27.901831
-27.90173
-27.902028
-27.902018
-27.902007
-27.901992
-27.901973
-27.901944
-27.901902
-27.901831
-27.901729
-27.902
-27.901991
-27.90198
-27.901966
-27.901947
-27.90192
-27.901877
-27.901807
-27.901707
-27.901946
-27.901937
-27.901927
-27.901914
-27.901896
-27.90187
-27.901829
-27.901762
-27.901666
-27.901866
-27.901857
-27.901848
-27.901837
-27.901821
-27.901797
-27.901759
-27.901695
-27.901604
-27.90176
-27.901753
-27.901745
-27.901735
-27.901722
-27.901703
-27.901667
-27.901608
-27.901524
-27.901636
-27.90163
-27.901624
-27.901615
-27.901605
-27.901589
-27.901557
-27.901503
-27.901426
-27.901496
-27.901492
-27.901488
-27.901483
-27.901474
-27.90146
-27.901432
-27.901383
-27.901314
-27.90134
-27.901338
-27.901336
-27.901334
-27.90133
-27.901319
-27.901294
-27.901249
-27.901188
-27.90117
-27.901171
-27.901172
-27.901174
-27.901174
-27.901166
-27.901145
-27.901106
-27.901052
-27.900992
-27.900996
-27.901
-27.901006
-27.901009
-27.901005
-27.900987
-27.900953
-27.900903
-27.900811
-27.900816
-27.900823
-27.900833
-27.900843
-27.900848
-27.900842
-27.900819
-27.900768
-27.900644
-27.900651
-27.900662
-27.900681
-27.900705
-27.900733
-27.900761
-27.900788
-27.900777
-26.208379
-26.208383
-26.208388
-26.208395
-26.208404
-26.208413
-26.208422
-26.208431
-26.208422
-26.208462
-26.208465
-26.208468
-26.208471
-26.208472
-26.20847
-26.208461
-26.208444
-26.208414
-26.208547
-26.208549
-26.20855
-26.208551
-26.20855
-26.208543
-26.208528
-26.208505
-26.208478
-26.208628
-26.208629
-26.208629
-26.208629
-26.208625
-26.208616
-26.208599
-26.208574
-26.208546
-26.208703
-26.208703
-26.208701
-26.208699
-26.208693
-26.208682
-26.208663
-26.208638
-26.208607
-26.208769
-26.208767
-26.208765
-26.208761
-26.208754
-26.208742
-26.208722
-26.208695
-26.208662
-26.208826
-26.208824
-26.20882
-26.208815
-26.208807
-26.208795
-26.208775
-26.208747
-26.208711
-26.208873
-26.20887
-26.208866
-26.20886
-26.208852
-26.208839
-26.20882
-26.208791
-26.208753
-26.208911
-26.208908
-26.208903
-26.208896
-26.208887
-26.208875
-26.208856
-26.208826
-26.208787
-26.208939
-26.208936
-26.20893
-26.208923
-26.208914
-26.208902
-26.208884
-26.208854
-26.208812
-26.208958
-26.208955
-26.208949
-26.208941
-26.208932
-26.208921
-26.208902
-26.208872
-26.208829
-26.208968
-26.208964
-26.208958
-26.20895
-26.208941
-26.20893
-26.208911
-26.20888
-26.208837
-26.208967
-26.208963
-26.208957
-26.208949
-26.20894
-26.208929
-26.20891
-26.20888
-26.208837
-26.208956
-26.208952
-26.208947
-26.208939
-26.20893
-26.208918
-26.2089
-26.208869
-26.208827
-26.208936
-26.208932
-26.208927
-26.208919
-26.20891
-26.208898
-26.20888
-26.20885
-26.208809
-26.208906
-26.208902
-26.208897
-26.20889
-26.208882
-26.20887
-26.208851
-26.208821
-26.208782
-26.208866
-26.208864
-26.208859
-26.208853
-26.208845
-26.208832
-26.208813
-26.208784
-26.208747
-26.208817
-26.208815
-26.208812
-26.208807
-26.208799
-26.208786
-26.208766
-26.208739
-26.208704
-26.208759
-26.208757
-26.208755
-26.208751
-26.208744
-26.208731
-26.208712
-26.208686
-26.208653
-26.208691
-26.208691
-26.208689
-26.208687
-26.208681
-26.208669
-26.208651
-26.208626
-26.208596
-26.208614
-26.208615
-26.208615
-26.208614
-26.208611
-26.208602
-26.208585
-26.208561
-26.208533
-26.208531
-26.208532
-26.208534
-26.208535
-26.208533
-26.208527
-26.208512
-26.20849
-26.208463
-26.208444
-26.208447
-26.20845
-26.208452
-26.208454
-26.208452
-26.208443
-26.208427
-26.208398
-26.208359
-26.208362
-26.208367
-26.208374
-26.208383
-26.208393
-26.208402
-26.208412
-26.208404
-24.518216
-24.518217
-24.51822
-24.518223
-24.518228
-24.518234
-24.518241
-24.51825
-24.518252
-24.518257
-24.518259
-24.51826
-24.518262
-24.518263
-24.518263
-24.518262
-24.518259
-24.518251
-24.518298
-24.518299
-24.5183
-24.518301
-24.5183
-24.518298
-24.518295
-24.518291
-24.518285
-24.518337
-24.518338
-24.518338
-24.518338
-24.518337
-24.518334
-24.518331
-24.518327
-24.518321
-24.518375
-24.518374
-24.518374
-24.518373
-24.518371
-24.518368
-24.518365
-24.518361
-24.518354
-24.518408
-24.518408
-24.518407
-24.518405
-24.518403
-24.5184
-24.518397
-24.518392
-24.518384
-24.518439
-24.518438
-24.518437
-24.518434
-24.518431
-24.518428
-24.518425
-24.51842
-24.518411
-24.518466
-24.518465
-24.518463
-24.51846
-24.518457
-24.518453
-24.51845
-24.518444
-24.518434
-24.518489
-24.518487
-24.518485
-24.518482
-24.518479
-24.518475
-24.518471
-24.518464
-24.518454
-24.518506
-24.518505
-24.518502
-24.518499
-24.518495
-24.518491
-24.518486
-24.51848
-24.518468
-24.518517
-24.518516
-24.518514
-24.51851
-24.518506
-24.518501
-24.518497
-24.51849
-24.518478
-24.518523
-24.518521
-24.518519
-24.518515
-24.518511
-24.518506
-24.518502
-24.518494
-24.518482
-24.518522
-24.51852
-24.518518
-24.518514
-24.51851
-24.518505
-24.518501
-24.518494
-24.518481
-24.518515
-24.518514
-24.518511
-24.518508
-24.518503
-24.518499
-24.518494
-24.518487
-24.518476
-24.518502
-24.518501
-24.518499
-24.518495
-24.518491
-24.518487
-24.518482
-24.518476
-24.518465
-24.518484
-24.518482
-24.51848
-24.518477
-24.518473
-24.518469
-24.518465
-24.518459
-24.518449
-24.518459
-24.518458
-24.518456
-24.518453
-24.518449
-24.518446
-24.518443
-24.518437
-24.518428
-24.51843
-24.518429
-24.518428
-24.518425
-24.518422
-24.518419
-24.518416
-24.518411
-24.518403
-24.518398
-24.518397
-24.518396
-24.518394
-24.518392
-24.518389
-24.518386
-24.518382
-24.518375
-24.518362
-24.518362
-24.518361
-24.51836
-24.518358
-24.518355
-24.518352
-24.518349
-24.518342
-24.518322
-24.518323
-24.518323
-24.518323
-24.518321
-24.518319
-24.518317
-24.518313
-24.518307
-24.518281
-24.518282
-24.518283
-24.518283
-24.518283
-24.518281
-24.518278
-24.518275
-24.518269
-24.518238
-24.518239
-24.518241
-24.518242
-24.518243
-24.518243
-24.518242
-24.518241
-24.518233
-24.518194
-24.518196
-24.518198
-24.518202
-24.518206
-24.518212
-24.518219
-24.518229
-24.518232
-22.826607
-22.826608
-22.826609
-22.82661
-22.826612
-22.826614
-22.826616
-22.826617
-22.826615
-22.826629
-22.826629
-22.82663
-22.82663
-22.826631
-22.82663
-22.826628
-22.826623
-22.826615
-22.82665
-22.82665
-22.82665
-22.826651
-22.82665
-22.826649
-22.826645
-22.826639
-22.826631
-22.826671
-22.826671
-22.826671
-22.82667
-22.82667
-22.826668
-22.826664
-22.826657
-22.826648
-22.82669
-22.82669
-22.826689
-22.826689
-22.826688
-22.826685
-22.826681
-22.826674
-22.826664
-22.826707
-22.826707
-22.826706
-22.826705
-22.826704
-22.826702
-22.826697
-22.826689
-22.826679
-22.826722
-22.826722
-22.826721
-22.82672
-22.826719
-22.826716
-22.826711
-22.826703
-22.826692
-22.826735
-22.826734
-22.826733
-22.826732
-22.826731
-22.826728
-22.826723
-22.826715
-22.826704
-22.826745
-22.826744
-22.826743
-22.826742
-22.826741
-22.826738
-22.826733
-22.826725
-22.826713
-22.826753
-22.826752
-22.826751
-22.82675
-22.826748
-22.826745
-22.826741
-22.826733
-22.82672
-22.826758
-22.826757
-22.826756
-22.826754
-22.826753
-22.82675
-22.826746
-22.826737
-22.826725
-22.82676
-22.826759
-22.826758
-22.826756
-22.826755
-22.826752
-22.826748
-22.826739
-22.826727
-22.826759
-22.826758
-22.826757
-22.826756
-22.826754
-22.826752
-22.826747
-22.826739
-22.826726
-22.826755
-22.826755
-22.826753
-22.826752
-22.82675
-22.826748
-22.826744
-22.826735
-22.826723
-22.826749
-22.826748
-22.826747
-22.826746
-22.826744
-22.826742
-22.826737
-22.826729
-22.826717
-22.82674
-22.826739
-22.826738
-22.826737
-22.826735
-22.826732
-22.826728
-22.82672
-22.826708
-22.826728
-22.826727
-22.826726
-22.826725
-22.826723
-22.826721
-22.826716
-22.826709
-22.826698
-22.826714
-22.826713
-22.826712
-22.826711
-22.82671
-22.826707
-22.826702
-22.826695
-22.826685
-22.826697
-22.826696
-22.826695
-22.826695
-22.826693
-22.826691
-22.826686
-22.826679
-22.82667
-22.826678
-22.826677
-22.826677
-22.826676
-22.826675
-22.826673
-22.826668
-22.826662
-22.826653
-22.826656
-22.826656
-22.826656
-22.826655
-22.826655
-22.826653
-22.826649
-22.826643
-22.826635
-22.826633
-22.826633
-22.826633
-22.826633
-22.826633
-22.826632
-22.826629
-22.826623
-22.826616
-22.82661
-22.82661
-22.826611
-22.826611
-22.826611
-22.826611
-22.826609
-22.826605
-22.826598
-22.826586
-22.826587
-22.826588
-22.826589
-22.826591
-22.826593
-22.826595
-22.826597
-22.826595
-21.135947
-21.135947
-21.135948
-21.135948
-21.135949
-21.13595
-21.135951
-21.135953
-21.135953
-21.135956
-21.135956
-21.135957
-21.135957
-21.135957
-21.135957
-21.135956
-21.135955
-21.135954
-21.135964
-21.135965
-21.135965
-21.135965
-21.135965
-21.135964
-21.135963
-21.135962
-21.135961
-21.135972
-21.135972
-21.135972
-21.135972
-21.135972
-21.135972
-21.135971
-21.13597
-21.135968
-21.13598
-21.13598
-21.13598
-21.13598
-21.135979
-21.135979
-21.135978
-21.135977
-21.135975
-21.135986
-21.135986
-21.135986
-21.135986
-21.135986
-21.135985
-21.135984
-21.135983
-21.135982
-21.135992
-21.135992
-21.135992
-21.135992
-21.135991
-21.135991
-21.13599
-21.135989
-21.135987
-21.135997
-21.135997
-21.135997
-21.135997
-21.135996
-21.135996
-21.135995
-21.135994
-21.135992
-21.136001
-21.136001
-21.136001
-21.136001
-21.136
-21.135999
-21.135999
-21.135998
-21.135996
-21.136004
-21.136004
-21.136004
-21.136004
-21.136003
-21.136002
-21.136002
-21.136001
-21.135999
-21.136006
-21.136006
-21.136006
-21.136005
-21.136005
-21.136004
-21.136004
-21.136002
-21.136
-21.136007
-21.136007
-21.136006
-21.136006
-21.136005
-21.136004
-21.136004
-21.136003
-21.136001
-21.136006
-21.136006
-21.136006
-21.136005
-21.136004
-21.136004
-21.136003
-21.136002
-21.136
-21.136004
-21.136004
-21.136004
-21.136003
-21.136003
-21.136002
-21.136001
-21.136001
-21.135999
-21.136001
-21.136001
-21.136001
-21.136
-21.135999
-21.135999
-21.135998
-21.135997
-21.135996
-21.135997
-21.135997
-21.135996
-21.135996
-21.135995
-21.135994
-21.135994
-21.135993
-21.135992
-21.135991
-21.135991
-21.135991
-21.13599
-21.13599
-21.135989
-21.135989
-21.135988
-21.135986
-21.135985
-21.135984
-21.135984
-21.135984
-21.135983
-21.135982
-21.135982
-21.135981
-21.13598
-21.135977
-21.135977
-21.135977
-21.135976
-21.135976
-21.135975
-21.135975
-21.135974
-21.135973
-21.135968
-21.135968
-21.135968
-21.135968
-21.135968
-21.135967
-21.135967
-21.135966
-21.135965
-21.135959
-21.135959
-21.135959
-21.135959
-21.135959
-21.135958
-21.135958
-21.135957
-21.135957
-21.135949
-21.135949
-21.13595
-21.13595
-21.135949
-21.135949
-21.135949
-21.135948
-21.135947
-21.135939
-21.135939
-21.135939
-21.13594
-21.13594
-21.13594
-21.135939
-21.135939
-21.135938
-21.135928
-21.135928
-21.135929
-21.13593
-21.13593
-21.135931
-21.135933
-21.135935
-21.135936
-19.444915
-19.444915
-19.444915
-19.444916
-19.444916
-19.444917
-19.444917
-19.444917
-19.444916
-19.444919
-19.444919
-19.444919
-19.44492
-19.44492
-19.444919
-19.444919
-19.444918
-19.444916
-19.444923
-19.444923
-19.444923
-19.444923
-19.444923
-19.444923
-19.444922
-19.44492
-19.444918
-19.444926
-19.444926
-19.444926
-19.444926
-19.444926
-19.444926
-19.444925
-19.444923
-19.444922
-19.44493
-19.44493
-19.44493
-19.44493
-19.44493
-19.444929
-19.444928
-19.444927
-19.444925
-19.444933
-19.444933
-19.444933
-19.444933
-19.444932
-19.444932
-19.444931
-19.444929
-19.444927
-19.444936
-19.444936
-19.444935
-19.444935
-19.444935
-19.444935
-19.444934
-19.444932
-19.44493
-19.444938
-19.444938
-19.444938
-19.444938
-19.444937
-19.444937
-19.444936
-19.444934
-19.444932
-19.44494
-19.44494
-19.44494
-19.444939
-19.444939
-19.444939
-19.444938
-19.444936