/*--------------------------------*- C++ -*----------------------------------*\
| =========                 |                                                 |
| \\      /  F ield         | OpenFOAM: The Open Source CFD Toolbox           |
|  \\    /   O peration     | Version:  2406                                  |
|   \\  /    A nd           | Website:  www.openfoam.com                      |
|    \\/     M anipulation  |                                                 |
\*---------------------------------------------------------------------------*/
FoamFile
{
    version     2.0;
    format      ascii;
    arch        "LSB;label=32;scalar=64";
    class       surfaceScalarField;
    location    "2";
    object      phi;
}
// * * * * * * * * * * * * * * * * * * * * * * * * * * * * * * * * * * * * * //

dimensions      [0 3 -1 0 0 0 0];

oriented        oriented;

internalField   nonuniform List<scalar> 
101088
(
-8.7951272e-05
2.5243552e-05
-1.5262973e-05
-2.1934694e-05
-0.0001765729
0.00011006913
-6.4944745e-05
-9.6309397e-05
-0.00024622587
0.00026639389
-0.00015292454
-0.00023396813
-0.00027513637
0.00050612508
-0.0002795266
-0.00044612678
-0.0002573675
0.00080923226
-0.00041829
-0.00071599479
-0.00022115285
0.0011212378
-0.00051811351
-0.00099332708
-0.00021777711
0.001373533
-0.00053650086
-0.0012145032
-0.00028402492
0.0015100689
-0.00047487707
-0.0013280008
0.0015020442
-0.00037240864
-0.0013157736
-0.00041048331
-0.00010680131
2.7859358e-05
-1.8368967e-05
-0.00021123815
0.00012074998
-7.751938e-05
-0.00028672471
0.00029025194
-0.00018102132
-0.00030418787
0.00054745325
-0.00032758243
-0.00025724292
0.00087111798
-0.0004846787
-0.00018181054
0.0012056833
-0.00059417376
-0.00013837642
0.001479452
-0.00061156577
-0.00016488858
0.0016301548
-0.0005427541
0.0016221464
-0.0004311198
-0.00025225389
-0.00012572371
2.9526375e-05
-2.1356429e-05
-0.00024560751
0.00012725979
-8.9508139e-05
-0.00032715008
0.00030418986
-0.00020743984
-0.0003364204
0.00057005471
-0.00037168064
-0.00026701743
0.00090213659
-0.00054320419
-0.00016070018
0.0012453594
-0.00065749482
-8.4812607e-05
0.0015281612
-0.00067002369
-7.8977678e-05
0.0016841539
-0.00059250096
0.0016745007
-0.0004729911
-0.00013471588
-0.00014419656
3.008867e-05
-2.4090023e-05
-0.00027924955
0.00012904746
-0.00010034117
-0.00036710562
0.00030694364
-0.00023091557
-0.00036992096
0.00057202491
-0.00040988228
-0.00028293801
0.0009009199
-0.00059203757
-0.00015443422
0.0012406972
-0.00070759146
-5.6266075e-05
0.0015213112
-0.0007133821
-2.7969218e-05
0.0016746944
-0.00062706529
0.0016628392
-0.00050150067
-6.0556237e-05
-0.00016164148
2.9294749e-05
-2.6455429e-05
-0.00031103541
0.0001254228
-0.00010963788
-0.00040543737
0.00029757696
-0.00025080488
-0.00040424527
0.00055266782
-0.000441521
-0.00030502054
0.0008676327
-0.00063102023
-0.00016193337
0.0011931104
-0.00074540667
-5.0086817e-05
0.0014619312
-0.00074372824
-7.023348e-06
0.001606548
-0.00065031432
0.0015921591
-0.00051991187
-2.2878591e-05
-0.00017824932
2.7496353e-05
-2.8464743e-05
-0.00034232409
0.00011744583
-0.00011745388
-0.00044540755
0.00027787186
-0.00026726929
-0.00044451875
0.00051432604
-0.00046702821
-0.0003390672
0.00080490868
-0.00066118734
-0.00018782737
0.0011051739
-0.00077260904
-6.8096277e-05
0.0013528585
-0.00076322951
-1.4753582e-05
0.0014835205
-0.00066432159
0.0014670183
-0.00053084437
-1.7331842e-05
-0.00019296532
2.4603883e-05
-3.0091145e-05
-0.00037009022
0.00010496078
-0.00012369824
-0.00048135097
0.00024790788
-0.00028017806
-0.00048231048
0.00045784984
-0.00048641303
-0.00037454639
0.00071495177
-0.00068286102
-0.00022039912
0.00098061571
-0.00079029386
-9.8112677e-05
0.0011990554
-0.00077353482
-3.9513853e-05
0.0013123189
-0.00067094486
0.0012950619
-0.00053616441
-3.3424591e-05
-0.0002057294
2.0762208e-05
-3.1351102e-05
-0.0003945203
8.8537938e-05
-0.00012849475
-0.00051382493
0.00020896389
-0.00028994743
-0.00051815273
0.00038546946
-0.00050066108
-0.00041100265
0.00060116836
-0.00069787193
-0.00025744791
0.0008241683
-0.000801006
-0.00013548497
0.0010069185
-0.00077856634
-7.4889862e-05
0.0011001358
-0.00067274848
0.0010837458
-0.00053765103
-6.3315025e-05
-0.00021631242
1.6166174e-05
-3.2286707e-05
-0.00041511192
6.8970876e-05
-0.00013203478
-0.00054192682
0.00016278403
-0.00029707165
-0.00055047446
0.00030015199
-0.00051078078
-0.00044573537
0.00046785609
-0.00070789701
-0.00029470239
0.00064141138
-0.00080696392
-0.00017473025
0.00078321582
-0.00077992537
-0.00011400776
0.00085459903
-0.00067181968
0.00084070926
-0.00053697825
-9.9098291e-05
-0.00022453996
1.1074561e-05
-3.2942217e-05
-0.00043145482
4.724831e-05
-0.00013450562
-0.00056486662
0.00011146269
-0.00030199643
-0.00057785091
0.00020538179
-0.00051761799
-0.00047638224
0.00031998544
-0.00071426944
-0.00032853552
0.00043857872
-0.00080991493
-0.00021102858
0.00053539175
-0.00077948026
-0.00015091437
0.00058366848
-0.00066981214
0.00057363803
-0.00053544465
-0.0001339132
-0.00023005094
5.6281545e-06
-3.3370018e-05
-0.00044241047
2.3994971e-05
-0.00013607341
-0.00058040061
5.6589005e-05
-0.00030502682
-0.00059681262
0.00010423405
-0.00052166989
-0.00049824257
0.00016232714
-0.00071771846
-0.0003535503
0.00022246533
-0.00081089449
-0.0002383985
0.00027148902
-0.00077833391
-0.00017915642
0.00029579866
-0.00066778045
0.0002905611
-0.0005339007
-0.00016103223
-0.00023286455
5.5489584e-11
-3.3553676e-05
-0.00044809161
1.4838663e-10
-0.00013677797
-0.00058857168
2.8408844e-10
-0.00030645498
-0.00060686264
4.0808495e-10
-0.00052369392
-0.00050986149
-2.5729012e-10
-0.00071960743
-0.00036677894
-9.7521033e-10
-0.00081168941
-0.00025291087
-1.7866708e-09
-0.00077813711
-0.00019429316
-2.0457105e-09
-0.00066712273
-1.3229565e-09
-0.00053340638
-0.00017583373
-0.00023286466
-5.628146e-06
-3.3553672e-05
-0.00044809174
-2.3994924e-05
-0.00013677796
-0.00058857189
-5.6588727e-05
-0.00030645494
-0.00060686351
-0.00010423353
-0.00052369384
-0.00050986161
-0.00016232781
-0.00071960739
-0.00036677909
-0.00022246718
-0.00081168937
-0.00025291102
-0.00027149229
-0.0007781371
-0.00019429304
-0.00029580233
-0.00066712275
-0.00029056332
-0.00053340639
-0.00017583409
-0.00023005084
-1.1074601e-05
-3.337002e-05
-0.00044241015
-4.7248405e-05
-0.00013607341
-0.00058040084
-0.00011146269
-0.0003050268
-0.00059681476
-0.00020538182
-0.00052166986
-0.0004982427
-0.00031998632
-0.00071771856
-0.00035355071
-0.00043858019
-0.00081089456
-0.00023839893
-0.00053539418
-0.00077833402
-0.00017915614
-0.00058367114
-0.00066778059
-0.00057363931
-0.00053390074
-0.00016103306
-0.00022453933
-1.6166052e-05
-3.2942213e-05
-0.00043145375
-6.8970696e-05
-0.0001345056
-0.00056486638
-0.0001627842
-0.00030199635
-0.00057785282
-0.00030015273
-0.00051761788
-0.00047638156
-0.00046785699
-0.00071426946
-0.00032853596
-0.00064141205
-0.00080991487
-0.00021102919
-0.00078321716
-0.0007794803
-0.0001509141
-0.00085460052
-0.00066981227
-0.00084070975
-0.0005354447
-0.00013391423
-0.00021631254
-2.0762265e-05
-3.2286705e-05
-0.0004151121
-8.853817e-05
-0.00013203477
-0.00054192623
-0.00020896463
-0.00029707162
-0.00055047466
-0.00038547023
-0.00051078075
-0.0004457339
-0.00060116825
-0.00070789706
-0.00029470286
-0.00082416817
-0.00080696386
-0.00017473088
-0.001006919
-0.00077992541
-0.00011400778
-0.0011001364
-0.00067181979
-0.001083746
-0.0005369783
-9.9099428e-05
-0.00020573022
-2.4603927e-05
-3.1351104e-05
-0.00039452089
-0.00010496071
-0.00012849476
-0.00051382297
-0.00024790755
-0.00028994747
-0.00051815152
-0.00045784921
-0.0005006611
-0.00041100175
-0.00071495124
-0.00069787196
-0.00025744863
-0.00098061644
-0.00080100595
-0.00013548559
-0.0011990562
-0.00077856635
-7.4890573e-05
-0.0013123195
-0.00067274855
-0.0012950621
-0.00053765109
-6.3316385e-05
-0.00019296534
-2.7496236e-05
-3.0091151e-05
-0.00037008974
-0.00011744563
-0.00012369827
-0.00048134938
-0.00027787188
-0.00028017812
-0.0004823104
-0.00051432715
-0.00048641306
-0.00037454689
-0.00080491089
-0.00068286107
-0.00022039952
-0.0011051771
-0.00079029392
-9.8113059e-05
-0.0013528607
-0.00077353486
-3.9515102e-05
-0.0014835221
-0.0006709449
-0.0014670185
-0.00053616447
-3.3425913e-05
-0.0001782496
-2.9294858e-05
-2.8464751e-05
-0.00034232499
-0.00012542312
-0.00011745391
-0.00044540775
-0.00029757724
-0.00026726937
-0.0004445183
-0.00055266798
-0.00046702834
-0.00033906709
-0.00086763328
-0.00066118752
-0.00018782666
-0.0011931128
-0.0007726093
-6.809631e-05
-0.0014619346
-0.00076322967
-1.4754597e-05
-0.0016065513
-0.00066432169
-0.0015921593
-0.00053084442
-1.7333224e-05
-0.00016164196
-3.0088617e-05
-2.6455434e-05
-0.00031103614
-0.00012904729
-0.00010963791
-0.00040543714
-0.00030694331
-0.00025080494
-0.00040424499
-0.00057202472
-0.00044152103
-0.00030502145
-0.00090092084
-0.00063102018
-0.00016193302
-0.0012406994
-0.00074540674
-5.008655e-05
-0.0015213142
-0.0007437283
-7.0230323e-06
-0.0016746977
-0.0006503144
-0.0016628402
-0.00051991185
-2.2880527e-05
-0.00014419654
-2.9526322e-05
-2.4090017e-05
-0.0002792494
-0.00012725959
-0.00010034114
-0.00036710542
-0.00030418952
-0.0002309155
-0.00036992135
-0.00057005454
-0.00040988212
-0.00028293852
-0.00090213752
-0.00059203738
-0.00015443365
-0.0012453614
-0.00070759135
-5.6265199e-05
-0.0015281635
-0.00071338205
-2.796753e-05
-0.001684157
-0.00062706531
-0.0016745029
-0.00050150064
-6.0558025e-05
-0.00012572364
-2.7859336e-05
-2.1356422e-05
-0.00024560751
-0.00012074992
-8.9508109e-05
-0.00032715056
-0.00029025195
-0.00020743976
-0.00033642154
-0.0005474537
-0.00037168048
-0.00026701735
-0.00087111953
-0.00054320398
-0.00016069841
-0.0012056864
-0.0006574946
-8.4811655e-05
-0.0014794557
-0.00067002362
-7.8975995e-05
-0.0016301585
-0.000592501
-0.0016221451
-0.00047299109
-0.00013471611
-0.00010680124
-2.5243513e-05
-1.8368963e-05
-0.00021123818
-0.000110069
-7.7519362e-05
-0.000286725
-0.00026639366
-0.00018102127
-0.00030418875
-0.00050612486
-0.00032758235
-0.00025724272
-0.00080923225
-0.00048467865
-0.00018180859
-0.0011212385
-0.00059417376
-0.00013837588
-0.0013735349
-0.00061156576
-0.000164886
-0.0015100715
-0.00054275421
-0.0015020447
-0.00043111967
-0.00025225519
-8.795117e-05
-1.5262973e-05
-2.1934714e-05
-0.00017657275
-6.4944742e-05
-9.6309514e-05
-0.0002462257
-0.00015292453
-0.00023396851
-0.00027513644
-0.00027952657
-0.0004461277
-0.00025736666
-0.00041829
-0.00071599625
-0.00022115028
-0.00051811356
-0.00099332848
-0.00021777505
-0.00053650089
-0.0012145043
-0.00028402147
-0.00047487708
-0.0013280022
-0.00037240856
-0.0013157745
-0.00041048387
-2.6344257e-07
2.3616915e-06
-1.5489748e-05
-1.871476e-06
-3.2305738e-07
1.0468264e-05
-6.6973456e-05
-8.3799897e-06
3.3066005e-07
2.553234e-05
-0.00015850558
-2.0605152e-05
1.3196007e-06
4.8021934e-05
-0.00028942562
-3.9111898e-05
2.8250633e-06
7.3394677e-05
-0.00043280191
-6.0388119e-05
5.7595491e-06
9.1961162e-05
-0.00053691653
-7.6093209e-05
1.0330857e-05
9.5140046e-05
-0.00055810516
-7.8108067e-05
1.617583e-05
8.280238e-05
-0.00049728098
-6.6242958e-05
6.1904328e-05
-0.00039253203
-4.794193e-05
2.233691e-05
-2.8657894e-07
2.7225578e-06
-1.8443239e-05
-1.2858286e-07
1.2031318e-05
-7.9240219e-05
1.3885206e-06
2.9130318e-05
-0.0001861358
4.2419381e-06
5.4104659e-05
-0.0003365174
8.7268828e-06
8.1468217e-05
-0.00049723603
1.4935074e-05
0.00010076531
-0.00060918595
2.1948087e-05
0.00010367751
-0.00062711573
2.8532858e-05
9.1048569e-05
-0.00055758535
7.00976e-05
-0.0004447007
3.3920243e-05
-2.9296627e-07
2.9095556e-06
-2.1250532e-05
2.0024313e-07
1.2842767e-05
-9.0812885e-05
2.7686971e-06
3.098069e-05
-0.0002118587
7.4793383e-06
5.7047567e-05
-0.00037933422
1.4500808e-05
8.4794254e-05
-0.00055355222
2.3024266e-05
0.00010345965
-0.00066871314
3.0821333e-05
0.0001054594
-0.00067960201
3.6145841e-05
9.3172641e-05
-0.00059994961
7.4750044e-05
-0.00048003416
3.8536194e-05
-3.0756611e-07
2.9316874e-06
-2.3804495e-05
4.7341512e-07
1.294052e-05
-0.00010121961
4.0135424e-06
3.1143007e-05
-0.00023461743
1.0488067e-05
5.6975168e-05
-0.00041628359
1.9709587e-05
8.3851426e-05
-0.00060031599
2.966918e-05
0.0001011979
-0.00071528914
3.7029673e-05
0.00010240741
-0.00071769091
4.0293743e-05
9.1276788e-05
-0.00062843381
7.6327014e-05
-0.00050231098
3.9527058e-05
-3.1963285e-07
2.7894549e-06
-2.5993501e-05
7.1041238e-07
1.235394e-05
-0.00011008133
5.062793e-06
2.9749838e-05
-0.00025376444
1.2956173e-05
5.4252616e-05
-0.00044669211
2.3798822e-05
7.9354648e-05
-0.00063736599
3.4531683e-05
9.5087663e-05
-0.00075002909
4.0998223e-05
9.5861791e-05
-0.00074364883
4.196461e-05
8.6534344e-05
-0.00064653782
7.4919175e-05
-0.00051518446
3.8645598e-05
-3.685756e-07
2.5366716e-06
-2.7843345e-05
7.5434472e-07
1.1270317e-05
-0.00011749291
5.5873699e-06
2.7167562e-05
-0.00026952008
1.4407865e-05
4.943988e-05
-0.00047103628
2.6230666e-05
7.2025623e-05
-0.00066568109
3.7247633e-05
8.5976236e-05
-0.00077451491
4.2994894e-05
8.660239e-05
-0.00075971672
4.1648457e-05
7.9314691e-05
-0.00065575466
7.0619661e-05
-0.00052144812
3.6552527e-05
-4.0212139e-07
2.1916517e-06
-2.9343963e-05
8.0450287e-07
9.782997e-06
-0.00012341773
5.9998753e-06
2.3644405e-05
-0.00028185078
1.5414578e-05
4.3037194e-05
-0.00048942459
2.7757821e-05
6.2630021e-05
-0.00068580742
3.862425e-05
7.4686071e-05
-0.00078986987
4.3760608e-05
7.5502942e-05
-0.00076757131
4.0142833e-05
7.0041118e-05
-0.00065805295
6.3632859e-05
-0.00052274122
3.3707289e-05
-4.4138853e-07
1.7866191e-06
-3.0504397e-05
7.8306571e-07
8.0203174e-06
-0.00012795661
6.1571304e-06
1.9459024e-05
-0.00029113708
1.585001e-05
3.5496263e-05
-0.00050281317
2.8303006e-05
5.1715865e-05
-0.0006994102
3.8836789e-05
6.1736552e-05
-0.00079858967
4.32418e-05
6.2627346e-05
-0.00077009555
3.7739628e-05
5.8830684e-05
-0.0006560357
5.4312219e-05
-0.00052097288
3.0383034e-05
-4.8784766e-07
1.3511485e-06
-3.1363447e-05
6.8958538e-07
6.0999905e-06
-0.00013129199
6.0729618e-06
1.4862793e-05
-0.00029785893
1.5780562e-05
2.7198618e-05
-0.00051219023
2.804618e-05
3.9701792e-05
-0.00070814864
3.814099e-05
4.7533216e-05
-0.00080285479
4.1776694e-05
4.8650822e-05
-0.00076958434
3.4835276e-05
4.607538e-05
-0.00065212306
4.2991624e-05
-0.00051768512
2.6863612e-05
-5.3351111e-07
9.0561811e-07
-3.1963473e-05
5.6581858e-07
4.105282e-06
-0.00013361059
5.8674153e-06
1.0034339e-05
-0.00030246936
1.5452198e-05
1.8408467e-05
-0.00051841162
2.7371602e-05
2.6948545e-05
-0.00071343588
3.699642e-05
3.2398668e-05
-0.00080440482
3.973834e-05
3.341844e-05
-0.00076698956
3.1840719e-05
3.1897531e-05
-0.00064773702
2.9956971e-05
-0.00051408246
2.3513726e-05
-5.5290597e-07
4.5939798e-07
-3.2370923e-05
5.1994322e-07
2.0814503e-06
-0.00013512253
5.7794672e-06
5.0902471e-06
-0.00030534212
1.5198029e-05
9.3484103e-06
-0.00052202773
2.6740521e-05
1.372022e-05
-0.00071603301
3.5924075e-05
1.656355e-05
-0.00080424295
3.7887648e-05
1.7186564e-05
-0.00076406546
2.9352412e-05
1.6491843e-05
-0.00064384011
1.55206e-05
-0.00051095149
2.0839632e-05
-5.5954392e-07
3.0887921e-11
-3.2534633e-05
5.0886169e-07
8.0496618e-11
-0.00013576494
5.7590356e-06
1.3397482e-10
-0.00030661506
1.5087028e-05
1.9020695e-10
-0.0005236737
2.6398395e-05
-1.1464515e-10
-0.00071719886
3.5310094e-05
-4.8533685e-10
-0.00080403748
3.6829636e-05
-8.8849033e-10
-0.00076246919
2.795313e-05
-8.69474e-10
-0.00064175415
-1.8266081e-10
-0.0005092713
1.9338523e-05
-5.5961126e-07
-4.5937269e-07
-3.2534628e-05
5.0879193e-07
-2.0813743e-06
-0.00013576492
5.7590663e-06
-5.0900815e-06
-0.00030661502
1.5086792e-05
-9.3481518e-06
-0.00052367364
2.6398401e-05
-1.3720521e-05
-0.00071719881
3.5310025e-05
-1.6564575e-05
-0.00080403744
3.6829562e-05
-1.7188334e-05
-0.00076246918
2.7953173e-05
-1.649345e-05
-0.00064175417
-1.5520725e-05
-0.00050927132
1.9338288e-05
-5.5293965e-07
-9.0563487e-07
-3.2370924e-05
5.2000381e-07
-4.1053176e-06
-0.00013512253
5.7797064e-06
-1.0034357e-05
-0.00030534212
1.5197484e-05
-1.8408502e-05
-0.00052202774
2.6740599e-05
-2.6949017e-05
-0.00071603306
3.5923944e-05
-3.2399821e-05
-0.00080424303
3.7887511e-05
-3.3420168e-05
-0.00076406557
2.93526e-05
-3.1898816e-05
-0.00064384023
-2.9956586e-05
-0.00051095158
2.0839115e-05
-5.3337317e-07
-1.3511269e-06
-3.1963467e-05
5.6618265e-07
-6.099976e-06
-0.00013361056
5.8679472e-06
-1.4862865e-05
-0.0003024693
1.5451688e-05
-2.7198877e-05
-0.00051841154
2.7371805e-05
-3.9702331e-05
-0.00071343584
3.6996321e-05
-4.7534422e-05
-0.00080440481
3.9738274e-05
-4.86524e-05
-0.00076698963
3.184112e-05
-4.6076295e-05
-0.00064773715
-4.2990882e-05
-0.00051408257
2.351324e-05
-4.8785971e-07
-1.7865934e-06
-3.1363445e-05
6.8972044e-07
-8.0203097e-06
-0.00013129198
6.0736278e-06
-1.9459112e-05
-0.00029785891
1.5780541e-05
-3.5496511e-05
-0.00051219021
2.8046547e-05
-5.1716262e-05
-0.00070814865
3.8141033e-05
-6.1737709e-05
-0.00080285482
4.1776806e-05
-6.2628726e-05
-0.00076958446
3.4835823e-05
-5.8831374e-05
-0.0006521232
-5.4311547e-05
-0.00051768525
2.6863216e-05
-4.4167728e-07
-2.1916445e-06
-3.0504399e-05
7.8287281e-07
-9.7829487e-06
-0.00012795662
6.1579476e-06
-2.3644266e-05
-0.0002911371
1.5850548e-05
-4.3037142e-05
-0.00050281321
2.8303329e-05
-6.2630343e-05
-0.00069941024
3.8837031e-05
-7.4687275e-05
-0.00079858973
4.3242072e-05
-7.5504307e-05
-0.00077009568
3.7740073e-05
-7.0041945e-05
-0.00065603584
-6.3632626e-05
-0.00052097302
3.0382606e-05
-4.0222742e-07
-2.5366248e-06
-2.9343969e-05
8.0447085e-07
-1.127018e-05
-0.00012341775
6.0004316e-06
-2.716743e-05
-0.00028185083
1.5414919e-05
-4.9440136e-05
-0.00048942466
2.7757896e-05
-7.202653e-05
-0.00068580751
3.862476e-05
-8.5977703e-05
-0.00078986998
4.3760924e-05
-8.6604055e-05
-0.00076757146
4.0142928e-05
-7.9316007e-05
-0.00065805308
-7.0619728e-05
-0.00052274135
3.3706828e-05
-3.6860176e-07
-2.7894583e-06
-2.7843354e-05
7.541358e-07
-1.2353955e-05
-0.00011749295
5.5873578e-06
-2.9749886e-05
-0.00026952017
1.4408143e-05
-5.425288e-05
-0.00047103644
2.6231101e-05
-7.9355462e-05
-0.0006656813
3.7248422e-05
-9.5089036e-05
-0.00077451514
4.2995096e-05
-9.5863895e-05
-0.00075971695
4.1648285e-05
-8.653629e-05
-0.00065575482
-7.4919098e-05
-0.00052144825
3.6552048e-05
-3.1975941e-07
-2.9316577e-06
-2.5993505e-05
7.1015861e-07
-1.2940431e-05
-0.00011008134
5.062783e-06
-3.1142827e-05
-0.00025376448
1.2956474e-05
-5.6975091e-05
-0.00044669219
2.3799398e-05
-8.3851952e-05
-0.00063736607
3.4532261e-05
-0.00010119923
-0.00075002922
4.0998274e-05
-0.00010240953
-0.000743649
4.1964653e-05
-9.1279016e-05
-0.00064653793
-7.6327117e-05
-0.00051518452
3.8644946e-05
-3.0760368e-07
-2.9095809e-06
-2.3804493e-05
4.7334771e-07
-1.284285e-05
-0.00010121959
4.0134818e-06
-3.0980836e-05
-0.0002346174
1.0488003e-05
-5.7047828e-05
-0.00041628356
1.9709984e-05
-8.4794838e-05
-0.000600316
2.9669595e-05
-0.0001034609
-0.00071528922
3.7029715e-05
-0.00010546091
-0.000717691
4.0294136e-05
-9.3174634e-05
-0.00062843388
-7.4751038e-05
-0.000502311
3.9526678e-05
-2.9290435e-07
-2.7225204e-06
-2.1250528e-05
2.0040343e-07
-1.2031219e-05
-9.0812866e-05
2.7689097e-06
-2.9130179e-05
-0.00021185866
7.4793519e-06
-5.4104579e-05
-0.00037933417
1.4501084e-05
-8.1468513e-05
-0.0005535522
2.3024992e-05
-0.00010076655
-0.00066871313
3.0821533e-05
-0.00010367919
-0.00067960203
3.6146155e-05
-9.1050309e-05
-0.00059994963
-7.0097656e-05
-0.00048003416
3.853629e-05
-2.8650713e-07
-2.3616959e-06
-1.844324e-05
-1.2838455e-07
-1.0468313e-05
-7.9240221e-05
1.3888324e-06
-2.5532537e-05
-0.00018613581
4.2418587e-06
-4.8022459e-05
-0.00033651743
8.726694e-06
-7.3395608e-05
-0.00049723612
1.4936174e-05
-9.1962465e-05
-0.00060918609
2.1949441e-05
-9.5141456e-05
-0.00062711586
2.8533997e-05
-8.2804484e-05
-0.00055758545
-6.1905062e-05
-0.00044470071
3.3920023e-05
-2.634351e-07
-1.5489751e-05
-1.8715096e-06
-3.2296336e-07
-6.6973467e-05
-8.3801305e-06
3.3108212e-07
-0.00015850561
-2.0605515e-05
1.3202294e-06
-0.00028942567
-3.9112673e-05
2.8260629e-06
-0.00043280201
-6.0389384e-05
5.7618129e-06
-0.00053691667
-7.6094671e-05
1.0333211e-05
-0.00055810529
-7.8109192e-05
1.6177866e-05
-0.00049728103
-6.6243519e-05
-0.00039253205
-4.7941802e-05
2.2337241e-05
1.0122812e-07
1.6201818e-06
-1.5596735e-05
-1.6144219e-06
1.8397223e-07
6.7417427e-06
-6.6997016e-05
-6.8009361e-06
6.8502403e-07
1.5240149e-05
-0.00015860446
-1.5642359e-05
3.646022e-06
2.572651e-05
-0.00029083256
-2.7280596e-05
1.1767475e-05
3.3088486e-05
-0.00043650308
-3.7508734e-05
2.6209404e-05
2.9631297e-05
-0.00054174909
-3.9240705e-05
4.446402e-05
1.1124571e-05
-0.00056041626
-2.7068262e-05
6.1311405e-05
-1.5706997e-05
-0.00049374175
-4.6799817e-06
-3.6672103e-05
-0.00038380508
1.8786512e-05
7.0470147e-05
1.7214793e-07
1.6257877e-06
-1.8620993e-05
5.2517839e-07
6.6169218e-06
-7.9468376e-05
1.9604858e-06
1.4522563e-05
-0.00018685339
7.4666414e-06
2.3378287e-05
-0.00033967511
2.0286307e-05
2.7486851e-05
-0.00050445377
4.0691792e-05
1.916372e-05
-0.00061912347
6.4071192e-05
-4.4963091e-06
-0.00063487407
8.3127368e-05
-3.417816e-05
-0.00055817046
-5.4023644e-05
-0.00043737996
9.3158002e-05
2.8401805e-07
1.5985125e-06
-2.150728e-05
1.0092519e-06
6.361161e-06
-9.1282292e-05
3.4336104e-06
1.3538158e-05
-0.00021329847
1.1275116e-05
2.067046e-05
-0.00038446758
2.8201456e-05
2.1701114e-05
-0.00056469251
5.3587453e-05
9.3482592e-06
-0.00068428368
8.0697619e-05
-1.7759266e-05
-0.00069344919
0.00010032071
-4.8515436e-05
-0.00060523545
-6.6900832e-05
-0.00047465126
0.00010781504
4.0955347e-07
1.5245571e-06
-2.4140073e-05
1.5529078e-06
5.9425396e-06
-0.00010194427
5.0317314e-06
1.2279747e-05
-0.00023683776
1.5181227e-05
1.7759085e-05
-0.00042352145
3.5879336e-05
1.6261352e-05
-0.00061557371
6.5579601e-05
1.1216922e-06
-0.0007367627
9.5415511e-05
-2.7627354e-05
-0.00073765854
0.00011438155
-5.7722614e-05
-0.00063819261
-7.4062695e-05
-0.00049942415
0.00011865651
5.3389825e-07
1.4017424e-06
-2.6404523e-05
2.0836021e-06
5.3720445e-06
-0.00011106032
6.5587323e-06
1.0815742e-05
-0.00025677527
1.8836926e-05
1.4839618e-05
-0.00045605049
4.2936587e-05
1.153156e-05
-0.00065673555
7.6373834e-05
-5.0135374e-06
-0.00077733084
0.0001082793
-3.3711103e-05
-0.00076947042
0.00012603512
-6.2051107e-05
-0.00065996502
-7.5815905e-05
-0.00051482361
0.0001274276
6.3259451e-07
1.2499024e-06
-2.8324078e-05
2.5128346e-06
4.7123494e-06
-0.00011871337
7.8467473e-06
9.2535111e-06
-0.00027329152
2.2032567e-05
1.2046425e-05
-0.0004824283
4.9214381e-05
7.6187799e-06
-0.00068894986
8.6004515e-05
-9.0369604e-06
-0.00080728126
0.00011954629
-3.608832e-05
-0.00079088101
0.00013621915
-6.1663738e-05
-0.00067281459
-7.2853494e-05
-0.00052316539
0.00013497424
7.1781533e-07
1.0711874e-06
-2.9883002e-05
2.8810243e-06
3.9795946e-06
-0.00012484812
8.955003e-06
7.6341868e-06
-0.00028630542
2.4808698e-05
9.4276623e-06
-0.00050265913
5.4612966e-05
4.5716308e-06
-0.00071256431
9.4269189e-05
-1.1016642e-05
-0.00082754587
0.00012900995
-3.5121366e-05
-0.00080327864
0.00014494962
-5.7327618e-05
-0.00067832843
-6.601088e-05
-0.00052612868
0.0001414947
7.8432331e-07
8.7458967e-07
-3.1092041e-05
3.1664927e-06
3.2078541e-06
-0.00012956689
9.8239044e-06
6.0274055e-06
-0.00029618757
2.7028448e-05
7.0719655e-06
-0.00051766162
5.909421e-05
2.3775316e-06
-0.00072928165
0.00010115138
-1.1209826e-05
-0.00084045314
0.00013658168
-3.1351295e-05
-0.00080929551
0.00015233583
-4.9374599e-05
-0.00067974258
-5.6081215e-05
-0.00052565529
0.00014708876
8.3710383e-07
6.640695e-07
-3.1990001e-05
3.3906087e-06
2.4114239e-06
-0.00013304902
1.0506924e-05
4.454026e-06
-0.00030340179
2.8775496e-05
4.9916507e-06
-0.00052837818
6.2653697e-05
9.8192304e-07
-0.000740631
0.00010659867
-9.8787549e-06
-0.00084813045
0.00014252898
-2.5610898e-05
-0.00081125466
0.00015822768
-3.9042796e-05
-0.00067815332
-4.389583e-05
-0.00052334127
0.00015169859
8.7345682e-07
4.4665116e-07
-3.2619503e-05
3.5451163e-06
1.6093602e-06
-0.00013548018
1.098918e-05
2.9327809e-06
-0.00030839214
3.0037823e-05
3.1667497e-06
-0.00053563518
6.5252942e-05
2.4741463e-07
-0.00074791623
0.00011057799
-7.3208186e-06
-0.00085228754
0.00014705547
-1.8077356e-05
-0.00081100028
0.00016267617
-2.698857e-05
-0.00067541177
-3.012335e-05
-0.00052044237
0.00015526367
8.9686698e-07
2.2366835e-07
-3.3044808e-05
3.6478975e-06
8.011494e-07
-0.00013706534
1.1314815e-05
1.4455153e-06
-0.00031152173
3.088819e-05
1.5170643e-06
-0.00053995133
6.6988092e-05
-2.507402e-08
-0.00075186019
0.00011321448
-3.9132732e-06
-0.00085387674
0.00015007696
-9.3668965e-06
-0.00080963825
0.00016563895
-1.379985e-05
-0.00067259074
-1.5326764e-05
-0.00051778381
0.00015767469
9.0728498e-07
1.2928347e-11
-3.3218272e-05
3.6893427e-06
3.0274702e-11
-0.00013774588
1.1445833e-05
3.0301514e-11
-0.00031292601
3.1247592e-05
-3.3362815e-11
-0.00054195832
6.7761499e-05
-2.5612463e-10
-0.00075373742
0.00011443231
-6.7001558e-10
-0.00085462085
0.000151509
-9.2371881e-10
-0.00080891183
0.00016708308
-6.1309749e-10
-0.00067112748
3.1863961e-10
-0.00051640561
0.00015889033
9.0727508e-07
-2.2364563e-07
-3.3218267e-05
3.6893293e-06
-8.0109892e-07
-0.00013774586
1.144586e-05
-1.4454685e-06
-0.00031292597
3.1247637e-05
-1.5171417e-06
-0.00054195826
6.7761501e-05
2.4522427e-08
-0.00075373735
0.00011443231
3.9118764e-06
-0.00085462079
0.00015150898
9.3649981e-06
-0.0008089118
0.00016708307
1.3798621e-05
-0.00067112747
1.5327464e-05
-0.00051640563
0.00015889032
8.9685046e-07
-4.4663706e-07
-3.3044808e-05
3.6478938e-06
-1.6093323e-06
-0.00013706534
1.1314924e-05
-2.9327544e-06
-0.00031152173
3.0888337e-05
-3.166841e-06
-0.00053995135
6.6988143e-05
-2.4804328e-07
-0.0007518602
0.00011321453
7.3193072e-06
-0.00085387679
0.00015007697
1.8075349e-05
-0.00080963832
0.00016563895
2.698734e-05
-0.00067259081
3.012418e-05
-0.00051778388
0.00015767469
8.7343901e-07
-6.640559e-07
-3.2619498e-05
3.5451337e-06
-2.4113926e-06
-0.00013548015
1.0989344e-05
-4.4539877e-06
-0.00030839209
3.0037985e-05
-4.9917413e-06
-0.0005356351
6.5253028e-05
-9.8263046e-07
-0.00074791613
0.00011057808
9.8771244e-06
-0.00085228751
0.00014705552
2.5608767e-05
-0.0008110003
0.00016267622
3.9041545e-05
-0.00067541183
4.3896715e-05
-0.00052044246
0.00015526371
8.3707823e-07
-8.745656e-07
-3.199e-05
3.3906046e-06
-3.2077962e-06
-0.00013304902
1.0507055e-05
-6.0273571e-06
-0.00030340177
2.8775582e-05
-7.0720913e-06
-0.00052837816
6.2653827e-05
-2.3783211e-06
-0.00074063097
0.00010659882
1.1208098e-05
-0.0008481305
0.00014252911
3.1349077e-05
-0.00081125476
0.00015822777
4.9373324e-05
-0.00067815343
5.6082054e-05
-0.00052334138
0.00015169857
7.8428474e-07
-1.0711727e-06
-3.1092045e-05
3.1664536e-06
-3.9795715e-06
-0.0001295669
9.8239947e-06
-7.6342042e-06
-0.00029618759
2.7028459e-05
-9.4278722e-06
-0.00051766167
5.9094385e-05
-4.572514e-06
-0.00072928172
0.00010115157
1.1014793e-05
-0.0008404533
0.00013658187
3.5119081e-05
-0.00080929569
0.00015233588
5.7326336e-05
-0.00067974273
6.6011658e-05
-0.00052565541
0.00014708858
7.1779249e-07
-1.2498903e-06
-2.9883008e-05
2.8810355e-06
-4.712326e-06
-0.00012484814
8.9551391e-06
-9.2535154e-06
-0.00028630548
2.4808684e-05
-1.2046674e-05
-0.00050265924
5.4613152e-05
-7.6197771e-06
-0.00071256447
9.4269387e-05
9.0349422e-06
-0.00082754609
0.00012901016
3.6085962e-05
-0.00080327887
0.00014494957
6.1662486e-05
-0.00067832861
7.2854277e-05
-0.0005261288
0.00014149433
6.325961e-07
-1.4017259e-06
-2.8324091e-05
2.5128333e-06
-5.3720224e-06
-0.00011871342
7.8467179e-06
-1.081583e-05
-0.00027329164
2.2032367e-05
-1.4840089e-05
-0.00048242851
4.921447e-05
-1.1532739e-05
-0.00068895012
8.6004709e-05
5.011433e-06
-0.00080728153
0.00011954645
3.3708789e-05
-0.00079088129
0.00013621895
6.2049994e-05
-0.0006728148
7.5816724e-05
-0.00052316552
0.00013497365
5.3387639e-07
-1.5245719e-06
-2.6404528e-05
2.0835013e-06
-5.9426143e-06
-0.00011106033
6.5585708e-06
-1.2279998e-05
-0.0002567753
1.8836795e-05
-1.7759703e-05
-0.00045605057
4.2936663e-05
-1.6262576e-05
-0.00065673567
7.6373962e-05
-1.1237311e-06
-0.00077733096
0.00010827927
2.7625257e-05
-0.00076947058
0.00012603471
5.7721779e-05
-0.00065996514
7.4063539e-05
-0.00051482369
0.00012742659
4.0954172e-07
-1.5985267e-06
-2.4140072e-05
1.5529004e-06
-6.3612337e-06
-0.00010194427
5.0317998e-06
-1.353838e-05
-0.00023683775
1.518136e-05
-2.0671037e-05
-0.00042352145
3.5879355e-05
-2.1702372e-05
-0.00061557375
6.5579641e-05
-9.3502141e-06
-0.00073676276
9.5415253e-05
1.7757259e-05
-0.00073765862
0.00011438088
4.8514788e-05
-0.00063819267
6.6901819e-05
-0.00049942416
0.00011865513
2.8403995e-07
-1.6258058e-06
-2.1507276e-05
1.0093068e-06
-6.6170086e-06
-9.1282275e-05
3.4336997e-06
-1.4522795e-05
-0.00021329843
1.1275196e-05
-2.3378832e-05
-0.00038446754
2.8201377e-05
-2.7487981e-05
-0.00056469249
5.3587204e-05
-1.9165466e-05
-0.00068428367
8.0696947e-05
4.4945064e-06
-0.00069344918
0.00010031978
3.417757e-05
-0.00060523541
5.4024681e-05
-0.00047465122
0.00010781377
1.7216525e-07
-1.6201994e-06
-1.8620994e-05
5.2521083e-07
-6.7418336e-06
-7.9468379e-05
1.9605357e-06
-1.5240406e-05
-0.0001868534
7.4666578e-06
-2.5727118e-05
-0.00033967513
2.0286131e-05
-3.308971e-05
-0.00050445382
4.0691271e-05
-2.9633088e-05
-0.00061912355
6.4070319e-05
-1.1126249e-05
-0.00063487413
8.3126829e-05
1.5706117e-05
-0.00055817042
3.6672794e-05
-0.00043737997
9.3157387e-05
1.0123802e-07
-1.5596739e-05
-1.6144388e-06
1.8401331e-07
-6.6997028e-05
-6.8010181e-06
6.8512894e-07
-0.00015860449
-1.5642579e-05
3.6461221e-06
-0.00029083262
-2.728109e-05
1.1767402e-05
-0.00043650317
-3.7509679e-05
2.6209126e-05
-0.00054174918
-3.9242126e-05
4.4463117e-05
-0.00056041634
-2.7069568e-05
6.1311462e-05
-0.00049374172
-4.6812355e-06
-0.00038380508
1.8786531e-05
7.0470731e-05
-5.9240318e-08
3.9755222e-07
-1.5632218e-05
-3.0282858e-07
-6.206063e-08
1.5899211e-06
-6.736067e-05
-1.2234529e-06
3.6050298e-08
3.2499264e-06
-0.00015940567
-2.5468551e-06
3.7869347e-08
4.0428552e-06
-0.00029154728
-3.3300086e-06
4.5151706e-07
4.8603992e-07
-0.00043642662
-9.7616841e-07
3.5410638e-06
-1.2402811e-05
-0.0005408794
8.4436313e-06
1.2613027e-05
-3.6851845e-05
-0.00055981337
2.7176934e-05
2.8985212e-05
-6.6987678e-05
-0.00049474033
5.1613742e-05
-9.0920109e-05
-0.00038641574
7.326098e-05