/*--------------------------------*- C++ -*----------------------------------*\
| =========                 |                                                 |
| \\      /  F ield         | OpenFOAM: The Open Source CFD Toolbox           |
|  \\    /   O peration     | Version:  2406                                  |
|   \\  /    A nd           | Website:  www.openfoam.com                      |
|    \\/     M anipulation  |                                                 |
\*---------------------------------------------------------------------------*/
FoamFile
{
    version     2.0;
    format      ascii;
    arch        "LSB;label=32;scalar=64";
    class       volVectorField;
    location    "2";
    object      U;
}
// * * * * * * * * * * * * * * * * * * * * * * * * * * * * * * * * * * * * * //

dimensions      [0 1 -1 0 0 0 0];

internalField   nonuniform List<vector> 
34560
(
(-0.066361073 0.011116683 0.019132635)
(-0.20789188 0.035302254 0.059427105)
(-0.37020586 0.066846644 0.1015531)
(-0.53366896 0.1057621 0.13726814)
(-0.66902125 0.14993927 0.15843696)
(-0.74951643 0.19678786 0.16083618)
(-0.76667775 0.24266147 0.14815709)
(-0.73693683 0.28321023 0.12930501)
(-0.68903703 0.31384214 0.11362215)
(-0.071833031 0.012676233 0.020656579)
(-0.22283644 0.039445313 0.063624543)
(-0.39184544 0.073251087 0.10687098)
(-0.55523857 0.11356234 0.14095816)
(-0.68134464 0.15800061 0.15793609)
(-0.74517702 0.20416471 0.15519981)
(-0.74328475 0.2484594 0.13852774)
(-0.69869522 0.28663085 0.11811757)
(-0.64257448 0.3141804 0.10242855)
(-0.076735913 0.013359588 0.021073289)
(-0.23635002 0.041296855 0.064780388)
(-0.41143041 0.076118213 0.10755627)
(-0.57438101 0.11677955 0.1393621)
(-0.6910403 0.16065132 0.15261469)
(-0.73806823 0.20526249 0.1458902)
(-0.71828773 0.24714355 0.12652858)
(-0.66070588 0.28206163 0.10540424)
(-0.59826561 0.3060847 0.090326553)
(-0.0808196 0.013834575 0.021324587)
(-0.24751639 0.042386283 0.065328189)
(-0.42723826 0.077340481 0.10707601)
(-0.58885766 0.11720542 0.13612257)
(-0.69621803 0.15924493 0.14551784)
(-0.72792719 0.20117242 0.13530213)
(-0.69273233 0.239648 0.11415705)
(-0.62475093 0.27061143 0.09315052)
(-0.55802766 0.2909082 0.079387478)
(-0.083903479 0.013682332 0.021211538)
(-0.25592442 0.041757136 0.064883267)
(-0.43879239 0.075785623 0.10517716)
(-0.59831405 0.11393917 0.13142278)
(-0.69672519 0.15333274 0.13739101)
(-0.71478735 0.19190065 0.12436125)
(-0.66669665 0.22640651 0.10218294)
(-0.59097961 0.25309941 0.081873763)
(-0.52175055 0.26984637 0.069729376)
(-0.086150107 0.013099505 0.020779686)
(-0.26198731 0.039879209 0.063529642)
(-0.44669551 0.072001886 0.10202576)
(-0.60342405 0.1074319 0.12556194)
(-0.69329155 0.14330013 0.12863288)
(-0.69926511 0.17785542 0.11352374)
(-0.64052479 0.2080295 0.090989531)
(-0.5593994 0.2304244 0.071815845)
(-0.48925183 0.24385482 0.061377856)
(-0.087680239 0.012060058 0.020248541)
(-0.26601094 0.03662839 0.061861715)
(-0.45144076 0.065835304 0.098443806)
(-0.60491801 0.097607123 0.11941148)
(-0.68684467 0.12921829 0.11999426)
(-0.68234502 0.15923294 0.10333984)
(-0.61501447 0.18485481 0.080886046)
(-0.53046199 0.20310486 0.063081019)
(-0.46050828 0.21357439 0.054295005)
(-0.088598375 0.010525986 0.019643005)
(-0.26836712 0.031944646 0.060006135)
(-0.45375964 0.057266845 0.094742474)
(-0.60393559 0.084540307 0.11345298)
(-0.67879774 0.11130047 0.11202044)
(-0.66548696 0.13639294 0.094290009)
(-0.5914733 0.15735028 0.072138079)
(-0.50475964 0.17175715 0.055747934)
(-0.43564912 0.17967932 0.048489073)
(-0.089075415 0.0085747409 0.019049158)
(-0.26954879 0.02603007 0.058207908)
(-0.45449112 0.046611174 0.091305815)
(-0.60164409 0.068633872 0.10814898)
(-0.67054846 0.090034207 0.10516005)
(-0.65008416 0.1099145 0.086719904)
(-0.5709594 0.1262127 0.06499172)
(-0.48295181 0.13706447 0.049908895)
(-0.41498076 0.14281071 0.043955465)
(-0.089277085 0.0063346856 0.018533329)
(-0.27000772 0.019241641 0.056656864)
(-0.45435143 0.034425847 0.088433383)
(-0.59899115 0.050592506 0.10385629)
(-0.66322448 0.066195132 0.099752326)
(-0.63727508 0.080586027 0.080887958)
(-0.55443906 0.09222069 0.059599915)
(-0.46571538 0.099769833 0.045607179)
(-0.39889236 0.10364248 0.040678358)
(-0.089381693 0.0039110689 0.018178589)
(-0.27015986 0.011868039 0.055575855)
(-0.4539209 0.021185961 0.086427483)
(-0.59669161 0.031050467 0.10088247)
(-0.65766587 0.040516649 0.096070226)
(-0.62796264 0.049200243 0.076988879)
(-0.5427398 0.056164524 0.056058715)
(-0.45368466 0.060602567 0.042848232)
(-0.38779251 0.062829961 0.038621097)
(-0.089356894 0.0012910774 0.017997962)
(-0.27008222 0.0039221374 0.055039384)
(-0.45353777 0.0070309761 0.085452925)
(-0.59539379 0.010347168 0.099449045)
(-0.6547474 0.013542786 0.094296116)
(-0.623143 0.016479742 0.075110015)
(-0.53670829 0.018830931 0.054357497)
(-0.44749183 0.020321104 0.041536177)
(-0.38209046 0.021067046 0.03765237)
(-0.089356895 -0.001291047 0.017997964)
(-0.27008222 -0.0039220764 0.055039411)
(-0.45353772 -0.0070308633 0.08545294)
(-0.59539372 -0.010347026 0.099449117)
(-0.65474744 -0.013542904 0.094296209)
(-0.62314305 -0.016480039 0.075110056)
(-0.53670836 -0.018831408 0.054357544)
(-0.4474919 -0.020321627 0.041536199)
(-0.38209047 -0.021067385 0.037652392)
(-0.089381699 -0.0039110652 0.018178598)
(-0.27015986 -0.011868021 0.055575849)
(-0.45392079 -0.021185908 0.086427446)
(-0.59669146 -0.031050405 0.10088261)
(-0.65766601 -0.040516788 0.096070433)
(-0.62796276 -0.0492005 0.076988958)
(-0.54273997 -0.056164923 0.056058826)
(-0.45368485 -0.060603001 0.042848289)
(-0.38779253 -0.062830213 0.038621144)
(-0.089277085 -0.0063346581 0.018533333)
(-0.2700077 -0.01924162 0.056656765)
(-0.45435132 -0.034425878 0.088433296)
(-0.59899105 -0.050592581 0.10385645)
(-0.66322471 -0.066195286 0.099752508)
(-0.63727519 -0.080586202 0.080887995)
(-0.55443925 -0.092220963 0.059600046)
(-0.46571562 -0.099770131 0.045607261)
(-0.39889241 -0.10364261 0.040678418)
(-0.089075404 -0.008574717 0.019049143)
(-0.26954876 -0.026030057 0.058207947)
(-0.4544911 -0.046611279 0.091305872)
(-0.60164411 -0.068634016 0.10814904)
(-0.67054867 -0.090034289 0.10516002)
(-0.65008417 -0.10991459 0.08671984)
(-0.57095952 -0.12621285 0.064991846)
(-0.48295202 -0.13706463 0.049909001)
(-0.41498084 -0.14281074 0.043955571)
(-0.088598384 -0.010526026 0.019643009)
(-0.26836717 -0.031944708 0.060006282)
(-0.45375976 -0.057266973 0.094742426)
(-0.60393564 -0.084540393 0.11345271)
(-0.67879779 -0.11130047 0.11202023)
(-0.6654869 -0.13639304 0.094289978)
(-0.59147331 -0.15735039 0.072138222)
(-0.50475976 -0.17175722 0.05574808)
(-0.43564922 -0.17967928 0.048489251)
(-0.087680264 -0.012060067 0.020248555)
(-0.26601102 -0.036628433 0.061861685)
(-0.45144086 -0.065835393 0.0984436)
(-0.60491796 -0.097607252 0.11941129)
(-0.68684463 -0.12921843 0.11999432)
(-0.68234505 -0.15923323 0.10334)
(-0.61501445 -0.184855 0.08088619)
(-0.53046204 -0.20310492 0.063081216)
(-0.46050839 -0.21357431 0.054295213)
(-0.086150106 -0.013099477 0.020779658)
(-0.26198731 -0.039879144 0.063529629)
(-0.44669554 -0.072001856 0.10202579)
(-0.60342407 -0.10743205 0.12556194)
(-0.69329159 -0.1433004 0.12863291)
(-0.6992653 -0.1778559 0.11352383)
(-0.64052481 -0.2080299 0.090989624)
(-0.55939948 -0.2304246 0.071816097)
(-0.4892519 -0.24385466 0.061378047)
(-0.083903515 -0.013682346 0.021211549)
(-0.25592455 -0.041757169 0.064883345)
(-0.43879258 -0.075785705 0.10517721)
(-0.59831406 -0.1139393 0.13142274)
(-0.69672501 -0.1533329 0.1373911)
(-0.71478744 -0.19190103 0.12436146)
(-0.66669672 -0.22640699 0.1021831)
(-0.59097976 -0.25309975 0.081873968)
(-0.52175052 -0.26984614 0.069729552)
(-0.080819595 -0.013834564 0.021324579)
(-0.24751637 -0.042386257 0.065328182)
(-0.42723815 -0.077340448 0.10707597)
(-0.58885741 -0.11720541 0.13612258)
(-0.69621778 -0.15924509 0.14551799)
(-0.72792712 -0.20117275 0.13530228)
(-0.6927324 -0.23964839 0.11415716)
(-0.62475111 -0.27061173 0.09315059)
(-0.55802764 -0.29090815 0.079387622)
(-0.076735914 -0.013359543 0.021073267)
(-0.23635001 -0.04129676 0.064780331)
(-0.41143037 -0.076118103 0.10755626)
(-0.57438089 -0.11677948 0.13936222)
(-0.69104018 -0.16065145 0.15261492)
(-0.73806816 -0.2052629 0.14589034)
(-0.71828792 -0.24714405 0.12652869)
(-0.66070613 -0.2820619 0.10540434)
(-0.59826562 -0.30608443 0.090326348)
(-0.071833026 -0.012676216 0.020656564)
(-0.22283641 -0.0394453 0.063624482)
(-0.39184537 -0.073251061 0.10687096)
(-0.55523847 -0.11356233 0.14095823)
(-0.68134465 -0.15800072 0.15793627)
(-0.74517714 -0.20416508 0.1551998)
(-0.74328483 -0.24845987 0.1385275)
(-0.69869547 -0.28663128 0.11811704)
(-0.64257407 -0.31418022 0.10242806)
(-0.066361066 -0.011116674 0.019132631)
(-0.20789185 -0.035302266 0.05942708)
(-0.37020578 -0.066846672 0.10155312)
(-0.53366882 -0.10576219 0.13726823)
(-0.6690212 -0.14993944 0.15843708)
(-0.74951654 -0.19678813 0.16083602)
(-0.7666778 -0.24266172 0.14815669)
(-0.73693692 -0.2832104 0.12930445)
(-0.68903674 -0.31384226 0.11362187)
(-0.1024245 0.0013856691 0.0012870477)
(-0.32076779 0.0044645225 0.0040391265)
(-0.57185651 0.0083021148 0.0069552462)
(-0.82693044 0.012480017 0.0094266394)
(-1.0427005 0.016236351 0.010582486)
(-1.1788931 0.018781076 0.0097111575)
(-1.2229634 0.019834133 0.0067814371)
(-1.1985061 0.019788939 0.0025614552)
(-1.1438852 0.019310583 -0.0022103799)
(-0.11214101 0.001673058 0.0013799584)
(-0.34760068 0.0053132399 0.0042839821)
(-0.61215205 0.0096917658 0.0072244289)
(-0.87109129 0.014216084 0.009467894)
(-1.076636 0.017989786 0.010089285)
(-1.1898935 0.020239324 0.0085358384)
(-1.2069034 0.020839677 0.005063325)
(-1.1609232 0.020259593 0.00065259697)
(-1.0949543 0.019202278 -0.0040534625)
(-0.12097339 0.0017884445 0.0012882404)
(-0.37188179 0.0056748454 0.0039944942)
(-0.64826268 0.010295751 0.0066378805)
(-0.90983717 0.014931799 0.0084642735)
(-1.1049516 0.018590448 0.0085812611)
(-1.1969444 0.020532818 0.0065838621)
(-1.1906688 0.020736027 0.0029810592)
(-1.1279039 0.019816595 -0.0010184482)
(-1.0544986 0.018649394 -0.0048087158)
(-0.12876918 0.0018334093 0.0011557032)
(-0.39298949 0.0058015109 0.0035659087)
(-0.67898798 0.010460967 0.0058020773)
(-0.94161312 0.01500897 0.0071244514)
(-1.1263246 0.018421064 0.0067195204)
(-1.1994048 0.020012829 0.0043856785)
(-1.1739396 0.01984673 0.00087227274)
(-1.098554 0.018695753 -0.0024628471)
(-1.0200059 0.01757017 -0.0051252175)
(-0.13518989 0.0017733615 0.00097953443)
(-0.41018637 0.0056220226 0.0030126838)
(-0.70352863 0.010121541 0.0047843901)
(-0.96591474 0.014433131 0.0056047913)
(-1.1406673 0.01753321 0.0047620598)
(-1.1973887 0.018803547 0.0022128434)
(-1.1564599 0.018389844 -0.0010883606)
(-1.0719372 0.017159238 -0.0036886595)
(-0.99027939 0.016159872 -0.005248172)
(-0.14045157 0.0016428623 0.00078046196)
(-0.42404094 0.0052248969 0.0023901825)
(-0.72274748 0.0094012922 0.0036745178)
(-0.98380766 0.013345602 0.0040228958)
(-1.1491064 0.016095402 0.0028326013)
(-1.1916523 0.017107416 0.00021067758)
(-1.138358 0.016570865 -0.0028171255)
(-1.0474795 0.015398551 -0.004707931)
(-0.96440854 0.014540577 -0.0052857867)
(-0.14469536 0.0014567977 0.00059249993)
(-0.43496443 0.0046496903 0.0017975944)
(-0.7373502 0.0083714713 0.0026201774)
(-0.99628511 0.011851256 0.0025460033)
(-1.1527833 0.014229448 0.0010898329)
(-1.1832538 0.015034304 -0.001530746)
(-1.1201863 0.014492055 -0.0042704892)
(-1.0249647 0.013463149 -0.0055337911)
(-0.94187202 0.012727447 -0.0052784359)
(-0.1479185 0.001224024 0.00042356845)
(-0.44311934 0.0039277939 0.0012654762)
(-0.74788053 0.0070913062 0.00168284)
(-1.0044048 0.010042099 0.0012583109)
(-1.1531974 0.012032693 -0.00038462222)
(-1.1737111 0.012670736 -0.0029581346)
(-1.1030653 0.01218382 -0.0054117206)
(-1.0049684 0.011331906 -0.0061348065)
(-0.92260802 0.010728941 -0.0052248521)
(-0.15025969 0.00096458871 0.00028421528)
(-0.44895266 0.0031132059 0.00082504898)
(-0.75516089 0.0056404719 0.00091134715)
(-1.0093743 0.0080010451 0.00021302427)
(-1.1518036 0.0095811526 -0.0015400257)
(-1.1644097 0.010085391 -0.0040613096)
(-1.0880526 0.009696781 -0.0062314546)
(-0.98808353 0.0090284584 -0.0065163313)
(-0.90675976 0.0085680575 -0.0051182856)
(-0.15186496 0.00069321104 0.00017741225)
(-0.45290817 0.0022495227 0.00048619204)
(-0.7599426 0.004090302 0.0003211621)
(-1.0122015 0.0058136436 -0.00057511454)
(-1.1497386 0.0069717137 -0.0024124017)
(-1.1564241 0.0073428065 -0.0048436246)
(-1.0760313 0.0070824341 -0.0067653715)
(-0.97486027 0.0065977162 -0.0066992813)
(-0.89455374 0.0062723909 -0.0049700259)
(-0.15303542 0.0004222355 0.00010556269)
(-0.45565774 0.0013719461 0.00025442103)
(-0.76306397 0.0024964269 -8.8151625e-05)
(-1.0137326 0.0035498009 -0.0011213434)
(-1.1477781 0.0042602557 -0.0029995026)
(-1.1504763 0.0044938851 -0.0053516067)
(-1.0675197 0.0043452248 -0.0070826287)
(-0.96570658 0.0040499017 -0.0067596193)
(-0.88622068 0.0038508958 -0.0048212463)
(-0.15344584 0.00014159086 7.1242419e-05)
(-0.45667916 0.00045976275 0.00014301251)
(-0.76425806 0.00083681828 -0.00028696158)
(-1.0142424 0.0011885888 -0.0013882646)
(-1.1466672 0.0014247733 -0.0032838467)
(-1.1474352 0.0015020632 -0.0055940677)
(-1.0631989 0.0014550573 -0.0072259564)
(-0.96107516 0.0013604995 -0.0067691907)
(-0.88200597 0.0012979819 -0.0047290774)
(-0.15344585 -0.0001415663 7.1241354e-05)
(-0.45667916 -0.00045971621 0.00014302344)
(-0.76425807 -0.00083675532 -0.00028696306)
(-1.0142424 -0.0011885139 -0.0013882544)
(-1.1466672 -0.001424826 -0.0032838287)
(-1.1474353 -0.0015022257 -0.0055940609)
(-1.063199 -0.0014553148 -0.0072259387)
(-0.96107524 -0.0013607304 -0.0067691825)
(-0.88200603 -0.0012980041 -0.0047290572)
(-0.15303543 -0.00042223106 0.00010556088)
(-0.45565776 -0.0013719336 0.00025442447)
(-0.76306398 -0.0024964031 -8.8183424e-05)
(-1.0137326 -0.00354977 -0.0011213307)
(-1.1477782 -0.0042603268 -0.0029994612)
(-1.1504764 -0.0044940624 -0.005351591)
(-1.0675198 -0.0043454798 -0.0070825858)
(-0.96570679 -0.0040501055 -0.0067596072)
(-0.88622083 -0.0038508701 -0.004821212)
(-0.15186497 -0.00069320676 0.00017740947)
(-0.4529082 -0.0022495232 0.0004861596)
(-0.75994263 -0.0040903206 0.00032108346)
(-1.0122015 -0.0058136787 -0.00057512917)
(-1.1497387 -0.0069718088 -0.0024123729)
(-1.1564242 -0.007343002 -0.0048436147)
(-1.0760315 -0.0070826788 -0.0067653285)
(-0.97486054 -0.0065978806 -0.0066992901)
(-0.89455394 -0.0062723086 -0.0049700193)
(-0.1502597 -0.00096457089 0.0002842127)
(-0.44895269 -0.0031131903 0.00082504032)
(-0.75516093 -0.0056405022 0.00091128626)
(-1.0093744 -0.0080011197 0.00021297151)
(-1.1518037 -0.0095812546 -0.0015400462)
(-1.1644098 -0.010085597 -0.004061317)
(-1.0880528 -0.009697009 -0.0062314322)
(-0.98808377 -0.0090285896 -0.0065163685)
(-0.90675996 -0.0085679491 -0.0051183039)
(-0.14791851 -0.0012240124 0.00042356978)
(-0.44311938 -0.0039277732 0.0012655088)
(-0.7478806 -0.0070913158 0.0016827974)
(-1.0044049 -0.010042161 0.0012582037)
(-1.1531975 -0.012032792 -0.00038468322)
(-1.1737111 -0.012670953 -0.0029581445)
(-1.1030654 -0.012184043 -0.00541172)
(-1.0049685 -0.011332027 -0.006134845)
(-0.92260819 -0.010728845 -0.0052248586)
(-0.14469537 -0.00145679 0.00059249993)
(-0.43496447 -0.0046496816 0.0017975861)
(-0.73735027 -0.008371476 0.0026201223)
(-0.99628512 -0.011851324 0.0025459234)
(-1.1527833 -0.014229587 0.0010898221)
(-1.1832537 -0.015034547 -0.0015307339)
(-1.1201864 -0.014492301 -0.004270494)
(-1.0249648 -0.013463285 -0.0055337841)
(-0.94187214 -0.012727368 -0.0052784089)
(-0.14045156 -0.0016428455 0.0007804535)
(-0.42404091 -0.0052248765 0.0023901621)
(-0.72274745 -0.0094012849 0.0036745075)
(-0.98380766 -0.013345675 0.0040228726)
(-1.1491064 -0.016095588 0.0028325938)
(-1.1916524 -0.017107685 0.00021066472)
(-1.1383581 -0.016571157 -0.0028171069)
(-1.0474796 -0.015398724 -0.0047078445)
(-0.96440861 -0.014540469 -0.005285737)
(-0.13518991 -0.0017733549 0.00097953501)
(-0.41018643 -0.0056220194 0.0030126981)
(-0.70352875 -0.010121555 0.004784396)
(-0.96591487 -0.014433195 0.0056047733)
(-1.1406673 -0.017533384 0.0047620455)
(-1.1973889 -0.018803814 0.0022128564)
(-1.1564601 -0.018390148 -0.0010882606)
(-1.0719373 -0.017159431 -0.0036885181)
(-0.99027939 -0.016159711 -0.0052481113)
(-0.12876918 -0.0018334133 0.0011557072)
(-0.39298949 -0.0058015302 0.0035659221)
(-0.67898797 -0.010461 0.0058020918)
(-0.9416131 -0.015009022 0.0071244795)
(-1.1263247 -0.018421204 0.0067195599)
(-1.199405 -0.020013079 0.0043857491)
(-1.1739398 -0.019846953 0.00087242166)
(-1.0985541 -0.018695867 -0.0024627142)
(-1.0200059 -0.017570064 -0.0051251612)
(-0.1209734 -0.0017884356 0.0012882384)
(-0.3718818 -0.0056748543 0.0039944725)
(-0.64826269 -0.010295782 0.0066378544)
(-0.90983717 -0.014931847 0.0084642644)
(-1.1049517 -0.018590548 0.0085812982)
(-1.1969444 -0.020533059 0.0065839433)
(-1.1906689 -0.020736222 0.0029812025)
(-1.1279041 -0.019816511 -0.0010183252)
(-1.0544986 -0.018649188 -0.0048087192)
(-0.11214102 -0.001673051 0.0013799552)
(-0.34760069 -0.0053132562 0.0042839628)
(-0.61215205 -0.0096918134 0.0072244182)
(-0.87109132 -0.014216163 0.0094679245)
(-1.0766362 -0.017989885 0.010089427)
(-1.1898937 -0.020239532 0.0085359791)
(-1.2069036 -0.020839927 0.0050633037)
(-1.1609235 -0.020259608 0.00065253306)
(-1.0949541 -0.019202089 -0.0040535065)
(-0.1024245 -0.0013856782 0.0012870563)
(-0.32076779 -0.0044645629 0.0040391534)
(-0.57185652 -0.008302209 0.0069553098)
(-0.82693045 -0.012480204 0.0094267462)
(-1.0427006 -0.01623661 0.010582654)
(-1.1788933 -0.018781405 0.0097112491)
(-1.2229636 -0.019834449 0.0067813327)
(-1.1985061 -0.019789155 0.0025613175)
(-1.143885 -0.019310688 -0.0022105303)
(-0.085226557 0.0010759399 0.00096548879)
(-0.26822702 0.0032585283 0.0028620831)
(-0.48096002 0.0056120432 0.0046449841)
(-0.69979831 0.0077707568 0.0056314094)
(-0.88627265 0.0093077836 0.0048958754)
(-1.0012276 0.0098584275 0.0017537367)
(-1.0289512 0.0092219859 -0.0035316849)
(-0.98921434 0.0075557822 -0.0095115356)
(-0.91989685 0.0053983513 -0.014263766)
(-0.092539082 0.0010628205 0.00083682335)
(-0.28861954 0.00313317 0.0024290176)
(-0.51191978 0.0052316244 0.0037700419)
(-0.73385493 0.0069495578 0.0041025891)
(-0.91133187 0.0078807731 0.0024223935)
(-1.0049998 0.0077282964 -0.0018874563)
(-1.0058959 0.0064231453 -0.0083175757)
(-0.94317591 0.0043638128 -0.014930893)
(-0.86024294 0.0023741484 -0.019677353)
(-0.099133575 0.0010359893 0.00069871045)
(-0.3069944 0.0029859328 0.0019807179)
(-0.53967421 0.0048505627 0.0029095364)
(-0.76392336 0.0062019129 0.0026985137)
(-0.93248627 0.0066876884 0.00029518494)
(-1.0064346 0.0061215887 -0.0048719444)
(-0.98379903 0.0045725525 -0.012104478)
(-0.9023631 0.002483667 -0.019124511)
(-0.81039167 0.00057206216 -0.023597696)
(-0.10487245 0.0009941708 0.00056998367)
(-0.32279422 0.002804543 0.0015676949)
(-0.56313061 0.0044357597 0.0021247117)
(-0.78853104 0.005458716 0.0014340656)
(-0.94834266 0.005583423 -0.0015901466)
(-1.0046799 0.0047359214 -0.007468897)
(-0.96214303 0.0030940284 -0.015319469)
(-0.86603234 0.0010847221 -0.022536105)
(-0.76790078 -0.00076291953 -0.026661181)
(-0.10946173 0.00092390699 0.00044519452)
(-0.33532824 0.0025617645 0.0011825527)
(-0.58142507 0.0039610383 0.0014212334)
(-0.80691187 0.0047091733 0.00034117808)
(-0.95839166 0.0045797461 -0.0031844136)
(-0.99939723 0.003567673 -0.0096440377)
(-0.94045644 0.0019138312 -0.017970673)
(-0.83327233 3.2490451e-05 -0.025251546)
(-0.73133302 -0.0016385162 -0.029016193)
(-0.11310243 0.00083538138 0.00032560906)
(-0.34509286 0.0022831088 0.00082534366)
(-0.59524039 0.0034604815 0.00079778217)
(-0.81979344 0.003987839 -0.00058349716)
(-0.96327524 0.0036852801 -0.0044951592)
(-0.99094533 0.0026114513 -0.011404041)
(-0.91864642 0.0010426532 -0.020076202)
(-0.80346072 -0.00066588663 -0.027353545)
(-0.69956809 -0.0020912773 -0.0308051)
(-0.11593791 0.00073088027 0.00022191698)
(-0.35249341 0.0019696681 0.00052047329)
(-0.60523938 0.0029279173 0.00027692877)
(-0.82806016 0.0032733153 -0.0013382887)
(-0.96400771 0.0028718941 -0.0055416299)
(-0.98019884 0.001837752 -0.012788647)
(-0.89716543 0.00043590451 -0.021696775)
(-0.77648383 -0.001056383 -0.028936283)
(-0.67197763 -0.0022122793 -0.032149999)
(-0.11799119 0.00061362341 0.00013399952)
(-0.35772967 0.0016332865 0.00026761215)
(-0.61197384 0.0023845538 -0.00014127945)
(-0.83273805 0.002586109 -0.0019247171)
(-0.9620019 0.0021573615 -0.0063255776)
(-0.96858507 0.0012325563 -0.01385797)
(-0.87705993 5.05134e-05 -0.022881771)
(-0.75275026 -0.0011810854 -0.030072993)
(-0.6484365 -0.0020820939 -0.033143193)
(-0.11940031 0.0004859718 6.2187583e-05)
(-0.36123506 0.0012805638 6.4967109e-05)
(-0.61622394 0.0018413904 -0.00046601136)
(-0.83495951 0.0019423793 -0.0023636406)
(-0.95864954 0.0015407777 -0.0069080602)
(-0.95748917 0.00077539245 -0.014628399)
(-0.85943565 -0.00016764568 -0.023726011)
(-0.73275586 -0.0010955848 -0.030856359)
(-0.62907315 -0.0017751842 -0.033840806)
(-0.12031178 0.00035137563 7.2602589e-06)
(-0.36345065 0.00091872788 -8.738931e-05)
(-0.61873077 0.0013048994 -0.00070275897)
(-0.83570693 0.0013455766 -0.0026706128)
(-0.9550551 0.0010195348 -0.0073024881)
(-0.94804715 0.0004428801 -0.015143383)
(-0.84524438 -0.00024854396 -0.024295445)
(-0.71707669 -0.00087947997 -0.031382588)
(-0.61415347 -0.0013496683 -0.034305988)
(-0.12099943 0.00021266753 -2.9629754e-05)
(-0.36501131 0.00055280806 -0.00018873344)
(-0.62031983 0.00077791188 -0.00085813564)
(-0.83584401 0.00078850394 -0.0028680696)
(-0.95205162 0.00057573299 -0.0075500246)
(-0.94105903 0.00021568215 -0.015461677)
(-0.83519223 -0.00020541662 -0.024644108)
(-0.70621657 -0.00056993935 -0.031702691)
(-0.60397221 -0.00084515063 -0.034587433)
(-0.12119115 7.0274816e-05 -4.7121779e-05)
(-0.36547471 0.00018163573 -0.00023592452)
(-0.62077296 0.00025362723 -0.00092832832)
(-0.83566343 0.00025335322 -0.0029539115)
(-0.9504212 0.00017959141 -0.0076556737)
(-0.93750741 5.871743e-05 -0.015599781)
(-0.83013632 -8.1347073e-05 -0.024799409)
(-0.70074021 -0.00019936306 -0.031849303)
(-0.59883662 -0.00028856548 -0.034719078)
(-0.12119115 -7.026016e-05 -4.7122145e-05)
(-0.36547471 -0.00018161176 -0.00023592554)
(-0.62077296 -0.00025361108 -0.00092833062)
(-0.83566343 -0.00025337229 -0.0029539199)
(-0.95042121 -0.00017969629 -0.0076556777)
(-0.93750742 -5.894301e-05 -0.015599778)
(-0.83013634 8.1068963e-05 -0.024799403)
(-0.70074024 0.00019918554 -0.031849299)
(-0.59883665 0.00028866471 -0.03471908)
(-0.12099942 -0.00021265514 -2.9630638e-05)
(-0.3650113 -0.00055278743 -0.00018873593)
(-0.62031982 -0.00077789629 -0.00085814385)
(-0.83584402 -0.00078852518 -0.0028680909)
(-0.95205163 -0.0005758502 -0.0075500328)
(-0.94105908 -0.00021592244 -0.015461668)
(-0.83519231 0.00020512592 -0.024644093)
(-0.70621665 0.00056976046 -0.031702682)
(-0.60397229 0.00084526186 -0.034587444)
(-0.12031178 -0.00035136557 7.2587135e-06)
(-0.36345065 -0.00091870977 -8.7394609e-05)
(-0.61873078 -0.0013048839 -0.00070277561)
(-0.83570695 -0.0013456004 -0.0026706384)
(-0.95505512 -0.0010196685 -0.0073024921)
(-0.94804725 -0.00044314077 -0.015143367)
(-0.84524452 0.00024823441 -0.024295423)
(-0.71707681 0.00087929778 -0.031382581)
(-0.61415359 0.0013497921 -0.034306015)
(-0.11940032 -0.00048596065 6.2184949e-05)
(-0.36123508 -0.0012805453 6.4961611e-05)
(-0.61622396 -0.0018413789 -0.00046602724)
(-0.83495955 -0.0019424108 -0.0023636553)
(-0.95864958 -0.0015409282 -0.0069080515)
(-0.95748933 -0.00077567336 -0.014628374)
(-0.85943584 0.00016731738 -0.023725982)
(-0.73275603 0.0010953976 -0.030856352)
(-0.6290733 0.0017753143 -0.03384084)
(-0.1179912 -0.00061361243 0.00013399684)
(-0.35772969 -0.0016332705 0.00026761382)
(-0.61197388 -0.0023845527 -0.00014128937)
(-0.83273813 -0.002586155 -0.0019247223)
(-0.96200199 -0.0021575302 -0.0063255574)
(-0.96858529 -0.0012328591 -0.013857932)
(-0.87706014 -5.0857882e-05 -0.022881728)
(-0.75275045 0.0011808956 -0.030072976)
(-0.64843668 0.0020822306 -0.033143213)
(-0.11593791 -0.00073087086 0.00022191423)
(-0.35249342 -0.0019696567 0.00052046646)
(-0.60523942 -0.0029279229 0.00027690824)
(-0.82806028 -0.003273377 -0.0013382924)
(-0.96400783 -0.0028720843 -0.0055415917)
(-0.98019902 -0.0018380829 -0.012788581)
(-0.89716563 -0.00043626523 -0.021696705)
(-0.77648404 0.0010561963 -0.028936239)
(-0.67197785 0.0022124313 -0.032149993)
(-0.11310244 -0.00083537525 0.00032560783)
(-0.34509291 -0.0022831095 0.00082533594)
(-0.59524049 -0.003460505 0.00079778303)
(-0.8197936 -0.0039879291 -0.00058345444)
(-0.96327536 -0.0036854939 -0.0044950747)
(-0.99094541 -0.0026118062 -0.011403934)
(-0.91864658 -0.0010430215 -0.020076095)
(-0.80346093 0.00066570937 -0.027353456)
(-0.69956834 0.0020914535 -0.030805057)
(-0.10946174 -0.00092390981 0.00044519574)
(-0.33532827 -0.0025617868 0.0011825593)
(-0.58142513 -0.0039610956 0.001421269)
(-0.806912 -0.0047093081 0.00034124639)
(-0.95839181 -0.0045799885 -0.0031843106)
(-0.99939734 -0.0035680347 -0.0096438953)
(-0.94045663 -0.0019141813 -0.017970521)
(-0.83327254 -3.2642928e-05 -0.025251393)
(-0.73133325 0.0016387158 -0.029016058)
(-0.10487246 -0.00099417843 0.00056998796)
(-0.32279424 -0.0028045805 0.0015677032)
(-0.56313065 -0.0044358417 0.0021247421)
(-0.78853116 -0.005458881 0.0014341192)
(-0.94834289 -0.0055836888 -0.0015900299)
(-1.0046801 -0.0047362751 -0.0074687109)
(-0.96214327 -0.0030943532 -0.015319243)
(-0.86603254 -0.0010848348 -0.022535854)
(-0.76790092 0.00076313631 -0.026660926)
(-0.099133588 -0.0010360011 0.00069871808)
(-0.30699443 -0.0029859813 0.0019807342)
(-0.53967428 -0.0048506552 0.0029095787)
(-0.76392351 -0.0062020782 0.0026985918)
(-0.93248652 -0.0066879468 0.00029533998)
(-1.0064348 -0.0061219045 -0.0048717027)
(-0.98379919 -0.0045728182 -0.012104176)
(-0.90236316 -0.002483741 -0.019124177)
(-0.81039174 -0.00057185958 -0.023597381)
(-0.092539094 -0.0010628344 0.00083683485)
(-0.28861957 -0.0031332241 0.0024290461)
(-0.51191984 -0.0052317225 0.0037701049)
(-0.73385505 -0.0069497156 0.0041026996)
(-0.91133206 -0.0078809971 0.0024225848)
(-1.005 -0.0077285599 -0.0018871744)
(-1.0058961 -0.0064233618 -0.0083171987)
(-0.94317587 -0.0043639367 -0.014930433)
(-0.86024313 -0.0023741126 -0.019676945)
(-0.085226566 -0.0010759485 0.00096549645)
(-0.26822704 -0.0032585656 0.0028621089)
(-0.48096005 -0.0056121213 0.0046450412)
(-0.69979838 -0.007770899 0.0056315115)
(-0.88627275 -0.0093079916 0.0048960622)
(-1.0012277 -0.0098586724 0.0017540398)
(-1.0289514 -0.0092222201 -0.003531201)
(-0.98921426 -0.0075559783 -0.0095109406)
(-0.91989699 -0.0053983165 -0.014263485)
(-0.094657951 0.0002361351 0.00021858838)
(-0.29700507 0.00068792953 0.00062363137)
(-0.53074153 0.0010927226 0.00090855125)
(-0.76935312 0.0011440195 0.00086733471)
(-0.97143121 0.00036281373 0.00023624929)
(-1.096603 -0.0017210524 -0.0012283201)
(-1.1299131 -0.0051854382 -0.0036410309)
(-1.0930111 -0.0094717895 -0.0068030069)
(-1.0249902 -0.013696671 -0.010321396)
(-0.103049 0.00028607528 0.00023392833)
(-0.32039061 0.00081174604 0.0006514029)
(-0.566328 0.0012396306 0.00088703443)
(-0.80904645 0.0011853456 0.00068605334)
(-1.0025073 8.8123448e-05 -0.00025893422)
(-1.1064497 -0.0025378642 -0.0021962335)
(-1.112834 -0.0066596312 -0.005178975)
(-1.0527081 -0.011463587 -0.0088760952)
(-0.97041947 -0.015808627 -0.012844)
(-0.11066537 0.00032321449 0.00022760824)
(-0.34161715 0.00089747156 0.00061169707)
(-0.59852922 0.0013269397 0.00074896642)
(-0.84464813 0.0011713505 0.00035997392)
(-1.0298381 -0.00017177354 -0.00086766996)
(-1.1145446 -0.0031584716 -0.0031631655)
(-1.097656 -0.0076237744 -0.0065133834)
(-1.0185545 -0.012556222 -0.010428514)
(-0.9262369 -0.016741072 -0.01423287)
(-0.11734835 0.00032856123 0.00019796627)
(-0.36006011 0.00089181795 0.0005042472)
(-0.62614743 0.0012681241 0.00050009637)
(-0.87456068 0.00098483646 -0.0001055942)
(-1.0518691 -0.00057103264 -0.0016108055)
(-1.1196896 -0.003801561 -0.0042010045)
(-1.0833112 -0.0084307157 -0.0077799183)
(-0.9890937 -0.013313374 -0.011690282)
(-0.88914971 -0.017223239 -0.015106282)
(-0.12277651 0.0003076637 0.00015775208)
(-0.37496752 0.0008125702 0.00037029032)
(-0.64824252 0.0010957366 0.00022145528)
(-0.89792953 0.00067624008 -0.00058009959)
(-1.0679565 -0.0010406161 -0.0023095884)
(-1.1213036 -0.0043914847 -0.0051013913)
(-1.068927 -0.0090079958 -0.0087664706)
(-0.96296718 -0.01366145 -0.012521463)
(-0.85751352 -0.017153354 -0.015483586)
(-0.12716566 0.0002703701 0.00011426613)
(-0.38686719 0.00068999864 0.00023221283)
(-0.66552771 0.00086289298 -4.4475787e-05)
(-0.91547926 0.00032428142 -0.00099511163)
(-1.0786439 -0.0014721771 -0.002864339)
(-1.119542 -0.0047862138 -0.0057343091)
(-1.0541435 -0.0091857723 -0.0093307985)
(-0.93926193 -0.013464819 -0.012921197)
(-0.83011939 -0.016475567 -0.015496358)
(-0.1306606 0.00022394284 7.5774633e-05)
(-0.39616239 0.00054695241 0.00011356632)
(-0.6786463 0.0006136173 -0.00026231008)
(-0.92802816 -1.164229e-06 -0.0013117312)
(-1.0848009 -0.0017723002 -0.0032421773)
(-1.1151032 -0.0048901845 -0.0060768675)
(-1.0390734 -0.0089202601 -0.0096441479)
(-0.9175191 -0.012676574 -0.013009561)
(-0.80623396 -0.015183424 -0.01522729)
(-0.13326856 0.00017614202 4.5043959e-05)
(-0.40300954 0.00040873807 2.2715408e-05)
(-0.68807243 0.00039540636 -0.00042042601)
(-0.93647249 -0.00023253568 -0.0015208045)
(-1.0876685 -0.0018755763 -0.0034351876)
(-1.1090637 -0.0046650243 -0.0062699176)
(-1.0245675 -0.0081607248 -0.0097173986)
(-0.89809817 -0.011300791 -0.012843954)
(-0.78576303 -0.013313904 -0.014764382)
(-0.13512392 0.00013090622 2.2273849e-05)
(-0.40782505 0.00028747328 -4.2234251e-05)
(-0.69454178 0.00022749946 -0.0005264459)
(-0.9418492 -0.00035264154 -0.0016366543)
(-1.0883511 -0.0017622066 -0.0035475914)
(-1.102671 -0.0040900545 -0.0063003159)
(-1.0116343 -0.0069267739 -0.0096126119)
(-0.88160531 -0.0094067254 -0.012540636)
(-0.76888237 -0.01093369 -0.014238346)
(-0.13637224 8.9332393e-05 6.3208792e-06)
(-0.41104054 0.00018589624 -8.5648115e-05)
(-0.69876258 0.00011272634 -0.00059211609)
(-0.94506567 -0.0003555578 -0.0016993377)