/*--------------------------------*- C++ -*----------------------------------*\
  =========                 |
  \\      /  F ield         | OpenFOAM: The Open Source CFD Toolbox
   \\    /   O peration     | Website:  https://openfoam.org
    \\  /    A nd           | Version:  10
     \\/     M anipulation  |
\*---------------------------------------------------------------------------*/
FoamFile
{
    format      ascii;
    class       volScalarField;
    location    "7.2";
    object      T;
}
// * * * * * * * * * * * * * * * * * * * * * * * * * * * * * * * * * * * * * //

dimensions      [0 0 -1 0 0 0 0];

internalField   nonuniform List<scalar> 
100
(
0.0208647
0.0618546
0.100653
0.135886
0.166305
0.190833
0.2086
0.218978
0.221598
0.216368
0.203473
0.18337
0.156771
0.124618
0.0880504
0.0483637
0.00696368
-0.034683
-0.075101
-0.112859
-0.146618
-0.175184
-0.197543
-0.212904
-0.220724
-0.220724
-0.212904
-0.197543
-0.175183
-0.146618
-0.112858
-0.0751005
-0.0346824
0.00696424
0.0483642
0.0880508
0.124618
0.156771
0.18337
0.203473
0.216368
0.221598
0.218978
0.2086
0.190833
0.166305
0.135886
0.100653
0.0618541
0.0208643
-0.0208647
-0.0618545
-0.100653
-0.135886
-0.166305
-0.190833
-0.2086
-0.218978
-0.221598
-0.216368
-0.203473
-0.18337
-0.156771
-0.124618
-0.0880504
-0.0483637
-0.00696375
0.0346829
0.0751009
0.112858
0.146618
0.175183
0.197543
0.212904
0.220724
0.220724
0.212904
0.197543
0.175183
0.146618
0.112858
0.0751006
0.0346826
-0.00696415
-0.0483641
-0.0880508
-0.124618
-0.156771
-0.18337
-0.203473
-0.216368
-0.221598
-0.218978
-0.2086
-0.190833
-0.166305
-0.135886
-0.100653
-0.0618542
-0.0208643
)
;

boundaryField
{
    inlet
    {
        type            cyclic;
    }
    outlet
    {
        type            cyclic;
    }
    bottom
    {
        type            slip;
    }
    top
    {
        type            slip;
    }
    frontAndBack
    {
        type            empty;
    }
}


// ************************************************************************* //
