/*--------------------------------*- C++ -*----------------------------------*\
  =========                 |
  \\      /  F ield         | OpenFOAM: The Open Source CFD Toolbox
   \\    /   O peration     | Website:  https://openfoam.org
    \\  /    A nd           | Version:  10
     \\/     M anipulation  |
\*---------------------------------------------------------------------------*/
FoamFile
{
    format      ascii;
    class       volScalarField;
    location    "7.2";
    object      T_0;
}
// * * * * * * * * * * * * * * * * * * * * * * * * * * * * * * * * * * * * * //

dimensions      [0 0 -1 0 0 0 0];

internalField   nonuniform List<scalar> 
100
(
0.0214424
0.0635671
0.10344
0.139648
0.170909
0.196116
0.214375
0.22504
0.227733
0.222358
0.209106
0.188446
0.161111
0.128068
0.090488
0.0497026
0.00715647
-0.0356432
-0.0771802
-0.115983
-0.150677
-0.180033
-0.203012
-0.218799
-0.226834
-0.226834
-0.218798
-0.203012
-0.180033
-0.150677
-0.115982
-0.0771796
-0.0356426
0.00715704
0.0497031
0.0904885
0.128068
0.161111
0.188446
0.209106
0.222358
0.227733
0.22504
0.214375
0.196116
0.170909
0.139648
0.103439
0.0635665
0.0214419
-0.0214423
-0.0635669
-0.10344
-0.139648
-0.170909
-0.196116
-0.214375
-0.22504
-0.227733
-0.222358
-0.209106
-0.188446
-0.161111
-0.128068
-0.090488
-0.0497026
-0.00715654
0.0356431
0.0771801
0.115983
0.150677
0.180033
0.203012
0.218799
0.226834
0.226834
0.218798
0.203012
0.180033
0.150677
0.115983
0.0771797
0.0356427
-0.00715695
-0.0497031
-0.0904885
-0.128068
-0.161111
-0.188447
-0.209106
-0.222358
-0.227733
-0.22504
-0.214375
-0.196116
-0.170909
-0.139648
-0.103439
-0.0635666
-0.0214419
)
;

boundaryField
{
    inlet
    {
        type            cyclic;
    }
    outlet
    {
        type            cyclic;
    }
    bottom
    {
        type            slip;
    }
    top
    {
        type            slip;
    }
    frontAndBack
    {
        type            empty;
    }
}


// ************************************************************************* //
