/*--------------------------------*- C++ -*----------------------------------*\
  =========                 |
  \\      /  F ield         | OpenFOAM: The Open Source CFD Toolbox
   \\    /   O peration     | Website:  https://openfoam.org
    \\  /    A nd           | Version:  10
     \\/     M anipulation  |
\*---------------------------------------------------------------------------*/
FoamFile
{
    format      ascii;
    class       volScalarField;
    location    "1.6";
    object      T;
}
// * * * * * * * * * * * * * * * * * * * * * * * * * * * * * * * * * * * * * //

dimensions      [0 0 -1 0 0 0 0];

internalField   nonuniform List<scalar> 
100
(
-0.0665274
-0.197224
-0.320934
-0.433274
-0.530266
-0.608472
-0.665124
-0.698212
-0.706567
-0.68989
-0.648775
-0.584676
-0.499864
-0.397345
-0.280749
-0.154208
-0.0222039
0.110587
0.23946
0.35985
0.467492
0.558573
0.629866
0.678846
0.703778
0.703778
0.678846
0.629866
0.558572
0.467491
0.359849
0.239459
0.110585
-0.0222052
-0.154209
-0.28075
-0.397346
-0.499865
-0.584676
-0.648775
-0.68989
-0.706566
-0.698212
-0.665123
-0.608471
-0.530264
-0.433273
-0.320932
-0.197222
-0.0665258
0.0665273
0.197224
0.320933
0.433274
0.530265
0.608472
0.665123
0.698212
0.706566
0.68989
0.648774
0.584675
0.499864
0.397344
0.280749
0.154208
0.0222037
-0.110587
-0.23946
-0.35985
-0.467492
-0.558573
-0.629866
-0.678846
-0.703778
-0.703778
-0.678846
-0.629866
-0.558572
-0.467491
-0.359848
-0.239458
-0.110585
0.0222054
0.154209
0.28075
0.397346
0.499865
0.584676
0.648775
0.689891
0.706567
0.698212
0.665123
0.608472
0.530265
0.433273
0.320932
0.197222
0.0665259
)
;

boundaryField
{
    inlet
    {
        type            cyclic;
    }
    outlet
    {
        type            cyclic;
    }
    bottom
    {
        type            slip;
    }
    top
    {
        type            slip;
    }
    frontAndBack
    {
        type            empty;
    }
}


// ************************************************************************* //
