/*--------------------------------*- C++ -*----------------------------------*\
  =========                 |
  \\      /  F ield         | OpenFOAM: The Open Source CFD Toolbox
   \\    /   O peration     | Website:  https://openfoam.org
    \\  /    A nd           | Version:  10
     \\/     M anipulation  |
\*---------------------------------------------------------------------------*/
FoamFile
{
    format      ascii;
    class       volScalarField;
    location    "1.6";
    object      T_0;
}
// * * * * * * * * * * * * * * * * * * * * * * * * * * * * * * * * * * * * * //

dimensions      [0 0 -1 0 0 0 0];

internalField   nonuniform List<scalar> 
100
(
-0.0671607
-0.199101
-0.323989
-0.437399
-0.535314
-0.614265
-0.671456
-0.704859
-0.713293
-0.696458
-0.654951
-0.590242
-0.504623
-0.401127
-0.283422
-0.155676
-0.0224153
0.111639
0.241739
0.363275
0.471942
0.563891
0.635863
0.685309
0.710478
0.710478
0.685309
0.635862
0.56389
0.471942
0.363275
0.241738
0.111638
-0.0224166
-0.155677
-0.283423
-0.401128
-0.504624
-0.590242
-0.654951
-0.696458
-0.713293
-0.704859
-0.671455
-0.614264
-0.535313
-0.437398
-0.323987
-0.1991
-0.0671592
0.0671607
0.199101
0.323989
0.437399
0.535314
0.614265
0.671455
0.704859
0.713293
0.696458
0.654951
0.590241
0.504623
0.401127
0.283422
0.155676
0.0224151
-0.11164
-0.24174
-0.363276
-0.471943
-0.563891
-0.635863
-0.685309
-0.710478
-0.710478
-0.685309
-0.635862
-0.56389
-0.471941
-0.363274
-0.241738
-0.111638
0.0224168
0.155677
0.283423
0.401129
0.504624
0.590243
0.654952
0.696459
0.713293
0.704859
0.671455
0.614264
0.535313
0.437398
0.323988
0.1991
0.0671593
)
;

boundaryField
{
    inlet
    {
        type            cyclic;
    }
    outlet
    {
        type            cyclic;
    }
    bottom
    {
        type            slip;
    }
    top
    {
        type            slip;
    }
    frontAndBack
    {
        type            empty;
    }
}


// ************************************************************************* //
