/*--------------------------------*- C++ -*----------------------------------*\
  =========                 |
  \\      /  F ield         | OpenFOAM: The Open Source CFD Toolbox
   \\    /   O peration     | Website:  https://openfoam.org
    \\  /    A nd           | Version:  10
     \\/     M anipulation  |
\*---------------------------------------------------------------------------*/
FoamFile
{
    format      ascii;
    class       volScalarField;
    location    "7.9";
    object      T_0;
}
// * * * * * * * * * * * * * * * * * * * * * * * * * * * * * * * * * * * * * //

dimensions      [0 0 -1 0 0 0 0];

internalField   nonuniform List<scalar> 
100
(
-0.00127259
-0.00377272
-0.00613921
-0.0082882
-0.0101436
-0.0116396
-0.0127233
-0.0133563
-0.0135161
-0.0131971
-0.0124106
-0.0111844
-0.00956205
-0.00760091
-0.0053705
-0.00294983
-0.000424647
0.00211559
0.00458088
0.0068839
0.00894306
0.0106854
0.0120492
0.0129862
0.0134631
0.0134631
0.0129862
0.0120492
0.0106854
0.00894302
0.00688384
0.0045808
0.00211548
-0.000424776
-0.00294999
-0.00537069
-0.00760113
-0.0095623
-0.0111847
-0.0124109
-0.0131975
-0.0135165
-0.0133566
-0.0127236
-0.0116399
-0.0101438
-0.00828842
-0.00613937
-0.00377283
-0.00127264
0.00127264
0.00377283
0.00613937
0.00828842
0.0101438
0.0116399
0.0127236
0.0133566
0.0135164
0.0131974
0.0124109
0.0111847
0.00956227
0.0076011
0.00537065
0.00294995
0.000424741
-0.00211552
-0.00458083
-0.00688386
-0.00894304
-0.0106854
-0.0120492
-0.0129862
-0.0134631
-0.0134631
-0.0129862
-0.0120492
-0.0106854
-0.00894301
-0.00688384
-0.00458082
-0.00211552
0.000424711
0.00294989
0.00537056
0.00760097
0.00956211
0.0111845
0.0124107
0.0131972
0.0135162
0.0133564
0.0127234
0.0116397
0.0101436
0.00828824
0.00613924
0.00377276
0.00127263
)
;

boundaryField
{
    inlet
    {
        type            cyclic;
    }
    outlet
    {
        type            cyclic;
    }
    bottom
    {
        type            slip;
    }
    top
    {
        type            slip;
    }
    frontAndBack
    {
        type            empty;
    }
}


// ************************************************************************* //
