/*--------------------------------*- C++ -*----------------------------------*\
| =========                 |                                                 |
| \\      /  F ield         | OpenFOAM: The Open Source CFD Toolbox           |
|  \\    /   O peration     | Version:  2406                                  |
|   \\  /    A nd           | Website:  www.openfoam.com                      |
|    \\/     M anipulation  |                                                 |
\*---------------------------------------------------------------------------*/
FoamFile
{
    version     2.0;
    format      ascii;
    arch        "LSB;label=32;scalar=64";
    class       volScalarField;
    location    "15";
    object      p;
}
// * * * * * * * * * * * * * * * * * * * * * * * * * * * * * * * * * * * * * //

dimensions      [0 2 -2 0 0 0 0];

internalField   nonuniform List<scalar> 
34560
(
34.333585
34.329391
34.323978
34.317345
34.309529
34.303577
34.303857
34.313531
34.329504
34.371722
34.366694
34.359511
34.350135
34.339363
34.331472
34.331298
34.341411
34.357803
34.419852
34.414153
34.405468
34.393104
34.377904
34.36562
34.362333
34.370293
34.384737
34.468553
34.462096
34.451887
34.436887
34.417899
34.401059
34.393322
34.396705
34.407415
34.518833
34.511774
34.499945
34.481623
34.457884
34.43569
34.42261
34.420889
34.427278
34.572421
34.564667
34.551143
34.529124
34.499437
34.4703
34.450689
34.443558
34.445302
34.62936
34.620562
34.605063
34.578797
34.54245
34.505218
34.477873
34.464245
34.461121
34.690853
34.680429
34.661995
34.630704
34.586331
34.539536
34.503423
34.482994
34.475413
34.757012
34.744015
34.721664
34.684718
34.630924
34.573179
34.527595
34.500586
34.489353
34.825615
34.80931
34.782132
34.73856
34.674817
34.605578
34.550598
34.517817
34.503494
34.886664
34.867749
34.83571
34.784703
34.713
34.633638
34.570501
34.533055
34.516507
34.924954
34.903869
34.868581
34.813083
34.736615
34.650942
34.582787
34.542565
34.525199
34.924954
34.903869
34.868581
34.813083
34.736615
34.650943
34.582787
34.542565
34.5252
34.886665
34.86775
34.835711
34.784704
34.713001
34.633639
34.570502
34.533056
34.516508
34.825615
34.80931
34.782134
34.738562
34.674819
34.60558
34.5506
34.517819
34.503496
34.75701
34.744015
34.721666
34.68472
34.630928
34.573183
34.527599
34.500588
34.489355
34.690853
34.680431
34.661998
34.630708
34.586336
34.539541
34.503427
34.482998
34.475416
34.629365
34.620566
34.605068
34.578802
34.542455
34.505223
34.477878
34.46425
34.461126
34.572429
34.564673
34.551149
34.52913
34.499443
34.470306
34.450696
34.443564
34.445309
34.51884
34.511781
34.499952
34.48163
34.457892
34.435697
34.422618
34.420897
34.427286
34.468561
34.462104
34.451895
34.436895
34.417907
34.401068
34.393329
34.396714
34.407425
34.419861
34.414162
34.405478
34.393114
34.377914
34.36563
34.362342
34.370302
34.384748
34.371732
34.366704
34.359522
34.350146
34.339374
34.331482
34.331309
34.341421
34.357818
34.333595
34.329402
34.323989
34.317356
34.30954
34.303589
34.30387
34.313547
34.329524
31.725667
31.726328
31.726798
31.726902
31.726666
31.726648
31.727526
31.729332
31.732229
31.71658
31.717545
31.718341
31.718782
31.718995
31.719843
31.722115
31.725541
31.729376
31.708422
31.70972
31.71074
31.711198
31.711419
31.712647
31.715738
31.71995
31.723819
31.702542
31.704234
31.705491
31.70581
31.705693
31.706812
31.710154
31.71458
31.718258
31.699515
31.701614
31.70309
31.703122
31.702365
31.702967
31.706088
31.710322
31.713692
31.699499
31.702096
31.703785
31.703432
31.701712
31.701383
31.703937
31.707775
31.710795
31.703623
31.706717
31.708434
31.707602
31.704613
31.702963
31.704635
31.707889
31.710564
31.712614
31.716164
31.717906
31.716323
31.711896
31.708704
31.709341
31.711971
31.714298
31.726399
31.730363
31.732121
31.729404
31.723657
31.719121
31.718916
31.721055
31.723005
31.743223
31.747512
31.749172
31.745377
31.738581
31.733341
31.732899
31.734921
31.73656
31.760075
31.764564
31.766211
31.761698
31.753545
31.748381
31.748358
31.75066
31.752131
31.771255
31.775743
31.777315
31.772286
31.763302
31.758564
31.759062
31.761677
31.763094
31.771255
31.775743
31.777315
31.772286
31.763302
31.758565
31.759062
31.761677
31.763094
31.760075
31.764564
31.766212
31.761699
31.753546
31.748382
31.748359
31.750661
31.752132
31.743223
31.747513
31.749174
31.745378
31.738583
31.733343
31.732902
31.734923
31.736562
31.7264
31.730364
31.732123
31.729407
31.723661
31.719125
31.718919
31.721058
31.723007
31.712617
31.716166
31.71791
31.716327
31.711901
31.708709
31.709347
31.711975
31.714301
31.703628
31.706722
31.708439
31.707608
31.70462
31.702969
31.704641
31.707895
31.710569
31.699507
31.702103
31.703793
31.70344
31.70172
31.70139
31.703945
31.707782
31.710802
31.699524
31.701623
31.703099
31.703131
31.702374
31.702975
31.706097
31.71033
31.713699
31.702552
31.704244
31.705502
31.705821
31.705704
31.706822
31.710163
31.714589
31.718266
31.708433
31.709731
31.710752
31.711211
31.711432
31.712659
31.715749
31.71996
31.723828
31.716593
31.717558
31.718355
31.718796
31.719009
31.719857
31.722128
31.725552
31.729386
31.725681
31.726342
31.726813
31.726917
31.726681
31.726663
31.72754
31.729344
31.732242
30.844298
30.844335
30.844337
30.844188
30.843925
30.843724
30.843791
30.844313
30.845086
30.848276
30.848301
30.848249
30.847974
30.847509
30.847043
30.846816
30.847061
30.84769
30.85211
30.852159
30.852113
30.85178
30.851169
30.850453
30.8499
30.849818
30.85027
30.855964
30.856042
30.856012
30.855643
30.85491
30.853952
30.85305
30.852595
30.85279
30.859904
30.860017
30.860011
30.859614
30.858749
30.857527
30.856237
30.855364
30.855233
30.863878
30.864046
30.864084
30.863672
30.862689
30.861174
30.859455
30.858121
30.857622
30.867908
30.868135
30.868222
30.867799
30.866687
30.864858
30.862684
30.860872
30.859987
30.871914
30.872208
30.872351
30.87192
30.87067
30.868531
30.865895
30.863618
30.862357
30.875769
30.876138
30.876342
30.875896
30.874508
30.872075
30.86901
30.866314
30.864703
30.879251
30.879707
30.879985
30.879514
30.877976
30.87526
30.871852
30.868802
30.866901
30.882036
30.882578
30.882933
30.88244
30.880721
30.877762
30.874092
30.870799
30.868694
30.883653
30.884246
30.884644
30.88413
30.882265
30.879149
30.875334
30.871916
30.869711
30.883654
30.884246
30.884644
30.88413
30.882266
30.87915
30.875335
30.871916
30.869711
30.882037
30.88258
30.882934
30.882442
30.880723
30.877763
30.874094
30.8708
30.868695
30.879253
30.879709
30.879987
30.879516
30.877979
30.875262
30.871854
30.868805
30.866903
30.875772
30.87614
30.876346
30.8759
30.874512
30.872079
30.869014
30.866317
30.864705
30.871918
30.872212
30.872355
30.871925
30.870675
30.868536
30.8659
30.863622
30.86236
30.867914
30.868141
30.868228
30.867805
30.866694
30.864864
30.86269
30.860878
30.859992
30.863886
30.864053
30.864091
30.863679
30.862697
30.861182
30.859463
30.858128
30.857628
30.859913
30.860026
30.86002
30.859623
30.858758
30.857536
30.856246
30.855372
30.85524
30.855974
30.856053
30.856023
30.855654
30.854921
30.853963
30.85306
30.852605
30.852798
30.852123
30.852172
30.852126
30.851793
30.851182
30.850466
30.849912
30.849829
30.850279
30.84829
30.848316
30.848264
30.847989
30.847524
30.847058
30.84683
30.847074
30.847701
30.844314
30.844352
30.844353
30.844204
30.843942
30.84374
30.843807
30.844328
30.845098
29.188223
29.188108
29.187993
29.187934
29.187915
29.187876
29.187753
29.187517
29.187347
29.188572
29.188443
29.188321
29.188273
29.188279
29.188269
29.188175
29.187983
29.187806
29.188978
29.18884
29.188716
29.188684
29.188717
29.188731
29.188641
29.188416
29.188118
29.189531
29.18939
29.189268
29.189247
29.189294
29.189314
29.1892
29.188903
29.18847
29.19019
29.190052
29.189936
29.189929
29.189991
29.190008
29.189858
29.18948
29.188915
29.190897
29.190771
29.190674
29.190694
29.19078
29.190799
29.19061
29.190146
29.189459
29.191678
29.191567
29.191492
29.19154
29.191652
29.191675
29.191445
29.190895
29.190087
29.192487
29.192396
29.192346
29.192424
29.192562
29.192588
29.192321
29.191689
29.190767
29.193275
29.193207
29.193183
29.193288
29.193453
29.193482
29.193184
29.192477
29.191451
29.193971
29.193923
29.193924
29.194059
29.194243
29.194281
29.193959
29.193191
29.192073
29.194495
29.194464
29.194486
29.194643
29.194846
29.194891
29.194554
29.193739
29.192556
29.194794
29.194769
29.1948
29.194965
29.195176
29.195225
29.19488
29.194041
29.192823
29.194794
29.19477
29.1948
29.194965
29.195177
29.195226
29.194881
29.194042
29.192823
29.194496
29.194466
29.194488
29.194644
29.194847
29.194893
29.194556
29.193741
29.192557
29.193973
29.193926
29.193927
29.194062
29.194246
29.194284
29.193961
29.193193
29.192075
29.193278
29.19321
29.193187
29.193292
29.193456
29.193486
29.193188
29.19248
29.191454
29.192491
29.1924
29.192351
29.192428
29.192567
29.192593
29.192326
29.191693
29.19077
29.191683
29.191573
29.191498
29.191546
29.191658
29.191681
29.191451
29.1909
29.190091
29.190903
29.190778
29.190681
29.190702
29.190788
29.190807
29.190617
29.190152
29.189464
29.190199
29.19006
29.189945
29.189939
29.19
29.190017
29.189867
29.189487
29.188921
29.189541
29.189401
29.189279
29.189258
29.189305
29.189325
29.18921
29.188912
29.188477
29.188991
29.188853
29.188729
29.188697
29.18873
29.188744
29.188653
29.188427
29.188127
29.188587
29.188458
29.188336
29.188288
29.188294
29.188284
29.188189
29.187997
29.187817
29.188239
29.188125
29.188009
29.18795
29.187932
29.187893
29.187769
29.187533
29.18736
27.840358
27.840369
27.840366
27.840323
27.840242
27.840155
27.840117
27.840169
27.840312
27.840784
27.840795
27.840785
27.840724
27.840622
27.840523
27.840488
27.840562
27.840724
27.841068
27.841083
27.841074
27.841009
27.840896
27.840788
27.840751
27.840829
27.840987
27.841274
27.841295
27.84129
27.841222
27.841106
27.840987
27.840943
27.841015
27.841172
27.841408
27.841434
27.841434
27.841368
27.84125
27.841128
27.841075
27.841137
27.841301
27.841471
27.841504
27.84151
27.841446
27.841327
27.841204
27.841145
27.841198
27.841356
27.841485
27.841525
27.841536
27.841474
27.841351
27.841218
27.841149
27.84119
27.84134
27.841463
27.84151
27.841527
27.841466
27.841337
27.841193
27.841105
27.841129
27.841268
27.841421
27.841474
27.841497
27.841438
27.841303
27.84114
27.84103
27.841033
27.84116
27.841372
27.841432
27.841461
27.841403
27.841258
27.841076
27.840942
27.840926
27.841043
27.841333
27.8414
27.841434
27.841375
27.841221
27.841022
27.840866
27.840835
27.840943
27.841315
27.841385
27.841421
27.841361
27.841203
27.840992
27.840824
27.840782
27.840885
27.841315
27.841385
27.841422
27.841362
27.841203
27.840993
27.840824
27.840783
27.840885
27.841335
27.841401
27.841435
27.841376
27.841223
27.841024
27.840868
27.840836
27.840944
27.841374
27.841435
27.841464
27.841406
27.841261
27.841079
27.840945
27.840928
27.841044
27.841424
27.841477
27.8415
27.841442
27.841307
27.841144
27.841034
27.841037
27.841163
27.841468
27.841514
27.841531
27.841471
27.841343
27.841198
27.84111
27.841134
27.841271
27.841491
27.841531
27.841542
27.841481
27.841357
27.841225
27.841156
27.841196
27.841345
27.841478
27.841512
27.841518
27.841454
27.841335
27.841212
27.841153
27.841205
27.841362
27.841417
27.841444
27.841444
27.841378
27.84126
27.841138
27.841085
27.841146
27.841308
27.841285
27.841306
27.841301
27.841234
27.841117
27.840999
27.840954
27.841025
27.841182
27.841081
27.841096
27.841088
27.841022
27.84091
27.840801
27.840764
27.840841
27.840998
27.840799
27.84081
27.8408
27.84074
27.840638
27.840538
27.840503
27.840576
27.840738
27.840375
27.840386
27.840383
27.84034
27.840259
27.840172
27.840133
27.840185
27.840327
26.391884
26.391867
26.391851
26.391843
26.391839
26.391831
26.391807
26.391754
26.391686
26.392028
26.39201
26.391994
26.391986
26.391984
26.391974
26.391942
26.391879
26.391793
26.392169
26.39215
26.392135
26.39213
26.392128
26.392112
26.392068
26.391988
26.391889
26.392336
26.392317
26.392303
26.392299
26.392298
26.392281
26.39223
26.392143
26.392045
26.39252
26.392502
26.39249
26.39249
26.392492
26.39248
26.39243
26.392337
26.39222
26.392702
26.392687
26.392678
26.392684
26.392694
26.392686
26.392636
26.392534
26.392395
26.39288
26.392867
26.392863
26.392874
26.392891
26.392889
26.392839
26.392731
26.392593
26.393044
26.393034
26.393033
26.393051
26.393075
26.39308
26.393034
26.392935
26.392806
26.393189
26.393181
26.393184
26.393206
26.393238
26.393251
26.393217
26.393129
26.392992
26.393306
26.3933
26.393306
26.393334
26.393373
26.393397
26.393375
26.393286
26.39314
26.393389
26.393384
26.393392
26.393424
26.39347
26.393502
26.393485
26.393394
26.393242
26.393433
26.393429
26.393438
26.393471
26.39352
26.393556
26.393541
26.393451
26.393295
26.393434
26.393429
26.393438
26.393471
26.39352
26.393557
26.393542
26.393451
26.393295
26.39339
26.393385
26.393394
26.393425
26.393471
26.393504
26.393486
26.393396
26.393243
26.393309
26.393302
26.393309
26.393336
26.393376
26.3934
26.393378
26.393288
26.393141
26.393193
26.393185
26.393188
26.39321
26.393242
26.393255
26.393221
26.393133
26.392994
26.393049
26.393039
26.393039
26.393056
26.39308
26.393085
26.393039
26.392939
26.392809
26.392886
26.392874
26.392869
26.392881
26.392898
26.392896
26.392846
26.392736
26.392597
26.39271
26.392695
26.392687
26.392693
26.392703
26.392695
26.392645
26.392541
26.3924
26.39253
26.392513
26.392501
26.392501
26.392504
26.392491
26.39244
26.392346
26.392227
26.392348
26.39233
26.392316
26.392313
26.392311
26.392294
26.392242
26.392154
26.392054
26.392184
26.392166
26.39215
26.392145
26.392144
26.392128
26.392083
26.392001
26.391901
26.392046
26.392028
26.392012
26.392004
26.392001
26.391991
26.391959
26.391895
26.391807
26.391904
26.391887
26.391871
26.391862
26.391858
26.391851
26.391826
26.391772
26.391703
24.964647
24.964646
24.964641
24.964631
24.964616
24.964596
24.964577
24.964567
24.964581
24.964751
24.964749
24.964743
24.964731
24.964714
24.964694
24.964679
24.964677
24.964695
24.964815
24.964814
24.964808
24.964797
24.964781
24.964763
24.964753
24.964756
24.964773
24.964864
24.964864
24.964859
24.964848
24.964833
24.964818
24.964811
24.964818
24.96484
24.964897
24.964898
24.964895
24.964886
24.964873
24.964861
24.964858
24.96487
24.964897
24.964915
24.964917
24.964916
24.964909
24.9649
24.964891
24.964892
24.964909
24.964944
24.964923
24.964927
24.964927
24.964923
24.964916
24.96491
24.964914
24.964932
24.964949
24.964922
24.964927
24.96493
24.964928
24.964923
24.964919
24.964923
24.964924
24.964917
24.964915
24.964922
24.964926
24.964926
24.964923
24.964919
24.964913
24.964898
24.964885
24.964905
24.964913
24.964919
24.96492
24.964916
24.964909
24.964894
24.964875
24.964861
24.964895
24.964905
24.964912
24.964913
24.964909
24.964898
24.96488
24.96486
24.964844
24.96489
24.9649
24.964908
24.96491
24.964906
24.964893
24.964874
24.964853
24.964836
24.964891
24.964901
24.964908
24.964911
24.964906
24.964893
24.964875
24.964853
24.964836
24.964896
24.964906
24.964913
24.964915
24.964911
24.9649
24.964882
24.964861
24.964845
24.964907
24.964915
24.964921
24.964923
24.964919
24.964912
24.964896
24.964877
24.964862
24.964918
24.964926
24.96493
24.96493
24.964927
24.964923
24.964917
24.964901
24.964887
24.964927
24.964932
24.964935
24.964933
24.964929
24.964925
24.964928
24.964929
24.964919
24.964929
24.964933
24.964934
24.96493
24.964923
24.964918
24.964921
24.964938
24.964952
24.964923
24.964926
24.964925
24.964919
24.964909
24.964901
24.964901
24.964917
24.964948
24.964908
24.964909
24.964907
24.964898
24.964885
24.964873
24.964869
24.964879
24.964904
24.964878
24.964878
24.964874
24.964864
24.964849
24.964833
24.964825
24.96483
24.964848
24.964833
24.964832
24.964826
24.964815
24.964799
24.964781
24.96477
24.96477
24.964784
24.964772
24.96477
24.964764
24.964752
24.964735
24.964715
24.964699
24.964695
24.964709
24.96467
24.964668
24.964664
24.964654
24.964639
24.964619
24.9646
24.964588
24.964599
23.542381
23.54238
23.542379
23.542377
23.542374
23.54237
23.542365
23.542361
23.542357
23.542413
23.542412
23.542411
23.542409
23.542405
23.542401
23.542396
23.542394
23.542394
23.54244
23.542439
23.542439
23.542437
23.542434
23.542429
23.542423
23.542419
23.542417
23.54247
23.54247
23.54247
23.542469
23.542465
23.54246
23.542453
23.542447
23.542444
23.5425
23.5425
23.542501
23.5425
23.542498
23.542492
23.542485
23.542478
23.542473
23.542528
23.542529
23.542531
23.542531
23.54253
23.542525
23.542518
23.54251
23.542505
23.542555
23.542557
23.542559
23.542561
23.54256
23.542556
23.54255
23.542542
23.542536
23.54258
23.542582
23.542585
23.542588
23.542588
23.542586
23.54258
23.542573
23.542567
23.542602
23.542604
23.542608
23.542611
23.542613
23.542612
23.542608
23.542602
23.542596
23.54262
23.542622
23.542627
23.542631
23.542633
23.542633
23.542631
23.542627
23.542623
23.542632
23.542635
23.54264
23.542644
23.542647
23.542649
23.542649
23.542646
23.542644
23.542639
23.542642
23.542647
23.542652
23.542655
23.542658
23.542658
23.542658
23.542655
23.54264
23.542643
23.542647
23.542652
23.542656
23.542658
23.542659
23.542658
23.542655
23.542634
23.542636
23.542641
23.542646
23.542649
23.542651
23.54265
23.542648
23.542645
23.542622
23.542625
23.542629
23.542633
23.542636
23.542636
23.542634
23.542629
23.542624
23.542605
23.542608
23.542612
23.542615
23.542617
23.542616
23.542612
23.542605
23.542598
23.542585
23.542587
23.542591
23.542593
23.542594
23.542592
23.542586
23.542578
23.542569
23.542562
23.542563
23.542566
23.542568
23.542568
23.542564
23.542557
23.542548
23.54254
23.542536
23.542538
23.54254
23.542541
23.54254
23.542535
23.542527
23.542517
23.54251
23.542511
23.542511
23.542513
23.542513
23.54251
23.542505
23.542496
23.542487
23.54248
23.542484
23.542484
23.542484
23.542484
23.542481
23.542475
23.542467
23.542458
23.542453
23.542457
23.542457
23.542457
23.542456
23.542452
23.542447
23.54244
23.542433
23.542429
23.542433
23.542433
23.542432
23.54243
23.542426
23.542421
23.542415
23.542411
23.542409
23.542403
23.542403
23.542402
23.5424
23.542397
23.542392
23.542388
23.542382
23.542376
22.111012
22.111011
22.111009
22.111007
22.111005
22.111002
22.110997
22.110992
22.110992
22.111036
22.111034
22.111032
22.11103
22.111028
22.111026
22.111023
22.11102
22.111021
22.111051
22.11105
22.111048
22.111046
22.111046
22.111045
22.111044
22.111042
22.111042
22.111066
22.111064
22.111063
22.111062
22.111062
22.111062
22.111062
22.111061
22.11106
22.111079
22.111077
22.111076
22.111075
22.111076
22.111078
22.111078
22.111078
22.111076
22.111088
22.111088
22.111087
22.111087
22.111089
22.111092
22.111093
22.111093
22.11109
22.111096
22.111096
22.111096
22.111097
22.1111
22.111103
22.111105
22.111105
22.111102
22.111102
22.111102
22.111103
22.111105
22.111109
22.111113
22.111115
22.111114
22.11111
22.111106
22.111107
22.111108
22.111111
22.111115
22.11112
22.111123
22.111121
22.111115
22.111109
22.11111
22.111111
22.111115
22.11112
22.111126
22.111128
22.111124
22.111113
22.11111
22.111112
22.111114
22.111117
22.111123
22.111129
22.11113
22.111124
22.11111
22.111111
22.111113
22.111115
22.111119
22.111125
22.11113
22.111131
22.111123
22.111108
22.111112
22.111113
22.111115
22.111119
22.111125
22.111131
22.111131
22.111123
22.111108
22.111112
22.111113
22.111115
22.111119
22.111125
22.11113
22.111131
22.111125
22.11111
22.111111
22.111112
22.111114
22.111117
22.111123
22.111128
22.11113
22.111126
22.111114
22.111109
22.11111
22.111111
22.111114
22.111119
22.111125
22.111127
22.111124
22.111116
22.111107
22.111107
22.111108
22.11111
22.111114
22.111119
22.111121
22.111118
22.111113
22.111102
22.111102
22.111102
22.111104
22.111107
22.111111
22.111112
22.11111
22.111105
22.111096
22.111096
22.111095
22.111096
22.111099
22.111101
22.111102
22.111099
22.111095
22.111089
22.111088
22.111087
22.111087
22.111088
22.111089
22.111089
22.111087
22.111083
22.111079
22.111078
22.111076
22.111076
22.111076
22.111076
22.111075
22.111072
22.111068
22.111067
22.111066
22.111064
22.111063
22.111062
22.111061
22.111059
22.111055
22.111053
22.111054
22.111053
22.111051
22.111049
22.111047
22.111045
22.111041
22.111037
22.111035
22.111033
22.111031
22.111029
22.111028
22.111026
22.111023
22.111018
22.111011
22.111009
20.68727
20.687271
20.687271
20.68727
20.687269
20.687267
20.687267
20.687267
20.687268
20.687274
20.687275
20.687275
20.687274
20.687273
20.687271
20.687271
20.687272
20.687274
20.687277
20.687277
20.687278
20.687277
20.687275
20.687274
20.687273
20.687274
20.687276
20.687279
20.68728
20.68728
20.68728
20.687278
20.687276
20.687275
20.687276
20.687279
20.687281
20.687282
20.687283
20.687283
20.687281
20.687279
20.687278
20.687278
20.687281
20.687283
20.687284
20.687285
20.687285
20.687284
20.687282
20.68728
20.687281
20.687284
20.687285
20.687286
20.687288
20.687288
20.687286
20.687285
20.687283
20.687284
20.687287
20.687287
20.687288
20.68729
20.68729
20.687289
20.687287
20.687286
20.687286
20.68729
20.687288
20.68729
20.687292
20.687292
20.687291
20.68729
20.687288
20.687289
20.687292
20.68729
20.687291
20.687293
20.687294
20.687293
20.687292
20.687291
20.687291
20.687294
20.687291
20.687293
20.687294
20.687295
20.687295
20.687293
20.687292
20.687293
20.687296
20.687292
20.687293
20.687295
20.687296
20.687296
20.687294
20.687293
20.687294
20.687298
20.687292
20.687294
20.687296
20.687296
20.687296
20.687295
20.687294
20.687294
20.687298
20.687292
20.687294
20.687296
20.687296
20.687296
20.687295
20.687294
20.687294
20.687297
20.687292
20.687293
20.687295
20.687296
20.687296
20.687294
20.687293
20.687293
20.687295
20.687291
20.687293
20.687295
20.687295
20.687295
20.687293
20.687292
20.687291
20.687293
20.687291
20.687292
20.687294
20.687295
20.687294
20.687292
20.687291
20.68729
20.687291
20.68729
20.687292
20.687294
20.687294
20.687293
20.687292
20.68729
20.687289
20.68729
20.68729
20.687292
20.687293
20.687294
20.687293
20.687291
20.687288
20.687287
20.687288
20.687291
20.687292
20.687293
20.687294
20.687292
20.68729
20.687288
20.687286
20.687287
20.687291
20.687293
20.687294
20.687293
20.687292
20.68729
20.687287
20.687286
20.687286
20.687292
20.687293
20.687294
20.687293
20.687292
20.68729
20.687287
20.687286
20.687286
20.687293
20.687293
20.687294
20.687293
20.687292
20.68729
20.687288
20.687287
20.687287
20.68729
20.687291
20.687291
20.687291
20.687289
20.687288
20.687286
20.687286
20.687285
19.258513
19.258512
19.258512
19.258511
19.258512
19.258512
19.258512
19.258511
19.258511
19.25852
19.258519
19.258518
19.258518
19.258518
19.258518
19.258518
19.258518
19.258519
19.258525
19.258524
19.258523
19.258523
19.258523
19.258524
19.258524
19.258524
19.258525
19.25853
19.25853
19.258529
19.258529
19.258529
19.25853
19.25853
19.25853
19.25853
19.258535
19.258535
19.258534
19.258534
19.258535
19.258536
19.258536
19.258536
19.258535
19.25854
19.258539
19.258539
19.258539
19.25854
19.258542
19.258542
19.258541
19.25854
19.258544
19.258543
19.258543
19.258544
19.258545
19.258547
19.258548
19.258547
19.258544
19.258547
19.258547
19.258547
19.258548
19.258549
19.258551
19.258552
19.258551
19.258548
19.25855
19.25855
19.25855
19.258551
19.258553
19.258555
19.258556
19.258554
19.258551
19.258552
19.258552
19.258552
19.258553
19.258555
19.258558
19.258559
19.258557
19.258553
19.258553
19.258553
19.258553
19.258555
19.258557
19.25856
19.258561
19.258559
19.258554
19.258554
19.258554
19.258554
19.258556
19.258558
19.258561
19.258562
19.25856
19.258554
19.258554
19.258554
19.258555
19.258556
19.258559
19.258561
19.258562
19.25856
19.258554
19.258554
19.258554
19.258554
19.258556
19.258559
19.258561
19.258562
19.25856
19.258554
19.258553
19.258553
19.258554
19.258555
19.258558
19.25856
19.258561
19.258558
19.258553
19.258552
19.258552
19.258552
19.258554
19.258556
19.258558
19.258559
19.258557
19.258552
19.258551
19.25855
19.258551
19.258552
19.258554
19.258556
19.258556
19.258554
19.258549
19.258549
19.258549
19.258549
19.25855
19.258551
19.258553
19.258553
19.258551
19.258547
19.258547
19.258546
19.258546
19.258547
19.258548
19.25855
19.258549
19.258547
19.258543
19.258544
19.258544
19.258544
19.258544
19.258545
19.258546
19.258546
19.258543
19.25854
19.258542
19.258541
19.258541
19.258541
19.258542
19.258542
19.258541
19.258539
19.258536
19.258539
19.258538
19.258538
19.258538
19.258538
19.258539
19.258538
19.258536
19.258533
19.258536
19.258536
19.258535
19.258535
19.258535
19.258535
19.258534
19.258532
19.25853
19.258532
19.258531
19.25853
19.25853
19.25853
19.25853
19.25853
19.258528
19.258526
17.832762
17.832762
17.832763
17.832762
17.832762
17.832762
17.832763
17.832764
17.832765
17.832763
17.832763
17.832764
17.832763
17.832763
17.832763
17.832763
17.832764
17.832766
17.832764
17.832764
17.832764
17.832764
17.832763
17.832763
17.832763
17.832764
17.832766
17.832764
17.832765
17.832765
17.832765
17.832764
17.832763
17.832763
17.832764
17.832766
17.832765
17.832765
17.832765
17.832765
17.832765
17.832764
17.832764
17.832764
17.832767
17.832765
17.832765
17.832766
17.832766
17.832765
17.832764
17.832764
17.832765
17.832767
17.832765
17.832766
17.832766
17.832766
17.832765
17.832765
17.832765
17.832765
17.832767
17.832766
17.832766
17.832767
17.832766
17.832766
17.832765
17.832765
17.832766
17.832768
17.832766
17.832766
17.832767
17.832767
17.832766
17.832766
17.832766
17.832766
17.832768
17.832766
17.832767
17.832767
17.832767
17.832767
17.832766
17.832766
17.832767
17.832768
17.832766
17.832767
17.832768
17.832768
17.832767
17.832767
17.832766
17.832767
17.832769
17.832767
17.832767
17.832768
17.832768
17.832768
17.832767
17.832767
17.832767
17.832769
17.832767
17.832768
17.832768
17.832768
17.832768
17.832767
17.832767
17.832768
17.832769
17.832767
17.832768
17.832768
17.832769
17.832768
17.832768
17.832767
17.832768
17.832769
17.832767
17.832768
17.832769
17.832769
17.832769
17.832768
17.832768
17.832768
17.832769
17.832768
17.832769
17.832769
17.832769
17.832769
17.832769
17.832768
17.832768
17.832769
17.832769
17.832769
17.83277
17.83277
17.83277
17.832769
17.832769
17.832769
17.832769
17.832769
17.83277
17.832771
17.832771
17.832771
17.83277
17.832769
17.832769
17.832769
17.832771
17.832771
17.832772
17.832772
17.832772
17.832771
17.83277
17.83277
17.83277
17.832772
17.832773
17.832773
17.832773
17.832773
17.832772
17.832771
17.832771
17.832771
17.832774
17.832774
17.832775
17.832775
17.832774
17.832773
17.832772
17.832772
17.832772
17.832775
17.832776
17.832776
17.832776
17.832776
17.832775
17.832774
17.832774
17.832774
17.832777
17.832777
17.832777
17.832777
17.832777
17.832776
17.832776
17.832776
17.832776
17.832777
17.832778
17.832778
17.832778
17.832777
17.832777
17.832777
17.832778
17.832777
16.405346
16.405346
16.405346
16.405346
16.405346
16.405346
16.405345
16.405345
16.405345
16.405348
16.405348
16.405348
16.405348
16.405348
16.405348
16.405348
16.405348
16.405348
16.405351
16.40535
16.40535
16.40535
16.40535
16.40535
16.405351
16.405351
16.405351
16.405353
16.405353
16.405352
16.405352
16.405353
16.405353
16.405353
16.405353
16.405353
16.405355
16.405355
16.405355
16.405355
16.405355
16.405355
16.405356
16.405356
16.405355
16.405357
16.405357
16.405357
16.405357
16.405357
16.405358
16.405358
16.405358
16.405357
16.405359
16.405359
16.405359
16.405359
16.405359
16.40536
16.40536
16.40536
16.405359
16.405361
16.405361
16.40536
16.405361
16.405361
16.405362
16.405362
16.405362
16.405361
16.405362
16.405362
16.405362
16.405362
16.405363
16.405363
16.405363
16.405363
16.405362
16.405363
16.405363
16.405363
16.405363
16.405364
16.405364
16.405365
16.405364
16.405363
16.405364
16.405363
16.405364
16.405364
16.405365
16.405365
16.405366
16.405365
16.405363
16.405364
16.405364
16.405364
16.405365
16.405365
16.405366
16.405366
16.405365
16.405364
16.405364
16.405364
16.405364
16.405365
16.405366
16.405366
16.405366
16.405366
16.405364
16.405364
16.405364
16.405364
16.405365
16.405366
16.405366
16.405366
16.405366
16.405364
16.405364
16.405364
16.405364
16.405365
16.405365
16.405366
16.405366
16.405365
16.405363
16.405364
16.405364
16.405364
16.405364
16.405365
16.405366
16.405366
16.405365
16.405363
16.405363
16.405363
16.405363
16.405364
16.405364
16.405365
16.405365
16.405364
16.405362
16.405363
16.405362
16.405362
16.405363
16.405363
16.405364
16.405364
16.405363
16.405361
16.405362
16.405362
16.405362
16.405362
16.405362
16.405363
16.405363
16.405362
16.40536
16.405361
16.405361
16.405361
16.405361
16.405361
16.405362
16.405361
16.40536
16.405359
16.40536
16.40536
16.40536
16.40536
16.40536
16.40536
16.40536
16.405359
16.405358
16.405359
16.405359
16.405359
16.405359
16.405359
16.405359
16.405359
16.405358
16.405357
16.405358
16.405358
16.405358
16.405358
16.405358
16.405358
16.405358
16.405357
16.405356
16.405357
16.405357
16.405357
16.405357
16.405357
16.405357
16.405356
16.405356
16.405354
14.978805
14.978805
14.978805
14.978805
14.978804
14.978804
14.978805
14.978805
14.978805
14.978805
14.978805
14.978805
14.978805
14.978805
14.978805
14.978805
14.978805
14.978806
14.978806
14.978806
14.978806
14.978806
14.978806
14.978805
14.978805
14.978806
14.978806
14.978806
14.978806
14.978806
14.978806
14.978806
14.978806
14.978806
14.978806
14.978807
14.978807
14.978807
14.978807
14.978807
14.978807
14.978806
14.978806
14.978807
14.978807
14.978807
14.978807
14.978807
14.978807
14.978807
14.978807
14.978807
14.978807
14.978808
14.978807
14.978808
14.978808
14.978808
14.978807
14.978807
14.978807
14.978807
14.978808
14.978808
14.978808
14.978808
14.978808
14.978808
14.978808
14.978808
14.978808
14.978809
14.978808
14.978808
14.978808
14.978808
14.978808
14.978808
14.978808
14.978808
14.978809
14.978808
14.978808
14.978808
14.978808
14.978808
14.978808
14.978808
14.978808
14.978809
14.978808
14.978808
14.978809
14.978809
14.978809
14.978808
14.978808
14.978809
14.978809
14.978809
14.978809
14.978809
14.978809
14.978809
14.978809
14.978809
14.978809
14.97881
14.978809
14.978809
14.978809
14.978809
14.978809
14.978809
14.978809
14.978809
14.97881
14.978809
14.978809
14.978809
14.978809
14.978809
14.978809
14.978809
14.978809
14.97881
14.978809
14.978809
14.97881
14.97881
14.97881
14.978809
14.978809
14.97881
14.97881