/*--------------------------------*- C++ -*----------------------------------*\
| =========                 |                                                 |
| \\      /  F ield         | OpenFOAM: The Open Source CFD Toolbox           |
|  \\    /   O peration     | Version:  2406                                  |
|   \\  /    A nd           | Website:  www.openfoam.com                      |
|    \\/     M anipulation  |                                                 |
\*---------------------------------------------------------------------------*/
FoamFile
{
    version     2.0;
    format      ascii;
    arch        "LSB;label=32;scalar=64";
    class       surfaceScalarField;
    location    "15";
    object      phi;
}
// * * * * * * * * * * * * * * * * * * * * * * * * * * * * * * * * * * * * * //

dimensions      [0 3 -1 0 0 0 0];

oriented        oriented;

internalField   nonuniform List<scalar> 
101088
(
-7.6748296e-05
9.2011151e-06
2.9448131e-06
-6.6107944e-06
-0.00019677427
4.9493044e-05
7.7562582e-06
-3.6878375e-05
-0.00037195536
0.00014478486
5.5075771e-06
-0.00011065265
-0.0005988966
0.00032532431
-2.0243114e-05
-0.00025522881
-0.00083880821
0.0005841027
-8.9664131e-05
-0.00047356121
-0.0010243128
0.00084907399
-0.0002021473
-0.00071374676
-0.0011114245
0.0010358564
-0.00031819707
-0.00089720346
-0.0011175402
0.0011121947
-0.00038400585
-0.00097801197
0.0010780992
-0.00037448576
-0.00096118276
-0.0010827934
-9.2842267e-05
1.0680584e-05
4.0052594e-06
-0.00023486639
5.8932218e-05
1.0498584e-05
-0.00043677388
0.00017362336
7.2342252e-06
-0.00068744084
0.00038715016
-2.7651812e-05
-0.00093257697
0.00067975628
-0.00011842502
-0.001095153
0.00096207432
-0.0002599908
-0.0011402088
0.0011525345
-0.00040108952
-0.0011001077
0.0012311803
-0.0004792641
0.001200228
-0.00047037618
-0.0010358304
-0.0001096546
1.1234157e-05
5.4498456e-06
-0.00027427117
6.4197935e-05
1.4735276e-05
-0.00050162932
0.00019277647
1.2151038e-05
-0.00077163454
0.00043168201
-2.9961375e-05
-0.0010176674
0.00074985958
-0.00013968798
-0.0011576634
0.0010436952
-0.00030622662
-0.0011669549
0.0012400859
-0.00046704371
-0.0010914522
0.0013299463
-0.00055395551
0.0013136324
-0.00054512466
-0.00099929488
-0.00012630101
1.079993e-05
7.1802278e-06
-0.00031341325
6.4651086e-05
2.0142875e-05
-0.00056521782
0.00019939899
1.9922147e-05
-0.00085129755
0.0004521196
-2.712718e-05
-0.0010938216
0.00078405969
-0.0001525466
-0.0012129854
0.0010864562
-0.00033969727
-0.0011955886
0.0012951992
-0.00051591786
-0.0010974396
0.0014073894
-0.00060913905
0.0014119564
-0.00060006334
-0.0009847135
-0.00014173969
8.646843e-06
9.2499649e-06
-0.0003488181
5.7539942e-05
2.6966625e-05
-0.00062152502
0.00018814242
3.1222395e-05
-0.00092081927
0.00044167099
-1.7923351e-05
-0.0011614243
0.0007774371
-0.0001555698
-0.0012680531
0.0010892033
-0.00035937231
-0.0012367652
0.0013191313
-0.00054795533
-0.0011272011
0.0014622465
-0.00064584861
0.0014904018
-0.00063576682
-0.0010021588
-0.00015650275
4.8444383e-06
1.1675916e-05
-0.00038386389
4.2899894e-05
3.5639361e-05
-0.00067900508
0.00015857991
4.6668327e-05
-0.00099567833
0.00039971893
-9.6837191e-07
-0.0012431673
0.00073157383
-0.00014748908
-0.0013480275
0.0010531193
-0.0003646518
-0.0013135476
0.0013104385
-0.00056222592
-0.0011983424
0.001486383
-0.00066254668
0.0015382959
-0.00065160016
-0.001064065
-0.00017015293
-5.5505272e-07
1.4494603e-05
-0.00041842741
2.1200015e-05
4.6647208e-05
-0.00073848558
0.00011169724
6.6563714e-05
-0.0010799555
0.00032766697
2.5862392e-05
-0.0013454056
0.00064755135
-0.00012458236
-0.001462683
0.00097893727
-0.00035077506
-0.0014364778
0.0012647552
-0.00055436916
-0.0013231473
0.0014707561
-0.00065622232
0.0015423136
-0.00064535195
-0.001182227
-0.00018326066
-6.8288613e-06
1.7803789e-05
-0.00045506248
-4.8525817e-06
5.9984584e-05
-0.00080998998
5.312029e-05
9.4028316e-05
-0.0011920981
0.00023329005
6.4933148e-05
-0.0014951784
0.00053181062
-8.3355929e-05
-0.001641894
0.00086628773
-0.00031365954
-0.0016338527
0.0011717834
-0.00052005843
-0.0015245306
0.0013964482
-0.00062260672
0.0014792048
-0.00061330717
-0.0013737335
-0.00019667944
-1.2206962e-05
2.157982e-05
-0.00049842012
-2.8669651e-05
7.5789563e-05
-0.00090654949
-3.4409852e-06
0.00012962265
-0.0013540068
0.00013378919
0.00011596343
-0.0017209774
0.00039598173
-2.2162673e-05
-0.0019150262
0.00071268349
-0.00025017126
-0.0019311174
0.0010129104
-0.00045491263
-0.0018217225
0.0012333696
-0.00055692926
0.0013146463
-0.00055142152
-0.0016511147
-0.0002111641
-1.3779987e-05
2.5574134e-05
-0.00055222311
-3.9442024e-05
9.2981358e-05
-0.0010336898
-3.7060277e-05
0.00016813972
-0.0015755098
5.4374961e-05
0.00017546474
-0.0020321255
0.00025548086
5.4904923e-05
-0.0022872371
0.00051451052
-0.00016322388
-0.0023275115
0.0007652767
-0.00036060167
-0.0022086586
0.00094704295
-0.00046024184
0.0010125282
-0.00046088869
-0.0020055715
-0.00022518042
-9.3760129e-06
2.9125854e-05
-0.00060964862
-2.8434742e-05
0.00010852083
-0.0011720562
-3.3121022e-05
0.0002035673
-0.0018221479
1.1308118e-05
0.00023751053
-0.0023755544
0.00012266272
0.00013251231
-0.0026927924
0.00027223998
-6.9411438e-05
-0.0027519128
0.00041831655
-0.00025475084
-0.0026155476
0.00052231356
-0.00035059927
0.00055918469
-0.00035847978
-0.0023731521
-0.00023458461
-1.6520411e-10
3.1291676e-05
-0.00064915234
-6.9082354e-10
0.0001181189
-0.0012672584
-1.815731e-09
0.00022607227
-0.0019934214
-3.2614268e-09
0.0002768451
-0.0026136936
-4.5787736e-09
0.00018343452
-0.0029723117
-5.0137722e-09
-4.2981094e-06
-0.0030412438
-4.7312323e-09
-0.00017976148
-0.0028908018
-4.3380223e-09
-0.00027271777
-4.3111778e-09
-0.00028580799
-0.0026199775
-0.00023458444
9.3756973e-06
3.1291668e-05
-0.00064915244
2.8433286e-05
0.00011811887
-0.0012672582
3.311735e-05
0.00022607218
-0.0019934211
-1.1314334e-05
0.00027684496
-0.002613693
-0.00012267139
0.00018343437
-0.0029723111
-0.00027224972
-4.2982429e-06
-0.0030412436
-0.00041832602
-0.00017976158
-0.0028908022
-0.00052232213
-0.00027271785
-0.00055919279
-0.00028580807
-0.0026199784
-0.00022518029
1.3779759e-05
2.9125843e-05
-0.00060964881
3.9440666e-05
0.00010852077
-0.0011720555
3.7056945e-05
0.00020356716
-0.0018221481
-5.4380322e-05
0.00023751026
-0.0023755542
-0.00025548866
0.000132512
-0.0026927922
-0.00051451967
-6.9411744e-05
-0.0027519132
-0.00076528626
-0.00025475108
-0.0026155489
-0.00094705155
-0.00035059948
-0.0010125355
-0.00035848
-0.0023731538
-0.00021116475
1.2206709e-05
2.557411e-05
-0.00055222385
2.8668261e-05
9.2981263e-05
-0.001033689
3.4378774e-06
0.00016813952
-0.001575511
-0.00013379436
0.0001754644
-0.0020321259
-0.00039598895
5.4904527e-05
-0.0022872376
-0.00071269131
-0.00016322425
-0.0023275122
-0.001012919
-0.00036060198
-0.0022086601
-0.0012333778
-0.00046024211
-0.0013146532
-0.00046088897
-0.0020055722
-0.00019668093
6.8284385e-06
2.1579798e-05
-0.000498422
4.8510221e-06
7.5789477e-05
-0.00090654982
-5.3123409e-05
0.00012962246
-0.0013540088
-0.0002332952
0.00011596312
-0.0017209784
-0.00053181652
-2.216307e-05
-0.0019150281
-0.00086629325
-0.00025017168
-0.0019311189
-0.00117179
-0.00045491301
-0.0018217242
-0.001396456
-0.00055692959
-0.0014792129
-0.00055142182
-0.0016511144
-0.00018326159
5.5472012e-07
1.7803772e-05
-0.00045506347
-2.1200953e-05
5.9984512e-05
-0.00080999037
-0.00011169944
9.4028142e-05
-0.0011920996
-0.00032767093
6.493285e-05
-0.0014951801
-0.00064755568
-8.3356325e-05
-0.0016418974
-0.00097894135
-0.00031365998
-0.001633855
-0.0012647603
-0.00052005882
-0.0015245335
-0.0014707636
-0.00062260706
-0.0015423235
-0.0006133075
-0.0013737342
-0.00017015294
-4.8447016e-06
1.4494591e-05
-0.00041842799
-4.2900695e-05
4.6647152e-05
-0.00073848704
-0.00015858194
6.6563569e-05
-0.0010799581
-0.00039972249
2.5862123e-05
-0.0013454086
-0.00073157852
-0.00012458275
-0.0014626871
-0.0010531234
-0.00035077548
-0.001436481
-0.0013104431
-0.0005543695
-0.0013231518
-0.0014863896
-0.00065622266
-0.0015383053
-0.00064535231
-0.0011822303
-0.0001565029
-8.6469343e-06
1.1675909e-05
-0.00038386446
-5.7540361e-05
3.5639322e-05
-0.00067900581
-0.00018814358
4.6668222e-05
-0.00099568115
-0.00044167389
-9.6860054e-07
-0.0012431697
-0.00077744098
-0.00014748941
-0.0013480308
-0.0010892063
-0.00036465219
-0.001313551
-0.0013191349
-0.00056222629
-0.0011983471
-0.0014622522
-0.0006625471
-0.0014904093
-0.00065160047
-0.0010640694
-0.00014173945
-1.0800054e-05
9.2499552e-06
-0.00034881762
-6.465142e-05
2.6966583e-05
-0.00062152461
-0.00019939947
3.122229e-05
-0.00092082
-0.00045212096
-1.7923545e-05
-0.0011614243
-0.0007840613
-0.00015557008
-0.001268055
-0.0010864587
-0.00035937263
-0.0012367676
-0.0012952014
-0.00054795566
-0.0011272033
-0.0014073941
-0.00064584897
-0.0014119627
-0.00063576696
-0.0010021611
-0.00012630086
-1.1234216e-05
7.1802164e-06
-0.00031341315
-6.4198126e-05
2.014283e-05
-0.0005652175
-0.00019277689
1.9922045e-05
-0.00085129708
-0.00043168334
-2.7127365e-05
-0.0010938223
-0.00074986211
-0.0001525469
-0.0012129854
-0.0010436972
-0.00033969763
-0.0011955898
-0.0012400879
-0.00051591818
-0.0010974412
-0.0013299492
-0.00060913928
-0.0013136375
-0.00060006336
-0.0009847167
-0.00010965477
-1.0680657e-05
5.4498349e-06
-0.00027427178
-5.8932431e-05
1.4735235e-05
-0.00050162965
-0.0001736238
1.2150949e-05
-0.00077163357
-0.00038715099
-2.996153e-05
-0.0010176662
-0.00067975746
-0.0001396882
-0.0011576626
-0.00096207449
-0.00030622691
-0.0011669553
-0.0011525344
-0.00046704399
-0.0010914547
-0.0012311811
-0.00055395571
-0.0012002334
-0.00054512476
-0.00099929886
-9.2842436e-05
-9.2011545e-06
4.0052511e-06
-0.0002348669
-4.9493126e-05
1.0498551e-05
-0.00043677416
-0.00014478497
7.2341477e-06
-0.00068743997
-0.00032532429
-2.7651958e-05
-0.00093257538
-0.00058410271
-0.00011842526
-0.001095152
-0.00084907435
-0.00025999112
-0.0011402064
-0.0010358559
-0.00040108984
-0.0011001055
-0.001112197
-0.00047926422
-0.0010781045
-0.00047037626
-0.0010358319
-7.6748309e-05
2.9448071e-06
-6.6107993e-06
-0.00019677413
7.7562329e-06
-3.6878368e-05
-0.00037195469
5.5075152e-06
-0.00011065263
-0.00059889623
-2.0243236e-05
-0.00025522875
-0.0008388085
-8.9664326e-05
-0.00047356074
-0.0010243121
-0.00020214754
-0.00071374479
-0.0011114245
-0.00031819722
-0.00089720137
-0.0011175392
-0.00038400594
-0.00097801358
-0.00037448577
-0.00096118467
-0.0010827928
1.3887879e-06
2.2785363e-07
2.6899554e-06
-1.3617775e-06
5.894935e-06
-4.5293803e-07
8.4977909e-06
-4.7946687e-06
1.4534831e-05
-5.6882517e-06
1.0578148e-05
-8.0220304e-06
2.7651935e-05
-2.4254379e-05
-4.5101663e-06
-4.5954912e-06
4.418426e-05
-6.949735e-05
-5.3884394e-05
1.7185235e-05
6.3826105e-05
-0.00014750461
-0.00014149109
6.7206407e-05
8.8981026e-05
-0.00024170731
-0.00023934774
0.00013770358
0.00011995562
-0.00031951696
-0.00030035493
0.00020489127
-0.00035811397
-0.00029804604
0.00024919057
0.000152439
2.2475359e-06
-1.3925706e-06
3.3781655e-06
9.9306415e-06
-8.0406863e-06
1.0403212e-05
2.4776805e-05
-2.5270514e-05
1.1970072e-05
4.6056755e-05
-6.4016762e-05
-9.170498e-06
6.880415e-05
-0.00013692417
-7.3747345e-05
8.9541057e-05
-0.00024360708
-0.00018462534
0.00011037654
-0.00035799547
-0.00030563655
0.00013494258
-0.00044306498
-0.00038028239
-0.00047731274
-0.00037997162
0.00016373606
3.4565148e-06
-3.5995226e-06
4.2003912e-06
1.5352094e-05
-1.8095893e-05
1.2895128e-05
3.79547e-05
-5.0509323e-05
1.4787297e-05
6.8301884e-05
-0.00011336696
-1.0958622e-05
9.6424744e-05
-0.00021643699
-8.8297586e-05
0.00011568556
-0.00035045574
-0.00021863875
0.00012949169
-0.00048071934
-0.00035812566
0.00014503528
-0.00056953279
-0.00044303043
-0.0005983755
-0.00044415057
0.00016512367
4.9270865e-06
-6.3652358e-06
5.018818e-06
2.194168e-05
-3.0393229e-05
1.5425496e-05
5.3958163e-05
-8.0491659e-05
1.7887216e-05
9.4797423e-05
-0.00016969297
-1.1641675e-05
0.00012842322
-0.00030282627
-9.9782396e-05
0.00014523312
-0.00046083092
-0.00024613206
0.00015096398
-0.0006025306
-0.00039983609
0.00015621656
-0.00069216702
-0.00049175721
-0.00071445102
-0.00049340323
0.00016563148
6.5336487e-06
-9.4650661e-06
5.8161436e-06
2.9123405e-05
-4.3951809e-05
1.7935612e-05
7.1514536e-05
-0.00011282894
2.1168679e-05
0.00012374015
-0.00022843543
-1.1406076e-05
0.00016307995
-0.00038906626
-0.00010867041
0.00017740914
-0.00056627308
-0.00026825801
0.00017530254
-0.00071544681
-0.00043293235
0.0001705746
-0.00080389437
-0.00052939311
-0.00081844379
-0.00053064889
0.00016944977
8.3689189e-06
-1.2737071e-05
6.5790079e-06
3.7530519e-05
-5.7843017e-05
2.0368975e-05
9.1727152e-05
-0.00014487849
2.4520859e-05
0.00015708055
-0.00028429184
-1.0464369e-05
0.00020297194
-0.00046698797
-0.00011545902
0.00021506143
-0.00065687977
-0.00028613453
0.00020564268
-0.00080881309
-0.00045944152
0.00019155385
-0.00089368299
-0.00055866901
-0.00089966629
-0.00055871118
0.00017988746
1.018996e-05
-1.5708953e-05
7.2765659e-06
4.6315625e-05
-6.9982404e-05
2.2661112e-05
0.00011182954
-0.00017168577
2.785735e-05
0.0001905288
-0.00032824897
-8.8789655e-06
0.00024301432
-0.00052381012
-0.00012024493
0.00025353527
-0.00071803356
-0.00030014121
0.00023848731
-0.00086781776
-0.00048031753
0.00021700572
-0.000947202
-0.00058122202
-0.00094466005
-0.00057965102
0.00019629815
1.1765072e-05
-1.7619015e-05
7.9492088e-06
5.3989372e-05
-7.7198673e-05
2.4976359e-05
0.0001307284
-0.00018592359
3.1526462e-05
0.00022175264
-0.00034819202
-6.1476969e-06
0.00028082263
-0.00054365743
-0.00012257926
0.00029088728
-0.00073151347
-0.00031024415
0.00027237143
-0.00087313772
-0.0004962239
0.00024587656
-0.00094494361
-0.00059837053
-0.00093495656
-0.00059509887
0.00021796455
1.2882274e-05
-1.7538342e-05
8.6176353e-06
5.981781e-05
-7.5742042e-05
2.7397729e-05
0.00014727278
-0.00017947342
3.5716965e-05
0.00024797166
-0.00033080819
-2.1181973e-06
0.00031289158
-0.0005084121
-0.00012232898
0.0003235034
-0.00067590484
-0.00031639265
0.00030388283
-0.00080106962
-0.00050736126
0.00027495719
-0.00086227834
-0.00061066864
-0.00084747223
-0.0006060317
0.00024208325
1.3445137e-05
-1.4673954e-05
9.2648196e-06
6.3350004e-05
-6.252793e-05
2.9862405e-05
0.00015790706
-0.00014618669
4.0295294e-05
0.0002652852
-0.00026566805
2.9473747e-06
0.00033470386
-0.00040297059
-0.00011995568
0.00034715608
-0.00053245909
-0.0003191226
0.00032894532
-0.00062928566
-0.0005141752
0.00030008342
-0.00067511753
-0.00061854009
-0.00066001664
-0.00061290009
0.0002646396
1.3188073e-05
-8.5428259e-06
9.806505e-06
6.3182453e-05
-3.6008314e-05
3.2007041e-05
0.00015934026
-8.327799e-05
4.4500624e-05
0.0002725166
-0.00014949535
8.1616062e-06
0.00034426105
-0.00022550023
-0.00011670257
0.00035923078
-0.00029747174
-0.0003193685
0.0003437764
-0.00035136097
-0.00051722069
0.00031660924
-0.00037622447
-0.00062232455
-0.00036649718
-0.00061607826
0.00028068832
1.2592405e-05
3.0604773e-11
1.0156293e-05
6.1258529e-05
1.696098e-10
3.3444703e-05
0.00015662676
3.7061749e-10
4.742602e-05
0.00027198081
7.4460064e-10
1.1994777e-05
0.00034399006
1.2913189e-09
-0.00011407595
0.00036100808
1.8853512e-09
-0.00031878912
0.00034819199
2.290898e-09
-0.00051830793
0.00032316165
2.2297928e-09
-0.00062391389
1.7005061e-09
-0.00061737655
0.00028823096
1.2592472e-05
8.5428809e-06
1.0156291e-05
6.1258398e-05
3.6008584e-05
3.3444695e-05
0.00015662663
8.3278628e-05
4.7426007e-05
0.00027198066
0.00014949689
1.1994766e-05
0.00034399006
0.00022550287
-0.00011407594
0.00036100813
0.00029747536
-0.00031878909
0.00034819192
0.00035136516
-0.00051830789
0.00032316149
0.00037622863
-0.00062391388
0.00036650061
-0.00061737657
0.00028823063
1.3188125e-05
1.4674026e-05
9.8065021e-06
6.3182239e-05
6.2528168e-05
3.200703e-05
0.0001593403
0.00014618733
4.4500603e-05
0.00027251617
0.00026566978
8.1615762e-06
0.00034426084
0.00040297327
-0.00011670259
0.00035923072
0.00053246244
-0.00031936852
0.00034377619
0.00062928921
-0.00051722071
0.00031660888
0.00067512116
-0.0006223246
0.0006600201
-0.00061607834
0.00028068789
1.3444821e-05
1.75384e-05
9.2648123e-06
6.3349559e-05
7.5742237e-05
2.9862381e-05
0.00015790726
0.00017947403
4.0295256e-05
0.00026528426
0.0003308097
2.9473327e-06
0.00033470324
0.0005084144
-0.00011995569
0.00034715571
0.00067590805
-0.00031912258
0.00032894512
0.00080107301
-0.00051417519
0.00030008318
0.00086228169
-0.00061854013
0.00084747533
-0.00061290018
0.00026463993
1.2881529e-05
1.7618945e-05
8.6176274e-06
5.981684e-05
7.7198599e-05
2.7397703e-05
0.00014727257
0.00018592381
3.5716924e-05
0.00024797039
0.00034819283
-2.1182469e-06
0.00031289089
0.00054365948
-0.00012232901
0.00032350267
0.00073151714
-0.00031639265
0.00030388265
0.00087314175
-0.00050736128
0.00027495702
0.00094494695
-0.00061066868
0.00093495857
-0.00060603178
0.00024208407
1.176458e-05
1.5708869e-05
7.9492024e-06
5.3988843e-05
6.9982412e-05
2.4976336e-05
0.00013072835
0.00017168603
3.1526421e-05
0.00022175192
0.00032824974
-6.1477503e-06
0.00028082213
0.00052381237
-0.00012257931
0.00029088617
0.00071803762
-0.00031024419
0.0002723711
0.00086782229
-0.00049622394
0.00024587609
0.00094720514
-0.00059837058
0.00094466072
-0.00059509894
0.00021796481
1.0189876e-05
1.2737005e-05
7.2765611e-06
4.6315319e-05
5.7843033e-05
2.2661092e-05
0.00011182926
0.0001448786
2.7857311e-05
0.00019052815
0.0002842924
-8.8790236e-06
0.00024301359
0.00046698974
-0.000120245
0.00025353392
0.00065688344
-0.00030014128
0.00023848661
0.00080881746
-0.00048031758
0.0002170046
0.00089368592
-0.00058122209
0.00089966673
-0.0005796511
0.00019629743
8.3689099e-06
9.4650645e-06
6.5790055e-06
3.7530494e-05
4.395198e-05
2.0368964e-05
9.1727483e-05
0.00011282934
2.4520831e-05
0.00015707998
0.00022843603
-1.0464434e-05
0.00020297151
0.00038906793
-0.00011545912
0.00021506043
0.00056627667
-0.00028613465
0.00020564177
0.00071545099
-0.00045944164
0.00019155274
0.00080389723
-0.00055866914
0.00081844474
-0.00055871127
0.00017988709
6.5337641e-06
6.3652264e-06
5.8161404e-06
2.9123631e-05
3.0393351e-05
1.7935597e-05
7.1514876e-05
8.0492046e-05
2.1168642e-05
0.00012374009
0.00016969361
-1.1406146e-05
0.00016308025
0.00030282819
-0.00010867051
0.00017740837
0.00046083405
-0.00026825812
0.00017530176
0.00060253473
-0.00043293246
0.0001705745
0.00069216988
-0.00052939323
0.00071445153
-0.00053064894
0.0001694511
4.9271387e-06
3.5995264e-06
5.0188124e-06
2.1941707e-05
1.8096055e-05
1.5425473e-05
5.3958455e-05
5.0509832e-05
1.7887168e-05
9.4798234e-05
0.00011336782
-1.1641754e-05
0.00012842329
0.0002164385
-9.9782511e-05
0.00014523314
0.00035045881
-0.00024613219
0.00015096367
0.00048072293
-0.00039983622
0.00015621668
0.00056953582
-0.00049175731
0.00059837529
-0.00049340327
0.00016563279
3.4563919e-06
1.3925608e-06
4.2003843e-06
1.5351653e-05
8.0407721e-06
1.2895101e-05
3.7954252e-05
2.5270814e-05
1.4787243e-05
6.8302116e-05
6.40174e-05
-1.0958708e-05
9.6424847e-05
0.00013692561
-8.8297703e-05
0.00011568531
0.00024361043
-0.00021863889
0.00012949116
0.00035799947
-0.00035812579
0.00014503423
0.00044306769
-0.00044303055
0.00047731123
-0.00044415067
0.00016512407
2.247395e-06
-2.2783572e-07
3.3781605e-06
9.9301531e-06
4.531086e-07
1.0403192e-05
2.4776209e-05
5.6887775e-06
1.1970028e-05
4.6056688e-05
2.4255625e-05
-9.1705762e-06
6.8804324e-05
6.9499789e-05
-7.3747466e-05
8.9540644e-05
0.00014750832
-0.00018462551
0.00011037667
0.00024171139
-0.00030563673
0.00013494299
0.00031951865
-0.00038028253
0.00035811178
-0.00037997174
0.00016373607
1.3887379e-06
2.6899521e-06
-1.3617505e-06
5.8947947e-06
8.4977774e-06
-4.7945121e-06
1.4534752e-05
1.0578116e-05
-8.0216063e-06
2.7651619e-05
-4.5102267e-06
-4.5945441e-06
4.418381e-05
-5.3884487e-05
1.7187361e-05
6.3826853e-05
-0.00014149121
6.7210712e-05
8.8981377e-05
-0.00023934786
0.00013770812
0.00011995618
-0.00030035504
0.00020489373
-0.00029804611
0.00024919044
0.00015243882
1.8734425e-08
-5.2765015e-07
2.660024e-06
5.3884871e-07
4.0480528e-07
-2.0156812e-06
8.0060825e-06
2.1213243e-06
1.0782756e-06
-4.1518797e-06
9.4917549e-06
4.5647965e-06
7.3273372e-07
-6.3494058e-06
-5.3660681e-06
7.5507544e-06
-2.1756961e-06
-7.3458723e-06
-5.3815725e-05
1.0185365e-05
-7.5830328e-06
-5.745878e-06
-0.00014149447
1.1156299e-05
-1.3108904e-05
-1.5474704e-06
-0.0002419545
9.6800517e-06
-1.5834141e-05
2.9214247e-06
-0.0003073559
6.804587e-06
3.94569e-06
-0.00030809839
4.2095202e-06
-1.3937219e-05
2.4740233e-08
-5.6492191e-07
3.3906992e-06
5.1106454e-07
-2.0771681e-06
9.9783504e-06
1.2929856e-06
-4.040885e-06
1.1077017e-05
6.7296891e-07
-5.5364194e-06
-9.3639189e-06
-3.1329401e-06
-4.8884043e-06
-7.2399543e-05
-9.7944924e-06
-6.7504664e-07
-0.0001830348
-1.637676e-05
6.2324704e-06
-0.00030683437
-1.9509613e-05
1.2244793e-05
-0.00038647324
1.3246559e-05
-0.00039043525
-1.8347274e-05
4.6686293e-08
-6.5442006e-07
4.243216e-06
7.3713596e-07
-2.3600795e-06
1.2487562e-05
1.9206278e-06
-4.4308203e-06
1.3993522e-05
1.5779101e-06
-5.5315704e-06
-1.0621197e-05
-2.3927899e-06
-3.3887964e-06
-8.5826723e-05
-9.6655837e-06
3.5002066e-06
-0.00021554151
-1.7062129e-05
1.3277948e-05
-0.0003577747
-2.1125339e-05
2.1214299e-05
-0.0004479367
2.3111808e-05
-0.00045415782
-2.0983487e-05
7.6646477e-08
-7.8623603e-07
5.0739722e-06
1.0145651e-06
-2.8396337e-06
1.496704e-05
2.7325722e-06
-5.3065338e-06
1.7044541e-05
2.9741932e-06
-6.3872823e-06
-1.1028164e-05
-6.8038321e-07
-3.0227772e-06
-9.6493917e-05
-8.0897172e-06
6.4806003e-06
-0.00024170344
-1.6111277e-05
1.9256039e-05
-0.00039779245
-2.1150513e-05
2.9387178e-05
-0.00049489095
3.2479167e-05
-0.00050212016
-2.1801116e-05
1.2073902e-07
-9.4823601e-07
5.8573797e-06
1.3579463e-06
-3.4738332e-06
1.7332552e-05
3.7301371e-06
-6.5855791e-06
2.007538e-05
4.7805507e-06
-8.0039102e-06
-1.0840007e-05
1.7978148e-06
-3.8242864e-06
-0.00010488666
-5.4334711e-06
8.0095299e-06
-0.00026255553
-1.3957622e-05
2.3640166e-05
-0.00042879236
-1.9959562e-05
3.5912944e-05
-0.00052991697
4.0230322e-05
-0.00053695498
-2.1404576e-05
1.9004331e-07
-1.1276465e-06
6.5683472e-06
1.7939217e-06
-4.1989297e-06
1.9490058e-05
4.9524926e-06
-8.1154796e-06
2.2891926e-05
7.0294232e-06
-1.0160436e-05
-1.0384685e-05
4.8941299e-06
-5.5733916e-06
-0.00011157493
-2.0686961e-06
8.0112096e-06
-0.00027917357
-1.1109156e-05
2.5877908e-05
-0.00045263904
-1.8131084e-05
3.9825308e-05
-0.00055555945
4.5149266e-05
-0.0005613418
-2.0419393e-05
2.6802812e-07
-1.2891984e-06
7.1700988e-06
2.2820909e-06
-4.8727892e-06
2.1320911e-05
6.3135521e-06
-9.5930935e-06
2.5303462e-05
9.5515193e-06
-1.2407862e-05
-9.8694852e-06
8.3994212e-06
-7.9031808e-06
-0.00011676292
1.7633743e-06
6.4740233e-06
-0.00029196777
-7.8406868e-06
2.5484604e-05
-0.00047032047
-1.6012267e-05
4.0302036e-05
-0.00057352731
4.623383e-05
-0.00057746824
-1.9279714e-05
3.535921e-07
-1.3831578e-06
7.6896392e-06
2.8125075e-06
-5.292693e-06
2.2937294e-05
7.784414e-06
-1.058261e-05
2.754394e-05
1.229407e-05
-1.4097016e-05
-8.9682002e-06
1.220411e-05
-1.0172102e-05
-0.00012022055
5.8052078e-06
3.793461e-06
-0.00030116458
-4.5279672e-06
2.2433181e-05
-0.00048283966
-1.3965231e-05
3.6962624e-05
-0.00058559399
4.2978986e-05
-0.00058752839
-1.8280934e-05
4.4707064e-07
-1.3450294e-06
8.1326164e-06
3.3811543e-06
-5.1970352e-06
2.4368092e-05
9.3702304e-06
-1.0523752e-05
2.9669009e-05
1.5151707e-05
-1.4365179e-05
-7.6311329e-06
1.6028569e-05
-1.1354614e-05
-0.0001220235
9.705914e-06
8.9007305e-07
-0.00030716672
-1.4235399e-06
1.7300996e-05
-0.0004910999
-1.2122884e-05
3.0142374e-05
-0.00059314903
3.5559087e-05
-0.00059325579
-1.7478861e-05
5.3752048e-07
-1.111425e-06
8.4937953e-06
3.9696279e-06
-4.3200291e-06
2.5553359e-05
1.1044882e-05
-8.832147e-06
3.1528403e-05
1.8070586e-05
-1.22931e-05
-6.1499125e-06
1.9731236e-05
-1.0318221e-05
-0.00012265264
1.3313899e-05
-1.1308914e-06
-0.00031068434
1.2662425e-06
1.1230292e-05
-0.00049605688
-1.0595839e-05
2.0875181e-05
-0.00059741067
2.4988038e-05
-0.00059605152
-1.6873293e-05
6.1240475e-07
-6.4497273e-07
8.7276704e-06
4.487938e-06
-2.5104898e-06
2.6322124e-05
1.2562194e-05
-5.1535026e-06
3.2747846e-05
2.0792568e-05
-7.2372595e-06
-5.1242457e-06
2.2877182e-05
-6.2431581e-06
-0.00012286204
1.6164895e-05
-1.25236e-06
-0.00031253455
3.3191935e-06
5.4386651e-06
-0.00049858314
-9.4403223e-06
1.0622126e-05
-0.00059931181
1.281937e-05
-0.0005969358
-1.6414118e-05
6.4348909e-07
-2.1921267e-11
8.8678693e-06
4.7735268e-06
-4.9719119e-11
2.6804461e-05
1.3474645e-05
-8.1169968e-11
3.3571779e-05
2.2510509e-05
-5.4881282e-11
-4.2779801e-06
2.476523e-05
8.4730119e-11
-0.00012257358
1.7812282e-05
3.1873043e-10
-0.00031308842
4.487066e-06
5.0976224e-10
-0.0004995442
-8.7807026e-06
4.6968302e-10
-0.00060002435
2.6941389e-10
-0.00059718073
-1.6157538e-05
6.4350422e-07
6.4492442e-07
8.8678677e-06
4.7735036e-06
2.5103704e-06
2.6804457e-05
1.3474645e-05
5.1533161e-06
3.3571773e-05
2.2510501e-05
7.237178e-06
-4.2779829e-06
2.4765273e-05
6.243399e-06
-0.00012257357
1.7812325e-05
1.2530719e-06
-0.00031308839
4.4870178e-06
-5.4376188e-06
-0.00049954416
-8.7808391e-06
-1.062117e-05
-0.00060002433
-1.2818782e-05
-0.00059718073
-1.615775e-05
6.1240122e-07
1.1113819e-06
8.7276692e-06
4.4878762e-06
4.3199186e-06
2.632212e-05
1.2562216e-05
8.8319957e-06
3.2747839e-05
2.0792434e-05
1.2293127e-05
-5.1242569e-06
2.2877104e-05
1.0318614e-05
-0.00012286205
1.61648e-05
1.1317726e-06
-0.00031253456
3.3189167e-06
-1.1229165e-05
-0.00049858315
-9.4407542e-06
-2.0874189e-05
-0.00059931182
-2.4987371e-05
-0.00059693583
-1.641461e-05
5.3744055e-07
1.3449767e-06
8.4937919e-06
3.9695544e-06
5.1969129e-06
2.5553347e-05
1.1045e-05
1.052361e-05
3.1528386e-05
1.8070395e-05
1.4365209e-05
-6.149927e-06
1.9731105e-05
1.1355087e-05
-0.00012265264
1.3313679e-05
-8.8892377e-07
-0.00031068431
1.2658401e-06
-1.729957e-05
-0.00049605685
-1.0596402e-05
-3.0141204e-05
-0.00059741065
-3.5558368e-05
-0.00059605154
-1.6873764e-05
4.4692578e-07
1.3830705e-06
8.1326136e-06
3.3809972e-06
5.2924944e-06
2.4368083e-05
9.3702652e-06
1.0582365e-05
2.9668993e-05
1.5151502e-05
1.4096936e-05
-7.6311494e-06
1.602841e-05
1.0172731e-05
-0.0001220235
9.7054357e-06
-3.7918395e-06
-0.00030716671
-1.4240534e-06
-2.2431321e-05
-0.00049109988
-1.212347e-05
-3.6961248e-05
-0.00059314903
-4.297842e-05
-0.0005932558
-1.747919e-05
3.535245e-07
1.2891085e-06
7.6896382e-06
2.8124652e-06
4.8726003e-06
2.2937289e-05
7.7844981e-06
9.5928629e-06
2.754393e-05
1.2294054e-05
1.2407869e-05
-8.9682155e-06
1.2204006e-05
7.9040722e-06
-0.00012022056
5.8046179e-06
-6.4720159e-06
-0.00030116459
-4.5285861e-06
-2.5482336e-05
-0.00048283966
-1.396584e-05
-4.0300637e-05
-0.000585594
-4.6233676e-05
-0.0005875284
-1.8281167e-05
2.6801155e-07
1.1275581e-06
7.1700984e-06
2.2820545e-06
4.1987451e-06
2.1320907e-05
6.3135779e-06
8.1152513e-06
2.5303453e-05
9.5514658e-06
1.0160517e-05
-9.8695049e-06
8.3991208e-06
5.5744005e-06
-0.00011676296
1.7626282e-06
-8.0090465e-06
-0.00029196783
-7.8414697e-06
-2.5875468e-05
-0.00047032052
-1.6012958e-05
-3.9824075e-05
-0.00057352734
-4.5149652e-05
-0.00057746825
-1.9279753e-05
1.9005073e-07
9.481766e-07
6.5683483e-06
1.7939852e-06
3.4737391e-06
1.9490058e-05
4.9526743e-06
6.585496e-06
2.2891921e-05
7.029307e-06
8.0040926e-06
-1.0384714e-05
4.8938479e-06
3.8255156e-06
-0.000111575
-2.069429e-06
-8.0070329e-06
-0.00027917368
-1.1110124e-05
-2.3637542e-05
-0.00045263915
-1.8131842e-05
-3.5911956e-05
-0.00055555952
-4.0231543e-05
-0.00056134181
-2.0418976e-05
1.2077623e-07
7.8618118e-07
5.8573789e-06
1.3580227e-06
2.8395622e-06
1.7332546e-05
3.7302164e-06
5.3065382e-06
2.0075363e-05
4.7803852e-06
6.387645e-06
-1.0840045e-05
1.7975938e-06
3.0242383e-06
-0.00010488673
-5.4341923e-06
-6.4780078e-06
-0.00026255563
-1.3958658e-05
-1.9253217e-05
-0.00042879244
-1.9960259e-05
-2.9386378e-05
-0.00052991701
-3.2481718e-05
-0.00053695497
-2.1403646e-05
7.6637462e-08
6.5438376e-07
5.0739701e-06
1.0144873e-06
2.3600822e-06
1.496703e-05
2.7324762e-06
4.4309907e-06
1.7044517e-05
2.9741099e-06
5.5321661e-06
-1.102821e-05
-6.8081882e-07
3.3903499e-06
-9.6493997e-05
-8.0902943e-06
-3.4974473e-06
-0.00024170354
-1.611215e-05
-1.3275094e-05
-0.00039779253
-2.1151253e-05
-2.1213447e-05
-0.00049489098
-2.3115557e-05
-0.00050212015
-2.18005e-05
4.662306e-08
5.6491136e-07
4.2432132e-06
7.3689172e-07
2.0772595e-06
1.2487551e-05
1.9202285e-06
4.0412257e-06
1.3993496e-05
1.5774888e-06
5.5372876e-06
-1.0621243e-05
-2.3935108e-06
4.8902344e-06
-8.5826795e-05
-9.6665315e-06
6.7797729e-07
-0.0002155416
-1.7063069e-05
-6.229632e-06
-0.00035777477
-2.1126116e-05
-1.2244205e-05
-0.00044793672
-1.325085e-05
-0.00045415783
-2.0983789e-05
2.4663266e-08
5.2767759e-07
3.3906982e-06
5.1077983e-07
2.0158864e-06
9.9783454e-06
1.2924668e-06
4.1524659e-06
1.1077004e-05
6.723053e-07
6.3507174e-06
-9.3639473e-06
-3.1339341e-06
7.3482943e-06
-7.2399596e-05
-9.796042e-06
5.7492302e-06
-0.00018303488
-1.6378432e-05
1.5506907e-06
-0.00030683445
-1.9511336e-05
-2.9208035e-06
-0.0003864733
-3.9496438e-06
-0.0003904353
-1.834943e-05
1.8698298e-08
2.6600244e-06
5.3888804e-07
4.0469038e-07
8.0060837e-06
2.121539e-06
1.0780868e-06
9.4917564e-06
4.5653769e-06
7.3234432e-07
-5.3660695e-06
7.5520577e-06
-2.1763785e-06
-5.3815734e-05
1.0187946e-05
-7.5839652e-06
-0.00014149449
1.1160451e-05
-1.3110822e-05
-0.00024195453
9.6843097e-06
-1.5837421e-05
-0.00030735594
6.8067481e-06
-0.00030809842
4.2070674e-06
-1.39416e-05
-5.804388e-08
-2.7793214e-07
2.8704469e-06
1.2555308e-07
-4.6910379e-07
-1.2988674e-06
9.0816066e-06
6.34391e-07
-1.3793343e-06
-3.4353313e-06
1.2044801e-05
1.7924699e-06
-2.3966657e-06
-7.35117e-06
-1.09054e-06
4.0928694e-06
-2.7422147e-06
-1.3598658e-05
-4.7927078e-05
8.0553826e-06
-1.6883497e-06
-2.2051448e-05
-0.00013429389
1.3796789e-05
1.0986859e-06
-3.1521111e-05
-0.00023385106
2.0630452e-05
5.3601611e-06
-3.9739721e-05
-0.00029895372
2.7075893e-05
-4.4024663e-05
-0.00030034961
3.1588953e-05
1.0046966e-05
-6.7503632e-08
-4.3613023e-07
3.6163957e-06
-5.4593024e-07
-2.003588e-06
1.1161466e-05
-1.5766541e-06
-5.1794501e-06
1.3851765e-05
-2.6632958e-06
-1.074971e-05
-4.8789332e-06
-2.953567e-06
-1.921046e-05
-6.6497753e-05
-1.7696437e-06
-3.0134329e-05
-0.00017613614
1.07381e-06
-4.18645e-05
-0.00029933473
5.2288119e-06
-5.153943e-05