/*--------------------------------*- C++ -*----------------------------------*\
| =========                 |                                                 |
| \\      /  F ield         | OpenFOAM: The Open Source CFD Toolbox           |
|  \\    /   O peration     | Version:  2406                                  |
|   \\  /    A nd           | Website:  www.openfoam.com                      |
|    \\/     M anipulation  |                                                 |
\*---------------------------------------------------------------------------*/
FoamFile
{
    version     2.0;
    format      ascii;
    arch        "LSB;label=32;scalar=64";
    class       volVectorField;
    location    "15";
    object      U;
}
// * * * * * * * * * * * * * * * * * * * * * * * * * * * * * * * * * * * * * //

dimensions      [0 1 -1 0 0 0 0];

internalField   nonuniform List<vector> 
34560
(
(-0.0019832765 0.0013996888 0.0088043266)
(-0.027983196 0.0066208727 0.032979822)
(-0.098755506 0.015674862 0.070066474)
(-0.23970154 0.027378146 0.12124832)
(-0.45977349 0.038800504 0.17863868)
(-0.72959898 0.046231992 0.22743727)
(-0.99319709 0.051849442 0.2558445)
(-1.2051033 0.061817973 0.26217707)
(-1.3445198 0.075969158 0.25281113)
(0.00017083943 0.0028063044 0.011010297)
(-0.02687452 0.011971824 0.040572788)
(-0.10889713 0.026555693 0.084754868)
(-0.27508582 0.044082344 0.14325587)
(-0.52735589 0.059023086 0.20428254)
(-0.81994813 0.067074922 0.25066999)
(-1.0864635 0.072562769 0.27240549)
(-1.2847252 0.083322063 0.27126958)
(-1.4072182 0.099174141 0.25522914)
(0.0048231105 0.0028444983 0.011849046)
(-0.017944759 0.013507391 0.044117987)
(-0.10560243 0.031546399 0.092730727)
(-0.29211307 0.054001162 0.15653636)
(-0.5716804 0.072642837 0.22034501)
(-0.88107195 0.082137659 0.26507938)
(-1.1459461 0.088663836 0.28253213)
(-1.3311248 0.10109057 0.27723282)
(-1.4405187 0.11928013 0.25850954)
(0.011769336 0.0028972134 0.01267365)
(-0.0014577364 0.014673567 0.047153189)
(-0.088703732 0.035212812 0.099102786)
(-0.28957031 0.061080802 0.16617288)
(-0.59068781 0.082678749 0.23127765)
(-0.91267853 0.093795361 0.27421349)
(-1.1749196 0.10199321 0.28913438)
(-1.3493834 0.11607113 0.28235927)
(-1.4481669 0.13664424 0.26357457)
(0.021393781 0.0021622864 0.012973807)
(0.023981312 0.013471044 0.048409316)
(-0.05559886 0.03503941 0.10215507)
(-0.26475503 0.063516003 0.17134177)
(-0.58293492 0.087326239 0.23667811)
(-0.91495685 0.10064977 0.27918839)
(-1.1754728 0.11147509 0.29415472)
(-1.3411603 0.12909596 0.28900855)
(-1.4285628 0.15138488 0.2720541)
(0.034025719 0.00050836781 0.01285206)
(0.059657784 0.0093317733 0.048201182)
(-0.0037544829 0.029824323 0.10257662)
(-0.21421282 0.059617929 0.17314543)
(-0.54661927 0.086356326 0.24005)
(-0.88773231 0.10313192 0.28410255)
(-1.144843 0.1176829 0.3015693)
(-1.2999511 0.1378469 0.2994711)
(-1.3761663 0.16149099 0.28563572)
(0.050191942 -0.0020037227 0.012596013)
(0.10747681 0.0023949178 0.047571074)
(0.070961088 0.019600266 0.10227615)
(-0.13136073 0.049026085 0.17451677)
(-0.47263244 0.078341769 0.2442276)
(-0.8204324 0.099443664 0.29218399)
(-1.073237 0.11851371 0.31457144)
(-1.2177061 0.14164231 0.31735837)
(-1.2826165 0.16629332 0.30748555)
(0.070456838 -0.0053159468 0.01232181)
(0.16964111 -0.0070636 0.04736475)
(0.1729503 0.0047502125 0.10302785)
(-0.0095109689 0.032220767 0.17901003)
(-0.35300069 0.063827196 0.25443269)
(-0.70410463 0.089723295 0.30937181)
(-0.95050387 0.11338993 0.33898211)
(-1.0828985 0.13891842 0.34769759)
(-1.1356617 0.16376526 0.34167476)
(0.094522357 -0.0086898109 0.01252768)
(0.2456705 -0.017216076 0.048688916)
(0.30151314 -0.01194062 0.10762197)
(0.15244969 0.012034849 0.19118041)
(-0.18436266 0.044621703 0.27649757)
(-0.53250365 0.074262375 0.34177616)
(-0.76757837 0.10115285 0.38045645)
(-0.884607 0.12742709 0.3952123)
(-0.92382879 0.1510798 0.39191079)
(0.12050314 -0.010607756 0.013476569)
(0.32937276 -0.023828504 0.052578827)
(0.4452756 -0.024077884 0.11836071)
(0.34149792 -0.0051687798 0.21359824)
(0.022273263 0.024931043 0.31336102)
(-0.31307598 0.05451335 0.3916094)
(-0.52917719 0.081059402 0.44017755)
(-0.62633141 0.10527591 0.459952)
(-0.65105624 0.12508792 0.45773724)
(0.14388234 -0.0091768115 0.014979711)
(0.4054613 -0.021662623 0.057877029)
(0.57748491 -0.024207177 0.13388031)
(0.52084314 -0.012143059 0.24176562)
(0.22808489 0.0099169449 0.3584532)
(-0.085205216 0.032839996 0.4497945)
(-0.27638642 0.053077041 0.50730078)
(-0.35190924 0.070237814 0.53062715)
(-0.36259993 0.084154522 0.52732417)
(0.15803204 -0.0036358548 0.016186272)
(0.45193875 -0.0086932164 0.062284081)
(0.6602042 -0.010022461 0.14538328)
(0.63480363 -0.0058622253 0.26262986)
(0.36307645 0.0023635313 0.39126529)
(0.068137256 0.011146896 0.49129174)
(-0.10418585 0.018869714 0.55434798)
(-0.16492588 0.025235334 0.57949015)
(-0.16619302 0.030362183 0.57450345)
(0.15803201 0.0036356568 0.016186293)
(0.45193865 0.0086925951 0.062284091)
(0.66020396 0.010021264 0.14538334)
(0.63480328 0.0058606112 0.2626299)
(0.3630761 -0.0023653381 0.39126531)
(0.068136959 -0.01114857 0.49129173)
(-0.10418607 -0.018871127 0.55434801)
(-0.16492605 -0.025236542 0.57949025)
(-0.16619319 -0.030363373 0.57450365)
(0.14388225 0.0091766659 0.014979734)
(0.405461 0.021662071 0.057877083)
(0.57748433 0.024206079 0.1338804)
(0.52084231 0.012141602 0.24176571)
(0.22808404 -0.0099185812 0.35845336)
(-0.085205928 -0.032841549 0.44979461)
(-0.27638694 -0.053078425 0.50730093)
(-0.35190964 -0.070239018 0.53062744)
(-0.36260037 -0.084155679 0.52732462)
(0.12050301 0.01060762 0.013476585)
(0.32937236 0.023828002 0.052579081)
(0.4452749 0.024076891 0.11836097)
(0.34149693 0.0051674435 0.21359859)
(0.022272194 -0.024932496 0.31336153)
(-0.31307693 -0.054514712 0.39160979)
(-0.52917792 -0.081060704 0.44017792)
(-0.62633199 -0.1052771 0.45995244)
(-0.65105682 -0.12508901 0.45773774)
(0.094522235 0.0086895952 0.012527714)
(0.24567012 0.017215541 0.048689382)
(0.30151244 0.011939686 0.10762252)
(0.15244867 -0.012036099 0.1911811)
(-0.18436377 -0.04462291 0.2764983)
(-0.53250468 -0.074263434 0.34177676)
(-0.76757923 -0.10115393 0.38045703)
(-0.88460768 -0.12742819 0.39521285)
(-0.92382942 -0.15108087 0.39191131)
(0.070456731 0.0053157168 0.012321839)
(0.16964075 0.0070631279 0.047365133)
(0.17294961 -0.0047509791 0.10302842)
(-0.0095119322 -0.032221743 0.17901074)
(-0.35300175 -0.063828025 0.25443338)
(-0.70410565 -0.089723997 0.30937252)
(-0.9505047 -0.11339068 0.33898283)
(-1.0828992 -0.13891939 0.34769826)
(-1.1356624 -0.16376641 0.34167549)
(0.050191856 0.0020035198 0.012596046)
(0.10747651 -0.0023954046 0.047571317)
(0.070960513 -0.019600986 0.10227667)
(-0.13136157 -0.049026823 0.17451744)
(-0.4726334 -0.078342413 0.24422832)
(-0.82043329 -0.099444171 0.2921848)
(-1.0732377 -0.11851419 0.31457222)
(-1.2177067 -0.14164308 0.31735919)
(-1.2826173 -0.16629452 0.30748662)
(0.034025647 -0.00050851343 0.0128522)
(0.059657548 -0.0093322476 0.048201437)
(-0.0037549238 -0.029825009 0.10257695)
(-0.21421349 -0.059618604 0.17314595)
(-0.54662002 -0.086356901 0.24005069)
(-0.88773306 -0.1031323 0.2841032)
(-1.1448437 -0.11768325 0.30156999)
(-1.2999518 -0.1378475 0.299472)
(-1.376167 -0.16149211 0.28563682)
(0.021393725 -0.0021623629 0.012973854)
(0.023981119 -0.0134713 0.048409367)
(-0.055599237 -0.035039822 0.10215516)
(-0.26475557 -0.063516521 0.17134205)
(-0.5829356 -0.087326627 0.23667836)
(-0.91495755 -0.10065014 0.27918872)
(-1.1754735 -0.11147528 0.29415525)
(-1.341161 -0.12909655 0.28900941)
(-1.4285631 -0.15138589 0.27205483)
(0.011769284 -0.002897246 0.012673635)
(-0.0014579056 -0.014673644 0.047153194)
(-0.088704045 -0.035213024 0.099102872)
(-0.28957081 -0.061081241 0.16617299)
(-0.59068856 -0.082679142 0.23127789)
(-0.91267937 -0.093795778 0.27421376)
(-1.1749204 -0.10199354 0.28913478)
(-1.349384 -0.1160718 0.28235999)
(-1.448167 -0.13664501 0.26357516)
(0.0048230677 -0.0028445556 0.011849079)
(-0.017944894 -0.013507489 0.044118149)
(-0.10560269 -0.031546565 0.092731009)
(-0.29211347 -0.054001483 0.15653659)
(-0.57168091 -0.072643334 0.22034507)
(-0.88107261 -0.082138112 0.26507931)
(-1.1459467 -0.088664426 0.2825324)
(-1.3311254 -0.10109108 0.27723286)
(-1.4405191 -0.11928127 0.25851002)
(0.00017080075 -0.0028063688 0.011010328)
(-0.026874641 -0.011971898 0.040572959)
(-0.10889735 -0.026555799 0.084755078)
(-0.27508617 -0.044082482 0.14325594)
(-0.52735638 -0.059023337 0.20428235)
(-0.81994878 -0.067075404 0.25066989)
(-1.0864642 -0.072563553 0.27240534)
(-1.2847254 -0.083323037 0.27126986)
(-1.4072186 -0.099175769 0.25523081)
(-0.0019833093 -0.0013996932 0.0088043137)
(-0.027983298 -0.0066208518 0.0329798)
(-0.098755696 -0.015674853 0.070066395)
(-0.23970183 -0.027378119 0.12124816)
(-0.4597739 -0.038800387 0.17863862)
(-0.72959946 -0.046232036 0.22743717)
(-0.99319737 -0.051849824 0.25584438)
(-1.2051036 -0.061819232 0.26217813)
(-1.34452 -0.075970273 0.25281227)
(0.026731615 0.00069072222 0.0004866335)
(0.068511883 0.0016597532 0.00085197132)
(0.089876698 0.002012871 -0.00027870017)
(0.068404189 0.00038998209 -0.0039055965)
(-0.01585949 -0.0048196014 -0.010667528)
(-0.16449886 -0.014357704 -0.019488572)
(-0.3489478 -0.026986838 -0.027817691)
(-0.5230608 -0.040311563 -0.033732658)
(-0.64750678 -0.053407293 -0.036421566)
(0.03081847 -0.00023622238 -0.00040809914)
(0.077405016 -0.0013932349 -0.0020837293)
(0.098178315 -0.0036475944 -0.0059354666)
(0.068243486 -0.0083005399 -0.012706385)
(-0.031409558 -0.016770763 -0.022288434)
(-0.19640385 -0.029315635 -0.032500661)
(-0.39010696 -0.044028477 -0.040343646)
(-0.56307338 -0.058262221 -0.044534304)
(-0.68234683 -0.0708042 -0.045957949)
(0.035432777 -0.0013783089 -0.0012751988)
(0.088183453 -0.0051074955 -0.0049839816)
(0.11034593 -0.010411986 -0.011590604)
(0.074783775 -0.018285816 -0.021419609)
(-0.036380028 -0.029652703 -0.033341764)
(-0.21304508 -0.044142249 -0.04409601)
(-0.41175053 -0.059533388 -0.05073622)
(-0.58193352 -0.073602651 -0.053194673)
(-0.69673559 -0.08565645 -0.053091149)
(0.039784992 -0.0029134925 -0.0021861356)
(0.098454649 -0.0099431592 -0.0080024483)
(0.12227133 -0.018928735 -0.017452501)
(0.082227884 -0.030280509 -0.030356052)
(-0.038275767 -0.04421894 -0.044386498)
(-0.22384818 -0.059824304 -0.055251397)
(-0.42539244 -0.075009682 -0.060409926)
(-0.59223585 -0.088417858 -0.061105114)
(-0.70314383 -0.10003145 -0.059612964)
(0.043833192 -0.0047063304 -0.0030009311)
(0.1081036 -0.015517211 -0.010722719)
(0.13369208 -0.028579011 -0.022810548)
(0.089863515 -0.043483565 -0.038583033)
(-0.038793677 -0.059595027 -0.054470307)
(-0.23203697 -0.075631603 -0.065255989)
(-0.43585041 -0.090058813 -0.068994443)
(-0.5997031 -0.10250525 -0.068154416)
(-0.70712865 -0.11340321 -0.065490831)
(0.047586482 -0.0066883555 -0.0036038714)
(0.11712894 -0.021561058 -0.01277823)
(0.14458355 -0.038821543 -0.0270727)
(0.097469226 -0.057061197 -0.04532355)
(-0.038694953 -0.07474055 -0.062784528)
(-0.23928576 -0.090510873 -0.073392078)
(-0.44579511 -0.10371681 -0.075912514)
(-0.6075383 -0.1149061 -0.073915837)
(-0.71194688 -0.12477331 -0.070427299)
(0.051020539 -0.0087035961 -0.0039588855)
(0.12552941 -0.02752964 -0.014025274)
(0.15498718 -0.048649894 -0.02987835)
(0.1051064 -0.069568365 -0.049953366)
(-0.038123486 -0.087987737 -0.068589759)
(-0.24617488 -0.10283291 -0.079002846)
(-0.45621751 -0.11448183 -0.080641164)
(-0.61701973 -0.12419407 -0.077953982)
(-0.71902877 -0.13269969 -0.074019153)
(0.054367623 -0.010349848 -0.0039268818)
(0.13401033 -0.032218611 -0.014034155)
(0.16600343 -0.055989813 -0.030485935)
(0.11413771 -0.078311484 -0.051653019)
(-0.035846038 -0.096430158 -0.070987691)
(-0.25184634 -0.10986154 -0.08131813)
(-0.46654816 -0.11984253 -0.082554926)
(-0.62766929 -0.12798978 -0.079735611)
(-0.72781437 -0.13498259 -0.075786845)
(0.057778155 -0.011080445 -0.0034557304)
(0.14306355 -0.034021967 -0.012666039)
(0.1785105 -0.058252267 -0.028683813)
(0.12532819 -0.080188428 -0.050206073)
(-0.030921268 -0.096936909 -0.069725035)
(-0.25500834 -0.10846472 -0.079995763)
(-0.47520811 -0.11670415 -0.081278449)
(-0.63771587 -0.1232795 -0.078846457)
(-0.73683736 -0.12857801 -0.075248636)
(0.061242139 -0.01031173 -0.0026162776)
(0.15272195 -0.031280058 -0.010133062)
(0.19271258 -0.05289362 -0.024724499)
(0.13884888 -0.071816735 -0.045580784)
(-0.023192943 -0.08552191 -0.064843498)
(-0.25518659 -0.094674767 -0.075105374)
(-0.48099946 -0.10105576 -0.076837673)
(-0.64533847 -0.1059092 -0.075210189)
(-0.74384423 -0.10947528 -0.072267841)
(0.064344526 -0.0075642444 -0.0016473076)
(0.16171844 -0.022684373 -0.0071317872)
(0.20666073 -0.037921527 -0.019707285)
(0.15319624 -0.050765704 -0.03904624)
(-0.014160467 -0.059857182 -0.058431913)
(-0.25262278 -0.065878642 -0.068515613)
(-0.48303136 -0.07001837 -0.070783302)
(-0.64895145 -0.072993127 -0.070089727)
(-0.74708063 -0.074982244 -0.067887695)
(0.066380876 -0.0028062237 -0.0010049974)
(0.1678354 -0.0083612906 -0.0051228658)
(0.21660408 -0.013873479 -0.016236884)
(0.16405217 -0.018418119 -0.03438591)
(-0.0068747904 -0.021626827 -0.053780787)
(-0.24932761 -0.023769752 -0.063642947)
(-0.48256143 -0.025219042 -0.066268986)
(-0.64952182 -0.026215877 -0.066204772)
(-0.74747819 -0.026834211 -0.064499998)
(0.066380874 0.0028062608 -0.0010049941)
(0.16783539 0.0083614284 -0.005122869)
(0.21660406 0.013873698 -0.016236866)
(0.16405216 0.018418461 -0.0343859)
(-0.0068747906 0.021627293 -0.053780781)
(-0.24932761 0.023770315 -0.063642955)
(-0.48256142 0.025219655 -0.066268988)
(-0.64952184 0.026216473 -0.066204753)
(-0.74747825 0.026834715 -0.064499936)
(0.064344517 0.0075642931 -0.0016473085)
(0.16171842 0.022684521 -0.0071317907)
(0.2066607 0.037921758 -0.019707272)
(0.15319621 0.050766083 -0.039046233)
(-0.014160466 0.059857671 -0.058431871)
(-0.25262276 0.065879195 -0.068515607)
(-0.48303136 0.070018932 -0.070783297)
(-0.64895151 0.072993682 -0.070089691)
(-0.74708078 0.074982753 -0.067887572)
(0.061242118 0.01031178 -0.0026162891)
(0.1527219 0.031280214 -0.010133004)
(0.19271253 0.052893857 -0.024724472)
(0.13884884 0.071817102 -0.04558073)
(-0.023192936 0.085522391 -0.064843358)
(-0.25518657 0.094675321 -0.075105311)
(-0.48099948 0.10105629 -0.076837655)
(-0.64533857 0.10590971 -0.075210178)
(-0.74384441 0.10947577 -0.072267761)
(0.057778128 0.011080442 -0.0034557352)
(0.14306349 0.034022065 -0.012665862)
(0.17851044 0.058252443 -0.028683659)
(0.12532814 0.080188706 -0.050205871)
(-0.030921264 0.096937375 -0.069724828)
(-0.25500834 0.10846533 -0.079995686)
(-0.47520816 0.11670474 -0.081278438)
(-0.63771598 0.12327999 -0.078846496)
(-0.73683752 0.12857841 -0.075248609)
(0.054367598 0.010349806 -0.003926889)
(0.13401027 0.032218665 -0.014033996)
(0.16600335 0.055989942 -0.030485774)
(0.11413765 0.078311732 -0.051652831)
(-0.035846063 0.096430664 -0.070987579)
(-0.25184636 0.10986223 -0.08131809)
(-0.46654819 0.11984321 -0.082554922)
(-0.62766936 0.12799028 -0.079735672)
(-0.72781452 0.13498288 -0.075786768)
(0.051020516 0.0087035427 -0.0039588852)
(0.12552935 0.027529636 -0.014025166)
(0.15498709 0.048649967 -0.029878209)
(0.10510632 0.069568627 -0.049953248)
(-0.038123543 0.087988239 -0.068589708)
(-0.2461749 0.1028336 -0.07900282)
(-0.4562175 0.11448255 -0.080641172)
(-0.61701979 0.12419459 -0.077954026)
(-0.71902894 0.13269988 -0.074019008)
(0.047586461 0.0066883136 -0.0036038435)
(0.11712888 0.021561019 -0.012778167)
(0.14458347 0.038821562 -0.027072704)
(0.097469133 0.057061395 -0.045323552)
(-0.038695012 0.074740986 -0.062784531)
(-0.23928578 0.090511533 -0.073392161)
(-0.44579512 0.10371754 -0.075912606)
(-0.60753841 0.11490661 -0.073915891)
(-0.71194703 0.12477341 -0.070427254)
(0.043833175 0.004706311 -0.0030009144)
(0.10810356 0.015517215 -0.010722716)
(0.133692 0.028579065 -0.022810607)
(0.089863407 0.043483726 -0.038583069)
(-0.03879377 0.059595445 -0.05447047)
(-0.23203706 0.075632183 -0.065256205)
(-0.43585051 0.09005951 -0.068994631)
(-0.59970329 0.10250565 -0.068154508)
(-0.70712874 0.11340319 -0.065491026)
(0.039784964 0.0029134899 -0.0021861535)
(0.098454569 0.0099432273 -0.0080024854)
(0.1222712 0.018928848 -0.01745258)
(0.082227723 0.030280661 -0.030356222)
(-0.03827596 0.044219293 -0.044386761)
(-0.22384839 0.059824796 -0.055251712)
(-0.42539266 0.075010191 -0.060410192)
(-0.59223603 0.088418118 -0.061105302)
(-0.70314387 0.10003139 -0.059613363)
(0.035432744 0.0013783014 -0.0012752024)
(0.088183361 0.005107574 -0.0049839479)
(0.11034579 0.010412137 -0.01159057)
(0.074783579 0.018286023 -0.021419676)
(-0.036380272 0.029652969 -0.033342019)
(-0.21304537 0.044142656 -0.04409642)
(-0.41175083 0.059533695 -0.050736606)
(-0.58193378 0.073602839 -0.053195326)
(-0.69673577 0.085656187 -0.053091839)
(0.030818437 0.00023621498 -0.00040809929)
(0.077404921 0.0013933159 -0.0020836966)
(0.098178156 0.0036477691 -0.0059354616)
(0.068243262 0.0083008209 -0.012706541)
(-0.031409848 0.016771096 -0.02228886)
(-0.19640421 0.029315903 -0.03250119)
(-0.39010733 0.044028608 -0.040344406)
(-0.56307362 0.058261928 -0.044535039)
(-0.682347 0.070803419 -0.045958172)
(0.026731584 -0.00069069851 0.00048660551)
(0.068511795 -0.0016596428 0.00085188423)
(0.089876542 -0.0020126629 -0.00027886701)
(0.06840396 -0.0003896613 -0.003905894)
(-0.015859776 0.0048200832 -0.010667903)
(-0.16449916 0.014358117 -0.019489291)
(-0.34894803 0.026987058 -0.027818658)
(-0.52306096 0.040311231 -0.033733479)
(-0.64750686 0.053406802 -0.036421889)
(0.0105039 -0.00034963994 -0.00031827815)
(0.019273585 -0.00096858558 -0.00089311679)
(0.0047896899 -0.0014890409 -0.001411461)
(-0.050800678 -0.0018646084 -0.0016819534)
(-0.16257239 -0.0021587135 -0.0014123966)
(-0.33002409 -0.0024486865 -0.00039898473)
(-0.52628687 -0.0026953233 0.0011526339)
(-0.70852237 -0.0027476801 0.0025087407)
(-0.83854577 -0.0027584956 0.0029531662)
(0.012314362 -0.00034504884 -0.00027592646)
(0.021948087 -0.00090220509 -0.00075561419)
(0.0036368102 -0.0012750888 -0.0011562211)
(-0.062213731 -0.0013990525 -0.0012535463)
(-0.18963979 -0.0013426662 -0.00071010689)
(-0.37281453 -0.0012175164 0.00063952408)
(-0.57739874 -0.001066891 0.0024303503)
(-0.75723139 -0.00086707164 0.0038296451)
(-0.88092359 -0.00076652327 0.0040173175)
(0.014639334 -0.00038149148 -0.00026513483)
(0.026583045 -0.0009613901 -0.00072431034)
(0.0067123485 -0.0012704677 -0.0011111113)
(-0.066028927 -0.0011929202 -0.0011691597)
(-0.20454164 -0.00078137907 -0.00049376949)
(-0.39801144 -0.00020484503 0.0010670655)
(-0.60598065 0.00036125554 0.0030440069)
(-0.78135453 0.00081941897 0.0045693881)
(-0.8990491 0.0010856819 0.0048801277)
(0.01686039 -0.0004450247 -0.00026900211)
(0.031238474 -0.0011107952 -0.00074922497)
(0.010567545 -0.0014306433 -0.0011856986)
(-0.067308734 -0.0012083755 -0.0012905024)
(-0.2140119 -0.00044831628 -0.0005834058)
(-0.41419431 0.00061253569 0.0010937772)
(-0.6225235 0.0016308905 0.0032119981)
(-0.79222831 0.0023823811 0.0049144813)
(-0.90400571 0.0028296443 0.0054319992)
(0.018978095 -0.00053347534 -0.0002812828)
(0.035873842 -0.001346276 -0.00080960831)
(0.014996495 -0.0017496518 -0.0013425143)
(-0.066716528 -0.0014414385 -0.0015647562)
(-0.21962389 -0.00035452288 -0.0009145262)
(-0.42429361 0.0012029772 0.0007946123)
(-0.63134713 0.002687456 0.0030078326)
(-0.79482569 0.0037395599 0.0048939261)
(-0.90061781 0.004368567 0.0056684562)
(0.020936249 -0.00063935956 -0.00028858457)
(0.040296514 -0.0016460998 -0.00086467558)
(0.019609254 -0.0021937471 -0.0015178126)
(-0.06494295 -0.0018633037 -0.0019161036)
(-0.2225824 -0.00050145119 -0.0014176323)
(-0.43024471 0.0015138001 0.00022170047)
(-0.63517593 0.003439196 0.0024801882)
(-0.79236507 0.0047663331 0.004543411)
(-0.89218494 0.0055379722 0.0055988298)
(0.022671861 -0.00074872912 -0.00028613457)
(0.044332223 -0.0019658128 -0.00089527769)
(0.024130216 -0.0026900808 -0.0016706985)
(-0.062393263 -0.0023900908 -0.0022824774)
(-0.22350188 -0.00082822324 -0.0020139011)
(-0.43305061 0.0015440008 -0.00053315847)
(-0.6354876 0.0038014533 0.0017067105)
(-0.78676814 0.005324361 0.0039243823)
(-0.88097632 0.0061860507 0.005274575)
(0.024320138 -0.0008356108 -0.00026516503)
(0.048350723 -0.0022315673 -0.00087358473)
(0.029092342 -0.0031255311 -0.0017541559)
(-0.058522967 -0.0029014292 -0.0025998168)
(-0.22205004 -0.0012583558 -0.0026249515)
(-0.43281263 0.0012894373 -0.0013886478)
(-0.6329684 0.0037056623 0.00077535346)
(-0.77920241 0.0053193452 0.003135086)
(-0.86850299 0.0061984294 0.0047680405)
(0.025896801 -0.00086265742 -0.00022158369)
(0.052379354 -0.002335914 -0.00078665811)
(0.034492089 -0.0033341904 -0.0017442536)
(-0.053437199 -0.0032144764 -0.0028273249)
(-0.21851566 -0.0016506143 -0.0031845574)
(-0.43008179 0.00083735279 -0.0022418619)
(-0.62840902 0.0031867921 -0.00019135186)
(-0.77065704 0.0047325135 0.0022802074)
(-0.85598201 0.0055505233 0.0041625415)
(0.027301921 -0.00078769685 -0.00015787552)
(0.056085536 -0.002154231 -0.0006401231)
(0.039719822 -0.0031191113 -0.0016451889)
(-0.048023684 -0.0030958523 -0.0029563441)
(-0.21398869 -0.0017750375 -0.0036451856)
(-0.42602833 0.00036236328 -0.0029904113)
(-0.62295845 0.002359781 -0.0010615093)
(-0.76228042 0.0036616084 0.0014835413)
(-0.84464129 0.004326804 0.0035674572)
(0.028313746 -0.00057222129 -8.9906583e-05)
(0.058784158 -0.0015723743 -0.00047455893)
(0.043618364 -0.0022958523 -0.0015023864)
(-0.043796851 -0.0023190549 -0.0030115129)
(-0.2101451 -0.0014144224 -0.0039854133)
(-0.42228311 5.3228125e-05 -0.0035542319)
(-0.61812556 0.0014127235 -0.0017206564)
(-0.75545583 0.0022883948 0.0008689545)
(-0.83584742 0.002721415 0.0030959183)
(0.028949734 -0.00021274451 -4.6111303e-05)
(0.060519661 -0.00058508056 -0.00036636416)
(0.046193469 -0.0008551033 -0.0014035962)
(-0.04091359 -0.00086654183 -0.0030346956)
(-0.20743935 -0.00053788475 -0.0041775726)
(-0.41968985 -1.0275244e-05 -0.0038643762)
(-0.61508183 0.00047342754 -0.0020788211)
(-0.75149888 0.00078012787 0.00053448762)
(-0.83096034 0.00092803626 0.0028378853)
(0.028949731 0.00021271515 -4.6109473e-05)
(0.060519653 0.00058502947 -0.00036635593)
(0.046193458 0.00085504074 -0.0014035817)
(-0.040913604 0.00086650483 -0.0030346778)
(-0.20743936 0.00053790639 -0.0041775556)
(-0.41968986 1.0367432e-05 -0.0038643652)
(-0.61508184 -0.00047329022 -0.0020788052)
(-0.7514989 -0.00078000141 0.0005345164)
(-0.83096037 -0.00092795406 0.0028379413)
(0.028313737 0.0005721933 -8.9905213e-05)
(0.058784133 0.0015723263 -0.00047453686)
(0.043618329 0.0022957956 -0.0015023594)
(-0.043796896 0.0023190353 -0.0030114748)
(-0.21014515 0.0014144713 -0.0039853659)
(-0.42228315 -5.3106154e-05 -0.0035541969)
(-0.61812559 -0.0014125665 -0.0017206093)
(-0.75545588 -0.0022882558 0.00086903186)
(-0.83584748 -0.002721318 0.0030960637)
(0.027301906 0.00078766686 -0.00015787665)
(0.056085496 0.0021541892 -0.00064006901)
(0.039719767 0.0031190642 -0.0016451436)
(-0.048023754 0.0030958481 -0.0029562743)
(-0.21398875 0.0017751214 -0.0036450996)
(-0.42602838 -0.00036218949 -0.0029903492)
(-0.62295851 -0.0023595811 -0.0010614363)
(-0.76228049 -0.0036614436 0.0014836413)
(-0.84464137 -0.0043266909 0.0035676393)
(0.025896781 0.00086261283 -0.0002215805)
(0.052379301 0.0023358632 -0.00078656395)
(0.034492016 0.0033341386 -0.0017441653)
(-0.053437287 0.0032144737 -0.0028272071)
(-0.21851574 0.0016507384 -0.0031844543)
(-0.43008185 -0.00083710448 -0.0022417955)
(-0.62840908 -0.0031865256 -0.00019127363)
(-0.77065711 -0.0047323159 0.0022802944)
(-0.85598209 -0.0055504156 0.0041627164)
(0.024320119 0.00083555864 -0.00026515794)
(0.04835067 0.0022315162 -0.00087348591)
(0.029092262 0.0031254836 -0.0017540563)
(-0.058523062 0.0029014486 -0.0025996995)
(-0.22205013 0.0012585362 -0.0026248844)
(-0.43281272 -0.0012891098 -0.0013886011)
(-0.63296847 -0.0037053216 0.00077541764)
(-0.77920247 -0.0053191327 0.003135129)
(-0.86850307 -0.0061983783 0.0047681895)
(0.022671842 0.00074867595 -0.00028612105)
(0.044332163 0.0019657599 -0.00089517993)
(0.024130124 0.002690038 -0.0016705953)
(-0.062393378 0.0023901501 -0.0022823779)
(-0.223502 0.00082845395 -0.0020138625)
(-0.43305073 -0.001543618 -0.00053313589)
(-0.63548769 -0.0038010579 0.0017067383)
(-0.78676822 -0.005324166 0.0039243619)
(-0.88097641 -0.0061861173 0.0052746787)
(0.020936232 0.00063931185 -0.00028856317)
(0.040296457 0.0016460517 -0.00086458987)
(0.019609158 0.0021937121 -0.0015177517)
(-0.064943089 0.0018633874 -0.001916042)
(-0.22258256 0.00050172702 -0.0014176191)
(-0.43024487 -0.0015133684 0.00022166412)
(-0.63517606 -0.0034387666 0.0024801409)
(-0.79236519 -0.0047661834 0.0045433047)
(-0.89218503 -0.0055382046 0.0055988345)
(0.018978077 0.00053343722 -0.0002812623)
(0.035873781 0.001346254 -0.00080954084)
(0.014996382 0.0017496542 -0.0013424704)
(-0.066716694 0.0014415511 -0.0015647153)
(-0.2196241 0.00035484136 -0.00091457686)
(-0.42429384 -0.0012025185 0.0007944928)
(-0.63134734 -0.0026870055 0.0030076895)
(-0.79482587 -0.0037394741 0.0048937207)
(-0.90061791 -0.0043689603 0.0056683043)
(0.01686037 0.00044499668 -0.0002689905)
(0.031238407 0.0011108089 -0.00074917942)
(0.010567419 0.0014306994 -0.0011856706)
(-0.067308925 0.0012085353 -0.0012905097)
(-0.21401217 0.00044866219 -0.00058351479)
(-0.41419462 -0.00061208048 0.0010935567)
(-0.62252379 -0.0016305001 0.0032117369)
(-0.79222852 -0.0023823429 0.0049141283)
(-0.90400583 -0.0028300668 0.0054316432)
(0.01463931 0.00038147397 -0.00026512578)
(0.026582968 0.00096144022 -0.00072426963)
(0.0067122094 0.0012705918 -0.0011110876)
(-0.066029138 0.0011931663 -0.0011691923)
(-0.20454193 0.00078176728 -0.00049394612)
(-0.39801178 0.00020529875 0.0010667301)
(-0.60598098 -0.00036098193 0.0030435808)
(-0.78135478 -0.0008194183 0.0045686906)
(-0.8990493 -0.0010860382 0.0048794827)
(0.012314344 0.00034505511 -0.00027593192)
(0.021948029 0.00090230911 -0.00075562887)
(0.0036367016 0.0012753061 -0.0011562886)
(-0.062213902 0.0013994244 -0.0012537175)
(-0.18964003 0.0013431833 -0.00071045285)
(-0.37281484 0.0012180309 0.00063902645)
(-0.57739906 0.0010671275 0.0024295965)
(-0.75723166 0.00086681596 0.0038286351)
(-0.88092383 0.00076609972 0.0040166392)
(0.010503889 0.00034967025 -0.00031830729)
(0.01927355 0.00096871165 -0.00089322018)
(0.004789628 0.001489279 -0.0014116617)
(-0.050800773 0.0018649779 -0.0016822966)
(-0.16257251 0.002159237 -0.0014129018)
(-0.33002423 0.0024492306 -0.00039972553)
(-0.52628702 0.0026956622 0.001151643)
(-0.70852257 0.0027474672 0.0025073419)
(-0.83854596 0.0027580948 0.0029527072)
(0.018241032 -0.0001309505 -0.00011427889)
(0.042728967 -0.00046824764 -0.00037172887)
(0.04524854 -0.0010025823 -0.00065897586)
(0.0056580775 -0.0017882974 -0.00096904065)
(-0.093812059 -0.0028246888 -0.0013264131)
(-0.25419584 -0.0040574681 -0.0017399506)
(-0.44808179 -0.0054379549 -0.0021717437)
(-0.63093115 -0.0069286425 -0.0025188809)
(-0.7628305 -0.0084290165 -0.0026982987)
(0.020985165 -0.00023723623 -0.00018615429)
(0.047884774 -0.00080068772 -0.00058546244)
(0.047708701 -0.0016020678 -0.0010097741)
(-0.0018197373 -0.0026702169 -0.0014357849)
(-0.11752885 -0.0039661659 -0.0018848299)
(-0.29473728 -0.0054094037 -0.002368958)
(-0.49808118 -0.0069474318 -0.0028545038)
(-0.67956369 -0.0085218056 -0.0032505085)
(-0.8061577 -0.0099718153 -0.0034932214)
(0.024105865 -0.00032921235 -0.00022591451)
(0.054567657 -0.0010916903 -0.00070570121)
(0.053625394 -0.0021256173 -0.0012038942)
(-0.0027962331 -0.0034264781 -0.0016864653)
(-0.13039697 -0.0049116345 -0.0021806513)
(-0.31906458 -0.0064720421 -0.0027111374)
(-0.52686458 -0.0080560713 -0.0032554828)
(-0.70477272 -0.0096054871 -0.0037364499)
(-0.82623254 -0.010960313 -0.0040543948)
(0.026914105 -0.00042462896 -0.00025452602)
(0.060624676 -0.0013850584 -0.0007890339)
(0.059199965 -0.0026329118 -0.0013325636)
(-0.0027699408 -0.0041227529 -0.0018443587)
(-0.13960376 -0.0057294375 -0.0023616894)
(-0.33618114 -0.0073339607 -0.0029297661)
(-0.54533355 -0.0088965551 -0.0035374638)
(-0.71835516 -0.010371764 -0.0041026025)
(-0.83466147 -0.011610224 -0.0044818262)
(0.029371124 -0.00050776434 -0.00026466849)
(0.065920593 -0.0016397767 -0.00081702491)
(0.064104606 -0.0030656563 -0.0013710951)
(-0.0025087878 -0.0046967819 -0.0018874248)
(-0.14678179 -0.006365026 -0.0024178527)
(-0.34904581 -0.0079574844 -0.0030254945)
(-0.55785899 -0.0094476404 -0.0036942567)
(-0.72539802 -0.010799134 -0.0043225967)
(-0.8363817 -0.011882969 -0.0047428413)
(0.031427429 -0.00057491147 -0.00025383363)
(0.070281781 -0.0018419437 -0.00078112259)
(0.067987478 -0.0033953842 -0.0013055694)
(-0.0026424942 -0.0051040104 -0.0017972845)
(-0.15302546 -0.0067613756 -0.0023262682)
(-0.35947843 -0.0082617512 -0.0029659141)
(-0.56706056 -0.0096304698 -0.00369577)
(-0.72902506 -0.010827113 -0.0043750487)
(-0.83459702 -0.011742434 -0.0048325055)
(0.033012595 -0.00061511326 -0.00022671371)
(0.073535613 -0.0019576634 -0.00069468877)
(0.070618329 -0.0035671302 -0.0011546927)
(-0.0034406032 -0.0052785829 -0.0015944719)
(-0.15873891 -0.0068622027 -0.0021090063)
(-0.36824012 -0.0082249174 -0.0027793649)
(-0.57424148 -0.0094177959 -0.0035563728)
(-0.73096357 -0.010414449 -0.004271836)
(-0.83133387 -0.011135276 -0.0047673407)
(0.034273349 -0.00061534158 -0.00018467807)
(0.07610398 -0.0019485739 -0.00056357551)
(0.072647261 -0.0035182286 -0.00093137096)
(-0.0041902324 -0.005141104 -0.001299128)
(-0.16340771 -0.006584499 -0.0017865545)
(-0.37525434 -0.0077551963 -0.002472526)
(-0.57977758 -0.0087236993 -0.0032813899)
(-0.73199197 -0.0094963331 -0.0040422144)
(-0.82768971 -0.010063313 -0.0045998884)
(0.035273436 -0.00056705331 -0.00013313542)
(0.078168142 -0.0017870801 -0.00040368162)
(0.074345317 -0.0032009734 -0.00066094483)
(-0.0046150009 -0.0046265838 -0.00094144922)
(-0.16686772 -0.0058434631 -0.0013883586)
(-0.38052822 -0.0067789555 -0.0020810925)
(-0.58387277 -0.0075070074 -0.0029285483)
(-0.73246803 -0.0080985302 -0.0037623237)
(-0.82427935 -0.0085084654 -0.0043862111)
(0.036015096 -0.00046391555 -7.9536652e-05)
(0.079711231 -0.0014555631 -0.0002374273)
(0.075644684 -0.0025891943 -0.00038092254)