/*--------------------------------*- C++ -*----------------------------------*\
| =========                 |                                                 |
| \\      /  F ield         | OpenFOAM: The Open Source CFD Toolbox           |
|  \\    /   O peration     | Version:  2406                                  |
|   \\  /    A nd           | Website:  www.openfoam.com                      |
|    \\/     M anipulation  |                                                 |
\*---------------------------------------------------------------------------*/
FoamFile
{
    version     2.0;
    format      ascii;
    arch        "LSB;label=32;scalar=64";
    class       volScalarField;
    location    "49";
    object      p;
}
// * * * * * * * * * * * * * * * * * * * * * * * * * * * * * * * * * * * * * //

dimensions      [0 2 -2 0 0 0 0];

internalField   nonuniform List<scalar> 
1176
(
0.79699975
0.79702263
0.79704629
0.79705395
0.79702242
0.79692773
0.7967705
0.79658433
0.79640513
0.79623798
0.79608335
0.79598775
0.79598774
0.79608335
0.79623797
0.79640512
0.7965843
0.79677045
0.79692765
0.79702231
0.79705379
0.79704607
0.79702237
0.79699948
0.77385132
0.77380436
0.77375661
0.77373971
0.77380221
0.77400457
0.77436989
0.77483429
0.77526515
0.77555125
0.77567065
0.77570491
0.7757049
0.77567065
0.77555126
0.77526517
0.77483434
0.77436998
0.7740047
0.77380239
0.77373992
0.77375684
0.77380461
0.77385156
0.75676657
0.75678858
0.75680837
0.75680646
0.7567474
0.75658623
0.75631446
0.75598651
0.7556803
0.75546751
0.7553567
0.75530789
0.75530788
0.75535669
0.75546749
0.75568028
0.75598649
0.75631444
0.7565862
0.75674737
0.75680644
0.75680835
0.75678856
0.75676655
0.74009467
0.7401038
0.74011586
0.74013226
0.7401548
0.74017237
0.74014014
0.74000673
0.73977462
0.73950205
0.73927785
0.73915735
0.73915735
0.73927785
0.73950205
0.73977461
0.74000672
0.74014013
0.74017236
0.74015479
0.74013224
0.74011583
0.74010377
0.74009465
0.72367563
0.72367958
0.72368457
0.72369063
0.72370033
0.72372061
0.72375679
0.7237983
0.72381997
0.7237961
0.72373399
0.72368135
0.72368135
0.72373399
0.7237961
0.72381998
0.72379831
0.72375679
0.72372061
0.72370033
0.72369063
0.72368457
0.72367957
0.72367562
0.70721397
0.70721638
0.70721963
0.70722367
0.70722858
0.70723542
0.70724958
0.7072809
0.70733089
0.70738814
0.70743084
0.7074475
0.7074475
0.70743085
0.70738814
0.70733089
0.7072809
0.70724958
0.70723541
0.70722857
0.70722366
0.70721961
0.70721637
0.70721395
0.69080816
0.6908103
0.69081311
0.69081654
0.69082043
0.69082395
0.69082601
0.69082819
0.69083674
0.69085397
0.69087187
0.69088359
0.69088359
0.69087187
0.69085397
0.69083674
0.69082819
0.69082601
0.69082394
0.69082042
0.69081652
0.69081309
0.69081028
0.69080814
0.6744283
0.67443005
0.67443238
0.6744353
0.67443898
0.67444335
0.6744478
0.67445095
0.67445219
0.67445381
0.67445085
0.67444834
0.67444834
0.67445085
0.67445381
0.67445219
0.67445096
0.67444779
0.67444334
0.67443896
0.67443529
0.67443236
0.67443004
0.67442828
0.65807401
0.65807547
0.6580774
0.65807981
0.65808283
0.65808661
0.65809166
0.6580987
0.65810739
0.65811741
0.65812518
0.65812877
0.65812877
0.65812518
0.65811742
0.65810739
0.6580987
0.65809165
0.6580866
0.65808281
0.65807979
0.65807738
0.65807545
0.658074
0.64173632
0.64173753
0.64173913
0.64174117
0.64174373
0.64174691
0.64175107
0.64175746
0.64176762
0.64178076
0.64179508
0.64180438
0.64180438
0.64179508
0.64178076
0.64176762
0.64175746
0.64175107
0.6417469
0.64174372
0.64174116
0.64173912
0.64173751
0.64173631
0.62541194
0.62541297
0.62541435
0.62541609
0.6254183
0.62542103
0.62542443
0.62542927
0.62543713
0.62544779
0.62546035
0.62546949
0.62546949
0.62546035
0.6254478
0.62543714
0.62542927
0.62542442
0.62542103
0.6254183
0.62541608
0.62541434
0.62541296
0.62541194
0.60909847
0.60909936
0.60910056
0.60910208
0.60910403
0.60910643
0.60910939
0.6091134
0.60911961
0.60912827
0.60913884
0.60914629
0.60914628
0.60913884
0.60912827
0.60911961
0.6091134
0.60910939
0.60910642
0.60910402
0.60910208
0.60910056
0.60909936
0.60909847
0.59279427
0.59279506
0.59279612
0.59279747
0.59279919
0.59280132
0.59280395
0.59280749
0.59281289
0.59282064
0.59283033
0.59283701
0.59283701
0.59283033
0.59282064
0.59281289
0.59280749
0.59280395
0.59280132
0.59279919
0.59279747
0.59279612
0.59279506
0.59279428
0.57649805
0.57649875
0.57649969
0.5765009
0.57650243
0.57650434
0.57650669
0.57650982
0.5765146
0.57652157
0.57653023
0.57653632
0.57653632
0.57653023
0.57652157
0.5765146
0.57650982
0.57650669
0.57650434
0.57650244
0.5765009
0.5764997
0.57649876
0.57649806
0.56020878
0.56020941
0.56021026
0.56021134
0.56021272
0.56021444
0.56021654
0.5602193
0.56022346
0.5602296
0.56023712
0.56024252
0.56024252
0.56023712
0.56022959
0.56022346
0.5602193
0.56021654
0.56021444
0.56021273
0.56021135
0.56021027
0.56020942
0.56020879
0.54392566
0.54392623
0.543927
0.54392797
0.54392923
0.54393078
0.54393268
0.54393513
0.54393877
0.54394415
0.54395068
0.54395547
0.54395547
0.54395068
0.54394415
0.54393877
0.54393513
0.54393268
0.54393079
0.54392924
0.54392798
0.54392701
0.54392624
0.54392567
0.52764804
0.52764855
0.52764925
0.52765014
0.52765128
0.5276527
0.52765442
0.52765663
0.52765985
0.52766461
0.52767033
0.52767463
0.52767462
0.52767033
0.52766461
0.52765985
0.52765663
0.52765442
0.52765271
0.52765129
0.52765015
0.52764926
0.52764856
0.52764805
0.51137536
0.51137583
0.51137647
0.51137728
0.51137833
0.51137963
0.5113812
0.51138319
0.51138607
0.51139031
0.51139537
0.51139923
0.51139923
0.51139537
0.51139031
0.51138606
0.51138319
0.5113812
0.51137963
0.51137834
0.51137729
0.51137648
0.51137584
0.51137537
0.49510716
0.4951076
0.49510818
0.49510893
0.49510989
0.49511109
0.49511253
0.49511433
0.49511691
0.49512072
0.49512521
0.4951287
0.4951287
0.49512521
0.49512071
0.49511691
0.49511433
0.49511253
0.49511109
0.4951099
0.49510894
0.49510819
0.49510761
0.49510717
0.47884305
0.47884345
0.47884399
0.47884468
0.47884557
0.47884667
0.478848
0.47884964
0.47885197
0.47885539
0.47885943
0.47886258
0.47886258
0.47885942
0.47885539
0.47885196
0.47884964
0.478848
0.47884668
0.47884558
0.47884469
0.478844
0.47884346
0.47884306
0.46258268
0.46258305
0.46258355
0.46258419
0.46258501
0.46258603
0.46258725
0.46258876
0.46259087
0.46259396
0.46259761
0.46260048
0.46260048
0.46259761
0.46259396
0.46259086
0.46258876
0.46258725
0.46258603
0.46258502
0.4625842
0.46258356
0.46258306
0.46258269
0.44632575
0.44632609
0.44632655
0.44632715
0.44632791
0.44632885
0.44632999
0.44633137
0.44633329
0.44633611
0.44633942
0.44634204
0.44634204
0.44633942
0.4463361
0.44633329
0.44633137
0.44632999
0.44632886
0.44632791
0.44632715
0.44632656
0.4463261
0.44632576
0.43007199
0.4300723
0.43007273
0.43007328
0.43007399
0.43007487
0.43007592
0.4300772
0.43007895
0.43008153
0.43008456
0.43008695
0.43008695
0.43008456
0.43008152
0.43007895
0.4300772
0.43007592
0.43007487
0.430074
0.43007329
0.43007274
0.43007231
0.43007199
0.41382115
0.41382145
0.41382185
0.41382236
0.41382302
0.41382384
0.41382482
0.413826
0.41382761
0.41382997
0.41383275
0.41383494
0.41383494
0.41383275
0.41382997
0.41382761
0.413826
0.41382482
0.41382384
0.41382302
0.41382236
0.41382185
0.41382145
0.41382115
0.39757304
0.39757331
0.39757369
0.39757416
0.39757478
0.39757554
0.39757646
0.39757756
0.39757904
0.3975812
0.39758377
0.39758578
0.39758578
0.39758377
0.3975812
0.39757904
0.39757756
0.39757646
0.39757554
0.39757478
0.39757416
0.39757368
0.39757331
0.39757303
0.38132745
0.3813277
0.38132805
0.3813285
0.38132907
0.38132979
0.38133064
0.38133166
0.38133303
0.38133503
0.38133741
0.38133926
0.38133926
0.38133741
0.38133503
0.38133303
0.38133167
0.38133064
0.38132979
0.38132907
0.38132849
0.38132804
0.38132769
0.38132743
0.3650842
0.36508444
0.36508477
0.36508519
0.36508573
0.3650864
0.36508719
0.36508815
0.36508941
0.36509126
0.36509347
0.36509517
0.36509517
0.36509347
0.36509126
0.36508942
0.36508815
0.36508719
0.36508639
0.36508572
0.36508518
0.36508476
0.36508443
0.36508419
0.34884315
0.34884338
0.34884368
0.34884408
0.34884458
0.34884521
0.34884595
0.34884685
0.34884802
0.34884973
0.34885178
0.34885336
0.34885336
0.34885178
0.34884973
0.34884803
0.34884685
0.34884595
0.3488452
0.34884457
0.34884406
0.34884366
0.34884336
0.34884313
0.33260415
0.33260436
0.33260465
0.33260502
0.33260549
0.33260608
0.33260678
0.33260761
0.33260871
0.33261029
0.3326122
0.33261367
0.33261367
0.33261221
0.3326103
0.33260871
0.33260762
0.33260678
0.33260607
0.33260547
0.33260499
0.33260462
0.33260433
0.33260412
0.31636706
0.31636726
0.31636753
0.31636787
0.31636832
0.31636887
0.31636953
0.31637031
0.31637133
0.3163728
0.31637459
0.31637595
0.31637595
0.31637459
0.31637281
0.31637134
0.31637032
0.31636953
0.31636886
0.3163683
0.31636784
0.31636749
0.31636722
0.31636702
0.30013176
0.30013195
0.3001322
0.30013253
0.30013295
0.30013347
0.30013408
0.30013482
0.30013577
0.30013714
0.30013881
0.30014008
0.30014008
0.30013881
0.30013715
0.30013578
0.30013482
0.30013408
0.30013345
0.30013292
0.30013249
0.30013216
0.30013191
0.30013172
0.28389815
0.28389832
0.28389856
0.28389887
0.28389926
0.28389975
0.28390033
0.28390102
0.28390191
0.28390318
0.28390475
0.28390593
0.28390593
0.28390475
0.2839032
0.28390192
0.28390103
0.28390033
0.28389973
0.28389923
0.28389882
0.28389851
0.28389827
0.28389809
0.26766611
0.26766627
0.2676665
0.26766679
0.26766716
0.26766762
0.26766816
0.26766881
0.26766964
0.26767084
0.2676723
0.26767341
0.26767341
0.26767231
0.26767085
0.26766966
0.26766882
0.26766816
0.26766759
0.26766711
0.26766673
0.26766644
0.26766621
0.26766604
0.25143555
0.25143571
0.25143592
0.25143619
0.25143654
0.25143697
0.25143748
0.25143809
0.25143887
0.25143999
0.25144136
0.25144239
0.25144239
0.25144137
0.25144001
0.25143889
0.25143811
0.25143748
0.25143694
0.25143649
0.25143612
0.25143584
0.25143563
0.25143547
0.23520639
0.23520653
0.23520673
0.23520699
0.23520731
0.23520772
0.23520821
0.23520878
0.23520951
0.23521056
0.23521185
0.23521281
0.23521282
0.23521186
0.23521058
0.23520954
0.2352088
0.2352082
0.23520769
0.23520725
0.23520691
0.23520664
0.23520644
0.23520629
0.21897853
0.21897867
0.21897886
0.2189791
0.21897941
0.21897979
0.21898025
0.21898079
0.21898147
0.21898245
0.21898366
0.21898456
0.21898457
0.21898367
0.21898247
0.2189815
0.21898081
0.21898024
0.21897975
0.21897934
0.218979
0.21897876
0.21897856
0.21897842
0.20275191
0.20275204
0.20275221
0.20275244
0.20275273
0.2027531
0.20275353
0.20275403
0.20275468
0.2027556
0.20275674
0.20275759
0.20275759
0.20275675
0.20275563
0.20275471
0.20275406
0.20275352
0.20275305
0.20275265
0.20275233
0.2027521
0.20275191
0.20275178
0.18652645
0.18652657
0.18652674
0.18652695
0.18652723
0.18652757
0.18652798
0.18652845
0.18652906
0.18652992
0.18653098
0.18653178
0.18653178
0.186531
0.18652995
0.1865291
0.18652848
0.18652797
0.18652752
0.18652713
0.18652683
0.1865266
0.18652643
0.1865263
0.17030208
0.17030219
0.17030235
0.17030255
0.17030281
0.17030314
0.17030352
0.17030397
0.17030454
0.17030535
0.17030636
0.17030711
0.17030711
0.17030638
0.17030539
0.17030459
0.170304
0.17030351
0.17030308
0.17030271
0.17030242
0.1703022
0.17030204
0.17030192
0.15407875
0.15407886
0.15407901
0.1540792
0.15407944
0.15407975
0.15408011
0.15408053
0.15408107
0.15408182
0.15408276
0.15408345
0.15408346
0.15408278
0.15408186
0.15408112
0.15408057
0.1540801
0.15407968
0.15407932
0.15407904
0.15407884
0.15407868
0.15407856
0.13785638
0.13785649
0.13785663
0.13785681
0.13785704
0.13785733
0.13785767
0.13785807
0.13785857
0.13785928
0.13786017
0.13786082
0.13786083
0.13786019
0.13785933
0.13785863
0.13785811
0.13785766
0.13785725
0.13785691
0.13785663
0.13785644
0.13785629
0.13785618
0.12163495
0.12163505
0.12163518
0.12163535
0.12163557
0.12163585
0.12163617
0.12163655
0.12163702
0.12163767
0.12163847
0.12163907
0.12163907
0.1216385
0.12163771
0.12163708
0.12163659
0.12163616
0.12163576
0.12163543
0.12163516
0.12163497
0.12163483
0.12163472
0.10541437
0.10541446
0.10541459
0.10541475
0.10541496
0.10541522
0.10541552
0.10541588
0.10541631
0.10541692
0.10541768
0.10541823
0.10541823
0.1054177
0.10541698
0.10541638
0.10541592
0.10541551
0.10541512
0.10541479
0.10541453
0.10541435
0.10541422
0.10541412
0.089194655
0.089194743
0.089194862
0.089195015
0.089195212
0.089195457
0.089195744
0.089196074
0.089196475
0.089197009
0.089197652
0.08919811
0.089198116
0.089197679
0.089197066
0.089196547
0.089196121
0.089195725
0.089195352
0.089195029
0.089194778
0.089194605
0.089194472
0.089194378
0.072975649
0.072975732
0.072975843
0.072975988
0.072976177
0.072976411
0.072976687
0.072977002
0.072977376
0.072977865
0.072978436
0.072978823
0.072978829
0.072978464
0.072977926
0.072977454
0.072977053
0.072976667
0.072976298
0.07297598
0.072975734
0.07297557
0.072975444
0.072975356
0.056757528
0.056757608
0.056757716
0.056757854
0.05675803
0.056758247
0.0567585
0.056758784
0.056759103
0.05675947
0.056759834
0.056760036
0.056760042
0.056759863
0.056759534
0.056759185
0.056758838
0.056758479
0.05675813
0.056757826
0.056757591
0.056757434
0.056757312
0.056757227
0.040539739
0.04053981
0.040539907
0.040540037
0.040540213
0.040540438
0.040540704
0.040540996
0.040541319
0.040541718
0.040542172
0.040542466
0.040542473
0.040542201
0.040541783
0.040541404
0.040541054
0.040540687
0.040540326
0.040540015
0.040539784
0.040539637
0.040539528
0.040539455
0.024323468
0.02432355
0.024323658
0.024323785
0.024323933
0.024324095
0.024324269
0.024324451
0.024324615
0.024324686
0.024324585
0.024324341
0.024324347
0.024324612
0.024324748
0.024324696
0.024324504
0.02432425
0.024323991
0.024323758
0.02432357
0.024323436
0.024323325
0.024323245
0.0081053692
0.0081054395
0.0081055324
0.0081056539
0.0081058151
0.0081060153
0.0081062367
0.0081064762
0.0081068529
0.0081076838
0.0081091535
0.0081105131
0.0081105156
0.0081091683
0.0081077219
0.0081069046
0.0081065103
0.0081062222
0.0081059425
0.0081056956
0.0081055091
0.0081053849
0.0081052929
0.0081052264
)
;

boundaryField
{
    INLET
    {
        type            zeroGradient;
    }
    OUTLET
    {
        type            fixedValue;
        value           uniform 0;
    }
    WALL
    {
        type            zeroGradient;
    }
    frontAndBackPlanes
    {
        type            empty;
    }
}


// ************************************************************************* //
