/*--------------------------------*- C++ -*----------------------------------*\
| =========                 |                                                 |
| \\      /  F ield         | OpenFOAM: The Open Source CFD Toolbox           |
|  \\    /   O peration     | Version:  2406                                  |
|   \\  /    A nd           | Website:  www.openfoam.com                      |
|    \\/     M anipulation  |                                                 |
\*---------------------------------------------------------------------------*/
FoamFile
{
    version     2.0;
    format      ascii;
    arch        "LSB;label=32;scalar=64";
    class       surfaceScalarField;
    location    "49";
    object      phi;
}
// * * * * * * * * * * * * * * * * * * * * * * * * * * * * * * * * * * * * * //

dimensions      [0 3 -1 0 0 0 0];

oriented        oriented;

internalField   nonuniform List<scalar> 
2279
(
2.3617496e-08
1.0148926e-05
2.0509768e-07
4.982375e-05
6.933177e-07
0.00014252872
1.5784717e-06
0.00034353082
2.678848e-06
0.00075378089
3.3472919e-06
0.0015415573
3.0435208e-06
0.0029497096
2.1516853e-06
0.005249171
1.4318055e-06
0.008582269
9.8959453e-07
0.012685995
5.1267106e-07
0.016666385
5.6596172e-12
0.01918202
-5.1265712e-07
0.01918202
-9.8956841e-07
0.016666385
-1.4317491e-06
0.012685995
-2.1515879e-06
0.0085822689
-3.0433707e-06
0.0052491709
-3.3470905e-06
0.0029497094
-2.6786172e-06
0.0015415572
-1.5782509e-06
0.0007537808
-6.9313959e-07
0.00034353078
-2.0498501e-07
0.00014252871
-2.3566847e-08
4.9823746e-05
1.0148926e-05
-9.5248466e-08
1.0244175e-05
-5.3794006e-07
5.0266441e-05
-1.6230011e-06
0.00014361378
-3.5389523e-06
0.00034544677
-5.9201864e-06
0.00075616213
-7.4055021e-06
0.0015430426
-6.5847266e-06
0.0029488888
-3.9361583e-06
0.0052465224
-1.3883864e-06
0.0085797213
-6.511476e-08
0.012684671
2.4241278e-07
0.016666078
5.8192268e-12
0.019182263
-2.4240544e-07
0.019182263
6.5103098e-08
0.016666078
1.388328e-06
0.012684671
3.9360266e-06
0.0085797214
6.5845135e-06
0.0052465225
7.4052457e-06
0.002948889
5.9199525e-06
0.0015430427
3.5387899e-06
0.0007561622
1.6229124e-06
0.00034544681
5.379031e-07
0.0001436138
9.5241099e-08
5.0266448e-05
1.0244177e-05
5.0139839e-08
1.0194035e-05
2.6334498e-07
5.0053236e-05
7.4910718e-07
0.00014312802
1.5314584e-06
0.00034466442
2.3366558e-06
0.00075535693
2.5476622e-06
0.0015428316
1.8390966e-06
0.0029495974
9.7567561e-07
0.0052473858
6.7696006e-07
0.00858002
6.7178991e-07
0.012684677
4.8417118e-07
0.016666266
1.475441e-11
0.019182747
-4.8413801e-07
0.019182747
-6.7174846e-07
0.016666265
-6.7691387e-07
0.012684677
-9.7562192e-07
0.0085800199
-1.8390417e-06
0.0052473858
-2.5476192e-06
0.0029495974
-2.3366323e-06
0.0015428316
-1.5314523e-06
0.00075535692
-7.4911221e-07
0.00034466442
-2.6335251e-07
0.00014312802
-5.0145444e-08
5.0053236e-05
1.0194035e-05
1.9586701e-08
1.0174448e-05
1.1184922e-07
4.9960974e-05
3.6128424e-07
0.00014287858
9.0504774e-07
0.00034412066
1.8716599e-06
0.00075439032
3.0948236e-06
0.0015416085
3.898724e-06
0.0029487935
3.7285546e-06
0.005247556
2.9242093e-06
0.0085808243
1.973372e-06
0.012685627
1.0127666e-06
0.016667226
-5.920621e-12
0.01918376
-1.0127808e-06
0.01918376
-1.9733911e-06
0.016667226
-2.9242279e-06
0.012685627
-3.7285655e-06
0.0085808243
-3.8987208e-06
0.005247556
-3.0948058e-06
0.0029487935
-1.8716343e-06
0.0015416085
-9.0502594e-07
0.00075439032
-3.6127101e-07
0.00034412066
-1.1184344e-07
0.00014287858
-1.9585337e-08
4.9960974e-05
1.0174448e-05
8.0839321e-09
1.0166364e-05
4.7141464e-08
4.9921916e-05
1.5494689e-07
0.00014277078
3.9846321e-07
0.00034387714
8.7979485e-07
0.00075390899
1.7015169e-06
0.0015407867
2.7512759e-06
0.0029477437
3.4623621e-06
0.0052468449
3.4708621e-06
0.0085808158
2.8006861e-06
0.012686298
1.5505137e-06
0.016668476
-1.9944556e-12
0.01918531
-1.550518e-06
0.01918531
-2.8006914e-06
0.016668476
-3.470869e-06
0.012686298
-3.4623668e-06
0.0085808158
-2.7512787e-06
0.0052468449
-1.7015181e-06
0.0029477437
-8.7979482e-07
0.0015407867
-3.9846395e-07
0.00075390899
-1.5494968e-07
0.00034387714
-4.7144748e-08
0.00014277078
-8.0861204e-09
4.9921917e-05
1.0166365e-05
4.9358892e-09
1.0161429e-05
2.8698901e-08
4.9898153e-05
9.5121551e-08
0.00014270436
2.4921459e-07
0.00034372305
5.6360992e-07
0.00075359459
1.1213759e-06
0.001540229
1.9184589e-06
0.0029469467
2.658822e-06
0.0052461046
2.89306e-06
0.0085805816
2.4787669e-06
0.012686712
1.4344257e-06
0.016669521
-1.4970988e-12
0.019186745
-1.4344293e-06
0.019186745
-2.4787712e-06
0.016669521
-2.893062e-06
0.012686712
-2.6588191e-06
0.0085805816
-1.9184493e-06
0.0052461046
-1.1213604e-06
0.0029469467
-5.6359472e-07
0.001540229
-2.4920574e-07
0.00075359459
-9.5119934e-08
0.00034372305
-2.8700786e-08
0.00014270436
-4.9380548e-09
4.9898153e-05
1.0161429e-05
4.412371e-09
1.0157016e-05
2.5525703e-08
4.987704e-05
8.3830182e-08
0.00014264605
2.168943e-07
0.00034358998
4.8450153e-07
0.00075332698
9.5636165e-07
0.0015397571
1.641375e-06
0.0029462616
2.324584e-06
0.0052454214
2.5939548e-06
0.0085803122
2.2393641e-06
0.012687066
1.3066742e-06
0.016670453
-9.0532912e-14
0.019188051
-1.3066752e-06
0.019188051
-2.2393659e-06
0.016670453
-2.5939546e-06
0.012687066
-2.3245802e-06
0.0085803122
-1.641365e-06
0.0052454214
-9.5634652e-07
0.0029462616
-4.8448691e-07
0.0015397571
-2.1688556e-07
0.00075332698
-8.3828104e-08
0.00034358999
-2.5527011e-08
0.00014264605
-4.4141458e-09
4.987704e-05
1.0157016e-05
3.6255606e-09
1.0153391e-05
2.1036625e-08
4.9859629e-05
6.943815e-08
0.00014259765
1.8114152e-07
0.00034347828
4.097145e-07
0.00075309841
8.2390431e-07
0.0015393429
1.4539934e-06
0.0029456316
2.1430771e-06
0.0052447323
2.4674752e-06
0.0085799878
2.1883956e-06
0.012687346
1.2866445e-06
0.016671355
7.557814e-13
0.019189338
-1.286644e-06
0.019189338
-2.1883963e-06
0.016671355
-2.467475e-06
0.012687346
-2.1430745e-06
0.0085799878
-1.4539857e-06
0.0052447323
-8.2389232e-07
0.0029456316
-4.097031e-07
0.0015393429
-1.8113518e-07
0.00075309841
-6.9437264e-08
0.00034347828
-2.1038253e-08
0.00014259765
-3.6272749e-09
4.9859629e-05
1.0153391e-05
2.9831722e-09
1.0150408e-05
1.7347059e-08
4.9845265e-05
5.7377318e-08
0.00014255762
1.5007378e-07
0.00034338558
3.4097101e-07
0.00075290751
6.9193174e-07
0.001538992
1.2441091e-06
0.0029450794
1.9041871e-06
0.0052440722
2.3016027e-06
0.0085795904
2.097511e-06
0.01268755
1.2520132e-06
0.016672201
1.2303977e-12
0.01919059
-1.2520121e-06
0.01919059
-2.097512e-06
0.016672201
-2.3016039e-06
0.01268755
-1.9041863e-06
0.0085795904
-1.2441033e-06
0.0052440722
-6.9192184e-07
0.0029450794
-3.4096161e-07
0.001538992
-1.5006869e-07
0.00075290751
-5.7376662e-08
0.00034338558
-1.7348371e-08
0.00014255762
-2.9845294e-09
4.9845265e-05
1.0150407e-05
2.4654775e-09
1.0147942e-05
1.4363187e-08
4.9833367e-05
4.7626495e-08
0.00014252436
1.2502853e-07
0.00034330818
2.8558854e-07
0.00075274695
5.8417886e-07
0.0015386934
1.064184e-06
0.0029445994
1.6641581e-06
0.0052434722
2.0898759e-06
0.0085791647
1.952897e-06
0.012687687
1.1802476e-06
0.016672973
1.3287773e-12
0.01919177
-1.1802464e-06
0.01919177
-1.9528984e-06
0.016672973
-2.0898781e-06
0.012687687
-1.6641587e-06
0.0085791647
-1.0641805e-06
0.0052434722
-5.8417206e-07
0.0029445994
-2.8558205e-07
0.0015386934
-1.2502509e-07
0.00075274695
-4.7626033e-08
0.00034330818
-1.4363997e-08
0.00014252436
-2.4663217e-09
4.9833367e-05
1.0147942e-05
2.1025084e-09
1.014584e-05
1.225814e-08
4.9823212e-05
4.0688259e-08
0.00014249593
1.0698995e-07
0.00034324188
2.4507779e-07
0.00075260886
5.038519e-07
0.0015384346
9.2623358e-07
0.002944177
1.4715105e-06
0.0052429269
1.8909088e-06
0.0085787453
1.8050243e-06
0.012687772
1.1036925e-06
0.016673675
1.5110324e-12
0.019192874
-1.1036907e-06
0.019192874
-1.8050245e-06
0.016673675
-1.8909102e-06
0.012687772
-1.4715114e-06
0.0085787453
-9.2623209e-07
0.0052429269
-5.0384846e-07
0.002944177
-2.4507464e-07
0.0015384346
-1.0698844e-07
0.00075260886
-4.0688121e-08
0.00034324188
-1.2258495e-08
0.00014249593
-2.1028478e-09
4.9823211e-05
1.014584e-05
1.8283008e-09
1.0144011e-05
1.066558e-08
4.9814374e-05
3.5430283e-08
0.00014247116
9.3282666e-08
0.00034318403
2.1413827e-07
0.00075248801
4.4192606e-07
0.0015382068
8.1811175e-07
0.0029438008
1.3163792e-06
0.0052424287
1.7244934e-06
0.0085783372
1.6780436e-06
0.012687819
1.0378063e-06
0.016674315
1.6352344e-12
0.019193912
-1.0378036e-06
0.019193912
-1.6780419e-06
0.016674315
-1.7244931e-06
0.012687819
-1.3163796e-06
0.0085783372
-8.1811179e-07
0.0052424287
-4.4192574e-07
0.0029438008
-2.1413825e-07
0.0015382068
-9.3282973e-08
0.00075248801
-3.5430455e-08
0.00034318403
-1.0665525e-08
0.00014247116
-1.8281822e-09
4.9814374e-05
1.0144011e-05
1.6105619e-09
1.0142401e-05
9.3997614e-09
4.9806585e-05
3.1244405e-08
0.00014244932
8.2340043e-08
0.00034313293
1.8931972e-07
0.00075238103
3.9182138e-07
0.0015380043
7.2923946e-07
0.0029434634
1.1851438e-06
0.0052419728
1.5781742e-06
0.0085779441
1.5623393e-06
0.012687835
9.7669909e-07
0.0166749
1.5600349e-12
0.019194888
-9.7669588e-07
0.019194888
-1.5623361e-06
0.0166749
-1.5781722e-06
0.012687835
-1.1851437e-06
0.0085779441
-7.2924097e-07
0.0052419728
-3.9182394e-07
0.0029434634
-1.8932255e-07
0.0015380043
-8.2341983e-08
0.00075238103
-3.1244883e-08
0.00034313293
-9.39938e-09
0.00014244932
-1.6100637e-09
4.9806585e-05
1.0142401e-05
1.4323914e-09
1.0140969e-05
8.3631303e-09
4.9799654e-05
2.7812643e-08
0.00014242987
7.3352505e-08
0.00034308739
1.6886797e-07
0.00075228551
3.502666e-07
0.0015378229
6.5458125e-07
0.0029431591
1.0720574e-06
0.0052415553
1.446432e-06
0.0085775698
1.4548755e-06
0.012687826
9.1880957e-07
0.016675437
1.231105e-12
0.019195807
-9.188065e-07
0.019195807
-1.4548717e-06
0.016675437
-1.4464294e-06
0.012687826
-1.0720575e-06
0.0085775698
-6.5458425e-07
0.0052415553
-3.5027171e-07
0.0029431591
-1.6887322e-07
0.0015378229
-7.3355822e-08
0.00075228551
-2.781341e-08
0.00034308739
-8.3625187e-09
0.00014242987
-1.4316075e-09
4.9799654e-05
1.0140969e-05
1.2850799e-09
1.0139684e-05
7.5052032e-09
4.9793434e-05
2.4968917e-08
0.0001424124
6.5890959e-08
0.00034304647
1.5183749e-07
0.00075219956
3.1548437e-07
0.0015376593
5.9149538e-07
0.0029428831
9.7478561e-07
0.005241172
1.3297033e-06
0.0085772148
1.3567859e-06
0.012687799
8.6525127e-07
0.016675928
6.6896397e-13
0.019196672
-8.6524898e-07
0.019196672
-1.3567824e-06
0.016675928
-1.3297009e-06
0.012687799
-9.7478623e-07
0.0085772149
-5.9149978e-07
0.005241172
-3.1549153e-07
0.0029428831
-1.518446e-07
0.0015376593
-6.5895318e-08
0.00075219956
-2.4969915e-08
0.00034304647
-7.5044412e-09
0.0001424124
-1.2840988e-09
4.9793434e-05
1.0139684e-05
1.1615584e-09
1.0138522e-05
6.7853232e-09
4.9787811e-05
2.2580551e-08
0.00014239661
5.9615326e-08
0.00034300943
1.3748075e-07
0.0007521217
2.8604606e-07
0.0015375107
5.3771028e-07
0.0029426314
8.9070513e-07
0.005240819
1.2263965e-06
0.0085768792
1.2674881e-06
0.012687758
8.1592526e-07
0.01667638
-2.2229922e-14
0.019197488
-8.1592414e-07
0.019197488
-1.2674854e-06
0.01667638
-1.2263947e-06
0.012687758
-8.9070639e-07
0.0085768792
-5.3771575e-07
0.005240819
-2.8605462e-07
0.0029426314
-1.3748909e-07
0.0015375107
-5.9620355e-08
0.0007521217
-2.2581698e-08
0.00034300943
-6.7844715e-09
0.00014239661
-1.1604583e-09
4.9787811e-05
1.0138522e-05
1.0562064e-09
1.0137466e-05
6.1710823e-09
4.9782696e-05
2.0541434e-08
0.00014238224
5.4252088e-08
0.00034297572
1.2519056e-07
0.00075205076
2.6076762e-07
0.0015373751
4.9125131e-07
0.0029424009
8.1722453e-07
0.005240493
1.1341824e-06
0.0085765622
1.1857887e-06
0.012687707
7.7021271e-07
0.016676795
-7.1074544e-13
0.019198259
-7.7021287e-07
0.019198259
-1.1857871e-06
0.016676795
-1.1341813e-06
0.012687707
-8.1722628e-07
0.0085765622
-4.9125738e-07
0.005240493
-2.6077693e-07
0.0029424009
-1.251995e-07
0.0015373751
-5.4257416e-08
0.00075205076
-2.0542634e-08
0.00034297572
-6.1701866e-09
0.00014238224
-1.055055e-09
4.9782696e-05
1.0137466e-05
9.6519033e-10
1.0136501e-05
5.6402434e-09
4.9778021e-05
1.8778335e-08
0.0001423691
4.9611222e-08
0.00034294489
1.145415e-07
0.00075198583
2.3881074e-07
0.0015372509
4.507037e-07
0.002942189
7.5248224e-07
0.0052401913
1.0514986e-06
0.0085762632
1.1108294e-06
0.012687647
7.2768604e-07
0.016677178
-1.3033875e-12
0.019198986
-7.2768739e-07
0.019198986
-1.1108288e-06
0.016677178
-1.0514981e-06
0.012687647
-7.5248427e-07
0.0085762632
-4.5070993e-07
0.0052401913
-2.3882015e-07
0.002942189
-1.1455045e-07
0.0015372509
-4.9616497e-08
0.00075198583
-1.8779494e-08
0.00034294489
-5.6393414e-09
0.0001423691
-9.6404839e-10
4.9778021e-05
1.0136501e-05
8.8583188e-10
1.0135615e-05
5.1772447e-09
4.9773729e-05
1.7239874e-08
0.00014235704
4.5558856e-08
0.00034291657
1.052321e-07
0.00075192616
2.1957629e-07
0.0015371365
4.1504198e-07
0.0029419935
6.9508853e-07
0.0052399112
9.7709276e-07
0.0085759812
1.0418648e-06
0.012687582
6.8800205e-07
0.016677532
-1.7490464e-12
0.019199674
-6.8800435e-07
0.019199674
-1.0418652e-06
0.016677532
-9.7709278e-07
0.012687582
-6.9509063e-07
0.0085759812
-4.1504794e-07
0.0052399112
-2.1958522e-07
0.0029419936
-1.0524053e-07
0.0015371365
-4.5563752e-08
0.00075192616
-1.7240902e-08
0.00034291657
-5.1763708e-09
0.00014235704
-8.847562e-10
4.9773729e-05
1.0135615e-05
8.1603535e-10
1.0134799e-05
4.7699243e-09
4.9769775e-05
1.5885928e-08
0.00014234592
4.1990468e-08
0.00034289047
9.7026661e-08
0.00075187112
2.0259338e-07
0.0015370309
3.8344856e-07
0.0029418127
6.438949e-07
0.0052396508
9.0984117e-07
0.0085757152
9.7823324e-07
0.012687514
6.5086307e-07
0.01667786
-2.035398e-12
0.019200325
-6.5086603e-07
0.019200325
-9.7823427e-07
0.01667786
-9.0984153e-07
0.012687514
-6.4389686e-07
0.0085757152
-3.8345388e-07
0.0052396508
-2.0260131e-07
0.0029418127
-9.7034064e-08
0.0015370309
-4.1994673e-08
0.00075187112
-1.5886737e-08
0.00034289047
-4.7691125e-09
0.00014234592
-8.1508173e-10
4.9769775e-05
1.0134799e-05
7.5415029e-10
1.0134045e-05
4.4086945e-09
4.9766121e-05
1.4684831e-08
0.00014233564
3.8823443e-08
0.00034286633
8.973837e-08
0.00075182021
1.8748675e-07
0.0015369332
3.5526499e-07
0.0029416449
5.9795745e-07
0.0052394081
8.4878669e-07
0.0085754644
9.1936397e-07
0.012687443
6.1600723e-07
0.016678163
-2.1881686e-12
0.019200941
-6.1601061e-07
0.019200941
-9.1936554e-07
0.016678163
-8.4878734e-07
0.012687443
-5.9795915e-07
0.0085754644
-3.5526935e-07
0.0052394081
-1.8749319e-07
0.0029416449
-8.9744254e-08
0.0015369332
-3.8826652e-08
0.00075182021
-1.4685339e-08
0.00034286633
-4.4079802e-09
0.00014233564
-7.5337519e-10
4.9766121e-05
1.0134045e-05
6.9888802e-10
1.0133346e-05
4.0860601e-09
4.9762734e-05
1.3611792e-08
0.00014232612
3.5992946e-08
0.00034284395
8.3220112e-08
0.00075177298
1.7395927e-07
0.0015368425
3.2996474e-07
0.0029414889
5.5650636e-07
0.0052391815
7.9311894e-07
0.0085752278
8.6476556e-07
0.012687372
5.8322847e-07
0.016678444
-2.2568746e-12
0.019201524
-5.8323214e-07
0.019201524
-8.647676e-07
0.016678444
-7.931199e-07
0.012687372
-5.5650774e-07
0.0085752278
-3.2996786e-07
0.0052391815
-1.7396373e-07
0.0029414889
-8.3223987e-08
0.0015368425
-3.5994852e-08
0.00075177298
-1.3611914e-08
0.00034284395
-4.0854801e-09
0.00014232612
-6.9834965e-10
4.9762734e-05
1.0133346e-05
6.4923256e-10
1.0132697e-05
3.796108e-09
4.9759587e-05
1.2647232e-08
0.00014231727
3.344771e-08
0.00034282315
7.7355294e-08
0.00075172907
1.6177458e-07
0.001536758
3.0712624e-07
0.0029413436
5.1891844e-07
0.0052389697
7.4217108e-07
0.0085750045
8.1401145e-07
0.0126873
5.5233968e-07
0.016678706
-2.279102e-12
0.019202077
-5.5234358e-07
0.019202077
-8.1401399e-07
0.016678706
-7.4217242e-07
0.0126873
-5.1891946e-07
0.0085750045
-3.0712783e-07
0.0052389697
-1.6177656e-07
0.0029413436
-7.7356653e-08
0.001536758
-3.3447992e-08
0.00075172907
-1.2646881e-08
0.00034282315
-3.7957008e-09
0.00014231727
-6.4899178e-10
4.9759587e-05
1.0132697e-05
6.0437e-10
1.0132092e-05
3.5340994e-09
4.9756657e-05
1.1775451e-08
0.00014230903
3.1146575e-08
0.00034280378
7.2050138e-08
0.00075168817
1.5074194e-07
0.0015366793
2.8640708e-07
0.0029412079
4.8468052e-07
0.0052387715
6.9537908e-07
0.0085747938
7.6674166e-07
0.012687229
5.2320208e-07
0.01667895
-2.2912805e-12
0.0192026
-5.2320623e-07
0.0192026
-7.6674482e-07
0.01667895
-6.9538094e-07
0.012687229
-4.8468118e-07
0.0085747938
-2.8640684e-07
0.0052387715
-1.5074092e-07
0.0029412079
-7.204845e-08
0.0015366793
-3.1144896e-08
0.00075168817
-1.1774535e-08
0.00034280378
-3.5339057e-09
0.00014230903
-6.0449115e-10
4.9756657e-05
1.0132092e-05
5.6364175e-10
1.0131528e-05
3.2961985e-09
4.9753924e-05
1.0983737e-08
0.00014230134
2.905619e-08
0.0003427857
6.7228574e-08
0.00075164999
1.4070627e-07
0.0015366059
2.6752781e-07
0.0029410811
4.5337112e-07
0.0052385856
6.5227403e-07
0.0085745949
7.2263428e-07
0.012687158
4.9567206e-07
0.016679177
-2.3295366e-12
0.019203096
-4.9567658e-07
0.019203096
-7.2263825e-07
0.016679177
-6.5227662e-07
0.012687158
-4.5337144e-07
0.0085745949
-2.6752547e-07
0.0052385856
-1.4070172e-07
0.0029410811
-6.7223273e-08
0.0015366059
-2.9052193e-08
0.00075165
-1.0982157e-08
0.0003427857
-3.2962621e-09
0.00014230134
-5.6419346e-10
4.9753925e-05
1.0131529e-05
5.2650848e-10
1.0131002e-05
3.0792638e-09
4.9751372e-05
1.0261672e-08
0.00014229416
2.7149205e-08
0.00034276882
6.2828126e-08
0.00075161432
1.3153991e-07
0.0015365372
2.5025709e-07
0.0029409624
4.2463667e-07
0.0052384112
6.1245179e-07
0.0085744071
6.8142148e-07
0.012687089
4.6965565e-07
0.016679388
-2.43788e-12
0.019203565
-4.6966071e-07
0.019203565
-6.814265e-07
0.016679388
-6.1245533e-07
0.012687089
-4.2463668e-07
0.0085744071
-2.5025234e-07
0.0052384112
-1.3153124e-07
0.0029409624
-6.281861e-08
0.0015365372
-2.7142508e-08
0.00075161432
-1.0259324e-08
0.00034276882
-3.079632e-09
0.00014229416
-5.2756435e-10
4.9751372e-05
1.0131002e-05
4.9252559e-10
1.0130509e-05
2.8807042e-09
4.9748983e-05
9.6006613e-09
0.00014228744
2.5403052e-08
0.00034275301
5.8797224e-08
0.00075158092
1.2313738e-07
0.0015364728
2.3440351e-07
0.0029408511
3.9818423e-07
0.0052382475
5.7557585e-07
0.0085742297
6.4285109e-07
0.012687022
4.4503149e-07
0.016679586
-2.6585865e-12
0.01920401
-4.4503732e-07
0.01920401
-6.4285746e-07
0.016679586
-5.7558061e-07
0.012687022
-3.9818397e-07
0.0085742297
-2.3439601e-07
0.0052382475
-1.2312396e-07
0.0029408511
-5.878285e-08
0.0015364728
-2.5393249e-08
0.00075158092
-9.5974366e-09
0.00034275301
-2.8814282e-09
0.00014228744
-4.9416455e-10
4.9748984e-05
1.0130509e-05
4.613215e-10
1.0130048e-05
2.6983549e-09
4.9746746e-05
8.9935224e-09
0.00014228114
2.379885e-08
0.00034273821
5.5092654e-08
0.00075154963
1.1541004e-07
0.0015364125
2.1980528e-07
0.0029407467
3.7376243e-07
0.0052380935
5.4134871e-07
0.0085740621
6.067229e-07
0.012686957
4.2174005e-07
0.016679771
-2.9681743e-12
0.019204432
-4.2174688e-07
0.019204432
-6.0673092e-07
0.016679771
-5.4135496e-07
0.012686957
-3.7376193e-07
0.0085740621
-2.1979468e-07
0.0052380935
-1.1539121e-07
0.0029407467
-5.5072733e-08
0.0015364125
-2.3785507e-08
0.00075154963
-8.9893041e-09
0.00034273821
-2.6994899e-09
0.00014228114
-4.6362816e-10
4.9746747e-05
1.0130048e-05
4.3258391e-10
1.0129615e-05
2.530394e-09
4.9744648e-05
8.4342105e-09
0.00014227524
2.232072e-08
0.00034272432
5.16781e-08
0.00075152027
1.0828346e-07
0.0015363559
2.0632665e-07
0.0029406486
3.5116123e-07
0.0052379487
5.0952227e-07
0.0085739038
5.7282916e-07
0.012686893
3.996668e-07
0.016679944
-3.3606725e-12
0.019204832
-3.9967485e-07
0.019204832
-5.7283912e-07
0.016679944
-5.0953027e-07
0.012686893
-3.511605e-07
0.0085739038
-2.0631256e-07
0.0052379487
-1.082585e-07
0.0029406486
-5.1651899e-08
0.0015363559
-2.2303374e-08
0.00075152027
-8.4288749e-09
0.00034272432
-2.5319993e-09
0.00014227524
-4.3564845e-10
4.9744649e-05
1.0129615e-05
4.0604771e-10
1.0129209e-05
2.3752769e-09
4.9742679e-05
7.9175967e-09
0.00014226969
2.0955161e-08
0.00034271128
4.8522601e-08
0.0007514927
1.0169393e-07
0.0015363027
1.9385059e-07
0.0029405565
3.3019603e-07
0.0052378123
4.7987147e-07
0.0085737541
5.4102326e-07
0.012686832
3.7878395e-07
0.016680107
-3.8266937e-12
0.01920521
-3.7879341e-07
0.01920521
-5.4103545e-07
0.016680107
-4.798815e-07
0.012686832
-3.3019508e-07
0.0085737541
-1.9383258e-07
0.0052378123
-1.0166208e-07
0.0029405565
-4.8489336e-08
0.0015363027
-2.0933321e-08
0.0007514927
-7.9110126e-09
0.00034271129
-2.3774153e-09
0.0001422697
-4.0996582e-10
4.974268e-05
1.0129209e-05
3.8148553e-10
1.0128828e-05
2.2316748e-09
4.9740829e-05
7.4392707e-09
0.00014226449
1.9690595e-08
0.00034269903
4.5599686e-08
0.00075146679
9.5587138e-08
0.0015362527
1.8227767e-07
0.0029404698
3.1071167e-07
0.0052376839
4.522079e-07
0.0085736126
5.1112198e-07
0.012686773
3.5897028e-07
0.016680259
-4.3507385e-12
0.019205569
-3.5898134e-07
0.019205569
-5.1113671e-07
0.016680259
-4.5222021e-07
0.012686773
-3.1071049e-07
0.0085736126
-1.8225529e-07
0.0052376839
-9.5547578e-08
0.0029404698
-4.5558526e-08
0.0015362527
-1.9663741e-08
0.0007514668
-7.4312998e-09
0.00034269903
-2.234413e-09
0.00014226449
-3.8635828e-10
4.974083e-05
1.0128828e-05
3.5870352e-10
1.0128469e-05
2.0984596e-09
4.9739089e-05
6.995484e-09
0.00014225959
1.8517127e-08
0.00034268751
4.2886574e-08
0.00075144242
8.9916009e-08
0.0015362057
1.715209e-07
0.0029403882
2.9256918e-07
0.0052375628
4.2635873e-07
0.0085734788
4.8302758e-07
0.012686717
3.4023373e-07
0.016680402
-4.9159049e-12
0.01920591
-3.4024654e-07
0.01920591
-4.8304511e-07
0.016680402
-4.2637358e-07
0.012686717
-2.9256775e-07
0.0085734788
-1.7149366e-07
0.0052375628
-8.9867874e-08
0.0029403882
-4.2836643e-08
0.0015362057
-1.8484711e-08
0.00075144243
-6.9859799e-09
0.00034268751
-2.1018671e-09
0.00014225959
-3.6463703e-10
4.973909e-05
1.0128469e-05
3.3752995e-10
1.0128131e-05
1.9746234e-09
4.9737452e-05
6.58289e-09
0.00014225498
1.7425995e-08
0.00034267667
4.0363306e-08
0.00075141949
8.4639655e-08
0.0015361614
1.6150519e-07
0.0029403113
2.7565016e-07
0.0052374487
4.0217485e-07
0.0085733523
4.565628e-07
0.012686662
3.224317e-07
0.016680536
-5.5165998e-12
0.019206232
-3.2244641e-07
0.019206232
-4.5658342e-07
0.016680536
-4.0219252e-07
0.012686662
-2.7564846e-07
0.0085733523
-1.6147256e-07
0.0052374487
-8.4582034e-08
0.0029403113
-4.030368e-08
0.0015361614
-1.7387439e-08
0.00075141949
-6.5716982e-09
0.00034267667
-1.9787723e-09
0.00014225498
-3.4463501e-10
4.9737453e-05
1.0128132e-05
3.1782227e-10
1.0127813e-05
1.8593411e-09
4.973591e-05
6.1987444e-09
0.00014225064
1.6409904e-08
0.00034266646
3.801292e-08
0.00075139788
7.9722721e-08
0.0015361197
1.5216485e-07
0.0029402389
2.598491e-07
0.005237341
3.7952561e-07
0.0085732326
4.3168296e-07
0.01268661
3.056188e-07
0.016680662
-6.1397986e-12
0.019206538
-3.0563553e-07
0.019206538
-4.3170693e-07
0.016680662
-3.7954636e-07
0.01268661
-2.598471e-07
0.0085732326
-1.5212629e-07
0.005237341
-7.9654656e-08
0.0029402389
-3.7942632e-08
0.0015361197
-1.6364603e-08
0.00075139789
-6.1857011e-09
0.00034266646
-1.8643057e-09
0.00014225064
-3.2621423e-10
4.9735911e-05
1.0127814e-05
2.9944361e-10
1.0127514e-05
1.7518012e-09
4.9734458e-05
5.8403543e-09
0.00014224655
1.5461866e-08
0.00034265684
3.5819695e-08
0.00075137753
7.5133268e-08
0.0015360804
1.4344098e-07
0.0029401706
2.4507116e-07
0.0052372394
3.5828331e-07
0.0085731194
4.0819441e-07
0.01268656
2.8961167e-07
0.01668078
-6.786608e-12
0.019206827
-2.8963055e-07
0.019206827
-4.0822201e-07
0.01668078
-3.5830742e-07
0.01268656
-2.4506882e-07
0.0085731194
-1.4339592e-07
0.0052372393
-7.505376e-08
0.0029401706
-3.5737733e-08
0.0015360804
-1.5409186e-08
0.00075137753
-5.825289e-09
0.00034265684
-1.7576592e-09
0.00014224656
-3.0924288e-10
4.9734459e-05
1.0127514e-05
2.8229432e-10
1.0127232e-05
1.6514402e-09
4.9733089e-05
5.5058395e-09
0.0001422427
1.4576764e-08
0.00034264776
3.3771366e-08
0.00075135833
7.0845131e-08
0.0015360433
1.352848e-07
0.0029401061
2.3123938e-07
0.0052371434
3.3835989e-07
0.0085730123
3.8612171e-07
0.012686512
2.745317e-07
0.016680892
-7.4418356e-12
0.019207102
-2.7455282e-07
0.019207102
-3.8615318e-07
0.016680892
-3.3838761e-07
0.012686512
-2.3123666e-07
0.0085730122
-1.3523265e-07
0.0052371434
-7.0753141e-08
0.0029401061
-3.3676682e-08
0.0015360433
-1.4516054e-08
0.00075135833
-5.4885794e-09
0.00034264777
-1.6582754e-09
0.0001422427
-2.9362738e-10
4.973309e-05
1.0127232e-05
2.6625329e-10
1.0126965e-05
1.557522e-09
4.9731798e-05
5.1927634e-09
0.00014223906
1.3748426e-08
0.00034263921
3.1854519e-08
0.00075134022
6.683176e-08
0.0015360083
1.2764696e-07
0.0029400453
2.1826985e-07
0.0052370528
3.1962738e-07
0.0085729109
3.6522248e-07
0.012686467
2.6012655e-07
0.016680997
-8.0941282e-12
0.019207362
-2.6014998e-07
0.019207362
-3.6525805e-07
0.016680997
-3.1965897e-07
0.012686467
-2.1826667e-07
0.0085729109
-1.2758707e-07
0.0052370528
-6.6726194e-08
0.0029400453
-3.1746017e-08
0.0015360084
-1.3679003e-08
0.00075134023
-5.1731268e-09
0.00034263921
-1.5654196e-09
0.00014223907
-2.7925051e-10
4.9731799e-05
1.0126966e-05
2.5127055e-10
1.0126714e-05
1.4697994e-09
4.9730579e-05
4.9002851e-09
0.00014223563
1.2974237e-08
0.00034263113
3.0061886e-08
0.00075132314
6.3076129e-08
0.0015359753
1.204957e-07
0.0029399879
2.061182e-07
0.0052369672
3.0205612e-07
0.008572815
3.456255e-07
0.012686423
2.4661818e-07
0.016681096
-8.6888873e-12
0.019207609
-2.466439e-07
0.019207609
-3.4566534e-07
0.016681096
-3.0209178e-07
0.012686423
-2.0611447e-07
0.0085728149
-1.2042741e-07
0.0052369671
-6.2955855e-08
0.0029399879
-2.9938425e-08
0.0015359753
-1.2895388e-08
0.00075132314
-4.8780773e-09
0.00034263114
-1.4788432e-09
0.00014223564
-2.6606453e-10
4.973058e-05
1.0126715e-05
2.3721242e-10
1.0126477e-05
1.387422e-09
4.9729429e-05
4.625606e-09
0.0001422324
1.2247435e-08
0.00034262351
2.8379839e-08
0.000751307
5.9552969e-08
0.0015359442
1.1378347e-07
0.0029399337
1.9469411e-07
0.0052368863
2.8548321e-07
0.0085727242
3.2698817e-07
0.012686382
2.3364284e-07
0.016681189
-9.1856101e-12
0.019207842
-2.3367075e-07
0.019207842
-3.2703237e-07
0.016681189
-2.8552309e-07
0.012686382
-1.9468969e-07
0.0085727241
-1.1370609e-07
0.0052368862
-5.9416885e-08
0.0029399337
-2.8240349e-08
0.0015359442
-1.2158531e-08
0.00075130701
-4.6007034e-09
0.00034262351
-1.3977396e-09
0.0001422324
-2.5395402e-10
4.972943e-05
1.0126478e-05
2.2412007e-10
1.0126253e-05
1.3107367e-09
4.9728342e-05
4.3698172e-09
0.00014222934
1.1569861e-08
0.00034261631
2.680938e-08
0.00075129176
5.625916e-08
0.0015359147
1.0750414e-07
0.0029398824
1.8400667e-07
0.0052368098
2.6998266e-07
0.0085726382
3.0961163e-07
0.012686342
2.2157895e-07
0.016681277
-9.4656288e-12
0.019208064
-2.2160873e-07
0.019208064
-3.0966011e-07
0.016681277
-2.7002679e-07
0.012686342
-1.8400134e-07
0.0085726382
-1.0741693e-07
0.0052368097
-5.6106076e-08
0.0029398824
-2.6652698e-08
0.0015359147
-1.1470199e-08
0.00075129177
-4.3420391e-09
0.00034261631
-1.3224185e-09
0.00014222934
-2.4294241e-10
4.9728344e-05
1.0126254e-05
2.1177457e-10
1.0126041e-05
1.2382955e-09
4.9727316e-05
4.1282027e-09
0.00014222645
1.0930731e-08
0.00034260951
2.533083e-08
0.00075127736
5.3162093e-08
0.0015358869
1.0159695e-07
0.002939834
1.7392591e-07
0.0052367374
2.5529232e-07
0.0085725569
2.9296977e-07
0.012686304
2.0988868e-07
0.01668136
-9.4418615e-12
0.019208274
-2.0991986e-07
0.019208274
-2.9302233e-07
0.01668136
-2.553406e-07
0.012686304
-1.7391938e-07
0.0085725568
-1.0149918e-07
0.0052367374
-5.2990915e-08
0.002939834
-2.5155869e-08
0.0015358869
-1.0819607e-08
0.00075127737
-4.0973191e-09
0.00034260951
-1.2513782e-09
0.00014222645
-2.3277793e-10
4.9727318e-05
1.0126042e-05
2.0045786e-10
1.0125841e-05
1.1720024e-09
4.9726344e-05
3.9068709e-09
0.00014222371
1.0343254e-08
0.00034260307
2.3965571e-08
0.00075126374
5.0291006e-08
0.0015358605
9.6112147e-08
0.0029397882
1.645751e-07
0.005236669
2.4169658e-07
0.0085724798
2.7766541e-07
0.012686268
1.9920141e-07
0.016681439
-8.9021354e-12
0.019208473
-1.9923308e-07
0.019208473
-2.7772147e-07
0.016681439
-2.4174869e-07
0.012686268
-1.6456701e-07
0.0085724797
-9.6003241e-08
0.0052366689
-5.0101106e-08
0.0029397882
-2.3772013e-08
0.0015358606
-1.0220816e-08
0.00075126374
-3.8733199e-09
0.00034260307
-1.1869012e-09
0.00014222371
-2.2387991e-10
4.9726346e-05
1.0125842e-05
1.8956839e-10
1.0125652e-05
1.1079368e-09
4.9725426e-05
3.6932366e-09
0.00014222113
9.7793557e-09
0.00034259698
2.266491e-08
0.00075125085
4.7572552e-08
0.0015358356
9.0926381e-08
0.0029397448
1.5570118e-07
0.0052366042
2.2870773e-07
0.0085724067
2.6286568e-07
0.012686234
1.8872356e-07
0.016681513
-7.696711e-12
0.019208662
-1.8875455e-07
0.019208662
-2.6292442e-07
0.016681513
-2.2876303e-07
0.012686234
-1.5569072e-07
0.0085724067
-9.0805267e-08
0.0052366041
-4.7362804e-08
0.0029397448
-2.2451944e-08
0.0015358357
-9.6452522e-09
0.00075125086
-3.6569542e-09
0.00034259699
-1.1246688e-09
0.00014222113
-2.1542468e-10
4.9725428e-05
1.0125652e-05
1.8024273e-10
1.0125472e-05
1.0533531e-09
4.9724553e-05
3.5103614e-09
0.00014221867
9.2901696e-09
0.0003425912
2.1516764e-08
0.00075123862
4.5136047e-08
0.001535812
8.6245673e-08
0.0029397037
1.4770215e-07
0.0052365428
2.1705806e-07
0.0085723374
2.4972215e-07
0.012686202
1.7950571e-07
0.016681583
-5.6199744e-12
0.019208841
-1.795343e-07
0.019208841
-2.4978209e-07
0.016681583
-2.1711581e-07
0.012686202
-1.4768921e-07
0.0085723373
-8.6112419e-08
0.0052365427
-4.4906818e-08
0.0029397037
-2.128518e-08
0.001535812
-9.1452758e-09
0.00075123863
-3.4718596e-09
0.00034259121
-1.0720311e-09
0.00014221867
-2.0845047e-10
4.9724555e-05
1.0125472e-05
1.6918805e-10
1.0125303e-05
9.8850643e-10
4.9723734e-05
3.2969971e-09
0.00014221636
8.7405419e-09
0.00034258576
2.0289321e-08
0.00075122707
4.265523e-08
0.0015357896
8.1633562e-08
0.0029396647
1.3992071e-07
0.0052364845
2.0572499e-07
0.0085722716
2.3677891e-07
0.012686171
1.7033165e-07
0.01668165
-2.5719375e-12
0.019209011
-1.7035581e-07
0.019209011
-2.3683802e-07
0.01668165
-2.0578383e-07
0.012686171
-1.3990501e-07
0.0085722715
-8.148948e-08
0.0052364844
-4.2410083e-08
0.0029396647
-2.0044631e-08
0.0015357897
-8.5904101e-09
0.00075122708
-3.2599394e-09
0.00034258576
-1.0107012e-09
0.00014221636
-2.0002074e-10
4.9723735e-05
1.0125303e-05
1.6443377e-10
1.0125139e-05
9.6066718e-10
4.9722938e-05