/*--------------------------------*- C++ -*----------------------------------*\
| =========                 |                                                 |
| \\      /  F ield         | OpenFOAM: The Open Source CFD Toolbox           |
|  \\    /   O peration     | Version:  2406                                  |
|   \\  /    A nd           | Website:  www.openfoam.com                      |
|    \\/     M anipulation  |                                                 |
\*---------------------------------------------------------------------------*/
FoamFile
{
    version     2.0;
    format      ascii;
    arch        "LSB;label=32;scalar=64";
    class       volVectorField;
    location    "49";
    object      U;
}
// * * * * * * * * * * * * * * * * * * * * * * * * * * * * * * * * * * * * * //

dimensions      [0 1 -1 0 0 0 0];

internalField   nonuniform List<vector> 
1176
(
(0.019493789 7.0786421e-07 0)
(0.066677318 8.1696567e-06 0)
(0.13357994 3.9503168e-05 0)
(0.22724701 0.00010873577 0)
(0.35591522 0.00021176028 0)
(0.52772023 0.00030396289 0)
(0.74780387 0.00031818025 0)
(1.0136216 0.00024904596 0)
(1.3093323 0.00016667006 0)
(1.6017081 0.00011264695 0)
(1.8421723 7.0214316e-05 0)
(1.9793239 2.3941153e-05 0)
(1.9793239 -2.393997e-05 0)
(1.8421723 -7.021241e-05 0)
(1.6017081 -0.00011264291 0)
(1.3093323 -0.00016666223 0)
(1.0136215 -0.00024903269 0)
(0.74780384 -0.00031816029 0)
(0.52772021 -0.00030393765 0)
(0.3559152 -0.00021173551 0)
(0.227247 -0.00010871485 0)
(0.13357994 -3.9495972e-05 0)
(0.06667732 -8.1562474e-06 0)
(0.01949379 -7.0926839e-07 0)
(0.020187017 -3.7419177e-06 0)
(0.068813532 -2.4638639e-05 0)
(0.13732107 -9.654855e-05 0)
(0.23247391 -0.0002483946 0)
(0.36204617 -0.00047268781 0)
(0.53373556 -0.00067421182 0)
(0.75267407 -0.0006948694 0)
(1.0170176 -0.00049687362 0)
(1.3116385 -0.00023345907 0)
(1.6034438 -4.9824193e-05 0)
(1.8436588 1.9765108e-05 0)
(1.9807026 1.3428253e-05 0)
(1.9807026 -1.3427353e-05 0)
(1.8436588 -1.9765313e-05 0)
(1.6034438 4.9820928e-05 0)
(1.3116385 0.00023344983 0)
(1.0170177 0.00049685621 0)
(0.75267408 0.00069484512 0)
(0.53373556 0.00067418621 0)
(0.36204617 0.00047266796 0)
(0.23247391 0.00024838263 0)
(0.13732108 9.6544588e-05 0)
(0.068813537 2.4635302e-05 0)
(0.020187019 3.7422123e-06 0)
(0.020018442 2.0918371e-06 0)
(0.068327405 1.2720773e-05 0)
(0.13655404 4.6877259e-05 0)
(0.23159544 0.00011389739 0)
(0.36138709 0.00019769268 0)
(0.53366969 0.00023903237 0)
(0.75344344 0.00020559815 0)
(1.0184881 0.00011361114 0)
(1.3134639 7.4313577e-05 0)
(1.6053464 7.9532948e-05 0)
(1.8455118 7.0516847e-05 0)
(1.9825245 2.7826554e-05 0)
(1.9825245 -2.7823672e-05 0)
(1.8455118 -7.0513397e-05 0)
(1.6053464 -7.9528908e-05 0)
(1.3134639 -7.4308871e-05 0)
(1.0184881 -0.00011360598 0)
(0.75344344 -0.00020559244 0)
(0.5336697 -0.00023902949 0)
(0.36138709 -0.00019769163 0)
(0.23159545 -0.00011389771 0)
(0.13655405 -4.687741e-05 0)
(0.068327406 -1.272191e-05 0)
(0.020018442 -2.0917062e-06 0)
(0.019966547 7.007651e-07 0)
(0.068159231 4.6870445e-06 0)
(0.13624021 1.935544e-05 0)
(0.2311194 5.6456164e-05 0)
(0.36078093 0.00013444565 0)
(0.53306293 0.00025829315 0)
(0.75295637 0.00035344735 0)
(1.0181104 0.00036911991 0)
(1.313184 0.00030758855 0)
(1.6051633 0.00022777215 0)
(1.8453995 0.0001455591 0)
(1.9824491 4.9996804e-05 0)
(1.9824491 -4.9997915e-05 0)
(1.8453995 -0.00014556063 0)
(1.6051633 -0.00022777439 0)
(1.313184 -0.00030758989 0)
(1.0181104 -0.00036911996 0)
(0.75295636 -0.00035344674 0)
(0.53306293 -0.00025829061 0)
(0.36078093 -0.00013444319 0)
(0.2311194 -5.6454509e-05 0)
(0.13624021 -1.9354586e-05 0)
(0.068159232 -4.6867767e-06 0)
(0.019966547 -7.0073854e-07 0)
(0.019942203 2.9076839e-07 0)
(0.068078703 1.9872068e-06 0)
(0.13608628 8.2361193e-06 0)
(0.23087699 2.3699331e-05 0)
(0.36044744 5.6881636e-05 0)
(0.53266448 0.00012306887 0)
(0.75256878 0.00022681816 0)
(1.017808 0.00032272215 0)
(1.3129044 0.00034572454 0)
(1.604912 0.00030729969 0)
(1.8452029 0.00021095302 0)
(1.9822898 7.4614396e-05 0)
(1.9822898 -7.4614772e-05 0)
(1.8452029 -0.0002109535 0)
(1.604912 -0.00030730025 0)
(1.3129044 -0.00034572532 0)
(1.017808 -0.0003227224 0)
(0.75256878 -0.00022681854 0)
(0.53266448 -0.00012306905 0)
(0.36044744 -5.6881821e-05 0)
(0.23087699 -2.3699659e-05 0)
(0.13608628 -8.2359137e-06 0)
(0.068078703 -1.9879521e-06 0)
(0.019942204 -2.9062778e-07 0)
(0.019933132 1.7181434e-07 0)
(0.068047755 1.1940833e-06 0)
(0.13602488 5.0652041e-06 0)
(0.23077535 1.4968879e-05 0)
(0.36029898 3.6219581e-05 0)
(0.5324792 7.6944301e-05 0)
(0.75239427 0.00014713779 0)
(1.0177222 0.00023749035 0)
(1.3129292 0.00028525601 0)
(1.6049746 0.00027441495 0)
(1.8452865 0.00019644624 0)
(1.9823834 7.117695e-05 0)
(1.9823834 -7.117722e-05 0)
(1.8452865 -0.00019644663 0)
(1.6049746 -0.00027441524 0)
(1.3129292 -0.00028525607 0)
(1.0177222 -0.00023748973 0)
(0.75239427 -0.00014713659 0)
(0.5324792 -7.6942917e-05 0)
(0.36029899 -3.6218542e-05 0)
(0.23077535 -1.4968554e-05 0)
(0.13602489 -5.0648047e-06 0)
(0.068047755 -1.1947203e-06 0)
(0.019933132 -1.7168272e-07 0)
(0.0199234 1.5587496e-07 0)
(0.068015507 1.0700815e-06 0)
(0.13596286 4.4934668e-06 0)
(0.23067607 1.3195475e-05 0)
(0.36015773 3.1857154e-05 0)
(0.53230178 6.6958286e-05 0)
(0.75221429 0.00012411896 0)
(1.0176105 0.00019917064 0)
(1.3129358 0.00025490861 0)
(1.6050904 0.00024595189 0)
(1.8454579 0.00018127915 0)
(1.9825798 6.6548616e-05 0)
(1.9825798 -6.6548659e-05 0)
(1.8454579 -0.00018127931 0)
(1.6050904 -0.00024595193 0)
(1.3129358 -0.00025490838 0)
(1.0176105 -0.00019916999 0)
(0.75221429 -0.0001241178 0)
(0.53230178 -6.6956938e-05 0)
(0.36015773 -3.1856119e-05 0)
(0.23067607 -1.3195105e-05 0)
(0.13596286 -4.4930786e-06 0)
(0.068015507 -1.0706118e-06 0)
(0.0199234 -1.5576175e-07 0)
(0.019915697 1.275853e-07 0)
(0.067989792 8.7802377e-07 0)
(0.13591293 3.6960007e-06 0)
(0.23059503 1.0901608e-05 0)
(0.36003987 2.6613354e-05 0)
(0.53214753 5.7237133e-05 0)
(0.75204133 0.00010911052 0)
(1.0174723 0.00017936637 0)
(1.3128926 0.00023802496 0)
(1.6051414 0.0002374678 0)
(1.8455877 0.00017750708 0)
(1.9827514 6.55396e-05 0)
(1.9827514 -6.5539498e-05 0)
(1.8455877 -0.00017750711 0)
(1.6051414 -0.00023746777 0)
(1.3128926 -0.00023802476 0)
(1.0174723 -0.00017936589 0)
(0.75204133 -0.00010910964 0)
(0.53214753 -5.7236106e-05 0)
(0.36003987 -2.6612592e-05 0)
(0.23059503 -1.0901393e-05 0)
(0.13591293 -3.6957193e-06 0)
(0.067989792 -8.7851718e-07 0)
(0.019915697 -1.2748657e-07 0)
(0.019909217 1.0465667e-07 0)
(0.067968141 7.2314729e-07 0)
(0.13587084 3.0521031e-06 0)
(0.23052654 9.0118328e-06 0)
(0.35993984 2.199987e-05 0)
(0.53201542 4.7473414e-05 0)
(0.75188901 9.2014037e-05 0)
(1.0173341 0.0001561819 0)
(1.3128278 0.00021699688 0)
(1.6051595 0.00022709653 0)
(1.8456699 0.00017232665 0)
(1.982868 6.4147944e-05 0)
(1.982868 -6.4147764e-05 0)
(1.8456699 -0.00017232665 0)
(1.6051595 -0.00022709659 0)
(1.3128278 -0.00021699685 0)
(1.0173341 -0.00015618161 0)
(0.75188901 -9.2013342e-05 0)
(0.53201542 -4.7472556e-05 0)
(0.35993984 -2.199924e-05 0)
(0.23052654 -9.0116554e-06 0)
(0.13587084 -3.0519054e-06 0)
(0.067968141 -7.2351495e-07 0)
(0.019909217 -1.0458492e-07 0)
(0.019903971 8.6124723e-08 0)
(0.067950552 5.9697673e-07 0)
(0.13583649 2.5273758e-06 0)
(0.2304703 7.4916138e-06 0)
(0.35985692 1.8376279e-05 0)
(0.53190436 3.9835643e-05 0)
(0.75175836 7.7712093e-05 0)
(1.0172122 0.00013432431 0)
(1.3127613 0.00019323376 0)
(1.6051772 0.00021058369 0)
(1.8457533 0.00016273004 0)
(1.9829863 6.1084496e-05 0)
(1.9829863 -6.1084303e-05 0)
(1.8457533 -0.00016273004 0)
(1.6051772 -0.00021058381 0)
(1.3127613 -0.00019323386 0)
(1.0172122 -0.00013432421 0)
(0.75175836 -7.7711644e-05 0)
(0.53190436 -3.9835043e-05 0)
(0.35985692 -1.837584e-05 0)
(0.2304703 -7.4914837e-06 0)
(0.13583649 -2.5272674e-06 0)
(0.067950552 -5.971858e-07 0)
(0.019903971 -8.6085073e-08 0)
(0.019899543 7.3354078e-08 0)
(0.067935688 5.0897812e-07 0)
(0.13580742 2.1568839e-06 0)
(0.23042259 6.4027592e-06 0)
(0.35978626 1.5747559e-05 0)
(0.5318089 3.4277753e-05 0)
(0.75164409 6.7204501e-05 0)
(1.017102 0.00011722985 0)
(1.3126976 0.00017262462 0)
(1.6051928 0.00019308918 0)
(1.8458371 0.00015219892 0)
(1.9831061 5.7545016e-05 0)
(1.9831061 -5.7544783e-05 0)
(1.8458371 -0.00015219882 0)
(1.6051928 -0.0001930892 0)
(1.3126976 -0.00017262471 0)
(1.0171021 -0.00011722985 0)
(0.75164409 -6.7204296e-05 0)
(0.5318089 -3.4277448e-05 0)
(0.35978626 -1.5747345e-05 0)
(0.23042259 -6.4026968e-06 0)
(0.13580742 -2.1568678e-06 0)
(0.067935688 -5.0903649e-07 0)
(0.019899543 -7.3345422e-08 0)
(0.019895721 6.372395e-08 0)
(0.06792285 4.4253904e-07 0)
(0.13578228 1.8767319e-06 0)
(0.23038125 5.5765205e-06 0)
(0.35972483 1.3738641e-05 0)
(0.53172535 2.9997918e-05 0)
(0.75154264 5.9111429e-05 0)
(1.0170011 0.00010388806 0)
(1.3126344 0.00015540273 0)
(1.6052015 0.00017849532 0)
(1.8459125 0.00014271571 0)
(1.9832185 5.4330794e-05 0)
(1.9832185 -5.4330527e-05 0)
(1.8459125 -0.00014271549 0)
(1.6052015 -0.00017849515 0)
(1.3126344 -0.00015540271 0)
(1.0170011 -0.00010388811 0)
(0.75154264 -5.9111434e-05 0)
(0.53172535 -2.999789e-05 0)
(0.35972483 -1.3738642e-05 0)
(0.23038125 -5.5765242e-06 0)
(0.13578228 -1.8767982e-06 0)
(0.06792285 -4.4246365e-07 0)
(0.019895721 -6.3742855e-08 0)
(0.019892371 5.6086514e-08 0)
(0.067911586 3.8979697e-07 0)
(0.13576021 1.6541182e-06 0)
(0.2303449 4.9187584e-06 0)
(0.35967069 1.2131969e-05 0)
(0.53165136 2.6542345e-05 0)
(0.7514519 5.2498634e-05 0)
(1.0169086 9.2875536e-05 0)
(1.3125728 0.00014061477 0)
(1.605205 0.00016529615 0)
(1.8459798 0.00013398936 0)
(1.9833221 5.1387572e-05 0)
(1.9833221 -5.1387307e-05 0)
(1.8459798 -0.00013398904 0)
(1.605205 -0.00016529583 0)
(1.3125728 -0.00014061466 0)
(1.0169086 -9.2875632e-05 0)
(0.7514519 -5.2498836e-05 0)
(0.53165136 -2.6542575e-05 0)
(0.35967069 -1.2132167e-05 0)
(0.2303449 -4.9188255e-06 0)
(0.13576021 -1.6542537e-06 0)
(0.067911586 -3.8961313e-07 0)
(0.01989237 -5.6127911e-08 0)
(0.019889403 4.9845333e-08 0)
(0.067901607 3.466369e-07 0)
(0.13574064 1.4717578e-06 0)
(0.23031264 4.3793851e-06 0)
(0.35962253 1.0812272e-05 0)
(0.53158531 2.3691323e-05 0)
(0.75137029 4.6984006e-05 0)
(1.016824 8.3546149e-05 0)
(1.3125139 0.00012773733 0)
(1.6052051 0.00015293339 0)
(1.8460415 0.00012582037 0)
(1.9834196 4.8616554e-05 0)
(1.9834196 -4.861634e-05 0)
(1.8460415 -0.00012582002 0)
(1.6052051 -0.00015293302 0)
(1.3125139 -0.0001277372 0)
(1.016824 -8.3546316e-05 0)
(0.75137029 -4.6984394e-05 0)
(0.53158531 -2.369178e-05 0)
(0.35962253 -1.0812639e-05 0)
(0.23031264 -4.3795098e-06 0)
(0.13574064 -1.4719478e-06 0)
(0.067901606 -3.4637311e-07 0)
(0.019889403 -4.9903495e-08 0)
(0.019886752 4.4695465e-08 0)
(0.067892685 3.109622e-07 0)
(0.13572313 1.3208125e-06 0)
(0.23028375 3.9322042e-06 0)
(0.35957935 9.7158515e-06 0)
(0.53152592 2.1315528e-05 0)
(0.75129648 4.2360161e-05 0)
(1.0167465 7.5619777e-05 0)
(1.3124581 0.00011654223 0)
(1.6052027 0.00014169862 0)
(1.8460982 0.00011827093 0)
(1.9835117 4.603154e-05 0)
(1.9835117 -4.6031423e-05 0)
(1.8460982 -0.00011827063 0)
(1.6052027 -0.00014169829 0)
(1.3124581 -0.00011654214 0)
(1.0167465 -7.5620029e-05 0)
(0.75129648 -4.2360706e-05 0)
(0.53152592 -2.1316164e-05 0)
(0.35957935 -9.7163489e-06 0)
(0.23028375 -3.9323745e-06 0)
(0.13572313 -1.3210405e-06 0)
(0.067892685 -3.1064499e-07 0)
(0.019886752 -4.4764846e-08 0)
(0.019884362 4.0383487e-08 0)
(0.067884644 2.8105552e-07 0)
(0.13570735 1.1941517e-06 0)
(0.23025769 3.5564873e-06 0)
(0.35954035 8.7928765e-06 0)
(0.53147216 1.9309993e-05 0)
(0.75122934 3.8440107e-05 0)
(1.0166753 6.8838878e-05 0)
(1.3124053 0.00010678346 0)
(1.6051983 0.00013155218 0)
(1.8461504 0.00011132787 0)
(1.9835985 4.3631045e-05 0)
(1.9835985 -4.3631052e-05 0)
(1.8461504 -0.00011132767 0)
(1.6051983 -0.00013155194 0)
(1.3124053 -0.00010678343 0)
(1.0166753 -6.8839205e-05 0)
(0.75122934 -3.8440765e-05 0)
(0.53147216 -1.9310752e-05 0)
(0.35954035 -8.7934598e-06 0)
(0.23025769 -3.5566879e-06 0)
(0.13570735 -1.1944009e-06 0)
(0.067884643 -2.807083e-07 0)
(0.019884362 -4.0459008e-08 0)
(0.019882195 3.6709128e-08 0)
(0.067877348 2.5555142e-07 0)
(0.13569303 1.0860756e-06 0)
(0.23023403 3.2356315e-06 0)
(0.3595049 8.003574e-06 0)
(0.5314232 1.7590913e-05 0)
(0.75116796 3.5067203e-05 0)
(1.0166096 6.2964114e-05 0)
(1.3123553 9.8203156e-05 0)
(1.6051923 0.0001223335 0)
(1.8461982 0.00010491296 0)
(1.9836803 4.1390284e-05 0)
(1.9836803 -4.1390418e-05 0)
(1.8461982 -0.00010491288 0)
(1.6051923 -0.00012233336 0)
(1.3123553 -9.8203189e-05 0)
(1.0166096 -6.2964487e-05 0)
(0.75116796 -3.5067919e-05 0)
(0.5314232 -1.7591733e-05 0)
(0.3595049 -8.0041985e-06 0)
(0.23023403 -3.2358458e-06 0)
(0.13569303 -1.0863299e-06 0)
(0.067877348 -2.5519479e-07 0)
(0.019882195 -3.6786199e-08 0)
(0.019880219 3.3537162e-08 0)
(0.067870695 2.3351973e-07 0)
(0.13567996 9.9267113e-07 0)
(0.23021243 2.9581557e-06 0)
(0.35947252 7.3202925e-06 0)
(0.53137842 1.6100132e-05 0)
(0.75111164 3.2133e-05 0)
(1.0165488 5.782338e-05 0)
(1.3123082 9.0602428e-05 0)
(1.6051852 0.00011395329 0)
(1.8462423 9.8955736e-05 0)
(1.9837576 3.928872e-05 0)
(1.9837576 -3.9288961e-05 0)
(1.8462423 -9.895577e-05 0)
(1.6051852 -0.00011395324 0)
(1.3123082 -9.0602507e-05 0)
(1.0165488 -5.782377e-05 0)
(0.75111164 -3.2133726e-05 0)
(0.53137842 -1.6100959e-05 0)
(0.35947252 -7.3209162e-06 0)
(0.23021243 -2.9583678e-06 0)
(0.13567996 -9.9291492e-07 0)
(0.067870695 -2.3317236e-07 0)
(0.019880219 -3.3611568e-08 0)
(0.019878409 3.0773418e-08 0)
(0.0678646 2.143116e-07 0)
(0.13566798 9.1120128e-07 0)
(0.23019263 2.7159914e-06 0)
(0.35944282 6.723431e-06 0)
(0.53133728 1.4796019e-05 0)
(0.75105976 2.9559693e-05 0)
(1.0164925 5.3292534e-05 0)
(1.3122638 8.3831536e-05 0)
(1.6051772 0.00010632392 0)
(1.846283 9.3402978e-05 0)
(1.9838307 3.7312151e-05 0)
(1.9838307 -3.7312472e-05 0)
(1.846283 -9.3403109e-05 0)
(1.6051772 -0.00010632395 0)
(1.3122638 -8.3831644e-05 0)
(1.0164925 -5.329291e-05 0)
(0.75105976 -2.9560382e-05 0)
(0.53133728 -1.4796802e-05 0)
(0.35944282 -6.7240152e-06 0)
(0.23019263 -2.7161864e-06 0)
(0.13566798 -9.1141974e-07 0)
(0.0678646 -2.1399123e-07 0)
(0.019878409 -3.0841151e-08 0)
(0.019876745 2.8344055e-08 0)
(0.067858993 1.9741919e-07 0)
(0.13565697 8.3952719e-07 0)
(0.23017441 2.5028387e-06 0)
(0.35941547 6.1976666e-06 0)
(0.53129936 1.364582e-05 0)
(0.75101183 2.7285334e-05 0)
(1.0164401 4.9271734e-05 0)
(1.3122219 7.7767672e-05 0)
(1.6051688 9.9355996e-05 0)
(1.8463207 8.8213292e-05 0)
(1.9838998 3.5449203e-05 0)
(1.9838998 -3.5449573e-05 0)
(1.8463207 -8.8213496e-05 0)
(1.6051688 -9.9356081e-05 0)
(1.3122219 -7.7767791e-05 0)
(1.0164401 -4.9272071e-05 0)
(0.75101183 -2.7285943e-05 0)
(0.53129936 -1.3646511e-05 0)
(0.35941547 -6.1981748e-06 0)
(0.23017441 -2.5030026e-06 0)
(0.13565697 -8.3970576e-07 0)
(0.067858993 -1.9714337e-07 0)
(0.019876745 -2.8401156e-08 0)
(0.019875208 2.6191003e-08 0)
(0.067853818 1.8244245e-07 0)
(0.1356468 7.7596222e-07 0)
(0.23015758 2.3137257e-06 0)
(0.3593902 5.7308992e-06 0)
(0.5312643 1.2623604e-05 0)
(0.75096742 2.526039e-05 0)
(1.0163914 4.5679569e-05 0)
(1.3121824 7.2308042e-05 0)
(1.6051599 9.2973265e-05 0)
(1.8463555 8.3350067e-05 0)
(1.9839652 3.368922e-05 0)
(1.9839652 -3.3689613e-05 0)
(1.8463555 -8.3350323e-05 0)
(1.6051599 -9.2973395e-05 0)
(1.3121824 -7.2308165e-05 0)
(1.0163914 -4.5679846e-05 0)
(0.75096742 -2.5260883e-05 0)
(0.5312643 -1.2624158e-05 0)
(0.3593902 -5.7312963e-06 0)
(0.23015758 -2.3138451e-06 0)
(0.1356468 -7.7608628e-07 0)
(0.067853818 -1.8222907e-07 0)
(0.019875208 -2.6233457e-08 0)
(0.019873786 2.4269039e-08 0)
(0.067849027 1.6906917e-07 0)
(0.13563738 7.1918763e-07 0)
(0.230142 2.1447576e-06 0)
(0.35936679 5.3136259e-06 0)
(0.53123178 1.1708946e-05 0)
(0.75092616 2.3445638e-05 0)
(1.016346 4.2450585e-05 0)
(1.3121452 6.7367615e-05 0)
(1.6051509 8.7107447e-05 0)
(1.8463878 7.8784961e-05 0)
(1.9840271 3.2023617e-05 0)
(1.9840271 -3.2024016e-05 0)
(1.8463878 -7.8785255e-05 0)
(1.6051509 -8.7107619e-05 0)
(1.3121452 -6.7367739e-05 0)
(1.016346 -4.2450788e-05 0)
(0.75092616 -2.3445979e-05 0)
(0.53123178 -1.1709319e-05 0)
(0.35936679 -5.3138763e-06 0)
(0.230142 -2.1448188e-06 0)
(0.13563738 -7.1924215e-07 0)
(0.067849027 -1.6893678e-07 0)
(0.019873787 -2.4292687e-08 0)
(0.019872467 2.2542568e-08 0)
(0.067844581 1.5705329e-07 0)
(0.13562864 6.6816306e-07 0)
(0.23012754 1.992857e-06 0)
(0.35934505 4.938324e-06 0)
(0.53120156 1.0885638e-05 0)
(0.75088776 2.1809856e-05 0)
(1.0163035 3.9532266e-05 0)
(1.31211 6.2876523e-05 0)
(1.6051418 8.1702037e-05 0)
(1.8464178 7.4491736e-05 0)
(1.9840857 3.0444245e-05 0)
(1.9840857 -3.0444645e-05 0)
(1.8464178 -7.4492066e-05 0)
(1.6051418 -8.1702253e-05 0)
(1.31211 -6.287665e-05 0)
(1.0163035 -3.9532379e-05 0)
(0.75088776 -2.1810009e-05 0)
(0.53120156 -1.0885785e-05 0)
(0.35934505 -4.9383911e-06 0)
(0.23012754 -1.9928461e-06 0)
(0.13562864 -6.6813227e-07 0)
(0.067844581 -1.5702131e-07 0)
(0.019872467 -2.2543041e-08 0)
(0.01987124 2.0983105e-08 0)
(0.067840446 1.4619768e-07 0)
(0.13562051 6.2205483e-07 0)
(0.23011408 1.855556e-06 0)
(0.35932481 4.5989494e-06 0)
(0.53117342 1.0140619e-05 0)
(0.75085195 2.0327788e-05 0)
(1.0162638 3.6881914e-05 0)
(1.3120768 5.8777052e-05 0)
(1.6051327 7.6706758e-05 0)
(1.8464458 7.0451274e-05 0)
(1.9841412 2.8945056e-05 0)
(1.9841412 -2.8945462e-05 0)
(1.8464458 -7.0451643e-05 0)
(1.6051327 -7.6707031e-05 0)
(1.3120768 -5.8777191e-05 0)
(1.0162638 -3.6881927e-05 0)
(0.75085195 -2.0327716e-05 0)
(0.53117342 -1.0140493e-05 0)
(0.35932481 -4.5987947e-06 0)
(0.23011408 -1.8554582e-06 0)
(0.13562051 -6.2192202e-07 0)
(0.067840446 -1.4628672e-07 0)
(0.01987124 -2.0955767e-08 0)
(0.019870096 1.9567625e-08 0)
(0.067836592 1.3634287e-07 0)
(0.13561293 5.8018807e-07 0)
(0.23010153 1.7308556e-06 0)
(0.35930594 4.2906037e-06 0)
(0.53114716 9.46329e-06 0)
(0.75081849 1.8978877e-05 0)
(1.0162266 3.446454e-05 0)
(1.3120455 5.5021069e-05 0)
(1.6051237 7.208082e-05 0)
(1.8464718 6.6642799e-05 0)
(1.9841938 2.7519614e-05 0)
(1.9841938 -2.7520036e-05 0)
(1.8464718 -6.664322e-05 0)
(1.6051237 -7.2081168e-05 0)
(1.3120455 -5.5021231e-05 0)
(1.0162266 -3.446444e-05 0)
(0.75081849 -1.8978542e-05 0)
(0.53114716 -9.4628397e-06 0)
(0.35930594 -4.2901862e-06 0)
(0.23010153 -1.7306552e-06 0)
(0.13561293 -5.7993546e-07 0)
(0.067836592 -1.3657491e-07 0)
(0.019870096 -1.9507521e-08 0)
(0.019869029 1.8277286e-08 0)
(0.067832994 1.2735826e-07 0)
(0.13560586 5.4201012e-07 0)
(0.23008981 1.6171176e-06 0)
(0.35928831 4.0092667e-06 0)
(0.53112262 8.8449348e-06 0)
(0.75078719 1.7746173e-05 0)
(1.0161917 3.2251201e-05 0)
(1.3120159 5.1568374e-05 0)
(1.6051149 6.7786383e-05 0)
(1.846496 6.3053087e-05 0)
(1.9842436 2.6163885e-05 0)
(1.9842436 -2.6164339e-05 0)
(1.846496 -6.3053579e-05 0)
(1.6051149 -6.7786827e-05 0)
(1.3120159 -5.1568573e-05 0)
(1.0161917 -3.2250976e-05 0)
(0.75078719 -1.7745532e-05 0)
(0.53112262 -8.8441069e-06 0)
(0.35928831 -4.0085429e-06 0)
(0.23008981 -1.6167981e-06 0)
(0.13560586 -5.4161872e-07 0)
(0.067832995 -1.2775689e-07 0)
(0.019869029 -1.8179108e-08 0)
(0.019868031 1.7096561e-08 0)
(0.067829631 1.1913618e-07 0)
(0.13559924 5.0706507e-07 0)
(0.23007886 1.5129903e-06 0)
(0.35927183 3.7516217e-06 0)
(0.53109965 8.2783605e-06 0)
(0.75075787 1.6615664e-05 0)
(1.0161589 3.0217808e-05 0)
(1.311988 4.8384938e-05 0)
(1.6051063 6.3793832e-05 0)
(1.8465187 5.9663942e-05 0)
(1.9842909 2.487251e-05 0)
(1.9842909 -2.4873012e-05 0)
(1.8465187 -5.9664528e-05 0)
(1.6051063 -6.3794398e-05 0)
(1.311988 -4.8385187e-05 0)
(1.0161589 -3.0217445e-05 0)
(0.75075787 -1.6614674e-05 0)
(0.53109965 -8.2770975e-06 0)
(0.35927183 -3.7505452e-06 0)
(0.23007886 -1.512534e-06 0)
(0.13559924 -5.0651464e-07 0)
(0.067829631 -1.1972664e-07 0)
(0.019868031 -1.695462e-08 0)
(0.019867096 1.6012477e-08 0)
(0.067826482 1.115867e-07 0)
(0.13559305 4.7497208e-07 0)
(0.2300686 1.4173437e-06 0)
(0.35925639 3.5148909e-06 0)
(0.53107814 7.7575271e-06 0)
(0.75073038 1.5575561e-05 0)
(1.0161281 2.8344107e-05 0)
(1.3119617 4.5442106e-05 0)
(1.6050979 6.0073654e-05 0)
(1.8465398 5.6466919e-05 0)
(1.9843356 2.3643171e-05 0)
(1.9843356 -2.3643739e-05 0)
(1.8465398 -5.6467623e-05 0)
(1.6050979 -6.007437e-05 0)
(1.3119617 -4.5442421e-05 0)
(1.0161281 -2.834359e-05 0)
(0.75073038 -1.5574173e-05 0)
(0.53107814 -7.7557677e-06 0)
(0.35925639 -3.5134119e-06 0)
(0.2300686 -1.4167319e-06 0)
(0.13559305 -4.7424103e-07 0)
(0.067826482 -1.1239601e-07 0)
(0.019867097 -1.5820686e-08 0)
(0.019866221 1.5014126e-08 0)
(0.06782353 1.0463417e-07 0)
(0.13558724 4.454105e-07 0)
(0.23005898 1.329227e-06 0)
(0.35924191 3.2967399e-06 0)
(0.53105795 7.2773667e-06 0)
(0.75070457 1.4615956e-05 0)
(1.0160992 2.6612909e-05 0)
(1.3119367 4.2715038e-05 0)
(1.6050897 5.660418e-05 0)
(1.8465596 5.3444442e-05 0)
(1.984378 2.2470889e-05 0)
(1.984378 -2.2471542e-05 0)
(1.8465596 -5.3445287e-05 0)
(1.6050897 -5.6605071e-05 0)
(1.3119367 -4.2715435e-05 0)
(1.0160992 -2.6612222e-05 0)
(0.75070457 -1.461412e-05 0)
(0.53105795 -7.2750452e-06 0)
(0.35924191 -3.2948055e-06 0)
(0.23005898 -1.3284397e-06 0)
(0.13558724 -4.4447592e-07 0)
(0.067823531 -1.0569104e-07 0)
(0.019866221 -1.4765996e-08 0)
(0.019865399 1.4092245e-08 0)
(0.067820761 9.8214474e-08 0)
(0.1355818 4.1810862e-07 0)
(0.23004995 1.2478329e-06 0)
(0.35922832 3.0951804e-06 0)
(0.531039 6.833543e-06 0)
(0.75068032 1.3728358e-05 0)
(1.0160719 2.5009583e-05 0)
(1.3119132 4.0182844e-05 0)
(1.6050818 5.3361479e-05 0)
(1.8465781 5.0592698e-05 0)
(1.9844182 2.1354912e-05 0)
(1.9844182 -2.1355666e-05 0)
(1.8465781 -5.0593708e-05 0)
(1.6050818 -5.3362573e-05 0)
(1.3119132 -4.0183334e-05 0)
(1.0160719 -2.5008708e-05 0)
(0.75068032 -1.3726019e-05 0)
(0.531039 -6.8305893e-06 0)
(0.35922832 -3.0927343e-06 0)
(0.23004995 -1.2468489e-06 0)
(0.1355818 -4.1694624e-07 0)
(0.067820762 -9.9549325e-08 0)
(0.0198654 -1.3780888e-08 0)
(0.019864628 1.3238884e-08 0)
(0.06781816 9.227247e-08 0)
(0.13557668 3.9283241e-07 0)
(0.23004148 1.1724678e-06 0)
(0.35921555 2.9085112e-06 0)
(0.53102119 6.4223643e-06 0)
(0.75065752 1.290553e-05 0)
(1.0160463 2.3521427e-05 0)
(1.3118909 3.7826706e-05 0)
(1.6050743 5.0329729e-05 0)
(1.8465955 4.7892948e-05 0)
(1.9844563 2.028993e-05 0)
(1.9844563 -2.0290801e-05 0)
(1.8465955 -4.7894143e-05 0)
(1.6050743 -5.033105e-05 0)
(1.3118909 -3.7827302e-05 0)
(1.0160463 -2.3520341e-05 0)
(0.75065751 -1.2902627e-05 0)
(0.5310212 -6.4187038e-06 0)
(0.35921555 -2.9054936e-06 0)
(0.23004148 -1.1712648e-06 0)
(0.13557668 -3.9141664e-07 0)
(0.067818161 -9.3917336e-08 0)
(0.019864628 -1.2857022e-08 0)
(0.019863903 1.2447264e-08 0)
(0.067815716 8.6761412e-08 0)
(0.13557187 3.6938358e-07 0)
(0.23003351 1.1025415e-06 0)
(0.35920355 2.7352717e-06 0)
(0.53100445 6.0406297e-06 0)
(0.75063606 1.2141184e-05 0)
(1.0160221 2.2137636e-05 0)
(1.3118699 3.5631241e-05 0)
(1.6050669 4.7488888e-05 0)
(1.8466118 4.534671e-05 0)
(1.9844924 1.9276901e-05 0)
(1.9844924 -1.9277898e-05 0)
(1.8466118 -4.534811e-05 0)
(1.6050669 -4.7490461e-05 0)
(1.3118699 -3.5631956e-05 0)
(1.0160221 -2.2136316e-05 0)
(0.75063606 -1.2137655e-05 0)
(0.53100445 -6.0361834e-06 0)
(0.35920355 -2.7316196e-06 0)
(0.23003351 -1.1010956e-06 0)
(0.13557187 -3.6768752e-07 0)
(0.067815717 -8.8749847e-08 0)
(0.019863903 -1.1987239e-08 0)
(0.019863221 1.1711368e-08 0)
(0.067813416 8.1639471e-08 0)
(0.13556735 3.4758421e-07 0)
(0.23002601 1.0375277e-06 0)
(0.35919225 2.5741779e-06 0)
(0.53098868 5.6855635e-06 0)
(0.75061585 1.1429865e-05 0)
(1.0159993 2.0848461e-05 0)
(1.31185 3.3581495e-05 0)
(1.6050599 4.4827433e-05 0)
(1.8466272 4.2932078e-05 0)
(1.9845266 1.8309397e-05 0)
(1.9845266 -1.831053e-05 0)
(1.8466271 -4.29337e-05 0)
(1.6050599 -4.4829283e-05 0)
(1.31185 -3.3582341e-05 0)
(1.0159993 -2.0846884e-05 0)
(0.75061585 -1.1425643e-05 0)
(0.53098868 -5.6802484e-06 0)
(0.35919226 -2.5698249e-06 0)
(0.23002601 -1.035814e-06 0)
(0.13556735 -3.4557968e-07 0)
(0.067813417 -8.4006452e-08 0)
(0.019863221 -1.1165155e-08 0)
(0.019862579 1.1026207e-08 0)
(0.067811252 7.6872565e-08 0)
(0.13556309 3.2728974e-07 0)
(0.23001895 9.7699361e-07 0)
(0.35918162 2.4241465e-06 0)
(0.53097384 5.3547655e-06 0)
(0.75059681 1.0766842e-05 0)
(1.0159778 1.9645891e-05 0)
(1.3118312 3.1666393e-05 0)
(1.6050532 4.2328383e-05 0)
(1.8466415 4.0657473e-05 0)
(1.984559 1.7390599e-05 0)
(1.984559 -1.7391875e-05 0)
(1.8466415 -4.0659335e-05 0)
(1.6050532 -4.2330535e-05 0)
(1.3118312 -3.1667381e-05 0)
(1.0159778 -1.964403e-05 0)
(0.75059681 -1.0761858e-05 0)
(0.53097384 -5.3484942e-06 0)
(0.35918162 -2.4190227e-06 0)
(0.23001895 -9.7498566e-07 0)
(0.13556309 -3.2494718e-07 0)
(0.067811253 -7.9654471e-08 0)
(0.019862579 -1.0385406e-08 0)
(0.019861974 1.0386984e-08 0)
(0.067809213 7.2426945e-08 0)
(0.13555907 3.0835625e-07 0)
(0.2300123 9.2051687e-07 0)
(0.3591716 2.2841618e-06 0)
(0.53095985 5.0460694e-06 0)
(0.75057886 1.014785e-05 0)
(1.0159575 1.8522055e-05 0)
(1.3118134 2.9873124e-05 0)
(1.6050467 3.9982972e-05 0)
(1.8466551 3.8495182e-05 0)
(1.9845898 1.6511948e-05 0)
(1.9845898 -1.6513373e-05 0)
(1.8466551 -3.8497301e-05 0)
(1.6050467 -3.998545e-05 0)
(1.3118134 -2.9874267e-05 0)
(1.0159575 -1.8519882e-05 0)
(0.75057886 -1.014203e-05 0)
(0.53095985 -5.0387505e-06 0)
(0.3591716 -2.2781943e-06 0)
(0.2300123 -9.1818704e-07 0)
(0.13555908 -3.0564483e-07 0)
(0.067809214 -7.5661685e-08 0)
(0.019861975 -9.6428088e-09 0)
(0.019861404 9.790222e-09 0)
(0.067807291 6.8279485e-08 0)
(0.13555529 2.9068612e-07 0)
(0.23000603 8.6779895e-07 0)
(0.35916216 2.1534498e-06 0)
(0.53094666 4.7577045e-06 0)
(0.75056193 9.5693796e-06 0)
(1.0159384 1.7471265e-05 0)
(1.3117965 2.819464e-05 0)
(1.6050405 3.7777518e-05 0)
(1.8466677 3.6463245e-05 0)
(1.9846188 1.5679866e-05 0)
(1.9846188 -1.5681446e-05 0)
(1.8466677 -3.6465635e-05 0)
(1.6050405 -3.7780346e-05 0)
(1.3117965 -2.8195949e-05 0)
(1.0159384 -1.7468752e-05 0)
(0.75056193 -9.5626487e-06 0)
(0.53094666 -4.7492434e-06 0)
(0.35916216 -2.1465632e-06 0)
(0.23000603 -8.6511906e-07 0)
(0.1355553 -2.8757407e-07 0)
(0.067807293 -7.2006666e-08 0)
(0.019861405 -8.9335061e-09 0)
(0.019860867 9.2316829e-09 0)
(0.067805479 6.439935e-08 0)
(0.13555173 2.7414736e-07 0)
(0.23000012 8.1846029e-07 0)
(0.35915325 2.031132e-06 0)
(0.53093421 4.4878671e-06 0)
(0.75054596 9.027887e-06 0)
(1.0159203 1.6486582e-05 0)
(1.3117806 2.6618472e-05 0)
(1.6050346 3.5703785e-05 0)
(1.8466798 3.4524401e-05 0)
(1.9846465 1.4882201e-05 0)
(1.9846465 -1.4883937e-05 0)
(1.8466798 -3.4527075e-05 0)
(1.6050346 -3.5706983e-05 0)
(1.3117806 -2.6619956e-05 0)
(1.0159203 -1.6483696e-05 0)
(0.75054596 -9.0201642e-06 0)
(0.53093422 -4.4781643e-06 0)
(0.35915325 -2.0232474e-06 0)
(0.23000012 -8.1540069e-07 0)
(0.13555173 -2.7060176e-07 0)
(0.067805481 -6.8659639e-08 0)
(0.019860867 -8.2529714e-09 0)
(0.01986036 8.7096587e-09 0)
(0.06780377 6.0776836e-08 0)
(0.13554837 2.5870024e-07 0)
(0.22999455 7.7236224e-07 0)
(0.35914485 1.9167756e-06 0)
(0.53092248 4.2354237e-06 0)
(0.75053089 8.5210688e-06 0)
(1.0159032 1.5564821e-05 0)
(1.3117655 2.5142528e-05 0)
(1.605029 3.3753421e-05 0)
(1.846691 3.271068e-05 0)
(1.9846726 1.413037e-05 0)
(1.9846726 -1.4132256e-05 0)
(1.846691 -3.2713641e-05 0)
(1.605029 -3.3757007e-05 0)
(1.3117655 -2.5144194e-05 0)
(1.0159032 -1.5561528e-05 0)
(0.75053088 -8.51227e-06 0)
(0.53092248 -4.2243758e-06 0)
(0.35914485 -1.9078107e-06 0)
(0.22999455 -7.6889151e-07 0)
(0.13554837 -2.5468668e-07 0)
(0.067803772 -6.5611861e-08 0)
(0.019860361 -7.5991226e-09 0)
(0.019859881 8.2194419e-09 0)
(0.067802156 5.7375853e-08 0)
(0.13554519 2.4418926e-07 0)
(0.22998928 7.2907403e-07 0)
(0.35913691 1.8094573e-06 0)
(0.53091139 3.9986358e-06 0)
(0.75051664 8.0455743e-06 0)
(1.0158871 1.4698779e-05 0)
(1.3117512 2.3752072e-05 0)
(1.6050236 3.1914709e-05 0)
(1.8467017 3.0969817e-05 0)
(1.9846975 1.3406421e-05 0)
(1.9846975 -1.3408443e-05 0)
(1.8467017 -3.0973063e-05 0)
(1.6050236 -3.1918693e-05 0)
(1.3117512 -2.375392e-05 0)
(1.0158871 -1.4695041e-05 0)
(0.75051664 -8.0356178e-06 0)
(0.53091139 -3.9861456e-06 0)
(0.35913691 -1.7993382e-06 0)
(0.22998928 -7.2516882e-07 0)
(0.13554519 -2.3967745e-07 0)
(0.067802158 -6.2831036e-08 0)
(0.019859882 -6.9670376e-09 0)
(0.01985943 7.7625876e-09 0)
(0.067800634 5.4212306e-08 0)
(0.13554219 2.3068462e-07 0)
(0.22998431 6.8875168e-07 0)
(0.35912943 1.709334e-06 0)
(0.53090093 3.7773757e-06 0)
(0.7505032 7.6009044e-06 0)
(1.0158719 1.3889154e-05 0)
(1.3117377 2.2453165e-05 0)
(1.6050185 3.0190099e-05 0)
(1.8467117 2.9354828e-05 0)
(1.9847208 1.2729696e-05 0)
(1.9847208 -1.2731818e-05 0)
(1.8467117 -2.9358334e-05 0)
(1.6050185 -3.0194475e-05 0)
(1.3117377 -2.2455186e-05 0)
(1.0158718 -1.3884926e-05 0)
(0.7505032 -7.589699e-06 0)
(0.53090093 -3.7633355e-06 0)
(0.35912943 -1.697978e-06 0)
(0.22998432 -6.8438132e-07 0)
(0.1355422 -2.2564341e-07 0)
(0.067800636 -6.0327212e-08 0)
(0.019859431 -6.3592228e-09 0)
(0.019859002 7.3312593e-09 0)
(0.067799193 5.1223722e-08 0)
(0.13553936 2.179169e-07 0)
(0.22997961 6.5067815e-07 0)
(0.35912234 1.6149983e-06 0)
(0.53089102 3.5693062e-06 0)
(0.75049046 7.1828367e-06 0)
(1.0158574 1.3126211e-05 0)
(1.3117249 2.1224027e-05 0)
(1.6050136 2.8556864e-05 0)
(1.8467212 2.7790638e-05 0)
(1.9847433 1.2073141e-05 0)
(1.9847434 -1.2075312e-05 0)
(1.8467212 -2.779437e-05 0)
(1.6050136 -2.8561614e-05 0)
(1.3117249 -2.1226202e-05 0)
(1.0158574 -1.3121445e-05 0)
(0.75049046 -7.1702979e-06 0)
(0.53089102 -3.5536159e-06 0)
(0.35912234 -1.602324e-06 0)
(0.22997961 -6.4580737e-07 0)
(0.13553936 -2.1231315e-07 0)
(0.067799195 -5.8030572e-08 0)
(0.019859003 -5.7685723e-09 0)
(0.0198586 6.9357797e-09 0)
(0.067797836 4.8493847e-08 0)
(0.13553669 2.0624466e-07 0)
(0.22997518 6.1577261e-07 0)
(0.35911566 1.5281e-06 0)
(0.5308817 3.3767366e-06 0)
(0.75047849 6.794967e-06 0)
(1.0158438 1.2418893e-05 0)
(1.3117128 2.0087039e-05 0)
(1.6050089 2.7040497e-05 0)
(1.84673 2.6362673e-05 0)
(1.9847642 1.1468994e-05 0)
(1.9847642 -1.1471122e-05 0)
(1.84673 -2.6366555e-05 0)
(1.6050089 -2.704558e-05 0)
(1.3117128 -2.0089336e-05 0)
(1.0158438 -1.2413547e-05 0)
(0.75047848 -6.7810432e-06 0)