/*--------------------------------*- C++ -*----------------------------------*\
| =========                 |                                                 |
| \\      /  F ield         | OpenFOAM: The Open Source CFD Toolbox           |
|  \\    /   O peration     | Version:  2406                                  |
|   \\  /    A nd           | Website:  www.openfoam.com                      |
|    \\/     M anipulation  |                                                 |
\*---------------------------------------------------------------------------*/
FoamFile
{
    version     2.0;
    format      ascii;
    arch        "LSB;label=32;scalar=64";
    class       surfaceScalarField;
    location    "8.75";
    object      phi;
}
// * * * * * * * * * * * * * * * * * * * * * * * * * * * * * * * * * * * * * //

dimensions      [0 3 -1 0 0 0 0];

oriented        oriented;

internalField   nonuniform List<scalar> 
101088
(
-4.9441435e-05
2.7187808e-06
5.6327722e-06
-1.187094e-06
-0.00013635561
2.0063041e-05
1.9779148e-05
-1.208996e-05
-0.00027539835
7.1300131e-05
3.5636451e-05
-4.8360129e-05
-0.0004698513
0.00018466081
3.9133382e-05
-0.00013447284
-0.0006896475
0.00036684894
6.193838e-06
-0.00028327982
-0.00087075607
0.00056807932
-7.3697692e-05
-0.00046306993
-0.00096134456
0.00071579905
-0.00017375884
-0.00060975697
-0.00096623127
0.00077735114
-0.0002449774
-0.0006794309
0.00075450726
-0.00025726899
-0.00067410311
-0.00092164986
-5.9744627e-05
3.4208071e-06
7.1812395e-06
-0.00016268463
2.5847627e-05
2.4676612e-05
-0.00032390222
9.1250075e-05
4.2816653e-05
-0.00054194542
0.00023128001
4.289853e-05
-0.00077291377
0.00044347302
-4.7045823e-06
-0.00094102966
0.00066057569
-0.00010816043
-0.00099978697
0.0008094845
-0.00023052292
-0.00096876154
0.00087044205
-0.00031419586
0.00084950131
-0.00032912153
-0.00090321739
-7.0590127e-05
3.4465822e-06
9.0300614e-06
-0.00019000845
2.8581827e-05
3.0830687e-05
-0.00037160909
0.00010420813
5.2251809e-05
-0.00060813757
0.00026573599
5.0429284e-05
-0.00084420412
0.00050246765
-1.0299786e-05
-0.00099750556
0.00073186014
-0.0001344359
-0.0010293947
0.00088548362
-0.00027491894
-0.00097216956
0.00095576503
-0.00036795597
0.00094744085
-0.0003846904
-0.00088700567
-8.1377296e-05
2.7724728e-06
1.1075367e-05
-0.00021733275
2.7792942e-05
3.7888886e-05
-0.0004185173
0.00010775666
6.3906444e-05
-0.00067001513
0.00028194705
6.1479327e-05
-0.00090597984
0.00053416161
-9.9658106e-06
-0.0010444821
0.00077472399
-0.00015138746
-0.0010567304
0.00094088181
-0.00030638664
-0.00098284773
0.0010310715
-0.00040657192
0.0010417344
-0.00042466266
-0.00088342318
-9.1255332e-05
7.6415202e-07
1.3330415e-05
-0.00024163755
2.1058804e-05
4.5967827e-05
-0.00045908031
9.6998218e-05
7.8156792e-05
-0.0007220728
0.00027330329
7.711144e-05
-0.00095836337
0.00053351903
-2.1960845e-06
-0.0010886513
0.0007876775
-0.00015768426
-0.0010918766
0.00097625673
-0.00032467057
-0.0010111688
0.001095247
-0.00043069089
0.0011276244
-0.00044951031
-0.00090417879
-0.00010065287
-2.664791e-06
1.5845309e-05
-0.00026544025
8.0029431e-06
5.5332902e-05
-0.00050059331
7.0818444e-05
9.6272364e-05
-0.00077743675
0.00023824274
9.8425253e-05
-0.0010210962
0.00050108394
1.4380522e-05
-0.0011524824
0.00077151955
-0.00015261253
-0.0011561522
0.00099039257
-0.00032893286
-0.0010746278
0.001141963
-0.00043884987
0.001194887
-0.00045825274
-0.00096232281
-0.00010958756
-7.3557376e-06
1.8663389e-05
-0.00028957194
-1.0900124e-05
6.630518e-05
-0.00054637202
3.0211389e-05
0.00011908347
-0.00084299079
0.00017839969
0.00012632081
-0.0011043478
0.00043772712
4.3282826e-05
-0.0012495956
0.00072649493
-0.00013163443
-0.0012639492
0.00097892366
-0.00031485239
-0.0011869949
0.0011612639
-0.00042782967
0.0012304363
-0.00044850769
-0.0010711168
-0.00011849201
-1.270095e-05
2.1886273e-05
-0.00031685799
-3.3202341e-05
7.9452128e-05
-0.00060452982
-1.9021324e-05
0.00014724147
-0.00093906422
0.00010097759
0.00016763082
-0.0012367917
0.00034924231
8.8085442e-05
-0.0014116126
0.00065149681
-9.036671e-05
-0.0014447982
0.00093071076
-0.00027776411
-0.0013728522
0.0011335728
-0.00039308979
0.001211024
-0.00041633607
-0.0012491476
-0.0001283973
-1.6969982e-05
2.5522798e-05
-0.00035239763
-5.2296951e-05
9.4815577e-05
-0.00068853274
-6.3078505e-05
0.00018127282
-0.0010907016
2.3575934e-05
0.00022370298
-0.0014501224
0.00024723314
0.000149776
-0.0016711476
0.00054306924
-2.5456388e-05
-0.0017268754
0.00082540092
-0.00021290025
-0.0016537797
0.0010274111
-0.00032943546
0.0011015766
-0.00035725795
-0.0015108446
-0.00014011663
-1.7307147e-05
2.9341334e-05
-0.00040098715
-5.6475857e-05
0.00011137838
-0.00080893531
-8.0050722e-05
0.0002189488
-0.0013104575
-2.6614894e-05
0.00028707446
-0.0017564212
0.00014971274
0.00022159004
-0.0020364063
0.00039650277
6.0550075e-05
-0.0021123721
0.00063754393
-0.00012117691
-0.0020267302
0.000806247
-0.00023713243
0.00086348802
-0.00027174744
-0.0018493004
-0.00015263541
-1.1175148e-05
3.2726551e-05
-0.00045541113
-3.72507e-05
0.00012626404
-0.00094382603
-5.5935524e-05
0.00025360558
-0.0015559367
-3.0953412e-05
0.00034594546
-0.0021025555
6.8180855e-05
0.00029942907
-0.0024419406
0.00021123357
0.00015128461
-0.0025313774
0.00035372554
-1.9059384e-05
-0.0024235324
0.00045160895
-0.00013253902
0.00048173122
-0.00017539228
-0.0022044343
-0.00016108389
-1.8542685e-10
3.4786423e-05
-0.00049290931
-8.0413738e-10
0.00013546383
-0.0010372993
-2.0991759e-09
0.00027538024
-0.0017255571
-3.7377954e-09
0.0003838469
-0.0023460191
-5.1082585e-09
0.00035648745
-0.0027239131
-5.3554995e-09
0.00021205801
-0.0028191662
-4.8955706e-09
5.2998087e-05
-0.0026919732
-4.5034584e-09
-5.8254216e-05
-4.487724e-09
-0.00010730138
-0.0024438042
-0.00016108374
1.1174775e-05
3.4786412e-05
-0.00049290937
3.7249021e-05
0.00013546378
-0.0010372991
5.5931344e-05
0.00027538013
-0.0017255569
3.0946363e-05
0.00038384672
-0.0023460187
-6.8190469e-05
0.00035648721
-0.0027239129
-0.00021124385
0.00021205779
-0.0028191663
-0.00035373517
5.2997904e-05
-0.0026919738
-0.00045161781
-5.8254349e-05
-0.00048173989
-0.00010730149
-0.0024438052
-0.00015263534
1.7306856e-05
3.2726536e-05
-0.00045541134
5.6474308e-05
0.00012626396
-0.00094382533
8.0047013e-05
0.0002536054
-0.001555937
2.6608862e-05
0.00034594509
-0.0021025556
-0.00014972123
0.00029942857
-0.002441941
-0.00039651208
0.00015128408
-0.0025313785
-0.00063755315
-1.9059828e-05
-0.0024235343
-0.00080625563
-0.00013253934
-0.00086349614
-0.00017539258
-0.0022044365
-0.00014011727
1.6969704e-05
2.9341306e-05
-0.00040098785
5.229542e-05
0.00011137826
-0.00080893458
6.3075094e-05
0.00021894851
-0.0013104585
-2.3581545e-05
0.00028707389
-0.0017564217
-0.00024724065
0.00022158934
-0.0020364073
-0.00054307679
6.0549375e-05
-0.0021123737
-0.00082540876
-0.00012117748
-0.0020267325
-0.0010274191
-0.00023713284
-0.0011015843
-0.00027174785
-0.0018493023
-0.00012839851
1.2700557e-05
2.5522772e-05
-0.00035239915
3.3200782e-05
9.4815464e-05
-0.00068853316
1.901817e-05
0.00018127255
-0.0010907033
-0.00010098279
0.00022370243
-0.0014501233
-0.00034924819
0.00014977535
-0.0016711498
-0.000651502
-2.5457081e-05
-0.0017268777
-0.00093071674
-0.00021290083
-0.0016537823
-0.0011335801
-0.00032943589
-0.0012110324
-0.00035725838
-0.0015108454
-0.00011849273
7.3554914e-06
2.1886253e-05
-0.00031685879
1.0899375e-05
7.9452042e-05
-0.0006045305
-3.0213294e-05
0.00014724126
-0.00093906563
-0.00017840339
0.00016763039
-0.0012367932
-0.0004377313
8.8084852e-05
-0.0014116161
-0.0007264988
-9.0367324e-05
-0.0014448012
-0.00097892848
-0.00027776464
-0.0013728557
-0.0011612708
-0.00039309015
-0.0012304461
-0.00041633643
-0.0012491487
-0.00010958733
2.6645938e-06
1.8663375e-05
-0.00028957203
-8.0035043e-06
6.6305112e-05
-0.00054637334
-7.0820077e-05
0.0001190833
-0.00084299305
-0.00023824587
0.00012632046
-0.0011043505
-0.00050108832
4.3282331e-05
-0.0012495995
-0.00077152333
-0.00013163494
-0.0012639526
-0.00099039678
-0.00031485283
-0.0011869995
-0.0011419692
-0.00042782997
-0.0011948968
-0.00044850798
-0.00107112
-0.00010065294
-7.6418539e-07
1.5845301e-05
-0.00026544069
-2.1059048e-05
5.5332859e-05
-0.00050059421
-9.6999134e-05
9.6272237e-05
-0.00077743961
-0.0002733058
9.8425e-05
-0.0010210985
-0.00053352251
1.4380124e-05
-0.0011524853
-0.00078767988
-0.00015261296
-0.0011561553
-0.00097625982
-0.00032893325
-0.0010746322
-0.0010952526
-0.00043885014
-0.0011276327
-0.00045825299
-0.00096232691
-9.1255035e-05
-2.7725771e-06
1.3330402e-05
-0.00024163683
-2.7793157e-05
4.5967771e-05
-0.00045907978
-0.00010775689
7.8156663e-05
-0.00072207363
-0.00028194799
7.7111203e-05
-0.00095836322
-0.00053416258
-2.1964436e-06
-0.0010886525
-0.00077472563
-0.00015768463
-0.0010918783
-0.00094088365
-0.00032467091
-0.0010111706
-0.0010310768
-0.00043069112
-0.0010417415
-0.00044951048
-0.00090418095
-8.1377203e-05
-3.446604e-06
1.1075354e-05
-0.00021733266
-2.8581921e-05
3.7888828e-05
-0.00041851702
-0.00010420845
6.3906315e-05
-0.00067001476
-0.00026573723
6.14791e-05
-0.00090598007
-0.00050246972
-9.9661307e-06
-0.0010444812
-0.00073186153
-0.0001513878
-0.0010567306
-0.00088548539
-0.00030638693
-0.00098284825
-0.0009557692
-0.00040657218
-0.00094744687
-0.00042466286
-0.00088342594
-7.0590298e-05
-3.4208646e-06
9.0300468e-06
-0.00019000896
-2.5847815e-05
3.0830627e-05
-0.00037160925
-9.1250515e-05
5.2251681e-05
-0.00060813663
-0.00023128091
5.0429071e-05
-0.00084420279
-0.00044347423
-1.0300092e-05
-0.00099750433
-0.00066057559
-0.00013443625
-0.0010293942
-0.00080948435
-0.00027491929
-0.00097216986
-0.00087044421
-0.00036795621
-0.00084950715
-0.00038469057
-0.00088700856
-5.9744752e-05
-2.7188311e-06
7.1812278e-06
-0.00016268496
-2.0063168e-05
2.4676565e-05
-0.00032390224
-7.1300311e-05
4.2816553e-05
-0.00054194448
-0.00018466089
4.2898343e-05
-0.00077291231
-0.00036684901
-4.7048732e-06
-0.00094102847
-0.00056807945
-0.00010816078
-0.00099978416
-0.00071579844
-0.00023052326
-0.00096875881
-0.00077735466
-0.00031419617
-0.00075451318
-0.00032912172
-0.00090321832
-4.9441432e-05
5.6327641e-06
-1.187117e-06
-0.00013635544
1.9779115e-05
-1.2090028e-05
-0.00027539775
3.5636374e-05
-4.8360255e-05
-0.00046985101
3.9133235e-05
-0.000134473
-0.00068964788
6.1936132e-06
-0.00028327959
-0.00087075575
-7.3697971e-05
-0.00046306813
-0.00096134451
-0.00017375912
-0.00060975489
-0.00096623049
-0.00024497761
-0.00067943245
-0.00025726921
-0.00067410447
-0.00092164941
1.1751617e-06
2.0511471e-07
5.4139524e-06
-1.1614502e-06
4.706343e-06
-3.0391147e-07
2.0723144e-05
-4.1711733e-06
1.1409113e-05
-4.6868489e-06
4.0788266e-05
-7.1674884e-06
2.2785058e-05
-2.0890512e-05
5.324875e-05
-4.6004782e-06
3.8154598e-05
-6.1680925e-05
3.7953007e-05
1.4552407e-05
5.7286501e-05
-0.00013421313
-1.8835812e-05
6.0219422e-05
8.2037027e-05
-0.00022392995
-0.00010102732
0.00012644835
0.00011197448
-0.00029852802
-0.00016681475
0.00019042742
-0.00033553122
-0.00018532642
0.00023273043
0.00014283216
1.9048749e-06
-1.1451886e-06
6.6266917e-06
8.0426683e-06
-6.7393885e-06
2.4974306e-05
1.9829736e-05
-2.1590585e-05
4.7933136e-05
3.8603145e-05
-5.5988671e-05
5.9222327e-05
6.0364155e-05
-0.00012258344
3.443539e-05
8.1698939e-05
-0.00022286297
-4.0845521e-05
0.00010368619
-0.0003325913
-0.00014384874
0.00012862604
-0.00041423643
-0.00022342769
-0.00044655748
-0.00024556862
0.00015609872
2.9497532e-06
-3.0013889e-06
7.9366223e-06
1.2759686e-05
-1.5354329e-05
2.9635947e-05
3.0820265e-05
-4.364049e-05
5.624133e-05
5.8053895e-05
-0.00010000787
6.721491e-05
8.5644413e-05
-0.00019504486
3.457186e-05
0.00010675731
-0.00032192896
-5.6482757e-05
0.00012313637
-0.0004471612
-0.00017672794
0.0001402591
-0.00053189765
-0.00026741686
-0.00055816206
-0.00029262294
0.00015979609
4.2348141e-06
-5.3603409e-06
9.199469e-06
1.8666418e-05
-2.6034786e-05
3.4137633e-05
4.4864301e-05
-7.0168027e-05
6.4235505e-05
8.1998135e-05
-0.00015097062
7.5307351e-05
0.00011574279
-0.00027477627
3.6021695e-05
0.00013568257
-0.00042506807
-6.818817e-05
0.00014516718
-0.00056093294
-0.00020209831
0.00015299817
-0.00064530897
-0.00030099144
-0.00066428544
-0.00032835641
0.00016281493
5.6500187e-06
-8.0523191e-06
1.0372352e-05
2.5279776e-05
-3.8025335e-05
3.8328727e-05
6.0800636e-05
-9.9262876e-05
7.1731011e-05
0.00010883955
-0.00020500941
8.3111971e-05
0.00014914823
-0.00035547692
3.8195003e-05
0.0001677997
-0.00052438352
-7.7019091e-05
0.00017033768
-0.00066641513
-0.00022172615
0.0001689112
-0.00074814571
-0.00032642745
-0.00075892863
-0.00035495776
0.0001690021
7.3097453e-06
-1.0963028e-05
1.1446261e-05
3.3059065e-05
-5.0615372e-05
4.2173682e-05
8.0175672e-05
-0.00012875351
7.8646214e-05
0.00014050239
-0.00025738545
9.04756e-05
0.00018827447
-0.00042959696
4.0728152e-05
0.00020568898
-0.00061055906
-8.3851436e-05
0.00020146378
-0.00075386247
-0.0002372609
0.00019108699
-0.00083063274
-0.00034598577
-0.00083264328
-0.0003747417
0.00018129057
9.0227725e-06
-1.3725467e-05
1.2403025e-05
4.1189112e-05
-6.2096201e-05
4.5619786e-05
0.00010098869
-0.00015438478
8.4915604e-05
0.00017291059
-0.00030034704
9.7361207e-05
0.00022822096
-0.00048519804
4.3574166e-05
0.0002446523
-0.00066964592
-8.8977927e-05
0.00023492964
-0.00080947016
-0.0002495229
0.00021727559
-0.00087972354
-0.00036108502
-0.00087326216
-0.00038944352
0.00019882984
1.0552009e-05
-1.5676468e-05
1.3285659e-05
4.8656813e-05
-6.9610673e-05
4.8861564e-05
0.0001200259
-0.00016949447
9.0981524e-05
0.00020442917
-0.00032152586
0.00010440665
0.00026619603
-0.00050630492
4.7424754e-05
0.00028221546
-0.00068400157
-9.2030258e-05
0.00026874275
-0.00081498624
-0.00025877638
0.00024593419
-0.00087737605
-0.00037262891
-0.00086383253
-0.00040031771
0.00022048597
1.1587448e-05
-1.5862303e-05
1.4121898e-05
5.4094942e-05
-6.9325973e-05
5.2023655e-05
0.00013445689
-0.00016572194
9.7137809e-05
0.00023191627
-0.00030728603
0.00011200478
0.00029775724
-0.0004749595
5.2588605e-05
0.00031390449
-0.00063293343
-9.2672493e-05
0.00029891567
-0.00074803389
-0.00026486464
0.00027361005
-0.00080071055
-0.00038079501
-0.00078302299
-0.00040792776
0.00024347062
1.2007985e-05
-1.3435596e-05
1.4906866e-05
5.6862741e-05
-5.7897299e-05
5.5094972e-05
0.00014299318
-0.00013631394
0.00010340966
0.00025082058
-0.00024838466
0.00012034658
0.00031724183
-0.0003787545
5.8963448e-05
0.0003347426
-0.00049871925
-9.1165354e-05
0.000321081
-0.00058757528
-0.00026797407
0.00029620735
-0.00062721663
-0.00038575194
-0.00060996487
-0.00041252591
0.0002639282
1.167295e-05
-7.9427454e-06
1.5560636e-05
5.6128257e-05
-3.3799855e-05
5.771149e-05
0.00014311113
-7.8639548e-05
0.00010894805
0.00025404113
-0.00014149811
0.00012812908
0.00032285261
-0.00021345722
6.5320333e-05
0.00034210971
-0.00027819812
-8.8493415e-05
0.00033194401
-0.00032784942
-0.00026861897
0.00030961123
-0.00034965428
-0.00038776785
-0.0003387141
-0.00041437484
0.00027734332
1.0879341e-05
4.102925e-11
1.5964192e-05
5.3168668e-05
2.0140115e-10
5.9374835e-05
0.00013754966
4.401795e-10
0.00011235952
0.00024635715
9.1897261e-10
0.00013354029
0.00031941246
1.7189594e-09
6.9973572e-05
0.00033963689
2.6262429e-09
-8.6366473e-05
0.00033328493
3.1463013e-09
-0.00026850178
0.00031387079
2.9706766e-09
-0.00038849691
2.2039018e-09
-0.00041502996
0.00028288294
1.087942e-05
7.9428055e-06
1.5964188e-05
5.3168589e-05
3.3800151e-05
5.937482e-05
0.00013754963
7.8640283e-05
0.00011235949
0.00024635711
0.00014149994
0.00013354026
0.00031941247
0.00021346064
6.9973549e-05
0.00033963688
0.00027820315
-8.6366483e-05
0.00033328481
0.00032785527
-0.00026850179
0.0003138706
0.00034965985
-0.00038849692
0.00033871845
-0.00041502998
0.00028288261
1.1673008e-05
1.3435655e-05
1.5560632e-05
5.6128101e-05
5.7897509e-05
5.7711474e-05
0.00014311132
0.00013631458
0.00010894802
0.00025404087
0.00024838654
0.00012812903
0.00032285242
0.0003787578
6.5320279e-05
0.00034210951
0.00049872379
-8.8493475e-05
0.00033194365
0.00058758027
-0.00026861903
0.0003096108
0.00062722147
-0.00038776791
0.00060996901
-0.00041437493
0.00027734284
1.2007656e-05
1.5862362e-05
1.4906858e-05
5.6862287e-05
6.9326137e-05
5.5094941e-05
0.00014299338
0.0001657225
0.0001034096
0.00025081962
0.00030728759
0.00012034648
0.00031724109
0.00047496222
5.896336e-05
0.00033474197
0.00063293751
-9.1165419e-05
0.00032108053
0.00074803841
-0.00026797411
0.00029620696
0.00080071479
-0.000385752
0.00078302646
-0.00041252602
0.00026392846
1.1586743e-05
1.5676413e-05
1.4121889e-05
5.4094059e-05
6.9610591e-05
5.2023623e-05
0.00013445667
0.00016949469
9.7137749e-05
0.00023191489
0.00032152679
0.00011200468
0.00029775636
0.0005063073
5.2588508e-05
0.00031390347
0.00068400586
-9.2672575e-05
0.00029891515
0.00081499109
-0.00026486471
0.00027360969
0.00087737996
-0.00038079508
0.00086383458
-0.00040792788
0.00024347148
1.0551549e-05
1.3725404e-05
1.3285652e-05
4.8656348e-05
6.2096236e-05
4.8861539e-05
0.00012002574
0.00015438513
9.0981477e-05
0.00020442827
0.000300348
0.00010440657
0.00026619531
0.00048520063
4.7424653e-05
0.00028221405
0.00066965049
-9.2030361e-05
0.00026874202
0.00080947532
-0.00025877647
0.00024593352
0.00087972707
-0.00037262899
0.00087326263
-0.00040031779
0.00022048642
9.0227643e-06
1.0962981e-05
1.2403019e-05
4.1188926e-05
5.0615444e-05
4.5619765e-05
0.00010098828
0.00012875375
8.4915563e-05
0.00017290971
0.00025738626
9.7361125e-05
0.00022821999
0.00042959915
4.3574047e-05
0.00024465064
0.00061056331
-8.8978058e-05
0.00023492856
0.00075386747
-0.00024952301
0.0002172743
0.00083063603
-0.0003610851
0.00083264334
-0.00038944358
0.00019882929
7.3097486e-06
8.0523316e-06
1.1446259e-05
3.3058996e-05
3.8025532e-05
4.2173672e-05
8.0175748e-05
9.9263339e-05
7.8646187e-05
0.00014050148
0.00020501025
9.0475524e-05
0.00018827372
0.00035547905
4.0728026e-05
0.00020568766
0.00052438784
-8.3851606e-05
0.00020146262
0.00066642008
-0.00023726107
0.00019108576
0.00074814895
-0.00034598588
0.00075892918
-0.00037474176
0.00018129007
5.6501517e-06
5.3603245e-06
1.0372346e-05
2.5280049e-05
2.6034904e-05
3.8328702e-05
6.0800876e-05
7.0168484e-05
7.1730955e-05
0.00010883912
0.00015097155
8.3111869e-05
0.00014914819
0.0002747788
3.8194849e-05
0.00016779872
0.00042507216
-7.7019283e-05
0.00017033677
0.00056093792
-0.00022172632
0.00016891106
0.00064531206
-0.00032642757
0.00066428591
-0.00035495783
0.00016900289
4.2348381e-06
3.0013997e-06
9.1994606e-06
1.8666367e-05
1.5354513e-05
3.4137598e-05
4.4864369e-05
4.3641083e-05
6.423543e-05
8.1998505e-05
0.000100009
7.5307222e-05
0.00011574254
0.00019504702
3.60215e-05
0.00013568245
0.00032193294
-6.818839e-05
0.00014516698
0.00044716554
-0.00020209851
0.00015299851
0.00053190071
-0.00030099158
0.00055816216
-0.00032835651
0.00016281565
2.9496203e-06
1.1451905e-06
7.9366122e-06
1.2759229e-05
6.7395101e-06
2.9635907e-05
3.0819763e-05
2.1590976e-05
5.6241241e-05
5.8053888e-05
5.5989535e-05
6.7214765e-05
8.5644266e-05
0.00012258533
3.4571658e-05
0.00010675704
0.00022286701
-5.6482994e-05
0.00012313606
0.00033259595
-0.00017672816
0.00014025844
0.00041423948
-0.00026741702
0.00044655676
-0.00029262306
0.00015979622
1.9047426e-06
-2.0508837e-07
6.6266841e-06
8.0422149e-06
3.0410751e-07
2.4974276e-05
1.9829181e-05
4.6874396e-06
4.7933065e-05
3.8602972e-05
2.0891905e-05
5.9222211e-05
6.0364197e-05
6.1683623e-05
3.4435216e-05
8.1698616e-05
0.00013421733
-4.0845751e-05
0.00010368669
0.00022393455
-0.00014384898
0.00012862683
0.00029852985
-0.00022342791
0.00033552986
-0.00024556875
0.00015609882
1.1751388e-06
5.4139477e-06
-1.1614283e-06
4.7062982e-06
2.0723124e-05
-4.1710282e-06
1.1409198e-05
4.0788219e-05
-7.1670605e-06
2.2784938e-05
5.3248666e-05
-4.599489e-06
3.8154496e-05
3.7952884e-05
1.4554574e-05
5.7287642e-05
-1.8835954e-05
6.0223791e-05
8.2038146e-05
-0.00010102749
0.00012645292
0.00011197631
-0.00016681489
0.00019042965
-0.00018532652
0.00023273102
0.0001428334
9.1057609e-08
-1.0365462e-06
5.3660237e-06
9.934192e-07
9.2562973e-07
-4.2769478e-06
2.0010547e-05
4.1549879e-06
2.8143373e-06
-9.708442e-06
3.9018403e-05
9.5896252e-06
4.2896907e-06
-1.7010854e-05
5.1526359e-05
1.7257871e-05
3.7167072e-06
-2.4335284e-05
3.7046821e-05
2.5814316e-05
7.2344002e-07
-2.8492257e-05
-1.981139e-05
3.246095e-05
-2.5980657e-06
-2.7570287e-05
-0.00010469629
3.4560808e-05
-3.3637788e-06
-2.3256285e-05
-0.00017516305
3.2370123e-05
-1.9984575e-05
-0.00019692903
2.7794669e-05
4.28516e-07
9.7285171e-08
-1.1169968e-06
6.6098612e-06
1.0894257e-06
-4.517992e-06
2.4223202e-05
3.2731604e-06
-9.9942883e-06
4.603515e-05
4.4965182e-06
-1.6833957e-05
5.7821702e-05
2.750801e-06
-2.2649525e-05
3.4494814e-05
-2.0540173e-06
-2.4122569e-05
-4.0410473e-05
-7.2553214e-06
-2.0098709e-05
-0.00014611907
-9.3351169e-06
-1.3719446e-05
-0.00023088503
-1.0134078e-05
-0.00025758465
-7.1700586e-06
1.0684633e-07
-1.2282595e-06
7.941056e-06
1.2961952e-06
-4.8878454e-06
2.8816454e-05
4.169192e-06
-1.0563153e-05
5.3937066e-05
5.7221215e-06
-1.7103585e-05
6.5931325e-05
3.7287134e-06
-2.1434724e-05
3.535043e-05
-2.0521863e-06
-1.9989529e-05
-5.4835063e-05
-8.6927707e-06
-1.2619568e-05
-0.00017756652
-1.2436569e-05
-3.8191631e-06
-0.00027357327
9.8151839e-07
-0.00030418356
-1.1991672e-05
1.2289993e-07
-1.3621324e-06
9.2104296e-06
1.5540548e-06
-5.3728596e-06
3.3191423e-05
5.2099646e-06
-1.1435058e-05
6.1451188e-05
7.4604146e-06
-1.7911223e-05
7.3864083e-05
5.7539154e-06
-2.0877798e-05
3.7171336e-05
-3.9872424e-07
-1.6447531e-05
-6.5577666e-05
-8.0997535e-06
-5.5502424e-06
-0.00020146633
-1.3355831e-05
5.8996625e-06
-0.00030545424
1.2121438e-05
-0.0003386741
-1.4178212e-05
1.4263923e-07
-1.5042815e-06
1.0371843e-05
1.8382438e-06
-5.9312762e-06
3.719152e-05
6.4029114e-06
-1.2538393e-05
6.8269622e-05
9.5947352e-06
-1.9202297e-05
8.1211248e-05
8.5752893e-06
-2.1070205e-05
3.9406482e-05
2.4785305e-06
-1.3858345e-05
-7.3511221e-05
-6.0175744e-06
4.7017107e-07
-0.00021925039
-1.2623749e-05
1.448103e-05
-0.00032840265
2.2044448e-05
-0.00036292403
-1.45804e-05
1.859556e-07
-1.6500633e-06
1.1406067e-05
2.2109196e-06
-6.524409e-06
4.0741764e-05
7.8524001e-06
-1.3754534e-05
7.4220712e-05
1.2220356e-05
-2.0806329e-05
8.7711904e-05
1.2168494e-05
-2.1909904e-05
4.1619524e-05
6.2930182e-06
-1.2373244e-05
-7.9461119e-05
-2.9300337e-06
4.8081702e-06
-0.000232376
-1.0861256e-05
2.0865519e-05
-0.000344439
2.9428909e-05
-0.00037905955
-1.3927818e-05
2.4356563e-07
-1.7666797e-06
1.2276086e-05
2.6414037e-06
-7.0209731e-06
4.3718543e-05
9.3382688e-06
-1.4830122e-05
7.9294397e-05
1.5082456e-05
-2.232323e-05
9.3134073e-05
1.6201973e-05
-2.3034015e-05
4.3578958e-05
1.0669823e-05
-1.2011159e-05
-8.3807562e-05
7.403994e-07
6.9082298e-06
-0.00024169379
-8.5684686e-06
2.4103005e-05
-0.00035501374
3.3126426e-05
-0.00038890951
-1.2800077e-05
3.1714141e-07
-1.805273e-06
1.3007191e-05
3.1397242e-06
-7.2173102e-06
4.6235285e-05
1.0976156e-05
-1.5316704e-05
8.3631611e-05
1.8219801e-05
-2.3048518e-05
9.7888405e-05
2.0598537e-05
-2.3691767e-05
4.5703658e-05
1.5360581e-05
-1.2336336e-05
-8.6466949e-05
4.5811398e-06
6.7167606e-06
-0.00024780578
-6.1816312e-06
2.3700228e-05
-0.00036146345
3.249882e-05
-0.0003942596
-1.1612154e-05
4.060244e-07
-1.7011286e-06
1.3611924e-05
3.70548e-06
-6.8380116e-06
4.8345024e-05
1.277434e-05
-1.4595687e-05
8.7347944e-05
2.1615725e-05
-2.2029833e-05
0.00010214516
2.5137958e-05
-2.2748758e-05
4.8123233e-05
2.0024919e-05
-1.2342225e-05
-8.7553617e-05
8.2655924e-06
4.8906884e-06
-0.00025127945
-3.9366233e-06
1.9969031e-05
-0.0003648615
2.7695582e-05
-0.00039653304
-1.0527989e-05
4.9647114e-07
-1.3758803e-06
1.4085256e-05
4.2830117e-06
-5.5491134e-06
5.0019619e-05
1.4636084e-05
-1.1902765e-05
9.0363657e-05
2.5245404e-05
-1.8034905e-05
0.00010574288
2.9673387e-05
-1.876022e-05
5.0547058e-05
2.4371205e-05
-1.0659582e-05
-8.7545766e-05
1.1538918e-05
2.5915623e-06
-0.0002528426
-1.9804762e-06
1.3932888e-05
-0.00036619614
1.9722854e-05
-0.00039692156
-9.6119203e-06
5.7129012e-07
-7.8690919e-07
1.4400405e-05
4.7748523e-06
-3.1732301e-06
5.1132214e-05
1.6255143e-05
-6.8107676e-06
9.2375897e-05
2.8548608e-05
-1.0372402e-05
0.00010817353
3.3647179e-05
-1.0843416e-05
5.2305254e-05
2.7960883e-05
-6.2796012e-06
-8.7186788e-05
1.4220906e-05
9.9530898e-07
-0.00025328241
-3.7181715e-07
7.0744189e-06
-0.00036631635
1.0192116e-05
-0.00039635406
-8.8617578e-06
6.0474447e-07
-1.7421123e-11
1.457258e-05
5.0447698e-06
-3.6818757e-11
5.1761864e-05
1.7031179e-05
-5.1421482e-11
9.356271e-05
3.0508435e-05
2.4232907e-11
0.00010969099
3.6078105e-05
2.7190067e-10
5.3560644e-05
3.0073269e-05
6.1461476e-10
-8.6641318e-05
1.5762524e-05
8.2313637e-10
-0.0002531961
4.6988463e-07
6.6444904e-10
-0.00036613028
2.4031028e-10
-0.00039586907
-8.4991392e-06
6.0476001e-07
7.8686743e-07
1.4572578e-05
5.0447519e-06
3.1731311e-06
5.1761855e-05
1.7031192e-05
6.8106367e-06
9.3562693e-05
3.0508426e-05
1.0372486e-05
0.00010969097
3.6078117e-05
1.0844035e-05
5.3560627e-05
3.0073257e-05
6.280884e-06
-8.6641323e-05
1.57624e-05
-9.9364246e-07
-0.00025319609
4.6969334e-07
-7.0731097e-06
-0.00036613027
-1.0191626e-05
-0.00039586907
-8.4993787e-06
5.7128566e-07
1.3758403e-06
1.4400403e-05
4.7747966e-06
5.5490138e-06
5.1132207e-05
1.6255182e-05
1.1902661e-05
9.2375883e-05
2.8548463e-05
1.8035097e-05
0.00010817351
3.3647038e-05
1.8760984e-05
5.2305221e-05
2.796063e-05
1.0661035e-05
-8.7186824e-05
1.4220447e-05
-2.589837e-06
-0.00025328244
-3.7240608e-07
-1.3931597e-05
-0.00036631638
-1.9722407e-05
-0.00039635408
-8.8623217e-06
4.9637767e-07
1.7010849e-06
1.4085251e-05
4.2829116e-06
6.8379087e-06
5.0019599e-05
1.4636163e-05
1.45956e-05
9.0363619e-05
2.5245111e-05
2.2030041e-05
0.00010574283
2.9673081e-05
2.2749635e-05
5.0547002e-05
2.4370704e-05
1.2343995e-05
-8.7545804e-05
1.1538205e-05
-4.8886392e-06
-0.00025284262
-1.9813242e-06
-1.9967593e-05
-0.00036619616
-2.7695267e-05
-0.00039692159
-9.6125361e-06
4.0586049e-07
1.8051976e-06
1.361192e-05
3.7052894e-06
7.2171418e-06
4.8345007e-05
1.2774302e-05
1.5316542e-05
8.734791e-05
2.1615331e-05
2.304867e-05
0.00010214511
2.5137554e-05
2.3692863e-05
4.8123173e-05
2.0024134e-05
1.2338653e-05
-8.7553668e-05
8.2646552e-06
-6.7141063e-06
-0.00025127949
-3.9376585e-06
-2.3698533e-05
-0.00036486153
-3.2498812e-05
-0.00039653307
-1.052864e-05
3.1705292e-07
1.7666059e-06
1.3007188e-05
3.139642e-06
7.0208354e-06
4.6235274e-05
1.0976128e-05
1.4830024e-05
8.3631587e-05
1.8219535e-05
2.2323544e-05
9.788836e-05
2.0598098e-05
2.3035493e-05
4.5703594e-05
1.5359535e-05
1.2014028e-05
-8.646702e-05
4.5799892e-06
-6.9050183e-06
-0.00024780584
-6.1828552e-06
-2.4101154e-05
-0.00036146349
-3.3126811e-05
-0.00039425962
-1.1613009e-05
2.4354729e-07
1.6499946e-06
1.2276084e-05
2.6413431e-06
6.5242927e-06
4.3718536e-05
9.338182e-06
1.3754469e-05
7.9294379e-05
1.5082187e-05
2.0806756e-05
9.3134033e-05
1.6201407e-05
2.191157e-05
4.3578886e-05
1.0668646e-05
1.2376451e-05
-8.3807661e-05
7.3907024e-07
-4.8046204e-06
-0.00024169389
-8.5698438e-06
-2.086362e-05
-0.00035501379
-2.9429559e-05
-0.00038890951
-1.2801014e-05
1.8596133e-07
1.5042418e-06
1.1406068e-05
2.2109515e-06
5.931253e-06
4.0741764e-05
7.8524894e-06
1.253848e-05
7.4220706e-05
1.2220023e-05
1.9202879e-05
8.771187e-05
1.2167924e-05
2.1072143e-05
4.1619438e-05
6.2919178e-06
1.3861937e-05
-7.9461261e-05
-2.9314326e-06
-4.6634504e-07
-0.00023237615
-1.0862577e-05
-1.4479142e-05
-0.00034443908
-2.2045449e-05
-0.00037905955
-1.392837e-05
1.4267575e-07
1.3620945e-06
1.0371841e-05
1.8383077e-06
5.372849e-06
3.7191508e-05
6.4029296e-06
1.1435218e-05
6.8269591e-05
9.594442e-06
1.7911949e-05
8.121118e-05
8.5748869e-06
2.0879996e-05
3.9406361e-05
2.4775696e-06
1.645121e-05
-7.3511389e-05
-6.0188285e-06
5.5542668e-06
-0.00021925054
-1.2624719e-05
-5.8978089e-06
-0.00032840271
-1.2123202e-05
-0.00036292402
-1.4580292e-05
1.2289136e-07
1.2282378e-06
9.2104253e-06
1.5539766e-06
4.8878981e-06
3.3191404e-05
5.2098462e-06
1.0563464e-05
6.1451143e-05
7.4602621e-06
1.7104527e-05
7.3863995e-05
5.7534101e-06
2.1436943e-05
3.7171193e-05
-3.9934145e-07
1.9993257e-05
-6.5577848e-05
-8.1005705e-06
1.2623523e-05
-0.00020146648
-1.3356522e-05
3.8211072e-06
-0.00030545431
-9.8401552e-07
-0.0003386741
-1.4178098e-05
1.067858e-07
1.116994e-06
7.9410507e-06
1.2959612e-06
4.5181071e-06
2.8816433e-05
4.1688058e-06
9.9947134e-06
5.3937017e-05
5.721712e-06
1.6835062e-05
6.5931236e-05
3.7280516e-06
2.2651854e-05
3.5350291e-05
-2.0529398e-06
2.412628e-05
-5.4835232e-05
-8.6934438e-06
2.0102563e-05
-0.00017756666
-1.2437166e-05
1.3721231e-05
-0.00027357334
1.0131283e-05
-0.00030418357
-1.1992006e-05
9.7213102e-08
1.0365759e-06
6.6098587e-06
1.0891554e-06
4.2771601e-06
2.4223192e-05
3.2726764e-06
9.7090641e-06
4.6035124e-05
4.4959488e-06
1.7012267e-05
5.782165e-05
2.7499276e-06
2.43381e-05
3.4494723e-05
-2.0551967e-06
2.8496087e-05
-4.04106e-05
-7.2564166e-06
2.7574272e-05
-0.00014611919
-9.3361577e-06
2.3257868e-05
-0.00023088513
1.9982014e-05
-0.00025758469
-7.1715031e-06
9.102554e-08
5.3660236e-06
9.9345935e-07
9.2552278e-07
2.0010547e-05
4.155209e-06
2.8141563e-06
3.9018401e-05
9.5902318e-06
4.2892929e-06
5.1526351e-05
1.7259239e-05
3.7162045e-06
3.7046801e-05
2.581704e-05
7.2280002e-07
-1.9811424e-05
3.2465386e-05
-2.5993544e-06
-0.00010469633
3.4565374e-05
-3.3659556e-06
-0.00017516309
3.2372713e-05
-0.00019692905
2.7792901e-05
4.2586678e-07
-3.7275078e-08
-2.9456722e-07
5.5656587e-06
1.3220742e-07
-4.2460919e-07
-1.368178e-06
2.110728e-05
6.587672e-07
-1.3233281e-06
-3.5938284e-06
4.1673575e-05
1.837329e-06
-2.2211432e-06
-7.6343722e-06
5.5908419e-05
4.150027e-06
-2.273889e-06
-1.3997531e-05
4.3003213e-05
8.0937206e-06
-8.0468172e-07
-2.2492198e-05
-1.2549734e-05
1.3761144e-05
2.2829475e-06
-3.1799951e-05
-9.6387128e-05
2.0403016e-05
6.4389385e-06
-3.9551885e-05
-0.00016627125
2.6503954e-05
-4.3153394e-05
-0.000188468
3.0582371e-05
1.0548825e-05
-4.4695209e-08
-4.5437279e-07
6.814355e-06
-5.0916687e-07
-2.0860819e-06
2.5405543e-05
-1.5668574e-06
-5.3864505e-06
4.8885366e-05
-2.535766e-06
-1.1159191e-05
6.2315235e-05
-2.4647707e-06
-1.9836528e-05
4.0262538e-05
-7.3326141e-07
-3.0869152e-05
-3.3765284e-05
2.549287e-06
-4.2403518e-05
-0.00013879828
6.6874742e-06
-5.1459526e-05
-0.00022311577