/*--------------------------------*- C++ -*----------------------------------*\
| =========                 |                                                 |
| \\      /  F ield         | OpenFOAM: The Open Source CFD Toolbox           |
|  \\    /   O peration     | Version:  2406                                  |
|   \\  /    A nd           | Website:  www.openfoam.com                      |
|    \\/     M anipulation  |                                                 |
\*---------------------------------------------------------------------------*/
FoamFile
{
    version     2.0;
    format      ascii;
    arch        "LSB;label=32;scalar=64";
    class       volVectorField;
    location    "8.75";
    object      U;
}
// * * * * * * * * * * * * * * * * * * * * * * * * * * * * * * * * * * * * * //

dimensions      [0 1 -1 0 0 0 0];

internalField   nonuniform List<vector> 
34560
(
(0.010678893 -0.0011656931 0.0037252538)
(0.015007403 -0.0017571638 0.016473471)
(-0.015164412 -0.00026628837 0.040296858)
(-0.10666509 0.0030404482 0.07856517)
(-0.27594255 0.0068181882 0.12715557)
(-0.50297398 0.0081824269 0.1735929)
(-0.73683993 0.0084772857 0.20488707)
(-0.93139116 0.012762335 0.21629873)
(-1.0641263 0.021818034 0.21195054)
(0.013212908 -0.00027795221 0.0053426805)
(0.017972206 0.0019994638 0.022231777)
(-0.020783284 0.0079280726 0.052056937)
(-0.13416223 0.016503243 0.097359629)
(-0.33376314 0.024229777 0.15063541)
(-0.58444495 0.027042243 0.19631897)
(-0.82412204 0.027672879 0.22214458)
(-1.0087013 0.032902262 0.22667454)
(-1.1274314 0.043559192 0.2159877)
(0.017699446 -0.00044113686 0.0059693201)
(0.027211815 0.0027794684 0.024993533)
(-0.015366054 0.011505855 0.058687283)
(-0.14622125 0.024644961 0.10908803)
(-0.3717442 0.036444017 0.16579066)
(-0.64053281 0.041358932 0.21078688)
(-0.88143232 0.04343239 0.2330285)
(-1.0557644 0.050645519 0.23378417)
(-1.1629393 0.06387164 0.22067223)
(0.023996665 -0.00057312002 0.0066123173)
(0.042585573 0.0033152345 0.027422591)
(0.0014154569 0.014123676 0.064130372)
(-0.14154404 0.030735724 0.11793145)
(-0.38752943 0.046088595 0.17654585)
(-0.67012404 0.053301948 0.22043866)
(-0.91077079 0.057413307 0.24052717)
(-1.0764079 0.066804459 0.23997067)
(-1.1739868 0.082320708 0.22659515)
(0.032498204 -0.0013204472 0.006848859)
(0.065519243 0.001955158 0.028431526)
(0.032312829 0.013615912 0.066797475)
(-0.11685191 0.032992748 0.12281155)
(-0.37877504 0.051333869 0.18221407)
(-0.67243004 0.061507461 0.22611748)
(-0.91342624 0.068682812 0.24640886)
(-1.0724736 0.081364255 0.24720971)
(-1.1604668 0.099343731 0.2356741)
(0.043600594 -0.002868992 0.0067551277)
(0.097423068 -0.0019527161 0.028306263)
(0.080070299 0.0087124798 0.067310194)
(-0.0685925 0.029791031 0.12484112)
(-0.34347268 0.051929088 0.18598937)
(-0.64742936 0.066379679 0.231589)
(-0.88768568 0.077787591 0.25435407)
(-1.0386936 0.093567318 0.25823421)
(-1.1169694 0.1129528 0.24956673)
(0.057886055 -0.0051801619 0.0065250867)
(0.14040711 -0.0083080389 0.027925117)
(0.1489134 -0.00063680515 0.067329767)
(0.0098969887 0.020691564 0.12670257)
(-0.27288178 0.046397529 0.1906756)
(-0.58515371 0.066114347 0.24017899)
(-0.82403875 0.082653068 0.26774066)
(-0.96695912 0.10177507 0.27630934)
(-1.0354848 0.1223436 0.27133108)
(0.075939436 -0.0081468276 0.0064183372)
(0.19678996 -0.016891437 0.027909811)
(0.24322274 -0.0139438 0.068579446)
(0.12563992 0.0061985254 0.13180221)
(-0.15886625 0.035133496 0.20167975)
(-0.47660806 0.060682309 0.25798011)
(-0.71241533 0.082598029 0.29247581)
(-0.84608466 0.10460292 0.30661486)
(-0.9042198 0.12561104 0.30508254)
(0.097662324 -0.011106163 0.0067447463)
(0.26637569 -0.025825425 0.029481528)
(0.36251776 -0.028379094 0.073870678)
(0.2798986 -0.010999715 0.14461842)
(0.0019972277 0.01990643 0.22528889)
(-0.31542448 0.050271838 0.29149713)
(-0.54358378 0.076322965 0.33448982)
(-0.66504849 0.099695545 0.35407381)
(-0.71171209 0.11990715 0.35460312)
(0.12123086 -0.012594446 0.0078110456)
(0.34319326 -0.030865812 0.033378482)
(0.49627127 -0.03729091 0.08627589)
(0.45912729 -0.023960834 0.16835939)
(0.19899157 0.0054422586 0.264723)
(-0.10820076 0.03638793 0.34331554)
(-0.3209785 0.062890111 0.39526797)
(-0.42609449 0.084769487 0.41902073)
(-0.46061582 0.10202738 0.41961911)
(0.1424706 -0.010465306 0.0094367801)
(0.4129085 -0.026174138 0.039464364)
(0.62045545 -0.032936204 0.10237798)
(0.62891268 -0.024520701 0.19822741)
(0.39500782 -0.0026737832 0.31206107)
(0.10785948 0.021346326 0.40420236)
(-0.082875618 0.04197803 0.4639351)
(-0.16928119 0.058218621 0.4897251)
(-0.19344783 0.069566628 0.48902498)
(0.15538023 -0.0040772344 0.01069108)
(0.45570889 -0.010261606 0.044181809)
(0.69767097 -0.013091362 0.11427792)
(0.73585672 -0.010174383 0.21996441)
(0.52257976 -0.0020143968 0.34605698)
(0.25336705 0.0072235658 0.44793472)
(0.079901359 0.015149692 0.51219801)
(0.0062647387 0.021081664 0.5383872)
(-0.0119083 0.025223618 0.53592429)
(0.15538017 0.0040770075 0.010691093)
(0.4557087 0.010260891 0.044181812)
(0.69767066 0.01309001 0.11427797)
(0.73585629 0.010172573 0.21996445)
(0.52257927 0.0020124236 0.34605703)
(0.25336659 -0.0072253155 0.44793477)
(0.079900999 -0.015151124 0.51219809)
(0.0062644743 -0.021082914 0.53838734)
(-0.011908548 -0.025224885 0.53592451)
(0.14247048 0.010465116 0.009436796)
(0.41290807 0.026173475 0.039464442)
(0.62045467 0.032934952 0.10237808)
(0.6289115 0.024519045 0.19822753)
(0.39500649 0.0026719733 0.31206128)
(0.10785826 -0.021347945 0.40420256)
(-0.08287654 -0.041979404 0.46393537)
(-0.16928185 -0.058219838 0.48972549)
(-0.19344848 -0.069567859 0.48902555)
(0.1212307 0.012594273 0.0078110685)
(0.34319271 0.030865218 0.033378777)
(0.49627024 0.037289783 0.08627615)
(0.45912569 0.023959336 0.16835975)
(0.1989898 -0.0054438443 0.26472349)
(-0.10820235 -0.036389306 0.34331597)
(-0.32097971 -0.062891339 0.39526844)
(-0.42609537 -0.084770637 0.41902128)
(-0.46061674 -0.10202855 0.41961982)
(0.097662157 0.011105969 0.0067447856)
(0.26637514 0.025824887 0.029481923)
(0.36251673 0.02837813 0.073871188)
(0.27989702 0.010998407 0.14461909)
(0.001995476 -0.019907686 0.22528958)
(-0.31542606 -0.050272854 0.29149772)
(-0.54358501 -0.076323924 0.33449047)
(-0.66504938 -0.099696571 0.35407446)
(-0.71171306 -0.1199083 0.35460387)
(0.075939295 0.0081466362 0.00641838)
(0.19678949 0.01689098 0.027910105)
(0.24322185 0.013943054 0.068579984)
(0.12563854 -0.0061994972 0.13180291)
(-0.1588678 -0.035134324 0.20168039)
(-0.4766094 -0.060682958 0.25798077)
(-0.71241641 -0.082598683 0.29247659)
(-0.84608541 -0.1046038 0.30661562)
(-0.90422061 -0.12561223 0.30508342)
(0.057885939 0.0051800005 0.0065251242)
(0.14040672 0.0083076109 0.02792525)
(0.14891267 0.00063617344 0.067330183)
(0.0098958802 -0.02069222 0.12670314)
(-0.27288301 -0.046398105 0.19067621)
(-0.58515475 -0.0661148 0.24017973)
(-0.82403962 -0.082653502 0.26774149)
(-0.96695969 -0.10177577 0.27631018)
(-1.0354854 -0.12234483 0.27133218)
(0.043600503 0.0028689035 0.0067552375)
(0.097422769 0.001952375 0.028306413)
(0.080069734 -0.0087130231 0.067310439)
(-0.068593356 -0.029791568 0.12484156)
(-0.34347369 -0.051929586 0.18599002)
(-0.64743022 -0.066379997 0.23158959)
(-0.88768635 -0.07778788 0.2543547)
(-1.038694 -0.093567884 0.25823501)
(-1.1169699 -0.11295399 0.24956782)
(0.032498126 0.0013203942 0.006848886)
(0.065518987 -0.0019553697 0.028431504)
(0.032312356 -0.013616281 0.066797497)
(-0.11685263 -0.03299321 0.12281179)
(-0.3787759 -0.051334207 0.18221431)
(-0.67243074 -0.061507756 0.22611767)
(-0.91342679 -0.068682972 0.24640925)
(-1.0724739 -0.081364849 0.24721042)
(-1.1604671 -0.09934481 0.23567484)
(0.0239966 0.00057309731 0.0066123115)
(0.042585364 -0.0033152929 0.027422606)
(0.0014150788 -0.014123873 0.064130438)
(-0.14154459 -0.030736112 0.11793156)
(-0.38753003 -0.04608887 0.17654596)
(-0.6701246 -0.053302255 0.22043874)
(-0.91077122 -0.057413576 0.24052737)
(-1.0764084 -0.066805221 0.23997124)
(-1.1739873 -0.082321644 0.2265957)
(0.017699388 0.00044109949 0.0059693421)
(0.027211634 -0.0027795363 0.024993663)
(-0.015366374 -0.011506003 0.05868753)
(-0.14622171 -0.024645277 0.10908823)
(-0.3717448 -0.036444454 0.16579068)
(-0.64053341 -0.041359344 0.21078668)
(-0.88143292 -0.04343295 0.23302867)
(-1.0557649 -0.050646043 0.23378405)
(-1.1629397 -0.063872894 0.22067241)
(0.013212853 0.00027789596 0.00534271)
(0.017972038 -0.001999551 0.022231922)
(-0.020783582 -0.0079281934 0.05205714)
(-0.13416267 -0.016503422 0.09735968)
(-0.33376372 -0.024230048 0.15063525)
(-0.58444553 -0.027042709 0.19631883)
(-0.82412263 -0.027673681 0.2221443)
(-1.008702 -0.032903169 0.22667458)
(-1.127432 -0.043560753 0.21598888)
(0.010678846 0.001165674 0.0037252623)
(0.015007259 0.0017571212 0.016473484)
(-0.015164667 0.00026623969 0.040296856)
(-0.10666546 -0.0030404679 0.078565107)
(-0.27594301 -0.0068180972 0.1271556)
(-0.50297458 -0.0081824617 0.17359279)
(-0.73684061 -0.0084775989 0.20488679)
(-0.93139176 -0.012763422 0.21629938)
(-1.0641272 -0.021819064 0.21195128)
(0.044652032 0.00059271781 0.00041700651)
(0.12676884 0.0014407679 0.00077914108)
(0.19822069 0.0017552437 -8.5651532e-05)
(0.23329376 0.00031504396 -0.0031343187)
(0.20491809 -0.0043519184 -0.009164833)
(0.10255773 -0.013121725 -0.017402887)
(-0.051736406 -0.024972023 -0.025486156)
(-0.21180567 -0.037487357 -0.031363205)
(-0.33402464 -0.049708807 -0.034247173)
(0.050491414 -0.00018500644 -0.00033546498)
(0.1410243 -0.0011589012 -0.0017134382)
(0.2157322 -0.0031519592 -0.0049341006)
(0.24538226 -0.007384946 -0.010806163)
(0.20249107 -0.015160784 -0.019570901)
(0.081711594 -0.026906902 -0.029423802)
(-0.086239469 -0.040863434 -0.037417053)
(-0.25004706 -0.054248999 -0.041936771)
(-0.37056342 -0.065831263 -0.043741465)
(0.056644053 -0.0011342272 -0.0010627686)
(0.15653013 -0.0043088264 -0.0041826945)
(0.23604827 -0.0090155465 -0.0098060751)
(0.2627096 -0.016249865 -0.018438877)
(0.20888109 -0.026837793 -0.029538292)
(0.074311206 -0.040562367 -0.040206688)
(-0.10271833 -0.055227776 -0.047334149)
(-0.267943 -0.068373521 -0.050381283)
(-0.38655006 -0.079305975 -0.050783947)
(0.062378236 -0.0024338236 -0.001842088)
(0.17102383 -0.0084761743 -0.0068061568)
(0.25524017 -0.016493933 -0.014979234)
(0.27973372 -0.027009275 -0.026455404)
(0.21701747 -0.0401578 -0.039710421)
(0.071608221 -0.055074477 -0.050771899)
(-0.11176764 -0.06954119 -0.056680842)
(-0.27714442 -0.081918185 -0.058129383)
(-0.39397036 -0.092261978 -0.057232628)
(0.067556429 -0.0039732822 -0.0025525326)
(0.18414117 -0.013346233 -0.0092194073)
(0.27268271 -0.025078365 -0.019810509)
(0.2954925 -0.039008268 -0.034027655)
(0.22509678 -0.054384558 -0.049224796)
(0.070404034 -0.069802685 -0.060466817)
(-0.11813544 -0.083460341 -0.065131813)
(-0.28334282 -0.0947509 -0.065126227)
(-0.3984599 -0.10429105 -0.063087248)
(0.072237173 -0.005711153 -0.0030976863)
(0.19601157 -0.01873872 -0.011117098)
(0.28849083 -0.034342244 -0.023802604)
(0.30993927 -0.051526272 -0.040502938)
(0.23254232 -0.068579777 -0.057327956)
(0.069178251 -0.083778939 -0.068597449)
(-0.12443338 -0.096123161 -0.072134307)
(-0.28984794 -0.10604756 -0.070977425)
(-0.40343975 -0.11453746 -0.068090879)
(0.076464564 -0.0075358429 -0.0034453031)
(0.20682354 -0.024231593 -0.012368073)
(0.3030373 -0.043467161 -0.026652084)
(0.32348044 -0.063377007 -0.045322238)
(0.2395514 -0.081246656 -0.063285539)
(0.067584802 -0.095508906 -0.074466866)
(-0.13160287 -0.10619122 -0.077139053)
(-0.29801657 -0.11456832 -0.075242026)
(-0.41045206 -0.12175918 -0.07185881)
(0.08049237 -0.0091223494 -0.003474785)
(0.2174255 -0.028815949 -0.012577666)
(0.31774211 -0.050720807 -0.02759455)
(0.33757679 -0.072112142 -0.047450939)
(0.24764111 -0.089583578 -0.066205996)
(0.06672789 -0.10234981 -0.077209948)
(-0.13895635 -0.11132518 -0.07942209)
(-0.3073913 -0.11814083 -0.077307667)
(-0.41909508 -0.1238758 -0.073841396)
(0.084510708 -0.0099520669 -0.0031072775)
(0.2284444 -0.030945224 -0.011495399)
(0.33374595 -0.053531751 -0.026161268)
(0.35330815 -0.074359777 -0.046188721)
(0.25787009 -0.090424037 -0.065683964)
(0.068079567 -0.10137174 -0.076326113)
(-0.14475215 -0.10861009 -0.078430941)
(-0.31607377 -0.11394351 -0.076649185)
(-0.4276707 -0.11815828 -0.073537728)
(0.088559692 -0.0093967606 -0.0023716024)
(0.24007397 -0.028843355 -0.0092335917)
(0.35167898 -0.0491791 -0.022557205)
(0.37226448 -0.067043799 -0.041798508)
(0.27105485 -0.080236781 -0.061483982)
(0.072318328 -0.088669751 -0.071634484)
(-0.14773564 -0.094237108 -0.074040063)
(-0.32224282 -0.098105082 -0.073114444)
(-0.4340549 -0.10079216 -0.070749476)
(0.092211219 -0.0069965399 -0.0014914112)
(0.25086074 -0.021213478 -0.0064652853)
(0.36904614 -0.035720988 -0.017833629)
(0.39165279 -0.047966151 -0.035449458)
(0.28503726 -0.0565457 -0.054496434)
(0.078783566 -0.061751243 -0.065039468)
(-0.14724636 -0.065351263 -0.067765398)
(-0.32444496 -0.067731282 -0.067887737)
(-0.43657548 -0.069125066 -0.066423602)
(0.094524763 -0.0026296668 -0.00088234077)
(0.2579489 -0.007908695 -0.004514149)
(0.38096342 -0.013200706 -0.014301582)
(0.40577956 -0.017553336 -0.030361053)
(0.29597545 -0.020495689 -0.048666057)
(0.084600487 -0.022243193 -0.060132394)
(-0.14512326 -0.023514001 -0.06297515)
(-0.32401046 -0.024315376 -0.06382175)
(-0.43640832 -0.024723058 -0.062995398)
(0.094524757 0.0026297131 -0.00088234069)
(0.25794888 0.0079088574 -0.0045141601)
(0.38096339 0.01320097 -0.014301579)
(0.40577953 0.017553767 -0.030361066)
(0.29597544 0.020496326 -0.048666073)
(0.084600474 0.022244005 -0.06013241)
(-0.14512328 0.023514873 -0.062975151)
(-0.32401049 0.024316188 -0.063821731)
(-0.43640838 0.024723711 -0.062995341)
(0.092211207 0.0069965865 -0.0014914154)
(0.25086069 0.021213625 -0.0064652924)
(0.36904608 0.035721239 -0.017833641)
(0.39165272 0.047966593 -0.035449488)
(0.28503722 0.056546337 -0.054496433)
(0.078783528 0.061752018 -0.065039473)
(-0.1472464 0.065352061 -0.067765387)
(-0.32444504 0.06773203 -0.067887694)
(-0.43657564 0.0691257 -0.066423485)
(0.088559676 0.0093968036 -0.0023716113)
(0.24007392 0.028843495 -0.0092335246)
(0.35167891 0.049179324 -0.02255719)
(0.37226437 0.067044187 -0.041798465)
(0.27105478 0.080237357 -0.061483857)
(0.072318274 0.088670473 -0.07163442)
(-0.14773571 0.094237828 -0.074040028)
(-0.32224293 0.098105743 -0.073114415)
(-0.43405512 0.10079273 -0.070749401)
(0.084510683 0.0099520732 -0.0031072827)
(0.22844433 0.030945323 -0.011495242)
(0.33374587 0.053531922 -0.026161139)
(0.35330803 0.07436007 -0.046188531)
(0.25787 0.090424566 -0.065683758)
(0.068079493 0.10137246 -0.076326024)
(-0.14475222 0.10861081 -0.078430904)
(-0.31607388 0.11394411 -0.076649193)
(-0.42767091 0.11815872 -0.073537704)
(0.080492347 0.0091223216 -0.0034747925)
(0.21742544 0.028816008 -0.012577541)
(0.31774205 0.050720955 -0.027594409)
(0.33757669 0.072112427 -0.047450755)
(0.247641 0.089584146 -0.066205876)
(0.06672779 0.10235059 -0.077209888)
(-0.13895642 0.11132597 -0.079422054)
(-0.30739137 0.11814141 -0.077307683)
(-0.41909522 0.12387608 -0.073841318)
(0.07646454 0.0075358 -0.0034453021)
(0.20682347 0.024231593 -0.012368007)
(0.30303722 0.043467264 -0.026651968)
(0.3234803 0.06337732 -0.045322122)
(0.23955125 0.081247239 -0.063285487)
(0.067584687 0.095509704 -0.074466821)
(-0.13160294 0.10619207 -0.077139026)
(-0.29801663 0.11456891 -0.07524202)
(-0.41045215 0.12175934 -0.071858648)
(0.072237149 0.0057111247 -0.0030976614)
(0.19601151 0.018738703 -0.011117066)
(0.28849073 0.034342305 -0.023802621)
(0.30993911 0.05152655 -0.040502949)
(0.23254218 0.068580329 -0.057327967)
(0.069178115 0.083779738 -0.068597514)
(-0.12443348 0.096124024 -0.072134369)
(-0.28984802 0.10604815 -0.070977432)
(-0.40343985 0.11453757 -0.068090792)
(0.067556399 0.0039732675 -0.0025525213)
(0.18414108 0.013346237 -0.0092194358)
(0.27268258 0.025078438 -0.019810595)
(0.29549234 0.039008507 -0.034027722)
(0.22509659 0.054385106 -0.049224966)
(0.070403808 0.069803436 -0.060467038)
(-0.11813565 0.083461196 -0.065131982)
(-0.28334299 0.094751396 -0.065126284)
(-0.39846003 0.10429109 -0.06308738)
(0.062378197 0.002433821 -0.0018421009)
(0.17102372 0.0084762416 -0.0068061901)
(0.25523999 0.016494067 -0.014979313)
(0.27973347 0.027009504 -0.026455569)
(0.21701713 0.040158299 -0.039710689)
(0.071607876 0.055075159 -0.050772219)
(-0.11176797 0.069541894 -0.0566811)
(-0.2771447 0.081918563 -0.058129583)
(-0.39397058 0.092262018 -0.057233)
(0.056644003 0.0011342271 -0.0010627726)
(0.15652998 0.0043089172 -0.0041826709)
(0.23604802 0.0090157293 -0.0098060569)
(0.26270928 0.016250147 -0.018438966)
(0.2088807 0.026838206 -0.029538569)
(0.074310751 0.04056295 -0.040207122)
(-0.10271879 0.055228293 -0.047334567)
(-0.26794336 0.068373925 -0.050382023)
(-0.38655035 0.079305814 -0.050784678)
(0.050491363 0.00018500786 -0.00033546857)
(0.14102415 0.0011589925 -0.001713426)
(0.21573195 0.0031521646 -0.0049341185)
(0.24538192 0.0073852883 -0.010806352)
(0.20249065 0.015161221 -0.019571353)
(0.081711086 0.026907309 -0.029424406)
(-0.086239973 0.040863718 -0.037417991)
(-0.25004753 0.054248943 -0.041937683)
(-0.37056372 0.065830576 -0.043741695)
(0.044651986 -0.00059269297 0.0004169786)
(0.1267687 -0.0014406621 0.00077904473)
(0.19822046 -0.0017550313 -8.583712e-05)
(0.23329341 -0.00031470648 -0.0031346455)
(0.20491767 0.0043524225 -0.0091652545)
(0.10255732 0.013122179 -0.017403725)
(-0.051736802 0.024972314 -0.025487298)
(-0.21180601 0.037487101 -0.031364001)
(-0.33402491 0.049708363 -0.034247547)
(0.025211034 -0.00066408187 -0.00060685422)
(0.067071527 -0.0019661671 -0.0018197322)
(0.093775789 -0.0032779655 -0.0031083684)
(0.085138207 -0.0044632214 -0.0041976253)
(0.020846866 -0.0054739361 -0.0046314518)
(-0.10559304 -0.006268129 -0.0040492053)
(-0.27326326 -0.0067612859 -0.0025975867)
(-0.44076167 -0.0068563343 -0.0011311354)
(-0.56754844 -0.0067885408 -0.00053304595)
(0.028228572 -0.00069259312 -0.00055837867)
(0.073415463 -0.0019891315 -0.001660415)
(0.098878709 -0.0031863349 -0.0028172052)
(0.08201876 -0.0041088833 -0.0037116854)
(0.0026321296 -0.004711562 -0.0038181709)
(-0.14111854 -0.0049859713 -0.0028146405)
(-0.32058274 -0.0049477322 -0.0010253776)
(-0.48973908 -0.0046649939 0.00056884605)
(-0.61306336 -0.0044091429 0.00095677959)
(0.031588259 -0.00073967223 -0.00051633317)
(0.081194737 -0.0020767338 -0.0015358203)
(0.10727854 -0.0032109215 -0.0026315827)
(0.085154624 -0.0039045567 -0.0034652901)
(-0.0050768001 -0.0041046622 -0.0034176915)
(-0.16082681 -0.0038510563 -0.0021730182)
(-0.34695146 -0.0033071596 -0.00015815405)
(-0.51513146 -0.0026922531 0.0016089833)
(-0.63451383 -0.0022304807 0.0021546002)
(0.034713352 -0.00080756683 -0.00048784147)
(0.088580082 -0.0022345663 -0.0014618879)
(0.11571322 -0.0033685366 -0.0025528986)
(0.08979059 -0.0038860636 -0.0034081974)
(-0.0085456345 -0.0036879248 -0.0033111209)
(-0.17257829 -0.0028729936 -0.00193555)
(-0.3619056 -0.0017957681 0.00023837011)
(-0.52729846 -0.0008254597 0.0022079659)
(-0.64242612 -0.00013286255 0.002986948)
(0.037543678 -0.00088735083 -0.00046333664)
(0.095388179 -0.0024451757 -0.0014118281)
(0.12380489 -0.0036395722 -0.0025420126)
(0.095140315 -0.0040393855 -0.0034941243)
(-0.0093398438 -0.0034685775 -0.0034439249)
(-0.1791619 -0.0020890626 -0.0020347686)
(-0.369547 -0.00046469785 0.00024134415)
(-0.53104221 0.00086873547 0.002407941)
(-0.64154543 0.0017753527 0.0034572719)
(0.040062391 -0.00097655285 -0.00043083403)
(0.10152648 -0.0026993612 -0.0013489904)
(0.13131214 -0.0040043731 -0.0025368877)
(0.10066882 -0.0043473487 -0.0036507451)
(-0.0084978154 -0.0034546465 -0.0037471901)
(-0.18238955 -0.001546577 -0.0024103221)
(-0.37251805 0.00059330683 -0.00010095415)
(-0.52956209 0.0022524826 0.002239647)
(-0.63519932 0.0033295243 0.0035756493)
(0.042240321 -0.001061768 -0.00039188606)
(0.10691297 -0.0029528503 -0.0012711499)
(0.13811377 -0.0043929069 -0.0025151306)
(0.10616958 -0.0047326999 -0.0038240656)
(-0.0064490771 -0.0035925099 -0.0041547148)
(-0.18312265 -0.0012557333 -0.002995569)
(-0.37226857 0.0012828662 -0.00072637335)
(-0.52483838 0.0031845297 0.0017632629)
(-0.62570803 0.004357037 0.0033900035)
(0.044204454 -0.0011175707 -0.0003377699)
(0.11191786 -0.0031327799 -0.0011499795)
(0.14477924 -0.0046950768 -0.0024455124)
(0.11224571 -0.0050672781 -0.0039713594)
(-0.00279635 -0.0037927008 -0.0046092716)
(-0.18141912 -0.0012087294 -0.0037145258)
(-0.36945587 0.0015445737 -0.0015405315)
(-0.51804699 0.0035533544 0.001073455)
(-0.61463836 0.0047368874 0.0029775843)
(0.045994523 -0.0011089548 -0.0002654287)
(0.11663437 -0.0031333814 -0.0009755479)
(0.15140449 -0.0047375904 -0.0023048596)
(0.1189147 -0.0051449485 -0.0040557107)
(0.0022813524 -0.0038733061 -0.0050448528)
(-0.17772255 -0.001291583 -0.0044614781)
(-0.36479678 0.0014160686 -0.0024215065)
(-0.51017734 0.0033471268 0.00028499658)
(-0.60324009 0.0044346122 0.0024305504)
(0.047540392 -0.00098721978 -0.0001763256)
(0.12081441 -0.0028070291 -0.00074792072)
(0.15750409 -0.004277086 -0.0020826311)
(0.12543355 -0.0046762622 -0.0040641641)
(0.0078410738 -0.0035630113 -0.0054258966)
(-0.17306079 -0.001301634 -0.0051490745)
(-0.35936535 0.0010358984 -0.0032436017)
(-0.50236579 0.0026642831 -0.00047895568)
(-0.59277194 0.0035424061 0.0018633992)
(0.048680299 -0.00070509522 -8.7437231e-05)
(0.12391274 -0.0020102649 -0.00051299544)
(0.16209498 -0.0030773728 -0.0018297806)
(0.13049091 -0.0033840816 -0.0040134698)
(0.012426809 -0.0026071332 -0.0057128721)
(-0.16894095 -0.0010210232 -0.0056942027)
(-0.35460765 0.00058777346 -0.0038963075)
(-0.49602487 0.0016569805 -0.0011174131)
(-0.58464689 0.0022421189 0.0013833091)
(0.049352622 -0.00026005415 -3.279724e-05)
(0.12579489 -0.00074150927 -0.00036594593)
(0.16497264 -0.0011352255 -0.0016562354)
(0.1337678 -0.0012491209 -0.0039552461)
(0.015505783 -0.000963207 -0.00587439)
(-0.16618254 -0.00038442962 -0.0060118131)
(-0.35164055 0.00018687203 -0.0042625467)
(-0.49234919 0.00056944244 -0.0014555674)
(-0.58011039 0.00077012617 0.0011321177)
(0.049352618 0.00026002974 -3.279638e-05)
(0.12579488 0.00074146911 -0.00036594002)
(0.16497262 0.0011351822 -0.0016562251)
(0.13376777 0.0012491255 -0.003955234)
(0.015505756 0.00096330285 -0.0058743762)
(-0.16618257 0.00038462026 -0.0060118009)
(-0.35164057 -0.00018664322 -0.004262525)
(-0.49234921 -0.00056926302 -0.001455529)
(-0.58011041 -0.00077005688 0.0011321817)
(0.048680287 0.00070507084 -8.7436923e-05)
(0.1239127 0.0020102255 -0.00051297644)
(0.16209492 0.0030773346 -0.0018297609)
(0.13049083 0.0033841036 -0.0040134412)
(0.012426726 0.002607256 -0.0057128302)
(-0.16894103 0.0010212431 -0.0056941611)
(-0.35460772 -0.00058752543 -0.0038962398)
(-0.49602492 -0.001656793 -0.0011173056)
(-0.58464695 -0.0022420429 0.0013834802)
(0.047540374 0.00098719345 -0.00017632564)
(0.12081436 0.0028069945 -0.00074787043)
(0.15750401 0.0042770556 -0.0020825925)
(0.12543344 0.0046762994 -0.0040641011)
(0.0078409533 0.0035631704 -0.0054258104)
(-0.17306091 0.0013019085 -0.0051489952)
(-0.35936545 -0.0010356038 -0.0032434923)
(-0.50236587 -0.0026640693 -0.00047880397)
(-0.59277203 -0.0035423272 0.001863631)
(0.045994499 0.0011089184 -0.00026542482)
(0.1166343 0.0031333444 -0.00097546691)
(0.15140438 0.0047375635 -0.0023047815)
(0.11891456 0.0051449969 -0.0040556017)
(0.0022812085 0.0038735173 -0.0050447462)
(-0.17772268 0.001291946 -0.0044613871)
(-0.36479689 -0.0014156859 -0.0024213783)
(-0.51017743 -0.003346867 0.00028516089)
(-0.60324018 -0.0044345458 0.0024308043)
(0.044204429 0.0011175287 -0.00033776342)
(0.11191779 0.0031327457 -0.001149902)
(0.14477913 0.0046950644 -0.002445428)
(0.11224556 0.0050673648 -0.0039712555)
(-0.0027965167 0.0037929905 -0.0046092022)
(-0.18141927 0.0012091986 -0.0037144575)
(-0.369456 -0.0015440837 -0.0015404129)
(-0.51804708 -0.0035530479 0.0010736036)
(-0.61463843 -0.0047368631 0.0029778479)
(0.042240296 0.0010617249 -0.00039187577)
(0.1069129 0.0029528142 -0.0012710819)
(0.13811365 0.0043929067 -0.0025150522)
(0.10616941 0.0047328392 -0.0038239904)
(-0.0064492795 0.0035928729 -0.0041546873)
(-0.18312285 0.0012562914 -0.0029955382)
(-0.37226873 -0.0012822872 -0.00072629406)
(-0.52483848 -0.0031841983 0.0017633663)
(-0.62570809 -0.0043570914 0.0033902489)
(0.040062367 0.00097651736 -0.00043081687)
(0.1015264 0.0026993359 -0.0013489341)
(0.13131201 0.0040043896 -0.0025368554)
(0.10066862 0.0043475262 -0.0036507227)
(-0.0084980607 0.0034550676 -0.0037472115)
(-0.18238981 0.0015472072 -0.0024103703)
(-0.37251827 -0.00059266736 -0.00010096205)
(-0.52956222 -0.0022521607 0.0022396667)
(-0.63519939 -0.0033296952 0.0035758022)
(0.037543653 0.00088732339 -0.00046332114)
(0.095388098 0.0024451712 -0.0014117914)
(0.12380474 0.0036396193 -0.0025420056)
(0.095140091 0.0040395912 -0.0034941329)
(-0.0093401331 0.0034690484 -0.0034440215)
(-0.17916223 0.002089726 -0.0020349211)
(-0.36954729 0.00046536416 0.00024122297)
(-0.53104239 -0.00086846915 0.0024078504)
(-0.64154554 -0.0017756465 0.0034572634)
(0.034713326 0.00080754854 -0.00048783439)
(0.088579996 0.0022345945 -0.0014618684)
(0.11571306 0.0033686332 -0.002552907)
(0.089790345 0.0038863065 -0.0034082599)
(-0.0085459696 0.0036884174 -0.0033112938)
(-0.17257867 0.0028736442 -0.0019358126)
(-0.36190594 0.0017963636 0.00023811919)
(-0.5272987 0.00082565239 0.0022077125)
(-0.64242628 0.00013253254 0.0029867279)
(0.031588231 0.00073966231 -0.00051632719)
(0.081194645 0.0020767943 -0.0015357979)
(0.10727837 0.0032110776 -0.0026315879)
(0.085154373 0.0039048725 -0.003465373)
(-0.005077148 0.004105176 -0.003417924)
(-0.16082722 0.0038516793 -0.0021733929)
(-0.34695184 0.0033076214 -0.00015857456)
(-0.51513173 0.0026923927 0.0016083746)
(-0.63451402 0.0022301601 0.002154082)
(0.028228547 0.00069260097 -0.00055838405)
(0.073415387 0.0019892324 -0.0016604366)
(0.098878571 0.0031865622 -0.0028172855)
(0.082018553 0.0041092929 -0.003711883)
(0.0026318362 0.0047121536 -0.0038185457)
(-0.1411189 0.004986592 -0.0028151656)
(-0.3205831 0.0049480777 -0.0010261072)
(-0.48973942 0.0046648209 0.0005679838)
(-0.61306357 0.0044086796 0.00095625723)
(0.025211018 0.00066411358 -0.00060688348)
(0.067071479 0.0019662965 -0.0018198377)
(0.093775704 0.0032782184 -0.0031085736)
(0.08513808 0.0044636261 -0.004197972)
(0.0208467 0.005474513 -0.0046319612)
(-0.10559323 0.0062687522 -0.0040499509)
(-0.27326346 0.0067617097 -0.0025985281)
(-0.44076188 0.0068561374 -0.0011323282)
(-0.56754862 0.006788127 -0.00053347657)
(0.034781335 -0.00013876793 -0.00012353746)
(0.096426668 -0.00049072246 -0.00039810579)
(0.14507313 -0.0010394922 -0.00069906353)
(0.15772948 -0.0018326084 -0.001021977)
(0.11042037 -0.0028495139 -0.0014031264)
(-0.0059091795 -0.0040257439 -0.0018620099)
(-0.17008343 -0.0053080821 -0.0023447782)
(-0.33834842 -0.0066713271 -0.0027142165)
(-0.46744941 -0.0080519296 -0.0028537475)
(0.038928567 -0.00024898322 -0.0001979929)
(0.10585129 -0.00083763493 -0.00062057051)
(0.15481583 -0.0016704053 -0.001064876)
(0.15987656 -0.0027682375 -0.0015116139)
(0.096906403 -0.004062663 -0.0019980167)
(-0.0381161 -0.0054546087 -0.0025461429)
(-0.21561046 -0.0068842752 -0.0031006661)
(-0.38685629 -0.0083077061 -0.0035234831)
(-0.51370591 -0.0095869497 -0.003711585)
(0.04327399 -0.00033825787 -0.00023502763)
(0.11626249 -0.0011247829 -0.00073389597)
(0.1670714 -0.0021978868 -0.0012464992)
(0.16716942 -0.0035469895 -0.0017458947)
(0.092553774 -0.0050467273 -0.0022831434)
(-0.055900882 -0.0065608493 -0.002891556)
(-0.2414563 -0.0080274101 -0.0035210206)
(-0.41283271 -0.0094055988 -0.0040405557)
(-0.53671828 -0.010560247 -0.0043152643)
(0.047179643 -0.00042637649 -0.00025899252)
(0.12563918 -0.0014013785 -0.00080416188)
(0.17824959 -0.0026895107 -0.0013500076)
(0.17443068 -0.0042433936 -0.0018672485)
(0.090689673 -0.0058803487 -0.0024296936)
(-0.067493055 -0.0074378393 -0.0030839566)
(-0.25752266 -0.0088669197 -0.003787676)
(-0.42705278 -0.010150606 -0.0044076304)
(-0.54749598 -0.011186312 -0.0047763711)
(0.05053974 -0.00049964115 -0.00026484394)
(0.13368752 -0.0016319224 -0.00081939649)
(0.18782735 -0.0030950628 -0.0013592449)
(0.18074287 -0.0048028063 -0.0018616095)
(0.089654472 -0.006515366 -0.0024353251)
(-0.075736007 -0.0080553622 -0.0031347719)
(-0.26797767 -0.0094004644 -0.0039185271)
(-0.43444168 -0.010559434 -0.0046353103)
(-0.55093155 -0.011452366 -0.0050811719)
(0.053345486 -0.0005589099 -0.00025280224)
(0.14033194 -0.00181449 -0.00077886949)
(0.19558211 -0.0034018556 -0.0012731269)
(0.18560741 -0.0051930321 -0.001727941)
(0.088467597 -0.006908126 -0.0023005991)
(-0.082357931 -0.0083697542 -0.0030451006)
(-0.27541285 -0.009584946 -0.0039069783)
(-0.43817956 -0.010576857 -0.0047030006)
(-0.55033171 -0.011317152 -0.0052227641)
(0.055556921 -0.00059703738 -0.00022690557)
(0.14547406 -0.0019248325 -0.00069416416)
(0.20137862 -0.0035654072 -0.0011146982)
(0.18883778 -0.0053537176 -0.0014987789)
(0.086762606 -0.0069906964 -0.0020486766)
(-0.088137997 -0.008312198 -0.0028247968)
(-0.28117608 -0.009350425 -0.0037517882)
(-0.4400882 -0.010164868 -0.0046291928)
(-0.54783343 -0.010754218 -0.0052271984)
(0.057296729 -0.00059734569 -0.00018648206)
(0.14949081 -0.001915658 -0.00056505127)
(0.2058378 -0.0035138594 -0.00088408179)
(0.19117414 -0.0052047063 -0.0011778644)
(0.085154081 -0.0066864465 -0.0016923019)
(-0.09286418 -0.0078177067 -0.0024941785)
(-0.28557972 -0.0086594377 -0.0034897124)
(-0.44098526 -0.0092913896 -0.0044553554)
(-0.54465854 -0.0097309885 -0.0051321526)
(0.058644364 -0.00054891089 -0.00013643102)
(0.1526136 -0.0017537623 -0.00040729454)
(0.20932461 -0.0031925981 -0.00060948991)
(0.1930385 -0.0046775803 -0.00080421009)
(0.08398603 -0.0059283315 -0.0012793972)
(-0.096397828 -0.0068398118 -0.0021079041)
(-0.2887676 -0.0074807881 -0.0031751047)
(-0.44128887 -0.0079347185 -0.0042291574)
(-0.54150396 -0.0082422115 -0.0049809261)
(0.059628044 -0.00044701898 -8.4353533e-05)
(0.15490259 -0.0014245538 -0.00024458791)
(0.21189861 -0.0025787483 -0.00033155816)
(0.19446187 -0.0037468478 -0.00043486766)
(0.083216785 -0.0047001678 -0.00087430825)