/*--------------------------------*- C++ -*----------------------------------*\
  =========                 |
  \\      /  F ield         | OpenFOAM: The Open Source CFD Toolbox
   \\    /   O peration     | Website:  https://openfoam.org
    \\  /    A nd           | Version:  10
     \\/     M anipulation  |
\*---------------------------------------------------------------------------*/
FoamFile
{
    format      ascii;
    class       volScalarField;
    location    "2.3";
    object      T;
}
// * * * * * * * * * * * * * * * * * * * * * * * * * * * * * * * * * * * * * //

dimensions      [0 0 -1 0 0 0 0];

internalField   nonuniform List<scalar> 
100
(
0.0372834
0.110529
0.179858
0.242817
0.297173
0.341002
0.37275
0.391294
0.395976
0.38663
0.363588
0.327665
0.280135
0.222681
0.157338
0.0864215
0.0124434
-0.0619754
-0.134199
-0.201668
-0.261993
-0.313037
-0.352992
-0.380441
-0.394413
-0.394413
-0.380441
-0.352991
-0.313037
-0.261993
-0.201668
-0.134198
-0.0619746
0.0124444
0.0864225
0.157339
0.222682
0.280136
0.327666
0.363589
0.386631
0.395977
0.391294
0.372751
0.341002
0.297173
0.242816
0.179858
0.110528
0.0372827
-0.0372835
-0.110529
-0.179859
-0.242817
-0.297173
-0.341002
-0.372751
-0.391295
-0.395977
-0.386631
-0.363589
-0.327666
-0.280136
-0.222681
-0.157338
-0.0864217
-0.0124435
0.0619754
0.134199
0.201668
0.261993
0.313037
0.352992
0.380441
0.394413
0.394413
0.380441
0.352991
0.313037
0.261993
0.201667
0.134198
0.0619746
-0.0124443
-0.0864223
-0.157339
-0.222682
-0.280136
-0.327666
-0.363588
-0.38663
-0.395976
-0.391294
-0.37275
-0.341001
-0.297172
-0.242816
-0.179858
-0.110528
-0.0372826
)
;

boundaryField
{
    inlet
    {
        type            cyclic;
    }
    outlet
    {
        type            cyclic;
    }
    bottom
    {
        type            slip;
    }
    top
    {
        type            slip;
    }
    frontAndBack
    {
        type            empty;
    }
}


// ************************************************************************* //
