/*--------------------------------*- C++ -*----------------------------------*\
  =========                 |
  \\      /  F ield         | OpenFOAM: The Open Source CFD Toolbox
   \\    /   O peration     | Website:  https://openfoam.org
    \\  /    A nd           | Version:  10
     \\/     M anipulation  |
\*---------------------------------------------------------------------------*/
FoamFile
{
    format      ascii;
    class       volScalarField;
    location    "2.3";
    object      T_0;
}
// * * * * * * * * * * * * * * * * * * * * * * * * * * * * * * * * * * * * * //

dimensions      [0 0 -1 0 0 0 0];

internalField   nonuniform List<scalar> 
100
(
0.0381994
0.113244
0.184277
0.248782
0.304474
0.349379
0.381908
0.400907
0.405704
0.396129
0.372521
0.335715
0.287017
0.228152
0.161204
0.0885447
0.0127492
-0.0634981
-0.137496
-0.206623
-0.26843
-0.320728
-0.361664
-0.389788
-0.404103
-0.404103
-0.389788
-0.361664
-0.320728
-0.268429
-0.206622
-0.137495
-0.0634972
0.0127501
0.0885458
0.161205
0.228153
0.287019
0.335717
0.372522
0.39613
0.405705
0.400908
0.381908
0.34938
0.304474
0.248782
0.184277
0.113244
0.0381987
-0.0381995
-0.113244
-0.184278
-0.248783
-0.304474
-0.34938
-0.381909
-0.400908
-0.405705
-0.39613
-0.372521
-0.335716
-0.287018
-0.228152
-0.161204
-0.0885449
-0.0127493
0.0634981
0.137496
0.206623
0.26843
0.320728
0.361664
0.389788
0.404103
0.404103
0.389788
0.361664
0.320727
0.268429
0.206622
0.137495
0.0634972
-0.01275
-0.0885456
-0.161204
-0.228152
-0.287018
-0.335716
-0.372521
-0.396129
-0.405704
-0.400907
-0.381908
-0.349379
-0.304473
-0.248782
-0.184276
-0.113243
-0.0381986
)
;

boundaryField
{
    inlet
    {
        type            cyclic;
    }
    outlet
    {
        type            cyclic;
    }
    bottom
    {
        type            slip;
    }
    top
    {
        type            slip;
    }
    frontAndBack
    {
        type            empty;
    }
}


// ************************************************************************* //
