/*--------------------------------*- C++ -*----------------------------------*\
| =========                 |                                                 |
| \\      /  F ield         | OpenFOAM: The Open Source CFD Toolbox           |
|  \\    /   O peration     | Version:  2406                                  |
|   \\  /    A nd           | Website:  www.openfoam.com                      |
|    \\/     M anipulation  |                                                 |
\*---------------------------------------------------------------------------*/
FoamFile
{
    version     2.0;
    format      ascii;
    arch        "LSB;label=32;scalar=64";
    class       volScalarField;
    location    "48";
    object      p;
}
// * * * * * * * * * * * * * * * * * * * * * * * * * * * * * * * * * * * * * //

dimensions      [0 2 -2 0 0 0 0];

internalField   nonuniform List<scalar> 
1176
(
0.79699975
0.79702263
0.79704629
0.79705395
0.79702243
0.79692773
0.7967705
0.79658433
0.79640513
0.79623798
0.79608336
0.79598775
0.79598775
0.79608336
0.79623798
0.79640513
0.79658432
0.79677047
0.79692768
0.79702234
0.79705384
0.79704615
0.79702247
0.79699959
0.77385132
0.77380436
0.77375661
0.77373971
0.77380221
0.77400457
0.77436989
0.77483429
0.77526515
0.77555125
0.77567065
0.77570491
0.77570491
0.77567066
0.77555126
0.77526517
0.77483431
0.77436992
0.77400461
0.77380227
0.77373978
0.77375669
0.77380445
0.77385141
0.75676657
0.75678858
0.75680837
0.75680646
0.7567474
0.75658623
0.75631446
0.75598651
0.7556803
0.75546751
0.7553567
0.75530789
0.75530789
0.75535671
0.75546751
0.7556803
0.7559865
0.75631445
0.75658621
0.75674738
0.75680644
0.75680835
0.75678856
0.75676655
0.74009467
0.7401038
0.74011586
0.74013226
0.7401548
0.74017237
0.74014014
0.74000673
0.73977462
0.73950205
0.73927785
0.73915735
0.73915735
0.73927785
0.73950206
0.73977463
0.74000674
0.74014015
0.74017239
0.74015482
0.74013227
0.74011587
0.74010381
0.74009469
0.72367562
0.72367958
0.72368457
0.72369063
0.72370033
0.72372061
0.72375679
0.7237983
0.72381997
0.7237961
0.72373398
0.72368135
0.72368135
0.72373398
0.7237961
0.72381997
0.7237983
0.72375679
0.72372061
0.72370034
0.72369064
0.72368458
0.72367959
0.72367563
0.70721397
0.70721638
0.70721963
0.70722367
0.70722858
0.70723541
0.70724958
0.7072809
0.70733088
0.70738813
0.70743084
0.7074475
0.7074475
0.70743084
0.70738813
0.70733088
0.70728089
0.70724958
0.70723541
0.70722858
0.70722367
0.70721963
0.70721639
0.70721397
0.69080816
0.6908103
0.69081311
0.69081654
0.69082043
0.69082395
0.69082601
0.69082819
0.69083674
0.69085397
0.69087187
0.69088358
0.69088358
0.69087187
0.69085397
0.69083673
0.69082819
0.69082601
0.69082395
0.69082043
0.69081654
0.69081311
0.6908103
0.69080816
0.6744283
0.67443005
0.67443238
0.6744353
0.67443897
0.67444335
0.6744478
0.67445095
0.67445219
0.67445381
0.67445085
0.67444834
0.67444834
0.67445085
0.6744538
0.67445219
0.67445095
0.6744478
0.67444334
0.67443897
0.6744353
0.67443238
0.67443006
0.6744283
0.65807401
0.65807547
0.6580774
0.65807981
0.65808282
0.65808661
0.65809165
0.6580987
0.65810739
0.65811741
0.65812518
0.65812877
0.65812877
0.65812518
0.65811741
0.65810738
0.6580987
0.65809165
0.65808661
0.65808282
0.65807981
0.6580774
0.65807547
0.65807402
0.64173632
0.64173752
0.64173913
0.64174117
0.64174373
0.64174691
0.64175107
0.64175746
0.64176762
0.64178075
0.64179508
0.64180439
0.64180439
0.64179508
0.64178075
0.64176762
0.64175746
0.64175107
0.64174691
0.64174373
0.64174117
0.64173913
0.64173753
0.64173632
0.62541194
0.62541297
0.62541434
0.62541609
0.6254183
0.62542103
0.62542442
0.62542927
0.62543713
0.62544779
0.62546035
0.62546949
0.62546949
0.62546035
0.62544779
0.62543713
0.62542927
0.62542442
0.62542103
0.6254183
0.62541609
0.62541435
0.62541297
0.62541195
0.60909847
0.60909936
0.60910056
0.60910208
0.60910402
0.60910642
0.60910938
0.60911339
0.60911961
0.60912827
0.60913883
0.60914628
0.60914628
0.60913883
0.60912827
0.60911961
0.60911339
0.60910938
0.60910642
0.60910403
0.60910209
0.60910056
0.60909936
0.60909847
0.59279427
0.59279506
0.59279611
0.59279746
0.59279918
0.59280131
0.59280395
0.59280749
0.59281289
0.59282064
0.59283033
0.592837
0.592837
0.59283032
0.59282063
0.59281289
0.59280749
0.59280395
0.59280131
0.59279919
0.59279747
0.59279612
0.59279506
0.59279428
0.57649805
0.57649875
0.57649969
0.57650089
0.57650243
0.57650434
0.57650669
0.57650982
0.57651459
0.57652156
0.57653023
0.57653632
0.57653632
0.57653023
0.57652156
0.57651459
0.57650982
0.57650669
0.57650434
0.57650243
0.5765009
0.5764997
0.57649876
0.57649805
0.56020878
0.56020941
0.56021025
0.56021134
0.56021272
0.56021444
0.56021654
0.5602193
0.56022346
0.56022959
0.56023712
0.56024252
0.56024252
0.56023711
0.56022959
0.56022346
0.5602193
0.56021654
0.56021444
0.56021272
0.56021134
0.56021026
0.56020941
0.56020878
0.54392566
0.54392623
0.54392699
0.54392797
0.54392923
0.54393078
0.54393268
0.54393513
0.54393877
0.54394414
0.54395068
0.54395547
0.54395547
0.54395068
0.54394414
0.54393877
0.54393513
0.54393268
0.54393078
0.54392923
0.54392797
0.543927
0.54392623
0.54392566
0.52764803
0.52764855
0.52764925
0.52765014
0.52765128
0.5276527
0.52765442
0.52765662
0.52765984
0.52766461
0.52767033
0.52767462
0.52767462
0.52767033
0.52766461
0.52765984
0.52765662
0.52765442
0.5276527
0.52765128
0.52765014
0.52764925
0.52764855
0.52764804
0.51137535
0.51137583
0.51137646
0.51137728
0.51137833
0.51137962
0.51138119
0.51138319
0.51138606
0.51139031
0.51139536
0.51139923
0.51139923
0.51139536
0.51139031
0.51138606
0.51138319
0.51138119
0.51137962
0.51137833
0.51137728
0.51137647
0.51137583
0.51137536
0.49510716
0.49510759
0.49510818
0.49510893
0.49510989
0.49511108
0.49511252
0.49511433
0.49511691
0.49512071
0.49512521
0.4951287
0.4951287
0.49512521
0.49512071
0.49511691
0.49511433
0.49511252
0.49511108
0.49510989
0.49510893
0.49510818
0.49510759
0.49510716
0.47884305
0.47884345
0.47884399
0.47884468
0.47884557
0.47884667
0.47884799
0.47884964
0.47885196
0.47885539
0.47885942
0.47886258
0.47886258
0.47885942
0.47885539
0.47885196
0.47884964
0.47884799
0.47884667
0.47884557
0.47884468
0.47884399
0.47884345
0.47884305
0.46258268
0.46258305
0.46258355
0.46258418
0.46258501
0.46258602
0.46258725
0.46258876
0.46259086
0.46259396
0.4625976
0.46260047
0.46260047
0.46259761
0.46259396
0.46259086
0.46258876
0.46258725
0.46258602
0.46258501
0.46258418
0.46258354
0.46258305
0.46258268
0.44632574
0.44632609
0.44632655
0.44632714
0.4463279
0.44632885
0.44632998
0.44633137
0.44633328
0.4463361
0.44633942
0.44634203
0.44634203
0.44633942
0.4463361
0.44633328
0.44633137
0.44632998
0.44632885
0.4463279
0.44632714
0.44632654
0.44632608
0.44632574
0.43007198
0.4300723
0.43007273
0.43007328
0.43007399
0.43007487
0.43007592
0.4300772
0.43007895
0.43008152
0.43008455
0.43008694
0.43008694
0.43008455
0.43008152
0.43007895
0.4300772
0.43007592
0.43007486
0.43007398
0.43007327
0.43007272
0.43007229
0.43007197
0.41382115
0.41382144
0.41382184
0.41382236
0.41382302
0.41382383
0.41382481
0.413826
0.4138276
0.41382996
0.41383275
0.41383493
0.41383493
0.41383275
0.41382996
0.41382761
0.413826
0.41382481
0.41382383
0.41382301
0.41382235
0.41382183
0.41382143
0.41382114
0.39757303
0.39757331
0.39757368
0.39757416
0.39757477
0.39757554
0.39757645
0.39757755
0.39757903
0.39758119
0.39758377
0.39758577
0.39758577
0.39758377
0.3975812
0.39757904
0.39757755
0.39757645
0.39757553
0.39757477
0.39757415
0.39757367
0.39757329
0.39757302
0.38132744
0.3813277
0.38132804
0.38132849
0.38132907
0.38132978
0.38133063
0.38133166
0.38133302
0.38133502
0.3813374
0.38133925
0.38133925
0.3813374
0.38133502
0.38133303
0.38133166
0.38133063
0.38132978
0.38132906
0.38132848
0.38132803
0.38132768
0.38132742
0.36508419
0.36508444
0.36508476
0.36508518
0.36508572
0.36508639
0.36508719
0.36508814
0.36508941
0.36509125
0.36509346
0.36509517
0.36509517
0.36509346
0.36509126
0.36508941
0.36508815
0.36508719
0.36508638
0.36508571
0.36508517
0.36508474
0.36508442
0.36508417
0.34884314
0.34884337
0.34884368
0.34884407
0.34884457
0.3488452
0.34884595
0.34884684
0.34884801
0.34884972
0.34885177
0.34885335
0.34885336
0.34885178
0.34884973
0.34884802
0.34884684
0.34884595
0.34884519
0.34884456
0.34884405
0.34884365
0.34884335
0.34884312
0.33260414
0.33260435
0.33260464
0.33260501
0.33260548
0.33260607
0.33260677
0.3326076
0.3326087
0.33261028
0.3326122
0.33261366
0.33261366
0.3326122
0.33261029
0.33260871
0.33260761
0.33260677
0.33260606
0.33260546
0.33260498
0.33260461
0.33260432
0.33260411
0.31636705
0.31636725
0.31636752
0.31636786
0.31636831
0.31636886
0.31636952
0.3163703
0.31637132
0.31637279
0.31637458
0.31637594
0.31637594
0.31637458
0.3163728
0.31637133
0.31637031
0.31636952
0.31636885
0.31636829
0.31636784
0.31636749
0.31636722
0.31636702
0.30013175
0.30013194
0.30013219
0.30013252
0.30013294
0.30013345
0.30013407
0.3001348
0.30013576
0.30013713
0.3001388
0.30014007
0.30014007
0.30013881
0.30013714
0.30013577
0.30013481
0.30013407
0.30013344
0.30013291
0.30013249
0.30013216
0.3001319
0.30013171
0.28389814
0.28389831
0.28389855
0.28389885
0.28389925
0.28389974
0.28390032
0.283901
0.2839019
0.28390317
0.28390474
0.28390592
0.28390592
0.28390475
0.28390319
0.28390191
0.28390102
0.28390032
0.28389972
0.28389922
0.28389882
0.28389851
0.28389827
0.28389809
0.2676661
0.26766626
0.26766648
0.26766677
0.26766714
0.2676676
0.26766815
0.26766879
0.26766963
0.26767083
0.26767229
0.2676734
0.2676734
0.2676723
0.26767084
0.26766965
0.26766881
0.26766815
0.26766759
0.26766711
0.26766673
0.26766644
0.26766621
0.26766604
0.25143554
0.25143569
0.2514359
0.25143617
0.25143652
0.25143696
0.25143747
0.25143808
0.25143886
0.25143998
0.25144135
0.25144238
0.25144239
0.25144136
0.25144
0.25143888
0.25143809
0.25143747
0.25143694
0.25143649
0.25143613
0.25143585
0.25143564
0.25143548
0.23520637
0.23520652
0.23520672
0.23520697
0.2352073
0.23520771
0.23520819
0.23520876
0.2352095
0.23521055
0.23521184
0.23521281
0.23521281
0.23521185
0.23521057
0.23520952
0.23520878
0.23520819
0.23520769
0.23520726
0.23520692
0.23520666
0.23520645
0.2352063
0.21897852
0.21897865
0.21897884
0.21897908
0.21897939
0.21897978
0.21898023
0.21898077
0.21898146
0.21898244
0.21898365
0.21898456
0.21898456
0.21898367
0.21898246
0.21898149
0.21898079
0.21898023
0.21897975
0.21897935
0.21897902
0.21897878
0.21897858
0.21897844
0.20275189
0.20275202
0.2027522
0.20275242
0.20275272
0.20275308
0.20275351
0.20275402
0.20275467
0.20275559
0.20275673
0.20275758
0.20275759
0.20275675
0.20275561
0.2027547
0.20275404
0.20275351
0.20275306
0.20275267
0.20275236
0.20275213
0.20275194
0.20275181
0.18652643
0.18652655
0.18652672
0.18652693
0.18652721
0.18652755
0.18652796
0.18652844
0.18652905
0.18652991
0.18653098
0.18653177
0.18653178
0.18653099
0.18652994
0.18652908
0.18652846
0.18652796
0.18652753
0.18652716
0.18652686
0.18652664
0.18652647
0.18652634
0.17030206
0.17030218
0.17030234
0.17030254
0.1703028
0.17030312
0.17030351
0.17030396
0.17030453
0.17030534
0.17030635
0.1703071
0.17030711
0.17030637
0.17030537
0.17030457
0.17030398
0.17030351
0.17030309
0.17030274
0.17030246
0.17030225
0.17030208
0.17030196
0.15407873
0.15407884
0.15407899
0.15407918
0.15407943
0.15407973
0.1540801
0.15408052
0.15408106
0.15408181
0.15408276
0.15408345
0.15408346
0.15408278
0.15408185
0.1540811
0.15408055
0.15408009
0.1540797
0.15407936
0.15407909
0.15407889
0.15407873
0.15407862
0.13785637
0.13785647
0.13785661
0.13785679
0.13785702
0.13785731
0.13785766
0.13785806
0.13785856
0.13785928
0.13786017
0.13786082
0.13786083
0.13786019
0.13785931
0.1378586
0.13785808
0.13785765
0.13785727
0.13785695
0.13785669
0.1378565
0.13785635
0.13785624
0.12163494
0.12163504
0.12163517
0.12163534
0.12163556
0.12163583
0.12163616
0.12163653
0.12163701
0.12163766
0.12163847
0.12163907
0.12163908
0.1216385
0.1216377
0.12163705
0.12163656
0.12163615
0.12163579
0.12163548
0.12163523
0.12163505
0.1216349
0.1216348
0.10541436
0.10541445
0.10541457
0.10541474
0.10541494
0.1054152
0.10541551
0.10541586
0.1054163
0.10541692
0.10541768
0.10541824
0.10541824
0.1054177
0.10541696
0.10541635
0.10541589
0.1054155
0.10541515
0.10541485
0.10541462
0.10541444
0.1054143
0.1054142
0.089194641
0.089194729
0.089194848
0.089195002
0.089195199
0.089195443
0.089195731
0.089196063
0.089196466
0.089197005
0.089197656
0.089198121
0.089198128
0.089197679
0.089197047
0.089196514
0.089196093
0.089195722
0.089195386
0.089195098
0.089194871
0.089194703
0.089194571
0.089194476
0.072975636
0.072975718
0.07297583
0.072975975
0.072976164
0.072976399
0.072976675
0.072976991
0.072977368
0.072977862
0.072978442
0.072978837
0.072978844
0.072978465
0.072977905
0.072977418
0.072977022
0.072976663
0.072976336
0.072976056
0.072975837
0.072975677
0.072975552
0.072975462
0.056757515
0.056757596
0.056757704
0.056757842
0.056758019
0.056758235
0.056758488
0.056758773
0.056759095
0.056759468
0.056759841
0.056760052
0.056760059
0.056759864
0.056759511
0.056759145
0.056758804
0.056758475
0.05675817
0.056757908
0.056757701
0.056757549
0.056757428
0.056757341
0.040539728
0.040539799
0.040539896
0.040540027
0.040540203
0.040540428
0.040540694
0.040540987
0.040541312
0.040541717
0.04054218
0.040542484
0.040542489
0.040542201
0.040541758
0.040541361
0.040541016
0.04054068
0.040540364
0.040540095
0.040539891
0.040539748
0.04053964
0.040539564
0.024323459
0.024323542
0.02432365
0.024323778
0.024323925
0.024324087
0.024324261
0.024324444
0.02432461
0.024324685
0.024324593
0.024324358
0.024324363
0.024324611
0.024324721
0.024324651
0.024324467
0.024324245
0.024324027
0.02432383
0.024323662
0.024323526
0.024323412
0.024323327
0.0081053658
0.0081054362
0.0081055292
0.0081056507
0.0081058119
0.008106012
0.0081062333
0.008106473
0.0081068504
0.0081076837
0.0081091578
0.0081105224
0.0081105252
0.0081091684
0.0081077049
0.0081068747
0.0081064845
0.0081062195
0.0081059713
0.0081057512
0.0081055793
0.0081054552
0.0081053604
0.00810529
)
;

boundaryField
{
    INLET
    {
        type            zeroGradient;
    }
    OUTLET
    {
        type            fixedValue;
        value           uniform 0;
    }
    WALL
    {
        type            zeroGradient;
    }
    frontAndBackPlanes
    {
        type            empty;
    }
}


// ************************************************************************* //
