/*--------------------------------*- C++ -*----------------------------------*\
| =========                 |                                                 |
| \\      /  F ield         | OpenFOAM: The Open Source CFD Toolbox           |
|  \\    /   O peration     | Version:  2406                                  |
|   \\  /    A nd           | Website:  www.openfoam.com                      |
|    \\/     M anipulation  |                                                 |
\*---------------------------------------------------------------------------*/
FoamFile
{
    version     2.0;
    format      ascii;
    arch        "LSB;label=32;scalar=64";
    class       surfaceScalarField;
    location    "48";
    object      phi;
}
// * * * * * * * * * * * * * * * * * * * * * * * * * * * * * * * * * * * * * //

dimensions      [0 3 -1 0 0 0 0];

oriented        oriented;

internalField   nonuniform List<scalar> 
2279
(
2.3617503e-08
1.0148926e-05
2.0509769e-07
4.982375e-05
6.933177e-07
0.00014252872
1.5784717e-06
0.00034353082
2.678848e-06
0.00075378089
3.3472919e-06
0.0015415573
3.0435211e-06
0.0029497096
2.1516858e-06
0.005249171
1.4318057e-06
0.008582269
9.8959351e-07
0.012685995
5.1266757e-07
0.016666385
-1.650461e-12
0.01918202
-5.1266874e-07
0.01918202
-9.8958404e-07
0.016666385
-1.4317677e-06
0.012685995
-2.1515867e-06
0.0085822689
-3.0433441e-06
0.0052491708
-3.3470617e-06
0.0029497094
-2.6786296e-06
0.0015415572
-1.578316e-06
0.00075378085
-6.9323193e-07
0.00034353082
-2.0506145e-07
0.00014252873
-2.3607131e-08
4.9823755e-05
1.0148928e-05
-9.5248461e-08
1.0244175e-05
-5.3794004e-07
5.0266441e-05
-1.6230011e-06
0.00014361378
-3.5389522e-06
0.00034544677
-5.920186e-06
0.00075616213
-7.4055012e-06
0.0015430426
-6.584725e-06
0.0029488888
-3.9361562e-06
0.0052465224
-1.3883845e-06
0.0085797213
-6.5114522e-08
0.012684671
2.4240855e-07
0.016666078
-7.0350388e-12
0.019182263
-2.4243169e-07
0.019182263
6.5064403e-08
0.016666078
1.388294e-06
0.012684671
3.9360104e-06
0.0085797214
6.5845208e-06
0.0052465225
7.4052686e-06
0.0029488889
5.9199868e-06
0.0015430427
3.5388246e-06
0.00075616217
1.6229395e-06
0.0003454468
5.37919e-07
0.00014361379
9.5245919e-08
5.0266445e-05
1.0244176e-05
5.0139848e-08
1.0194035e-05
2.6334502e-07
5.0053236e-05
7.4910728e-07
0.00014312802
1.5314587e-06
0.00034466442
2.3366564e-06
0.00075535693
2.5476636e-06
0.0015428316
1.8390991e-06
0.0029495974
9.7567913e-07
0.0052473858
6.7696397e-07
0.00858002
6.7179324e-07
0.012684677
4.8417321e-07
0.016666266
1.6096601e-11
0.019182747
-4.8413415e-07
0.019182747
-6.717365e-07
0.016666266
-6.7688662e-07
0.012684677
-9.7559249e-07
0.0085800199
-1.8390247e-06
0.0052473858
-2.5476139e-06
0.0029495974
-2.3366331e-06
0.0015428316
-1.5314556e-06
0.00075535692
-7.4911165e-07
0.00034466441
-2.6334907e-07
0.00014312801
-5.0142176e-08
5.0053234e-05
1.0194034e-05
1.9586718e-08
1.0174448e-05
1.1184927e-07
4.9960974e-05
3.6128439e-07
0.00014287858
9.0504811e-07
0.00034412066
1.8716608e-06
0.00075439032
3.0948255e-06
0.0015416085
3.8987274e-06
0.0029487935
3.7285596e-06
0.005247556
2.9242152e-06
0.0085808243
1.9733777e-06
0.012685627
1.0127709e-06
0.016667226
-3.8661454e-12
0.01918376
-1.0127813e-06
0.01918376
-1.9733955e-06
0.016667226
-2.9242432e-06
0.012685627
-3.7285929e-06
0.0085808243
-3.8987515e-06
0.005247556
-3.0948345e-06
0.0029487935
-1.8716591e-06
0.0015416085
-9.0504236e-07
0.00075439031
-3.6127963e-07
0.00034412066
-1.118467e-07
0.00014287858
-1.9585684e-08
4.9960973e-05
1.0174448e-05
8.0839266e-09
1.0166364e-05
4.7141468e-08
4.9921916e-05
1.5494696e-07
0.00014277078
3.9846349e-07
0.00034387714
8.797957e-07
0.00075390899
1.7015188e-06
0.0015407867
2.7512795e-06
0.0029477437
3.4623676e-06
0.0052468449
3.470869e-06
0.0085808158
2.8006935e-06
0.012686298
1.5505205e-06
0.016668476
4.1915251e-12
0.01918531
-1.5505114e-06
0.01918531
-2.8006823e-06
0.016668476
-3.4708558e-06
0.012686298
-3.4623611e-06
0.0085808158
-2.7512799e-06
0.0052468449
-1.7015233e-06
0.0029477437
-8.7980166e-07
0.0015407867
-3.9846766e-07
0.00075390899
-1.5494876e-07
0.00034387714
-4.7141891e-08
0.00014277078
-8.0837873e-09
4.9921916e-05
1.0166364e-05
4.9358699e-09
1.0161429e-05
2.869887e-08
4.9898153e-05
9.5121545e-08
0.00014270436
2.4921472e-07
0.00034372305
5.6361043e-07
0.00075359459
1.1213772e-06
0.001540229
1.9184615e-06
0.0029469467
2.658826e-06
0.0052461046
2.8930652e-06
0.0085805816
2.4787725e-06
0.012686712
1.4344316e-06
0.016669521
5.7929594e-12
0.019186745
-1.4344186e-06
0.019186745
-2.4787563e-06
0.016669521
-2.893048e-06
0.012686712
-2.6588101e-06
0.0085805816
-1.91845e-06
0.0052461046
-1.1213714e-06
0.0029469467
-5.6360946e-07
0.001540229
-2.4921572e-07
0.00075359459
-9.5122574e-08
0.00034372305
-2.8699382e-08
0.00014270436
-4.9359942e-09
4.9898153e-05
1.0161429e-05
4.4123528e-09
1.0157016e-05
2.5525675e-08
4.987704e-05
8.3830175e-08
0.00014264605
2.1689439e-07
0.00034358999
4.8450185e-07
0.00075332698
9.5636242e-07
0.0015397571
1.6413764e-06
0.0029462616
2.3245862e-06
0.0052454214
2.5939575e-06
0.0085803122
2.239367e-06
0.012687066
1.3066774e-06
0.016670453
4.5972279e-12
0.019188051
-1.3066677e-06
0.019188051
-2.2393571e-06
0.016670453
-2.5939496e-06
0.012687066
-2.3245807e-06
0.0085803122
-1.6413738e-06
0.0052454214
-9.5636227e-07
0.0029462616
-4.8450295e-07
0.0015397571
-2.1689559e-07
0.00075332698
-8.3830929e-08
0.00034358999
-2.5525978e-08
0.00014264605
-4.412387e-09
4.987704e-05
1.0157016e-05
3.6255357e-09
1.0153391e-05
2.103659e-08
4.9859629e-05
6.9438143e-08
0.00014259765
1.8114162e-07
0.00034347828
4.0971479e-07
0.00075309841
8.2390485e-07
0.0015393429
1.4539941e-06
0.0029456316
2.1430779e-06
0.0052447323
2.4674757e-06
0.0085799878
2.1883957e-06
0.012687346
1.2866446e-06
0.016671355
2.4658349e-12
0.019189338
-1.2866394e-06
0.019189338
-2.1883903e-06
0.016671355
-2.4674715e-06
0.012687346
-2.1430757e-06
0.0085799878
-1.4539941e-06
0.0052447323
-8.2390716e-07
0.0029456316
-4.0971806e-07
0.0015393429
-1.8114433e-07
0.00075309841
-6.9439698e-08
0.00034347828
-2.1037196e-08
0.00014259765
-3.6256309e-09
4.9859629e-05
1.0153391e-05
2.9831334e-09
1.0150408e-05
1.7347003e-08
4.9845265e-05
5.73773e-08
0.00014255762
1.5007389e-07
0.00034338559
3.4097135e-07
0.00075290751
6.919323e-07
0.001538992
1.2441096e-06
0.0029450794
1.9041872e-06
0.0052440722
2.301602e-06
0.0085795904
2.0975092e-06
0.01268755
1.2520113e-06
0.016672201
9.9308115e-13
0.01919059
-1.2520093e-06
0.01919059
-2.0975073e-06
0.016672201
-2.3016006e-06
0.01268755
-1.9041864e-06
0.0085795904
-1.2441105e-06
0.0052440722
-6.9193529e-07
0.0029450794
-3.4097524e-07
0.001538992
-1.5007709e-07
0.00075290752
-5.7379118e-08
0.00034338559
-1.7347702e-08
0.00014255762
-2.983238e-09
4.9845265e-05
1.0150408e-05
2.4654282e-09
1.0147942e-05
1.436312e-08
4.9833367e-05
4.762648e-08
0.00014252436
1.2502869e-07
0.00034330818
2.8558898e-07
0.00075274695
5.8417958e-07
0.0015386934
1.0641847e-06
0.0029445994
1.6641582e-06
0.0052434722
2.0898748e-06
0.0085791647
1.9528946e-06
0.012687687
1.1802446e-06
0.016672973
-1.108495e-13
0.01919177
-1.1802449e-06
0.01919177
-1.9528949e-06
0.016672973
-2.0898753e-06
0.012687687
-1.664159e-06
0.0085791647
-1.064187e-06
0.0052434722
-5.8418369e-07
0.0029445994
-2.8559356e-07
0.0015386934
-1.2503221e-07
0.00075274696
-4.7628399e-08
0.00034330818
-1.436382e-08
0.00014252436
-2.4655082e-09
4.9833367e-05
1.0147942e-05
2.1024517e-09
1.014584e-05
1.2258065e-08
4.9823212e-05
4.0688253e-08
0.00014249593
1.0699016e-07
0.00034324188
2.4507836e-07
0.00075260887
5.0385281e-07
0.0015384346
9.2623454e-07
0.002944177
1.4715109e-06
0.005242927
1.890908e-06
0.0085787453
1.8050221e-06
0.012687772
1.1036896e-06
0.016673675
-3.7636853e-13
0.019192874
-1.1036904e-06
0.019192874
-1.805023e-06
0.016673675
-1.8909091e-06
0.012687772
-1.4715126e-06
0.0085787453
-9.2623786e-07
0.005242927
-5.0385769e-07
0.002944177
-2.450834e-07
0.0015384346
-1.0699388e-07
0.00075260887
-4.0690218e-08
0.00034324188
-1.2258758e-08
0.00014249593
-2.1025153e-09
4.9823212e-05
1.014584e-05
1.8282373e-09
1.0144011e-05
1.0665497e-08
4.9814374e-05
3.5430281e-08
0.00014247116
9.3282919e-08
0.00034318403
2.1413894e-07
0.00075248801
4.4192716e-07
0.0015382068
8.1811298e-07
0.0029438008
1.3163799e-06
0.0052424287
1.7244931e-06
0.0085783372
1.678042e-06
0.012687819
1.037804e-06
0.016674315
-2.8438425e-13
0.019193912
-1.0378046e-06
0.019193912
-1.6780428e-06
0.016674315
-1.7244941e-06
0.012687819
-1.3163818e-06
0.0085783372
-8.1811653e-07
0.0052424287
-4.4193216e-07
0.0029438008
-2.1414394e-07
0.0015382068
-9.3286537e-08
0.00075248801
-3.5432159e-08
0.00034318403
-1.0666145e-08
0.00014247116
-1.828287e-09
4.9814374e-05
1.0144011e-05
1.6104933e-09
1.0142401e-05
9.3996736e-09
4.9806585e-05
3.1244408e-08
0.00014244932
8.2340328e-08
0.00034313293
1.8932047e-07
0.00075238103
3.9182262e-07
0.0015380043
7.2924093e-07
0.0029434634
1.1851449e-06
0.0052419728
1.5781745e-06
0.0085779442
1.5623387e-06
0.012687835
9.7669773e-07
0.0166749
-5.8467784e-14
0.019194888
-9.7669783e-07
0.019194888
-1.5623389e-06
0.0166749
-1.5781751e-06
0.012687835
-1.1851465e-06
0.0085779442
-7.2924426e-07
0.0052419728
-3.9182732e-07
0.0029434634
-1.8932511e-07
0.0015380043
-8.2343641e-08
0.00075238103
-3.1246105e-08
0.00034313293
-9.4002483e-09
0.00014244932
-1.6105298e-09
4.9806585e-05
1.0142401e-05
1.432322e-09
1.0140969e-05
8.3630439e-09
4.9799655e-05
2.7812655e-08
0.00014242987
7.3352813e-08
0.00034308739
1.6886876e-07
0.00075228551
3.5026791e-07
0.0015378229
6.5458286e-07
0.0029431591
1.0720589e-06
0.0052415553
1.4464331e-06
0.0085775698
1.4548759e-06
0.012687826
9.1880938e-07
0.016675437
3.8140431e-13
0.019195807
-9.1880865e-07
0.019195807
-1.4548752e-06
0.016675437
-1.4464329e-06
0.012687826
-1.0720599e-06
0.0085775698
-6.5458566e-07
0.0052415553
-3.5027202e-07
0.0029431591
-1.6887283e-07
0.0015378229
-7.33557e-08
0.00075228551
-2.7814119e-08
0.00034308739
-8.3635312e-09
0.00014242987
-1.4323464e-09
4.9799655e-05
1.0140969e-05
1.2850146e-09
1.0139684e-05
7.505126e-09
4.9793434e-05
2.496894e-08
0.0001424124
6.5891274e-08
0.00034304647
1.5183827e-07
0.00075219957
3.1548566e-07
0.0015376593
5.9149701e-07
0.0029428831
9.7478732e-07
0.005241172
1.3297049e-06
0.0085772149
1.3567872e-06
0.012687799
8.6525231e-07
0.016675928
8.1392128e-13
0.019196672
-8.6525069e-07
0.019196672
-1.3567856e-06
0.016675928
-1.3297039e-06
0.012687799
-9.7478764e-07
0.0085772149
-5.9149917e-07
0.005241172
-3.1548907e-07
0.0029428831
-1.5184166e-07
0.0015376593
-6.5893657e-08
0.00075219957
-2.497013e-08
0.00034304647
-7.5055118e-09
0.0001424124
-1.2850263e-09
4.9793434e-05
1.0139684e-05
1.1615022e-09
1.0138522e-05
6.7852614e-09
4.9787811e-05
2.2580586e-08
0.00014239661
5.9615627e-08
0.00034300944
1.3748147e-07
0.0007521217
2.8604723e-07
0.0015375107
5.3771182e-07
0.0029426314
8.9070692e-07
0.005240819
1.2263985e-06
0.0085768792
1.2674903e-06
0.012687758
8.1592745e-07
0.01667638
1.2040002e-12
0.019197488
-8.1592502e-07
0.019197488
-1.2674879e-06
0.01667638
-1.2263968e-06
0.012687758
-8.9070672e-07
0.0085768792
-5.3771342e-07
0.005240819
-2.8604993e-07
0.0029426314
-1.3748412e-07
0.0015375107
-5.9617445e-08
0.0007521217
-2.2581463e-08
0.00034300944
-6.7855297e-09
0.00014239661
-1.1614985e-09
4.9787811e-05
1.0138522e-05
1.0561625e-09
1.0137466e-05
6.1710397e-09
4.9782696e-05
2.054148e-08
0.00014238224
5.4252364e-08
0.00034297572
1.2519118e-07
0.00075205076
2.6076864e-07
0.0015373751
4.912527e-07
0.0029424009
8.1722631e-07
0.005240493
1.1341847e-06
0.0085765622
1.1857916e-06
0.012687707
7.7021588e-07
0.016676795
1.5302837e-12
0.019198259
-7.7021282e-07
0.019198259
-1.1857887e-06
0.016676795
-1.1341827e-06
0.012687707
-8.1722587e-07
0.0085765622
-4.9125386e-07
0.005240493
-2.6077063e-07
0.0029424009
-1.2519303e-07
0.0015373751
-5.4253538e-08
0.00075205076
-2.0541993e-08
0.00034297572
-6.1711695e-09
0.00014238224
-1.0561399e-09
4.9782696e-05
1.0137466e-05
9.6516087e-10
1.0136501e-05
5.6402222e-09
4.9778021e-05
1.8778392e-08
0.0001423691
4.9611466e-08
0.00034294489
1.1454202e-07
0.00075198583
2.3881161e-07
0.0015372509
4.5070496e-07
0.002942189
7.5248402e-07
0.0052401913
1.0515011e-06
0.0085762632
1.1108328e-06
0.012687647
7.2768999e-07
0.016677178
1.7712805e-12
0.019198986
-7.2768649e-07
0.019198986
-1.1108296e-06
0.016677178
-1.051499e-06
0.012687647
-7.524835e-07
0.0085762632
-4.5070573e-07
0.0052401913
-2.388128e-07
0.002942189
-1.1454293e-07
0.0015372509
-4.9611881e-08
0.00075198583
-1.8778473e-08
0.00034294489
-5.6401859e-09
0.0001423691
-9.6511474e-10
4.9778021e-05
1.0136501e-05
8.8581754e-10
1.0135615e-05
5.1772455e-09
4.9773729e-05
1.7239941e-08
0.00014235704
4.5559069e-08
0.00034291657
1.0523253e-07
0.00075192616
2.1957702e-07
0.0015371365
4.1504314e-07
0.0029419936
6.9509031e-07
0.0052399112
9.7709547e-07
0.0085759812
1.0418687e-06
0.012687582
6.8800656e-07
0.016677532
1.9464305e-12
0.019199674
-6.8800277e-07
0.019199674
-1.0418655e-06
0.016677532
-9.7709351e-07
0.012687582
-6.9508983e-07
0.0085759812
-4.1504348e-07
0.0052399112
-2.1957728e-07
0.0029419936
-1.0523231e-07
0.0015371365
-4.5558574e-08
0.00075192616
-1.7239505e-08
0.00034291657
-5.1770101e-09
0.00014235704
-8.8574289e-10
4.9773729e-05
1.0135615e-05
8.1603587e-10
1.0134799e-05
4.7699462e-09
4.9769775e-05
1.5886004e-08
0.00014234592
4.1990651e-08
0.00034289047
9.7027013e-08
0.00075187112
2.02594e-07
0.0015370309
3.8344962e-07
0.0029418127
6.4389669e-07
0.0052396508
9.0984401e-07
0.0085757152
9.7823734e-07
0.012687514
6.5086795e-07
0.01667786
2.1007026e-12
0.019200325
-6.5086395e-07
0.019200325
-9.782342e-07
0.01667786
-9.0984233e-07
0.012687514
-6.4389629e-07
0.0085757152
-3.8344946e-07
0.0052396508
-2.0259313e-07
0.0029418127
-9.7025447e-08
0.0015370309
-4.198907e-08
0.00075187112
-1.5884953e-08
0.00034289047
-4.7694751e-09
0.00014234592
-8.1592773e-10
4.9769776e-05
1.0134799e-05
7.5416467e-10
1.0134045e-05
4.4087359e-09
4.9766121e-05
1.4684916e-08
0.00014233564
3.8823599e-08
0.00034286633
8.9738652e-08
0.00075182021
1.8748728e-07
0.0015369332
3.5526599e-07
0.0029416449
5.9795924e-07
0.0052394081
8.4878962e-07
0.0085754644
9.1936825e-07
0.012687443
6.1601234e-07
0.016678163
2.2863086e-12
0.019200941
-6.1600813e-07
0.019200941
-9.1936522e-07
0.016678163
-8.4878824e-07
0.012687443
-5.9795889e-07
0.0085754644
-3.5526519e-07
0.0052394081
-1.8748504e-07
0.0029416449
-8.9735481e-08
0.0015369332
-3.8820737e-08
0.00075182021
-1.4683144e-08
0.00034286633
-4.4079898e-09
0.00014233564
-7.5401824e-10
4.9766121e-05
1.0134045e-05
6.9891479e-10
1.0133346e-05
4.0861188e-09
4.9762734e-05
1.3611885e-08
0.00014232612
3.599308e-08
0.00034284395
8.3220333e-08
0.00075177298
1.7395972e-07
0.0015368425
3.2996569e-07
0.0029414889
5.5650816e-07
0.0052391815
7.9312193e-07
0.0085752278
8.6476994e-07
0.012687372
5.8323377e-07
0.016678444
2.5316414e-12
0.019201524
-5.8322926e-07
0.019201524
-8.6476701e-07
0.016678444
-7.9312085e-07
0.012687372
-5.5650782e-07
0.0085752278
-3.2996411e-07
0.0052391815
-1.7395589e-07
0.0029414889
-8.321529e-08
0.0015368425
-3.5988731e-08
0.00075177298
-1.3609279e-08
0.00034284395
-4.0850568e-09
0.00014232612
-6.9872543e-10
4.9762734e-05
1.0133346e-05
6.4926997e-10
1.0132697e-05
3.7961814e-09
4.9759587e-05
1.2647331e-08
0.00014231727
3.3447823e-08
0.00034282315
7.7355461e-08
0.00075172907
1.6177497e-07
0.001536758
3.0712715e-07
0.0029413436
5.1892024e-07
0.0052389697
7.4217411e-07
0.0085750045
8.1401591e-07
0.0126873
5.5234514e-07
0.016678706
2.8423484e-12
0.019202077
-5.5234023e-07
0.019202077
-8.1401305e-07
0.016678706
-7.4217334e-07
0.0126873
-5.189199e-07
0.0085750045
-3.0712466e-07
0.0052389697
-1.6176929e-07
0.0029413436
-7.7348275e-08
0.001536758
-3.3441777e-08
0.00075172907
-1.2643777e-08
0.00034282315
-3.7947616e-09
0.00014231727
-6.4903319e-10
4.9759587e-05
1.0132697e-05
6.0441619e-10
1.0132092e-05
3.5341845e-09
4.9756657e-05
1.1775555e-08
0.00014230903
3.1146668e-08
0.00034280378
7.2050259e-08
0.00075168817
1.5074226e-07
0.0015366793
2.8640794e-07
0.0029412079
4.8468231e-07
0.0052387715
6.9538214e-07
0.0085747938
7.6674619e-07
0.012687229
5.232077e-07
0.01667895
3.1980212e-12
0.0192026
-5.2320234e-07
0.0192026
-7.667434e-07
0.01667895
-6.9538174e-07
0.012687229
-4.8468199e-07
0.0085747939
-2.8640445e-07
0.0052387715
-1.5073452e-07
0.0029412079
-7.2040658e-08
0.0015366793
-3.1138711e-08
0.00075168817
-1.1770935e-08
0.00034280378
-3.5323641e-09
0.00014230903
-6.0412755e-10
4.9756657e-05
1.0132092e-05
5.636949e-10
1.0131528e-05
3.2962925e-09
4.9753924e-05
1.0983842e-08
0.00014230134
2.9056264e-08
0.0003427857
6.7228653e-08
0.00075165
1.4070655e-07
0.0015366059
2.6752864e-07
0.0029410811
4.5337291e-07
0.0052385856
6.5227713e-07
0.0085745949
7.2263888e-07
0.012687158
4.9567786e-07
0.016679177
3.5608702e-12
0.019203096
-4.9567205e-07
0.019203096
-7.2263622e-07
0.016679177
-6.5227721e-07
0.012687158
-4.5337269e-07
0.0085745949
-2.6752407e-07
0.0052385856
-1.4069651e-07
0.0029410811
-6.7216361e-08
0.0015366059
-2.9046179e-08
0.00075165
-1.0978036e-08
0.0003427857
-3.2940276e-09
0.00014230134
-5.6334985e-10
4.9753925e-05
1.0131529e-05
5.2656687e-10
1.0131002e-05
3.079364e-09
4.9751372e-05
1.0261776e-08
0.00014229416
2.7149262e-08
0.00034276882
6.2828168e-08
0.00075161432
1.3154015e-07
0.0015365372
2.502579e-07
0.0029409624
4.2463848e-07
0.0052384112
6.1245491e-07
0.0085744071
6.8142614e-07
0.012687089
4.6966163e-07
0.016679388
3.8834069e-12
0.019203565
-4.6965548e-07
0.019203565
-6.8142376e-07
0.016679388
-6.1245565e-07
0.012687089
-4.2463844e-07
0.0085744071
-2.5025218e-07
0.0052384112
-1.3152758e-07
0.0029409624
-6.2812903e-08
0.0015365372
-2.7136822e-08
0.00075161432
-1.025466e-08
0.00034276882
-3.0766092e-09
0.00014229416
-5.2616064e-10
4.9751372e-05
1.0131002e-05
4.9258755e-10
1.0130509e-05
2.880808e-09
4.9748983e-05
9.6007629e-09
0.00014228744
2.5403093e-08
0.00034275301
5.8797236e-08
0.00075158092
1.2313758e-07
0.0015364728
2.344043e-07
0.0029408511
3.9818604e-07
0.0052382475
5.7557898e-07
0.0085742297
6.4285578e-07
0.012687022
4.4503763e-07
0.016679586
4.1222709e-12
0.01920401
-4.4503132e-07
0.01920401
-6.4285392e-07
0.016679586
-5.7558061e-07
0.012687022
-3.9818631e-07
0.0085742297
-2.3439736e-07
0.0052382475
-1.2312226e-07
0.0029408511
-5.8778704e-08
0.0015364728
-2.5388065e-08
0.00075158092
-9.5922086e-09
0.00034275301
-2.8775161e-09
0.00014228744
-4.9211507e-10
4.9748984e-05
1.0130509e-05
4.6138541e-10
1.0130048e-05
2.6984596e-09
4.9746746e-05
8.9936193e-09
0.00014228114
2.3798875e-08
0.00034273821
5.5092641e-08
0.00075154963
1.1541022e-07
0.0015364125
2.1980606e-07
0.0029407467
3.7376423e-07
0.0052380935
5.4135183e-07
0.0085740621
6.0672757e-07
0.012686957
4.217463e-07
0.016679771
4.2419769e-12
0.019204432
-4.2174009e-07
0.019204432
-6.067265e-07
0.016679771
-5.4135461e-07
0.012686957
-3.7376495e-07
0.0085740622
-2.1979784e-07
0.0052380935
-1.1539189e-07
0.0029407467
-5.5070533e-08
0.0015364125
-2.3781015e-08
0.00075154963
-8.9834911e-09
0.00034273821
-2.6945809e-09
0.00014228114
-4.6084122e-10
4.9746747e-05
1.0130048e-05
4.3264808e-10
1.0129615e-05
2.5304971e-09
4.9744649e-05
8.4343008e-09
0.00014227524
2.2320731e-08
0.00034272432
5.1678068e-08
0.00075152027
1.0828362e-07
0.0015363559
2.0632741e-07
0.0029406487
3.51163e-07
0.0052379487
5.0952531e-07
0.0085739038
5.7283372e-07
0.012686893
3.9967305e-07
0.016679944
4.2228664e-12
0.019204832
-3.9966724e-07
0.019204832
-5.7283377e-07
0.016679944
-5.0952952e-07
0.012686893
-3.5116431e-07
0.0085739038
-2.0631782e-07
0.0052379487
-1.0826201e-07
0.0029406487
-5.1652059e-08
0.0015363559
-2.229978e-08
0.00075152027
-8.4224566e-09
0.00034272432
-2.5259795e-09
0.00014227524
-4.320263e-10
4.9744649e-05
1.0129615e-05
4.0611034e-10
1.0129209e-05
2.3753755e-09
4.9742679e-05
7.9176783e-09
0.0001422697
2.095516e-08
0.00034271129
4.8522556e-08
0.0007514927
1.0169408e-07
0.0015363027
1.9385133e-07
0.0029405565
3.3019774e-07
0.0052378123
4.7987438e-07
0.0085737541
5.4102761e-07
0.012686832
3.7879009e-07
0.016680107
4.0573585e-12
0.01920521
-3.7878497e-07
0.01920521
-5.4102909e-07
0.016680107
-4.7988029e-07
0.012686832
-3.3019977e-07
0.0085737541
-1.9384028e-07
0.0052378123
-1.0166891e-07
0.0029405565
-4.8492299e-08
0.0015363027
-2.0930847e-08
0.0007514927
-7.9039686e-09
0.00034271129
-2.3701638e-09
0.0001422697
-4.0540465e-10
4.974268e-05
1.0129209e-05
3.8154462e-10
1.0128828e-05
2.2317659e-09
4.9740829e-05
7.4393414e-09
0.00014226449
1.9690582e-08
0.00034269903
4.5599632e-08
0.0007514668
9.558728e-08
0.0015362527
1.8227839e-07
0.0029404698
3.1071329e-07
0.0052376839
4.5221059e-07
0.0085736126
5.1112602e-07
0.012686773
3.5897619e-07
0.016680259
3.7519738e-12
0.019205569
-3.5897206e-07
0.019205569
-5.1112924e-07
0.016680259
-4.5221848e-07
0.012686773
-3.1071614e-07
0.0085736126
-1.8226576e-07
0.0052376839
-9.5558236e-08
0.0029404698
-4.5564761e-08
0.0015362527
-1.966262e-08
0.00075146679
-7.4236087e-09
0.00034269903
-2.2258022e-09
0.00014226449
-3.8074828e-10
4.974083e-05
1.0128828e-05
3.5875683e-10
1.0128469e-05
2.0985397e-09
4.9739089e-05
6.9955411e-09
0.00014225959
1.8517105e-08
0.00034268751
4.2886518e-08
0.00075144243
8.9916148e-08
0.0015362057
1.7152158e-07
0.0029403882
2.9257066e-07
0.0052375628
4.2636113e-07
0.0085734788
4.8303119e-07
0.012686717
3.4023928e-07
0.016680402
3.3188328e-12
0.01920591
-3.4023639e-07
0.01920591
-4.8303643e-07
0.016680402
-4.2637124e-07
0.012686717
-2.9257444e-07
0.0085734788
-1.7150725e-07
0.0052375629
-8.9882904e-08
0.0029403882
-4.2846647e-08
0.0015362057
-1.8485192e-08
0.00075144242
-6.9776201e-09
0.00034268751
-2.0917629e-09
0.00014225959
-3.5786278e-10
4.973909e-05
1.0128469e-05
3.3757491e-10
1.0128131e-05
1.9746884e-09
4.9737452e-05
6.5829305e-09
0.00014225498
1.7425964e-08
0.00034267667
4.0363253e-08
0.00075141949
8.4639796e-08
0.0015361614
1.6150582e-07
0.0029403113
2.7565147e-07
0.0052374487
4.0217689e-07
0.0085733523
4.5656587e-07
0.012686662
3.2243679e-07
0.016680536
2.7777217e-12
0.019206232
-3.2243539e-07
0.019206232
-4.565734e-07
0.016680536
-4.0218947e-07
0.012686662
-2.7565629e-07
0.0085733523
-1.6148965e-07
0.0052374487
-8.460201e-08
0.0029403113
-4.0317977e-08
0.0015361614
-1.7389784e-08
0.00075141949
-6.5626474e-09
0.00034267667
-1.9670345e-09
0.00014225498
-3.3657568e-10
4.9737453e-05
1.0128131e-05
3.17856e-10
1.0127813e-05
1.8593864e-09
4.9735911e-05
6.1987648e-09
0.00014225064
1.6409866e-08
0.00034266646
3.8012879e-08
0.00075139788
7.9722873e-08
0.0015361197
1.5216543e-07
0.0029402389
2.5985022e-07
0.005237341
3.7952723e-07
0.0085732326
4.316854e-07
0.01268661
3.0562332e-07
0.016680662
2.1412422e-12
0.019206538
-3.056236e-07
0.019206538
-4.3169547e-07
0.016680662
-3.7954252e-07
0.01268661
-2.5985619e-07
0.0085732327
-1.5214729e-07
0.005237341
-7.9680193e-08
0.0029402389
-3.7961778e-08
0.0015361197
-1.6369089e-08
0.00075139788
-6.1759383e-09
0.00034266646
-1.8507887e-09
0.00014225064
-3.1674391e-10
4.9735911e-05
1.0127814e-05
2.9946302e-10
1.0127514e-05
1.751822e-09
4.9734458e-05
5.8403508e-09
0.00014224655
1.5461822e-08
0.00034265684
3.5819674e-08
0.00075137753
7.5133443e-08
0.0015360804
1.4344152e-07
0.0029401706
2.4507206e-07
0.0052372394
3.5828445e-07
0.0085731194
4.0819612e-07
0.01268656
2.8961551e-07
0.01668078
1.4231266e-12
0.019206827
-2.8961769e-07
0.019206827
-4.08209e-07
0.01668078
-3.5830272e-07
0.01268656
-2.450793e-07
0.0085731194
-1.4342128e-07
0.0052372394
-7.5085506e-08
0.0029401706
-3.5762313e-08
0.0015360804
-1.5416106e-08
0.00075137753
-5.8147928e-09
0.00034265684
-1.7422115e-09
0.00014224656
-2.982304e-10
4.9734459e-05
1.0127514e-05
2.8229612e-10
1.0127232e-05
1.6514313e-09
4.9733089e-05
5.5058082e-09
0.0001422427
1.4576718e-08
0.00034264777
3.3771376e-08
0.00075135833
7.0845346e-08
0.0015360433
1.3528532e-07
0.0029401061
2.3124007e-07
0.0052371434
3.3836049e-07
0.0085730123
3.8612259e-07
0.012686512
2.7453474e-07
0.016680892
6.2246958e-13
0.019207102
-2.7453902e-07
0.019207102
-3.8613856e-07
0.016680892
-3.3838202e-07
0.012686512
-2.3124872e-07
0.0085730123
-1.3526285e-07
0.0052371434
-7.0791778e-08
0.0029401061
-3.3707299e-08
0.0015360433
-1.4525702e-08
0.00075135833
-5.4773198e-09
0.00034264777
-1.6407348e-09
0.0001422427
-2.809346e-10
4.973309e-05
1.0127232e-05
2.6623418e-10
1.0126965e-05
1.5574783e-09
4.9731798e-05
5.1927008e-09
0.00014223906
1.3748381e-08
0.00034263921
3.1854576e-08
0.00075134022
6.6832037e-08
0.0015360083
1.2764746e-07
0.0029400453
2.1827031e-07
0.0052370528
3.196274e-07
0.0085729109
3.6522243e-07
0.012686467
2.6012867e-07
0.016680997
-2.5614398e-13
0.019207362
-2.6013523e-07
0.019207362
-3.6524175e-07
0.016680997
-3.1965249e-07
0.012686467
-2.1828053e-07
0.008572911
-1.2762264e-07
0.0052370528
-6.6772461e-08
0.0029400453
-3.1783323e-08
0.0015360083
-1.3691702e-08
0.00075134022
-5.1610824e-09
0.00034263921
-1.545623e-09
0.00014223907
-2.6473591e-10
4.9731799e-05
1.0126966e-05
2.5122724e-10
1.0126714e-05
1.4697159e-09
4.9730579e-05
4.9001878e-09
0.00014223563
1.2974196e-08
0.00034263113
3.0062003e-08
0.00075132314
6.3076493e-08
0.0015359753
1.2049622e-07
0.0029399879
2.0611843e-07
0.0052369672
3.0205552e-07
0.008572815
3.4562441e-07
0.012686423
2.4661922e-07
0.016681096
-1.2110981e-12
0.019207609
-2.4662829e-07
0.019207609
-3.4564737e-07
0.016681096
-3.0208444e-07
0.012686423
-2.0613035e-07
0.0085728151
-1.204689e-07
0.0052369672
-6.3010501e-08
0.0029399879
-2.9983093e-08
0.0015359753
-1.2911482e-08
0.00075132313
-4.8652395e-09
0.00034263114
-1.4566312e-09
0.00014223564
-2.4958618e-10
4.973058e-05
1.0126714e-05
2.371416e-10
1.0126477e-05
1.3872936e-09
4.9729429e-05
4.6254704e-09
0.0001422324
1.2247403e-08
0.00034262351
2.8380034e-08
0.000751307
5.9553447e-08
0.0015359442
1.1378402e-07
0.0029399337
1.9469411e-07
0.0052368863
2.8548192e-07
0.0085727242
3.2698591e-07
0.012686382
2.3364264e-07
0.016681189
-2.2235338e-12
0.019207842
-2.3365435e-07
0.019207842
-3.2701274e-07
0.016681189
-2.8551492e-07
0.012686382
-1.947078e-07
0.0085727243
-1.1375398e-07
0.0052368863
-5.9480569e-08
0.0029399337
-2.8292939e-08
0.0015359441
-1.2178255e-08
0.000751307
-4.5869793e-09
0.00034262351
-1.3729041e-09
0.0001422324
-2.3535015e-10
4.972943e-05
1.0126477e-05
2.2401841e-10
1.0126253e-05
1.310558e-09
4.9728342e-05
4.3696395e-09
0.00014222934
1.1569841e-08
0.00034261631
2.6809668e-08
0.00075129176
5.6259779e-08
0.0015359147
1.0750475e-07
0.0029398824
1.8400644e-07
0.0052368098
2.6998062e-07
0.0085726382
3.0960805e-07
0.012686342
2.2157728e-07
0.016681277
-3.2521677e-12
0.019208064
-2.2159169e-07
0.019208064
-3.0963888e-07
0.016681277
-2.7001782e-07
0.012686342
-1.8402187e-07
0.0085726383
-1.0747169e-07
0.0052368098
-5.6179515e-08
0.0029398824
-2.6713871e-08
0.0015359147
-1.1493883e-08
0.00075129176
-4.3274089e-09
0.00034261631
-1.2947943e-09
0.00014222934
-2.2206976e-10
4.9728343e-05
1.0126253e-05
2.116387e-10
1.0126041e-05
1.2380611e-09
4.9727316e-05
4.1279787e-09
0.00014222645
1.0930726e-08
0.00034260951
2.5331226e-08
0.00075127736
5.3162881e-08
0.0015358869
1.0159765e-07
0.002939834
1.7392545e-07
0.0052367374
2.5528946e-07
0.0085725569
2.9296471e-07
0.012686304
2.0988529e-07
0.01668136
-4.22409e-12
0.019208274
-2.0990234e-07
0.019208274
-2.929995e-07
0.01668136
-2.553308e-07
0.012686304
-1.7394241e-07
0.0085725569
-1.0156116e-07
0.0052367375
-5.3074731e-08
0.002939834
-2.5226299e-08
0.0015358869
-1.0847694e-08
0.00075127736
-4.0818992e-09
0.00034260951
-1.2209e-09
0.00014222645
-2.0954202e-10
4.9727317e-05
1.0126042e-05
2.0028432e-10
1.0125841e-05
1.1717069e-09
4.9726344e-05
3.9065962e-09
0.00014222371
1.0343268e-08
0.00034260307
2.396609e-08
0.00075126374
5.0291991e-08
0.0015358605
9.6112973e-08
0.0029397882
1.6457441e-07
0.005236669
2.4169282e-07
0.0085724797
2.776587e-07
0.012686268
1.9919605e-07
0.016681439
-4.8947909e-12
0.019208473
-1.9921541e-07
0.019208473
-2.7769718e-07
0.016681439
-2.4173796e-07
0.012686269
-1.6459238e-07
0.0085724798
-9.6072384e-08
0.005236669
-5.0195289e-08
0.0029397882
-2.3851547e-08
0.0015358605
-1.0252922e-08
0.00075126373
-3.8566026e-09
0.00034260307
-1.1531556e-09
0.00014222371
-1.9805892e-10
4.9726346e-05
1.0125842e-05
1.8935332e-10
1.0125652e-05
1.1075735e-09
4.9725426e-05
3.6929048e-09
0.00014222112
9.7793866e-09
0.00034259698
2.2665564e-08
0.00075125085
4.7573757e-08
0.0015358356
9.0927355e-08
0.0029397448
1.5570027e-07
0.0052366042
2.2870306e-07
0.0085724067
2.6285719e-07
0.012686234
1.8871588e-07
0.016681513
-5.5851892e-12
0.019208662
-1.8873734e-07
0.019208662
-2.6289898e-07
0.016681513
-2.2875133e-07
0.012686234
-1.5571837e-07
0.0085724068
-9.0881718e-08
0.0052366042
-4.74677e-08
0.0029397448
-2.254091e-08
0.0015358356
-9.6815242e-09
0.00075125085
-3.6389582e-09
0.00034259699
-1.0876399e-09
0.00014222113
-1.8700527e-10
4.9725428e-05
1.0125652e-05
1.7998189e-10
1.0125472e-05
1.0529137e-09
4.9724553e-05
3.5099618e-09
0.00014221867
9.2902109e-09
0.0003425912
2.1517555e-08
0.00075123862
4.5137488e-08
0.001535812
8.6246821e-08
0.0029397037
1.4770107e-07
0.0052365427
2.1705254e-07
0.0085723374
2.4971194e-07
0.012686202
1.7949561e-07
0.016681583
-5.8955784e-12
0.019208841
-1.7951846e-07
0.019208841
-2.4975641e-07
0.016681583
-2.1710295e-07
0.012686202
-1.4771787e-07
0.0085723375
-8.6194858e-08
0.0052365428
-4.5021554e-08
0.0029397037
-2.138307e-08
0.001535812
-9.1854711e-09
0.00075123862
-3.4526076e-09
0.00034259121
-1.0318803e-09
0.00014221867
-1.7758615e-10
4.9724555e-05
1.0125472e-05
1.6888053e-10
1.0125303e-05
9.8798791e-10
4.9723734e-05
3.2965233e-09
0.00014221636
8.740587e-09
0.00034258576
2.0290247e-08
0.00075122707
4.2656906e-08
0.0015357896
8.1634875e-08
0.0029396647
1.3991945e-07
0.0052364845
2.0571869e-07
0.0085722716
2.3676715e-07
0.012686171
1.7031936e-07
0.01668165
-5.527237e-12
0.019209011
-1.703426e-07
0.019209011
-2.3681365e-07
0.01668165
-2.0577038e-07
0.012686171
-1.3993342e-07
0.0085722717
-8.1575241e-08
0.0052364845
-4.2531152e-08
0.0029396647
-2.0147489e-08
0.0015357896
-8.631037e-09
0.00075122707
-3.237337e-09
0.00034258576
-9.6664913e-10
0.00014221636
-1.6666365e-10
4.9723735e-05
1.0125303e-05
1.6409008e-10
1.0125139e-05
9.6008751e-10
4.9722937e-05
3.1973656e-09