/*--------------------------------*- C++ -*----------------------------------*\
| =========                 |                                                 |
| \\      /  F ield         | OpenFOAM: The Open Source CFD Toolbox           |
|  \\    /   O peration     | Version:  2406                                  |
|   \\  /    A nd           | Website:  www.openfoam.com                      |
|    \\/     M anipulation  |                                                 |
\*---------------------------------------------------------------------------*/
FoamFile
{
    version     2.0;
    format      ascii;
    arch        "LSB;label=32;scalar=64";
    class       volVectorField;
    location    "48";
    object      U;
}
// * * * * * * * * * * * * * * * * * * * * * * * * * * * * * * * * * * * * * //

dimensions      [0 1 -1 0 0 0 0];

internalField   nonuniform List<vector> 
1176
(
(0.019493789 7.0786351e-07 0)
(0.066677318 8.1696591e-06 0)
(0.13357994 3.9503167e-05 0)
(0.22724701 0.00010873577 0)
(0.35591522 0.00021176028 0)
(0.52772023 0.00030396289 0)
(0.74780387 0.00031818027 0)
(1.0136216 0.000249046 0)
(1.3093323 0.00016667009 0)
(1.6017081 0.00011264691 0)
(1.8421723 7.0214102e-05 0)
(1.9793239 2.3940633e-05 0)
(1.9793239 -2.3940866e-05 0)
(1.8421723 -7.0213698e-05 0)
(1.6017081 -0.00011264459 0)
(1.3093323 -0.00016666312 0)
(1.0136216 -0.00024903119 0)
(0.74780387 -0.00031815767 0)
(0.52772025 -0.00030393793 0)
(0.35591524 -0.00021174135 0)
(0.22724703 -0.00010872432 0)
(0.13357996 -3.9499693e-05 0)
(0.066677333 -8.1664889e-06 0)
(0.019493794 -7.0803684e-07 0)
(0.020187017 -3.7419182e-06 0)
(0.068813532 -2.4638637e-05 0)
(0.13732107 -9.6548549e-05 0)
(0.23247391 -0.00024839459 0)
(0.36204617 -0.00047268778 0)
(0.53373556 -0.00067421176 0)
(0.75267407 -0.00069486929 0)
(1.0170176 -0.00049687344 0)
(1.3116385 -0.00023345886 0)
(1.6034438 -4.9824064e-05 0)
(1.8436588 1.9764971e-05 0)
(1.9807026 1.3427523e-05 0)
(1.9807026 -1.342901e-05 0)
(1.8436588 -1.9768003e-05 0)
(1.6034438 4.9817511e-05 0)
(1.3116385 0.00023344715 0)
(1.0170176 0.00049685553 0)
(0.75267404 0.00069484614 0)
(0.53373554 0.00067418903 0)
(0.36204616 0.00047267196 0)
(0.23247391 0.00024838609 0)
(0.13732108 9.654546e-05 0)
(0.068813539 2.4637468e-05 0)
(0.02018702 3.7418005e-06 0)
(0.020018442 2.0918366e-06 0)
(0.068327405 1.2720776e-05 0)
(0.13655404 4.6877262e-05 0)
(0.23159544 0.0001138974 0)
(0.36138709 0.00019769273 0)
(0.53366969 0.00023903246 0)
(0.75344344 0.00020559834 0)
(1.0184881 0.00011361143 0)
(1.3134639 7.4313942e-05 0)
(1.6053464 7.9533297e-05 0)
(1.8455118 7.0517104e-05 0)
(1.9825245 2.7826669e-05 0)
(1.9825245 -2.7823513e-05 0)
(1.8455118 -7.051261e-05 0)
(1.6053464 -7.9526608e-05 0)
(1.3134639 -7.4305322e-05 0)
(1.0184882 -0.00011360266 0)
(0.75344346 -0.00020559305 0)
(0.53366971 -0.00023902872 0)
(0.3613871 -0.000197692 0)
(0.23159544 -0.00011389781 0)
(0.13655404 -4.6877635e-05 0)
(0.068327403 -1.2721053e-05 0)
(0.020018441 -2.0918768e-06 0)
(0.019966547 7.0076409e-07 0)
(0.068159231 4.6870502e-06 0)
(0.13624021 1.9355446e-05 0)
(0.2311194 5.6456188e-05 0)
(0.36078093 0.00013444571 0)
(0.53306293 0.00025829329 0)
(0.75295637 0.00035344761 0)
(1.0181104 0.00036912032 0)
(1.313184 0.00030758908 0)
(1.6051633 0.0002277727 0)
(1.8453995 0.00014555958 0)
(1.9824491 4.9997085e-05 0)
(1.9824491 -4.9997853e-05 0)
(1.8453995 -0.00014556078 0)
(1.6051633 -0.00022777455 0)
(1.313184 -0.0003075924 0)
(1.0181104 -0.00036912367 0)
(0.75295636 -0.00035344848 0)
(0.53306292 -0.00025829379 0)
(0.36078092 -0.00013444513 0)
(0.23111939 -5.6455604e-05 0)
(0.1362402 -1.9355346e-05 0)
(0.068159229 -4.6867063e-06 0)
(0.019966546 -7.0082175e-07 0)
(0.019942203 2.9076786e-07 0)
(0.068078703 1.987207e-06 0)
(0.13608628 8.2361214e-06 0)
(0.23087699 2.3699346e-05 0)
(0.36044744 5.6881686e-05 0)
(0.53266448 0.00012306899 0)
(0.75256878 0.00022681843 0)
(1.017808 0.0003227226 0)
(1.3129044 0.00034572515 0)
(1.604912 0.00030730038 0)
(1.8452029 0.0002109537 0)
(1.9822898 7.4615e-05 0)
(1.9822898 -7.4614141e-05 0)
(1.8452029 -0.00021095272 0)
(1.604912 -0.00030729926 0)
(1.3129044 -0.00034572404 0)
(1.017808 -0.00032272251 0)
(0.75256878 -0.00022681864 0)
(0.53266448 -0.00012306963 0)
(0.36044744 -5.6882144e-05 0)
(0.23087699 -2.3699575e-05 0)
(0.13608628 -8.2362654e-06 0)
(0.068078703 -1.9871582e-06 0)
(0.019942204 -2.9080168e-07 0)
(0.019933132 1.7181427e-07 0)
(0.068047755 1.1940797e-06 0)
(0.13602489 5.0652034e-06 0)
(0.23077535 1.4968882e-05 0)
(0.36029898 3.6219607e-05 0)
(0.5324792 7.6944382e-05 0)
(0.75239427 0.00014713797 0)
(1.0177222 0.00023749067 0)
(1.3129292 0.00028525648 0)
(1.6049746 0.00027441547 0)
(1.8452865 0.00019644678 0)
(1.9823834 7.1177537e-05 0)
(1.9823834 -7.1176395e-05 0)
(1.8452865 -0.00019644541 0)
(1.6049746 -0.00027441385 0)
(1.3129292 -0.00028525474 0)
(1.0177222 -0.00023748939 0)
(0.75239427 -0.00014713706 0)
(0.5324792 -7.6944079e-05 0)
(0.36029899 -3.621965e-05 0)
(0.23077535 -1.4968997e-05 0)
(0.13602488 -5.0653166e-06 0)
(0.068047755 -1.1940691e-06 0)
(0.019933132 -1.7183649e-07 0)
(0.0199234 1.5587525e-07 0)
(0.068015507 1.0700776e-06 0)
(0.13596286 4.493467e-06 0)
(0.23067607 1.3195477e-05 0)
(0.36015773 3.185717e-05 0)
(0.53230178 6.6958333e-05 0)
(0.75221429 0.00012411907 0)
(1.0176105 0.00019917081 0)
(1.3129358 0.00025490885 0)
(1.6050904 0.00024595217 0)
(1.8454579 0.00018127944 0)
(1.9825798 6.654898e-05 0)
(1.9825798 -6.6548078e-05 0)
(1.8454579 -0.00018127848 0)
(1.6050904 -0.0002459513 0)
(1.3129358 -0.0002549082 0)
(1.0176105 -0.00019917042 0)
(0.75221429 -0.00012411889 0)
(0.53230178 -6.695838e-05 0)
(0.36015773 -3.1857293e-05 0)
(0.23067607 -1.319557e-05 0)
(0.13596286 -4.4935696e-06 0)
(0.068015507 -1.0700417e-06 0)
(0.0199234 -1.5589907e-07 0)
(0.019915697 1.2758635e-07 0)
(0.067989792 8.7801738e-07 0)
(0.13591293 3.6960023e-06 0)
(0.23059503 1.0901611e-05 0)
(0.36003987 2.661337e-05 0)
(0.53214753 5.7237169e-05 0)
(0.75204133 0.00010911058 0)
(1.0174723 0.00017936644 0)
(1.3128926 0.00023802503 0)
(1.6051414 0.00023746784 0)
(1.8455877 0.00017750708 0)
(1.9827514 6.5539686e-05 0)
(1.9827514 -6.5539185e-05 0)
(1.8455877 -0.00017750655 0)
(1.6051414 -0.00023746738 0)
(1.3128926 -0.00023802475 0)
(1.0174723 -0.00017936632 0)
(0.75204133 -0.0001091107 0)
(0.53214753 -5.7237471e-05 0)
(0.36003987 -2.6613673e-05 0)
(0.23059503 -1.0901808e-05 0)
(0.13591293 -3.6961584e-06 0)
(0.067989793 -8.7798624e-07 0)
(0.019915697 -1.2761749e-07 0)
(0.019909217 1.0465867e-07 0)
(0.067968141 7.2313662e-07 0)
(0.13587084 3.0521058e-06 0)
(0.23052654 9.0118346e-06 0)
(0.35993984 2.1999888e-05 0)
(0.53201542 4.7473454e-05 0)
(0.75188901 9.201409e-05 0)
(1.0173341 0.00015618194 0)
(1.3128278 0.00021699686 0)
(1.6051595 0.00022709642 0)
(1.8456699 0.00017232646 0)
(1.982868 6.4147833e-05 0)
(1.982868 -6.4147637e-05 0)
(1.8456699 -0.00017232626 0)
(1.6051595 -0.00022709627 0)
(1.3128278 -0.00021699678 0)
(1.0173341 -0.00015618191 0)
(0.75188901 -9.2014283e-05 0)
(0.53201542 -4.7473827e-05 0)
(0.35993984 -2.200025e-05 0)
(0.23052654 -9.0120682e-06 0)
(0.13587084 -3.0522899e-06 0)
(0.067968141 -7.2309622e-07 0)
(0.019909217 -1.0469668e-07 0)
(0.019903971 8.6127369e-08 0)
(0.067950553 5.9696302e-07 0)
(0.13583649 2.52738e-06 0)
(0.2304703 7.4916174e-06 0)
(0.35985692 1.8376304e-05 0)
(0.53190436 3.9835695e-05 0)
(0.75175836 7.7712161e-05 0)
(1.0172122 0.00013432435 0)
(1.3127613 0.00019323372 0)
(1.6051772 0.00021058352 0)
(1.8457533 0.00016272977 0)
(1.9829863 6.1084281e-05 0)
(1.9829863 -6.1084298e-05 0)
(1.8457533 -0.0001627298 0)
(1.6051772 -0.00021058359 0)
(1.3127613 -0.00019323379 0)
(1.0172122 -0.00013432447 0)
(0.75175837 -7.7712485e-05 0)
(0.53190436 -3.9836155e-05 0)
(0.35985692 -1.8376713e-05 0)
(0.2304703 -7.4918688e-06 0)
(0.13583649 -2.5275768e-06 0)
(0.067950553 -5.9691267e-07 0)
(0.019903971 -8.6169515e-08 0)
(0.019899543 7.3357039e-08 0)
(0.067935688 5.0896252e-07 0)
(0.13580742 2.1568892e-06 0)
(0.23042259 6.4027651e-06 0)
(0.35978626 1.5747592e-05 0)
(0.5318089 3.427782e-05 0)
(0.75164409 6.7204591e-05 0)
(1.0171021 0.00011722991 0)
(1.3126976 0.00017262461 0)
(1.6051928 0.00019308903 0)
(1.8458371 0.00015219867 0)
(1.9831061 5.7544786e-05 0)
(1.9831061 -5.7544855e-05 0)
(1.8458371 -0.00015219875 0)
(1.6051928 -0.00019308917 0)
(1.3126976 -0.00017262475 0)
(1.0171021 -0.00011723014 0)
(0.75164409 -6.7205002e-05 0)
(0.5318089 -3.4278337e-05 0)
(0.35978626 -1.574803e-05 0)
(0.23042259 -6.4030269e-06 0)
(0.13580742 -2.157089e-06 0)
(0.067935688 -5.0890965e-07 0)
(0.019899543 -7.340001e-08 0)
(0.019895721 6.372716e-08 0)
(0.06792285 4.4252182e-07 0)
(0.13578228 1.876738e-06 0)
(0.23038125 5.5765283e-06 0)
(0.35972483 1.3738681e-05 0)
(0.53172535 2.9997999e-05 0)
(0.75154264 5.9111541e-05 0)
(1.0170011 0.00010388815 0)
(1.3126345 0.00015540276 0)
(1.6052015 0.00017849524 0)
(1.8459125 0.00014271554 0)
(1.9832185 5.4330602e-05 0)
(1.9832185 -5.4330655e-05 0)
(1.8459125 -0.00014271561 0)
(1.6052015 -0.00017849535 0)
(1.3126345 -0.0001554029 0)
(1.0170011 -0.0001038884 0)
(0.75154264 -5.9111966e-05 0)
(0.53172535 -2.9998515e-05 0)
(0.35972483 -1.3739111e-05 0)
(0.23038125 -5.576781e-06 0)
(0.13578228 -1.8769283e-06 0)
(0.06792285 -4.4247042e-07 0)
(0.019895721 -6.3768135e-08 0)
(0.019892371 5.6090034e-08 0)
(0.067911586 3.8977839e-07 0)
(0.13576021 1.6541252e-06 0)
(0.2303449 4.9187677e-06 0)
(0.35967069 1.2132015e-05 0)
(0.53165136 2.6542437e-05 0)
(0.7514519 5.2498764e-05 0)
(1.0169086 9.2875664e-05 0)
(1.3125728 0.00014061485 0)
(1.605205 0.00016529615 0)
(1.8459798 0.00013398928 0)
(1.9833221 5.1387457e-05 0)
(1.9833221 -5.1387457e-05 0)
(1.8459798 -0.00013398931 0)
(1.605205 -0.00016529622 0)
(1.3125728 -0.00014061495 0)
(1.0169086 -9.287589e-05 0)
(0.7514519 -5.249916e-05 0)
(0.53165136 -2.6542916e-05 0)
(0.35967069 -1.2132411e-05 0)
(0.2303449 -4.9189977e-06 0)
(0.13576021 -1.6542971e-06 0)
(0.067911586 -3.8973101e-07 0)
(0.019892371 -5.6127083e-08 0)
(0.019889403 4.9849147e-08 0)
(0.067901607 3.4661778e-07 0)
(0.13574064 1.4717659e-06 0)
(0.23031264 4.3793957e-06 0)
(0.35962253 1.081232e-05 0)
(0.53158531 2.369142e-05 0)
(0.75137029 4.6984146e-05 0)
(1.016824 8.3546298e-05 0)
(1.3125139 0.00012773745 0)
(1.6052051 0.00015293347 0)
(1.8460415 0.00012582041 0)
(1.9834196 4.8616539e-05 0)
(1.9834196 -4.8616466e-05 0)
(1.8460415 -0.00012582035 0)
(1.6052051 -0.00015293345 0)
(1.3125139 -0.00012773749 0)
(1.016824 -8.3546471e-05 0)
(0.75137029 -4.6984487e-05 0)
(0.53158531 -2.369184e-05 0)
(0.35962253 -1.0812667e-05 0)
(0.23031264 -4.3795953e-06 0)
(0.13574064 -1.4719139e-06 0)
(0.067901607 -3.4657634e-07 0)
(0.019889403 -4.9881029e-08 0)
(0.019886752 4.4699401e-08 0)
(0.067892685 3.1094378e-07 0)
(0.13572313 1.3208216e-06 0)
(0.23028375 3.9322158e-06 0)
(0.35957935 9.7158998e-06 0)
(0.53152592 2.1315623e-05 0)
(0.75129648 4.23603e-05 0)
(1.0167465 7.5619936e-05 0)
(1.3124581 0.00011654238 0)
(1.6052027 0.00014169877 0)
(1.8460982 0.00011827108 0)
(1.9835117 4.6031639e-05 0)
(1.9835117 -4.6031485e-05 0)
(1.8460982 -0.00011827094 0)
(1.6052027 -0.00014169866 0)
(1.3124581 -0.00011654234 0)
(1.0167465 -7.5620045e-05 0)
(0.75129648 -4.2360575e-05 0)
(0.53152592 -2.1315973e-05 0)
(0.35957935 -9.7161875e-06 0)
(0.23028375 -3.9323795e-06 0)
(0.13572313 -1.3209412e-06 0)
(0.067892685 -3.1090951e-07 0)
(0.019886752 -4.4725218e-08 0)
(0.019884362 4.0387277e-08 0)
(0.067884644 2.8103905e-07 0)
(0.13570735 1.1941612e-06 0)
(0.23025769 3.5564992e-06 0)
(0.35954035 8.7929216e-06 0)
(0.53147216 1.9310081e-05 0)
(0.75122934 3.8440236e-05 0)
(1.0166753 6.8839034e-05 0)
(1.3124053 0.00010678363 0)
(1.6051983 0.00013155239 0)
(1.8461504 0.00011132812 0)
(1.9835985 4.3631256e-05 0)
(1.9835985 -4.3631024e-05 0)
(1.8461504 -0.00011132789 0)
(1.6051983 -0.00013155219 0)
(1.3124053 -0.00010678353 0)
(1.0166753 -6.8839094e-05 0)
(0.75122934 -3.844045e-05 0)
(0.53147216 -1.9310357e-05 0)
(0.35954035 -8.7931444e-06 0)
(0.23025769 -3.5566224e-06 0)
(0.13570735 -1.1942481e-06 0)
(0.067884644 -2.8101301e-07 0)
(0.019884362 -4.0406136e-08 0)
(0.019882195 3.6712497e-08 0)
(0.067877349 2.5553798e-07 0)
(0.13569303 1.086085e-06 0)
(0.23023403 3.2356432e-06 0)
(0.3595049 8.0036141e-06 0)
(0.5314232 1.7590989e-05 0)
(0.75116797 3.5067316e-05 0)
(1.0166096 6.2964262e-05 0)
(1.3123553 9.8203345e-05 0)
(1.6051923 0.00012233375 0)
(1.8461982 0.00010491329 0)
(1.9836803 4.1390592e-05 0)
(1.9836803 -4.1390298e-05 0)
(1.8461982 -0.000104913 0)
(1.6051923 -0.00012233352 0)
(1.3123553 -9.8203216e-05 0)
(1.0166096 -6.2964292e-05 0)
(0.75116797 -3.5067475e-05 0)
(0.5314232 -1.7591186e-05 0)
(0.3595049 -8.0037639e-06 0)
(0.23023403 -3.2357199e-06 0)
(0.13569303 -1.0861337e-06 0)
(0.067877349 -2.5552134e-07 0)
(0.019882195 -3.6723279e-08 0)
(0.019880219 3.3539902e-08 0)
(0.067870695 2.3351002e-07 0)
(0.13567996 9.9267981e-07 0)
(0.23021243 2.9581671e-06 0)
(0.35947252 7.3203271e-06 0)
(0.53137842 1.6100197e-05 0)
(0.75111164 3.21331e-05 0)
(1.0165488 5.7823522e-05 0)
(1.3123082 9.0602627e-05 0)
(1.6051852 0.00011395358 0)
(1.8462423 9.8956124e-05 0)
(1.9837576 3.9289103e-05 0)
(1.9837576 -3.9288762e-05 0)
(1.8462423 -9.8955799e-05 0)
(1.6051852 -0.00011395332 0)
(1.3123082 -9.0602493e-05 0)
(1.0165488 -5.7823533e-05 0)
(0.75111164 -3.21332e-05 0)
(0.53137842 -1.6100304e-05 0)
(0.35947252 -7.3203911e-06 0)
(0.23021243 -2.9581885e-06 0)
(0.13567996 -9.9268327e-07 0)
(0.067870695 -2.335043e-07 0)
(0.019880219 -3.3541152e-08 0)
(0.019878409 3.0775412e-08 0)
(0.0678646 2.1430597e-07 0)
(0.13566798 9.1120901e-07 0)
(0.23019263 2.7160026e-06 0)
(0.35944282 6.7234604e-06 0)
(0.53133728 1.4796074e-05 0)
(0.75105977 2.9559782e-05 0)
(1.0164925 5.3292671e-05 0)
(1.3122638 8.3831745e-05 0)
(1.6051772 0.00010632423 0)
(1.846283 9.3403409e-05 0)
(1.9838307 3.7312586e-05 0)
(1.9838307 -3.7312211e-05 0)
(1.846283 -9.3403061e-05 0)
(1.6051772 -0.00010632397 0)
(1.3122638 -8.3831624e-05 0)
(1.0164925 -5.3292668e-05 0)
(0.75105977 -2.9559816e-05 0)
(0.53133728 -1.4796073e-05 0)
(0.35944282 -6.7234216e-06 0)
(0.23019263 -2.7159578e-06 0)
(0.13566798 -9.1115848e-07 0)
(0.0678646 -2.1431304e-07 0)
(0.019878409 -3.0765337e-08 0)
(0.019876745 2.8345271e-08 0)
(0.067858993 1.9741765e-07 0)
(0.13565697 8.3953383e-07 0)
(0.23017441 2.5028497e-06 0)
(0.35941547 6.1976913e-06 0)
(0.53129936 1.3645867e-05 0)
(0.75101183 2.7285414e-05 0)
(1.0164401 4.9271868e-05 0)
(1.3122219 7.7767888e-05 0)
(1.6051688 9.9356329e-05 0)
(1.8463207 8.821375e-05 0)
(1.9838998 3.5449671e-05 0)
(1.9838998 -3.5449267e-05 0)
(1.8463207 -8.8213389e-05 0)
(1.6051688 -9.9356085e-05 0)
(1.3122219 -7.7767787e-05 0)
(1.0164401 -4.9271849e-05 0)
(0.75101183 -2.7285365e-05 0)
(0.53129936 -1.3645735e-05 0)
(0.35941547 -6.1975294e-06 0)
(0.23017441 -2.5027258e-06 0)
(0.13565697 -8.3941936e-07 0)
(0.067858993 -1.9743981e-07 0)
(0.019876745 -2.8321795e-08 0)
(0.019875208 2.6191474e-08 0)
(0.067853818 1.8244479e-07 0)
(0.1356468 7.7596776e-07 0)
(0.23015758 2.3137367e-06 0)
(0.3593902 5.73092e-06 0)
(0.5312643 1.2623643e-05 0)
(0.75096742 2.5260463e-05 0)
(1.0163914 4.5679701e-05 0)
(1.3121824 7.2308264e-05 0)
(1.6051599 9.2973609e-05 0)
(1.8463555 8.335054e-05 0)
(1.9839652 3.3689708e-05 0)
(1.9839652 -3.368927e-05 0)
(1.8463555 -8.3350169e-05 0)
(1.6051599 -9.2973385e-05 0)
(1.3121824 -7.2308182e-05 0)
(1.0163914 -4.5679657e-05 0)
(0.75096742 -2.5260315e-05 0)
(0.5312643 -1.2623356e-05 0)
(0.3593902 -5.7306124e-06 0)
(0.23015758 -2.3135199e-06 0)
(0.1356468 -7.7577847e-07 0)
(0.067853818 -1.8248466e-07 0)
(0.019875209 -2.6152306e-08 0)
(0.019873787 2.4268835e-08 0)
(0.067849027 1.69075e-07 0)
(0.13563738 7.1919215e-07 0)
(0.230142 2.1447686e-06 0)
(0.35936679 5.3136433e-06 0)
(0.53123178 1.1708979e-05 0)
(0.75092616 2.3445705e-05 0)
(1.016346 4.2450716e-05 0)
(1.3121452 6.736784e-05 0)
(1.6051509 8.7107799e-05 0)
(1.8463878 7.8785442e-05 0)
(1.9840271 3.2024121e-05 0)
(1.9840271 -3.2023638e-05 0)
(1.8463878 -7.8785057e-05 0)
(1.6051509 -8.710759e-05 0)
(1.3121452 -6.7367776e-05 0)
(1.016346 -4.245064e-05 0)
(0.75092616 -2.3445438e-05 0)
(0.53123178 -1.1708509e-05 0)
(0.35936679 -5.3131662e-06 0)
(0.230142 -2.1444441e-06 0)
(0.13563738 -7.1891653e-07 0)
(0.067849027 -1.6913547e-07 0)
(0.019873787 -2.4211533e-08 0)
(0.019872467 2.2541775e-08 0)
(0.067844581 1.5706213e-07 0)
(0.13562864 6.6816662e-07 0)
(0.23012754 1.9928679e-06 0)
(0.35934505 4.9383383e-06 0)
(0.53120156 1.0885666e-05 0)
(0.75088776 2.1809918e-05 0)
(1.0163035 3.9532395e-05 0)
(1.31211 6.2876751e-05 0)
(1.6051418 8.1702393e-05 0)
(1.8464178 7.4492224e-05 0)
(1.9840857 3.0444767e-05 0)
(1.9840857 -3.0444226e-05 0)
(1.8464178 -7.4491817e-05 0)
(1.6051418 -8.1702199e-05 0)
(1.31211 -6.2876704e-05 0)
(1.0163035 -3.9532282e-05 0)
(0.75088776 -2.1809515e-05 0)
(0.53120156 -1.0884987e-05 0)
(0.35934505 -4.9376676e-06 0)
(0.23012754 -1.9924207e-06 0)
(0.13562864 -6.6779276e-07 0)
(0.067844581 -1.5714629e-07 0)
(0.019872467 -2.2463791e-08 0)
(0.01987124 2.098181e-08 0)
(0.067840446 1.4620903e-07 0)
(0.13562051 6.220575e-07 0)
(0.23011408 1.8555667e-06 0)
(0.35932481 4.5989609e-06 0)
(0.53117342 1.0140642e-05 0)
(0.75085195 2.0327846e-05 0)
(1.0162638 3.6882042e-05 0)
(1.3120768 5.8777282e-05 0)
(1.6051327 7.6707119e-05 0)
(1.8464458 7.0451769e-05 0)
(1.9841412 2.8945601e-05 0)
(1.9841412 -2.8944994e-05 0)
(1.8464458 -7.0451337e-05 0)
(1.6051327 -7.670694e-05 0)
(1.3120768 -5.8777258e-05 0)
(1.0162638 -3.688189e-05 0)
(0.75085195 -2.0327291e-05 0)
(0.53117342 -1.0139729e-05 0)
(0.35932481 -4.5980721e-06 0)
(0.23011408 -1.8549815e-06 0)
(0.13562051 -6.2157312e-07 0)
(0.067840446 -1.4632011e-07 0)
(0.01987124 -2.0880512e-08 0)
(0.019870096 1.9565906e-08 0)
(0.067836592 1.3635622e-07 0)
(0.13561293 5.8018989e-07 0)
(0.23010153 1.7308659e-06 0)
(0.35930594 4.2906125e-06 0)
(0.53114716 9.4633091e-06 0)
(0.75081849 1.8978932e-05 0)
(1.0162266 3.4464668e-05 0)
(1.3120455 5.5021302e-05 0)
(1.6051237 7.2081185e-05 0)
(1.8464718 6.6643303e-05 0)
(1.9841938 2.7520187e-05 0)
(1.9841938 -2.7519512e-05 0)
(1.8464718 -6.6642846e-05 0)
(1.6051237 -7.2081031e-05 0)
(1.3120455 -5.502131e-05 0)
(1.0162266 -3.4464476e-05 0)
(0.75081849 -1.8978208e-05 0)
(0.53114716 -9.4621344e-06 0)
(0.35930594 -4.2894805e-06 0)
(0.23010153 -1.730127e-06 0)
(0.13561293 -5.7958239e-07 0)
(0.067836592 -1.3649757e-07 0)
(0.019870096 -1.9438579e-08 0)
(0.019869029 1.827521e-08 0)
(0.067832994 1.2737316e-07 0)
(0.13560586 5.4201111e-07 0)
(0.23008981 1.6171272e-06 0)
(0.35928831 4.009273e-06 0)
(0.53112262 8.8449501e-06 0)
(0.75078719 1.7746224e-05 0)
(1.0161917 3.2251328e-05 0)
(1.3120159 5.156861e-05 0)
(1.6051149 6.7786752e-05 0)
(1.846496 6.3053599e-05 0)
(1.9842436 2.6164488e-05 0)
(1.9842436 -2.6163753e-05 0)
(1.846496 -6.3053129e-05 0)
(1.6051149 -6.7786637e-05 0)
(1.312016 -5.1568664e-05 0)
(1.0161917 -3.2251101e-05 0)
(0.75078719 -1.7745318e-05 0)
(0.53112262 -8.8434871e-06 0)
(0.35928831 -4.0078724e-06 0)
(0.23008981 -1.6162185e-06 0)
(0.13560586 -5.4126747e-07 0)
(0.067832995 -1.2754821e-07 0)
(0.019869029 -1.8119056e-08 0)
(0.019868031 1.7094186e-08 0)
(0.067829631 1.1915221e-07 0)
(0.13559924 5.0706525e-07 0)
(0.23007886 1.5129992e-06 0)
(0.35927183 3.7516258e-06 0)
(0.53109966 8.2783725e-06 0)
(0.75075787 1.6615713e-05 0)
(1.0161589 3.0217935e-05 0)
(1.311988 4.8385176e-05 0)
(1.6051063 6.3794203e-05 0)
(1.8465187 5.966446e-05 0)
(1.9842909 2.4873141e-05 0)
(1.9842909 -2.4872363e-05 0)
(1.8465187 -5.9663995e-05 0)
(1.6051063 -6.3794149e-05 0)
(1.311988 -4.8385294e-05 0)
(1.0161589 -3.0217676e-05 0)
(0.75075787 -1.6614609e-05 0)
(0.53109965 -8.2765933e-06 0)
(0.35927183 -3.7499298e-06 0)
(0.23007886 -1.5119039e-06 0)
(0.13559924 -5.0617196e-07 0)
(0.067829631 -1.1936449e-07 0)
(0.019868031 -1.6906307e-08 0)
(0.019867097 1.6009857e-08 0)
(0.067826482 1.1160345e-07 0)
(0.13559305 4.7497145e-07 0)
(0.2300686 1.4173518e-06 0)
(0.35925639 3.5148929e-06 0)
(0.53107814 7.7575364e-06 0)
(0.75073038 1.5575607e-05 0)
(1.0161281 2.8344233e-05 0)
(1.3119617 4.5442344e-05 0)
(1.6050979 6.0074023e-05 0)
(1.8465398 5.6467438e-05 0)
(1.9843356 2.3643826e-05 0)
(1.9843356 -2.3643028e-05 0)
(1.8465398 -5.6467003e-05 0)
(1.6050979 -6.0074057e-05 0)
(1.3119617 -4.5442547e-05 0)
(1.0161281 -2.8343945e-05 0)
(0.75073038 -1.5574289e-05 0)
(0.53107814 -7.7554115e-06 0)
(0.35925639 -3.5128737e-06 0)
(0.2300686 -1.4160523e-06 0)
(0.13559305 -4.7391442e-07 0)
(0.067826482 -1.1185659e-07 0)
(0.019867097 -1.578724e-08 0)
(0.019866221 1.5011312e-08 0)
(0.067823531 1.0465122e-07 0)
(0.13558724 4.4540907e-07 0)
(0.23005898 1.3292341e-06 0)
(0.35924191 3.2967402e-06 0)
(0.53105796 7.2773737e-06 0)
(0.75070457 1.4616001e-05 0)
(1.0160992 2.6613034e-05 0)
(1.3119367 4.2715273e-05 0)
(1.6050897 5.6604541e-05 0)
(1.8465596 5.3444953e-05 0)
(1.984378 2.2471561e-05 0)
(1.984378 -2.247077e-05 0)
(1.8465596 -5.3444578e-05 0)
(1.6050897 -5.660469e-05 0)
(1.3119367 -4.2715582e-05 0)
(1.0160992 -2.6612721e-05 0)
(0.75070457 -1.4614451e-05 0)
(0.53105795 -7.2748718e-06 0)
(0.35924191 -3.2943682e-06 0)
(0.23005898 -1.3277118e-06 0)
(0.13558724 -4.4417355e-07 0)
(0.067823531 -1.0494895e-07 0)
(0.019866221 -1.4750818e-08 0)
(0.0198654 1.4089293e-08 0)
(0.067820761 9.8231392e-08 0)
(0.1355818 4.181064e-07 0)
(0.23004995 1.247839e-06 0)
(0.35922832 3.0951792e-06 0)
(0.531039 6.8335482e-06 0)
(0.75068032 1.3728401e-05 0)
(1.0160719 2.5009704e-05 0)
(1.3119132 4.0183071e-05 0)
(1.6050818 5.3361824e-05 0)
(1.8465781 5.0593191e-05 0)
(1.9844182 2.1355592e-05 0)
(1.9844182 -2.1354836e-05 0)
(1.8465781 -5.0592905e-05 0)
(1.6050819 -5.3362117e-05 0)
(1.3119132 -4.0183505e-05 0)
(1.0160719 -2.5009369e-05 0)
(0.75068032 -1.37266e-05 0)
(0.531039 -6.8306358e-06 0)
(0.35922832 -3.0924232e-06 0)
(0.23004995 -1.2460744e-06 0)
(0.1355818 -4.1667692e-07 0)
(0.067820762 -9.8577563e-08 0)
(0.0198654 -1.3787644e-08 0)
(0.019864628 1.3235857e-08 0)
(0.067818161 9.2288766e-08 0)
(0.13557668 3.9282941e-07 0)
(0.23004148 1.1724728e-06 0)
(0.35921555 2.9085088e-06 0)
(0.5310212 6.4223681e-06 0)
(0.75065752 1.290557e-05 0)
(1.0160463 2.3521542e-05 0)
(1.3118909 3.7826919e-05 0)
(1.6050743 5.0330049e-05 0)
(1.8465955 4.7893411e-05 0)
(1.9844563 2.029061e-05 0)
(1.9844563 -2.0289915e-05 0)
(1.8465955 -4.7893242e-05 0)
(1.6050743 -5.0330514e-05 0)
(1.3118909 -3.7827497e-05 0)
(1.0160463 -2.3521186e-05 0)
(0.75065752 -1.2903497e-05 0)
(0.53102119 -6.4190097e-06 0)
(0.35921555 -2.9053358e-06 0)
(0.23004148 -1.1704454e-06 0)
(0.13557668 -3.9118973e-07 0)
(0.067818161 -9.2687365e-08 0)
(0.019864628 -1.2889622e-08 0)
(0.019863903 1.2444233e-08 0)
(0.067815716 8.6776536e-08 0)
(0.13557187 3.6937979e-07 0)
(0.23003351 1.1025452e-06 0)
(0.35920355 2.7352682e-06 0)
(0.53100445 6.0406322e-06 0)
(0.75063606 1.2141222e-05 0)
(1.0160221 2.2137743e-05 0)
(1.3118699 3.5631436e-05 0)
(1.6050669 4.7489176e-05 0)
(1.8466118 4.5347133e-05 0)
(1.9844924 1.9277569e-05 0)
(1.9844924 -1.9276962e-05 0)
(1.8466118 -4.5347107e-05 0)
(1.6050669 -4.7489837e-05 0)
(1.3118699 -3.5632176e-05 0)
(1.0160221 -2.2137365e-05 0)
(0.75063606 -1.2138853e-05 0)
(0.53100445 -6.0367904e-06 0)
(0.35920355 -2.7316438e-06 0)
(0.23003351 -1.1002331e-06 0)
(0.13557187 -3.675129e-07 0)
(0.067815717 -8.7231725e-08 0)
(0.019863903 -1.2049821e-08 0)
(0.019863221 1.1708417e-08 0)
(0.067813416 8.1652789e-08 0)
(0.13556735 3.4757965e-07 0)
(0.23002601 1.0375299e-06 0)
(0.35919225 2.5741737e-06 0)
(0.53098868 5.6855652e-06 0)
(0.75061585 1.1429899e-05 0)
(1.0159993 2.0848558e-05 0)
(1.31185 3.3581666e-05 0)
(1.6050599 4.4827679e-05 0)
(1.8466271 4.293245e-05 0)
(1.9845266 1.8310044e-05 0)
(1.9845266 -1.8309545e-05 0)
(1.8466272 -4.2932589e-05 0)
(1.6050599 -4.482856e-05 0)
(1.31185 -3.3582586e-05 0)
(1.0159993 -2.0848159e-05 0)
(0.75061585 -1.1427211e-05 0)
(0.53098868 -5.6812007e-06 0)
(0.35919225 -2.5700613e-06 0)
(0.23002601 -1.0349106e-06 0)
(0.13556735 -3.4546768e-07 0)
(0.067813417 -8.2168898e-08 0)
(0.019863221 -1.1262067e-08 0)
(0.019862579 1.1023431e-08 0)
(0.067811252 7.6883364e-08 0)
(0.13556309 3.2728443e-07 0)
(0.23001895 9.7699411e-07 0)
(0.35918162 2.4241418e-06 0)
(0.53097384 5.3547669e-06 0)
(0.75059681 1.0766873e-05 0)
(1.0159778 1.9645977e-05 0)
(1.3118312 3.1666536e-05 0)
(1.6050532 4.2328581e-05 0)
(1.8466415 4.0657785e-05 0)
(1.984559 1.7391218e-05 0)
(1.984559 -1.7390846e-05 0)
(1.8466415 -4.0658111e-05 0)
(1.6050532 -4.2329706e-05 0)
(1.3118312 -3.1667654e-05 0)
(1.0159778 -1.9645556e-05 0)
(0.75059681 -1.0763842e-05 0)
(0.53097384 -5.3498393e-06 0)
(0.35918162 -2.4195038e-06 0)
(0.23001895 -9.7404376e-07 0)
(0.13556309 -3.249087e-07 0)
(0.067811253 -7.7464938e-08 0)
(0.019862579 -1.0521206e-08 0)
(0.019861974 1.038449e-08 0)
(0.067809213 7.2434442e-08 0)
(0.13555907 3.0835019e-07 0)
(0.2300123 9.2051541e-07 0)
(0.3591716 2.284157e-06 0)
(0.53095985 5.0460713e-06 0)
(0.75057886 1.0147879e-05 0)
(1.0159575 1.8522128e-05 0)
(1.3118134 2.9873236e-05 0)
(1.6050467 3.9983114e-05 0)
(1.8466551 3.8495425e-05 0)
(1.9845898 1.6512529e-05 0)
(1.9845898 -1.6512303e-05 0)
(1.8466551 -3.8495959e-05 0)
(1.6050467 -3.9984508e-05 0)
(1.3118134 -2.9874571e-05 0)
(1.0159575 -1.8521687e-05 0)
(0.75057886 -1.0144479e-05 0)
(0.53095984 -5.0405384e-06 0)
(0.3591716 -2.278954e-06 0)
(0.2300123 -9.1720936e-07 0)
(0.13555908 -3.0569128e-07 0)
(0.067809214 -7.3086263e-08 0)
(0.019861974 -9.8222754e-09 0)
(0.019861404 9.7881227e-09 0)
(0.067807291 6.828285e-08 0)
(0.13555529 2.9067933e-07 0)
(0.23000603 8.6779532e-07 0)
(0.35916216 2.1534453e-06 0)
(0.53094666 4.7577081e-06 0)
(0.75056194 9.5694077e-06 0)
(1.0159384 1.7471326e-05 0)
(1.3117965 2.8194717e-05 0)
(1.6050405 3.7777597e-05 0)
(1.8466677 3.6463409e-05 0)
(1.9846188 1.5680401e-05 0)
(1.9846188 -1.5680337e-05 0)
(1.8466678 -3.6464172e-05 0)
(1.6050405 -3.7779286e-05 0)
(1.3117965 -2.8196292e-05 0)
(1.0159384 -1.7470868e-05 0)
(0.75056193 -9.5656144e-06 0)
(0.53094666 -4.751526e-06 0)
(0.35916216 -2.1476362e-06 0)
(0.23000603 -8.6410749e-07 0)
(0.1355553 -2.8771696e-07 0)
(0.067807292 -6.9009683e-08 0)
(0.019861405 -9.1616759e-09 0)
(0.019860867 9.2300919e-09 0)
(0.067805479 6.4397747e-08 0)
(0.13555173 2.7413989e-07 0)
(0.23000012 8.184543e-07 0)
(0.35915325 2.0311285e-06 0)
(0.53093421 4.4878737e-06 0)
(0.75054596 9.027916e-06 0)
(1.0159203 1.6486632e-05 0)
(1.3117806 2.6618512e-05 0)
(1.6050346 3.5703795e-05 0)
(1.8466798 3.4524475e-05 0)
(1.9846465 1.4882679e-05 0)
(1.9846465 -1.4882795e-05 0)
(1.8466798 -3.4525491e-05 0)
(1.6050346 -3.5705806e-05 0)
(1.3117806 -2.662035e-05 0)
(1.0159203 -1.6486159e-05 0)
(0.75054596 -9.023704e-06 0)
(0.53093421 -4.4809983e-06 0)
(0.35915325 -2.0246717e-06 0)
(0.23000012 -8.1435845e-07 0)
(0.13555173 -2.7085341e-07 0)
(0.06780548 -6.5204621e-08 0)
(0.019860867 -8.5350502e-09 0)
(0.01986036 8.7086873e-09 0)
(0.06780377 6.0769434e-08 0)
(0.13554837 2.5869213e-07 0)
(0.22999455 7.7235374e-07 0)
(0.35914485 1.9167738e-06 0)
(0.53092248 4.2354351e-06 0)
(0.75053089 8.5211008e-06 0)
(1.0159032 1.556486e-05 0)
(1.3117655 2.514253e-05 0)
(1.605029 3.3753355e-05 0)
(1.846691 3.2710651e-05 0)
(1.9846726 1.4130778e-05 0)
(1.9846726 -1.4131091e-05 0)
(1.846691 -3.271194e-05 0)
(1.605029 -3.3755716e-05 0)
(1.3117655 -2.5144651e-05 0)
(1.0159032 -1.5564373e-05 0)
(0.75053088 -8.5164417e-06 0)
(0.53092248 -4.2278194e-06 0)
(0.35914485 -1.9096267e-06 0)
(0.22999455 -7.6782322e-07 0)
(0.13554837 -2.5506104e-07 0)
(0.067803772 -6.1661482e-08 0)
(0.01986036 -7.9406485e-09 0)
(0.019859881 8.219198e-09 0)
(0.067802156 5.7361825e-08 0)
(0.13554519 2.4418054e-07 0)
(0.22998928 7.2906288e-07 0)
(0.35913691 1.809458e-06 0)
(0.53091139 3.9986539e-06 0)
(0.75051664 8.0456118e-06 0)
(1.0158871 1.4698809e-05 0)
(1.3117512 2.3752033e-05 0)
(1.6050236 3.1914558e-05 0)
(1.8467017 3.0969673e-05 0)
(1.9846975 1.3406742e-05 0)
(1.9846975 -1.3407267e-05 0)
(1.8467017 -3.0971252e-05 0)
(1.6050236 -3.191729e-05 0)
(1.3117512 -2.3754454e-05 0)
(1.0158871 -1.4698303e-05 0)
(0.75051664 -8.0404706e-06 0)
(0.53091138 -3.9902448e-06 0)
(0.35913691 -1.8015741e-06 0)
(0.22998928 -7.2406873e-07 0)
(0.13554519 -2.401848e-07 0)
(0.067802158 -5.8342591e-08 0)
(0.019859882 -7.3741169e-09 0)
(0.01985943 7.7631759e-09 0)
(0.067800634 5.4190817e-08 0)
(0.13554219 2.3067529e-07 0)
(0.22998431 6.8873768e-07 0)
(0.35912943 1.709338e-06 0)
(0.53090093 3.7774022e-06 0)
(0.7505032 7.6009499e-06 0)
(1.0158719 1.3889176e-05 0)
(1.3117377 2.2453081e-05 0)
(1.6050185 3.0189853e-05 0)
(1.8467117 2.9354549e-05 0)
(1.9847208 1.2729905e-05 0)
(1.9847208 -1.2730654e-05 0)
(1.8467117 -2.9356426e-05 0)
(1.6050185 -3.019297e-05 0)
(1.3117377 -2.245581e-05 0)
(1.0158719 -1.3888635e-05 0)
(0.7505032 -7.5952863e-06 0)
(0.53090093 -3.7681467e-06 0)
(0.35912942 -1.7006723e-06 0)
(0.22998431 -6.8325332e-07 0)
(0.1355422 -2.2629506e-07 0)
(0.067800636 -5.5265197e-08 0)
(0.019859431 -6.8368719e-09 0)
(0.019859002 7.3327806e-09 0)
(0.067799192 5.1193938e-08 0)
(0.13553936 2.1790695e-07 0)
(0.22997961 6.5066109e-07 0)
(0.35912233 1.6150062e-06 0)
(0.53089102 3.5693429e-06 0)
(0.75049046 7.1828925e-06 0)
(1.0158574 1.3126226e-05 0)
(1.3117249 2.1223895e-05 0)
(1.6050136 2.8556511e-05 0)
(1.8467212 2.7790206e-05 0)
(1.9847433 1.2073209e-05 0)
(1.9847433 -1.2074187e-05 0)
(1.8467212 -2.7792376e-05 0)
(1.6050136 -2.8560008e-05 0)
(1.3117249 -2.1226919e-05 0)
(1.0158574 -1.3125623e-05 0)
(0.75049046 -7.176662e-06 0)
(0.53089102 -3.5591946e-06 0)
(0.35912233 -1.6055235e-06 0)
(0.22997961 -6.4467123e-07 0)
(0.13553936 -2.1312609e-07 0)
(0.067799194 -5.2372656e-08 0)
(0.019859003 -6.3204763e-09 0)
(0.0198586 6.9383323e-09 0)
(0.067797836 4.8454926e-08 0)
(0.13553669 2.0623405e-07 0)
(0.22997518 6.1575225e-07 0)
(0.35911566 1.5281126e-06 0)
(0.5308817 3.3767855e-06 0)
(0.75047848 6.795036e-06 0)
(1.0158438 1.2418903e-05 0)
(1.3117128 2.0086856e-05 0)
(1.6050089 2.704003e-05 0)
(1.84673 2.6362069e-05 0)
(1.9847642 1.1468884e-05 0)
(1.9847642 -1.1470078e-05 0)
(1.84673 -2.6364499e-05 0)
(1.605009 -2.7043879e-05 0)
(1.3117129 -2.0090136e-05 0)
(1.0158438 -1.2418181e-05 0)
(0.75047848 -6.7881705e-06 0)