/*--------------------------------*- C++ -*----------------------------------*\
  =========                 |
  \\      /  F ield         | OpenFOAM: The Open Source CFD Toolbox
   \\    /   O peration     | Website:  https://openfoam.org
    \\  /    A nd           | Version:  10
     \\/     M anipulation  |
\*---------------------------------------------------------------------------*/
FoamFile
{
    format      ascii;
    class       volScalarField;
    location    "0.7";
    object      T;
}
// * * * * * * * * * * * * * * * * * * * * * * * * * * * * * * * * * * * * * //

dimensions      [0 0 -1 0 0 0 0];

internalField   nonuniform List<scalar> 
100
(
-0.0788042
-0.233619
-0.380158
-0.51323
-0.62812
-0.720759
-0.787864
-0.827059
-0.836955
-0.817201
-0.768498
-0.69257
-0.592108
-0.47067
-0.332558
-0.182665
-0.0263012
0.130994
0.283649
0.426256
0.553762
0.661651
0.746101
0.80412
0.833652
0.833652
0.804119
0.7461
0.66165
0.553761
0.426254
0.283647
0.130992
-0.0263039
-0.182668
-0.33256
-0.470672
-0.59211
-0.692572
-0.768499
-0.817202
-0.836955
-0.827059
-0.787863
-0.720757
-0.628118
-0.513228
-0.380156
-0.233617
-0.0788023
0.0788041
0.233619
0.380158
0.513229
0.628119
0.720758
0.787864
0.827059
0.836955
0.817202
0.768499
0.692571
0.592109
0.470671
0.332559
0.182666
0.0263021
-0.130994
-0.283649
-0.426255
-0.553762
-0.661651
-0.746101
-0.80412
-0.833652
-0.833652
-0.804119
-0.7461
-0.66165
-0.553761
-0.426255
-0.283648
-0.130993
0.026303
0.182667
0.33256
0.470671
0.592109
0.692571
0.768499
0.817202
0.836955
0.827059
0.787863
0.720758
0.628119
0.513228
0.380156
0.233617
0.0788025
)
;

boundaryField
{
    inlet
    {
        type            cyclic;
    }
    outlet
    {
        type            cyclic;
    }
    bottom
    {
        type            slip;
    }
    top
    {
        type            slip;
    }
    frontAndBack
    {
        type            empty;
    }
}


// ************************************************************************* //
