/*--------------------------------*- C++ -*----------------------------------*\
  =========                 |
  \\      /  F ield         | OpenFOAM: The Open Source CFD Toolbox
   \\    /   O peration     | Website:  https://openfoam.org
    \\  /    A nd           | Version:  10
     \\/     M anipulation  |
\*---------------------------------------------------------------------------*/
FoamFile
{
    format      ascii;
    class       volScalarField;
    location    "0.05";
    object      T;
}
// * * * * * * * * * * * * * * * * * * * * * * * * * * * * * * * * * * * * * //

dimensions      [0 0 0 1 0 0 0];

internalField   nonuniform List<scalar> 
12225
(
1.00694
1.00397
1.00144
1.00053
1.00001
0.99965
0.999457
0.99937
0.999323
0.999289
0.999259
0.999205
0.999089
0.998798
0.998069
0.996308
0.99173
0.980714
0.994965
0.99447
0.996349
0.997908
0.99867
0.998979
0.999136
0.999239
0.999302
0.999331
0.999335
0.999306
0.999203
0.99893
0.998231
0.99655
0.992378
0.982576
0.999592
0.99992
1
0.999967
0.999819
0.999637
0.999514
0.999448
0.999409
0.999377
0.999342
0.999288
0.999173
0.998904
0.998247
0.996704
0.993073
0.985249
1.00032
1.00007
0.999547
0.99942
0.999421
0.999388
0.999355
0.999341
0.999334
0.999323
0.999303
0.999261
0.99916
0.998917
0.99833
0.996983
0.99399
0.987997
1.00013
0.999833
0.999434
0.999387
0.999436
0.999423
0.999388
0.999365
0.999348
0.99933
0.999304
0.99926
0.999163
0.99894
0.998428
0.997296
0.994924
0.990485
0.999993
0.999846
0.999578
0.999496
0.999494
0.99946
0.999412
0.999376
0.99935
0.999324
0.999293
0.999246
0.999154
0.998958
0.998525
0.997612
0.995803
0.992604
0.999975
0.999925
0.999719
0.999592
0.999547
0.999498
0.999443
0.999399
0.999362
0.999329
0.999292
0.999241
0.999155
0.998985
0.998631
0.997922
0.996588
0.994338
0.999983
0.999963
0.999798
0.999661
0.999596
0.999539
0.999477
0.999423
0.999378
0.999336
0.999294
0.99924
0.999158
0.999009
0.998717
0.998157
0.997147
0.995496
0.999986
0.999973
0.99984
0.999706
0.999627
0.99956
0.999491
0.99943
0.999377
0.999329
0.999281
0.999225
0.999146
0.999015
0.998774
0.99833
0.997557
0.996326
0.999984
0.999963
0.999852
0.999723
0.999631
0.999554
0.999478
0.99941
0.99935
0.999296
0.999243
0.999185
0.999111
0.998997
0.998802
0.998463
0.997894
0.997012
0.99998
0.999942
0.99984
0.999715
0.999612
0.999524
0.999441
0.999365
0.9993
0.99924
0.999183
0.999124
0.999054
0.998957
0.998803
0.998552
0.998151
0.997546
0.999976
0.999921
0.999818
0.999694
0.999583
0.999486
0.999398
0.999317
0.999245
0.99918
0.99912
0.99906
0.998995
0.998912
0.998793
0.998614
0.998342
0.997946
0.999975
0.999912
0.999811
0.99969
0.999577
0.999476
0.999384
0.9993
0.999224
0.999156
0.999095
0.999036
0.998973
0.998903
0.998814
0.998688
0.998511
0.998263
0.999978
0.999919
0.999828
0.999717
0.99961
0.999512
0.999421
0.999338
0.999264
0.999196
0.999137
0.99908
0.999023
0.998964
0.998897
0.998811
0.998698
0.998551
0.999982
0.999936
0.999861
0.999769
0.999677
0.99959
0.999511
0.999438
0.99937
0.999308
0.999254
0.999204
0.999158
0.999111
0.99906
0.999002
0.998934
0.99885
0.999987
0.999957
0.999905
0.99984
0.999774
0.999712
0.999654
0.9996
0.999548
0.999503
0.999462
0.999426
0.999393
0.99936
0.999325
0.99929
0.999252
0.999208
0.999993
0.999986
0.999968
0.999941
0.999912
0.999886
0.999864
0.999841
0.99982
0.999801
0.999783
0.999767
0.999755
0.999742
0.999729
0.999714
0.999698
0.999682
1
1.00003
1.00005
1.00007
1.00009
1.00011
1.00013
1.00015
1.00017
1.00018
1.0002
1.00021
1.00022
1.00023
1.00024
1.00024
1.00025
1.00025
1.00001
1.00006
1.00011
1.00017
1.00022
1.00028
1.00034
1.00039
1.00043
1.00048
1.00051
1.00055
1.00058
1.0006
1.00063
1.00065
1.00067
1.00068
1.00001
1.00006
1.00012
1.00019
1.00026
1.00033
1.00039
1.00046
1.00052
1.00057
1.00062
1.00067
1.00071
1.00075
1.00078
1.00081
1.00084
1.00086
1.00001
1.00006
1.00012
1.00018
1.00025
1.00031
1.00038
1.00045
1.00051
1.00057
1.00062
1.00068
1.00072
1.00077
1.00081
1.00085
1.00088
1.00091
1.00001
1.00006
1.00012
1.00017
1.00023
1.0003
1.00036
1.00043
1.00049
1.00055
1.00061
1.00067
1.00072
1.00077
1.00081
1.00085
1.00089
1.00092
1
1.00008
1.00013
1.00016
1.00021
1.00027
1.00034
1.00041
1.00048
1.00054
1.0006
1.00066
1.00071
1.00076
1.00081
1.00085
1.00089
1.00093
0.999997
1.0001
1.00014
1.00015
1.00019
1.00026
1.00033
1.0004
1.00047
1.00054
1.00061
1.00067
1.00072
1.00077
1.00082
1.00086
1.00091
1.00094
1
1.00009
1.0001
1.00012
1.00019
1.00028
1.00035
1.00042
1.00049
1.00056
1.00063
1.00069
1.00074
1.00079
1.00084
1.00088
1.00093
1.00097
1.00014
1.00014
0.999953
0.999972
1.00014
1.00029
1.00039
1.00047
1.00055
1.00062
1.00068
1.00074
1.0008
1.00084
1.00089
1.00093
1.00097
1.00101
1.0005
1.00058
1.0001
0.999927
1.00003
1.00018
1.00031
1.00042
1.00053
1.00062
1.0007
1.00076
1.00082
1.00088
1.00093
1.00097
1.00102
1.00106
1.00004
1.00088
1.00115
1.00111
1.00099
1.00088
1.00081
1.0008
1.00082
1.00085
1.00088
1.00092
1.00096
1.00099
1.00103
1.00106
1.0011
1.00113
0.994517
0.993822
0.99606
0.998048
0.999185
0.99978
1.00015
1.0004
1.00059
1.00072
1.00083
1.00091
1.00098
1.00104
1.00109
1.00114
1.00118
1.00121
1.00648
1.00454
1.00223
1.0015
1.00119
1.00097
1.00088
1.00087
1.00089
1.00092
1.00096
1.00099
1.00103
1.00107
1.0011
1.00114
1.00117
1.00122
0.501242
0.501207
0.501104
0.500951
0.500757
0.500521
0.500241
0.499917
0.499554
0.499152
0.498712
0.498237
0.497726
0.497183
0.496609
0.496006
0.495378
0.494726
0.494055
0.493368
0.492667
0.491957
0.49124
0.490521
0.489804
0.489091
0.488386
0.487691
0.487006
0.486338
0.485696
0.485102
0.484605
0.484294
0.484007
0.483626
0.483276
0.482929
0.482598
0.482292
0.481993
0.48176
0.481618
0.481491
0.48142
0.481436
0.481495
0.481604
0.481764
0.481972
0.482227
0.482529
0.482876
0.483266
0.483699
0.484173
0.484688
0.485241
0.48583
0.486456
0.487115
0.487806
0.488527
0.489278
0.490056
0.490859
0.491685
0.492533
0.493401
0.494288
0.495192
0.49611
0.497042
0.497985
0.498938
0.4999
0.500869
0.501844
0.502823
0.503804
0.504787
0.505771
0.506753
0.507733
0.50871
0.509683
0.51065
0.511611
0.512565
0.513511
0.514447
0.515374
0.516291
0.517195
0.518087
0.518966
0.519828
0.520674
0.521507
0.522326
0.523128
0.523913
0.52468
0.525429
0.526159
0.526869
0.527558
0.528226
0.528873
0.529498
0.5301
0.530678
0.531233
0.531762
0.532267
0.532746
0.533198
0.533622
0.534019
0.534388
0.534727
0.535035
0.535313
0.535558
0.535771
0.53595
0.536096
0.536207
0.536282
0.536322
0.536325
0.53629
0.536217
0.536105
0.535953
0.53576
0.535526
0.535249
0.53493
0.534566
0.534158
0.533704
0.533203
0.532653
0.532054
0.531405
0.530705
0.529953
0.529147
0.528288
0.527373
0.526402
0.525375
0.52429
0.523146
0.521942
0.520679
0.519354
0.517966
0.516516
0.515002
0.513421
0.511769
0.510037
0.508225
0.506344
0.504396
0.50238
0.500297
0.498145
0.495923
0.49363
0.491264
0.488825
0.486315
0.483735
0.481108
0.478384
0.475841
0.472653
0.502558
0.502513
0.502424
0.502285
0.502102
0.501876
0.501605
0.501289
0.500928
0.500523
0.500077
0.499593
0.499073
0.49852
0.497937
0.497328
0.496693
0.496038
0.495364
0.494676
0.493977
0.493272
0.492564
0.491859
0.491161
0.490477
0.489813
0.489174
0.488565
0.487991
0.487448
0.486928
0.486418
0.485803
0.485142
0.484613
0.484166
0.483794
0.483488
0.483232
0.483038
0.482882
0.482733
0.482652
0.48264
0.482654
0.482713
0.482818
0.482972
0.483174
0.483424
0.483719
0.48406
0.484445
0.484872
0.48534
0.485849
0.486396
0.48698
0.487599
0.488252
0.488938
0.489654
0.490398
0.49117
0.491968
0.492788
0.493631
0.494494
0.495376
0.496274
0.497187
0.498114
0.499053
0.500002
0.50096
0.501925
0.502896
0.503871
0.504849
0.505828
0.506809
0.507788
0.508765
0.50974
0.51071
0.511674
0.512633
0.513584
0.514528
0.515462
0.516387
0.517301
0.518203
0.519093
0.519971
0.520836
0.521688
0.522525
0.523344
0.524145
0.52493
0.525696
0.526444
0.527172
0.527881
0.528569
0.529236
0.529882
0.530505
0.531106
0.531683
0.532235
0.532764
0.533266
0.533743
0.534193
0.534616
0.535011
0.535377
0.535713
0.536019
0.536294
0.536537
0.536746
0.536922
0.537065
0.537172
0.537244
0.537279
0.537278
0.537239
0.537162
0.537045
0.536888
0.53669
0.53645
0.536168
0.535843
0.535473
0.535059
0.534598
0.53409
0.533533
0.532927
0.53227
0.531562
0.530801
0.529987
0.529119
0.528195
0.527215
0.526178
0.525083
0.523929
0.522715
0.521441
0.520105
0.518707
0.517245
0.515719
0.514127
0.51247
0.510749
0.508961
0.507106
0.505182
0.503189
0.501127
0.498994
0.496791
0.494515
0.492167
0.489745
0.487252
0.484688
0.482075
0.47938
0.476801
0.473842
0.505278
0.505196
0.505087
0.504936
0.50474
0.504497
0.504206
0.503869
0.503488
0.503065
0.502602
0.502101
0.501564
0.500995
0.500396
0.499771
0.499121
0.498451
0.497764
0.497064
0.496353
0.495637
0.494918
0.494202
0.493492
0.492792
0.492105
0.491433
0.490778
0.490141
0.489524
0.488931
0.48837
0.48783
0.487315
0.486843
0.486413
0.48603
0.485699
0.485422
0.485203
0.485041
0.484928
0.484862
0.484837
0.484851
0.484911
0.485016
0.485168
0.485365
0.485609
0.485899
0.486232
0.48661
0.487029
0.48749
0.48799
0.488529
0.489105
0.489716
0.490361
0.491039
0.491747
0.492485
0.493249
0.49404
0.494854
0.495691
0.496549
0.497425
0.498319
0.499228
0.500151
0.501086
0.502033
0.502988
0.503952
0.504921
0.505896
0.506874
0.507854
0.508835
0.509816
0.510796
0.511772
0.512745
0.513714
0.514677
0.515633
0.516581
0.517521
0.518452
0.519372
0.520281
0.521179
0.522063
0.522934
0.523791
0.524633
0.52546
0.52627
0.527063
0.527839
0.528596
0.529334
0.530052
0.53075
0.531427
0.532083
0.532717
0.533327
0.533914
0.534477
0.535016
0.535529
0.536016
0.536476
0.536909
0.537314
0.537689
0.538036
0.538351
0.538635
0.538887
0.539106
0.539291
0.539441
0.539557
0.539637
0.539681
0.539687
0.539655
0.539584
0.539474
0.539323
0.539131
0.538897
0.53862
0.538299
0.537934
0.537523
0.537065
0.53656
0.536006
0.535401
0.534746
0.534039
0.533279
0.532465
0.531597
0.530672
0.529691
0.528653
0.527556
0.5264
0.525183
0.523906
0.522566
0.521165
0.519699
0.51817
0.516575
0.514916
0.513196
0.511411
0.50956
0.507639
0.50565
0.503592
0.501463
0.499262
0.496989
0.494643
0.492222
0.489729
0.487164
0.484543
0.481841
0.479219
0.476363
0.50934
0.509221
0.509085
0.508914
0.508696
0.508428
0.508112
0.50775
0.507343
0.506895
0.506407
0.505882
0.505322
0.50473
0.50411
0.503463
0.502793
0.502103
0.501397
0.500679
0.499952
0.499219
0.498485
0.497753
0.497027
0.49631
0.495606
0.494916
0.494245
0.493596
0.492972
0.492378
0.491816
0.491282
0.49078
0.490319
0.489898
0.48952
0.489186
0.488899
0.48866
0.48847
0.488328
0.488236
0.488191
0.488192
0.48824
0.488334
0.488475
0.488661
0.488893
0.48917
0.489491
0.489855
0.490261
0.490707
0.491194
0.491719
0.492281
0.492879
0.493511
0.494176
0.494872
0.495597
0.49635
0.497129
0.497933
0.49876
0.499609
0.500477
0.501362
0.502265
0.503182
0.504112
0.505053
0.506005
0.506966
0.507933
0.508907
0.509885
0.510866
0.511848
0.512832
0.513814
0.514795
0.515773
0.516747
0.517716
0.518679
0.519636
0.520584
0.521524
0.522455
0.523375
0.524283
0.525179
0.526063
0.526933
0.527789
0.528629
0.529453
0.530261
0.531051
0.531824
0.532578
0.533312
0.534026
0.53472
0.535392
0.536043
0.53667
0.537275
0.537855
0.538411
0.538941
0.539446
0.539923
0.540374
0.540795
0.541188
0.541551
0.541884
0.542184
0.542452
0.542687
0.542888
0.543054
0.543185
0.54328
0.543338
0.543359
0.54334
0.543283
0.543185
0.543047
0.542867
0.542644
0.542378
0.542067
0.541711
0.541309
0.54086
0.540362
0.539815
0.539217
0.538568
0.537866
0.537111
0.536301
0.535436
0.534515
0.533536
0.5325
0.531404
0.530249
0.529033
0.527755
0.526416
0.525013
0.523546
0.522016
0.52042
0.51876
0.517036
0.515248
0.513392
0.511468
0.509476
0.507414
0.505281
0.503077
0.500801
0.49845
0.496025
0.493525
0.490951
0.488313
0.485594
0.482926
0.480082
0.514735
0.51458
0.514417
0.514226
0.513985
0.513691
0.513347
0.512955
0.512519
0.512041
0.511522
0.510967
0.510377
0.509756
0.509106
0.508432
0.507735
0.507019
0.506289
0.505546
0.504796
0.504041
0.503286
0.502533
0.501787
0.501051
0.500329
0.499624
0.49894
0.498279
0.497645
0.497041
0.496468
0.495927
0.495421
0.494953
0.494526
0.494142
0.493801
0.493504
0.493254
0.49305
0.492892
0.492782
0.49272
0.492704
0.492735
0.492813
0.492936
0.493106
0.49332
0.493579
0.493882
0.494227
0.494615
0.495043
0.495511
0.496017
0.496561
0.497141
0.497755
0.498402
0.499081
0.49979
0.500528
0.501292
0.502082
0.502895
0.503731
0.504587
0.505462
0.506355
0.507263
0.508185
0.50912
0.510067
0.511022
0.511987
0.512958
0.513934
0.514915
0.515898
0.516883
0.517869
0.518854
0.519837
0.520817
0.521793
0.522764
0.523729
0.524687
0.525638
0.526579
0.527511
0.528433
0.529343
0.530241
0.531126
0.531997
0.532854
0.533695
0.53452
0.535328
0.536119
0.536892
0.537646
0.53838
0.539093
0.539786
0.540457
0.541106
0.541731
0.542333
0.54291
0.543461
0.543987
0.544486
0.544957
0.5454
0.545814
0.546198
0.546551
0.546872
0.54716
0.547414
0.547635
0.54782
0.54797
0.548083
0.548159
0.548197
0.548196
0.548155
0.548073
0.54795
0.547784
0.547575
0.547322
0.547024
0.54668
0.546289
0.54585
0.545362
0.544824
0.544234
0.543592
0.542897
0.542147
0.541343
0.540482
0.539565
0.538589
0.537555
0.536462
0.535307
0.534092
0.532814
0.531474
0.53007
0.528603
0.52707
0.525473
0.52381
0.522082
0.520289
0.518428
0.5165
0.514503
0.512436
0.510299
0.508091
0.505809
0.503454
0.501023
0.498515
0.49593
0.493276
0.490537
0.487829
0.484948
0.521481
0.521295
0.521108
0.520895
0.52063
0.520308
0.519934
0.519511
0.519041
0.518529
0.517976
0.517386
0.516762
0.516106
0.515423
0.514716
0.513987
0.513241
0.512481
0.511711
0.510933
0.510153
0.509373
0.508597
0.50783
0.507074
0.506333
0.50561
0.50491
0.504234
0.503586
0.502968
0.502382
0.501829
0.501312
0.500833
0.500394
0.499996
0.499642
0.499331
0.499066
0.498846
0.498672
0.498544
0.498462
0.498427
0.498437
0.498493
0.498595
0.498742
0.498934
0.499169
0.499448
0.49977
0.500134
0.500538
0.500982
0.501464
0.501984
0.502541
0.503132
0.503757
0.504413
0.505101
0.505818
0.506563
0.507334
0.508129
0.508948
0.509788
0.510648
0.511527
0.512423
0.513334
0.514259
0.515196
0.516144
0.517102
0.518068
0.519041
0.520019
0.521001
0.521986
0.522973
0.52396
0.524947
0.525931
0.526913
0.527891
0.528865
0.529832
0.530793
0.531746
0.53269
0.533624
0.534548
0.535461
0.536362
0.537249
0.538123
0.538983
0.539826
0.540654
0.541465
0.542258
0.543032
0.543788
0.544523
0.545238
0.545932
0.546603
0.547252
0.547876
0.548477
0.549052
0.549601
0.550124
0.550619
0.551085
0.551522
0.551929
0.552305
0.552649
0.552959
0.553236
0.553479
0.553685
0.553856
0.55399
0.554086
0.554143
0.554161
0.554138
0.554074
0.553967
0.553818
0.553625
0.553386
0.553102
0.552772
0.552393
0.551966
0.551488
0.55096
0.550379
0.549746
0.549058
0.548315
0.547516
0.54666
0.545747
0.544775
0.543743
0.542651
0.541498
0.540283
0.539005
0.537664
0.536259
0.534789
0.533254
0.531654
0.529988
0.528256
0.526458
0.524593
0.522659
0.520658
0.518586
0.516444
0.514231
0.511945
0.509584
0.507147
0.504631
0.502036
0.499367
0.496607
0.493864
0.490924
0.529608
0.529401
0.529193
0.528957
0.528666
0.528315
0.527909
0.527452
0.526947
0.526398
0.525807
0.52518
0.524518
0.523825
0.523105
0.522362
0.521599
0.520819
0.520026
0.519224
0.518417
0.517609
0.516802
0.516001
0.51521
0.514432
0.51367
0.512928
0.512209
0.511515
0.51085
0.510215
0.509612
0.509043
0.50851
0.508014
0.507559
0.507144
0.506772
0.506442
0.506157
0.505916
0.50572
0.505569
0.505463
0.505403
0.505388
0.505418
0.505492
0.505611
0.505775
0.505982
0.506232
0.506524
0.506857
0.507232
0.507646
0.508099
0.50859
0.509117
0.509679
0.510276
0.510905
0.511566
0.512257
0.512976
0.513723
0.514495
0.515291
0.516111
0.516951
0.517811
0.518689
0.519584
0.520494
0.521418
0.522355
0.523302
0.524259
0.525223
0.526195
0.527173
0.528154
0.529139
0.530125
0.531113
0.532099
0.533085
0.534067
0.535046
0.536021
0.53699
0.537952
0.538906
0.539853
0.540789
0.541716
0.542631
0.543534
0.544425
0.545301
0.546163
0.54701
0.54784
0.548653
0.549449
0.550226
0.550983
0.55172
0.552437
0.553131
0.553803
0.554452
0.555076
0.555676
0.556249
0.556796
0.557316
0.557807
0.558268
0.5587
0.559099
0.559467
0.559801
0.560102
0.560367
0.560597
0.56079
0.560945
0.561062
0.56114
0.561178
0.561174
0.561129
0.561041
0.560909
0.560732
0.56051
0.560241
0.559924
0.559559
0.559144
0.558678
0.55816
0.557589
0.556964
0.556284
0.555548
0.554756
0.553905
0.552996
0.552027
0.550998
0.549908
0.548756
0.547542
0.546263
0.544921
0.543514
0.542042
0.540505
0.538901
0.537232
0.535496
0.533693
0.531823
0.529884
0.527878
0.525801
0.523655
0.521437
0.519145
0.51678
0.514337
0.511815
0.50921
0.506528
0.503748
0.500972
0.497969
0.539171
0.538947
0.538718
0.538458
0.538139
0.537758
0.537319
0.536826
0.536284
0.535697
0.535067
0.5344
0.533698
0.532966
0.532207
0.531425
0.530624
0.529808
0.52898
0.528145
0.527306
0.526467
0.525632
0.524804
0.523987
0.523184
0.522399
0.521634
0.520893
0.520178
0.519491
0.518835
0.518212
0.517622
0.517069
0.516552
0.516075
0.515638
0.515243
0.51489
0.514579
0.514312
0.514089
0.51391
0.513775
0.513684
0.513638
0.513636
0.513677
0.513763
0.513892
0.514064
0.514279
0.514535
0.514833
0.515171
0.515549
0.515966
0.516421
0.516913
0.51744
0.518002
0.518597
0.519225
0.519883
0.520571
0.521287
0.522029
0.522797
0.523589
0.524403
0.525238
0.526093
0.526966
0.527855
0.52876
0.529678
0.530609
0.531551
0.532503
0.533463
0.53443
0.535403
0.536381
0.537362
0.538345
0.539329
0.540313
0.541296
0.542277
0.543254
0.544227
0.545195
0.546157
0.547111
0.548057
0.548994
0.549921
0.550837
0.551741
0.552632
0.55351
0.554373
0.555221
0.556052
0.556866
0.557663
0.558441
0.559199
0.559937
0.560653
0.561347
0.562019
0.562666
0.563289
0.563886
0.564457
0.565
0.565515
0.566
0.566455
0.566879
0.56727
0.567628
0.567952
0.56824
0.568492
0.568707
0.568885
0.569023
0.569122
0.56918
0.569196
0.56917
0.5691
0.568985
0.568826
0.568619
0.568366
0.568064
0.567712
0.56731
0.566856
0.566349
0.565788
0.565172
0.5645
0.563772
0.562985
0.56214
0.561236
0.560271
0.559245
0.558157
0.557006
0.555792
0.554513
0.55317
0.551762
0.550288
0.548747
0.547141
0.545467
0.543727
0.54192
0.540045
0.538102
0.536091
0.53401
0.531858
0.529636
0.527341
0.52497
0.522523
0.519995
0.517384
0.51469
0.511894
0.50909
0.506027
0.550231
0.549991
0.549741
0.549455
0.549107
0.548694
0.548221
0.547692
0.547112
0.546485
0.545815
0.545106
0.544363
0.543589
0.542789
0.541967
0.541127
0.540273
0.539408
0.538537
0.537664
0.536793
0.535926
0.535068
0.534223
0.533392
0.53258
0.53179
0.531023
0.530283
0.529571
0.52889
0.528242
0.527627
0.527048
0.526506
0.526002
0.525538
0.525114
0.524731
0.52439
0.524091
0.523835
0.523622
0.523452
0.523325
0.523241
0.523201
0.523204
0.523249
0.523338
0.523468
0.523641
0.523855
0.52411
0.524406
0.524741
0.525115
0.525526
0.525975
0.52646
0.52698
0.527534
0.52812
0.528739
0.529387
0.530065
0.53077
0.531502
0.532259
0.533039
0.533842
0.534666
0.535509
0.53637
0.537248
0.538142
0.539049
0.539969
0.5409
0.541841
0.542791
0.543749
0.544712
0.545681
0.546653
0.547628
0.548604
0.549581
0.550557
0.551531
0.552503
0.553471
0.554433
0.55539
0.55634
0.557282
0.558216
0.559139
0.560052
0.560954
0.561842
0.562718
0.563579
0.564424
0.565253
0.566066
0.56686
0.567635
0.568391
0.569126
0.56984
0.570531
0.571198
0.571841
0.572459
0.573051
0.573616
0.574153
0.57466
0.575137
0.575582
0.575995
0.576375
0.57672
0.57703
0.577303
0.57754
0.577738
0.577896
0.578015
0.578092
0.578127
0.578119
0.578067
0.57797
0.577826
0.577636
0.577397
0.577109
0.576771
0.576381
0.575939
0.575442
0.574891
0.574284
0.573621
0.5729
0.57212
0.57128
0.570381
0.56942
0.568397
0.567311
0.566161
0.564948
0.563669
0.562326
0.560916
0.55944
0.557898
0.556288
0.554612
0.552868
0.551057
0.549177
0.54723
0.545215
0.54313
0.540975
0.538749
0.53645
0.534077
0.531627
0.529096
0.52648
0.52378
0.520971
0.518144
0.51503
0.562857
0.562601
0.562329
0.562017
0.561638
0.561192
0.560683
0.560116
0.559497
0.558829
0.558117
0.557365
0.556579
0.555763
0.55492
0.554056
0.553175
0.55228
0.551377
0.550468
0.549559
0.548652
0.547751
0.546861
0.545983
0.545122
0.54428
0.54346
0.542664
0.541894
0.541153
0.540443
0.539765
0.53912
0.53851
0.537937
0.537401
0.536903
0.536445
0.536027
0.535649
0.535312
0.535017
0.534763
0.534552
0.534382
0.534255
0.534169
0.534126
0.534125
0.534166
0.534248
0.534372
0.534536
0.534741
0.534986
0.53527
0.535593
0.535954
0.536352
0.536786
0.537256
0.53776
0.538297
0.538867
0.539468
0.540098
0.540757
0.541444
0.542157
0.542895
0.543656
0.544439
0.545244
0.546068
0.54691
0.547769
0.548643
0.549532
0.550434
0.551347
0.552271
0.553204
0.554144
0.555091
0.556044
0.557001
0.557961
0.558924
0.559887
0.56085
0.561812
0.562771
0.563727
0.564679
0.565625
0.566565
0.567498
0.568422
0.569337
0.570241
0.571134
0.572015
0.572882
0.573736
0.574574
0.575396
0.576201
0.576988
0.577756
0.578505
0.579232
0.579938
0.580621
0.58128
0.581914
0.582523
0.583105
0.583659
0.584184
0.584679
0.585143
0.585575
0.585973
0.586337
0.586665
0.586957
0.587212
0.587428
0.587605
0.587741
0.587835
0.587887
0.587896
0.587859
0.587778
0.587649
0.587473
0.587248
0.586973
0.586647
0.586269
0.585838
0.585351
0.58481
0.584212
0.583556
0.582842
0.582068
0.581234
0.580339
0.579382
0.578362
0.577279
0.576131
0.574919
0.573641
0.572297
0.570887
0.569409
0.567865
0.566254
0.564575
0.562828
0.561014
0.559132
0.557181
0.555163
0.553075
0.550918
0.54869
0.54639
0.544016
0.541565
0.539033
0.536416
0.533713
0.530897
0.528056
0.5249
0.57713
0.576858
0.576562
0.57622
0.575809
0.575328
0.574781
0.574175
0.573514
0.572803
0.572048
0.571252
0.570421
0.569559
0.568672
0.567764
0.566839
0.565902
0.564957
0.564008
0.56306
0.562115
0.561177
0.56025
0.559337
0.558441
0.557565
0.556711
0.555881
0.555077
0.554303
0.553558
0.552844
0.552164
0.551518
0.550908
0.550333
0.549796
0.549297
0.548837
0.548416
0.548035
0.547694
0.547393
0.547133
0.546914
0.546735
0.546598
0.546501
0.546446
0.546431
0.546457
0.546524
0.54663
0.546777
0.546963
0.547188
0.547451
0.547752
0.54809
0.548465
0.548875
0.54932
0.549798
0.550309
0.550852
0.551425
0.552028
0.552659
0.553318
0.554002
0.554711
0.555444
0.556199
0.556974
0.55777
0.558583
0.559414
0.56026
0.561121
0.561996
0.562882
0.563779
0.564686
0.565601
0.566524
0.567452
0.568385
0.569322
0.570262
0.571203
0.572145
0.573086
0.574025
0.574962
0.575895
0.576823
0.577745
0.57866
0.579567
0.580466
0.581354
0.582232
0.583098
0.58395
0.584789
0.585613
0.586421
0.587212
0.587985
0.58874
0.589474
0.590187
0.590879
0.591547
0.592192
0.592812
0.593405
0.593971
0.594508
0.595016
0.595493
0.595938
0.59635
0.596728
0.59707
0.597377
0.597646
0.597876
0.598067
0.598217
0.598326
0.598392
0.598414
0.598391
0.598322
0.598206
0.598043
0.597829
0.597566
0.59725
0.596882
0.59646
0.595983
0.59545
0.59486
0.594211
0.593503
0.592735
0.591907
0.591016
0.590063
0.589047
0.587966
0.58682
0.585609
0.584332
0.582989
0.581579
0.580101
0.578556
0.576943
0.575263
0.573515
0.571699
0.569815
0.567863
0.565843
0.563754
0.561596
0.559368
0.557069
0.554697
0.552248
0.549719
0.547105
0.544405
0.541588
0.53874
0.535554
0.593139
0.59285
0.592527
0.592153
0.591706
0.591187
0.5906
0.589952
0.589246
0.58849
0.587688
0.586845
0.585966
0.585056
0.584122
0.583166
0.582195
0.581212
0.580223
0.57923
0.578239
0.577252
0.576273
0.575306
0.574353
0.573418
0.572503
0.57161
0.570741
0.569898
0.569084
0.568299
0.567545
0.566823
0.566135
0.565481
0.564862
0.564278
0.563732
0.563223
0.562752
0.562319
0.561925
0.561569
0.561253
0.560976
0.560739
0.560541
0.560383
0.560265
0.560187
0.560148
0.560149
0.560188
0.560267
0.560385
0.560541
0.560735
0.560966
0.561234
0.561539
0.561878
0.562253
0.562661
0.563103
0.563577
0.564081
0.564616
0.56518
0.565772
0.566391
0.567036
0.567705
0.568397
0.569112
0.569848
0.570603
0.571377
0.572168
0.572976
0.573798
0.574634
0.575482
0.576342
0.577212
0.578091
0.578978
0.579871
0.58077
0.581674
0.58258
0.58349
0.5844
0.58531
0.58622
0.587127
0.588031
0.588932
0.589826
0.590715
0.591596
0.592469
0.593333
0.594186
0.595028
0.595857
0.596673
0.597474
0.598259
0.599028
0.599779
0.600511
0.601224
0.601915
0.602585
0.603231
0.603854
0.60445
0.605021
0.605563
0.606077
0.60656
0.607012
0.607432
0.607818
0.608169
0.608484
0.608762
0.609002
0.609202
0.609362
0.60948
0.609555
0.609587
0.609574
0.609515
0.609408
0.609254
0.609049
0.608794
0.608487
0.608127
0.607713
0.607243
0.606717
0.606133
0.60549
0.604788
0.604025
0.603201
0.602315
0.601366
0.600352
0.599274
0.598131
0.596922
0.595647
0.594305
0.592895
0.591418
0.589874
0.588261
0.586581
0.584832
0.583016
0.581132
0.579181
0.577161
0.575073
0.572917
0.570692
0.568396
0.566028
0.563585
0.561063
0.558457
0.555764
0.552953
0.550108
0.546905
0.610985
0.610675
0.610323
0.609912
0.609426
0.608864
0.608232
0.607536
0.606782
0.605975
0.605121
0.604226
0.603295
0.602333
0.601346
0.600339
0.599317
0.598284
0.597245
0.596204
0.595165
0.594132
0.593107
0.592095
0.591098
0.590118
0.589158
0.588221
0.587308
0.58642
0.58556
0.584729
0.583928
0.583158
0.58242
0.581715
0.581044
0.580408
0.579806
0.579241
0.578712
0.578219
0.577763
0.577345
0.576965
0.576622
0.576317
0.57605
0.575822
0.575632
0.57548
0.575367
0.575292
0.575255
0.575256
0.575295
0.575371
0.575485
0.575635
0.575822
0.576044
0.576302
0.576594
0.576921
0.57728
0.577672
0.578095
0.578548
0.579031
0.579543
0.580083
0.580648
0.58124
0.581856
0.582495
0.583157
0.583839
0.584542
0.585263
0.586002
0.586757
0.587528
0.588312
0.58911
0.58992
0.590741
0.591571
0.59241
0.593256
0.594108
0.594966
0.595828
0.596694
0.597561
0.598429
0.599297
0.600164
0.601028
0.601889
0.602746
0.603597
0.604441
0.605278
0.606106
0.606924
0.607732
0.608527
0.60931
0.610078
0.610831
0.611568
0.612287
0.612988
0.613669
0.61433
0.614969
0.615584
0.616176
0.616741
0.61728
0.617791
0.618273
0.618724
0.619143
0.61953
0.619882
0.620199
0.62048
0.620722
0.620926
0.62109
0.621212
0.621292
0.621328
0.62132
0.621266
0.621165
0.621016
0.620817
0.620567
0.620265
0.619911
0.619501
0.619037
0.618515
0.617936
0.617298
0.6166
0.615841
0.615021
0.614138
0.613192
0.612182
0.611107
0.609966
0.60876
0.607487
0.606146
0.604739
0.603264
0.601721
0.60011
0.598431
0.596684
0.59487
0.592988
0.591039
0.589022
0.586938
0.584787
0.582567
0.580278
0.577917
0.575483
0.572973
0.570379
0.5677
0.564903
0.562068
0.558861
0.630778
0.630444
0.630057
0.629604
0.629071
0.628459
0.627775
0.627024
0.626213
0.625348
0.624435
0.62348
0.622489
0.621468
0.620422
0.619357
0.618277
0.617188
0.616094
0.614999
0.613906
0.612821
0.611744
0.610681
0.609633
0.608603
0.607593
0.606605
0.60564
0.604701
0.603788
0.602904
0.602048
0.601223
0.600428
0.599665
0.598934
0.598236
0.597572
0.596941
0.596345
0.595784
0.595258
0.594768
0.594314
0.593895
0.593513
0.593167
0.592858
0.592586
0.592351
0.592152
0.59199
0.591865
0.591777
0.591725
0.59171
0.591731
0.591788
0.591881
0.592008
0.592171
0.592367
0.592597
0.59286
0.593155
0.593482
0.593839
0.594227
0.594643
0.595088
0.595559
0.596058
0.596581
0.597129
0.597699
0.598293
0.598907
0.599542
0.600195
0.600867
0.601556
0.60226
0.602979
0.603712
0.604458
0.605215
0.605982
0.606759
0.607544
0.608337
0.609136
0.609939
0.610747
0.611558
0.612371
0.613185
0.613998
0.61481
0.61562
0.616425
0.617227
0.618022
0.618811
0.619592
0.620364
0.621126
0.621876
0.622615
0.623339
0.624049
0.624744
0.625421
0.62608
0.62672
0.62734
0.627938
0.628513
0.629064
0.629589
0.630087
0.630558
0.630999
0.631409
0.631787
0.632133
0.632444
0.632719
0.632957
0.633157
0.633318
0.633438
0.633516
0.633551
0.633543
0.633488
0.633388
0.633239
0.633041
0.632793
0.632493
0.63214
0.631733
0.63127
0.630751
0.630174
0.629538
0.628843
0.628087
0.62727
0.62639
0.625446
0.624439
0.623367
0.622229
0.621025
0.619755
0.618417
0.617013
0.61554
0.614
0.612393
0.610717
0.608974
0.607164
0.605287
0.603342
0.601331
0.599254
0.59711
0.594898
0.592619
0.59027
0.58785
0.585355
0.582779
0.580121
0.577344
0.57453
0.57133
0.652642
0.652278
0.651849
0.651345
0.650756
0.650084
0.649336
0.648518
0.647638
0.646702
0.645718
0.644692
0.64363
0.642538
0.641423
0.64029
0.639144
0.63799
0.636832
0.635675
0.634522
0.633376
0.632241
0.63112
0.630014
0.628926
0.627858
0.626812
0.625789
0.624791
0.623818
0.622872
0.621954
0.621064
0.620204
0.619374
0.618574
0.617805
0.617068
0.616364
0.615691
0.615051
0.614445
0.613872
0.613333
0.612828
0.612358
0.611922
0.61152
0.611154
0.610823
0.610527
0.610266
0.61004
0.60985
0.609694
0.609574
0.609489
0.609438
0.609422
0.609441
0.609493
0.609578
0.609697
0.609848
0.610031
0.610245
0.61049
0.610765
0.611069
0.611402
0.611762
0.61215
0.612563
0.613001
0.613464
0.61395
0.614459
0.614988
0.615539
0.616109
0.616697
0.617303
0.617925
0.618563
0.619215
0.619881
0.620559
0.621249
0.621949
0.622658
0.623376
0.624101
0.624833
0.625569
0.62631
0.627053
0.627799
0.628545
0.629291
0.630036
0.630778
0.631517
0.632251
0.632979
0.6337
0.634414
0.635118
0.635811
0.636494
0.637163
0.637819
0.638459
0.639084
0.639691
0.640279
0.640847
0.641394
0.641918
0.642419
0.642894
0.643342
0.643763
0.644154
0.644515
0.644844
0.64514
0.645401
0.645626
0.645815
0.645965
0.646075
0.646145
0.646172
0.646156
0.646096
0.64599
0.645837
0.645635
0.645383
0.645081
0.644725
0.644317
0.643853
0.643333
0.642756
0.642121
0.641426
0.640671
0.639855
0.638976
0.638035
0.63703
0.63596
0.634825
0.633624
0.632357
0.631023
0.629622
0.628154
0.626619
0.625016
0.623346
0.621609
0.619805
0.617934
0.615998
0.613995
0.611927
0.609794
0.607594
0.605329
0.602996
0.600593
0.598119
0.595566
0.592934
0.590186
0.587401
0.584222
0.676746
0.676343
0.675861
0.675292
0.674631
0.673879
0.673047
0.672141
0.671171
0.670143
0.669067
0.66795
0.666799
0.66562
0.66442
0.663204
0.661978
0.660747
0.659514
0.658284
0.65706
0.655845
0.654642
0.653453
0.65228
0.651126
0.649992
0.648879
0.647788
0.646722
0.64568
0.644663
0.643673
0.642709
0.641773
0.640865
0.639986
0.639135
0.638314
0.637523
0.636762
0.636032
0.635333
0.634665
0.634028
0.633424
0.632852
0.632312
0.631805
0.631331
0.63089
0.630482
0.630107
0.629766
0.629458
0.629184
0.628943
0.628736
0.628562
0.628421
0.628313
0.628239
0.628196
0.628186
0.628208
0.628262
0.628346
0.628461
0.628605
0.628779
0.628982
0.629212
0.62947
0.629755
0.630065
0.630401
0.630761
0.631144
0.631551
0.631979
0.632428
0.632897
0.633385
0.633892
0.634415
0.634956
0.635511
0.636082
0.636665
0.637262