/*--------------------------------*- C++ -*----------------------------------*\
  =========                 |
  \\      /  F ield         | OpenFOAM: The Open Source CFD Toolbox
   \\    /   O peration     | Website:  https://openfoam.org
    \\  /    A nd           | Version:  10
     \\/     M anipulation  |
\*---------------------------------------------------------------------------*/
FoamFile
{
    format      ascii;
    class       volScalarField;
    location    "5.5";
    object      T;
}
// * * * * * * * * * * * * * * * * * * * * * * * * * * * * * * * * * * * * * //

dimensions      [0 0 0 1 0 0 0];

internalField   nonuniform List<scalar> 
10000
(
374.919
361.066
356.231
354.027
352.762
351.909
351.271
350.759
350.328
349.954
349.621
349.319
349.041
348.783
348.542
348.315
348.101
347.898
347.705
347.521
347.346
347.18
347.021
346.869
346.724
346.587
346.455
346.33
346.212
346.099
345.991
345.89
345.793
345.702
345.616
345.535
345.458
345.386
345.318
345.254
345.195
345.139
345.086
345.038
344.992
344.95
344.91
344.874
344.84
344.809
344.78
344.753
344.728
344.706
344.685
344.666
344.649
344.633
344.618
344.605
344.593
344.582
344.573
344.564
344.556
344.549
344.542
344.537
344.532
344.527
344.524
344.52
344.517
344.515
344.513
344.511
344.509
344.508
344.507
344.507
344.506
344.506
344.506
344.506
344.506
344.507
344.508
344.508
344.509
344.51
344.512
344.513
344.514
344.516
344.517
344.519
344.521
344.523
344.525
344.529
388.391
374.16
366.041
361.119
357.853
355.493
353.666
352.176
350.91
349.804
348.815
347.915
347.087
346.318
345.598
344.919
344.278
343.671
343.093
342.543
342.019
341.52
341.043
340.589
340.156
339.743
339.349
338.975
338.619
338.28
337.959
337.654
337.365
337.092
336.834
336.59
336.36
336.144
335.94
335.749
335.57
335.403
335.246
335.099
334.963
334.836
334.718
334.608
334.507
334.413
334.326
334.246
334.172
334.104
334.042
333.985
333.933
333.885
333.842
333.802
333.767
333.734
333.705
333.678
333.655
333.633
333.614
333.597
333.582
333.569
333.557
333.547
333.538
333.531
333.524
333.519
333.515
333.511
333.508
333.506
333.505
333.505
333.505
333.505
333.506
333.508
333.51
333.512
333.515
333.518
333.521
333.525
333.529
333.534
333.538
333.544
333.549
333.554
333.56
333.567
392.852
381.159
372.669
366.569
362.052
358.561
355.745
353.388
351.356
349.56
347.943
346.467
345.103
343.833
342.641
341.518
340.455
339.447
338.488
337.575
336.704
335.874
335.082
334.327
333.606
332.919
332.265
331.642
331.049
330.486
329.951
329.444
328.963
328.508
328.079
327.673
327.29
326.93
326.592
326.274
325.976
325.697
325.436
325.192
324.965
324.753
324.557
324.374
324.205
324.049
323.904
323.771
323.648
323.535
323.432
323.337
323.25
323.17
323.098
323.033
322.973
322.919
322.87
322.826
322.787
322.751
322.719
322.691
322.666
322.644
322.625
322.608
322.593
322.58
322.57
322.561
322.553
322.548
322.543
322.54
322.538
322.537
322.537
322.537
322.539
322.541
322.545
322.549
322.553
322.558
322.564
322.571
322.577
322.585
322.593
322.601
322.61
322.619
322.629
322.639
394.685
384.968
376.916
370.448
365.24
360.969
357.383
354.299
351.589
349.164
346.962
344.938
343.061
341.305
339.655
338.097
336.621
335.218
333.883
332.611
331.398
330.241
329.136
328.082
327.076
326.118
325.204
324.334
323.506
322.72
321.973
321.264
320.593
319.958
319.357
318.79
318.256
317.753
317.28
316.836
316.419
316.029
315.664
315.324
315.006
314.711
314.436
314.181
313.945
313.726
313.524
313.338
313.166
313.008
312.864
312.731
312.609
312.499
312.398
312.306
312.222
312.147
312.079
312.017
311.962
311.912
311.868
311.829
311.794
311.763
311.736
311.712
311.691
311.674
311.659
311.646
311.636
311.628
311.621
311.617
311.614
311.612
311.612
311.613
311.616
311.619
311.624
311.629
311.635
311.643
311.651
311.659
311.669
311.679
311.69
311.702
311.715
311.728
311.741
311.755
395.581
387.128
379.591
373.081
367.508
362.715
358.545
354.865
351.57
348.582
345.843
343.307
340.942
338.723
336.63
334.65
332.77
330.982
329.279
327.654
326.103
324.623
323.21
321.861
320.573
319.345
318.175
317.061
316
314.992
314.034
313.126
312.266
311.451
310.681
309.955
309.269
308.624
308.017
307.448
306.914
306.413
305.946
305.509
305.102
304.722
304.37
304.043
303.74
303.459
303.2
302.961
302.741
302.539
302.353
302.183
302.027
301.885
301.755
301.637
301.53
301.434
301.346
301.267
301.196
301.133
301.076
301.025
300.98
300.941
300.906
300.875
300.849
300.826
300.807
300.791
300.778
300.767
300.759
300.753
300.749
300.747
300.747
300.748
300.751
300.756
300.761
300.768
300.777
300.786
300.796
300.807
300.82
300.833
300.847
300.862
300.878
300.894
300.912
300.93
396.067
388.389
381.253
374.794
369.019
363.867
359.25
355.083
351.287
347.8
344.571
341.561
338.737
336.077
333.561
331.173
328.902
326.739
324.676
322.706
320.824
319.027
317.31
315.67
314.104
312.611
311.187
309.831
308.54
307.313
306.147
305.041
303.993
303.001
302.064
301.178
300.344
299.558
298.819
298.124
297.474
296.864
296.294
295.762
295.266
294.804
294.374
293.976
293.606
293.264
292.949
292.657
292.389
292.142
291.916
291.708
291.519
291.345
291.187
291.044
290.913
290.795
290.689
290.592
290.506
290.428
290.359
290.297
290.242
290.194
290.152
290.115
290.082
290.055
290.031
290.012
289.995
289.983
289.973
289.965
289.96
289.958
289.958
289.959
289.963
289.968
289.975
289.983
289.993
290.004
290.017
290.031
290.045
290.061
290.079
290.097
290.116
290.136
290.157
290.179
396.342
389.126
382.255
375.844
369.936
364.517
359.547
354.974
350.746
346.816
343.143
339.695
336.443
333.365
330.445
327.666
325.018
322.491
320.077
317.77
315.565
313.457
311.442
309.517
307.678
305.923
304.249
302.655
301.137
299.693
298.322
297.021
295.788
294.621
293.517
292.475
291.492
290.567
289.697
288.88
288.113
287.396
286.724
286.098
285.513
284.969
284.464
283.994
283.559
283.156
282.785
282.441
282.125
281.835
281.568
281.324
281.1
280.896
280.71
280.541
280.387
280.248
280.122
280.009
279.907
279.816
279.734
279.661
279.597
279.54
279.49
279.446
279.408
279.375
279.348
279.324
279.305
279.29
279.278
279.27
279.264
279.261
279.26
279.262
279.266
279.272
279.28
279.29
279.302
279.315
279.329
279.345
279.363
279.381
279.401
279.423
279.445
279.469
279.494
279.52
396.494
389.538
382.815
376.418
370.396
364.759
359.495
354.576
349.969
345.642
341.566
337.712
334.06
330.588
327.283
324.13
321.119
318.24
315.487
312.853
310.332
307.92
305.614
303.409
301.302
299.29
297.371
295.542
293.801
292.144
290.57
289.077
287.661
286.321
285.053
283.857
282.728
281.665
280.665
279.727
278.846
278.022
277.251
276.53
275.859
275.234
274.653
274.113
273.613
273.151
272.723
272.329
271.965
271.632
271.325
271.044
270.787
270.552
270.339
270.144
269.968
269.808
269.663
269.533
269.415
269.31
269.216
269.133
269.059
268.993
268.935
268.885
268.841
268.804
268.772
268.745
268.723
268.705
268.692
268.682
268.675
268.672
268.671
268.673
268.678
268.684
268.693
268.705
268.718
268.732
268.749
268.767
268.787
268.808
268.831
268.856
268.881
268.908
268.937
268.966
396.569
389.737
383.073
376.647
370.507
364.674
359.151
353.926
348.982
344.296
339.849
335.621
331.593
327.75
324.08
320.569
317.209
313.992
310.91
307.958
305.131
302.423
299.832
297.353
294.984
292.721
290.561
288.502
286.541
284.675
282.902
281.219
279.624
278.113
276.685
275.335
274.063
272.865
271.737
270.679
269.686
268.756
267.886
267.074
266.316
265.611
264.956
264.347
263.783
263.261
262.779
262.334
261.924
261.547
261.201
260.884
260.594
260.33
260.088
259.869
259.669
259.489
259.326
259.179
259.046
258.928
258.822
258.727
258.643
258.569
258.504
258.447
258.398
258.355
258.319
258.289
258.264
258.244
258.228
258.217
258.209
258.205
258.204
258.207
258.212
258.219
258.229
258.242
258.256
258.273
258.291
258.312
258.334
258.358
258.383
258.411
258.439
258.47
258.502
258.534
396.592
389.791
383.117
376.624
370.354
364.333
358.57
353.067
347.813
342.799
338.01
333.432
329.052
324.858
320.84
316.988
313.294
309.751
306.352
303.092
299.967
296.972
294.104
291.358
288.732
286.223
283.828
281.544
279.368
277.297
275.328
273.459
271.687
270.009
268.422
266.923
265.51
264.178
262.925
261.748
260.645
259.611
258.644
257.741
256.899
256.115
255.386
254.709
254.082
253.502
252.965
252.471
252.015
251.596
251.211
250.859
250.536
250.242
249.973
249.729
249.507
249.307
249.125
248.961
248.814
248.682
248.564
248.459
248.366
248.283
248.211
248.147
248.092
248.045
248.005
247.971
247.943
247.921
247.903
247.89
247.882
247.877
247.876
247.878
247.883
247.892
247.903
247.916
247.932
247.95
247.971
247.993
248.017
248.044
248.072
248.102
248.134
248.167
248.202
248.238
396.58
389.744
383.008
376.414
369.999
363.789
357.799
352.034
346.493
341.173
336.064
331.158
326.447
321.921
317.573
313.395
309.38
305.523
301.819
298.262
294.848
291.574
288.436
285.431
282.555
279.806
277.181
274.677
272.29
270.018
267.858
265.807
263.862
262.02
260.278
258.632
257.079
255.616
254.24
252.948
251.735
250.599
249.537
248.545
247.62
246.758
245.957
245.213
244.524
243.886
243.297
242.753
242.252
241.791
241.368
240.981
240.626
240.303
240.007
239.739
239.495
239.274
239.075
238.895
238.733
238.588
238.458
238.342
238.239
238.149
238.069
237.999
237.939
237.886
237.842
237.805
237.774
237.749
237.73
237.715
237.706
237.7
237.699
237.701
237.707
237.716
237.727
237.742
237.759
237.779
237.801
237.825
237.852
237.881
237.911
237.944
237.978
238.015
238.053
238.092
396.542
389.624
382.787
376.065
369.491
363.089
356.876
350.861
345.049
339.44
334.03
328.815
323.79
318.949
314.286
309.797
305.475
301.317
297.317
293.473
289.781
286.236
282.837
279.58
276.461
273.478
270.629
267.909
265.317
262.849
260.502
258.273
256.159
254.156
252.261
250.471
248.782
247.191
245.694
244.288
242.969
241.733
240.577
239.497
238.491
237.553
236.681
235.872
235.121
234.427
233.785
233.193
232.648
232.146
231.686
231.264
230.878
230.525
230.204
229.912
229.646
229.406
229.188
228.992
228.816
228.658
228.516
228.39
228.278
228.179
228.092
228.016
227.95
227.893
227.845
227.804
227.77
227.743
227.722
227.706
227.695
227.689
227.687
227.689
227.695
227.705
227.717
227.733
227.751
227.772
227.796
227.822
227.851
227.882
227.915
227.95
227.987
228.026
228.067
228.11
396.485
389.451
382.484
375.613
368.866
362.267
355.834
349.578
343.506
337.622
331.926
326.418
321.094
315.953
310.99
306.202
301.586
297.138
292.856
288.735
284.773
280.967
277.314
273.811
270.457
267.247
264.179
261.25
258.458
255.798
253.269
250.866
248.586
246.426
244.383
242.452
240.63
238.913
237.298
235.781
234.357
233.023
231.775
230.61
229.523
228.511
227.57
226.696
225.886
225.136
224.443
223.804
223.215
222.673
222.176
221.72
221.303
220.923
220.576
220.26
219.973
219.713
219.478
219.266
219.076
218.905
218.752
218.616
218.495
218.388
218.294
218.211
218.14
218.078
218.025
217.981
217.945
217.915
217.892
217.874
217.862
217.856
217.853
217.855
217.861
217.871
217.884
217.901
217.92
217.943
217.968
217.996
218.026
218.059
218.094
218.132
218.171
218.213
218.257
218.302
396.416
389.238
382.12
375.083
368.154
361.354
354.701
348.208
341.885
335.737
329.769
323.98
318.372
312.944
307.694
302.621
297.723
292.997
288.441
284.053
279.831
275.772
271.874
268.134
264.55
261.12
257.84
254.708
251.72
248.874
246.167
243.595
241.154
238.841
236.652
234.584
232.632
230.792
229.062
227.436
225.91
224.48
223.143
221.893
220.728
219.643
218.634
217.697
216.828
216.024
215.281
214.596
213.964
213.383
212.85
212.361
211.914
211.506
211.133
210.795
210.487
210.208
209.956
209.729
209.524
209.341
209.177
209.03
208.9
208.786
208.684
208.596
208.519
208.453
208.396
208.348
208.309
208.277
208.252
208.233
208.22
208.212
208.209
208.211
208.217
208.227
208.241
208.258
208.279
208.302
208.329
208.358
208.39
208.425
208.462
208.502
208.544
208.588
208.634
208.682
396.336
388.997
381.711
374.496
367.376
360.372
353.5
346.775
340.207
333.805
327.574
321.517
315.636
309.933
304.409
299.062
293.892
288.899
284.081
279.436
274.962
270.659
266.524
262.555
258.749
255.105
251.619
248.29
245.113
242.086
239.205
236.468
233.87
231.408
229.078
226.875
224.797
222.838
220.995
219.262
217.637
216.114
214.689
213.358
212.116
210.96
209.884
208.885
207.96
207.103
206.311
205.58
204.907
204.287
203.719
203.198
202.721
202.286
201.889
201.527
201.199
200.902
200.633
200.391
200.173
199.977
199.802
199.645
199.507
199.384
199.276
199.181
199.099
199.028
198.967
198.916
198.874
198.839
198.812
198.792
198.778
198.769
198.766
198.767
198.773
198.784
198.798
198.816
198.837
198.862
198.89
198.921
198.954
198.991
199.03
199.071
199.115
199.162
199.21
199.261
396.249
388.736
381.27
373.868
366.551
359.339
352.249
345.296
338.49
331.841
325.356
319.04
312.898
306.932
301.144
295.534
290.104
284.854
279.783
274.89
270.175
265.636
261.272
257.081
253.061
249.209
245.524
242.003
238.643
235.44
232.392
229.494
226.744
224.136
221.669
219.336
217.134
215.059
213.106
211.27
209.547
207.933
206.423
205.012
203.696
202.47
201.33
200.271
199.289
198.381
197.541
196.766
196.052
195.395
194.793
194.24
193.734
193.272
192.851
192.468
192.12
191.804
191.519
191.262
191.03
190.823
190.637
190.471
190.323
190.193
190.078
189.978
189.89
189.815
189.75
189.696
189.65
189.613
189.584
189.562
189.547
189.537
189.533
189.535
189.541
189.551
189.566
189.584
189.606
189.632
189.661
189.693
189.728
189.766
189.806
189.85
189.896
189.944
189.995
190.048
396.158
388.46
380.806
373.21
365.693
358.272
350.965
343.786
336.747
329.858
323.128
316.563
310.169
303.95
297.908
292.046
286.366
280.869
275.554
270.423
265.475
260.709
256.124
251.718
247.491
243.44
239.562
235.855
232.317
228.944
225.733
222.68
219.781
217.033
214.432
211.973
209.651
207.463
205.403
203.467
201.65
199.947
198.353
196.865
195.476
194.182
192.979
191.862
190.826
189.867
188.981
188.163
187.409
186.716
186.08
185.496
184.962
184.475
184.03
183.626
183.258
182.925
182.624
182.352
182.107
181.888
181.691
181.516
181.36
181.222
181.101
180.994
180.902
180.822
180.753
180.695
180.647
180.608
180.577
180.553
180.536
180.526
180.521
180.522
180.528
180.538
180.553
180.572
180.595
180.621
180.651
180.684
180.72
180.76
180.802
180.847
180.894
180.945
180.998
181.052
396.063
388.174
380.326
372.533
364.812
357.182
349.66
342.258
334.991
327.87
320.902
314.097
307.46
300.996
294.711
288.607
282.686
276.951
271.403
266.042
260.87
255.884
251.086
246.474
242.047
237.802
233.738
229.852
226.142
222.604
219.235
216.032
212.99
210.106
207.375
204.793
202.355
200.057
197.893
195.859
193.951
192.162
190.488
188.924
187.465
186.105
184.841
183.667
182.578
181.57
180.639
179.779
178.987
178.258
177.589
176.976
176.414
175.902
175.434
175.008
174.622
174.272
173.955
173.669
173.411
173.18
172.974
172.789
172.625
172.48
172.352
172.24
172.142
172.058
171.985
171.924
171.873
171.831
171.798
171.773
171.755
171.743
171.738
171.738
171.744
171.754
171.769
171.788
171.812
171.839
171.869
171.903
171.941
171.981
172.024
172.071
172.12
172.172
172.227
172.283
395.966
387.882
379.838
371.845
363.92
356.081
348.345
340.725
333.235
325.886
318.689
311.65
304.779
298.081
291.561
285.223
279.071
273.108
267.335
261.753
256.365
251.169
246.166
241.354
236.734
232.303
228.059
224
220.124
216.427
212.905
209.556
206.376
203.36
200.503
197.802
195.252
192.847
190.583
188.455
186.458
184.586
182.833
181.196
179.668
178.245
176.922
175.692
174.552
173.497
172.521
171.621
170.791
170.028
169.327
168.685
168.097
167.56
167.07
166.624
166.219
165.852
165.52
165.22
164.95
164.708
164.491
164.298
164.126
163.973
163.839
163.721
163.619
163.53
163.454
163.389
163.335
163.291
163.256
163.229
163.209
163.197
163.191
163.19
163.196
163.206
163.221
163.24
163.264
163.291
163.323
163.357
163.396
163.437
163.482
163.529
163.58
163.633
163.69
163.747
395.868
387.587
379.345
371.151
363.023
354.977
347.03
339.196
331.488
323.918
316.497
309.233
302.136
295.211
288.465
281.903
275.528
269.345
263.356
257.562
251.966
246.568
241.367
236.364
231.558
226.947
222.53
218.304
214.268
210.417
206.748
203.259
199.944
196.801
193.823
191.007
188.348
185.84
183.48
181.26
179.176
177.223
175.395
173.687
172.093
170.609
169.227
167.944
166.755
165.653
164.635
163.695
162.829
162.033
161.301
160.63
160.017
159.456
158.944
158.479
158.056
157.672
157.326
157.013
156.731
156.478
156.251
156.049
155.869
155.709
155.569
155.446
155.338
155.245
155.165
155.097
155.041
154.994
154.957
154.928
154.907
154.893
154.886
154.885
154.89
154.9
154.915
154.935
154.958
154.986
155.018
155.053
155.092
155.135
155.18
155.229
155.281
155.335
155.393
155.452
395.769
387.292
378.851
370.458
362.128
353.877
345.723
337.678
329.757
321.973
314.335
306.853
299.537
292.394
285.431
278.652
272.064
265.67
259.473
253.475
247.679
242.086
236.695
231.508
226.523
221.74
217.156
212.769
208.578
204.579
200.769
197.144
193.7
190.433
187.339
184.412
181.648
179.041
176.586
174.278
172.112
170.081
168.179
166.403
164.745
163.2
161.763
160.429
159.191
158.045
156.985
156.007
155.106
154.277
153.516
152.818
152.179
151.595
151.063
150.578
150.138
149.739
149.378
149.052
148.758
148.494
148.258
148.047
147.86
147.694
147.547
147.418
147.306
147.209
147.125
147.054
146.994
146.945
146.906
146.876
146.853
146.838
146.83
146.829
146.833
146.843
146.857
146.877
146.901
146.929
146.961
146.997
147.036
147.079
147.125
147.175
147.228
147.283
147.342
147.402
395.671
386.998
378.361
369.769
361.24
352.788
344.429
336.179
328.051
320.057
312.209
304.517
296.99
289.636
282.464
275.477
268.684
262.086
255.69
249.496
243.509
237.728
232.155
226.791
221.634
216.684
211.94
207.399
203.059
198.918
194.971
191.216
187.648
184.262
181.055
178.021
175.156
172.453
169.908
167.515
165.268
163.161
161.19
159.347
157.627
156.025
154.534
153.149
151.865
150.676
149.577
148.562
147.627
146.766
145.976
145.252
144.589
143.983
143.43
142.927
142.47
142.055
141.68
141.342
141.037
140.763
140.517
140.298
140.103
139.93
139.778
139.644
139.527
139.425
139.338
139.264
139.202
139.15
139.109
139.077
139.053
139.037
139.028
139.025
139.029
139.038
139.052
139.072
139.096
139.124
139.156
139.192
139.232
139.276
139.322
139.373
139.426
139.482
139.542
139.603
395.575
386.708
377.876
369.089
360.363
351.713
343.156
334.705
326.375
318.178
310.127
302.231
294.5
286.944
279.569
272.384
265.392
258.6
252.012
245.63
239.459
233.498
227.751
222.216
216.894
211.785
206.887
202.197
197.715
193.436
189.359
185.478
181.79
178.29
174.975
171.838
168.875
166.08
163.448
160.973
158.648
156.469
154.43
152.523
150.744
149.086
147.543
146.11
144.781
143.55
142.413
141.362
140.394
139.504
138.686
137.936
137.249
136.622
136.05
135.529
135.055
134.626
134.237
133.887
133.571
133.287
133.033
132.805
132.603
132.424
132.265
132.126
132.005
131.899
131.808
131.731
131.666
131.612
131.569
131.535
131.509
131.492
131.482
131.478
131.481
131.49
131.504
131.523
131.547
131.575
131.607
131.644
131.684
131.728
131.775
131.825
131.879
131.936
131.996
132.058
395.479
386.422
377.399
368.421
359.502
350.658
341.906
333.26
324.734
316.341
308.092
300
292.073
284.321
276.753
269.375
262.194
255.215
248.443
241.881
235.533
229.4
223.485
217.787
212.307
207.045
201.999
197.167
192.547
188.137
183.934
179.932
176.129
172.52
169.101
165.865
162.808
159.925
157.209
154.654
152.256
150.007
147.902
145.934
144.097
142.385
140.793
139.314
137.941
136.671
135.496
134.411
133.412
132.492
131.647
130.873
130.164
129.515
128.924
128.386
127.897
127.453
127.052
126.689
126.363
126.069
125.806
125.571
125.362
125.177
125.013
124.868
124.742
124.633
124.539
124.458
124.39
124.334
124.289
124.253
124.226
124.207
124.196
124.192
124.194
124.202
124.215
124.234
124.257
124.285
124.318
124.354
124.394
124.438
124.485
124.536
124.591
124.648
124.709
124.771
395.386
386.141
376.932
367.765
358.658
349.626
340.685
331.849
323.133
314.549
306.111
297.828
289.713
281.773
274.018
266.456
259.093
251.935
244.986
238.251
231.734
225.436
219.36
213.506
207.875
202.466
197.278
192.31
187.559
183.023
178.698
174.582
170.668
166.954
163.435
160.104
156.957
153.989
151.192
148.562
146.092
143.776
141.608
139.581
137.689
135.926
134.286
132.762
131.348
130.039
128.828
127.711
126.681
125.733
124.863
124.064
123.333
122.666
122.056
121.501
120.997
120.54
120.126
119.752
119.415
119.112
118.841
118.598
118.382
118.191
118.021
117.872
117.742
117.628
117.531
117.447
117.377
117.318
117.271
117.233
117.204
117.184
117.172
117.166
117.168
117.175
117.188
117.206
117.229
117.257
117.289
117.325
117.365
117.409
117.456
117.507
117.562
117.619
117.68
117.743
395.295
385.868
376.475
367.126
357.836
348.62
339.495
330.475
321.575
312.808
304.185
295.72
287.423
279.303
271.369
263.63
256.092
248.762
241.644
234.744
228.065
221.609
215.379
209.376
203.599
198.05
192.727
187.628
182.752
178.095
173.655
169.427
165.408
161.594
157.978
154.557
151.324
148.273
145.4
142.697
140.159
137.778
135.55
133.466
131.522
129.709
128.023
126.456
125.002
123.656
122.411
121.262
120.203
119.228
118.333
117.512
116.76
116.073
115.446
114.875
114.356
113.886
113.46
113.075
112.728
112.416
112.137
111.887
111.665
111.467
111.292
111.139
111.004
110.887
110.786
110.699
110.626
110.565
110.515
110.476
110.446
110.424
110.411
110.404
110.404
110.411
110.423
110.441
110.463
110.49
110.522
110.558
110.598
110.642
110.689
110.74
110.794
110.852
110.913
110.975
395.206
385.601
376.031
366.504
357.036
347.643
338.34
329.142
320.064
311.119
302.32
293.679
285.206
276.913
268.808
260.899
253.194
245.699
238.42
231.362
224.528
217.921
211.543
205.397
199.482
193.799
188.346
183.122
178.126
173.353
168.803
164.469
160.35
156.439
152.731
149.223
145.907
142.779
139.832
137.059
134.456
132.014
129.727
127.589
125.594
123.734
122.004
120.396
118.904
117.522
116.245
115.065
113.978
112.978
112.059
111.216
110.444
109.738
109.094
108.508
107.975
107.492
107.054
106.659
106.303
105.982
105.695
105.438
105.209
105.006
104.826
104.668
104.529
104.408
104.304
104.214
104.139
104.075
104.024
103.982
103.95
103.927
103.912
103.905
103.904
103.91
103.921
103.938
103.96
103.987
104.018
104.053
104.093
104.136
104.183
104.234
104.288
104.346
104.406
104.469
395.12
385.343
375.6
365.901
356.261
346.695
337.22
327.85
318.601
309.485
300.516
291.706
283.066
274.606
266.336
258.265
250.4
242.748
235.314
228.105
221.123
214.372
207.854
201.571
195.524
189.712
184.136
178.793
173.682
168.799
164.143
159.708
155.492
151.489
147.695
144.103
140.708
137.506
134.488
131.649
128.982
126.481
124.14
121.95
119.906
118.001
116.228
114.581
113.053
111.637
110.328
109.12
108.006
106.98
106.039
105.175
104.383
103.66
103.001
102.4
101.853
101.358
100.909
100.504
100.138
99.8094
99.5146
99.251
99.0159
98.8071
98.6223
98.4594
98.3166
98.1922
98.0846
97.9923
97.9139
97.8484
97.7945
97.7513
97.7178
97.6933
97.677
97.6683
97.6665
97.6711
97.6816
97.6977
97.7189
97.745
97.7756
97.8105
97.8495
97.8923
97.939
97.9892
98.0429
98.1001
98.1604
98.2227
395.036
385.093
375.184
365.318
355.512
345.78
336.138
326.603
317.189
307.909
298.776
289.804
281.003
272.384
263.957
255.73
247.712
239.91
232.329
224.975
217.852
210.963
204.311
197.898
191.725
185.791
180.096
174.64
169.419
164.432
159.675
155.144
150.836
146.745
142.867
139.196
135.726
132.452
129.367
126.464
123.738
121.181
118.786
116.547
114.457
112.509
110.695
109.01
107.447
105.999
104.66
103.424
102.284
101.236
100.272
99.3878
98.5783
97.8383
97.1631
96.548
95.9889
95.4815
95.0221
94.607
94.2327
93.8961
93.5941
93.3239
93.083
92.8688
92.6792
92.512
92.3653
92.2374
92.1266
92.0315
91.9506
91.8828
91.8268
91.7817
91.7466
91.7206
91.7029
91.6929
91.6899
91.6935
91.7031
91.7183
91.7387
91.764
91.7939
91.8281
91.8664
91.9087
91.9547
92.0044
92.0576
92.1142
92.174
92.2358
394.956
384.852
374.782
364.756
354.789
344.897
335.096
325.402
315.829
306.391
297.102
287.974
279.019
270.248
261.67
253.295
245.131
237.185
229.464
221.972
214.714
207.694
200.915
194.378
188.084
182.034
176.227
170.662
165.338
160.25
155.397
150.775
146.378
142.204
138.246
134.5
130.958
127.616
124.467
121.504
118.721
116.11
113.665
111.379
109.244
107.255
105.403
103.682
102.086
100.607
99.2394
97.9766
96.8124
95.7409
94.7563
93.8532
93.0261
92.27
91.58
90.9515
90.38
89.8614
89.3918
88.9673
88.5846
88.2403
87.9314
87.6549
87.4083
87.189
86.9948
86.8234
86.673
86.5417
86.4278
86.3299
86.2465
86.1764
86.1184
86.0715
86.0347
86.0071
85.988
85.9767
85.9725
85.975
85.9835
85.9978
86.0173
86.0417
86.0707
86.1042
86.1417
86.1833
86.2286
86.2775
86.33
86.3859
86.445
86.5063
394.879
384.62
374.395
364.215
354.093
344.048
334.094
324.247
314.522
304.933
295.494
286.217
277.115
268.198
259.477
250.961
242.658
234.575
226.719
219.096
211.71
204.566
197.665
191.01
184.602
178.441
172.527
166.859
161.435
156.253
151.308
146.599
142.119
137.865
133.832
130.013
126.404
122.997
119.787
116.766
113.928
111.267
108.774
106.442
104.266
102.237
100.349
98.5939
96.9657
95.4574
94.0625
92.7743
91.5868
90.4937
89.4893
88.5679
87.7241
86.9526
86.2485
85.6071
85.0239
84.4945
84.0151
83.5818
83.191
82.8394
82.5238
82.2413
81.9892
81.765
81.5663
81.3909
81.2368
81.1022
80.9853
80.8847
80.7989
80.7265
80.6665
80.6177
80.5792
80.5501
80.5295
80.5169
80.5115
80.5128
80.5202
80.5334
80.5519
80.5754
80.6035
80.636
80.6727
80.7134
80.7578
80.8059
80.8576
80.9127
80.9709
81.0313
394.804
384.397
374.024
363.695
353.426
343.233
333.132
323.139
313.268
303.535
293.953
284.534
275.292
266.236
257.378
248.727
240.291
232.078
224.095
216.347
208.839
201.576
194.56
187.792
181.276
175.01
168.995
163.229
157.711
152.438
147.407
142.614
138.055
133.726
129.621
125.734
122.059
118.591
115.323
112.247
109.358
106.648
104.109
101.735
99.5188
97.4526
95.5293
93.742
92.0836
90.5473
89.1263
87.8141
86.6044
85.4908
84.4675
83.5287
82.6689
81.8827
81.1652
80.5115
79.9171
79.3775
78.8888
78.4469
78.0484
77.6898
77.3678
77.0796
76.8223
76.5933
76.3903
76.211
76.0533
75.9155
75.7958
75.6925
75.6043
75.5297
75.4677
75.417
75.3768
75.3461
75.3241
75.3101
75.3034
75.3035
75.3097
75.3218
75.3392
75.3616
75.3888
75.4203
75.456
75.4956
75.5391
75.5863
75.6369
75.6911
75.7484
75.8078
394.733
384.183
373.668
363.198
352.787
342.453
332.211
322.078
312.069
302.198
292.479
282.925
273.549
264.361
255.372
246.593
238.031
229.694
221.59
213.723
206.1
198.724
191.598
184.724
178.105
171.739
165.627
159.769
154.161
148.803
143.689
138.818
134.184
129.783
125.609
121.658
117.922
114.395
111.072
107.945
105.006
102.25
99.668
97.2536
94.9992
92.8974
90.941
89.1229
87.4358
85.8728
84.4272
83.0921
81.8612
80.7281
79.6869
78.7315
77.8565
77.0564
76.3261
75.6607
75.0556
74.5063
74.0086
73.5587
73.1528
72.7875
72.4594
72.1657
71.9033
71.6698
71.4626
71.2796
71.1185
70.9776
70.855
70.7492
70.6586
70.5819
70.5179
70.4654
70.4235
70.3912
70.3677
70.3522
70.3442
70.343
70.3481
70.359
70.3752
70.3965
70.4225
70.4529
70.4876
70.5261
70.5685
70.6146
70.6642
70.7172
70.7734
70.8317
394.665
383.979
373.329
362.722
352.176
341.707
331.332
321.065
310.924
300.921
291.072
281.389
271.885
262.572
253.459
244.558
235.876
227.422
219.202
211.224
203.491
196.008
188.778
181.803
175.086
168.626
162.423
156.477
150.784
145.344
140.153
135.207
130.502
126.033
121.795
117.782
113.988
110.406
107.03
103.854
100.869
98.0689
95.4461
92.9932
90.7028
88.5674
86.5796
84.7322
83.0179
81.4297
79.9606
78.6038
77.3529
76.2013
75.1429
74.1719
73.2824
72.4691
71.7267
71.0502
70.4349
69.8763
69.3702
68.9125
68.4996
68.1279
67.794
67.4949
67.2278
66.9899
66.7788
66.5921
66.4278
66.2838
66.1585
66.0502
65.9573
65.8784
65.8124
65.7581
65.7145
65.6806
65.6556
65.6388
65.6294
65.6269
65.6306
65.6403
65.6553
65.6754
65.7003
65.7295
65.7629
65.8004
65.8416
65.8864
65.9348
65.9866
66.0416
66.0986
394.6
383.785
373.004
362.269
351.594
340.997
330.493
320.1
309.832
299.705
289.732
279.926
270.301
260.868
251.638
242.621
233.826
225.26
216.932
208.847
201.01
193.425
186.097
179.027
172.217
165.668
159.379
153.349
147.577
142.06
136.795
131.778
127.006
122.473
118.173
114.102
110.253
106.619
103.194
99.9706
96.9419
94.1005
91.4389
88.9496
86.625
84.4578
82.4403
80.5652
78.8251
77.213
75.7217
74.3444
73.0744
71.9053
70.8307
69.8448
68.9417
68.1158
67.3618
66.6748
66.0498
65.4824
64.9682
64.5033
64.0836
63.7058
63.3664
63.0623
62.7906
62.5485
62.3335
62.1434
61.9759
61.8291
61.7011
61.5903
61.4951
61.4142
61.3463
61.2902
61.2449
61.2094
61.1829
61.1645
61.1538
61.1499
61.1524
61.1607
61.1745
61.1933
61.2169
61.2449
61.2771
61.3132
61.3532
61.3967
61.4438
61.4943
61.5479
61.6036
394.538
383.599
372.696
361.837
351.04
340.32
329.695
319.181
308.794
298.548
288.457
278.535
268.796
259.249
249.908
240.781
231.878
223.207
214.776
206.589
198.654
190.974
183.553
176.393
169.495
162.861
156.491
150.382
144.534
138.945
133.61
128.527
123.691
119.097
114.74
110.614
106.713
103.029
99.5577
96.2904
93.2202
90.3397
87.6414
85.1176
82.7609
80.5635
78.5179
76.6166
74.8522
73.2174
71.7051
70.3083
69.0204
67.8347
66.7448
65.7448
64.8287
63.9909
63.226
62.529
61.8949
61.3191
60.7973
60.3253
59.8994
59.5157
59.171
58.8621
58.586
58.3399
58.1213
57.9278
57.7573
57.6077
57.4771
57.3639
57.2666
57.1836
57.1138
57.0559
57.0089
56.9718
56.9438
56.924
56.9118
56.9066
56.9077
56.9147
56.9272
56.9447
56.967
56.9936
57.0245
57.0593
57.0979
57.1401
57.1857
57.2348
57.287
57.3413
394.48
383.423
372.403
361.427
350.513
339.678
328.938
318.309
307.808
297.449
287.247
277.215
267.367
257.713
248.266
239.036
230.031
221.261
212.731
204.45
196.422
188.652
181.143
173.897
166.917
160.203
153.756
147.573
141.654
135.996
130.596
125.45
120.554
115.902
111.491
107.313
103.362
99.6325
96.1168
92.8079
89.6985
86.7812
84.0482
81.492
79.1049
76.8791
74.8069
72.8809
71.0935
69.4373
67.9052
66.49
65.1851
63.9837
62.8794
61.866
60.9377
60.0886
59.3134
58.6069
57.9641
57.3804
56.8513
56.3728
55.9408
55.5516
55.2019
54.8884
54.6081
54.3582
54.1361
53.9394
53.7659
53.6136
53.4806
53.3651
53.2656
53.1807
53.109
53.0493
53.0007
52.962
52.9324
52.9112
52.8975
52.8909
52.8906
52.8963
52.9074
52.9236
52.9444
52.9698
52.9992
53.0326
53.0698
53.1105
53.1547
53.2023
53.2529
53.3057
394.424
383.257
372.125
361.038
350.014
339.069
328.219
317.482
306.874
296.408
286.101
275.965