/*--------------------------------*- C++ -*----------------------------------*\
  =========                 |
  \\      /  F ield         | OpenFOAM: The Open Source CFD Toolbox
   \\    /   O peration     | Website:  https://openfoam.org
    \\  /    A nd           | Version:  10
     \\/     M anipulation  |
\*---------------------------------------------------------------------------*/
FoamFile
{
    format      ascii;
    class       volScalarField;
    location    "6.5";
    object      T;
}
// * * * * * * * * * * * * * * * * * * * * * * * * * * * * * * * * * * * * * //

dimensions      [0 0 -1 0 0 0 0];

internalField   nonuniform List<scalar> 
100
(
-0.0394048
-0.116818
-0.190092
-0.256633
-0.314082
-0.360404
-0.393959
-0.413558
-0.418506
-0.408629
-0.384276
-0.346309
-0.296075
-0.235351
-0.166291
-0.091339
-0.0131517
0.0655016
0.141834
0.213143
0.2769
0.330849
0.373076
0.402088
0.416855
0.416855
0.402088
0.373076
0.330848
0.2769
0.213142
0.141834
0.0655009
-0.0131524
-0.0913397
-0.166291
-0.235352
-0.296075
-0.34631
-0.384276
-0.408629
-0.418507
-0.413558
-0.393959
-0.360404
-0.314081
-0.256632
-0.190091
-0.116817
-0.039404
0.0394048
0.116818
0.190092
0.256633
0.314082
0.360404
0.393959
0.413558
0.418507
0.408629
0.384276
0.346309
0.296075
0.235351
0.166291
0.0913389
0.0131515
-0.0655018
-0.141835
-0.213143
-0.276901
-0.330849
-0.373077
-0.402088
-0.416855
-0.416855
-0.402088
-0.373076
-0.330848
-0.2769
-0.213142
-0.141834
-0.0655007
0.0131526
0.0913399
0.166291
0.235352
0.296075
0.34631
0.384276
0.408629
0.418506
0.413558
0.393959
0.360404
0.314081
0.256632
0.190091
0.116817
0.039404
)
;

boundaryField
{
    inlet
    {
        type            cyclic;
    }
    outlet
    {
        type            cyclic;
    }
    bottom
    {
        type            slip;
    }
    top
    {
        type            slip;
    }
    frontAndBack
    {
        type            empty;
    }
}


// ************************************************************************* //
