/*--------------------------------*- C++ -*----------------------------------*\
  =========                 |
  \\      /  F ield         | OpenFOAM: The Open Source CFD Toolbox
   \\    /   O peration     | Website:  https://openfoam.org
    \\  /    A nd           | Version:  10
     \\/     M anipulation  |
\*---------------------------------------------------------------------------*/
FoamFile
{
    format      ascii;
    class       volScalarField;
    location    "9.8";
    object      T_0;
}
// * * * * * * * * * * * * * * * * * * * * * * * * * * * * * * * * * * * * * //

dimensions      [0 0 -1 0 0 0 0];

internalField   nonuniform List<scalar> 
100
(
0.0353236
0.104719
0.170404
0.230052
0.281551
0.323076
0.353156
0.370725
0.375161
0.366306
0.344475
0.310441
0.265409
0.210975
0.149067
0.0818787
0.0117894
-0.0587176
-0.127144
-0.191067
-0.248221
-0.296582
-0.334436
-0.360442
-0.37368
-0.37368
-0.360442
-0.334435
-0.296581
-0.24822
-0.191066
-0.127143
-0.0587166
0.0117903
0.0818796
0.149068
0.210976
0.26541
0.310442
0.344476
0.366306
0.375161
0.370725
0.353156
0.323076
0.281551
0.230052
0.170403
0.104718
0.0353228
-0.0353235
-0.104719
-0.170404
-0.230052
-0.281551
-0.323076
-0.353156
-0.370725
-0.375161
-0.366306
-0.344475
-0.310441
-0.265409
-0.210975
-0.149067
-0.0818788
-0.0117895
0.0587174
0.127144
0.191067
0.248221
0.296582
0.334436
0.360442
0.37368
0.37368
0.360442
0.334436
0.296581
0.248221
0.191066
0.127144
0.0587168
-0.0117901
-0.0818794
-0.149068
-0.210976
-0.26541
-0.310441
-0.344476
-0.366306
-0.375161
-0.370725
-0.353156
-0.323076
-0.281551
-0.230052
-0.170403
-0.104718
-0.0353228
)
;

boundaryField
{
    inlet
    {
        type            cyclic;
    }
    outlet
    {
        type            cyclic;
    }
    bottom
    {
        type            slip;
    }
    top
    {
        type            slip;
    }
    frontAndBack
    {
        type            empty;
    }
}


// ************************************************************************* //
