/*--------------------------------*- C++ -*----------------------------------*\
  =========                 |
  \\      /  F ield         | OpenFOAM: The Open Source CFD Toolbox
   \\    /   O peration     | Website:  https://openfoam.org
    \\  /    A nd           | Version:  10
     \\/     M anipulation  |
\*---------------------------------------------------------------------------*/
FoamFile
{
    format      ascii;
    class       volScalarField;
    location    "5.2";
    object      T;
}
// * * * * * * * * * * * * * * * * * * * * * * * * * * * * * * * * * * * * * //

dimensions      [0 0 -1 0 0 0 0];

internalField   nonuniform List<scalar> 
100
(
-0.0232582
-0.0689503
-0.1122
-0.151474
-0.185383
-0.212724
-0.23253
-0.244098
-0.247019
-0.241189
-0.226814
-0.204405
-0.174755
-0.138914
-0.0981513
-0.0539119
-0.00776266
0.0386616
0.0837162
0.125805
0.163437
0.19528
0.220204
0.237328
0.246044
0.246044
0.237328
0.220204
0.19528
0.163437
0.125805
0.0837159
0.0386612
-0.00776306
-0.0539123
-0.0981517
-0.138914
-0.174755
-0.204406
-0.226815
-0.241189
-0.247019
-0.244098
-0.23253
-0.212725
-0.185383
-0.151474
-0.112199
-0.0689499
-0.0232578
0.0232583
0.0689504
0.1122
0.151475
0.185383
0.212725
0.23253
0.244098
0.247019
0.241189
0.226815
0.204405
0.174755
0.138914
0.0981512
0.0539118
0.00776254
-0.0386617
-0.0837164
-0.125805
-0.163438
-0.19528
-0.220204
-0.237328
-0.246044
-0.246044
-0.237328
-0.220204
-0.19528
-0.163437
-0.125805
-0.0837157
-0.038661
0.0077632
0.0539124
0.0981517
0.138914
0.174755
0.204405
0.226815
0.241189
0.247019
0.244098
0.23253
0.212724
0.185383
0.151474
0.112199
0.0689498
0.0232578
)
;

boundaryField
{
    inlet
    {
        type            cyclic;
    }
    outlet
    {
        type            cyclic;
    }
    bottom
    {
        type            slip;
    }
    top
    {
        type            slip;
    }
    frontAndBack
    {
        type            empty;
    }
}


// ************************************************************************* //
