/*--------------------------------*- C++ -*----------------------------------*\
| =========                 |                                                 |
| \\      /  F ield         | OpenFOAM: The Open Source CFD Toolbox           |
|  \\    /   O peration     | Version:  2406                                  |
|   \\  /    A nd           | Website:  www.openfoam.com                      |
|    \\/     M anipulation  |                                                 |
\*---------------------------------------------------------------------------*/
FoamFile
{
    version     2.0;
    format      ascii;
    arch        "LSB;label=32;scalar=64";
    class       volScalarField;
    location    "1.25";
    object      p;
}
// * * * * * * * * * * * * * * * * * * * * * * * * * * * * * * * * * * * * * //

dimensions      [0 2 -2 0 0 0 0];

internalField   nonuniform List<scalar> 
34560
(
41.121217
41.11385
41.105096
41.095509
41.084143
41.071911
41.062639
41.060032
41.063435
41.17694
41.168372
41.157544
41.14469
41.128646
41.111655
41.098617
41.093834
41.096851
41.234314
41.224917
41.212771
41.197604
41.17766
41.155783
41.138202
41.129944
41.130527
41.290537
41.280301
41.266907
41.249762
41.226676
41.200363
41.178127
41.165417
41.161869
41.345915
41.334999
41.320408
41.301141
41.274797
41.243671
41.216321
41.198596
41.190402
41.40052
41.389048
41.373376
41.352082
41.322342
41.285625
41.252477
41.229306
41.216349
41.455024
41.442754
41.42573
41.402143
41.368595
41.325984
41.286425
41.257355
41.239351
41.510018
41.496572
41.477649
41.451172
41.413232
41.364138
41.317431
41.282237
41.259483
41.565232
41.550401
41.528923
41.498444
41.455441
41.399949
41.345436
41.304153
41.27735
41.618641
41.601832
41.577155
41.542207
41.493892
41.432833
41.370454
41.323528
41.293289
41.664736
41.645376
41.617203
41.578272
41.525482
41.459185
41.39116
41.339479
41.306284
41.692266
41.671216
41.640892
41.599621
41.543959
41.474404
41.404034
41.349013
41.314035
41.692266
41.671216
41.640892
41.599621
41.543959
41.474404
41.404034
41.349013
41.314036
41.664735
41.645375
41.617203
41.578272
41.525482
41.459186
41.391161
41.339479
41.306285
41.618642
41.601832
41.577156
41.542207
41.493893
41.432833
41.370455
41.32353
41.293291
41.565232
41.550401
41.528923
41.498444
41.455441
41.39995
41.345437
41.304155
41.277352
41.510019
41.496572
41.47765
41.451173
41.413233
41.364139
41.317433
41.282239
41.259485
41.455026
41.442756
41.425731
41.402145
41.368596
41.325986
41.286427
41.257357
41.239354
41.400522
41.38905
41.373378
41.352083
41.322344
41.285627
41.25248
41.229309
41.216352
41.345917
41.335001
41.32041
41.301143
41.2748
41.243674
41.216323
41.198599
41.190406
41.29054
41.280304
41.26691
41.249765
41.226679
41.200366
41.17813
41.16542
41.161873
41.234317
41.22492
41.212774
41.197607
41.177662
41.155786
41.138205
41.129948
41.130531
41.176944
41.168376
41.157547
41.144693
41.128649
41.111657
41.098621
41.093837
41.096855
41.121221
41.113854
41.1051
41.095512
41.084147
41.071915
41.062644
41.060036
41.06344
38.072745
38.073027
38.073149
38.072919
38.072311
38.072504
38.073143
38.074773
38.078251
38.070507
38.070943
38.07119
38.071033
38.070837
38.071851
38.073679
38.076697
38.080866
38.067683
38.068338
38.068712
38.068486
38.068326
38.069876
38.072506
38.076278
38.08046
38.06517
38.066121
38.066667
38.066307
38.065872
38.06769
38.070787
38.074939
38.07902
38.063382
38.064675
38.065421
38.064839
38.063746
38.065619
38.068916
38.073204
38.077078
38.06243
38.064152
38.065153
38.064227
38.062014
38.063699
38.066957
38.071226
38.074892
38.063404
38.065559
38.066774
38.065336
38.061696
38.062484
38.065381
38.06951
38.073018
38.0671
38.069688
38.071022
38.068819
38.063283
38.062558
38.064912
38.068903
38.07239
38.074019
38.076968
38.07843
38.075404
38.067585
38.064311
38.066333
38.070418
38.074044
38.083437
38.086629
38.088184
38.084429
38.074479
38.067718
38.069821
38.074496
38.078456
38.093035
38.096363
38.098025
38.093764
38.082188
38.073001
38.074397
38.080147
38.084629
38.099806
38.103107
38.104769
38.100233
38.087854
38.077358
38.07743
38.084415
38.089408
38.099806
38.103107
38.104769
38.100233
38.087854
38.077358
38.077431
38.084416
38.089408
38.093035
38.096363
38.098026
38.093765
38.082189
38.073002
38.074398
38.080148
38.08463
38.083438
38.08663
38.088185
38.08443
38.07448
38.067719
38.069823
38.074498
38.078458
38.07402
38.076969
38.078432
38.075406
38.067586
38.064312
38.066335
38.07042
38.074046
38.067102
38.06969
38.071024
38.068822
38.063285
38.062561
38.064914
38.068905
38.072393
38.063407
38.065562
38.066777
38.065339
38.061699
38.062487
38.065384
38.069513
38.073021
38.062433
38.064155
38.065156
38.06423
38.062017
38.063703
38.066961
38.071229
38.074896
38.063386
38.064679
38.065425
38.064843
38.063751
38.065624
38.06892
38.073209
38.077082
38.065175
38.066126
38.066672
38.066312
38.065877
38.067696
38.070792
38.074944
38.079024
38.06769
38.068345
38.068718
38.068492
38.068332
38.069882
38.072512
38.076283
38.080465
38.070515
38.07095
38.071197
38.07104
38.070844
38.071858
38.073685
38.076702
38.08087
38.072753
38.073036
38.073157
38.072927
38.072319
38.072512
38.07315
38.074779
38.078257
37.057995
37.058036
37.058074
37.058083
37.058222
37.057777
37.057626
37.057922
37.058341
37.063484
37.063532
37.063538
37.06345
37.063403
37.062395
37.061671
37.061417
37.061497
37.068305
37.068398
37.068459
37.068416
37.068352
37.067002
37.065828
37.065074
37.064835
37.072903
37.073045
37.073171
37.073201
37.073176
37.071563
37.069993
37.068759
37.068129
37.077247
37.077444
37.077646
37.077768
37.077822
37.075984
37.074046
37.072338
37.071273
37.081207
37.081485
37.081794
37.082042
37.082214
37.080197
37.077919
37.075754
37.07425
37.08478
37.085165
37.085617
37.086012
37.086304
37.084139
37.081553
37.078967
37.077055
37.087807
37.088298
37.088963
37.089608
37.090033
37.087752
37.084902
37.081964
37.079659
37.09038
37.09096
37.091758
37.092669
37.093329
37.090964
37.087905
37.084683
37.08207
37.092685
37.09335
37.094267
37.095323
37.096114
37.093656
37.090443
37.087021
37.084177
37.094552
37.095279
37.096279
37.097414
37.098248
37.095659
37.092328
37.088786
37.085796
37.09561
37.096368
37.097412
37.098588
37.099437
37.096739
37.093325
37.08973
37.086674
37.095611
37.096369
37.097412
37.098589
37.099437
37.096739
37.093325
37.08973
37.086675
37.094553
37.095281
37.09628
37.097415
37.098249
37.09566
37.09233
37.088788
37.085797
37.092687
37.093352
37.094269
37.095325
37.096116
37.093658
37.090445
37.087024
37.084179
37.090383
37.090963
37.091761
37.092672
37.093332
37.090967
37.087908
37.084686
37.082073
37.087811
37.088302
37.088967
37.089612
37.090037
37.087756
37.084906
37.081968
37.079663
37.084785
37.085169
37.085622
37.086017
37.086309
37.084144
37.081558
37.078972
37.07706
37.081212
37.08149
37.081799
37.082048
37.08222
37.080203
37.077925
37.07576
37.074256
37.077253
37.077451
37.077652
37.077774
37.077829
37.075991
37.074053
37.072344
37.071279
37.07291
37.073053
37.073179
37.073208
37.073184
37.071571
37.070001
37.068766
37.068136
37.068314
37.068407
37.068468
37.068425
37.068361
37.06701
37.065837
37.065083
37.064843
37.063494
37.063542
37.063548
37.06346
37.063413
37.062405
37.06168
37.061427
37.061506
37.058006
37.058048
37.058085
37.058095
37.058233
37.057788
37.057638
37.057933
37.058352
34.998877
34.998784
34.998691
34.998631
34.998521
34.998636
34.998583
34.998341
34.998199
34.999409
34.999299
34.999193
34.999118
34.998961
34.9992
34.999203
34.999008
34.998838
35.00006
34.999938
34.999823
34.999754
34.99963
34.999879
34.999894
34.999683
34.999391
35.000796
35.000669
35.00055
35.000482
35.000367
35.000619
35.000627
35.000365
34.999931
35.001562
35.001436
35.001318
35.001251
35.001132
35.001396
35.001389
35.001063
35.000485
35.002281
35.002168
35.002064
35.002009
35.001891
35.002168
35.002144
35.001747
35.001033
35.00297
35.00287
35.002782
35.002741
35.002628
35.002913
35.002865
35.002398
35.001561
35.003593
35.003507
35.003436
35.003416
35.00331
35.003603
35.003533
35.003
35.002055
35.00413
35.004058
35.004003
35.004001
35.003911
35.004217
35.004127
35.003536
35.0025
35.004565
35.004508
35.004471
35.004489
35.004404
35.004727
35.00462
35.003982
35.002875
35.004886
35.004843
35.00482
35.004855
35.00477
35.0051
35.004979
35.004308
35.00315
35.005072
35.005034
35.005018
35.00506
35.004969
35.005302
35.005173
35.004483
35.003299
35.005072
35.005035
35.005019
35.00506
35.00497
35.005303
35.005173
35.004484
35.0033
35.004887
35.004844
35.004822
35.004856
35.004772
35.005102
35.004981
35.00431
35.003152
35.004568
35.004511
35.004474
35.004492
35.004407
35.00473
35.004623
35.003985
35.002877
35.004134
35.004062
35.004007
35.004006
35.003915
35.004222
35.004131
35.00354
35.002504
35.003599
35.003512
35.003442
35.003421
35.003315
35.003609
35.003539
35.003005
35.00206
35.002977
35.002877
35.002788
35.002748
35.002634
35.002919
35.002872
35.002404
35.001567
35.002289
35.002176
35.002072
35.002017
35.001899
35.002176
35.002151
35.001754
35.00104
35.00157
35.001445
35.001327
35.00126
35.001141
35.001405
35.001398
35.001071
35.000493
35.000806
35.00068
35.00056
35.000493
35.000377
35.00063
35.000637
35.000375
34.999941
35.000072
34.99995
34.999835
34.999766
34.999642
34.999891
34.999905
34.999695
34.999402
34.999423
34.999312
34.999206
34.999131
34.998975
34.999214
34.999216
34.999022
34.998851
34.998892
34.998799
34.998706
34.998646
34.998537
34.998651
34.998598
34.998356
34.998213
33.434193
33.434221
33.434241
33.434225
33.434193
33.43413
33.434129
33.434225
33.434374
33.434744
33.434774
33.434789
33.434762
33.434736
33.434579
33.434525
33.434588
33.434728
33.435109
33.435148
33.435167
33.435132
33.435073
33.434918
33.434846
33.43489
33.435033
33.435394
33.43544
33.435466
33.43543
33.435358
33.435204
33.435121
33.435157
33.43531
33.435621
33.435673
33.435706
33.435672
33.435599
33.435445
33.435357
33.43539
33.435553
33.435799
33.435858
33.435896
33.435868
33.435798
33.435647
33.435559
33.435591
33.435761
33.435942
33.436006
33.436051
33.436028
33.435963
33.435819
33.435731
33.435763
33.435937
33.436051
33.43612
33.436172
33.436156
33.436097
33.435961
33.435876
33.435907
33.43608
33.436131
33.436205
33.436263
33.436254
33.436204
33.436075
33.435993
33.436024
33.436193
33.436188
33.436267
33.43633
33.436328
33.436285
33.436163
33.436083
33.436113
33.436277
33.436227
33.436309
33.436377
33.43638
33.436342
33.436224
33.436145
33.436174
33.436333
33.436248
33.436331
33.436401
33.436407
33.436371
33.436256
33.436178
33.436205
33.436361
33.436248
33.436332
33.436402
33.436408
33.436372
33.436257
33.436178
33.436206
33.436362
33.436229
33.436311
33.436379
33.436382
33.436344
33.436226
33.436148
33.436176
33.436336
33.436192
33.43627
33.436334
33.436332
33.436289
33.436167
33.436087
33.436117
33.436281
33.436136
33.436211
33.436268
33.43626
33.43621
33.436081
33.435998
33.436029
33.436198
33.436058
33.436127
33.436179
33.436163
33.436105
33.435968
33.435883
33.435914
33.436087
33.43595
33.436015
33.436059
33.436036
33.435972
33.435827
33.43574
33.435772
33.435945
33.435809
33.435868
33.435907
33.435878
33.435808
33.435658
33.43557
33.435601
33.435771
33.435633
33.435685
33.435718
33.435684
33.435611
33.435457
33.435369
33.435402
33.435564
33.435408
33.435454
33.43548
33.435444
33.435372
33.435218
33.435135
33.43517
33.435323
33.435125
33.435163
33.435183
33.435148
33.435088
33.434934
33.434862
33.434905
33.435048
33.434761
33.434792
33.434807
33.43478
33.434754
33.434596
33.434542
33.434605
33.434744
33.434213
33.43424
33.43426
33.434244
33.434212
33.434149
33.434147
33.434243
33.434392
31.662569
31.66255
31.662533
31.662532
31.662539
31.662541
31.662512
31.66244
31.662364
31.662814
31.662792
31.662773
31.662769
31.662768
31.662772
31.662736
31.662652
31.662554
31.663078
31.663054
31.663034
31.663033
31.663036
31.663032
31.662984
31.66288
31.662744
31.66335
31.663325
31.663306
31.663306
31.66331
31.663301
31.663241
31.663113
31.662939
31.663615
31.663591
31.663572
31.663574
31.663579
31.663568
31.663497
31.663346
31.663134
31.663856
31.663834
31.663819
31.663825
31.663833
31.663821
31.66374
31.663569
31.663322
31.664073
31.664053
31.664041
31.664051
31.664063
31.664051
31.663963
31.663772
31.663496
31.664259
31.664242
31.664233
31.664248
31.664263
31.664251
31.664158
31.663952
31.663649
31.664412
31.664396
31.664391
31.664409
31.664429
31.664418
31.664321
31.664101
31.663778
31.664527
31.664514
31.664511
31.664532
31.664556
31.664547
31.664446
31.664218
31.663878
31.664605
31.664593
31.664592
31.664616
31.664642
31.664634
31.664532
31.664297
31.663948
31.664645
31.664634
31.664634
31.664659
31.664686
31.664679
31.664576
31.664338
31.663984
31.664646
31.664635
31.664635
31.66466
31.664687
31.664679
31.664577
31.664339
31.663985
31.664607
31.664595
31.664594
31.664618
31.664645
31.664637
31.664535
31.664299
31.66395
31.664532
31.664518
31.664515
31.664537
31.664561
31.664551
31.664451
31.664222
31.663882
31.664418
31.664403
31.664397
31.664415
31.664435
31.664425
31.664327
31.664107
31.663783
31.664267
31.66425
31.664241
31.664256
31.664272
31.66426
31.664166
31.66396
31.663656
31.664083
31.664063
31.664052
31.664062
31.664073
31.664061
31.663973
31.663782
31.663505
31.663869
31.663847
31.663831
31.663838
31.663846
31.663833
31.663753
31.66358
31.663333
31.66363
31.663605
31.663587
31.663589
31.663594
31.663583
31.663511
31.66336
31.663147
31.663367
31.663342
31.663323
31.663323
31.663327
31.663318
31.663257
31.663129
31.662954
31.663098
31.663073
31.663054
31.663052
31.663055
31.663051
31.663002
31.662898
31.662761
31.662836
31.662813
31.662794
31.662791
31.66279
31.662794
31.662756
31.662672
31.662573
31.662593
31.662573
31.662557
31.662556
31.662562
31.662564
31.662535
31.662463
31.662386
29.968985
29.968991
29.968994
29.96899
29.96898
29.968972
29.968973
29.968991
29.969023
29.96903
29.969036
29.969039
29.969032
29.96902
29.969008
29.969008
29.969026
29.969058
29.969048
29.969055
29.969058
29.969051
29.969037
29.969024
29.969024
29.969043
29.969077
29.969051
29.969059
29.969063
29.969055
29.96904
29.969027
29.969027
29.969048
29.969087
29.969045
29.969054
29.969058
29.96905
29.969035
29.969021
29.969022
29.969045
29.969089
29.969033
29.969042
29.969047
29.969039
29.969024
29.969011
29.969012
29.969038
29.969086
29.969019
29.969029
29.969034
29.969026
29.969011
29.968999
29.969001
29.969028
29.969079
29.969006
29.969016
29.969021
29.969014
29.968999
29.968986
29.968989
29.969017
29.969071
29.968994
29.969005
29.96901
29.969002
29.968988
29.968975
29.968978
29.969007
29.969062
29.968985
29.968996
29.969001
29.968994
29.96898
29.968967
29.968969
29.968999
29.969054
29.968979
29.96899
29.968995
29.968988
29.968974
29.968961
29.968964
29.968993
29.969049
29.968976
29.968987
29.968993
29.968986
29.968971
29.968959
29.968961
29.968991
29.969047
29.968977
29.968988
29.968994
29.968987
29.968973
29.96896
29.968962
29.968992
29.969047
29.968982
29.968993
29.968998
29.968991
29.968977
29.968964
29.968967
29.968996
29.969052
29.96899
29.969001
29.969006
29.968999
29.968985
29.968972
29.968974
29.969004
29.969059
29.969001
29.969012
29.969017
29.96901
29.968995
29.968983
29.968985
29.969014
29.969068
29.969015
29.969025
29.96903
29.969023
29.969009
29.968996
29.968998
29.969026
29.969079
29.969031
29.969041
29.969045
29.969038
29.969023
29.96901
29.969012
29.969039
29.96909
29.969047
29.969056
29.969061
29.969053
29.969038
29.969025
29.969026
29.969051
29.969098
29.969061
29.96907
29.969074
29.969066
29.969051
29.969038
29.969038
29.969061
29.969104
29.96907
29.969078
29.969082
29.969074
29.96906
29.969046
29.969046
29.969066
29.969104
29.96907
29.969077
29.969081
29.969073
29.969059
29.969046
29.969045
29.969063
29.969096
29.969055
29.969061
29.969064
29.969057
29.969045
29.969033
29.969032
29.969049
29.96908
29.969012
29.969018
29.969021
29.969017
29.969008
29.968999
29.969
29.969018
29.969048
28.252511
28.252509
28.252507
28.252508
28.252511
28.252513
28.252513
28.252508
28.2525
28.25255
28.252548
28.252546
28.252547
28.252549
28.25255
28.252548
28.25254
28.252528
28.252594
28.252591
28.25259
28.252591
28.252593
28.252594
28.252589
28.252576
28.252559
28.25264
28.252637
28.252636
28.252638
28.25264
28.25264
28.252632
28.252615
28.252592
28.252685
28.252683
28.252682
28.252684
28.252686
28.252686
28.252676
28.252655
28.252626
28.252728
28.252726
28.252725
28.252728
28.252731
28.25273
28.252718
28.252694
28.25266
28.252766
28.252764
28.252765
28.252768
28.252771
28.25277
28.252758
28.25273
28.252692
28.2528
28.252798
28.252799
28.252803
28.252807
28.252806
28.252792
28.252762
28.252721
28.252828
28.252826
28.252828
28.252832
28.252837
28.252836
28.252821
28.25279
28.252745
28.252849
28.252848
28.25285
28.252855
28.252859
28.252859
28.252844
28.252811
28.252764
28.252864
28.252863
28.252865
28.25287
28.252875
28.252875
28.25286
28.252826
28.252778
28.252872
28.252871
28.252873
28.252878
28.252884
28.252883
28.252868
28.252834
28.252785
28.252873
28.252872
28.252874
28.25288
28.252885
28.252884
28.252869
28.252835
28.252786
28.252867
28.252866
28.252868
28.252873
28.252879
28.252878
28.252863
28.252829
28.252781
28.252854
28.252853
28.252855
28.25286
28.252865
28.252864
28.252849
28.252816
28.252769
28.252835
28.252834
28.252835
28.25284
28.252844
28.252843
28.252829
28.252797
28.252752
28.25281
28.252808
28.252809
28.252813
28.252817
28.252816
28.252802
28.252772
28.25273
28.252778
28.252777
28.252777
28.25278
28.252784
28.252783
28.25277
28.252742
28.252703
28.252742
28.25274
28.25274
28.252743
28.252746
28.252745
28.252733
28.252708
28.252673
28.252702
28.2527
28.252699
28.252702
28.252704
28.252703
28.252693
28.252672
28.252642
28.25266
28.252658
28.252656
28.252658
28.25266
28.25266
28.252652
28.252634
28.25261
28.252617
28.252615
28.252613
28.252614
28.252616
28.252617
28.252611
28.252598
28.25258
28.252576
28.252574
28.252572
28.252573
28.252575
28.252576
28.252573
28.252564
28.252552
28.25254
28.252537
28.252535
28.252536
28.252539
28.252542
28.252541
28.252536
28.252526
26.539359
26.53936
26.53936
26.539359
26.539357
26.539354
26.539352
26.53935
26.539352
26.539371
26.539372
26.539371
26.53937
26.539367
26.539365
26.539363
26.539363
26.539365
26.53938
26.53938
26.539379
26.539378
26.539375
26.539373
26.539372
26.539373
26.539375
26.539386
26.539386
26.539386
26.539384
26.539381
26.539379
26.539379
26.53938
26.539383
26.539391
26.539391
26.53939
26.539388
26.539386
26.539384
26.539384
26.539386
26.53939
26.539394
26.539394
26.539394
26.539392
26.539389
26.539388
26.539388
26.539391
26.539395
26.539396
26.539397
26.539396
26.539394
26.539392
26.539391
26.539392
26.539395
26.5394
26.539399
26.539399
26.539398
26.539397
26.539395
26.539393
26.539395
26.539399
26.539403
26.5394
26.539401
26.5394
26.539399
26.539397
26.539396
26.539397
26.539401
26.539406
26.539402
26.539402
26.539402
26.5394
26.539398
26.539398
26.539399
26.539404
26.539408
26.539403
26.539404
26.539403
26.539402
26.5394
26.539399
26.539401
26.539405
26.53941
26.539404
26.539405
26.539405
26.539403
26.539401
26.539401
26.539403
26.539407
26.539411
26.539405
26.539406
26.539406
26.539404
26.539402
26.539402
26.539404
26.539408
26.539412
26.539406
26.539407
26.539406
26.539405
26.539403
26.539403
26.539404
26.539409
26.539413
26.539407
26.539408
26.539407
26.539406
26.539404
26.539403
26.539405
26.539409
26.539413
26.539408
26.539408
26.539408
26.539406
26.539404
26.539404
26.539405
26.539409
26.539413
26.539408
26.539409
26.539408
26.539407
26.539405
26.539404
26.539405
26.539408
26.539412
26.539409
26.539409
26.539409
26.539407
26.539405
26.539404
26.539404
26.539407
26.539411
26.539409
26.539409
26.539409
26.539407
26.539405
26.539403
26.539403
26.539406
26.539409
26.539408
26.539409
26.539408
26.539406
26.539404
26.539402
26.539401
26.539403
26.539406
26.539406
26.539407
26.539406
26.539404
26.539402
26.5394
26.539399
26.5394
26.539402
26.539403
26.539403
26.539403
26.539401
26.539399
26.539396
26.539395
26.539395
26.539396
26.539397
26.539397
26.539397
26.539396
26.539393
26.539391
26.539388
26.539387
26.539389
26.539388
26.539388
26.539388
26.539387
26.539385
26.539382
26.539379
26.539377
26.539379
24.828614
24.828614
24.828614
24.828614
24.828615
24.828615
24.828617
24.828618
24.828619
24.828618
24.828618
24.828618
24.828619
24.828619
24.828619
24.82862
24.828621
24.828621
24.828623
24.828623
24.828623
24.828624
24.828624
24.828624
24.828624
24.828624
24.828623
24.828628
24.828628
24.828629
24.828629
24.828629
24.828629
24.828628
24.828627
24.828626
24.828633
24.828633
24.828634
24.828634
24.828634
24.828634
24.828633
24.828631
24.82863
24.828638
24.828638
24.828639
24.828639
24.828639
24.828639
24.828637
24.828635
24.828633
24.828642
24.828643
24.828643
24.828644
24.828644
24.828644
24.828642
24.828639
24.828637
24.828647
24.828647
24.828647
24.828648
24.828648
24.828648
24.828646
24.828643
24.82864
24.82865
24.82865
24.828651
24.828652
24.828652
24.828651
24.828649
24.828646
24.828643
24.828653
24.828653
24.828654
24.828655
24.828655
24.828655
24.828652
24.828649
24.828646
24.828655
24.828656
24.828656
24.828657
24.828658
24.828657
24.828655
24.828651
24.828648
24.828657
24.828657
24.828658
24.828659
24.828659
24.828659
24.828656
24.828653
24.828649
24.828658
24.828658
24.828659
24.82866
24.82866
24.82866
24.828658
24.828654
24.82865
24.828658
24.828659
24.828659
24.82866
24.828661
24.82866
24.828658
24.828654
24.828651
24.828658
24.828658
24.828659
24.82866
24.828661
24.82866
24.828658
24.828654
24.82865
24.828657
24.828657
24.828658
24.828659
24.82866
24.828659
24.828657
24.828653
24.82865
24.828656
24.828656
24.828657
24.828658
24.828658
24.828658
24.828656
24.828652
24.828649
24.828654
24.828654
24.828655
24.828656
24.828656
24.828656
24.828654
24.828651
24.828648
24.828652
24.828652
24.828653
24.828654
24.828654
24.828654
24.828652
24.828649
24.828646
24.82865
24.82865
24.828651
24.828651
24.828652
24.828651
24.82865
24.828647
24.828645
24.828648
24.828648
24.828648
24.828649
24.828649
24.828649
24.828648
24.828646
24.828644
24.828646
24.828646
24.828646
24.828646
24.828647
24.828646
24.828646
24.828645
24.828644
24.828644
24.828644
24.828644
24.828644
24.828644
24.828645
24.828645
24.828645
24.828644
24.828642
24.828642
24.828642
24.828642
24.828642
24.828643
24.828644
24.828645
24.828645
23.114833
23.114833
23.114833
23.114833
23.114832
23.114832
23.114832
23.114831
23.11483
23.114836
23.114836
23.114836
23.114835
23.114835
23.114835
23.114834
23.114834
23.114833
23.11484
23.114839
23.114839
23.114839
23.114838
23.114838
23.114837
23.114837
23.114836
23.114843
23.114842
23.114842
23.114842
23.114841
23.114841
23.11484
23.114839
23.114839
23.114846
23.114845
23.114845
23.114845
23.114844
23.114844
23.114843
23.114842
23.114841
23.114848
23.114848
23.114848
23.114847
23.114847
23.114847
23.114846
23.114845
23.114844
23.114851
23.114851
23.11485
23.11485
23.114849
23.114849
23.114849
23.114848
23.114846
23.114853
23.114853
23.114852
23.114852
23.114852
23.114852
23.114851
23.11485
23.114848
23.114855
23.114855
23.114855
23.114854
23.114854
23.114854
23.114853
23.114852
23.11485
23.114857
23.114857
23.114856
23.114856
23.114856
23.114856
23.114855
23.114854
23.114852
23.114858
23.114858
23.114858
23.114857
23.114857
23.114857
23.114857
23.114856
23.114853
23.11486
23.114859
23.114859
23.114859
23.114858
23.114858
23.114858
23.114857
23.114854
23.11486
23.11486
23.11486
23.11486
23.114859
23.114859
23.114859
23.114858
23.114855
23.114861
23.114861
23.11486
23.11486
23.11486
23.11486
23.11486
23.114858
23.114856
23.114861
23.114861
23.114861
23.114861
23.11486
23.11486
23.11486
23.114859
23.114856
23.114862
23.114861
23.114861
23.114861
23.114861
23.11486
23.11486
23.114859
23.114856
23.114862
23.114861
23.114861
23.114861
23.114861
23.11486
23.11486
23.114859
23.114856
23.114861
23.114861
23.114861
23.114861
23.114861
23.11486
23.11486
23.114858
23.114856
23.114861
23.114861
23.114861
23.114861
23.11486
23.11486
23.114859
23.114858
23.114855
23.114861
23.114861
23.11486
23.11486
23.11486
23.114859
23.114858
23.114857
23.114855
23.114861
23.11486
23.11486
23.11486
23.11486
23.114859
23.114858
23.114856
23.114855
23.11486
23.11486
23.11486
23.114859
23.114859
23.114859
23.114857
23.114856
23.114854
23.11486
23.114859
23.114859
23.114859
23.114859
23.114858
23.114857
23.114856
23.114854
23.114859
23.114859
23.114858
23.114858
23.114858
23.114858
23.114857
23.114855
23.114854
21.40338
21.40338
21.40338
21.40338
21.40338
21.40338
21.403381
21.403383
21.403383
21.40338
21.40338
21.403381
21.403381
21.403381
21.403381
21.403381
21.403383
21.403384
21.403381
21.403381
21.403381
21.403381
21.403381
21.403381
21.403382
21.403383
21.403384
21.403381
21.403381
21.403382
21.403382
21.403382
21.403382
21.403382
21.403383
21.403384
21.403382
21.403382
21.403382
21.403382
21.403382
21.403382
21.403382
21.403383
21.403384
21.403382
21.403382
21.403383
21.403383
21.403383
21.403382
21.403383
21.403383
21.403385
21.403383
21.403383
21.403383
21.403383
21.403383
21.403383
21.403383
21.403384
21.403385
21.403383
21.403383
21.403384
21.403384
21.403383
21.403383
21.403384
21.403384
21.403385
21.403384
21.403384
21.403384
21.403384
21.403384
21.403384
21.403384
21.403385
21.403386
21.403384
21.403384
21.403385
21.403385
21.403385
21.403385
21.403385
21.403385
21.403387
21.403385
21.403385
21.403385
21.403385
21.403385
21.403385
21.403385
21.403386
21.403387
21.403385
21.403386
21.403386
21.403386
21.403386
21.403386
21.403386
21.403387
21.403388
21.403386
21.403386
21.403387
21.403387
21.403387
21.403387
21.403387
21.403387
21.403389
21.403387
21.403387
21.403387
21.403388
21.403388
21.403388
21.403388
21.403388
21.403389
21.403388
21.403388
21.403388
21.403389
21.403389
21.403388
21.403388
21.403389
21.40339
21.403389
21.403389
21.403389
21.40339
21.40339
21.40339
21.40339
21.40339
21.403391
21.40339
21.40339
21.403391
21.403391
21.403391
21.403391
21.403391
21.403391
21.403392
21.403391
21.403391
21.403392
21.403392
21.403392
21.403392
21.403392
21.403392
21.403393
21.403393
21.403393
21.403393
21.403393
21.403393
21.403393
21.403393
21.403393
21.403394
21.403394
21.403394
21.403395
21.403395
21.403395
21.403395
21.403395
21.403395
21.403395
21.403396
21.403396
21.403396
21.403397
21.403397
21.403396
21.403396
21.403396
21.403397
21.403398
21.403398
21.403398
21.403398
21.403398
21.403398
21.403398
21.403398
21.403399
21.403399
21.403399
21.4034
21.4034
21.4034
21.4034
21.4034
21.4034
21.403401
21.403401
21.403401
21.403401
21.403401
21.403401
21.403401
21.403402
21.403403
21.403402
19.690443
19.690443
19.690442
19.690442
19.690442
19.690442
19.690442
19.690442
19.690441
19.690444
19.690444
19.690444
19.690444
19.690444
19.690444
19.690444
19.690443
19.690443
19.690446
19.690446
19.690445
19.690445
19.690445
19.690445
19.690445
19.690445
19.690444
19.690447
19.690447
19.690447
19.690447
19.690447
19.690447
19.690447
19.690446
19.690446
19.690449
19.690449
19.690449
19.690449
19.690449
19.690448
19.690448
19.690448
19.690447
19.690451
19.690451
19.69045
19.69045
19.69045
19.69045
19.69045
19.690449
19.690448
19.690452
19.690452
19.690452
19.690452
19.690452
19.690451
19.690451
19.690451
19.69045
19.690453
19.690453
19.690453
19.690453
19.690453
19.690453
19.690453
19.690452
19.690451
19.690455
19.690454
19.690454
19.690454
19.690454
19.690454
19.690454
19.690453
19.690452
19.690456
19.690455
19.690455
19.690455
19.690455
19.690455
19.690455
19.690454
19.690453
19.690456
19.690456
19.690456
19.690456
19.690456
19.690456
19.690456
19.690455
19.690453
19.690457
19.690457
19.690457
19.690457
19.690457
19.690457
19.690456
19.690455
19.690454
19.690458
19.690458
19.690457
19.690457
19.690457
19.690457
19.690457
19.690456
19.690454
19.690458
19.690458
19.690458
19.690458
19.690458
19.690458
19.690457
19.690456
19.690455
19.690458
19.690458
19.690458
19.690458
19.690458
19.690458
19.690458
19.690457
19.690455
19.690458
19.690458
19.690458
19.690458
19.690458
19.690458
19.690458
19.690457
19.690455
19.690459
19.690458
19.690458
19.690458
19.690458
19.690458
19.690458
19.690457
19.690455
19.690458
19.690458
19.690458
19.690458
19.690458
19.690458
19.690458
19.690457
19.690455
19.690458
19.690458
19.690458
19.690458
19.690458
19.690458
19.690457
19.690457
19.690455
19.690458
19.690458
19.690458
19.690458
19.690458
19.690458
19.690457
19.690456
19.690455
19.690458
19.690458
19.690458
19.690458
19.690458
19.690458
19.690457
19.690456
19.690455
19.690458
19.690458
19.690458
19.690458
19.690458
19.690457
19.690457
19.690456
19.690455
19.690458
19.690458
19.690458
19.690457
19.690457
19.690457
19.690457
19.690456
19.690455
19.690458
19.690458
19.690457
19.690457
19.690457
19.690457
19.690457
19.690456
19.690455
17.978366
17.978366
17.978366
17.978366
17.978366
17.978366
17.978367
17.978367
17.978367
17.978366
17.978366
17.978366
17.978366
17.978366
17.978366
17.978367
17.978367
17.978367
17.978366
17.978366
17.978367
17.978367
17.978367
17.978367
17.978367
17.978367
17.978367
17.978367
17.978367
17.978367
17.978367
17.978367
17.978367
17.978367
17.978367
17.978368
17.978367
17.978367
17.978367
17.978367
17.978367
17.978367
17.978367
17.978367
17.978368
17.978367
17.978367
17.978367
17.978367
17.978367
17.978367
17.978367
17.978367
17.978368
17.978367
17.978367
17.978367
17.978367
17.978367
17.978367
17.978367
17.978367
17.978368
17.978367
17.978367
17.978367
17.978367
17.978367
17.978367
17.978367
17.978368
17.978368
17.978367
17.978367
17.978367
17.978367
17.978367
17.978367
17.978367
17.978368
17.978368
17.978367
17.978367
17.978367
17.978367
17.978367
17.978367
17.978367
17.978368
17.978369
17.978367
17.978368
17.978368
17.978368
17.978368
17.978368
17.978368
17.978368
17.978369
17.978368
17.978368
17.978368
17.978368
17.978368
17.978368
17.978368
17.978368
17.978369
17.978368
17.978368
17.978368
17.978368
17.978368
17.978368
17.978368
17.978369
17.978369
17.978369
17.978369
17.978369
17.978369
17.978369
17.978369
17.978369
17.978369
17.97837
17.978369
17.978369
17.978369
17.978369
17.978369
17.978369
17.978369
17.97837