/*--------------------------------*- C++ -*----------------------------------*\
| =========                 |                                                 |
| \\      /  F ield         | OpenFOAM: The Open Source CFD Toolbox           |
|  \\    /   O peration     | Version:  2406                                  |
|   \\  /    A nd           | Website:  www.openfoam.com                      |
|    \\/     M anipulation  |                                                 |
\*---------------------------------------------------------------------------*/
FoamFile
{
    version     2.0;
    format      ascii;
    arch        "LSB;label=32;scalar=64";
    class       surfaceScalarField;
    location    "1.25";
    object      phi;
}
// * * * * * * * * * * * * * * * * * * * * * * * * * * * * * * * * * * * * * //

dimensions      [0 3 -1 0 0 0 0];

oriented        oriented;

internalField   nonuniform List<scalar> 
101088
(
-1.4864756e-05
-4.9732768e-06
8.5240722e-06
5.2208553e-06
-5.86522e-05
-1.5380821e-05
3.3004277e-05
1.7637225e-05
-0.00014790752
-1.9227006e-05
6.89678e-05
2.791703e-05
-0.00029073021
5.6907652e-06
0.00010418556
1.7793735e-05
-0.00046755155
8.0629268e-05
0.00011244294
-3.4992166e-05
-0.00062509314
0.00018860846
7.4082759e-05
-0.00012673833
-0.00070541505
0.00027974646
-4.018745e-06
-0.00021822094
-0.00070025797
0.00032275093
-7.8801439e-05
-0.00027100782
0.00031836156
-0.00011514156
-0.00028243298
-0.00064011189
-1.7864458e-05
-5.1671957e-06
1.0584e-05
-7.0063711e-05
-1.3957703e-05
4.0330294e-05
-0.00017552442
-1.0443534e-05
8.2488201e-05
-0.00033971839
3.1859288e-05
0.00011950215
-0.00053404968
0.00013002226
0.0001220169
-0.00069050632
0.00025161596
6.6964776e-05
-0.00075165011
0.00034230579
-2.9605556e-05
-0.00072233804
0.00038239649
-0.00011635242
0.00037930815
-0.00015708801
-0.00065049354
-2.1224974e-05
-5.6532047e-06
1.2842354e-05
-8.2113852e-05
-1.3870557e-05
4.8427843e-05
-0.00020222324
-4.6681168e-06
9.7558833e-05
-0.00038275233
5.3221199e-05
0.00013731185
-0.00058634965
0.00017284609
0.00013376922
-0.00073707312
0.00030726314
6.387767e-05
-0.00078147117
0.0004018108
-4.8374578e-05
-0.00073558215
0.00044866279
-0.00014464287
0.00045618605
-0.00018859226
-0.00065292242
-2.4679389e-05
-6.3910191e-06
1.5187729e-05
-9.4464109e-05
-1.5253316e-05
5.6919145e-05
-0.00022865003
-3.3134436e-06
0.00011355591
-0.00042296649
6.5290336e-05
0.00015719647
-0.00063008652
0.00020114554
0.00014794538
-0.0007728908
0.00034871858
6.5745083e-05
-0.00080437679
0.00045476604
-5.940801e-05
-0.00074749633
0.00051791289
-0.00016322485
0.00054157465
-0.00020970594
-0.0006564654
-2.7715469e-05
-7.7988319e-06
1.7602927e-05
-0.00010505333
-1.9784786e-05
6.5850687e-05
-0.00025080089
-9.9696623e-06
0.0001307802
-0.00045639395
6.2673593e-05
0.00018017405
-0.00066548975
0.00021013851
0.00016563369
-0.00080422264
0.00037373498
7.4078487e-05
-0.00083010866
0.00050032646
-6.1835661e-05
-0.00076921538
0.00058776937
-0.00017194104
0.00063004215
-0.00022042088
-0.0006742494
-3.0657225e-05
-9.9878557e-06
2.0128458e-05
-0.00011552718
-2.8017399e-05
7.5444527e-05
-0.00027335646
-2.5860226e-05
0.00014993078
-0.00049240598
4.3869611e-05
0.0002070895
-0.00070729209
0.00020010801
0.00018719718
-0.00084881443
0.0003821988
8.9798431e-05
-0.00087638485
0.00053671301
-5.4716816e-05
-0.00081663567
0.00065271392
-0.00016945969
0.00071217861
-0.00021946048
-0.00071947705
-3.3722887e-05
-1.2839873e-05
2.2794523e-05
-0.00012722244
-3.9552907e-05
8.592673e-05
-0.00030035613
-5.0155777e-05
0.00017172784
-0.00053866638
9.5846048e-06
0.00023942599
-0.00076875787
0.00016987513
0.00021976405
-0.00092218625
0.0003727546
0.00011647989
-0.00095926712
0.00055899553
-3.430065e-05
-0.0009044048
0.0007026615
-0.00015259718
0.00077529271
-0.00020435733
-0.00080597825
-3.740242e-05
-1.5819373e-05
2.5688889e-05
-0.00014279573
-5.2259826e-05
9.774821e-05
-0.00033979366
-7.7919687e-05
0.00019742696
-0.00061135291
-3.3343853e-05
0.00027927406
-0.00087340395
0.00012470716
0.0002642514
-0.0010512396
0.00034380836
0.00015775413
-0.001104316
0.00055664365
3.6655816e-06
-0.0010545706
0.00071977483
-0.00011713386
0.00079823127
-0.00017138285
-0.00095109949
-4.2477001e-05
-1.7597955e-05
2.8814353e-05
-0.00016647049
-6.0596651e-05
0.00011096046
-0.00040209377
-9.7969472e-05
0.00022700446
-0.00072885279
-7.08701e-05
0.00032741081
-0.0010474006
7.4209341e-05
0.00032413017
-0.0012622764
0.0002926213
0.00021491301
-0.0013346195
0.00051220745
6.2886995e-05
-0.0012853739
0.00067707801
-5.8793596e-05
0.00075057208
-0.0001166975
-0.00116768
-4.9383798e-05
-1.6192002e-05
3.1964318e-05
-0.00019990552
-5.6848048e-05
0.00012462569
-0.00049047315
-9.5675742e-05
0.00025858739
-0.00089716658
-8.3292545e-05
0.0003809762
-0.0012982651
3.1802575e-05
0.00039711412
-0.0015593605
0.00021849406
0.00028247436
-0.0016493311
0.00040520534
0.00014148612
-0.0015920432
0.00054462451
2.1457695e-05
0.00060108147
-4.1417161e-05
-0.0014490426
-5.7349063e-05
-9.9343831e-06
3.4693531e-05
-0.00023830361
-3.5197052e-05
0.00013663555
-0.00059078129
-6.041879e-05
0.00028685471
-0.0010865564
-5.6340725e-05
0.00042983794
-0.0015741363
8.5415514e-06
0.00046346537
-0.0018870929
0.00011813979
0.00035950056
-0.001987977
0.00022613258
0.00022341616
-0.0019153792
0.00030858222
0.00010877415
0.00033912179
4.0323552e-05
-0.0017424637
-6.2842911e-05
-1.3136633e-10
3.6316475e-05
-0.00026488312
-5.6293073e-10
0.00014391243
-0.00066032019
-1.4326992e-09
0.00030431125
-0.0012164059
-2.556711e-09
0.00046033633
-0.0017617582
-3.4111842e-09
0.00050602604
-0.0021118832
-3.8058402e-09
0.00041392426
-0.0022164035
-4.1393766e-09
0.00027358703
-0.002131327
-4.7367092e-09
0.00016835833
-5.3298214e-09
9.656218e-05
-0.0019378888
-6.2842674e-05
9.9341355e-06
3.6316465e-05
-0.00026488307
3.5195902e-05
0.0001439124
-0.00066032016
6.0415937e-05
0.00030431116
-0.0012164055
5.6335378e-05
0.00046033618
-0.0017617579
-8.5478175e-06
0.00050602582
-0.0021118832
-0.00011814697
0.00041392402
-0.0022164039
-0.00022614056
0.00027358683
-0.0021313274
-0.00030859148
0.00016835813
-0.00033913209
9.6561977e-05
-0.0019378893
-5.7348874e-05
1.619172e-05
3.469352e-05
-0.00023830367
5.6846764e-05
0.0001366355
-0.00059078049
9.5672954e-05
0.00028685457
-0.0010865563
8.3288417e-05
0.00042983769
-0.0015741363
-3.1808015e-05
0.00046346495
-0.0018870935
-0.00021850038
0.00035950009
-0.0019879784
-0.00040521263
0.00022341572
-0.0019153805
-0.00054463318
0.00010877368
-0.000601091
4.0323061e-05
-0.001742465
-4.9384219e-05
1.7597737e-05
3.19643e-05
-0.00019990599
6.0595622e-05
0.00012462561
-0.00049047214
9.7967508e-05
0.00025858717
-0.00089716642
7.0867028e-05
0.00038097583
-0.0012982652
-7.4213868e-05
0.00039711353
-0.0015593614
-0.0002926263
0.00028247373
-0.0016493329
-0.0005122133
0.00014148553
-0.0015920452
-0.00067708552
2.1457125e-05
-0.00075058071
-4.1417745e-05
-0.0014490443
-4.2477795e-05
1.5819153e-05
2.881434e-05
-0.00016647167
5.2258869e-05
0.00011096039
-0.00040209412
7.791776e-05
0.00022700427
-0.00072885361
3.3340468e-05
0.00032741047
-0.0010474011
-0.00012471118
0.00032412958
-0.001262278
-0.00034381186
0.00021491246
-0.0013346221
-0.00055664813
6.288645e-05
-0.0012853767
-0.00071978138
-5.879411e-05
-0.00079823978
-0.00011669803
-0.0011676817
-3.7403004e-05
1.2839752e-05
2.5688877e-05
-0.00014279684
3.9552525e-05
9.7748149e-05
-0.0003397945
5.0154695e-05
0.0001974268
-0.00061135329
-9.5866992e-06
0.00027927377
-0.00087340458
-0.00016987733
0.00026425096
-0.0010512421
-0.00037275692
0.00015775365
-0.0011043194
-0.00055899972
3.6651231e-06
-0.0010545743
-0.00070266793
-0.00011713428
-0.00077530184
-0.00017138328
-0.00095110169
-3.3722869e-05
9.9878607e-06
2.2794514e-05
-0.00012722248
2.8017485e-05
8.5926689e-05
-0.00030035608
2.5860101e-05
0.00017172773
-0.0005386671
-4.3870215e-05
0.00023942576
-0.00076875965
-0.00020010983
0.00021976369
-0.00092218979
-0.00038220137
0.0001164795
-0.00095927069
-0.00053671728
-3.4301017e-05
-0.00090440916
-0.00065272
-0.00015259752
-0.00071218769
-0.00020435763
-0.00080598154
-3.065635e-05
7.7988559e-06
2.0128453e-05
-0.00011552511
1.9784981e-05
7.54445e-05
-0.00027335513
9.9697266e-06
0.0001499307
-0.00049240858
-6.2674878e-05
0.00020708932
-0.00070729471
-0.00021014102
0.00018719689
-0.00084881791
-0.00037373679
8.9798124e-05
-0.00087638768
-0.00050032918
-5.4717115e-05
-0.00081663971
-0.00058777457
-0.00016945997
-0.00063005074
-0.00021946071
-0.00071948042
-2.771528e-05
6.3909289e-06
1.7602914e-05
-0.0001050534
1.525305e-05
6.5850635e-05
-0.00025080245
3.3130566e-06
0.00013078008
-0.00045639698
-6.5290766e-05
0.00018017384
-0.00066549085
-0.00020114494
0.00016563346
-0.00080422443
-0.00034871847
7.4078213e-05
-0.00083011023
-0.00045476714
-6.1835937e-05
-0.00076921826
-0.00051791818
-0.00017194129
-0.00054158272
-0.00022042108
-0.0006742515
-2.4679443e-05
5.6531687e-06
1.5187716e-05
-9.4464105e-05
1.387053e-05
5.6919092e-05
-0.00022864976
4.6683042e-06
0.00011355579
-0.00042296645
-5.322095e-05
0.00015719625
-0.00063008786
-0.00017284577
0.00014794515
-0.00077289115
-0.00030726256
6.5744807e-05
-0.00080437779
-0.00040181189
-5.9408288e-05
-0.00074749856
-0.00044866755
-0.00016322509
-0.00045619096
-0.00020970615
-0.00065646833
-2.1225052e-05
5.1671914e-06
1.284234e-05
-8.2114025e-05
1.3957726e-05
4.8427789e-05
-0.00020222309
1.0443572e-05
9.7558709e-05
-0.00038275196
-3.1859309e-05
0.00013731164
-0.00058635029
-0.00013002196
0.00013376897
-0.00073707381
-0.00025161424
6.387738e-05
-0.00078147185
-0.00034230489
-4.8374855e-05
-0.00073558351
-0.00038239939
-0.00014464309
-0.00037931311
-0.0001885925
-0.0006529258
-1.7864625e-05
4.973285e-06
1.0583989e-05
-7.0063986e-05
1.5380893e-05
4.0330251e-05
-0.0001755242
1.9227211e-05
8.2488102e-05
-0.00033971759
-5.6902699e-06
0.00011950196
-0.00053404969
-8.0628567e-05
0.00012201667
-0.00069050744
-0.00018860748
6.6964496e-05
-0.00075164897
-0.00027974504
-2.9605809e-05
-0.00072233728
-0.00032275526
-0.00011635267
-0.00031836701
-0.00015708822
-0.00065049457
-1.4864778e-05
8.5240642e-06
5.220839e-06
-5.8652086e-05
3.3004244e-05
1.7637197e-05
-0.00014790699
6.8967727e-05
2.7917002e-05
-0.00029072985
0.00010418542
1.7793826e-05
-0.00046755239
0.00011244277
-3.4991395e-05
-0.00062509436
7.4082535e-05
-0.0001267358
-0.00070541627
-4.0189412e-06
-0.00021821828
-0.00070025936
-7.8801602e-05
-0.00027100773
-0.00011514169
-0.00028243173
-0.00064011121
9.6616307e-07
-1.3473477e-07
8.3322267e-06
-6.3957711e-07
3.7423128e-06
-1.3758447e-06
3.3851749e-05
-2.2478853e-06
8.9226691e-06
-6.0709624e-06
7.3395864e-05
-3.53788e-06
1.6766968e-05
-2.0366494e-05
0.00011714911
-4.4226777e-07
2.5475556e-05
-5.5060591e-05
0.00014301173
1.5782009e-05
4.1369528e-05
-0.00011741613
0.000121555
5.4049111e-05
6.3850669e-05
-0.00019663964
5.9121507e-05
0.00011101772
9.1755293e-05
-0.00026419443
-1.0150049e-05
0.0001676366
-0.00029942061
-5.139891e-05
0.00020641675
0.00012101621
1.5401244e-06
-1.1818537e-06
1.0091051e-05
6.3751553e-06
-6.4072612e-06
4.0526956e-05
1.5729285e-05
-1.94232e-05
8.6486951e-05
2.8635836e-05
-4.8573618e-05
0.00013480357
4.2518281e-05
-0.0001054448
0.00015851985
6.1588737e-05
-0.00019296973
0.00012345012
8.3547784e-05
-0.0002914029
4.3199683e-05
0.00010897923
-0.00036643445
-3.9542601e-05
-0.00039812883
-8.5606654e-05
0.00013620676
2.3519163e-06
-2.5923338e-06
1.1900819e-05
1.0009803e-05
-1.3054525e-05
4.741671e-05
2.4803273e-05
-3.6698459e-05
0.0001000395
4.4114751e-05
-8.3847152e-05
0.00015327242
6.2378585e-05
-0.00016543662
0.00017549603
8.2476161e-05
-0.00027733391
0.00012814158
0.00010123233
-0.00039070686
3.2171418e-05
0.00012148309
-0.00046913752
-6.2190453e-05
-0.00049574503
-0.00011240986
0.00014291636
3.3650662e-06
-4.385531e-06
1.3615939e-05
1.4636558e-05
-2.1327414e-05
5.3920717e-05
3.6359365e-05
-5.7637351e-05
0.00011277195
6.4088143e-05
-0.00012493342
0.0001705539
8.6905249e-05
-0.00023185473
0.00019154792
0.00010713107
-0.00036533918
0.00013352424
0.00012130049
-0.00048877194
2.4487901e-05
0.00013485837
-0.00056689132
-7.9028582e-05
-0.00058715853
-0.00013248106
0.00014904576
4.4892779e-06
-6.4427654e-06
1.5170711e-05
1.988896e-05
-3.0688323e-05
5.9811828e-05
4.9596953e-05
-8.0837992e-05
0.00012427302
8.7546015e-05
-0.00016877851
0.00018606977
0.00011476359
-0.00029941151
0.0002059701
0.00013484229
-0.00045007669
0.00013873683
0.00014409857
-0.00057885757
1.8992383e-05
0.00015081405
-0.00065411318
-9.1434641e-05
-0.00066737298
-0.00014707344
0.00015768056
5.8346299e-06
-8.7100804e-06
1.6560949e-05
2.6198596e-05
-4.0676538e-05
6.5068516e-05
6.5551013e-05
-0.0001047555
0.00013449604
0.00011603953
-0.00021191698
0.00019974156
0.0001477918
-0.00036250774
0.00021854096
0.00016763207
-0.00052333437
0.00014321573
0.00017177094
-0.00065230014
1.4585696e-05
0.00017167762
-0.00072249842
-0.00010098122
-0.00072839913
-0.00015779852
0.00017104142
7.2000732e-06
-1.0881715e-05
1.7766129e-05
3.271521e-05
-4.9884414e-05
6.9619349e-05
8.2097053e-05
-0.00012573542
0.00014332521
0.00014528011
-0.00024720759
0.00021153344
0.00018258328
-0.00040925599
0.00022920925
0.00020111025
-0.0005721606
0.00014678012
0.00020061279
-0.00069680023
1.0696644e-05
0.00019497175
-0.0007607593
-0.00010869557
-0.0007598149
-0.00016588104
0.00018791055
8.4261941e-06
-1.2438503e-05
1.8820001e-05
3.8685652e-05
-5.6027526e-05
7.3632297e-05
9.7615176e-05
-0.00013842857
0.00015119047
0.00017277525
-0.00026521603
0.0002221227
0.00021553833
-0.00042647578
0.00023870767
0.00023229688
-0.0005813171
0.00015015258
0.00022819725
-0.00069661945
7.5844439e-06
0.00021880006
-0.00075360227
-0.00011489404
-0.00074723151
-0.00017201713
0.00020685046
9.2396255e-06
-1.2623543e-05
1.9760314e-05
4.2879108e-05
-5.5985673e-05
7.7279444e-05
0.00010887707
-0.00013589432
0.00015847188
0.00019352449
-0.00025437935
0.00023192787
0.00024289017
-0.00039928023
0.00024756917
0.00025657091
-0.00053408492
0.00015400042
0.00025064605
-0.00063362151
5.8142264e-06
0.00023991551
-0.00068234689
-0.00011931835
-0.000672992
-0.00017626958
0.00022524823
9.4070089e-06
-1.0661989e-05
2.0595954e-05
4.4120605e-05
-4.668148e-05
8.0608011e-05
0.00011314368
-0.00011172185
0.00016539112
0.00020340121
-0.00020522841
0.00024156841
0.00026059289
-0.00031601112
0.00025665395
0.00026987629
-0.00041942854
0.0001585352
0.00026447985
-0.00049231863
5.5805395e-06
0.00025508594
-0.00052970784
-0.00012178675
-0.00052071489
-0.00017862727
0.00024001966
9.0266346e-06
-6.2656164e-06
2.1270423e-05
4.2771383e-05
-2.7117594e-05
8.332725e-05
0.00011088119
-6.4185138e-05
0.0001712083
0.00020189781
-0.0001164019
0.00024999532
0.00026168225
-0.00017719003
0.00026486065
0.0002721976
-0.00023331602
0.00016287362
0.00026755364
-0.00027066817
6.410915e-06
0.00026171721
-0.00029259931
-0.00012249696
-0.00028747086
-0.00017925242
0.00024805015
8.3927404e-06
2.4666405e-11
2.1657944e-05
4.0245401e-05
1.5637661e-10
8.494231e-05
0.00010558332
4.0577696e-10
0.00017478829
0.00019416854
9.2875783e-10
0.00025534875
0.00025273906
1.8623035e-09
0.00027026454
0.00026754031
3.0043464e-09
0.00016580494
0.00026337165
3.6454743e-09
7.0850826e-06
0.00026181997
3.3501391e-09
-0.00012269169
2.4641159e-09
-0.00017937252
0.00025028233
8.3928813e-06
6.2656548e-06
2.165794e-05
4.0245465e-05
2.711781e-05
8.4942295e-05
0.00010558335
6.4185734e-05
0.00017478825
0.00019416847
0.00011640354
0.0002553487
0.00025273898
0.00017719348
0.00027026449
0.00026754017
0.00023332162
0.0001658049
0.00026337143
0.00027067499
7.0850688e-06
0.00026181978
0.00029260568
-0.0001226917
0.00028747567
-0.00017937253
0.00025028202
9.0267786e-06
1.0661983e-05
2.127042e-05
4.2771378e-05
4.6681476e-05
8.3327239e-05
0.00011088145
0.00011172209
0.00017120827
0.00020189775
0.00020522975
0.00024999528
0.00026168205
0.00031601409
0.00026486058
0.00027219723
0.00041943339
0.00016287356
0.0002675531
0.00049232459
6.4108636e-06
0.0002617168
0.00052971352
-0.00012249701
0.00052071923
-0.00017925248
0.00024804958
9.406757e-06
1.2623516e-05
2.0595947e-05
4.4120222e-05
5.5985601e-05
8.0607982e-05
0.00011314408
0.00013589455
0.00016539106
0.00020340096
0.00025438057
0.00024156832
0.00026059248
0.00039928275
0.00025665382
0.00026987573
0.00053408926
0.00015853509
0.00026447917
0.00063362687
5.5804572e-06
0.00025508549
0.00068235185
-0.00012178682
0.00067299523
-0.00017862735
0.00024001944
9.2390304e-06
1.2438447e-05
1.9760309e-05
4.2878252e-05
5.6027395e-05
7.7279424e-05
0.00010887697
0.00013842866
0.00015847183
0.00019352386
0.0002652168
0.0002319278
0.00024288976
0.00042647799
0.00024756904
0.00025657028
0.00058132154
0.00015400029
0.00025064529
0.00069662473
5.814114e-06
0.00023991493
0.00075360658
-0.00011931843
0.00074723302
-0.00017626968
0.00022524824
8.4256834e-06
1.0881654e-05
1.8819997e-05
3.8684797e-05
4.9884353e-05
7.3632278e-05
9.7614836e-05
0.00012573554
0.00015119043
0.00017277495
0.00024720844
0.00022212263
0.00021553834
0.00040925858
0.00023870756
0.00023229615
0.00057216525
0.00015015245
0.00022819629
0.00069680522
7.5843091e-06
0.00021879902
0.0007607628
-0.00011489414
0.00075981484
-0.00017201722
0.00020685002
7.1999992e-06
8.7101336e-06
1.7766126e-05
3.271512e-05
4.067687e-05
6.9619336e-05
8.2097504e-05
0.00010475624
0.00014332518
0.00014528029
0.00021191853
0.00021153338
0.00018258328
0.0003625104
0.00022920914
0.00020110923
0.00052333858
0.00014677999
0.00020061161
0.00065230456
1.0696499e-05
0.00019497017
0.00072250145
-0.00010869568
0.00072839871
-0.00016588111
0.00018790928
5.8349662e-06
6.4427702e-06
1.6560947e-05
2.6199438e-05
3.0688539e-05
6.5068507e-05
6.5551935e-05
8.0838495e-05
0.00013449602
0.00011603878
0.00016877936
0.00019974151
0.00014779132
0.00029941352
0.00021854086
0.00016763103
0.00045008097
0.00014321559
0.00017177007
0.00057886239
1.4585542e-05
0.0001716763
0.00065411647
-0.00010098133
0.00066737283
-0.00015779858
0.00017104031
4.4894596e-06
4.3855549e-06
1.5170704e-05
1.988916e-05
2.1327609e-05
5.9811797e-05
4.9596569e-05
5.7637905e-05
0.00012427295
8.7544895e-05
0.00012493471
0.00018606966
0.00011476346
0.00023185797
0.00020596993
0.00013484173
0.000365344
0.00013873665
0.00014409834
0.00048877737
1.8992211e-05
0.00015081363
0.00056689441
-9.1434766e-05
0.00058715825
-0.00014707351
0.00015768029
3.3650136e-06
2.5922666e-06
1.3615929e-05
1.4636343e-05
1.3054468e-05
5.3920675e-05
3.6359168e-05
3.6698736e-05
0.00011277186
6.4088224e-05
8.3848169e-05
0.00017055374
8.6904801e-05
0.00016543912
0.00019154772
0.00010713143
0.00027733842
0.00013352402
0.00012130106
0.0003907117
2.4487703e-05
0.00013485836
0.00046914057
-7.9028728e-05
0.00049574623
-0.00013248115
0.00014904498
2.3518046e-06
1.1818949e-06
1.1900809e-05
1.0009508e-05
6.4075345e-06
4.7416669e-05
2.4803103e-05
1.9424004e-05
0.00010003941
4.4114963e-05
4.8575344e-05
0.00015327226
6.2378472e-05
0.000105448
0.0001754958
8.2476482e-05
0.00019297513
0.00012814134
0.00010123293
0.00029140818
3.2171186e-05
0.00012148269
0.00036643735
-6.2190628e-05
0.0003981296
-0.00011240998
0.00014291522
1.5400419e-06
1.3477111e-07
1.0091043e-05
6.374905e-06
1.3760714e-06
4.0526924e-05
1.5729071e-05
6.0716211e-06
8.6486875e-05
2.8635858e-05
2.036796e-05
0.00013480342
4.2518127e-05
5.5063223e-05
0.00015851964
6.1588377e-05
0.00011742011
0.00012344989
8.354849e-05
0.00019664389
4.3199457e-05
0.0001089799
0.00026419544
-3.9542803e-05
0.00029941961
-8.5606778e-05
0.00013620647
9.6613292e-07
8.3322216e-06
-6.3957492e-07
3.7422866e-06
3.3851729e-05
-2.2477996e-06
8.9228632e-06
7.3395818e-05
-3.5375646e-06
1.6767203e-05
0.00011714903
-4.4142257e-07
2.547587e-05
0.00014301161
1.5784069e-05
4.1370973e-05
0.00012155485
5.4053485e-05
6.3851898e-05
5.9121366e-05
0.00011102272
9.1757339e-05
-1.015017e-05
0.00016764016
-5.1398978e-05
0.00020641932
0.0001210187
1.3591705e-07
-1.4348496e-06
8.2703628e-06
1.3607989e-06
1.2236588e-06
-6.0620345e-06
3.30176e-05
5.8084038e-06
3.7735042e-06
-1.4146483e-05
7.1284569e-05
1.3707768e-05
7.106853e-06
-2.5707182e-05
0.00011416768
2.5354883e-05
1.2191516e-05
-3.8349855e-05
0.00013718319
3.9093161e-05
1.2878043e-05
-4.6608061e-05
0.00011716288
5.0313211e-05
1.2080514e-05
-4.6609398e-05
5.2134582e-05
5.4393606e-05
1.274897e-05
-4.0231702e-05
-2.1743313e-05
5.1155894e-05
-3.377708e-05
-6.5911374e-05
4.3685844e-05
1.7352583e-05
1.3567246e-07
-1.5287156e-06
1.0049255e-05
1.3643503e-06
-6.3669477e-06
3.9603265e-05
4.1358193e-06
-1.457961e-05
8.4148779e-05
7.3656951e-06
-2.5732338e-05
0.00013159904
1.2365316e-05
-3.6610473e-05
0.00015178115
1.0885601e-05
-4.158058e-05
0.00011990308
7.6576683e-06
-3.7546974e-05
3.7365554e-05
6.4230723e-06
-2.8334861e-05
-5.0204443e-05
-2.1355187e-05
-0.00010041048
8.8050887e-06
1.340761e-07
-1.6331935e-06
1.1871187e-05
1.5417083e-06
-6.7198709e-06
4.6361813e-05
4.7543804e-06
-1.5136569e-05
9.7383317e-05
8.5489061e-06
-2.5923845e-05
0.00014966869
1.4385954e-05
-3.4884432e-05
0.00016793236
1.2023035e-05
-3.6226092e-05
0.00012514898
7.1540956e-06
-2.8044522e-05
2.7537191e-05
3.8955544e-06
-1.5863463e-05
-7.1403392e-05
-7.6162875e-06
-0.00012644909
4.1955955e-06
1.3319716e-07
-1.735876e-06
1.3585457e-05
1.7451856e-06
-7.095063e-06
5.2684002e-05
5.5009278e-06
-1.5805301e-05
0.00010968494
1.0125125e-05
-2.634654e-05
0.00016635237
1.7320944e-05
-3.3391693e-05
0.00018285988
1.4863418e-05
-3.1053492e-05
0.00013080901
8.9856766e-06
-1.8756116e-05
2.107719e-05
4.1322887e-06
-3.6507868e-06
-8.6387948e-05
5.8625241e-06
-0.00014490463
3.0764074e-06
1.3128519e-07
-1.8204818e-06
1.5123972e-05
1.9576881e-06
-7.4464516e-06
5.8336733e-05
6.3233709e-06
-1.6526133e-05
0.0001206281
1.1947911e-05
-2.6991628e-05
0.00018109008
2.0898694e-05
-3.2315572e-05
0.00019594212
1.8906569e-05
-2.6588746e-05
0.00013626392
1.2471525e-05
-1.0504478e-05
1.7175096e-05
6.3622397e-06
7.1864442e-06
-9.6162854e-05
1.771995e-05
-0.00015675835
4.189297e-06
1.5040778e-07
-1.8845561e-06
1.6474573e-05
2.2585341e-06
-7.757494e-06
6.3271336e-05
7.3680785e-06
-1.724397e-05
0.00013010433
1.4180287e-05
-2.7770645e-05
0.00019370899
2.5077361e-05
-3.1661606e-05
0.00020698958
2.3796516e-05
-2.3124251e-05
0.00014103175
1.7003725e-05
-4.0357727e-06
1.4908981e-05
9.7703578e-06
1.5519688e-05
-0.00010208144
2.6587244e-05
-0.00016348357
6.5877297e-06
1.7954892e-07
-1.8978959e-06
1.7599943e-05
2.5709177e-06
-7.8867979e-06
6.7357231e-05
8.4436343e-06
-1.7686535e-05
0.00013789472
1.6556778e-05
-2.8312169e-05
0.00020396162
2.9439005e-05
-3.1154237e-05
0.00021581929
2.9013478e-05
-2.0760958e-05
0.00014484233
2.1954791e-05
4.4963074e-08
1.3674031e-05
1.3730203e-05
2.0283617e-05
-0.00010523535
3.1384987e-05
-0.0001664551
9.5060687e-06
2.5449075e-07
-1.8515152e-06
1.851927e-05
3.0571885e-06
-7.7490511e-06
7.0691948e-05
9.7838453e-06
-1.7462071e-05
0.0001442392
1.9188345e-05
-2.7934072e-05
0.00021233996
3.3846443e-05
-3.0142289e-05
0.000223037
3.4193506e-05
-1.9130664e-05
0.000148175
2.6810926e-05
1.6293625e-06
1.3382161e-05
1.7505214e-05
2.1110197e-05
-0.0001064153
3.1396502e-05
-0.00016693084
1.2407092e-05
3.6340126e-07
-1.7066439e-06
1.9252209e-05
3.6923752e-06
-7.1609862e-06
7.3362439e-05
1.1546702e-05
-1.618629e-05
0.00014934149
2.229198e-05
-2.5873781e-05
0.00021912242
3.8210776e-05
-2.7502345e-05
0.00022901002
3.901729e-05
-1.7227669e-05
0.00015129063
3.1188228e-05
1.3708666e-06
1.3901504e-05
2.0879659e-05
1.834678e-05
-0.00010624649
2.7068974e-05
-0.00016590807
1.484568e-05
4.4660038e-07
-1.364988e-06
1.9807775e-05
4.2141023e-06
-5.7238541e-06
7.5403326e-05
1.3082057e-05
-1.2930847e-05
0.00015326726
2.500859e-05
-2.0642964e-05
0.00022441102
4.2256197e-05
-2.1865733e-05
0.00023376952
4.3252351e-05
-1.3763917e-05
0.00015407517
3.4848001e-05
4.5373753e-07
1.4902039e-05
2.3628711e-05
1.3109827e-05
-0.00010533032
1.9470964e-05
-0.00016421238
1.6812138e-05
4.9416022e-07
-7.7278303e-07
2.0184035e-05
4.5594455e-06
-3.2374266e-06
7.6775548e-05
1.4247472e-05
-7.3077306e-06
0.00015589693
2.73193e-05
-1.1651254e-05
0.00022793169
4.5713211e-05
-1.2333373e-05
0.00023693427
4.6578147e-05
-7.7767477e-06
0.00015602155
3.7543828e-05
4.2470468e-08
1.5856748e-05
2.5598664e-05
6.8147679e-06
-0.00010425638
1.0142713e-05
-0.00016252411
1.8199049e-05
5.1035873e-07
-2.3717941e-11
2.0374771e-05
4.7178122e-06
-4.2114067e-11
7.7497463e-05
1.4866224e-05
-3.0376237e-11
0.00015733208
2.8627857e-05
1.125788e-10
0.00022993561
4.7762171e-05
4.5180485e-10
0.0002387963
4.8482007e-05
8.7242406e-10
0.00015730754
3.9007341e-05
1.007378e-09
1.6601478e-05
2.6635475e-05
6.1088332e-10
-0.00010350531
-1.2772449e-10
-0.0001615025
1.8908742e-05
5.1039059e-07
7.7272932e-07
2.0374767e-05
4.7178105e-06
3.237305e-06
7.7497451e-05
1.4866217e-05
7.3075915e-06
0.00015733205
2.8627802e-05
1.1651404e-05
0.00022993557
4.7762098e-05
1.2334201e-05
0.00023879626
4.8481898e-05
7.7784183e-06
0.00015730751
3.9007172e-05
-4.0518291e-08
1.6601457e-05
2.6635291e-05
-6.8136018e-06
-0.00010350532
-1.0143029e-05
-0.00016150251
1.8908539e-05
4.9416641e-07
1.3649187e-06
2.0184033e-05
4.5593643e-06
5.7236606e-06
7.6775541e-05
1.4247458e-05
1.2930589e-05
0.00015589691
2.7319125e-05
2.0643005e-05
0.00022793166
4.5712952e-05
2.1866445e-05
0.00023693422
4.6577759e-05
1.37655e-05
0.0001560215
3.7543303e-05
-4.5186734e-07
1.5856692e-05
2.5598126e-05
-1.3108781e-05
-0.00010425643
-1.9471538e-05
-0.00016252415
1.8198546e-05
4.4647256e-07
1.7065672e-06
1.9807768e-05
4.2138768e-06
7.1607679e-06
7.5403301e-05
1.308204e-05
1.6186024e-05
0.00015326721
2.5008296e-05
2.5873805e-05
0.00022441094
4.2255825e-05
2.7503056e-05
0.00023376942
4.3251784e-05
1.7229411e-05
0.00015407507
3.4847247e-05
-1.368802e-06
1.4901955e-05
2.362791e-05
-1.8345753e-05
-0.00010533039
-2.7070044e-05
-0.00016421244
1.6811481e-05
3.6318206e-07
1.8514304e-06
1.9252204e-05
3.6920085e-06
7.7488172e-06
7.3362419e-05
1.1546497e-05
1.7461784e-05
0.00014934144
2.2291521e-05
2.7934072e-05
0.00021912235
3.8210382e-05
3.0143221e-05
0.00022900992
3.9016596e-05
1.9132939e-05
0.00015129052
3.1187297e-05
-1.6267887e-06
1.3901403e-05
2.0878585e-05
-2.1109089e-05
-0.00010624657
-3.1398185e-05
-0.00016590814
1.4844767e-05
2.5431775e-07
1.8978151e-06
1.8519267e-05
3.0568418e-06
7.8866042e-06
7.0691935e-05
9.7835691e-06
1.7686336e-05
0.00014423917
1.918798e-05
2.8312421e-05
0.0002123399
3.384615e-05
3.1155728e-05
0.00022303691
3.4192686e-05
2.0763894e-05
0.00014817489
2.6809809e-05
-4.1898064e-08
1.3382044e-05
1.7503819e-05
-2.0282421e-05
-0.0001064154
-3.1386986e-05
-0.00016693091
1.240567e-05
1.794857e-07
1.8845256e-06
1.7599941e-05
2.5707784e-06
7.7574781e-06
6.7357224e-05
8.443616e-06
1.7244092e-05
0.00013789471
1.6556575e-05
2.7771369e-05
0.00020396157
2.9438681e-05
3.1663534e-05
0.00021581921
2.9012516e-05
2.3127591e-05
0.00014484221
2.1953592e-05
4.0391406e-06
1.3673898e-05
1.3728711e-05
-1.5518347e-05
-0.00010523546
-2.6589044e-05
-0.00016645516
9.5044639e-06
1.5048238e-07
1.8204464e-06
1.6474574e-05
2.2587374e-06
7.44645e-06
6.3271337e-05
7.3682826e-06
1.652628e-05
0.00013010433
1.4179823e-05
2.6992314e-05
0.00019370896
2.5076856e-05
3.2317658e-05
0.0002069895
2.3795542e-05
2.6592578e-05
0.00014103162
1.7002648e-05
1.0508396e-05
1.490883e-05
9.7690405e-06
-7.184715e-06
-0.00010208156
-1.772156e-05
-0.00016348362
6.5865935e-06
1.3133767e-07
1.7358621e-06
1.5123967e-05
1.9577432e-06
7.0951178e-06
5.8336714e-05
6.3232214e-06
1.5805599e-05
0.00012062805
1.194741e-05
2.6347574e-05
0.00018108999
2.0898341e-05
3.3394404e-05
0.00019594198
1.8905847e-05
3.1057742e-05
0.00013626374
1.24708e-05
1.8760508e-05
1.717492e-05
6.3614205e-06
3.6527122e-06
-9.6162966e-05
-5.8643543e-06
-0.00015675838
4.1889043e-06
1.3317621e-07
1.6331497e-06
1.358545e-05
1.7450794e-06
6.7198483e-06
5.2683972e-05
5.5007698e-06
1.5136789e-05
0.00010968488
1.0125008e-05
2.5924795e-05
0.00016635225
1.7320559e-05
3.4886885e-05
0.00018285971
1.4863241e-05
3.623024e-05
0.00013080879
8.9855022e-06
2.8048853e-05
2.1077e-05
4.1318839e-06
1.586555e-05
-8.6388056e-05
7.6146653e-06
-0.00014490466
3.0761661e-06
1.340289e-07
1.5287187e-06
1.1871179e-05
1.5415636e-06
6.3670812e-06
4.636178e-05
4.7542359e-06
1.4580115e-05
9.7383245e-05
8.5488861e-06
2.5733677e-05
0.00014966856
1.4385797e-05
3.6613247e-05
0.00016793218
1.2023088e-05
4.1584976e-05
0.00012514876
7.1543499e-06
3.7551377e-05
2.7537004e-05
3.8954928e-06
2.8336889e-05
-7.1403496e-05
2.1353406e-05
-0.00012644913
4.1953327e-06
1.3563468e-07
1.4348642e-06
1.004925e-05
1.3642116e-06
6.0621835e-06
3.9603246e-05
4.135627e-06
1.414697e-05
8.4148736e-05
7.3655731e-06
2.5708392e-05
0.00013159895
1.2365192e-05
3.8352247e-05
0.00015178102
1.0885531e-05
4.6611741e-05
0.00011990292
7.6580086e-06
4.6613316e-05
3.7365398e-05
6.4233488e-06
4.0233088e-05
-5.0204558e-05
3.3775047e-05
-0.00010041053
8.8047514e-06
1.359e-07
8.2703605e-06
1.3608044e-06
1.223634e-06
3.3017592e-05
5.8084969e-06
3.773566e-06
7.1284553e-05
1.3708105e-05
7.1070147e-06
0.00011416765
2.5355805e-05
1.2191829e-05
0.00013718315
3.9095301e-05
1.2878744e-05
0.00011716282
5.0317174e-05
1.2080726e-05
5.2134518e-05
5.4398162e-05
1.2748554e-05
-2.1743365e-05
5.115891e-05
-6.5911388e-05
4.3685417e-05
1.7351858e-05
9.4790833e-09
-2.4851009e-07
8.4141984e-06
9.5195778e-08
-2.2787767e-07
-1.117828e-06
3.3919853e-05
4.5292119e-07
-8.2683846e-07
-2.8275565e-06
7.3508407e-05
1.2026364e-06
-1.345866e-06
-5.7069282e-06
0.00011783562
2.5579189e-06
-2.1486468e-06
-9.8266919e-06
0.00014315608
4.6564625e-06
-6.6346284e-07
-1.5218273e-05
0.00012324784
7.6480092e-06
2.0041823e-06
-2.0956048e-05
5.9195001e-05
1.1227892e-05
4.864278e-06
-2.5589186e-05
-1.3718201e-05
1.4703833e-05
-2.7516174e-05
-5.7777305e-05
1.737332e-05
6.8729915e-06
2.3426281e-08
-3.9927989e-07
1.0176597e-05
-2.2174639e-07
-1.784808e-06
4.0515418e-05
-8.2711455e-07
-4.4702423e-06
8.6396835e-05
-1.1797521e-06
-8.9075515e-06
0.00013515229
-2.1773664e-06
-1.5142427e-05
0.00015809451
1.1430312e-07
-2.2498179e-05
0.00012489136
3.5038439e-06
-2.9856591e-05
4.2876514e-05
6.8016112e-06
-3.5304435e-05
-4.3786997e-05
-3.6865151e-05
-9.3332115e-05
9.0720894e-06
3.6331855e-08
-5.3459012e-07
1.1970157e-05
-2.3649081e-07
-2.3867246e-06
4.7236514e-05
-9.100514e-07
-5.9587797e-06
9.9545315e-05
-1.2851547e-06