/*--------------------------------*- C++ -*----------------------------------*\
| =========                 |                                                 |
| \\      /  F ield         | OpenFOAM: The Open Source CFD Toolbox           |
|  \\    /   O peration     | Version:  2406                                  |
|   \\  /    A nd           | Website:  www.openfoam.com                      |
|    \\/     M anipulation  |                                                 |
\*---------------------------------------------------------------------------*/
FoamFile
{
    version     2.0;
    format      ascii;
    arch        "LSB;label=32;scalar=64";
    class       volVectorField;
    location    "1.25";
    object      U;
}
// * * * * * * * * * * * * * * * * * * * * * * * * * * * * * * * * * * * * * //

dimensions      [0 1 -1 0 0 0 0];

internalField   nonuniform List<vector> 
34560
(
(0.02485434 -0.0040962378 -0.0024032928)
(0.06308279 -0.011496876 -0.0036978798)
(0.07861746 -0.019232259 0.0031549956)
(0.043797329 -0.026675448 0.023470226)
(-0.064594221 -0.032933619 0.057472438)
(-0.23680579 -0.039027687 0.096877354)
(-0.42915812 -0.044289361 0.12848719)
(-0.59648596 -0.045207669 0.14392614)
(-0.71526941 -0.040336884 0.14383573)
(0.028015671 -0.0038424787 -0.0015414406)
(0.068654182 -0.0097585235 -0.00031520497)
(0.079004972 -0.014636162 0.010974582)
(0.02668314 -0.017908604 0.037517115)
(-0.1092538 -0.020012812 0.077123986)
(-0.30522073 -0.023627579 0.11781336)
(-0.50621127 -0.027654915 0.14566371)
(-0.66749964 -0.027164641 0.15491094)
(-0.77520901 -0.020670107 0.14876635)
(0.032485016 -0.0041822972 -0.0011599346)
(0.07859253 -0.0097607789 0.0015240886)
(0.087407067 -0.01276818 0.015963412)
(0.021251299 -0.012307353 0.04719252)
(-0.1381797 -0.010251149 0.090740411)
(-0.35279603 -0.011035238 0.13184327)
(-0.55776785 -0.013067237 0.15688998)
(-0.71171151 -0.010217929 0.16254437)
(-0.80907276 -0.00093940066 0.15391366)
(0.038160284 -0.0044459823 -0.0007198081)
(0.092791838 -0.0097540924 0.0032871027)
(0.10409129 -0.011227098 0.020357834)
(0.028655133 -0.0075775801 0.055150819)
(-0.14940668 -0.0016804748 0.10130242)
(-0.37821293 0.00049922602 0.14207545)
(-0.58494859 0.00089994521 0.1651757)
(-0.73204924 0.0063079933 0.1691529)
(-0.82031122 0.018016427 0.15963738)
(0.045342925 -0.0050233216 -0.00050329236)
(0.11238924 -0.010776013 0.0042303683)
(0.13134665 -0.011464547 0.022978972)
(0.052148832 -0.0051734788 0.060291265)
(-0.14003995 0.0041920541 0.10807085)
(-0.3799371 0.0098314132 0.14905258)
(-0.58812418 0.013410119 0.17199403)
(-0.7297405 0.021932916 0.17642432)
(-0.80950343 0.036391013 0.16789771)
(0.054375976 -0.0060926548 -0.00045036182)
(0.13863608 -0.013408859 0.004596286)
(0.17148238 -0.014525626 0.02433198)
(0.094693879 -0.0063570886 0.063563625)
(-0.10815135 0.0069814484 0.11348676)
(-0.35774763 0.017021804 0.15577767)
(-0.56634526 0.024725674 0.18038748)
(-0.70136299 0.036431239 0.18690516)
(-0.7720333 0.052498455 0.18032794)
(0.065786749 -0.007611117 -0.00042356506)
(0.17339729 -0.017599973 0.0047854599)
(0.22814778 -0.020457734 0.025447757)
(0.16160428 -0.011491264 0.066843092)
(-0.046830436 0.0055489485 0.11994361)
(-0.30382084 0.020561965 0.16529687)
(-0.51177484 0.033092076 0.19345244)
(-0.63958708 0.048058959 0.2034397)
(-0.70081434 0.065440472 0.1996212)
(0.080080781 -0.0094707957 -0.00028676749)
(0.21849243 -0.023031529 0.0054055264)
(0.30472627 -0.028760133 0.027806647)
(0.25848254 -0.020081076 0.072936067)
(0.050948447 0.00014960717 0.13161403)
(-0.21091776 0.020293967 0.18263103)
(-0.41628064 0.037805112 0.21609425)
(-0.53529295 0.055582737 0.2303919)
(-0.58604745 0.073566537 0.22929089)
(0.097049045 -0.011118688 0.00020424567)
(0.27337337 -0.028090878 0.0071932694)
(0.40038519 -0.036818566 0.033762055)
(0.38579537 -0.029562092 0.085271036)
(0.18724884 -0.0076374287 0.15314769)
(-0.07507193 0.016518731 0.21307523)
(-0.27346719 0.037837097 0.25300804)
(-0.38044634 0.057100225 0.27163217)
(-0.41919473 0.074498465 0.27235849)
(0.11501626 -0.011431853 0.0012234961)
(0.33238646 -0.029524248 0.010930025)
(0.50597926 -0.039866489 0.044245582)
(0.53026952 -0.034723388 0.10541492)
(0.34936233 -0.013904695 0.18674625)
(0.095820195 0.010902139 0.25819781)
(-0.088443333 0.03257791 0.30486428)
(-0.17920817 0.050960922 0.32675567)
(-0.20497467 0.065599645 0.32813483)
(0.13104985 -0.009014167 0.0025664387)
(0.38541477 -0.023526812 0.015959423)
(0.60201492 -0.032270364 0.057252461)
(0.66354383 -0.029321196 0.12969794)
(0.505587 -0.013805114 0.22573105)
(0.27012576 0.005537508 0.3088589)
(0.10537398 0.022070519 0.36212855)
(0.032943071 0.035832178 0.38557423)
(0.018363548 0.045627842 0.38636551)
(0.14068258 -0.0034292832 0.0035725127)
(0.41762669 -0.0089890035 0.019673426)
(0.66108893 -0.012427181 0.066585407)
(0.74619699 -0.011461471 0.14703802)
(0.6052161 -0.005650072 0.25299963)
(0.38527638 0.0017256247 0.34365675)
(0.23530497 0.0079542611 0.40158604)
(0.17513053 0.013007384 0.42531043)
(0.16763892 0.016666839 0.42485739)
(0.14068255 0.003429117 0.0035724842)
(0.4176266 0.0089884885 0.019673415)
(0.66108874 0.012426235 0.066585432)
(0.74619669 0.011460257 0.14703804)
(0.60521571 0.0056487595 0.25299963)
(0.38527599 -0.0017268598 0.34365679)
(0.2353046 -0.0079554656 0.40158614)
(0.17513013 -0.013008721 0.42531058)
(0.16763845 -0.016668414 0.42485754)
(0.13104978 0.0090140064 0.0025664015)
(0.38541451 0.023526301 0.015959481)
(0.60201438 0.032269457 0.057252498)
(0.66354308 0.029320092 0.12969798)
(0.50558602 0.013803929 0.22573114)
(0.27012475 -0.0055386365 0.30885906)
(0.10537302 -0.022071637 0.36212885)
(0.032942061 -0.035833437 0.38557465)
(0.018362386 -0.045629302 0.38636594)
(0.11501617 0.011431714 0.0012235332)
(0.33238615 0.029523826 0.010930268)
(0.5059786 0.039865747 0.044245697)
(0.53026861 0.034722446 0.10541504)
(0.34936109 0.013903683 0.18674645)
(0.09581895 -0.010903061 0.25819809)
(-0.08844451 -0.032578833 0.30486473)
(-0.17920939 -0.050962012 0.32675626)
(-0.20497607 -0.065600952 0.32813543)
(0.097048969 0.011118581 0.00020432999)
(0.27337308 0.028090586 0.0071935835)
(0.40038454 0.036818029 0.033762331)
(0.38579442 0.029561314 0.085271429)
(0.18724762 0.0076366253 0.15314807)
(-0.075073101 -0.016519379 0.21307562)
(-0.27346825 -0.037837764 0.2530086)
(-0.38044743 -0.057101124 0.27163289)
(-0.41919604 -0.074499664 0.27235924)
(0.080080695 0.0094707152 -0.00028669164)
(0.21849212 0.023031301 0.0054057885)
(0.30472566 0.028759699 0.027807011)
(0.25848164 0.020080477 0.072936496)
(0.050947387 -0.00015012528 0.13161432)
(-0.21091877 -0.020294372 0.18263145)
(-0.4162815 -0.037805608 0.21609494)
(-0.53529382 -0.05558351 0.23039275)
(-0.58604849 -0.073567744 0.22929182)
(0.065786672 0.00761106 -0.00042349641)
(0.17339704 0.017599778 0.0047855385)
(0.22814731 0.020457433 0.025447875)
(0.16160354 0.01149099 0.066843226)
(-0.046831325 -0.0055491932 0.11994385)
(-0.30382168 -0.020562253 0.16529745)
(-0.51177551 -0.03309251 0.19345323)
(-0.63958775 -0.048059643 0.20344062)
(-0.70081505 -0.065441679 0.19962229)
(0.054375908 0.0060926289 -0.00045042192)
(0.13863586 0.013408728 0.0045960016)
(0.17148195 0.014525413 0.024331681)
(0.094693248 0.0063569322 0.063563695)
(-0.10815207 -0.0069816199 0.1134873)
(-0.35774826 -0.017021985 0.15577831)
(-0.56634577 -0.024725955 0.18038812)
(-0.70136351 -0.036431803 0.18690599)
(-0.77203381 -0.052499639 0.18032899)
(0.045342859 0.0050233017 -0.00050329146)
(0.11238904 0.010775948 0.0042303791)
(0.13134629 0.011464414 0.022979114)
(0.052148339 0.0051733791 0.06029172)
(-0.14004045 -0.0041920582 0.10807127)
(-0.37993759 -0.0098314476 0.14905285)
(-0.58812461 -0.013410222 0.17199439)
(-0.72974094 -0.021933477 0.17642511)
(-0.80950394 -0.036392137 0.16789864)
(0.038160234 0.004445929 -0.00071977811)
(0.092791685 0.0097539595 0.0032871646)
(0.10409102 0.011226891 0.020357889)
(0.028654766 0.0075774145 0.055150865)
(-0.14940707 0.0016806067 0.10130247)
(-0.37821327 -0.00049909647 0.14207556)
(-0.58494899 -0.00089997931 0.16517603)
(-0.7320497 -0.0063086054 0.16915365)
(-0.82031184 -0.018017267 0.15963817)
(0.032484974 0.0041822941 -0.0011599213)
(0.078592404 0.0097607986 0.0015241388)
(0.087406839 0.012768195 0.015963443)
(0.021250985 0.01230738 0.047192493)
(-0.13818003 0.010251299 0.090740356)
(-0.35279632 0.011035401 0.13184325)
(-0.5577682 0.01306712 0.15689029)
(-0.71171198 0.010217682 0.16254458)
(-0.80907355 0.00093847583 0.15391426)
(0.028015629 0.0038424816 -0.0015414234)
(0.068654056 0.0097585746 -0.00031511693)
(0.079004753 0.014636182 0.010974605)
(0.026682847 0.01790862 0.037516994)
(-0.10925411 0.02001288 0.077123838)
(-0.30522107 0.02362767 0.11781347)
(-0.50621162 0.027654674 0.14566372)
(-0.66750027 0.027164205 0.15491135)
(-0.77520984 0.020669137 0.14876745)
(0.024854298 0.0040962376 -0.0024032828)
(0.063082666 0.011496884 -0.0036978729)
(0.078617248 0.019232259 0.0031549482)
(0.043797047 0.026675512 0.023470149)
(-0.064594542 0.032933843 0.057472491)
(-0.23680611 0.039028002 0.096877339)
(-0.4291585 0.04428956 0.12848709)
(-0.59648637 0.045207311 0.14392672)
(-0.71526997 0.040336625 0.14383624)
(0.063577738 0.00027632677 0.00014940054)
(0.18890212 0.00060624498 0.00013420761)
(0.3151052 0.00056642806 -0.00078132167)
(0.41431397 -0.00084813555 -0.0031871525)
(0.45300557 -0.0050064141 -0.007682644)
(0.40826847 -0.012770729 -0.014063043)
(0.29366587 -0.023149677 -0.020938681)
(0.1544488 -0.034240033 -0.026230442)
(0.038819145 -0.045160567 -0.029304784)
(0.071123092 -0.00033448679 -0.0004206802)
(0.20845444 -0.0014339742 -0.001776889)
(0.34186635 -0.0032985054 -0.0045425568)
(0.4391655 -0.0070181641 -0.0091847371)
(0.46480237 -0.013966179 -0.015975072)
(0.39931026 -0.02449964 -0.023999466)
(0.2658319 -0.036903614 -0.031303874)
(0.11719076 -0.048849567 -0.03592145)
(-0.00022497283 -0.05919154 -0.038435523)
(0.078694951 -0.001055688 -0.00095314697)
(0.2283764 -0.0038588395 -0.00362648)
(0.36984638 -0.0078661552 -0.0082951553)
(0.46696837 -0.014067601 -0.01519407)
(0.48271065 -0.023575301 -0.023970964)
(0.40096694 -0.036068595 -0.032899961)
(0.25341508 -0.049231007 -0.039865001)
(0.098469501 -0.060942865 -0.043598153)
(-0.019435775 -0.070588 -0.045195678)
(0.085667849 -0.0020371942 -0.0015263954)
(0.24668474 -0.0070620784 -0.0056029602)
(0.39557652 -0.013707273 -0.012307839)
(0.49277832 -0.022648049 -0.021595959)
(0.50054297 -0.034542051 -0.032308174)
(0.40570819 -0.048338148 -0.04172354)
(0.24742494 -0.061423067 -0.047945755)
(0.088269609 -0.072396158 -0.050586319)
(-0.029759625 -0.081430596 -0.051337325)
(0.091830174 -0.0032066812 -0.0020538788)
(0.26286521 -0.010838262 -0.0074449945)
(0.41831334 -0.020487055 -0.016128311)
(0.51549709 -0.032281333 -0.02776621)
(0.51651041 -0.046300458 -0.040307881)
(0.4105511 -0.060791598 -0.049901985)
(0.243476 -0.07320034 -0.055250619)
(0.081231972 -0.083127833 -0.056846667)
(-0.036653432 -0.091418085 -0.056838441)
(0.097275063 -0.0045472356 -0.0024662126)
(0.27713096 -0.015082919 -0.0089241697)
(0.43829981 -0.027933794 -0.019363062)
(0.53528051 -0.042467708 -0.033151741)
(0.53022862 -0.058156071 -0.047331449)
(0.41419325 -0.072588083 -0.056800777)
(0.23918567 -0.083800657 -0.061246929)
(0.074152453 -0.09244816 -0.061988705)
(-0.043484419 -0.099841975 -0.061435833)
(0.10207006 -0.0059769379 -0.0027348846)
(0.28970826 -0.019468407 -0.0099033896)
(0.45587793 -0.035376149 -0.021688529)
(0.55281375 -0.05219914 -0.037151128)
(0.54207366 -0.068784999 -0.052684077)
(0.4165326 -0.082331951 -0.061827744)
(0.23376939 -0.092029537 -0.065385642)
(0.065751722 -0.09929671 -0.065548173)
(-0.051723217 -0.10564702 -0.064733649)
(0.10641982 -0.0072296146 -0.0027591405)
(0.30133182 -0.023163478 -0.010080855)
(0.47250471 -0.041354254 -0.022468557)
(0.5696686 -0.05945757 -0.038980807)
(0.55314235 -0.075773229 -0.055282034)
(0.41879171 -0.087686103 -0.064082461)
(0.22808672 -0.095868886 -0.066915675)
(0.056567472 -0.10183304 -0.066902476)
(-0.061007839 -0.10702149 -0.066186253)
(0.11056299 -0.0079126286 -0.0024704755)
(0.31279575 -0.024973628 -0.0092254599)
(0.48942883 -0.043856219 -0.021323962)
(0.58693404 -0.061561701 -0.037836236)
(0.56432138 -0.076299122 -0.054352091)
(0.42249048 -0.086210636 -0.063208152)
(0.2239042 -0.092740684 -0.065291663)
(0.048472941 -0.097538034 -0.065542207)
(-0.069492298 -0.10156922 -0.065343073)
(0.11456994 -0.0074849883 -0.0018705505)
(0.32439425 -0.023334471 -0.0073407656)
(0.50763842 -0.040438744 -0.018141648)
(0.60671933 -0.055642879 -0.033657222)
(0.5784127 -0.067402571 -0.049896922)
(0.42865106 -0.074997376 -0.059113217)
(0.22250651 -0.079734216 -0.060619705)
(0.043204899 -0.083409786 -0.061465219)
(-0.075348529 -0.086234148 -0.062142841)
(0.11808319 -0.005544955 -0.0011536325)
(0.3347779 -0.017095769 -0.0050494627)
(0.52457207 -0.029305331 -0.014060207)
(0.6264202 -0.039715399 -0.027901253)
(0.59362589 -0.047293788 -0.043257896)
(0.43590641 -0.052030763 -0.052661078)
(0.22402761 -0.054685967 -0.054503724)
(0.041680562 -0.057151273 -0.055902208)
(-0.077379049 -0.058858425 -0.057567304)
(0.12016911 -0.0020703444 -0.00066817818)
(0.3412026 -0.0063388914 -0.0034699993)
(0.53551823 -0.010784882 -0.011121121)
(0.6398236 -0.0144824 -0.023561374)
(0.60469827 -0.017087823 -0.037997164)
(0.44168967 -0.018647679 -0.047154692)
(0.22655381 -0.019472243 -0.050012212)
(0.042417812 -0.020385887 -0.051654749)
(-0.076970541 -0.02096648 -0.054026985)
(0.12016911 0.0020703775 -0.00066819094)
(0.34120259 0.0063390261 -0.0034700226)
(0.53551821 0.010785129 -0.011121142)
(0.63982356 0.014482834 -0.02356139)
(0.60469822 0.017088519 -0.037997177)
(0.44168965 0.018648627 -0.047154702)
(0.2265538 0.019473288 -0.050012204)
(0.04241779 0.020386829 -0.051654731)
(-0.076970579 0.020967218 -0.054026951)
(0.11808318 0.0055449674 -0.0011536549)
(0.33477787 0.017095837 -0.0050494738)
(0.52457201 0.029305482 -0.014060242)
(0.62642012 0.039715748 -0.027901299)
(0.59362579 0.047294398 -0.04325792)
(0.43590635 0.052031621 -0.052661093)
(0.22402757 0.054686922 -0.054503704)
(0.041680505 0.057152152 -0.055902173)
(-0.077379149 0.058859125 -0.057567234)
(0.11456994 0.0074849835 -0.0018705485)
(0.32439422 0.023334498 -0.0073406867)
(0.50763835 0.040438834 -0.018141658)
(0.60671929 0.055643144 -0.033657263)
(0.5784126 0.067403074 -0.049896918)
(0.42865096 0.074998126 -0.05911321)
(0.22250644 0.079735061 -0.060619685)
(0.043204822 0.083410563 -0.0614652)
(-0.075348661 0.086234732 -0.062142785)
(0.11056299 0.007912617 -0.0024704366)
(0.31279574 0.024973658 -0.0092252872)
(0.48942877 0.0438563 -0.021323871)
(0.58693401 0.061561913 -0.037836157)
(0.56432126 0.076299573 -0.054352041)
(0.42249034 0.086211361 -0.063208162)
(0.22390408 0.092741489 -0.065291664)
(0.048472851 0.097538721 -0.065542204)
(-0.069492431 0.1015696 -0.065343004)
(0.10641981 0.0072295952 -0.0027590891)
(0.30133178 0.023163498 -0.010080675)
(0.47250462 0.04135432 -0.022468407)
(0.56966851 0.059457779 -0.038980703)
(0.5531422 0.075773721 -0.055282084)
(0.41879156 0.087686864 -0.064082551)
(0.22808657 0.095869688 -0.066915687)
(0.056567385 0.10183365 -0.066902436)
(-0.061007945 0.10702168 -0.066186073)
(0.10207004 0.0059769269 -0.0027348485)
(0.28970821 0.019468429 -0.0099033402)
(0.45587785 0.035376247 -0.021688537)
(0.55281364 0.052199445 -0.037151231)
(0.54207351 0.068785558 -0.052684257)
(0.41653246 0.082332708 -0.061827858)
(0.23376925 0.09203031 -0.065385644)
(0.06575164 0.099297276 -0.065548085)
(-0.051723287 0.1056471 -0.06473336)
(0.097275033 0.0045472436 -0.0024662411)
(0.27713087 0.015082974 -0.0089243012)
(0.43829966 0.027933926 -0.019363277)
(0.53528035 0.042468048 -0.033151913)
(0.53022841 0.058156634 -0.047331533)
(0.41419308 0.072588842 -0.056800886)
(0.23918552 0.083801446 -0.061247012)
(0.074152355 0.09244873 -0.061988673)
(-0.043484477 0.099842037 -0.061435603)
(0.091830131 0.0032066843 -0.0020538819)
(0.26286509 0.010838305 -0.0074450461)
(0.41831315 0.020487176 -0.016128385)
(0.51549686 0.032281645 -0.02776623)
(0.51651014 0.046301057 -0.040308015)
(0.41055089 0.060792387 -0.049902269)
(0.2434758 0.073201179 -0.055250868)
(0.081231824 0.083128369 -0.056846721)
(-0.036653505 0.091418141 -0.056838345)
(0.085667807 0.0020371709 -0.0015263842)
(0.24668462 0.0070620878 -0.0056029434)
(0.39557631 0.013707353 -0.012307863)
(0.49277802 0.022648297 -0.021596073)
(0.50054267 0.034542648 -0.03230846)
(0.40570788 0.048338937 -0.041723914)
(0.24742467 0.061423856 -0.047946121)
(0.088269403 0.072396635 -0.050586508)
(-0.029759743 0.081430795 -0.051337427)
(0.078694909 0.0010556904 -0.00095313755)
(0.22837628 0.0038589248 -0.0036264627)
(0.36984615 0.0078663508 -0.0082952096)
(0.46696804 0.014067967 -0.015194284)
(0.48271026 0.023575907 -0.023971374)
(0.40096653 0.036069361 -0.032900516)
(0.25341469 0.049231665 -0.039865576)
(0.098469231 0.060943409 -0.043598907)
(-0.019435957 0.070588129 -0.045196135)
(0.071123041 0.00033451184 -0.00042068552)
(0.20845429 0.0014341107 -0.0017769088)
(0.34186608 0.0032987645 -0.0045426881)
(0.43916509 0.0070186126 -0.009185044)
(0.46480187 0.01396679 -0.015975565)
(0.39930976 0.024500292 -0.024000095)
(0.26583146 0.036904044 -0.031304843)
(0.11719042 0.048849588 -0.035922264)
(-0.00022515664 0.059191105 -0.038435631)
(0.063577689 -0.00027630243 0.00014938539)
(0.18890198 -0.00060613644 0.00013413402)
(0.31510496 -0.00056622867 -0.0007815064)
(0.41431364 0.0008484786 -0.0031874525)
(0.45300515 0.0050069213 -0.0076830658)
(0.40826801 0.012771284 -0.014063846)
(0.29366552 0.023150165 -0.02093972)
(0.15444853 0.034240011 -0.026231201)
(0.038819007 0.045160322 -0.029305255)
(0.041178123 -0.00091466592 -0.00083581315)
(0.11941497 -0.0027718827 -0.0025537536)
(0.19205541 -0.0047619552 -0.0044325177)
(0.23632012 -0.0066505693 -0.0062111645)
(0.22579181 -0.0080909182 -0.0075244342)
(0.14774738 -0.0088292118 -0.0077077144)
(0.016437036 -0.0090132768 -0.0064863437)
(-0.12920364 -0.0085819068 -0.0049925981)
(-0.24713862 -0.0079124933 -0.0043919364)
(0.045457119 -0.00095933629 -0.00077423372)
(0.12966214 -0.0028404579 -0.0023489561)
(0.20392331 -0.0047386616 -0.0040494196)
(0.24216918 -0.0063443212 -0.0055963006)
(0.21695596 -0.0072286136 -0.0066133203)
(0.12002959 -0.0072135517 -0.0064015233)
(-0.026744672 -0.0066695193 -0.0047641237)
(-0.17825508 -0.0057154377 -0.0030996906)
(-0.29510922 -0.0048179937 -0.0027217666)
(0.049877872 -0.00099987377 -0.00069934498)
(0.14071812 -0.0029129574 -0.0021227914)
(0.21796327 -0.0047439527 -0.0036773819)
(0.25257464 -0.0060905442 -0.0050973708)
(0.21638825 -0.0064414169 -0.0060130875)
(0.10544176 -0.0057454326 -0.0056868522)
(-0.051587542 -0.0045850409 -0.0038577665)
(-0.20569024 -0.0032356738 -0.0020386695)
(-0.32006309 -0.0021401092 -0.0015284007)
(0.053923771 -0.0010539035 -0.00063775535)
(0.15092071 -0.003035793 -0.0019456815)
(0.23119648 -0.0048533756 -0.0034107764)
(0.26324696 -0.0059902029 -0.0047838074)
(0.21856919 -0.005828192 -0.0056991724)
(0.097330301 -0.004456676 -0.0053852885)
(-0.066116435 -0.002687132 -0.0034747692)
(-0.22036421 -0.00095580778 -0.001515698)
(-0.33155981 0.00034866132 -0.00082559893)
(0.057465069 -0.0011041728 -0.00057669244)
(0.15992192 -0.0031713177 -0.0017838569)
(0.24304627 -0.0050240347 -0.0031984817)
(0.27327384 -0.0060136282 -0.0045937219)
(0.22198286 -0.0053880641 -0.0056064547)
(0.09317417 -0.0033789815 -0.0054213049)
(-0.074035304 -0.0010260784 -0.0035240298)
(-0.22674708 0.0010645471 -0.0014660713)
(-0.33415821 0.002539935 -0.00057078712)
(0.060525427 -0.0011490859 -0.00050596831)
(0.16772979 -0.0033147084 -0.0016025275)
(0.2534088 -0.0052468507 -0.0029839688)
(0.28228614 -0.0061530432 -0.0044608782)
(0.2257745 -0.0051361057 -0.0056687371)
(0.091349249 -0.0025759166 -0.0057316478)
(-0.07783425 0.00028757818 -0.003942421)
(-0.22795133 0.0026764532 -0.0018284636)
(-0.33116392 0.004263186 -0.00072692773)
(0.063099197 -0.0011763835 -0.00043011547)
(0.17431694 -0.003424431 -0.0014203845)
(0.26226309 -0.0054535346 -0.0027613059)
(0.29022499 -0.0063340981 -0.0043583349)
(0.22968416 -0.005029364 -0.0058400478)
(0.091122114 -0.0020660736 -0.006243256)
(-0.078900664 0.0011614044 -0.004641216)
(-0.22595824 0.0037311368 -0.0025141279)
(-0.32485057 0.0053460239 -0.0012143198)
(0.065273349 -0.0011721018 -0.00034730467)
(0.17995126 -0.0034473257 -0.0012109716)
(0.26998373 -0.0055405397 -0.0025695141)
(0.29766147 -0.006425469 -0.0042455228)
(0.234179 -0.004977258 -0.0060518311)
(0.092552466 -0.0018300953 -0.0068640895)
(-0.077772052 0.0015394919 -0.0055042655)
(-0.22187325 0.0041281562 -0.0034102438)
(-0.31675233 0.0056719328 -0.0019299038)
(0.067115756 -0.0011237234 -0.000262542)
(0.18482301 -0.0033248814 -0.0009877478)
(0.27687009 -0.0053743836 -0.0023111081)
(0.30465952 -0.0062570362 -0.0042469555)
(0.23929971 -0.0048103568 -0.006243166)
(0.09543385 -0.0017502699 -0.0074893807)
(-0.074987848 0.0014704346 -0.0064007413)
(-0.21657619 0.0038696055 -0.0043660071)
(-0.30805547 0.0052313189 -0.0027424906)
(0.068626793 -0.00098555751 -0.00016801263)
(0.18890594 -0.0029218286 -0.00072936507)
(0.28282418 -0.0047313195 -0.001985647)
(0.3110609 -0.0055100371 -0.0040613776)
(0.24455222 -0.0042453929 -0.0063697624)
(0.099076389 -0.0016163368 -0.0080415213)
(-0.071367883 0.00110363 -0.0072104653)
(-0.21101623 0.0030765097 -0.0052406232)
(-0.29987304 0.004148206 -0.003507969)
(0.069772703 -0.0006971285 -7.632682e-05)
(0.19201787 -0.0020665174 -0.00046947846)
(0.28743006 -0.0033470734 -0.0016339155)
(0.31609168 -0.0038980376 -0.0038143092)
(0.24881254 -0.0030161924 -0.0064473958)
(0.10232378 -0.0012021475 -0.0084670422)
(-0.068067745 0.00064757253 -0.0078242927)
(-0.20633685 0.001953602 -0.0059035395)
(-0.29339025 0.0026381075 -0.0040955156)
(0.070395227 -0.00025558376 -2.0446827e-05)
(0.1937866 -0.00075781273 -0.00031002994)
(0.29017306 -0.0012268842 -0.0014134163)
(0.31924617 -0.0014265503 -0.0036520364)
(0.25161385 -0.0011021169 -0.0064853061)
(0.10456381 -0.00044414554 -0.008707452)
(-0.065922389 0.00021579097 -0.0081611196)
(-0.203567 0.00066927337 -0.006257317)
(-0.28974292 0.00090441042 -0.0044090848)
(0.070395223 0.00025555404 -2.0449717e-05)
(0.19378658 0.00075777267 -0.00031002814)
(0.29017304 0.0012268584 -0.0014134126)
(0.31924614 0.0014265994 -0.0036520264)
(0.25161382 0.0011022845 -0.0064852916)
(0.10456378 0.00044442361 -0.0087074346)
(-0.065922419 -0.00021550034 -0.0081610931)
(-0.20356703 -0.00066910135 -0.0062572806)
(-0.28974294 -0.0009044497 -0.0044090355)
(0.069772691 0.00069709124 -7.6328784e-05)
(0.19201784 0.0020664542 -0.00046945729)
(0.28743001 0.003347013 -0.0016338981)
(0.3160916 0.0038980551 -0.003814283)
(0.24881245 0.0030163367 -0.0064473566)
(0.10232369 0.0012024136 -0.0084669933)
(-0.068067829 -0.00064728831 -0.0078242187)
(-0.20633692 -0.0019534366 -0.0059034405)
(-0.29339031 -0.0026381627 -0.0040953806)
(0.068626779 0.00098551401 -0.00016800064)
(0.18890589 0.0029217513 -0.00072930058)
(0.2828241 0.0047312375 -0.0019856014)
(0.3110608 0.0055100307 -0.0040613245)
(0.24455209 0.0042455233 -0.0063696954)
(0.099076259 0.001616612 -0.0080414507)
(-0.071367999 -0.0011033288 -0.0072103618)
(-0.21101634 -0.0030763435 -0.0052404825)
(-0.29987313 -0.004148304 -0.0035077702)
(0.06711574 0.0011236775 -0.00026251527)
(0.18482297 0.003324807 -0.00098764713)
(0.27687001 0.0053743057 -0.0023110187)
(0.3046594 0.0062570354 -0.0042468534)
(0.23929956 0.0048105213 -0.0062430851)
(0.095433695 0.0017506121 -0.0074893197)
(-0.074987989 -0.0014700667 -0.0064006345)
(-0.21657631 -0.003869418 -0.0043658384)
(-0.30805558 -0.0052314828 -0.0027422302)
(0.065273329 0.0011720571 -0.00034727589)
(0.1799512 0.0034472623 -0.0012108705)
(0.26998363 0.0055404844 -0.0025694095)
(0.29766132 0.0064255182 -0.0042454232)
(0.23417883 0.0049775157 -0.0060518019)
(0.092552284 0.0018305473 -0.0068640765)
(-0.077772221 -0.00153903 -0.0055041727)
(-0.22187339 -0.0041279346 -0.0034100508)
(-0.31675245 -0.0056721554 -0.0019295741)
(0.063099176 0.00117635 -0.00043009254)
(0.17431688 0.0034243944 -0.0014203263)
(0.26226298 0.005453532 -0.0027612591)
(0.29022483 0.006334245 -0.004358323)
(0.22968396 0.0050297354 -0.005840094)
(0.091121897 0.0020666282 -0.0062432886)
(-0.078900863 -0.0011608609 -0.0046411498)
(-0.22595839 -0.0037308801 -0.0025139401)
(-0.32485067 -0.0053462729 -0.0012139607)
(0.060525402 0.0011490656 -0.00050596773)
(0.16772971 0.0033147074 -0.0016025356)
(0.25340866 0.0052469037 -0.0029840093)
(0.28228595 0.0061532667 -0.0044609231)
(0.22577426 0.0051365669 -0.0056688001)
(0.091348988 0.0025765678 -0.0057317303)
(-0.077834485 -0.00028695081 -0.0039424343)
(-0.2279515 -0.0026761637 -0.0018283547)
(-0.33116401 -0.0042634672 -0.00072664248)
(0.057465037 0.0011041563 -0.00057668767)
(0.15992183 0.0031713282 -0.0017838595)
(0.24304611 0.0050241125 -0.0031985104)
(0.27327362 0.0060138865 -0.0045937678)
(0.22198257 0.0053885964 -0.0056065922)
(0.093173866 0.0033797083 -0.0054215101)
(-0.074035585 0.0010267729 -0.0035241729)
(-0.22674728 -0.0010642626 -0.0014660709)
(-0.33415833 -0.0025402753 -0.0005706269)
(0.05392374 0.0010538827 -0.00063774582)
(0.15092061 0.0030358042 -0.0019456694)
(0.23119632 0.0048534621 -0.0034107998)
(0.26324671 0.0059904675 -0.0047839042)
(0.21856888 0.0058287461 -0.0056994024)
(0.097329952 0.0044574156 -0.0053855946)
(-0.066116759 0.002687802 -0.0034750342)
(-0.22036445 0.00095604344 -0.0015158339)
(-0.33155996 -0.0003489844 -0.00082561065)
(0.049877842 0.00099986243 -0.00069933517)
(0.14071803 0.0029129996 -0.0021227799)
(0.21796311 0.0047440885 -0.0036774251)
(0.25257439 0.0060908593 -0.0050975318)
(0.21638792 0.0064419764 -0.0060134139)
(0.10544139 0.0057461425 -0.0056872956)
(-0.051587898 0.004585614 -0.003858207)
(-0.20569052 0.0032358758 -0.0020391295)
(-0.32006329 0.0021397868 -0.0015286729)
(0.045457091 0.000959343 -0.00077423452)
(0.12966206 0.0028405402 -0.0023489798)
(0.20392316 0.0047388558 -0.0040495229)
(0.24216894 0.0063447013 -0.0055965388)
(0.21695565 0.0072291908 -0.0066137286)
(0.12002924 0.0072141956 -0.0064020618)
(-0.02674503 0.0066699223 -0.0047647865)
(-0.17825541 0.0057153187 -0.0031002837)
(-0.29510943 0.0048175128 -0.0027220749)
(0.041178099 0.00091467897 -0.00083582245)
(0.11941491 0.0027719586 -0.0025538123)
(0.1920553 0.0047621212 -0.0044326631)
(0.23631996 0.0066508734 -0.0062114379)
(0.2257916 0.008091393 -0.0075248723)
(0.14774715 0.0088297668 -0.0077083922)
(0.016436806 0.0090136937 -0.0064871554)
(-0.12920386 0.0085817717 -0.0049935222)
(-0.24713876 0.0079121235 -0.0043923253)
(0.052339458 -0.00011114231 -0.00010273839)
(0.15387577 -0.00037778464 -0.00031872092)
(0.25281565 -0.00076250605 -0.00054105683)
(0.32381501 -0.0012770769 -0.00074068199)
(0.33681445 -0.0019110883 -0.00088458545)
(0.27341023 -0.0026161075 -0.0010956088)
(0.147268 -0.0032596819 -0.0014751756)
(0.00070981998 -0.0039512545 -0.0018012975)
(-0.12005231 -0.0047314107 -0.001931319)
(0.057866586 -0.0002130423 -0.00017458982)
(0.16756036 -0.00069437615 -0.00053597361)
(0.26995477 -0.0013275026 -0.00091058512)
(0.3359894 -0.0021029191 -0.0012512874)
(0.33422276 -0.0029878756 -0.0014944663)
(0.25021585 -0.0038718589 -0.0017976142)
(0.10662052 -0.0045992525 -0.0023149657)
(-0.047397364 -0.0053018084 -0.0027478045)
(-0.16832231 -0.0059470037 -0.0029383275)
(0.063376227 -0.00029682696 -0.00021207906)
(0.1815597 -0.00095990527 -0.00065249235)
(0.28839649 -0.0018095162 -0.00110671)
(0.3515128 -0.0028094209 -0.0015221838)
(0.3384927 -0.003876985 -0.0018392652)
(0.23890686 -0.0048374139 -0.0022179668)
(0.083314824 -0.0055666331 -0.0028480611)
(-0.074579588 -0.0062069521 -0.0034213663)
(-0.19398632 -0.0067308157 -0.0037391)
(0.068312455 -0.00037229296 -0.0002322186)
(0.19408402 -0.0011965564 -0.0007151272)
(0.30494238 -0.0022293431 -0.0012110135)
(0.365806 -0.003401144 -0.0016640298)
(0.34381762 -0.0045844075 -0.0020224461)
(0.23246099 -0.0055733821 -0.0024720278)
(0.068956905 -0.0062631439 -0.0032182877)
(-0.090114558 -0.006817482 -0.0039414569)
(-0.20709516 -0.0072502512 -0.0044084178)
(0.072498852 -0.00043098669 -0.00023454011)
(0.20467606 -0.0013834133 -0.00072465398)
(0.31887882 -0.0025602084 -0.0012291558)
(0.37782814 -0.0038590373 -0.001696333)
(0.34856964 -0.0051119959 -0.0020797194)
(0.2282531 -0.0060923566 -0.0025941582)
(0.059710879 -0.0067142746 -0.0034599131)
(-0.098648215 -0.0071741574 -0.0043338675)
(-0.21239859 -0.0075253512 -0.0049481729)
(0.075975099 -0.00047285436 -0.00021970221)
(0.21338145 -0.0015174212 -0.00068168585)
(0.33015383 -0.0027924023 -0.0011622044)
(0.38726965 -0.0041655229 -0.0016203126)
(0.35194688 -0.0054355328 -0.0020176464)
(0.22471326 -0.0063639832 -0.0025932134)
(0.053110684 -0.0068981959 -0.0035800259)
(-0.10331911 -0.0072615597 -0.0046027985)
(-0.21326906 -0.0075364516 -0.0053547541)
(0.07874126 -0.00049323116 -0.00019357908)
(0.22020702 -0.0015819205 -0.00060202518)
(0.33878748 -0.0028966772 -0.0010303483)
(0.3941225 -0.004279854 -0.0014554028)
(0.35376511 -0.0055070792 -0.0018536665)
(0.22121444 -0.0063468432 -0.0024876484)
(0.047882955 -0.0067830257 -0.0035942311)
(-0.10601034 -0.0070524856 -0.0047596489)
(-0.21194615 -0.0072551704 -0.0056357828)
(0.080891834 -0.0004836448 -0.00015754611)
(0.22547691 -0.0015516711 -0.0004906733)
(0.34536429 -0.0028304741 -0.00084267745)
(0.39915465 -0.0041470641 -0.0012141263)
(0.35473977 -0.0052683483 -0.0016031922)
(0.21808624 -0.0059911291 -0.0022950774)
(0.043740641 -0.0063275773 -0.0035189837)
(-0.10761402 -0.0065116717 -0.0048180236)
(-0.20975961 -0.0066493407 -0.0058021564)
(0.082523179 -0.0004391541 -0.00011611293)
(0.22947393 -0.0014094229 -0.00036194758)
(0.35034045 -0.002562855 -0.00062393439)
(0.40292016 -0.0037278474 -0.00092914578)
(0.35536881 -0.0046807062 -0.0012993303)
(0.2155828 -0.005260705 -0.0020450619)
(0.040577023 -0.005499872 -0.0033798958)
(-0.10859266 -0.0056126723 -0.0047998717)
(-0.20747906 -0.0056964007 -0.0058750222)
(0.083692705 -0.00035631916 -7.4507728e-05)
(0.23234557 -0.0011433541 -0.0002319575)
(0.35391485 -0.0020730646 -0.00040393279)
(0.40560368 -0.0029959393 -0.00064425425)