/*--------------------------------*- C++ -*----------------------------------*\
  =========                 |
  \\      /  F ield         | OpenFOAM: The Open Source CFD Toolbox
   \\    /   O peration     | Website:  https://openfoam.org
    \\  /    A nd           | Version:  10
     \\/     M anipulation  |
\*---------------------------------------------------------------------------*/
FoamFile
{
    format      ascii;
    class       volScalarField;
    location    "49";
    object      ddt0(T);
}
// * * * * * * * * * * * * * * * * * * * * * * * * * * * * * * * * * * * * * //

dimensions      [0 0 -1 1 0 0 0];

internalField   nonuniform List<scalar> 
10000
(
217.601
-5.50362
33.3821
30.722
30.6319
30.6812
30.6823
30.6819
30.6825
30.6831
30.6837
30.6842
30.6848
30.6853
30.6858
30.6864
30.6869
30.6874
30.688
30.6885
30.689
30.6895
30.69
30.6905
30.691
30.6915
30.692
30.6925
30.693
30.6935
30.694
30.6944
30.6949
30.6954
30.6958
30.6963
30.6968
30.6972
30.6976
30.6981
30.6985
30.6989
30.6994
30.6998
30.7002
30.7006
30.701
30.7014
30.7018
30.7021
30.7025
30.7029
30.7032
30.7036
30.7039
30.7043
30.7046
30.7049
30.7052
30.7056
30.7059
30.7062
30.7064
30.7067
30.707
30.7073
30.7075
30.7078
30.708
30.7083
30.7085
30.7087
30.709
30.7092
30.7094
30.7096
30.7097
30.7099
30.7101
30.7103
30.7104
30.7106
30.7107
30.7108
30.711
30.7111
30.7112
30.7113
30.7114
30.7114
30.7115
30.7116
30.7117
30.7117
30.7113
30.7083
30.7269
31.1279
29.7546
19.8767
2.37913
-31.7726
-8.32481
-13.9146
-13.6931
-13.5836
-13.5889
-13.5907
-13.5891
-13.5874
-13.5858
-13.5842
-13.5825
-13.5809
-13.5794
-13.5778
-13.5762
-13.5746
-13.573
-13.5715
-13.5699
-13.5684
-13.5669
-13.5653
-13.5638
-13.5623
-13.5608
-13.5594
-13.5579
-13.5564
-13.555
-13.5536
-13.5521
-13.5507
-13.5494
-13.548
-13.5466
-13.5453
-13.544
-13.5427
-13.5414
-13.5401
-13.5388
-13.5376
-13.5364
-13.5351
-13.534
-13.5328
-13.5316
-13.5305
-13.5294
-13.5283
-13.5272
-13.5261
-13.5251
-13.5241
-13.5231
-13.5221
-13.5212
-13.5202
-13.5193
-13.5184
-13.5175
-13.5167
-13.5159
-13.5151
-13.5143
-13.5135
-13.5128
-13.5121
-13.5114
-13.5107
-13.51
-13.5094
-13.5088
-13.5082
-13.5077
-13.5071
-13.5066
-13.5061
-13.5057
-13.5052
-13.5048
-13.5044
-13.504
-13.5037
-13.5034
-13.5031
-13.5028
-13.5025
-13.5023
-13.5021
-13.5019
-13.5016
-13.5016
-13.5069
-13.5259
-13.3461
-13.6926
-8.3799
37.2234
-10.8772
8.5935
3.42849
3.82642
3.94115
3.93255
3.93135
3.93414
3.93699
3.93971
3.9424
3.94508
3.94775
3.95042
3.95307
3.95571
3.95834
3.96095
3.96355
3.96614
3.96871
3.97126
3.9738
3.97632
3.97882
3.98131
3.98377
3.98621
3.98864
3.99104
3.99342
3.99577
3.99811
4.00042
4.0027
4.00496
4.0072
4.00941
4.01159
4.01374
4.01587
4.01797
4.02004
4.02209
4.0241
4.02608
4.02804
4.02996
4.03185
4.03371
4.03554
4.03733
4.0391
4.04083
4.04252
4.04418
4.04581
4.04741
4.04897
4.05049
4.05198
4.05343
4.05485
4.05623
4.05757
4.05888
4.06015
4.06139
4.06258
4.06374
4.06487
4.06595
4.06699
4.068
4.06897
4.0699
4.07079
4.07165
4.07246
4.07324
4.07397
4.07467
4.07533
4.07594
4.07652
4.07706
4.07756
4.07802
4.07844
4.07882
4.07915
4.07946
4.07988
4.08043
4.07615
4.04904
4.11681
3.66725
2.86378
35.1002
-15.8044
4.04901
-0.903056
-0.490949
-0.382995
-0.392493
-0.39268
-0.388755
-0.384812
-0.381017
-0.377253
-0.3735
-0.369759
-0.366033
-0.362323
-0.358629
-0.354952
-0.351294
-0.347656
-0.344038
-0.340442
-0.336868
-0.333318
-0.329792
-0.326292
-0.322817
-0.31937
-0.315951
-0.312561
-0.309201
-0.305871
-0.302573
-0.299307
-0.296075
-0.292876
-0.289712
-0.286584
-0.283492
-0.280438
-0.277421
-0.274442
-0.271503
-0.268603
-0.265744
-0.262926
-0.260151
-0.257417
-0.254727
-0.25208
-0.249477
-0.246919
-0.244406
-0.241939
-0.239519
-0.237145
-0.234819
-0.23254
-0.230309
-0.228127
-0.225995
-0.223911
-0.221877
-0.219894
-0.217961
-0.216079
-0.214249
-0.21247
-0.210742
-0.209067
-0.207445
-0.205875
-0.204358
-0.202895
-0.201485
-0.200128
-0.198826
-0.197578
-0.196384
-0.195244
-0.19416
-0.19313
-0.192155
-0.191235
-0.190371
-0.189562
-0.188808
-0.188111
-0.187468
-0.186882
-0.186353
-0.185883
-0.185462
-0.184908
-0.183518
-0.182262
-0.190939
-0.135311
-0.0423372
-0.161815
35.0225
-15.6238
4.39643
-0.540573
-0.135464
-0.0293086
-0.0379825
-0.0370108
-0.0319751
-0.0269482
-0.0220765
-0.0172386
-0.0124143
-0.0076061
-0.00281637
0.0019534
0.0067019
0.0114278
0.0161298
0.0208066
0.0254569
0.0300796
0.0346732
0.0392367
0.0437688
0.0482682
0.0527339
0.0571646
0.0615592
0.0659165
0.0702355
0.074515
0.078754
0.0829514
0.087106
0.091217
0.0952832
0.0993038
0.103278
0.107204
0.111082
0.11491
0.118688
0.122414
0.126089
0.12971
0.133278
0.136791
0.140249
0.143651
0.146996
0.150284
0.153513
0.156684
0.159795
0.162846
0.165836
0.168765
0.171632
0.174436
0.177177
0.179855
0.182469
0.185018
0.187502
0.189921
0.192274
0.19456
0.19678
0.198933
0.201018
0.203036
0.204985
0.206866
0.208678
0.210422
0.212096
0.2137
0.215234
0.216699
0.218093
0.219417
0.22067
0.221852
0.222963
0.224003
0.224971
0.225868
0.226694
0.227447
0.228128
0.228728
0.229226
0.229655
0.230404
0.231163
0.223514
0.2219
0.238783
0.261657
35.0639
-15.5284
4.49785
-0.445295
-0.0419386
0.0649339
0.0574237
0.0595246
0.065651
0.0717576
0.0777053
0.0836162
0.08951
0.0953839
0.101235
0.107062
0.112863
0.118636
0.12438
0.130093
0.135774
0.141422
0.147033
0.152608
0.158145
0.163641
0.169097
0.17451
0.179878
0.185201
0.190478
0.195706
0.200884
0.206012
0.211087
0.216109
0.221077
0.225989
0.230843
0.23564
0.240377
0.245054
0.249669
0.254221
0.25871
0.263135
0.267493
0.271785
0.27601
0.280166
0.284252
0.288269
0.292214
0.296087
0.299888
0.303615
0.307268
0.310846
0.314348
0.317774
0.321123
0.324394
0.327587
0.330701
0.333736
0.336691
0.339565
0.342359
0.345071
0.347701
0.350248
0.352713
0.355094
0.357392
0.359606
0.361736
0.363781
0.365741
0.367615
0.369404
0.371108
0.372725
0.374255
0.375699
0.377057
0.378327
0.37951
0.380606
0.381614
0.382536
0.38337
0.384114
0.384751
0.385272
0.38593
0.387228
0.386226
0.383575
0.380688
0.386643
35.0647
-15.5327
4.49082
-0.453101
-0.0489292
0.0591034
0.0527277
0.0559232
0.0631307
0.0703144
0.0773366
0.0843189
0.0912806
0.0982185
0.10513
0.112012
0.118864
0.125683
0.132467
0.139216
0.145926
0.152596
0.159224
0.165809
0.172349
0.178841
0.185285
0.191678
0.198019
0.204307
0.210539
0.216714
0.22283
0.228887
0.234882
0.240814
0.246681
0.252483
0.258217
0.263882
0.269478
0.275002
0.280453
0.28583
0.291132
0.296358
0.301506
0.306576
0.311565
0.316474
0.321301
0.326045
0.330705
0.33528
0.339769
0.344171
0.348486
0.352712
0.356849
0.360895
0.364851
0.368715
0.372486
0.376164
0.379749
0.383239
0.386634
0.389934
0.393137
0.396243
0.399252
0.402164
0.404977
0.407691
0.410306
0.412821
0.415237
0.417552
0.419766
0.421879
0.423891
0.425801
0.427609
0.429314
0.430918
0.432418
0.433816
0.43511
0.436301
0.437389
0.438374
0.439256
0.440024
0.44065
0.441191
0.44202
0.442655
0.442857
0.441473
0.442415
35.0645
-15.534
4.49012
-0.452796
-0.0474727
0.0616875
0.0564064
0.0606836
0.0689688
0.0772279
0.0853226
0.0933744
0.101402
0.109402
0.117371
0.125307
0.133208
0.141071
0.148894
0.156676
0.164413
0.172104
0.179747
0.18734
0.194881
0.202367
0.209797
0.217169
0.224481
0.231731
0.238917
0.246038
0.253091
0.260075
0.266987
0.273828
0.280593
0.287283
0.293895
0.300427
0.306879
0.313249
0.319535
0.325735
0.331849
0.337875
0.343811
0.349657
0.35541
0.361071
0.366636
0.372107
0.37748
0.382755
0.387932
0.393008
0.397983
0.402856
0.407626
0.412292
0.416853
0.421309
0.425658
0.429899
0.434032
0.438057
0.441972
0.445776
0.44947
0.453052
0.456521
0.459878
0.463122
0.466252
0.469267
0.472168
0.474953
0.477622
0.480175
0.482612
0.484932
0.487134
0.489219
0.491186
0.493034
0.494765
0.496376
0.497869
0.499242
0.500496
0.501631
0.502648
0.503545
0.504303
0.504905
0.505465
0.506014
0.506722
0.505738
0.507042
35.0651
-15.5324
4.4929
-0.448889
-0.0424568
0.0677939
0.063594
0.068949
0.0783099
0.0876421
0.0968073
0.105926
0.115018
0.124078
0.133103
0.14209
0.151037
0.159942
0.168802
0.177614
0.186376
0.195087
0.203742
0.212341
0.220881
0.229359
0.237774
0.246122
0.254403
0.262613
0.270752
0.278816
0.286803
0.294712
0.302541
0.310287
0.317949
0.325525
0.333013
0.340411
0.347718
0.354931
0.36205
0.369071
0.375995
0.382819
0.389542
0.396162
0.402678
0.409088
0.415391
0.421586
0.427672
0.433646
0.439508
0.445257
0.450891
0.45641
0.461812
0.467096
0.472261
0.477307
0.482232
0.487035
0.491716
0.496274
0.500708
0.505016
0.509199
0.513256
0.517185
0.520987
0.52466
0.528205
0.531619
0.534904
0.538058
0.541081
0.543973
0.546732
0.549359
0.551854
0.554215
0.556442
0.558536
0.560495
0.56232
0.56401
0.565566
0.566986
0.56827
0.569421
0.570438
0.571316
0.572038
0.572606
0.57307
0.573976
0.572474
0.574494
35.0657
-15.5307
4.49573
-0.444964
-0.037449
0.0738815
0.0707589
0.0771892
0.0876234
0.0980264
0.108259
0.118443
0.128595
0.138713
0.148791
0.158827
0.168819
0.178763
0.188656
0.198497
0.208282
0.218009
0.227675
0.237277
0.246813
0.256281
0.265678
0.275001
0.284248
0.293417
0.302505
0.31151
0.320429
0.329261
0.338003
0.346654
0.35521
0.36367
0.372032
0.380293
0.388453
0.396508
0.404457
0.412299
0.420031
0.427651
0.435159
0.442551
0.449828
0.456986
0.464025
0.470943
0.477738
0.484409
0.490956
0.497375
0.503667
0.50983
0.515862
0.521763
0.527532
0.533166
0.538666
0.54403
0.549257
0.554347
0.559298
0.564109
0.56878
0.57331
0.577698
0.581944
0.586046
0.590004
0.593817
0.597485
0.601008
0.604384
0.607613
0.610694
0.613628
0.616413
0.61905
0.621537
0.623875
0.626063
0.628101
0.629989
0.631725
0.633311
0.634746
0.636029
0.637163
0.638147
0.638974
0.639614
0.640068
0.641283
0.639136
0.641795
35.0662
-15.5291
4.49845
-0.441171
-0.0325786
0.0798282
0.0777802
0.0852832
0.0967878
0.108259
0.119557
0.130802
0.142013
0.153185
0.164313
0.175396
0.186429
0.197409
0.208334
0.2192
0.230005
0.240746
0.251419
0.262022
0.272553
0.283007
0.293383
0.303678
0.313889
0.324013
0.334048
0.343992
0.353841
0.363594
0.373247
0.382799
0.392247
0.401589
0.410822
0.419945
0.428955
0.43785
0.446628
0.455286
0.463824
0.472239
0.480529
0.488692
0.496727
0.504631
0.512404
0.520043
0.527546
0.534913
0.542142
0.54923
0.556178
0.562983
0.569644
0.57616
0.58253
0.588752
0.594825
0.600748
0.60652
0.61214
0.617607
0.62292
0.628078
0.63308
0.637926
0.642613
0.647143
0.651514
0.655725
0.659775
0.663664
0.667392
0.670958
0.67436
0.6776
0.680676
0.683587
0.686334
0.688915
0.691331
0.693582
0.695666
0.697584
0.699335
0.700919
0.702336
0.703587
0.704672
0.705591
0.706303
0.706752
0.708309
0.705556
0.708793
35.0668
-15.5274
4.50114
-0.437405
-0.0277393
0.0857407
0.0847642
0.0933368
0.105909
0.118444
0.130804
0.143108
0.155374
0.167597
0.179773
0.191899
0.20397
0.215984
0.227937
0.239826
0.251647
0.263399
0.275077
0.286678
0.298199
0.309637
0.32099
0.332254
0.343425
0.354503
0.365482
0.376362
0.387138
0.397808
0.40837
0.418821
0.429158
0.439379
0.449482
0.459463
0.469321
0.479053
0.488657
0.49813
0.507472
0.516678
0.525748
0.53468
0.543471
0.552119
0.560623
0.568981
0.57719
0.585251
0.593159
0.600915
0.608517
0.615962
0.623251
0.63038
0.637349
0.644156
0.650801
0.657281
0.663597
0.669746
0.675727
0.68154
0.687183
0.692656
0.697958
0.703087
0.708043
0.712825
0.717432
0.721864
0.726119
0.730198
0.734099
0.737822
0.741366
0.744731
0.747917
0.750922
0.753747
0.75639
0.758852
0.761133
0.763231
0.765147
0.766881
0.768431
0.769798
0.770985
0.771993
0.772775
0.773217
0.775084
0.771816
0.775552
35.0673
-15.5258
4.50382
-0.433651
-0.0229137
0.0916361
0.0917276
0.101366
0.115002
0.128599
0.142017
0.155376
0.168694
0.181965
0.195185
0.20835
0.221456
0.2345
0.247478
0.260386
0.273222
0.28598
0.298659
0.311255
0.323764
0.336183
0.348509
0.360739
0.372868
0.384895
0.396816
0.408628
0.420328
0.431914
0.443381
0.454728
0.465951
0.477049
0.488017
0.498854
0.509557
0.520124
0.530551
0.540837
0.550979
0.560975
0.570823
0.58052
0.590064
0.599454
0.608687
0.617762
0.626675
0.635427
0.644014
0.652435
0.660688
0.668772
0.676685
0.684425
0.691992
0.699383
0.706597
0.713633
0.72049
0.727166
0.73366
0.739972
0.746099
0.752041
0.757797
0.763366
0.768747
0.773939
0.778941
0.783753
0.788373
0.792801
0.797037
0.801079
0.804927
0.808581
0.81204
0.815303
0.818369
0.82124
0.823913
0.826389
0.828667
0.830748
0.83263
0.834313
0.835798
0.837086
0.838182
0.839034
0.839477
0.8416
0.837927
0.842069
35.0679
-15.5242
4.50649
-0.429909
-0.0181042
0.0975116
0.0986674
0.109369
0.124064
0.138719
0.153192
0.167602
0.181968
0.196283
0.210544
0.224744
0.238882
0.252952
0.266951
0.280875
0.29472
0.308483
0.32216
0.335747
0.34924
0.362636
0.375932
0.389124
0.402208
0.415181
0.42804
0.440782
0.453403
0.465899
0.478269
0.490509
0.502616
0.514586
0.526418
0.538107
0.549653
0.56105
0.572298
0.583393
0.594334
0.605116
0.615739
0.626199
0.636495
0.646623
0.656583
0.666371
0.675986
0.685426
0.694689
0.703772
0.712675
0.721395
0.729931
0.73828
0.746442
0.754415
0.762197
0.769787
0.777183
0.784385
0.79139
0.798198
0.804807
0.811217
0.817426
0.823433
0.829237
0.834838
0.840234
0.845424
0.850408
0.855185
0.859754
0.864114
0.868265
0.872206
0.875937
0.879457
0.882765
0.885861
0.888745
0.891416
0.893873
0.896117
0.898148
0.899964
0.901565
0.902954
0.904137
0.905061
0.905516
0.907836
0.903871
0.908326
35.0684
-15.5226
4.50916
-0.426181
-0.013313
0.103365
0.105581
0.11734
0.133092
0.1488
0.164323
0.179781
0.195191
0.210547
0.225843
0.241076
0.256241
0.271333
0.28635
0.301285
0.316137
0.3309
0.34557
0.360145
0.374618
0.388988
0.40325
0.4174
0.431435
0.445351
0.459145
0.472812
0.48635
0.499755
0.513024
0.526153
0.53914
0.55198
0.564671
0.57721
0.589595
0.601821
0.613886
0.625787
0.637523
0.649089
0.660483
0.671704
0.682747
0.693612
0.704295
0.714795
0.725109
0.735235
0.74517
0.754914
0.764464
0.773817
0.782973
0.79193
0.800685
0.809237
0.817584
0.825726
0.833659
0.841384
0.848899
0.856201
0.863291
0.870167
0.876827
0.88327
0.889497
0.895504
0.901292
0.90686
0.912206
0.91733
0.922231
0.926908
0.931361
0.935588
0.93959
0.943366
0.946914
0.950235
0.953329
0.956194
0.95883
0.961237
0.963415
0.965363
0.967081
0.96857
0.96984
0.970836
0.971315
0.973777
0.969626
0.974306
35.0689
-15.521
4.51181
-0.422469
-0.00854143
0.109194
0.112466
0.125279
0.142083
0.158839
0.175409
0.191911
0.20836
0.224752
0.24108
0.25734
0.273528
0.289639
0.305668
0.321612
0.337465
0.353224
0.368885
0.384442
0.399892
0.415232
0.430456
0.445561
0.460543
0.475398
0.490122
0.504711
0.519162
0.533472
0.547636
0.561651
0.575513
0.58922
0.602767
0.616153
0.629372
0.642423
0.655302
0.668007
0.680534
0.69288
0.705044
0.717021
0.72881
0.740407
0.751811
0.76302
0.774029
0.784838
0.795444
0.805845
0.816039
0.826024
0.835798
0.845358
0.854704
0.863833
0.872744
0.881434
0.889903
0.898149
0.906171
0.913966
0.921534
0.928874
0.935983
0.942862
0.949508
0.955921
0.962099
0.968042
0.973749
0.979219
0.984451
0.989443
0.994197
0.998709
1.00298
1.00701
1.0108
1.01434
1.01765
1.02071
1.02352
1.02609
1.02841
1.03049
1.03233
1.03392
1.03527
1.03634
1.03686
1.03941
1.03516
1.03999
35.0695
-15.5195
4.51445
-0.418773
-0.00379093
0.114997
0.11932
0.133183
0.151033
0.168835
0.186446
0.203986
0.221471
0.238894
0.25625
0.273533
0.290739
0.307864
0.324902
0.341849
0.3587
0.37545
0.392096
0.408632
0.425055
0.44136
0.457542
0.473597
0.489522
0.505311
0.520962
0.536469
0.55183
0.56704
0.582095
0.596992
0.611726
0.626296
0.640696
0.654923
0.668975
0.682847
0.696536
0.71004
0.723355
0.736479
0.749407
0.762138
0.774669
0.786997
0.799118
0.811032
0.822734
0.834223
0.845497
0.856552
0.867387
0.878001
0.888389
0.898551
0.908485
0.918188
0.92766
0.936897
0.9459
0.954664
0.963191
0.971477
0.979521
0.987322
0.994879
1.00219
1.00925
1.01607
1.02264
1.02896
1.03502
1.04084
1.0464
1.0517
1.05676
1.06155
1.06609
1.07038
1.0744
1.07817
1.08168
1.08493
1.08792
1.09066
1.09313
1.09534
1.09729
1.09898
1.10042
1.10155
1.10212
1.10472
1.10046
1.10538
35.07
-15.5179
4.51708
-0.415095
0.000937233
0.120773
0.126143
0.14105
0.159942
0.178783
0.197431
0.216005
0.23452
0.252969
0.271348
0.28965
0.30787
0.326003
0.344045
0.361991
0.379834
0.397572
0.415198
0.432709
0.450099
0.467365
0.4845
0.501501
0.518364
0.535084
0.551657
0.568078
0.584344
0.60045
0.616392
0.632167
0.64777
0.663197
0.678446
0.693511
0.708391
0.72308
0.737577
0.751876
0.765976
0.779872
0.793563
0.807044
0.820313
0.833367
0.846203
0.858818
0.87121
0.883376
0.895314
0.907021
0.918494
0.929733
0.940734
0.951494
0.962014
0.972289
0.982318
0.9921
1.00163
1.01091
1.01994
1.02872
1.03724
1.0455
1.0535
1.06124
1.06872
1.07594
1.08289
1.08958
1.09601
1.10216
1.10805
1.11367
1.11902
1.1241
1.12891
1.13345
1.13771
1.1417
1.14542
1.14886
1.15203
1.15492
1.15754
1.15988
1.16194
1.16373
1.16525
1.16646
1.16708
1.1697
1.16549
1.17044
35.0705
-15.5163
4.5197
-0.411435
0.00564177
0.12652
0.132931
0.148877
0.168806
0.188682
0.208362
0.227964
0.247504
0.266975
0.286371
0.305686
0.324915
0.344052
0.363093
0.382032
0.400864
0.419583
0.438185
0.456666
0.475019
0.49324
0.511324
0.529267
0.547063
0.564709
0.582199
0.599529
0.616696
0.633693
0.650518
0.667166
0.683633
0.699915
0.716007
0.731907
0.74761
0.763113
0.778412
0.793503
0.808383
0.823049
0.837498
0.851725
0.865729
0.879505
0.893052
0.906366
0.919444
0.932283
0.944882
0.957237
0.969346
0.981207
0.992817
1.00417
1.01527
1.02612
1.0367
1.04703
1.05709
1.06688
1.07641
1.08567
1.09466
1.10338
1.11182
1.12
1.12789
1.13551
1.14285
1.14991
1.15669
1.16318
1.1694
1.17533
1.18098
1.18634
1.19141
1.1962
1.2007
1.20491
1.20883
1.21247
1.21581
1.21886
1.22162
1.22409
1.22627
1.22816
1.22977
1.23105
1.23173
1.23434
1.23022
1.23516
35.071
-15.5148
4.5223
-0.407794
0.0103214
0.132237
0.139683
0.156663
0.177624
0.198528
0.219234
0.239859
0.260419
0.280906
0.301314
0.321637
0.341869
0.362005
0.38204
0.401967
0.421781
0.441478
0.461051
0.480495
0.499806
0.518978
0.538006
0.556885
0.57561
0.594176
0.612579
0.630814
0.648876
0.666761
0.684464
0.70198
0.719306
0.736438
0.75337
0.7701
0.786622
0.802934
0.819031
0.83491
0.850567
0.865998
0.8812
0.89617
0.910905
0.9254
0.939653
0.953662
0.967422
0.980932
0.994188
1.00719
1.01993
1.03241
1.04462
1.05657
1.06825
1.07966
1.0908
1.10166
1.11225
1.12256
1.13258
1.14232
1.15178
1.16096
1.16984
1.17844
1.18675
1.19476
1.20248
1.20991
1.21705
1.22388
1.23042
1.23666
1.2426
1.24824
1.25358
1.25862
1.26336
1.26779
1.27191
1.27574
1.27925
1.28247
1.28537
1.28797
1.29026
1.29225
1.29394
1.29529
1.29603
1.29862
1.29463
1.29954
35.0716
-15.5132
4.52489
-0.404174
0.0149749
0.137922
0.146398
0.164405
0.186392
0.208319
0.230046
0.251688
0.273262
0.294759
0.316174
0.337499
0.358729
0.379858
0.400881
0.421791
0.442582
0.46325
0.483788
0.504192
0.524455
0.544572
0.564539
0.584349
0.603997
0.623479
0.64279
0.661924
0.680877
0.699643
0.718219
0.7366
0.75478
0.772757
0.790524
0.808079
0.825416
0.842532
0.859423
0.876085
0.892514
0.908707
0.924659
0.940367
0.955828
0.971038
0.985995
1.00069
1.01513
1.02931
1.04322
1.05686
1.07023
1.08332
1.09614
1.10868
1.12094
1.13291
1.1446
1.156
1.1671
1.17792
1.18844
1.19866
1.20859
1.21821
1.22754
1.23656
1.24527
1.25369
1.26179
1.26958
1.27707
1.28424
1.2911
1.29765
1.30389
1.3098
1.31541
1.32069
1.32566
1.33031
1.33464
1.33865
1.34235
1.34572
1.34877
1.35149
1.3539
1.35598
1.35775
1.35917
1.35999
1.36252
1.3587
1.36355
35.0721
-15.5117
4.52746
-0.400575
0.0196009
0.143573
0.153073
0.172102
0.195108
0.218053
0.240794
0.263448
0.286029
0.308531
0.330946
0.353268
0.37549
0.397606
0.419611
0.441498
0.463261
0.484894
0.506392
0.527749
0.548959
0.570016
0.590915
0.611651
0.632217
0.65261
0.672823
0.692851
0.712689
0.732332
0.751776
0.771016
0.790046
0.808862
0.827459
0.845834
0.863982
0.881898
0.899578
0.917018
0.934215
0.951164
0.967861
0.984303
1.00049
1.01641
1.03206
1.04745
1.06256
1.0774
1.09196
1.10624
1.12023
1.13394
1.14736
1.16048
1.17331
1.18584
1.19808
1.21001
1.22163
1.23295
1.24396
1.25467
1.26506
1.27513
1.28489
1.29433
1.30346
1.31226
1.32074
1.3289
1.33674
1.34425
1.35143
1.35828
1.36481
1.371
1.37687
1.3824
1.3876
1.39247
1.397
1.4012
1.40507
1.40859
1.41179
1.41464
1.41716
1.41934
1.42119
1.42268
1.42357
1.42605
1.4224
1.42717
35.0726
-15.5101
4.53002
-0.396998
0.0241983
0.149189
0.159706
0.179751
0.203771
0.227726
0.251475
0.275134
0.298717
0.322218
0.345627
0.368939
0.392147
0.415244
0.438225
0.461083
0.483811
0.506404
0.528856
0.55116
0.573311
0.595302
0.617128
0.638784
0.660263
0.68156
0.702669
0.723586
0.744304
0.764819
0.785126
0.805218
0.825092
0.844743
0.864166
0.883356
0.902308
0.921019
0.939484
0.957698
0.975657
0.993358
1.0108
1.02797
1.04487
1.0615
1.07785
1.09391
1.1097
1.1252
1.1404
1.15531
1.16993
1.18424
1.19826
1.21196
1.22536
1.23845
1.25122
1.26368
1.27583
1.28765
1.29915
1.31032
1.32118
1.3317
1.34189
1.35175
1.36128
1.37048
1.37933
1.38785
1.39604
1.40388
1.41138
1.41854
1.42535
1.43182
1.43795
1.44373
1.44916
1.45424
1.45898
1.46336
1.4674
1.47108
1.47442
1.4774
1.48003
1.48231
1.48424
1.48579
1.48675
1.48918
1.48572
1.49041
35.0731
-15.5086
4.53256
-0.393445
0.0287658
0.154769
0.166297
0.187351
0.212377
0.237337
0.262087
0.286745
0.311323
0.335815
0.360212
0.384508
0.408695
0.432767
0.456718
0.48054
0.504228
0.527775
0.551174
0.574419
0.597505
0.620424
0.643171
0.665741
0.688126
0.710322
0.732322
0.754122
0.775714
0.797095
0.818258
0.839199
0.859912
0.880392
0.900634
0.920634
0.940386
0.959887
0.97913
0.998113
1.01683
1.03528
1.05345
1.07135
1.08896
1.10629
1.12333
1.14008
1.15653
1.17268
1.18853
1.20407
1.2193
1.23422
1.24882
1.26311
1.27707
1.29071
1.30403
1.31701
1.32967
1.34199
1.35397
1.36562
1.37693
1.3879
1.39852
1.4088
1.41873
1.42831
1.43754
1.44642
1.45495
1.46313
1.47094
1.4784
1.48551
1.49225
1.49863
1.50466
1.51032
1.51561
1.52055
1.52512
1.52933
1.53317
1.53664
1.53975
1.54249
1.54486
1.54688
1.5485
1.54953
1.5519
1.54863
1.55323
35.0736
-15.5071
4.53508
-0.389915
0.0333022
0.160311
0.172842
0.194898
0.220925
0.246882
0.272627
0.298276
0.323843
0.34932
0.374699
0.399971
0.425131
0.450172
0.475085
0.499866
0.524506
0.548999
0.57334
0.59752
0.621534
0.645375
0.669037
0.692514
0.7158
0.738888
0.761773
0.784449
0.80691
0.829151
0.851165
0.872948
0.894494
0.915798
0.936854
0.957658
0.978205
0.99849
1.01851
1.03825
1.05772
1.07691
1.09582
1.11443
1.13276
1.15078
1.16851
1.18593
1.20304
1.21984
1.23633
1.25249
1.26834
1.28385
1.29905
1.31391
1.32843
1.34262
1.35647
1.36998
1.38314
1.39596
1.40843
1.42054
1.43231
1.44371
1.45476
1.46546
1.47579
1.48575
1.49536
1.5046
1.51347
1.52197
1.5301
1.53786
1.54525
1.55226
1.5589
1.56517
1.57106
1.57657
1.5817
1.58646
1.59083
1.59483
1.59844
1.60167
1.60453
1.607
1.60909
1.61078
1.61188
1.61419
1.6111
1.61562
35.0741
-15.5056
4.53758
-0.386411
0.0378063
0.165813
0.179342
0.202392
0.229411
0.256359
0.283092
0.309726
0.336275
0.362729
0.389082
0.415325
0.44145
0.467452
0.493322
0.519054
0.54464
0.570073
0.595348
0.620456
0.645392
0.670149
0.694719
0.719097
0.743277
0.767252
0.791015
0.814562
0.837885
0.860979
0.883838
0.906457
0.92883
0.950952
0.972817
0.994419
1.01575
1.03682
1.0576
1.07811
1.09833
1.11825
1.13788
1.15721
1.17624
1.19496
1.21336
1.23145
1.24922
1.26667
1.28378
1.30057
1.31702
1.33314
1.34891
1.36434
1.37943
1.39416
1.40854
1.42257
1.43624
1.44955
1.46249
1.47507
1.48729
1.49913
1.51061
1.52171
1.53244
1.54279
1.55276
1.56235
1.57156
1.58039
1.58884
1.5969
1.60457
1.61185
1.61875
1.62525
1.63137
1.63709
1.64242
1.64736
1.6519
1.65605
1.6598
1.66316
1.66612
1.66869
1.67086
1.67261
1.67379
1.67604
1.67314
1.67758
35.0746
-15.5041
4.54007
-0.382933
0.042277
0.171275
0.185792
0.209831
0.237835
0.265766
0.293479
0.32109
0.348613
0.376039
0.403358
0.430564
0.457648
0.484604
0.511423
0.538099
0.564624
0.590991
0.617193
0.643223
0.669073
0.694738
0.72021
0.745483
0.77055
0.795404
0.82004
0.84445
0.868629
0.892571
0.916269
0.939718
0.962912
0.985845
1.00851
1.03091
1.05303
1.07486
1.09641
1.11767
1.13863
1.15928
1.17964
1.19967
1.2194
1.2388
1.25788
1.27664
1.29506
1.31314
1.33089
1.34829
1.36535
1.38205
1.39841
1.4144
1.43004
1.44532
1.46022
1.47477
1.48894
1.50273
1.51616
1.5292
1.54186
1.55414
1.56604
1.57755
1.58867
1.5994
1.60974
1.61968
1.62923
1.63838
1.64714
1.65549
1.66345
1.671
1.67815
1.68489
1.69123
1.69716
1.70269
1.70781
1.71252
1.71682
1.72071
1.72419
1.72726
1.72992
1.73217
1.73399
1.73524
1.73744
1.7347
1.73907
35.0751
-15.5026
4.54253
-0.379481
0.0467131
0.176694
0.192193
0.217211
0.246194
0.2751
0.303786
0.332367
0.360856
0.389245
0.417524
0.445685
0.473721
0.501623
0.529384
0.556997
0.584453
0.611746
0.638869
0.665812
0.692571
0.719137
0.745504
0.771664
0.797611
0.823339
0.848839
0.874107
0.899135
0.923918
0.948448
0.972721
0.996729
1.02047
1.04393
1.06711
1.09001
1.11261
1.13492
1.15692
1.17862
1.2
1.22106
1.24181
1.26222
1.28231
1.30206
1.32147
1.34054
1.35926
1.37763
1.39564
1.4133
1.43059
1.44752
1.46408
1.48026
1.49608
1.51151
1.52656
1.54123
1.55551
1.5694
1.58291
1.59601
1.60873
1.62104
1.63295
1.64446
1.65557
1.66627
1.67657
1.68645
1.69593
1.70499
1.71364
1.72187
1.72969
1.73709
1.74407
1.75063
1.75677
1.76249
1.76779
1.77266
1.77712
1.78114
1.78475
1.78793
1.79068
1.79301
1.79489
1.79621
1.79836
1.79579
1.80009
35.0756
-15.5011
4.54498
-0.376058
0.0511133
0.18207
0.198543
0.224533
0.254485
0.284358
0.314009
0.343552
0.373001
0.402345
0.431576
0.460685
0.489664
0.518505
0.5472
0.575742
0.604123
0.632335
0.660369
0.68822
0.715879
0.74334
0.770594
0.797634
0.824455
0.851048
0.877407
0.903525
0.929396
0.955012
0.980368
1.00546
1.03027
1.05481
1.07906
1.10303
1.12669
1.15006
1.17311
1.19586
1.21828
1.24038
1.26216
1.2836
1.30471
1.32547
1.34588
1.36595
1.38566
1.40501
1.424
1.44262
1.46086
1.47874
1.49624
1.51335
1.53008
1.54643
1.56238
1.57794
1.5931
1.60786
1.62222
1.63618
1.64973
1.66287
1.6756
1.68791
1.69981
1.71129
1.72235
1.73299
1.74321
1.753
1.76237
1.77131
1.77982
1.7879
1.79555
1.80277
1.80955
1.8159
1.82181
1.82729
1.83233
1.83693
1.84109
1.84482
1.8481
1.85095
1.85336
1.85531
1.85669
1.8588
1.85638
1.86062
35.0761
-15.4997
4.5474
-0.372663
0.0554767
0.1874
0.204839
0.231793
0.262706
0.29354
0.324147
0.354644
0.385043
0.415335
0.445509
0.475558
0.505473
0.535245
0.564867
0.594331
0.623628
0.65275
0.68169
0.71044
0.738992
0.767339
0.795473
0.823387
0.851073
0.878525
0.905735
0.932696
0.959402
0.985846
1.01202
1.03792
1.06354
1.08887
1.1139
1.13864
1.16307
1.18719
1.21099
1.23447
1.25762
1.28043
1.30291
1.32504
1.34683
1.36826
1.38934
1.41005
1.4304
1.45037
1.46997
1.48919
1.50803
1.52648
1.54455
1.56221
1.57948
1.59636
1.61282
1.62888
1.64454
1.65978
1.6746
1.68901
1.70299
1.71656
1.7297
1.74241
1.75469
1.76654
1.77796
1.78895
1.79949
1.8096
1.81927
1.8285
1.83729
1.84563
1.85352
1.86097
1.86798
1.87453
1.88063
1.88629
1.89149
1.89624
1.90054
1.90438
1.90777
1.91071
1.9132
1.91521
1.91666
1.91874
1.91645
1.92065
35.0765
-15.4982
4.54981
-0.369297
0.0598021
0.192684
0.21108
0.238989
0.270856
0.302641
0.334197
0.365639
0.396981
0.428212
0.459322
0.490302
0.521144
0.55184
0.58238
0.612757
0.642962
0.672988
0.702825
0.732466
0.761904
0.791129
0.820136
0.848915
0.87746
0.905762
0.933816
0.961613
0.989147
1.01641
1.0434
1.0701
1.09651
1.12263
1.14844
1.17394
1.19913
1.22399
1.24853
1.27274
1.29661
1.32013
1.3433
1.36612
1.38859
1.41068
1.43241
1.45377
1.47474
1.49534
1.51555
1.53536
1.55479
1.57381
1.59243
1.61065
1.62846
1.64585
1.66283
1.67939
1.69552
1.71124
1.72652
1.74137
1.75579
1.76978
1.78332
1.79643
1.8091
1.82132
1.83309
1.84441
1.85529
1.86571
1.87568
1.88519
1.89425
1.90285
1.91099
1.91867
1.92589
1.93265
1.93894
1.94477
1.95014
1.95504
1.95947
1.96343
1.96693
1.96996
1.97252
1.9746
1.97611
1.97816
1.97599
1.98016
35.077
-15.4968
4.55219
-0.365963
0.0640883
0.19792
0.217265
0.246121
0.278933
0.311659
0.344155
0.376535
0.408811
0.440972
0.473009
0.504913
0.536674
0.568284
0.599735
0.631017
0.662122
0.693042
0.723769
0.754293
0.784608
0.814704
0.844575
0.874212
0.903607
0.932754
0.961643
0.990269
1.01862
1.0467
1.07449
1.10199
1.12919
1.15608
1.18266
1.20892
1.23486
1.26047
1.28574
1.31067
1.33524
1.35947
1.38333
1.40683
1.42997
1.45272
1.4751
1.49709
1.51869
1.5399
1.56071
1.58112
1.60112
1.62071
1.63989
1.65865
1.67698
1.6949
1.71238
1.72943
1.74605
1.76223
1.77797
1.79327
1.80812
1.82252
1.83647
1.84997
1.86301
1.87559
1.88772
1.89938
1.91058
1.92131
1.93158
1.94137
1.9507
1.95956
1.96794
1.97585
1.98329
1.99025
1.99673
2.00273
2.00825
2.0133
2.01786
2.02195
2.02555
2.02867
2.03131
2.03344
2.03502
2.03705
2.03499
2.03913
35.0775
-15.4954
4.55455
-0.362659
0.0683343
0.203107
0.223391
0.253185
0.286933
0.320593
0.35402
0.387329
0.42053
0.453613
0.486568
0.519386
0.552058
0.584574
0.616926
0.649105
0.681102
0.712909
0.744516
0.775915
0.807099
0.838058
0.868785
0.899272
0.92951
0.959491
0.989209
1.01866
1.04782
1.0767
1.10529
1.13358
1.16156
1.18922
1.21656
1.24358
1.27026
1.2966
1.32259
1.34824
1.37352
1.39844
1.42299
1.44716
1.47096
1.49436
1.51738
1.54
1.56222
1.58404
1.60545
1.62644
1.64702
1.66717
1.6869
1.70619
1.72506
1.74348
1.76147
1.77901
1.7961
1.81275
1.82894
1.84467
1.85995
1.87476
1.88911
1.903
1.91641
1.92936
1.94183
1.95383
1.96535
1.97639
1.98695
1.99703
2.00662
2.01573
2.02436
2.0325
2.04014
2.0473
2.05397
2.06014
2.06583
2.07102
2.07571
2.07991
2.08362
2.08683
2.08954
2.09174
2.09337
2.09539
2.09343
2.09755
35.078
-15.494
4.55689
-0.359387
0.0725391
0.208244
0.229459
0.260181
0.294856
0.329441
0.36379
0.398017
0.432134
0.466131
0.499995
0.533719
0.567292
0.600706
0.633951
0.667018
0.699898
0.732582
0.765061
0.797327
0.829372
0.861185
0.89276
0.924088
0.95516
0.985969
1.01651
1.04677
1.07674
1.10642
1.13579
1.16486
1.19361
1.22204
1.25014
1.2779
1.30531
1.33238
1.35909
1.38544
1.41142
1.43703
1.46226
1.4871
1.51155
1.5356
1.55926
1.5825
1.60534
1.62775
1.64975
1.67132
1.69247
1.71318
1.73345
1.75328
1.77266
1.7916
1.81008
1.8281
1.84567
1.86277
1.87941
1.89558
1.91128
1.9265
1.94125
1.95552
1.9693
1.9826
1.99542
2.00775
2.01959
2.03093
2.04178
2.05214
2.062
2.07136
2.08023
2.08859
2.09645
2.1038
2.11065
2.117
2.12284
2.12817
2.133
2.13731
2.14112
2.14442
2.14721
2.14947
2.15116
2.15316
2.1513
2.15541
35.0784
-15.4926
4.5592
-0.356149
0.0767015
0.213329
0.235465
0.267107
0.302699
0.338199
0.373461
0.408598
0.443622
0.478522
0.513287
0.547908
0.582373