/*--------------------------------*- C++ -*----------------------------------*\
  =========                 |
  \\      /  F ield         | OpenFOAM: The Open Source CFD Toolbox
   \\    /   O peration     | Website:  https://openfoam.org
    \\  /    A nd           | Version:  10
     \\/     M anipulation  |
\*---------------------------------------------------------------------------*/
FoamFile
{
    format      ascii;
    class       volScalarField;
    location    "7.6";
    object      T;
}
// * * * * * * * * * * * * * * * * * * * * * * * * * * * * * * * * * * * * * //

dimensions      [0 0 -1 0 0 0 0];

internalField   nonuniform List<scalar> 
100
(
0.0395064
0.117119
0.190582
0.257294
0.314891
0.361333
0.394975
0.414624
0.419585
0.409682
0.385266
0.347202
0.296838
0.235958
0.166719
0.0915743
0.0131854
-0.0656706
-0.1422
-0.213692
-0.277614
-0.331702
-0.374038
-0.403124
-0.417929
-0.417929
-0.403124
-0.374038
-0.331701
-0.277613
-0.213691
-0.142199
-0.0656695
0.0131865
0.0915754
0.16672
0.235959
0.296839
0.347203
0.385267
0.409683
0.419586
0.414624
0.394975
0.361333
0.314891
0.257294
0.190581
0.117118
0.0395056
-0.0395064
-0.117119
-0.190582
-0.257294
-0.314891
-0.361333
-0.394975
-0.414624
-0.419585
-0.409683
-0.385266
-0.347202
-0.296838
-0.235958
-0.166719
-0.0915746
-0.0131857
0.0656704
0.1422
0.213692
0.277614
0.331701
0.374038
0.403124
0.417929
0.417929
0.403124
0.374038
0.331701
0.277614
0.213692
0.142199
0.0656698
-0.0131862
-0.0915751
-0.16672
-0.235959
-0.296838
-0.347202
-0.385267
-0.409682
-0.419585
-0.414624
-0.394974
-0.361333
-0.314891
-0.257293
-0.190581
-0.117118
-0.0395055
)
;

boundaryField
{
    inlet
    {
        type            cyclic;
    }
    outlet
    {
        type            cyclic;
    }
    bottom
    {
        type            slip;
    }
    top
    {
        type            slip;
    }
    frontAndBack
    {
        type            empty;
    }
}


// ************************************************************************* //
