/*--------------------------------*- C++ -*----------------------------------*\
  =========                 |
  \\      /  F ield         | OpenFOAM: The Open Source CFD Toolbox
   \\    /   O peration     | Website:  https://openfoam.org
    \\  /    A nd           | Version:  10
     \\/     M anipulation  |
\*---------------------------------------------------------------------------*/
FoamFile
{
    format      ascii;
    class       volScalarField;
    location    "7.6";
    object      T_0;
}
// * * * * * * * * * * * * * * * * * * * * * * * * * * * * * * * * * * * * * //

dimensions      [0 0 -1 0 0 0 0];

internalField   nonuniform List<scalar> 
100
(
0.0397842
0.117942
0.191922
0.259104
0.317106
0.363874
0.397752
0.41754
0.422536
0.412563
0.387976
0.349644
0.298925
0.237617
0.167892
0.0922183
0.0132781
-0.0661325
-0.1432
-0.215195
-0.279567
-0.334034
-0.376669
-0.405959
-0.420869
-0.420869
-0.405959
-0.376668
-0.334034
-0.279566
-0.215194
-0.143199
-0.0661313
0.0132793
0.0922194
0.167893
0.237618
0.298926
0.349644
0.387976
0.412564
0.422536
0.41754
0.397752
0.363874
0.317105
0.259103
0.191922
0.117942
0.0397834
-0.0397842
-0.117942
-0.191923
-0.259104
-0.317106
-0.363874
-0.397753
-0.41754
-0.422536
-0.412564
-0.387976
-0.349644
-0.298925
-0.237618
-0.167892
-0.0922186
-0.0132784
0.0661322
0.1432
0.215195
0.279566
0.334034
0.376668
0.405959
0.420869
0.420869
0.405959
0.376668
0.334034
0.279566
0.215194
0.143199
0.0661316
-0.013279
-0.0922191
-0.167892
-0.237618
-0.298926
-0.349644
-0.387976
-0.412564
-0.422536
-0.41754
-0.397752
-0.363874
-0.317105
-0.259103
-0.191922
-0.117942
-0.0397833
)
;

boundaryField
{
    inlet
    {
        type            cyclic;
    }
    outlet
    {
        type            cyclic;
    }
    bottom
    {
        type            slip;
    }
    top
    {
        type            slip;
    }
    frontAndBack
    {
        type            empty;
    }
}


// ************************************************************************* //
