/*--------------------------------*- C++ -*----------------------------------*\
  =========                 |
  \\      /  F ield         | OpenFOAM: The Open Source CFD Toolbox
   \\    /   O peration     | Website:  https://openfoam.org
    \\  /    A nd           | Version:  10
     \\/     M anipulation  |
\*---------------------------------------------------------------------------*/
FoamFile
{
    format      ascii;
    class       volScalarField;
    location    "44";
    object      ddt0(T);
}
// * * * * * * * * * * * * * * * * * * * * * * * * * * * * * * * * * * * * * //

dimensions      [0 0 -1 1 0 0 0];

internalField   nonuniform List<scalar> 
10000
(
313.017
4.41564
54.021
51.3339
51.1207
51.1868
51.1929
51.1925
51.1931
51.1939
51.1946
51.1952
51.1959
51.1965
51.1971
51.1978
51.1984
51.199
51.1997
51.2003
51.2009
51.2015
51.2021
51.2027
51.2033
51.2039
51.2045
51.205
51.2056
51.2062
51.2067
51.2073
51.2078
51.2084
51.2089
51.2095
51.21
51.2105
51.211
51.2115
51.212
51.2125
51.213
51.2135
51.214
51.2144
51.2149
51.2154
51.2158
51.2162
51.2167
51.2171
51.2175
51.2179
51.2183
51.2187
51.2191
51.2194
51.2198
51.2202
51.2205
51.2209
51.2212
51.2215
51.2218
51.2221
51.2224
51.2227
51.223
51.2233
51.2235
51.2238
51.224
51.2243
51.2245
51.2247
51.2249
51.2251
51.2253
51.2255
51.2257
51.2258
51.226
51.2261
51.2263
51.2264
51.2265
51.2266
51.2267
51.2268
51.2269
51.227
51.2271
51.2271
51.2265
51.2243
51.264
51.739
49.1815
35.9695
16.8242
-51.8097
-14.7557
-21.9786
-22.0071
-21.8466
-21.8426
-21.8454
-21.8441
-21.842
-21.8401
-21.8382
-21.8363
-21.8344
-21.8325
-21.8306
-21.8288
-21.8269
-21.825
-21.8232
-21.8214
-21.8196
-21.8177
-21.816
-21.8142
-21.8124
-21.8107
-21.8089
-21.8072
-21.8055
-21.8038
-21.8021
-21.8005
-21.7988
-21.7972
-21.7956
-21.794
-21.7924
-21.7909
-21.7894
-21.7879
-21.7864
-21.7849
-21.7835
-21.7821
-21.7807
-21.7793
-21.7779
-21.7766
-21.7753
-21.774
-21.7727
-21.7715
-21.7703
-21.7691
-21.7679
-21.7668
-21.7656
-21.7645
-21.7635
-21.7624
-21.7614
-21.7604
-21.7594
-21.7585
-21.7576
-21.7567
-21.7558
-21.755
-21.7542
-21.7534
-21.7526
-21.7519
-21.7512
-21.7505
-21.7498
-21.7492
-21.7486
-21.748
-21.7475
-21.747
-21.7465
-21.746
-21.7455
-21.7451
-21.7447
-21.7444
-21.744
-21.7437
-21.7435
-21.7432
-21.743
-21.7427
-21.7425
-21.7429
-21.7508
-21.7608
-21.4761
-21.9931
-14.7325
60.698
-18.7424
12.3541
5.23936
5.44647
5.6333
5.63509
5.63254
5.63525
5.6386
5.64184
5.64503
5.64821
5.65137
5.65453
5.65767
5.66079
5.6639
5.66699
5.67006
5.67311
5.67615
5.67916
5.68215
5.68512
5.68806
5.69098
5.69388
5.69675
5.6996
5.70241
5.7052
5.70796
5.71069
5.7134
5.71607
5.71871
5.72132
5.72389
5.72644
5.72895
5.73142
5.73386
5.73627
5.73864
5.74097
5.74327
5.74553
5.74775
5.74993
5.75208
5.75419
5.75625
5.75828
5.76027
5.76222
5.76413
5.76599
5.76782
5.7696
5.77134
5.77304
5.7747
5.77632
5.77789
5.77942
5.78091
5.78235
5.78375
5.78511
5.78642
5.78769
5.78892
5.7901
5.79123
5.79233
5.79338
5.79438
5.79534
5.79626
5.79713
5.79796
5.79874
5.79948
5.80017
5.80082
5.80142
5.80198
5.80249
5.80296
5.80338
5.80376
5.80413
5.80461
5.80466
5.79645
5.76485
5.87206
5.17209
4.43725
58.6203
-25.0673
6.09222
-0.755679
-0.502115
-0.318401
-0.318143
-0.319816
-0.3158
-0.311153
-0.306634
-0.30217
-0.297725
-0.293297
-0.288887
-0.284497
-0.280129
-0.275783
-0.271462
-0.267165
-0.262895
-0.258652
-0.254439
-0.250255
-0.246102
-0.241982
-0.237895
-0.233842
-0.229825
-0.225845
-0.221903
-0.217999
-0.214135
-0.210312
-0.206531
-0.202792
-0.199097
-0.195447
-0.191841
-0.188282
-0.18477
-0.181306
-0.17789
-0.174524
-0.171207
-0.167942
-0.164727
-0.161565
-0.158455
-0.155399
-0.152396
-0.149448
-0.146555
-0.143717
-0.140935
-0.138209
-0.13554
-0.132928
-0.130374
-0.127878
-0.12544
-0.123061
-0.120741
-0.11848
-0.116279
-0.114138
-0.112057
-0.110037
-0.108077
-0.106177
-0.104339
-0.102562
-0.100847
-0.0991929
-0.0976006
-0.0960702
-0.0946018
-0.0931954
-0.0918512
-0.0905693
-0.0893498
-0.0881927
-0.0870982
-0.0860662
-0.085097
-0.0841905
-0.0833467
-0.0825658
-0.0818478
-0.0811929
-0.0806022
-0.0800758
-0.0795741
-0.0788221
-0.0772232
-0.0775355
-0.0893929
-0.00284425
0.0861849
-0.136704
58.4442
-25.1088
6.26903
-0.532238
-0.280254
-0.0989479
-0.0982137
-0.0986309
-0.093306
-0.0873715
-0.0815754
-0.0758391
-0.0701258
-0.0644336
-0.0587651
-0.0531222
-0.0475068
-0.0419205
-0.036365
-0.0308418
-0.0253527
-0.0198991
-0.0144826
-0.0091047
-0.00376693
0.00152927
0.00678244
0.0119912
0.017154
0.0222697
0.0273368
0.032354
0.0373201
0.0422337
0.0470936
0.0518987
0.0566478
0.0613397
0.0659733
0.0705475
0.0750613
0.0795137
0.0839037
0.0882304
0.0924927
0.0966899
0.100821
0.104885
0.108882
0.11281
0.116669
0.120458
0.124177
0.127824
0.1314
0.134903
0.138333
0.14169
0.144973
0.148181
0.151314
0.154371
0.157353
0.160258
0.163087
0.165839
0.168514
0.171111
0.17363
0.17607
0.178433
0.180716
0.182921
0.185047
0.187093
0.18906
0.190947
0.192755
0.194483
0.19613
0.197697
0.199185
0.200591
0.201918
0.203163
0.204329
0.205413
0.206417
0.20734
0.208182
0.208941
0.209607
0.21017
0.210746
0.211808
0.21207
0.200851
0.20431
0.232568
0.247246
58.5002
-24.9701
6.43324
-0.370432
-0.12076
0.0608426
0.0627846
0.0636872
0.0703091
0.0775252
0.0845966
0.0916037
0.0985833
0.105537
0.112461
0.119355
0.126214
0.133038
0.139825
0.146572
0.153277
0.159939
0.166556
0.173126
0.179646
0.186116
0.192533
0.198896
0.205203
0.211452
0.217642
0.223771
0.229838
0.23584
0.241777
0.247647
0.253449
0.25918
0.264841
0.270429
0.275943
0.281382
0.286745
0.29203
0.297237
0.302364
0.307411
0.312376
0.317258
0.322057
0.326771
0.3314
0.335942
0.340398
0.344766
0.349046
0.353236
0.357336
0.361346
0.365265
0.369093
0.372828
0.37647
0.38002
0.383475
0.386837
0.390104
0.393277
0.396354
0.399336
0.402221
0.405011
0.407705
0.410301
0.412801
0.415204
0.41751
0.419718
0.421828
0.423841
0.425755
0.427572
0.42929
0.430911
0.432433
0.433856
0.435181
0.436407
0.437535
0.438564
0.439495
0.44032
0.441021
0.441631
0.44254
0.444045
0.441778
0.438239
0.435801
0.445902
58.5053
-24.9663
6.43545
-0.36955
-0.119385
0.0634226
0.0666848
0.0688891
0.0767955
0.0852886
0.0936328
0.101909
0.110152
0.118365
0.126544
0.134685
0.142787
0.150847
0.158862
0.166831
0.174751
0.182619
0.190434
0.198194
0.205895
0.213537
0.221116
0.228631
0.23608
0.243461
0.250772
0.258011
0.265177
0.272266
0.279278
0.286211
0.293063
0.299833
0.306518
0.313118
0.319631
0.326055
0.332389
0.338632
0.344781
0.350837
0.356798
0.362662
0.368428
0.374096
0.379664
0.385131
0.390496
0.395759
0.400918
0.405972
0.410922
0.415765
0.420501
0.42513
0.42965
0.434062
0.438364
0.442556
0.446637
0.450608
0.454467
0.458214
0.461848
0.46537
0.468778
0.472073
0.475255
0.478322
0.481274
0.484112
0.486835
0.489443
0.491936
0.494313
0.496574
0.49872
0.50075
0.502663
0.504461
0.506142
0.507707
0.509155
0.510487
0.511703
0.512803
0.513784
0.514631
0.51532
0.515988
0.51707
0.517682
0.517569
0.515178
0.517915
58.5051
-24.9684
6.43365
-0.370444
-0.119029
0.065096
0.0696598
0.0731495
0.082334
0.0921011
0.101716
0.111258
0.120763
0.130233
0.139663
0.14905
0.158392
0.167685
0.176927
0.186115
0.195247
0.204319
0.21333
0.222277
0.231157
0.239968
0.248707
0.257372
0.265962
0.274472
0.282902
0.291249
0.29951
0.307685
0.31577
0.323764
0.331664
0.33947
0.347178
0.354788
0.362297
0.369705
0.377008
0.384206
0.391297
0.398279
0.405152
0.411913
0.418562
0.425097
0.431517
0.437821
0.444007
0.450075
0.456024
0.461852
0.467558
0.473142
0.478603
0.48394
0.489152
0.494239
0.4992
0.504033
0.508739
0.513317
0.517767
0.522087
0.526278
0.530338
0.534268
0.538068
0.541736
0.545272
0.548676
0.551949
0.555088
0.558095
0.560969
0.56371
0.566318
0.568792
0.571132
0.573339
0.575411
0.57735
0.579154
0.580824
0.58236
0.583761
0.585029
0.586164
0.587159
0.58799
0.588659
0.58934
0.590047
0.590898
0.588967
0.591503
58.5057
-24.967
6.43643
-0.366369
-0.113648
0.0717744
0.0776226
0.0823905
0.0928494
0.103888
0.11477
0.125575
0.136339
0.147063
0.157741
0.168372
0.17895
0.189474
0.19994
0.210345
0.220685
0.230959
0.241164
0.251295
0.261351
0.271328
0.281225
0.291038
0.300764
0.310402
0.319947
0.329399
0.338755
0.348012
0.357168
0.36622
0.375167
0.384006
0.392735
0.401353
0.409856
0.418244
0.426514
0.434665
0.442695
0.450602
0.458385
0.466042
0.473571
0.480971
0.488241
0.49538
0.502385
0.509257
0.515993
0.522592
0.529055
0.535378
0.541562
0.547606
0.553508
0.559268
0.564886
0.570359
0.575689
0.580873
0.585911
0.590804
0.595549
0.600148
0.604598
0.6089
0.613054
0.617059
0.620914
0.62462
0.628175
0.63158
0.634835
0.637939
0.640892
0.643693
0.646343
0.648842
0.651189
0.653384
0.655428
0.657319
0.659058
0.660645
0.662079
0.663364
0.664497
0.665469
0.66626
0.666887
0.667476
0.668688
0.665928
0.669551
58.5064
-24.965
6.43976
-0.36174
-0.107733
0.0789712
0.0860966
0.0921386
0.103869
0.116175
0.128321
0.140386
0.152406
0.16438
0.176305
0.188174
0.199987
0.211738
0.223424
0.235043
0.246589
0.258062
0.269456
0.280769
0.291998
0.303139
0.314189
0.325147
0.336007
0.346769
0.357428
0.367983
0.378429
0.388766
0.398989
0.409097
0.419088
0.428957
0.438705
0.448327
0.457823
0.467189
0.476424
0.485525
0.494492
0.503321
0.512011
0.520561
0.528968
0.537232
0.54535
0.553321
0.561143
0.568816
0.576338
0.583707
0.590923
0.597984
0.604889
0.611637
0.618228
0.62466
0.630933
0.637045
0.642995
0.648784
0.65441
0.659873
0.665172
0.670307
0.675277
0.680081
0.684719
0.68919
0.693495
0.697633
0.701603
0.705406
0.70904
0.712506
0.715803
0.718931
0.721891
0.724681
0.727301
0.729753
0.732034
0.734146
0.736088
0.73786
0.739462
0.740894
0.742158
0.743253
0.744165
0.744854
0.745411
0.747091
0.743215
0.747977
58.5071
-24.963
6.44299
-0.357224
-0.10194
0.0860391
0.0944376
0.10175
0.114748
0.128318
0.141725
0.155047
0.168319
0.18154
0.194705
0.207812
0.220854
0.233829
0.246732
0.259561
0.27231
0.284977
0.297558
0.310049
0.322447
0.334749
0.34695
0.359049
0.37104
0.382923
0.394692
0.406345
0.41788
0.429293
0.440581
0.451742
0.462773
0.47367
0.484433
0.495057
0.505542
0.515883
0.52608
0.536129
0.546029
0.555778
0.565373
0.574814
0.584096
0.59322
0.602184
0.610985
0.619622
0.628094
0.636399
0.644535
0.652503
0.660299
0.667923
0.675375
0.682652
0.689754
0.696679
0.703428
0.709998
0.71639
0.722602
0.728634
0.734485
0.740154
0.745641
0.750946
0.756067
0.761004
0.765757
0.770326
0.77471
0.778908
0.782921
0.786748
0.790388
0.793843
0.79711
0.800191
0.803085
0.805791
0.80831
0.810642
0.812786
0.814743
0.816511
0.818092
0.819486
0.820696
0.821713
0.822476
0.823017
0.825215
0.82027
0.826075
58.5077
-24.9611
6.44618
-0.352759
-0.0962021
0.0930485
0.102716
0.111295
0.125556
0.140387
0.15505
0.169624
0.184144
0.198608
0.213012
0.22735
0.241619
0.255813
0.26993
0.283964
0.297912
0.31177
0.325534
0.339199
0.352763
0.366221
0.37957
0.392806
0.405925
0.418924
0.4318
0.444549
0.457169
0.469654
0.482004
0.494214
0.506282
0.518204
0.529978
0.541602
0.553072
0.564385
0.575541
0.586535
0.597366
0.608031
0.618529
0.628856
0.639012
0.648994
0.6588
0.668428
0.677877
0.687146
0.696231
0.705133
0.713849
0.722379
0.73072
0.738872
0.746833
0.754602
0.762179
0.769562
0.77675
0.783743
0.790539
0.797138
0.803539
0.809742
0.815745
0.821548
0.82715
0.832552
0.837752
0.84275
0.847546
0.852139
0.856529
0.860716
0.864698
0.868477
0.872052
0.875423
0.878588
0.881549
0.884306
0.886857
0.889202
0.891343
0.893278
0.895007
0.896532
0.897854
0.898972
0.899806
0.900329
0.903003
0.897144
0.903844
58.5084
-24.9592
6.44936
-0.348311
-0.0904862
0.100031
0.110963
0.120804
0.136325
0.152411
0.168326
0.184148
0.199912
0.215615
0.231252
0.246818
0.262308
0.277718
0.293044
0.30828
0.323423
0.338467
0.353409
0.368245
0.38297
0.397581
0.412073
0.426442
0.440685
0.454798
0.468776
0.482617
0.496317
0.509872
0.523279
0.536535
0.549636
0.562579
0.575362
0.58798
0.600432
0.612715
0.624826
0.636761
0.64852
0.660098
0.671495
0.682707
0.693732
0.704568
0.715214
0.725667
0.735925
0.745987
0.755851
0.765515
0.774978
0.784238
0.793293
0.802143
0.810786
0.819221
0.827446
0.835462
0.843265
0.850857
0.858235
0.865399
0.872348
0.879082
0.885599
0.891899
0.897981
0.903845
0.909491
0.914917
0.920123
0.92511
0.929876
0.934421
0.938745
0.942848
0.946729
0.950388
0.953825
0.957039
0.960031
0.962801
0.965348
0.967672
0.969772
0.97165
0.973305
0.97474
0.975956
0.976865
0.977377
0.980441
0.973862
0.981286
58.509
-24.9573
6.45253
-0.34388
-0.0847913
0.106988
0.11918
0.130278
0.147053
0.16439
0.181553
0.198618
0.21562
0.232557
0.249423
0.266212
0.282919
0.299541
0.31607
0.332504
0.348836
0.365063
0.381179
0.397181
0.413063
0.428822
0.444453
0.459951
0.475313
0.490534
0.505611
0.52054
0.535316
0.549936
0.564397
0.578694
0.592825
0.606785
0.620572
0.634182
0.647613
0.660861
0.673923
0.686796
0.699479
0.711967
0.724259
0.736352
0.748243
0.759931
0.771414
0.782688
0.793752
0.804605
0.815244
0.825667
0.835873
0.845861
0.855628
0.865173
0.874495
0.883593
0.892465
0.90111
0.909527
0.917715
0.925673
0.9334
0.940895
0.948157
0.955186
0.961981
0.968542
0.974867
0.980956
0.986808
0.992424
0.997802
1.00294
1.00785
1.01251
1.01693
1.02112
1.02507
1.02877
1.03224
1.03547
1.03846
1.0412
1.04371
1.04597
1.048
1.04978
1.05133
1.05265
1.05363
1.05415
1.05751
1.05041
1.05838
58.5097
-24.9554
6.45568
-0.339467
-0.0791195
0.113916
0.127363
0.139713
0.157737
0.17632
0.194725
0.213028
0.231264
0.249429
0.267519
0.285526
0.303446
0.321273
0.339002
0.356627
0.374145
0.391549
0.408835
0.425997
0.443032
0.459934
0.476699
0.493321
0.509798
0.526124
0.542294
0.558306
0.574154
0.589835
0.605345
0.620679
0.635835
0.650808
0.665596
0.680193
0.694598
0.708807
0.722817
0.736624
0.750227
0.763621
0.776805
0.789775
0.80253
0.815065
0.827381
0.839473
0.85134
0.86298
0.874391
0.88557
0.896517
0.907229
0.917704
0.927942
0.937941
0.947698
0.957214
0.966486
0.975514
0.984296
0.992831
1.00112
1.00916
1.01695
1.02449
1.03177
1.03881
1.04559
1.05213
1.0584
1.06443
1.07019
1.07571
1.08097
1.08597
1.09071
1.0952
1.09944
1.10341
1.10713
1.11059
1.1138
1.11674
1.11943
1.12186
1.12403
1.12595
1.12761
1.12902
1.13008
1.13062
1.13418
1.12675
1.13512
58.5103
-24.9536
6.45882
-0.335074
-0.073473
0.120814
0.13551
0.149106
0.168374
0.188197
0.207838
0.227374
0.246838
0.266227
0.285534
0.304754
0.323881
0.342908
0.361831
0.380644
0.399341
0.417917
0.436367
0.454685
0.472867
0.490907
0.508801
0.526543
0.544129
0.561555
0.578814
0.595904
0.61282
0.629557
0.646111
0.662478
0.678654
0.694636
0.710419
0.726
0.741375
0.75654
0.771493
0.786231
0.800749
0.815046
0.829117
0.842961
0.856574
0.869954
0.883099
0.896005
0.908671
0.921095
0.933274
0.945207
0.95689
0.968324
0.979505
0.990432
1.0011
1.01152
1.02167
1.03157
1.04121
1.05058
1.05969
1.06854
1.07712
1.08543
1.09348
1.10126
1.10877
1.11601
1.12298
1.12968
1.13611
1.14226
1.14815
1.15376
1.1591
1.16417
1.16896
1.17348
1.17772
1.18169
1.18538
1.1888
1.19195
1.19482
1.19741
1.19973
1.20177
1.20355
1.20505
1.20619
1.20676
1.21046
1.20285
1.21148
58.5109
-24.9517
6.46195
-0.330703
-0.0678534
0.127679
0.143617
0.158455
0.17896
0.200017
0.220889
0.241652
0.262338
0.282944
0.303464
0.323891
0.344219
0.364441
0.384552
0.404546
0.424417
0.44416
0.463768
0.483237
0.50256
0.521733
0.54075
0.559607
0.578297
0.596817
0.61516
0.633323
0.651301
0.669089
0.686682
0.704077
0.721269
0.738254
0.755028
0.771588
0.787928
0.804046
0.819938
0.835601
0.851031
0.866225
0.88118
0.895893
0.910361
0.924581
0.938551
0.952268
0.96573
0.978933
0.991877
1.00456
1.01698
1.02913
1.04101
1.05262
1.06397
1.07503
1.08583
1.09635
1.10659
1.11655
1.12623
1.13563
1.14475
1.15359
1.16214
1.17041
1.17839
1.18608
1.19349
1.20061
1.20745
1.21399
1.22024
1.22621
1.23188
1.23727
1.24236
1.24716
1.25167
1.25589
1.25982
1.26345
1.26679
1.26984
1.2726
1.27507
1.27724
1.27912
1.28072
1.28194
1.28256
1.28631
1.27867
1.28743
58.5116
-24.9498
6.46506
-0.326353
-0.0622624
0.134509
0.151684
0.167755
0.189492
0.211778
0.233874
0.255857
0.277759
0.299577
0.321303
0.34293
0.364453
0.385864
0.407157
0.428326
0.449366
0.470269
0.49103
0.511643
0.532102
0.552402
0.572538
0.592502
0.612291
0.6319
0.651321
0.670552
0.689587
0.70842
0.727048
0.745465
0.763668
0.781651
0.799411
0.816944
0.834245
0.85131
0.868136
0.88472
0.901057
0.917144
0.932978
0.948556
0.963874
0.97893
0.993722
1.00824
1.0225
1.03648
1.05018
1.06361
1.07676
1.08962
1.1022
1.1145
1.12651
1.13823
1.14966
1.16079
1.17163
1.18218
1.19243
1.20239
1.21204
1.2214
1.23045
1.23921
1.24766
1.2558
1.26365
1.27119
1.27842
1.28535
1.29197
1.29829
1.3043
1.31
1.31539
1.32047
1.32525
1.32972
1.33387
1.33772
1.34126
1.34449
1.34741
1.35002
1.35232
1.35431
1.356
1.3573
1.35798
1.36174
1.35417
1.36298
58.5122
-24.948
6.46815
-0.322027
-0.0567016
0.141301
0.159707
0.177006
0.199967
0.223474
0.246788
0.269986
0.293097
0.31612
0.339045
0.361867
0.384578
0.407171
0.42964
0.451979
0.47418
0.496237
0.518144
0.539896
0.561485
0.582906
0.604153
0.625221
0.646102
0.666793
0.687288
0.70758
0.727666
0.747539
0.767196
0.78663
0.805838
0.824814
0.843555
0.862055
0.880312
0.898319
0.916075
0.933574
0.950813
0.967788
0.984497
1.00093
1.0171
1.03299
1.04859
1.06392
1.07896
1.09371
1.10817
1.12234
1.13621
1.14979
1.16307
1.17604
1.18871
1.20108
1.21314
1.22489
1.23633
1.24746
1.25828
1.26878
1.27897
1.28884
1.2984
1.30763
1.31655
1.32515
1.33343
1.34138
1.34902
1.35633
1.36331
1.36998
1.37632
1.38233
1.38802
1.39339
1.39843
1.40314
1.40753
1.41159
1.41533
1.41873
1.42181
1.42457
1.42699
1.4291
1.43088
1.43226
1.43301
1.43673
1.42933
1.4381
58.5128
-24.9461
6.47123
-0.317725
-0.0511726
0.148055
0.167684
0.186203
0.210382
0.235104
0.259629
0.284033
0.308347
0.332568
0.356686
0.380696
0.404588
0.428357
0.451995
0.475496
0.498852
0.522057
0.545104
0.567988
0.5907
0.613236
0.635588
0.657752
0.67972
0.701488
0.723048
0.744397
0.765527
0.786435
0.807114
0.827559
0.847767
0.86773
0.887446
0.906909
0.926115
0.94506
0.963739
0.982149
1.00028
1.01814
1.03572
1.05301
1.07002
1.08673
1.10315
1.11928
1.1351
1.15062
1.16583
1.18074
1.19533
1.20961
1.22358
1.23723
1.25056
1.26357
1.27626
1.28862
1.30066
1.31237
1.32375
1.3348
1.34552
1.3559
1.36595
1.37567
1.38505
1.3941
1.40281
1.41118
1.41921
1.4269
1.43425
1.44126
1.44793
1.45426
1.46024
1.46589
1.47119
1.47615
1.48077
1.48504
1.48897
1.49255
1.49579
1.49869
1.50124
1.50345
1.50533
1.50679
1.50761
1.51126
1.50409
1.51277
58.5134
-24.9443
6.47428
-0.31345
-0.045677
0.154769
0.175613
0.195346
0.220735
0.246664
0.272393
0.297996
0.323506
0.348917
0.374221
0.399411
0.424478
0.449415
0.474215
0.498871
0.523375
0.547721
0.571902
0.59591
0.619739
0.643382
0.666834
0.690087
0.713135
0.735973
0.758593
0.780991
0.803161
0.825096
0.846791
0.868242
0.889443
0.910388
0.931073
0.951493
0.971643
0.991519
1.01112
1.03043
1.04946
1.06819
1.08664
1.10478
1.12262
1.14016
1.15738
1.1743
1.1909
1.20718
1.22314
1.23878
1.25409
1.26908
1.28373
1.29805
1.31204
1.32569
1.339
1.35197
1.3646
1.37688
1.38882
1.40041
1.41166
1.42256
1.4331
1.4433
1.45314
1.46263
1.47177
1.48055
1.48897
1.49704
1.50476
1.51211
1.51911
1.52575
1.53203
1.53795
1.54351
1.54872
1.55356
1.55804
1.56216
1.56593
1.56933
1.57237
1.57504
1.57737
1.57933
1.58087
1.58177
1.58533
1.57844
1.58698
58.514
-24.9425
6.47732
-0.309202
-0.0402164
0.161439
0.183491
0.20443
0.231022
0.25815
0.285075
0.31187
0.338568
0.365162
0.391644
0.418007
0.444241
0.470339
0.496294
0.522098
0.547743
0.573223
0.598529
0.623655
0.648593
0.673338
0.697881
0.722217
0.746338
0.770239
0.793913
0.817353
0.840555
0.863511
0.886217
0.908667
0.930854
0.952774
0.974422
0.995793
1.01688
1.03768
1.05819
1.07841
1.09832
1.11793
1.13723
1.15622
1.17489
1.19324
1.21127
1.22897
1.24635
1.26339
1.28009
1.29646
1.31248
1.32816
1.3435
1.35849
1.37312
1.38741
1.40134
1.41491
1.42813
1.44099
1.45348
1.46561
1.47738
1.48879
1.49982
1.51049
1.5208
1.53073
1.54029
1.54948
1.5583
1.56674
1.57481
1.58251
1.58984
1.59678
1.60336
1.60956
1.61538
1.62082
1.62589
1.63058
1.6349
1.63883
1.64239
1.64557
1.64838
1.65081
1.65286
1.65448
1.65546
1.65891
1.65233
1.66071
58.5146
-24.9407
6.48033
-0.304982
-0.0347921
0.168065
0.191317
0.213453
0.24124
0.26956
0.297672
0.325652
0.353529
0.381299
0.408951
0.436479
0.463872
0.491124
0.518226
0.54517
0.571948
0.598554
0.624978
0.651214
0.677255
0.703093
0.728721
0.754132
0.779319
0.804276
0.828996
0.853473
0.8777
0.901671
0.92538
0.948821
0.971989
0.994878
1.01748
1.0398
1.06182
1.08354
1.10495
1.12606
1.14685
1.16733
1.18748
1.20731
1.22681
1.24597
1.2648
1.28328
1.30142
1.31921
1.33666
1.35375
1.37048
1.38685
1.40287
1.41852
1.4338
1.44872
1.46326
1.47744
1.49124
1.50466
1.51771
1.53038
1.54267
1.55458
1.5661
1.57724
1.588
1.59837
1.60835
1.61795
1.62716
1.63598
1.6444
1.65244
1.66009
1.66735
1.67421
1.68068
1.68676
1.69245
1.69774
1.70264
1.70714
1.71125
1.71497
1.71829
1.72122
1.72376
1.72591
1.7276
1.72866
1.732
1.72574
1.73395
58.5152
-24.9389
6.48333
-0.300791
-0.0294059
0.174645
0.199088
0.222413
0.251386
0.28089
0.310182
0.339337
0.368386
0.397323
0.426137
0.454821
0.483366
0.511763
0.540004
0.56808
0.595984
0.623708
0.651243
0.678582
0.705717
0.73264
0.759345
0.785824
0.81207
0.838076
0.863834
0.88934
0.914585
0.939563
0.964268
0.988695
1.01284
1.03669
1.06024
1.08349
1.10644
1.12907
1.15139
1.17338
1.19505
1.21639
1.23739
1.25805
1.27836
1.29833
1.31795
1.33721
1.35611
1.37465
1.39283
1.41064
1.42807
1.44514
1.46182
1.47813
1.49406
1.5096
1.52476
1.53953
1.55391
1.56789
1.58149
1.59469
1.6075
1.6199
1.63191
1.64352
1.65473
1.66554
1.67594
1.68594
1.69554
1.70473
1.71351
1.72188
1.72985
1.73741
1.74457
1.75131
1.75765
1.76357
1.76909
1.77419
1.77889
1.78317
1.78704
1.7905
1.79356
1.7962
1.79844
1.8002
1.80135
1.80457
1.79864
1.80667
58.5158
-24.9371
6.4863
-0.296631
-0.0240591
0.181177
0.206803
0.231308
0.261459
0.292136
0.3226
0.352922
0.383134
0.413229
0.443198
0.47303
0.502717
0.532251
0.561623
0.590823
0.619844
0.648678
0.677315
0.705748
0.73397
0.761971
0.789745
0.817284
0.844581
0.871628
0.898418
0.924944
0.951199
0.977178
1.00287
1.02828
1.05338
1.07819
1.10269
1.12687
1.15074
1.17427
1.19748
1.22036
1.24289
1.26508
1.28692
1.30841
1.32954
1.35031
1.37071
1.39074
1.4104
1.42968
1.44859
1.46711
1.48524
1.50299
1.52034
1.5373
1.55387
1.57003
1.5858
1.60116
1.61611
1.63066
1.6448
1.65853
1.67185
1.68475
1.69724
1.70932
1.72098
1.73222
1.74304
1.75343
1.76341
1.77297
1.78211
1.79082
1.79911
1.80697
1.81441
1.82142
1.82801
1.83417
1.83991
1.84522
1.8501
1.85456
1.85859
1.86219
1.86536
1.86811
1.87043
1.87228
1.87351
1.87662
1.87101
1.87886
58.5164
-24.9353
6.48925
-0.292503
-0.0187532
0.187658
0.214458
0.240135
0.271454
0.303297
0.334923
0.366404
0.397769
0.429014
0.460127
0.491099
0.521921
0.552583
0.583076
0.613392
0.643522
0.673456
0.703188
0.732707
0.762006
0.791078
0.819913
0.848504
0.876843
0.904923
0.932736
0.960276
0.987534
1.0145
1.04118
1.06756
1.09362
1.11938
1.14481
1.16992
1.19469
1.21913
1.24323
1.26697
1.29037
1.31341
1.33608
1.35839
1.38033
1.40189
1.42307
1.44387
1.46428
1.4843
1.50392
1.52315
1.54198
1.5604
1.57842
1.59602
1.61322
1.63
1.64637
1.66232
1.67784
1.69295
1.70763
1.72188
1.73571
1.74911
1.76208
1.77461
1.78671
1.79838
1.80961
1.82041
1.83077
1.84069
1.85018
1.85922
1.86783
1.87599
1.88372
1.891
1.89784
1.90424
1.91019
1.9157
1.92077
1.9254
1.92958
1.93332
1.93662
1.93947
1.94188
1.9438
1.94512
1.94811
1.94282
1.9505
58.517
-24.9336
6.49218
-0.288408
-0.0134897
0.194088
0.222052
0.248891
0.281369
0.314369
0.347147
0.379777
0.412288
0.444673
0.476922
0.509024
0.540971
0.572752
0.604358
0.635781
0.66701
0.698037
0.728854
0.759451
0.78982
0.819952
0.849839
0.879474
0.908847
0.937952
0.966781
0.995325
1.02358
1.05153
1.07918
1.10652
1.13354
1.16023
1.18659
1.21262
1.2383
1.26363
1.2886
1.31322
1.33747
1.36134
1.38485
1.40797
1.43071
1.45305
1.47501
1.49656
1.51772
1.53847
1.55881
1.57874
1.59826
1.61735
1.63603
1.65428
1.6721
1.6895
1.70646
1.72299
1.73908
1.75474
1.76996
1.78473
1.79906
1.81295
1.82639
1.83938
1.85193
1.86402
1.87566
1.88685
1.89759
1.90788
1.91771
1.92708
1.936
1.94446
1.95247
1.96002
1.96711
1.97374
1.97991
1.98563
1.99088
1.99568
2.00001
2.00389
2.0073
2.01026
2.01276
2.01475
2.01615
2.01904
2.01404
2.02157
58.5176
-24.9318
6.49508
-0.284347
-0.0082699
0.200464
0.229583
0.257574
0.291202
0.325349
0.35927
0.39304
0.426686
0.460202
0.493577
0.5268
0.559862
0.592753
0.625463
0.657983
0.690303
0.722414
0.754307
0.785972
0.817401
0.848586
0.879517
0.910186
0.940586
0.970707
1.00054
1.03008
1.05932
1.08825
1.11687
1.14516
1.17312
1.20075
1.22803
1.25496
1.28154
1.30775
1.3336
1.35908
1.38417
1.40888
1.43321
1.45714
1.48067
1.50379
1.52652
1.54883
1.57072
1.59219
1.61325
1.63387
1.65407
1.67383
1.69316
1.71204
1.73049
1.74849
1.76605
1.78316
1.79981
1.81601
1.83176
1.84705
1.86188
1.87626
1.89017
1.90361
1.9166
1.92911
1.94116
1.95274
1.96386
1.9745
1.98467
1.99438
2.00361
2.01237
2.02065
2.02846
2.0358
2.04266
2.04905
2.05497
2.06041
2.06537
2.06986
2.07387
2.0774
2.08046
2.08305
2.08512
2.08659
2.08939
2.08467
2.09206
58.5182
-24.9301
6.49796
-0.280321
-0.00309527
0.206786
0.237049
0.266183
0.30095
0.336233
0.371288
0.406187
0.440959
0.475596
0.510088
0.544422
0.578591
0.612582
0.646386
0.679994
0.713395
0.74658
0.779539
0.812264
0.844745
0.876972
0.908938
0.940633
0.97205
1.00318
1.03401
1.06454
1.09476
1.12466
1.15423
1.18347
1.21237
1.24091
1.26911
1.29694
1.32441
1.3515
1.37821
1.40454
1.43047
1.45601
1.48115
1.50588
1.5302
1.5541
1.57758
1.60063
1.62326
1.64545
1.66721
1.68852
1.7094
1.72982
1.74979
1.76931
1.78838
1.80698
1.82512
1.8428
1.86002
1.87676
1.89303
1.90884
1.92416
1.93902
1.95339
1.96729
1.9807
1.99364
2.00609
2.01806
2.02955
2.04055
2.05106
2.06109
2.07063
2.07968
2.08824
2.09632
2.1039
2.11099
2.1176
2.12371
2.12933
2.13446
2.1391
2.14324
2.14689
2.15006
2.15273
2.15487
2.15642
2.15914
2.15467
2.16194
58.5187
-24.9284
6.50081
-0.276331
0.00203284
0.21305
0.244448
0.274714
0.310611
0.34702
0.383198
0.419217
0.455104
0.490852
0.52645
0.561886
0.59715
0.632232
0.667121
0.701806
0.736279
0.770528
0.804545
0.838319
0.871842
0.905103
0.938095
0.970807
1.00323
1.03536
1.06718
1.09869
1.12988
1.16073
1.19125
1.22143
1.25125
1.28072
1.30982
1.33854
1.36689
1.39485
1.42242
1.44959
1.47636
1.50271
1.52866
1.55418
1.57928
1.60395
1.62818
1.65198
1.67533
1.69823
1.72069
1.74269
1.76423
1.78531
1.80592
1.82606
1.84574
1.86494
1.88367
1.90191
1.91968
1.93696
1.95375
1.97006
1.98588
2.00121
2.01605
2.03039
2.04424
2.05759
2.07044
2.08279
2.09465
2.106
2.11685
2.1272
2.13705
2.14639
2.15523
2.16356
2.17139
2.17871
2.18552
2.19183
2.19763
2.20293
2.20771
2.21199
2.21576
2.21903
2.22179
2.224
2.22562
2.22827
2.22403
2.23119
58.5193
-24.9267
6.50363
-0.272378
0.0071131
0.219256
0.251778
0.283165
0.320181
0.357706
0.394997
0.432125
0.469117
0.505966
0.54266
0.579187
0.615537
0.651699
0.687662
0.723415
0.758949
0.794253
0.829317
0.864132
0.898686
0.932972
0.966979
1.0007
1.03412
1.06724
1.10004
1.13252
1.16467
1.19647
1.22793
1.25904
1.28978
1.32015
1.35015
1.37976
1.40898
1.4378
1.46622
1.49422
1.52181
1.54898
1.57572
1.60203
1.6279
1.65333
1.67831
1.70284
1.72691
1.75052
1.77366
1.79634
1.81854
1.84027
1.86152
1.88229
1.90257
1.92236
1.94166
1.96047
1.97878
1.99659
2.01391
2.03072
2.04703
2.06283
2.07812
2.0929
2.10718
2.12094
2.13419
2.14692
2.15914
2.17084
2.18203
2.1927
2.20285
2.21247
2.22158
2.23017
2.23824
2.24579
2.25281
2.25932
2.2653
2.27075
2.27569
2.2801
2.28399
2.28735
2.2902
2.29248
2.29417
2.29676
2.29274
2.29981
58.5198
-24.925
6.50643
-0.268463
0.0121442
0.225402
0.259037
0.291535
0.329659
0.368289
0.406682
0.444908
0.482994
0.520933
0.558712
0.59632
0.633746
0.670977
0.708004
0.744815
0.7814
0.817749
0.85385
0.889694
0.925271
0.960571
0.995584
1.0303
1.06471
1.09881
1.13258
1.16602
1.19912
1.23187
1.26426
1.29628
1.32793
1.3592
1.39009
1.42057
1.45066
1.48033
1.50959
1.53842
1.56683
1.5948
1.62233
1.64942
1.67606
1.70224
1.72796
1.75321
1.77799
1.8023
1.82613
1.84948
1.87234
1.89471
1.91658
1.93796
1.95885
1.97922
1.9991
2.01846
2.03731
2.05565
2.07348
2.09079
2.10758
2.12384
2.13959
2.15481
2.16951
2.18368
2.19732
2.21043
2.22301
2.23506
2.24657
2.25756
2.26801
2.27792
2.2873
2.29614
2.30445
2.31222
2.31945
2.32615
2.33231
2.33793
2.34301
2.34755
2.35155
2.35502
2.35794
2.3603
2.36206
2.36459
2.36076
2.36776
58.5204
-24.9233
6.5092
-0.264588
0.0171248
0.231486
0.266223
0.29982
0.339041
0.378766
0.418249
0.457562
0.496732
0.53575
0.574604
0.613282
0.651772
0.690062
0.728142
0.766
0.803626
0.841008
0.878136
0.915
0.951589
0.987893
1.0239
1.05961
1.09499
1.13006
1.16479
1.19918
1.23322
1.2669
1.30022
1.33315
1.3657
1.39786
1.42962
1.46098
1.49192
1.52243
1.55252
1.58218
1.61139
1.64016
1.66848
1.69633
1.72373
1.75065
1.7771
1.80307
1.82856
1.85356
1.87807
1.90208
1.92559
1.9486
1.97109
1.99308
2.01456
2.03551
2.05595
2.07587
2.09526
2.11412
2.13245
2.15025
2.16752
2.18425
2.20044
2.2161
2.23121
2.24578
2.25981
2.2733
2.28623
2.29863
2.31047
2.32177
2.33251
2.34271
2.35236
2.36145
2.36999
2.37799
2.38542
2.39231
2.39864
2.40442
2.40965
2.41432
2.41844
2.422
2.42501
2.42744
2.42927
2.43175
2.4281
2.43503
58.5209
-24.9217
6.51194
-0.260753
0.0220537
0.237507
0.273334
0.30802
0.348326
0.389134
0.429697
0.470086
0.510328
0.550414
0.590331
0.630067
0.66961
0.708949
0.748071
0.786965
0.825621
0.864026
0.90217
0.940043
0.977633
1.01493
1.05192
1.08861
1.12496
1.16099
1.19667
1.232
1.26698
1.30158
1.3358
1.36964
1.40308
1.43612
1.46875
1.50096
1.53275
1.5641
1.59501
1.62548
1.65549
1.68505
1.71414
1.74276
1.7709
1.79856
1.82574
1.85242
1.8786
1.90429
1.92947
1.95413
1.97829
2.00192
2.02504
2.04763
2.06969
2.09122
2.11222
2.13268
2.1526
2.17198
2.19081
2.2091
2.22684
2.24403
2.26066
2.27675
2.29227
2.30724
2.32166
2.33551
2.3488
2.36153
2.3737
2.38531
2.39635
2.40682
2.41674
2.42608
2.43486
2.44307
2.45071
2.45779
2.46429
2.47023
2.4756
2.4804
2.48463
2.48829
2.49138
2.49388
2.49577
2.49822
2.49473
2.50161
58.5215
-24.9201
6.51465
-0.256959
0.0269297
0.243464
0.280369
0.316131
0.357512
0.39939
0.441021
0.482474
0.523777
0.564919
0.605889
0.646672
0.687257
0.727633
0.767786
0.807705
0.847379
0.886797
0.925946
0.964817
1.0034
1.04168
1.07965
1.11729
1.15461
1.19159
1.22821
1.26447
1.30037
1.33588
1.371
1.40573
1.44006
1.47397
1.50746
1.54052