/*--------------------------------*- C++ -*----------------------------------*\
  =========                 |
  \\      /  F ield         | OpenFOAM: The Open Source CFD Toolbox
   \\    /   O peration     | Website:  https://openfoam.org
    \\  /    A nd           | Version:  10
     \\/     M anipulation  |
\*---------------------------------------------------------------------------*/
FoamFile
{
    format      ascii;
    class       volScalarField;
    location    "44";
    object      T;
}
// * * * * * * * * * * * * * * * * * * * * * * * * * * * * * * * * * * * * * //

dimensions      [0 0 0 1 0 0 0];

internalField   nonuniform List<scalar> 
10000
(
374.99
361.306
356.637
354.597
353.495
352.804
352.326
351.973
351.698
351.478
351.296
351.143
351.01
350.895
350.792
350.701
350.618
350.542
350.472
350.408
350.347
350.291
350.238
350.188
350.141
350.096
350.053
350.012
349.972
349.934
349.898
349.863
349.829
349.796
349.764
349.733
349.703
349.674
349.646
349.618
349.591
349.565
349.54
349.515
349.491
349.467
349.444
349.422
349.4
349.379
349.358
349.337
349.318
349.298
349.279
349.261
349.243
349.225
349.208
349.192
349.176
349.16
349.145
349.13
349.115
349.101
349.088
349.074
349.062
349.049
349.037
349.026
349.015
349.004
348.994
348.984
348.974
348.965
348.957
348.948
348.941
348.933
348.926
348.919
348.913
348.907
348.902
348.897
348.892
348.888
348.884
348.881
348.878
348.875
348.873
348.871
348.87
348.869
348.868
348.868
388.63
374.904
367.281
362.851
360.074
358.199
356.853
355.838
355.041
354.396
353.86
353.406
353.014
352.671
352.366
352.093
351.845
351.619
351.411
351.218
351.038
350.87
350.712
350.562
350.421
350.286
350.157
350.034
349.916
349.802
349.693
349.587
349.485
349.387
349.291
349.199
349.109
349.022
348.937
348.854
348.774
348.695
348.619
348.545
348.472
348.402
348.333
348.265
348.2
348.135
348.073
348.012
347.952
347.894
347.837
347.782
347.728
347.676
347.625
347.575
347.526
347.479
347.433
347.389
347.345
347.303
347.263
347.223
347.185
347.148
347.112
347.078
347.044
347.012
346.981
346.952
346.923
346.896
346.87
346.845
346.822
346.799
346.778
346.758
346.74
346.722
346.706
346.691
346.677
346.664
346.653
346.642
346.633
346.625
346.619
346.613
346.609
346.606
346.604
346.603
393.257
382.399
374.733
369.453
365.75
363.066
361.05
359.485
358.232
357.205
356.344
355.608
354.97
354.409
353.909
353.46
353.052
352.679
352.335
352.016
351.719
351.44
351.178
350.93
350.694
350.47
350.256
350.052
349.855
349.667
349.485
349.309
349.14
348.976
348.817
348.663
348.513
348.368
348.227
348.089
347.956
347.825
347.698
347.574
347.453
347.336
347.221
347.109
346.999
346.892
346.788
346.686
346.587
346.49
346.396
346.304
346.214
346.127
346.042
345.959
345.878
345.799
345.723
345.649
345.576
345.506
345.439
345.373
345.309
345.247
345.188
345.13
345.075
345.021
344.97
344.92
344.873
344.828
344.784
344.743
344.704
344.667
344.631
344.598
344.567
344.538
344.511
344.485
344.462
344.441
344.422
344.405
344.39
344.376
344.365
344.356
344.349
344.344
344.341
344.34
395.254
386.701
379.8
374.477
370.407
367.266
364.798
362.819
361.199
359.848
358.702
357.713
356.85
356.086
355.403
354.787
354.225
353.711
353.236
352.794
352.382
351.995
351.63
351.285
350.958
350.646
350.348
350.063
349.789
349.526
349.272
349.027
348.791
348.562
348.34
348.124
347.916
347.712
347.515
347.323
347.136
346.954
346.776
346.603
346.434
346.269
346.108
345.952
345.798
345.649
345.503
345.361
345.222
345.087
344.955
344.826
344.701
344.578
344.459
344.343
344.23
344.12
344.013
343.909
343.808
343.71
343.615
343.523
343.434
343.348
343.264
343.184
343.106
343.031
342.959
342.89
342.824
342.76
342.7
342.642
342.587
342.535
342.486
342.439
342.396
342.355
342.317
342.282
342.249
342.219
342.193
342.169
342.147
342.129
342.113
342.101
342.091
342.083
342.079
342.077
396.313
389.35
383.29
378.249
374.137
370.792
368.057
365.794
363.898
362.288
360.902
359.695
358.631
357.683
356.831
356.059
355.353
354.704
354.104
353.544
353.021
352.529
352.065
351.625
351.208
350.809
350.429
350.064
349.714
349.377
349.053
348.739
348.436
348.143
347.858
347.582
347.314
347.054
346.801
346.554
346.314
346.08
345.852
345.63
345.413
345.202
344.995
344.794
344.597
344.406
344.219
344.036
343.858
343.684
343.514
343.349
343.188
343.03
342.877
342.728
342.583
342.442
342.304
342.171
342.041
341.915
341.793
341.675
341.56
341.449
341.342
341.239
341.139
341.043
340.95
340.862
340.776
340.695
340.617
340.543
340.472
340.405
340.342
340.282
340.226
340.174
340.125
340.079
340.038
340
339.965
339.934
339.907
339.883
339.863
339.847
339.834
339.825
339.819
339.817
396.962
391.097
385.761
381.093
377.098
373.711
370.843
368.403
366.312
364.504
362.925
361.534
360.296
359.186
358.182
357.266
356.427
355.651
354.932
354.26
353.631
353.038
352.477
351.946
351.44
350.958
350.497
350.054
349.629
349.22
348.825
348.444
348.075
347.718
347.372
347.036
346.709
346.392
346.083
345.783
345.49
345.205
344.927
344.656
344.391
344.133
343.882
343.636
343.396
343.162
342.934
342.711
342.493
342.281
342.074
341.872
341.675
341.483
341.296
341.114
340.937
340.765
340.597
340.434
340.275
340.122
339.973
339.828
339.688
339.553
339.422
339.295
339.174
339.056
338.943
338.835
338.731
338.631
338.536
338.446
338.36
338.278
338.2
338.127
338.059
337.995
337.935
337.88
337.829
337.782
337.74
337.703
337.669
337.64
337.616
337.596
337.58
337.569
337.562
337.559
397.397
392.315
387.564
383.263
379.451
376.112
373.202
370.664
368.444
366.491
364.762
363.221
361.836
360.584
359.444
358.4
357.437
356.545
355.714
354.937
354.206
353.516
352.864
352.244
351.653
351.089
350.548
350.03
349.531
349.051
348.587
348.139
347.706
347.286
346.879
346.483
346.099
345.725
345.362
345.008
344.663
344.327
343.999
343.68
343.368
343.064
342.767
342.477
342.194
341.918
341.649
341.386
341.129
340.879
340.634
340.396
340.164
339.937
339.717
339.502
339.292
339.089
338.891
338.698
338.512
338.33
338.154
337.983
337.818
337.658
337.504
337.355
337.211
337.072
336.939
336.811
336.688
336.571
336.458
336.351
336.249
336.153
336.062
335.975
335.895
335.819
335.748
335.683
335.623
335.568
335.518
335.474
335.435
335.4
335.371
335.348
335.329
335.316
335.308
335.305
397.708
393.203
388.918
384.945
381.332
378.086
375.189
372.609
370.31
368.257
366.414
364.752
363.246
361.872
360.614
359.454
358.38
357.38
356.446
355.569
354.743
353.961
353.22
352.515
351.842
351.199
350.582
349.989
349.419
348.869
348.338
347.825
347.328
346.846
346.379
345.925
345.483
345.054
344.636
344.229
343.833
343.446
343.069
342.702
342.343
341.993
341.651
341.317
340.992
340.674
340.364
340.061
339.765
339.477
339.195
338.921
338.653
338.392
338.138
337.891
337.65
337.415
337.187
336.965
336.75
336.541
336.338
336.141
335.951
335.766
335.588
335.416
335.251
335.091
334.937
334.79
334.648
334.513
334.383
334.26
334.143
334.031
333.926
333.827
333.734
333.646
333.565
333.49
333.42
333.357
333.3
333.249
333.203
333.164
333.131
333.103
333.082
333.066
333.057
333.054
397.94
393.873
389.958
386.269
382.847
379.712
376.859
374.274
371.933
369.812
367.886
366.13
364.524
363.048
361.687
360.425
359.25
358.153
357.123
356.154
355.238
354.37
353.545
352.758
352.006
351.286
350.596
349.931
349.291
348.673
348.077
347.499
346.94
346.397
345.87
345.359
344.861
344.377
343.905
343.446
342.999
342.562
342.136
341.721
341.316
340.92
340.534
340.157
339.789
339.429
339.079
338.736
338.402
338.076
337.757
337.447
337.144
336.849
336.561
336.281
336.009
335.743
335.485
335.234
334.99
334.754
334.524
334.302
334.086
333.878
333.676
333.481
333.294
333.113
332.939
332.772
332.612
332.459
332.312
332.172
332.04
331.914
331.794
331.682
331.576
331.478
331.386
331.3
331.222
331.15
331.085
331.027
330.976
330.932
330.894
330.863
330.839
330.821
330.811
330.807
398.118
394.391
390.775
387.324
384.078
381.056
378.264
375.695
373.338
371.175
369.189
367.361
365.674
364.113
362.663
361.311
360.047
358.861
357.744
356.689
355.689
354.739
353.834
352.97
352.143
351.35
350.587
349.853
349.146
348.462
347.801
347.161
346.54
345.938
345.353
344.785
344.232
343.694
343.169
342.658
342.16
341.675
341.201
340.738
340.287
339.846
339.416
338.995
338.585
338.185
337.794
337.412
337.039
336.675
336.32
335.974
335.637
335.307
334.987
334.674
334.37
334.074
333.786
333.506
333.234
332.97
332.714
332.465
332.225
331.992
331.767
331.55
331.34
331.139
330.945
330.758
330.579
330.408
330.245
330.089
329.941
329.8
329.667
329.541
329.424
329.313
329.211
329.116
329.028
328.948
328.876
328.811
328.754
328.704
328.662
328.627
328.6
328.581
328.569
328.564
398.258
394.801
391.425
388.176
385.084
382.171
379.446
376.907
374.55
372.364
370.336
368.453
366.701
365.069
363.543
362.113
360.77
359.503
358.306
357.172
356.095
355.068
354.088
353.15
352.251
351.388
350.556
349.755
348.982
348.234
347.511
346.809
346.129
345.469
344.827
344.203
343.595
343.004
342.427
341.866
341.318
340.783
340.261
339.752
339.255
338.77
338.296
337.833
337.381
336.94
336.509
336.088
335.677
335.276
334.885
334.503
334.131
333.768
333.414
333.069
332.734
332.407
332.089
331.78
331.48
331.189
330.906
330.632
330.367
330.11
329.862
329.622
329.391
329.169
328.954
328.749
328.551
328.363
328.182
328.01
327.846
327.691
327.544
327.406
327.276
327.154
327.041
326.936
326.839
326.751
326.671
326.599
326.536
326.481
326.435
326.397
326.367
326.345
326.332
326.328
398.369
395.129
391.95
388.87
385.913
383.101
380.442
377.94
375.593
373.396
371.34
369.416
367.613
365.921
364.331
362.833
361.418
360.08
358.811
357.604
356.454
355.355
354.305
353.297
352.33
351.399
350.501
349.636
348.799
347.989
347.205
346.444
345.706
344.988
344.291
343.612
342.951
342.307
341.679
341.067
340.47
339.888
339.319
338.764
338.222
337.692
337.175
336.67
336.176
335.694
335.224
334.764
334.316
333.878
333.45
333.033
332.626
332.23
331.843
331.467
331.1
330.743
330.396
330.058
329.73
329.412
329.103
328.803
328.513
328.233
327.961
327.699
327.447
327.203
326.969
326.744
326.528
326.322
326.124
325.936
325.757
325.588
325.427
325.276
325.133
325
324.876
324.762
324.656
324.559
324.472
324.394
324.325
324.265
324.214
324.172
324.139
324.116
324.102
324.096
398.46
395.395
392.379
389.44
386.601
383.878
381.282
378.819
376.489
374.289
372.215
370.26
368.416
366.675
365.03
363.473
361.996
360.592
359.257
357.983
356.766
355.601
354.483
353.41
352.377
351.382
350.422
349.493
348.596
347.726
346.882
346.064
345.269
344.496
343.744
343.011
342.298
341.603
340.925
340.263
339.618
338.988
338.373
337.772
337.185
336.612
336.052
335.505
334.971
334.449
333.939
333.442
332.955
332.481
332.017
331.565
331.125
330.695
330.275
329.867
329.469
329.082
328.706
328.34
327.984
327.639
327.304
326.979
326.664
326.36
326.065
325.781
325.507
325.243
324.989
324.744
324.51
324.286
324.072
323.868
323.674
323.49
323.316
323.151
322.997
322.852
322.718
322.593
322.479
322.374
322.279
322.194
322.119
322.054
321.999
321.954
321.918
321.893
321.877
321.872
398.533
395.613
392.731
389.912
387.173
384.529
381.992
379.567
377.257
375.06
372.975
370.996
369.119
367.338
365.645
364.036
362.503
361.042
359.646
358.311
357.032
355.804
354.624
353.488
352.394
351.337
350.316
349.329
348.372
347.444
346.543
345.669
344.818
343.991
343.186
342.401
341.636
340.891
340.163
339.453
338.76
338.084
337.423
336.777
336.147
335.531
334.929
334.34
333.765
333.204
332.655
332.119
331.596
331.085
330.586
330.1
329.625
329.162
328.71
328.271
327.842
327.425
327.02
326.625
326.242
325.87
325.509
325.159
324.82
324.491
324.174
323.868
323.572
323.288
323.014
322.751
322.498
322.257
322.026
321.806
321.597
321.398
321.21
321.033
320.867
320.711
320.566
320.432
320.308
320.195
320.093
320.002
319.921
319.851
319.791
319.742
319.704
319.677
319.66
319.654
398.594
395.793
393.023
390.303
387.65
385.076
382.592
380.203
377.913
375.722
373.631
371.635
369.731
367.915
366.182
364.527
362.945
361.431
359.98
358.589
357.252
355.966
354.727
353.533
352.38
351.265
350.186
349.14
348.127
347.143
346.187
345.258
344.354
343.474
342.617
341.781
340.966
340.171
339.395
338.638
337.898
337.175
336.469
335.78
335.106
334.447
333.803
333.174
332.559
331.959
331.372
330.798
330.238
329.691
329.157
328.636
328.128
327.632
327.149
326.678
326.219
325.772
325.338
324.915
324.504
324.106
323.719
323.344
322.98
322.629
322.289
321.96
321.644
321.339
321.045
320.763
320.493
320.234
319.987
319.751
319.526
319.314
319.112
318.922
318.744
318.577
318.422
318.278
318.145
318.024
317.914
317.816
317.729
317.654
317.59
317.538
317.497
317.468
317.45
317.443
398.644
395.942
393.265
390.629
388.049
385.536
383.098
380.742
378.472
376.289
374.194
372.184
370.259
368.414
366.646
364.95
363.324
361.762
360.262
358.818
357.427
356.087
354.793
353.543
352.334
351.164
350.03
348.929
347.861
346.823
345.814
344.832
343.876
342.944
342.036
341.151
340.287
339.443
338.62
337.816
337.03
336.262
335.512
334.779
334.062
333.362
332.677
332.007
331.353
330.714
330.089
329.478
328.882
328.299
327.73
327.175
326.634
326.105
325.59
325.088
324.599
324.123
323.66
323.209
322.772
322.347
321.934
321.534
321.147
320.772
320.409
320.059
319.721
319.396
319.083
318.782
318.494
318.218
317.954
317.702
317.463
317.236
317.021
316.819
316.628
316.45
316.284
316.131
315.989
315.86
315.743
315.639
315.546
315.466
315.398
315.342
315.298
315.267
315.248
315.241
398.686
396.065
393.466
390.902
388.384
385.922
383.525
381.198
378.947
376.772
374.674
372.654
370.71
368.84
367.041
365.31
363.644
362.039
360.492
359
357.56
356.169
354.823
353.521
352.259
351.035
349.848
348.695
347.574
346.484
345.423
344.39
343.383
342.402
341.445
340.51
339.598
338.708
337.838
336.988
336.157
335.345
334.551
333.775
333.016
332.275
331.549
330.84
330.147
329.469
328.807
328.159
327.527
326.909
326.306
325.717
325.143
324.582
324.036
323.503
322.984
322.479
321.987
321.509
321.044
320.593
320.155
319.731
319.319
318.921
318.536
318.164
317.806
317.46
317.128
316.808
316.502
316.209
315.929
315.662
315.407
315.166
314.938
314.723
314.521
314.332
314.155
313.992
313.842
313.705
313.581
313.47
313.371
313.286
313.214
313.154
313.108
313.075
313.054
313.047
398.721
396.168
393.634
391.129
388.663
386.246
383.884
381.583
379.347
377.18
375.081
373.053
371.093
369.2
367.374
365.61
363.908
362.263
360.674
359.138
357.651
356.212
354.818
353.466
352.154
350.88
349.642
348.438
347.267
346.127
345.016
343.933
342.877
341.847
340.841
339.86
338.901
337.964
337.048
336.154
335.279
334.423
333.587
332.768
331.968
331.186
330.42
329.672
328.94
328.225
327.525
326.842
326.174
325.521
324.884
324.262
323.655
323.062
322.485
321.922
321.373
320.839
320.319
319.814
319.322
318.845
318.382
317.933
317.498
317.077
316.67
316.277
315.897
315.532
315.18
314.842
314.518
314.208
313.911
313.629
313.36
313.105
312.863
312.636
312.422
312.222
312.035
311.863
311.704
311.558
311.427
311.309
311.205
311.115
311.039
310.976
310.927
310.892
310.87
310.862
398.75
396.254
393.773
391.318
388.896
386.516
384.184
381.905
379.683
377.522
375.423
373.386
371.412
369.5
367.648
365.855
364.12
362.439
360.811
359.233
357.703
356.219
354.778
353.379
352.02
350.697
349.411
348.159
346.939
345.75
344.591
343.46
342.357
341.279
340.227
339.199
338.195
337.213
336.252
335.314
334.395
333.497
332.618
331.759
330.918
330.096
329.291
328.504
327.734
326.981
326.246
325.526
324.823
324.136
323.465
322.81
322.171
321.547
320.939
320.345
319.767
319.205
318.657
318.124
317.607
317.104
316.616
316.142
315.684
315.24
314.811
314.396
313.996
313.611
313.24
312.884
312.542
312.215
311.903
311.605
311.321
311.052
310.797
310.557
310.332
310.121
309.924
309.742
309.574
309.421
309.283
309.159
309.049
308.954
308.873
308.807
308.755
308.718
308.695
308.687
398.773
396.324
393.888
391.474
389.089
386.74
384.433
382.172
379.963
377.807
375.706
373.662
371.675
369.744
367.87
366.05
364.284
362.569
360.904
359.288
357.717
356.19
354.706
353.263
351.858
350.489
349.157
347.858
346.591
345.356
344.15
342.973
341.823
340.7
339.602
338.529
337.479
336.453
335.45
334.468
333.507
332.567
331.647
330.747
329.866
329.004
328.161
327.336
326.528
325.739
324.967
324.212
323.475
322.754
322.05
321.362
320.691
320.036
319.397
318.774
318.167
317.576
317.001
316.441
315.897
315.369
314.856
314.359
313.877
313.41
312.959
312.524
312.103
311.698
311.309
310.934
310.575
310.231
309.903
309.589
309.291
309.008
308.741
308.488
308.251
308.029
307.823
307.631
307.455
307.294
307.148
307.018
306.903
306.803
306.718
306.648
306.594
306.555
306.531
306.522
398.793
396.382
393.983
391.603
389.248
386.925
384.638
382.393
380.192
378.04
375.937
373.886
371.886
369.939
368.043
366.198
364.403
362.657
360.958
359.304
357.695
356.129
354.603
353.117
351.669
350.257
348.879
347.536
346.224
344.943
343.692
342.47
341.276
340.108
338.966
337.849
336.756
335.687
334.64
333.616
332.614
331.633
330.672
329.732
328.812
327.911
327.03
326.167
325.323
324.498
323.69
322.901
322.129
321.375
320.638
319.918
319.215
318.529
317.86
317.208
316.572
315.953
315.35
314.764
314.194
313.641
313.104
312.582
312.077
311.589
311.116
310.659
310.219
309.794
309.386
308.993
308.617
308.257
307.912
307.584
307.271
306.975
306.694
306.429
306.181
305.948
305.731
305.531
305.346
305.177
305.024
304.888
304.767
304.662
304.573
304.5
304.443
304.402
304.377
304.368
398.809
396.43
394.061
391.708
389.378
387.075
384.805
382.571
380.378
378.227
376.122
374.063
372.051
370.087
368.171
366.302
364.481
362.704
360.973
359.286
357.64
356.036
354.471
352.944
351.454
350
348.58
347.193
345.838
344.514
343.219
341.954
340.715
339.504
338.319
337.159
336.024
334.913
333.825
332.759
331.716
330.695
329.695
328.715
327.757
326.818
325.899
325
324.119
323.258
322.416
321.592
320.786
319.999
319.229
318.478
317.744
317.028
316.329
315.647
314.983
314.337
313.707
313.094
312.499
311.92
311.359
310.814
310.286
309.775
309.281
308.804
308.343
307.899
307.472
307.062
306.668
306.292
305.931
305.588
305.261
304.951
304.658
304.381
304.121
303.878
303.651
303.441
303.248
303.071
302.912
302.768
302.642
302.532
302.439
302.363
302.303
302.261
302.234
302.225
398.822
396.468
394.123
391.792
389.482
387.195
384.938
382.713
380.524
378.374
376.265
374.198
372.174
370.194
368.259
366.368
364.52
362.716
360.954
359.233
357.553
355.913
354.31
352.745
351.216
349.721
348.26
346.831
345.435
344.068
342.731
341.423
340.143
338.89
337.662
336.461
335.284
334.132
333.003
331.897
330.814
329.753
328.714
327.697
326.7
325.724
324.768
323.832
322.917
322.02
321.143
320.285
319.447
318.627
317.825
317.042
316.278
315.531
314.803
314.093
313.401
312.727
312.07
311.432
310.811
310.208
309.622
309.054
308.504
307.971
307.455
306.958
306.477
306.014
305.569
305.141
304.73
304.337
303.961
303.603
303.262
302.938
302.632
302.343
302.072
301.818
301.582
301.363
301.161
300.977
300.81
300.661
300.529
300.414
300.317
300.238
300.176
300.131
300.104
300.093
398.832
396.498
394.172
391.859
389.563
387.289
385.041
382.822
380.636
378.485
376.37
374.295
372.259
370.264
368.309
366.396
364.524
362.693
360.902
359.15
357.437
355.762
354.123
352.521
350.954
349.42
347.919
346.451
345.014
343.607
342.229
340.88
339.558
338.264
336.996
335.754
334.537
333.344
332.176
331.031
329.908
328.809
327.732
326.676
325.642
324.63
323.638
322.666
321.715
320.784
319.873
318.982
318.111
317.258
316.425
315.612
314.817
314.041
313.283
312.545
311.825
311.124
310.441
309.777
309.131
308.503
307.894
307.303
306.73
306.175
305.639
305.121
304.621
304.139
303.675
303.23
302.802
302.393
302.002
301.628
301.273
300.937
300.618
300.317
300.035
299.77
299.524
299.296
299.086
298.894
298.721
298.565
298.428
298.309
298.208
298.125
298.06
298.013
297.985
297.975
398.84
396.521
394.21
391.91
389.625
387.36
385.119
382.903
380.717
378.563
376.443
374.358
372.31
370.299
368.326
366.392
364.496
362.639
360.82
359.038
357.293
355.585
353.912
352.274
350.67
349.099
347.56
346.053
344.577
343.13
341.713
340.324
338.962
337.628
336.321
335.039
333.782
332.551
331.343
330.159
328.999
327.862
326.747
325.655
324.584
323.535
322.508
321.501
320.516
319.551
318.607
317.682
316.779
315.895
315.03
314.186
313.361
312.556
311.77
311.004
310.257
309.528
308.82
308.13
307.459
306.807
306.174
305.561
304.966
304.39
303.832
303.294
302.775
302.274
301.792
301.329
300.885
300.46
300.053
299.666
299.297
298.947
298.616
298.303
298.01
297.735
297.479
297.242
297.024
296.824
296.644
296.482
296.34
296.216
296.111
296.025
295.957
295.909
295.879
295.868
398.846
396.538
394.238
391.947
389.67
387.411
385.173
382.959
380.771
378.613
376.485
374.39
372.329
370.303
368.312
366.357
364.439
362.556
360.71
358.899
357.124
355.383
353.677
352.005
350.365
348.758
347.183
345.638
344.124
342.639
341.183
339.756
338.356
336.983
335.637
334.316
333.021
331.751
330.506
329.284
328.086
326.912
325.761
324.632
323.526
322.441
321.379
320.338
319.318
318.32
317.343
316.386
315.451
314.536
313.641
312.766
311.912
311.078
310.264
309.47
308.695
307.941
307.206
306.491
305.796
305.12
304.464
303.828
303.211
302.614
302.036
301.478
300.939
300.42
299.921
299.44
298.98
298.539
298.117
297.715
297.332
296.969
296.626
296.302
295.997
295.712
295.447
295.201
294.974
294.767
294.58
294.413
294.264
294.136
294.027
293.938
293.868
293.818
293.787
293.776
398.85
396.55
394.256
391.972
389.7
387.444
385.207
382.992
380.801
378.637
376.501
374.395
372.321
370.279
368.27
366.295
364.354
362.447
360.574
358.735
356.931
355.159
353.421
351.715
350.042
348.4
346.789
345.208
343.657
342.135
340.642
339.177
337.739
336.329
334.944
333.586
332.254
330.946
329.664
328.405
327.171
325.96
324.773
323.609
322.467
321.348
320.251
319.177
318.124
317.092
316.083
315.095
314.128
313.182
312.257
311.352
310.469
309.607
308.765
307.943
307.142
306.362
305.601
304.862
304.142
303.443
302.764
302.106
301.467
300.849
300.251
299.673
299.115
298.578
298.06
297.563
297.086
296.63
296.193
295.776
295.38
295.004
294.648
294.313
293.997
293.702
293.427
293.173
292.938
292.724
292.53
292.356
292.203
292.07
291.957
291.864
291.792
291.74
291.708
291.697
398.852
396.557
394.267
391.986
389.716
387.461
385.223
383.005
380.809
378.638
376.493
374.376
372.287
370.229
368.202
366.207
364.244
362.313
360.414
358.549
356.715
354.914
353.145
351.407
349.7
348.024
346.379
344.763
343.176
341.618
340.089
338.587
337.113
335.666
334.245
332.85
331.481
330.137
328.818
327.523
326.253
325.007
323.784
322.585
321.409
320.256
319.125
318.017
316.932
315.868
314.827
313.807
312.809
311.833
310.878
309.945
309.033
308.142
307.273
306.424
305.597
304.791
304.006
303.241
302.498
301.776
301.074
300.393
299.734
299.095
298.476
297.879
297.303
296.747
296.212
295.698
295.205
294.733
294.282
293.851
293.441
293.053
292.685
292.338
292.011
291.706
291.422
291.159
290.916
290.695
290.494
290.314
290.156
290.018
289.901
289.806
289.731
289.677
289.644
289.632
398.853
396.56
394.272
391.991
389.721
387.464
385.223
383
380.798
378.618
376.463
374.333
372.231
370.156
368.111
366.096
364.111
362.157
360.233
358.341
356.48
354.649
352.85
351.081
349.342
347.633
345.954
344.304
342.683
341.09
339.525
337.988
336.478
334.995
333.538
332.108
330.703
329.323
327.969
326.639
325.334
324.052
322.795
321.562
320.352
319.165
318.002
316.861
315.743
314.648
313.575
312.525
311.496
310.49
309.506
308.544
307.604
306.686
305.789
304.914
304.061
303.229
302.419
301.631
300.864
300.118
299.395
298.692
298.011
297.352
296.714
296.097
295.502
294.929
294.377
293.846
293.337
292.85
292.383
291.939
291.516
291.115
290.735
290.376
290.04
289.724
289.431
289.159
288.908
288.68
288.473
288.287
288.123
287.981
287.861
287.762
287.685
287.629
287.595
287.583
398.853
396.559
394.27
391.987
389.715
387.454
385.209
382.98
380.769
378.58
376.414
374.271
372.154
370.063
367.999
365.964
363.957
361.98
360.032
358.114
356.225
354.367
352.538
350.738
348.968
347.228
345.516
343.833
342.178
340.551
338.952
337.38
335.835
334.317
332.826
331.36
329.92
328.506
327.116
325.752
324.412
323.097
321.806
320.539
319.296
318.077
316.881
315.708
314.558
313.432
312.328
311.247
310.189
309.154
308.141
307.151
306.183
305.237
304.314
303.413
302.534
301.677
300.843
300.03
299.24
298.472
297.726
297.002
296.3
295.621
294.963
294.328
293.714
293.123
292.554
292.007
291.482
290.98
290.499
290.041
289.605
289.191
288.799
288.429
288.082
287.757
287.454
287.174
286.916
286.68
286.466
286.275
286.106
285.959
285.835
285.733
285.654
285.596
285.561
285.548
398.851
396.555
394.263
391.977
389.699
387.434
385.181
382.945
380.725
378.526
376.347
374.191
372.058
369.95
367.868
365.813
363.785
361.785
359.812
357.869
355.954
354.067
352.21
350.381
348.581
346.809
345.065
343.35
341.662
340.002
338.37
336.764
335.185
333.633
332.107
330.608
329.133
327.685
326.262
324.864
323.49
322.142
320.818
319.518
318.242
316.99
315.762
314.558
313.377
312.22
311.086
309.976
308.888
307.824
306.783
305.764
304.769
303.797
302.847
301.92
301.016
300.135
299.276
298.44
297.627
296.837
296.069
295.324
294.602
293.902
293.225
292.571
291.94
291.331
290.745
290.182
289.641
289.124
288.629
288.157
287.708
287.281
286.878
286.498
286.14
285.805
285.493
285.204
284.939
284.696
284.476
284.279
284.105
283.954
283.826
283.72
283.638
283.579
283.543
283.53
398.849
396.548
394.25
391.959
389.676
387.403
385.143
382.897
380.667
378.456
376.264
374.094
371.945
369.821
367.72
365.645
363.595
361.572
359.576
357.608
355.666
353.753
351.867
350.01
348.18
346.378
344.603
342.856
341.137
339.444
337.779
336.141
334.529
332.943
331.384
329.851
328.343
326.862
325.405
323.974
322.568
321.186
319.83
318.498
317.19
315.907
314.647
313.412
312.201
311.014
309.85
308.71
307.594
306.501
305.432
304.386
303.364
302.365
301.389
300.437
299.508
298.603
297.72
296.861
296.026
295.213
294.424
293.658
292.915
292.196
291.5
290.828
290.178
289.552
288.95
288.37
287.815
287.282
286.773
286.288
285.826
285.387
284.972
284.581
284.213
283.869
283.548
283.251
282.977
282.727
282.501
282.298
282.119
281.964
281.832
281.724
281.64
281.579
281.542
281.528
398.846
396.538
394.234
391.936
389.645
387.363
385.094
382.838
380.597
378.373
376.168
373.982
371.818
369.675
367.556
365.461
363.39
361.345
359.325
357.332
355.365
353.425
351.512
349.626
347.767
345.935
344.13
342.353
340.602
338.878
337.181
335.51
333.866
332.248
330.657
329.091
327.551
326.036
324.547
323.084
321.645
320.232
318.843
317.48
316.141
314.826
313.536
312.271
311.03
309.813
308.62
307.451
306.306
305.186
304.089
303.016
301.968
300.943
299.942
298.964
298.011
297.081
296.176
295.294
294.436
293.602
292.791
292.005
291.242
290.503
289.789
289.098
288.431
287.788
287.169
286.574
286.003
285.456
284.933
284.434
283.96
283.509
283.083
282.68
282.302
281.949
281.619
281.314
281.032
280.776
280.543
280.335
280.151
279.991
279.856
279.745
279.658
279.596
279.558
279.544
398.842
396.526
394.214
391.907
389.607
387.316
385.036
382.769
380.516
378.278
376.059
373.858
371.676
369.516
367.378
365.263
363.171
361.103
359.06
357.043
355.051
353.084
351.144
349.231
347.343
345.483
343.648
341.841
340.06
338.305
336.577
334.875
333.199
331.549
329.926
328.328
326.756
325.209
323.689
322.193
320.723
319.279
317.859
316.464
315.095
313.75
312.43
311.134
309.864
308.618
307.396
306.199
305.026
303.878
302.755
301.655
300.58
299.53
298.504
297.502
296.524
295.571
294.642
293.738
292.858
292.002
291.171
290.364
289.582
288.824
288.091
287.382
286.698
286.038
285.403
284.792
284.206
283.645
283.108
282.596
282.109
281.647
281.209
280.796
280.408
280.045
279.707
279.393
279.105
278.841
278.602
278.388
278.2
278.036
277.897
277.783
277.694
277.63
277.591
277.576
398.837
396.512
394.191
391.874
389.563
387.262
384.97
382.69
380.424
378.173
375.938
373.721
371.523
369.345
367.187
365.052
362.939
360.849
358.783
356.741
354.724
352.733
350.766
348.825
346.91
345.021
343.158
341.321
339.51
337.725
335.966
334.234
332.527
330.846
329.191
327.563
325.959
324.382
322.83
321.304
319.803
318.327
316.877
315.452
314.052
312.677
311.328
310.003
308.703
307.429
306.179
304.954
303.754
302.579
301.429
300.304
299.203
298.127
297.076
296.05
295.049
294.073
293.121
292.195
291.293
290.416
289.564
288.738
287.936
287.159
286.407
285.681
284.979
284.303
283.652
283.026
282.425
281.85
281.3
280.775
280.275
279.801
279.352
278.929
278.531
278.159
277.812
277.49
277.194
276.924
276.679
276.46
276.266
276.098
275.955
275.839
275.747
275.682
275.642
275.627
398.832
396.497
394.164
391.836
389.514
387.201
384.897
382.604
380.324
378.058
375.808
373.574
371.359
369.162
366.985
364.83
362.695
360.584
358.495
356.429
354.388
352.371
350.378
348.411
346.468
344.551
342.66
340.794
338.954
337.139
335.351
333.588
331.851
330.14
328.455
326.796
325.162
323.554
321.971
320.415
318.883
317.378
315.897
314.443
313.013
311.609
310.231
308.877
307.549
306.247
304.969
303.717
302.49
301.289
300.112
298.961
297.835
296.735
295.66
294.61
293.585
292.586
291.612
290.664
289.741
288.843
287.971
287.125
286.304
285.509
284.739
283.995
283.276
282.584
281.917
281.276
280.66
280.071
279.507
278.97
278.458
277.972
277.513
277.079
276.671
276.29
275.934
275.605
275.302
275.025
274.774
274.549
274.351
274.178
274.032
273.913
273.819
273.752
273.711
273.696
398.826
396.479
394.135
391.795
389.461
387.134
384.817
382.51
380.216
377.935
375.668
373.418
371.184
368.969
366.773
364.597
362.442
360.308
358.196
356.107
354.042
352
349.981
347.988
346.019
344.074
342.155
340.261
338.392
336.549
334.732
332.939
331.173
329.432
327.717
326.028
324.364
322.726
321.114
319.527
317.966
316.431
314.922
313.438
311.979
310.547
309.14
307.758
306.402
305.072
303.767
302.488
301.235
300.007
298.805
297.629
296.478
295.354
294.254
293.181
292.134
291.112
290.116
289.146
288.202
287.284
286.392
285.526
284.687
283.873
283.085
282.324
281.589
280.88
280.198
279.542
278.912
278.309
277.732
277.182
276.658
276.161
275.691
275.247
274.829
274.439
274.075
273.738
273.428
273.144
272.887
272.657
272.454
272.278
272.128
272.006
271.91
271.841
271.799
271.784
398.82
396.46
394.104
391.751
389.403
387.063
384.732
382.41
380.101
377.804
375.521
373.253
371.001
368.767
366.552
364.355