/*--------------------------------*- C++ -*----------------------------------*\
  =========                 |
  \\      /  F ield         | OpenFOAM: The Open Source CFD Toolbox
   \\    /   O peration     | Website:  https://openfoam.org
    \\  /    A nd           | Version:  10
     \\/     M anipulation  |
\*---------------------------------------------------------------------------*/
FoamFile
{
    format      ascii;
    class       volScalarField;
    location    "44";
    object      T_0;
}
// * * * * * * * * * * * * * * * * * * * * * * * * * * * * * * * * * * * * * //

dimensions      [0 0 0 1 0 0 0];

internalField   nonuniform List<scalar> 
10000
(
374.989
361.306
356.637
354.596
353.495
352.804
352.326
351.972
351.698
351.478
351.296
351.142
351.01
350.894
350.792
350.7
350.617
350.541
350.472
350.407
350.347
350.291
350.238
350.188
350.141
350.096
350.053
350.011
349.972
349.934
349.898
349.862
349.828
349.795
349.764
349.733
349.703
349.674
349.645
349.618
349.591
349.565
349.539
349.515
349.49
349.467
349.444
349.421
349.399
349.378
349.357
349.337
349.317
349.298
349.279
349.26
349.242
349.225
349.208
349.191
349.175
349.159
349.144
349.129
349.115
349.101
349.087
349.074
349.061
349.049
349.037
349.025
349.014
349.003
348.993
348.983
348.974
348.965
348.956
348.948
348.94
348.933
348.925
348.919
348.913
348.907
348.901
348.896
348.892
348.887
348.884
348.88
348.877
348.874
348.872
348.87
348.869
348.868
348.867
348.867
388.63
374.904
367.281
362.851
360.074
358.199
356.853
355.838
355.041
354.396
353.86
353.406
353.014
352.671
352.366
352.093
351.845
351.619
351.411
351.218
351.038
350.87
350.712
350.562
350.42
350.285
350.156
350.033
349.915
349.802
349.692
349.587
349.485
349.386
349.291
349.198
349.108
349.021
348.936
348.854
348.773
348.695
348.619
348.544
348.472
348.401
348.332
348.264
348.199
348.135
348.072
348.011
347.951
347.893
347.837
347.781
347.728
347.675
347.624
347.574
347.526
347.478
347.432
347.388
347.345
347.303
347.262
347.222
347.184
347.147
347.111
347.077
347.043
347.011
346.98
346.951
346.922
346.895
346.869
346.844
346.821
346.798
346.777
346.757
346.739
346.721
346.705
346.69
346.676
346.663
346.651
346.641
346.632
346.624
346.617
346.612
346.608
346.605
346.603
346.602
393.256
382.399
374.733
369.453
365.75
363.066
361.05
359.484
358.232
357.205
356.343
355.608
354.97
354.408
353.909
353.46
353.052
352.679
352.335
352.016
351.718
351.439
351.177
350.929
350.693
350.469
350.255
350.051
349.854
349.666
349.484
349.308
349.139
348.975
348.816
348.662
348.512
348.367
348.226
348.088
347.954
347.824
347.697
347.573
347.452
347.334
347.219
347.107
346.998
346.891
346.787
346.685
346.586
346.489
346.395
346.302
346.213
346.125
346.04
345.957
345.876
345.798
345.721
345.647
345.575
345.505
345.437
345.371
345.307
345.245
345.186
345.128
345.073
345.019
344.968
344.919
344.871
344.826
344.783
344.741
344.702
344.665
344.63
344.596
344.565
344.536
344.509
344.483
344.46
344.439
344.42
344.403
344.388
344.375
344.363
344.354
344.347
344.342
344.339
344.338
395.254
386.701
379.8
374.477
370.407
367.266
364.798
362.818
361.199
359.848
358.701
357.713
356.849
356.085
355.402
354.786
354.225
353.71
353.235
352.793
352.381
351.994
351.629
351.284
350.957
350.645
350.347
350.061
349.788
349.524
349.271
349.026
348.789
348.56
348.338
348.123
347.914
347.711
347.513
347.321
347.134
346.952
346.774
346.601
346.432
346.267
346.106
345.95
345.797
345.647
345.501
345.359
345.22
345.085
344.953
344.824
344.698
344.576
344.457
344.341
344.228
344.118
344.011
343.907
343.806
343.708
343.613
343.521
343.431
343.345
343.262
343.181
343.103
343.029
342.957
342.888
342.821
342.758
342.697
342.639
342.585
342.532
342.483
342.437
342.393
342.352
342.314
342.279
342.246
342.217
342.19
342.166
342.145
342.126
342.111
342.098
342.088
342.081
342.076
342.075
396.313
389.35
383.29
378.249
374.136
370.792
368.056
365.793
363.898
362.287
360.901
359.694
358.63
357.682
356.83
356.058
355.352
354.703
354.102
353.543
353.02
352.528
352.064
351.624
351.206
350.808
350.427
350.063
349.713
349.376
349.051
348.737
348.434
348.141
347.856
347.58
347.312
347.052
346.799
346.552
346.312
346.078
345.85
345.628
345.411
345.199
344.993
344.792
344.595
344.403
344.216
344.033
343.855
343.681
343.511
343.346
343.185
343.028
342.874
342.725
342.58
342.439
342.301
342.168
342.038
341.912
341.79
341.672
341.557
341.446
341.339
341.235
341.136
341.039
340.947
340.858
340.773
340.692
340.614
340.539
340.469
340.402
340.339
340.279
340.223
340.17
340.121
340.076
340.034
339.996
339.962
339.931
339.904
339.88
339.86
339.843
339.831
339.821
339.816
339.814
396.961
391.097
385.761
381.092
377.097
373.711
370.843
368.403
366.311
364.503
362.924
361.533
360.295
359.185
358.18
357.265
356.425
355.65
354.93
354.259
353.629
353.036
352.476
351.944
351.439
350.956
350.495
350.052
349.627
349.218
348.823
348.441
348.073
347.715
347.369
347.033
346.707
346.389
346.081
345.78
345.487
345.202
344.924
344.653
344.388
344.13
343.879
343.633
343.393
343.159
342.93
342.707
342.49
342.278
342.071
341.869
341.672
341.48
341.293
341.111
340.933
340.761
340.593
340.43
340.272
340.118
339.969
339.824
339.684
339.549
339.418
339.292
339.17
339.052
338.939
338.831
338.727
338.627
338.532
338.442
338.355
338.274
338.196
338.123
338.055
337.991
337.931
337.876
337.825
337.778
337.736
337.698
337.665
337.636
337.612
337.592
337.576
337.565
337.558
337.555
397.397
392.315
387.564
383.263
379.451
376.112
373.201
370.664
368.443
366.491
364.762
363.22
361.835
360.583
359.443
358.399
357.436
356.544
355.713
354.935
354.204
353.515
352.862
352.242
351.651
351.086
350.546
350.027
349.529
349.048
348.585
348.137
347.703
347.283
346.876
346.48
346.096
345.722
345.359
345.005
344.66
344.324
343.996
343.676
343.365
343.06
342.763
342.473
342.191
341.914
341.645
341.382
341.125
340.875
340.63
340.392
340.16
339.933
339.712
339.497
339.288
339.085
338.887
338.694
338.507
338.326
338.15
337.979
337.814
337.654
337.499
337.35
337.206
337.067
336.934
336.806
336.683
336.566
336.453
336.346
336.245
336.148
336.057
335.97
335.89
335.814
335.743
335.678
335.618
335.563
335.513
335.469
335.429
335.395
335.366
335.343
335.324
335.311
335.303
335.3
397.708
393.203
388.918
384.945
381.332
378.086
375.188
372.608
370.31
368.256
366.413
364.751
363.244
361.871
360.612
359.452
358.378
357.378
356.444
355.567
354.741
353.959
353.218
352.513
351.84
351.196
350.579
349.987
349.416
348.866
348.335
347.822
347.325
346.843
346.375
345.921
345.48
345.051
344.633
344.226
343.829
343.442
343.065
342.698
342.339
341.989
341.647
341.313
340.988
340.67
340.359
340.056
339.761
339.472
339.191
338.916
338.649
338.388
338.133
337.886
337.645
337.41
337.182
336.96
336.745
336.535
336.333
336.136
335.945
335.761
335.583
335.411
335.245
335.085
334.932
334.784
334.643
334.507
334.378
334.254
334.137
334.026
333.92
333.821
333.728
333.64
333.559
333.484
333.415
333.351
333.294
333.243
333.197
333.158
333.125
333.097
333.076
333.061
333.051
333.048
397.94
393.873
389.958
386.268
382.847
379.711
376.858
374.273
371.932
369.811
367.885
366.129
364.523
363.047
361.685
360.423
359.249
358.151
357.121
356.152
355.236
354.367
353.542
352.755
352.004
351.284
350.593
349.928
349.288
348.67
348.073
347.496
346.936
346.394
345.867
345.355
344.857
344.373
343.902
343.442
342.994
342.558
342.132
341.717
341.311
340.916
340.529
340.152
339.784
339.425
339.074
338.731
338.397
338.071
337.752
337.442
337.139
336.844
336.556
336.276
336.003
335.738
335.479
335.228
334.985
334.748
334.518
334.296
334.08
333.872
333.67
333.475
333.288
333.107
332.933
332.766
332.606
332.452
332.306
332.166
332.033
331.907
331.788
331.675
331.57
331.471
331.379
331.294
331.215
331.144
331.079
331.021
330.969
330.925
330.887
330.856
330.832
330.815
330.804
330.8
398.117
394.391
390.774
387.323
384.077
381.055
378.263
375.694
373.337
371.174
369.187
367.359
365.673
364.111
362.661
361.309
360.045
358.859
357.742
356.686
355.687
354.737
353.832
352.967
352.14
351.347
350.584
349.85
349.142
348.459
347.797
347.157
346.537
345.934
345.349
344.781
344.228
343.689
343.165
342.654
342.156
341.67
341.196
340.733
340.282
339.841
339.41
338.99
338.58
338.179
337.788
337.406
337.033
336.67
336.315
335.968
335.631
335.301
334.981
334.668
334.364
334.067
333.779
333.499
333.227
332.963
332.707
332.459
332.218
331.985
331.76
331.543
331.334
331.132
330.938
330.751
330.572
330.401
330.238
330.082
329.933
329.793
329.66
329.534
329.416
329.306
329.203
329.108
329.021
328.941
328.868
328.803
328.746
328.696
328.654
328.62
328.593
328.573
328.561
328.557
398.257
394.8
391.425
388.175
385.084
382.17
379.445
376.906
374.549
372.362
370.334
368.451
366.7
365.067
363.541
362.111
360.767
359.501
358.304
357.17
356.092
355.065
354.085
353.147
352.248
351.384
350.553
349.752
348.978
348.23
347.507
346.805
346.125
345.465
344.823
344.198
343.591
342.999
342.423
341.861
341.313
340.778
340.256
339.747
339.25
338.764
338.29
337.827
337.375
336.934
336.503
336.082
335.671
335.27
334.878
334.496
334.124
333.761
333.407
333.062
332.727
332.4
332.082
331.773
331.473
331.182
330.899
330.625
330.36
330.103
329.855
329.615
329.384
329.161
328.947
328.741
328.544
328.355
328.174
328.002
327.839
327.683
327.536
327.398
327.268
327.146
327.033
326.928
326.831
326.743
326.663
326.591
326.528
326.473
326.427
326.388
326.359
326.337
326.324
326.319
398.369
395.128
391.95
388.869
385.913
383.1
380.441
377.939
375.592
373.395
371.338
369.414
367.611
365.919
364.329
362.83
361.416
360.077
358.808
357.601
356.451
355.352
354.301
353.294
352.326
351.395
350.498
349.632
348.795
347.985
347.2
346.44
345.701
344.983
344.286
343.607
342.946
342.302
341.674
341.062
340.465
339.882
339.313
338.758
338.216
337.686
337.169
336.663
336.17
335.688
335.217
334.758
334.309
333.871
333.443
333.026
332.619
332.223
331.836
331.459
331.093
330.735
330.388
330.051
329.722
329.404
329.095
328.795
328.505
328.225
327.953
327.691
327.438
327.195
326.961
326.736
326.52
326.313
326.116
325.928
325.749
325.579
325.418
325.267
325.125
324.991
324.867
324.753
324.647
324.55
324.463
324.385
324.316
324.256
324.205
324.163
324.13
324.107
324.093
324.087
398.459
395.395
392.379
389.439
386.6
383.877
381.281
378.818
376.488
374.288
372.214
370.258
368.414
366.673
365.028
363.47
361.993
360.59
359.254
357.98
356.763
355.597
354.48
353.406
352.373
351.378
350.417
349.489
348.591
347.721
346.878
346.059
345.264
344.491
343.738
343.006
342.292
341.597
340.919
340.257
339.612
338.982
338.367
337.766
337.179
336.606
336.046
335.499
334.964
334.442
333.932
333.434
332.948
332.473
332.01
331.558
331.117
330.687
330.268
329.859
329.461
329.074
328.698
328.331
327.976
327.63
327.295
326.97
326.655
326.351
326.056
325.772
325.498
325.234
324.979
324.735
324.501
324.277
324.063
323.859
323.665
323.48
323.306
323.142
322.987
322.843
322.708
322.584
322.469
322.364
322.269
322.185
322.109
322.044
321.989
321.944
321.909
321.883
321.868
321.862
398.533
395.613
392.731
389.911
387.172
384.528
381.991
379.566
377.255
375.058
372.973
370.994
369.117
367.335
365.643
364.033
362.501
361.039
359.643
358.308
357.028
355.8
354.62
353.485
352.39
351.333
350.312
349.324
348.367
347.439
346.538
345.664
344.813
343.986
343.18
342.395
341.63
340.885
340.157
339.447
338.754
338.077
337.416
336.771
336.14
335.523
334.921
334.333
333.758
333.196
332.648
332.112
331.588
331.077
330.578
330.091
329.617
329.153
328.702
328.262
327.834
327.416
327.011
326.616
326.233
325.861
325.499
325.149
324.81
324.482
324.165
323.858
323.563
323.278
323.004
322.741
322.489
322.247
322.016
321.796
321.587
321.388
321.2
321.023
320.857
320.701
320.556
320.421
320.298
320.185
320.083
319.991
319.91
319.84
319.78
319.732
319.694
319.666
319.649
319.643
398.594
395.793
393.022
390.303
387.649
385.075
382.591
380.202
377.911
375.721
373.629
371.633
369.729
367.913
366.18
364.524
362.942
361.428
359.977
358.585
357.248
355.962
354.723
353.529
352.375
351.26
350.181
349.136
348.122
347.138
346.182
345.253
344.348
343.468
342.611
341.775
340.96
340.164
339.388
338.631
337.891
337.168
336.462
335.772
335.098
334.439
333.796
333.166
332.551
331.95
331.363
330.79
330.23
329.683
329.149
328.627
328.119
327.623
327.139
326.668
326.209
325.763
325.328
324.905
324.495
324.096
323.709
323.334
322.97
322.619
322.278
321.95
321.633
321.328
321.035
320.753
320.482
320.223
319.976
319.74
319.516
319.303
319.101
318.911
318.733
318.566
318.41
318.266
318.134
318.013
317.903
317.805
317.718
317.643
317.579
317.527
317.486
317.457
317.439
317.432
398.644
395.941
393.264
390.629
388.049
385.535
383.097
380.741
378.47
376.287
374.192
372.182
370.256
368.411
366.643
364.947
363.321
361.759
360.258
358.814
357.424
356.083
354.789
353.539
352.33
351.159
350.024
348.924
347.856
346.818
345.808
344.826
343.87
342.938
342.03
341.144
340.28
339.436
338.613
337.808
337.023
336.255
335.504
334.771
334.054
333.354
332.669
331.999
331.345
330.705
330.08
329.469
328.873
328.29
327.721
327.166
326.624
326.096
325.58
325.078
324.589
324.113
323.65
323.199
322.761
322.336
321.924
321.523
321.136
320.761
320.398
320.048
319.71
319.385
319.072
318.771
318.482
318.206
317.942
317.691
317.451
317.224
317.01
316.807
316.617
316.438
316.273
316.119
315.978
315.848
315.731
315.627
315.534
315.454
315.386
315.33
315.286
315.255
315.236
315.229
398.686
396.065
393.466
390.901
388.383
385.921
383.524
381.197
378.945
376.77
374.672
372.652
370.708
368.837
367.038
365.307
363.64
362.035
360.488
358.996
357.556
356.164
354.818
353.516
352.254
351.03
349.843
348.689
347.569
346.478
345.417
344.384
343.377
342.395
341.438
340.503
339.591
338.7
337.83
336.98
336.149
335.337
334.543
333.767
333.008
332.266
331.54
330.831
330.138
329.46
328.797
328.15
327.517
326.899
326.296
325.707
325.132
324.572
324.025
323.492
322.973
322.468
321.976
321.498
321.033
320.582
320.144
319.719
319.308
318.91
318.524
318.153
317.794
317.448
317.116
316.796
316.49
316.197
315.916
315.649
315.395
315.154
314.926
314.71
314.508
314.319
314.143
313.98
313.829
313.692
313.568
313.457
313.359
313.273
313.201
313.142
313.095
313.062
313.042
313.034
398.72
396.168
393.633
391.128
388.662
386.244
383.882
381.581
379.345
377.178
375.079
373.05
371.09
369.197
367.37
365.607
363.904
362.259
360.67
359.133
357.647
356.207
354.813
353.46
352.148
350.874
349.636
348.432
347.261
346.12
345.009
343.926
342.87
341.84
340.834
339.852
338.893
337.956
337.04
336.145
335.27
334.415
333.578
332.76
331.959
331.177
330.411
329.663
328.931
328.215
327.515
326.832
326.164
325.511
324.874
324.251
323.644
323.052
322.474
321.911
321.362
320.828
320.308
319.802
319.311
318.833
318.37
317.921
317.486
317.065
316.657
316.264
315.885
315.519
315.167
314.829
314.505
314.195
313.899
313.616
313.347
313.092
312.85
312.622
312.409
312.208
312.022
311.849
311.69
311.545
311.414
311.296
311.192
311.102
311.025
310.962
310.913
310.878
310.857
310.849
398.749
396.253
393.773
391.317
388.895
386.514
384.182
381.903
379.681
377.52
375.42
373.384
371.409
369.497
367.645
365.852
364.116
362.435
360.806
359.228
357.698
356.214
354.773
353.374
352.014
350.692
349.405
348.153
346.933
345.744
344.584
343.453
342.35
341.272
340.22
339.191
338.186
337.204
336.244
335.305
334.386
333.488
332.609
331.75
330.909
330.086
329.281
328.494
327.724
326.971
326.235
325.516
324.812
324.125
323.454
322.799
322.159
321.535
320.927
320.334
319.756
319.193
318.645
318.112
317.594
317.091
316.603
316.13
315.671
315.227
314.798
314.383
313.983
313.598
313.227
312.871
312.529
312.202
311.889
311.591
311.307
311.038
310.783
310.543
310.318
310.107
309.91
309.728
309.56
309.407
309.269
309.144
309.035
308.94
308.859
308.793
308.741
308.704
308.681
308.673
398.773
396.324
393.888
391.473
389.088
386.739
384.431
382.171
379.961
377.804
375.703
373.659
371.672
369.741
367.866
366.046
364.28
362.565
360.9
359.283
357.712
356.185
354.701
353.257
351.852
350.483
349.15
347.851
346.584
345.349
344.143
342.965
341.815
340.692
339.594
338.52
337.471
336.445
335.441
334.459
333.498
332.557
331.637
330.737
329.856
328.994
328.15
327.325
326.518
325.728
324.956
324.201
323.463
322.742
322.038
321.35
320.679
320.024
319.385
318.762
318.155
317.563
316.988
316.428
315.884
315.356
314.843
314.345
313.863
313.397
312.946
312.51
312.089
311.684
311.295
310.92
310.561
310.217
309.888
309.575
309.277
308.994
308.726
308.474
308.237
308.015
307.808
307.616
307.44
307.279
307.133
307.003
306.888
306.788
306.703
306.633
306.579
306.54
306.516
306.507
398.793
396.382
393.983
391.602
389.247
386.923
384.636
382.391
380.19
378.037
375.934
373.883
371.883
369.935
368.039
366.194
364.399
362.652
360.953
359.299
357.69
356.123
354.598
353.111
351.663
350.25
348.873
347.529
346.217
344.936
343.685
342.462
341.268
340.099
338.957
337.84
336.747
335.677
334.631
333.607
332.604
331.623
330.662
329.722
328.802
327.901
327.019
326.156
325.312
324.487
323.679
322.889
322.117
321.363
320.625
319.905
319.202
318.516
317.847
317.195
316.559
315.94
315.337
314.751
314.181
313.627
313.09
312.568
312.063
311.574
311.102
310.645
310.204
309.78
309.371
308.979
308.602
308.242
307.897
307.568
307.256
306.959
306.679
306.414
306.165
305.933
305.716
305.515
305.33
305.162
305.009
304.872
304.751
304.646
304.557
304.484
304.427
304.386
304.361
304.352
398.809
396.429
394.06
391.707
389.376
387.073
384.803
382.569
380.375
378.225
376.119
374.06
372.048
370.084
368.167
366.298
364.476
362.7
360.968
359.28
357.635
356.03
354.465
352.938
351.448
349.993
348.573
347.186
345.831
344.506
343.212
341.945
340.707
339.496
338.31
337.15
336.015
334.903
333.815
332.749
331.706
330.684
329.684
328.705
327.746
326.807
325.888
324.988
324.108
323.246
322.404
321.579
320.774
319.986
319.216
318.465
317.731
317.014
316.315
315.634
314.97
314.323
313.693
313.08
312.485
311.906
311.344
310.799
310.272
309.76
309.266
308.789
308.328
307.884
307.457
307.047
306.653
306.276
305.916
305.572
305.245
304.935
304.642
304.365
304.105
303.861
303.635
303.425
303.232
303.055
302.895
302.752
302.626
302.516
302.423
302.346
302.287
302.244
302.218
302.208
398.821
396.468
394.122
391.791
389.48
387.194
384.936
382.711
380.522
378.371
376.262
374.194
372.17
370.19
368.255
366.363
364.515
362.711
360.949
359.228
357.548
355.907
354.304
352.738
351.209
349.714
348.253
346.824
345.427
344.06
342.723
341.415
340.134
338.881
337.653
336.451
335.274
334.122
332.993
331.887
330.804
329.743
328.703
327.685
326.688
325.712
324.756
323.82
322.904
322.008
321.131
320.273
319.434
318.613
317.812
317.029
316.264
315.517
314.789
314.079
313.387
312.712
312.056
311.417
310.796
310.193
309.607
309.039
308.488
307.955
307.44
306.942
306.461
305.998
305.553
305.124
304.714
304.32
303.945
303.586
303.245
302.922
302.615
302.327
302.055
301.801
301.565
301.346
301.144
300.96
300.793
300.644
300.512
300.397
300.3
300.22
300.158
300.114
300.086
300.076
398.832
396.498
394.171
391.858
389.562
387.288
385.039
382.82
380.634
378.482
376.367
374.291
372.255
370.26
368.305
366.392
364.52
362.688
360.896
359.144
357.431
355.756
354.117
352.514
350.946
349.413
347.912
346.443
345.006
343.598
342.22
340.871
339.549
338.255
336.986
335.744
334.527
333.334
332.165
331.02
329.897
328.798
327.72
326.665
325.63
324.617
323.625
322.654
321.702
320.771
319.86
318.969
318.097
317.245
316.411
315.597
314.802
314.026
313.269
312.53
311.81
311.109
310.426
309.761
309.115
308.487
307.878
307.287
306.714
306.159
305.623
305.104
304.604
304.122
303.658
303.213
302.785
302.376
301.984
301.611
301.256
300.919
300.6
300.3
300.017
299.753
299.507
299.278
299.068
298.877
298.703
298.547
298.41
298.291
298.19
298.107
298.042
297.995
297.967
297.956
398.839
396.521
394.209
391.909
389.624
387.359
385.117
382.901
380.715
378.56
376.44
374.354
372.306
370.295
368.322
366.387
364.491
362.634
360.814
359.032
357.287
355.578
353.905
352.267
350.662
349.091
347.552
346.045
344.568
343.121
341.704
340.314
338.953
337.619
336.311
335.029
333.772
332.54
331.332
330.148
328.988
327.85
326.735
325.642
324.572
323.523
322.495
321.488
320.502
319.537
318.593
317.669
316.764
315.88
315.016
314.171
313.346
312.541
311.755
310.988
310.241
309.513
308.804
308.114
307.443
306.791
306.158
305.544
304.949
304.373
303.816
303.277
302.758
302.257
301.775
301.312
300.868
300.442
300.036
299.648
299.279
298.929
298.597
298.285
297.991
297.717
297.461
297.224
297.005
296.806
296.625
296.464
296.321
296.197
296.092
296.006
295.938
295.89
295.86
295.85
398.845
396.538
394.237
391.946
389.669
387.409
385.171
382.957
380.769
378.61
376.482
374.387
372.325
370.299
368.307
366.352
364.433
362.551
360.704
358.893
357.117
355.377
353.67
351.997
350.358
348.75
347.175
345.63
344.115
342.63
341.174
339.746
338.346
336.973
335.626
334.305
333.01
331.74
330.494
329.272
328.075
326.9
325.748
324.619
323.513
322.428
321.365
320.324
319.305
318.306
317.329
316.372
315.436
314.521
313.626
312.751
311.897
311.062
310.248
309.454
308.679
307.925
307.19
306.475
305.779
305.104
304.447
303.811
303.194
302.596
302.019
301.46
300.922
300.402
299.902
299.422
298.961
298.52
298.099
297.696
297.314
296.95
296.607
296.283
295.978
295.693
295.427
295.181
294.955
294.748
294.561
294.393
294.245
294.117
294.008
293.918
293.848
293.798
293.767
293.756
398.849
396.55
394.256
391.971
389.698
387.442
385.205
382.99
380.798
378.634
376.498
374.392
372.317
370.274
368.265
366.29
364.348
362.441
360.568
358.729
356.924
355.152
353.414
351.708
350.034
348.392
346.78
345.199
343.648
342.126
340.632
339.167
337.729
336.318
334.934
333.575
332.242
330.935
329.652
328.393
327.159
325.948
324.76
323.595
322.454
321.334
320.237
319.162
318.109
317.078
316.068
315.08
314.112
313.166
312.241
311.337
310.453
309.59
308.748
307.927
307.125
306.345
305.584
304.844
304.125
303.426
302.746
302.088
301.449
300.831
300.233
299.655
299.097
298.559
298.042
297.544
297.067
296.61
296.174
295.757
295.361
294.985
294.629
294.293
293.978
293.683
293.408
293.153
292.918
292.704
292.51
292.336
292.183
292.05
291.937
291.844
291.772
291.72
291.688
291.677
398.851
396.557
394.267
391.985
389.715
387.459
385.221
383.003
380.806
378.635
376.489
374.372
372.283
370.225
368.197
366.202
364.238
362.307
360.408
358.542
356.708
354.907
353.137
351.399
349.692
348.016
346.37
344.754
343.167
341.609
340.079
338.577
337.102
335.655
334.234
332.839
331.469
330.125
328.806
327.511
326.24
324.994
323.771
322.572
321.395
320.242
319.111
318.003
316.917
315.853
314.812
313.792
312.794
311.817
310.862
309.929
309.016
308.126
307.256
306.407
305.58
304.773
303.988
303.224
302.48
301.757
301.056
300.375
299.715
299.076
298.458
297.86
297.284
296.728
296.193
295.679
295.186
294.713
294.262
293.831
293.421
293.032
292.664
292.317
291.991
291.686
291.401
291.138
290.896
290.674
290.473
290.294
290.135
289.997
289.881
289.785
289.71
289.656
289.623
289.611
398.852
396.559
394.271
391.99
389.719
387.462
385.221
382.998
380.795
378.615
376.459
374.329
372.226
370.152
368.106
366.09
364.105
362.15
360.227
358.334
356.472
354.642
352.842
351.073
349.334
347.625
345.945
344.295
342.673
341.08
339.515
337.978
336.467
334.984
333.527
332.096
330.691
329.311
327.956
326.626
325.32
324.039
322.782
321.548
320.338
319.151
317.987
316.846
315.728
314.632
313.559
312.509
311.48
310.474
309.49
308.527
307.587
306.668
305.772
304.896
304.043
303.211
302.401
301.612
300.845
300.1
299.376
298.673
297.992
297.332
296.694
296.078
295.483
294.909
294.357
293.826
293.317
292.829
292.363
291.918
291.495
291.094
290.714
290.355
290.018
289.703
289.41
289.138
288.887
288.658
288.451
288.266
288.102
287.96
287.839
287.74
287.663
287.607
287.573
287.561
398.852
396.559
394.269
391.986
389.713
387.452
385.206
382.977
380.766
378.577
376.41
374.267
372.149
370.058
367.994
365.958
363.951
361.974
360.025
358.107
356.218
354.359
352.53
350.73
348.96
347.219
345.507
343.823
342.168
340.541
338.941
337.369
335.824
334.306
332.814
331.348
329.908
328.493
327.103
325.739
324.399
323.083
321.792
320.525
319.281
318.062
316.865
315.692
314.542
313.416
312.312
311.231
310.173
309.137
308.124
307.133
306.165
305.219
304.296
303.394
302.515
301.658
300.824
300.011
299.221
298.453
297.707
296.983
296.281
295.601
294.943
294.307
293.694
293.103
292.533
291.986
291.461
290.959
290.478
290.019
289.583
289.169
288.777
288.408
288.06
287.735
287.433
287.152
286.894
286.658
286.444
286.253
286.084
285.937
285.813
285.711
285.631
285.574
285.539
285.526
398.851
396.554
394.262
391.975
389.698
387.432
385.179
382.942
380.722
378.522
376.343
374.186
372.053
369.945
367.863
365.807
363.779
361.778
359.806
357.862
355.946
354.059
352.201
350.372
348.572
346.799
345.056
343.34
341.652
339.992
338.359
336.753
335.174
333.621
332.095
330.595
329.121
327.672
326.248
324.85
323.476
322.127
320.803
319.503
318.227
316.975
315.747
314.542
313.361
312.204
311.07
309.959
308.871
307.806
306.765
305.746
304.751
303.778
302.828
301.901
300.997
300.116
299.257
298.421
297.607
296.817
296.049
295.304
294.581
293.882
293.204
292.55
291.919
291.31
290.724
290.16
289.62
289.102
288.607
288.135
287.686
287.259
286.856
286.475
286.117
285.783
285.471
285.182
284.916
284.673
284.453
284.256
284.082
283.931
283.803
283.698
283.616
283.557
283.52
283.507
398.849
396.547
394.249
391.958
389.674
387.401
385.14
382.894
380.664
378.452
376.26
374.089
371.941
369.815
367.714
365.639
363.589
361.566
359.569
357.6
355.659
353.745
351.859
350.001
348.17
346.368
344.593
342.846
341.126
339.433
337.768
336.129
334.517
332.931
331.371
329.838
328.33
326.848
325.391
323.96
322.553
321.172
319.815
318.482
317.174
315.891
314.631
313.396
312.184
310.997
309.833
308.693
307.576
306.483
305.414
304.368
303.345
302.346
301.37
300.418
299.489
298.583
297.7
296.841
296.005
295.193
294.403
293.637
292.894
292.175
291.479
290.806
290.157
289.53
288.928
288.348
287.792
287.26
286.751
286.265
285.803
285.365
284.95
284.558
284.19
283.846
283.525
283.228
282.954
282.704
282.478
282.275
282.096
281.94
281.809
281.701
281.616
281.555
281.518
281.505
398.845
396.538
394.233
391.934
389.643
387.361
385.091
382.835
380.594
378.369
376.164
373.978
371.813
369.67
367.55
365.455
363.384
361.338
359.318
357.324
355.357
353.417
351.503
349.617
347.757
345.925
344.12
342.342
340.591
338.867
337.169
335.498
333.854
332.236
330.644
329.077
327.537
326.022
324.533
323.069
321.63
320.217
318.828
317.464
316.125
314.81
313.52
312.254
311.012
309.795
308.602
307.433
306.288
305.167
304.07
302.997
301.948
300.923
299.922
298.944
297.991
297.061
296.155
295.273
294.415
293.58
292.77
291.983
291.22
290.482
289.767
289.076
288.408
287.765
287.146
286.551
285.98
285.433
284.91
284.411
283.936
283.486
283.059
282.657
282.279
281.925
281.595
281.29
281.008
280.752
280.519
280.311
280.127
279.967
279.832
279.72
279.634
279.571
279.533
279.519
398.841
396.526
394.213
391.905
389.605
387.314
385.033
382.765
380.512
378.275
376.054
373.853
371.671
369.511
367.372
365.256
363.164
361.096
359.053
357.035
355.042
353.076
351.135
349.221
347.334
345.472
343.638
341.83
340.048
338.293
336.565
334.862
333.186
331.536
329.912
328.314
326.742
325.195
323.674
322.178
320.708
319.263
317.843
316.448
315.078
313.733
312.412
311.117
309.846
308.6
307.378
306.18
305.008
303.859
302.735
301.636
300.561
299.51
298.483
297.481
296.504
295.55
294.621
293.717
292.837
291.981
291.149
290.342
289.56
288.802
288.068
287.359
286.675
286.015
285.379
284.769
284.183
283.621
283.084
282.572
282.085
281.623
281.185
280.772
280.384
280.021
279.682
279.369
279.08
278.816
278.577
278.364
278.175
278.011
277.872
277.758
277.669
277.605
277.566
277.551
398.837
396.512
394.19
391.872
389.561
387.259
384.967
382.687
380.421
378.169
375.934
373.716
371.518
369.339
367.181
365.045
362.932
360.842
358.775
356.733
354.716
352.724
350.757
348.816
346.9
345.011
343.147
341.31
339.498
337.713
335.954
334.221
332.514
330.833
329.178
327.548
325.945
324.367
322.815
321.288
319.787
318.311
316.86
315.435
314.035
312.66
311.31
309.985
308.685
307.41
306.16
304.935
303.735
302.56
301.409
300.283
299.183
298.107
297.056
296.029
295.028
294.051
293.099
292.173
291.271
290.394
289.542
288.715
287.913
287.136
286.384
285.657
284.956
284.279
283.628
283.002
282.401
281.825
281.275
280.75
280.251
279.776
279.327
278.904
278.506
278.133
277.786
277.465
277.169
276.898
276.654
276.434
276.241
276.072
275.93
275.813
275.722
275.656
275.616
275.601
398.832
396.496
394.163
391.835
389.513
387.198
384.894
382.601
380.32
378.054
375.803
373.569
371.353
369.156
366.979
364.823
362.688
360.576
358.487
356.421
354.379
352.361
350.369
348.401
346.458
344.541
342.649
340.782
338.942
337.127
335.338
333.575
331.838
330.127
328.441
326.781
325.147
323.539
321.956
320.399
318.867
317.361
315.881
314.426
312.996
311.592
310.213
308.859
307.531
306.228
304.95
303.698
302.471
301.269
300.092
298.941
297.815
296.714
295.638
294.588
293.563
292.564
291.59
290.641
289.718
288.82
287.948
287.102
286.28
285.485
284.715
283.971
283.252
282.559
281.892
281.251
280.636
280.046
279.482
278.945
278.433
277.947
277.487
277.053
276.646
276.264
275.908
275.579
275.276
274.999
274.748
274.523
274.325
274.152
274.006
273.886
273.793
273.726
273.685
273.67
398.826
396.479
394.134
391.794
389.459
387.132
384.814
382.507
380.212
377.93
375.664
373.413
371.179
368.963
366.767
364.59
362.435
360.3
358.188
356.099
354.033
351.99
349.972
347.978
346.008
344.063
342.144
340.249
338.38
336.537
334.719
332.926
331.159
329.418
327.703
326.013
324.349
322.711
321.098
319.511
317.95
316.414
314.904
313.42
311.962
310.529
309.121
307.739
306.383
305.053
303.748
302.469
301.215
299.987
298.785
297.608
296.457
295.332
294.233
293.159
292.111
291.089
290.093
289.123
288.179
287.261
286.369
285.503
284.663
283.849
283.061
282.3
281.564
280.855
280.173
279.517
278.887
278.283
277.707
277.156
276.632
276.135
275.665
275.221
274.803
274.413
274.049
273.711
273.401
273.117
272.861
272.63
272.427
272.251
272.101
271.979
271.883
271.814
271.772
271.757
398.819
396.46
394.102
391.749
389.401
387.061
384.729
382.407
380.097
377.799
375.516
373.248
370.996
368.761