/*--------------------------------*- C++ -*----------------------------------*\
  =========                 |
  \\      /  F ield         | OpenFOAM: The Open Source CFD Toolbox
   \\    /   O peration     | Website:  https://openfoam.org
    \\  /    A nd           | Version:  10
     \\/     M anipulation  |
\*---------------------------------------------------------------------------*/
FoamFile
{
    format      ascii;
    class       volScalarField;
    location    "41";
    object      T;
}
// * * * * * * * * * * * * * * * * * * * * * * * * * * * * * * * * * * * * * //

dimensions      [0 0 0 1 0 0 0];

internalField   nonuniform List<scalar> 
10000
(
374.989
361.303
356.632
354.589
353.486
352.793
352.313
351.957
351.681
351.459
351.275
351.119
350.985
350.867
350.763
350.669
350.584
350.506
350.435
350.368
350.306
350.248
350.193
350.141
350.092
350.045
350
349.957
349.916
349.877
349.838
349.801
349.766
349.731
349.697
349.665
349.633
349.602
349.573
349.543
349.515
349.487
349.46
349.434
349.408
349.383
349.359
349.335
349.312
349.289
349.267
349.245
349.224
349.203
349.183
349.163
349.144
349.126
349.107
349.09
349.073
349.056
349.039
349.024
349.008
348.993
348.979
348.965
348.951
348.938
348.925
348.913
348.901
348.889
348.878
348.868
348.858
348.848
348.839
348.83
348.822
348.814
348.806
348.799
348.792
348.786
348.78
348.775
348.77
348.765
348.761
348.758
348.754
348.752
348.749
348.747
348.746
348.745
348.744
348.744
388.627
374.894
367.266
362.829
360.046
358.165
356.813
355.792
354.989
354.338
353.796
353.336
352.938
352.588
352.278
351.998
351.745
351.513
351.299
351.1
350.915
350.741
350.577
350.421
350.274
350.133
349.999
349.87
349.747
349.628
349.513
349.403
349.295
349.192
349.091
348.994
348.899
348.806
348.717
348.629
348.544
348.461
348.38
348.301
348.224
348.149
348.076
348.004
347.935
347.866
347.8
347.735
347.671
347.609
347.549
347.49
347.433
347.377
347.322
347.269
347.217
347.167
347.118
347.07
347.024
346.979
346.936
346.893
346.853
346.813
346.775
346.738
346.702
346.668
346.635
346.603
346.573
346.544
346.516
346.49
346.464
346.441
346.418
346.397
346.377
346.358
346.341
346.324
346.31
346.296
346.284
346.273
346.263
346.255
346.247
346.242
346.237
346.234
346.232
346.231
393.252
382.383
374.707
369.417
365.704
363.01
360.984
359.408
358.145
357.108
356.236
355.491
354.842
354.271
353.762
353.302
352.885
352.502
352.148
351.82
351.513
351.224
350.952
350.695
350.45
350.217
349.993
349.78
349.574
349.376
349.186
349.002
348.823
348.651
348.483
348.321
348.163
348.01
347.86
347.715
347.573
347.435
347.3
347.169
347.041
346.915
346.793
346.674
346.558
346.444
346.333
346.225
346.119
346.016
345.915
345.817
345.722
345.628
345.537
345.449
345.363
345.279
345.197
345.118
345.041
344.966
344.894
344.823
344.755
344.689
344.626
344.564
344.505
344.448
344.393
344.34
344.289
344.241
344.195
344.151
344.109
344.069
344.031
343.996
343.962
343.931
343.902
343.875
343.85
343.828
343.807
343.789
343.773
343.759
343.747
343.737
343.73
343.724
343.721
343.719
395.247
386.679
379.764
374.427
370.343
367.187
364.704
362.711
361.077
359.712
358.551
357.549
356.671
355.893
355.196
354.566
353.991
353.463
352.974
352.519
352.093
351.693
351.315
350.956
350.616
350.291
349.98
349.682
349.395
349.12
348.854
348.596
348.348
348.107
347.873
347.646
347.425
347.211
347.002
346.799
346.6
346.407
346.219
346.035
345.856
345.681
345.51
345.343
345.181
345.022
344.866
344.715
344.567
344.423
344.282
344.145
344.011
343.881
343.753
343.63
343.509
343.392
343.277
343.166
343.059
342.954
342.852
342.754
342.659
342.567
342.477
342.391
342.308
342.229
342.152
342.078
342.007
341.939
341.874
341.813
341.754
341.698
341.646
341.596
341.549
341.506
341.465
341.427
341.393
341.361
341.332
341.307
341.284
341.265
341.248
341.234
341.224
341.216
341.211
341.21
396.304
389.322
383.244
378.184
374.053
370.691
367.936
365.655
363.741
362.113
360.709
359.483
358.401
357.435
356.566
355.776
355.052
354.385
353.767
353.19
352.65
352.141
351.659
351.203
350.768
350.353
349.956
349.575
349.209
348.856
348.515
348.186
347.867
347.558
347.258
346.967
346.684
346.409
346.141
345.88
345.626
345.378
345.137
344.901
344.67
344.446
344.227
344.012
343.803
343.599
343.4
343.206
343.016
342.83
342.65
342.473
342.301
342.134
341.97
341.811
341.656
341.505
341.359
341.216
341.078
340.943
340.813
340.686
340.564
340.446
340.331
340.22
340.114
340.011
339.912
339.818
339.727
339.639
339.556
339.477
339.402
339.33
339.262
339.198
339.138
339.082
339.03
338.982
338.937
338.897
338.86
338.827
338.798
338.772
338.751
338.734
338.72
338.71
338.704
338.702
396.95
391.063
385.704
381.013
376.996
373.587
370.696
368.234
366.12
364.29
362.689
361.276
360.016
358.883
357.857
356.92
356.059
355.262
354.521
353.828
353.177
352.563
351.982
351.43
350.903
350.401
349.919
349.456
349.011
348.582
348.168
347.767
347.38
347.004
346.639
346.284
345.939
345.604
345.278
344.96
344.65
344.347
344.052
343.765
343.484
343.21
342.942
342.681
342.426
342.177
341.934
341.696
341.465
341.238
341.018
340.802
340.593
340.388
340.188
339.994
339.805
339.621
339.442
339.268
339.099
338.934
338.775
338.621
338.471
338.327
338.187
338.052
337.922
337.796
337.675
337.56
337.448
337.342
337.241
337.144
337.052
336.964
336.881
336.803
336.73
336.662
336.598
336.539
336.484
336.435
336.39
336.35
336.314
336.283
336.257
336.236
336.219
336.207
336.2
336.197
397.384
392.275
387.497
383.17
379.331
375.966
373.029
370.464
368.218
366.239
364.483
362.916
361.505
360.227
359.061
357.991
357.003
356.085
355.229
354.426
353.67
352.956
352.278
351.634
351.019
350.43
349.866
349.324
348.802
348.298
347.811
347.341
346.885
346.442
346.013
345.596
345.19
344.795
344.41
344.036
343.67
343.314
342.967
342.627
342.296
341.973
341.658
341.349
341.048
340.755
340.468
340.188
339.914
339.647
339.387
339.133
338.885
338.643
338.408
338.179
337.955
337.738
337.527
337.321
337.122
336.928
336.74
336.558
336.381
336.21
336.045
335.886
335.732
335.584
335.441
335.305
335.173
335.048
334.928
334.813
334.705
334.601
334.504
334.412
334.325
334.244
334.169
334.099
334.035
333.976
333.923
333.876
333.834
333.797
333.767
333.741
333.722
333.707
333.699
333.695
397.693
393.157
388.841
384.838
381.194
377.917
374.989
372.379
370.049
367.965
366.092
364.4
362.864
361.46
360.172
358.982
357.879
356.85
355.886
354.98
354.125
353.315
352.545
351.812
351.111
350.44
349.795
349.175
348.578
348.001
347.444
346.904
346.381
345.873
345.38
344.901
344.435
343.981
343.539
343.108
342.688
342.278
341.879
341.488
341.107
340.735
340.372
340.017
339.671
339.332
339.002
338.679
338.365
338.057
337.757
337.464
337.179
336.901
336.63
336.365
336.108
335.858
335.614
335.377
335.147
334.924
334.707
334.497
334.294
334.097
333.907
333.723
333.546
333.375
333.211
333.053
332.902
332.757
332.619
332.487
332.361
332.243
332.13
332.024
331.924
331.831
331.744
331.664
331.59
331.522
331.461
331.406
331.358
331.316
331.28
331.251
331.228
331.212
331.202
331.198
397.923
393.821
389.871
386.147
382.691
379.52
376.633
374.013
371.638
369.482
367.521
365.732
364.091
362.582
361.186
359.891
358.683
357.552
356.489
355.487
354.538
353.638
352.78
351.962
351.178
350.427
349.705
349.009
348.339
347.691
347.064
346.456
345.867
345.296
344.74
344.2
343.674
343.162
342.663
342.177
341.703
341.24
340.788
340.347
339.917
339.496
339.086
338.685
338.293
337.91
337.537
337.172
336.816
336.468
336.129
335.798
335.475
335.16
334.853
334.554
334.263
333.98
333.704
333.436
333.176
332.923
332.678
332.44
332.21
331.987
331.771
331.564
331.363
331.17
330.984
330.805
330.634
330.47
330.314
330.165
330.023
329.888
329.761
329.64
329.528
329.422
329.324
329.233
329.149
329.072
329.003
328.941
328.886
328.839
328.798
328.765
328.74
328.721
328.71
328.706
398.098
394.333
390.677
387.188
383.902
380.842
378.011
375.404
373.008
370.807
368.782
366.916
365.191
363.592
362.104
360.715
359.413
358.19
357.036
355.944
354.908
353.922
352.981
352.081
351.219
350.39
349.593
348.824
348.082
347.365
346.67
345.997
345.343
344.708
344.091
343.491
342.907
342.337
341.782
341.241
340.713
340.198
339.695
339.204
338.724
338.256
337.798
337.352
336.915
336.488
336.072
335.665
335.268
334.88
334.502
334.133
333.773
333.421
333.079
332.745
332.421
332.105
331.797
331.498
331.207
330.925
330.652
330.386
330.13
329.881
329.641
329.408
329.185
328.969
328.762
328.562
328.371
328.188
328.014
327.847
327.689
327.538
327.396
327.262
327.136
327.018
326.908
326.807
326.713
326.628
326.55
326.481
326.42
326.367
326.322
326.285
326.256
326.236
326.223
326.218
398.236
394.736
391.318
388.025
384.891
381.935
379.167
376.585
374.186
371.957
369.887
367.961
366.168
364.494
362.926
361.455
360.07
358.763
357.525
356.35
355.232
354.166
353.146
352.169
351.23
350.328
349.458
348.619
347.808
347.023
346.262
345.524
344.807
344.111
343.434
342.774
342.132
341.506
340.896
340.301
339.72
339.153
338.599
338.059
337.53
337.014
336.51
336.018
335.537
335.067
334.608
334.159
333.722
333.294
332.877
332.47
332.072
331.685
331.308
330.94
330.581
330.233
329.893
329.564
329.243
328.932
328.63
328.337
328.054
327.779
327.514
327.258
327.011
326.773
326.544
326.324
326.113
325.911
325.719
325.535
325.36
325.194
325.037
324.889
324.75
324.62
324.499
324.387
324.283
324.189
324.104
324.027
323.96
323.901
323.852
323.811
323.779
323.756
323.742
323.737
398.346
395.058
391.833
388.705
385.702
382.842
380.136
377.588
375.195
372.951
370.849
368.878
367.029
365.292
363.656
362.113
360.653
359.27
357.956
356.704
355.51
354.368
353.274
352.223
351.213
350.239
349.3
348.392
347.514
346.664
345.839
345.038
344.259
343.503
342.766
342.049
341.35
340.669
340.004
339.355
338.722
338.104
337.5
336.911
336.335
335.772
335.222
334.684
334.159
333.646
333.144
332.655
332.177
331.71
331.254
330.809
330.375
329.952
329.539
329.137
328.746
328.365
327.994
327.633
327.283
326.943
326.613
326.293
325.983
325.683
325.393
325.113
324.843
324.582
324.332
324.092
323.861
323.64
323.429
323.228
323.037
322.856
322.684
322.522
322.37
322.228
322.095
321.973
321.86
321.757
321.663
321.58
321.506
321.442
321.388
321.343
321.308
321.283
321.268
321.263
398.434
395.318
392.251
389.261
386.371
383.597
380.951
378.437
376.056
373.806
371.682
369.677
367.783
365.992
364.297
362.691
361.165
359.713
358.329
357.007
355.742
354.529
353.364
352.244
351.165
350.124
349.117
348.144
347.201
346.287
345.399
344.537
343.699
342.883
342.089
341.315
340.56
339.824
339.106
338.405
337.72
337.052
336.399
335.761
335.137
334.528
333.932
333.35
332.781
332.225
331.682
331.151
330.633
330.127
329.633
329.151
328.68
328.221
327.774
327.338
326.914
326.5
326.098
325.707
325.327
324.958
324.6
324.253
323.917
323.591
323.277
322.973
322.68
322.398
322.126
321.865
321.615
321.375
321.147
320.928
320.721
320.524
320.338
320.162
319.997
319.843
319.699
319.566
319.443
319.332
319.23
319.14
319.059
318.99
318.931
318.883
318.845
318.818
318.801
318.795
398.506
395.53
392.594
389.719
386.925
384.227
381.635
379.155
376.79
374.539
372.4
370.367
368.436
366.601
364.855
363.193
361.607
360.093
358.645
357.258
355.927
354.648
353.417
352.231
351.086
349.98
348.91
347.873
346.868
345.892
344.944
344.022
343.125
342.252
341.401
340.571
339.762
338.973
338.202
337.449
336.714
335.996
335.294
334.608
333.937
333.282
332.642
332.015
331.403
330.805
330.221
329.649
329.092
328.547
328.015
327.495
326.989
326.495
326.013
325.543
325.086
324.64
324.207
323.786
323.376
322.979
322.593
322.219
321.857
321.506
321.167
320.839
320.523
320.219
319.926
319.645
319.376
319.117
318.871
318.636
318.412
318.2
317.999
317.81
317.632
317.465
317.31
317.167
317.035
316.914
316.805
316.707
316.621
316.546
316.482
316.43
316.389
316.36
316.342
316.336
398.565
395.704
392.875
390.096
387.384
384.752
382.209
379.761
377.412
375.164
373.014
370.96
368.998
367.125
365.335
363.623
361.984
360.414
358.907
357.46
356.067
354.726
353.433
352.184
350.977
349.809
348.677
347.579
346.514
345.479
344.472
343.492
342.538
341.609
340.702
339.818
338.956
338.114
337.291
336.488
335.703
334.936
334.186
333.453
332.736
332.036
331.35
330.681
330.026
329.386
328.76
328.149
327.552
326.969
326.399
325.843
325.301
324.771
324.255
323.752
323.262
322.785
322.321
321.87
321.431
321.005
320.592
320.191
319.802
319.427
319.063
318.712
318.374
318.048
317.734
317.433
317.144
316.867
316.602
316.35
316.11
315.883
315.668
315.465
315.274
315.096
314.93
314.776
314.634
314.505
314.388
314.283
314.19
314.11
314.042
313.986
313.942
313.911
313.892
313.885
398.613
395.847
393.107
390.409
387.766
385.19
382.689
380.271
377.938
375.693
373.535
371.464
369.477
367.571
365.741
363.985
362.298
360.677
359.116
357.613
356.163
354.764
353.412
352.104
350.838
349.61
348.419
347.263
346.14
345.047
343.983
342.947
341.938
340.953
339.993
339.056
338.141
337.248
336.375
335.521
334.687
333.872
333.075
332.296
331.533
330.788
330.059
329.346
328.649
327.968
327.302
326.651
326.015
325.393
324.787
324.194
323.616
323.052
322.502
321.966
321.444
320.935
320.441
319.959
319.492
319.037
318.597
318.169
317.755
317.354
316.967
316.592
316.231
315.884
315.549
315.228
314.919
314.624
314.342
314.073
313.817
313.575
313.345
313.128
312.925
312.735
312.557
312.393
312.242
312.104
311.979
311.867
311.769
311.683
311.61
311.551
311.504
311.471
311.451
311.443
398.653
395.965
393.299
390.667
388.082
385.554
383.09
380.697
378.379
376.138
373.975
371.889
369.879
367.944
366.08
364.284
362.554
360.885
359.274
357.719
356.216
354.763
353.355
351.991
350.668
349.384
348.137
346.924
345.745
344.596
343.478
342.387
341.324
340.286
339.273
338.284
337.318
336.374
335.452
334.549
333.667
332.805
331.961
331.136
330.329
329.539
328.767
328.012
327.273
326.551
325.845
325.155
324.48
323.821
323.178
322.549
321.936
321.337
320.754
320.185
319.631
319.091
318.566
318.055
317.558
317.076
316.608
316.154
315.715
315.289
314.878
314.48
314.097
313.727
313.372
313.031
312.703
312.39
312.09
311.805
311.533
311.275
311.031
310.801
310.585
310.383
310.195
310.02
309.86
309.713
309.581
309.462
309.357
309.266
309.189
309.125
309.076
309.041
309.019
309.011
398.685
396.062
393.456
390.88
388.344
385.856
383.423
381.052
378.746
376.509
374.341
372.242
370.213
368.251
366.356
364.524
362.754
361.041
359.385
357.782
356.229
354.723
353.263
351.846
350.47
349.132
347.83
346.564
345.33
344.128
342.956
341.812
340.696
339.607
338.543
337.503
336.487
335.494
334.522
333.572
332.643
331.734
330.844
329.974
329.123
328.29
327.475
326.678
325.898
325.135
324.39
323.661
322.948
322.252
321.572
320.908
320.26
319.627
319.01
318.409
317.823
317.252
316.697
316.157
315.632
315.122
314.627
314.147
313.682
313.232
312.797
312.376
311.971
311.58
311.204
310.843
310.496
310.164
309.848
309.545
309.258
308.985
308.727
308.484
308.255
308.041
307.842
307.657
307.488
307.332
307.192
307.066
306.955
306.859
306.777
306.71
306.658
306.62
306.598
306.589
398.712
396.141
393.586
391.056
388.559
386.104
383.698
381.345
379.049
376.814
374.641
372.531
370.484
368.499
366.575
364.71
362.902
361.15
359.45
357.802
356.202
354.648
353.138
351.671
350.243
348.853
347.5
346.181
344.895
343.641
342.417
341.223
340.056
338.916
337.802
336.713
335.648
334.606
333.587
332.59
331.614
330.659
329.725
328.811
327.916
327.04
326.183
325.344
324.524
323.722
322.937
322.17
321.42
320.687
319.971
319.271
318.588
317.922
317.272
316.639
316.022
315.42
314.835
314.266
313.712
313.175
312.653
312.147
311.657
311.183
310.724
310.281
309.853
309.441
309.045
308.664
308.299
307.949
307.615
307.296
306.993
306.705
306.433
306.176
305.935
305.71
305.499
305.305
305.126
304.962
304.814
304.681
304.564
304.463
304.377
304.306
304.251
304.211
304.187
304.178
398.734
396.206
393.692
391.199
388.735
386.307
383.922
381.583
379.296
377.062
374.884
372.762
370.698
368.691
366.74
364.845
363.003
361.213
359.473
357.782
356.138
354.538
352.981
351.465
349.988
348.549
347.146
345.777
344.441
343.137
341.863
340.619
339.402
338.213
337.05
335.913
334.8
333.711
332.645
331.602
330.581
329.582
328.603
327.645
326.708
325.79
324.891
324.012
323.152
322.31
321.487
320.681
319.894
319.125
318.373
317.639
316.922
316.223
315.54
314.875
314.226
313.595
312.98
312.382
311.801
311.236
310.688
310.156
309.641
309.142
308.66
308.194
307.745
307.312
306.895
306.495
306.111
305.743
305.392
305.057
304.738
304.436
304.15
303.88
303.626
303.389
303.168
302.964
302.775
302.603
302.447
302.308
302.185
302.078
301.988
301.913
301.855
301.814
301.788
301.779
398.752
396.258
393.777
391.314
388.877
386.471
384.102
381.775
379.492
377.258
375.074
372.942
370.862
368.834
366.858
364.933
363.059
361.234
359.456
357.725
356.039
354.395
352.793
351.231
349.708
348.221
346.77
345.353
343.968
342.616
341.294
340.001
338.736
337.499
336.289
335.104
333.945
332.81
331.698
330.61
329.545
328.501
327.479
326.478
325.499
324.539
323.6
322.681
321.781
320.9
320.039
319.197
318.373
317.568
316.781
316.012
315.262
314.529
313.814
313.117
312.438
311.777
311.132
310.506
309.897
309.305
308.731
308.174
307.634
307.111
306.606
306.117
305.646
305.192
304.756
304.336
303.934
303.548
303.18
302.829
302.494
302.177
301.877
301.595
301.329
301.08
300.848
300.634
300.436
300.256
300.093
299.947
299.818
299.705
299.611
299.533
299.472
299.428
299.402
299.392
398.766
396.3
393.845
391.406
388.989
386.6
384.244
381.924
379.645
377.41
375.219
373.075
370.979
368.931
366.931
364.979
363.074
361.216
359.402
357.633
355.907
354.222
352.577
350.971
349.402
347.87
346.373
344.909
343.478
342.078
340.709
339.369
338.058
336.775
335.518
334.287
333.082
331.902
330.746
329.614
328.504
327.418
326.353
325.31
324.289
323.289
322.31
321.351
320.412
319.493
318.595
317.715
316.855
316.015
315.193
314.39
313.607
312.841
312.095
311.367
310.657
309.966
309.293
308.638
308.001
307.383
306.783
306.2
305.636
305.09
304.561
304.051
303.558
303.084
302.627
302.188
301.767
301.364
300.979
300.612
300.262
299.931
299.617
299.321
299.043
298.783
298.541
298.317
298.11
297.921
297.751
297.598
297.463
297.346
297.246
297.165
297.101
297.056
297.028
297.018
398.777
396.332
393.897
391.477
389.076
386.699
384.352
382.038
379.76
377.52
375.322
373.166
371.055
368.987
366.964
364.986
363.052
361.161
359.314
357.508
355.743
354.019
352.333
350.685
349.073
347.497
345.955
344.446
342.97
341.525
340.11
338.725
337.368
336.039
334.738
333.462
332.213
330.988
329.789
328.613
327.461
326.332
325.225
324.141
323.08
322.039
321.02
320.023
319.046
318.089
317.154
316.238
315.342
314.467
313.611
312.775
311.958
311.16
310.382
309.624
308.884
308.163
307.462
306.779
306.115
305.47
304.844
304.237
303.648
303.078
302.527
301.995
301.481
300.986
300.51
300.052
299.613
299.192
298.79
298.407
298.043
297.697
297.369
297.061
296.771
296.499
296.246
296.012
295.797
295.6
295.422
295.262
295.121
294.999
294.895
294.81
294.744
294.696
294.667
294.657
398.785
396.357
393.937
391.53
389.14
386.773
384.431
382.119
379.839
377.595
375.388
373.22
371.093
369.006
366.96
364.957
362.994
361.073
359.193
357.352
355.551
353.788
352.063
350.374
348.721
347.103
345.518
343.966
342.446
340.957
339.498
338.068
336.667
335.294
333.949
332.63
331.337
330.069
328.826
327.608
326.414
325.244
324.096
322.972
321.87
320.79
319.733
318.697
317.682
316.689
315.716
314.765
313.834
312.924
312.034
311.165
310.316
309.487
308.677
307.888
307.119
306.369
305.639
304.929
304.238
303.567
302.915
302.283
301.671
301.078
300.504
299.95
299.415
298.9
298.404
297.927
297.47
297.032
296.614
296.215
295.835
295.475
295.134
294.813
294.511
294.228
293.965
293.721
293.497
293.292
293.106
292.94
292.793
292.666
292.558
292.47
292.4
292.351
292.321
292.31
398.791
396.374
393.965
391.568
389.185
386.823
384.484
382.172
379.889
377.638
375.421
373.241
371.097
368.991
366.923
364.895
362.905
360.955
359.042
357.168
355.332
353.532
351.769
350.041
348.348
346.689
345.062
343.468
341.906
340.374
338.872
337.4
335.956
334.54
333.152
331.79
330.454
329.145
327.86
326.6
325.365
324.154
322.966
321.802
320.661
319.543
318.447
317.373
316.321
315.292
314.283
313.297
312.331
311.387
310.464
309.562
308.681
307.82
306.98
306.161
305.362
304.584
303.826
303.088
302.371
301.674
300.997
300.341
299.704
299.088
298.492
297.917
297.361
296.826
296.31
295.815
295.34
294.885
294.451
294.036
293.641
293.267
292.913
292.579
292.265
291.971
291.698
291.444
291.211
290.998
290.805
290.632
290.48
290.347
290.235
290.143
290.072
290.02
289.989
289.977
398.795
396.386
393.984
391.592
389.214
386.853
384.514
382.199
379.911
377.653
375.425
373.23
371.07
368.945
366.856
364.803
362.787
360.807
358.865
356.958
355.088
353.253
351.453
349.687
347.955
346.256
344.59
342.955
341.352
339.778
338.235
336.721
335.235
333.777
332.347
330.943
329.566
328.215
326.89
325.59
324.314
323.063
321.836
320.633
319.453
318.297
317.163
316.052
314.964
313.899
312.855
311.834
310.834
309.856
308.9
307.966
307.053
306.161
305.291
304.442
303.614
302.808
302.022
301.257
300.514
299.791
299.09
298.409
297.749
297.111
296.493
295.896
295.319
294.764
294.23
293.716
293.223
292.752
292.301
291.871
291.461
291.073
290.706
290.359
290.033
289.729
289.445
289.182
288.94
288.719
288.519
288.34
288.181
288.044
287.928
287.832
287.758
287.704
287.672
287.66
398.797
396.392
393.993
391.604
389.227
386.866
384.524
382.205
379.91
377.642
375.402
373.193
371.016
368.871
366.76
364.684
362.642
360.634
358.662
356.724
354.82
352.951
351.115
349.313
347.544
345.807
344.101
342.427
340.784
339.17
337.586
336.031
334.504
333.006
331.535
330.091
328.673
327.282
325.916
324.576
323.261
321.971
320.705
319.464
318.246
317.052
315.882
314.735
313.611
312.51
311.432
310.376
309.343
308.332
307.343
306.377
305.433
304.511
303.611
302.732
301.876
301.041
300.228
299.437
298.668
297.92
297.194
296.489
295.806
295.145
294.505
293.887
293.291
292.716
292.162
291.631
291.12
290.632
290.165
289.719
289.296
288.893
288.513
288.154
287.817
287.501
287.207
286.935
286.684
286.455
286.248
286.062
285.898
285.756
285.636
285.537
285.46
285.404
285.37
285.358
398.797
396.394
393.995
391.605
389.227
386.863
384.517
382.19
379.887
377.608
375.356
373.132
370.937
368.773
366.64
364.54
362.472
360.437
358.436
356.467
354.531
352.629
350.759
348.921
347.115
345.341
343.598
341.885
340.203
338.55
336.927
335.332
333.766
332.227
330.716
329.233
327.775
326.345
324.94
323.561
322.207
320.879
319.575
318.296
317.041
315.811
314.604
313.421
312.262
311.126
310.013
308.924
307.858
306.815
305.794
304.796
303.821
302.869
301.939
301.032
300.148
299.285
298.445
297.628
296.833
296.06
295.31
294.582
293.876
293.192
292.531
291.892
291.275
290.681
290.109
289.559
289.031
288.526
288.043
287.583
287.145
286.729
286.335
285.964
285.615
285.289
284.985
284.703
284.444
284.207
283.993
283.801
283.632
283.484
283.36
283.258
283.178
283.121
283.086
283.073
398.797
396.391
393.99
391.597
389.215
386.846
384.493
382.158
379.845
377.554
375.288
373.048
370.835
368.651
366.497
364.373
362.28
360.218
358.188
356.19
354.223
352.288
350.384
348.512
346.671
344.86
343.08
341.33
339.61
337.919
336.258
334.624
333.019
331.442
329.892
328.37
326.874
325.404
323.961
322.544
321.153
319.787
318.446
317.13
315.838
314.572
313.329
312.111
310.917
309.747
308.601
307.479
306.38
305.304
304.252
303.224
302.219
301.237
300.278
299.342
298.429
297.54
296.674
295.83
295.01
294.212
293.438
292.686
291.958
291.252
290.57
289.91
289.274
288.66
288.07
287.502
286.957
286.436
285.937
285.462
285.009
284.58
284.174
283.79
283.43
283.093
282.779
282.488
282.221
281.976
281.755
281.557
281.381
281.23
281.101
280.995
280.913
280.854
280.818
280.805
398.795
396.385
393.979
391.581
389.193
386.816
384.455
382.111
379.786
377.482
375.201
372.944
370.714
368.51
366.334
364.186
362.068
359.98
357.922
355.894
353.896
351.93
349.993
348.087
346.212
344.366
342.55
340.764
339.007
337.279
335.58
333.909
332.266
330.651
329.063
327.502
325.969
324.462
322.981
321.526
320.098
318.695
317.317
315.965
314.638
313.336
312.059
310.806
309.578
308.374
307.195
306.04
304.909
303.802
302.719
301.66
300.625
299.614
298.626
297.662
296.722
295.806
294.913
294.044
293.199
292.377
291.579
290.804
290.054
289.326
288.623
287.943
287.287
286.654
286.045
285.46
284.899
284.361
283.847
283.356
282.89
282.447
282.028
281.633
281.261
280.914
280.59
280.29
280.014
279.762
279.534
279.329
279.149
278.992
278.859
278.75
278.665
278.604
278.567
278.554
398.792
396.375
393.963
391.558
389.161
386.776
384.405
382.049
379.711
377.394
375.097
372.823
370.574
368.349
366.151
363.981
361.838
359.723
357.637
355.581
353.553
351.556
349.587
347.649
345.739
343.859
342.009
340.187
338.394
336.63
334.894
333.186
331.506
329.854
328.229
326.631
325.061
323.517
321.999
320.508
319.043
317.604
316.191
314.803
313.441
312.104
310.793
309.506
308.244
307.008
305.796
304.609
303.446
302.308
301.194
300.105
299.041
298.001
296.985
295.993
295.026
294.083
293.165
292.27
291.4
290.555
289.733
288.936
288.163
287.414
286.69
285.99
285.315
284.663
284.036
283.434
282.855
282.302
281.772
281.267
280.787
280.331
279.899
279.492
279.11
278.752
278.418
278.109
277.825
277.565
277.33
277.119
276.933
276.772
276.635
276.523
276.436
276.373
276.334
276.321
398.787
396.363
393.942
391.528
389.122
386.726
384.343
381.975
379.624
377.291
374.978
372.686
370.417
368.172
365.952
363.758
361.591
359.45
357.337
355.252
353.195
351.167
349.168
347.197
345.255
343.341
341.456
339.6
337.772
335.972
334.201
332.457
330.741
329.052
327.391
325.757
324.151
322.571
321.017
319.49
317.99
316.515
315.067
313.644
312.248
310.877
309.531
308.211
306.917
305.647
304.404
303.185
301.991
300.822
299.679
298.56
297.467
296.398
295.355
294.336
293.342
292.373
291.429
290.51
289.615
288.746
287.901
287.082
286.287
285.517
284.772
284.053
283.358
282.688
282.043
281.423
280.829
280.259
279.715
279.195
278.701
278.232
277.788
277.369
276.976
276.607
276.264
275.947
275.654
275.387
275.145
274.928
274.737
274.571
274.43
274.315
274.225
274.16
274.121
274.106
398.783
396.348
393.917
391.492
389.075
386.667
384.272
381.89
379.524
377.175
374.845
372.535
370.246
367.981
365.738
363.521
361.329
359.162
357.022
354.91
352.824
350.766
348.736
346.733
344.759
342.813
340.894
339.004
337.142
335.308
333.501
331.722
329.971
328.247
326.551
324.881
323.239
321.624
320.035
318.473
316.937
315.428
313.945
312.489
311.058
309.654
308.275
306.922
305.596
304.294
303.019
301.769
300.545
299.346
298.173
297.025
295.903
294.807
293.736
292.69
291.67
290.675
289.706
288.762
287.844
286.951
286.084
285.242
284.426
283.635
282.87
282.131
281.417
280.729
280.067
279.43
278.819
278.234
277.674
277.141
276.633
276.151
275.695
275.264
274.86
274.481
274.129
273.802
273.502
273.227
272.978
272.756
272.559
272.388
272.244
272.125
272.033
271.966
271.926
271.911
398.777
396.331
393.889
391.451
389.022
386.601
384.191
381.795
379.413
377.047
374.699
372.371
370.062
367.775
365.511
363.27
361.053
358.861
356.695
354.554
352.44
350.353
348.292
346.259
344.253
342.275
340.324
338.401
336.505
334.637
332.796
330.983
329.197
327.439
325.708
324.004
322.326
320.676
319.053
317.457
315.887
314.344
312.827
311.337
309.873
308.436
307.025
305.64
304.281
302.949
301.642
300.362
299.108
297.879
296.677
295.501
294.351
293.227
292.129
291.056
290.01
288.99
287.996
287.028
286.086
285.17
284.281
283.417
282.58
281.769
280.984
280.225
279.493
278.787
278.107
277.453
276.826
276.226
275.651
275.104
274.582
274.088
273.619
273.178
272.763
272.374
272.012
271.677
271.368
271.086
270.831
270.603
270.401
270.226
270.077
269.955
269.86
269.792
269.751
269.736
398.77
396.312
393.857
391.406
388.963
386.528
384.103
381.691
379.293
376.909
374.543
372.195
369.866
367.558
365.271
363.007
360.766
358.548
356.355
354.188
352.046
349.929
347.839
345.776
343.739
341.729
339.746
337.791
335.862
333.961
332.087
330.24
328.42
326.628
324.863
323.125
321.414
319.73
318.073
316.443
314.839
313.263
311.713
310.19
308.694
307.224
305.781
304.365
302.975
301.611
300.274
298.964
297.68
296.423
295.192
293.988
292.81
291.659
290.534
289.436
288.364
287.319
286.3
285.309
284.343
283.405
282.493
281.608
280.75
279.918
279.114
278.336
277.585
276.861
276.165
275.495
274.852
274.236
273.647
273.085
272.551
272.044
271.563
271.11
270.685
270.286
269.915
269.571
269.255
268.966
268.704
268.47
268.263
268.083
267.931
267.806
267.708
267.638
267.596
267.58
398.764
396.291
393.822
391.357
388.899
386.448
384.008
381.579
379.164
376.763
374.377
372.009
369.66
367.33
365.021
362.733
360.467
358.225
356.006
353.811
351.641
349.496
347.377
345.284
343.217
341.176
339.162
337.175
335.214
333.28
331.373
329.494
327.641
325.816
324.017
322.246
320.501
318.784
317.094
315.431
313.795
312.185
310.603
309.048
307.52
306.018
304.544
303.096
301.676
300.282
298.915
297.576
296.263
294.977
293.718
292.486
291.281
290.103
288.952
287.828
286.731
285.661
284.619
283.604
282.616
281.655
280.721
279.815
278.936
278.085
277.261
276.464
275.695
274.954
274.24
273.554
272.895
272.265
271.661
271.086
270.538
270.019
269.527
269.063
268.627
268.218
267.838
267.486
267.162
266.865
266.597
266.357
266.145
265.961
265.805
265.677
265.577
265.505
265.462
265.446
398.756
396.269
393.784
391.304
388.83
386.364
383.907
381.461
379.027
376.607
374.203
371.815
369.444
367.093
364.761
362.449
360.159
357.891
355.647
353.425
351.228
349.055
346.907
344.785
342.688
340.617
338.572
336.553
334.561
332.596
330.657
328.745
326.86
325.002
323.171
321.367
319.59
317.84
316.118
314.422
312.754
311.112
309.498
307.911
306.352
304.819
303.314
301.836
300.385
298.962
297.566
296.197
294.856
293.542
292.255
290.996
289.764
288.56
287.383
286.234
285.112
284.018
282.952
281.914
280.903
279.92
278.965
278.038
277.139
276.268
275.425
274.61
273.823
273.065
272.334
271.632
270.958
270.312
269.695
269.106
268.546
268.014
267.51
267.035
266.589
266.171
265.782
265.421
265.089
264.786
264.511
264.265
264.048
263.86
263.7
263.569
263.467
263.394
263.349
263.333
398.748
396.245
393.745
391.248
388.758
386.274
383.8
381.336
378.884
376.445
374.021
371.612
369.221
366.847
364.492
362.157
359.843