/*--------------------------------*- C++ -*----------------------------------*\
| =========                 |                                                 |
| \\      /  F ield         | OpenFOAM: The Open Source CFD Toolbox           |
|  \\    /   O peration     | Version:  2406                                  |
|   \\  /    A nd           | Website:  www.openfoam.com                      |
|    \\/     M anipulation  |                                                 |
\*---------------------------------------------------------------------------*/
FoamFile
{
    version     2.0;
    format      ascii;
    arch        "LSB;label=32;scalar=64";
    class       volScalarField;
    location    "0.75";
    object      p;
}
// * * * * * * * * * * * * * * * * * * * * * * * * * * * * * * * * * * * * * //

dimensions      [0 2 -2 0 0 0 0];

internalField   nonuniform List<scalar> 
34560
(
-40.133946
-40.122426
-40.108106
-40.091876
-40.074104
-40.057544
-40.045317
-40.038362
-40.035368
-40.205352
-40.191982
-40.174782
-40.154203
-40.130695
-40.107811
-40.089505
-40.077436
-40.070922
-40.265711
-40.251016
-40.232042
-40.209043
-40.182137
-40.154941
-40.131766
-40.114718
-40.103502
-40.322408
-40.306534
-40.28587
-40.260473
-40.23032
-40.199103
-40.171296
-40.149047
-40.132476
-40.37462
-40.357733
-40.335617
-40.308099
-40.274979
-40.23999
-40.20763
-40.180169
-40.158297
-40.419891
-40.402454
-40.379448
-40.3504
-40.314898
-40.276646
-40.240104
-40.20778
-40.181057
-40.459458
-40.441532
-40.417741
-40.387346
-40.349759
-40.308602
-40.268306
-40.231657
-40.200645
-40.492622
-40.474344
-40.449966
-40.418495
-40.379173
-40.335503
-40.291957
-40.251643
-40.216991
-40.519239
-40.500721
-40.475913
-40.443605
-40.402875
-40.357122
-40.31089
-40.267625
-40.230043
-40.539009
-40.520374
-40.495307
-40.462414
-40.420636
-40.373282
-40.324991
-40.279523
-40.239755
-40.55208
-40.53337
-40.508139
-40.474866
-40.432386
-40.383948
-40.334265
-40.287347
-40.246137
-40.558752
-40.539985
-40.514641
-40.481134
-40.438252
-40.38922
-40.3388
-40.291137
-40.249193
-40.558753
-40.539986
-40.514642
-40.481135
-40.438253
-40.38922
-40.3388
-40.291137
-40.249193
-40.552082
-40.533372
-40.508141
-40.474868
-40.432388
-40.383949
-40.334265
-40.287348
-40.246137
-40.539012
-40.520377
-40.49531
-40.462417
-40.420638
-40.373284
-40.324992
-40.279524
-40.239756
-40.519242
-40.500725
-40.475917
-40.443608
-40.402878
-40.357125
-40.310893
-40.267627
-40.230045
-40.492625
-40.474347
-40.449969
-40.418499
-40.379177
-40.335508
-40.291962
-40.251647
-40.216994
-40.459461
-40.441536
-40.417746
-40.387351
-40.349765
-40.308608
-40.268312
-40.231663
-40.200649
-40.419897
-40.40246
-40.379454
-40.350405
-40.314904
-40.276652
-40.240111
-40.207786
-40.181063
-40.374626
-40.357739
-40.335623
-40.308105
-40.274986
-40.239997
-40.207637
-40.180177
-40.158305
-40.322414
-40.306541
-40.285877
-40.260479
-40.230326
-40.19911
-40.171304
-40.149055
-40.132486
-40.265719
-40.251024
-40.23205
-40.20905
-40.182144
-40.154948
-40.131774
-40.114728
-40.103514
-40.20536
-40.19199
-40.174789
-40.154211
-40.130702
-40.107818
-40.089514
-40.077448
-40.070938
-40.133955
-40.122435
-40.108115
-40.091885
-40.074112
-40.057553
-40.045328
-40.038376
-40.035386
-37.356266
-37.356018
-37.355723
-37.355453
-37.355042
-37.3542
-37.352708
-37.350426
-37.347602
-37.361207
-37.360926
-37.360555
-37.360112
-37.359353
-37.357916
-37.355498
-37.351986
-37.347651
-37.365139
-37.364854
-37.364472
-37.363987
-37.363057
-37.361182
-37.35794
-37.353289
-37.347556
-37.368642
-37.368365
-37.367971
-37.367419
-37.366278
-37.363921
-37.359841
-37.354035
-37.346827
-37.37155
-37.371289
-37.370895
-37.370286
-37.368928
-37.366071
-37.361166
-37.354228
-37.345624
-37.373741
-37.373517
-37.373149
-37.372507
-37.370955
-37.367631
-37.361995
-37.354013
-37.344165
-37.375387
-37.375191
-37.37484
-37.374158
-37.372425
-37.368744
-37.362442
-37.353506
-37.342611
-37.376564
-37.376393
-37.376059
-37.375352
-37.373497
-37.369536
-37.362588
-37.352848
-37.341119
-37.377387
-37.377234
-37.376914
-37.376196
-37.374271
-37.370047
-37.362623
-37.352213
-37.339818
-37.377944
-37.377807
-37.377501
-37.376785
-37.374818
-37.370393
-37.362648
-37.351681
-37.338794
-37.378264
-37.378133
-37.377839
-37.377132
-37.375145
-37.370606
-37.362648
-37.351314
-37.338109
-37.378445
-37.378315
-37.378025
-37.377327
-37.375336
-37.37075
-37.362685
-37.351168
-37.337798
-37.378446
-37.378316
-37.378026
-37.377327
-37.375336
-37.370751
-37.362685
-37.351169
-37.337798
-37.378266
-37.378135
-37.37784
-37.377133
-37.375146
-37.370607
-37.362649
-37.351315
-37.33811
-37.377946
-37.377809
-37.377503
-37.376787
-37.37482
-37.370395
-37.36265
-37.351682
-37.338796
-37.377389
-37.377237
-37.376917
-37.376199
-37.374273
-37.370049
-37.362626
-37.352215
-37.33982
-37.376567
-37.376396
-37.376062
-37.375356
-37.3735
-37.369539
-37.362591
-37.352851
-37.341122
-37.37539
-37.375195
-37.374844
-37.374162
-37.372429
-37.368748
-37.362446
-37.35351
-37.342615
-37.373745
-37.373521
-37.373154
-37.372511
-37.37096
-37.367636
-37.362
-37.354018
-37.344169
-37.371555
-37.371294
-37.3709
-37.370291
-37.368933
-37.366077
-37.361172
-37.354234
-37.345628
-37.368647
-37.368371
-37.367977
-37.367426
-37.366285
-37.363928
-37.359848
-37.354041
-37.346833
-37.365145
-37.364861
-37.364479
-37.363995
-37.363065
-37.36119
-37.357948
-37.353296
-37.347562
-37.361215
-37.360935
-37.360564
-37.360121
-37.359362
-37.357925
-37.355507
-37.351994
-37.347658
-37.356275
-37.356027
-37.355732
-37.355462
-37.355051
-37.35421
-37.352718
-37.350436
-37.347611
-36.280235
-36.279985
-36.279644
-36.279166
-36.278699
-36.278599
-36.27923
-36.280481
-36.281177
-36.286155
-36.285861
-36.285385
-36.284613
-36.283702
-36.283054
-36.283029
-36.283544
-36.283768
-36.291389
-36.29107
-36.290533
-36.289628
-36.288497
-36.287563
-36.287198
-36.287318
-36.287381
-36.296288
-36.295941
-36.295345
-36.29432
-36.293004
-36.291848
-36.29122
-36.291028
-36.29092
-36.300776
-36.300411
-36.29977
-36.298643
-36.297168
-36.29581
-36.29491
-36.294421
-36.294159
-36.304755
-36.304393
-36.303735
-36.302546
-36.300956
-36.299433
-36.298242
-36.297486
-36.297111
-36.308263
-36.307899
-36.307225
-36.305984
-36.304296
-36.30256
-36.301133
-36.300177
-36.299731
-36.311212
-36.31085
-36.310165
-36.30888
-36.307081
-36.305143
-36.303596
-36.302475
-36.301964
-36.313572
-36.313216
-36.312526
-36.311201
-36.309293
-36.307232
-36.305544
-36.30431
-36.303769
-36.315316
-36.314968
-36.314275
-36.312915
-36.310922
-36.308781
-36.30696
-36.305688
-36.30513
-36.316483
-36.316141
-36.315445
-36.314062
-36.312019
-36.309818
-36.307917
-36.306611
-36.306037
-36.317073
-36.316732
-36.316034
-36.314638
-36.31257
-36.310336
-36.308395
-36.307068
-36.306486
-36.317073
-36.316732
-36.316034
-36.314638
-36.31257
-36.310336
-36.308396
-36.307068
-36.306486
-36.316484
-36.316141
-36.315446
-36.314062
-36.312019
-36.309818
-36.307917
-36.306611
-36.306038
-36.315317
-36.314969
-36.314276
-36.312916
-36.310923
-36.308782
-36.306962
-36.305689
-36.305131
-36.313573
-36.313217
-36.312527
-36.311202
-36.309294
-36.307234
-36.305546
-36.304311
-36.303771
-36.311214
-36.310853
-36.310168
-36.308882
-36.307084
-36.305146
-36.303599
-36.302477
-36.301966
-36.308266
-36.307902
-36.307227
-36.305987
-36.304299
-36.302563
-36.301136
-36.300179
-36.299733
-36.304759
-36.304396
-36.303739
-36.302549
-36.30096
-36.299437
-36.298245
-36.29749
-36.297113
-36.30078
-36.300415
-36.299774
-36.298647
-36.297172
-36.295813
-36.294913
-36.294425
-36.294162
-36.296292
-36.295945
-36.295349
-36.294324
-36.293008
-36.291852
-36.291224
-36.291032
-36.290922
-36.291394
-36.291074
-36.290537
-36.289633
-36.288502
-36.287568
-36.287202
-36.287322
-36.287384
-36.28616
-36.285866
-36.285389
-36.284618
-36.283706
-36.283058
-36.283033
-36.283547
-36.28377
-36.280239
-36.27999
-36.279649
-36.279171
-36.278704
-36.278603
-36.279234
-36.280484
-36.281178
-34.28743
-34.287338
-34.287251
-34.287234
-34.287262
-34.287224
-34.287009
-34.286402
-34.285228
-34.289208
-34.289078
-34.288934
-34.288826
-34.288701
-34.288407
-34.287781
-34.286647
-34.284896
-34.290961
-34.290793
-34.290604
-34.290449
-34.290259
-34.289851
-34.289025
-34.287607
-34.285569
-34.292723
-34.292516
-34.292279
-34.292071
-34.291815
-34.291315
-34.290338
-34.288678
-34.286308
-34.294387
-34.294148
-34.293868
-34.293608
-34.293283
-34.29269
-34.291563
-34.289655
-34.286968
-34.295862
-34.295603
-34.295294
-34.294992
-34.294605
-34.293946
-34.292694
-34.290541
-34.287551
-34.297167
-34.296889
-34.29655
-34.296211
-34.29579
-34.295081
-34.293696
-34.291317
-34.288064
-34.298285
-34.297991
-34.297629
-34.297263
-34.296826
-34.296063
-34.294557
-34.29199
-34.288523
-34.299197
-34.298891
-34.298512
-34.298139
-34.297681
-34.296858
-34.295261
-34.292553
-34.288919
-34.299899
-34.299584
-34.299195
-34.298815
-34.298328
-34.297458
-34.295798
-34.292991
-34.289236
-34.30037
-34.300049
-34.299653
-34.299265
-34.298757
-34.297857
-34.296159
-34.293292
-34.289458
-34.300613
-34.300288
-34.299887
-34.299494
-34.298974
-34.298059
-34.296343
-34.293449
-34.289575
-34.300613
-34.300288
-34.299887
-34.299494
-34.298974
-34.298059
-34.296343
-34.293449
-34.289575
-34.300371
-34.300049
-34.299653
-34.299266
-34.298757
-34.297858
-34.296159
-34.293293
-34.289458
-34.2999
-34.299585
-34.299196
-34.298815
-34.298328
-34.297458
-34.295798
-34.292992
-34.289236
-34.299198
-34.298891
-34.298512
-34.29814
-34.297682
-34.296859
-34.295262
-34.292553
-34.288919
-34.298286
-34.297992
-34.297629
-34.297264
-34.296827
-34.296064
-34.294558
-34.291991
-34.288523
-34.297168
-34.29689
-34.296551
-34.296212
-34.295791
-34.295082
-34.293696
-34.291318
-34.288065
-34.295862
-34.295604
-34.295294
-34.294993
-34.294606
-34.293946
-34.292695
-34.290542
-34.287551
-34.294388
-34.294149
-34.293868
-34.293608
-34.293283
-34.292691
-34.291564
-34.289656
-34.286969
-34.292723
-34.292516
-34.292279
-34.292072
-34.291816
-34.291315
-34.290338
-34.288679
-34.286309
-34.290961
-34.290792
-34.290604
-34.290449
-34.290258
-34.289851
-34.289025
-34.287607
-34.285569
-34.289207
-34.289077
-34.288934
-34.288825
-34.2887
-34.288407
-34.287781
-34.286646
-34.284896
-34.287429
-34.287337
-34.28725
-34.287232
-34.28726
-34.287223
-34.287008
-34.2864
-34.285227
-32.756422
-32.756437
-32.756448
-32.756439
-32.756451
-32.75657
-32.756902
-32.757449
-32.757887
-32.757465
-32.757469
-32.757451
-32.757384
-32.757309
-32.757324
-32.757527
-32.757901
-32.758186
-32.75835
-32.758344
-32.758309
-32.758214
-32.758108
-32.758102
-32.758291
-32.758654
-32.759002
-32.759166
-32.759146
-32.759091
-32.75897
-32.758841
-32.758827
-32.759029
-32.759406
-32.759785
-32.759909
-32.759876
-32.759802
-32.759657
-32.759511
-32.759488
-32.759697
-32.760083
-32.760475
-32.760573
-32.76053
-32.760442
-32.760285
-32.760133
-32.760098
-32.760301
-32.760704
-32.76112
-32.761155
-32.761101
-32.761002
-32.760833
-32.760656
-32.760603
-32.760829
-32.761261
-32.761697
-32.761631
-32.761569
-32.76146
-32.761276
-32.761065
-32.761006
-32.761267
-32.761725
-32.762179
-32.762002
-32.761934
-32.761815
-32.761605
-32.761368
-32.761323
-32.761613
-32.762093
-32.762561
-32.762262
-32.762191
-32.762064
-32.761835
-32.761591
-32.761561
-32.761871
-32.762366
-32.762844
-32.762433
-32.762358
-32.762225
-32.761987
-32.76174
-32.761719
-32.762042
-32.762546
-32.76303
-32.762518
-32.762442
-32.762306
-32.762063
-32.761814
-32.761797
-32.762125
-32.762634
-32.763122
-32.762518
-32.762441
-32.762306
-32.762063
-32.761814
-32.761797
-32.762125
-32.762633
-32.763121
-32.762432
-32.762358
-32.762225
-32.761987
-32.76174
-32.761719
-32.762041
-32.762545
-32.76303
-32.762262
-32.76219
-32.762063
-32.761834
-32.761591
-32.76156
-32.76187
-32.762365
-32.762843
-32.762001
-32.761934
-32.761815
-32.761604
-32.761367
-32.761322
-32.761612
-32.762092
-32.76256
-32.761629
-32.761568
-32.761459
-32.761275
-32.761064
-32.761004
-32.761266
-32.761724
-32.762178
-32.761153
-32.761099
-32.761
-32.760831
-32.760655
-32.760601
-32.760828
-32.761259
-32.761695
-32.760571
-32.760527
-32.76044
-32.760283
-32.760131
-32.760096
-32.760299
-32.760703
-32.761118
-32.759907
-32.759874
-32.759799
-32.759655
-32.759508
-32.759485
-32.759695
-32.760081
-32.760473
-32.759163
-32.759143
-32.759088
-32.758967
-32.758838
-32.758824
-32.759027
-32.759403
-32.759782
-32.758347
-32.758341
-32.758305
-32.758211
-32.758105
-32.758098
-32.758287
-32.758651
-32.759
-32.757461
-32.757465
-32.757447
-32.757379
-32.757305
-32.75732
-32.757523
-32.757897
-32.758183
-32.756417
-32.756432
-32.756443
-32.756434
-32.756446
-32.756565
-32.756898
-32.757445
-32.757884
-31.01874
-31.018731
-31.018732
-31.018759
-31.018803
-31.018839
-31.018843
-31.018772
-31.018534
-31.019287
-31.019271
-31.01926
-31.019264
-31.01927
-31.019242
-31.019137
-31.018908
-31.018504
-31.019833
-31.019808
-31.019788
-31.019784
-31.019777
-31.019727
-31.019581
-31.019291
-31.018837
-31.020403
-31.020369
-31.020338
-31.020323
-31.020305
-31.02024
-31.020068
-31.019735
-31.019221
-31.020959
-31.020918
-31.020877
-31.020851
-31.020823
-31.020742
-31.020545
-31.020168
-31.019594
-31.021464
-31.021418
-31.021372
-31.021341
-31.021304
-31.021211
-31.020995
-31.020584
-31.019955
-31.021918
-31.021868
-31.021817
-31.02178
-31.021736
-31.021636
-31.02141
-31.020969
-31.020294
-31.022309
-31.022256
-31.022201
-31.022159
-31.022111
-31.02201
-31.021777
-31.021313
-31.020599
-31.022631
-31.022576
-31.022518
-31.022473
-31.022423
-31.022324
-31.022087
-31.021604
-31.020857
-31.022877
-31.022821
-31.022761
-31.022714
-31.022665
-31.022567
-31.022328
-31.021831
-31.02106
-31.023043
-31.022986
-31.022925
-31.022877
-31.022829
-31.022733
-31.022493
-31.021986
-31.021199
-31.023129
-31.023071
-31.023009
-31.02296
-31.022912
-31.022817
-31.022576
-31.022065
-31.02127
-31.023128
-31.02307
-31.023008
-31.02296
-31.022911
-31.022817
-31.022576
-31.022065
-31.02127
-31.023042
-31.022985
-31.022924
-31.022876
-31.022828
-31.022732
-31.022492
-31.021985
-31.021198
-31.022875
-31.022819
-31.022759
-31.022712
-31.022663
-31.022565
-31.022326
-31.021829
-31.021058
-31.022629
-31.022574
-31.022515
-31.022471
-31.022421
-31.022321
-31.022084
-31.021601
-31.020855
-31.022306
-31.022253
-31.022198
-31.022156
-31.022108
-31.022007
-31.021774
-31.02131
-31.020595
-31.021914
-31.021864
-31.021813
-31.021776
-31.021732
-31.021632
-31.021406
-31.020965
-31.02029
-31.021459
-31.021413
-31.021367
-31.021336
-31.021299
-31.021206
-31.02099
-31.020579
-31.019951
-31.020954
-31.020912
-31.020871
-31.020845
-31.020817
-31.020736
-31.020539
-31.020163
-31.019589
-31.020396
-31.020363
-31.020331
-31.020316
-31.020298
-31.020233
-31.020062
-31.019729
-31.019215
-31.019825
-31.019801
-31.01978
-31.019776
-31.01977
-31.019719
-31.019574
-31.019283
-31.01883
-31.019278
-31.019262
-31.019251
-31.019256
-31.019262
-31.019234
-31.019128
-31.018899
-31.018496
-31.01873
-31.018722
-31.018723
-31.018749
-31.018794
-31.01883
-31.018834
-31.018763
-31.018525
-29.358684
-29.358693
-29.358703
-29.358709
-29.358716
-29.358729
-29.358763
-29.358834
-29.358867
-29.358927
-29.358934
-29.358937
-29.358932
-29.358918
-29.358905
-29.358903
-29.358915
-29.358895
-29.359123
-29.359128
-29.359128
-29.359117
-29.359099
-29.35908
-29.359073
-29.35908
-29.359074
-29.359308
-29.35931
-29.359306
-29.359289
-29.359265
-29.359244
-29.359242
-29.359256
-29.359257
-29.359475
-29.359474
-29.359466
-29.359443
-29.359414
-29.359393
-29.359397
-29.359416
-29.359422
-29.359621
-29.359618
-29.359607
-29.359582
-29.359551
-29.359532
-29.35954
-29.359562
-29.359572
-29.359753
-29.359748
-29.359734
-29.359705
-29.359672
-29.359656
-29.359669
-29.359693
-29.359705
-29.359864
-29.359858
-29.359841
-29.359811
-29.359777
-29.359762
-29.359779
-29.359806
-29.359819
-29.359955
-29.359947
-29.359929
-29.359897
-29.359862
-29.359849
-29.359869
-29.359899
-29.359912
-29.360023
-29.360014
-29.359995
-29.359961
-29.359927
-29.359915
-29.359937
-29.359969
-29.359983
-29.360068
-29.360058
-29.360038
-29.360004
-29.35997
-29.359961
-29.359984
-29.360017
-29.360031
-29.360091
-29.360081
-29.36006
-29.360026
-29.359992
-29.359983
-29.360007
-29.36004
-29.360054
-29.360091
-29.360081
-29.36006
-29.360025
-29.359992
-29.359983
-29.360007
-29.36004
-29.360054
-29.360067
-29.360057
-29.360037
-29.360003
-29.359969
-29.359959
-29.359982
-29.360015
-29.360029
-29.360021
-29.360011
-29.359992
-29.359959
-29.359924
-29.359913
-29.359935
-29.359966
-29.359981
-29.359951
-29.359943
-29.359925
-29.359893
-29.359858
-29.359845
-29.359865
-29.359895
-29.359908
-29.359859
-29.359852
-29.359836
-29.359805
-29.359771
-29.359757
-29.359773
-29.359801
-29.359814
-29.359746
-29.359741
-29.359727
-29.359699
-29.359665
-29.359649
-29.359662
-29.359687
-29.359699
-29.359614
-29.359611
-29.3596
-29.359574
-29.359543
-29.359524
-29.359533
-29.359555
-29.359565
-29.359466
-29.359465
-29.359457
-29.359434
-29.359405
-29.359384
-29.359388
-29.359407
-29.359414
-29.359298
-29.3593
-29.359295
-29.359279
-29.359254
-29.359233
-29.359232
-29.359246
-29.359248
-29.359112
-29.359116
-29.359116
-29.359106
-29.359087
-29.359068
-29.359062
-29.359069
-29.359063
-29.358914
-29.35892
-29.358924
-29.358918
-29.358905
-29.358892
-29.35889
-29.358902
-29.358883
-29.35867
-29.358679
-29.358688
-29.358695
-29.358701
-29.358715
-29.358749
-29.35882
-29.358853
-27.676745
-27.676746
-27.676749
-27.676757
-27.676768
-27.67678
-27.676791
-27.676802
-27.676786
-27.67689
-27.67689
-27.676891
-27.676893
-27.676896
-27.676895
-27.676885
-27.67686
-27.676813
-27.677023
-27.677022
-27.677021
-27.677022
-27.677023
-27.677018
-27.677003
-27.67697
-27.676918
-27.677159
-27.677156
-27.677154
-27.677153
-27.677152
-27.677145
-27.677127
-27.677092
-27.677032
-27.67729
-27.677286
-27.677282
-27.677279
-27.677276
-27.677267
-27.677247
-27.677208
-27.677143
-27.677408
-27.677403
-27.677399
-27.677395
-27.677392
-27.677382
-27.677361
-27.677319
-27.677248
-27.677516
-27.67751
-27.677505
-27.677501
-27.677498
-27.677487
-27.677465
-27.677421
-27.677345
-27.677608
-27.677602
-27.677597
-27.677592
-27.677588
-27.677578
-27.677556
-27.677511
-27.67743
-27.677683
-27.677678
-27.677672
-27.677667
-27.677663
-27.677654
-27.677633
-27.677586
-27.677502
-27.677741
-27.677735
-27.677729
-27.677725
-27.677721
-27.677712
-27.677692
-27.677644
-27.677557
-27.67778
-27.677774
-27.677769
-27.677764
-27.67776
-27.677751
-27.677732
-27.677684
-27.677595
-27.6778
-27.677794
-27.677788
-27.677784
-27.677779
-27.67777
-27.677752
-27.677703
-27.677613
-27.677799
-27.677793
-27.677788
-27.677783
-27.677778
-27.67777
-27.677751
-27.677702
-27.677613
-27.677778
-27.677772
-27.677767
-27.677762
-27.677757
-27.677749
-27.67773
-27.677682
-27.677593
-27.677737
-27.677732
-27.677726
-27.677721
-27.677717
-27.677709
-27.677689
-27.677641
-27.677554
-27.677678
-27.677673
-27.677667
-27.677662
-27.677658
-27.677649
-27.677628
-27.677581
-27.677497
-27.677601
-27.677596
-27.67759
-27.677586
-27.677582
-27.677572
-27.67755
-27.677505
-27.677424
-27.677508
-27.677502
-27.677497
-27.677493
-27.677489
-27.677479
-27.677457
-27.677414
-27.677338
-27.677398
-27.677394
-27.677389
-27.677386
-27.677382
-27.677372
-27.677351
-27.67731
-27.677239
-27.677278
-27.677274
-27.67727
-27.677267
-27.677264
-27.677256
-27.677236
-27.677197
-27.677132
-27.677146
-27.677143
-27.677141
-27.67714
-27.677138
-27.677132
-27.677114
-27.677079
-27.67702
-27.677008
-27.677006
-27.677006
-27.677007
-27.677008
-27.677003
-27.676988
-27.676956
-27.676904
-27.676873
-27.676873
-27.676874
-27.676876
-27.676879
-27.676878
-27.676868
-27.676844
-27.676798
-27.676726
-27.676727
-27.67673
-27.676738
-27.676749
-27.676761
-27.676772
-27.676784
-27.676769
-25.999125
-25.999127
-25.999128
-25.99913
-25.999132
-25.999133
-25.999134
-25.999138
-25.999135
-25.999183
-25.999184
-25.999184
-25.999184
-25.999182
-25.999177
-25.999171
-25.999162
-25.999143
-25.999229
-25.99923
-25.99923
-25.999229
-25.999226
-25.99922
-25.999212
-25.999201
-25.999182
-25.999277
-25.999277
-25.999276
-25.999274
-25.99927
-25.999263
-25.999255
-25.999244
-25.999225
-25.999322
-25.999322
-25.999321
-25.999318
-25.999313
-25.999306
-25.999297
-25.999285
-25.999265
-25.999363
-25.999362
-25.999361
-25.999358
-25.999353
-25.999346
-25.999337
-25.999324
-25.999303
-25.9994
-25.999399
-25.999397
-25.999394
-25.999389
-25.999382
-25.999374
-25.99936
-25.999339
-25.999432
-25.999431
-25.999429
-25.999425
-25.99942
-25.999414
-25.999405
-25.999392
-25.999369
-25.999457
-25.999456
-25.999454
-25.999451
-25.999446
-25.999439
-25.999432
-25.999418
-25.999395
-25.999476
-25.999475
-25.999473
-25.99947
-25.999465
-25.999459
-25.999452
-25.999438
-25.999415
-25.999489
-25.999488
-25.999486
-25.999482
-25.999478
-25.999472
-25.999465
-25.999452
-25.999428
-25.999495
-25.999494
-25.999492
-25.999488
-25.999483
-25.999478
-25.999472
-25.999458
-25.999434
-25.999495
-25.999493
-25.999491
-25.999487
-25.999483
-25.999478
-25.999471
-25.999457
-25.999434
-25.999487
-25.999486
-25.999483
-25.99948
-25.999475
-25.99947
-25.999463
-25.999449
-25.999426
-25.999473
-25.999471
-25.999469
-25.999466
-25.999461
-25.999455
-25.999448
-25.999434
-25.999411
-25.999452
-25.999451
-25.999448
-25.999445
-25.99944
-25.999434
-25.999426
-25.999413
-25.99939
-25.999424
-25.999423
-25.999421
-25.999418
-25.999413
-25.999406
-25.999398
-25.999385
-25.999363
-25.999391
-25.99939
-25.999388
-25.999385
-25.99938
-25.999373
-25.999364
-25.999351
-25.99933
-25.999352
-25.999351
-25.99935
-25.999346
-25.999341
-25.999335
-25.999326
-25.999314
-25.999294
-25.999309
-25.999309
-25.999307
-25.999304
-25.999299
-25.999292
-25.999284
-25.999272
-25.999253
-25.999261
-25.999261
-25.999261
-25.999258
-25.999254
-25.999248
-25.99924
-25.999229
-25.999211
-25.999212
-25.999212
-25.999212
-25.999211
-25.999208
-25.999202
-25.999195
-25.999185
-25.999167
-25.999163
-25.999164
-25.999164
-25.999164
-25.999161
-25.999157
-25.999151
-25.999143
-25.999126
-25.999103
-25.999104
-25.999106
-25.999108
-25.99911
-25.999111
-25.999113
-25.999117
-25.999115
-24.322138
-24.322139
-24.32214
-24.322141
-24.322142
-24.322144
-24.322147
-24.322151
-24.322152
-24.322163
-24.322164
-24.322164
-24.322165
-24.322165
-24.322164
-24.322164
-24.322162
-24.322157
-24.322183
-24.322183
-24.322184
-24.322184
-24.322184
-24.322183
-24.322182
-24.322179
-24.322175
-24.322203
-24.322204
-24.322204
-24.322204
-24.322203
-24.322202
-24.322201
-24.322198
-24.322194
-24.322223
-24.322223
-24.322223
-24.322223
-24.322222
-24.322221
-24.322219
-24.322217
-24.322213
-24.32224
-24.32224
-24.32224
-24.32224
-24.322239
-24.322238
-24.322237
-24.322235
-24.32223
-24.322256
-24.322256
-24.322256
-24.322255
-24.322255
-24.322254
-24.322254
-24.322252
-24.322247
-24.32227
-24.32227
-24.32227
-24.322269
-24.322268
-24.322268
-24.322268
-24.322266
-24.322261
-24.322281
-24.322281
-24.322281
-24.32228
-24.32228
-24.32228
-24.32228
-24.322279
-24.322273
-24.322289
-24.322289
-24.322289
-24.322289
-24.322288
-24.322289
-24.322289
-24.322288
-24.322283
-24.322295
-24.322295
-24.322295
-24.322294
-24.322294
-24.322295
-24.322295
-24.322294
-24.322289
-24.322297
-24.322297
-24.322297
-24.322297
-24.322297
-24.322297
-24.322298
-24.322297
-24.322291
-24.322297
-24.322297
-24.322296
-24.322296
-24.322296
-24.322296
-24.322297
-24.322296
-24.322291
-24.322292
-24.322292
-24.322292
-24.322292
-24.322291
-24.322292
-24.322293
-24.322292
-24.322286
-24.322285
-24.322285
-24.322285
-24.322285
-24.322284
-24.322284
-24.322285
-24.322284
-24.322279
-24.322275
-24.322275
-24.322275
-24.322274
-24.322274
-24.322274
-24.322274
-24.322273
-24.322268
-24.322262
-24.322262
-24.322262
-24.322261
-24.32226
-24.32226
-24.32226
-24.322259
-24.322255
-24.322246
-24.322246
-24.322246
-24.322246
-24.322245
-24.322244
-24.322244
-24.322243
-24.322238
-24.322228
-24.322228
-24.322228
-24.322228
-24.322227
-24.322226
-24.322226
-24.322224
-24.32222
-24.322209
-24.322209
-24.322209
-24.322208
-24.322207
-24.322206
-24.322206
-24.322204
-24.3222
-24.322187
-24.322187
-24.322187
-24.322187
-24.322186
-24.322185
-24.322185
-24.322183
-24.322179
-24.322164
-24.322165
-24.322165
-24.322165
-24.322165
-24.322164
-24.322163
-24.322162
-24.322158
-24.322142
-24.322142
-24.322143
-24.322143
-24.322143
-24.322143
-24.322143
-24.322142
-24.322138
-24.322115
-24.322115
-24.322116
-24.322117
-24.322119
-24.322121
-24.322124
-24.322128
-24.32213
-22.644364
-22.644364
-22.644365
-22.644365
-22.644365
-22.644365
-22.644365
-22.644365
-22.644363
-22.644375
-22.644375
-22.644375
-22.644375
-22.644375
-22.644374
-22.644372
-22.644369
-22.644365
-22.644383
-22.644383
-22.644383
-22.644383
-22.644383
-22.644382
-22.644379
-22.644376
-22.644371
-22.644391
-22.644391
-22.644391
-22.644391
-22.644391
-22.64439
-22.644387
-22.644384
-22.644378
-22.6444
-22.6444
-22.6444
-22.644399
-22.644399
-22.644398
-22.644395
-22.644391
-22.644386
-22.644407
-22.644407
-22.644407
-22.644407
-22.644407
-22.644405
-22.644403
-22.644399
-22.644393
-22.644414
-22.644414
-22.644414
-22.644414
-22.644413
-22.644412
-22.64441
-22.644405
-22.644399
-22.64442
-22.64442
-22.64442
-22.64442
-22.644419
-22.644418
-22.644416
-22.644411
-22.644405
-22.644424
-22.644424
-22.644424
-22.644424
-22.644424
-22.644423
-22.64442
-22.644416
-22.64441
-22.644428
-22.644428
-22.644428
-22.644428
-22.644427
-22.644426
-22.644424
-22.64442
-22.644413
-22.64443
-22.64443
-22.64443
-22.64443
-22.644429
-22.644428
-22.644426
-22.644422
-22.644416
-22.64443
-22.64443
-22.64443
-22.64443
-22.64443
-22.644429
-22.644427
-22.644423
-22.644416
-22.644429
-22.644429
-22.644429
-22.644429
-22.644429
-22.644428
-22.644426
-22.644422
-22.644416
-22.644427
-22.644427
-22.644427
-22.644427
-22.644427
-22.644426
-22.644423
-22.64442
-22.644413
-22.644424
-22.644424
-22.644424
-22.644423
-22.644423
-22.644422
-22.64442
-22.644416
-22.64441
-22.644419
-22.644419
-22.644419
-22.644418
-22.644418
-22.644417
-22.644415
-22.644411
-22.644405
-22.644412
-22.644412
-22.644412
-22.644412
-22.644411
-22.64441
-22.644408
-22.644404
-22.644398
-22.644405
-22.644404
-22.644404
-22.644404
-22.644404
-22.644402
-22.6444
-22.644396
-22.644391
-22.644396
-22.644396
-22.644395
-22.644395
-22.644395
-22.644393
-22.644391
-22.644388
-22.644382
-22.644386
-22.644386
-22.644386
-22.644385
-22.644385
-22.644384
-22.644381
-22.644378
-22.644373
-22.644375
-22.644375
-22.644375
-22.644375
-22.644374
-22.644373
-22.644371
-22.644368
-22.644364
-22.644364
-22.644364
-22.644364
-22.644364
-22.644364
-22.644363
-22.644361
-22.644358
-22.644355
-22.644354
-22.644354
-22.644354
-22.644354
-22.644353
-22.644353
-22.644351
-22.644349
-22.644346
-22.644341
-22.644341
-22.644341
-22.644342
-22.644342
-22.644342
-22.644342
-22.644342
-22.644341
-20.967083
-20.967083
-20.967083
-20.967083
-20.967084
-20.967083
-20.967083
-20.967084
-20.967084
-20.967086
-20.967086
-20.967087
-20.967087
-20.967086
-20.967086
-20.967086
-20.967085
-20.967084
-20.967088
-20.967089
-20.967089
-20.967089
-20.967089
-20.967088
-20.967088
-20.967087
-20.967086
-20.967091
-20.967091
-20.967091
-20.967091
-20.967091
-20.96709
-20.96709
-20.96709
-20.967089
-20.967093
-20.967093
-20.967093
-20.967093
-20.967093
-20.967093
-20.967092
-20.967092
-20.967091
-20.967094
-20.967095
-20.967095
-20.967095
-20.967095
-20.967094
-20.967094
-20.967094
-20.967093
-20.967096
-20.967096
-20.967096
-20.967096
-20.967096
-20.967096
-20.967096
-20.967096
-20.967095
-20.967097
-20.967098
-20.967098
-20.967098
-20.967098
-20.967098
-20.967098
-20.967097
-20.967097
-20.967099
-20.967099
-20.967099
-20.967099
-20.967099
-20.967099
-20.967099
-20.967099
-20.967098
-20.967099
-20.967099
-20.9671
-20.9671
-20.9671
-20.9671
-20.967099
-20.967099
-20.967099
-20.967099
-20.9671
-20.9671
-20.9671
-20.9671
-20.9671
-20.9671
-20.9671
-20.967099
-20.967099
-20.967099
-20.9671
-20.9671
-20.9671
-20.9671
-20.9671
-20.9671
-20.967099
-20.967099
-20.967099
-20.967099
-20.967099
-20.967099
-20.967099
-20.967099
-20.967099
-20.967099
-20.967097
-20.967097
-20.967098
-20.967098
-20.967097
-20.967097
-20.967097
-20.967098
-20.967097
-20.967096
-20.967096
-20.967096
-20.967096
-20.967096
-20.967096
-20.967096
-20.967096
-20.967096
-20.967093
-20.967093
-20.967094
-20.967093
-20.967093
-20.967093
-20.967093
-20.967093
-20.967093
-20.967091
-20.967091
-20.967091
-20.967091
-20.967091
-20.96709
-20.96709
-20.967091
-20.96709
-20.967088
-20.967088
-20.967088
-20.967088
-20.967087
-20.967087
-20.967087
-20.967087
-20.967087
-20.967084
-20.967084
-20.967084
-20.967084
-20.967084
-20.967084
-20.967084
-20.967084
-20.967084
-20.96708
-20.96708
-20.96708
-20.96708
-20.96708
-20.96708
-20.96708
-20.96708
-20.96708
-20.967076
-20.967076
-20.967076
-20.967076
-20.967076
-20.967076
-20.967076
-20.967076
-20.967076
-20.967072
-20.967072
-20.967072
-20.967072
-20.967072
-20.967071
-20.967071
-20.967072
-20.967072
-20.967067
-20.967067
-20.967067
-20.967067
-20.967067
-20.967067
-20.967067
-20.967067
-20.967067
-20.967062
-20.967062
-20.967062
-20.967062
-20.967062
-20.967063
-20.967063
-20.967063
-20.967064
-19.289639
-19.289639
-19.289639
-19.289639
-19.289639
-19.289639
-19.289639
-19.289639
-19.289638
-19.289639
-19.289639
-19.289639
-19.28964
-19.28964
-19.289639
-19.289639
-19.289639
-19.289637
-19.28964
-19.28964
-19.28964
-19.28964
-19.28964
-19.28964
-19.289639
-19.289639
-19.289637
-19.28964
-19.28964
-19.28964
-19.28964
-19.28964
-19.28964
-19.289639
-19.289639
-19.289638
-19.28964
-19.28964
-19.28964
-19.289641
-19.289641
-19.28964
-19.28964
-19.289639
-19.289638
-19.289641
-19.289641
-19.289641
-19.289641
-19.289641
-19.289641
-19.28964
-19.28964
-19.289639
-19.289641
-19.289641
-19.289641
-19.289641
-19.289641
-19.289641
-19.289641
-19.28964
-19.289639
-19.289641
-19.289641
-19.289641
-19.289642
-19.289642
-19.289641
-19.289641
-19.289641
-19.28964
-19.289641
-19.289641
-19.289642
-19.289642
-19.289642
-19.289642
-19.289641
-19.289641
-19.28964