/*--------------------------------*- C++ -*----------------------------------*\
| =========                 |                                                 |
| \\      /  F ield         | OpenFOAM: The Open Source CFD Toolbox           |
|  \\    /   O peration     | Version:  2406                                  |
|   \\  /    A nd           | Website:  www.openfoam.com                      |
|    \\/     M anipulation  |                                                 |
\*---------------------------------------------------------------------------*/
FoamFile
{
    version     2.0;
    format      ascii;
    arch        "LSB;label=32;scalar=64";
    class       surfaceScalarField;
    location    "0.75";
    object      phi;
}
// * * * * * * * * * * * * * * * * * * * * * * * * * * * * * * * * * * * * * //

dimensions      [0 3 -1 0 0 0 0];

oriented        oriented;

internalField   nonuniform List<scalar> 
101088
(
-9.2744451e-05
2.5629656e-05
-1.5580935e-05
-2.2267208e-05
-0.00018713196
0.00011186531
-6.6502776e-05
-9.7859138e-05
-0.00026282864
0.00027088304
-0.00015710667
-0.00023785751
-0.00029654252
0.00051453734
-0.00028829806
-0.00045354087
-0.00028032791
0.00082170305
-0.00043349141
-0.00072726543
-0.00024122143
0.0011364744
-0.00054003697
-0.0010074521
-0.00023156237
0.001389307
-0.00056266474
-0.0012293347
-0.00029083376
0.0015245434
-0.0005008828
-0.0013416225
0.0015144232
-0.00039438155
-0.0013271216
-0.00041217478
-0.00011266413
2.8282105e-05
-1.8746924e-05
-0.00022407304
0.00012272787
-7.9399631e-05
-0.00030666971
0.00029517147
-0.00018611922
-0.00032941087
0.00055651527
-0.00033832953
-0.00028344432
0.00088419816
-0.00050333659
-0.00020375125
0.0012214626
-0.00062096293
-0.00015197182
0.0014953792
-0.00064346295
-0.0001695549
0.0016445818
-0.0005743745
0.0016350211
-0.00045807026
-0.00025063288
-0.00013267568
2.9970014e-05
-2.1786642e-05
-0.0002607601
0.00012934486
-9.1685165e-05
-0.00035050346
0.00030935262
-0.00021340573
-0.00036556553
0.00057940801
-0.00038432071
-0.00029670764
0.00091530693
-0.0005651642
-0.00018455952
0.0012607805
-0.00068886146
-9.8328799e-05
0.0015432419
-0.00070713165
-8.1899982e-05
0.0016976496
-0.00062912889
0.0016873723
-0.00050380129
-0.00013094069
-0.00015221388
3.0536607e-05
-2.4567802e-05
-0.00029666199
0.00013115914
-0.00010279868
-0.00039375071
0.00031214084
-0.00023771543
-0.00040279325
0.00058128313
-0.00042435273
-0.0003159439
0.00091366056
-0.00061710369
-0.00018017231
0.0012550315
-0.00074332374
-6.9960775e-05
0.0015347822
-0.00075530685
-2.9994482e-05
0.0016870566
-0.00066839169
0.0016753355
-0.00053559813
-5.5736439e-05
-0.00017067407
2.9730682e-05
-2.6973092e-05
-0.00033060694
0.00012748596
-0.00011234685
-0.00043523771
0.00030262517
-0.00025837665
-0.00044067904
0.00056148958
-0.00045772202
-0.00034114465
0.00087948646
-0.00065904943
-0.00018951438
0.0012058358
-0.00078524138
-6.4034975e-05
0.0014732463
-0.00079019902
-8.8310406e-06
0.0016174522
-0.00069518759
0.001603849
-0.00055705923
-1.7432793e-05
-0.00018822942
2.790805e-05
-2.9016032e-05
-0.00036391295
0.00011939606
-0.00012038801
-0.00047814827
0.00028260692
-0.00027555049
-0.00048428575
0.00052243843
-0.00048483133
-0.0003781209
0.00081544367
-0.00069189038
-0.0002171649
0.0011159474
-0.00081628078
-8.2342958e-05
0.0013618731
-0.0008141176
-1.6520359e-05
0.0014925856
-0.00071212
0.0014773969
-0.0005706067
-1.1363559e-05
-0.00020378852
2.4981338e-05
-3.0671985e-05
-0.00039346565
0.00010673963
-0.00012683536
-0.00051666886
0.00025217997
-0.0002891056
-0.00052498474
0.00046503015
-0.00050565621
-0.00041608675
0.00072387836
-0.00071605372
-0.00025114267
0.00098928952
-0.00083750034
-0.00011259821
0.0012062349
-0.00082871204
-4.0962197e-05
0.0013197007
-0.00072196451
0.0013037402
-0.00057812847
-2.6747549e-05
-0.00021727283
2.1091994e-05
-3.1956322e-05
-0.00041940694
9.0078799e-05
-0.00013180709
-0.00055128687
0.00021261993
-0.00029944542
-0.00056317201
0.0003914983
-0.00052118074
-0.00045442514
0.00060832576
-0.000733364
-0.0002890431
0.00083072925
-0.00085141632
-0.00015015403
0.0010123845
-0.00083674498
-7.5758364e-05
0.001105921
-0.00072668331
0.0010905579
-0.00058165648
-5.5641046e-05
-0.0002284406
1.6430995e-05
-3.2911169e-05
-0.00044121051
7.0200514e-05
-0.00013549173
-0.00058107651
0.00016567421
-0.0003070512
-0.00059726094
0.00030484567
-0.00053241806
-0.00049048785
0.0004732131
-0.00074541333
-0.00032674689
0.00064601707
-0.00086017373
-0.00018937818
0.00078715494
-0.00084052869
-0.0001140625
0.00085886429
-0.00072825885
0.00084566742
-0.00058278297
-9.0226371e-05
-0.00023711312
1.1259004e-05
-3.358108e-05
-0.00045846797
4.810333e-05
-0.00013807463
-0.000605268
0.00011346011
-0.00031235547
-0.00062589834
0.00020858563
-0.00054014058
-0.0005219694
0.0003234941
-0.00075338917
-0.00036072506
0.00044150527
-0.00086541763
-0.00022550051
0.00053795236
-0.00084187639
-0.00015007896
0.00058647274
-0.00072823912
0.0005768449
-0.00058270799
-0.00012382843
-0.0002429224
5.7239212e-06
-3.4020891e-05
-0.00047003112
2.4436009e-05
-0.00013972633
-0.00062162031
5.7613234e-05
-0.00031565958
-0.00064568553
0.00010586364
-0.00054480241
-0.0005444316
0.00016407633
-0.00075796749
-0.00038571718
0.0002238608
-0.00086805153
-0.00025263962
0.00027272981
-0.00084187208
-0.00017756564
0.00029718645
-0.00072757536
0.00029213005
-0.00058217451
-0.00014997026
-0.00024588591
6.0483449e-11
-3.4208503e-05
-0.00047601781
1.5586658e-10
-0.00014046654
-0.00063020466
2.9201474e-10
-0.00031721406
-0.00065615203
5.7634949e-10
-0.00054712192
-0.00055631947
2.9020218e-10
-0.00076042623
-0.0003989255
-6.4470211e-11
-0.00086971573
-0.00026702039
-7.347114e-10
-0.00084230589
-0.00019229098
-1.2011544e-09
-0.00072762671
-8.3457329e-10
-0.00058220136
-0.00016424565
-0.00024588603
-5.723898e-06
-3.4208501e-05
-0.00047601795
-2.4435942e-05
-0.00014046653
-0.00063020484
-5.7612944e-05
-0.00031721404
-0.00065615287
-0.00010586283
-0.00054712189
-0.00055631959
-0.00016407597
-0.00076042614
-0.00039892566
-0.00022386092
-0.00086971565
-0.00026702052
-0.00027273103
-0.00084230581
-0.00019229086
-0.0002971884
-0.00072762662
-0.00029213133
-0.00058220133
-0.00016424603
-0.00024292229
-1.1259043e-05
-3.4020894e-05
-0.00047003071
-4.8103425e-05
-0.00013972634
-0.00062162028
-0.00011346011
-0.00031565961
-0.00064568746
-0.00020858541
-0.00054480251
-0.00054443169
-0.00032349395
-0.00075796747
-0.00038571763
-0.00044150514
-0.00086805154
-0.00025264004
-0.00053795288
-0.00084187204
-0.00017756533
-0.00058647357
-0.00072757525
-0.00057684537
-0.00058217446
-0.00014997115
-0.00023711243
-1.6430909e-05
-3.3581072e-05
-0.00045846673
-7.020035e-05
-0.0001380746
-0.00060526744
-0.00016567433
-0.00031235544
-0.00062590011
-0.00030484612
-0.0005401406
-0.00052196881
-0.00047321291
-0.00075338899
-0.00036072559
-0.00064601636
-0.00086541756
-0.00022550111
-0.00078715449
-0.00084187627
-0.00015007859
-0.00085886386
-0.00072823896
-0.0008456672
-0.00058270795
-0.00012382953
-0.0002284408
-2.1092028e-05
-3.2911168e-05
-0.00044121086
-9.0078907e-05
-0.00013549172
-0.00058107598
-0.00021262049
-0.00030705119
-0.00059726133
-0.0003914988
-0.00053241805
-0.00049048648
-0.00060832469
-0.00074541321
-0.00032674745
-0.00083072783
-0.0008601738
-0.00018937879
-0.0010123832
-0.00084052867
-0.0001140623
-0.0011059196
-0.00072825877
-0.0010905574
-0.00058278298
-9.0227537e-05
-0.00021727369
-2.4981356e-05
-3.195632e-05
-0.00041940747
-0.00010673947
-0.00013180707
-0.00055128466
-0.00025217945
-0.00029944535
-0.00056317068
-0.0004650292
-0.00052118071
-0.00045442405
-0.00072387691
-0.00073336407
-0.00028904379
-0.00098928873
-0.00085141657
-0.00015015459
-0.0012062339
-0.00083674512
-7.5758746e-05
-0.0013196993
-0.00072668339
-0.0013037397
-0.00058165655
-5.5642262e-05
-0.00020378848
-2.7907987e-05
-3.0671986e-05
-0.00039346496
-0.00011939593
-0.00012683536
-0.00051666694
-0.00028260682
-0.00028910563
-0.00052498446
-0.00052243912
-0.00050565636
-0.00041608696
-0.00081544501
-0.00071605406
-0.00025114289
-0.0011159487
-0.0008375007
-0.00011259843
-0.0013618734
-0.00082871235
-4.0963046e-05
-0.0014925854
-0.00072196477
-0.0014773965
-0.00057812858
-2.6748406e-05
-0.00018822982
-2.9730737e-05
-2.9016048e-05
-0.00036391417
-0.00012748618
-0.00012038808
-0.0004781487
-0.00030262531
-0.0002755506
-0.0004842852
-0.0005614895
-0.00048483144
-0.00037812026
-0.00087948643
-0.00069189064
-0.00021716362
-0.0012058362
-0.00081628103
-8.2342638e-05
-0.0014732475
-0.00081411799
-1.6521006e-05
-0.0016174537
-0.00071212036
-0.0016038489
-0.00057060684
-1.1364142e-05
-0.0001706745
-3.0536629e-05
-2.697309e-05
-0.00033060757
-0.00013115917
-0.00011234683
-0.00043523726
-0.00031214078
-0.00025837659
-0.00044067824
-0.00058128305
-0.00045772195
-0.00034114481
-0.00091366096
-0.00065904949
-0.00018951323
-0.0012550317
-0.00078524138
-6.4034208e-05
-0.0015347829
-0.00079019915
-8.8303584e-06
-0.0016870579
-0.00069518775
-0.0016753368
-0.0005570594
-1.7433855e-05
-0.0001522139
-2.9969978e-05
-2.4567803e-05
-0.00029666194
-0.00012934474
-0.00010279869
-0.00039375052
-0.00030935241
-0.00023771545
-0.00040279327
-0.00057940782
-0.00042435273
-0.00031594386
-0.00091530703
-0.0006171036
-0.00018017119
-0.0012607806
-0.00074332362
-6.9959263e-05
-0.0015432419
-0.0007553068
-2.9992016e-05
-0.0016976508
-0.00066839169
-0.0016873752
-0.00053559832
-5.5737189e-05
-0.00013267555
-2.8282175e-05
-2.1786636e-05
-0.00026075997
-0.00012272811
-9.168514e-05
-0.00035050372
-0.00029517198
-0.00021340567
-0.00036556632
-0.00055651613
-0.00038432058
-0.00029670714
-0.00088419921
-0.00056516393
-0.00018455716
-0.001221464
-0.0006888612
-9.832694e-05
-0.0014953809
-0.00070713161
-8.189736e-05
-0.0016445836
-0.00062912886
-0.0016350207
-0.00050380132
-0.00013093945
-0.0001126641
-2.562966e-05
-1.8746922e-05
-0.00022407317
-0.00011186534
-7.9399625e-05
-0.00030667017
-0.00027088311
-0.0001861192
-0.00032941194
-0.00051453738
-0.00033832948
-0.00028344413
-0.00082170265
-0.0005033364
-0.00020374878
-0.0011364739
-0.00062096264
-0.00015197018
-0.0013893075
-0.00064346287
-0.00016955085
-0.0015245446
-0.00057437442
-0.0015144246
-0.00045807049
-0.00025063297
-9.2744392e-05
-1.5580936e-05
-2.2267234e-05
-0.00018713201
-6.6502778e-05
-9.7859277e-05
-0.00026282893
-0.00015710668
-0.00023785794
-0.00029654337
-0.00028829807
-0.00045354182
-0.00028032788
-0.00043349138
-0.00072726667
-0.00024121893
-0.00054003688
-0.0010074528
-0.00023155953
-0.00056266469
-0.0012293354
-0.00029082835
-0.00050088272
-0.0013416229
-0.00039438171
-0.0013271229
-0.00041217448
-2.4038082e-07
2.1789828e-06
-1.5791071e-05
-1.728468e-06
-2.196505e-07
9.6153236e-06
-6.843813e-05
-7.7007586e-06
6.3480714e-07
2.3285007e-05
-0.000162447
-1.8799319e-05
2.1468389e-06
4.3230944e-05
-0.00029779659
-3.5244635e-05
4.9720699e-06
6.4533059e-05
-0.00044762744
-5.3222327e-05
1.0683461e-05
7.7353088e-05
-0.0005588125
-6.4289446e-05
1.9862089e-05
7.3576327e-05
-0.00058477479
-6.064564e-05
3.1644659e-05
5.4479652e-05
-0.00052403375
-4.3111063e-05
2.9201377e-05
-0.00041506358
-2.0917962e-05
4.4043339e-05
-2.5911692e-07
2.5036501e-06
-1.8812453e-05
-6.255415e-09
1.1010393e-05
-8.1047331e-05
1.7390805e-06
2.6448983e-05
-0.00019102792
5.1885681e-06
4.840464e-05
-0.00034695154
1.1192469e-05
7.0933425e-05
-0.00051573954
2.0547612e-05
8.3460766e-05
-0.00063642523
3.249851e-05
7.8279927e-05
-0.00066011718
4.5142365e-05
5.7908571e-05
-0.00059044734
3.1773996e-05
-0.00047226466
5.6764019e-05
-2.5727773e-07
2.6613559e-06
-2.1687153e-05
3.4869684e-07
1.1681315e-05
-9.2962185e-05
3.1792413e-06
2.7916944e-05
-0.0002177043
8.5915669e-06
5.050749e-05
-0.00039183583
1.7388685e-05
7.2679719e-05
-0.00057570786
2.944929e-05
8.3659379e-05
-0.00070112107
4.2468371e-05
7.671288e-05
-0.00071858298
5.3599353e-05
5.600277e-05
-0.00063835414
3.1857314e-05
-0.00051191122
6.1625788e-05
-2.5530833e-07
2.6615871e-06
-2.4312639e-05
6.837822e-07
1.1672308e-05
-0.00010372856
4.5599871e-06
2.7782508e-05
-0.00024145675
1.1860463e-05
4.9774329e-05
-0.00043091919
2.312499e-05
7.0513723e-05
-0.00062620169
3.7049756e-05
7.9484287e-05
-0.00075307332
4.9880801e-05
7.1095909e-05
-0.00076252096
5.8514296e-05
5.1019409e-05
-0.00067204183
3.0507024e-05
-0.00053891194
6.3178444e-05
-2.4022833e-07
2.504157e-06
-2.6575369e-05
1.0319029e-06
1.1014367e-05
-0.00011296091
5.8673848e-06
2.6197534e-05
-0.00026162714
1.4813107e-05
4.6630813e-05
-0.00046352409
2.80667e-05
6.5278622e-05
-0.00066706787
4.3221143e-05
7.2247986e-05
-0.00079315886
5.5235442e-05
6.3216718e-05
-0.00079433376
6.1408096e-05
4.459455e-05
-0.00069493487
2.8058286e-05
-0.00055635386
6.3151853e-05
-2.5852682e-07
2.2480376e-06
-2.8501432e-05
1.206047e-06
9.9159075e-06
-0.00012075404
6.7026196e-06
2.3583275e-05
-0.00027843278
1.6841081e-05
4.1774406e-05
-0.00049011323
3.1613164e-05
5.7861851e-05
-0.00069924573
4.7751405e-05
6.2781146e-05
-0.00082295197
5.8894272e-05
5.4235729e-05
-0.00081627877
6.3180015e-05
3.7871885e-05
-0.00070968227
2.5017829e-05
-0.00056690049
6.2514818e-05
-2.6591194e-07
1.9221163e-06
-3.0080092e-05
1.3703865e-06
8.5092674e-06
-0.00012706507
7.4064047e-06
2.025832e-05
-0.00029181692
1.8482166e-05
3.5782011e-05
-0.00051073894
3.4318266e-05
4.9137623e-05
-0.00072316461
5.0870083e-05
5.2354218e-05
-0.000843625
6.150921e-05
4.474883e-05
-0.00082986378
6.4294768e-05
3.1322307e-05
-0.00071819984
2.1541825e-05
-0.0005721139
6.1756878e-05
-2.7476006e-07
1.5563867e-06
-3.1315591e-05
1.4833896e-06
6.9182923e-06
-0.00013197429
7.9067439e-06
1.6500244e-05
-0.0003021114
1.9682997e-05
2.9091561e-05
-0.00052626645
3.6355417e-05
3.9563142e-05
-0.00074046126
5.2914354e-05
4.1825573e-05
-0.00085744625
6.337309e-05
3.5175166e-05
-0.00083762983
6.4799275e-05
2.4912852e-05
-0.00072169969
1.7806495e-05
-0.00057419561
6.1074549e-05
-2.8557964e-07
1.1729092e-06
-3.2242138e-05
1.5493848e-06
5.2339476e-06
-0.00013564244
8.2263457e-06
1.2511721e-05
-0.00030973983
2.0422044e-05
2.2047686e-05
-0.00053756939
3.7417939e-05
2.9745407e-05
-0.00075259133
5.3997459e-05
3.1409817e-05
-0.00086633705
6.4321877e-05
2.5948439e-05
-0.0008416262
6.4900459e-05
1.8647441e-05
-0.00072257198
1.3829499e-05
-0.00057439897
6.049423e-05
-2.940427e-07
7.8363851e-07
-3.2897944e-05
1.5951743e-06
3.5060246e-06
-0.00013823613
8.4562958e-06
8.3956736e-06
-0.00031510044
2.0952957e-05
1.4797901e-05
-0.00054538659
3.8074167e-05
1.9923516e-05
-0.00076068868
5.47535e-05
2.1040189e-05
-0.00087172701
6.4896429e-05
1.7266825e-05
-0.00084333753
6.4819873e-05
1.2576135e-05
-0.00072209153
9.6102123e-06
-0.00057368174
6.0013365e-05
-2.8570619e-07
3.9704633e-07
-3.334857e-05
1.6758385e-06
1.7737099e-06
-0.00013995558
8.6936798e-06
4.2459889e-06
-0.00031852769
2.136948e-05
7.4844039e-06
-0.00055016411
3.8551719e-05
1.0088204e-05
-0.00076531486
5.5154765e-05
1.0692784e-05
-0.00087430718
6.5227655e-05
8.8186465e-06
-0.00084349668
6.4669622e-05
6.5065472e-06
-0.0007209483
5.0650975e-06
-0.00057259536
5.9635548e-05
-2.7923723e-07
3.6858285e-11
-3.3532131e-05
1.7252185e-06
1.1304387e-10
-0.00014069733
8.8315675e-06
2.1677822e-10
-0.00032007475
2.159381e-05
3.8301612e-10
-0.0005524001
3.8794229e-05
2.7204288e-10
-0.00076753923
5.5311923e-05
1.2377323e-10
-0.00087554109
6.5357462e-05
-1.209336e-10
-0.00084353264
6.4550403e-05
-1.0397898e-10
-0.00072031366
3.8286356e-10
-0.00057199863
5.9411961e-05
-2.7930839e-07
-3.9699792e-07
-3.3532127e-05
1.7251153e-06
-1.7735511e-06
-0.00014069732
8.8315265e-06
-4.2456507e-06
-0.00032007472
2.1593501e-05
-7.4837667e-06
-0.00055240005
3.8794208e-05
-1.0087723e-05
-0.00076753917
5.531187e-05
-1.0692567e-05
-0.00087554104
6.5357439e-05
-8.8188475e-06
-0.00084353261
6.4550484e-05
-6.5065994e-06
-0.00072031364
-5.0641124e-06
-0.00057199863
5.9411778e-05
-2.857706e-07
-7.8363019e-07
-3.3348573e-05
1.6757972e-06
-3.5059835e-06
-0.00013995559
8.6937767e-06
-8.3955399e-06
-0.0003185277
2.1368823e-05
-1.4797566e-05
-0.00055016415
3.8551766e-05
-1.9923164e-05
-0.0007653149
5.5154695e-05
-2.1040039e-05
-0.00087430725
6.5227652e-05
-1.7266916e-05
-0.00084349676
6.4669898e-05
-1.2575822e-05
-0.00072094835
-9.6087536e-06
-0.00057259538
5.9635155e-05
-2.9396329e-07
-1.1728985e-06
-3.2897938e-05
1.5954125e-06
-5.2339218e-06
-0.0001382361
8.4567143e-06
-1.2511681e-05
-0.0003151004
2.0952403e-05
-2.2047552e-05
-0.00054538655
3.8074357e-05
-2.9745071e-05
-0.00076068862
5.4753503e-05
-3.1409693e-05
-0.000871727
6.489652e-05
-2.5948366e-05
-0.00084333754
6.4820348e-05
-1.8646758e-05
-0.00072209156
-1.3827716e-05
-0.00057368177
6.001303e-05
-2.8562633e-07
-1.5563656e-06
-3.2242136e-05
1.5494292e-06
-6.9182536e-06
-0.00013564243
8.226881e-06
-1.6500197e-05
-0.00030973982
2.042195e-05
-2.9091409e-05
-0.0005375694
3.7418267e-05
-3.9562727e-05
-0.00075259132
5.3997626e-05
-4.1825476e-05
-0.0008663371
6.4322111e-05
-3.5174982e-05
-0.00084162626
6.4901011e-05
-2.4912012e-05
-0.00072257204
-1.7804838e-05
-0.00057439903
6.049399e-05
-2.7502472e-07
-1.9220993e-06
-3.1315592e-05
1.4831893e-06
-8.5091966e-06
-0.00013197429
7.9074519e-06
-2.0258127e-05
-0.00030211141
1.9683465e-05
-3.5781698e-05
-0.00052626648
3.6355818e-05
-4.9137315e-05
-0.00074046131
5.2914773e-05
-5.2354255e-05
-0.00085744637
6.3373438e-05
-4.4748734e-05
-0.00083762994
6.4799624e-05
-3.1321681e-05
-0.00072169981
-2.1540711e-05
-0.0005741957
6.1074246e-05
-2.6597448e-07
-2.2480457e-06
-3.0080097e-05
1.3704572e-06
-9.9158956e-06
-0.00012706509
7.4070648e-06
-2.3583238e-05
-0.00029181696
1.8482606e-05
-4.1774508e-05
-0.00051073903
3.4318658e-05
-5.7862161e-05
-0.00072316476
5.0870775e-05
-6.2781424e-05
-0.00084362523
6.1509548e-05
-5.4235935e-05
-0.00082986398
6.429469e-05
-3.7871771e-05
-0.00071820004
-2.5017146e-05
-0.00057211398
6.1756476e-05
-2.5853821e-07
-2.5041479e-06
-2.8501444e-05
1.205934e-06
-1.1014378e-05
-0.00012075409
6.702706e-06
-2.619762e-05
-0.00027843288
1.6841325e-05
-4.6631013e-05
-0.00049011339
3.1613842e-05
-6.5278895e-05
-0.00069924599
4.7752231e-05
-7.2248267e-05
-0.00082295231
5.8894481e-05
-6.3217295e-05
-0.0008162791
6.317969e-05
-4.4595068e-05
-0.00070968254
-2.8057644e-05
-0.00056690056
6.2514461e-05
-2.4028409e-07
-2.6616002e-06
-2.6575368e-05
1.0318504e-06
-1.1672348e-05
-0.0001129609
5.8676146e-06
-2.7782534e-05
-0.00026162712
1.4813583e-05
-4.9774276e-05
-0.00046352409
2.8067557e-05
-7.0513685e-05
-0.00066706796
4.3221816e-05
-7.9484526e-05
-0.00079315904
5.523559e-05
-7.1096356e-05
-0.00079433399
6.140806e-05
-5.102024e-05
-0.00069493504
-3.0506759e-05
-0.00055635389
6.3151454e-05
-2.5534753e-07
-2.6614007e-06
-2.4312638e-05
6.8380476e-07
-1.1681479e-05
-0.00010372855
4.5601779e-06
-2.7917239e-05
-0.00024145674
1.1860646e-05
-5.0507782e-05
-0.00043091919
2.312542e-05
-7.2679873e-05
-0.00062620169
3.7050341e-05
-8.3659529e-05
-0.00075307338
4.9881013e-05
-7.6712863e-05
-0.00076252108
5.8514723e-05
-5.6003481e-05
-0.0006720419
-3.1858096e-05
-0.00053891196
6.317827e-05
-2.5717627e-07
-2.5036475e-06
-2.1687146e-05
3.4901531e-07
-1.1010408e-05
-9.2962156e-05
3.1797469e-06
-2.6449001e-05
-0.00021770425
8.591839e-06
-4.8404568e-05
-0.00039183576
1.7389005e-05
-7.0933284e-05
-0.0005757078
2.9450233e-05
-8.3460943e-05
-0.00070112109
4.2469037e-05
-7.8280163e-05
-0.00071858307
5.3600223e-05
-5.7908994e-05
-0.00063835416
-3.1774429e-05
-0.00051191116
6.1626402e-05
-2.5905903e-07
-2.1790136e-06
-1.8812452e-05
-6.1232262e-09
-9.6154605e-06
-8.1047327e-05
1.7392709e-06
-2.3285338e-05
-0.00019102792
5.1883779e-06
-4.3231517e-05
-0.00034695155
1.1192243e-05
-6.4533713e-05
-0.00051573954
2.0548963e-05
-7.7353658e-05
-0.00063642523
3.2500799e-05
-7.3576607e-05
-0.00066011723
4.5144405e-05
-5.4480856e-05
-0.00059044738
-2.920245e-05
-0.00047226466
5.6764808e-05
-2.4039803e-07
-1.5791071e-05
-1.7285012e-06
-2.1967433e-07
-6.8438132e-05
-7.7008894e-06
6.3495234e-07
-0.000162447
-1.8799645e-05
2.1470784e-06
-0.00029779661
-3.5245284e-05
4.9727969e-06
-0.0004476275
-5.322327e-05
1.0685672e-05
-0.00055881259
-6.4290311e-05
1.9864938e-05
-0.00058477487
-6.0646277e-05
3.164694e-05
-0.00052403381
-4.3111176e-05
-0.00041506359
-2.0917671e-05
4.4044529e-05
1.2604086e-07
1.8040928e-06
-1.5959844e-05
-1.7613597e-06
3.2024225e-07
7.6065176e-06
-6.8741092e-05
-7.4977631e-06
1.1059562e-06
1.7515839e-05
-0.00016326534
-1.7483239e-05
4.6644463e-06
3.0471266e-05
-0.00030068611
-3.1140256e-05
1.3885445e-05
4.1311063e-05
-0.00045386421
-4.429523e-05
3.0143604e-05
4.1230449e-05
-0.00056722168
-4.9079424e-05
5.1351969e-05
2.3723032e-05
-0.00059116222
-3.8544179e-05
7.1908665e-05
-6.302049e-06
-0.000524199
-1.4089924e-05
-3.357347e-05
-0.0004089503
1.4593549e-05
8.4775417e-05
2.1807856e-07
1.8395535e-06
-1.9065992e-05
7.7234236e-07
7.6230953e-06
-8.1618119e-05
2.7202611e-06
1.7169452e-05
-0.00019262931
9.299681e-06
2.8875078e-05
-0.00035193449
2.4064781e-05
3.6895642e-05
-0.00052608878
4.7697046e-05
3.2004757e-05
-0.00065083116
7.5840188e-05
8.4367642e-06
-0.00067297369
0.000100649
-2.5960671e-05
-0.00059559754
-5.338806e-05
-0.00046798647
0.00011618514
3.5716207e-07
1.8303052e-06
-2.2035079e-05
1.4044738e-06
7.4574789e-06
-9.3843831e-05
4.6408315e-06
1.6437479e-05
-0.0002202085
1.4147132e-05
2.6701314e-05
-0.00039916798
3.4033987e-05
3.1925328e-05
-0.000590624
6.4226704e-05
2.2839657e-05
-0.00072214877
9.7936809e-05
-5.2696327e-06
-0.00073858667
0.00012492745
-4.2230772e-05
-0.00064907467
-6.8942699e-05
-0.0005101974
0.00013876831
5.1256021e-07
1.7604316e-06
-2.4755314e-05
2.1134327e-06
7.0653535e-06
-0.00010493728
6.7528509e-06
1.5268507e-05
-0.00024492718
1.9284791e-05
2.3990981e-05
-0.00044074053
4.419724e-05
2.6717852e-05
-0.00064590583
8.0321167e-05
1.4513598e-05
-0.00078087092
0.0001185495
-1.620226e-05
-0.00078981652
0.0001462916
-5.3688021e-05
-0.00068832664
-7.8771904e-05
-0.00053957093
0.00015677973
6.5928587e-07
1.6353003e-06
-2.7109469e-05
2.7784371e-06
6.4819801e-06
-0.00011449644
8.7265438e-06
1.3769851e-05
-0.00026607618
2.4061167e-05
2.0989076e-05
-0.00047585631
5.3588279e-05
2.1720142e-05
-0.00069159696
9.5047683e-05
7.7017859e-06
-0.00082780619
0.00013714544
-2.3795991e-05
-0.00082883766
0.00016506827
-5.9995712e-05
-0.00071654991
-8.2872918e-05
-0.00055946721
0.00017228288
7.7967284e-07
1.4761484e-06
-2.9121972e-05
3.3328833e-06
5.7817537e-06
-0.00012260701
1.0426491e-05
1.2083304e-05
-0.00028383967
2.831498e-05
1.788206e-05
-0.00050489398
6.2068226e-05
1.7193617e-05
-0.00072847217
0.00010832022
2.8453993e-06
-0.00086434736
0.00015392559
-2.8008055e-05
-0.00085767175
0.00018171878
-6.1348785e-05
-0.00073612207
-8.143274e-05
-0.00057285218
0.00018623071
8.9635394e-07
1.2750351e-06
-3.0775262e-05
3.8668934e-06
4.9484469e-06
-0.00012920225
1.2028169e-05
1.0205125e-05
-0.00029810008
3.2236322e-05
1.4710539e-05
-0.00052777512
6.9782511e-05
1.3198859e-05
-0.00075671578
0.00012045039
-3.0440676e-07
-0.00089114259
0.00016882753
-2.876796e-05
-0.00087748057
0.0001962375
-5.8442959e-05
-0.00074851532
-7.5098725e-05
-0.00058091496
0.00019870491
9.906285e-07
1.0424404e-06
-3.2073499e-05
4.30282e-06
4.0184047e-06
-0.00013435628
1.3353115e-05
8.2033619e-06
-0.00030915989
3.549268e-05
1.1587149e-05
-0.00054528219
7.6135368e-05
9.8987504e-06
-0.00077780364
0.00013082304
-2.213802e-06
-0.00091022398
0.00018148807
-2.6431779e-05
-0.00089063058
0.00020882828
-5.1588822e-05
-0.00075589379
-6.4798045e-05
-0.00058531059
0.00020964281
1.0605102e-06
7.900089e-07
-3.3050152e-05
4.6282993e-06
3.0315446e-06
-0.00013822331
1.4369526e-05
6.1397805e-06
-0.00031741748
3.8080684e-05
8.5270751e-06
-0.00055822017
8.1412651e-05
7.0130659e-06
-0.00079303746
0.00013933739
-2.9206154e-06
-0.00092355456
0.00019204675
-2.1717713e-05
-0.00089904922
0.00021929218
-4.1440587e-05
-0.00075996545
-5.1328391e-05
-0.00058742174
0.00021884542
1.1036078e-06
5.3210011e-07
-3.3743642e-05
4.8335696e-06
2.0339143e-06
-0.00014096845
1.5040595e-05
4.0933757e-06
-0.00032326105
3.9866535e-05
5.6134282e-06
-0.00056729869
8.526827e-05
4.4409306e-06
-0.0008035181
0.00014552901
-2.5532847e-06
-0.00093235484
0.00020002894
-1.5425503e-05
-0.00090412936
0.00022736737
-2.8920722e-05
-0.00076194969
-3.5514483e-05
-0.00058819762
0.00022606937
1.1340906e-06
2.6726099e-07
-3.4217847e-05
4.9819147e-06
1.0184622e-06
-0.00014278795
1.5522845e-05
2.0405781e-06
-0.00032701575
4.1133131e-05
2.7729479e-06
-0.00057293382
8.7878636e-05
2.1263991e-06
-0.00080974563
0.00014973633
-1.4811503e-06
-0.00093723691
0.00020538239
-8.0270036e-06
-0.00090654109
0.00023283756
-1.4858816e-05
-0.00076246532
-1.815133e-05
-0.00058814946
0.00023102848
1.1487276e-06
1.5827946e-11
-3.4413628e-05
5.0496331e-06
5.2533349e-11
-0.00014357981
1.5742271e-05
9.6685338e-11
-0.00032872682
4.1721381e-05
1.0811537e-10
-0.00057560636
8.9100453e-05
-3.1579145e-11
-0.00081279171
0.00015176143
-3.144056e-10
-0.00093968291
0.00020798481
-4.639149e-10
-0.00090778255
0.00023555399
-1.2821369e-10
-0.00076274152
7.07826e-10
-0.00058814827
0.00023355158
1.1487295e-06
-2.6723082e-07
-3.4413623e-05
5.0496292e-06
-1.0183661e-06
-0.0001435798
1.5742289e-05
-2.0404126e-06
-0.00032872678
4.1721399e-05
-2.7727775e-06
-0.00057560629
8.9100473e-05
-2.1265277e-06
-0.00081279163
0.00015176147
1.4804612e-06
-0.00093968284
0.00020798483
8.026036e-06
-0.00090778252
0.00023555404
1.4858574e-05
-0.00076274151
1.8152847e-05
-0.00058814827
0.00023355163
1.1340963e-06
-5.3207196e-07
-3.4217847e-05
4.9819281e-06
-2.0338361e-06
-0.00014278795
1.5522943e-05
-4.0932612e-06
-0.00032701575
4.1133214e-05
-5.6133395e-06
-0.00057293381
8.7878752e-05
-4.4411867e-06
-0.00080974566
0.00014973649
2.5524771e-06
-0.00093723695
0.00020538252
1.5424454e-05
-0.00090654116
0.00023283776
2.8920522e-05
-0.00076246539
3.5516216e-05
-0.00058814949
0.00023102866
1.1035914e-06
-7.8997711e-07
-3.3743637e-05
4.833589e-06
-3.031472e-06
-0.00014096843
1.5040786e-05
-6.139692e-06
-0.00032326099
3.9866673e-05
-8.5270362e-06
-0.00056729859
8.5268511e-05
-7.0134203e-06
-0.00080351803
0.00014552926
2.9197e-06
-0.00093235478
0.00020002917
2.1716565e-05
-0.00090412937
0.00022736772
4.144039e-05
-0.00076194974
5.1330209e-05
-0.00058819764
0.0002260697
1.0604651e-06
-1.0424174e-06
-3.305015e-05
4.6283082e-06
-4.0183548e-06
-0.00013822331
1.4369789e-05
-8.2033097e-06
-0.00031741747
3.8080885e-05
-1.1587156e-05
-0.00055822014
8.1413046e-05
-9.8991705e-06
-0.00079303747
0.00013933774
2.2127828e-06
-0.00092355458
0.00019204711
2.6430522e-05
-0.00089904929
0.00021929263
5.1588567e-05
-0.00075996554
6.4799741e-05
-0.00058742177
0.00021884579
9.905651e-07
-1.2750398e-06
-3.2073503e-05
4.3027928e-06
-4.9484659e-06
-0.0001343563
1.3353372e-05
-1.0205168e-05
-0.00030915993
3.5492863e-05
-1.4710645e-05
-0.00054528226
7.6135771e-05
-1.3199414e-05
-0.00077780372
0.00013082341
3.0313806e-07
-0.00091022407
0.00018148848
2.8766496e-05
-0.0008906307
0.00020882868
5.8442565e-05
-0.00075589391
7.5100196e-05
-0.00058531063
0.00020964305
8.9631234e-07
-1.476144e-06
-3.0775269e-05
3.8668969e-06
-5.7817563e-06
-0.00012920228
1.2028403e-05
-1.2083348e-05
-0.00029810015
3.2236379e-05
-1.7882271e-05
-0.00052777522
6.9782774e-05
-1.7194454e-05
-0.0007567159
0.00012045075
-2.8470322e-06
-0.00089114277
0.00016882793
2.8006322e-05
-0.00087748076
0.00019623775
6.1348248e-05
-0.00074851546
8.143402e-05
-0.00058091499
0.00019870492
7.7971453e-07
-1.6352976e-06
-2.9121984e-05
3.3329951e-06
-6.4819965e-06
-0.00012260706
1.0426635e-05
-1.3770004e-05
-0.00028383978
2.8314885e-05
-2.0989575e-05
-0.00050489417
6.206838e-05
-2.1721187e-05
-0.00072847243
0.00010832063
-7.7034996e-06
-0.00086434771
0.00015392593
2.3794246e-05
-0.00085767205
0.00018171882
5.999523e-05
-0.00073612226
8.2874022e-05
-0.00057285219
0.00018623039
6.5928242e-07
-1.7604724e-06
-2.7109472e-05
2.7783838e-06
-7.0655101e-06
-0.00011449645
8.7264526e-06
-1.5268899e-05
-0.00026607621
2.4061097e-05
-2.3991693e-05
-0.00047585639
5.3588418e-05
-2.6718925e-05
-0.00069159708
9.5047974e-05
-1.4515223e-05
-0.0008278064
0.00013714558
1.6200755e-05
-0.00082883786
0.00016506805
5.3687785e-05
-0.00071655002
7.8772827e-05
-0.00055946716
0.00017228196
5.125521e-07
-1.8303425e-06
-2.4755312e-05
2.1134619e-06
-7.4576276e-06
-0.00010493726
6.7530104e-06
-1.6437832e-05
-0.00024492715
1.9285021e-05
-2.6701991e-05
-0.0004407405
4.4197278e-05
-3.19265e-05
-0.00064590584
8.0321271e-05
-2.2841269e-05
-0.000780871
0.00011854936
5.2681994e-06
-0.00078981662
0.00014629113
4.2230627e-05
-0.00068832667
6.8943734e-05
-0.00053957083
0.00015677836
3.5719754e-07
-1.839596e-06
-2.2035074e-05
1.4045803e-06
-7.6232619e-06
-9.3843806e-05
4.641005e-06
-1.7169818e-05
-0.00022020845
1.4147262e-05
-2.8875721e-05
-0.00039916792
3.4033914e-05
-3.6896673e-05
-0.00059062397
6.4226516e-05
-3.2006134e-05
-0.00072214878
9.7936283e-05
-8.4380915e-06
-0.00073858666
0.00012492688
2.5960403e-05
-0.00064907462
5.3389203e-05
-0.00051019727
0.00013876735
2.1809669e-07
-1.8041287e-06
-1.906599e-05
7.7237484e-07
-7.60667e-06
-8.161811e-05
2.7202942e-06
-1.7516207e-05
-0.00019262929
9.2996233e-06
-3.0471981e-05
-0.00035193448
2.4064525e-05
-4.1312265e-05
-0.0005260888
4.769655e-05
-4.1232062e-05
-0.00065083121
7.5839564e-05
-2.3724505e-05
-0.0006729737
0.00010064911
6.3011828e-06
-0.00059559751
3.3574173e-05
-0.00046798629
0.00011618499
1.260307e-07
-1.5959844e-05
-1.761372e-06
3.20207e-07
-6.8741093e-05
-7.4978392e-06
1.1059037e-06
-0.00016326535
-1.7483468e-05
4.6643156e-06
-0.00030068614
-3.1140764e-05
1.3885203e-05
-0.00045386428
-4.429612e-05
3.0143314e-05
-0.0005672218
-4.9080598e-05
5.135123e-05
-0.00059116228
-3.8545375e-05
7.1909296e-05
-0.000524199
-1.4091099e-05
-0.00040895014
1.4593488e-05
8.4776651e-05
-7.2106364e-08
7.1885478e-07
-1.6058001e-05
-5.4859069e-07
-1.1608359e-07
3.1211217e-06
-6.9406867e-05
-2.4113824e-06
-1.3020647e-07
7.3776889e-06
-0.00016485446
-5.7744947e-06
-4.4177046e-07
1.3010825e-05
-0.00030300151
-1.038393e-05
-7.5185373e-07
1.7091586e-05
-0.00045649753
-1.4148222e-05
1.0072151e-06
1.3873418e-05
-0.00057017597
-1.2678172e-05
7.9913998e-06
-1.8739943e-06
-0.00059501297
-1.2595459e-06
2.2598574e-05
-2.8505145e-05
-0.00052945986
1.9158468e-05
-5.6280195e-05
-0.0004149273
4.3098823e-05