/*--------------------------------*- C++ -*----------------------------------*\
| =========                 |                                                 |
| \\      /  F ield         | OpenFOAM: The Open Source CFD Toolbox           |
|  \\    /   O peration     | Version:  2406                                  |
|   \\  /    A nd           | Website:  www.openfoam.com                      |
|    \\/     M anipulation  |                                                 |
\*---------------------------------------------------------------------------*/
FoamFile
{
    version     2.0;
    format      ascii;
    arch        "LSB;label=32;scalar=64";
    class       volVectorField;
    location    "0.75";
    object      U;
}
// * * * * * * * * * * * * * * * * * * * * * * * * * * * * * * * * * * * * * //

dimensions      [0 1 -1 0 0 0 0];

internalField   nonuniform List<vector> 
34560
(
(-0.068320364 0.011115745 0.019619959)
(-0.21494619 0.035305986 0.061041269)
(-0.38454127 0.066907146 0.10446921)
(-0.5573922 0.10588691 0.14143665)
(-0.70325938 0.15015101 0.16339586)
(-0.79357587 0.19722197 0.16580281)
(-0.81806936 0.24358418 0.15233612)
(-0.79183587 0.28493882 0.1320755)
(-0.74406773 0.31654627 0.11473295)
(-0.07389715 0.012683782 0.021232205)
(-0.23042604 0.039477162 0.065525019)
(-0.40743134 0.073356618 0.11026537)
(-0.58105271 0.11371681 0.14572196)
(-0.7182759 0.15818843 0.16345021)
(-0.79210863 0.20453964 0.1605628)
(-0.79702276 0.24930131 0.14279205)
(-0.75488972 0.28827729 0.12063327)
(-0.69768487 0.31686837 0.10300589)
(-0.078848767 0.013364694 0.021720081)
(-0.24433445 0.041330176 0.066919656)
(-0.42806399 0.076231699 0.11135917)
(-0.60202886 0.11692694 0.14465005)
(-0.73033943 0.16078316 0.15864262)
(-0.78756136 0.20558788 0.15162213)
(-0.77394892 0.24789524 0.13085661)
(-0.71774043 0.28360872 0.10766267)
(-0.65290228 0.30872873 0.090546983)
(-0.082938331 0.013841563 0.022041134)
(-0.25577894 0.042428658 0.067694606)
(-0.44473142 0.07746455 0.11125609)
(-0.61808498 0.11733856 0.14188306)
(-0.73761791 0.15932276 0.15201769)
(-0.77963218 0.20136232 0.14135288)
(-0.75005044 0.24023983 0.11852537)
(-0.68244026 0.2720001 0.095212826)
(-0.61198917 0.29342358 0.079408692)
(-0.085977193 0.013689512 0.021991134)
(-0.26432198 0.041803931 0.067455208)
(-0.45691415 0.075911522 0.10969841)
(-0.62881527 0.11404197 0.1376247)
(-0.7398733 0.15335055 0.14430407)
(-0.76839252 0.19193604 0.13069084)
(-0.72547011 0.2267887 0.10657124)
(-0.64910063 0.2543175 0.083809333)
(-0.5750757 0.27212896 0.069620849)
(-0.088145315 0.013108113 0.021613487)
(-0.27041819 0.039933148 0.066278889)
(-0.4652703 0.072131145 0.10683976)
(-0.63496656 0.10751067 0.13213164)
(-0.73787407 0.14325116 0.13591455)
(-0.75449302 0.17775056 0.12009585)
(-0.70060538 0.20819563 0.09538136)
(-0.61785246 0.23143842 0.073631001)
(-0.54209828 0.24586499 0.061140615)
(-0.089581465 0.012073656 0.021131006)
(-0.27441142 0.036695477 0.064766613)
(-0.47033459 0.065975115 0.10351085)
(-0.63729014 0.097680737 0.12629197)
(-0.73268364 0.12909789 0.12759216)
(-0.73897141 0.15900801 0.11010936)
(-0.67626781 0.18485897 0.085280208)
(-0.58920433 0.20390942 0.064743229)
(-0.51307978 0.21528554 0.053867376)
(-0.090393449 0.010546077 0.020565662)
(-0.27667831 0.032024921 0.063037316)
(-0.47284413 0.057412919 0.10000943)
(-0.63694602 0.084611382 0.12057504)
(-0.72575225 0.11113635 0.11986187)
(-0.72329298 0.13610192 0.10118481)
(-0.65361429 0.1573034 0.076537816)
(-0.56374112 0.1724071 0.057257093)
(-0.48813545 0.18108032 0.047805576)
(-0.090765015 0.0085979915 0.020001795)
(-0.27774098 0.026113203 0.061333103)
(-0.47367223 0.046750679 0.096720792)
(-0.63513766 0.068699704 0.11544471)
(-0.71844347 0.08985903 0.11317584)
(-0.70888308 0.1096059 0.093683069)
(-0.63380034 0.12614317 0.06936777)
(-0.54215638 0.1375732 0.051249269)
(-0.46751315 0.1439026 0.042977831)
(-0.090875506 0.0063552736 0.019506302)
(-0.27808325 0.019312911 0.059846355)
(-0.47357348 0.034541269 0.093948755)
(-0.63282633 0.050647211 0.11126891)
(-0.71183351 0.066041976 0.10788834)
(-0.69687451 0.080318942 0.087882437)
(-0.61781899 0.09215862 0.063931158)
(-0.52513024 0.10013888 0.046781471)
(-0.45153662 0.1044257 0.039412822)
(-0.090919864 0.0039252719 0.019165004)
(-0.27815789 0.011916548 0.058807066)
(-0.47316843 0.021262824 0.092008085)
(-0.63074624 0.031087015 0.1083728)
(-0.70674382 0.040412049 0.1042774)
(-0.68813971 0.049022364 0.083988021)
(-0.6064877 0.056122605 0.060345609)
(-0.51327482 0.060827396 0.043889706)
(-0.44054687 0.063302262 0.037129509)
(-0.090856125 0.0012963033 0.018990716)
(-0.27801953 0.0039391594 0.058290905)
(-0.47276839 0.0070573404 0.091065276)
(-0.62952953 0.010358553 0.10697767)
(-0.70404212 0.013503097 0.10254059)
(-0.6836109 0.016413683 0.082111718)
(-0.60065154 0.018812771 0.058618859)
(-0.50719747 0.020394616 0.042506065)
(-0.43490801 0.021224092 0.036039979)
(-0.090856138 -0.0012962601 0.018990717)
(-0.27801956 -0.0039390782 0.058290934)
(-0.47276844 -0.0070572077 0.091065287)
(-0.62952961 -0.010358323 0.10697774)
(-0.70404209 -0.013503011 0.10254067)
(-0.6836109 -0.016413694 0.082111754)
(-0.60065152 -0.018812951 0.058618898)
(-0.50719741 -0.020394912 0.042506077)
(-0.43490799 -0.021224295 0.036040012)
(-0.090919876 -0.0039252652 0.019165008)
(-0.27815793 -0.011916531 0.058807045)
(-0.47316853 -0.021262778 0.092008017)
(-0.63074643 -0.031086898 0.10837293)
(-0.70674375 -0.040411998 0.10427755)
(-0.68813972 -0.049022351 0.08398808)
(-0.60648765 -0.056122714 0.060345701)
(-0.51327469 -0.060827582 0.043889732)
(-0.44054684 -0.063302382 0.03712958)
(-0.0908755 -0.0063552552 0.019506301)
(-0.27808325 -0.019312895 0.059846223)
(-0.47357356 -0.034541297 0.093948631)
(-0.63282653 -0.050647231 0.11126905)
(-0.7118334 -0.066041936 0.10788845)
(-0.69687457 -0.080318874 0.087882449)
(-0.61781897 -0.092158613 0.06393126)
(-0.52513009 -0.1001389 0.046781497)
(-0.45153661 -0.10442572 0.0394129)
(-0.090765018 -0.0085979875 0.020001788)
(-0.27774099 -0.026113209 0.061333187)
(-0.47367223 -0.046750796 0.096720871)
(-0.63513769 -0.068699789 0.1154448)
(-0.71844336 -0.089858911 0.11317576)
(-0.70888323 -0.10960576 0.093682974)
(-0.6338004 -0.12614304 0.069367848)
(-0.54215631 -0.13757307 0.051249295)
(-0.4675132 -0.14390252 0.042977935)
(-0.090393427 -0.010546104 0.02056566)
(-0.27667821 -0.032024932 0.063037484)
(-0.47284388 -0.057412977 0.10000932)
(-0.63694589 -0.084611357 0.1205747)
(-0.72575236 -0.11113615 0.11986157)
(-0.7232933 -0.13610179 0.1011847)
(-0.65361451 -0.15730323 0.076537883)
(-0.56374123 -0.17240689 0.057257142)
(-0.48813555 -0.18108021 0.047805721)
(-0.089581454 -0.012073648 0.021131007)
(-0.27441139 -0.036695462 0.064766545)
(-0.47033457 -0.065975121 0.10351057)
(-0.63729033 -0.097680799 0.12629173)
(-0.7326841 -0.12909791 0.12759215)
(-0.73897177 -0.15900806 0.1101094)
(-0.67626818 -0.18485891 0.085280245)
(-0.58920462 -0.20390926 0.064743322)
(-0.5130799 -0.21528545 0.053867509)
(-0.088145336 -0.013108117 0.021613487)
(-0.27041824 -0.039933149 0.066278959)
(-0.46527027 -0.072131168 0.10683987)
(-0.63496643 -0.10751079 0.13213163)
(-0.73787412 -0.14325129 0.13591447)
(-0.75449306 -0.17775072 0.12009571)
(-0.70060574 -0.20819578 0.095381284)
(-0.61785279 -0.23143845 0.07363114)
(-0.54209841 -0.24586488 0.061140696)
(-0.085977169 -0.013689514 0.021991125)
(-0.26432188 -0.041803929 0.067455243)
(-0.45691394 -0.075911539 0.10969839)
(-0.62881509 -0.11404203 0.13762454)
(-0.73987335 -0.15335061 0.14430402)
(-0.76839246 -0.19193609 0.13069077)
(-0.72547026 -0.2267889 0.10657117)
(-0.64910078 -0.25431767 0.083809367)
(-0.57507592 -0.2721289 0.069620878)
(-0.082938361 -0.013841573 0.022041141)
(-0.25577904 -0.042428696 0.067694647)
(-0.44473159 -0.07746461 0.11125612)
(-0.61808516 -0.11733862 0.14188309)
(-0.73761793 -0.15932285 0.15201771)
(-0.7796321 -0.20136238 0.14135278)
(-0.75005039 -0.24023993 0.11852526)
(-0.68244022 -0.27200021 0.09521262)
(-0.61198948 -0.29342387 0.0794086)
(-0.078848768 -0.013364711 0.021720093)
(-0.24433444 -0.041330226 0.06691969)
(-0.42806397 -0.076231772 0.11135923)
(-0.60202878 -0.11692697 0.14465018)
(-0.73033914 -0.16078319 0.15864273)
(-0.78756106 -0.20558806 0.1516221)
(-0.77394894 -0.24789551 0.13085647)
(-0.71774035 -0.28360885 0.10766245)
(-0.65290231 -0.30872868 0.090546402)
(-0.073897158 -0.012683803 0.021232217)
(-0.23042607 -0.039477231 0.065525055)
(-0.40743137 -0.073356722 0.11026546)
(-0.5810527 -0.11371687 0.14572213)
(-0.71827565 -0.1581884 0.16345035)
(-0.79210815 -0.20453973 0.1605626)
(-0.7970226 -0.24930164 0.14279156)
(-0.75488949 -0.28827775 0.12063235)
(-0.69768529 -0.31686888 0.10300503)
(-0.068320367 -0.011115767 0.019619981)
(-0.2149462 -0.035306057 0.061041337)
(-0.38454129 -0.06690726 0.10446935)
(-0.55739222 -0.10588703 0.14143688)
(-0.70325929 -0.15015109 0.16339606)
(-0.79357557 -0.19722204 0.16580256)
(-0.81806912 -0.24358433 0.15233558)
(-0.79183549 -0.28493908 0.13207453)
(-0.74406799 -0.31654694 0.11473235)
(-0.10422693 0.0012816809 0.0011913187)
(-0.32712987 0.0041122914 0.0037184612)
(-0.58471817 0.007607778 0.0063420958)
(-0.84841476 0.011332135 0.0084511367)
(-1.0745113 0.01452968 0.0091622373)
(-1.2213888 0.016431595 0.0077154661)
(-1.2743317 0.016788842 0.0040114815)
(-1.2551935 0.01602157 -0.0011431907)
(-1.2018843 0.01487625 -0.0068609255)
(-0.11415594 0.0015407324 0.0012717396)
(-0.35473732 0.0048740323 0.0039265381)
(-0.62659452 0.0088435688 0.0065485372)
(-0.89514733 0.012841245 0.0083998312)
(-1.1119636 0.015978748 0.0085279989)
(-1.2363836 0.017518109 0.0062998903)
(-1.2618429 0.01736772 0.0019279907)
(-1.2199153 0.016018118 -0.0035803986)
(-1.1539546 0.01414791 -0.009379603)
(-0.12317963 0.0016403617 0.001182539)
(-0.37972516 0.0051819585 0.0036416564)
(-0.66415901 0.0093436112 0.0059641214)
(-0.9362636 0.013392445 0.0073835978)
(-1.1435008 0.016350871 0.0069652141)
(-1.2470199 0.01753102 0.0042126226)
(-1.2487554 0.016960475 -0.00042863354)
(-1.188989 0.015233615 -0.0056154803)
(-1.1149109 0.013194875 -0.010541887)
(-0.131182 0.0016717401 0.0010543483)
(-0.40158263 0.0052631408 0.003222745)
(-0.6964073 0.0094191105 0.0051383847)
(-0.97050128 0.013322323 0.0060414409)
(-1.1681997 0.015963951 0.0050642643)
(-1.2531025 0.016751318 0.0018978028)
(-1.2351968 0.015808058 -0.0027564464)
(-1.1619916 0.013807129 -0.0073316883)
(-1.0823955 0.011804832 -0.011205096)
(-0.13781144 0.0016025307 0.00088429359)
(-0.41953948 0.0050522671 0.0026850778)
(-0.72249792 0.0090174281 0.0041384232)
(-0.99732443 0.012644583 0.0045285757)
(-1.1859605 0.014955426 0.0030738596)
(-1.2547961 0.015412455 -0.00037468033)
(-1.2210702 0.014198057 -0.004893202)
(-1.1381158 0.012083203 -0.0087882042)
(-1.0551181 0.010289402 -0.011615998)
(-0.14328232 0.0014657847 0.00069446587)
(-0.43415351 0.004636785 0.0020905101)
(-0.74326261 0.0082703946 0.0030713303)
(-1.0177285 0.011528978 0.002993532)
(-1.1977857 0.013498178 0.0011655872)
(-1.2528678 0.013708204 -0.002449065)
(-1.2065252 0.012395714 -0.0067493009)
(-1.1167399 0.010345876 -0.010003323)
(-1.0319846 0.0088206553 -0.011929229)
(-0.14774306 0.0012833657 0.00051955992)
(-0.44585218 0.0040724333 0.0015373586)
(-0.75942506 0.0072636089 0.0020802639)
(-1.0327156 0.010086343 0.0015854336)
(-1.2048728 0.011706349 -0.00055393777)
(-1.248362 0.011617331 -0.0042125354)
(-1.1921038 0.010478601 -0.0082914272)
(-1.097704 0.0086673694 -0.010998472)
(-1.0123955 0.0074247008 -0.012194827)
(-0.15117613 0.0010693584 0.00036675385)
(-0.45475577 0.0034082094 0.0010534152)
(-0.77146311 0.0060883106 0.0012172293)
(-1.0432726 0.0084362164 0.00037461848)
(-1.2086134 0.0097136957 -0.0019900657)
(-1.2427026 0.0095605887 -0.0056462915)
(-1.178723 0.0085399401 -0.0095012605)
(-1.0813234 0.0070510424 -0.011777709)
(-0.99611098 0.0060710902 -0.012421469)
(-0.15370627 0.00083857259 0.00024233711)
(-0.4612639 0.0026843189 0.00065744095)
(-0.78010814 0.0048052843 0.00051118819)
(-1.0504711 0.0066471024 -0.0006030042)
(-1.2103188 0.0075664421 -0.003098137)
(-1.2369753 0.0074458151 -0.0067354915)
(-1.1671809 0.0065083123 -0.010359665)
(-1.0678079 0.0054550872 -0.012358278)
(-0.98304891 0.0047415845 -0.012604831)
(-0.15546696 0.00060101179 0.00014761022)
(-0.46577594 0.0019316101 0.0003536841)
(-0.78601801 0.0034668757 -3.1058204e-05)
(-1.0551453 0.0047979199 -0.0013481486)
(-1.2108111 0.0054466286 -0.0039295461)
(-1.2319752 0.0053477303 -0.0075244011)
(-1.1580523 0.0046462959 -0.010991845)
(-1.0573863 0.0039057489 -0.012766681)
(-0.97319288 0.0034264862 -0.012742637)
(-0.15676252 0.00036542181 8.3796894e-05)
(-0.46895793 0.0011746174 0.00014593099)
(-0.78999216 0.0021082463 -0.00040663801)
(-1.0580412 0.0029167142 -0.00186548)
(-1.2107149 0.0033083022 -0.0044999768)
(-1.2281857 0.0032491027 -0.0080489041)
(-1.1516318 0.002818273 -0.011403774)
(-1.0502393 0.0023758701 -0.013029245)
(-0.96656104 0.0020976152 -0.012832533)
(-0.15722755 0.0001224468 5.3381799e-05)
(-0.47017919 0.00039294581 4.6388985e-05)
(-0.79159791 0.00070509282 -0.00058833198)
(-1.0592327 0.00097354432 -0.0021171958)
(-1.2105594 0.0011015533 -0.004778133)
(-1.2262707 0.0010797907 -0.00830265)
(-1.1484221 0.00093566863 -0.011601573)
(-1.046646 0.00079323164 -0.013155463)
(-0.9632402 0.00070627881 -0.012875959)
(-0.15722755 -0.00012240951 5.3379723e-05)
(-0.47017921 -0.00039286193 4.6402274e-05)
(-0.79159793 -0.00070496913 -0.00058832892)
(-1.0592327 -0.00097337232 -0.0021171761)
(-1.2105594 -0.0011014539 -0.0047781091)
(-1.2262708 -0.0010797538 -0.008302647)
(-1.1484221 -0.00093570104 -0.011601566)
(-1.046646 -0.00079324884 -0.013155468)
(-0.96324019 -0.00070614144 -0.01287595)
(-0.15676253 -0.00036540481 8.3791518e-05)
(-0.46895796 -0.0011745742 0.00014594138)
(-0.78999221 -0.0021081774 -0.00040665706)
(-1.0580413 -0.0029165969 -0.0018654545)
(-1.2107149 -0.0033082189 -0.0044999324)
(-1.2281857 -0.0032490732 -0.0080489057)
(-1.1516318 -0.0028182953 -0.011403763)
(-1.0502393 -0.0023758534 -0.013029269)
(-0.96656104 -0.0020974308 -0.01283253)
(-0.15546696 -0.00060100201 0.00014760217)
(-0.46577594 -0.0019315877 0.0003536592)
(-0.78601807 -0.0034668499 -3.1126591e-05)
(-1.0551454 -0.0047978627 -0.0013481681)
(-1.2108111 -0.0054465599 -0.0039295321)
(-1.2319753 -0.0053477105 -0.007524425)
(-1.1580524 -0.0046462998 -0.010991852)
(-1.0573863 -0.0039056855 -0.012766739)
(-0.97319291 -0.0034262473 -0.012742669)
(-0.15370628 -0.0008385612 0.00024233641)
(-0.46126393 -0.0026842991 0.00065744492)
(-0.78010821 -0.0048052808 0.00051113715)
(-1.0504712 -0.0066470866 -0.00060306031)
(-1.2103189 -0.0075663864 -0.0030981766)
(-1.2369755 -0.0074458083 -0.0067355442)
(-1.167181 -0.0065082987 -0.010359703)
(-1.0678079 -0.0054549882 -0.012358366)
(-0.98304899 -0.0047413207 -0.012604891)
(-0.15117613 -0.0010693492 0.00036675941)
(-0.45475575 -0.0034081814 0.001053457)
(-0.77146306 -0.006088291 0.0012171879)
(-1.0432726 -0.0084361958 0.00037450736)
(-1.2086134 -0.0097136488 -0.0019901606)
(-1.2427029 -0.0095606045 -0.0056463708)
(-1.1787232 -0.0085399321 -0.0095013292)
(-1.0813236 -0.0070509387 -0.011777797)
(-0.99611112 -0.0060708465 -0.012421515)
(-0.14774306 -0.0012833573 0.00051955384)
(-0.44585216 -0.0040724074 0.0015373459)
(-0.75942505 -0.0072635821 0.0020801871)
(-1.0327157 -0.010086338 0.0015853274)
(-1.2048731 -0.011706367 -0.00055401438)
(-1.2483624 -0.011617385 -0.0042126178)
(-1.1921041 -0.010478632 -0.0082915056)
(-1.0977043 -0.0086672965 -0.010998518)
(-1.0123957 -0.0074245011 -0.012194833)
(-0.14328235 -0.0014657869 0.00069447219)
(-0.43415361 -0.0046367985 0.0020905267)
(-0.74326272 -0.00827043 0.0030713301)
(-1.0177286 -0.011529035 0.0029935182)
(-1.197786 -0.013498267 0.0011655272)
(-1.2528681 -0.0137083 -0.0024491638)
(-1.2065255 -0.012395792 -0.0067493553)
(-1.1167403 -0.010345852 -0.010003294)
(-1.0319848 -0.008820469 -0.011929219)
(-0.13781144 -0.0016025354 0.00088429722)
(-0.41953945 -0.0050522887 0.0026850987)
(-0.72249782 -0.009017481 0.0041384159)
(-0.99732435 -0.012644639 0.0045285258)
(-1.1859607 -0.014955502 0.0030737558)
(-1.2547962 -0.015412555 -0.00037477477)
(-1.2210705 -0.014198125 -0.0048932)
(-1.1381162 -0.012083195 -0.0087881284)
(-1.0551183 -0.0102892 -0.011615999)
(-0.13118202 -0.0016717497 0.0010543574)
(-0.40158271 -0.0052631714 0.0032227692)
(-0.69640743 -0.0094191721 0.0051383792)
(-0.97050142 -0.013322363 0.006041419)
(-1.1681998 -0.01596398 0.0050642225)
(-1.2531026 -0.016751384 0.0018977672)
(-1.2351971 -0.015808052 -0.0027564047)
(-1.1619918 -0.013807044 -0.0073316225)
(-1.0823958 -0.011804687 -0.011205114)
(-0.12317963 -0.0016403804 0.0011825531)
(-0.37972518 -0.0051820352 0.0036416694)
(-0.66415904 -0.0093437351 0.0059641052)
(-0.93626361 -0.013392539 0.0073835666)
(-1.1435007 -0.016350919 0.0069651943)
(-1.2470201 -0.017531109 0.0042126151)
(-1.2487558 -0.016960489 -0.00042858964)
(-1.1889892 -0.015233373 -0.005615459)
(-1.114911 -0.013194703 -0.010541955)
(-0.11415594 -0.0015407491 0.0012717554)
(-0.35473734 -0.0048740986 0.0039265754)
(-0.62659456 -0.0088436809 0.00654858)
(-0.89514736 -0.012841336 0.0083999081)
(-1.1119635 -0.015978784 0.008528143)
(-1.2363835 -0.017518184 0.0062999892)
(-1.261843 -0.017367834 0.0019278864)
(-1.2199153 -0.016018078 -0.0035804825)
(-1.153955 -0.014147835 -0.009379684)
(-0.10422693 -0.001281699 0.0011913361)
(-0.32712986 -0.0041123356 0.0037185237)
(-0.58471816 -0.0076078727 0.00634219)
(-0.84841475 -0.011332259 0.008451286)
(-1.0745112 -0.014529816 0.0091624197)
(-1.2213888 -0.016431762 0.0077155306)
(-1.2743317 -0.016789056 0.0040113614)
(-1.2551934 -0.016021858 -0.001143331)
(-1.2018846 -0.01487648 -0.0068611298)
(-0.087001003 0.0011860878 0.0010635568)
(-0.27451827 0.0036365819 0.0031851739)
(-0.49380645 0.0063743679 0.0052342956)
(-0.72157285 0.0090572916 0.0064853269)
(-0.9190093 0.011256058 0.0059128769)
(-1.045405 0.012530369 0.002658963)
(-1.0823568 0.012502433 -0.0032108272)
(-1.0474042 0.011170156 -0.010328815)
(-0.97780557 0.0090046646 -0.016750611)
(-0.094528289 0.0011958552 0.00094085591)
(-0.29570074 0.0035859927 0.0027665216)
(-0.52641241 0.006136949 0.0043687649)
(-0.75839386 0.0084575023 0.0049271828)
(-0.94799119 0.01011317 0.0033030382)
(-1.0538089 0.010675594 -0.0013412637)
(-1.0637443 0.0098514051 -0.0087209242)
(-1.004391 0.0079084665 -0.016933404)
(-0.91904095 0.0057894799 -0.023825928)
(-0.10133546 0.0011811058 0.00079560999)
(-0.31485979 0.0034824879 0.0022922673)
(-0.55580407 0.0058477395 0.0034444494)
(-0.79120967 0.0078631417 0.0033858422)
(-0.97302322 0.0091239967 0.0008974141)
(-1.0597929 0.0092631246 -0.0048540414)
(-1.045928 0.0080880953 -0.013406135)
(-0.9665601 0.005973086 -0.022440336)
(-0.87041026 0.0038280942 -0.029360488)
(-0.10730978 0.001144425 0.00065496675)
(-0.33151234 0.0033222722 0.0018374012)
(-0.5810156 0.0054846622 0.0025628615)
(-0.81873134 0.0072174099 0.0019253359)
(-0.99297812 0.0081659033 -0.0013644886)
(-1.062824 0.0080014521 -0.0081069226)
(-1.0289303 0.0066131104 -0.017652789)
(-0.93371476 0.0044411989 -0.027277826)
(-0.82981536 0.002245017 -0.034017141)
(-0.11215372 0.0010717718 0.00051604068)
(-0.34496544 0.003074393 0.0014016166)
(-0.60119661 0.0050076982 0.001744989)
(-0.84024239 0.0064730118 0.00060549793)
(-1.0074607 0.0071407179 -0.0033788897)
(-1.0628303 0.0067591968 -0.010975438)
(-1.0124991 0.005283796 -0.021357548)
(-0.90512732 0.0031666003 -0.031407449)
(-0.79600088 0.0010231637 -0.037913445)
(-0.1160732 0.00098111496 0.00038235065)
(-0.35572907 0.0027843838 0.00099005039)
(-0.61705321 0.0044757182 0.00099631831)
(-0.85650882 0.0056867239 -0.00056752489)
(-1.0171541 0.0061329347 -0.0051266041)
(-1.0601704 0.0056219192 -0.013429971)
(-0.99652083 0.0041373303 -0.02449071)
(-0.88008594 0.0021728009 -0.034833878)
(-0.76784556 0.00018428837 -0.041114042)
(-0.11920618 0.00086899904 0.00026316955)
(-0.36418301 0.0024446977 0.00062706116)
(-0.62918565 0.0038875418 0.00034216424)
(-0.86830378 0.0048632961 -0.0015785851)
(-1.0228891 0.0051535844 -0.0066095686)
(-1.0554644 0.0047350399 -0.015532141)
(-0.98121409 0.0031954056 -0.027124178)
(-0.85819801 0.0014137922 -0.037651954)
(-0.74440094 -0.00032169302 -0.043715669)
(-0.12154986 0.00073224174 0.00015810915)
(-0.37044581 0.0020471138 0.00031286028)
(-0.63799578 0.0032292846 -0.00021017334)
(-0.87641197 0.0039942504 -0.0024102426)
(-1.0257492 0.0041913137 -0.0078176659)
(-1.0497568 0.0037600612 -0.017233595)
(-0.9672935 0.0024017561 -0.029267833)
(-0.83958632 0.00085217791 -0.039915915)
(-0.72518268 -0.00056594342 -0.045803386)
(-0.12322181 0.00057960996 7.180803e-05)
(-0.37488126 0.0016135642 5.8217361e-05)
(-0.64412781 0.0025310134 -0.0006479166)
(-0.88174039 0.0031100132 -0.0030580782)
(-1.0267658 0.0032865068 -0.0087736831)
(-1.0441481 0.0028542102 -0.018549969)
(-0.95544762 0.0018416982 -0.030973506)
(-0.82448484 0.0004899674 -0.041668782)
(-0.70995957 -0.00061797521 -0.047423962)
(-0.12435186 0.00041868624 6.1793587e-06)
(-0.37787188 0.0011619479 -0.0001328057)
(-0.64820595 0.0018136162 -0.00096940656)
(-0.88509066 0.0022127478 -0.0035259514)
(-1.0268511 0.0023239916 -0.0094561993)
(-1.0393448 0.0019858293 -0.019495764)
(-0.94612343 0.001249438 -0.032179048)
(-0.8130298 0.00026001743 -0.042941665)
(-0.69860009 -0.00053356541 -0.048606323)
(-0.12521151 0.00025438173 -3.7950544e-05)
(-0.38002745 0.00070413487 -0.00026124596)
(-0.65097765 0.0010946069 -0.0011865673)
(-0.88715702 0.0013285549 -0.0038424917)
(-1.0265479 0.0013875255 -0.0099123663)
(-1.0357371 0.0011711902 -0.020120437)
(-0.93958885 0.00072296455 -0.032963396)
(-0.80526697 0.00012055288 -0.043766811)
(-0.69102435 -0.00035857489 -0.049377049)
(-0.12548185 8.4055786e-05 -5.9013594e-05)
(-0.38077387 0.00023202137 -0.00032205089)
(-0.65201194 0.00035986369 -0.0012884563)
(-0.88795054 0.00043543538 -0.0039902732)
(-1.0263081 0.00045392723 -0.010125412)
(-1.0339462 0.00038139945 -0.020415625)
(-0.9363637 0.00023316846 -0.033339613)
(-0.80142775 3.2180143e-05 -0.044167317)
(-0.6872685 -0.00012686852 -0.049756772)
(-0.12548185 -8.403725e-05 -5.9013462e-05)
(-0.38077387 -0.00023197822 -0.00032205282)
(-0.65201194 -0.00035980622 -0.0012884595)
(-0.88795054 -0.00043538732 -0.0039902797)
(-1.0263081 -0.00045394461 -0.010125417)
(-1.0339462 -0.00038150627 -0.020415629)
(-0.93636373 -0.00023330813 -0.033339618)
(-0.80142779 -3.221451e-05 -0.044167328)
(-0.68726852 0.00012709061 -0.049756791)
(-0.12521151 -0.00025436138 -3.7950942e-05)
(-0.38002746 -0.00070409056 -0.00026125009)
(-0.65097765 -0.0010945531 -0.0011865802)
(-0.88715702 -0.0013285172 -0.0038425105)
(-1.0265479 -0.0013875604 -0.0099123812)
(-1.0357372 -0.0011713127 -0.020120451)
(-0.93958893 -0.00072311495 -0.032963411)
(-0.80526706 -0.00012058745 -0.043766847)
(-0.6910244 0.00035881404 -0.049377112)
(-0.12435186 -0.00041866582 6.1774256e-06)
(-0.3778719 -0.0011619084 -0.00013281013)
(-0.64820598 -0.0018135782 -0.00096942933)
(-0.88509069 -0.0022127327 -0.0035259824)
(-1.0268512 -0.0023240531 -0.0094562251)
(-1.0393449 -0.0019859761 -0.01949579)
(-0.94612355 -0.0012496079 -0.032179076)
(-0.81302994 -0.00026005645 -0.042941727)
(-0.69860016 0.00053381921 -0.048606432)
(-0.12322182 -0.00057959316 7.1802946e-05)
(-0.37488129 -0.0016135346 5.8208358e-05)
(-0.64412786 -0.0025309917 -0.00064794502)
(-0.88174047 -0.0031100179 -0.0030581209)
(-1.026766 -0.0032865898 -0.0087737205)
(-1.0441482 -0.0028543832 -0.018550004)
(-0.95544775 -0.0018418933 -0.030973541)
(-0.824485 -0.00049001794 -0.041668863)
(-0.70995965 0.00061822676 -0.047424096)
(-0.12154987 -0.00073223567 0.00015810523)
(-0.37044584 -0.0020471037 0.00031286087)
(-0.63799587 -0.0032292846 -0.00021019453)
(-0.87641206 -0.0039942772 -0.0024102802)
(-1.0257493 -0.004191429 -0.007817694)
(-1.0497569 -0.0037602694 -0.017233615)
(-0.96729362 -0.0024019809 -0.029267856)
(-0.83958647 -0.00085224293 -0.039915988)
(-0.72518276 0.00056618435 -0.04580351)
(-0.1192062 -0.00086900047 0.00026317148)
(-0.36418305 -0.0024447068 0.00062706581)
(-0.62918573 -0.0038875684 0.00034214367)
(-0.86830384 -0.0048633529 -0.0015786034)
(-1.0228891 -0.0051537311 -0.0066095585)
(-1.0554645 -0.0047352989 -0.015532123)
(-0.98121422 -0.0031956653 -0.027124172)
(-0.85819815 -0.0014138667 -0.037651987)
(-0.74440099 0.00032193494 -0.043715761)
(-0.11607321 -0.00098111758 0.0003823521)
(-0.35572908 -0.0027844057 0.00099004214)
(-0.61705324 -0.0044757688 0.00099630848)
(-0.85650887 -0.0056868232 -0.00056750009)
(-1.0171542 -0.006133123 -0.0051265459)
(-1.0601707 -0.0056222173 -0.013429917)
(-0.99652104 -0.0041376129 -0.02449067)
(-0.8800861 -0.0021728702 -0.034833853)
(-0.76784555 -0.00018402901 -0.041114082)
(-0.11215372 -0.0010717836 0.00051604609)
(-0.34496544 -0.0030744333 0.0014016334)
(-0.60119664 -0.0050077825 0.0017450298)
(-0.84024247 -0.0064731574 0.00060556703)
(-1.0074608 -0.0071409353 -0.0033788104)
(-1.0628306 -0.0067594996 -0.01097535)
(-1.0124994 -0.0052840599 -0.021357459)
(-0.90512751 -0.003166643 -0.031407348)
(-0.79600081 -0.0010229011 -0.037913358)
(-0.10730979 -0.0011444492 0.00065498037)
(-0.33151235 -0.0033223466 0.0018374335)
(-0.58101563 -0.0054847973 0.0025629103)
(-0.81873143 -0.0072176069 0.0019253929)
(-0.99297827 -0.0081661515 -0.0013643956)
(-1.0628243 -0.0080017455 -0.008106784)
(-1.0289306 -0.0066133418 -0.017652622)
(-0.9337149 -0.0044412151 -0.0272776)
(-0.82981525 -0.0022447933 -0.034016891)
(-0.10133545 -0.0011811358 0.00079563017)
(-0.31485977 -0.0034825785 0.0022923128)
(-0.55580406 -0.0058478892 0.0034445166)
(-0.79120973 -0.0078633403 0.0033859301)
(-0.97302341 -0.0091242405 0.0008975494)
(-1.0597932 -0.0092633844 -0.0048538515)
(-1.0459282 -0.0080882768 -0.013405881)
(-0.96656018 -0.0059730956 -0.02243999)
(-0.87041014 -0.0038279286 -0.029360194)
(-0.094528283 -0.0011958806 0.00094087752)
(-0.29570072 -0.0035860737 0.0027665764)
(-0.52641239 -0.0061370858 0.0043688567)
(-0.75839388 -0.0084576806 0.0049273161)
(-0.9479913 -0.010113381 0.003303228)
(-1.0538091 -0.01067582 -0.0013410072)
(-1.0637444 -0.0098515884 -0.0087205467)
(-1.0043911 -0.0079085983 -0.016932932)
(-0.91904061 -0.0057895585 -0.023825534)
(-0.087000991 -0.0011861046 0.0010635749)
(-0.27451823 -0.0036366383 0.0031852313)
(-0.4938064 -0.0063744749 0.0052343985)
(-0.72157283 -0.0090574466 0.0064854835)
(-0.91900939 -0.011256255 0.0059130994)
(-1.0454052 -0.012530591 0.0026592683)
(-1.0823569 -0.012502668 -0.0032103631)
(-1.0474043 -0.011170478 -0.010328267)
(-0.9778052 -0.0090047123 -0.016750374)
(-0.097081384 0.00041952646 0.00038600918)
(-0.30547368 0.0013224658 0.0011915068)
(-0.54775 0.0023816018 0.0020037516)
(-0.79764832 0.0033437266 0.0026108141)
(-1.013174 0.0037462899 0.00267933)
(-1.1520119 0.0030425117 0.0018209085)
(-1.196139 0.00092907825 -0.00026721489)
(-1.1645533 -0.0023621566 -0.0035874762)
(-1.0957064 -0.0061528856 -0.0079031483)
(-0.10574987 0.00052074765 0.00042273279)
(-0.32985211 0.0016145259 0.0012831728)
(-0.58534434 0.0028494442 0.0020848013)
(-0.84060653 0.0038911162 0.0025522677)
(-1.0487422 0.0041724642 0.0022854856)
(-1.1670376 0.0030724021 0.00085569885)
(-1.1837723 0.00032017463 -0.0020196452)
(-1.1271186 -0.0036648881 -0.0062173736)
(-1.0414026 -0.0078991198 -0.011434493)
(-0.11363447 0.00058673682 0.00041124939)
(-0.35204469 0.0018048803 0.0012288791)
(-0.61950882 0.00315293 0.0019153184)
(-0.87940367 0.0042392876 0.0021602793)
(-1.0804483 0.0044306321 0.0015381262)
(-1.180107 0.0030793106 -0.00038598423)
(-1.1730752 -3.506253e-05 -0.0038661007)
(-1.0958076 -0.0043339319 -0.008614829)
(-0.99813482 -0.0086903702 -0.014021387)
(-0.12060504 0.0006242327 0.00037635267)
(-0.37150969 0.0019067928 0.0011003496)
(-0.64918413 0.0033017712 0.0016117648)
(-0.91264803 0.0043804776 0.0015733779)
(-1.1070599 0.0044737339 0.00055206469)
(-1.1905333 0.0029337991 -0.0018653293)
(-1.1637002 -0.00040918861 -0.0058589372)
(-1.0699893 -0.0048674718 -0.010944377)
(-0.96309946 -0.0092188571 -0.016282426)
(-0.12632509 0.00062439462 0.00032220849)
(-0.3874588 0.0019010323 0.0009168991)
(-0.6733864 0.003275064 0.0012234643)
(-0.93945994 0.0043028578 0.00088836338)
(-1.1279611 0.0043083707 -0.00051977409)
(-1.1978567 0.0026603922 -0.0033749329)
(-1.1549971 -0.0007716764 -0.0077733918)
(-1.048496 -0.0052144722 -0.013044496)
(-0.93468544 -0.0093699749 -0.018197775)
(-0.13101521 0.00059821184 0.00025662996)
(-0.40042857 0.0018167044 0.00070125544)
(-0.69283279 0.0031147086 0.00079338443)
(-0.96055451 0.0040578097 0.00017442321)
(-1.1436682 0.0039959301 -0.0015741159)
(-1.2022302 0.0023264529 -0.0047580907)
(-1.1465434 -0.0010300568 -0.0094725525)
(-1.0302734 -0.0052783799 -0.014890228)
(-0.91147957 -0.0090951137 -0.019808293)
(-0.13482096 0.00054926257 0.00019141776)
(-0.4108156 0.0016633877 0.00048748441)
(-0.70813771 0.0028399157 0.0003714594)
(-0.97668221 0.0036744583 -0.00051256113)
(-1.1549209 0.0035590673 -0.0025457939)
(-1.2040774 0.0019770078 -0.0060435686)
(-1.1381821 -0.0011635618 -0.011025001)
(-1.0146274 -0.0050495653 -0.016499096)
(-0.89244592 -0.0084289916 -0.021164776)
(-0.1377217 0.00047889153 0.00012959883)
(-0.41869259 0.0014482159 0.00028667622)
(-0.71963004 0.0024671571 -1.9449788e-05)
(-0.98852385 0.0031786195 -0.0011374918)
(-1.1626556 0.0030407427 -0.0034103825)
(-1.2041974 0.0016257183 -0.007186623)
(-1.1303825 -0.0011551509 -0.012349316)
(-1.0014755 -0.0045333681 -0.017834347)
(-0.87706355 -0.0074016736 -0.022272333)
(-0.13983255 0.00039084741 7.5429414e-05)
(-0.42441059 0.0011809759 0.00011119859)
(-0.72791886 0.0020082124 -0.00035734759)
(-0.99691122 0.0025707816 -0.0016600021)
(-1.1677366 0.002454236 -0.0041571653)
(-1.2034189 0.0012720552 -0.0081291014)
(-1.1236425 -0.0010209255 -0.013415121)
(-0.99087552 -0.0037709451 -0.018893522)
(-0.86503272 -0.0060662067 -0.023148274)
(-0.14128649 0.00028955954 3.1464193e-05)
(-0.42835589 0.00087450044 -3.0781212e-05)
(-0.73361745 0.0014848899 -0.00062788002)
(-1.0025863 0.0018937494 -0.0020757494)
(-1.1709147 0.0018013928 -0.0047397844)
(-1.2023298 0.00091374052 -0.0088505045)
(-1.1182887 -0.00079121662 -0.014218884)
(-0.98286053 -0.0028195644 -0.019685316)