/*--------------------------------*- C++ -*----------------------------------*\
  =========                 |
  \\      /  F ield         | OpenFOAM: The Open Source CFD Toolbox
   \\    /   O peration     | Website:  https://openfoam.org
    \\  /    A nd           | Version:  10
     \\/     M anipulation  |
\*---------------------------------------------------------------------------*/
FoamFile
{
    format      ascii;
    class       volScalarField;
    location    "23.5";
    object      ddt0(T);
}
// * * * * * * * * * * * * * * * * * * * * * * * * * * * * * * * * * * * * * //

dimensions      [0 0 -1 1 0 0 0];

internalField   nonuniform List<scalar> 
10000
(
1449.83
314.587
422.456
427.851
426.816
426.8
426.865
426.886
426.891
426.894
426.896
426.898
426.9
426.902
426.904
426.905
426.907
426.909
426.911
426.912
426.914
426.916
426.917
426.919
426.92
426.922
426.923
426.925
426.926
426.927
426.929
426.93
426.931
426.933
426.934
426.935
426.936
426.937
426.938
426.939
426.94
426.941
426.942
426.943
426.944
426.945
426.946
426.947
426.948
426.948
426.949
426.95
426.95
426.951
426.952
426.952
426.953
426.953
426.954
426.954
426.955
426.955
426.955
426.956
426.956
426.956
426.957
426.957
426.957
426.957
426.958
426.958
426.958
426.958
426.958
426.959
426.959
426.959
426.959
426.959
426.959
426.959
426.959
426.959
426.959
426.96
426.96
426.96
426.96
426.96
426.96
426.96
426.96
426.959
426.96
426.979
427.078
426.342
408.51
396.778
396.71
-311.434
-134.481
-135.667
-139.344
-139.6
-139.519
-139.493
-139.486
-139.481
-139.476
-139.47
-139.465
-139.46
-139.454
-139.449
-139.444
-139.439
-139.434
-139.429
-139.424
-139.419
-139.414
-139.41
-139.405
-139.4
-139.396
-139.392
-139.387
-139.383
-139.379
-139.375
-139.371
-139.368
-139.364
-139.36
-139.357
-139.353
-139.35
-139.347
-139.344
-139.341
-139.338
-139.335
-139.332
-139.33
-139.327
-139.325
-139.323
-139.32
-139.318
-139.316
-139.314
-139.312
-139.31
-139.309
-139.307
-139.306
-139.304
-139.303
-139.301
-139.3
-139.299
-139.298
-139.297
-139.296
-139.295
-139.294
-139.293
-139.293
-139.292
-139.291
-139.291
-139.29
-139.29
-139.289
-139.289
-139.288
-139.288
-139.288
-139.287
-139.287
-139.287
-139.287
-139.287
-139.286
-139.286
-139.286
-139.286
-139.286
-139.286
-139.286
-139.286
-139.287
-139.287
-139.263
-139.041
-138.529
-144.405
-125.344
483.914
-155.609
18.4966
13.4875
9.20648
8.97413
9.08569
9.12093
9.13195
9.14073
9.14977
9.15887
9.16792
9.17688
9.18575
9.19453
9.2032
9.21176
9.22021
9.22853
9.23673
9.24479
9.25273
9.26053
9.26819
9.27571
9.28308
9.29032
9.2974
9.30434
9.31112
9.31775
9.32423
9.33055
9.3367
9.3427
9.34854
9.35421
9.35972
9.36506
9.37024
9.37526
9.38011
9.3848
9.38932
9.39369
9.39789
9.40194
9.40582
9.40955
9.41313
9.41656
9.41984
9.42297
9.42596
9.42881
9.43152
9.4341
9.43654
9.43886
9.44105
9.44312
9.44507
9.44691
9.44864
9.45026
9.45178
9.4532
9.45453
9.45576
9.45691
9.45797
9.45896
9.45986
9.4607
9.46146
9.46216
9.4628
9.46338
9.46391
9.46438
9.46481
9.46519
9.46552
9.46582
9.46608
9.46631
9.46651
9.46668
9.46682
9.46694
9.46702
9.46688
9.4654
9.45933
9.45632
9.57771
10.0013
6.30378
11.6668
488.64
-156.155
14.2325
8.26235
3.92449
3.72706
3.85394
3.89496
3.90986
3.92231
3.93499
3.94771
3.96034
3.97284
3.98521
3.99745
4.00955
4.02149
4.03327
4.04488
4.05633
4.06759
4.07868
4.08957
4.10028
4.11079
4.12111
4.13122
4.14113
4.15083
4.16032
4.1696
4.17865
4.18749
4.1961
4.20448
4.21264
4.22058
4.22828
4.23575
4.243
4.25001
4.25679
4.26335
4.26968
4.27578
4.28166
4.28731
4.29275
4.29797
4.30297
4.30776
4.31235
4.31673
4.32091
4.32489
4.32868
4.33228
4.3357
4.33893
4.342
4.34489
4.34762
4.3502
4.35261
4.35488
4.357
4.35899
4.36084
4.36257
4.36417
4.36566
4.36703
4.3683
4.36946
4.37053
4.37151
4.37241
4.37322
4.37395
4.37461
4.3752
4.37573
4.3762
4.37662
4.37698
4.3773
4.37756
4.37779
4.37798
4.37815
4.37831
4.37843
4.37763
4.37167
4.35593
4.39994
4.80935
4.3517
4.76642
487.802
-159.3
10.4911
4.46148
0.158854
-0.0185339
0.115953
0.161145
0.179701
0.195776
0.212087
0.228411
0.244613
0.260664
0.276556
0.292277
0.307815
0.32316
0.3383
0.353228
0.367936
0.382417
0.396664
0.410672
0.424436
0.43795
0.45121
0.464209
0.476944
0.489411
0.501604
0.51352
0.525155
0.536506
0.54757
0.558344
0.568827
0.579016
0.588911
0.598511
0.607815
0.616824
0.625538
0.633958
0.642086
0.649923
0.657472
0.664736
0.671717
0.678419
0.684845
0.690999
0.696887
0.702511
0.707878
0.712992
0.717858
0.722483
0.726871
0.73103
0.734965
0.738681
0.742187
0.745488
0.748591
0.751503
0.75423
0.756779
0.759158
0.761372
0.76343
0.765337
0.7671
0.768727
0.770224
0.771597
0.772852
0.773997
0.775037
0.775979
0.776827
0.777588
0.778268
0.778871
0.779402
0.779867
0.78027
0.780614
0.780905
0.781146
0.781349
0.781559
0.781873
0.782086
0.779323
0.763596
0.741461
0.847423
0.916736
0.908547
487.795
-159.52
10.285
4.28793
0.00503349
-0.163805
-0.0247768
0.0241275
0.046315
0.0660233
0.085954
0.105876
0.125647
0.145237
0.164634
0.183824
0.202793
0.221527
0.240013
0.25824
0.2762
0.293883
0.311282
0.328389
0.345198
0.361701
0.377893
0.393767
0.409318
0.424541
0.439429
0.453978
0.468184
0.482043
0.495551
0.508705
0.521502
0.533942
0.546021
0.55774
0.569098
0.580095
0.590732
0.60101
0.610931
0.620498
0.629713
0.638579
0.647099
0.655279
0.663123
0.670634
0.67782
0.684684
0.691234
0.697475
0.703414
0.709058
0.714413
0.719488
0.724289
0.728825
0.733102
0.73713
0.740916
0.744468
0.747795
0.750906
0.753807
0.756509
0.759018
0.761344
0.763495
0.765479
0.767304
0.768979
0.77051
0.771906
0.773174
0.774321
0.775355
0.776283
0.777111
0.777846
0.778494
0.77906
0.77955
0.77997
0.780324
0.780615
0.780849
0.781055
0.781358
0.782005
0.782408
0.777304
0.758702
0.756713
0.774167
0.799836
487.851
-159.45
10.3825
4.40011
0.12472
-0.0395817
0.103191
0.15573
0.181552
0.204889
0.228429
0.251935
0.275262
0.298377
0.321265
0.34391
0.366295
0.388403
0.41022
0.431733
0.452931
0.473803
0.49434
0.514533
0.534373
0.553854
0.572966
0.591703
0.610059
0.628026
0.645598
0.66277
0.679537
0.695893
0.711834
0.727358
0.742461
0.75714
0.771395
0.785224
0.798627
0.811604
0.824155
0.836284
0.84799
0.859278
0.870151
0.880612
0.890666
0.900317
0.90957
0.918433
0.92691
0.935008
0.942735
0.950098
0.957104
0.963762
0.970079
0.976065
0.981728
0.987078
0.992123
0.996873
1.00134
1.00553
1.00945
1.01312
1.01654
1.01972
1.02268
1.02543
1.02796
1.0303
1.03245
1.03442
1.03623
1.03787
1.03937
1.04072
1.04194
1.04303
1.04401
1.04487
1.04563
1.0463
1.04688
1.04737
1.04779
1.04813
1.0484
1.0486
1.0488
1.04922
1.05016
1.05036
1.04493
1.03399
1.02124
1.05675
487.869
-159.427
10.4143
4.43759
0.166372
0.00578535
0.152194
0.208368
0.237822
0.264775
0.291909
0.318984
0.345851
0.372475
0.398839
0.424922
0.450707
0.476174
0.501307
0.52609
0.550511
0.574558
0.598218
0.621483
0.644342
0.666785
0.688805
0.710392
0.731539
0.752238
0.772482
0.792264
0.811579
0.830421
0.848784
0.866666
0.884063
0.900972
0.917392
0.93332
0.948758
0.963704
0.978161
0.992129
1.00561
1.01861
1.03113
1.04318
1.05476
1.06587
1.07653
1.08674
1.0965
1.10582
1.11472
1.1232
1.13126
1.13893
1.1462
1.15309
1.15961
1.16577
1.17158
1.17705
1.18219
1.18701
1.19152
1.19575
1.19968
1.20335
1.20675
1.20991
1.21283
1.21552
1.21799
1.22026
1.22233
1.22423
1.22594
1.2275
1.2289
1.23016
1.23128
1.23227
1.23315
1.23391
1.23457
1.23514
1.23562
1.23601
1.23633
1.23656
1.23671
1.23688
1.23736
1.2383
1.23832
1.2329
1.21247
1.25241
487.874
-159.42
10.4251
4.45227
0.184717
0.0277642
0.17781
0.237616
0.27069
0.301242
0.331953
0.362578
0.392968
0.423083
0.452904
0.482408
0.511575
0.540384
0.568815
0.596851
0.624479
0.651683
0.678451
0.704771
0.730632
0.756023
0.780935
0.805357
0.82928
0.852697
0.875598
0.897976
0.919825
0.941138
0.961911
0.982138
1.00182
1.02094
1.03951
1.05753
1.07499
1.09189
1.10824
1.12404
1.13929
1.15399
1.16816
1.18178
1.19487
1.20744
1.21949
1.23103
1.24207
1.25261
1.26267
1.27226
1.28138
1.29004
1.29826
1.30606
1.31343
1.32039
1.32695
1.33313
1.33894
1.34439
1.34949
1.35426
1.35871
1.36285
1.3667
1.37026
1.37356
1.37659
1.37939
1.38195
1.38429
1.38643
1.38837
1.39012
1.3917
1.39312
1.39439
1.39551
1.39649
1.39736
1.3981
1.39874
1.39928
1.39973
1.40009
1.40036
1.40053
1.40062
1.40076
1.40135
1.40271
1.40101
1.37288
1.42245
487.876
-159.415
10.434
4.4648
0.200881
0.047564
0.201241
0.264666
0.30134
0.335472
0.36974
0.403896
0.437787
0.471373
0.504631
0.537536
0.570065
0.602195
0.633904
0.665175
0.695989
0.726332
0.756189
0.785547
0.814392
0.842713
0.870499
0.897739
0.924422
0.950539
0.976081
1.00104
1.02541
1.04918
1.07234
1.0949
1.11685
1.13817
1.15888
1.17897
1.19844
1.21729
1.23553
1.25314
1.27014
1.28654
1.30232
1.31751
1.33211
1.34612
1.35956
1.37242
1.38473
1.39648
1.40769
1.41838
1.42854
1.4382
1.44736
1.45605
1.46426
1.47201
1.47933
1.48622
1.49269
1.49876
1.50444
1.50975
1.51471
1.51932
1.5236
1.52757
1.53124
1.53463
1.53774
1.54059
1.5432
1.54557
1.54773
1.54968
1.55144
1.55302
1.55442
1.55567
1.55677
1.55773
1.55856
1.55926
1.55986
1.56036
1.56076
1.56106
1.56127
1.56137
1.5614
1.56169
1.56342
1.5643
1.52616
1.58824
487.878
-159.41
10.4431
4.47753
0.217242
0.0675495
0.22484
0.291862
0.332115
0.369806
0.407608
0.445272
0.482643
0.519677
0.556349
0.592632
0.628501
0.66393
0.698897
0.733379
0.76736
0.800821
0.833746
0.86612
0.89793
0.929161
0.959802
0.989841
1.01926
1.04806
1.07623
1.10375
1.13062
1.15683
1.18237
1.20724
1.23144
1.25495
1.27779
1.29994
1.3214
1.34218
1.36228
1.3817
1.40044
1.41851
1.43591
1.45266
1.46875
1.48419
1.499
1.51318
1.52674
1.53969
1.55205
1.56382
1.57502
1.58566
1.59576
1.60532
1.61437
1.62292
1.63097
1.63856
1.64569
1.65237
1.65863
1.66448
1.66994
1.67501
1.67973
1.6841
1.68814
1.69186
1.69528
1.69842
1.70129
1.7039
1.70628
1.70842
1.71036
1.71209
1.71363
1.715
1.71621
1.71726
1.71817
1.71895
1.71961
1.72015
1.72059
1.72092
1.72116
1.72129
1.72129
1.72142
1.72336
1.7266
1.67824
1.7528
487.88
-159.404
10.4522
4.49029
0.233606
0.0875173
0.248398
0.318994
0.362801
0.404025
0.445337
0.486484
0.52731
0.567767
0.607828
0.647466
0.68665
0.725354
0.763553
0.801225
0.838348
0.874903
0.910874
0.946243
0.980995
1.01512
1.04859
1.08141
1.11355
1.14501
1.17578
1.20584
1.2352
1.26383
1.29173
1.31889
1.34532
1.37101
1.39595
1.42014
1.44358
1.46628
1.48823
1.50943
1.5299
1.54963
1.56864
1.58692
1.60449
1.62135
1.63752
1.653
1.66781
1.68195
1.69544
1.70829
1.72051
1.73213
1.74315
1.75359
1.76346
1.77279
1.78158
1.78986
1.79763
1.80493
1.81176
1.81814
1.82409
1.82963
1.83477
1.83953
1.84393
1.84799
1.85172
1.85514
1.85827
1.86112
1.8637
1.86604
1.86814
1.87003
1.87171
1.8732
1.87451
1.87566
1.87665
1.87749
1.87821
1.87879
1.87927
1.87963
1.8799
1.88005
1.88004
1.88006
1.88214
1.88753
1.83023
1.91574
487.882
-159.399
10.4612
4.50295
0.249854
0.107343
0.271787
0.34593
0.393265
0.437995
0.48279
0.527393
0.571646
0.615499
0.658923
0.701887
0.74436
0.786313
0.827719
0.868554
0.908794
0.94842
0.987411
1.02575
1.06342
1.10041
1.13669
1.17226
1.20711
1.24121
1.27456
1.30714
1.33896
1.36999
1.40022
1.42967
1.45831
1.48614
1.51317
1.53939
1.56479
1.58938
1.61317
1.63615
1.65833
1.67971
1.7003
1.72011
1.73914
1.75741
1.77492
1.79169
1.80773
1.82304
1.83766
1.85157
1.86482
1.8774
1.88933
1.90063
1.91132
1.92142
1.93094
1.9399
1.94831
1.95621
1.9636
1.9705
1.97694
1.98293
1.9885
1.99365
1.99841
2.0028
2.00683
2.01053
2.01391
2.01698
2.01978
2.0223
2.02457
2.02661
2.02843
2.03004
2.03145
2.03269
2.03375
2.03467
2.03543
2.03607
2.03657
2.03697
2.03725
2.03742
2.0374
2.03735
2.03949
2.04666
1.98229
2.07664
487.884
-159.393
10.4702
4.5155
0.265962
0.126999
0.294977
0.372637
0.423471
0.471679
0.519926
0.567956
0.615606
0.662827
0.709584
0.755846
0.80158
0.846753
0.891338
0.935308
0.978638
1.02131
1.06329
1.10458
1.14514
1.18497
1.22404
1.26234
1.29986
1.33657
1.37248
1.40756
1.44182
1.47522
1.50778
1.53948
1.57031
1.60028
1.62937
1.65759
1.68494
1.71141
1.73701
1.76175
1.78562
1.80863
1.83079
1.85211
1.87259
1.89225
1.91109
1.92914
1.94639
1.96287
1.97859
1.99357
2.00781
2.02134
2.03418
2.04634
2.05783
2.06869
2.07893
2.08856
2.09761
2.1061
2.11404
2.12146
2.12838
2.13482
2.14079
2.14633
2.15144
2.15615
2.16049
2.16446
2.16808
2.17138
2.17438
2.17709
2.17953
2.18171
2.18366
2.18538
2.1869
2.18822
2.18936
2.19034
2.19116
2.19184
2.19238
2.1928
2.1931
2.19328
2.19327
2.19315
2.19529
2.20378
2.13434
2.23534
487.886
-159.388
10.4791
4.52792
0.281919
0.146473
0.317953
0.3991
0.453401
0.505053
0.556722
0.608147
0.659163
0.709719
0.759779
0.809308
0.858271
0.906635
0.954368
1.00144
1.04784
1.09352
1.13847
1.18267
1.2261
1.26874
1.31057
1.35157
1.39174
1.43105
1.46949
1.50705
1.54371
1.57947
1.61432
1.64825
1.68126
1.71333
1.74447
1.77467
1.80394
1.83228
1.85967
1.88614
1.91169
1.93631
1.96003
1.98284
2.00475
2.02579
2.04595
2.06525
2.08371
2.10134
2.11815
2.13417
2.1494
2.16388
2.1776
2.1906
2.2029
2.2145
2.22545
2.23574
2.24542
2.25449
2.26297
2.2709
2.2783
2.28517
2.29156
2.29747
2.30293
2.30796
2.31258
2.31682
2.32069
2.32421
2.32741
2.3303
2.3329
2.33522
2.3373
2.33913
2.34075
2.34216
2.34337
2.34441
2.34528
2.346
2.34658
2.34702
2.34734
2.34754
2.34753
2.34737
2.34947
2.3588
2.28616
2.39174
487.888
-159.383
10.4879
4.54023
0.297715
0.165753
0.340701
0.425299
0.483033
0.538096
0.593152
0.647938
0.702288
0.756145
0.809474
0.862238
0.914398
0.965919
1.01677
1.06692
1.11634
1.16501
1.2129
1.25998
1.30625
1.35167
1.39623
1.43991
1.4827
1.52457
1.56551
1.60552
1.64457
1.68267
1.71978
1.75592
1.79107
1.82523
1.8584
1.89056
1.92173
1.9519
1.98108
2.00926
2.03646
2.06268
2.08792
2.11221
2.13554
2.15793
2.17939
2.19994
2.21959
2.23835
2.25625
2.27329
2.2895
2.3049
2.31951
2.33334
2.34642
2.35876
2.3704
2.38135
2.39164
2.40128
2.41031
2.41874
2.42659
2.4339
2.44068
2.44696
2.45276
2.45811
2.46302
2.46751
2.47162
2.47536
2.47875
2.48182
2.48457
2.48704
2.48924
2.49118
2.49289
2.49438
2.49567
2.49677
2.49769
2.49845
2.49906
2.49953
2.49987
2.50007
2.50007
2.49988
2.50192
2.51168
2.4375
2.54581
487.889
-159.377
10.4966
4.55239
0.31334
0.184824
0.363205
0.451218
0.512347
0.570786
0.629193
0.687304
0.744951
0.802075
0.858638
0.9146
0.969922
1.02457
1.0785
1.13169
1.18411
1.23573
1.28652
1.33646
1.38553
1.43371
1.48097
1.52729
1.57267
1.61708
1.6605
1.70293
1.74434
1.78474
1.8241
1.86242
1.89969
1.93591
1.97107
2.00518
2.03822
2.07021
2.10114
2.13102
2.15985
2.18764
2.2144
2.24014
2.26487
2.2886
2.31135
2.33312
2.35394
2.37382
2.39278
2.41084
2.42802
2.44433
2.4598
2.47445
2.4883
2.50137
2.51369
2.52529
2.53618
2.54638
2.55594
2.56486
2.57317
2.5809
2.58808
2.59472
2.60085
2.6065
2.61169
2.61644
2.62078
2.62473
2.62831
2.63155
2.63445
2.63706
2.63938
2.64143
2.64323
2.6448
2.64616
2.64731
2.64828
2.64908
2.64972
2.65021
2.65057
2.65078
2.65078
2.65059
2.65255
2.66238
2.58805
2.69754
487.891
-159.372
10.5053
4.56441
0.328782
0.203674
0.385448
0.476837
0.541325
0.6031
0.664819
0.726218
0.787124
0.847477
0.907237
0.966362
1.02481
1.08254
1.13953
1.19572
1.2511
1.30564
1.3593
1.41206
1.4639
1.5148
1.56473
1.61367
1.66161
1.70852
1.75439
1.79921
1.84296
1.88563
1.9272
1.96768
2.00704
2.0453
2.08243
2.11845
2.15335
2.18713
2.21979
2.25134
2.28178
2.31113
2.33938
2.36656
2.39267
2.41772
2.44173
2.46471
2.48668
2.50767
2.52768
2.54673
2.56485
2.58206
2.59838
2.61384
2.62845
2.64224
2.65523
2.66746
2.67894
2.6897
2.69977
2.70917
2.71793
2.72608
2.73363
2.74063
2.74709
2.75304
2.7585
2.7635
2.76807
2.77222
2.77599
2.77939
2.78244
2.78518
2.78761
2.78977
2.79166
2.79331
2.79473
2.79594
2.79696
2.79779
2.79846
2.79898
2.79935
2.79957
2.79958
2.79938
2.80124
2.81088
2.73755
2.84689
487.893
-159.367
10.5138
4.57628
0.344032
0.222291
0.407417
0.502142
0.569947
0.635018
0.700011
0.764657
0.828783
0.892326
0.955244
1.01749
1.07903
1.13981
1.19981
1.25897
1.31728
1.37469
1.43119
1.48674
1.54132
1.5949
1.64746
1.69899
1.74945
1.79884
1.84713
1.89431
1.94036
1.98527
2.02903
2.07163
2.11307
2.15333
2.19241
2.23032
2.26704
2.30259
2.33696
2.37015
2.40219
2.43306
2.46279
2.49138
2.51884
2.54519
2.57045
2.59462
2.61773
2.6398
2.66084
2.68088
2.69993
2.71803
2.73518
2.75143
2.76678
2.78127
2.79493
2.80778
2.81984
2.83114
2.84172
2.85159
2.86079
2.86934
2.87727
2.88461
2.89139
2.89763
2.90336
2.9086
2.91339
2.91774
2.92168
2.92525
2.92845
2.93131
2.93386
2.93611
2.93809
2.93981
2.94129
2.94256
2.94362
2.94449
2.94519
2.94572
2.9461
2.94634
2.94636
2.94616
2.94792
2.95714
2.88571
2.99387
487.895
-159.362
10.5221
4.58799
0.359082
0.240665
0.4291
0.527118
0.598198
0.666523
0.734747
0.802599
0.869903
0.936595
1.00263
1.06796
1.13255
1.19634
1.25931
1.3214
1.3826
1.44286
1.50215
1.56045
1.61773
1.67396
1.72913
1.7832
1.83616
1.88798
1.93866
1.98816
2.03648
2.08361
2.12953
2.17422
2.2177
2.25994
2.30094
2.34071
2.37923
2.41652
2.45257
2.48739
2.52099
2.55337
2.58455
2.61453
2.64333
2.67096
2.69744
2.72279
2.74702
2.77015
2.7922
2.8132
2.83317
2.85214
2.87011
2.88713
2.90322
2.9184
2.9327
2.94616
2.95878
2.97062
2.98169
2.99202
3.00165
3.0106
3.0189
3.02657
3.03366
3.04018
3.04617
3.05165
3.05665
3.0612
3.06532
3.06903
3.07237
3.07536
3.07801
3.08036
3.08242
3.08421
3.08576
3.08707
3.08817
3.08908
3.0898
3.09035
3.09075
3.09099
3.09102
3.09083
3.09248
3.10114
3.03227
3.13845
487.896
-159.357
10.5304
4.59954
0.373924
0.258786
0.450485
0.551753
0.626063
0.697598
0.76901
0.840024
0.910464
0.980263
1.04937
1.11775
1.18534
1.2521
1.318
1.38299
1.44703
1.51009
1.57214
1.63316
1.6931
1.75195
1.80968
1.86626
1.92168
1.97591
2.02893
2.08073
2.13129
2.1806
2.22864
2.2754
2.32088
2.36507
2.40796
2.44956
2.48986
2.52886
2.56657
2.60299
2.63813
2.67199
2.70459
2.73594
2.76606
2.79495
2.82263
2.84913
2.87445
2.89863
2.92169
2.94363
2.9645
2.98431
3.0031
3.02088
3.03768
3.05354
3.06847
3.08252
3.0957
3.10806
3.11961
3.1304
3.14044
3.14977
3.15843
3.16644
3.17382
3.18062
3.18686
3.19257
3.19778
3.20251
3.2068
3.21066
3.21414
3.21724
3.22
3.22244
3.22457
3.22643
3.22804
3.2294
3.23054
3.23148
3.23222
3.23279
3.2332
3.23345
3.23349
3.23331
3.23484
3.24283
3.17701
3.28062
487.898
-159.352
10.5386
4.61092
0.388552
0.276646
0.471564
0.576034
0.653529
0.728229
0.802782
0.876915
0.950445
1.02331
1.09545
1.16682
1.23738
1.30707
1.37585
1.44369
1.51054
1.57637
1.64114
1.70482
1.76739
1.82881
1.88907
1.94813
2.00597
2.06256
2.1179
2.17196
2.22472
2.27618
2.32631
2.37511
2.42256
2.46867
2.51343
2.55683
2.59887
2.63956
2.67889
2.71688
2.75353
2.78886
2.82286
2.85555
2.88696
2.91708
2.94595
2.97358
2.99998
3.02519
3.04922
3.07209
3.09384
3.11449
3.13406
3.15258
3.17009
3.18661
3.20216
3.21679
3.23052
3.24338
3.25541
3.26663
3.27708
3.28679
3.29579
3.30412
3.3118
3.31886
3.32535
3.33128
3.33668
3.3416
3.34604
3.35006
3.35366
3.35687
3.35973
3.36226
3.36447
3.36639
3.36805
3.36946
3.37063
3.3716
3.37237
3.37296
3.37338
3.37363
3.37368
3.37351
3.37493
3.38217
3.3197
3.42036
487.9
-159.347
10.5466
4.62213
0.402959
0.294238
0.492326
0.599951
0.680583
0.7584
0.83605
0.913253
0.989829
1.06571
1.14083
1.21516
1.28864
1.36121
1.43284
1.50348
1.5731
1.64164
1.70909
1.77541
1.84056
1.90452
1.96726
2.02876
2.08898
2.14791
2.20553
2.26181
2.31674
2.37031
2.4225
2.47329
2.52269
2.57069
2.61727
2.66244
2.7062
2.74855
2.78948
2.82902
2.86716
2.90391
2.93929
2.9733
3.00597
3.03731
3.06734
3.09607
3.12354
3.14975
3.17473
3.19852
3.22113
3.24259
3.26294
3.28219
3.30038
3.31754
3.3337
3.3489
3.36316
3.37651
3.389
3.40065
3.4115
3.42157
3.43091
3.43954
3.44751
3.45483
3.46155
3.46769
3.47329
3.47838
3.48299
3.48713
3.49086
3.49418
3.49714
3.49974
3.50203
3.50401
3.50572
3.50717
3.50838
3.50937
3.51016
3.51077
3.51119
3.51146
3.51151
3.51136
3.51265
3.51913
3.46017
3.55763
487.901
-159.343
10.5545
4.63317
0.41714
0.311554
0.512763
0.623494
0.707214
0.788101
0.868797
0.949024
1.0286
1.10744
1.18551
1.26274
1.33909
1.41451
1.48894
1.56234
1.63467
1.7059
1.77598
1.84489
1.91259
1.97904
2.04423
2.10812
2.17068
2.23191
2.29176
2.35023
2.4073
2.46294
2.51715
2.56991
2.62122
2.67107
2.71945
2.76636
2.8118
2.85578
2.89829
2.93934
2.97893
3.01709
3.05382
3.08913
3.12304
3.15557
3.18673
3.21655
3.24505
3.27225
3.29817
3.32285
3.3463
3.36856
3.38966
3.40962
3.42849
3.44628
3.46303
3.47878
3.49355
3.50739
3.52032
3.53239
3.54362
3.55405
3.56371
3.57265
3.58088
3.58846
3.59541
3.60175
3.60754
3.61279
3.61755
3.62183
3.62567
3.6291
3.63214
3.63483
3.63718
3.63922
3.64097
3.64246
3.6437
3.64472
3.64553
3.64615
3.64658
3.64685
3.64691
3.64677
3.64795
3.65366
3.59823
3.69241
487.903
-159.338
10.5622
4.64402
0.43109
0.328587
0.532866
0.646653
0.733411
0.817317
0.90101
0.984211
1.06673
1.1485
1.22946
1.30955
1.38873
1.46693
1.54411
1.62023
1.69524
1.7691
1.84178
1.91323
1.98342
2.05233
2.11992
2.18617
2.25104
2.31451
2.37657
2.43719
2.49635
2.55403
2.61023
2.66492
2.71811
2.76977
2.81992
2.86854
2.91563
2.9612
3.00525
3.04779
3.08881
3.12835
3.1664
3.20298
3.23811
3.2718
3.30408
3.33496
3.36447
3.39263
3.41947
3.44502
3.4693
3.49234
3.51417
3.53483
3.55434
3.57275
3.59007
3.60636
3.62164
3.63594
3.64931
3.66178
3.67338
3.68415
3.69414
3.70336
3.71186
3.71968
3.72684
3.73339
3.73935
3.74477
3.74966
3.75407
3.75802
3.76155
3.76468
3.76743
3.76985
3.77194
3.77374
3.77526
3.77654
3.77758
3.7784
3.77903
3.77947
3.77974
3.7798
3.77969
3.78076
3.7857
3.73376
3.82467
487.904
-159.334
10.5699
4.65469
0.444803
0.345332
0.552629
0.669419
0.759164
0.846037
0.932677
1.0188
1.10422
1.18886
1.27266
1.35556
1.43752
1.51846
1.59835
1.67714
1.75478
1.83123
1.90644
1.9804
2.05305
2.12436
2.19432
2.26287
2.33001
2.3957
2.45991
2.52264
2.58386
2.64354
2.70169
2.75827
2.8133
2.86675
2.91863
2.96892
3.01763
3.06477
3.11033
3.15432
3.19675
3.23763
3.27698
3.3148
3.35112
3.38595
3.41932
3.45124
3.48174
3.51084
3.53858
3.56497
3.59005
3.61385
3.63641
3.65774
3.67789
3.69689
3.71478
3.73159
3.74735
3.76211
3.7759
3.78876
3.80072
3.81183
3.82211
3.83162
3.84038
3.84842
3.8558
3.86254
3.86867
3.87424
3.87927
3.8838
3.88785
3.89147
3.89468
3.89751
3.89998
3.90212
3.90396
3.90552
3.90681
3.90787
3.90871
3.90935
3.9098
3.91007
3.91014
3.91003
3.911
3.91522
3.86662
3.95435
487.906
-159.329
10.5774
4.66517
0.458275
0.361781
0.572043
0.691783
0.784462
0.87425
0.963785
1.05278
1.14105
1.2285
1.31509
1.40076
1.48544
1.56908
1.65163
1.73303
1.81325
1.89224
1.96996
2.04637
2.12143
2.19511
2.26738
2.33821
2.40756
2.47542
2.54176
2.60655
2.66978
2.73143
2.79149
2.84993
2.90676
2.96196
3.01553
3.06747
3.11777
3.16643
3.21347
3.25889
3.30269
3.34489
3.38551
3.42454
3.46203
3.49797
3.5324
3.56533
3.5968
3.62682
3.65543
3.68266
3.70852
3.73306
3.75631
3.77831
3.79907
3.81866
3.83709
3.8544
3.87064
3.88584
3.90004
3.91327
3.92558
3.93701
3.94759
3.95736
3.96637
3.97464
3.98221
3.98913
3.99543
4.00114
4.0063
4.01094
4.0151
4.01881
4.02209
4.02498
4.0275
4.02969
4.03157
4.03316
4.03448
4.03555
4.03641
4.03705
4.03751
4.03778
4.03785
4.03775
4.03862
4.04215
3.99673
4.08143
487.907
-159.325
10.5847
4.67547
0.471501
0.37793
0.591102
0.713738
0.809297
0.901946
0.994322
1.08614
1.17719
1.26742
1.35675
1.44512
1.53248
1.61876
1.70392
1.7879
1.87065
1.95213
2.0323
2.11111
2.18854
2.26454
2.33908
2.41213
2.48367
2.55365
2.62207
2.68889
2.75409
2.81767
2.87959
2.93986
2.99845
3.05537
3.1106
3.16414
3.21599
3.26616
3.31464
3.36145
3.4066
3.45009
3.49194
3.53216
3.57078
3.60781
3.64328
3.6772
3.70961
3.74053
3.76999
3.79802
3.82465
3.84991
3.87384
3.89647
3.91784
3.93799
3.95694
3.97475
3.99145
4.00707
4.02167
4.03527
4.04791
4.05965
4.07051
4.08055
4.08978
4.09827
4.10604
4.11313
4.11958
4.12543
4.13071
4.13546
4.13971
4.1435
4.14685
4.1498
4.15237
4.1546
4.15651
4.15812
4.15947
4.16056
4.16142
4.16207
4.16253
4.1628
4.16287
4.16279
4.16357
4.16647
4.12399
4.20585
487.909
-159.32
10.5919
4.68556
0.484475
0.393771
0.609799
0.735275
0.833659
0.929115
1.02428
1.11885
1.21265
1.30559
1.39761
1.48864
1.57862
1.6675
1.75521
1.84171
1.92694
2.01086
2.09344
2.17461
2.25435
2.33263
2.40939
2.48463
2.55829
2.63036
2.70081
2.76962
2.83676
2.90222
2.96597
3.02802
3.08834
3.14693
3.20378
3.25889
3.31226
3.3639
3.4138
3.46197
3.50842
3.55317
3.59623
3.63761
3.67734
3.71543
3.75191
3.7868
3.82013
3.85192
3.88221
3.91102
3.93839
3.96435
3.98894
4.0122
4.03415
4.05484
4.07431
4.09259
4.10973
4.12577
4.14074
4.15469
4.16766
4.17969
4.19083
4.20111
4.21057
4.21926
4.22721
4.23447
4.24106
4.24704
4.25244
4.25729
4.26163
4.26549
4.26891
4.27191
4.27453
4.2768
4.27873
4.28037
4.28173
4.28284
4.28371
4.28436
4.28482
4.28509
4.28516
4.28509
4.28578
4.28811
4.24835
4.32758
487.91
-159.316
10.599
4.69546
0.497195
0.409301
0.628126
0.756388
0.85754
0.955747
1.05364
1.15093
1.24741
1.34301
1.43766
1.53129
1.62384
1.71526
1.80548
1.89444
1.98211
2.06843
2.15335
2.23684
2.31885
2.39934
2.47829
2.55566
2.63141
2.70552
2.77796
2.84871
2.91774
2.98504
3.05059
3.11438
3.17639
3.23662
3.29505
3.3517
3.40655
3.45962
3.5109
3.5604
3.60813
3.65411
3.69835
3.74086
3.78167
3.82079
3.85826
3.89408
3.9283
3.96095
3.99204
4.02161
4.0497
4.07635
4.10158
4.12543
4.14795
4.16917
4.18913
4.20787
4.22544
4.24187
4.25721
4.2715
4.28478
4.2971
4.30849
4.31901
4.32868
4.33757
4.34569
4.3531
4.35984
4.36594
4.37144
4.37639
4.38081
4.38474
4.38821
4.39127
4.39393
4.39623
4.39819
4.39985
4.40123
4.40234
4.40322
4.40388
4.40433
4.4046
4.40467
4.4046
4.40522
4.40703
4.36976
4.44656
487.911
-159.312
10.6059
4.70516
0.509654
0.424513
0.646079
0.777068
0.880931
0.981832
1.0824
1.18234
1.28145
1.37966
1.47688
1.57306
1.66814
1.76204
1.85471
1.94609
2.03614
2.12479
2.21202
2.29777
2.382
2.46467
2.54575
2.62521
2.703
2.7791
2.85349
2.92614
2.99702
3.06612
3.13342
3.19891
3.26257
3.32439
3.38438
3.44252
3.49883
3.55329
3.60591
3.65671
3.70569
3.75286
3.79825
3.84186
3.88372
3.92385
3.96227
3.99901
4.0341
4.06757
4.09944
4.12976
4.15855
4.18585
4.2117
4.23613
4.2592
4.28093
4.30136
4.32055
4.33853
4.35534
4.37103
4.38565
4.39923
4.41182
4.42346
4.4342
4.44408
4.45314
4.46144
4.46899
4.47586
4.48208
4.48768
4.49271
4.49721
4.5012
4.50473
4.50783
4.51052
4.51285
4.51484
4.51652
4.5179
4.51902
4.51991
4.52056
4.52102
4.52128
4.52135
4.52129
4.52183
4.52318
4.48816
4.56275
487.913
-159.308
10.6127
4.71465
0.52185
0.439403
0.663652
0.797309
0.903827
1.00736
1.11055
1.21308
1.31477
1.41552
1.51527
1.61394
1.71148
1.80781
1.90288
1.99663
2.089
2.17995
2.26943
2.35739
2.44379
2.52859
2.61175
2.69325
2.77303
2.85109
2.92738
3.00188
3.07457
3.14542
3.21443
3.28158
3.34685
3.41023
3.47173
3.53134
3.58905
3.64487
3.69881
3.75087
3.80106
3.8494
3.8959
3.94059
3.98347
4.02458
4.06393
4.10156
4.13749
4.17176
4.20439
4.23542
4.26488
4.29282
4.31927
4.34427
4.36786
4.39008
4.41098
4.43059
4.44896
4.46614
4.48217
4.4971
4.51096
4.52381
4.53569
4.54665
4.55672
4.56596
4.5744
4.5821
4.58909
4.59541
4.60111
4.60622
4.61078
4.61484
4.61841
4.62155
4.62428
4.62663
4.62864
4.63033
4.63172
4.63285
4.63373
4.63439
4.63484
4.6351
4.63517
4.63511
4.63558
4.63652
4.60354
4.67611
487.914
-159.304
10.6194
4.72394
0.53378
0.453967
0.680838
0.817106
0.926218
1.03233
1.13808
1.24315
1.34735
1.4506
1.55281
1.65392
1.75386
1.85257
1.94999
2.04604
2.14069
2.23388
2.32555
2.41567
2.50419
2.59107
2.67627
2.75976
2.84149
2.92145
2.99959
3.0759
3.15035
3.22293
3.2936
3.36237
3.42921
3.49411
3.55708
3.61811
3.6772
3.73435
3.78956
3.84285
3.89422
3.9437
3.99128
4.03701
4.08088
4.12294
4.1632
4.20168
4.23843
4.27347
4.30684
4.33856
4.36868
4.39724
4.42427
4.44981
4.47391
4.4966
4.51794
4.53796
4.55671
4.57424
4.5906
4.60582
4.61995
4.63305
4.64516
4.65631
4.66657
4.67597
4.68456
4.69239
4.69949
4.70591
4.71169
4.71688
4.7215
4.72561
4.72923
4.7324
4.73516
4.73753
4.73955
4.74125
4.74265
4.74378
4.74467
4.74532
4.74577
4.74602
4.74608
4.74602
4.74644
4.74702
4.71587
4.78661
487.915
-159.3
10.6259
4.73301
0.545438
0.4682
0.697634
0.836452
0.948101
1.05673
1.16498
1.27253
1.37919
1.48487
1.58949
1.69298
1.79528
1.89631
1.99601
2.09432
2.19119
2.28656
2.38039
2.47261
2.5632
2.65211
2.7393
2.82472
2.90836
2.99017
3.07012
3.1482
3.22437
3.29861
3.37091
3.44125
3.50962
3.57601
3.64041
3.70282
3.76325
3.82168
3.87814
3.93262
3.98514
4.03572
4.08436
4.13109
4.17593
4.21891
4.26004
4.29936
4.3369
4.37269
4.40677
4.43916
4.46992
4.49907
4.52665
4.55272
4.5773
4.60045
4.62221
4.64263
4.66175
4.67961
4.69628
4.71178
4.72617
4.7395
4.75182
4.76317
4.7736
4.78315
4.79188
4.79983
4.80703
4.81355
4.81941
4.82466
4.82934
4.83349
4.83715
4.84035
4.84313
4.84552
4.84755
4.84926
4.85066
4.85179
4.85267
4.85332
4.85376
4.85401
4.85407
4.854
4.85436
4.85464
4.82513
4.89421
487.917
-159.296
10.6322
4.74187
0.556823
0.482098
0.714036
0.855344
0.969468
1.08056
1.19125
1.30122
1.41028
1.51833
1.6253
1.73112
1.83571
1.93901
2.04094
2.14145
2.24049
2.33799
2.43391
2.52819
2.6208
2.71168
2.80081
2.88813
2.97361
3.05723
3.13895
3.21874
3.29658
3.37246
3.44634
3.51821
3.58807
3.6559
3.72169
3.78545
3.84718
3.90687
3.96453
4.02017
4.07381
4.12545
4.17512
4.22283
4.2686
4.31247
4.35445
4.39458
4.43288
4.4694
4.50416
4.5372
4.56856
4.59828
4.6264
4.65297
4.67803
4.70162
4.72378
4.74458
4.76404
4.78223
4.79918
4.81495
4.82959
4.84315
4.85566
4.86719
4.87778
4.88748
4.89634
4.90439
4.9117
4.91829
4.92422
4.92953
4.93426
4.93846
4.94215
4.94537
4.94817
4.95057
4.95261
4.95432
4.95573
4.95685
4.95773
4.95837
4.9588
4.95904
4.95909
4.95903
4.95934
4.95934
4.93131
4.99887
487.918
-159.292
10.6384
4.75052
0.567932
0.49566
0.730039
0.873777
0.990315
1.10381
1.21687
1.32921
1.44061
1.55098
1.66024
1.76832
1.87515
1.98066
2.08477
2.18743
2.28858
2.38815
2.48611
2.5824
2.67697
2.76978
2.86079
2.94996
3.03724
3.12262
3.20606
3.28752
3.36699
3.44445
3.51986
3.59323
3.66453
3.73376
3.80091
3.86598
3.92897
3.98987
4.04871
4.10547
4.16019
4.21287
4.26353
4.31218
4.35886
4.40359
4.44639
4.4873
4.52634
4.56356
4.59898
4.63264
4.66459
4.69486
4.7235
4.75055
4.77606
4.80007
4.82262
4.84377
4.86357
4.88206
4.89929
4.91532
4.93019
4.94395
4.95666
4.96836
4.9791
4.98893
4.9979
5.00606
5.01345
5.02012
5.02612
5.03148
5.03626
5.04048
5.0442
5.04744
5.05026
5.05267
5.05471
5.05642
5.05782
5.05894
5.05981
5.06045
5.06087
5.0611
5.06114
5.06107
5.06133
5.06111
5.03441
5.10058
487.919
-159.289
10.6444
4.75895
0.578763
0.508881
0.745641
0.891746
1.01064
1.12647
1.24186
1.35649
1.47017
1.5828
1.6943
1.80459
1.9136
2.02125
2.12749
2.23223
2.33544