/*--------------------------------*- C++ -*----------------------------------*\
  =========                 |
  \\      /  F ield         | OpenFOAM: The Open Source CFD Toolbox
   \\    /   O peration     | Website:  https://openfoam.org
    \\  /    A nd           | Version:  10
     \\/     M anipulation  |
\*---------------------------------------------------------------------------*/
FoamFile
{
    format      ascii;
    class       volScalarField;
    location    "23.5";
    object      T_0;
}
// * * * * * * * * * * * * * * * * * * * * * * * * * * * * * * * * * * * * * //

dimensions      [0 0 0 1 0 0 0];

internalField   nonuniform List<scalar> 
10000
(
374.975
361.272
356.58
354.518
353.394
352.681
352.181
351.806
351.51
351.268
351.065
350.889
350.736
350.599
350.475
350.363
350.259
350.163
350.072
349.988
349.908
349.831
349.759
349.69
349.623
349.559
349.497
349.438
349.38
349.324
349.27
349.217
349.166
349.117
349.068
349.021
348.975
348.93
348.886
348.844
348.802
348.761
348.722
348.683
348.645
348.608
348.572
348.537
348.503
348.47
348.437
348.405
348.374
348.344
348.315
348.286
348.258
348.231
348.205
348.179
348.154
348.13
348.106
348.084
348.062
348.04
348.02
348
347.98
347.962
347.944
347.926
347.91
347.894
347.878
347.864
347.85
347.836
347.823
347.811
347.8
347.789
347.779
347.769
347.76
347.751
347.743
347.736
347.729
347.723
347.718
347.713
347.709
347.705
347.702
347.699
347.697
347.696
347.695
347.695
388.596
374.805
367.116
362.619
359.776
357.835
356.423
355.342
354.48
353.77
353.17
352.651
352.195
351.788
351.42
351.084
350.774
350.486
350.216
349.963
349.723
349.495
349.278
349.07
348.871
348.679
348.494
348.316
348.143
347.976
347.813
347.656
347.502
347.353
347.208
347.066
346.929
346.794
346.663
346.535
346.41
346.288
346.17
346.053
345.94
345.83
345.722
345.616
345.514
345.413
345.316
345.22
345.127
345.037
344.949
344.863
344.779
344.698
344.619
344.542
344.467
344.394
344.324
344.256
344.19
344.126
344.064
344.004
343.946
343.89
343.836
343.784
343.734
343.686
343.64
343.596
343.554
343.514
343.475
343.439
343.404
343.371
343.341
343.311
343.284
343.259
343.235
343.213
343.193
343.175
343.159
343.144
343.131
343.12
343.11
343.103
343.097
343.093
343.09
343.09
393.2
382.233
374.457
369.066
365.253
362.459
360.334
358.659
357.297
356.161
355.192
354.349
353.604
352.937
352.332
351.778
351.267
350.79
350.344
349.924
349.527
349.149
348.788
348.443
348.112
347.793
347.486
347.189
346.901
346.623
346.353
346.09
345.835
345.587
345.345
345.11
344.88
344.656
344.438
344.225
344.017
343.814
343.616
343.423
343.234
343.05
342.87
342.695
342.524
342.357
342.194
342.035
341.88
341.729
341.582
341.439
341.3
341.164
341.033
340.904
340.78
340.659
340.542
340.428
340.318
340.211
340.108
340.008
339.911
339.818
339.729
339.642
339.559
339.479
339.402
339.329
339.259
339.192
339.128
339.067
339.009
338.955
338.903
338.855
338.809
338.767
338.728
338.691
338.658
338.628
338.6
338.576
338.554
338.535
338.52
338.507
338.497
338.49
338.486
338.485
395.175
386.469
379.413
373.936
369.712
366.416
363.795
361.663
359.891
358.388
357.09
355.952
354.939
354.026
353.196
352.433
351.727
351.068
350.45
349.867
349.314
348.789
348.287
347.806
347.344
346.9
346.471
346.057
345.655
345.267
344.889
344.523
344.166
343.819
343.481
343.152
342.831
342.518
342.213
341.915
341.625
341.341
341.064
340.794
340.53
340.272
340.021
339.775
339.536
339.302
339.074
338.852
338.636
338.425
338.219
338.019
337.824
337.634
337.45
337.271
337.096
336.927
336.763
336.604
336.45
336.3
336.156
336.016
335.881
335.751
335.625
335.504
335.388
335.276
335.169
335.066
334.968
334.874
334.784
334.699
334.619
334.542
334.47
334.402
334.339
334.28
334.224
334.174
334.127
334.084
334.046
334.012
333.982
333.956
333.934
333.916
333.902
333.892
333.887
333.885
396.212
389.052
382.793
377.553
373.243
369.701
366.768
364.309
362.217
360.412
358.832
357.431
356.175
355.037
353.996
353.035
352.143
351.309
350.524
349.783
349.079
348.409
347.769
347.155
346.565
345.996
345.447
344.917
344.403
343.905
343.421
342.951
342.494
342.049
341.616
341.193
340.782
340.38
339.988
339.606
339.233
338.869
338.513
338.166
337.827
337.496
337.173
336.858
336.551
336.251
335.958
335.673
335.394
335.123
334.859
334.602
334.352
334.108
333.871
333.641
333.417
333.2
332.989
332.784
332.586
332.394
332.209
332.029
331.856
331.688
331.527
331.371
331.222
331.078
330.94
330.808
330.682
330.561
330.447
330.337
330.234
330.135
330.043
329.956
329.874
329.798
329.727
329.662
329.602
329.547
329.498
329.454
329.415
329.382
329.353
329.331
329.313
329.3
329.293
329.291
396.839
390.733
385.154
380.243
376.006
372.378
369.269
366.589
364.259
362.212
360.397
358.77
357.298
355.954
354.718
353.573
352.506
351.504
350.56
349.667
348.817
348.006
347.231
346.486
345.77
345.08
344.413
343.768
343.143
342.536
341.948
341.375
340.818
340.276
339.748
339.233
338.731
338.241
337.764
337.297
336.842
336.398
335.964
335.54
335.127
334.723
334.329
333.944
333.569
333.203
332.845
332.497
332.157
331.826
331.504
331.19
330.884
330.587
330.298
330.016
329.743
329.478
329.22
328.971
328.729
328.494
328.268
328.048
327.837
327.632
327.435
327.245
327.063
326.887
326.719
326.558
326.403
326.256
326.116
325.982
325.856
325.736
325.623
325.516
325.417
325.324
325.237
325.157
325.084
325.017
324.957
324.903
324.856
324.815
324.781
324.753
324.731
324.716
324.707
324.705
397.252
391.885
386.847
382.26
378.162
374.538
371.343
368.522
366.02
363.786
361.777
359.957
358.296
356.769
355.355
354.04
352.808
351.649
350.553
349.513
348.522
347.576
346.669
345.797
344.958
344.148
343.365
342.607
341.873
341.16
340.467
339.794
339.138
338.5
337.877
337.271
336.679
336.102
335.539
334.989
334.452
333.928
333.417
332.917
332.429
331.953
331.488
331.034
330.591
330.159
329.738
329.327
328.926
328.535
328.155
327.784
327.423
327.072
326.731
326.399
326.076
325.763
325.459
325.164
324.879
324.602
324.334
324.075
323.825
323.584
323.351
323.127
322.912
322.704
322.506
322.315
322.133
321.959
321.794
321.636
321.487
321.345
321.212
321.086
320.968
320.858
320.756
320.662
320.576
320.497
320.426
320.362
320.306
320.258
320.217
320.184
320.159
320.141
320.13
320.128
397.541
392.708
388.092
383.789
379.847
376.272
373.047
370.14
367.516
365.138
362.973
360.99
359.165
357.475
355.901
354.428
353.044
351.736
350.497
349.318
348.192
347.114
346.08
345.085
344.126
343.199
342.303
341.435
340.592
339.774
338.979
338.206
337.453
336.719
336.004
335.307
334.626
333.963
333.315
332.682
332.064
331.461
330.872
330.297
329.735
329.187
328.651
328.129
327.619
327.121
326.635
326.162
325.7
325.25
324.812
324.385
323.969
323.565
323.171
322.789
322.417
322.056
321.706
321.366
321.037
320.718
320.41
320.112
319.823
319.545
319.277
319.019
318.77
318.532
318.302
318.083
317.873
317.673
317.482
317.3
317.128
316.965
316.811
316.666
316.53
316.404
316.286
316.177
316.078
315.987
315.905
315.832
315.767
315.712
315.665
315.627
315.597
315.577
315.565
315.561
397.751
393.312
389.023
384.96
381.166
377.658
374.435
371.48
368.77
366.283
363.991
361.872
359.905
358.07
356.352
354.736
353.211
351.765
350.39
349.078
347.823
346.62
345.463
344.348
343.272
342.232
341.225
340.248
339.3
338.379
337.483
336.611
335.762
334.934
334.128
333.34
332.572
331.823
331.091
330.376
329.678
328.996
328.331
327.68
327.045
326.425
325.82
325.229
324.652
324.089
323.54
323.004
322.482
321.973
321.477
320.994
320.523
320.066
319.621
319.188
318.767
318.359
317.963
317.578
317.206
316.845
316.496
316.158
315.832
315.517
315.214
314.921
314.64
314.37
314.111
313.862
313.625
313.398
313.182
312.976
312.781
312.596
312.422
312.258
312.105
311.961
311.828
311.705
311.592
311.489
311.397
311.314
311.241
311.178
311.125
311.082
311.048
311.025
311.011
311.008
397.908
393.765
389.731
385.863
382.201
378.764
375.558
372.577
369.808
367.236
364.842
362.609
360.519
358.557
356.709
354.962
353.306
351.731
350.229
348.792
347.414
346.09
344.814
343.584
342.395
341.244
340.129
339.047
337.995
336.973
335.978
335.009
334.066
333.145
332.248
331.372
330.517
329.682
328.867
328.071
327.294
326.534
325.792
325.068
324.36
323.669
322.994
322.335
321.692
321.064
320.452
319.854
319.272
318.704
318.151
317.612
317.087
316.577
316.08
315.597
315.128
314.672
314.23
313.801
313.385
312.983
312.593
312.216
311.852
311.501
311.162
310.836
310.522
310.221
309.931
309.654
309.389
309.136
308.895
308.665
308.447
308.241
308.047
307.864
307.693
307.533
307.384
307.247
307.121
307.006
306.902
306.81
306.729
306.658
306.599
306.551
306.514
306.488
306.472
306.468
398.026
394.11
390.273
386.564
383.013
379.642
376.459
373.466
370.655
368.017
365.539
363.209
361.012
358.938
356.973
355.107
353.331
351.635
350.013
348.458
346.963
345.523
344.134
342.792
341.494
340.236
339.015
337.83
336.677
335.556
334.464
333.4
332.363
331.351
330.365
329.401
328.461
327.542
326.645
325.768
324.912
324.076
323.258
322.46
321.68
320.918
320.174
319.448
318.739
318.047
317.372
316.713
316.071
315.444
314.834
314.24
313.661
313.098
312.55
312.018
311.5
310.997
310.509
310.036
309.578
309.133
308.704
308.288
307.886
307.499
307.125
306.765
306.419
306.086
305.767
305.461
305.168
304.889
304.622
304.369
304.129
303.902
303.687
303.485
303.296
303.119
302.955
302.804
302.665
302.538
302.424
302.322
302.232
302.154
302.089
302.036
301.995
301.966
301.949
301.945
398.116
394.373
390.691
387.107
383.649
380.335
377.177
374.177
371.334
368.643
366.095
363.682
361.393
359.218
357.147
355.173
353.285
351.478
349.743
348.075
346.469
344.919
343.422
341.972
340.568
339.206
337.883
336.597
335.345
334.127
332.94
331.783
330.654
329.553
328.478
327.428
326.403
325.402
324.424
323.468
322.533
321.621
320.729
319.857
319.006
318.174
317.362
316.569
315.794
315.039
314.301
313.581
312.88
312.195
311.529
310.879
310.247
309.631
309.033
308.451
307.885
307.336
306.802
306.285
305.784
305.298
304.828
304.374
303.935
303.511
303.103
302.709
302.33
301.967
301.618
301.283
300.963
300.658
300.367
300.09
299.827
299.578
299.344
299.123
298.916
298.723
298.544
298.378
298.226
298.087
297.962
297.851
297.753
297.668
297.597
297.538
297.494
297.462
297.444
297.438
398.185
394.575
391.013
387.528
384.144
380.878
377.74
374.737
371.868
369.133
366.525
364.039
361.668
359.403
357.236
355.162
353.172
351.26
349.419
347.646
345.934
344.278
342.676
341.123
339.617
338.154
336.731
335.347
334
332.687
331.407
330.158
328.939
327.75
326.588
325.454
324.345
323.262
322.204
321.169
320.158
319.17
318.204
317.261
316.339
315.438
314.558
313.698
312.859
312.04
311.24
310.46
309.7
308.958
308.235
307.531
306.845
306.178
305.529
304.897
304.284
303.688
303.11
302.549
302.005
301.478
300.969
300.476
300
299.54
299.097
298.67
298.259
297.864
297.486
297.123
296.776
296.444
296.128
295.828
295.543
295.273
295.019
294.779
294.555
294.345
294.151
293.971
293.806
293.656
293.52
293.399
293.292
293.2
293.123
293.06
293.011
292.977
292.957
292.951
398.237
394.729
391.259
387.851
384.525
381.296
378.174
375.167
372.276
369.502
366.842
364.292
361.846
359.499
357.245
355.079
352.993
350.983
349.043
347.169
345.357
343.601
341.898
340.246
338.641
337.08
335.561
334.082
332.64
331.235
329.864
328.525
327.219
325.943
324.696
323.478
322.287
321.124
319.986
318.874
317.787
316.725
315.686
314.671
313.678
312.709
311.762
310.837
309.933
309.051
308.191
307.351
306.532
305.733
304.954
304.196
303.457
302.739
302.039
301.359
300.698
300.056
299.433
298.829
298.243
297.675
297.126
296.595
296.082
295.586
295.109
294.649
294.206
293.781
293.372
292.981
292.607
292.25
291.91
291.586
291.279
290.988
290.713
290.455
290.213
289.988
289.778
289.584
289.406
289.244
289.098
288.967
288.853
288.753
288.67
288.602
288.549
288.512
288.491
288.485
398.277
394.846
391.444
388.095
384.812
381.611
378.5
375.487
372.575
369.766
367.058
364.449
361.936
359.514
357.18
354.927
352.753
350.651
348.617
346.648
344.739
342.887
341.089
339.341
337.64
335.985
334.372
332.8
331.267
329.771
328.311
326.885
325.492
324.131
322.801
321.501
320.229
318.986
317.771
316.583
315.421
314.284
313.174
312.088
311.026
309.989
308.975
307.985
307.018
306.074
305.153
304.254
303.377
302.521
301.688
300.875
300.084
299.314
298.565
297.837
297.129
296.441
295.773
295.126
294.498
293.89
293.302
292.732
292.183
291.652
291.14
290.647
290.172
289.717
289.279
288.86
288.459
288.076
287.712
287.365
287.035
286.724
286.429
286.153
285.894
285.652
285.427
285.219
285.028
284.855
284.698
284.558
284.435
284.329
284.239
284.166
284.11
284.07
284.047
284.041
398.306
394.932
391.582
388.274
385.023
381.84
378.735
375.713
372.78
369.937
367.184
364.521
361.945
359.454
357.045
354.712
352.454
350.265
348.143
346.083
344.083
342.139
340.248
338.408
336.615
334.868
333.165
331.503
329.881
328.297
326.75
325.238
323.76
322.316
320.904
319.523
318.172
316.851
315.559
314.295
313.059
311.85
310.668
309.513
308.383
307.278
306.199
305.145
304.115
303.11
302.128
301.17
300.235
299.324
298.436
297.57
296.727
295.907
295.108
294.332
293.577
292.844
292.132
291.442
290.772
290.124
289.497
288.89
288.303
287.737
287.192
286.666
286.16
285.674
285.207
284.761
284.333
283.925
283.536
283.165
282.814
282.482
282.168
281.873
281.597
281.338
281.099
280.877
280.674
280.488
280.321
280.172
280.041
279.927
279.832
279.754
279.694
279.652
279.627
279.62
398.327
394.993
391.679
388.4
385.17
381.997
378.891
375.858
372.902
370.026
367.231
364.517
361.883
359.326
356.846
354.438
352.101
349.83
347.624
345.478
343.39
341.358
339.378
337.449
335.567
333.732
331.94
330.191
328.482
326.812
325.18
323.584
322.024
320.498
319.005
317.544
316.116
314.718
313.35
312.012
310.703
309.423
308.171
306.946
305.749
304.578
303.434
302.316
301.224
300.158
299.117
298.101
297.109
296.143
295.2
294.282
293.387
292.516
291.669
290.845
290.044
289.266
288.51
287.777
287.067
286.379
285.713
285.068
284.446
283.845
283.265
282.707
282.17
281.654
281.158
280.684
280.23
279.796
279.383
278.99
278.617
278.264
277.931
277.618
277.324
277.05
276.795
276.56
276.344
276.147
275.97
275.811
275.672
275.551
275.45
275.367
275.303
275.258
275.232
275.225
398.341
395.034
391.743
388.483
385.263
382.094
378.982
375.934
372.953
370.044
367.208
364.445
361.755
359.137
356.589
354.11
351.698
349.349
347.062
344.834
342.662
340.545
338.48
336.464
334.497
332.576
330.698
328.864
327.071
325.317
323.602
321.924
320.283
318.677
317.105
315.567
314.061
312.588
311.146
309.735
308.354
307.003
305.682
304.389
303.125
301.889
300.681
299.5
298.347
297.22
296.12
295.047
293.999
292.977
291.981
291.011
290.065
289.144
288.249
287.377
286.53
285.708
284.909
284.134
283.383
282.655
281.95
281.269
280.611
279.975
279.362
278.772
278.204
277.658
277.134
276.632
276.151
275.693
275.256
274.84
274.445
274.072
273.72
273.388
273.077
272.787
272.518
272.269
272.04
271.832
271.644
271.477
271.329
271.202
271.094
271.007
270.939
270.892
270.864
270.856
398.349
395.058
391.78
388.528
385.312
382.139
379.016
375.949
372.943
370
367.122
364.312
361.568
358.891
356.279
353.732
351.248
348.825
346.461
344.153
341.901
339.703
337.555
335.457
333.406
331.401
329.441
327.524
325.648
323.813
322.017
320.259
318.538
316.854
315.204
313.59
312.009
310.461
308.946
307.464
306.012
304.592
303.202
301.842
300.512
299.212
297.941
296.698
295.484
294.298
293.14
292.009
290.906
289.83
288.781
287.758
286.762
285.792
284.848
283.93
283.038
282.171
281.329
280.513
279.721
278.954
278.212
277.493
276.799
276.13
275.483
274.861
274.262
273.687
273.134
272.605
272.099
271.615
271.155
270.716
270.3
269.907
269.535
269.186
268.858
268.552
268.268
268.006
267.765
267.545
267.347
267.17
267.015
266.88
266.767
266.675
266.604
266.553
266.524
266.516
398.353
395.067
391.794
388.543
385.323
382.14
379.002
375.914
372.879
369.901
366.983
364.125
361.329
358.594
355.921
353.309
350.756
348.261
345.823
343.44
341.11
338.833
336.605
334.427
332.296
330.21
328.169
326.172
324.216
322.301
320.426
318.589
316.791
315.029
313.304
311.615
309.96
308.339
306.753
305.199
303.678
302.189
300.732
299.306
297.912
296.548
295.214
293.91
292.636
291.391
290.175
288.989
287.83
286.701
285.599
284.525
283.479
282.461
281.469
280.505
279.568
278.657
277.773
276.915
276.083
275.277
274.497
273.743
273.013
272.31
271.631
270.977
270.347
269.742
269.162
268.606
268.074
267.566
267.081
266.621
266.183
265.77
265.379
265.012
264.667
264.346
264.047
263.771
263.518
263.287
263.079
262.893
262.729
262.588
262.469
262.372
262.297
262.245
262.214
262.205
398.352
395.065
391.788
388.531
385.301
382.104
378.946
375.833
372.768
369.754
366.794
363.89
361.043
358.253
355.52
352.844
350.225
347.661
345.151
342.695
340.291
337.937
335.633
333.377
331.167
329.003
326.884
324.808
322.774
320.781
318.829
316.916
315.041
313.205
311.405
309.642
307.915
306.223
304.565
302.942
301.353
299.796
298.273
296.782
295.324
293.897
292.501
291.137
289.804
288.501
287.229
285.986
284.774
283.591
282.437
281.313
280.218
279.151
278.113
277.103
276.121
275.167
274.24
273.342
272.47
271.626
270.809
270.018
269.254
268.516
267.805
267.119
266.46
265.826
265.218
264.635
264.077
263.545
263.037
262.554
262.096
261.662
261.253
260.868
260.507
260.17
259.857
259.567
259.302
259.06
258.842
258.647
258.475
258.327
258.202
258.101
258.022
257.967
257.935
257.925
398.348
395.053
391.766
388.496
385.251
382.035
378.855
375.714
372.616
369.565
366.564
363.614
360.716
357.871
355.08
352.343
349.659
347.028
344.45
341.922
339.446
337.018
334.639
332.307
330.022
327.782
325.586
323.434
321.324
319.255
317.227
315.239
313.291
311.38
309.508
307.673
305.874
304.112
302.385
300.694
299.037
297.414
295.826
294.271
292.749
291.26
289.804
288.381
286.989
285.629
284.3
283.003
281.737
280.502
279.297
278.123
276.978
275.864
274.779
273.724
272.698
271.701
270.733
269.794
268.883
268.001
267.147
266.32
265.522
264.751
264.007
263.291
262.601
261.939
261.303
260.693
260.11
259.554
259.023
258.518
258.039
257.585
257.157
256.755
256.377
256.025
255.698
255.395
255.118
254.865
254.636
254.433
254.253
254.098
253.968
253.861
253.779
253.722
253.688
253.678
398.341
395.031
391.729
388.443
385.177
381.939
378.732
375.561
372.429
369.34
366.296
363.299
360.351
357.453
354.605
351.808
349.062
346.366
343.72
341.124
338.577
336.078
333.626
331.221
328.862
326.548
324.278
322.051
319.867
317.724
315.622
313.561
311.54
309.557
307.613
305.708
303.839
302.008
300.213
298.454
296.731
295.043
293.391
291.773
290.189
288.639
287.123
285.641
284.192
282.775
281.391
280.04
278.721
277.434
276.179
274.955
273.762
272.601
271.47
270.37
269.301
268.262
267.253
266.273
265.324
264.404
263.513
262.651
261.818
261.014
260.239
259.492
258.773
258.082
257.418
256.783
256.175
255.594
255.04
254.514
254.014
253.541
253.095
252.675
252.281
251.913
251.572
251.256
250.967
250.703
250.465
250.252
250.065
249.903
249.767
249.656
249.57
249.51
249.475
249.465
398.332
395.003
391.681
388.372
385.084
381.819
378.582
375.379
372.211
369.082
365.995
362.952
359.954
357.003
354.099
351.243
348.436
345.676
342.965
340.302
337.687
335.118
332.596
330.12
327.689
325.302
322.96
320.66
318.404
316.189
314.015
311.882
309.789
307.736
305.723
303.747
301.81
299.911
298.05
296.225
294.437
292.685
290.969
289.289
287.644
286.034
284.46
282.919
281.413
279.941
278.503
277.098
275.727
274.388
273.083
271.81
270.57
269.362
268.186
267.042
265.93
264.849
263.799
262.78
261.792
260.835
259.908
259.012
258.145
257.308
256.501
255.724
254.975
254.256
253.566
252.904
252.272
251.667
251.091
250.543
250.023
249.53
249.065
248.628
248.218
247.836
247.48
247.152
246.85
246.575
246.327
246.106
245.911
245.743
245.601
245.486
245.396
245.334
245.297
245.286
398.32
394.968
391.622
388.288
384.972
381.678
378.41
375.171
371.966
368.796
365.666
362.576
359.528
356.524
353.565
350.652
347.784
344.963
342.188
339.46
336.778
334.142
331.551
329.005
326.504
324.047
321.634
319.264
316.936
314.65
312.406
310.203
308.041
305.919
303.836
301.793
299.789
297.823
295.896
294.006
292.154
290.34
288.562
286.82
285.115
283.447
281.814
280.216
278.654
277.127
275.635
274.178
272.755
271.366
270.012
268.691
267.404
266.15
264.929
263.741
262.587
261.464
260.374
259.316
258.291
257.296
256.334
255.403
254.503
253.634
252.795
251.988
251.211
250.464
249.747
249.059
248.402
247.774
247.175
246.606
246.066
245.554
245.071
244.617
244.191
243.793
243.424
243.083
242.77
242.484
242.226
241.996
241.794
241.619
241.472
241.352
241.259
241.194
241.155
241.144
398.307
394.928
391.554
388.192
384.845
381.519
378.217
374.942
371.697
368.486
365.311
362.174
359.077
356.021
353.007
350.037
347.11
344.229
341.392
338.6
335.852
333.15
330.492
327.879
325.309
322.784
320.301
317.862
315.465
313.11
310.797
308.526
306.295
304.105
301.956
299.846
297.776
295.745
293.753
291.8
289.885
288.008
286.169
284.368
282.604
280.877
279.187
277.533
275.916
274.335
272.79
271.281
269.807
268.369
266.965
265.597
264.263
262.964
261.699
260.469
259.272
258.109
256.979
255.882
254.819
253.789
252.791
251.826
250.893
249.992
249.123
248.285
247.479
246.705
245.961
245.249
244.567
243.916
243.295
242.705
242.144
241.614
241.113
240.642
240.2
239.788
239.405
239.051
238.726
238.43
238.163
237.924
237.714
237.533
237.38
237.255
237.159
237.091
237.052
237.04
398.292
394.883
391.479
388.085
384.706
381.345
378.006
374.693
371.408
368.154
364.934
361.75
358.603
355.495
352.427
349.401
346.417
343.476
340.578
337.723
334.912
332.145
329.422
326.742
324.106
321.513
318.963
316.456
313.992
311.569
309.189
306.851
304.553
302.297
300.081
297.906
295.772
293.677
291.622
289.606
287.629
285.692
283.793
281.932
280.11
278.326
276.579
274.87
273.199
271.565
269.968
268.407
266.884
265.396
263.945
262.53
261.15
259.806
258.498
257.225
255.986
254.783
253.614
252.48
251.379
250.313
249.28
248.281
247.316
246.383
245.484
244.617
243.783
242.981
242.211
241.474
240.768
240.094
239.451
238.84
238.26
237.711
237.192
236.704
236.247
235.82
235.424
235.057
234.721
234.414
234.137
233.89
233.673
233.485
233.326
233.197
233.098
233.028
232.987
232.975
398.276
394.834
391.397
387.969
384.555
381.158
377.781
374.428
371.102
367.804
364.538
361.306
358.11
354.95
351.829
348.747
345.706
342.706
339.748
336.832
333.959
331.129
328.342
325.597
322.896
320.237
317.621
315.048
312.518
310.029
307.583
305.179
302.816
300.495
298.215
295.976
293.778
291.62
289.503
287.425
285.388
283.391
281.433
279.514
277.635
275.794
273.992
272.229
270.505
268.818
267.169
265.559
263.985
262.45
260.951
259.49
258.065
256.677
255.326
254.011
252.732
251.488
250.281
249.109
247.972
246.87
245.803
244.771
243.773
242.809
241.88
240.984
240.122
239.293
238.498
237.736
237.006
236.309
235.645
235.013
234.413
233.846
233.31
232.806
232.333
231.892
231.481
231.103
230.755
230.438
230.152
229.896
229.671
229.477
229.313
229.18
229.077
229.004
228.962
228.949
398.259
394.782
391.309
387.845
384.394
380.959
377.543
374.149
370.78
367.438
364.126
360.846
357.599
354.388
351.214
348.078
344.98
341.923
338.906
335.93
332.996
330.103
327.253
324.446
321.68
318.957
316.277
313.639
311.044
308.491
305.98
303.512
301.085
298.7
296.357
294.055
291.794
289.575
287.397
285.259
283.163
281.106
279.091
277.115
275.179
273.283
271.427
269.61
267.833
266.095
264.396
262.735
261.114
259.53
257.985
256.478
255.009
253.578
252.184
250.828
249.508
248.226
246.98
245.771
244.598
243.461
242.36
241.295
240.266
239.271
238.312
237.388
236.498
235.643
234.822
234.035
233.282
232.563
231.878
231.225
230.606
230.02
229.467
228.946
228.459
228.003
227.58
227.189
226.829
226.502
226.207
225.943
225.711
225.51
225.341
225.203
225.097
225.022
224.978
224.965
398.24
394.727
391.216
387.715
384.225
380.75
377.293
373.857
370.445
367.058
363.699
360.371
357.075
353.813
350.585
347.395
344.242
341.127
338.052
335.018
332.023
329.07
326.159
323.289
320.461
317.675
314.932
312.231
309.572
306.956
304.382
301.85
299.361
296.913
294.508
292.145
289.823
287.543
285.305
283.109
280.954
278.84
276.767
274.735
272.744
270.794
268.884
267.015
265.186
263.397
261.648
259.939
258.269
256.639
255.048
253.496
251.983
250.509
249.074
247.676
246.317
244.996
243.713
242.467
241.259
240.088
238.953
237.856
236.795
235.77
234.781
233.829
232.912
232.031
231.185
230.374
229.598
228.856
228.15
227.477
226.839
226.235
225.665
225.128
224.625
224.156
223.719
223.316
222.946
222.608
222.304
222.032
221.792
221.586
221.411
221.269
221.159
221.082
221.037
221.023
398.221
394.669
391.12
387.579
384.049
380.533
377.035
373.555
370.098
366.666
363.261
359.884
356.538
353.224
349.945
346.701
343.493
340.322
337.19
334.097
331.044
328.031
325.059
322.129
319.239
316.392
313.587
310.824
308.103
305.425
302.789
300.195
297.644
295.136
292.67
290.246
287.865
285.526
283.229
280.974
278.762
276.591
274.463
272.376
270.33
268.327
266.364
264.443
262.563
260.725
258.927
257.169
255.453
253.776
252.14
250.544
248.988
247.472
245.995
244.558
243.16
241.801
240.48
239.198
237.955
236.75
235.582
234.453
233.361
232.306
231.289
230.309
229.365
228.458
227.587
226.752
225.953
225.19
224.463
223.771
223.114
222.492
221.905
221.352
220.834
220.351
219.901
219.486
219.105
218.757
218.444
218.164
217.917
217.704
217.525
217.378
217.265
217.186
217.139
217.125
398.201
394.609
391.02
387.438
383.867
380.309
376.768
373.245
369.743
366.264
362.811
359.386
355.991
352.626
349.294
345.997
342.735
339.509
336.32
333.17
330.059
326.988
323.957
320.966
318.017
315.109
312.243
309.42
306.638
303.899
301.202
298.548
295.937
293.369
290.843
288.36
285.92
283.523
281.169
278.857
276.588
274.362
272.178
270.037
267.939
265.882
263.868
261.897
259.967
258.079
256.233
254.428
252.665
250.943
249.263
247.624
246.025
244.467
242.95
241.473
240.037
238.64
237.283
235.966
234.688
233.449
232.249
231.088
229.966
228.882
227.836
226.828
225.858
224.925
224.029
223.171
222.35
221.565
220.817
220.106
219.43
218.791
218.187
217.619
217.086
216.589
216.127
215.7
215.308
214.951
214.628
214.34
214.086
213.867
213.683
213.532
213.416
213.334
213.286
213.271
398.181
394.547
390.917
387.293
383.68
380.079
376.494
372.926
369.379
365.854
362.354
358.88
355.435
352.02
348.636
345.286
341.97
338.689
335.445
332.239
329.071
325.942
322.852
319.803
316.795
313.828
310.903
308.019
305.178
302.379
299.623
296.91
294.24
291.613
289.028
286.488
283.99
281.536
279.125
276.758
274.434
272.153
269.915
267.721
265.57
263.462
261.397
259.376
257.397
255.46
253.567
251.716
249.907
248.141
246.417
244.735
243.094
241.496
239.939
238.423
236.948
235.515
234.122
232.769
231.457
230.186
228.954
227.762
226.609
225.496
224.422
223.387
222.391
221.433
220.514
219.632
218.789
217.983
217.215
216.484
215.79
215.133
214.513
213.929
213.382
212.872
212.397
211.958
211.556
211.188
210.857
210.561
210.301
210.076
209.886
209.731
209.612
209.527
209.478
209.463
398.159
394.484
390.811
387.145
383.489
379.845
376.215
372.602
369.009
365.437
361.889
358.367
354.872
351.406
347.971
344.568
341.199
337.865
334.566
331.304
328.08
324.894
321.748
318.641
315.575
312.55
309.566
306.624
303.725
300.868
298.053
295.282
292.554
289.869
287.227
284.63
282.076
279.566
277.1
274.677
272.299
269.965
267.674
265.428
263.225
261.067
258.952
256.881
254.854
252.87
250.93
249.033
247.18
245.37
243.603
241.879
240.197
238.558
236.962
235.408
233.896
232.426
230.998
229.611
228.265
226.961
225.698
224.475
223.293
222.151
221.05
219.988
218.966
217.984
217.04
216.136
215.271
214.444
213.656
212.906
212.194
211.52
210.884
210.285
209.724
209.2
208.713
208.262
207.849
207.472
207.132
206.829
206.561
206.33
206.135
205.977
205.854
205.767
205.717
205.701
398.138
394.42
390.704
386.994
383.294
379.606
375.931
372.273
368.633
365.015
361.419
357.848
354.304
350.788
347.301
343.847
340.425
337.037
333.684
330.367
327.088
323.847
320.644
317.481
314.358
311.276
308.235
305.236
302.279
299.364
296.493
293.665
290.88
288.138
285.441
282.787
280.178
277.613
275.093
272.616
270.185
267.798
265.456
263.158
260.905
258.697
256.533
254.414
252.339
250.309
248.323
246.382
244.484
242.631
240.822
239.056
237.334
235.656
234.021
232.429
230.88
229.375
227.911
226.491
225.112
223.776
222.482
221.229
220.018
218.848
217.719
216.631
215.584
214.577
213.61
212.684
211.797
210.949
210.142
209.373
208.643
207.952
207.3
206.686
206.111
205.574
205.074
204.613
204.189
203.803
203.454
203.143
202.869
202.632
202.432
202.27
202.144
202.055
202.003
201.987
398.116
394.354
390.595
386.841
383.097
379.363
375.644
371.94
368.254
364.588
360.944
357.325
353.731
350.165
346.628
343.122
339.648
336.207
332.801
329.431
326.097
322.8
319.543
316.324
313.145
310.007
306.91
303.855
300.842
297.871
294.943
292.059
289.219
286.422
283.669
280.961
278.298
275.679
273.105
270.576
268.092
265.654
263.261
260.913
258.61
256.353
254.141
251.975
249.853
247.778
245.747
243.761
241.82
239.925
238.074
236.268
234.506
232.789
231.116
229.487
227.902
226.361
224.864
223.41
221.999
220.631
219.307
218.024
216.784
215.587
214.431
213.317
212.245
211.214
210.224
209.276
208.367
207.5
206.673
205.886
205.138
204.431
203.763
203.135
202.545
201.995
201.484
201.011
200.577
200.182
199.824
199.506
199.225
198.982
198.777
198.611
198.482
198.391
198.337
198.321
398.094
394.288
390.484
386.686
382.897
379.119
375.353
371.603
367.871
364.158
360.467
356.799
353.156
349.54
345.953
342.396
338.87
335.377
331.918
328.495
325.107
321.757
318.445
315.171
311.938
308.745
305.593
302.482
299.414
296.388
293.406
290.467
287.571
284.72
281.914
279.152
276.435
273.764
271.138
268.557
266.022
263.533
261.09
258.693
256.342
254.036
251.777
249.564
247.397
245.277
243.202
241.173
239.19
237.252
235.361
233.514
231.714
229.958
228.248
226.583
224.963
223.387
221.856
220.369
218.926
217.528
216.173
214.861
213.593
212.368
211.186
210.047
208.95
207.896
206.883
205.913
204.984
204.096
203.25
202.445
201.68
200.957
200.273
199.63
199.027
198.464
197.941
197.457
197.013
196.609
196.243
195.917
195.63
195.381
195.172
195.001
194.869
194.776
194.721
194.704
398.072
394.222
390.373
386.53
382.696
378.872
375.061
371.265
367.486
363.726
359.987
356.27
352.579
348.914
345.277
341.669
338.092