/*--------------------------------*- C++ -*----------------------------------*\
| =========                 |                                                 |
| \\      /  F ield         | OpenFOAM: The Open Source CFD Toolbox           |
|  \\    /   O peration     | Version:  2406                                  |
|   \\  /    A nd           | Website:  www.openfoam.com                      |
|    \\/     M anipulation  |                                                 |
\*---------------------------------------------------------------------------*/
FoamFile
{
    version     2.0;
    format      ascii;
    arch        "LSB;label=32;scalar=64";
    class       volScalarField;
    location    "16.75";
    object      p;
}
// * * * * * * * * * * * * * * * * * * * * * * * * * * * * * * * * * * * * * //

dimensions      [0 2 -2 0 0 0 0];

internalField   nonuniform List<scalar> 
34560
(
-10.417691
-10.42523
-10.436756
-10.453363
-10.475246
-10.501426
-10.530382
-10.561512
-10.591888
-10.381128
-10.391066
-10.40638
-10.428454
-10.457369
-10.491525
-10.528459
-10.566783
-10.603511
-10.346048
-10.35851
-10.377688
-10.405026
-10.440403
-10.481536
-10.524888
-10.568508
-10.609298
-10.309574
-10.324558
-10.347705
-10.380497
-10.422426
-10.470379
-10.519702
-10.567916
-10.612302
-10.272856
-10.290399
-10.317543
-10.355804
-10.404198
-10.458748
-10.51382
-10.566332
-10.613977
-10.23805
-10.257877
-10.288694
-10.332081
-10.386544
-10.447199
-10.507634
-10.5641
-10.614638
-10.205897
-10.227799
-10.261977
-10.310065
-10.370059
-10.43618
-10.50146
-10.561531
-10.614608
-10.177247
-10.200984
-10.238137
-10.290374
-10.355219
-10.426079
-10.495556
-10.558815
-10.614111
-10.152932
-10.178216
-10.217881
-10.273613
-10.342518
-10.417313
-10.490262
-10.556181
-10.613348
-10.134004
-10.160468
-10.202069
-10.260502
-10.332533
-10.410343
-10.485941
-10.553901
-10.61253
-10.121185
-10.148458
-10.191377
-10.251626
-10.32574
-10.405553
-10.482905
-10.55223
-10.61186
-10.114345
-10.142072
-10.185712
-10.246931
-10.322139
-10.402997
-10.481259
-10.551293
-10.61145
-10.114345
-10.142072
-10.185712
-10.246931
-10.32214
-10.402997
-10.481259
-10.551293
-10.611451
-10.121185
-10.148458
-10.191378
-10.251627
-10.32574
-10.405553
-10.482905
-10.55223
-10.61186
-10.134004
-10.160469
-10.20207
-10.260502
-10.332533
-10.410342
-10.48594
-10.553901
-10.61253
-10.152932
-10.178217
-10.21788
-10.273612
-10.342517
-10.417311
-10.490261
-10.556179
-10.613346
-10.177246
-10.200983
-10.238136
-10.290373
-10.355218
-10.426077
-10.495554
-10.558812
-10.614108
-10.205896
-10.227799
-10.261976
-10.310063
-10.370057
-10.436178
-10.501457
-10.561528
-10.614603
-10.23805
-10.257877
-10.288694
-10.33208
-10.386543
-10.447197
-10.507631
-10.564096
-10.614632
-10.272856
-10.290399
-10.317544
-10.355805
-10.404199
-10.458747
-10.513817
-10.566327
-10.613971
-10.309576
-10.32456
-10.347706
-10.380499
-10.422428
-10.470379
-10.5197
-10.567911
-10.612296
-10.346051
-10.358513
-10.377691
-10.405029
-10.440405
-10.481537
-10.524888
-10.568504
-10.609291
-10.381132
-10.39107
-10.406384
-10.428458
-10.457372
-10.491527
-10.52846
-10.566783
-10.603506
-10.417696
-10.425235
-10.436761
-10.453367
-10.475251
-10.501429
-10.530384
-10.561514
-10.591886
-10.291204
-10.289136
-10.286611
-10.282898
-10.276636
-10.267232
-10.25453
-10.238826
-10.223389
-10.314839
-10.312014
-10.308194
-10.30215
-10.292037
-10.277617
-10.260161
-10.240983
-10.223433
-10.341062
-10.337524
-10.332627
-10.324593
-10.310888
-10.291374
-10.268941
-10.246128
-10.226125
-10.36679
-10.362501
-10.356537
-10.346679
-10.329752
-10.305503
-10.278266
-10.251881
-10.229135
-10.391684
-10.386677
-10.379657
-10.367988
-10.348059
-10.319396
-10.287454
-10.257564
-10.232095
-10.414999
-10.40937
-10.401389
-10.388008
-10.365359
-10.3328
-10.296448
-10.263203
-10.235198
-10.436128
-10.429934
-10.421061
-10.406081
-10.380962
-10.345145
-10.305004
-10.26861
-10.238273
-10.454627
-10.447957
-10.438305
-10.421883
-10.394541
-10.356005
-10.312766
-10.273484
-10.240914
-10.470014
-10.462972
-10.452688
-10.435053
-10.405823
-10.365039
-10.319299
-10.277456
-10.242794
-10.481884
-10.47458
-10.463822
-10.44524
-10.41451
-10.371937
-10.324262
-10.280342
-10.244045
-10.489976
-10.482489
-10.471394
-10.452138
-10.420335
-10.376462
-10.327447
-10.282216
-10.244878
-10.494045
-10.48648
-10.475226
-10.455631
-10.423273
-10.378715
-10.329002
-10.28313
-10.245287
-10.494045
-10.48648
-10.475226
-10.455631
-10.423273
-10.378715
-10.329002
-10.28313
-10.245287
-10.489976
-10.482489
-10.471394
-10.452138
-10.420335
-10.376462
-10.327447
-10.282216
-10.244877
-10.481884
-10.47458
-10.463821
-10.44524
-10.41451
-10.371937
-10.324262
-10.280341
-10.244044
-10.470014
-10.462972
-10.452688
-10.435053
-10.405823
-10.365038
-10.319298
-10.277455
-10.242792
-10.454627
-10.447958
-10.438306
-10.421883
-10.39454
-10.356004
-10.312765
-10.273482
-10.240911
-10.436129
-10.429935
-10.421062
-10.406081
-10.380961
-10.345145
-10.305003
-10.268607
-10.23827
-10.415
-10.409371
-10.40139
-10.388009
-10.36536
-10.3328
-10.296446
-10.2632
-10.235194
-10.391686
-10.386679
-10.379659
-10.36799
-10.34806
-10.319396
-10.287453
-10.257561
-10.23209
-10.366792
-10.362503
-10.356539
-10.346681
-10.329754
-10.305505
-10.278267
-10.251879
-10.22913
-10.341064
-10.337527
-10.33263
-10.324597
-10.310891
-10.291377
-10.268943
-10.246127
-10.226122
-10.314842
-10.312018
-10.308198
-10.302154
-10.292042
-10.27762
-10.260164
-10.240983
-10.223431
-10.291209
-10.289141
-10.286616
-10.282903
-10.276641
-10.267237
-10.254533
-10.238828
-10.223388
-9.5482582
-9.5477296
-9.5474221
-9.5477777
-9.5488824
-9.5500353
-9.5494516
-9.5464143
-9.5425455
-9.5525596
-9.5518446
-9.5513099
-9.5515233
-9.5526358
-9.5537772
-9.5529898
-9.5494801
-9.5453648
-9.5563662
-9.5554924
-9.5548216
-9.5550899
-9.5566111
-9.5583655
-9.5579339
-9.5543527
-9.5499507
-9.5589714
-9.5579377
-9.5571288
-9.557455
-9.5594453
-9.562026
-9.5622227
-9.5586865
-9.5538816
-9.5610666
-9.5598979
-9.5589572
-9.5592631
-9.5615032
-9.5647281
-9.5655589
-9.5621373
-9.5570977
-9.5630326
-9.5617391
-9.5606945
-9.5609796
-9.5632944
-9.5668717
-9.5682074
-9.5649181
-9.5597556
-9.564822
-9.5634224
-9.5623136
-9.5626287
-9.5650036
-9.5686701
-9.5702509
-9.5671268
-9.5619458
-9.5664616
-9.5649787
-9.5638378
-9.5642254
-9.566695
-9.5703002
-9.5718714
-9.5689459
-9.5639094
-9.5678994
-9.5663542
-9.5652052
-9.5656787
-9.5682538
-9.5717776
-9.5732483
-9.5705882
-9.5658404
-9.569079
-9.5674859
-9.5663421
-9.5669093
-9.5695964
-9.5730842
-9.5744662
-9.5720776
-9.5675332
-9.5699236
-9.5682952
-9.5671624
-9.5678139
-9.5706115
-9.5741336
-9.5754813
-9.5731882
-9.5687032
-9.570348
-9.5687066
-9.5675849
-9.5682874
-9.5711551
-9.5747177
-9.5760618
-9.5737931
-9.5693053
-9.5703478
-9.5687065
-9.5675847
-9.5682873
-9.5711551
-9.5747177
-9.5760617
-9.573793
-9.5693051
-9.5699233
-9.5682949
-9.5671621
-9.5678137
-9.5706115
-9.5741335
-9.5754812
-9.573188
-9.5687026
-9.5690784
-9.5674854
-9.5663418
-9.5669091
-9.5695964
-9.5730841
-9.574466
-9.572077
-9.5675322
-9.567899
-9.5663539
-9.5652051
-9.5656787
-9.5682539
-9.5717776
-9.573248
-9.5705874
-9.5658389
-9.5664618
-9.564979
-9.5638382
-9.5642259
-9.5666954
-9.5703004
-9.5718712
-9.5689449
-9.5639076
-9.5648229
-9.5634234
-9.5623147
-9.5626297
-9.5650046
-9.5686707
-9.5702509
-9.5671259
-9.5619437
-9.5630343
-9.5617408
-9.5606963
-9.5609813
-9.563296
-9.5668729
-9.5682078
-9.5649174
-9.5597535
-9.5610689
-9.5599003
-9.5589597
-9.5592656
-9.5615055
-9.56473
-9.5655599
-9.5621371
-9.5570958
-9.5589743
-9.5579407
-9.557132
-9.5574583
-9.5594485
-9.5620288
-9.5622246
-9.5586869
-9.55388
-9.5563697
-9.555496
-9.5548254
-9.5550938
-9.5566151
-9.5583691
-9.5579366
-9.5543537
-9.5499494
-9.5525636
-9.5518487
-9.5513141
-9.5515277
-9.5526403
-9.5537814
-9.552993
-9.5494815
-9.5453642
-9.5482625
-9.5477339
-9.5474266
-9.5477823
-9.5488869
-9.5500396
-9.549455
-9.5464161
-9.5425458
-9.1277959
-9.1280056
-9.1282258
-9.1283175
-9.1280498
-9.1271393
-9.1260213
-9.1251633
-9.1238771
-9.1318769
-9.1320346
-9.1321258
-9.1319517
-9.1311992
-9.1294645
-9.1270486
-9.1249173
-9.1231007
-9.1366614
-9.1367655
-9.1367557
-9.136375
-9.1352404
-9.1329187
-9.1296558
-9.1265716
-9.1242787
-9.1412994
-9.1413384
-9.1412353
-9.1406921
-9.1392467
-9.1365264
-9.1327721
-9.1290976
-9.1263959
-9.1457131
-9.1456871
-9.1454957
-9.1448106
-9.1430853
-9.1399987
-9.135909
-9.1318712
-9.1288553
-9.1497049
-9.149633
-9.1493799
-9.1485382
-9.1465457
-9.1431052
-9.1387073
-9.13438
-9.1310717
-9.1529685
-9.1528792
-9.1525817
-9.1516097
-9.1493389
-9.1455577
-9.1408578
-9.1362632
-9.1326949
-9.1555137
-9.15543
-9.1550985
-9.1540001
-9.151472
-9.1473812
-9.1424168
-9.1376102
-9.1338385
-9.1573396
-9.1572791
-9.1569436
-9.1557532
-9.1530223
-9.1486743
-9.1435039
-9.138562
-9.1346539
-9.1585852
-9.1585436
-9.1582056
-9.1569503
-9.1540719
-9.1495279
-9.1442098
-9.1392054
-9.135202
-9.1593554
-9.1593292
-9.1589889
-9.1576855
-9.1547051
-9.1500295
-9.1446207
-9.1395843
-9.1355219
-9.159706
-9.15969
-9.1593529
-9.1580281
-9.1549979
-9.1502577
-9.1448092
-9.1397588
-9.1356667
-9.1597059
-9.1596899
-9.1593529
-9.1580281
-9.154998
-9.1502577
-9.1448092
-9.1397587
-9.1356665
-9.1593553
-9.159329
-9.1589888
-9.1576855
-9.1547052
-9.1500296
-9.1446207
-9.1395841
-9.1355212
-9.158585
-9.1585435
-9.1582056
-9.1569504
-9.1540721
-9.1495281
-9.1442099
-9.1392051
-9.135201
-9.1573394
-9.157279
-9.1569437
-9.1557534
-9.1530227
-9.1486747
-9.143504
-9.1385617
-9.1346526
-9.1555138
-9.1554302
-9.1550988
-9.1540008
-9.1514727
-9.1473819
-9.1424172
-9.1376098
-9.1338372
-9.152969
-9.1528799
-9.1525826
-9.1516109
-9.1493401
-9.1455589
-9.1408585
-9.1362631
-9.1326936
-9.1497061
-9.1496343
-9.1493815
-9.14854
-9.1465476
-9.143107
-9.1387086
-9.1343802
-9.1310708
-9.1457152
-9.1456894
-9.1454981
-9.1448133
-9.1430882
-9.1400014
-9.135911
-9.1318721
-9.1288548
-9.1413024
-9.1413416
-9.1412387
-9.1406958
-9.1392504
-9.1365299
-9.132775
-9.1290994
-9.1263965
-9.1366656
-9.1367698
-9.1367602
-9.1363796
-9.135245
-9.1329231
-9.1296598
-9.126575
-9.1242811
-9.1318821
-9.1320398
-9.1321312
-9.1319571
-9.1312046
-9.1294699
-9.1270539
-9.1249228
-9.1231058
-9.1278016
-9.1280113
-9.1282316
-9.1283234
-9.1280559
-9.1271459
-9.1260284
-9.1251714
-9.1238856
-8.6395089
-8.6395133
-8.6395591
-8.6396945
-8.6399712
-8.6404269
-8.6410361
-8.6416384
-8.641949
-8.6417149
-8.6416758
-8.6416536
-8.6416939
-8.6418472
-8.6421638
-8.6425829
-8.6429289
-8.6430546
-8.6439562
-8.6438848
-8.6438292
-8.6438411
-8.6439656
-8.6442365
-8.6445508
-8.6447351
-8.6447291
-8.6456944
-8.6456043
-8.6455326
-8.6455419
-8.6456885
-8.6459496
-8.6462023
-8.6462324
-8.6460001
-8.6468556
-8.6467718
-8.6466962
-8.6466806
-8.6467919
-8.647017
-8.6471834
-8.6470439
-8.6465921
-8.6476231
-8.6475516
-8.6474757
-8.6474498
-8.6475066
-8.6476584
-8.6477218
-8.6474266
-8.6468058
-8.648166
-8.6481034
-8.6480268
-8.6479877
-8.648034
-8.64814
-8.6481246
-8.6477229
-8.6469732
-8.6485586
-8.648499
-8.6484327
-8.6483988
-8.6484482
-8.6485341
-8.648467
-8.6479841
-8.647123
-8.6488566
-8.6487924
-8.6487202
-8.6486921
-8.6487503
-8.6488343
-8.6487387
-8.648194
-8.6472354
-8.6490675
-8.6490009
-8.6489242
-8.6488945
-8.6489573
-8.6490469
-8.6489362
-8.6483421
-8.64731
-8.6492036
-8.649132
-8.6490509
-8.6490195
-8.6490859
-8.6491828
-8.6490633
-8.6484348
-8.647356
-8.6492608
-8.6491884
-8.6491059
-8.6490748
-8.6491446
-8.6492478
-8.6491257
-8.6484813
-8.6473809
-8.6492606
-8.6491883
-8.6491059
-8.6490748
-8.6491447
-8.6492478
-8.6491257
-8.6484812
-8.6473806
-8.6492033
-8.6491318
-8.6490507
-8.6490195
-8.6490859
-8.6491828
-8.6490633
-8.6484344
-8.647355
-8.6490671
-8.6490005
-8.6489241
-8.6488945
-8.6489574
-8.6490471
-8.6489362
-8.6483415
-8.6473085
-8.6488561
-8.6487921
-8.64872
-8.6486922
-8.6487506
-8.6488347
-8.6487389
-8.6481933
-8.6472336
-8.6485583
-8.6484989
-8.6484328
-8.6483993
-8.6484489
-8.6485349
-8.6484675
-8.6479836
-8.6471211
-8.6481662
-8.6481039
-8.6480275
-8.6479889
-8.6480355
-8.6481414
-8.6481255
-8.6477227
-8.6469714
-8.6476242
-8.647553
-8.6474774
-8.6474519
-8.647509
-8.6476607
-8.6477235
-8.6474269
-8.6468044
-8.646858
-8.6467745
-8.6466992
-8.646684
-8.6467955
-8.6470204
-8.6471861
-8.6470451
-8.6465913
-8.6456984
-8.6456086
-8.6455371
-8.6455468
-8.6456935
-8.6459543
-8.6462062
-8.6462347
-8.6460003
-8.643962
-8.6438908
-8.6438354
-8.6438476
-8.6439721
-8.6442428
-8.6445563
-8.6447392
-8.6447308
-8.6417223
-8.6416833
-8.6416614
-8.6417018
-8.6418552
-8.6421716
-8.6425903
-8.6429352
-8.6430585
-8.6395173
-8.6395217
-8.6395675
-8.6397031
-8.6399799
-8.6404358
-8.6410452
-8.6416475
-8.6419566
-8.1989938
-8.1990406
-8.1990992
-8.199157
-8.1992011
-8.1992112
-8.1991729
-8.1990958
-8.1988904
-8.1994146
-8.1994615
-8.1995055
-8.199518
-8.1994645
-8.1993208
-8.1991128
-8.1988779
-8.1986078
-8.2000264
-8.2000689
-8.2000949
-8.2000607
-8.199926
-8.1996783
-8.1993785
-8.1990831
-8.1988357
-8.20077
-8.200799
-8.2008033
-8.2007313
-8.2005388
-8.2002323
-8.1998792
-8.1995474
-8.1992987
-8.2016622
-8.2016743
-8.2016569
-8.2015573
-8.2013323
-8.2009915
-8.2005921
-8.2002178
-8.1999498
-8.2026384
-8.2026334
-8.2025977
-8.2024881
-8.2022677
-8.2019198
-8.2014855
-8.2010632
-8.2007556
-8.2036194
-8.2035999
-8.2035528
-8.2034479
-8.2032439
-8.2029027
-8.2024487
-8.2019822
-8.2016185
-8.2045391
-8.2045095
-8.2044567
-8.2043577
-8.2041686
-8.2038393
-8.2033732
-8.2028636
-8.2024334
-8.2053358
-8.2052999
-8.2052441
-8.2051484
-8.2049736
-8.2046588
-8.2041839
-8.2036328
-8.2031341
-8.2059681
-8.2059282
-8.2058706
-8.2057796
-8.2056182
-8.205316
-8.2048333
-8.2042444
-8.2036847
-8.2064085
-8.2063658
-8.2063075
-8.2062205
-8.2060689
-8.2057752
-8.2052859
-8.2046687
-8.2040641
-8.2066319
-8.206588
-8.2065295
-8.2064449
-8.2062992
-8.2060107
-8.205518
-8.2048863
-8.2042582
-8.2066317
-8.2065878
-8.2065293
-8.2064448
-8.2062991
-8.2060106
-8.2055179
-8.204886
-8.2042578
-8.2064079
-8.2063653
-8.2063071
-8.2062202
-8.2060688
-8.2057751
-8.2052856
-8.2046681
-8.2040627
-8.2059672
-8.2059275
-8.2058701
-8.2057793
-8.2056181
-8.2053159
-8.204833
-8.2042434
-8.2036826
-8.2053348
-8.2052992
-8.2052436
-8.2051482
-8.2049737
-8.204659
-8.2041837
-8.2036315
-8.2031313
-8.2045384
-8.204509
-8.2044565
-8.204358
-8.2041692
-8.2038399
-8.2033733
-8.2028624
-8.2024302
-8.2036193
-8.2036
-8.2035533
-8.2034489
-8.2032453
-8.2029041
-8.2024494
-8.2019813
-8.2016152
-8.2026394
-8.2026347
-8.2025995
-8.2024903
-8.2022703
-8.2019223
-8.2014871
-8.2010628
-8.2007526
-8.2016647
-8.2016772
-8.2016603
-8.2015611
-8.2013365
-8.2009953
-8.2005949
-8.2002183
-8.1999474
-8.2007747
-8.200804
-8.2008087
-8.2007371
-8.2005448
-8.2002379
-8.1998835
-8.1995493
-8.1992973
-8.2000333
-8.2000761
-8.2001024
-8.2000686
-8.1999339
-8.1996858
-8.1993846
-8.1990868
-8.1988358
-8.1994236
-8.1994707
-8.199515
-8.1995277
-8.1994742
-8.1993301
-8.199121
-8.1988837
-8.1986097
-8.1990041
-8.1990509
-8.1991096
-8.1991674
-8.1992115
-8.1992215
-8.1991827
-8.1991043
-8.1988956
-7.7476629
-7.7476663
-7.747679
-7.7477106
-7.7477762
-7.747889
-7.7480425
-7.7482141
-7.7483285
-7.7481877
-7.7481817
-7.7481788
-7.7481889
-7.748227
-7.7483039
-7.7484043
-7.7484986
-7.7485503
-7.7487166
-7.7487056
-7.7486964
-7.7486995
-7.748729
-7.7487875
-7.7488507
-7.7488953
-7.7489166
-7.7491418
-7.7491275
-7.7491163
-7.7491208
-7.7491526
-7.7491976
-7.7492257
-7.7492218
-7.7491934
-7.7494493
-7.7494361
-7.7494266
-7.7494327
-7.749456
-7.7494728
-7.7494581
-7.7494025
-7.7493188
-7.7496485
-7.7496389
-7.7496317
-7.7496327
-7.7496317
-7.7496121
-7.7495535
-7.7494474
-7.7493113
-7.7497481
-7.7497423
-7.7497349
-7.7497226
-7.7496969
-7.7496457
-7.7495482
-7.7493974
-7.7492175
-7.7497924
-7.7497875
-7.7497762
-7.7497521
-7.7497069
-7.7496261
-7.7494926
-7.7493034
-7.7490884
-7.7498104
-7.7498041
-7.7497887
-7.749757
-7.749695
-7.7495866
-7.7494218
-7.7492017
-7.74896
-7.7498178
-7.7498096
-7.7497906
-7.7497515
-7.7496753
-7.7495454
-7.7493564
-7.7491135
-7.748853
-7.74982
-7.7498103
-7.7497883
-7.7497434
-7.749657
-7.7495129
-7.7493079
-7.7490504
-7.7487781
-7.7498181
-7.7498079
-7.7497847
-7.7497371
-7.7496458
-7.749495
-7.7492824
-7.749018
-7.7487399
-7.7498178
-7.7498076
-7.7497845
-7.749737
-7.7496457
-7.7494949
-7.7492823
-7.7490177
-7.7487393
-7.7498192
-7.7498096
-7.7497877
-7.7497431
-7.7496568
-7.7495127
-7.7493075
-7.7490495
-7.7487764
-7.7498166
-7.7498085
-7.7497898
-7.749751
-7.749675
-7.7495452
-7.7493558
-7.7491121
-7.7488504
-7.7498091
-7.749803
-7.749788
-7.7497566
-7.7496949
-7.7495866
-7.7494213
-7.7492
-7.7489566
-7.7497913
-7.7497867
-7.7497758
-7.7497522
-7.7497073
-7.7496265
-7.7494924
-7.7493017
-7.7490845
-7.7497477
-7.7497423
-7.7497353
-7.7497236
-7.7496982
-7.7496469
-7.7495486
-7.7493959
-7.7492133
-7.7496493
-7.7496402
-7.7496335
-7.749635
-7.7496344
-7.7496146
-7.7495549
-7.7494465
-7.7493073
-7.7494519
-7.7494392
-7.7494302
-7.7494369
-7.7494605
-7.7494769
-7.7494608
-7.7494026
-7.7493154
-7.7491468
-7.749133
-7.7491222
-7.7491272
-7.7491592
-7.7492038
-7.7492303
-7.7492234
-7.7491911
-7.7487243
-7.7487136
-7.7487049
-7.7487083
-7.748738
-7.7487959
-7.7488575
-7.7488991
-7.7489162
-7.7481979
-7.7481921
-7.7481896
-7.7481999
-7.748238
-7.7483145
-7.7484136
-7.7485053
-7.7485526
-7.7476745
-7.747678
-7.7476908
-7.7477225
-7.7477882
-7.7479009
-7.748054
-7.7482241
-7.7483347
-7.3065022
-7.3065121
-7.3065252
-7.3065399
-7.3065548
-7.3065669
-7.3065783
-7.3065945
-7.3065881
-7.3066242
-7.3066328
-7.3066413
-7.306645
-7.3066384
-7.3066192
-7.3065964
-7.3065782
-7.3065569
-7.3067878
-7.3067948
-7.3067991
-7.3067934
-7.3067713
-7.3067345
-7.3066953
-7.3066669
-7.3066547
-7.3069729
-7.3069767
-7.3069762
-7.3069632
-7.3069318
-7.3068874
-7.3068421
-7.306809
-7.3067971
-7.3071878
-7.3071878
-7.3071823
-7.3071632
-7.3071269
-7.3070781
-7.3070272
-7.3069877
-7.3069705
-7.3074218
-7.3074183
-7.3074094
-7.3073892
-7.3073537
-7.307304
-7.3072484
-7.3072013
-7.3071751
-7.3076551
-7.307649
-7.3076384
-7.3076197
-7.3075879
-7.3075409
-7.307484
-7.3074303
-7.3073924
-7.3078737
-7.307866
-7.3078547
-7.3078371
-7.3078091
-7.3077672
-7.3077112
-7.3076512
-7.3075998
-7.3080639
-7.3080552
-7.3080436
-7.3080273
-7.308003
-7.3079661
-7.3079114
-7.3078454
-7.3077805
-7.3082157
-7.3082065
-7.3081948
-7.3081799
-7.3081589
-7.3081259
-7.308072
-7.3080006
-7.3079239
-7.3083215
-7.3083119
-7.3083004
-7.3082866
-7.308268
-7.3082376
-7.3081841
-7.3081086
-7.3080232
-7.3083753
-7.3083655
-7.3083541
-7.3083409
-7.3083236
-7.3082947
-7.3082415
-7.3081639
-7.3080739
-7.3083749
-7.3083652
-7.3083538
-7.3083407
-7.3083235
-7.3082946
-7.3082413
-7.3081636
-7.3080732
-7.3083206
-7.3083111
-7.3082997
-7.3082861
-7.3082676
-7.3082373
-7.3081836
-7.3081076
-7.3080213
-7.3082143
-7.3082052
-7.3081938
-7.3081792
-7.3081585
-7.3081255
-7.3080713
-7.307999
-7.3079209
-7.3080623
-7.3080538
-7.3080426
-7.3080267
-7.3080028
-7.3079658
-7.3079107
-7.3078434
-7.3077766
-7.3078723
-7.3078649
-7.307854
-7.3078369
-7.3078093
-7.3077674
-7.3077107
-7.3076491
-7.3075953
-7.3076543
-7.3076486
-7.3076384
-7.3076204
-7.307589
-7.307542
-7.3074842
-7.3074284
-7.3073876
-7.3074223
-7.3074191
-7.3074108
-7.3073912
-7.3073562
-7.3073063
-7.3072496
-7.3072001
-7.3071705
-7.3071901
-7.3071905
-7.3071856
-7.3071671
-7.3071312
-7.3070821
-7.3070297
-7.3069875
-7.3069667
-7.3069776
-7.3069818
-7.3069819
-7.3069694
-7.3069383
-7.3068934
-7.3068465
-7.3068106
-7.3067947
-7.3067953
-7.3068026
-7.3068073
-7.3068021
-7.3067801
-7.3067428
-7.3067021
-7.3066709
-7.3066548
-7.3066342
-7.3066431
-7.3066519
-7.3066559
-7.3066493
-7.3066298
-7.3066059
-7.3065855
-7.3065604
-7.3065137
-7.3065236
-7.3065368
-7.3065517
-7.3065668
-7.3065791
-7.3065904
-7.3066056
-7.3065958
-6.862013
-6.8620137
-6.8620167
-6.8620244
-6.8620405
-6.8620676
-6.8621044
-6.8621464
-6.862174
-6.862135
-6.8621335
-6.8621328
-6.8621353
-6.8621441
-6.8621612
-6.8621829
-6.862203
-6.8622131
-6.8622567
-6.8622541
-6.8622519
-6.8622525
-6.8622587
-6.8622696
-6.86228
-6.862287
-6.8622914
-6.8623552
-6.862352
-6.8623493
-6.86235
-6.8623555
-6.8623619
-6.8623638
-6.8623606
-6.8623564
-6.8624298
-6.8624266
-6.8624241
-6.8624245
-6.8624269
-6.8624269
-6.8624205
-6.862408
-6.8623943
-6.8624826
-6.8624799
-6.8624773
-6.8624755
-6.8624732
-6.8624669
-6.8624528
-6.8624309
-6.8624071
-6.8625162
-6.8625138
-6.8625107
-6.8625063
-6.8624996
-6.8624877
-6.8624661
-6.8624347
-6.8624009
-6.8625386
-6.862536
-6.862532
-6.8625258
-6.8625155
-6.8624977
-6.8624681
-6.8624276
-6.8623846
-6.8625541
-6.8625511
-6.8625463
-6.8625387
-6.8625253
-6.8625019
-6.8624651
-6.8624165
-6.8623658
-6.8625648
-6.8625614
-6.8625559
-6.862547
-6.862531
-6.8625032
-6.8624607
-6.8624057
-6.862349
-6.8625715
-6.8625677
-6.8625617
-6.8625518
-6.8625341
-6.8625033
-6.8624569
-6.8623976
-6.8623368
-6.8625741
-6.8625702
-6.862564
-6.8625537
-6.8625352
-6.862503
-6.8624546
-6.8623931
-6.8623301
-6.8625737
-6.8625699
-6.8625637
-6.8625535
-6.862535
-6.8625028
-6.8624544
-6.8623927
-6.8623294
-6.8625704
-6.8625667
-6.8625609
-6.8625512
-6.8625336
-6.8625029
-6.8624563
-6.8623964
-6.8623347
-6.8625632
-6.8625599
-6.8625547
-6.8625461
-6.8625305
-6.8625027
-6.8624599
-6.8624039
-6.8623458
-6.8625522
-6.8625495
-6.862545
-6.8625379
-6.8625249
-6.8625015
-6.8624642
-6.8624143
-6.8623616
-6.8625369
-6.8625346
-6.862531
-6.8625254
-6.8625156
-6.8624978
-6.8624675
-6.8624253
-6.8623798
-6.8625151
-6.8625131
-6.8625105
-6.8625068
-6.8625005
-6.8624887
-6.8624661
-6.8624326
-6.8623958
-6.8624827
-6.8624805
-6.8624784
-6.8624774
-6.8624755
-6.8624691
-6.8624538
-6.8624295
-6.8624021
-6.8624317
-6.862429
-6.8624271
-6.8624281
-6.8624309
-6.8624306
-6.8624229
-6.8624076
-6.8623899
-6.8623596
-6.8623567
-6.8623546
-6.8623558
-6.8623616
-6.8623676
-6.8623679
-6.8623618
-6.8623534
-6.8622637
-6.8622614
-6.8622597
-6.8622606
-6.862267
-6.8622774
-6.8622863
-6.8622905
-6.8622907
-6.8621443
-6.8621431
-6.8621427
-6.8621454
-6.8621543
-6.862171
-6.8621915
-6.8622093
-6.8622154
-6.8620236
-6.8620244
-6.8620275
-6.8620353
-6.8620515
-6.8620786
-6.8621151
-6.8621559
-6.8621803
-6.4196636
-6.4196655
-6.4196682
-6.4196715
-6.4196755
-6.4196809
-6.4196889
-6.4197008
-6.4197084
-6.4196993
-6.4197004
-6.4197014
-6.4197017
-6.419701
-6.4197003
-6.4197018
-6.4197066
-6.4197108
-6.4197468
-6.4197473
-6.4197471
-6.4197451
-6.4197411
-6.4197366
-6.4197346
-6.4197367
-6.4197426
-6.4197963
-6.419796
-6.4197949
-6.4197916
-6.4197859
-6.4197795
-6.419775
-6.4197745
-6.4197789
-6.4198467
-6.4198458
-6.4198438
-6.4198398
-6.4198331
-6.4198248
-6.4198173
-6.4198133
-6.4198147
-6.4198963
-6.4198949
-6.4198926
-6.4198883
-6.4198811
-6.4198713
-6.4198609
-6.4198536
-6.4198516
-6.4199418
-6.4199403
-6.4199377
-6.4199333
-6.419926
-6.4199156
-6.4199034
-6.4198933
-6.4198881
-6.4199823
-6.4199806
-6.419978
-6.4199735
-6.4199663
-6.4199556
-6.4199422
-6.41993
-6.4199219
-6.4200162
-6.4200145
-6.4200118
-6.4200074
-6.4200003
-6.4199895
-6.4199753
-6.4199613
-6.4199508
-6.4200426
-6.4200409
-6.4200382
-6.4200339
-6.4200268
-6.420016
-6.4200012
-6.4199859
-6.4199732
-6.4200605
-6.4200588
-6.4200562
-6.420052
-6.420045
-6.4200341
-6.4200189
-6.4200026
-6.4199884
-6.4200693
-6.4200676
-6.4200651
-6.4200609
-6.420054
-6.4200432
-6.4200278
-6.4200109
-6.4199957
-6.4200689
-6.4200672
-6.4200648
-6.4200607
-6.4200539
-6.4200431
-6.4200276
-6.4200105
-6.419995
-6.4200594
-6.4200578
-6.4200554
-6.4200513
-6.4200445
-6.4200337
-6.4200183
-6.4200014
-6.4199863
-6.4200409
-6.4200394
-6.420037
-6.420033
-6.4200262
-6.4200154
-6.4200003
-6.4199841
-6.41997
-6.4200142
-6.4200128
-6.4200105
-6.4200066
-6.4199998
-6.419989
-6.4199744
-6.4199591
-6.4199466
-6.4199804
-6.4199791
-6.419977
-6.4199731
-6.4199662
-6.4199556
-6.4199415
-6.4199276
-6.419917
-6.4199406
-6.4199395
-6.4199375
-6.4199337
-6.4199268
-6.4199164
-6.4199033
-6.4198911
-6.4198829
-6.4198963
-6.4198954
-6.4198936
-6.41989
-6.4198832
-6.4198733
-6.4198618
-6.419852
-6.4198464
-6.4198484
-6.419848
-6.4198466
-6.4198433
-6.419837
-6.4198285
-6.4198195
-6.4198128
-6.4198102
-6.4198004
-6.4198006
-6.4198
-6.4197973
-6.4197918
-6.419785
-6.419779
-6.4197755
-6.4197757
-6.4197535
-6.4197544
-6.4197546
-6.419753
-6.4197491
-6.4197442
-6.4197405
-6.4197397
-6.4197414
-6.4197083
-6.4197096
-6.4197109
-6.4197115
-6.4197108
-6.4197096
-6.4197099
-6.4197122
-6.4197123
-6.4196737
-6.4196757
-6.4196784
-6.4196818
-6.4196859
-6.4196912
-6.4196988
-6.4197095
-6.4197138
-5.9766822
-5.9766826
-5.9766835
-5.9766854
-5.9766891
-5.976695
-5.9767028
-5.9767114
-5.9767161
-5.9767087
-5.9767085
-5.9767084
-5.976709
-5.9767108
-5.9767138
-5.9767174
-5.9767206
-5.9767217
-5.9767376
-5.9767371
-5.9767366
-5.9767365
-5.9767371
-5.9767377
-5.9767379
-5.976738
-5.9767385
-5.9767628
-5.976762
-5.9767613
-5.9767609
-5.9767607
-5.9767599
-5.9767582
-5.9767564
-5.9767557
-5.976784
-5.9767831
-5.9767821
-5.9767812
-5.9767802
-5.9767784
-5.9767756
-5.9767724
-5.9767701
-5.9768019
-5.9768009
-5.9767996
-5.9767982
-5.9767966
-5.9767943
-5.9767906
-5.9767859
-5.9767817
-5.9768169
-5.9768157
-5.9768142
-5.9768124
-5.9768104
-5.9768077
-5.9768033
-5.9767972
-5.9767909
-5.9768297
-5.9768284
-5.9768266
-5.9768246
-5.9768223
-5.9768193
-5.9768142
-5.9768065
-5.9767982
-5.9768402
-5.9768387
-5.9768367
-5.9768345
-5.9768321
-5.9768289
-5.9768231
-5.9768142
-5.9768038
-5.9768482
-5.9768465
-5.9768444
-5.9768422
-5.9768397
-5.9768364
-5.9768302
-5.9768201
-5.9768081
-5.9768535
-5.9768517
-5.9768496
-5.9768473
-5.9768449
-5.9768415
-5.9768349
-5.976824
-5.9768108
-5.9768559
-5.9768542
-5.976852
-5.9768498
-5.9768474
-5.976844
-5.9768373
-5.9768258
-5.9768119
-5.9768555
-5.9768538
-5.9768517
-5.9768495
-5.9768472
-5.9768439
-5.9768371
-5.9768255
-5.9768113
-5.9768524
-5.9768508
-5.9768488
-5.9768467
-5.9768444
-5.9768411
-5.9768343
-5.9768229
-5.9768089
-5.9768466
-5.9768451
-5.9768433
-5.9768413
-5.9768391
-5.9768359
-5.9768293
-5.9768184
-5.976805
-5.9768384
-5.9768371
-5.9768355
-5.9768337
-5.9768316
-5.9768284
-5.9768222
-5.9768121
-5.9767999
-5.976828
-5.976827
-5.9768256
-5.9768241
-5.9768222
-5.9768192
-5.9768135
-5.9768043
-5.9767936
-5.9768158
-5.976815
-5.9768139
-5.9768127
-5.9768112
-5.9768084
-5.9768032
-5.9767951
-5.976786
-5.9768019
-5.9768013
-5.9768005
-5.9767997
-5.9767985
-5.9767961
-5.9767913
-5.9767844
-5.976777
-5.9767856
-5.9767851
-5.9767847
-5.9767844
-5.9767838
-5.9767818
-5.9767776
-5.9767718
-5.976766
-5.9767666
-5.9767663
-5.976766
-5.9767662
-5.9767663
-5.976765
-5.9767618
-5.9767573
-5.9767529
-5.9767439
-5.9767437
-5.9767436
-5.976744
-5.9767446
-5.9767448
-5.9767435
-5.976741
-5.9767378
-5.9767172
-5.9767172
-5.9767174
-5.9767183
-5.9767201
-5.9767227
-5.9767252
-5.9767264
-5.9767239
-5.9766919
-5.9766923
-5.9766932
-5.9766953
-5.9766991
-5.9767051
-5.9767127
-5.9767206
-5.9767222
-5.5339826
-5.5339827
-5.5339831
-5.5339837
-5.5339851
-5.5339874
-5.533991
-5.5339958
-5.5339991
-5.5339945
-5.5339944
-5.5339942
-5.5339941
-5.5339943
-5.5339953
-5.5339974
-5.5340006
-5.5340033
-5.5340078
-5.5340075
-5.5340072
-5.5340067
-5.5340063
-5.5340063
-5.5340073
-5.5340094
-5.5340122
-5.5340198
-5.5340196
-5.5340191
-5.5340185
-5.5340177
-5.5340171
-5.5340171
-5.5340182
-5.5340204
-5.5340307
-5.5340305
-5.53403
-5.5340291
-5.534028
-5.5340266
-5.5340255
-5.5340253
-5.5340264
-5.5340407
-5.5340403
-5.5340398
-5.5340389
-5.5340373
-5.5340351
-5.5340328
-5.5340311
-5.5340308
-5.5340492
-5.5340489
-5.5340484
-5.5340473
-5.5340455
-5.5340425
-5.5340389
-5.5340358
-5.5340341
-5.5340565
-5.5340562
-5.5340556
-5.5340545
-5.5340523
-5.5340487
-5.534044
-5.5340395
-5.5340366
-5.5340624
-5.5340621
-5.5340615
-5.5340603
-5.5340579
-5.5340537
-5.534048
-5.5340424
-5.5340384
-5.5340668
-5.5340665
-5.5340659
-5.5340646
-5.534062
-5.5340574
-5.5340509
-5.5340444
-5.5340396
-5.5340696
-5.5340693
-5.5340687
-5.5340674
-5.5340647
-5.5340598
-5.5340528
-5.5340457
-5.5340402
-5.5340708
-5.5340706
-5.53407
-5.5340687
-5.534066
-5.5340609
-5.5340537
-5.5340461
-5.5340402
-5.5340705
-5.5340703
-5.5340697
-5.5340685
-5.5340658
-5.5340608
-5.5340535
-5.5340458
-5.5340397
-5.5340688
-5.5340686
-5.5340681
-5.5340669
-5.5340643
-5.5340594
-5.5340523
-5.5340448
-5.5340386
-5.5340655
-5.5340654
-5.5340649
-5.5340639
-5.5340615
-5.5340569
-5.5340502
-5.534043
-5.5340371
-5.5340609
-5.5340608
-5.5340605
-5.5340596
-5.5340575
-5.5340533
-5.5340472
-5.5340406
-5.5340351
-5.5340552
-5.5340551
-5.5340548
-5.5340541
-5.5340523
-5.5340487
-5.5340434
-5.5340376
-5.5340328
-5.5340483
-5.5340483
-5.5340481
-5.5340476
-5.534046
-5.5340431
-5.5340388
-5.534034
-5.5340301
-5.5340406
-5.5340407
-5.5340406
-5.5340401
-5.5340389
-5.5340366
-5.5340334
-5.5340298
-5.5340269
-5.5340321
-5.5340322
-5.5340321
-5.5340318
-5.5340309
-5.5340293
-5.5340272
-5.5340248
-5.534023
-5.534023
-5.5340231
-5.5340231
-5.5340229
-5.5340223
-5.5340213
-5.5340201
-5.534019
-5.5340182
-5.534013
-5.5340131
-5.5340131
-5.5340129
-5.5340126
-5.5340122
-5.534012
-5.534012
-5.5340119
-5.5340016
-5.5340017
-5.5340017
-5.5340018
-5.5340021
-5.5340028
-5.5340042
-5.5340057
-5.5340054
-5.5339908
-5.5339909
-5.5339913
-5.5339921
-5.5339936
-5.5339961
-5.5339996
-5.5340039
-5.5340045
-5.0912921
-5.0912922
-5.0912924
-5.0912928
-5.0912934
-5.0912945
-5.0912962
-5.0912983
-5.0912998
-5.0912981
-5.0912981
-5.091298
-5.091298
-5.091298
-5.0912983
-5.0912989
-5.0913001
-5.0913011
-5.0913053
-5.0913052
-5.091305
-5.0913047
-5.0913043
-5.0913039
-5.0913038
-5.0913044
-5.0913057
-5.0913126
-5.0913124
-5.091312
-5.0913116
-5.091311
-5.0913103
-5.09131
-5.0913101
-5.0913112
-5.0913201
-5.0913198
-5.0913193
-5.0913187
-5.091318
-5.0913173
-5.0913168
-5.0913166
-5.0913172
-5.0913276
-5.0913272
-5.0913266
-5.091326
-5.0913253
-5.0913247
-5.0913241
-5.0913236
-5.0913237
-5.0913346
-5.0913341
-5.0913335
-5.0913329
-5.0913323
-5.0913318
-5.0913313
-5.0913307
-5.0913303
-5.0913409
-5.0913403
-5.0913397
-5.0913391
-5.0913387
-5.0913383
-5.0913379
-5.0913371
-5.0913364
-5.0913461
-5.0913455
-5.0913449
-5.0913444
-5.0913441
-5.0913439
-5.0913435
-5.0913427