/*--------------------------------*- C++ -*----------------------------------*\
| =========                 |                                                 |
| \\      /  F ield         | OpenFOAM: The Open Source CFD Toolbox           |
|  \\    /   O peration     | Version:  2406                                  |
|   \\  /    A nd           | Website:  www.openfoam.com                      |
|    \\/     M anipulation  |                                                 |
\*---------------------------------------------------------------------------*/
FoamFile
{
    version     2.0;
    format      ascii;
    arch        "LSB;label=32;scalar=64";
    class       volVectorField;
    location    "16.75";
    object      U;
}
// * * * * * * * * * * * * * * * * * * * * * * * * * * * * * * * * * * * * * //

dimensions      [0 1 -1 0 0 0 0];

internalField   nonuniform List<vector> 
34560
(
(0.071724422 -0.0017278852 -0.017045224)
(0.22860279 -0.0041087193 -0.054687716)
(0.41887176 -0.0073386624 -0.097845012)
(0.63331448 -0.01092461 -0.14250178)
(0.85441083 -0.015332296 -0.18125296)
(1.0585105 -0.020445022 -0.20673757)
(1.2216039 -0.025014284 -0.21416456)
(1.3372042 -0.029225008 -0.20709029)
(1.4128506 -0.031715908 -0.19239108)
(0.086914305 -0.0023042611 -0.019766091)
(0.27251472 -0.0052404255 -0.062996625)
(0.49111105 -0.008772027 -0.1111994)
(0.72862874 -0.012243187 -0.15916837)
(0.96320102 -0.016190532 -0.198099)
(1.1686777 -0.020636034 -0.22021996)
(1.3228458 -0.024344867 -0.221879)
(1.4238487 -0.027115563 -0.20843004)
(1.4866939 -0.028581104 -0.18685375)
(0.10250162 -0.0024325297 -0.021772982)
(0.31657429 -0.0052354049 -0.069298431)
(0.56186101 -0.0085379069 -0.12125968)
(0.81931259 -0.011718287 -0.17159368)
(1.0636838 -0.015391419 -0.21051144)
(1.2677325 -0.01969806 -0.23008006)
(1.41245 -0.023428545 -0.22787076)
(1.5003805 -0.025716934 -0.21007021)
(1.5527478 -0.026848804 -0.18546365)
(0.11855062 -0.0026390678 -0.023676981)
(0.36099115 -0.0054258398 -0.07519775)
(0.63168281 -0.0084737142 -0.13043154)
(0.90672068 -0.011230499 -0.18253073)
(1.1584523 -0.014426542 -0.22094382)
(1.3595682 -0.018348979 -0.23789839)
(1.4949035 -0.021899605 -0.23243513)
(1.5710027 -0.023637924 -0.21138427)
(1.6137217 -0.024155187 -0.18485452)
(0.13427223 -0.0026233695 -0.02525859)
(0.40392765 -0.0051246878 -0.080195372)
(0.69832807 -0.007740765 -0.13813217)
(0.98905773 -0.010014225 -0.19153872)
(1.246448 -0.012753925 -0.22938002)
(1.4440886 -0.016246016 -0.24397723)
(1.5705355 -0.019468776 -0.23578117)
(1.6360309 -0.020680883 -0.21224134)
(1.6698302 -0.020717307 -0.18438949)
(0.1493293 -0.0025214433 -0.026530097)
(0.44452982 -0.0047360806 -0.084303061)
(0.76061734 -0.0069102715 -0.14445127)
(1.065175 -0.0086952814 -0.1988464)
(1.3269206 -0.010966267 -0.23615767)
(1.5209942 -0.013951648 -0.24868906)
(1.6391702 -0.016686856 -0.23810484)
(1.6953748 -0.017461215 -0.21272414)
(1.7210498 -0.017150363 -0.18386572)
(0.16340167 -0.002327454 -0.027599421)
(0.48202088 -0.0042113977 -0.087771564)
(0.81750354 -0.0059325947 -0.14972582)
(1.1339746 -0.0072523316 -0.20483572)
(1.3991299 -0.0090736143 -0.241571)
(1.5898293 -0.011545046 -0.25223413)
(1.7004949 -0.013752092 -0.23950782)
(1.7486792 -0.0142039 -0.21276792)
(1.7670566 -0.013664156 -0.18307103)
(0.17581098 -0.0020447269 -0.028452168)
(0.51485177 -0.0035783463 -0.090589007)
(0.86703329 -0.0048776193 -0.15399599)
(1.1935966 -0.0058015063 -0.20963224)
(1.4616378 -0.0072171388 -0.24580533)
(1.6495842 -0.0091930168 -0.25481377)
(1.7539584 -0.01090334 -0.24025521)
(1.795259 -0.011100023 -0.21238042)
(1.8071928 -0.010426077 -0.18194444)
(0.1861458 -0.0016680523 -0.029099734)
(0.54206704 -0.0028285591 -0.092779357)
(0.9079588 -0.0037478594 -0.15731676)
(1.2427754 -0.0043603203 -0.21333403)
(1.5133131 -0.0054261356 -0.24898679)
(1.6992411 -0.0069448914 -0.25656553)
(1.7986402 -0.0082138082 -0.24045955)
(1.8342057 -0.0082299906 -0.21160224)
(1.8406518 -0.0075305667 -0.18055608)
(0.19415372 -0.0012329744 -0.029559897)
(0.56308868 -0.0020526403 -0.094374199)
(0.93950011 -0.0026677231 -0.15974278)
(1.280645 -0.0030571484 -0.21602264)
(1.5532186 -0.003808182 -0.2512183)
(1.737765 -0.0048826388 -0.25762433)
(1.8334633 -0.005743721 -0.24027196)
(1.8645091 -0.0056478322 -0.21059775)
(1.8666264 -0.0050305543 -0.17913532)
(0.1998454 -0.00079035981 -0.029897636)
(0.57784829 -0.0013283942 -0.095504011)
(0.96141619 -0.001703338 -0.16141612)
(1.306738 -0.0019146025 -0.21782168)
(1.5806106 -0.0023403572 -0.25261852)
(1.7641692 -0.0029540919 -0.2581482)
(1.857339 -0.0034278576 -0.23990018)
(1.8852196 -0.0033017772 -0.20964312)
(1.8843517 -0.0028688607 -0.17796076)
(0.20252683 -0.00024293351 -0.030045513)
(0.5849021 -0.00036151435 -0.096034912)
(0.97202683 -0.00043946563 -0.16221628)
(1.3195356 -0.00048476969 -0.21868849)
(1.5942029 -0.00063337444 -0.253286)
(1.777405 -0.00086554361 -0.25836416)
(1.8693912 -0.0010546014 -0.23964835)
(1.8956873 -0.0010333532 -0.20908681)
(1.8933146 -0.00090311227 -0.17730965)
(0.20252683 0.00024290895 -0.030045507)
(0.58490209 0.00036143315 -0.096034925)
(0.97202681 0.00043933724 -0.16221627)
(1.3195355 0.00048458556 -0.21868845)
(1.5942029 0.00063306751 -0.25328595)
(1.7774049 0.00086511247 -0.25836413)
(1.8693912 0.0010540681 -0.23964832)
(1.8956873 0.001032756 -0.20908681)
(1.8933146 0.00090254503 -0.17730967)
(0.1998454 0.00079034541 -0.029897632)
(0.57784829 0.0013283209 -0.095504008)
(0.96141616 0.0017032012 -0.16141611)
(1.306738 0.0019144158 -0.21782161)
(1.5806105 0.0023400733 -0.25261842)
(1.7641691 0.0029537042 -0.25814813)
(1.8573388 0.0034273694 -0.2399001)
(1.8852195 0.0033011984 -0.20964307)
(1.8843517 0.0028682247 -0.17796079)
(0.19415371 0.0012329616 -0.029559944)
(0.56308866 0.00205261 -0.09437422)
(0.93950006 0.0026676431 -0.15974286)
(1.2806449 0.0030570072 -0.21602266)
(1.5532185 0.0038079333 -0.25121826)
(1.7377649 0.0048822765 -0.25762425)
(1.8334632 0.0057432521 -0.24027183)
(1.864509 0.0056472794 -0.21059761)
(1.8666263 0.0050298938 -0.17913527)
(0.18614579 0.0016680533 -0.029099827)
(0.54206701 0.0028285883 -0.092779449)
(0.90795874 0.0037478542 -0.15731686)
(1.2427754 0.0043602003 -0.21333404)
(1.513313 0.0054258746 -0.24898673)
(1.699241 0.0069445192 -0.25656541)
(1.7986402 0.0082133421 -0.24045936)
(1.8342056 0.0082294745 -0.21160201)
(1.8406517 0.0075299779 -0.18055593)
(0.17581097 0.0020447177 -0.028452183)
(0.51485174 0.0035783264 -0.090588983)
(0.86703323 0.0048775815 -0.15399588)
(1.1935965 0.0058013447 -0.20963209)
(1.4616377 0.0072168577 -0.24580523)
(1.6495841 0.0091926783 -0.25481362)
(1.7539583 0.010902941 -0.24025499)
(1.7952589 0.011099568 -0.21238012)
(1.8071927 0.010425597 -0.18194416)
(0.16340166 0.0023274402 -0.027599346)
(0.48202085 0.0042113167 -0.087771485)
(0.81750347 0.005932512 -0.14972563)
(1.1339745 0.0072522099 -0.20483556)
(1.3991297 0.0090734326 -0.24157096)
(1.5898291 0.011544834 -0.25223402)
(1.7004948 0.013751812 -0.23950756)
(1.7486791 0.014203515 -0.21276754)
(1.7670565 0.01366373 -0.1830706)
(0.14932929 0.0025214268 -0.026530098)
(0.44452978 0.0047360146 -0.084303067)
(0.76061726 0.0069101788 -0.14445124)
(1.0651749 0.0086952423 -0.1988464)
(1.3269205 0.010966211 -0.23615767)
(1.5209941 0.013951604 -0.24868891)
(1.6391701 0.016686711 -0.23810448)
(1.6953747 0.017460894 -0.21272365)
(1.7210496 0.017149919 -0.18386522)
(0.13427222 0.0026233648 -0.02525856)
(0.40392763 0.005124615 -0.080195384)
(0.69832803 0.0077406626 -0.13813223)
(0.98905765 0.010014193 -0.19153876)
(1.2464479 0.012753938 -0.22938001)
(1.4440885 0.016246039 -0.24397704)
(1.5705354 0.019468804 -0.23578069)
(1.6360308 0.020680663 -0.21224073)
(1.66983 0.02071681 -0.18438895)
(0.11855062 0.0026390582 -0.023676977)
(0.36099114 0.0054257364 -0.075197876)
(0.63168279 0.0084736113 -0.13043168)
(0.90672064 0.011230403 -0.18253083)
(1.1584523 0.014426553 -0.22094379)
(1.3595682 0.01834905 -0.23789817)
(1.4949034 0.021899836 -0.23243463)
(1.5710026 0.023637888 -0.21138347)
(1.6137215 0.024154785 -0.18485403)
(0.10250162 0.0024325396 -0.021773016)
(0.31657429 0.0052353772 -0.069298559)
(0.56186101 0.0085379072 -0.12125977)
(0.8193126 0.011718279 -0.17159374)
(1.0636838 0.015391466 -0.21051144)
(1.2677326 0.01969822 -0.23007999)
(1.41245 0.023428896 -0.22787024)
(1.5003805 0.025717443 -0.2100695)
(1.5527477 0.02684874 -0.18546337)
(0.086914315 0.0023042644 -0.019766093)
(0.27251476 0.0052404062 -0.062996625)
(0.49111111 0.0087720338 -0.11119936)
(0.72862884 0.012243233 -0.15916835)
(0.96320113 0.016190619 -0.19809898)
(1.1686778 0.020636174 -0.22021983)
(1.3228458 0.024345057 -0.22187869)
(1.4238486 0.027116165 -0.20842943)
(1.4866939 0.028581347 -0.18685293)
(0.071724443 0.0017278837 -0.017045209)
(0.22860286 0.004108694 -0.054687684)
(0.41887189 0.007338641 -0.097844971)
(0.63331468 0.010924624 -0.14250173)
(0.85441109 0.015332367 -0.1812528)
(1.0585108 0.020445118 -0.2067374)
(1.221604 0.025014352 -0.21416437)
(1.3372042 0.029224935 -0.20708922)
(1.4128506 0.031715655 -0.19238974)
(0.052085045 0.0011527253 0.00079230809)
(0.1800616 0.0022129961 0.00042119832)
(0.35623019 0.0011520437 -0.0045647293)
(0.58012042 -0.0039651672 -0.016923997)
(0.83537888 -0.014413043 -0.037127701)
(1.0901149 -0.02942931 -0.061121772)
(1.3097499 -0.04639314 -0.082513087)
(1.4707411 -0.060961554 -0.094563933)
(1.5663416 -0.070410662 -0.096915722)
(0.059118445 0.00090043547 0.00037524658)
(0.20428677 0.0009861444 -0.0012157287)
(0.40312775 -0.0017250083 -0.0084909917)
(0.65196068 -0.0091352579 -0.024233009)
(0.92644136 -0.021893677 -0.047905122)
(1.1867273 -0.038119131 -0.073380046)
(1.3970128 -0.054573669 -0.093180066)
(1.5412685 -0.06738923 -0.10191906)
(1.6228393 -0.074488269 -0.10019062)
(0.065759542 0.0010449148 0.00027059104)
(0.22724239 0.00095579836 -0.0019050982)
(0.44757575 -0.0025031579 -0.010740739)
(0.71958353 -0.011208419 -0.028864704)
(1.0103691 -0.025154826 -0.054739937)
(1.2728298 -0.041437895 -0.080550792)
(1.4717247 -0.056475976 -0.098258692)
(1.6001503 -0.067466314 -0.10455486)
(1.6706134 -0.072952284 -0.10052479)
(0.072475748 0.0010875148 7.2802135e-05)
(0.2501847 0.00078615879 -0.0027680928)
(0.491501 -0.0032115591 -0.013123403)
(0.78560431 -0.012678281 -0.033293592)
(1.0909553 -0.02704881 -0.060685719)
(1.3541015 -0.042685555 -0.086131649)
(1.541452 -0.055903481 -0.10146643)
(1.6552878 -0.065041163 -0.10572935)
(1.7154062 -0.069273034 -0.10014956)
(0.078809306 0.0011267967 -0.00011454395)
(0.27188588 0.00072656552 -0.0035226145)
(0.53307345 -0.0035250906 -0.015164949)
(0.84791896 -0.013245566 -0.036973924)
(1.1669071 -0.027405414 -0.065300663)
(1.4305736 -0.041970868 -0.090230247)
(1.6072988 -0.053326952 -0.10343183)
(1.7079197 -0.060712629 -0.10610684)
(1.7581806 -0.063842853 -0.099633729)
(0.084793837 0.0011356158 -0.00030858151)
(0.29233974 0.00071786789 -0.0042152629)
(0.57211293 -0.003525857 -0.016913965)
(0.90608704 -0.01300775 -0.039955587)
(1.2376138 -0.026349431 -0.068678665)
(1.5019041 -0.03945451 -0.093065406)
(1.6693428 -0.048987741 -0.10455911)
(1.7581258 -0.054782942 -0.10603211)
(1.7992326 -0.057031513 -0.099298467)
(0.090520445 0.0010736096 -0.00051038608)
(0.31167574 0.0006420505 -0.0048733093)
(0.60862375 -0.0033989792 -0.018448353)
(0.95994685 -0.012218929 -0.042405655)
(1.3025643 -0.024247406 -0.071195096)
(1.5673456 -0.035592554 -0.09489249)
(1.7270074 -0.043358467 -0.10519873)
(1.8054331 -0.047797226 -0.10584592)
(1.8384237 -0.049445667 -0.099375197)
(0.095601448 0.00095962738 -0.00069819324)
(0.32884218 0.00054604206 -0.0054428872)
(0.64103136 -0.0030924816 -0.019695812)
(1.0077166 -0.010877629 -0.044283912)
(1.3601126 -0.021217756 -0.072952444)
(1.6254632 -0.030646941 -0.095868331)
(1.7789073 -0.03678334 -0.10533864)
(1.8489049 -0.040205868 -0.10549558)
(1.8751459 -0.041489463 -0.099485311)
(0.099859129 0.00079087596 -0.00086336066)
(0.34327733 0.00041484555 -0.0059118636)
(0.66836272 -0.0026449855 -0.020655772)
(1.0481069 -0.0090747787 -0.045625223)
(1.4088564 -0.01743056 -0.074041167)
(1.6749283 -0.024855058 -0.096215119)
(1.8235867 -0.029534598 -0.10505843)
(1.8871312 -0.032198811 -0.10489136)
(1.9079966 -0.033149982 -0.098929154)
(0.10320338 0.00058885049 -0.00099271184)
(0.35467292 0.00028542225 -0.0062569965)
(0.69000368 -0.0020403224 -0.021317234)
(1.0801264 -0.0068554031 -0.046462391)
(1.4474774 -0.013007974 -0.074561012)
(1.7141777 -0.018380195 -0.096041185)
(1.8593066 -0.021721214 -0.10440904)
(1.9182354 -0.023652328 -0.10400958)
(1.9348449 -0.024245308 -0.097139681)
(0.10585149 0.00036195071 -0.001082971)
(0.363364 0.00016197427 -0.0064877355)
(0.70601085 -0.0012988861 -0.021731617)
(1.103211 -0.0042837043 -0.046916781)
(1.4747888 -0.008051216 -0.07470706)
(1.741659 -0.011313662 -0.095625532)
(1.8842564 -0.013344329 -0.10351493)
(1.9401159 -0.014502485 -0.10264061)
(1.9537694 -0.014777053 -0.09530591)
(0.10696054 0.0001032221 -0.0011259163)
(0.36724211 -8.9012097e-07 -0.0065904158)
(0.71349907 -0.00052021832 -0.021900978)
(1.1144057 -0.0015412564 -0.047076455)
(1.4883647 -0.0028089207 -0.074682657)
(1.7555269 -0.003889187 -0.095285935)
(1.8969796 -0.0045496782 -0.10293586)
(1.9513374 -0.0049111762 -0.10168791)
(1.963484 -0.0049676567 -0.094189207)
(0.10696053 -0.00010322949 -0.001125918)
(0.3672421 8.5656636e-07 -0.0065904258)
(0.71349905 0.00052013763 -0.021900983)
(1.1144057 0.0015410758 -0.047076444)
(1.4883646 0.0028085864 -0.074682636)
(1.7555268 0.0038887149 -0.095285909)
(1.8969796 0.0045491175 -0.10293583)
(1.9513373 0.0049105705 -0.10168789)
(1.9634839 0.0049671032 -0.094189195)
(0.10585148 -0.00036194957 -0.0010829755)
(0.36336397 -0.00016199475 -0.0064877468)
(0.7060108 0.001298818 -0.021731622)
(1.1032109 0.0042835432 -0.046916754)
(1.4747887 0.0080509157 -0.074707014)
(1.7416588 0.011313235 -0.09562547)
(1.8842562 0.013343816 -0.10351485)
(1.9401157 0.014501897 -0.10264052)
(1.9537692 0.014776461 -0.095305845)
(0.10320337 -0.00058885113 -0.00099272891)
(0.35467287 -0.00028543856 -0.0062570201)
(0.6900036 0.0020402672 -0.021317271)
(1.0801263 0.0068552684 -0.046462397)
(1.4474772 0.013007713 -0.074560988)
(1.7141775 0.018379808 -0.096041112)
(1.8593064 0.021720743 -0.1044089)
(1.9182352 0.023651778 -0.10400938)
(1.9348447 0.024244711 -0.09713952)
(0.099859111 -0.00079087502 -0.00086339876)
(0.34327727 -0.0004148501 -0.0059119268)
(0.66836262 0.002644954 -0.020655829)
(1.0481068 0.0090746637 -0.045625242)
(1.4088562 0.017430316 -0.07404114)
(1.6749282 0.024854693 -0.096215017)
(1.8235865 0.029534157 -0.10505823)
(1.887131 0.032198327 -0.10489107)
(1.9079963 0.033149458 -0.098928895)
(0.095601427 -0.00095962308 -0.00069821285)
(0.32884211 -0.00054605684 -0.0054429302)
(0.64103125 0.0030924494 -0.019695794)
(1.0077165 0.010877508 -0.04428388)
(1.3601125 0.021217525 -0.072952388)
(1.6254631 0.030646626 -0.095868199)
(1.7789072 0.036782966 -0.1053384)
(1.8489047 0.040205479 -0.10549523)
(1.8751457 0.041489048 -0.099484959)
(0.090520425 -0.0010736008 -0.00051036598)
(0.31167568 -0.00064207697 -0.0048733144)
(0.60862363 0.0033989446 -0.0184483)
(0.9599467 0.012218834 -0.04240563)
(1.3025642 0.024247243 -0.071195071)
(1.5673455 0.035592341 -0.094892364)
(1.7270072 0.043358202 -0.10519846)
(1.8054329 0.047796941 -0.1058455)
(1.8384235 0.049445327 -0.099374745)
(0.084793822 -0.0011356058 -0.00030857972)
(0.29233969 -0.0007178786 -0.0042153039)
(0.57211283 0.0035258377 -0.016913998)
(0.90608689 0.013007718 -0.039955639)
(1.2376136 0.026349353 -0.068678672)
(1.5019039 0.039454401 -0.093065253)
(1.6693427 0.048987584 -0.10455879)
(1.7581257 0.054782745 -0.1060316)
(1.7992325 0.057031202 -0.099297948)
(0.078809302 -0.0011267894 -0.00011454383)
(0.27188586 -0.00072658856 -0.0035226833)
(0.53307342 0.0035250668 -0.015165019)
(0.84791888 0.013245548 -0.036973978)
(1.1669069 0.027405381 -0.065300631)
(1.4305734 0.041970824 -0.090230054)
(1.6072987 0.053326872 -0.10343146)
(1.7079196 0.060712467 -0.10610625)
(1.7581805 0.063842549 -0.099633181)
(0.072475756 -0.0010875129 7.2796341e-05)
(0.25018472 -0.00078620923 -0.0027681881)
(0.49150103 0.003211506 -0.013123499)
(0.78560432 0.012678224 -0.033293652)
(1.0909553 0.027048789 -0.060685674)
(1.3541015 0.042685556 -0.086131439)
(1.541452 0.055903462 -0.101466)
(1.6552877 0.065041007 -0.10572867)
(1.7154061 0.069272775 -0.1001491)
(0.06575956 -0.0010449082 0.00027058382)
(0.22724245 -0.00095582602 -0.0019051532)
(0.44757584 0.0025031428 -0.010740764)
(0.71958364 0.011208406 -0.028864706)
(1.0103692 0.025154857 -0.054739869)
(1.2728299 0.041437972 -0.080550579)
(1.4717247 0.056476033 -0.098258213)
(1.6001504 0.067466256 -0.10455426)
(1.6706134 0.072952065 -0.10052444)
(0.059118473 -0.00090043734 0.00037525526)
(0.20428686 -0.00098618186 -0.0012157186)
(0.40312791 0.001724977 -0.0084909531)
(0.65196089 0.0091352399 -0.024232978)
(0.92644159 0.021893694 -0.047905038)
(1.1867275 0.038119208 -0.073379797)
(1.3970131 0.054573748 -0.093179627)
(1.5412687 0.067389235 -0.10191851)
(1.6228396 0.074488119 -0.10019023)
(0.052085085 -0.0011527266 0.0007923152)
(0.18006172 -0.0022130139 0.00042121233)
(0.35623041 -0.0011520643 -0.0045647144)
(0.58012072 0.0039651543 -0.016923971)
(0.83537922 0.014413045 -0.037127597)
(1.0901153 0.029429337 -0.061121556)
(1.3097502 0.046393124 -0.082512665)
(1.4707414 0.060961279 -0.094563234)
(1.5663419 0.070410218 -0.096915336)
(0.040688607 0.00037479575 0.00027705982)
(0.1448663 0.00075980334 0.00028240799)
(0.29601298 0.00038601952 -0.0011288192)
(0.50072663 -0.0019425014 -0.0052498649)
(0.75166566 -0.0080423427 -0.013436552)
(1.0200253 -0.019178747 -0.02577624)
(1.2612799 -0.034164771 -0.039917766)
(1.4408234 -0.048066749 -0.050436624)
(1.5464123 -0.057381208 -0.054909469)
(0.043829103 -1.1567602e-05 -9.5875228e-05)
(0.15730995 -0.00045301863 -0.00087726377)
(0.32326003 -0.0018017713 -0.0033036081)
(0.54771488 -0.0052762731 -0.0087362776)
(0.81875562 -0.012757692 -0.018503431)
(1.0990367 -0.025221858 -0.032298587)
(1.3377962 -0.040685741 -0.04651127)
(1.5035275 -0.05385657 -0.055467279)
(1.5957397 -0.061472723 -0.057729991)
(0.046283208 -0.00025305911 -0.00028436821)
(0.1675313 -0.001234392 -0.0015039323)
(0.3463395 -0.0032278675 -0.0045731211)
(0.58809994 -0.0074287836 -0.010880218)
(0.87632521 -0.015669528 -0.021626439)
(1.1654417 -0.028536876 -0.036104883)
(1.3995216 -0.043389824 -0.049756083)
(1.5522836 -0.05523419 -0.057110292)
(1.6343336 -0.061480757 -0.057573348)
(0.048672164 -0.00051414843 -0.00044008524)
(0.17733451 -0.0020340923 -0.0020101651)
(0.36824733 -0.0046011519 -0.0056101418)
(0.62606749 -0.0093563579 -0.012642599)
(0.9298674 -0.01805007 -0.024112169)
(1.2264992 -0.030904458 -0.03887855)
(1.4556542 -0.044734571 -0.051685147)
(1.596535 -0.054986004 -0.057391333)
(1.6693416 -0.059889602 -0.056274978)
(0.050777523 -0.00070233982 -0.00051191122)
(0.18618655 -0.002624993 -0.0022649313)
(0.38833023 -0.00562498 -0.0062191389)
(0.66124125 -0.010769626 -0.013826292)
(0.97968185 -0.019663657 -0.025839909)
(1.2835054 -0.032211511 -0.040585568)
(1.5084439 -0.044790609 -0.052414356)
(1.638725 -0.053381367 -0.0566104)
(1.7027856 -0.0569609 -0.054214854)
(0.052755756 -0.00082325696 -0.00052190878)
(0.1944718 -0.0030092919 -0.0023265116)
(0.40710401 -0.0062850963 -0.0064826647)
(0.69418781 -0.011619522 -0.014488225)
(1.0264827 -0.020420643 -0.026865259)
(1.3370001 -0.032297813 -0.04118145)
(1.5585017 -0.043437392 -0.051917956)
(1.6795057 -0.050383682 -0.054705627)
(1.7353478 -0.052756294 -0.051208763)
(0.054772797 -0.00088944123 -0.00049851497)
(0.20257943 -0.0032100297 -0.0022716635)
(0.42502923 -0.0065951914 -0.0065065725)
(0.72523866 -0.011888354 -0.01471639)
(1.0704366 -0.020265682 -0.027220147)
(1.3869972 -0.031081784 -0.040866319)
(1.6055172 -0.040626319 -0.050253379)
(1.7184349 -0.0459764 -0.051630371)
(1.7666287 -0.047276889 -0.047131294)
(0.056586435 -0.00088176615 -0.00044451784)
(0.20985096 -0.0031659413 -0.0021089625)
(0.44110134 -0.0064476327 -0.0062963717)
(0.75317387 -0.01142688 -0.014514562)
(1.1101717 -0.019019854 -0.026876018)
(1.4323722 -0.028415356 -0.03973835)
(1.6483585 -0.0362318 -0.047620462)
(1.7543068 -0.040075326 -0.04771815)
(1.7955036 -0.040498467 -0.042446229)
(0.058116119 -0.00079318026 -0.00037306531)
(0.21601154 -0.0028479619 -0.0018800269)
(0.45480369 -0.0057815688 -0.00592683)
(0.77725019 -0.010141857 -0.014015097)
(1.1445009 -0.016575595 -0.026032961)
(1.471689 -0.02422497 -0.038008549)
(1.6856282 -0.030225275 -0.044441822)
(1.7857289 -0.032739811 -0.043522431)
(1.8207961 -0.032620327 -0.038046873)
(0.05933696 -0.0006279948 -0.0002994662)
(0.22094106 -0.0022614607 -0.0016375644)
(0.46579358 -0.0045916906 -0.0055028974)
(0.79664625 -0.0080079122 -0.013387067)
(1.1721633 -0.012915879 -0.024987009)
(1.5033734 -0.018548832 -0.036146128)
(1.7156717 -0.022730081 -0.041344076)
(1.8111461 -0.024240192 -0.039693249)
(1.8414006 -0.02392162 -0.03493367)
(0.060449762 -0.00040546823 -0.00024171892)
(0.22503086 -0.0014609216 -0.0014436809)
(0.47434141 -0.0029657606 -0.0051518248)
(0.81108225 -0.0051498278 -0.012845273)
(1.1921482 -0.0082241014 -0.024078519)
(1.5258465 -0.0116536 -0.03459877)
(1.7367957 -0.014088962 -0.03901528)
(1.8290246 -0.014886922 -0.037144544)
(1.855909 -0.014629434 -0.032762781)
(0.060828504 -0.00014272333 -0.00021082631)
(0.22665305 -0.00051179948 -0.0013375882)
(0.47808708 -0.0010321365 -0.0049519722)
(0.81786847 -0.0017807047 -0.012527627)
(1.2019432 -0.0028264041 -0.023552232)
(1.5371071 -0.0039786889 -0.033736629)
(1.747479 -0.0047772341 -0.037736814)
(1.8381545 -0.005024875 -0.035855241)
(1.8633423 -0.0049279946 -0.031617574)
(0.060828501 0.0001427163 -0.00021082864)
(0.22665304 0.00051177289 -0.0013375959)
(0.47808706 0.0010320744 -0.0049519812)
(0.81786843 0.0017805627 -0.012527629)
(1.2019431 0.0028261325 -0.023552223)
(1.5371071 0.0039782895 -0.033736607)
(1.747479 0.0047767466 -0.037736777)
(1.8381544 0.0050243555 -0.03585519)
(1.8633423 0.0049275125 -0.03161752)
(0.060449754 0.00040546515 -0.00024172399)
(0.22503084 0.0014609033 -0.0014436952)
(0.47434136 0.0029657119 -0.0051518405)
(0.81108217 0.0051497038 -0.012845272)
(1.1921481 0.0082238516 -0.024078491)
(1.5258463 0.011653226 -0.034598706)
(1.7367955 0.0140885 -0.039015171)
(1.8290244 0.014886425 -0.037144388)
(1.8559088 0.01462897 -0.032762609)
(0.05933695 0.00062799499 -0.00029947243)
(0.22094103 0.0022614494 -0.0016375922)
(0.46579353 0.0045916589 -0.0055029227)
(0.79664616 0.0080078161 -0.013387072)
(1.1721632 0.012915666 -0.024986975)
(1.5033732 0.018548497 -0.036146031)
(1.7156715 0.022729661 -0.041343898)
(1.8111459 0.024239743 -0.039692987)
(1.8414003 0.023921214 -0.034933374)
(0.058116111 0.00079319099 -0.00037307264)
(0.21601152 0.0028479684 -0.0018800763)
(0.45480364 0.0057815685 -0.0059268653)
(0.77725012 0.010141801 -0.014015112)
(1.1445008 0.016575429 -0.026032922)
(1.4716888 0.024224685 -0.038008419)
(1.685628 0.03022491 -0.044441577)
(1.7857286 0.032739429 -0.04352207)
(1.8207957 0.032620016 -0.038046485)
(0.056586429 0.00088179014 -0.00044452532)
(0.20985094 0.0031659651 -0.0021090264)
(0.44110131 0.0064476633 -0.0062964101)
(0.75317381 0.011426861 -0.01451459)
(1.1101717 0.019019738 -0.026875977)
(1.4323721 0.028415135 -0.039738197)
(1.6483583 0.036231509 -0.047620171)
(1.7543065 0.040075025 -0.047717724)
(1.7955033 0.040498251 -0.042445806)
(0.054772791 0.00088947536 -0.00049852081)
(0.20257941 0.0032100717 -0.0022717288)
(0.42502919 0.0065952505 -0.0065066249)
(0.7252386 0.011888374 -0.014716443)
(1.0704365 0.020265624 -0.027220127)
(1.3869971 0.03108164 -0.040866166)
(1.605517 0.040626111 -0.050253064)
(1.7184346 0.045976178 -0.051629913)
(1.7666284 0.047276725 -0.047130892)
(0.052755752 0.00082329425 -0.00052192388)
(0.19447179 0.0030093477 -0.002326592)
(0.40710398 0.0062851726 -0.0064827529)
(0.69418777 0.011619577 -0.014488313)
(1.0264826 0.020420634 -0.02686526)
(1.337 0.032297734 -0.0411813)
(1.5585016 0.043437255 -0.051917629)
(1.6795055 0.050383524 -0.054705158)
(1.7353475 0.052756135 -0.051208419)
(0.050777528 0.00070237458 -0.00051192883)
(0.18618657 0.0026250436 -0.0022650198)
(0.38833025 0.0056250577 -0.0062192374)
(0.66124125 0.010769692 -0.013826386)
(0.97968183 0.019663673 -0.025839917)
(1.2835054 0.032211468 -0.040585427)
(1.5084438 0.044790515 -0.052414038)
(1.6387248 0.053381258 -0.056609949)
(1.7027853 0.056960765 -0.054214568)
(0.048672176 0.00051417814 -0.00044010046)
(0.17733454 0.0020341312 -0.0020102461)
(0.36824738 0.0046012194 -0.005610236)
(0.62606754 0.0093564093 -0.012642693)
(0.92986746 0.018050084 -0.024112184)
(1.2264992 0.030904412 -0.038878426)
(1.4556541 0.044734479 -0.05168487)
(1.5965349 0.054985934 -0.057390959)
(1.6693414 0.059889562 -0.056274778)
(0.046283229 0.00025308657 -0.00028438307)
(0.16753136 0.0012344271 -0.0015040034)
(0.34633959 0.0032279293 -0.0045732005)
(0.58810006 0.0074288286 -0.010880294)
(0.87632532 0.015669537 -0.021626444)
(1.1654418 0.028536827 -0.036104787)
(1.3995216 0.043389703 -0.049755897)
(1.5522835 0.055234131 -0.057110098)
(1.6343335 0.061480851 -0.057573257)
(0.043829132 1.1587914e-05 -9.5887395e-05)
(0.15731004 0.0004530483 -0.00087731066)
(0.32326017 0.0018018208 -0.0033036636)
(0.54771506 0.0052763105 -0.0087363359)
(0.8187558 0.012757696 -0.018503441)
(1.0990369 0.025221825 -0.032298523)
(1.3377964 0.040685641 -0.04651123)
(1.5035276 0.053856527 -0.05546737)
(1.5957397 0.061472879 -0.057730039)
(0.040688646 -0.0003747951 0.00027705894)
(0.14486641 -0.00075981112 0.00028239438)
(0.29601316 -0.00038604093 -0.0011288467)
(0.50072687 0.0019424429 -0.0052498895)
(0.7516659 0.008042229 -0.013436527)
(1.0200255 0.019178573 -0.025776165)
(1.2612801 0.034164497 -0.039917746)
(1.4408236 0.048066505 -0.050436701)
(1.5464124 0.057381257 -0.054909821)
(0.046214636 -4.4058948e-05 -1.7209311e-05)
(0.16158402 -0.00047701339 -0.0002781531)
(0.3242094 -0.0017043052 -0.00095786907)
(0.53791247 -0.0043363837 -0.002475121)
(0.79309803 -0.0090873521 -0.0055615342)
(1.0622646 -0.016290721 -0.010873948)
(1.3045664 -0.024811771 -0.017152569)
(1.4869104 -0.033216765 -0.023030448)
(1.5934761 -0.039759674 -0.026877556)
(0.049610289 -0.00010868354 -6.4278189e-05)
(0.17432408 -0.00077375567 -0.00044428554)
(0.35081823 -0.0024465251 -0.0013352062)
(0.58172755 -0.0058576311 -0.0032689512)
(0.85314451 -0.011804139 -0.0071100918)
(1.1308468 -0.020460242 -0.013465067)
(1.368908 -0.030030946 -0.020607461)
(1.5369748 -0.038327472 -0.026493157)
(1.6305428 -0.043849327 -0.029724138)
(0.052230661 -8.3713033e-05 -3.7948556e-05)
(0.18449696 -0.00081004446 -0.00040012954)
(0.37251685 -0.0027382132 -0.0013595608)
(0.61771603 -0.0066859775 -0.0035479853)
(0.90212157 -0.013450965 -0.0079459969)
(1.1853205 -0.022999128 -0.015104201)
(1.4174542 -0.033004229 -0.022873568)
(1.5722188 -0.040828573 -0.028666671)
(1.6559582 -0.045432743 -0.031301785)
(0.054723743 -0.00010132716 -4.8030922e-05)
(0.1940152 -0.00093947268 -0.0004464718)
(0.39256498 -0.0031198436 -0.0015125108)
(0.65058268 -0.0075147439 -0.0039661273)
(0.9463542 -0.014903753 -0.0089173588)
(1.2339439 -0.024943694 -0.016709447)
(1.4603733 -0.034865894 -0.024727729)
(1.6035123 -0.041981818 -0.030227513)
(1.6786462 -0.045670805 -0.03214538)
(0.05685299 -0.00014478022 -7.0491488e-05)
(0.20233065 -0.0011238675 -0.00052020004)
(0.41035415 -0.0035505087 -0.0016957612)
(0.68010532 -0.0083347161 -0.004402921)
(0.98656321 -0.016238965 -0.0099001549)
(1.2784798 -0.026356098 -0.017947751)
(1.5003086 -0.035804158 -0.025885418)
(1.6335076 -0.042010794 -0.030883688)
(1.700633 -0.044689394 -0.031975776)
(0.058786414 -0.00023696 -0.00010703374)
(0.20987547 -0.0014161477 -0.00061517607)
(0.42650106 -0.0040934177 -0.0018652662)
(0.707019 -0.0091825253 -0.0047428826)
(1.0235108 -0.017184637 -0.01034186)
(1.3197644 -0.026927978 -0.018223542)
(1.5380241 -0.035537834 -0.025743306)
(1.6626887 -0.040627972 -0.030031322)
(1.7222319 -0.042297196 -0.030368326)
(0.06069532 -0.00035911197 -0.0001369567)
(0.21707025 -0.0017582042 -0.00066652345)
(0.4415738 -0.0046271959 -0.0018905082)
(0.7318953 -0.009804477 -0.0047040005)
(1.0573076 -0.017510049 -0.010028368)
(1.357784 -0.026503966 -0.017466711)
(1.5732558 -0.033988546 -0.024328298)
(1.6906085 -0.037892368 -0.027846115)
(1.7430788 -0.038625424 -0.027584379)
(0.062345849 -0.00045986232 -0.00013944786)
(0.22330758 -0.0020050126 -0.00062053535)
(0.45469018 -0.0049219367 -0.001704518)
(0.75366793 -0.009854571 -0.0041938631)
(1.0870868 -0.016903173 -0.0090278193)
(1.3916744 -0.024797611 -0.015822764)
(1.6051289 -0.030952054 -0.02191626)
(1.7163564 -0.033677189 -0.024717033)
(1.7624329 -0.033646987 -0.024091352)
(0.06367065 -0.00049036084 -0.0001107367)
(0.22836617 -0.002005251 -0.00047044317)
(0.46543477 -0.0047024515 -0.0012927242)
(0.77161506 -0.0090704589 -0.0033336032)
(1.1120629 -0.015096536 -0.0075608922)
(1.4204902 -0.02158989 -0.013613304)
(1.6325678 -0.026300534 -0.018928917)
(1.7388115 -0.027963805 -0.021171895)
(1.7793729 -0.027463487 -0.02051929)
(0.064679819 -0.0004349919 -6.376616e-05)
(0.23225922 -0.0017180965 -0.00027062545)
(0.47376223 -0.0039102109 -0.00079850567)
(0.78560457 -0.0073591847 -0.0023676564)
(1.1317066 -0.011996037 -0.0059756584)
(1.4433228 -0.016830645 -0.011308625)
(1.6544414 -0.020094758 -0.015925163)
(1.756798 -0.020954833 -0.017825872)
(1.7929408 -0.020321631 -0.017508143)
(0.065616995 -0.0003005251 -1.766161e-05)
(0.23552543 -0.0011617263 -8.5441836e-05)
(0.48024923 -0.0025977085 -0.0003663187)
(0.79594149 -0.0048132436 -0.0015492885)
(1.1457595 -0.0077392502 -0.0046562486)
(1.459365 -0.010715336 -0.0094178963)
(1.6696681 -0.01260779 -0.013533492)
(1.7692564 -0.012973109 -0.015330278)
(1.8023162 -0.012487334 -0.015355453)
(0.06589649 -0.00010756257 8.9617584e-06)
(0.23670563 -0.00041197735 1.9985613e-05)
(0.48291079 -0.00091415378 -0.00012140337)
(0.80057645 -0.0016812479 -0.0010865668)
(1.1524452 -0.0026836933 -0.0039146735)
(1.4672593 -0.0036883244 -0.008369327)
(1.677292 -0.0043034841 -0.012215163)
(1.7755312 -0.0043959316 -0.014030046)
(1.8070508 -0.0042153603 -0.014237544)