/*--------------------------------*- C++ -*----------------------------------*\
  =========                 |
  \\      /  F ield         | OpenFOAM: The Open Source CFD Toolbox
   \\    /   O peration     | Website:  https://openfoam.org
    \\  /    A nd           | Version:  10
     \\/     M anipulation  |
\*---------------------------------------------------------------------------*/
FoamFile
{
    format      ascii;
    class       volScalarField;
    location    "20";
    object      ddt0(T);
}
// * * * * * * * * * * * * * * * * * * * * * * * * * * * * * * * * * * * * * //

dimensions      [0 0 -1 1 0 0 0];

internalField   nonuniform List<scalar> 
10000
(
1900.05
493.274
607.24
617.271
616.437
616.369
616.443
616.473
616.482
616.487
616.49
616.492
616.495
616.498
616.5
616.503
616.505
616.507
616.51
616.512
616.514
616.516
616.518
616.52
616.522
616.524
616.526
616.528
616.53
616.531
616.533
616.535
616.536
616.538
616.539
616.541
616.542
616.543
616.545
616.546
616.547
616.548
616.549
616.55
616.551
616.552
616.553
616.554
616.555
616.556
616.557
616.557
616.558
616.558
616.559
616.559
616.56
616.56
616.561
616.561
616.562
616.562
616.562
616.562
616.563
616.563
616.563
616.563
616.563
616.563
616.563
616.563
616.563
616.563
616.564
616.564
616.563
616.563
616.563
616.563
616.563
616.563
616.563
616.563
616.563
616.563
616.563
616.563
616.563
616.563
616.563
616.563
616.562
616.562
616.564
616.583
616.609
614.975
592.522
597.74
607.304
-404.14
-189.864
-181.762
-185.694
-186.257
-186.204
-186.167
-186.154
-186.146
-186.139
-186.131
-186.124
-186.116
-186.109
-186.102
-186.095
-186.089
-186.082
-186.075
-186.069
-186.062
-186.056
-186.05
-186.044
-186.038
-186.033
-186.027
-186.022
-186.016
-186.011
-186.006
-186.002
-185.997
-185.992
-185.988
-185.984
-185.98
-185.976
-185.972
-185.968
-185.965
-185.962
-185.958
-185.955
-185.953
-185.95
-185.947
-185.945
-185.942
-185.94
-185.938
-185.936
-185.935
-185.933
-185.931
-185.93
-185.929
-185.927
-185.926
-185.925
-185.924
-185.923
-185.923
-185.922
-185.921
-185.921
-185.921
-185.92
-185.92
-185.92
-185.919
-185.919
-185.919
-185.919
-185.919
-185.919
-185.919
-185.919
-185.919
-185.92
-185.92
-185.92
-185.92
-185.92
-185.921
-185.921
-185.921
-185.921
-185.921
-185.922
-185.922
-185.922
-185.923
-185.92
-185.875
-185.627
-185.568
-194.519
-173.224
696.792
-216.646
3.43121
7.94984
3.0389
2.39814
2.47317
2.52246
2.54159
2.55462
2.56706
2.57942
2.59166
2.60377
2.61573
2.62753
2.63916
2.6506
2.66184
2.67288
2.68371
2.69432
2.70472
2.71489
2.72484
2.73457
2.74406
2.75332
2.76235
2.77114
2.77969
2.78799
2.79605
2.80386
2.81142
2.81873
2.82579
2.83259
2.83914
2.84544
2.85148
2.85727
2.86281
2.86811
2.87315
2.87796
2.88252
2.88685
2.89094
2.89481
2.89845
2.90187
2.90508
2.90808
2.91087
2.91347
2.91587
2.91809
2.92013
2.92199
2.92369
2.92523
2.92661
2.92785
2.92895
2.92991
2.93075
2.93147
2.93208
2.93258
2.93298
2.93329
2.93352
2.93367
2.93375
2.93376
2.93371
2.93361
2.93346
2.93327
2.93305
2.9328
2.93252
2.93222
2.93191
2.93159
2.93127
2.93094
2.93062
2.93031
2.93
2.92966
2.929
2.92695
2.92286
2.9405
3.13461
3.49657
-1.44473
6.76208
705.184
-209.041
7.58902
10.709
5.56557
4.9292
5.02018
5.07796
5.10278
5.12089
5.13828
5.15553
5.17261
5.18949
5.20615
5.2226
5.2388
5.25474
5.27042
5.28582
5.30093
5.31576
5.33028
5.3445
5.3584
5.372
5.38528
5.39823
5.41086
5.42315
5.4351
5.44672
5.45799
5.46891
5.47949
5.48971
5.49957
5.50909
5.51824
5.52705
5.53549
5.54359
5.55134
5.55873
5.56579
5.5725
5.57888
5.58493
5.59065
5.59605
5.60114
5.60593
5.61041
5.6146
5.6185
5.62213
5.62549
5.62859
5.63144
5.63404
5.63641
5.63856
5.64049
5.64222
5.64375
5.6451
5.64627
5.64727
5.64812
5.64882
5.64938
5.64981
5.65013
5.65033
5.65044
5.65045
5.65038
5.65024
5.65003
5.64977
5.64945
5.6491
5.64871
5.64829
5.64785
5.64739
5.64693
5.64647
5.646
5.64555
5.64512
5.6447
5.64407
5.64181
5.63355
5.62285
5.71387
6.20014
5.47625
6.8904
704.502
-212.37
3.32045
6.20935
1.0586
0.439618
0.541016
0.605119
0.635128
0.658211
0.680515
0.702636
0.724539
0.746195
0.767586
0.788694
0.809498
0.829979
0.850121
0.86991
0.889334
0.908385
0.927053
0.94533
0.963211
0.980687
0.997753
1.0144
1.03063
1.04643
1.06179
1.07671
1.09119
1.10523
1.11881
1.13194
1.14461
1.15683
1.16859
1.17989
1.19074
1.20113
1.21108
1.22058
1.22964
1.23826
1.24645
1.25421
1.26156
1.26849
1.27502
1.28116
1.28692
1.29229
1.2973
1.30196
1.30627
1.31025
1.3139
1.31724
1.32028
1.32304
1.32552
1.32773
1.3297
1.33142
1.33292
1.3342
1.33529
1.33618
1.3369
1.33745
1.33786
1.33812
1.33825
1.33826
1.33817
1.33799
1.33772
1.33737
1.33697
1.33651
1.336
1.33546
1.33489
1.33431
1.33371
1.33311
1.33252
1.33194
1.33138
1.3309
1.33048
1.3294
1.3235
1.30355
1.29111
1.44131
1.53014
1.74977
704.45
-212.85
2.76082
5.65247
0.518748
-0.0889207
0.0193814
0.088868
0.123895
0.151915
0.179116
0.206095
0.23281
0.259227
0.285326
0.311082
0.33647
0.361468
0.386055
0.410214
0.43393
0.457192
0.479987
0.502307
0.524142
0.545483
0.566322
0.586652
0.606464
0.625751
0.644508
0.662727
0.680404
0.697533
0.714111
0.730135
0.745602
0.760511
0.774863
0.788657
0.801896
0.814581
0.826718
0.838309
0.84936
0.859878
0.869869
0.879341
0.888303
0.896763
0.904732
0.912219
0.919236
0.925794
0.931905
0.937583
0.942839
0.947687
0.952141
0.956215
0.959923
0.963279
0.966299
0.968998
0.97139
0.973491
0.975315
0.976879
0.978196
0.979283
0.980155
0.980826
0.981311
0.981625
0.981781
0.981795
0.98168
0.981449
0.981116
0.980693
0.980193
0.979627
0.979007
0.978345
0.97765
0.976933
0.976203
0.97547
0.97474
0.974022
0.97333
0.972708
0.972278
0.972069
0.970548
0.960981
0.937982
0.941332
0.984303
1.06543
704.514
-212.802
2.82686
5.73355
0.610065
0.00927491
0.123045
0.197588
0.237569
0.270502
0.30258
0.334394
0.365899
0.397056
0.427838
0.458219
0.488168
0.517659
0.546667
0.575173
0.603159
0.63061
0.657511
0.683852
0.709621
0.734807
0.7594
0.783391
0.806771
0.829531
0.851664
0.873161
0.894018
0.914228
0.933786
0.95269
0.970937
0.988525
1.00545
1.02173
1.03734
1.0523
1.06662
1.08029
1.09332
1.10573
1.11751
1.12868
1.13924
1.14922
1.15861
1.16744
1.17571
1.18344
1.19065
1.19734
1.20353
1.20925
1.21449
1.21929
1.22366
1.22761
1.23117
1.23435
1.23716
1.23963
1.24178
1.24362
1.24516
1.24644
1.24746
1.24825
1.24881
1.24918
1.24935
1.24936
1.24922
1.24895
1.24855
1.24804
1.24745
1.24677
1.24604
1.24525
1.24443
1.24358
1.24271
1.24184
1.24098
1.24013
1.2393
1.23851
1.23785
1.23755
1.23758
1.23558
1.22572
1.20893
1.19995
1.2623
704.54
-212.769
2.87125
5.7862
0.668977
0.0735627
0.192389
0.271891
0.316793
0.354614
0.391544
0.428168
0.464437
0.500307
0.535748
0.570727
0.605211
0.639169
0.672574
0.705402
0.737633
0.769249
0.800234
0.830573
0.860253
0.889262
0.917588
0.94522
0.972147
0.99836
1.02385
1.04861
1.07262
1.09589
1.11842
1.14018
1.16119
1.18144
1.20093
1.21966
1.23764
1.25486
1.27134
1.28708
1.30208
1.31636
1.32992
1.34277
1.35493
1.36641
1.37722
1.38738
1.39689
1.40579
1.41407
1.42177
1.42889
1.43546
1.4415
1.44701
1.45203
1.45658
1.46066
1.46431
1.46754
1.47038
1.47284
1.47495
1.47672
1.47818
1.47935
1.48024
1.48088
1.48129
1.48149
1.4815
1.48132
1.481
1.48053
1.47994
1.47925
1.47847
1.47762
1.47671
1.47575
1.47477
1.47377
1.47276
1.47176
1.47078
1.46982
1.46888
1.46801
1.46733
1.46714
1.4672
1.46502
1.45363
1.42689
1.49201
704.549
-212.757
2.88951
5.81012
0.698094
0.107699
0.231481
0.315906
0.365701
0.408383
0.450136
0.491541
0.532544
0.573098
0.613168
0.652716
0.691705
0.730102
0.767875
0.804997
0.841445
0.877199
0.91224
0.946552
0.980118
1.01293
1.04496
1.07621
1.10666
1.1363
1.16512
1.19312
1.22027
1.24659
1.27205
1.29666
1.32041
1.3433
1.36534
1.38651
1.40683
1.4263
1.44492
1.46271
1.47966
1.4958
1.51112
1.52565
1.53939
1.55235
1.56457
1.57604
1.58679
1.59684
1.60619
1.61488
1.62293
1.63034
1.63715
1.64338
1.64904
1.65417
1.65877
1.66289
1.66653
1.66972
1.67249
1.67486
1.67686
1.6785
1.6798
1.6808
1.68152
1.68197
1.68219
1.68218
1.68198
1.6816
1.68106
1.68039
1.6796
1.6787
1.67773
1.67669
1.67561
1.67449
1.67335
1.67221
1.67107
1.66996
1.66887
1.66782
1.6668
1.66586
1.66522
1.66526
1.66571
1.65927
1.61947
1.69902
704.553
-212.749
2.90249
5.8282
0.721147
0.135694
0.264394
0.35371
0.408368
0.455878
0.502421
0.548575
0.59428
0.639484
0.684149
0.728233
0.771695
0.814498
0.856606
0.897991
0.938626
0.978487
1.01755
1.05581
1.09323
1.12981
1.16552
1.20036
1.23431
1.26736
1.29949
1.33069
1.36096
1.39029
1.41868
1.4461
1.47258
1.49809
1.52264
1.54624
1.56888
1.59058
1.61133
1.63115
1.65003
1.66801
1.68508
1.70126
1.71656
1.73101
1.74461
1.75739
1.76936
1.78054
1.79096
1.80063
1.80958
1.81783
1.82541
1.83233
1.83863
1.84433
1.84945
1.85402
1.85806
1.86161
1.86468
1.86731
1.86951
1.87133
1.87277
1.87387
1.87466
1.87515
1.87537
1.87535
1.87511
1.87468
1.87407
1.8733
1.87241
1.87141
1.87031
1.86915
1.86793
1.86667
1.86539
1.86411
1.86284
1.86159
1.86038
1.85921
1.85808
1.85699
1.85606
1.85578
1.85716
1.85407
1.79944
1.89833
704.556
-212.742
2.91495
5.84564
0.743508
0.16296
0.296543
0.390716
0.450201
0.502504
0.553801
0.604667
0.655036
0.704855
0.754077
0.80266
0.850559
0.897731
0.94414
0.989752
1.03454
1.07847
1.12153
1.1637
1.20495
1.24527
1.28463
1.32303
1.36044
1.39686
1.43227
1.46666
1.50002
1.53234
1.56362
1.59384
1.62301
1.65112
1.67817
1.70417
1.72911
1.75301
1.77587
1.79769
1.8185
1.83829
1.85709
1.87491
1.89176
1.90766
1.92264
1.9367
1.94987
1.96218
1.97364
1.98429
1.99413
2.00321
2.01154
2.01915
2.02608
2.03233
2.03796
2.04298
2.04741
2.0513
2.05467
2.05755
2.05996
2.06194
2.06351
2.06471
2.06556
2.06608
2.06631
2.06628
2.066
2.0655
2.06481
2.06396
2.06296
2.06184
2.06063
2.05933
2.05797
2.05658
2.05516
2.05374
2.05233
2.05095
2.04961
2.04832
2.04708
2.04588
2.04477
2.04423
2.0461
2.04585
1.97636
2.09471
704.558
-212.734
2.92734
5.86295
0.765698
0.190016
0.328444
0.427436
0.491708
0.548765
0.604776
0.660313
0.715306
0.769697
0.823438
0.876479
0.928774
0.980277
1.03095
1.08075
1.12965
1.17762
1.22464
1.27068
1.31572
1.35974
1.40272
1.44464
1.4855
1.52526
1.56392
1.60146
1.63788
1.67316
1.7073
1.74029
1.77212
1.8028
1.83233
1.8607
1.88792
1.914
1.93894
1.96275
1.98545
2.00705
2.02755
2.04699
2.06537
2.08271
2.09904
2.11437
2.12873
2.14215
2.15464
2.16624
2.17697
2.18686
2.19593
2.20422
2.21176
2.21857
2.22468
2.23014
2.23496
2.23919
2.24284
2.24596
2.24857
2.25071
2.25241
2.25369
2.2546
2.25515
2.25538
2.25532
2.255
2.25444
2.25367
2.25272
2.25162
2.25038
2.24904
2.24761
2.24612
2.24458
2.24302
2.24146
2.23991
2.2384
2.23692
2.23551
2.23415
2.23285
2.2316
2.23086
2.23303
2.23532
2.15282
2.28831
704.561
-212.727
2.93962
5.88009
0.787682
0.216825
0.360056
0.463822
0.532839
0.594604
0.655286
0.715449
0.775022
0.833942
0.892156
0.949613
1.00626
1.06205
1.11694
1.17089
1.22386
1.27583
1.32677
1.37664
1.42544
1.47312
1.51968
1.5651
1.60935
1.65242
1.69429
1.73496
1.7744
1.81261
1.84958
1.88531
1.91978
1.953
1.98497
2.01569
2.04516
2.07339
2.10039
2.12617
2.15074
2.17411
2.19631
2.21734
2.23722
2.25599
2.27365
2.29024
2.30577
2.32028
2.33379
2.34632
2.35792
2.3686
2.3784
2.38736
2.39549
2.40284
2.40944
2.41533
2.42052
2.42507
2.429
2.43236
2.43516
2.43745
2.43926
2.44063
2.44159
2.44216
2.44239
2.4423
2.44193
2.4413
2.44045
2.4394
2.43819
2.43683
2.43536
2.43379
2.43216
2.43049
2.42879
2.42708
2.42539
2.42374
2.42213
2.42059
2.41912
2.41771
2.41634
2.41541
2.41774
2.42212
2.32937
2.47872
704.564
-212.719
2.95177
5.89705
0.809434
0.243355
0.391342
0.499836
0.573549
0.639976
0.705279
0.770021
0.834126
0.897526
0.960166
1.02199
1.08295
1.14298
1.20204
1.26009
1.3171
1.37302
1.42783
1.4815
1.534
1.58532
1.63542
1.68428
1.7319
1.77824
1.82329
1.86704
1.90947
1.95058
1.99035
2.02878
2.06586
2.10159
2.13597
2.16901
2.2007
2.23106
2.26009
2.28781
2.31422
2.33935
2.3632
2.38581
2.40718
2.42734
2.44632
2.46414
2.48083
2.49641
2.51091
2.52437
2.53682
2.54828
2.5588
2.5684
2.57712
2.585
2.59207
2.59837
2.60393
2.60879
2.61299
2.61657
2.61956
2.62199
2.62391
2.62535
2.62635
2.62694
2.62716
2.62704
2.62662
2.62592
2.62498
2.62383
2.6225
2.62102
2.61941
2.61771
2.61594
2.61412
2.61227
2.61043
2.6086
2.6068
2.60506
2.6034
2.60181
2.60029
2.5988
2.59771
2.60006
2.60599
2.50594
2.66569
704.566
-212.712
2.96378
5.91381
0.830939
0.269588
0.422277
0.535448
0.613805
0.684841
0.754715
0.823984
0.892569
0.960398
1.02741
1.09356
1.15877
1.22299
1.28618
1.34829
1.40927
1.4691
1.52774
1.58516
1.64134
1.69623
1.74983
1.80211
1.85304
1.90261
1.9508
1.9976
2.04299
2.08695
2.12949
2.17058
2.21024
2.24845
2.28521
2.32053
2.35442
2.38687
2.41791
2.44753
2.47576
2.50261
2.52811
2.55226
2.57509
2.59663
2.61691
2.63594
2.65375
2.67039
2.68587
2.70024
2.71352
2.72575
2.73696
2.7472
2.75649
2.76488
2.77241
2.77911
2.78503
2.79019
2.79465
2.79844
2.8016
2.80417
2.80619
2.8077
2.80874
2.80934
2.80954
2.80938
2.80889
2.80812
2.80709
2.80583
2.80438
2.80277
2.80103
2.79919
2.79727
2.79531
2.79332
2.79133
2.78935
2.78742
2.78555
2.78376
2.78205
2.78042
2.77882
2.77759
2.77988
2.7868
2.6822
2.84909
704.569
-212.705
2.97565
5.93036
0.852178
0.295499
0.452836
0.570627
0.653574
0.729163
0.803551
0.877292
0.950302
1.02251
1.09384
1.16425
1.23366
1.30203
1.36929
1.4354
1.50032
1.56401
1.62643
1.68755
1.74735
1.80578
1.86283
1.91847
1.97269
2.02545
2.07674
2.12654
2.17484
2.22162
2.26688
2.31061
2.3528
2.39345
2.43256
2.47014
2.50618
2.5407
2.57371
2.60521
2.63523
2.66378
2.69089
2.71656
2.74083
2.76372
2.78527
2.80549
2.82441
2.84208
2.85852
2.87377
2.88787
2.90085
2.91274
2.9236
2.93345
2.94234
2.95031
2.9574
2.96366
2.96911
2.97382
2.97781
2.98114
2.98384
2.98595
2.98752
2.98858
2.98918
2.98936
2.98916
2.98861
2.98775
2.98662
2.98525
2.98368
2.98194
2.98006
2.97808
2.97602
2.9739
2.97176
2.96962
2.96751
2.96544
2.96343
2.96151
2.95968
2.95795
2.95624
2.95488
2.95704
2.96446
2.85776
3.02888
704.571
-212.698
2.98735
5.94668
0.873132
0.321065
0.482991
0.605343
0.692819
0.772903
0.851747
0.929901
1.00728
1.0838
1.1594
1.23401
1.30758
1.38003
1.45131
1.52137
1.59017
1.65767
1.72382
1.78859
1.85195
1.91388
1.97433
2.0333
2.09074
2.14664
2.20099
2.25375
2.30492
2.35449
2.40243
2.44875
2.49344
2.5365
2.57792
2.61771
2.65588
2.69243
2.72737
2.76073
2.7925
2.82273
2.85141
2.87858
2.90426
2.92848
2.95127
2.97265
2.99267
3.01135
3.02873
3.04484
3.05973
3.07344
3.086
3.09746
3.10785
3.11723
3.12563
3.13309
3.13967
3.14541
3.15035
3.15454
3.15802
3.16083
3.16302
3.16464
3.16573
3.16633
3.16648
3.16622
3.1656
3.16465
3.16342
3.16194
3.16024
3.15836
3.15635
3.15422
3.152
3.14974
3.14745
3.14516
3.1429
3.14069
3.13855
3.1365
3.13456
3.13271
3.13091
3.12942
3.13141
3.13892
3.03218
3.20502
704.573
-212.691
2.99888
5.96276
0.893783
0.346266
0.512716
0.639566
0.731508
0.816024
0.899262
0.981767
1.06345
1.14423
1.22403
1.3028
1.38045
1.45692
1.53217
1.60613
1.67875
1.75
1.81982
1.8882
1.95508
2.02044
2.08425
2.14648
2.20711
2.26611
2.32346
2.37914
2.43314
2.48544
2.53603
2.5849
2.63205
2.67747
2.72116
2.76313
2.80339
2.84194
2.87879
2.91396
2.94746
2.97932
3.00956
3.03819
3.06526
3.09078
3.11478
3.13731
3.15839
3.17805
3.19635
3.21331
3.22898
3.24339
3.2566
3.26864
3.27956
3.2894
3.29821
3.30604
3.31294
3.31894
3.3241
3.32847
3.33209
3.33501
3.33728
3.33894
3.34004
3.34062
3.34074
3.34042
3.33972
3.33868
3.33734
3.33574
3.33391
3.3319
3.32973
3.32745
3.32509
3.32267
3.32023
3.3178
3.31539
3.31304
3.31076
3.30858
3.30652
3.30456
3.30266
3.30107
3.30285
3.31012
3.20502
3.3775
704.576
-212.684
3.01022
5.97859
0.914116
0.371081
0.54199
0.67327
0.769613
0.858496
0.946061
1.03285
1.11878
1.20375
1.2877
1.37054
1.45222
1.53267
1.61181
1.68961
1.766
1.84094
1.91438
1.9863
2.05665
2.1254
2.19251
2.25796
2.32172
2.38377
2.44408
2.50263
2.5594
2.61439
2.66758
2.71896
2.76852
2.81626
2.86219
2.9063
2.94861
2.98912
3.02784
3.06479
3.09998
3.13345
3.16521
3.19528
3.2237
3.25049
3.27569
3.29933
3.32144
3.34207
3.36126
3.37905
3.39547
3.41057
3.4244
3.43701
3.44844
3.45873
3.46794
3.47612
3.48331
3.48957
3.49494
3.49948
3.50323
3.50625
3.50858
3.51027
3.51137
3.51193
3.512
3.51162
3.51084
3.5097
3.50825
3.50652
3.50455
3.5024
3.50008
3.49765
3.49513
3.49256
3.48997
3.48738
3.48482
3.48233
3.47992
3.47761
3.47543
3.47336
3.47137
3.46968
3.47121
3.47801
3.37587
3.54632
704.578
-212.678
3.02138
5.99416
0.934117
0.395495
0.570792
0.706433
0.807108
0.900288
0.992113
1.08312
1.17322
1.26232
1.35034
1.43721
1.52286
1.6072
1.69019
1.77176
1.85185
1.93043
2.00744
2.08284
2.15659
2.22867
2.29903
2.36765
2.43449
2.49953
2.56275
2.62412
2.68363
2.74126
2.797
2.85084
2.90277
2.95279
3.00091
3.04713
3.09144
3.13387
3.17442
3.21312
3.24997
3.28501
3.31825
3.34973
3.37947
3.4075
3.43387
3.45859
3.48172
3.50329
3.52335
3.54193
3.55909
3.57486
3.5893
3.60245
3.61437
3.62509
3.63469
3.6432
3.65067
3.65717
3.66274
3.66743
3.6713
3.6744
3.67679
3.6785
3.6796
3.68013
3.68015
3.6797
3.67882
3.67758
3.676
3.67414
3.67204
3.66974
3.66727
3.66468
3.662
3.65927
3.65652
3.65378
3.65108
3.64844
3.64589
3.64345
3.64115
3.63897
3.63689
3.63511
3.63637
3.64253
3.54434
3.71146
704.58
-212.671
3.03234
6.00946
0.953777
0.419493
0.599105
0.739036
0.84397
0.941376
1.03739
1.13255
1.22676
1.31991
1.41194
1.50276
1.5923
1.68049
1.76725
1.85253
1.93627
2.01841
2.09892
2.17775
2.25486
2.3302
2.40375
2.47548
2.54534
2.61332
2.6794
2.74354
2.80573
2.86595
2.92419
2.98045
3.03471
3.08697
3.13723
3.1855
3.23179
3.2761
3.31844
3.35885
3.39732
3.4339
3.4686
3.50144
3.53248
3.56172
3.58922
3.615
3.63912
3.6616
3.6825
3.70186
3.71972
3.73614
3.75117
3.76485
3.77723
3.78838
3.79833
3.80716
3.8149
3.82162
3.82738
3.83221
3.83619
3.83937
3.84179
3.84352
3.8446
3.84509
3.84505
3.84452
3.84355
3.84219
3.84049
3.83849
3.83624
3.83379
3.83117
3.82842
3.82558
3.82269
3.81978
3.81688
3.81402
3.81124
3.80855
3.80599
3.80356
3.80128
3.7991
3.79723
3.79822
3.80361
3.71006
3.87292
704.582
-212.665
3.04309
6.02449
0.973084
0.443064
0.626915
0.77106
0.880179
0.981738
1.08187
1.18111
1.27934
1.37649
1.47245
1.56716
1.66053
1.75248
1.84295
1.93187
2.01919
2.10484
2.18879
2.27098
2.35137
2.42993
2.50661
2.58139
2.65422
2.72509
2.79396
2.86081
2.92563
2.9884
3.04909
3.10771
3.16425
3.2187
3.27107
3.32135
3.36957
3.41571
3.45982
3.50189
3.54195
3.58002
3.61614
3.65033
3.68261
3.71304
3.74164
3.76846
3.79353
3.8169
3.83862
3.85872
3.87728
3.89432
3.90991
3.92409
3.93693
3.94847
3.95877
3.96789
3.97589
3.98282
3.98874
3.99371
3.99779
4.00102
4.00347
4.0052
4.00626
4.00671
4.0066
4.00598
4.0049
4.00342
4.00159
3.99945
3.99705
3.99444
3.99166
3.98875
3.98574
3.98269
3.97961
3.97656
3.97355
3.97062
3.9678
3.9651
3.96255
3.96016
3.95789
3.95594
3.95664
3.9612
3.87273
4.03068
704.584
-212.658
3.05364
6.03923
0.992032
0.466196
0.654209
0.802491
0.915718
1.02135
1.12552
1.22876
1.33096
1.43201
1.53184
1.63036
1.72749
1.82314
1.91725
2.00975
2.10057
2.18967
2.27699
2.36248
2.44609
2.5278
2.60755
2.68531
2.76106
2.83475
2.90637
2.97588
3.04327
3.10853
3.17163
3.23256
3.29133
3.34792
3.40234
3.4546
3.50469
3.55264
3.59845
3.64215
3.68376
3.7233
3.76079
3.79628
3.8298
3.86137
3.89104
3.91886
3.94486
3.96909
3.9916
4.01243
4.03164
4.04929
4.06541
4.08008
4.09335
4.10527
4.1159
4.12531
4.13354
4.14066
4.14674
4.15182
4.15598
4.15926
4.16174
4.16346
4.16448
4.16487
4.16468
4.16397
4.16278
4.16117
4.1592
4.15692
4.15436
4.15159
4.14864
4.14556
4.14239
4.13917
4.13593
4.13272
4.12955
4.12648
4.12351
4.12068
4.11801
4.11551
4.11315
4.11111
4.11153
4.11522
4.03205
4.18472
704.587
-212.652
3.06398
6.05369
1.01061
0.488879
0.680975
0.833314
0.950571
1.0602
1.16834
1.2755
1.38158
1.48647
1.59009
1.69235
1.79316
1.89244
1.99011
2.08611
2.18038
2.27285
2.36347
2.45219
2.53897
2.62375
2.70651
2.78721
2.8658
2.94226
3.01656
3.08868
3.15859
3.22628
3.29172
3.35492
3.41587
3.47455
3.53098
3.58516
3.63709
3.68679
3.73427
3.77956
3.82267
3.86363
3.90248
3.93923
3.97394
4.00663
4.03734
4.06612
4.09302
4.11808
4.14135
4.16288
4.18273
4.20095
4.2176
4.23273
4.24641
4.25869
4.26963
4.2793
4.28775
4.29505
4.30127
4.30645
4.31068
4.314
4.31648
4.31818
4.31916
4.31948
4.31921
4.31839
4.31708
4.31534
4.31323
4.31079
4.30807
4.30513
4.30202
4.29876
4.29542
4.29203
4.28863
4.28525
4.28193
4.2787
4.27559
4.27263
4.26984
4.26723
4.26478
4.26266
4.2628
4.26562
4.18779
4.335
704.589
-212.646
3.07411
6.06785
1.02882
0.511105
0.707201
0.863516
0.984721
1.09827
1.21029
1.32129
1.43118
1.53983
1.64716
1.75308
1.8575
1.96033
2.0615
2.16093
2.25857
2.35434
2.44819
2.54008
2.62995
2.71775
2.80345
2.88701
2.96839
3.04756
3.12448
3.19914
3.27152
3.34158
3.40932
3.47473
3.53781
3.59853
3.65692
3.71297
3.76669
3.8181
3.86721
3.91404
3.95862
4.00096
4.04111
4.0791
4.11496
4.14872
4.18045
4.21017
4.23793
4.26379
4.2878
4.31
4.33046
4.34924
4.36638
4.38195
4.39602
4.40863
4.41987
4.42978
4.43843
4.4459
4.45224
4.45751
4.46179
4.46514
4.46761
4.46928
4.47021
4.47046
4.47008
4.46915
4.46772
4.46584
4.46357
4.46097
4.45809
4.45498
4.45169
4.44826
4.44474
4.44118
4.43761
4.43406
4.43059
4.42721
4.42396
4.42086
4.41795
4.41523
4.41268
4.41049
4.41035
4.41232
4.33973
4.48149
704.591
-212.64
3.08403
6.08172
1.04664
0.532866
0.732877
0.893085
1.01816
1.13554
1.25136
1.36613
1.47973
1.59207
1.70303
1.81253
1.92048
2.02679
2.13138
2.23417
2.3351
2.4341
2.53112
2.6261
2.71899
2.80975
2.89832
2.98468
3.06878
3.15059
3.23008
3.30723
3.382
3.45439
3.52437
3.59193
3.65708
3.7198
3.78009
3.83797
3.89343
3.9465
3.99719
4.04552
4.09152
4.13521
4.17663
4.21581
4.25278
4.2876
4.32029
4.35092
4.37952
4.40615
4.43086
4.45371
4.47476
4.49406
4.51167
4.52766
4.54209
4.55503
4.56653
4.57667
4.58551
4.59312
4.59957
4.60492
4.60923
4.61259
4.61505
4.61668
4.61754
4.6177
4.61722
4.61617
4.6146
4.61257
4.61015
4.60739
4.60433
4.60105
4.59758
4.59397
4.59027
4.58653
4.58279
4.57908
4.57544
4.57191
4.56851
4.56528
4.56225
4.55942
4.55678
4.5545
4.55411
4.55526
4.48771
4.62415
704.592
-212.634
3.09373
6.09528
1.06407
0.554152
0.757994
0.922009
1.05086
1.172
1.29153
1.40998
1.52723
1.64316
1.75768
1.87068
1.98209
2.09179
2.19972
2.3058
2.40995
2.51211
2.61221
2.71022
2.80606
2.89969
2.99108
3.08017
3.16692
3.25132
3.33331
3.41287
3.48999
3.56464
3.6368
3.70646
3.77363
3.83828
3.90043
3.96008
4.01725
4.07193
4.12415
4.17394
4.22132
4.26632
4.30896
4.34929
4.38735
4.42317
4.4568
4.4883
4.51771
4.54508
4.57047
4.59393
4.61554
4.63534
4.6534
4.66978
4.68456
4.69779
4.70955
4.71989
4.7289
4.73664
4.74318
4.74859
4.75293
4.75628
4.75871
4.76029
4.76108
4.76114
4.76055
4.75937
4.75765
4.75547
4.75289
4.74995
4.74672
4.74325
4.7396
4.73581
4.73193
4.72801
4.72409
4.72021
4.71641
4.71272
4.70918
4.70582
4.70266
4.69972
4.69699
4.69463
4.69399
4.69438
4.63158
4.76293
704.594
-212.629
3.10321
6.10855
1.08111
0.574956
0.782541
0.950277
1.08282
1.20762
1.33079
1.45284
1.57364
1.69309
1.81108
1.92751
2.04228
2.15531
2.2665
2.37578
2.48307
2.58831
2.69144
2.79239
2.89111
2.98756
3.08168
3.17343
3.26278
3.34968
3.43411
3.51604
3.59544
3.67228
3.74657
3.81828
3.8874
3.95394
4.0179
4.07927
4.13808
4.19433
4.24804
4.29924
4.34796
4.39421
4.43804
4.47949
4.51858
4.55538
4.58992
4.62225
4.65243
4.68051
4.70655
4.7306
4.75274
4.77301
4.7915
4.80825
4.82335
4.83686
4.84884
4.85938
4.86854
4.87639
4.883
4.88845
4.89281
4.89615
4.89854
4.90005
4.90075
4.9007
4.89999
4.89867
4.89681
4.89446
4.89171
4.88859
4.88518
4.88152
4.87768
4.87371
4.86964
4.86554
4.86144
4.85739
4.85342
4.84958
4.8459
4.8424
4.83911
4.83606
4.83324
4.8308
4.82993
4.82961
4.77123
4.89778
704.596
-212.623
3.11247
6.1215
1.09775
0.595271
0.806511
0.977879
1.11403
1.24241
1.36912
1.49468
1.61896
1.74184
1.86321
1.98298
2.10105
2.21731
2.33168
2.44409
2.55445
2.66269
2.76876
2.87258
2.97411
3.0733
3.17008
3.26443
3.3563
3.44566
3.53246
3.61668
3.69829
3.77728
3.85363
3.92733
3.99836
4.06672
4.13243
4.19548
4.25588
4.31365
4.3688
4.42137
4.47137
4.51884
4.56382
4.60634
4.64644
4.68417
4.71958
4.75272
4.78363
4.81239
4.83905
4.86366
4.8863
4.90702
4.9259
4.94301
4.9584
4.97217
4.98436
4.99507
5.00436
5.0123
5.01898
5.02445
5.02881
5.03212
5.03445
5.03589
5.03649
5.03633
5.03548
5.03401
5.03199
5.02948
5.02654
5.02325
5.01964
5.0158
5.01177
5.0076
5.00334
4.99905
4.99478
4.99055
4.98642
4.98242
4.97859
4.97495
4.97154
4.96838
4.96546
4.96295
4.96186
4.9609
4.90658
5.02865
704.598
-212.618
3.1215
6.13413
1.11399
0.615089
0.829894
1.00481
1.14448
1.27634
1.40651
1.5355
1.66316
1.78938
1.91406
2.03708
2.15835
2.27777
2.39525
2.5107
2.62405
2.73522
2.84414
2.95077
3.05503
3.15688
3.25627
3.35314
3.44746
3.53919
3.6283
3.71475
3.79852
3.87959
3.95794
4.03356
4.10644
4.17658
4.24398
4.30865
4.3706
4.42983
4.48638
4.54027
4.59152
4.64016
4.68624
4.7298
4.77086
4.80949
4.84573
4.87964
4.91126
4.94066
4.96791
4.99305
5.01617
5.03731
5.05656
5.07399
5.08966
5.10366
5.11604
5.1269
5.1363
5.14432
5.15104
5.15653
5.16087
5.16414
5.16641
5.16775
5.16824
5.16796
5.16697
5.16534
5.16315
5.16046
5.15734
5.15386
5.15006
5.14602
5.14179
5.13742
5.13298
5.1285
5.12404
5.11964
5.11534
5.11118
5.1072
5.10342
5.09989
5.09661
5.09361
5.09101
5.08972
5.08818
5.03758
5.15549
704.6
-212.613
3.13031
6.14645
1.12981
0.634405
0.852683
1.03105
1.17414
1.30941
1.44295
1.57527
1.70623
1.83571
1.9636
2.0898
2.21419
2.33668
2.45718
2.57559
2.69184
2.80586
2.91757
3.02692
3.13384
3.23828
3.34019
3.43952
3.53622
3.63026
3.72161
3.81023
3.89609
3.97917
4.05947
4.13695
4.21163
4.28348
4.35252
4.41876
4.48219
4.54285
4.60074
4.6559
4.70835
4.75813
4.80527
4.84981
4.8918
4.93129
4.96833
5.00297
5.03526
5.06528
5.09308
5.11873
5.14229
5.16383
5.18343
5.20115
5.21708
5.23128
5.24384
5.25483
5.26432
5.2724
5.27915
5.28463
5.28894
5.29215
5.29434
5.29558
5.29596
5.29553
5.29439
5.2926
5.29024
5.28737
5.28405
5.28037
5.27637
5.27213
5.2677
5.26314
5.25849
5.25382
5.24918
5.2446
5.24013
5.23581
5.23168
5.22777
5.2241
5.22072
5.21762
5.21494
5.21346
5.21141
5.16416
5.27825
704.601
-212.607
3.13888
6.15844
1.14522
0.653211
0.874871
1.05659
1.20303
1.3416
1.47842
1.61398
1.74815
1.8808
2.01182
2.1411
2.26853
2.39401
2.51744
2.63874
2.75782
2.8746
2.98902
3.10101
3.21051
3.31747
3.42183
3.52354
3.62255
3.71884
3.81235
3.90307
3.99096
4.076
4.15817
4.23746
4.31387
4.38738
4.45801
4.52575
4.59063
4.65265
4.71184
4.76822
4.82183
4.87269
4.92085
4.96635
5.00922
5.04953
5.08733
5.12267
5.1556
5.1862
5.21453
5.24064
5.26462
5.28653
5.30645
5.32445
5.34061
5.355
5.3677
5.3788
5.38837
5.39649
5.40325
5.40872
5.41298
5.41612
5.41822
5.41935
5.41959
5.41902
5.41772
5.41575
5.4132
5.41014
5.40663
5.40274
5.39854
5.39409
5.38946
5.38469
5.37985
5.37498
5.37015
5.36539
5.36075
5.35626
5.35198
5.34793
5.34414
5.34064
5.33745
5.33469
5.33304
5.33054
5.28631
5.39689
704.603
-212.602
3.14722
6.1701
1.16021
0.671503
0.89645
1.08144
1.23112
1.37291
1.51292
1.65163
1.78892
1.92465
2.05871
2.19099
2.32137
2.44975
2.57603
2.70013
2.82195
2.94142
3.05846
3.17302
3.28503
3.39442
3.50116
3.60517
3.70643
3.80489
3.9005
3.99325
4.0831
4.17003
4.25402
4.33506
4.41314
4.48825
4.56041
4.62961
4.69588
4.75921
4.81965
4.87721
4.93192
4.98383
5.03296
5.07936
5.12309
5.16418
5.2027
5.2387
5.27224
5.30339
5.3322
5.35876
5.38313
5.40539
5.4256
5.44385
5.46021
5.47477
5.4876
5.49879
5.50841
5.51656
5.52331
5.52874
5.53295
5.53601
5.538
5.539
5.5391
5.53837
5.5369
5.53475
5.53201
5.52875
5.52504
5.52094
5.51653
5.51187
5.50702
5.50205
5.497
5.49194
5.48691
5.48197
5.47715
5.47251
5.46808
5.46389
5.45997
5.45636
5.45307
5.45023
5.44842
5.44552
5.40401
5.51136
704.605
-212.598
3.15533
6.18144
1.17477
0.689276
0.917417
1.10558
1.25841
1.40332
1.54643
1.6882
1.82852
1.96724
2.10426
2.23944
2.37268
2.50388
2.63293
2.75974
2.88422
3.00629
3.12589
3.24293
3.35736
3.46912
3.57815
3.68441
3.78783
3.88839
3.98604
4.08075
4.1725
4.26125
4.347
4.42972
4.50941
4.58607
4.6597
4.73031
4.7979
4.86251
4.92414
4.98283
5.0386
5.0915
5.14157
5.18884
5.23337
5.27521
5.31441
5.35104
5.38515
5.41681
5.44609
5.47306
5.49779
5.52036
5.54084
5.55932
5.57586
5.59056
5.6035
5.61476
5.62442
5.63257
5.6393
5.64469
5.64882
5.65178
5.65365
5.65452
5.65446
5.65357
5.65191
5.64958
5.64664
5.64317
5.63924
5.63493
5.63031
5.62543
5.62037
5.61518
5.60993
5.60467
5.59944
5.59432
5.58933
5.58452
5.57993
5.5756
5.57156
5.56783
5.56445
5.56153
5.55957
5.55633
5.51725
5.62164
704.606
-212.593
3.16319
6.19244
1.1889
0.706525
0.937765
1.12901
1.28489
1.43284
1.57894
1.72369
1.86695
2.00857
2.14844
2.28645
2.42247
2.55639
2.68812
2.81756
2.94462
3.06921
3.19127
3.31073
3.42751
3.54155
3.65281
3.76122
3.86674
3.96933
4.06894
4.16555
4.25913
4.34964
4.43708
4.52142
4.60267
4.68081
4.75586
4.82782
4.89669
4.96251
5.02529
5.08505
5.14185
5.1957
5.24665
5.29475
5.34004
5.38259
5.42244
5.45965
5.4943
5.52645
5.55616
5.58351
5.60857
5.63143
5.65215
5.67083
5.68753
5.70236
5.71538
5.72669
5.73637
5.74451
5.7512
5.75652
5.76056
5.76341
5.76515
5.76587
5.76565
5.76458
5.76274
5.7602
5.75705
5.75337
5.74923
5.7447
5.73985
5.73475
5.72947
5.72407
5.7186
5.71314
5.70772
5.70241
5.69724
5.69227
5.68753
5.68305
5.67889
5.67505
5.67157
5.66856
5.66647
5.66294
5.62603
5.72769
704.608
-212.588
3.17082
6.20311
1.2026
0.723247
0.957491
1.15172
1.31056
1.46145
1.61046
1.75809
1.90419
2.04862
2.19126
2.332
2.47071
2.60727
2.7416
2.87358
3.00313
3.13017
3.25461
3.37639
3.49544
3.6117
3.7251
3.8356
3.94315
4.04769
4.1492
4.24764
4.34297
4.43518
4.52425
4.61015
4.6929
4.77247
4.84887
4.92212
4.99223
5.0592
5.12308
5.18388
5.24164
5.29639
5.34819
5.39707
5.44309
5.4863
5.52676
5.56454
5.59968
5.63228
5.66239
5.69009
5.71546
5.73858
5.75952
5.77837
5.79521
5.81014
5.82322
5.83456
5.84425
5.85236
5.85899
5.86423
5.86817
5.87089
5.87249
5.87305
5.87266
5.8714
5.86935
5.86661
5.86325
5.85934
5.85498
5.85022
5.84514
5.83982
5.83432
5.82869
5.82302
5.81735
5.81173
5.80623
5.80088
5.79574
5.79085
5.78623
5.78194
5.77799
5.77441
5.77133
5.7691
5.76532
5.73037
5.82951
704.609
-212.584
3.17821
6.21344
1.21587
0.73944
0.976591
1.17371
1.33542
1.48915
1.64098
1.79139
1.94024
2.08739
2.23272
2.37609
2.5174
2.65652
2.79335
2.92779
3.05975
3.18915
3.3159
3.43993
3.56117
3.67955
3.79503
3.90754
4.01703
4.12347
4.2268
4.327
4.42403
4.51787
4.6085
4.6959
4.78008
4.86102
4.93873
5.01322
5.08449
5.15258
5.2175
5.27928
5.33796
5.39358
5.44618
5.4958
5.54251
5.58635
5.62738
5.66567
5.70129
5.7343