/*--------------------------------*- C++ -*----------------------------------*\
  =========                 |
  \\      /  F ield         | OpenFOAM: The Open Source CFD Toolbox
   \\    /   O peration     | Website:  https://openfoam.org
    \\  /    A nd           | Version:  10
     \\/     M anipulation  |
\*---------------------------------------------------------------------------*/
FoamFile
{
    format      ascii;
    class       volScalarField;
    location    "20";
    object      T;
}
// * * * * * * * * * * * * * * * * * * * * * * * * * * * * * * * * * * * * * //

dimensions      [0 0 0 1 0 0 0];

internalField   nonuniform List<scalar> 
10000
(
374.978
361.263
356.564
354.494
353.362
352.642
352.134
351.751
351.448
351.198
350.987
350.805
350.644
350.5
350.369
350.25
350.139
350.036
349.939
349.847
349.761
349.678
349.599
349.523
349.451
349.381
349.313
349.248
349.185
349.123
349.064
349.006
348.95
348.895
348.842
348.79
348.74
348.691
348.643
348.596
348.55
348.506
348.463
348.421
348.379
348.339
348.3
348.262
348.225
348.189
348.154
348.12
348.087
348.054
348.023
347.992
347.962
347.934
347.906
347.879
347.852
347.827
347.802
347.778
347.755
347.733
347.711
347.691
347.671
347.651
347.633
347.615
347.598
347.581
347.566
347.551
347.536
347.523
347.51
347.497
347.486
347.475
347.464
347.455
347.446
347.437
347.429
347.422
347.415
347.409
347.404
347.399
347.395
347.391
347.388
347.386
347.384
347.382
347.382
347.382
388.587
374.769
367.057
362.538
359.671
357.708
356.273
355.169
354.285
353.552
352.929
352.389
351.911
351.482
351.093
350.735
350.405
350.096
349.806
349.533
349.273
349.026
348.79
348.563
348.346
348.136
347.934
347.738
347.548
347.364
347.186
347.013
346.844
346.681
346.521
346.366
346.214
346.067
345.923
345.783
345.647
345.513
345.384
345.257
345.134
345.014
344.897
344.782
344.671
344.563
344.458
344.355
344.255
344.158
344.064
343.972
343.883
343.797
343.713
343.632
343.553
343.476
343.402
343.331
343.261
343.195
343.13
343.068
343.008
342.95
342.894
342.841
342.79
342.74
342.693
342.648
342.605
342.565
342.526
342.489
342.454
342.421
342.39
342.36
342.333
342.308
342.284
342.262
342.243
342.224
342.208
342.194
342.181
342.17
342.161
342.153
342.148
342.144
342.141
342.141
393.184
382.174
374.36
368.931
365.08
362.248
360.084
358.372
356.973
355.799
354.793
353.914
353.132
352.429
351.788
351.199
350.653
350.142
349.662
349.209
348.779
348.368
347.976
347.6
347.238
346.889
346.553
346.227
345.912
345.606
345.309
345.021
344.74
344.468
344.202
343.943
343.691
343.446
343.207
342.973
342.746
342.524
342.308
342.097
341.892
341.692
341.497
341.307
341.122
340.941
340.766
340.595
340.429
340.267
340.11
339.957
339.809
339.665
339.525
339.389
339.258
339.131
339.008
338.888
338.773
338.661
338.554
338.45
338.35
338.254
338.161
338.072
337.987
337.905
337.826
337.751
337.68
337.612
337.547
337.485
337.427
337.372
337.32
337.272
337.226
337.184
337.145
337.108
337.075
337.045
337.018
336.994
336.973
336.954
336.939
336.927
336.917
336.911
336.907
336.906
395.151
386.387
379.278
373.747
369.47
366.121
363.446
361.261
359.437
357.882
356.532
355.342
354.278
353.316
352.435
351.623
350.868
350.161
349.496
348.866
348.268
347.697
347.151
346.626
346.122
345.636
345.166
344.711
344.271
343.844
343.429
343.027
342.635
342.254
341.882
341.521
341.169
340.825
340.491
340.165
339.847
339.537
339.234
338.94
338.652
338.372
338.099
337.834
337.575
337.322
337.077
336.838
336.605
336.379
336.159
335.946
335.738
335.537
335.341
335.151
334.968
334.789
334.617
334.45
334.289
334.133
333.982
333.837
333.697
333.562
333.433
333.308
333.189
333.074
332.964
332.859
332.759
332.664
332.573
332.487
332.406
332.329
332.256
332.188
332.125
332.065
332.01
331.96
331.913
331.871
331.833
331.799
331.77
331.744
331.723
331.705
331.692
331.683
331.678
331.677
396.181
388.947
382.62
377.311
372.932
369.321
366.32
363.793
361.634
359.761
358.115
356.648
355.327
354.124
353.018
351.995
351.04
350.144
349.299
348.497
347.735
347.007
346.309
345.64
344.995
344.372
343.771
343.189
342.625
342.078
341.546
341.03
340.527
340.038
339.562
339.098
338.646
338.206
337.776
337.357
336.949
336.551
336.163
335.785
335.416
335.056
334.706
334.364
334.032
333.708
333.392
333.085
332.787
332.496
332.214
331.939
331.673
331.414
331.163
330.919
330.683
330.454
330.233
330.018
329.811
329.611
329.417
329.231
329.051
328.878
328.711
328.551
328.398
328.25
328.109
327.975
327.846
327.724
327.607
327.496
327.392
327.293
327.2
327.112
327.03
326.954
326.884
326.819
326.759
326.705
326.656
326.612
326.574
326.542
326.514
326.492
326.475
326.463
326.456
326.455
396.799
390.605
384.942
379.947
375.627
371.915
368.722
365.959
363.547
361.419
359.522
357.814
356.262
354.84
353.525
352.303
351.159
350.082
349.064
348.097
347.176
346.295
345.449
344.637
343.853
343.097
342.366
341.659
340.972
340.306
339.659
339.03
338.417
337.821
337.241
336.675
336.124
335.587
335.063
334.553
334.055
333.569
333.095
332.634
332.183
331.745
331.317
330.9
330.494
330.099
329.714
329.339
328.975
328.62
328.275
327.94
327.615
327.299
326.992
326.695
326.406
326.127
325.856
325.594
325.341
325.097
324.861
324.633
324.413
324.202
323.999
323.803
323.616
323.436
323.264
323.099
322.942
322.792
322.65
322.515
322.387
322.266
322.153
322.046
321.946
321.853
321.767
321.687
321.614
321.548
321.489
321.436
321.389
321.349
321.315
321.288
321.267
321.253
321.245
321.243
397.205
391.735
386.598
381.911
377.714
373.992
370.698
367.779
365.18
362.849
360.744
358.829
357.074
355.453
353.948
352.541
351.219
349.971
348.787
347.661
346.586
345.556
344.567
343.614
342.696
341.809
340.951
340.119
339.312
338.528
337.767
337.026
336.305
335.603
334.919
334.253
333.603
332.97
332.353
331.751
331.163
330.591
330.032
329.487
328.956
328.439
327.934
327.442
326.963
326.497
326.043
325.601
325.17
324.752
324.345
323.949
323.565
323.192
322.83
322.479
322.139
321.809
321.49
321.181
320.882
320.593
320.314
320.046
319.786
319.537
319.297
319.066
318.845
318.632
318.429
318.235
318.049
317.873
317.705
317.545
317.394
317.252
317.118
316.991
316.874
316.764
316.662
316.568
316.482
316.404
316.334
316.271
316.216
316.169
316.129
316.097
316.072
316.055
316.046
316.044
397.487
392.535
387.804
383.387
379.331
375.642
372.304
369.285
366.548
364.059
361.783
359.691
357.757
355.959
354.28
352.702
351.214
349.804
348.464
347.185
345.962
344.788
343.659
342.571
341.521
340.505
339.522
338.568
337.642
336.743
335.869
335.018
334.19
333.383
332.597
331.831
331.084
330.355
329.645
328.952
328.276
327.617
326.974
326.347
325.735
325.139
324.558
323.992
323.441
322.903
322.38
321.871
321.375
320.893
320.424
319.969
319.526
319.096
318.679
318.275
317.883
317.503
317.135
316.779
316.434
316.102
315.78
315.471
315.172
314.884
314.608
314.342
314.087
313.842
313.608
313.384
313.17
312.967
312.773
312.589
312.415
312.251
312.096
311.951
311.815
311.689
311.571
311.463
311.364
311.274
311.193
311.121
311.057
311.003
310.957
310.92
310.892
310.872
310.861
310.859
397.689
393.116
388.698
384.506
380.582
376.946
373.594
370.512
367.676
365.062
362.646
360.403
358.313
356.357
354.518
352.784
351.141
349.579
348.09
346.666
345.3
343.988
342.724
341.504
340.326
339.185
338.079
337.006
335.964
334.95
333.965
333.006
332.071
331.161
330.274
329.409
328.565
327.743
326.94
326.157
325.393
324.648
323.922
323.213
322.522
321.848
321.191
320.551
319.927
319.319
318.727
318.151
317.59
317.045
316.515
315.999
315.499
315.013
314.541
314.083
313.639
313.209
312.793
312.39
312
311.624
311.261
310.91
310.572
310.247
309.933
309.633
309.344
309.067
308.802
308.549
308.307
308.076
307.857
307.649
307.452
307.266
307.091
306.927
306.773
306.63
306.497
306.374
306.262
306.16
306.068
305.987
305.915
305.853
305.801
305.759
305.727
305.705
305.693
305.69
397.838
393.547
389.368
385.357
381.55
377.97
374.62
371.497
368.587
365.875
363.342
360.97
358.743
356.646
354.664
352.785
350.998
349.294
347.664
346.102
344.6
343.155
341.761
340.413
339.11
337.846
336.621
335.431
334.275
333.15
332.055
330.989
329.95
328.938
327.951
326.988
326.049
325.133
324.239
323.367
322.516
321.686
320.876
320.086
319.316
318.565
317.832
317.119
316.423
315.745
315.085
314.443
313.818
313.21
312.618
312.043
311.485
310.943
310.416
309.905
309.41
308.931
308.466
308.017
307.582
307.162
306.757
306.365
305.988
305.625
305.276
304.94
304.618
304.309
304.013
303.73
303.461
303.203
302.959
302.727
302.507
302.299
302.104
301.921
301.749
301.589
301.441
301.304
301.179
301.065
300.963
300.871
300.791
300.722
300.665
300.618
300.582
300.557
300.543
300.54
397.949
393.869
389.874
386.005
382.296
378.766
375.426
372.276
369.309
366.516
363.885
361.402
359.055
356.831
354.718
352.706
350.786
348.948
347.186
345.492
343.861
342.287
340.767
339.297
337.872
336.49
335.148
333.844
332.575
331.341
330.139
328.968
327.826
326.713
325.627
324.568
323.535
322.527
321.543
320.582
319.645
318.731
317.839
316.969
316.12
315.292
314.485
313.698
312.931
312.184
311.456
310.748
310.059
309.388
308.736
308.102
307.486
306.888
306.307
305.744
305.198
304.669
304.156
303.661
303.181
302.718
302.27
301.839
301.423
301.022
300.637
300.266
299.911
299.57
299.244
298.932
298.634
298.35
298.08
297.824
297.582
297.353
297.137
296.935
296.745
296.569
296.405
296.254
296.116
295.991
295.878
295.777
295.689
295.612
295.549
295.497
295.458
295.43
295.415
295.412
398.032
394.11
390.255
386.497
382.865
379.379
376.048
372.877
369.864
367.004
364.288
361.709
359.254
356.916
354.685
352.55
350.506
348.543
346.655
344.836
343.081
341.385
339.744
338.154
336.612
335.114
333.659
332.243
330.865
329.523
328.216
326.942
325.699
324.487
323.304
322.15
321.024
319.924
318.851
317.804
316.781
315.784
314.81
313.86
312.933
312.03
311.148
310.289
309.452
308.636
307.841
307.067
306.314
305.581
304.869
304.176
303.503
302.85
302.215
301.6
301.003
300.425
299.865
299.323
298.799
298.293
297.804
297.332
296.877
296.439
296.018
295.613
295.224
294.852
294.495
294.154
293.829
293.518
293.224
292.944
292.678
292.428
292.192
291.971
291.764
291.571
291.392
291.227
291.076
290.939
290.815
290.705
290.609
290.525
290.456
290.399
290.356
290.326
290.309
290.306
398.093
394.291
390.54
386.867
383.295
379.841
376.517
373.328
370.275
367.356
364.567
361.901
359.351
356.909
354.568
352.32
350.159
348.079
346.072
344.135
342.262
340.449
338.691
336.986
335.329
333.72
332.154
330.629
329.145
327.698
326.287
324.912
323.57
322.26
320.982
319.734
318.516
317.327
316.166
315.032
313.925
312.845
311.791
310.762
309.758
308.779
307.824
306.893
305.986
305.102
304.241
303.402
302.586
301.792
301.019
300.268
299.539
298.83
298.142
297.475
296.828
296.201
295.594
295.006
294.438
293.888
293.358
292.847
292.353
291.878
291.421
290.982
290.561
290.157
289.77
289.4
289.047
288.71
288.39
288.087
287.799
287.528
287.272
287.032
286.807
286.598
286.404
286.225
286.061
285.912
285.778
285.658
285.554
285.463
285.388
285.326
285.28
285.247
285.229
285.225
398.138
394.423
390.75
387.139
383.61
380.18
376.858
373.65
370.561
367.59
364.734
361.989
359.351
356.814
354.372
352.019
349.75
347.559
345.44
343.39
341.404
339.478
337.608
335.792
334.025
332.307
330.633
329.003
327.414
325.864
324.353
322.878
321.438
320.033
318.661
317.321
316.012
314.734
313.486
312.268
311.078
309.916
308.782
307.676
306.596
305.542
304.515
303.513
302.536
301.584
300.657
299.754
298.875
298.02
297.188
296.379
295.594
294.83
294.089
293.371
292.674
291.998
291.344
290.711
290.099
289.507
288.936
288.385
287.853
287.341
286.849
286.376
285.922
285.486
285.069
284.671
284.29
283.928
283.583
283.256
282.946
282.653
282.377
282.119
281.876
281.651
281.442
281.249
281.072
280.912
280.767
280.639
280.526
280.428
280.347
280.281
280.23
280.195
280.176
280.171
398.171
394.518
390.9
387.333
383.834
380.416
377.091
373.864
370.739
367.719
364.801
361.985
359.266
356.64
354.104
351.653
349.281
346.985
344.761
342.603
340.509
338.474
336.497
334.573
332.7
330.876
329.098
327.364
325.673
324.024
322.413
320.841
319.306
317.806
316.342
314.911
313.513
312.148
310.815
309.512
308.24
306.998
305.785
304.602
303.446
302.319
301.22
300.147
299.102
298.083
297.091
296.124
295.183
294.267
293.377
292.511
291.669
290.852
290.059
289.289
288.542
287.819
287.118
286.44
285.784
285.15
284.538
283.948
283.378
282.83
282.303
281.796
281.309
280.842
280.396
279.969
279.561
279.172
278.803
278.452
278.12
277.806
277.511
277.234
276.974
276.733
276.509
276.302
276.113
275.941
275.786
275.648
275.527
275.422
275.335
275.264
275.21
275.172
275.151
275.147
398.193
394.583
391.001
387.462
383.981
380.568
377.233
373.984
370.824
367.756
364.781
361.897
359.102
356.394
353.769
351.225
348.757
346.362
344.036
341.775
339.578
337.439
335.358
333.33
331.354
329.427
327.548
325.714
323.924
322.176
320.469
318.801
317.172
315.58
314.025
312.505
311.02
309.569
308.151
306.766
305.413
304.092
302.801
301.541
300.312
299.112
297.941
296.799
295.686
294.601
293.544
292.514
291.512
290.536
289.587
288.664
287.768
286.897
286.051
285.231
284.435
283.664
282.917
282.194
281.495
280.819
280.167
279.537
278.931
278.346
277.784
277.243
276.724
276.227
275.751
275.295
274.861
274.446
274.052
273.678
273.324
272.99
272.675
272.379
272.102
271.845
271.606
271.385
271.184
271
270.835
270.688
270.559
270.447
270.354
270.279
270.221
270.181
270.158
270.153
398.207
394.623
391.063
387.54
384.065
380.648
377.3
374.025
370.829
367.714
364.683
361.734
358.867
356.081
353.373
350.74
348.181
345.691
343.268
340.91
338.613
336.375
334.193
332.065
329.989
327.963
325.985
324.053
322.166
320.322
318.52
316.76
315.038
313.356
311.712
310.104
308.533
306.998
305.497
304.03
302.597
301.197
299.83
298.495
297.192
295.92
294.679
293.469
292.288
291.138
290.017
288.925
287.861
286.827
285.82
284.841
283.89
282.966
282.069
281.198
280.354
279.535
278.743
277.976
277.234
276.517
275.824
275.156
274.512
273.891
273.294
272.72
272.17
271.642
271.136
270.653
270.191
269.751
269.333
268.936
268.56
268.205
267.871
267.556
267.263
266.989
266.735
266.501
266.287
266.092
265.917
265.76
265.623
265.505
265.406
265.326
265.265
265.222
265.198
265.193
398.214
394.643
391.093
387.574
384.096
380.669
377.301
373.997
370.764
367.603
364.516
361.505
358.57
355.709
352.921
350.204
347.557
344.977
342.462
340.009
337.617
335.282
333.003
330.778
328.606
326.483
324.409
322.382
320.4
318.463
316.569
314.717
312.906
311.135
309.403
307.709
306.054
304.435
302.852
301.305
299.794
298.317
296.874
295.465
294.089
292.747
291.436
290.158
288.911
287.696
286.511
285.358
284.234
283.141
282.077
281.043
280.037
279.061
278.112
277.192
276.3
275.435
274.597
273.786
273.001
272.243
271.511
270.804
270.123
269.467
268.836
268.229
267.647
267.088
266.554
266.042
265.554
265.089
264.647
264.227
263.829
263.454
263.1
262.768
262.457
262.168
261.899
261.652
261.425
261.219
261.033
260.868
260.723
260.598
260.493
260.408
260.343
260.298
260.273
260.267
398.216
394.646
391.096
387.572
384.083
380.639
377.247
373.911
370.638
367.43
364.29
361.218
358.216
355.283
352.419
349.621
346.89
344.224
341.619
339.076
336.591
334.164
331.791
329.472
327.206
324.989
322.822
320.702
318.628
316.6
314.615
312.674
310.775
308.917
307.099
305.321
303.582
301.882
300.219
298.593
297.004
295.451
293.934
292.452
291.005
289.592
288.213
286.867
285.555
284.276
283.029
281.814
280.632
279.48
278.36
277.271
276.212
275.183
274.184
273.215
272.274
271.363
270.48
269.626
268.799
268.001
267.229
266.485
265.767
265.075
264.41
263.771
263.157
262.569
262.005
261.466
260.952
260.462
259.995
259.553
259.134
258.738
258.365
258.015
257.687
257.382
257.099
256.838
256.599
256.382
256.186
256.012
255.859
255.727
255.617
255.527
255.459
255.411
255.385
255.379
398.212
394.636
391.076
387.539
384.033
380.567
377.145
373.775
370.46
367.205
364.01
360.879
357.812
354.809
351.871
348.996
346.184
343.434
340.744
338.112
335.539
333.021
330.558
328.149
325.791
323.483
321.225
319.014
316.851
314.733
312.661
310.632
308.646
306.703
304.801
302.941
301.12
299.339
297.597
295.894
294.229
292.601
291.01
289.456
287.938
286.457
285.01
283.599
282.222
280.879
279.571
278.296
277.054
275.846
274.67
273.526
272.414
271.334
270.285
269.267
268.28
267.323
266.395
265.498
264.63
263.791
262.98
262.198
261.444
260.718
260.019
259.347
258.703
258.084
257.492
256.926
256.385
255.87
255.381
254.916
254.475
254.059
253.667
253.299
252.955
252.635
252.337
252.063
251.812
251.583
251.378
251.195
251.034
250.895
250.779
250.685
250.613
250.563
250.535
250.529
398.205
394.614
391.037
387.481
383.952
380.458
377.004
373.596
370.238
366.933
363.685
360.495
357.364
354.293
351.283
348.332
345.442
342.611
339.838
337.122
334.462
331.858
329.307
326.809
324.362
321.966
319.619
317.321
315.07
312.865
310.706
308.592
306.522
304.495
302.511
300.569
298.668
296.808
294.989
293.209
291.469
289.768
288.105
286.48
284.892
283.342
281.829
280.353
278.912
277.507
276.138
274.804
273.504
272.239
271.008
269.81
268.646
267.515
266.417
265.351
264.317
263.314
262.343
261.403
260.494
259.615
258.766
257.947
257.157
256.396
255.664
254.96
254.285
253.637
253.016
252.423
251.857
251.317
250.804
250.317
249.855
249.419
249.009
248.623
248.262
247.926
247.615
247.327
247.064
246.825
246.609
246.417
246.249
246.104
245.982
245.883
245.808
245.755
245.726
245.719
398.195
394.581
390.982
387.4
383.844
380.317
376.828
373.379
369.976
366.622
363.319
360.07
356.876
353.739
350.658
347.635
344.668
341.759
338.905
336.107
333.364
330.675
328.039
325.455
322.922
320.439
318.006
315.622
313.285
310.996
308.753
306.555
304.402
302.293
300.229
298.207
296.227
294.29
292.394
290.54
288.726
286.952
285.218
283.523
281.867
280.25
278.672
277.131
275.627
274.161
272.731
271.338
269.982
268.661
267.375
266.125
264.909
263.728
262.58
261.467
260.387
259.34
258.325
257.343
256.393
255.475
254.588
253.732
252.906
252.111
251.346
250.611
249.905
249.228
248.58
247.96
247.368
246.804
246.267
245.758
245.276
244.82
244.391
243.988
243.611
243.259
242.934
242.633
242.358
242.108
241.883
241.682
241.506
241.354
241.227
241.123
241.044
240.99
240.959
240.952
398.181
394.541
390.914
387.302
383.712
380.151
376.622
373.131
369.681
366.276
362.918
359.611
356.355
353.152
350.002
346.907
343.867
340.88
337.949
335.071
332.246
329.475
326.756
324.088
321.472
318.905
316.388
313.92
311.5
309.127
306.802
304.522
302.288
300.1
297.955
295.855
293.799
291.786
289.815
287.887
286
284.155
282.351
280.588
278.865
277.182
275.538
273.934
272.368
270.841
269.353
267.902
266.489
265.113
263.773
262.471
261.204
259.973
258.777
257.617
256.491
255.4
254.343
253.319
252.329
251.372
250.447
249.555
248.694
247.866
247.068
246.301
245.565
244.859
244.183
243.537
242.92
242.331
241.772
241.241
240.738
240.263
239.815
239.395
239.002
238.635
238.296
237.982
237.695
237.434
237.199
236.99
236.806
236.648
236.515
236.407
236.325
236.268
236.235
236.228
398.166
394.494
390.833
387.188
383.562
379.961
376.391
372.855
369.356
365.9
362.487
359.121
355.803
352.535
349.318
346.153
343.04
339.979
336.971
334.015
331.112
328.26
325.46
322.711
320.013
317.365
314.766
312.216
309.714
307.26
304.854
302.495
300.182
297.915
295.693
293.516
291.384
289.296
287.252
285.251
283.293
281.378
279.505
277.675
275.885
274.137
272.43
270.763
269.137
267.55
266.003
264.495
263.026
261.596
260.204
258.849
257.532
256.252
255.009
253.803
252.632
251.497
250.398
249.333
248.303
247.307
246.345
245.417
244.522
243.66
242.83
242.032
241.266
240.532
239.829
239.156
238.514
237.902
237.32
236.767
236.244
235.749
235.284
234.846
234.437
234.056
233.702
233.376
233.077
232.806
232.561
232.343
232.152
231.987
231.849
231.737
231.651
231.591
231.558
231.55
398.148
394.44
390.744
387.06
383.395
379.752
376.138
372.555
369.007
365.497
362.029
358.604
355.225
351.893
348.61
345.375
342.191
339.058
335.975
332.944
329.963
327.034
324.155
321.326
318.548
315.82
313.141
310.511
307.93
305.397
302.912
300.474
298.083
295.739
293.442
291.19
288.983
286.822
284.706
282.634
280.606
278.622
276.682
274.785
272.93
271.118
269.348
267.62
265.934
264.288
262.684
261.12
259.596
258.112
256.667
255.262
253.895
252.567
251.277
250.025
248.81
247.632
246.491
245.385
244.316
243.283
242.284
241.32
240.391
239.496
238.634
237.806
237.011
236.248
235.518
234.819
234.152
233.517
232.912
232.338
231.795
231.281
230.797
230.343
229.918
229.522
229.155
228.816
228.506
228.224
227.97
227.743
227.544
227.373
227.23
227.113
227.024
226.962
226.927
226.919
398.128
394.382
390.645
386.921
383.213
379.527
375.866
372.235
368.636
365.073
361.549
358.065
354.625
351.229
347.88
344.578
341.324
338.119
334.964
331.858
328.802
325.796
322.84
319.935
317.079
314.272
311.515
308.807
306.148
303.538
300.976
298.461
295.995
293.575
291.203
288.878
286.599
284.366
282.178
280.037
277.94
275.889
273.882
271.919
270.001
268.126
266.294
264.506
262.76
261.057
259.396
257.776
256.198
254.661
253.166
251.71
250.294
248.919
247.582
246.285
245.026
243.806
242.623
241.478
240.37
239.299
238.264
237.266
236.302
235.375
234.482
233.623
232.799
232.008
231.251
230.527
229.836
229.177
228.551
227.956
227.392
226.86
226.358
225.887
225.447
225.036
224.655
224.304
223.982
223.69
223.426
223.191
222.985
222.808
222.659
222.538
222.445
222.381
222.345
222.336
398.108
394.319
390.54
386.772
383.02
379.288
375.579
371.897
368.246
364.629
361.048
357.506
354.005
350.547
347.132
343.763
340.441
337.166
333.939
330.76
327.631
324.551
321.52
318.538
315.606
312.723
309.89
307.106
304.371
301.684
299.047
296.458
293.917
291.424
288.978
286.581
284.23
281.927
279.67
277.46
275.296
273.178
271.106
269.079
267.098
265.161
263.269
261.421
259.617
257.857
256.14
254.466
252.835
251.246
249.699
248.194
246.731
245.308
243.926
242.584
241.282
240.02
238.797
237.612
236.466
235.358
234.288
233.254
232.258
231.298
230.374
229.486
228.633
227.815
227.031
226.282
225.567
224.885
224.237
223.621
223.038
222.487
221.967
221.48
221.024
220.599
220.205
219.841
219.508
219.205
218.933
218.69
218.476
218.292
218.138
218.013
217.917
217.85
217.813
217.804
398.085
394.253
390.429
386.616
382.817
379.036
375.278
371.545
367.841
364.169
360.532
356.931
353.369
349.848
346.369
342.934
339.544
336.2
332.903
329.654
326.452
323.299
320.194
317.139
314.132
311.175
308.267
305.408
302.599
299.838
297.127
294.464
291.851
289.285
286.769
284.3
281.88
279.507
277.183
274.905
272.675
270.492
268.356
266.266
264.222
262.225
260.273
258.367
256.505
254.689
252.917
251.19
249.506
247.867
246.27
244.716
243.205
241.736
240.309
238.924
237.579
236.276
235.012
233.789
232.605
231.461
230.355
229.288
228.258
227.267
226.312
225.395
224.514
223.668
222.859
222.085
221.346
220.641
219.971
219.335
218.732
218.163
217.626
217.123
216.651
216.212
215.805
215.429
215.085
214.772
214.49
214.239
214.018
213.828
213.668
213.539
213.44
213.371
213.332
213.323
398.062
394.183
390.313
386.452
382.605
378.775
374.966
371.181
367.423
363.696
360.001
356.341
352.719
349.136
345.593
342.093
338.637
335.225
331.859
328.54
325.267
322.043
318.866
315.738
312.659
309.629
306.648
303.716
300.834
298.001
295.217
292.483
289.798
287.162
284.575
282.037
279.548
277.108
274.716
272.373
270.078
267.831
265.632
263.48
261.376
259.318
257.308
255.344
253.427
251.555
249.73
247.95
246.214
244.524
242.879
241.277
239.719
238.205
236.733
235.305
233.919
232.574
231.272
230.01
228.789
227.609
226.468
225.367
224.306
223.283
222.298
221.351
220.442
219.57
218.735
217.937
217.174
216.447
215.756
215.099
214.478
213.89
213.337
212.817
212.33
211.877
211.457
211.069
210.714
210.391
210.1
209.84
209.613
209.417
209.252
209.118
209.016
208.945
208.904
208.894
398.038
394.111
390.192
386.283
382.386
378.505
374.644
370.806
366.994
363.211
359.459
355.74
352.058
348.413
344.807
341.243
337.721
334.242
330.809
327.421
324.079
320.784
317.537
314.338
311.188
308.086
305.034
302.031
299.077
296.173
293.318
290.514
287.759
285.054
282.399
279.793
277.237
274.73
272.273
269.865
267.506
265.196
262.935
260.723
258.559
256.443
254.375
252.355
250.382
248.456
246.578
244.746
242.96
241.22
239.526
237.877
236.274
234.714
233.199
231.728
230.301
228.917
227.575
226.276
225.018
223.803
222.628
221.494
220.4
219.346
218.332
217.357
216.42
215.522
214.662
213.839
213.053
212.305
211.592
210.916
210.275
209.669
209.099
208.563
208.062
207.595
207.162
206.762
206.396
206.063
205.763
205.496
205.261
205.059
204.889
204.751
204.646
204.572
204.531
204.52
398.014
394.037
390.068
386.108
382.16
378.228
374.315
370.423
366.556
362.717
358.907
355.13
351.387
347.681
344.013
340.385
336.798
333.254
329.754
326.298
322.888
319.525
316.209
312.94
309.72
306.549
303.426
300.353
297.33
294.356
291.433
288.559
285.736
282.963
280.24
277.568
274.946
272.374
269.853
267.382
264.96
262.589
260.267
257.995
255.772
253.599
251.474
249.399
247.372
245.393
243.462
241.579
239.744
237.955
236.214
234.518
232.869
231.266
229.708
228.196
226.728
225.304
223.924
222.588
221.294
220.044
218.835
217.669
216.544
215.459
214.416
213.413
212.449
211.525
210.64
209.793
208.985
208.214
207.481
206.785
206.125
205.502
204.915
204.364
203.848
203.367
202.921
202.51
202.133
201.791
201.482
201.207
200.965
200.757
200.582
200.44
200.331
200.255
200.212
200.202
397.988
393.961
389.942
385.93
381.931
377.946
373.979
370.033
366.111
362.215
358.348
354.512
350.709
346.942
343.212
339.521
335.871
332.262
328.696
325.174
321.697
318.267
314.883
311.546
308.257
305.018
301.827
298.685
295.593
292.552
289.56
286.62
283.729
280.89
278.102
275.364
272.678
270.042
267.458
264.924
262.442
260.01
257.629
255.298
253.018
250.788
248.608
246.478
244.397
242.366
240.384
238.451
236.567
234.73
232.942
231.201
229.508
227.861
226.261
224.708
223.2
221.737
220.32
218.947
217.618
216.333
215.091
213.893
212.737
211.623
210.55
209.519
208.529
207.58
206.67
205.8
204.969
204.177
203.423
202.708
202.03
201.389
200.786
200.219
199.689
199.195
198.737
198.314
197.926
197.574
197.256
196.973
196.725
196.511
196.331
196.185
196.073
195.995
195.951
195.94
397.963
393.884
389.813
385.749
381.697
377.659
373.638
369.637
365.659
361.707
357.782
353.888
350.026
346.199
342.408
338.654
334.941
331.268
327.637
324.05
320.508
317.011
313.56
310.157
306.802
303.494
300.236
297.028
293.869
290.761
287.703
284.696
281.741
278.836
275.983
273.182
270.432
267.734
265.088
262.494
259.951
257.46
255.02
252.632
250.296
248.01
245.776
243.592
241.46
239.377
237.345
235.363
233.43
231.547
229.713
227.927
226.19
224.501
222.859
221.265
219.718
218.217
216.763
215.354
213.991
212.672
211.398
210.167
208.981
207.838
206.737
205.679
204.662
203.687
202.753
201.86
201.007
200.194
199.42
198.686
197.99
197.332
196.713
196.131
195.586
195.079
194.608
194.174
193.776
193.414
193.088
192.798
192.542
192.323
192.138
191.988
191.873
191.793
191.747
191.736
397.937
393.806
389.682
385.566
381.46
377.368
373.293
369.238
365.204
361.195
357.213
353.261
349.34
345.452
341.6
337.785
334.009
330.274
326.58
322.928
319.321
315.759
312.244
308.775
305.353
301.981
298.657
295.383
292.158
288.985
285.862
282.791
279.771
276.803
273.887
271.023
268.211
265.452
262.745
260.091
257.489
254.94
252.443
249.999
247.607
245.267
242.98
240.744
238.559
236.427
234.345
232.315
230.335
228.405
226.526
224.696
222.916
221.185
219.503
217.87
216.284
214.746
213.255
211.811
210.413
209.061
207.755
206.493
205.277
204.105
202.976
201.891
200.849
199.849
198.891
197.975
197.101
196.267
195.473
194.72
194.006
193.332
192.696
192.1
191.541
191.021
190.538
190.093
189.684
189.313
188.978
188.68
188.419
188.193
188.003
187.849
187.731
187.649
187.602
187.59
397.91
393.726
389.55
385.38
381.221
377.075
372.946
368.835
364.745
360.68
356.641
352.63
348.651
344.704
340.792
336.916
333.078
329.281
325.524
321.81
318.139
314.514
310.934
307.4
303.915
300.477
297.089
293.751
290.462
287.225
284.038
280.903
277.821
274.79
271.812
268.887
266.015
263.196
260.43
257.717
255.057
252.451
249.899
247.399
244.953
242.56
240.22
237.932
235.698
233.515
231.386
229.308
227.281
225.307
223.383
221.51
219.688
217.916
216.194
214.521
212.898
211.323
209.796
208.317
206.886
205.501
204.163
202.872
201.626
200.425
199.269
198.158
197.09
196.066
195.085
194.147
193.25
192.396
191.583
190.811
190.08
189.389
188.738
188.127
187.554
187.021
186.526
186.07
185.652
185.271
184.928
184.623
184.354
184.123
183.928
183.771
183.65
183.565
183.517
183.505
397.884
393.647
389.417
385.194
380.981
376.781
372.596
368.43
364.285
360.163
356.067
351.999
347.961
343.955
339.983
336.048
332.149
328.29
324.472
320.696
316.963
313.274
309.632
306.035
302.486
298.986
295.534
292.133
288.782
285.481
282.233
279.036
275.892
272.8
269.761
266.776
263.844
260.966
258.142
255.372
252.656
249.995
247.387
244.833
242.334
239.889
237.497
235.159
232.875
230.645
228.467
226.343
224.271
222.252
220.285
218.37
216.506
214.694
212.932
211.221
209.56
207.949
206.388
204.875
203.41
201.994
200.625
199.303
198.028
196.8
195.617
194.479
193.387
192.339
191.335
190.374
189.457
188.583
187.751
186.961
186.212
185.505
184.839
184.213
183.627
183.081
182.574
182.107
181.679
181.289
180.938
180.625
180.351
180.114
179.914
179.753
179.629
179.542
179.493
179.48
397.857
393.567
389.283
385.006
380.739
376.485
372.246
368.025
363.824
359.646
355.493
351.368
347.272
343.208
339.177
335.182
331.224
327.304
323.425
319.588
315.794
312.044
308.339
304.681
301.07
297.507
293.994
290.531
287.118
283.756
280.446
277.189
273.984
270.833
267.735
264.691
261.701
258.765
255.885
253.058
250.287
247.571
244.909
242.303
239.751
237.254
234.813
232.425
230.093
227.815
225.591
223.421
221.304
219.241
217.232
215.275
213.371
211.519
209.719
207.971
206.273
204.627
203.03
201.484
199.987
198.539
197.14
195.789
194.485
193.229
192.02
190.857
189.74
188.668
187.642
186.66
185.722
184.828
183.977
183.169
182.404
181.68
180.999
180.359
179.759
179.201
178.683
178.205
177.767
177.369
177.009
176.689
176.408
176.166
175.962
175.797
175.67
175.581
175.53
175.517
397.83
393.486
389.149
384.819
380.498
376.189
371.895
367.619
363.363
359.129
354.92
350.737
346.584
342.462
338.373