/*--------------------------------*- C++ -*----------------------------------*\
  =========                 |
  \\      /  F ield         | OpenFOAM: The Open Source CFD Toolbox
   \\    /   O peration     | Website:  https://openfoam.org
    \\  /    A nd           | Version:  10
     \\/     M anipulation  |
\*---------------------------------------------------------------------------*/
FoamFile
{
    format      ascii;
    class       volScalarField;
    location    "20";
    object      T_0;
}
// * * * * * * * * * * * * * * * * * * * * * * * * * * * * * * * * * * * * * //

dimensions      [0 0 0 1 0 0 0];

internalField   nonuniform List<scalar> 
10000
(
374.971
361.26
356.56
354.49
353.359
352.638
352.131
351.748
351.444
351.195
350.984
350.801
350.641
350.496
350.366
350.246
350.135
350.032
349.935
349.844
349.757
349.674
349.595
349.52
349.447
349.377
349.309
349.244
349.181
349.119
349.06
349.002
348.946
348.891
348.838
348.786
348.736
348.687
348.639
348.592
348.546
348.502
348.459
348.416
348.375
348.335
348.296
348.258
348.221
348.185
348.15
348.116
348.082
348.05
348.019
347.988
347.958
347.929
347.901
347.874
347.848
347.823
347.798
347.774
347.751
347.729
347.707
347.686
347.666
347.647
347.628
347.611
347.594
347.577
347.561
347.546
347.532
347.519
347.506
347.493
347.482
347.471
347.46
347.45
347.441
347.433
347.425
347.418
347.411
347.405
347.4
347.395
347.391
347.387
347.384
347.381
347.38
347.378
347.378
347.377
388.583
374.77
367.058
362.538
359.672
357.708
356.273
355.169
354.285
353.552
352.929
352.389
351.911
351.482
351.092
350.735
350.404
350.095
349.806
349.532
349.272
349.025
348.789
348.562
348.345
348.135
347.932
347.737
347.547
347.363
347.185
347.011
346.843
346.679
346.519
346.364
346.213
346.065
345.922
345.781
345.645
345.512
345.382
345.255
345.132
345.012
344.895
344.781
344.669
344.561
344.456
344.353
344.253
344.156
344.062
343.97
343.881
343.795
343.711
343.629
343.551
343.474
343.4
343.328
343.259
343.192
343.128
343.066
343.005
342.948
342.892
342.839
342.787
342.738
342.691
342.646
342.603
342.562
342.523
342.486
342.452
342.419
342.387
342.358
342.331
342.306
342.282
342.26
342.24
342.222
342.206
342.191
342.179
342.168
342.159
342.151
342.145
342.142
342.139
342.139
393.18
382.175
374.36
368.931
365.079
362.247
360.084
358.371
356.972
355.798
354.792
353.912
353.131
352.427
351.787
351.197
350.651
350.14
349.66
349.207
348.776
348.366
347.973
347.597
347.235
346.886
346.55
346.224
345.909
345.603
345.306
345.017
344.737
344.464
344.198
343.94
343.688
343.442
343.203
342.969
342.742
342.52
342.304
342.093
341.888
341.688
341.492
341.302
341.117
340.937
340.761
340.59
340.424
340.262
340.105
339.953
339.804
339.66
339.52
339.385
339.253
339.126
339.003
338.883
338.768
338.657
338.549
338.445
338.345
338.249
338.156
338.067
337.982
337.9
337.822
337.747
337.675
337.607
337.542
337.481
337.422
337.367
337.316
337.267
337.221
337.179
337.14
337.104
337.07
337.04
337.013
336.989
336.968
336.95
336.934
336.922
336.912
336.906
336.902
336.901
395.148
386.388
379.278
373.747
369.469
366.12
363.445
361.26
359.435
357.88
356.53
355.34
354.276
353.313
352.433
351.62
350.865
350.158
349.492
348.863
348.264
347.693
347.147
346.622
346.118
345.631
345.161
344.707
344.266
343.839
343.425
343.022
342.63
342.248
341.877
341.515
341.163
340.82
340.485
340.159
339.841
339.531
339.228
338.934
338.646
338.366
338.093
337.827
337.568
337.316
337.07
336.831
336.599
336.373
336.153
335.939
335.731
335.53
335.334
335.145
334.961
334.783
334.61
334.443
334.282
334.126
333.975
333.83
333.69
333.555
333.426
333.301
333.182
333.067
332.957
332.852
332.752
332.657
332.566
332.48
332.399
332.322
332.249
332.181
332.118
332.058
332.003
331.953
331.906
331.864
331.826
331.792
331.763
331.737
331.716
331.698
331.685
331.676
331.671
331.67
396.177
388.948
382.619
377.31
372.931
369.32
366.319
363.791
361.632
359.759
358.112
356.646
355.324
354.121
353.015
351.991
351.036
350.14
349.294
348.493
347.731
347.002
346.305
345.634
344.989
344.367
343.765
343.183
342.619
342.072
341.54
341.023
340.521
340.032
339.555
339.091
338.639
338.198
337.769
337.35
336.942
336.544
336.155
335.777
335.408
335.048
334.698
334.356
334.024
333.7
333.384
333.077
332.778
332.488
332.205
331.931
331.664
331.405
331.154
330.91
330.674
330.445
330.224
330.009
329.802
329.602
329.408
329.222
329.042
328.869
328.702
328.542
328.389
328.241
328.1
327.966
327.837
327.715
327.598
327.487
327.383
327.284
327.191
327.103
327.021
326.945
326.875
326.81
326.75
326.696
326.647
326.604
326.565
326.533
326.505
326.483
326.466
326.454
326.447
326.446
396.796
390.606
384.942
379.946
375.625
371.913
368.721
365.957
363.544
361.416
359.519
357.811
356.259
354.836
353.521
352.299
351.155
350.078
349.059
348.092
347.17
346.289
345.443
344.63
343.847
343.091
342.36
341.652
340.965
340.299
339.651
339.022
338.409
337.813
337.233
336.667
336.116
335.578
335.054
334.544
334.045
333.56
333.086
332.624
332.174
331.735
331.307
330.89
330.484
330.089
329.704
329.329
328.964
328.61
328.265
327.93
327.604
327.288
326.981
326.684
326.395
326.116
325.845
325.584
325.33
325.086
324.85
324.622
324.402
324.191
323.988
323.792
323.605
323.425
323.253
323.088
322.931
322.781
322.639
322.504
322.376
322.255
322.142
322.035
321.935
321.842
321.756
321.676
321.604
321.537
321.478
321.425
321.378
321.338
321.304
321.277
321.257
321.242
321.234
321.232
397.202
391.735
386.597
381.91
377.713
373.99
370.696
367.777
365.177
362.846
360.741
358.825
357.07
355.449
353.943
352.536
351.214
349.965
348.782
347.655
346.579
345.549
344.56
343.607
342.689
341.801
340.942
340.11
339.303
338.519
337.758
337.017
336.296
335.593
334.909
334.243
333.593
332.96
332.342
331.74
331.152
330.58
330.021
329.476
328.945
328.427
327.923
327.431
326.952
326.485
326.031
325.588
325.158
324.74
324.333
323.937
323.553
323.18
322.818
322.467
322.126
321.796
321.477
321.168
320.869
320.58
320.302
320.033
319.773
319.524
319.284
319.053
318.832
318.619
318.416
318.222
318.037
317.86
317.692
317.532
317.381
317.239
317.105
316.979
316.861
316.751
316.649
316.555
316.469
316.391
316.321
316.258
316.203
316.156
316.116
316.084
316.059
316.042
316.033
316.031
397.483
392.535
387.803
383.386
379.329
375.64
372.301
369.282
366.545
364.056
361.779
359.687
357.753
355.954
354.274
352.696
351.208
349.798
348.457
347.178
345.954
344.78
343.651
342.563
341.512
340.496
339.512
338.559
337.633
336.733
335.858
335.007
334.179
333.372
332.586
331.819
331.072
330.343
329.633
328.94
328.264
327.604
326.961
326.334
325.722
325.126
324.545
323.979
323.427
322.889
322.366
321.857
321.361
320.879
320.41
319.954
319.512
319.082
318.665
318.26
317.868
317.488
317.12
316.764
316.42
316.087
315.766
315.456
315.157
314.87
314.593
314.327
314.072
313.827
313.593
313.369
313.155
312.952
312.758
312.575
312.401
312.236
312.081
311.936
311.8
311.674
311.556
311.448
311.349
311.259
311.178
311.106
311.042
310.988
310.942
310.905
310.877
310.857
310.846
310.844
397.686
393.117
388.697
384.504
380.58
376.944
373.591
370.508
367.672
365.058
362.641
360.398
358.307
356.351
354.512
352.777
351.134
349.572
348.082
346.658
345.292
343.979
342.715
341.495
340.316
339.175
338.068
336.995
335.952
334.939
333.953
332.994
332.059
331.149
330.261
329.396
328.552
327.729
326.926
326.143
325.379
324.634
323.907
323.198
322.507
321.833
321.176
320.535
319.911
319.303
318.711
318.135
317.575
317.029
316.499
315.983
315.483
314.996
314.524
314.067
313.623
313.193
312.776
312.373
311.984
311.607
311.244
310.893
310.555
310.23
309.917
309.616
309.327
309.05
308.785
308.532
308.29
308.059
307.84
307.632
307.435
307.249
307.074
306.91
306.756
306.613
306.48
306.358
306.245
306.143
306.052
305.97
305.898
305.837
305.785
305.743
305.711
305.689
305.676
305.674
397.834
393.547
389.367
385.355
381.548
377.967
374.617
371.494
368.583
365.87
363.337
360.965
358.737
356.64
354.657
352.778
350.99
349.286
347.655
346.093
344.591
343.145
341.75
340.403
339.099
337.835
336.609
335.419
334.262
333.137
332.042
330.976
329.937
328.924
327.936
326.974
326.034
325.118
324.224
323.352
322.501
321.67
320.86
320.07
319.3
318.548
317.816
317.102
316.406
315.728
315.068
314.425
313.8
313.192
312.6
312.025
311.467
310.924
310.398
309.887
309.392
308.912
308.448
307.998
307.564
307.144
306.738
306.347
305.97
305.606
305.257
304.921
304.599
304.29
303.994
303.712
303.442
303.185
302.94
302.708
302.488
302.281
302.085
301.902
301.73
301.57
301.422
301.285
301.16
301.046
300.944
300.853
300.773
300.704
300.646
300.599
300.564
300.539
300.525
300.522
397.945
393.869
389.873
386.003
382.293
378.763
375.423
372.272
369.304
366.511
363.879
361.396
359.048
356.824
354.711
352.698
350.777
348.939
347.176
345.482
343.85
342.277
340.756
339.285
337.86
336.477
335.135
333.83
332.562
331.327
330.124
328.953
327.811
326.698
325.612
324.552
323.519
322.51
321.526
320.565
319.628
318.714
317.821
316.951
316.101
315.273
314.466
313.679
312.912
312.165
311.437
310.729
310.039
309.368
308.716
308.082
307.466
306.868
306.287
305.724
305.178
304.648
304.136
303.64
303.161
302.697
302.25
301.818
301.402
301.001
300.616
300.246
299.89
299.549
299.223
298.911
298.613
298.33
298.06
297.804
297.561
297.332
297.116
296.914
296.725
296.548
296.385
296.234
296.096
295.97
295.857
295.756
295.668
295.592
295.528
295.477
295.437
295.41
295.395
295.391
398.028
394.11
390.253
386.495
382.863
379.376
376.044
372.873
369.859
366.998
364.282
361.702
359.247
356.909
354.676
352.542
350.496
348.533
346.644
344.825
343.07
341.374
339.732
338.141
336.599
335.1
333.645
332.229
330.85
329.508
328.2
326.926
325.683
324.47
323.287
322.133
321.006
319.906
318.833
317.785
316.763
315.765
314.791
313.841
312.914
312.009
311.128
310.268
309.431
308.615
307.82
307.046
306.293
305.56
304.847
304.155
303.481
302.828
302.193
301.578
300.981
300.403
299.843
299.301
298.777
298.27
297.781
297.309
296.855
296.417
295.995
295.591
295.202
294.829
294.473
294.132
293.806
293.496
293.201
292.921
292.656
292.406
292.17
291.948
291.741
291.549
291.37
291.205
291.054
290.917
290.793
290.683
290.586
290.503
290.433
290.377
290.334
290.304
290.287
290.284
398.089
394.29
390.538
386.864
383.292
379.838
376.513
373.323
370.27
367.35
364.561
361.894
359.343
356.9
354.559
352.311
350.149
348.068
346.061
344.123
342.25
340.436
338.678
336.972
335.315
333.705
332.139
330.614
329.129
327.681
326.27
324.894
323.552
322.242
320.963
319.715
318.497
317.307
316.146
315.012
313.905
312.824
311.77
310.741
309.737
308.758
307.802
306.871
305.964
305.079
304.218
303.379
302.563
301.768
300.996
300.245
299.515
298.806
298.118
297.451
296.804
296.177
295.57
294.982
294.413
293.864
293.334
292.822
292.329
291.854
291.397
290.958
290.536
290.132
289.745
289.375
289.022
288.686
288.366
288.062
287.775
287.503
287.247
287.007
286.783
286.573
286.379
286.201
286.037
285.888
285.754
285.634
285.529
285.439
285.364
285.302
285.255
285.223
285.205
285.201
398.134
394.423
390.748
387.136
383.607
380.176
376.853
373.645
370.556
367.583
364.727
361.982
359.343
356.805
354.363
352.009
349.739
347.547
345.428
343.378
341.391
339.464
337.594
335.777
334.01
332.291
330.617
328.986
327.397
325.847
324.335
322.859
321.419
320.013
318.641
317.3
315.992
314.713
313.465
312.246
311.056
309.894
308.76
307.653
306.573
305.519
304.491
303.489
302.512
301.56
300.632
299.729
298.85
297.995
297.163
296.354
295.568
294.805
294.064
293.345
292.648
291.972
291.318
290.685
290.073
289.481
288.91
288.358
287.827
287.315
286.823
286.35
285.895
285.46
285.043
284.644
284.264
283.901
283.557
283.229
282.92
282.627
282.351
282.092
281.85
281.625
281.416
281.223
281.046
280.886
280.741
280.613
280.5
280.402
280.321
280.255
280.204
280.169
280.15
280.145
398.167
394.518
390.898
387.33
383.83
380.412
377.086
373.858
370.733
367.712
364.794
361.977
359.257
356.631
354.094
351.642
349.27
346.973
344.748
342.589
340.495
338.46
336.482
334.557
332.684
330.859
329.08
327.346
325.655
324.005
322.394
320.821
319.285
317.785
316.32
314.889
313.491
312.126
310.792
309.489
308.217
306.974
305.761
304.577
303.422
302.294
301.194
300.122
299.076
298.057
297.065
296.098
295.157
294.241
293.35
292.484
291.642
290.825
290.031
289.261
288.515
287.791
287.09
286.412
285.756
285.122
284.51
283.92
283.35
282.802
282.274
281.768
281.281
280.814
280.368
279.94
279.533
279.144
278.775
278.424
278.092
277.778
277.483
277.206
276.946
276.705
276.481
276.274
276.085
275.913
275.758
275.62
275.499
275.395
275.307
275.236
275.182
275.145
275.124
275.119
398.189
394.582
391
387.46
383.977
380.564
377.228
373.978
370.818
367.749
364.773
361.888
359.092
356.384
353.758
351.213
348.745
346.349
344.022
341.761
339.563
337.424
335.342
333.313
331.337
329.409
327.529
325.695
323.904
322.156
320.448
318.78
317.15
315.558
314.002
312.482
310.997
309.545
308.127
306.741
305.388
304.066
302.775
301.515
300.285
299.085
297.914
296.772
295.658
294.573
293.516
292.486
291.483
290.508
289.558
288.636
287.739
286.868
286.022
285.201
284.406
283.634
282.888
282.165
281.466
280.79
280.137
279.508
278.901
278.316
277.754
277.213
276.694
276.197
275.721
275.265
274.831
274.416
274.022
273.649
273.294
272.96
272.645
272.349
272.073
271.815
271.576
271.356
271.154
270.97
270.805
270.658
270.529
270.418
270.324
270.249
270.191
270.151
270.129
270.124
398.203
394.622
391.062
387.537
384.061
380.644
377.294
374.019
370.822
367.707
364.674
361.725
358.857
356.07
353.361
350.728
348.168
345.677
343.254
340.895
338.597
336.358
334.176
332.047
329.97
327.944
325.965
324.032
322.145
320.301
318.498
316.737
315.015
313.333
311.688
310.08
308.508
306.972
305.471
304.004
302.571
301.171
299.803
298.468
297.164
295.892
294.651
293.44
292.259
291.109
289.987
288.895
287.832
286.797
285.79
284.811
283.859
282.935
282.038
281.167
280.323
279.504
278.712
277.944
277.202
276.485
275.793
275.124
274.48
273.86
273.263
272.689
272.138
271.61
271.104
270.621
270.159
269.72
269.301
268.904
268.528
268.173
267.839
267.525
267.231
266.958
266.704
266.47
266.256
266.061
265.885
265.729
265.592
265.474
265.375
265.295
265.233
265.191
265.167
265.162
398.21
394.642
391.091
387.571
384.092
380.664
377.295
373.991
370.756
367.594
364.507
361.495
358.559
355.697
352.909
350.191
347.544
344.963
342.447
339.993
337.6
335.265
332.985
330.76
328.586
326.463
324.388
322.36
320.378
318.44
316.546
314.693
312.881
311.11
309.378
307.684
306.027
304.408
302.825
301.278
299.766
298.289
296.845
295.436
294.06
292.717
291.406
290.127
288.881
287.665
286.48
285.326
284.203
283.109
282.045
281.011
280.005
279.028
278.08
277.159
276.267
275.402
274.564
273.753
272.968
272.21
271.478
270.771
270.09
269.434
268.803
268.196
267.613
267.055
266.52
266.009
265.521
265.056
264.613
264.194
263.796
263.42
263.067
262.735
262.424
262.134
261.866
261.619
261.392
261.186
261
260.835
260.69
260.565
260.46
260.375
260.31
260.265
260.24
260.234
398.211
394.646
391.094
387.568
384.079
380.634
377.241
373.905
370.63
367.421
364.28
361.208
358.205
355.271
352.406
349.608
346.876
344.208
341.603
339.059
336.574
334.145
331.772
329.453
327.185
324.968
322.8
320.679
318.605
316.576
314.591
312.649
310.749
308.891
307.072
305.294
303.555
301.854
300.19
298.564
296.975
295.421
293.904
292.421
290.974
289.56
288.181
286.835
285.523
284.243
282.996
281.781
280.598
279.447
278.326
277.237
276.178
275.149
274.15
273.18
272.24
271.329
270.446
269.591
268.765
267.966
267.194
266.45
265.732
265.04
264.375
263.736
263.122
262.533
261.97
261.431
260.917
260.427
259.96
259.518
259.099
258.703
258.33
257.98
257.652
257.347
257.064
256.804
256.565
256.347
256.152
255.977
255.824
255.693
255.582
255.493
255.424
255.377
255.35
255.344
398.208
394.635
391.074
387.536
384.029
380.561
377.139
373.768
370.452
367.196
364
360.868
357.8
354.797
351.857
348.982
346.169
343.418
340.727
338.095
335.52
333.002
330.538
328.128
325.769
323.461
321.202
318.991
316.827
314.708
312.635
310.606
308.62
306.676
304.773
302.912
301.091
299.31
297.567
295.864
294.198
292.57
290.979
289.424
287.906
286.424
284.977
283.565
282.188
280.845
279.536
278.261
277.02
275.811
274.634
273.491
272.379
271.298
270.249
269.231
268.243
267.286
266.359
265.462
264.593
263.754
262.944
262.162
261.408
260.681
259.982
259.311
258.666
258.047
257.455
256.889
256.349
255.834
255.344
254.879
254.438
254.022
253.631
253.263
252.919
252.598
252.301
252.027
251.775
251.547
251.341
251.158
250.997
250.859
250.743
250.649
250.577
250.527
250.499
250.492
398.201
394.613
391.035
387.477
383.947
380.452
376.997
373.588
370.229
366.924
363.675
360.483
357.351
354.28
351.268
348.317
345.426
342.594
339.82
337.104
334.443
331.838
329.286
326.787
324.34
321.943
319.595
317.296
315.044
312.839
310.679
308.564
306.494
304.466
302.482
300.539
298.638
296.777
294.957
293.177
291.437
289.735
288.071
286.446
284.858
283.308
281.795
280.318
278.877
277.472
276.102
274.767
273.468
272.202
270.971
269.773
268.609
267.478
266.379
265.313
264.279
263.276
262.305
261.365
260.456
259.577
258.728
257.909
257.119
256.358
255.626
254.922
254.246
253.598
252.978
252.385
251.819
251.279
250.766
250.278
249.817
249.381
248.97
248.585
248.224
247.888
247.577
247.289
247.026
246.787
246.571
246.379
246.211
246.066
245.944
245.845
245.77
245.717
245.688
245.681
398.19
394.581
390.98
387.397
383.839
380.312
376.821
373.371
369.967
366.612
363.308
360.058
356.864
353.725
350.644
347.619
344.652
341.741
338.887
336.088
333.344
330.654
328.017
325.432
322.898
320.415
317.981
315.596
313.259
310.969
308.725
306.526
304.373
302.264
300.198
298.176
296.196
294.258
292.362
290.507
288.692
286.918
285.183
283.488
281.832
280.215
278.635
277.094
275.59
274.124
272.694
271.301
269.944
268.622
267.337
266.086
264.87
263.689
262.541
261.428
260.347
259.3
258.286
257.304
256.353
255.435
254.548
253.692
252.867
252.071
251.306
250.571
249.865
249.188
248.54
247.92
247.328
246.764
246.227
245.718
245.236
244.78
244.351
243.948
243.571
243.22
242.894
242.594
242.318
242.068
241.843
241.642
241.466
241.314
241.187
241.084
241.005
240.95
240.919
240.912
398.177
394.54
390.911
387.298
383.708
380.145
376.615
373.123
369.672
366.266
362.907
359.599
356.341
353.137
349.987
346.891
343.849
340.862
337.93
335.051
332.225
329.453
326.733
324.065
321.447
318.88
316.362
313.893
311.472
309.099
306.773
304.492
302.258
300.069
297.924
295.823
293.766
291.752
289.781
287.852
285.965
284.12
282.315
280.551
278.828
277.144
275.5
273.896
272.33
270.803
269.314
267.863
266.449
265.073
263.733
262.43
261.164
259.932
258.737
257.576
256.45
255.359
254.302
253.278
252.288
251.33
250.406
249.513
248.653
247.824
247.026
246.26
245.523
244.818
244.142
243.495
242.878
242.29
241.73
241.199
240.696
240.221
239.774
239.353
238.96
238.594
238.254
237.941
237.654
237.393
237.158
236.949
236.765
236.607
236.474
236.366
236.284
236.227
236.194
236.187
398.161
394.493
390.831
387.184
383.557
379.955
376.383
372.846
369.347
365.889
362.475
359.108
355.789
352.52
349.302
346.136
343.022
339.96
336.951
333.995
331.09
328.238
325.437
322.687
319.988
317.338
314.739
312.188
309.686
307.231
304.824
302.464
300.15
297.882
295.66
293.483
291.35
289.261
287.217
285.215
283.257
281.341
279.468
277.637
275.847
274.098
272.391
270.724
269.097
267.51
265.963
264.455
262.986
261.555
260.162
258.808
257.49
256.21
254.967
253.76
252.59
251.455
250.355
249.29
248.26
247.264
246.302
245.374
244.479
243.617
242.787
241.989
241.223
240.489
239.786
239.113
238.471
237.859
237.277
236.724
236.201
235.706
235.241
234.803
234.394
234.013
233.659
233.333
233.035
232.763
232.518
232.3
232.109
231.944
231.806
231.694
231.608
231.549
231.515
231.507
398.144
394.439
390.741
387.056
383.389
379.746
376.13
372.546
368.997
365.486
362.017
358.591
355.211
351.878
348.593
345.358
342.173
339.038
335.955
332.922
329.941
327.01
324.13
321.301
318.522
315.793
313.113
310.482
307.9
305.366
302.881
300.442
298.051
295.706
293.408
291.155
288.948
286.786
284.669
282.597
280.569
278.584
276.643
274.746
272.891
271.078
269.308
267.579
265.892
264.247
262.642
261.078
259.554
258.069
256.624
255.219
253.852
252.524
251.234
249.981
248.766
247.588
246.446
245.341
244.272
243.238
242.24
241.276
240.346
239.451
238.589
237.761
236.966
236.203
235.473
234.775
234.108
233.472
232.868
232.294
231.75
231.237
230.753
230.299
229.874
229.478
229.111
228.772
228.462
228.18
227.925
227.699
227.5
227.329
227.185
227.069
226.98
226.918
226.883
226.875
398.124
394.381
390.643
386.917
383.208
379.52
375.858
372.226
368.626
365.062
361.536
358.052
354.61
351.213
347.863
344.56
341.305
338.099
334.942
331.835
328.779
325.772
322.815
319.908
317.051
314.244
311.486
308.777
306.118
303.506
300.943
298.428
295.961
293.541
291.168
288.842
286.562
284.328
282.141
279.998
277.901
275.849
273.842
271.879
269.96
268.084
266.252
264.463
262.717
261.014
259.352
257.733
256.154
254.617
253.121
251.665
250.25
248.874
247.537
246.24
244.981
243.76
242.578
241.432
240.324
239.253
238.218
237.22
236.256
235.329
234.436
233.577
232.753
231.962
231.205
230.481
229.79
229.131
228.505
227.91
227.346
226.814
226.312
225.841
225.401
224.99
224.61
224.258
223.937
223.644
223.381
223.146
222.94
222.762
222.613
222.492
222.4
222.336
222.299
222.291
398.103
394.318
390.537
386.768
383.015
379.281
375.571
371.888
368.236
364.618
361.036
357.492
353.99
350.53
347.115
343.745
340.421
337.145
333.917
330.737
327.607
324.525
321.494
318.511
315.578
312.694
309.86
307.075
304.339
301.652
299.013
296.423
293.882
291.388
288.942
286.544
284.193
281.889
279.631
277.421
275.256
273.138
271.065
269.038
267.055
265.118
263.226
261.377
259.573
257.812
256.095
254.421
252.79
251.201
249.654
248.148
246.685
245.262
243.879
242.538
241.236
239.973
238.75
237.565
236.419
235.311
234.24
233.207
232.21
231.25
230.326
229.438
228.585
227.767
226.984
226.235
225.519
224.838
224.189
223.573
222.99
222.439
221.92
221.433
220.977
220.552
220.158
219.794
219.461
219.158
218.885
218.642
218.429
218.245
218.091
217.966
217.87
217.803
217.766
217.757
398.081
394.252
390.426
386.611
382.811
379.029
375.27
371.536
367.831
364.157
360.518
356.916
353.353
349.831
346.351
342.915
339.524
336.179
332.881
329.63
326.427
323.273
320.167
317.111
314.103
311.145
308.236
305.377
302.566
299.805
297.093
294.429
291.815
289.249
286.731
284.262
281.841
279.468
277.142
274.864
272.634
270.45
268.313
266.223
264.179
262.181
260.229
258.322
256.46
254.644
252.872
251.144
249.46
247.82
246.223
244.669
243.158
241.689
240.261
238.876
237.531
236.227
234.964
233.741
232.557
231.412
230.306
229.239
228.21
227.218
226.263
225.346
224.465
223.619
222.81
222.036
221.297
220.592
219.922
219.286
218.683
218.114
217.578
217.074
216.603
216.164
215.756
215.381
215.037
214.723
214.441
214.19
213.97
213.78
213.62
213.491
213.392
213.323
213.284
213.274
398.058
394.182
390.31
386.447
382.599
378.768
374.957
371.171
367.412
363.683
359.987
356.326
352.703
349.118
345.575
342.074
338.616
335.203
331.836
328.515
325.242
322.016
318.838
315.709
312.629
309.598
306.616
303.683
300.8
297.966
295.182
292.447
289.761
287.124
284.537
281.998
279.508
277.067
274.675
272.331
270.036
267.788
265.588
263.436
261.331
259.273
257.262
255.298
253.38
251.509
249.683
247.902
246.167
244.476
242.83
241.228
239.67
238.156
236.684
235.255
233.869
232.525
231.222
229.96
228.739
227.559
226.418
225.317
224.255
223.232
222.248
221.301
220.392
219.52
218.685
217.887
217.124
216.397
215.706
215.049
214.427
213.84
213.286
212.767
212.28
211.827
211.407
211.019
210.664
210.341
210.05
209.791
209.563
209.367
209.202
209.069
208.966
208.895
208.855
208.845
398.034
394.11
390.189
386.278
382.379
378.498
374.635
370.796
366.983
363.198
359.445
355.725
352.041
348.395
344.788
341.222
337.699
334.22
330.785
327.395
324.053
320.757
317.509
314.309
311.157
308.055
305.001
301.997
299.042
296.137
293.282
290.477
287.721
285.015
282.359
279.753
277.196
274.688
272.23
269.822
267.462
265.152
262.89
260.677
258.513
256.396
254.328
252.307
250.334
248.408
246.529
244.697
242.911
241.171
239.476
237.827
236.223
234.664
233.149
231.678
230.25
228.866
227.524
226.224
224.967
223.751
222.576
221.442
220.349
219.295
218.28
217.305
216.369
215.471
214.61
213.788
213.002
212.253
211.541
210.864
210.223
209.618
209.048
208.512
208.011
207.544
207.111
206.711
206.345
206.012
205.712
205.445
205.21
205.008
204.838
204.701
204.595
204.521
204.48
204.47
398.009
394.036
390.065
386.104
382.154
378.221
374.306
370.413
366.544
362.703
358.893
355.114
351.37
347.663
343.993
340.364
336.776
333.231
329.729
326.272
322.861
319.497
316.18
312.91
309.689
306.516
303.393
300.319
297.294
294.32
291.395
288.521
285.697
282.923
280.2
277.527
274.904
272.332
269.809
267.337
264.915
262.543
260.221
257.949
255.725
253.551
251.426
249.35
247.323
245.344
243.413
241.529
239.693
237.905
236.163
234.467
232.818
231.215
229.657
228.144
226.676
225.252
223.872
222.535
221.242
219.991
218.782
217.616
216.491
215.407
214.363
213.36
212.396
211.472
210.587
209.74
208.932
208.161
207.428
206.732
206.072
205.449
204.863
204.311
203.795
203.315
202.869
202.458
202.081
201.738
201.429
201.154
200.913
200.705
200.53
200.388
200.279
200.203
200.16
200.15
397.984
393.96
389.938
385.925
381.924
377.938
373.97
370.022
366.099
362.201
358.333
354.496
350.692
346.923
343.192
339.5
335.848
332.238
328.671
325.148
321.67
318.238
314.853
311.515
308.225
304.984
301.792
298.65
295.557
292.515
289.522
286.581
283.69
280.849
278.06
275.322
272.635
269.998
267.413
264.879
262.396
259.963
257.581
255.25
252.97
250.739
248.559
246.428
244.347
242.316
240.333
238.4
236.515
234.679
232.89
231.149
229.455
227.809
226.208
224.654
223.146
221.684
220.266
218.893
217.564
216.279
215.037
213.839
212.683
211.569
210.496
209.465
208.475
207.525
206.616
205.746
204.915
204.123
203.369
202.654
201.976
201.335
200.732
200.166
199.635
199.141
198.683
198.26
197.873
197.52
197.203
196.92
196.672
196.457
196.278
196.132
196.02
195.942
195.898
195.887
397.958
393.883
389.809
385.744
381.69
377.651
373.629
369.626
365.647
361.693
357.767
353.872
350.008
346.18
342.387
338.632
334.917
331.243
327.612
324.023
320.48
316.982
313.53
310.125
306.769
303.461
300.201
296.992
293.832
290.723
287.664
284.656
281.7
278.795
275.941
273.139
270.388
267.689
265.043
262.447
259.904
257.412
254.972
252.584
250.246
247.96
245.726
243.542
241.408
239.326
237.293
235.31
233.377
231.494
229.659
227.873
226.136
224.447
222.805
221.211
219.664
218.163
216.708
215.299
213.935
212.617
211.342
210.112
208.926
207.782
206.682
205.623
204.607
203.632
202.698
201.805
200.952
200.139
199.365
198.631
197.935
197.277
196.658
196.076
195.532
195.024
194.554
194.119
193.722
193.36
193.034
192.743
192.488
192.268
192.083
191.933
191.818
191.738
191.693
191.681
397.932
393.804
389.678
385.56
381.453
377.36
373.284
369.226
365.191
361.181
357.198
353.244
349.321
345.432
341.579
337.763
333.986
330.249
326.553
322.901
319.293
315.729
312.212
308.742
305.32
301.946
298.621
295.346
292.121
288.946
285.822
282.75
279.729
276.76
273.843
270.978
268.166
265.406
262.698
260.044
257.441
254.891
252.394
249.949
247.557
245.216
242.928
240.692
238.507
236.374
234.292
232.261
230.281
228.351
226.471
224.642
222.861
221.13
219.448
217.814
216.228
214.69
213.199
211.754
210.357
209.005
207.698
206.437
205.22
204.048
202.92
201.834
200.792
199.792
198.835
197.919
197.044
196.21
195.417
194.664
193.95
193.276
192.64
192.044
191.485
190.965
190.482
190.037
189.628
189.257
188.923
188.625
188.363
188.137
187.948
187.794
187.676
187.593
187.546
187.535
397.906
393.725
389.546
385.375
381.214
377.067
372.936
368.823
364.733
360.666
356.625
352.613
348.632
344.684
340.77
336.893
333.054
329.255
325.497
321.782
318.11
314.483
310.902
307.367
303.88
300.442
297.053
293.713
290.424
287.185
283.998
280.862
277.778
274.747
271.768
268.842
265.969
263.149
260.382
257.669
255.008
252.402
249.848
247.348
244.902
242.508
240.167
237.879
235.644
233.462
231.331
229.253
227.226
225.251
223.328
221.455
219.632
217.86
216.137
214.465
212.841
211.266
209.739
208.26
206.828
205.444
204.106
202.814
201.568
200.367
199.211
198.1
197.032
196.008
195.027
194.089
193.193
192.339
191.526
190.754
190.023
189.332
188.681
188.069
187.497
186.964
186.469
186.013
185.595
185.214
184.871
184.566
184.297
184.066
183.872
183.714
183.593
183.508
183.46
183.448
397.879
393.645
389.413
385.188
380.974
376.772
372.586
368.419
364.272
360.149
356.051
351.981
347.942
343.935
339.962
336.024
332.125
328.264
324.445
320.667
316.933
313.243
309.599
306.001
302.451
298.95
295.497
292.094
288.742
285.441
282.191
278.993
275.848
272.756
269.716
266.73
263.797
260.919
258.094
255.323
252.607
249.944
247.336
244.782
242.282
239.836
237.444
235.105
232.821
230.59
228.412
226.287
224.215
222.195
220.228
218.313
216.449
214.636
212.875
211.164
209.503
207.891
206.329
204.816
203.352
201.935
200.566
199.245
197.97
196.741
195.558
194.421
193.328
192.28
191.276
190.316
189.399
188.524
187.692
186.902
186.154
185.447
184.78
184.154
183.569
183.023
182.516
182.049
181.621
181.231
180.88
180.567
180.293
180.056
179.857
179.695
179.571
179.484
179.435
179.422
397.852
393.565
389.279
385.001
380.732
376.476
372.236
368.013
363.81
359.631
355.476
351.35
347.252
343.187
339.155
335.158
331.199
327.278
323.397
319.559
315.763
312.012
308.306
304.646
301.034
297.471
293.956
290.491
287.078
283.715
280.404
277.146
273.94
270.788
267.689
264.644
261.653
258.717
255.835
253.008
250.236
247.519
244.857
242.25
239.698
237.201
234.758
232.37
230.037
227.759
225.534
223.364
221.247
219.184
217.174
215.217
213.313
211.461
209.66
207.912
206.214
204.567
202.971
201.424
199.927
198.479
197.08
195.729
194.426
193.169
191.96
190.797
189.68
188.609
187.582
186.6
185.662
184.768
183.917
183.11
182.344
181.621
180.939
180.299
179.7
179.142
178.624
178.146
177.708
177.31
176.95
176.63
176.349
176.107
175.903
175.738
175.611
175.522
175.472
175.459
397.826
393.485
389.145
384.813
380.49
376.18
371.885
367.607
363.349
359.114
354.903
350.719
346.564
342.441
338.351
334.295
330.277
326.297
322.356
318.458
314.602
310.79