/*--------------------------------*- C++ -*----------------------------------*\
  =========                 |
  \\      /  F ield         | OpenFOAM: The Open Source CFD Toolbox
   \\    /   O peration     | Website:  https://openfoam.org
    \\  /    A nd           | Version:  10
     \\/     M anipulation  |
\*---------------------------------------------------------------------------*/
FoamFile
{
    format      ascii;
    class       volScalarField;
    location    "17";
    object      T_0;
}
// * * * * * * * * * * * * * * * * * * * * * * * * * * * * * * * * * * * * * //

dimensions      [0 0 -1 0 0 0 0];

internalField   nonuniform List<scalar> 
100
(
2.75137
8.22854
13.6327
18.9158
24.031
28.933
33.5781
37.9252
41.9357
45.5739
48.8076
51.6081
53.9506
55.8141
57.1823
58.0429
58.3883
58.2155
57.5259
56.3258
54.6257
52.4407
49.7903
46.6979
43.1911
39.3008
35.0618
30.5115
25.6904
20.6413
15.409
10.0399
4.58171
-0.917156
-6.40788
-11.8417
-17.1705
-22.3468
-27.3248
-32.0602
-36.5111
-40.6379
-44.404
-47.7759
-50.7238
-53.2215
-55.2467
-56.7816
-57.8125
-58.3303
-58.3303
-57.8125
-56.7816
-55.2467
-53.2214
-50.7238
-47.7759
-44.4039
-40.6378
-36.511
-32.0602
-27.3247
-22.3467
-17.1704
-11.8417
-6.40781
-0.917078
4.58179
10.04
15.4091
20.6414
25.6905
30.5116
35.0619
39.3009
43.1911
46.698
49.7904
52.4408
54.6258
56.3259
57.526
58.2156
58.3884
58.043
57.1824
55.8142
53.9506
51.6082
48.8077
45.5739
41.9357
37.9252
33.5781
28.933
24.0311
18.9158
13.6327
8.22855
2.75137
)
;

boundaryField
{
    xmin
    {
        type            fixedValue;
        value           uniform 0;
    }
    xmax
    {
        type            fixedValue;
        value           uniform 0;
    }
    frontAndBack
    {
        type            empty;
    }
}


// ************************************************************************* //
