/*--------------------------------*- C++ -*----------------------------------*\
  =========                 |
  \\      /  F ield         | OpenFOAM: The Open Source CFD Toolbox
   \\    /   O peration     | Website:  https://openfoam.org
    \\  /    A nd           | Version:  10
     \\/     M anipulation  |
\*---------------------------------------------------------------------------*/
FoamFile
{
    format      ascii;
    class       volScalarField;
    location    "0.4";
    object      T;
}
// * * * * * * * * * * * * * * * * * * * * * * * * * * * * * * * * * * * * * //

dimensions      [0 0 0 1 0 0 0];

internalField   nonuniform List<scalar> 
100
(
1
1
1
1
1
1
1
1
1
1
1
1
1
1
1
1
1
1
1
1
1
1
1
1
1
1
1
1
0.999999
0.999996
0.999985
0.999943
0.999782
0.999176
0.996917
0.988578
0.960567
0.896995
0.786973
0.628945
0.435672
0.23513
0.0697009
0.00161759
2.05503e-05
2.62418e-07
3.36051e-09
4.30867e-11
5.52251e-13
6.72352e-15
-3.81313e-16
-5.67484e-16
-5.19913e-16
-3.5155e-16
-1.6827e-16
-3.28551e-17
3.76037e-17
5.48948e-17
4.22341e-17
2.1001e-17
4.13647e-18
-4.24988e-18
-5.73642e-18
-3.82921e-18
-1.41813e-18
1.1136e-19
6.10134e-19
4.96045e-19
2.15585e-19
1.33868e-20
-6.09286e-20
-5.40463e-20
-2.36254e-20
-1.46187e-21
6.2304e-21
5.18836e-21
2.0056e-21
-6.13602e-23
-6.29755e-22
-4.31841e-22
-1.25408e-22
3.34626e-23
5.72383e-23
2.94341e-23
4.25575e-24
-4.94961e-24
-4.29137e-24
-1.46377e-24
1.62873e-25
4.64452e-25
2.43723e-25
3.45742e-26
-3.76174e-26
-3.02614e-26
-8.8126e-27
1.90176e-27
3.07808e-27
1.29793e-27
2.86796e-29
-2.38918e-28
)
;

boundaryField
{
    top
    {
        type            zeroGradient;
    }
    bottom
    {
        type            zeroGradient;
    }
    in
    {
        type            fixedValue;
        value           uniform 1;
    }
    out
    {
        type            zeroGradient;
    }
    frontAndBack
    {
        type            empty;
    }
}


// ************************************************************************* //
