/*--------------------------------*- C++ -*----------------------------------*\
  =========                 |
  \\      /  F ield         | OpenFOAM: The Open Source CFD Toolbox
   \\    /   O peration     | Website:  https://openfoam.org
    \\  /    A nd           | Version:  10
     \\/     M anipulation  |
\*---------------------------------------------------------------------------*/
FoamFile
{
    format      ascii;
    class       volScalarField;
    location    "4.6";
    object      T_0;
}
// * * * * * * * * * * * * * * * * * * * * * * * * * * * * * * * * * * * * * //

dimensions      [0 0 -1 0 0 0 0];

internalField   nonuniform List<scalar> 
100
(
-0.0292454
-0.0866995
-0.141082
-0.190467
-0.233104
-0.267484
-0.292388
-0.306934
-0.310606
-0.303275
-0.285201
-0.257023
-0.21974
-0.174672
-0.123417
-0.0677897
-0.00976078
0.0486139
0.105266
0.15819
0.205509
0.245548
0.276889
0.298421
0.30938
0.30938
0.29842
0.276888
0.245548
0.205509
0.158189
0.105266
0.048613
-0.00976173
-0.0677906
-0.123418
-0.174673
-0.219741
-0.257024
-0.285201
-0.303276
-0.310606
-0.306934
-0.292388
-0.267484
-0.233104
-0.190467
-0.141082
-0.0866989
-0.0292447
0.0292454
0.0866996
0.141082
0.190467
0.233105
0.267484
0.292388
0.306934
0.310606
0.303276
0.285201
0.257023
0.21974
0.174673
0.123417
0.06779
0.00976112
-0.0486136
-0.105266
-0.15819
-0.205509
-0.245548
-0.276889
-0.29842
-0.30938
-0.30938
-0.29842
-0.276889
-0.245548
-0.205509
-0.158189
-0.105266
-0.0486133
0.0097614
0.0677903
0.123418
0.174673
0.21974
0.257023
0.285201
0.303275
0.310606
0.306933
0.292388
0.267484
0.233104
0.190466
0.141082
0.0866988
0.0292447
)
;

boundaryField
{
    inlet
    {
        type            cyclic;
    }
    outlet
    {
        type            cyclic;
    }
    bottom
    {
        type            slip;
    }
    top
    {
        type            slip;
    }
    frontAndBack
    {
        type            empty;
    }
}


// ************************************************************************* //
