/*--------------------------------*- C++ -*----------------------------------*\
| =========                 |                                                 |
| \\      /  F ield         | OpenFOAM: The Open Source CFD Toolbox           |
|  \\    /   O peration     | Version:  2406                                  |
|   \\  /    A nd           | Website:  www.openfoam.com                      |
|    \\/     M anipulation  |                                                 |
\*---------------------------------------------------------------------------*/
FoamFile
{
    version     2.0;
    format      ascii;
    arch        "LSB;label=32;scalar=64";
    class       volScalarField;
    location    "43";
    object      p;
}
// * * * * * * * * * * * * * * * * * * * * * * * * * * * * * * * * * * * * * //

dimensions      [0 2 -2 0 0 0 0];

internalField   nonuniform List<scalar> 
1176
(
0.79699976
0.79702263
0.7970463
0.79705396
0.79702243
0.79692774
0.79677051
0.79658434
0.79640514
0.79623798
0.79608336
0.79598776
0.79598776
0.79608337
0.79623799
0.79640514
0.79658433
0.79677049
0.7969277
0.79702237
0.79705388
0.79704619
0.79702252
0.79699964
0.77385133
0.77380437
0.77375661
0.77373971
0.77380222
0.77400457
0.77436989
0.7748343
0.77526516
0.77555126
0.77567065
0.77570492
0.77570492
0.77567066
0.77555127
0.77526517
0.77483432
0.77436992
0.77400461
0.77380226
0.77373977
0.77375667
0.77380443
0.77385139
0.75676657
0.75678859
0.75680838
0.75680647
0.75674741
0.75658623
0.75631447
0.75598652
0.75568031
0.75546751
0.75535671
0.75530789
0.75530789
0.75535671
0.75546752
0.75568031
0.75598651
0.75631446
0.75658622
0.75674739
0.75680645
0.75680836
0.75678856
0.75676655
0.74009468
0.74010381
0.74011586
0.74013227
0.74015481
0.74017238
0.74014015
0.74000673
0.73977462
0.73950206
0.73927785
0.73915736
0.73915736
0.73927786
0.73950207
0.73977463
0.74000674
0.74014015
0.74017238
0.74015481
0.74013226
0.74011586
0.7401038
0.74009467
0.72367563
0.72367959
0.72368458
0.72369064
0.72370034
0.72372062
0.7237568
0.72379831
0.72381998
0.72379611
0.72373399
0.72368136
0.72368136
0.72373399
0.72379611
0.72381998
0.72379831
0.7237568
0.72372061
0.72370034
0.72369063
0.72368457
0.72367958
0.72367562
0.70721398
0.70721639
0.70721964
0.70722368
0.70722859
0.70723542
0.70724959
0.7072809
0.70733089
0.70738814
0.70743085
0.7074475
0.7074475
0.70743085
0.70738814
0.70733089
0.7072809
0.70724959
0.70723542
0.70722858
0.70722367
0.70721963
0.70721638
0.70721397
0.69080817
0.69081031
0.69081312
0.69081654
0.69082044
0.69082395
0.69082602
0.6908282
0.69083675
0.69085398
0.69087187
0.69088359
0.69088359
0.69087187
0.69085398
0.69083675
0.6908282
0.69082602
0.69082395
0.69082043
0.69081654
0.69081311
0.6908103
0.69080816
0.6744283
0.67443006
0.67443239
0.67443531
0.67443898
0.67444335
0.67444781
0.67445096
0.6744522
0.67445381
0.67445086
0.67444835
0.67444835
0.67445086
0.67445382
0.6744522
0.67445096
0.6744478
0.67444335
0.67443898
0.6744353
0.67443238
0.67443005
0.6744283
0.65807402
0.65807547
0.6580774
0.65807981
0.65808283
0.65808662
0.65809166
0.65809871
0.65810739
0.65811742
0.65812519
0.65812877
0.65812878
0.65812519
0.65811742
0.6581074
0.65809871
0.65809166
0.65808661
0.65808283
0.65807981
0.6580774
0.65807547
0.65807401
0.64173633
0.64173753
0.64173914
0.64174117
0.64174374
0.64174692
0.64175108
0.64175747
0.64176763
0.64178076
0.64179509
0.64180439
0.64180439
0.64179509
0.64178076
0.64176763
0.64175747
0.64175108
0.64174691
0.64174373
0.64174117
0.64173913
0.64173752
0.64173632
0.62541195
0.62541298
0.62541435
0.6254161
0.62541831
0.62542103
0.62542443
0.62542928
0.62543714
0.6254478
0.62546036
0.6254695
0.6254695
0.62546036
0.6254478
0.62543714
0.62542928
0.62542443
0.62542103
0.6254183
0.62541609
0.62541434
0.62541297
0.62541194
0.60909847
0.60909937
0.60910056
0.60910209
0.60910403
0.60910643
0.60910939
0.6091134
0.60911962
0.60912828
0.60913884
0.60914629
0.60914629
0.60913884
0.60912828
0.60911962
0.6091134
0.60910939
0.60910643
0.60910402
0.60910208
0.60910055
0.60909936
0.60909846
0.59279428
0.59279507
0.59279612
0.59279747
0.59279919
0.59280132
0.59280396
0.59280749
0.5928129
0.59282064
0.59283033
0.59283701
0.59283701
0.59283034
0.59282065
0.5928129
0.5928075
0.59280396
0.59280132
0.59279918
0.59279746
0.59279611
0.59279505
0.59279427
0.57649806
0.57649876
0.5764997
0.5765009
0.57650244
0.57650434
0.57650669
0.57650983
0.5765146
0.57652157
0.57653024
0.57653633
0.57653633
0.57653024
0.57652158
0.57651461
0.57650983
0.57650669
0.57650434
0.57650243
0.57650089
0.57649969
0.57649874
0.57649804
0.56020879
0.56020942
0.56021026
0.56021134
0.56021273
0.56021444
0.56021655
0.56021931
0.56022347
0.5602296
0.56023712
0.56024253
0.56024253
0.56023713
0.5602296
0.56022347
0.56021931
0.56021655
0.56021444
0.56021272
0.56021133
0.56021025
0.5602094
0.56020877
0.54392567
0.54392624
0.543927
0.54392798
0.54392923
0.54393079
0.54393268
0.54393514
0.54393877
0.54394415
0.54395069
0.54395548
0.54395548
0.54395069
0.54394416
0.54393878
0.54393514
0.54393268
0.54393078
0.54392922
0.54392797
0.54392698
0.54392622
0.54392565
0.52764804
0.52764856
0.52764925
0.52765015
0.52765129
0.52765271
0.52765443
0.52765663
0.52765985
0.52766461
0.52767034
0.52767463
0.52767463
0.52767034
0.52766462
0.52765986
0.52765664
0.52765443
0.5276527
0.52765128
0.52765013
0.52764924
0.52764854
0.52764802
0.51137536
0.51137584
0.51137647
0.51137729
0.51137833
0.51137963
0.5113812
0.51138319
0.51138607
0.51139032
0.51139537
0.51139923
0.51139923
0.51139537
0.51139032
0.51138608
0.5113832
0.5113812
0.51137963
0.51137832
0.51137727
0.51137645
0.51137582
0.51137534
0.49510717
0.4951076
0.49510819
0.49510894
0.4951099
0.49511109
0.49511253
0.49511434
0.49511691
0.49512072
0.49512522
0.4951287
0.49512871
0.49512522
0.49512073
0.49511692
0.49511434
0.49511253
0.49511108
0.49510988
0.49510892
0.49510817
0.49510758
0.49510715
0.47884306
0.47884346
0.478844
0.47884469
0.47884558
0.47884668
0.478848
0.47884965
0.47885197
0.47885539
0.47885943
0.47886258
0.47886259
0.47885943
0.4788554
0.47885198
0.47884965
0.478848
0.47884667
0.47884556
0.47884467
0.47884397
0.47884343
0.47884303
0.46258269
0.46258306
0.46258355
0.46258419
0.46258502
0.46258603
0.46258726
0.46258877
0.46259087
0.46259397
0.46259761
0.46260048
0.46260048
0.46259762
0.46259398
0.46259088
0.46258877
0.46258725
0.46258602
0.462585
0.46258417
0.46258353
0.46258303
0.46258266
0.44632575
0.4463261
0.44632656
0.44632715
0.44632791
0.44632886
0.44632999
0.44633138
0.44633329
0.44633611
0.44633942
0.44634204
0.44634204
0.44633943
0.44633612
0.4463333
0.44633138
0.44632999
0.44632885
0.44632789
0.44632713
0.44632653
0.44632607
0.44632572
0.43007199
0.43007231
0.43007274
0.43007329
0.430074
0.43007487
0.43007592
0.43007721
0.43007896
0.43008153
0.43008456
0.43008695
0.43008695
0.43008457
0.43008154
0.43007897
0.43007721
0.43007592
0.43007486
0.43007398
0.43007326
0.43007271
0.43007228
0.43007196
0.41382115
0.41382145
0.41382185
0.41382236
0.41382302
0.41382384
0.41382482
0.41382601
0.41382761
0.41382997
0.41383275
0.41383494
0.41383494
0.41383276
0.41382998
0.41382763
0.41382602
0.41382482
0.41382383
0.413823
0.41382233
0.41382182
0.41382142
0.41382112
0.39757304
0.39757331
0.39757369
0.39757416
0.39757478
0.39757554
0.39757646
0.39757756
0.39757904
0.3975812
0.39758377
0.39758578
0.39758578
0.39758378
0.39758121
0.39757905
0.39757757
0.39757646
0.39757553
0.39757476
0.39757413
0.39757365
0.39757328
0.397573
0.38132744
0.3813277
0.38132805
0.3813285
0.38132907
0.38132979
0.38133064
0.38133167
0.38133303
0.38133503
0.3813374
0.38133925
0.38133926
0.38133741
0.38133504
0.38133305
0.38133168
0.38133064
0.38132977
0.38132905
0.38132846
0.38132801
0.38132766
0.3813274
0.3650842
0.36508444
0.36508477
0.36508519
0.36508573
0.3650864
0.36508719
0.36508815
0.36508941
0.36509126
0.36509346
0.36509517
0.36509517
0.36509347
0.36509127
0.36508943
0.36508816
0.36508719
0.36508638
0.3650857
0.36508515
0.36508473
0.3650844
0.36508416
0.34884315
0.34884338
0.34884368
0.34884407
0.34884458
0.34884521
0.34884595
0.34884685
0.34884802
0.34884973
0.34885178
0.34885336
0.34885336
0.34885179
0.34884974
0.34884804
0.34884686
0.34884595
0.34884519
0.34884455
0.34884403
0.34884364
0.34884333
0.3488431
0.33260415
0.33260436
0.33260464
0.33260501
0.33260549
0.33260608
0.33260677
0.33260761
0.3326087
0.33261029
0.3326122
0.33261367
0.33261367
0.33261221
0.3326103
0.33260872
0.33260762
0.33260677
0.33260606
0.33260545
0.33260497
0.3326046
0.33260431
0.33260409
0.31636706
0.31636726
0.31636752
0.31636787
0.31636832
0.31636887
0.31636952
0.31637031
0.31637133
0.3163728
0.31637458
0.31637595
0.31637595
0.31637459
0.31637282
0.31637135
0.31637032
0.31636952
0.31636885
0.31636828
0.31636782
0.31636747
0.3163672
0.316367
0.30013176
0.30013195
0.3001322
0.30013252
0.30013294
0.30013346
0.30013408
0.30013481
0.30013576
0.30013714
0.30013881
0.30014007
0.30014008
0.30013882
0.30013716
0.30013579
0.30013483
0.30013407
0.30013344
0.3001329
0.30013247
0.30013214
0.30013189
0.3001317
0.28389814
0.28389832
0.28389856
0.28389886
0.28389926
0.28389974
0.28390032
0.28390101
0.2839019
0.28390318
0.28390474
0.28390593
0.28390593
0.28390476
0.2839032
0.28390193
0.28390103
0.28390032
0.28389972
0.28389921
0.2838988
0.28389849
0.28389825
0.28389807
0.2676661
0.26766627
0.26766649
0.26766678
0.26766715
0.26766761
0.26766816
0.2676688
0.26766964
0.26767083
0.2676723
0.2676734
0.26767341
0.26767231
0.26767085
0.26766966
0.26766882
0.26766815
0.26766758
0.2676671
0.26766672
0.26766642
0.2676662
0.26766603
0.25143554
0.2514357
0.25143591
0.25143618
0.25143653
0.25143696
0.25143748
0.25143809
0.25143887
0.25143998
0.25144136
0.25144239
0.25144239
0.25144137
0.25144001
0.25143889
0.2514381
0.25143747
0.25143693
0.25143648
0.25143612
0.25143584
0.25143562
0.25143547
0.23520638
0.23520653
0.23520672
0.23520698
0.23520731
0.23520772
0.2352082
0.23520877
0.23520951
0.23521055
0.23521184
0.23521281
0.23521282
0.23521186
0.23521058
0.23520953
0.23520879
0.23520819
0.23520768
0.23520725
0.23520691
0.23520665
0.23520644
0.2352063
0.21897852
0.21897866
0.21897885
0.21897909
0.2189794
0.21897978
0.21898024
0.21898078
0.21898147
0.21898245
0.21898366
0.21898456
0.21898457
0.21898367
0.21898247
0.2189815
0.2189808
0.21898023
0.21897975
0.21897934
0.21897901
0.21897877
0.21897858
0.21897844
0.2027519
0.20275203
0.20275221
0.20275243
0.20275273
0.20275309
0.20275352
0.20275403
0.20275467
0.20275559
0.20275674
0.20275759
0.20275759
0.20275675
0.20275562
0.2027547
0.20275404
0.20275351
0.20275305
0.20275266
0.20275235
0.20275212
0.20275194
0.20275181
0.18652644
0.18652656
0.18652673
0.18652694
0.18652722
0.18652756
0.18652797
0.18652845
0.18652905
0.18652991
0.18653098
0.18653178
0.18653178
0.186531
0.18652994
0.18652908
0.18652846
0.18652796
0.18652752
0.18652715
0.18652686
0.18652664
0.18652647
0.18652634
0.17030207
0.17030219
0.17030234
0.17030254
0.17030281
0.17030313
0.17030351
0.17030396
0.17030454
0.17030535
0.17030636
0.17030711
0.17030711
0.17030637
0.17030537
0.17030457
0.17030398
0.1703035
0.17030309
0.17030274
0.17030246
0.17030225
0.17030209
0.17030197
0.15407874
0.15407885
0.154079
0.15407919
0.15407943
0.15407974
0.1540801
0.15408053
0.15408107
0.15408182
0.15408276
0.15408345
0.15408346
0.15408277
0.15408185
0.15408109
0.15408054
0.15408009
0.1540797
0.15407937
0.15407911
0.15407891
0.15407876
0.15407864
0.13785637
0.13785648
0.13785662
0.1378568
0.13785703
0.13785732
0.13785766
0.13785806
0.13785857
0.13785928
0.13786017
0.13786083
0.13786083
0.13786018
0.13785931
0.1378586
0.13785808
0.13785765
0.13785728
0.13785697
0.13785672
0.13785653
0.13785639
0.13785628
0.12163494
0.12163504
0.12163517
0.12163535
0.12163557
0.12163584
0.12163616
0.12163654
0.12163701
0.12163766
0.12163848
0.12163907
0.12163908
0.12163849
0.12163769
0.12163704
0.12163655
0.12163615
0.1216358
0.1216355
0.12163527
0.12163509
0.12163495
0.12163485
0.10541436
0.10541445
0.10541458
0.10541474
0.10541495
0.10541521
0.10541551
0.10541587
0.10541631
0.10541692
0.10541768
0.10541824
0.10541824
0.10541769
0.10541694
0.10541633
0.10541588
0.1054155
0.10541517
0.10541489
0.10541467
0.1054145
0.10541437
0.10541428
0.089194645
0.089194733
0.089194852
0.089195005
0.089195203
0.089195447
0.089195735
0.089196066
0.089196469
0.089197008
0.089197658
0.089198122
0.089198125
0.089197669
0.089197029
0.089196493
0.089196079
0.089195725
0.089195413
0.089195148
0.089194938
0.08919478
0.089194658
0.089194568
0.072975639
0.072975721
0.072975833
0.072975978
0.072976167
0.072976401
0.072976678
0.072976993
0.07297737
0.072977864
0.072978444
0.072978839
0.072978841
0.072978454
0.072977883
0.072977392
0.072977005
0.07297667
0.072976371
0.072976119
0.07297592
0.07297577
0.072975655
0.072975571
0.056757517
0.056757598
0.056757706
0.056757844
0.056758021
0.056758237
0.05675849
0.056758775
0.056759096
0.05675947
0.056759844
0.056760055
0.056760057
0.056759852
0.056759486
0.056759116
0.056758786
0.056758484
0.056758212
0.056757981
0.056757795
0.056757654
0.056757543
0.056757462
0.04053973
0.040539801
0.040539898
0.040540029
0.040540205
0.04054043
0.040540695
0.040540987
0.040541313
0.040541718
0.040542183
0.040542487
0.040542489
0.040542189
0.040541732
0.040541329
0.040540997
0.040540691
0.04054041
0.040540173
0.04053999
0.040539857
0.040539757
0.040539686
0.02432346
0.024323543
0.024323651
0.024323779
0.024323926
0.024324088
0.024324261
0.024324444
0.02432461
0.024324686
0.024324596
0.024324362
0.024324363
0.024324601
0.024324696
0.024324622
0.024324451
0.024324257
0.024324073
0.024323903
0.024323751
0.024323621
0.024323513
0.02432343
0.0081053664
0.0081054367
0.0081055296
0.0081056511
0.0081058122
0.0081060121
0.0081062332
0.0081064725
0.0081068498
0.008107684
0.00810916
0.0081105261
0.0081105266
0.0081091623
0.0081076893
0.0081068562
0.0081064756
0.0081062302
0.0081060031
0.008105799
0.0081056358
0.0081055139
0.0081054209
0.0081053507
)
;

boundaryField
{
    INLET
    {
        type            zeroGradient;
    }
    OUTLET
    {
        type            fixedValue;
        value           uniform 0;
    }
    WALL
    {
        type            zeroGradient;
    }
    frontAndBackPlanes
    {
        type            empty;
    }
}


// ************************************************************************* //
