/*--------------------------------*- C++ -*----------------------------------*\
| =========                 |                                                 |
| \\      /  F ield         | OpenFOAM: The Open Source CFD Toolbox           |
|  \\    /   O peration     | Version:  2406                                  |
|   \\  /    A nd           | Website:  www.openfoam.com                      |
|    \\/     M anipulation  |                                                 |
\*---------------------------------------------------------------------------*/
FoamFile
{
    version     2.0;
    format      ascii;
    arch        "LSB;label=32;scalar=64";
    class       surfaceScalarField;
    location    "43";
    object      phi;
}
// * * * * * * * * * * * * * * * * * * * * * * * * * * * * * * * * * * * * * //

dimensions      [0 3 -1 0 0 0 0];

oriented        oriented;

internalField   nonuniform List<scalar> 
2279
(
2.36175e-08
1.0148926e-05
2.0509767e-07
4.982375e-05
6.9331765e-07
0.00014252872
1.5784716e-06
0.00034353082
2.6788477e-06
0.00075378089
3.3472914e-06
0.0015415573
3.0435202e-06
0.0029497096
2.1516845e-06
0.005249171
1.4318042e-06
0.008582269
9.8959205e-07
0.012685995
5.1266648e-07
0.016666385
-2.1707806e-12
0.01918202
-5.1266922e-07
0.01918202
-9.8958724e-07
0.016666385
-1.4317798e-06
0.012685995
-2.1516254e-06
0.008582269
-3.0434152e-06
0.0052491709
-3.3471516e-06
0.0029497095
-2.6787108e-06
0.0015415572
-1.5783709e-06
0.00075378086
-6.9325993e-07
0.00034353081
-2.0507196e-07
0.00014252872
-2.3609551e-08
4.9823752e-05
1.0148927e-05
-9.5248466e-08
1.0244175e-05
-5.3794007e-07
5.0266441e-05
-1.6230012e-06
0.00014361378
-3.5389524e-06
0.00034544677
-5.9201865e-06
0.00075616213
-7.4055022e-06
0.0015430426
-6.5847267e-06
0.0029488888
-3.9361586e-06
0.0052465224
-1.3883874e-06
0.0085797213
-6.5117469e-08
0.012684671
2.4240633e-07
0.016666078
-7.0917062e-12
0.019182263
-2.4242656e-07
0.019182263
6.5078736e-08
0.016666078
1.3883199e-06
0.012684671
3.9360554e-06
0.0085797213
6.5845912e-06
0.0052465225
7.4053564e-06
0.0029488889
5.9200656e-06
0.0015430427
3.538877e-06
0.00075616216
1.6229656e-06
0.00034544679
5.3792821e-07
0.00014361379
9.5247327e-08
5.0266444e-05
1.0244176e-05
5.0139843e-08
1.0194035e-05
2.63345e-07
5.0053236e-05
7.4910721e-07
0.00014312802
1.5314585e-06
0.00034466442
2.336656e-06
0.00075535693
2.5476626e-06
0.0015428316
1.8390973e-06
0.0029495974
9.7567634e-07
0.0052473858
6.7696053e-07
0.00858002
6.7178945e-07
0.012684677
4.8416882e-07
0.016666266
9.4449536e-12
0.019182747
-4.8414656e-07
0.019182747
-6.717584e-07
0.016666266
-6.7691901e-07
0.012684677
-9.7562198e-07
0.00858002
-1.8390379e-06
0.0052473858
-2.5476119e-06
0.0029495974
-2.3366229e-06
0.0015428316
-1.5314435e-06
0.00075535692
-7.4910333e-07
0.00034466442
-2.6334535e-07
0.00014312802
-5.0141178e-08
5.0053235e-05
1.0194035e-05
1.9586714e-08
1.0174448e-05
1.1184926e-07
4.9960974e-05
3.6128434e-07
0.00014287858
9.0504797e-07
0.00034412066
1.8716604e-06
0.00075439032
3.0948246e-06
0.0015416085
3.8987256e-06
0.0029487935
3.7285569e-06
0.005247556
2.9242119e-06
0.0085808243
1.9733745e-06
0.012685627
1.0127685e-06
0.016667226
-5.5974538e-12
0.01918376
-1.0127828e-06
0.01918376
-1.9733966e-06
0.016667226
-2.9242399e-06
0.012685627
-3.7285815e-06
0.0085808243
-3.8987365e-06
0.005247556
-3.0948206e-06
0.0029487935
-1.8716482e-06
0.0015416085
-9.0503607e-07
0.00075439032
-3.6127702e-07
0.00034412066
-1.1184614e-07
0.00014287858
-1.9585941e-08
4.9960974e-05
1.0174448e-05
8.0839227e-09
1.0166364e-05
4.7141456e-08
4.9921916e-05
1.5494692e-07
0.00014277078
3.9846336e-07
0.00034387714
8.7979529e-07
0.00075390899
1.7015178e-06
0.0015407867
2.7512776e-06
0.0029477437
3.4623646e-06
0.0052468449
3.4708651e-06
0.0085808158
2.8006893e-06
0.012686298
1.5505165e-06
0.016668476
-5.3624791e-13
0.01918531
-1.5505186e-06
0.01918531
-2.8006928e-06
0.016668476
-3.4708667e-06
0.012686298
-3.4623652e-06
0.0085808158
-2.7512776e-06
0.0052468449
-1.7015169e-06
0.0029477437
-8.7979391e-07
0.0015407867
-3.9846186e-07
0.00075390899
-1.5494587e-07
0.00034387714
-4.7141024e-08
0.00014277078
-8.0838708e-09
4.9921916e-05
1.0166365e-05
4.9358674e-09
1.0161429e-05
2.8698863e-08
4.9898153e-05
9.5121516e-08
0.00014270436
2.4921461e-07
0.00034372305
5.6361007e-07
0.00075359459
1.1213763e-06
0.001540229
1.9184597e-06
0.0029469467
2.6588234e-06
0.0052461046
2.8930619e-06
0.0085805816
2.4787692e-06
0.012686712
1.4344281e-06
0.016669521
6.4721125e-13
0.019186745
-1.4344276e-06
0.019186745
-2.4787699e-06
0.016669521
-2.8930618e-06
0.012686712
-2.6588197e-06
0.0085805816
-1.9184527e-06
0.0052461046
-1.1213678e-06
0.0029469467
-5.6360281e-07
0.001540229
-2.4921002e-07
0.00075359459
-9.5119371e-08
0.00034372305
-2.8698214e-08
0.00014270436
-4.9358875e-09
4.9898153e-05
1.0161429e-05
4.4123515e-09
1.0157016e-05
2.5525669e-08
4.987704e-05
8.3830144e-08
0.00014264605
2.1689428e-07
0.00034358999
4.8450153e-07
0.00075332698
9.5636169e-07
0.0015397571
1.6413751e-06
0.0029462616
2.3245842e-06
0.0052454214
2.5939552e-06
0.0085803122
2.2393647e-06
0.012687066
1.3066747e-06
0.016670453
2.3102528e-13
0.019188051
-1.3066751e-06
0.019188051
-2.2393664e-06
0.016670453
-2.593957e-06
0.012687066
-2.3245839e-06
0.0085803122
-1.641372e-06
0.0052454214
-9.5635614e-07
0.0029462616
-4.8449553e-07
0.0015397571
-2.168898e-07
0.00075332698
-8.3827751e-08
0.00034358998
-2.5524804e-08
0.00014264605
-4.4122556e-09
4.987704e-05
1.0157016e-05
3.6255349e-09
1.0153391e-05
2.1036579e-08
4.9859629e-05
6.9438099e-08
0.00014259765
1.8114149e-07
0.00034347828
4.0971447e-07
0.00075309841
8.2390424e-07
0.0015393429
1.4539932e-06
0.0029456316
2.1430766e-06
0.0052447323
2.4674743e-06
0.0085799878
2.1883944e-06
0.012687346
1.2866431e-06
0.016671355
-2.9363694e-13
0.019189338
-1.286644e-06
0.019189338
-2.1883955e-06
0.016671355
-2.467475e-06
0.012687346
-2.1430762e-06
0.0085799878
-1.4539905e-06
0.0052447323
-8.2389943e-07
0.0029456316
-4.0970909e-07
0.0015393429
-1.8113733e-07
0.00075309841
-6.9435806e-08
0.00034347828
-2.1035725e-08
0.00014259765
-3.6254268e-09
4.9859629e-05
1.0153391e-05
2.9831324e-09
1.0150408e-05
1.7346989e-08
4.9845265e-05
5.7377245e-08
0.00014255762
1.5007375e-07
0.00034338559
3.4097103e-07
0.00075290751
6.9193176e-07
0.001538992
1.2441089e-06
0.0029450794
1.9041865e-06
0.0052440722
2.3016013e-06
0.0085795904
2.0975086e-06
0.01268755
1.2520103e-06
0.016672201
-9.6021517e-13
0.01919059
-1.2520123e-06
0.01919059
-2.0975104e-06
0.016672201
-2.3016026e-06
0.01268755
-1.9041867e-06
0.0085795904
-1.2441064e-06
0.0052440722
-6.9192642e-07
0.0029450794
-3.4096488e-07
0.001538992
-1.5006893e-07
0.00075290751
-5.7374566e-08
0.00034338559
-1.7345978e-08
0.00014255762
-2.9829917e-09
4.9845265e-05
1.0150408e-05
2.4654266e-09
1.0147942e-05
1.4363104e-08
4.9833367e-05
4.7626423e-08
0.00014252436
1.2502854e-07
0.00034330818
2.8558868e-07
0.00075274695
5.8417909e-07
0.0015386934
1.0641841e-06
0.0029445994
1.6641578e-06
0.0052434722
2.0898745e-06
0.0085791647
1.9528943e-06
0.012687687
1.1802439e-06
0.016672973
-1.7244474e-12
0.01919177
-1.1802474e-06
0.01919177
-1.9528978e-06
0.016672973
-2.0898778e-06
0.012687687
-1.6641594e-06
0.0085791647
-1.064182e-06
0.0052434722
-5.8417336e-07
0.0029445994
-2.8558168e-07
0.0015386934
-1.2502293e-07
0.00075274695
-4.7623258e-08
0.00034330818
-1.4361893e-08
0.00014252436
-2.465246e-09
4.9833367e-05
1.0147942e-05
2.1024496e-09
1.014584e-05
1.225805e-08
4.9823212e-05
4.0688203e-08
0.00014249593
1.0699003e-07
0.00034324188
2.450781e-07
0.00075260887
5.0385237e-07
0.0015384346
9.2623401e-07
0.002944177
1.4715105e-06
0.005242927
1.8909077e-06
0.0085787453
1.8050217e-06
0.012687772
1.1036887e-06
0.016673675
-2.3407516e-12
0.019192874
-1.1036935e-06
0.019192874
-1.8050271e-06
0.016673675
-1.8909131e-06
0.012687772
-1.4715136e-06
0.0085787453
-9.2623228e-07
0.0052429269
-5.0384606e-07
0.002944177
-2.4507009e-07
0.0015384346
-1.0698354e-07
0.00075260886
-4.0684525e-08
0.00034324188
-1.2256642e-08
0.00014249593
-2.1022406e-09
4.9823212e-05
1.014584e-05
1.8282351e-09
1.0144011e-05
1.0665485e-08
4.9814374e-05
3.543024e-08
0.00014247116
9.3282813e-08
0.00034318403
2.1413871e-07
0.00075248801
4.4192676e-07
0.0015382068
8.1811244e-07
0.0029438008
1.3163794e-06
0.0052424287
1.7244927e-06
0.0085783372
1.6780415e-06
0.012687819
1.0378027e-06
0.016674315
-2.8273109e-12
0.019193912
-1.0378089e-06
0.019193912
-1.6780488e-06
0.016674315
-1.7245001e-06
0.012687819
-1.3163837e-06
0.0085783372
-8.1811078e-07
0.0052424287
-4.4191956e-07
0.0029438008
-2.1412944e-07
0.0015382068
-9.3275293e-08
0.00075248801
-3.5425991e-08
0.00034318403
-1.0663866e-08
0.00014247116
-1.8280016e-09
4.9814375e-05
1.0144011e-05
1.6104914e-09
1.0142401e-05
9.3996617e-09
4.9806585e-05
3.1244367e-08
0.00014244932
8.2340223e-08
0.00034313293
1.8932024e-07
0.00075238103
3.9182221e-07
0.0015380043
7.2924034e-07
0.0029434634
1.1851443e-06
0.0052419728
1.5781739e-06
0.0085779442
1.5623379e-06
0.012687835
9.7669614e-07
0.0166749
-3.1985493e-12
0.019194888
-9.7670331e-07
0.019194888
-1.5623467e-06
0.0166749
-1.5781829e-06
0.012687835
-1.1851494e-06
0.0085779441
-7.2923849e-07
0.0052419728
-3.9181393e-07
0.0029434634
-1.893096e-07
0.0015380043
-8.2331614e-08
0.00075238103
-3.1239523e-08
0.00034313293
-9.3978281e-09
0.00014244932
-1.610235e-09
4.9806586e-05
1.0142401e-05
1.4323205e-09
1.0140969e-05
8.3630307e-09
4.9799655e-05
2.7812607e-08
0.00014242987
7.3352687e-08
0.00034308739
1.6886849e-07
0.00075228551
3.5026744e-07
0.0015378229
6.5458218e-07
0.0029431591
1.0720581e-06
0.0052415553
1.4464322e-06
0.0085775698
1.4548748e-06
0.012687826
9.1880744e-07
0.016675437
-3.4770451e-12
0.019195807
-9.1881543e-07
0.019195807
-1.4548849e-06
0.016675437
-1.4464424e-06
0.012687826
-1.0720638e-06
0.0085775698
-6.5457989e-07
0.0052415553
-3.5025792e-07
0.0029431591
-1.6885639e-07
0.0015378229
-7.3342964e-08
0.00075228551
-2.7807163e-08
0.00034308739
-8.3609825e-09
0.00014242987
-1.4320425e-09
4.9799655e-05
1.0140969e-05
1.2850137e-09
1.0139684e-05
7.5051099e-09
4.9793434e-05
2.4968878e-08
0.0001424124
6.5891113e-08
0.00034304647
1.5183794e-07
0.00075219957
3.154851e-07
0.0015376593
5.9149622e-07
0.0029428831
9.7478634e-07
0.005241172
1.3297038e-06
0.0085772149
1.3567859e-06
0.012687799
8.6525006e-07
0.016675928
-3.684008e-12
0.019196672
-8.6525871e-07
0.019196672
-1.356797e-06
0.016675928
-1.3297149e-06
0.012687799
-9.7479232e-07
0.0085772149
-5.9149334e-07
0.005241172
-3.1547426e-07
0.0029428831
-1.5182436e-07
0.0015376593
-6.5880273e-08
0.00075219956
-2.4962836e-08
0.00034304647
-7.5028482e-09
0.0001424124
-1.284714e-09
4.9793435e-05
1.0139684e-05
1.1615015e-09
1.0138522e-05
6.7852416e-09
4.9787811e-05
2.2580509e-08
0.00014239661
5.9615428e-08
0.00034300944
1.3748107e-07
0.0007521217
2.8604657e-07
0.0015375107
5.3771089e-07
0.0029426314
8.9070578e-07
0.005240819
1.2263972e-06
0.0085768792
1.2674887e-06
0.012687758
8.1592495e-07
0.01667638
-3.8358134e-12
0.019197488
-8.1593412e-07
0.019197488
-1.2675006e-06
0.01667638
-1.226409e-06
0.012687758
-8.9071195e-07
0.0085768792
-5.3770737e-07
0.005240819
-2.860344e-07
0.0029426314
-1.3746601e-07
0.0015375107
-5.9603478e-08
0.0007521217
-2.2573873e-08
0.00034300944
-6.7827669e-09
0.00014239661
-1.1611794e-09
4.9787811e-05
1.0138522e-05
1.056162e-09
1.0137466e-05
6.1710158e-09
4.9782696e-05
2.0541386e-08
0.00014238224
5.4252125e-08
0.00034297572
1.2519071e-07
0.00075205076
2.6076787e-07
0.0015373751
4.9125163e-07
0.0029424009
8.17225e-07
0.005240493
1.1341832e-06
0.0085765622
1.1857899e-06
0.012687707
7.7021317e-07
0.016676795
-3.9503401e-12
0.019198259
-7.7022277e-07
0.019198259
-1.1858025e-06
0.016676795
-1.1341957e-06
0.012687707
-8.1723133e-07
0.0085765622
-4.9124745e-07
0.005240493
-2.6075438e-07
0.0029424009
-1.2517419e-07
0.0015373751
-5.4239068e-08
0.00075205076
-2.0534155e-08
0.00034297572
-6.168326e-09
0.00014238224
-1.055816e-09
4.9782696e-05
1.0137466e-05
9.6516026e-10
1.0136501e-05
5.6401942e-09
4.9778021e-05
1.8778282e-08
0.0001423691
4.9611189e-08
0.00034294489
1.1454147e-07
0.00075198583
2.3881071e-07
0.0015372509
4.5070372e-07
0.002942189
7.524825e-07
0.0052401913
1.0514994e-06
0.0085762632
1.1108309e-06
0.012687647
7.2768711e-07
0.016677178
-4.0448757e-12
0.019198986
-7.2769708e-07
0.019198986
-1.1108442e-06
0.016677178
-1.0515125e-06
0.012687647
-7.5248899e-07
0.0085762632
-4.506989e-07
0.0052401913
-2.387959e-07
0.002942189
-1.1452348e-07
0.0015372508
-4.959701e-08
0.00075198583
-1.8770444e-08
0.00034294489
-5.6372823e-09
0.0001423691
-9.6478807e-10
4.9778021e-05
1.0136501e-05
8.8581666e-10
1.0135615e-05
5.1772131e-09
4.9773729e-05
1.7239816e-08
0.00014235704
4.5558752e-08
0.00034291657
1.052319e-07
0.00075192616
2.1957599e-07
0.0015371365
4.150417e-07
0.0029419936
6.9508858e-07
0.0052399112
9.770936e-07
0.0085759812
1.0418667e-06
0.012687582
6.8800352e-07
0.016677532
-4.1343033e-12
0.019199674
-6.8801386e-07
0.019199674
-1.0418805e-06
0.016677532
-9.7710734e-07
0.012687582
-6.9509528e-07
0.0085759812
-4.1503628e-07
0.0052399112
-2.1955986e-07
0.0029419935
-1.0521239e-07
0.0015371365
-4.5543408e-08
0.00075192616
-1.7231341e-08
0.00034291657
-5.1740662e-09
0.00014235704
-8.854151e-10
4.977373e-05
1.0135615e-05
8.1603461e-10
1.0134799e-05
4.7699095e-09
4.9769776e-05
1.5885864e-08
0.00014234592
4.1990295e-08
0.00034289047
9.7026301e-08
0.00075187112
2.0259283e-07
0.0015370309
3.83448e-07
0.0029418127
6.4389473e-07
0.0052396508
9.0984192e-07
0.0085757152
9.7823515e-07
0.012687514
6.5086474e-07
0.01667786
-4.2384155e-12
0.019200325
-6.5087545e-07
0.019200325
-9.7824968e-07
0.01667786
-9.0985637e-07
0.012687514
-6.4390169e-07
0.0085757152
-3.8344198e-07
0.0052396508
-2.0257532e-07
0.0029418127
-9.7005199e-08
0.0015370309
-4.1973709e-08
0.00075187112
-1.5876704e-08
0.00034289047
-4.7665072e-09
0.00014234592
-8.1559967e-10
4.9769776e-05
1.0134799e-05
7.54163e-10
1.0134045e-05
4.4086948e-09
4.9766121e-05
1.468476e-08
0.00014233564
3.8823203e-08
0.00034286633
8.9737858e-08
0.00075182021
1.8748597e-07
0.0015369332
3.5526417e-07
0.0029416449
5.9795706e-07
0.0052394081
8.4878731e-07
0.0085754644
9.1936584e-07
0.012687443
6.1600891e-07
0.016678163
-4.3753682e-12
0.019200941
-6.1602006e-07
0.019200941
-9.1938111e-07
0.016678163
-8.4880257e-07
0.012687443
-5.9796437e-07
0.0085754644
-3.5525758e-07
0.0052394081
-1.8746701e-07
0.0029416449
-8.9715032e-08
0.0015369332
-3.8805261e-08
0.0007518202
-1.4674847e-08
0.00034286633
-4.4050097e-09
0.00014233565
-7.536899e-10
4.9766121e-05
1.0134045e-05
6.989127e-10
1.0133346e-05
4.0860734e-09
4.9762734e-05
1.3611714e-08
0.00014232612
3.5992646e-08
0.00034284395
8.3219461e-08
0.00075177298
1.7395828e-07
0.0015368425
3.2996368e-07
0.0029414889
5.5650575e-07
0.0052391815
7.9311938e-07
0.0085752278
8.6476727e-07
0.012687372
5.8323001e-07
0.016678444
-4.5656997e-12
0.019201524
-5.8324171e-07
0.019201524
-8.6478343e-07
0.016678444
-7.9313561e-07
0.012687372
-5.5651353e-07
0.0085752278
-3.2995651e-07
0.0052391815
-1.7393776e-07
0.0029414889
-8.3194734e-08
0.0015368424
-3.5973196e-08
0.00075177298
-1.360096e-08
0.00034284395
-4.0820716e-09
0.00014232612
-6.9839619e-10
4.9762734e-05
1.0133346e-05
6.4926751e-10
1.0132697e-05
3.796132e-09
4.9759587e-05
1.2647146e-08
0.00014231727
3.3447354e-08
0.00034282315
7.735452e-08
0.00075172907
1.6177341e-07
0.001536758
3.0712497e-07
0.0029413436
5.189176e-07
0.0052389697
7.4217129e-07
0.0085750045
8.1401292e-07
0.0126873
5.5234095e-07
0.016678706
-4.8297365e-12
0.019202077
-5.5235336e-07
0.019202077
-8.1403014e-07
0.016678706
-7.421887e-07
0.0126873
-5.1892598e-07
0.0085750045
-3.071172e-07
0.0052389697
-1.6175115e-07
0.0029413435
-7.7327671e-08
0.001536758
-3.3426214e-08
0.00075172907
-1.2635447e-08
0.00034282315
-3.7917742e-09
0.00014231727
-6.4870209e-10
4.9759587e-05
1.0132697e-05
6.0441344e-10
1.0132092e-05
3.5341317e-09
4.9756657e-05
1.1775357e-08
0.00014230903
3.114617e-08
0.00034280378
7.2049258e-08
0.00075168817
1.507406e-07
0.0015366793
2.864056e-07
0.0029412079
4.8467946e-07
0.0052387715
6.9537905e-07
0.0085747938
7.6674283e-07
0.012687229
5.2320298e-07
0.01667895
-5.1829703e-12
0.0192026
-5.232163e-07
0.0192026
-7.6676136e-07
0.01667895
-6.9539787e-07
0.012687229
-4.8468859e-07
0.0085747938
-2.863972e-07
0.0052387715
-1.5071641e-07
0.0029412079
-7.2020029e-08
0.0015366793
-3.1123133e-08
0.00075168817
-1.1762599e-08
0.00034280378
-3.5293753e-09
0.00014230903
-6.037937e-10
4.9756658e-05
1.0132092e-05
5.6369195e-10
1.0131528e-05
3.2962372e-09
4.9753925e-05
1.0983636e-08
0.00014230134
2.9055743e-08
0.00034278571
6.7227606e-08
0.00075165
1.407048e-07
0.0015366059
2.6752616e-07
0.0029410811
4.5336986e-07
0.0052385856
6.5227374e-07
0.0085745949
7.226351e-07
0.012687158
4.9567254e-07
0.016679177
-5.6330394e-12
0.019203096
-4.9568698e-07
0.019203096
-7.2265521e-07
0.016679177
-6.5229425e-07
0.012687158
-4.5337987e-07
0.0085745949
-2.6751707e-07
0.0052385856
-1.4067844e-07
0.0029410811
-6.7195712e-08
0.0015366059
-2.9030586e-08
0.00075164999
-1.0969696e-08
0.0003427857
-3.2910382e-09
0.00014230134
-5.6301288e-10
4.9753925e-05
1.0131529e-05
5.2656382e-10
1.0131002e-05
3.079307e-09
4.9751372e-05
1.0261563e-08
0.00014229416
2.7148725e-08
0.00034276882
6.2827089e-08
0.00075161432
1.3153834e-07
0.0015365372
2.5025531e-07
0.0029409624
4.2463523e-07
0.0052384112
6.1245123e-07
0.0085744071
6.8142193e-07
0.012687089
4.6965568e-07
0.016679388
-6.1766503e-12
0.019203565
-4.6967146e-07
0.019203565
-6.8144389e-07
0.016679388
-6.1247368e-07
0.012687089
-4.2464623e-07
0.0085744071
-2.5024543e-07
0.0052384112
-1.3150956e-07
0.0029409623
-6.2792231e-08
0.0015365371
-2.7121221e-08
0.00075161431
-1.0246322e-08
0.00034276882
-3.0736225e-09
0.00014229416
-5.2582108e-10
4.9751372e-05
1.0131002e-05
4.925845e-10
1.0130509e-05
2.8807502e-09
4.9748984e-05
9.6005473e-09
0.00014228744
2.5402548e-08
0.00034275302
5.8796137e-08
0.00075158093
1.2313573e-07
0.0015364728
2.3440161e-07
0.0029408511
3.9818262e-07
0.0052382475
5.7557504e-07
0.0085742297
6.4285117e-07
0.012687022
4.4503106e-07
0.016679586
-6.7985939e-12
0.01920401
-4.4504838e-07
0.01920401
-6.4287523e-07
0.016679586
-5.7559965e-07
0.012687022
-3.981947e-07
0.0085742297
-2.3439082e-07
0.0052382474
-1.2310425e-07
0.0029408511
-5.8758018e-08
0.0015364728
-2.5372478e-08
0.00075158092
-9.5838893e-09
0.00034275302
-2.8745407e-09
0.00014228744
-4.9177465e-10
4.9748984e-05
1.013051e-05
4.6138242e-10
1.0130048e-05
2.6984018e-09
4.9746747e-05
8.9934033e-09
0.00014228114
2.3798328e-08
0.00034273821
5.5091533e-08
0.00075154963
1.1540834e-07
0.0015364125
2.1980331e-07
0.0029407467
3.7376068e-07
0.0052380935
5.4134766e-07
0.0085740621
6.0672261e-07
0.012686957
4.2173919e-07
0.016679771
-7.47181e-12
0.019204432
-4.2175818e-07
0.019204432
-6.0674897e-07
0.016679771
-5.413746e-07
0.012686957
-3.7377386e-07
0.0085740621
-2.1979145e-07
0.0052380935
-1.1537389e-07
0.0029407467
-5.5049873e-08
0.0015364125
-2.3765494e-08
0.00075154963
-8.9752284e-09
0.00034273821
-2.6916335e-09
0.00014228114
-4.605032e-10
4.9746747e-05
1.0130048e-05
4.3264519e-10
1.0129615e-05
2.5304399e-09
4.9744649e-05
8.4340865e-09
0.00014227524
2.2320186e-08
0.00034272432
5.1676961e-08
0.00075152027
1.0828173e-07
0.0015363559
2.0632462e-07
0.0029406487
3.5115935e-07
0.0052379487
5.0952099e-07
0.0085739038
5.7282852e-07
0.012686893
3.9966554e-07
0.016679944
-8.1600972e-12
0.019204832
-3.9968626e-07
0.019204832
-5.7285728e-07
0.016679944
-5.0955033e-07
0.012686893
-3.511736e-07
0.0085739038
-2.0631152e-07
0.0052379486
-1.0824406e-07
0.0029406486
-5.1631514e-08
0.0015363559
-2.2284422e-08
0.00075152027
-8.4143138e-09
0.00034272432
-2.5230871e-09
0.00014227524
-4.3169572e-10
4.974465e-05
1.0129616e-05
4.0610754e-10
1.0129209e-05
2.3753193e-09
4.9742679e-05
7.9174672e-09
0.0001422697
2.0954622e-08
0.00034271129
4.8521457e-08
0.00075149271
1.0169219e-07
0.0015363027
1.9384853e-07
0.0029405565
3.3019406e-07
0.0052378123
4.7986998e-07
0.0085737541
5.4102228e-07
0.012686832
3.7878232e-07
0.016680107
-8.8228177e-12
0.01920521
-3.7880477e-07
0.01920521
-5.4105347e-07
0.016680107
-4.7990172e-07
0.012686832
-3.3020928e-07
0.0085737541
-1.9383401e-07
0.0052378123
-1.0165107e-07
0.0029405565
-4.8472028e-08
0.0015363027
-2.0915805e-08
0.0007514927
-7.8960419e-09
0.00034271129
-2.3673665e-09
0.0001422697
-4.0508854e-10
4.974268e-05
1.0129209e-05
3.8154187e-10
1.0128828e-05
2.2317109e-09
4.9740829e-05
7.4391344e-09
0.00014226449
1.9690054e-08
0.00034269904
4.5598548e-08
0.0007514668
9.5585414e-08
0.0015362527
1.8227561e-07
0.0029404698
3.1070963e-07
0.0052376839
4.5220622e-07
0.0085736126
5.111207e-07
0.012686773
3.5896836e-07
0.016680259
-9.4161945e-12
0.019205569
-3.589924e-07
0.019205569
-5.1115423e-07
0.016680259
-4.5224024e-07
0.012686773
-3.1072565e-07
0.0085736126
-1.8225946e-07
0.0052376839
-9.5540651e-08
0.0029404698
-4.5545005e-08
0.0015362527
-1.9648117e-08
0.00075146679
-7.4160332e-09
0.00034269904
-2.2231547e-09
0.00014226449
-3.8045581e-10
4.974083e-05
1.0128828e-05
3.5875408e-10
1.0128469e-05
2.0984858e-09
4.9739089e-05
6.9953389e-09
0.00014225959
1.8516588e-08
0.00034268751
4.2885455e-08
0.00075144243
8.9914318e-08
0.0015362057
1.7151886e-07
0.0029403882
2.9256709e-07
0.0052375628
4.2635689e-07
0.0085734788
4.8302604e-07
0.012686717
3.4023158e-07
0.016680402
-9.8950121e-12
0.01920591
-3.4025701e-07
0.01920591
-4.830617e-07
0.016680402
-4.26393e-07
0.012686717
-2.9258371e-07
0.0085734788
-1.7150091e-07
0.0052375628
-8.9865791e-08
0.0029403882
-4.2827749e-08
0.0015362057
-1.8471531e-08
0.00075144242
-6.9705771e-09
0.00034268751
-2.0893378e-09
0.00014225959
-3.5760559e-10
4.9739091e-05
1.0128469e-05
3.3757212e-10
1.0128131e-05
1.9746357e-09
4.9737452e-05
6.5827335e-09
0.00014225498
1.742546e-08
0.00034267667
4.0362218e-08
0.00075141949
8.4638022e-08
0.0015361614
1.615032e-07
0.0029403113
2.7564807e-07
0.0052374487
4.0217289e-07
0.0085733523
4.5656105e-07
0.012686662
3.2242943e-07
0.016680536
-1.021939e-11
0.019206232
-3.2245595e-07
0.019206232
-4.5659855e-07
0.016680536
-4.0221079e-07
0.012686662
-2.7566503e-07
0.0085733523
-1.6148326e-07
0.0052374487
-8.4585679e-08
0.0029403113
-4.0300393e-08
0.0015361614
-1.7377361e-08
0.00075141948
-6.5563689e-09
0.00034267667
-1.9649232e-09
0.00014225499
-3.3636795e-10
4.9737454e-05
1.0128132e-05
3.1785313e-10
1.0127813e-05
1.859335e-09
4.9735911e-05
6.1985735e-09
0.00014225064
1.6409378e-08
0.00034266646
3.8011882e-08
0.00075139789
7.972118e-08
0.0015361197
1.5216297e-07
0.0029402389
2.5984707e-07
0.005237341
3.7952359e-07
0.0085732326
4.3168105e-07
0.01268661
3.056165e-07
0.016680662
-1.0356091e-11
0.019206538
-3.0564372e-07
0.019206538
-4.3172e-07
0.016680662
-3.7956289e-07
0.01268661
-2.5986405e-07
0.0085732326
-1.5214089e-07
0.005237341
-7.9665058e-08
0.0029402389
-3.7946094e-08
0.0015361197
-1.6358401e-08
0.00075139788
-6.1707137e-09
0.00034266646
-1.8491041e-09
0.00014225065
-3.1660241e-10
4.9735912e-05
1.0127814e-05
2.9946005e-10
1.0127514e-05
1.751772e-09
4.9734458e-05
5.8401662e-09
0.00014224655
1.5461355e-08
0.00034265684
3.5818727e-08
0.00075137753
7.5131862e-08
0.0015360804
1.4343927e-07
0.0029401706
2.4506926e-07
0.0052372394
3.5828131e-07
0.0085731194
4.0819241e-07
0.01268656
2.8960944e-07
0.01668078
-1.0285248e-11
0.019206827
-2.8963693e-07
0.019206827
-4.0823233e-07
0.01668078
-3.5832154e-07
0.01268656
-2.4508591e-07
0.0085731194
-1.4341494e-07
0.0052372393
-7.5072101e-08
0.0029401705
-3.5749262e-08
0.0015360804
-1.540777e-08
0.00075137752
-5.8109782e-09
0.00034265684
-1.7410915e-09
0.00014224656
-2.9817532e-10
4.973446e-05
1.0127514e-05
2.8229308e-10
1.0127232e-05
1.651383e-09
4.9733089e-05
5.5056318e-09
0.0001422427
1.4576276e-08
0.00034264777
3.3770496e-08
0.00075135833
7.0843913e-08
0.0015360433
1.3528334e-07
0.0029401061
2.312377e-07
0.0052371434
3.3835796e-07
0.0085730123
3.8611966e-07
0.012686512
2.7452962e-07
0.016680892
-9.9935263e-12
0.019207102
-2.745569e-07
0.019207102
-3.8616001e-07
0.016680892
-3.3839857e-07
0.012686512
-2.3125364e-07
0.0085730123
-1.3525668e-07
0.0052371434
-7.0780765e-08
0.0029401061
-3.3697771e-08
0.0015360433
-1.4520455e-08
0.00075135833
-5.475337e-09
0.00034264777
-1.6403402e-09
0.0001422427
-2.8098835e-10
4.9733091e-05
1.0127232e-05
2.6623112e-10
1.0126965e-05
1.5574322e-09
4.9731798e-05
5.1925347e-09
0.00014223906
1.3747972e-08
0.00034263921
3.185378e-08
0.00075134023
6.683079e-08
0.0015360084
1.2764583e-07
0.0029400453
2.1826848e-07
0.0052370528
3.1962559e-07
0.0085729109
3.6522041e-07
0.012686467
2.6012466e-07
0.016680997
-9.4737747e-12
0.019207362
-2.6015123e-07
0.019207362
-3.6526059e-07
0.016680997
-3.1966598e-07
0.012686467
-2.1828329e-07
0.0085729109
-1.2761684e-07
0.0052370528
-6.6764667e-08
0.0029400453
-3.17784e-08
0.0015360083
-1.3690435e-08
0.00075134022
-5.1614394e-09
0.00034263921
-1.5461492e-09
0.00014223907
-2.6492838e-10
4.97318e-05
1.0126966e-05
2.5122423e-10
1.0126714e-05
1.4696727e-09
4.9730579e-05
4.9000348e-09
0.00014223563
1.2973827e-08
0.00034263114
3.0061311e-08
0.00075132314
6.3075472e-08
0.0015359753
1.2049499e-07
0.0029399879
2.0611722e-07
0.0052369672
3.0205452e-07
0.008572815
3.4562341e-07
0.012686423
2.4661649e-07
0.016681096
-8.7447448e-12
0.019207609
-2.4664185e-07
0.019207609
-3.4566275e-07
0.016681096
-3.02094e-07
0.012686423
-2.0613047e-07
0.008572815
-1.2046373e-07
0.0052369671
-6.3006926e-08
0.0029399879
-2.9984041e-08
0.0015359753
-1.2915215e-08
0.00075132313
-4.8685089e-09
0.00034263114
-1.4582935e-09
0.00014223564
-2.4994637e-10
4.9730581e-05
1.0126715e-05
2.3713873e-10
1.0126477e-05
1.3872541e-09
4.9729429e-05
4.6253336e-09
0.0001422324
1.2247083e-08
0.00034262351
2.8379466e-08
0.00075130701
5.9552689e-08
0.0015359442
1.1378326e-07
0.0029399337
1.9469358e-07
0.0052368863
2.8548181e-07
0.0085727242
3.2698599e-07
0.012686382
2.3364127e-07
0.016681189
-7.8244446e-12
0.019207842
-2.3366493e-07
0.019207842
-3.2702383e-07
0.016681189
-2.8551967e-07
0.012686382
-1.9470485e-07
0.0085727242
-1.1374989e-07
0.0052368862
-5.9482466e-08
0.0029399336
-2.830127e-08
0.0015359441
-1.218818e-08
0.000751307
-4.5938201e-09
0.00034262352
-1.3759462e-09
0.0001422324
-2.3590915e-10
4.9729431e-05
1.0126478e-05
2.2401571e-10
1.0126253e-05
1.3105231e-09
4.9728343e-05
4.3695221e-09
0.00014222934
1.156958e-08
0.00034261631
2.6809242e-08
0.00075129177
5.6259312e-08
0.0015359147
1.0750449e-07
0.0029398824
1.8400661e-07
0.0052368098
2.6998138e-07
0.0085726382
3.0960918e-07
0.012686342
2.2157728e-07
0.016681277
-6.7414857e-12
0.019208064
-2.2159882e-07
0.019208064
-3.0964483e-07
0.016681277
-2.7001689e-07
0.012686342
-1.8401552e-07
0.0085726382
-1.0746933e-07
0.0052368097
-5.6188387e-08
0.0029398824
-2.6731331e-08
0.0015359147
-1.151136e-08
0.00075129176
-4.3385701e-09
0.00034261632
-1.2994966e-09
0.00014222934
-2.2286599e-10
4.9728345e-05
1.0126254e-05
2.1163616e-10
1.0126041e-05
1.2380317e-09
4.9727316e-05
4.127884e-09
0.00014222645
1.0930531e-08
0.00034260951
2.5330956e-08
0.00075127736
5.3162721e-08
0.0015358869
1.0159788e-07
0.002939834
1.7392631e-07
0.0052367375
2.5529104e-07
0.0085725569
2.9296678e-07
0.012686304
2.0988656e-07
0.01668136
-5.5364184e-12
0.019208274
-2.0990558e-07
0.019208274
-2.9299959e-07
0.016681361
-2.5532347e-07
0.012686304
-1.7393253e-07
0.0085725569
-1.0156138e-07
0.0052367374
-5.3092216e-08
0.002939834
-2.5254652e-08
0.0015358869
-1.0874018e-08
0.00075127736
-4.09805e-09
0.00034260951
-1.2274871e-09
0.00014222645
-2.1058841e-10
4.9727318e-05
1.0126042e-05
2.0028187e-10
1.0125841e-05
1.1716836e-09
4.9726345e-05
3.9065274e-09
0.00014222371
1.0343146e-08
0.00034260307
2.3965987e-08
0.00075126374
5.0292142e-08
0.0015358606
9.6113684e-08
0.0029397882
1.6457588e-07
0.005236669
2.4169506e-07
0.0085724798
2.7766145e-07
0.012686268
1.991983e-07
0.016681439
-4.2765305e-12
0.019208473
-1.9921457e-07
0.019208473
-2.7769087e-07
0.016681439
-2.417238e-07
0.012686268
-1.6457927e-07
0.0085724797
-9.6076554e-08
0.0052366689
-5.0223543e-08
0.0029397881
-2.3892959e-08
0.0015358605
-1.0289616e-08
0.00075126373
-3.8785066e-09
0.00034260308
-1.1618789e-09
0.00014222371
-1.9937162e-10
4.9726346e-05
1.0125842e-05
1.8935072e-10
1.0125652e-05
1.1075569e-09
4.9725426e-05
3.6928647e-09
0.00014222113
9.7793456e-09
0.00034259699
2.2665636e-08
0.00075125085
4.7574215e-08
0.0015358356
9.0928499e-08
0.0029397448
1.5570222e-07
0.0052366042
2.2870573e-07
0.0085724068
2.628603e-07
0.012686234
1.887188e-07
0.016681513
-2.9989971e-12
0.019208662
-1.887321e-07
0.019208662
-2.6288579e-07
0.016681513
-2.2873019e-07
0.012686234
-1.5570271e-07
0.0085724067
-9.0891495e-08
0.0052366042
-4.7508921e-08
0.0029397448
-2.2597378e-08
0.0015358356
-9.7298937e-09
0.00075125085
-3.6672266e-09
0.00034259699
-1.098687e-09
0.00014222113
-1.8859305e-10
4.9725428e-05
1.0125652e-05
1.7997867e-10
1.0125472e-05
1.0529034e-09
4.9724553e-05
3.5099518e-09
0.00014221867
9.2902533e-09
0.0003425912
2.1517801e-08
0.00075123862
4.5138226e-08
0.001535812
8.6248311e-08
0.0029397037
1.4770332e-07
0.0052365428
2.170553e-07
0.0085723374
2.4971489e-07
0.012686202
1.7949862e-07
0.016681583
-1.7538616e-12
0.019208841
-1.7950893e-07
0.019208841
-2.4973628e-07
0.016681583
-2.1707535e-07
0.012686202
-1.477013e-07
0.0085723374
-8.6212667e-08
0.0052365427
-4.5078029e-08
0.0029397037
-2.1456057e-08
0.001535812
-9.2460929e-09
0.00075123862
-3.4873052e-09
0.00034259121
-1.0451709e-09
0.00014221867
-1.7938725e-10
4.9724555e-05
1.0125472e-05
1.6887628e-10
1.0125303e-05
9.8798445e-10
4.9723734e-05
3.2965467e-09
0.00014221636
8.7407197e-09
0.00034258576
2.0290671e-08
0.00075122707
4.2657907e-08
0.0015357897
8.1636636e-08
0.0029396647
1.3992182e-07
0.0052364845
2.057212e-07
0.0085722716
2.3676941e-07
0.012686171
1.7032175e-07
0.01668165
-4.9481975e-13
0.019209011
-1.7032893e-07
0.019209011
-2.3678647e-07
0.01668165
-2.0573685e-07
0.012686171
-1.3991791e-07
0.0085722716
-8.1603661e-08
0.0052364844
-4.2604502e-08
0.0029396647
-2.0237003e-08
0.0015357896
-8.7029115e-09
0.00075122707
-3.2774231e-09
0.00034258576
-9.8157079e-10
0.00014221636
-1.6846859e-10
4.9723735e-05
1.0125303e-05
1.6408477e-10
1.0125139e-05
9.6009276e-10