/*--------------------------------*- C++ -*----------------------------------*\
| =========                 |                                                 |
| \\      /  F ield         | OpenFOAM: The Open Source CFD Toolbox           |
|  \\    /   O peration     | Version:  2406                                  |
|   \\  /    A nd           | Website:  www.openfoam.com                      |
|    \\/     M anipulation  |                                                 |
\*---------------------------------------------------------------------------*/
FoamFile
{
    version     2.0;
    format      ascii;
    arch        "LSB;label=32;scalar=64";
    class       volVectorField;
    location    "43";
    object      U;
}
// * * * * * * * * * * * * * * * * * * * * * * * * * * * * * * * * * * * * * //

dimensions      [0 1 -1 0 0 0 0];

internalField   nonuniform List<vector> 
1176
(
(0.019493789 7.0786359e-07 0)
(0.066677318 8.1696583e-06 0)
(0.13357994 3.9503164e-05 0)
(0.22724701 0.00010873576 0)
(0.35591522 0.00021176026 0)
(0.52772023 0.00030396285 0)
(0.74780387 0.0003181802 0)
(1.0136216 0.00024904589 0)
(1.3093323 0.00016666996 0)
(1.6017081 0.00011264677 0)
(1.8421723 7.0213981e-05 0)
(1.9793239 2.3940559e-05 0)
(1.9793239 -2.3940912e-05 0)
(1.8421723 -7.0213865e-05 0)
(1.6017081 -0.00011264529 0)
(1.3093323 -0.00016666561 0)
(1.0136216 -0.00024903696 0)
(0.74780387 -0.00031816645 0)
(0.52772024 -0.00030394731 0)
(0.35591523 -0.00021174812 0)
(0.22724702 -0.00010872816 0)
(0.13357995 -3.9501038e-05 0)
(0.066677325 -8.167136e-06 0)
(0.019493792 -7.081981e-07 0)
(0.020187017 -3.7419181e-06 0)
(0.068813532 -2.4638638e-05 0)
(0.13732107 -9.6548553e-05 0)
(0.23247391 -0.0002483946 0)
(0.36204617 -0.00047268781 0)
(0.53373557 -0.00067421183 0)
(0.75267407 -0.00069486942 0)
(1.0170176 -0.00049687364 0)
(1.3116385 -0.00023345912 0)
(1.6034438 -4.9824353e-05 0)
(1.8436588 1.9764714e-05 0)
(1.9807026 1.3427402e-05 0)
(1.9807026 -1.3428825e-05 0)
(1.8436588 -1.9767228e-05 0)
(1.6034438 4.981944e-05 0)
(1.3116385 0.00023345066 0)
(1.0170176 0.00049686129 0)
(0.75267406 0.00069485449 0)
(0.53373555 0.00067419787 0)
(0.36204616 0.00047267835 0)
(0.23247391 0.00024838963 0)
(0.13732108 9.6547132e-05 0)
(0.068813537 2.4637695e-05 0)
(0.020187019 3.7420331e-06 0)
(0.020018442 2.091837e-06 0)
(0.068327405 1.2720775e-05 0)
(0.13655405 4.6877259e-05 0)
(0.23159544 0.00011389739 0)
(0.36138709 0.0001976927 0)
(0.53366969 0.0002390324 0)
(0.75344344 0.0002055982 0)
(1.0184881 0.0001136112 0)
(1.3134639 7.4313632e-05 0)
(1.6053464 7.9532946e-05 0)
(1.8455118 7.051672e-05 0)
(1.9825245 2.7826186e-05 0)
(1.9825245 -2.782434e-05 0)
(1.8455118 -7.0514195e-05 0)
(1.6053464 -7.9529354e-05 0)
(1.3134639 -7.4308779e-05 0)
(1.0184882 -0.00011360543 0)
(0.75344345 -0.00020559273 0)
(0.5336697 -0.00023902814 0)
(0.36138709 -0.00019769068 0)
(0.23159544 -0.00011389672 0)
(0.13655404 -4.6876908e-05 0)
(0.068327404 -1.2721074e-05 0)
(0.020018441 -2.0917264e-06 0)
(0.019966547 7.0076488e-07 0)
(0.068159232 4.6870482e-06 0)
(0.13624021 1.9355444e-05 0)
(0.2311194 5.6456181e-05 0)
(0.36078093 0.00013444569 0)
(0.53306293 0.00025829322 0)
(0.75295637 0.00035344747 0)
(1.0181104 0.00036912009 0)
(1.313184 0.00030758878 0)
(1.6051633 0.00022777239 0)
(1.8453995 0.00014555931 0)
(1.9824491 4.9996908e-05 0)
(1.9824491 -4.9997985e-05 0)
(1.8453995 -0.00014556092 0)
(1.6051633 -0.00022777474 0)
(1.313184 -0.00030759162 0)
(1.0181104 -0.00036912201 0)
(0.75295636 -0.00035344757 0)
(0.53306292 -0.00025829232 0)
(0.36078093 -0.00013444431 0)
(0.2311194 -5.6455207e-05 0)
(0.13624021 -1.935499e-05 0)
(0.068159232 -4.6869139e-06 0)
(0.019966547 -7.0071861e-07 0)
(0.019942203 2.9076877e-07 0)
(0.068078703 1.9872049e-06 0)
(0.13608628 8.2361208e-06 0)
(0.23087699 2.3699339e-05 0)
(0.36044744 5.6881663e-05 0)
(0.53266448 0.00012306893 0)
(0.75256878 0.00022681829 0)
(1.017808 0.00032272235 0)
(1.3129044 0.0003457248 0)
(1.604912 0.00030729999 0)
(1.8452029 0.00021095331 0)
(1.9822898 7.4614612e-05 0)
(1.9822898 -7.4614678e-05 0)
(1.8452029 -0.00021095354 0)
(1.604912 -0.00030730036 0)
(1.3129044 -0.00034572487 0)
(1.017808 -0.00032272239 0)
(0.75256878 -0.00022681835 0)
(0.53266448 -0.00012306884 0)
(0.36044744 -5.6881474e-05 0)
(0.23087699 -2.3699182e-05 0)
(0.13608628 -8.2359415e-06 0)
(0.068078703 -1.9872885e-06 0)
(0.019942204 -2.9070932e-07 0)
(0.019933132 1.7181505e-07 0)
(0.068047755 1.194078e-06 0)
(0.13602489 5.0652033e-06 0)
(0.23077535 1.4968877e-05 0)
(0.36029899 3.6219587e-05 0)
(0.5324792 7.6944327e-05 0)
(0.75239427 0.00014713785 0)
(1.0177222 0.00023749046 0)
(1.3129292 0.00028525618 0)
(1.6049746 0.00027441515 0)
(1.8452865 0.00019644645 0)
(1.9823834 7.1177167e-05 0)
(1.9823834 -7.1177019e-05 0)
(1.8452865 -0.00019644645 0)
(1.6049746 -0.00027441522 0)
(1.3129292 -0.00028525601 0)
(1.0177222 -0.00023748992 0)
(0.75239427 -0.00014713708 0)
(0.5324792 -7.6943533e-05 0)
(0.36029898 -3.6219007e-05 0)
(0.23077535 -1.4968561e-05 0)
(0.13602489 -5.0649867e-06 0)
(0.068047755 -1.1941459e-06 0)
(0.019933132 -1.7176038e-07 0)
(0.0199234 1.5587563e-07 0)
(0.068015507 1.0700766e-06 0)
(0.13596286 4.4934662e-06 0)
(0.23067607 1.3195471e-05 0)
(0.36015773 3.1857151e-05 0)
(0.53230178 6.6958286e-05 0)
(0.75221429 0.00012411897 0)
(1.0176105 0.00019917065 0)
(1.3129358 0.00025490863 0)
(1.6050904 0.00024595193 0)
(1.8454579 0.0001812792 0)
(1.9825798 6.6548678e-05 0)
(1.9825798 -6.6548612e-05 0)
(1.8454579 -0.00018127929 0)
(1.6050904 -0.00024595211 0)
(1.3129358 -0.00025490873 0)
(1.0176105 -0.00019917051 0)
(0.75221429 -0.00012411854 0)
(0.53230178 -6.6957676e-05 0)
(0.36015773 -3.1856618e-05 0)
(0.23067607 -1.319514e-05 0)
(0.13596286 -4.4932421e-06 0)
(0.068015507 -1.0701174e-06 0)
(0.0199234 -1.5582575e-07 0)
(0.019915697 1.2758613e-07 0)
(0.067989792 8.7801713e-07 0)
(0.13591293 3.6959998e-06 0)
(0.23059503 1.0901603e-05 0)
(0.36003987 2.6613349e-05 0)
(0.53214753 5.7237126e-05 0)
(0.75204133 0.00010911051 0)
(1.0174723 0.00017936634 0)
(1.3128926 0.00023802489 0)
(1.6051414 0.00023746769 0)
(1.8455877 0.00017750694 0)
(1.9827514 6.5539489e-05 0)
(1.9827514 -6.5539537e-05 0)
(1.8455877 -0.00017750704 0)
(1.6051414 -0.00023746776 0)
(1.3128926 -0.00023802491 0)
(1.0174723 -0.00017936622 0)
(0.75204133 -0.00010911016 0)
(0.53214753 -5.7236592e-05 0)
(0.36003987 -2.6612861e-05 0)
(0.23059503 -1.0901289e-05 0)
(0.13591293 -3.6957721e-06 0)
(0.067989792 -8.7806396e-07 0)
(0.019915697 -1.2753312e-07 0)
(0.019909217 1.0465799e-07 0)
(0.067968141 7.2313694e-07 0)
(0.13587084 3.052102e-06 0)
(0.23052654 9.0118252e-06 0)
(0.35993984 2.1999866e-05 0)
(0.53201542 4.7473412e-05 0)
(0.75188901 9.2014032e-05 0)
(1.0173341 0.00015618187 0)
(1.3128278 0.00021699679 0)
(1.6051595 0.00022709634 0)
(1.8456699 0.00017232637 0)
(1.982868 6.4147692e-05 0)
(1.982868 -6.4147877e-05 0)
(1.8456699 -0.00017232656 0)
(1.6051595 -0.00022709646 0)
(1.3128278 -0.00021699686 0)
(1.0173341 -0.00015618179 0)
(0.75188901 -9.2013648e-05 0)
(0.53201542 -4.7472803e-05 0)
(0.35993984 -2.1999305e-05 0)
(0.23052654 -9.0114615e-06 0)
(0.13587084 -3.0518404e-06 0)
(0.067968141 -7.2318648e-07 0)
(0.019909217 -1.0459784e-07 0)
(0.019903971 8.612662e-08 0)
(0.067950553 5.9696334e-07 0)
(0.13583649 2.5273758e-06 0)
(0.2304703 7.4916078e-06 0)
(0.35985692 1.8376282e-05 0)
(0.53190436 3.9835656e-05 0)
(0.75175836 7.7712109e-05 0)
(1.0172122 0.00013432431 0)
(1.3127613 0.00019323369 0)
(1.6051772 0.00021058349 0)
(1.8457533 0.00016272971 0)
(1.9829863 6.1084159e-05 0)
(1.9829863 -6.1084494e-05 0)
(1.8457533 -0.00016273003 0)
(1.6051772 -0.00021058378 0)
(1.3127613 -0.00019323394 0)
(1.0172122 -0.00013432432 0)
(0.75175836 -7.7711723e-05 0)
(0.53190436 -3.9834971e-05 0)
(0.35985692 -1.8375633e-05 0)
(0.2304703 -7.4911801e-06 0)
(0.13583649 -2.527069e-06 0)
(0.067950553 -5.9701869e-07 0)
(0.019903971 -8.6056129e-08 0)
(0.019899543 7.3356549e-08 0)
(0.067935688 5.0896246e-07 0)
(0.13580742 2.1568858e-06 0)
(0.23042259 6.4027569e-06 0)
(0.35978626 1.5747573e-05 0)
(0.5318089 3.4277785e-05 0)
(0.75164409 6.7204543e-05 0)
(1.0171021 0.00011722987 0)
(1.3126976 0.00017262458 0)
(1.6051928 0.00019308901 0)
(1.8458371 0.0001521986 0)
(1.9831061 5.7544635e-05 0)
(1.9831061 -5.7545089e-05 0)
(1.8458371 -0.00015219906 0)
(1.6051928 -0.0001930895 0)
(1.3126976 -0.00017262503 0)
(1.0171021 -0.00011722997 0)
(0.75164409 -6.720414e-05 0)
(0.5318089 -3.4277008e-05 0)
(0.35978626 -1.5746823e-05 0)
(0.23042259 -6.4022597e-06 0)
(0.13580742 -2.1565278e-06 0)
(0.067935688 -5.0902879e-07 0)
(0.019899543 -7.3273328e-08 0)
(0.019895721 6.3726962e-08 0)
(0.06792285 4.4252138e-07 0)
(0.13578228 1.8767355e-06 0)
(0.23038125 5.5765215e-06 0)
(0.35972483 1.3738665e-05 0)
(0.53172535 2.9997967e-05 0)
(0.75154264 5.9111494e-05 0)
(1.0170011 0.0001038881 0)
(1.3126344 0.00015540272 0)
(1.6052015 0.00017849519 0)
(1.8459125 0.00014271544 0)
(1.9832185 5.4330412e-05 0)
(1.9832185 -5.4330957e-05 0)
(1.8459125 -0.00014271606 0)
(1.6052015 -0.00017849589 0)
(1.3126344 -0.00015540333 0)
(1.0170011 -0.00010388827 0)
(0.75154264 -5.9111045e-05 0)
(0.53172535 -2.9997069e-05 0)
(0.35972483 -1.3737796e-05 0)
(0.23038125 -5.5759456e-06 0)
(0.13578228 -1.8763212e-06 0)
(0.06792285 -4.4260033e-07 0)
(0.019895722 -6.362985e-08 0)
(0.019892371 5.6089919e-08 0)
(0.067911586 3.8977785e-07 0)
(0.13576021 1.6541229e-06 0)
(0.2303449 4.9187609e-06 0)
(0.35967069 1.2131998e-05 0)
(0.53165136 2.6542405e-05 0)
(0.7514519 5.2498714e-05 0)
(1.0169086 9.2875603e-05 0)
(1.3125728 0.00014061479 0)
(1.605205 0.00016529608 0)
(1.8459798 0.00013398916 0)
(1.9833221 5.1387226e-05 0)
(1.9833221 -5.1387841e-05 0)
(1.8459798 -0.0001339899 0)
(1.605205 -0.00016529695 0)
(1.3125728 -0.00014061552 0)
(1.0169086 -9.2875806e-05 0)
(0.7514519 -5.2498199e-05 0)
(0.53165136 -2.6541371e-05 0)
(0.35967069 -1.2131001e-05 0)
(0.2303449 -4.9181025e-06 0)
(0.13576021 -1.6536504e-06 0)
(0.067911587 -3.8986997e-07 0)
(0.019892371 -5.597855e-08 0)
(0.019889403 4.9848846e-08 0)
(0.067901607 3.4661751e-07 0)
(0.13574064 1.471763e-06 0)
(0.23031264 4.3793877e-06 0)
(0.35962253 1.0812301e-05 0)
(0.53158531 2.3691383e-05 0)
(0.75137029 4.6984089e-05 0)
(1.016824 8.3546225e-05 0)
(1.3125139 0.00012773737 0)
(1.6052051 0.00015293338 0)
(1.8460415 0.00012582026 0)
(1.9834196 4.8616268e-05 0)
(1.9834196 -4.8616936e-05 0)
(1.8460415 -0.00012582109 0)
(1.6052051 -0.00015293437 0)
(1.3125139 -0.00012773819 0)
(1.016824 -8.3546438e-05 0)
(0.75137029 -4.6983489e-05 0)
(0.53158531 -2.3690204e-05 0)
(0.35962253 -1.0811171e-05 0)
(0.23031264 -4.3786457e-06 0)
(0.13574064 -1.4712319e-06 0)
(0.067901607 -3.4672282e-07 0)
(0.019889403 -4.9723294e-08 0)
(0.019886752 4.4698737e-08 0)
(0.067892685 3.1094402e-07 0)
(0.13572313 1.3208174e-06 0)
(0.23028375 3.9322057e-06 0)
(0.35957935 9.7158764e-06 0)
(0.53152592 2.1315579e-05 0)
(0.75129648 4.2360233e-05 0)
(1.0167465 7.5619849e-05 0)
(1.3124581 0.00011654228 0)
(1.6052027 0.00014169865 0)
(1.8460982 0.0001182709 0)
(1.9835117 4.6031331e-05 0)
(1.9835117 -4.6032038e-05 0)
(1.8460982 -0.00011827182 0)
(1.6052027 -0.00014169974 0)
(1.3124581 -0.00011654317 0)
(1.0167465 -7.5620054e-05 0)
(0.75129648 -4.2359538e-05 0)
(0.53152592 -2.131425e-05 0)
(0.35957935 -9.7146129e-06 0)
(0.23028375 -3.9313802e-06 0)
(0.13572313 -1.3202283e-06 0)
(0.067892685 -3.1106213e-07 0)
(0.019886752 -4.4559283e-08 0)
(0.019884362 4.0386197e-08 0)
(0.067884644 2.8103986e-07 0)
(0.13570735 1.1941556e-06 0)
(0.23025769 3.5564867e-06 0)
(0.35954035 8.7928931e-06 0)
(0.53147216 1.9310029e-05 0)
(0.75122934 3.8440158e-05 0)
(1.0166753 6.8838933e-05 0)
(1.3124053 0.00010678351 0)
(1.6051983 0.00013155225 0)
(1.8461504 0.00011132792 0)
(1.9835985 4.3630914e-05 0)
(1.9835985 -4.3631653e-05 0)
(1.8461504 -0.0001113289 0)
(1.6051983 -0.00013155341 0)
(1.3124053 -0.00010678445 0)
(1.0166753 -6.8839122e-05 0)
(0.75122934 -3.8439364e-05 0)
(0.53147216 -1.930855e-05 0)
(0.35954035 -8.7914971e-06 0)
(0.23025769 -3.5555785e-06 0)
(0.13570735 -1.1935089e-06 0)
(0.067884644 -2.8117031e-07 0)
(0.019884363 -4.0233115e-08 0)
(0.019882195 3.6711036e-08 0)
(0.067877349 2.5553926e-07 0)
(0.13569303 1.086078e-06 0)
(0.23023403 3.2356282e-06 0)
(0.3595049 8.0035802e-06 0)
(0.5314232 1.7590928e-05 0)
(0.75116797 3.5067226e-05 0)
(1.0166096 6.2964145e-05 0)
(1.3123553 9.8203206e-05 0)
(1.6051923 0.0001223336 0)
(1.8461982 0.00010491307 0)
(1.9836803 4.1390222e-05 0)
(1.9836803 -4.1390988e-05 0)
(1.8461982 -0.0001049141 0)
(1.6051923 -0.00012233482 0)
(1.3123553 -9.8204184e-05 0)
(1.0166096 -6.2964316e-05 0)
(0.75116796 -3.5066334e-05 0)
(0.5314232 -1.75893e-05 0)
(0.3595049 -8.0020523e-06 0)
(0.23023403 -3.2346375e-06 0)
(0.13569303 -1.0853737e-06 0)
(0.067877349 -2.5568173e-07 0)
(0.019882196 -3.6544425e-08 0)
(0.019880219 3.3538122e-08 0)
(0.067870695 2.3351164e-07 0)
(0.13567996 9.9267159e-07 0)
(0.23021243 2.9581496e-06 0)
(0.35947252 7.3202874e-06 0)
(0.53137842 1.6100125e-05 0)
(0.75111164 3.2132995e-05 0)
(1.0165488 5.7823387e-05 0)
(1.3123082 9.0602468e-05 0)
(1.6051852 0.0001139534 0)
(1.8462423 9.8955894e-05 0)
(1.9837576 3.9288711e-05 0)
(1.9837576 -3.9289499e-05 0)
(1.8462423 -9.8956972e-05 0)
(1.6051852 -0.00011395469 0)
(1.3123082 -9.0603488e-05 0)
(1.0165488 -5.7823541e-05 0)
(0.75111164 -3.2132007e-05 0)
(0.53137842 -1.609835e-05 0)
(0.35947252 -7.3186267e-06 0)
(0.23021243 -2.9570749e-06 0)
(0.13567996 -9.9190848e-07 0)
(0.067870696 -2.3366606e-07 0)
(0.01988022 -3.3357776e-08 0)
(0.019878409 3.077337e-08 0)
(0.0678646 2.1430778e-07 0)
(0.13566798 9.1119968e-07 0)
(0.23019263 2.7159825e-06 0)
(0.35944282 6.7234149e-06 0)
(0.53133728 1.4795992e-05 0)
(0.75105977 2.9559662e-05 0)
(1.0164925 5.3292516e-05 0)
(1.3122638 8.3831564e-05 0)
(1.6051772 0.00010632403 0)
(1.846283 9.3403164e-05 0)
(1.9838307 3.7312174e-05 0)
(1.9838307 -3.7312985e-05 0)
(1.846283 -9.3404285e-05 0)
(1.6051772 -0.00010632538 0)
(1.3122638 -8.383263e-05 0)
(1.0164925 -5.3292657e-05 0)
(0.75105976 -2.9558578e-05 0)
(0.53133728 -1.4794065e-05 0)
(0.35944282 -6.721617e-06 0)
(0.23019263 -2.7148204e-06 0)
(0.13566798 -9.1037485e-07 0)
(0.0678646 -2.1447445e-07 0)
(0.01987841 -3.0578675e-08 0)
(0.019876745 2.8342998e-08 0)
(0.067858993 1.9741956e-07 0)
(0.13565697 8.3952346e-07 0)
(0.23017441 2.502827e-06 0)
(0.35941547 6.1976399e-06 0)
(0.53129936 1.3645773e-05 0)
(0.75101183 2.7285276e-05 0)
(1.0164401 4.9271693e-05 0)
(1.3122219 7.7767685e-05 0)
(1.6051688 9.935611e-05 0)
(1.8463207 8.8213488e-05 0)
(1.9838998 3.5449238e-05 0)
(1.9838998 -3.5450074e-05 0)
(1.8463207 -8.8214654e-05 0)
(1.6051688 -9.9357522e-05 0)
(1.3122219 -7.7768803e-05 0)
(1.0164401 -4.9271825e-05 0)
(0.75101183 -2.7284096e-05 0)
(0.53129936 -1.3643688e-05 0)
(0.35941547 -6.1956963e-06 0)
(0.23017441 -2.5015711e-06 0)
(0.13565697 -8.3863212e-07 0)
(0.067858993 -1.975992e-07 0)
(0.019876745 -2.8132869e-08 0)
(0.019875209 2.6188986e-08 0)
(0.067853818 1.8244676e-07 0)
(0.1356468 7.7595638e-07 0)
(0.23015758 2.3137114e-06 0)
(0.3593902 5.7308626e-06 0)
(0.5312643 1.2623539e-05 0)
(0.75096742 2.5260309e-05 0)
(1.0163914 4.5679505e-05 0)
(1.3121824 7.2308038e-05 0)
(1.6051599 9.2973368e-05 0)
(1.8463555 8.3350257e-05 0)
(1.9839652 3.3689248e-05 0)
(1.9839652 -3.3690114e-05 0)
(1.8463555 -8.3351474e-05 0)
(1.6051599 -9.2974854e-05 0)
(1.3121824 -7.2309218e-05 0)
(1.0163914 -4.5679633e-05 0)
(0.75096741 -2.5259028e-05 0)
(0.53126429 -1.2621284e-05 0)
(0.3593902 -5.7287607e-06 0)
(0.23015758 -2.3123527e-06 0)
(0.1356468 -7.749918e-07 0)
(0.067853818 -1.8264053e-07 0)
(0.019875209 -2.5961849e-08 0)
(0.019873787 2.426614e-08 0)
(0.067849027 1.6907703e-07 0)
(0.13563738 7.1917979e-07 0)
(0.230142 2.1447407e-06 0)
(0.35936679 5.3135802e-06 0)
(0.53123178 1.1708864e-05 0)
(0.75092616 2.3445536e-05 0)
(1.016346 4.24505e-05 0)
(1.3121452 6.7367593e-05 0)
(1.6051509 8.7107533e-05 0)
(1.8463878 7.8785131e-05 0)
(1.9840271 3.2023623e-05 0)
(1.9840271 -3.2024531e-05 0)
(1.8463878 -7.8786411e-05 0)
(1.6051509 -8.7109105e-05 0)
(1.3121452 -6.7368847e-05 0)
(1.016346 -4.2450632e-05 0)
(0.75092616 -2.3444148e-05 0)
(0.53123178 -1.1706422e-05 0)
(0.35936679 -5.3113028e-06 0)
(0.230142 -2.1432675e-06 0)
(0.13563738 -7.1813339e-07 0)
(0.067849028 -1.6928652e-07 0)
(0.019873787 -2.4019965e-08 0)
(0.019872467 2.2538884e-08 0)
(0.067844581 1.570642e-07 0)
(0.13562864 6.6815336e-07 0)
(0.23012754 1.9928377e-06 0)
(0.35934505 4.9382701e-06 0)
(0.53120156 1.0885541e-05 0)
(0.75088776 2.1809734e-05 0)
(1.0163035 3.953216e-05 0)
(1.31211 6.287648e-05 0)
(1.6051418 8.1702099e-05 0)
(1.8464178 7.4491877e-05 0)
(1.9840857 3.0444218e-05 0)
(1.9840857 -3.0445182e-05 0)
(1.8464179 -7.4493235e-05 0)
(1.6051418 -8.1703778e-05 0)
(1.31211 -6.2877828e-05 0)
(1.0163035 -3.9532301e-05 0)
(0.75088776 -2.1808231e-05 0)
(0.53120156 -1.0882891e-05 0)
(0.35934504 -4.9357962e-06 0)
(0.23012754 -1.9912359e-06 0)
(0.13562864 -6.6701506e-07 0)
(0.067844582 -1.5729141e-07 0)
(0.019872467 -2.227126e-08 0)
(0.01987124 2.0978744e-08 0)
(0.067840446 1.4621116e-07 0)
(0.13562051 6.2204345e-07 0)
(0.23011408 1.8555345e-06 0)
(0.35932481 4.5988884e-06 0)
(0.53117342 1.0140509e-05 0)
(0.75085195 2.032765e-05 0)
(1.0162638 3.688179e-05 0)
(1.3120768 5.8776988e-05 0)
(1.6051327 7.6706794e-05 0)
(1.8464458 7.0451378e-05 0)
(1.9841412 2.8944991e-05 0)
(1.9841412 -2.8946026e-05 0)
(1.8464458 -7.0452835e-05 0)
(1.6051327 -7.6708602e-05 0)
(1.3120768 -5.8778449e-05 0)
(1.0162638 -3.6881947e-05 0)
(0.75085194 -2.0326018e-05 0)
(0.53117341 -1.0137626e-05 0)
(0.35932481 -4.5961937e-06 0)
(0.23011408 -1.8537882e-06 0)
(0.13562051 -6.208021e-07 0)
(0.067840447 -1.4645836e-07 0)
(0.01987124 -2.0686988e-08 0)
(0.019870096 1.9562692e-08 0)
(0.067836592 1.3635841e-07 0)
(0.13561293 5.8017525e-07 0)
(0.23010153 1.7308322e-06 0)
(0.35930594 4.2905366e-06 0)
(0.53114716 9.4631699e-06 0)
(0.75081849 1.8978725e-05 0)
(1.0162266 3.4464399e-05 0)
(1.3120455 5.5020984e-05 0)
(1.6051237 7.2080827e-05 0)
(1.8464718 6.6642862e-05 0)
(1.9841938 2.7519506e-05 0)
(1.9841938 -2.7520631e-05 0)
(1.8464718 -6.6644441e-05 0)
(1.6051237 -7.2082791e-05 0)
(1.3120455 -5.502258e-05 0)
(1.0162266 -3.4464577e-05 0)
(0.75081849 -1.8976949e-05 0)
(0.53114716 -9.4600249e-06 0)
(0.35930594 -4.2875947e-06 0)
(0.23010153 -1.7289245e-06 0)
(0.13561293 -5.7881917e-07 0)
(0.067836593 -1.3662804e-07 0)
(0.019870097 -1.9243995e-08 0)
(0.019869029 1.8271882e-08 0)
(0.067832994 1.2737541e-07 0)
(0.13560586 5.4199611e-07 0)
(0.23008981 1.6170925e-06 0)
(0.35928832 4.0091948e-06 0)
(0.53112262 8.8448063e-06 0)
(0.75078719 1.7746009e-05 0)
(1.0161917 3.2251044e-05 0)
(1.312016 5.1568269e-05 0)
(1.6051149 6.7786359e-05 0)
(1.846496 6.3053107e-05 0)
(1.9842436 2.6163735e-05 0)
(1.9842437 -2.6164965e-05 0)
(1.846496 -6.3054831e-05 0)
(1.6051149 -6.7788507e-05 0)
(1.3120159 -5.1570019e-05 0)
(1.0161917 -3.2251246e-05 0)
(0.75078719 -1.7744072e-05 0)
(0.53112262 -8.8413691e-06 0)
(0.35928831 -4.0059786e-06 0)
(0.23008981 -1.6150065e-06 0)
(0.13560586 -5.4051375e-07 0)
(0.067832995 -1.2766993e-07 0)
(0.019869029 -1.7923464e-08 0)
(0.019868031 1.7090778e-08 0)
(0.067829631 1.191545e-07 0)
(0.13559924 5.0705011e-07 0)
(0.23007886 1.512964e-06 0)
(0.35927183 3.7515463e-06 0)
(0.53109966 8.2782257e-06 0)
(0.75075788 1.6615491e-05 0)
(1.0161589 3.0217639e-05 0)
(1.311988 4.8384814e-05 0)
(1.6051063 6.3793779e-05 0)
(1.8465187 5.966392e-05 0)
(1.9842909 2.4872318e-05 0)
(1.9842909 -2.4873668e-05 0)
(1.8465187 -5.9665809e-05 0)
(1.6051063 -6.3796133e-05 0)
(1.311988 -4.8386734e-05 0)
(1.0161589 -3.0217862e-05 0)
(0.75075787 -1.6613373e-05 0)
(0.53109965 -8.2744656e-06 0)
(0.35927183 -3.7480292e-06 0)
(0.23007886 -1.5106832e-06 0)
(0.13559924 -5.0543068e-07 0)
(0.067829632 -1.1947622e-07 0)
(0.019868031 -1.6710051e-08 0)
(0.019867097 1.60064e-08 0)
(0.067826482 1.1160577e-07 0)
(0.13559305 4.7495639e-07 0)
(0.2300686 1.4173164e-06 0)
(0.35925639 3.514813e-06 0)
(0.53107814 7.757388e-06 0)
(0.75073038 1.5575381e-05 0)
(1.0161281 2.8343928e-05 0)
(1.3119617 4.5441964e-05 0)
(1.6050979 6.0073572e-05 0)
(1.8465398 5.6466856e-05 0)
(1.9843356 2.364294e-05 0)
(1.9843356 -2.3644421e-05 0)
(1.8465398 -5.6468927e-05 0)
(1.6050979 -6.0076152e-05 0)
(1.3119617 -4.5444065e-05 0)
(1.0161281 -2.8344167e-05 0)
(0.75073037 -1.5573059e-05 0)
(0.53107813 -7.7532756e-06 0)
(0.35925639 -3.5109705e-06 0)
(0.2300686 -1.4148264e-06 0)
(0.13559305 -4.7319052e-07 0)
(0.067826483 -1.1195673e-07 0)
(0.019867097 -1.5591124e-08 0)
(0.019866221 1.5007831e-08 0)
(0.067823531 1.0465354e-07 0)
(0.13558724 4.4539428e-07 0)
(0.23005898 1.3291988e-06 0)
(0.35924191 3.2966604e-06 0)
(0.53105796 7.2772249e-06 0)
(0.75070457 1.4615773e-05 0)
(1.0160992 2.6612722e-05 0)
(1.3119367 4.2714881e-05 0)
(1.6050897 5.6604071e-05 0)
(1.8465596 5.344434e-05 0)
(1.984378 2.2470625e-05 0)
(1.984378 -2.2472239e-05 0)
(1.8465596 -5.3446602e-05 0)
(1.6050897 -5.6606886e-05 0)
(1.3119367 -4.2717166e-05 0)
(1.0160992 -2.6612968e-05 0)
(0.75070456 -1.4613226e-05 0)
(0.53105795 -7.2727336e-06 0)
(0.35924191 -3.2924717e-06 0)
(0.23005898 -1.3264876e-06 0)
(0.13558724 -4.4347461e-07 0)
(0.067823532 -1.0503535e-07 0)
(0.019866221 -1.4556268e-08 0)
(0.0198654 1.4085805e-08 0)
(0.067820762 9.8233678e-08 0)
(0.1355818 4.1809201e-07 0)
(0.23004996 1.2478041e-06 0)
(0.35922832 3.0951001e-06 0)
(0.53103901 6.8334e-06 0)
(0.75068032 1.3728173e-05 0)
(1.0160719 2.500939e-05 0)
(1.3119132 4.0182673e-05 0)
(1.6050818 5.3361344e-05 0)
(1.8465781 5.0592562e-05 0)
(1.9844182 2.1354623e-05 0)
(1.9844182 -2.1356366e-05 0)
(1.8465781 -5.0595014e-05 0)
(1.6050818 -5.3364395e-05 0)
(1.3119132 -4.0185136e-05 0)
(1.0160719 -2.5009629e-05 0)
(0.75068031 -1.372538e-05 0)
(0.531039 -6.8285079e-06 0)
(0.35922832 -3.0905492e-06 0)
(0.23004996 -1.244863e-06 0)
(0.1355818 -4.1601385e-07 0)
(0.067820763 -9.8647381e-08 0)
(0.0198654 -1.359686e-08 0)
(0.019864628 1.3232371e-08 0)
(0.067818161 9.2290984e-08 0)
(0.13557668 3.9281553e-07 0)
(0.23004148 1.1724384e-06 0)
(0.35921555 2.9084308e-06 0)
(0.5310212 6.4222214e-06 0)
(0.75065752 1.2905344e-05 0)
(1.0160463 2.352123e-05 0)
(1.3118909 3.7826523e-05 0)
(1.6050743 5.0329571e-05 0)
(1.8465955 4.7892782e-05 0)
(1.9844563 2.0289625e-05 0)
(1.9844563 -2.0291486e-05 0)
(1.8465955 -4.7895415e-05 0)
(1.6050743 -5.0332849e-05 0)
(1.3118909 -3.7829152e-05 0)
(1.0160463 -2.3521446e-05 0)
(0.75065751 -1.2902288e-05 0)
(0.53102119 -6.4169124e-06 0)
(0.35921555 -2.9035079e-06 0)
(0.23004148 -1.1692632e-06 0)
(0.13557668 -3.9057736e-07 0)
(0.067818162 -9.2736913e-08 0)
(0.019864629 -1.270573e-08 0)
(0.019863903 1.2440751e-08 0)
(0.067815716 8.677865e-08 0)
(0.13557187 3.6936651e-07 0)
(0.23003351 1.1025113e-06 0)
(0.35920355 2.7351917e-06 0)
(0.53100445 6.0404881e-06 0)
(0.75063606 1.2141e-05 0)
(1.0160221 2.2137437e-05 0)
(1.3118699 3.5631049e-05 0)
(1.6050669 4.7488711e-05 0)
(1.8466118 4.5346522e-05 0)
(1.9844924 1.9276592e-05 0)
(1.9844924 -1.927855e-05 0)
(1.8466118 -4.5349314e-05 0)
(1.6050669 -4.7492196e-05 0)
(1.3118699 -3.5633825e-05 0)
(1.0160221 -2.2137611e-05 0)
(0.75063605 -1.2137664e-05 0)
(0.53100444 -6.0347542e-06 0)
(0.35920355 -2.7298951e-06 0)
(0.23003351 -1.0991027e-06 0)
(0.13557187 -3.6697063e-07 0)
(0.067815718 -8.7256342e-08 0)
(0.019863904 -1.1877012e-08 0)
(0.019863221 1.1704938e-08 0)
(0.067813417 8.1654763e-08 0)
(0.13556735 3.4756702e-07 0)
(0.23002601 1.0374967e-06 0)
(0.35919226 2.5740989e-06 0)
(0.53098868 5.6854248e-06 0)
(0.75061585 1.1429685e-05 0)
(1.0159993 2.0848266e-05 0)
(1.31185 3.3581298e-05 0)
(1.6050599 4.4827241e-05 0)
(1.8466272 4.2931873e-05 0)
(1.9845266 1.8309097e-05 0)
(1.9845266 -1.8311123e-05 0)
(1.8466272 -4.2934797e-05 0)
(1.6050599 -4.4830904e-05 0)
(1.31185 -3.3584192e-05 0)
(1.0159993 -2.0848375e-05 0)
(0.75061584 -1.1426059e-05 0)
(0.53098868 -5.6792669e-06 0)
(0.35919225 -2.5684354e-06 0)
(0.23002601 -1.0338613e-06 0)
(0.13556735 -3.4502006e-07 0)
(0.067813418 -8.2162735e-08 0)
(0.019863222 -1.1105758e-08 0)
(0.019862579 1.101995e-08 0)
(0.067811252 7.6885167e-08 0)
(0.13556309 3.2727251e-07 0)
(0.23001895 9.769616e-07 0)
(0.35918162 2.4240693e-06 0)
(0.53097384 5.3546318e-06 0)
(0.75059681 1.0766671e-05 0)
(1.0159778 1.9645703e-05 0)
(1.3118312 3.1666197e-05 0)
(1.6050532 4.2328183e-05 0)
(1.8466415 4.0657261e-05 0)
(1.984559 1.7390322e-05 0)
(1.984559 -1.7392383e-05 0)
(1.8466415 -4.0660278e-05 0)
(1.6050532 -4.2331985e-05 0)
(1.3118312 -3.1669175e-05 0)
(1.0159778 -1.9645726e-05 0)
(0.7505968 -1.076275e-05 0)
(0.53097383 -5.3480617e-06 0)
(0.35918162 -2.4180563e-06 0)
(0.23001895 -9.7311278e-07 0)
(0.13556309 -3.2458608e-07 0)
(0.067811254 -7.7420805e-08 0)
(0.01986258 -1.0388187e-08 0)
(0.019861974 1.0381005e-08 0)
(0.067809213 7.2436047e-08 0)
(0.13555908 3.0833907e-07 0)
(0.2300123 9.2048378e-07 0)
(0.3591716 2.2840873e-06 0)
(0.53095985 5.0459433e-06 0)
(0.75057886 1.0147692e-05 0)
(1.0159575 1.8521882e-05 0)
(1.3118134 2.9872936e-05 0)
(1.6050467 3.9982769e-05 0)
(1.8466551 3.849497e-05 0)
(1.9845898 1.6511708e-05 0)
(1.9845898 -1.6513765e-05 0)
(1.8466551 -3.8498038e-05 0)
(1.6050467 -3.9986666e-05 0)
(1.3118134 -2.9875957e-05 0)
(1.0159575 -1.8521793e-05 0)
(0.75057885 -1.0143478e-05 0)
(0.53095984 -5.0389858e-06 0)
(0.3591716 -2.2777546e-06 0)
(0.2300123 -9.1644283e-07 0)
(0.13555908 -3.0553051e-07 0)
(0.067809215 -7.2995609e-08 0)
(0.019861975 -9.7208402e-09 0)
(0.019861404 9.784636e-09 0)
(0.067807292 6.8284234e-08 0)
(0.13555529 2.9066912e-07 0)
(0.23000603 8.6776479e-07 0)
(0.35916216 2.1533795e-06 0)
(0.53094666 4.7575895e-06 0)
(0.75056194 9.5692412e-06 0)
(1.0159384 1.7471114e-05 0)
(1.3117965 2.8194467e-05 0)
(1.6050405 3.777732e-05 0)
(1.8466678 3.646304e-05 0)
(1.9846188 1.5679676e-05 0)
(1.9846188 -1.568169e-05 0)
(1.8466678 -3.6466109e-05 0)
(1.6050405 -3.7781257e-05 0)
(1.3117965 -2.8197485e-05 0)
(1.0159384 -1.7470891e-05 0)
(0.75056193 -9.564743e-06 0)
(0.53094665 -4.7502821e-06 0)
(0.35916216 -2.1467682e-06 0)
(0.23000603 -8.6356091e-07 0)
(0.1355553 -2.8776095e-07 0)
(0.067807294 -6.8863065e-08 0)
(0.019861405 -9.1014846e-09 0)
(0.019860867 9.2266125e-09 0)
(0.067805479 6.4398888e-08 0)
(0.13555173 2.7413072e-07 0)
(0.23000012 8.1842522e-07 0)
(0.35915325 2.0310675e-06 0)
(0.53093422 4.4877671e-06 0)
(0.75054596 9.0277748e-06 0)
(1.0159203 1.6486462e-05 0)
(1.3117806 2.6618323e-05 0)
(1.6050346 3.5703596e-05 0)
(1.8466798 3.4524208e-05 0)
(1.9846465 1.4882072e-05 0)
(1.9846465 -1.4884002e-05 0)
(1.8466798 -3.4527224e-05 0)
(1.6050346 -3.5707514e-05 0)
(1.3117806 -2.6621284e-05 0)
(1.0159203 -1.6486081e-05 0)
(0.75054595 -9.0230143e-06 0)
(0.53093421 -4.4801671e-06 0)
(0.35915325 -2.024235e-06 0)
(0.23000012 -8.1410076e-07 0)
(0.13555173 -2.711493e-07 0)
(0.067805482 -6.4996714e-08 0)
(0.019860868 -8.5258903e-09 0)
(0.01986036 8.7052344e-09 0)
(0.067803771 6.0770308e-08 0)
(0.13554837 2.5868422e-07 0)
(0.22999455 7.7232653e-07 0)
(0.35914485 1.9167189e-06 0)
(0.53092248 4.2353432e-06 0)
(0.75053089 8.5209897e-06 0)
(1.0159032 1.556474e-05 0)
(1.3117655 2.514241e-05 0)
(1.605029 3.3753245e-05 0)
(1.846691 3.2710499e-05 0)
(1.9846726 1.4130308e-05 0)
(1.9846726 -1.4132115e-05 0)
(1.846691 -3.2713407e-05 0)
(1.605029 -3.3757078e-05 0)
(1.3117655 -2.5145258e-05 0)
(1.0159032 -1.556418e-05 0)
(0.75053088 -8.5159984e-06 0)
(0.53092247 -4.2275232e-06 0)
(0.35914485 -1.9097383e-06 0)
(0.22999455 -7.6793104e-07 0)
(0.13554837 -2.556662e-07 0)
(0.067803773 -6.1380145e-08 0)
(0.019860361 -7.9956028e-09 0)
(0.019859881 8.2158025e-09 0)
(0.067802156 5.7362398e-08 0)
(0.13554519 2.4417411e-07 0)
(0.22998928 7.2903803e-07 0)
(0.35913691 1.8094104e-06 0)
(0.53091139 3.9985792e-06 0)
(0.75051664 8.0455351e-06 0)
(1.0158871 1.4698745e-05 0)
(1.3117512 2.3751989e-05 0)
(1.6050236 3.1914543e-05 0)
(1.8467017 3.0969642e-05 0)
(1.9846975 1.3406425e-05 0)
(1.9846975 -1.3408073e-05 0)
(1.8467017 -3.0972387e-05 0)
(1.6050236 -3.1918224e-05 0)
(1.3117512 -2.3754665e-05 0)
(1.0158871 -1.469799e-05 0)
(0.75051663 -8.0403595e-06 0)
(0.53091138 -3.9906328e-06 0)
(0.35913691 -1.8023724e-06 0)
(0.22998928 -7.2463153e-07 0)
(0.13554519 -2.411634e-07 0)
(0.067802159 -5.797523e-08 0)
(0.019859882 -7.5077419e-09 0)
(0.01985943 7.7598833e-09 0)
(0.067800635 5.4191035e-08 0)
(0.13554219 2.3067061e-07 0)
(0.22998432 6.8871568e-07 0)
(0.35912943 1.7092989e-06 0)
(0.53090093 3.7773469e-06 0)
(0.7505032 7.6009104e-06 0)
(1.0158719 1.388917e-05 0)
(1.3117377 2.2453115e-05 0)
(1.6050185 3.0189932e-05 0)
(1.8467117 2.9354639e-05 0)
(1.9847208 1.2729751e-05 0)
(1.9847208 -1.273121e-05 0)
(1.8467117 -2.9357172e-05 0)
(1.6050185 -3.0193392e-05 0)
(1.3117377 -2.245556e-05 0)
(1.0158718 -1.3888212e-05 0)
(0.75050319 -7.5956164e-06 0)
(0.53090092 -3.7693938e-06 0)
(0.35912942 -1.7023169e-06 0)
(0.22998432 -6.8437287e-07 0)
(0.1355422 -2.2771941e-07 0)
(0.067800637 -5.4797907e-08 0)
(0.019859431 -7.0653852e-09 0)
(0.019859003 7.3296548e-09 0)
(0.067799193 5.119372e-08 0)
(0.13553936 2.179043e-07 0)
(0.22997961 6.5064242e-07 0)
(0.35912234 1.6149766e-06 0)
(0.53089102 3.5693082e-06 0)
(0.75049047 7.1828915e-06 0)
(1.0158574 1.3126278e-05 0)
(1.3117249 2.1224003e-05 0)
(1.6050136 2.8556677e-05 0)
(1.8467212 2.7790405e-05 0)
(1.9847433 1.2073221e-05 0)
(1.9847434 -1.2074467e-05 0)
(1.8467212 -2.7792677e-05 0)
(1.6050136 -2.8559847e-05 0)
(1.3117249 -2.122616e-05 0)
(1.0158574 -1.3125117e-05 0)
(0.75049045 -7.1775571e-06 0)
(0.53089101 -3.5614803e-06 0)
(0.35912233 -1.6081715e-06 0)
(0.22997961 -6.4644058e-07 0)
(0.13553936 -2.1506835e-07 0)
(0.067799196 -5.1781526e-08 0)
(0.019859003 -6.6624961e-09 0)
(0.0198586 6.9354602e-09 0)
(0.067797836 4.8454151e-08 0)
(0.13553669 2.0623375e-07 0)
(0.22997518 6.1573738e-07 0)
(0.35911566 1.5280933e-06 0)
(0.5308817 3.3767723e-06 0)
(0.75047849 6.7950724e-06 0)
(1.0158438 1.2419009e-05 0)
(1.3117128 2.0087028e-05 0)
(1.605009 2.7040263e-05 0)
(1.84673 2.636235e-05 0)
(1.9847642 1.1469052e-05 0)
(1.9847642 -1.1470072e-05 0)
(1.84673 -2.636433e-05 0)
(1.605009 -2.7043083e-05 0)
(1.3117128 -2.0088854e-05 0)
(1.0158438 -1.2417668e-05 0)
(0.75047848 -6.7898107e-06 0)