/*--------------------------------*- C++ -*----------------------------------*\
| =========                 |                                                 |
| \\      /  F ield         | OpenFOAM: The Open Source CFD Toolbox           |
|  \\    /   O peration     | Version:  2406                                  |
|   \\  /    A nd           | Website:  www.openfoam.com                      |
|    \\/     M anipulation  |                                                 |
\*---------------------------------------------------------------------------*/
FoamFile
{
    version     2.0;
    format      ascii;
    arch        "LSB;label=32;scalar=64";
    class       volScalarField;
    location    "2.75";
    object      p;
}
// * * * * * * * * * * * * * * * * * * * * * * * * * * * * * * * * * * * * * //

dimensions      [0 2 -2 0 0 0 0];

internalField   nonuniform List<scalar> 
34560
(
25.464423
25.450924
25.432936
25.411236
25.386271
25.360006
25.3345
25.31107
25.291591
25.545819
25.529043
25.50619
25.477868
25.444486
25.408661
25.374005
25.342753
25.316537
25.622116
25.602275
25.5751
25.541301
25.501219
25.457857
25.415651
25.377496
25.345562
25.698381
25.675606
25.64417
25.604899
25.558241
25.507715
25.458427
25.413647
25.37582
25.772598
25.74699
25.711444
25.666905
25.613936
25.556578
25.500439
25.449125
25.405341
25.841153
25.813205
25.774124
25.724927
25.666266
25.602713
25.540163
25.482613
25.433107
25.903477
25.873386
25.83107
25.777624
25.713797
25.64467
25.57626
25.512942
25.458162
25.958038
25.926053
25.880874
25.823673
25.755306
25.681267
25.607681
25.539222
25.479771
26.003577
25.969969
25.922338
25.861936
25.789752
25.71155
25.633599
25.560781
25.497397
26.038626
26.003749
25.954193
25.891284
25.816145
25.734731
25.653379
25.577137
25.510671
26.062392
26.02658
25.975654
25.91102
25.833894
25.750314
25.666646
25.588046
25.519538
26.074713
26.038381
25.986703
25.921131
25.842939
25.758194
25.673306
25.593482
25.523938
26.074714
26.038382
25.986704
25.921131
25.842939
25.758194
25.673306
25.593482
25.523938
26.062392
26.02658
25.975655
25.911021
25.833894
25.750314
25.666646
25.588046
25.519537
26.038627
26.00375
25.954193
25.891285
25.816145
25.73473
25.653379
25.577136
25.51067
26.003578
25.96997
25.922339
25.861936
25.789751
25.71155
25.633598
25.56078
25.497396
25.958039
25.926054
25.880875
25.823673
25.755306
25.681267
25.60768
25.539221
25.47977
25.903477
25.873386
25.831071
25.777625
25.713797
25.644669
25.576259
25.512941
25.458161
25.841154
25.813205
25.774125
25.724927
25.666267
25.602713
25.540163
25.482613
25.433107
25.7726
25.746992
25.711446
25.666907
25.613937
25.556579
25.50044
25.449125
25.405341
25.698383
25.675608
25.644173
25.604901
25.558243
25.507717
25.458429
25.413649
25.375822
25.62212
25.602279
25.575103
25.541303
25.501222
25.45786
25.415655
25.3775
25.345564
25.545823
25.529047
25.506194
25.477871
25.444489
25.408665
25.374011
25.34276
25.316541
25.464427
25.450928
25.43294
25.411241
25.386276
25.360011
25.334507
25.311079
25.291598
23.377714
23.378796
23.380257
23.382864
23.387469
23.393878
23.401113
23.407402
23.412482
23.366324
23.36799
23.370375
23.374446
23.381146
23.389918
23.398937
23.406348
23.412061
23.35308
23.355336
23.358589
23.364113
23.373036
23.384424
23.395736
23.404713
23.411174
23.341066
23.343972
23.348101
23.354892
23.36574
23.379457
23.392909
23.40344
23.410747
23.329796
23.333361
23.338546
23.346771
23.359519
23.375496
23.391016
23.403019
23.411123
23.319041
23.323201
23.329541
23.339531
23.354301
23.372552
23.390113
23.4035
23.412304
23.309326
23.313923
23.321216
23.33325
23.350407
23.370823
23.390286
23.404887
23.414274
23.30057
23.305421
23.313334
23.327457
23.347695
23.370298
23.391466
23.407106
23.416952
23.293601
23.298582
23.306873
23.322288
23.345496
23.370904
23.393543
23.410005
23.420176
23.288103
23.293153
23.301605
23.317673
23.343458
23.372309
23.396324
23.413312
23.423725
23.284675
23.289701
23.298277
23.314798
23.341582
23.373049
23.399193
23.416543
23.426997
23.283312
23.288254
23.296858
23.313678
23.341019
23.373314
23.40077
23.418684
23.428987
23.283311
23.288254
23.296858
23.313677
23.341019
23.373314
23.40077
23.418684
23.428987
23.284674
23.2897
23.298276
23.314797
23.341581
23.373049
23.399193
23.416543
23.426996
23.288101
23.293151
23.301603
23.317672
23.343457
23.372308
23.396323
23.413311
23.423723
23.2936
23.298581
23.306872
23.322287
23.345495
23.370902
23.393541
23.410003
23.420175
23.300569
23.30542
23.313332
23.327456
23.347694
23.370296
23.391464
23.407104
23.41695
23.309325
23.313922
23.321215
23.333249
23.350405
23.370821
23.390284
23.404885
23.414271
23.31904
23.3232
23.329539
23.339529
23.354299
23.37255
23.390112
23.403498
23.412302
23.329795
23.33336
23.338546
23.34677
23.359518
23.375494
23.391014
23.403017
23.411121
23.341066
23.343971
23.348101
23.354891
23.36574
23.379457
23.392908
23.403438
23.410745
23.35308
23.355336
23.358589
23.364113
23.373036
23.384424
23.395736
23.404712
23.411171
23.366324
23.36799
23.370375
23.374447
23.381147
23.389919
23.398939
23.406348
23.412058
23.377715
23.378797
23.380258
23.382865
23.38747
23.39388
23.401115
23.407403
23.412481
22.830383
22.830503
22.830466
22.830102
22.829538
22.82908
22.829086
22.829553
22.829886
22.826432
22.826716
22.826887
22.826743
22.826464
22.826374
22.826762
22.827545
22.82815
22.821287
22.821706
22.822038
22.82209
22.822099
22.822432
22.823337
22.824626
22.825677
22.816342
22.816834
22.817227
22.817408
22.817615
22.818274
22.819648
22.821488
22.823131
22.812024
22.812518
22.812735
22.812838
22.813209
22.814167
22.815982
22.818366
22.82061
22.808451
22.808981
22.808897
22.808573
22.808972
22.810182
22.812399
22.815298
22.818107
22.80608
22.806686
22.806364
22.805185
22.805079
22.806448
22.808991
22.812338
22.815681
22.805021
22.805756
22.805394
22.803194
22.801729
22.803004
22.805802
22.80953
22.813383
22.804618
22.805457
22.805134
22.802522
22.799594
22.799892
22.802824
22.806913
22.811268
22.805035
22.805915
22.805713
22.803169
22.79896
22.797316
22.800098
22.804557
22.809374
22.805421
22.806348
22.806203
22.803778
22.799548
22.796378
22.797889
22.802578
22.807818
22.805616
22.806574
22.806444
22.804004
22.799755
22.796328
22.796937
22.801347
22.806937
22.805616
22.806574
22.806444
22.804004
22.799755
22.796328
22.796937
22.801347
22.806936
22.80542
22.806347
22.806203
22.803777
22.799548
22.796377
22.797888
22.802578
22.807817
22.805034
22.805914
22.805712
22.803168
22.798959
22.797315
22.800097
22.804556
22.809373
22.804616
22.805456
22.805132
22.802521
22.799593
22.79989
22.802823
22.806912
22.811266
22.80502
22.805754
22.805393
22.803192
22.801728
22.803002
22.8058
22.809529
22.813381
22.806079
22.806684
22.806362
22.805183
22.805078
22.806446
22.808989
22.812336
22.815678
22.808449
22.808979
22.808895
22.808571
22.80897
22.81018
22.812397
22.815296
22.818104
22.812023
22.812516
22.812733
22.812836
22.813207
22.814164
22.81598
22.818364
22.820608
22.81634
22.816832
22.817224
22.817405
22.817613
22.818272
22.819646
22.821485
22.823128
22.821285
22.821703
22.822036
22.822088
22.822097
22.82243
22.823335
22.824623
22.825674
22.826429
22.826713
22.826884
22.82674
22.826462
22.826372
22.826759
22.827542
22.828146
22.83038
22.8305
22.830463
22.8301
22.829535
22.829077
22.829082
22.82955
22.829882
21.618935
21.618818
21.618723
21.618751
21.618935
21.619188
21.619309
21.619086
21.618783
21.618849
21.618753
21.61872
21.618869
21.619231
21.61965
21.619825
21.619538
21.618968
21.618368
21.618292
21.618313
21.618584
21.619145
21.61978
21.620092
21.619815
21.619071
21.617988
21.617937
21.618011
21.618387
21.619112
21.619927
21.620359
21.620103
21.619256
21.617635
21.617609
21.617739
21.618231
21.61914
21.620154
21.620712
21.620472
21.619536
21.6172
21.617208
21.617407
21.618044
21.619194
21.620462
21.621155
21.620892
21.619856
21.616741
21.61678
21.617049
21.617846
21.619313
21.620895
21.621705
21.621353
21.620168
21.615993
21.616069
21.616396
21.617274
21.618879
21.620768
21.621912
21.621745
21.620425
21.614981
21.615087
21.615453
21.616376
21.617996
21.620007
21.621456
21.621627
21.620513
21.614021
21.614145
21.614542
21.615516
21.617212
21.619312
21.620867
21.621111
21.620255
21.613275
21.61342
21.61384
21.614872
21.616668
21.618836
21.620422
21.620669
21.619834
21.612882
21.613044
21.61348
21.614528
21.616356
21.618569
21.620179
21.620412
21.619567
21.612882
21.613044
21.613479
21.614528
21.616356
21.618568
21.620178
21.620412
21.619567
21.613274
21.613419
21.61384
21.614871
21.616668
21.618835
21.620422
21.620668
21.619833
21.61402
21.614144
21.614541
21.615515
21.617211
21.619311
21.620866
21.62111
21.620254
21.614979
21.615085
21.615452
21.616375
21.617995
21.620006
21.621454
21.621626
21.620512
21.615991
21.616067
21.616394
21.617272
21.618877
21.620766
21.62191
21.621743
21.620423
21.616738
21.616778
21.617047
21.617843
21.61931
21.620893
21.621703
21.621351
21.620166
21.617197
21.617205
21.617405
21.618041
21.619191
21.620459
21.621152
21.620889
21.619853
21.617632
21.617606
21.617736
21.618228
21.619136
21.62015
21.620709
21.620468
21.619533
21.617984
21.617933
21.618007
21.618383
21.619108
21.619922
21.620354
21.620099
21.619252
21.618364
21.618287
21.618308
21.61858
21.619141
21.619775
21.620088
21.619811
21.619067
21.618844
21.618748
21.618715
21.618863
21.619226
21.619645
21.61982
21.619533
21.618964
21.618929
21.618813
21.618717
21.618745
21.618929
21.619182
21.619303
21.619081
21.618779
20.643618
20.643615
20.643578
20.643466
20.643277
20.643071
20.642962
20.642986
20.643042
20.642934
20.642952
20.642943
20.642859
20.642708
20.642558
20.642516
20.642618
20.642762
20.642065
20.6421
20.642109
20.642044
20.641926
20.641838
20.641889
20.642104
20.642354
20.641217
20.641266
20.641287
20.641228
20.641121
20.641074
20.641211
20.641558
20.641947
20.640402
20.640463
20.640491
20.640431
20.640326
20.640308
20.640533
20.641019
20.64156
20.639651
20.639722
20.639751
20.639674
20.639533
20.639514
20.639831
20.640491
20.641195
20.639103
20.639177
20.639196
20.639067
20.638797
20.638705
20.639107
20.639977
20.640867
20.638982
20.639054
20.639069
20.638944
20.638705
20.638541
20.638797
20.63957
20.640604
20.639265
20.639337
20.639368
20.639297
20.63919
20.639097
20.639214
20.639686
20.640487
20.639684
20.63976
20.639809
20.639783
20.639699
20.639648
20.639794
20.640193
20.640651
20.640024
20.640104
20.64017
20.640158
20.64009
20.640059
20.640216
20.640588
20.64094
20.640206
20.640284
20.640354
20.640355
20.640307
20.640286
20.640435
20.640785
20.641112
20.640206
20.640284
20.640354
20.640355
20.640306
20.640286
20.640434
20.640785
20.641112
20.640024
20.640103
20.640169
20.640157
20.640089
20.640059
20.640215
20.640588
20.64094
20.639683
20.639759
20.639808
20.639781
20.639697
20.639646
20.639793
20.640192
20.64065
20.639264
20.639335
20.639367
20.639296
20.639188
20.639095
20.639212
20.639685
20.640486
20.63898
20.639052
20.639067
20.638942
20.638702
20.638539
20.638795
20.639568
20.640603
20.6391
20.639175
20.639193
20.639064
20.638793
20.638701
20.639104
20.639975
20.640865
20.639648
20.639718
20.639748
20.63967
20.639529
20.63951
20.639827
20.640487
20.641192
20.640398
20.640459
20.640487
20.640427
20.640321
20.640304
20.640529
20.641015
20.641557
20.641212
20.641262
20.641282
20.641222
20.641116
20.641069
20.641206
20.641553
20.641943
20.642059
20.642094
20.642103
20.642039
20.64192
20.641832
20.641883
20.642099
20.64235
20.642927
20.642946
20.642936
20.642852
20.642701
20.642551
20.642509
20.642612
20.642756
20.643611
20.643608
20.643571
20.643459
20.64327
20.643064
20.642955
20.642979
20.643035
19.550322
19.550302
19.550283
19.550281
19.550294
19.550295
19.550245
19.550116
19.549976
19.550171
19.550155
19.550147
19.550168
19.550215
19.550249
19.550212
19.550071
19.549882
19.549974
19.54996
19.54996
19.55
19.550078
19.550148
19.550134
19.549995
19.549778
19.549801
19.549789
19.549796
19.549849
19.549949
19.550043
19.550046
19.549917
19.549692
19.549629
19.549621
19.549635
19.549702
19.549823
19.549941
19.549964
19.549847
19.549626
19.549435
19.549432
19.549455
19.549538
19.549681
19.549826
19.549875
19.549778
19.549568
19.549237
19.549239
19.549269
19.549363
19.549523
19.549697
19.549779
19.549703
19.549512
19.549053
19.549057
19.549092
19.549198
19.549379
19.54959
19.5497
19.549623
19.549456
19.548868
19.548874
19.548913
19.549023
19.549213
19.549425
19.549565
19.549543
19.5494
19.54867
19.548679
19.548717
19.54882
19.548994
19.549191
19.549369
19.549453
19.549352
19.548505
19.548515
19.548552
19.548647
19.548805
19.549007
19.54921
19.549352
19.549309
19.548417
19.548427
19.548463
19.548554
19.548708
19.548913
19.549123
19.549277
19.549279
19.548417
19.548426
19.548462
19.548554
19.548707
19.548913
19.549123
19.549277
19.549279
19.548504
19.548514
19.548551
19.548646
19.548804
19.549006
19.54921
19.549351
19.549308
19.548669
19.548678
19.548716
19.548819
19.548993
19.549189
19.549368
19.549452
19.549351
19.548866
19.548873
19.548911
19.549021
19.549211
19.549423
19.549563
19.549541
19.549399
19.54905
19.549055
19.54909
19.549195
19.549376
19.549587
19.549697
19.549621
19.549455
19.549234
19.549236
19.549265
19.549359
19.549519
19.549693
19.549776
19.5497
19.54951
19.549431
19.549428
19.549451
19.549533
19.549676
19.549821
19.549871
19.549774
19.549565
19.549624
19.549616
19.549629
19.549696
19.549817
19.549935
19.549958
19.549843
19.549622
19.549794
19.549783
19.549789
19.549842
19.549942
19.550036
19.55004
19.549911
19.549687
19.549966
19.549952
19.549952
19.549992
19.55007
19.55014
19.550126
19.549988
19.549771
19.550162
19.550146
19.550138
19.550159
19.550206
19.55024
19.550203
19.550062
19.549874
19.550312
19.550292
19.550273
19.550272
19.550284
19.550285
19.550235
19.550105
19.549966
18.511837
18.511841
18.511839
18.511821
18.511784
18.511742
18.51172
18.511731
18.511751
18.511706
18.511715
18.511718
18.511704
18.511672
18.511639
18.511631
18.511661
18.511706
18.511536
18.511548
18.511555
18.511544
18.511517
18.511494
18.511505
18.511559
18.511629
18.511364
18.511379
18.511388
18.511378
18.511352
18.511337
18.511366
18.511448
18.511551
18.511191
18.511209
18.51122
18.51121
18.511186
18.511178
18.511226
18.511338
18.511472
18.511022
18.511041
18.511053
18.511043
18.51102
18.511018
18.511085
18.51123
18.511396
18.51087
18.510891
18.510903
18.510891
18.510863
18.51086
18.510943
18.511126
18.511325
18.51075
18.510771
18.510782
18.510767
18.510731
18.510712
18.510805
18.511034
18.511264
18.510676
18.510697
18.510708
18.51069
18.510655
18.510656
18.510754
18.510975
18.511218
18.510649
18.51067
18.510682
18.510671
18.510652
18.510686
18.510786
18.510952
18.511189
18.510644
18.510664
18.510678
18.510674
18.510674
18.510714
18.510817
18.510964
18.511177
18.510642
18.510662
18.510676
18.510675
18.510681
18.510725
18.510835
18.51099
18.511176
18.510642
18.510662
18.510676
18.510675
18.510681
18.510725
18.510834
18.51099
18.511176
18.510643
18.510663
18.510677
18.510673
18.510673
18.510713
18.510816
18.510964
18.511176
18.510648
18.510668
18.51068
18.51067
18.51065
18.510685
18.510785
18.510951
18.511189
18.510675
18.510695
18.510705
18.510688
18.510652
18.510653
18.510751
18.510974
18.511218
18.510748
18.510768
18.510779
18.510763
18.510728
18.510708
18.510802
18.511032
18.511263
18.510867
18.510887
18.510899
18.510886
18.510859
18.510855
18.510939
18.511122
18.511323
18.511017
18.511036
18.511048
18.511037
18.511014
18.511012
18.51108
18.511225
18.511393
18.511185
18.511202
18.511213
18.511203
18.511179
18.511171
18.511219
18.511333
18.511469
18.511356
18.511371
18.51138
18.511369
18.511344
18.511329
18.511358
18.511442
18.511545
18.511526
18.511538
18.511545
18.511533
18.511506
18.511484
18.511495
18.511551
18.511622
18.511695
18.511703
18.511706
18.511692
18.51166
18.511627
18.511619
18.51165
18.511697
18.511824
18.511828
18.511826
18.511808
18.511771
18.511728
18.511707
18.511719
18.51174
17.445886
17.44588
17.445875
17.445875
17.44588
17.445884
17.445876
17.44585
17.445821
17.445851
17.445846
17.445843
17.445849
17.445861
17.445873
17.445869
17.445841
17.445802
17.445813
17.445808
17.445806
17.445816
17.445836
17.445855
17.445856
17.445827
17.445781
17.445783
17.445778
17.445778
17.445791
17.445816
17.44584
17.445844
17.445815
17.445764
17.445759
17.445754
17.445755
17.445771
17.4458
17.445829
17.445835
17.445806
17.445753
17.445734
17.44573
17.445733
17.445751
17.445785
17.445818
17.445827
17.4458
17.445746
17.445712
17.445709
17.445713
17.445734
17.445771
17.445808
17.44582
17.445795
17.445741
17.445693
17.445691
17.445696
17.445719
17.445758
17.445798
17.445814
17.44579
17.445737
17.445678
17.445676
17.445681
17.445706
17.445748
17.445792
17.445809
17.445786
17.445734
17.445665
17.445663
17.44567
17.445695
17.445737
17.44578
17.445798
17.445782
17.445731
17.445654
17.445652
17.445659
17.445684
17.445725
17.445764
17.445784
17.445773
17.445728
17.445648
17.445646
17.445653
17.445678
17.445717
17.445755
17.445775
17.445765
17.445725
17.445648
17.445646
17.445653
17.445678
17.445717
17.445754
17.445775
17.445765
17.445725
17.445653
17.445652
17.445659
17.445683
17.445724
17.445763
17.445783
17.445772
17.445728
17.445664
17.445662
17.445668
17.445693
17.445735
17.445778
17.445797
17.445781
17.445731
17.445676
17.445674
17.445679
17.445703
17.445745
17.445789
17.445807
17.445785
17.445733
17.445691
17.445688
17.445693
17.445715
17.445754
17.445794
17.445811
17.445788
17.445736
17.445709
17.445705
17.445709
17.445729
17.445766
17.445803
17.445816
17.445792
17.445739
17.445729
17.445724
17.445727
17.445745
17.445778
17.445811
17.445821
17.445796
17.445744
17.445751
17.445746
17.445747
17.445762
17.445791
17.44582
17.445827
17.445801
17.44575
17.445773
17.445768
17.445768
17.44578
17.445805
17.44583
17.445834
17.445807
17.445759
17.4458
17.445795
17.445793
17.445802
17.445822
17.445842
17.445844
17.445817
17.445774
17.445836
17.445831
17.445828
17.445833
17.445846
17.445858
17.445854
17.445828
17.445793
17.445868
17.445863
17.445858
17.445858
17.445863
17.445867
17.445859
17.445835
17.445808
16.39208
16.392082
16.392082
16.392079
16.39207
16.392059
16.392051
16.392049
16.392051
16.392047
16.39205
16.392051
16.392049
16.392041
16.392032
16.392027
16.39203
16.392038
16.392005
16.392009
16.392011
16.392009
16.392002
16.391996
16.391995
16.392004
16.392018
16.391963
16.391968
16.39197
16.391968
16.391962
16.391957
16.391961
16.391977
16.391998
16.391922
16.391926
16.391929
16.391927
16.391921
16.391918
16.391926
16.391949
16.391978
16.391881
16.391886
16.391889
16.391887
16.391881
16.39188
16.391892
16.391922
16.391958
16.391844
16.391849
16.391852
16.39185
16.391844
16.391843
16.391859
16.391896
16.391939
16.391811
16.391817
16.39182
16.391817
16.39181
16.39181
16.391828
16.391872
16.391922
16.391786
16.391791
16.391794
16.391791
16.391784
16.391782
16.391804
16.391853
16.391908
16.391769
16.391774
16.391777
16.391774
16.391768
16.39177
16.391795
16.391841
16.391898
16.391759
16.391764
16.391767
16.391764
16.39176
16.391767
16.391794
16.391838
16.391893
16.391754
16.391759
16.391762
16.39176
16.391757
16.391766
16.391794
16.39184
16.391891
16.391754
16.391759
16.391762
16.39176
16.391756
16.391765
16.391794
16.39184
16.391891
16.391758
16.391763
16.391766
16.391764
16.391759
16.391766
16.391793
16.391837
16.391893
16.391768
16.391773
16.391776
16.391773
16.391766
16.391768
16.391793
16.39184
16.391898
16.391784
16.391789
16.391792
16.391789
16.391781
16.39178
16.391802
16.391852
16.391908
16.391809
16.391814
16.391817
16.391813
16.391807
16.391806
16.391824
16.39187
16.391922
16.39184
16.391845
16.391848
16.391845
16.391838
16.391838
16.391854
16.391893
16.391938
16.391875
16.39188
16.391883
16.39188
16.391874
16.391873
16.391886
16.391918
16.391956
16.391914
16.391918
16.391921
16.391918
16.391912
16.391909
16.391919
16.391943
16.391975
16.391953
16.391957
16.391959
16.391957
16.39195
16.391946
16.391951
16.391969
16.391993
16.391992
16.391996
16.391998
16.391995
16.391989
16.391982
16.391983
16.391994
16.392011
16.392031
16.392034
16.392035
16.392032
16.392025
16.392016
16.392012
16.392017
16.392028
16.392062
16.392064
16.392064
16.392061
16.392052
16.392041
16.392033
16.392032
16.392037
15.333286
15.333285
15.333284
15.333283
15.333284
15.333285
15.333284
15.333278
15.333271
15.333275
15.333274
15.333274
15.333275
15.333277
15.333279
15.333278
15.333272
15.333263
15.333264
15.333263
15.333262
15.333264
15.333268
15.333272
15.333271
15.333264
15.333253
15.333254
15.333253
15.333253
15.333256
15.333261
15.333265
15.333264
15.333256
15.333244
15.333247
15.333246
15.333247
15.333249
15.333255
15.33326
15.333259
15.33325
15.333237
15.333241
15.333241
15.333241
15.333244
15.333251
15.333256
15.333255
15.333246
15.333232
15.333238
15.333237
15.333237
15.333241
15.333248
15.333255
15.333254
15.333245
15.333229
15.333235
15.333235
15.333235
15.33324
15.333248
15.333255
15.333256
15.333246
15.333229
15.333235
15.333234
15.333235
15.333239
15.333248
15.333257
15.333259
15.333249
15.333231
15.333235
15.333234
15.333235
15.33324
15.33325
15.33326
15.333262
15.333253
15.333234
15.333236
15.333235
15.333236
15.333241
15.333251
15.333262
15.333265
15.333255
15.333236
15.333237
15.333236
15.333237
15.333242
15.333252
15.333263
15.333266
15.333257
15.333237
15.333236
15.333235
15.333236
15.333241
15.333252
15.333263
15.333266
15.333256
15.333237
15.333235
15.333235
15.333235
15.33324
15.333251
15.333261
15.333264
15.333255
15.333236
15.333234
15.333233
15.333234
15.333239
15.333248
15.333258
15.333261
15.333252
15.333234
15.333233
15.333232
15.333233
15.333237
15.333246
15.333255
15.333257
15.333248
15.333231
15.333233
15.333232
15.333232
15.333236
15.333244
15.333252
15.333253
15.333244
15.333229
15.333234
15.333233
15.333233
15.333236
15.333243
15.333249
15.33325
15.333242
15.333229
15.333236
15.333235
15.333235
15.333238
15.333244
15.333249
15.333249
15.333242
15.33323
15.33324
15.333239
15.333239
15.333241
15.333246
15.333251
15.333251
15.333245
15.333234
15.333245
15.333243
15.333243
15.333245
15.33325
15.333255
15.333255
15.333249
15.33324
15.333251
15.33325
15.333249
15.333251
15.333255
15.333259
15.333259
15.333254
15.333246
15.33326
15.333259
15.333258
15.333259
15.333262
15.333264
15.333264
15.333259
15.333252
15.333269
15.333268
15.333267
15.333266
15.333267
15.333268
15.333267
15.333262
15.333257
14.276154
14.276154
14.276155
14.276154
14.276153
14.276151
14.276149
14.276149
14.27615
14.276151
14.276152
14.276152
14.276152
14.276151
14.276148
14.276147
14.276148
14.276151
14.276145
14.276146
14.276147
14.276147
14.276145
14.276144
14.276143
14.276145
14.27615
14.276139
14.27614
14.276141
14.276141
14.276139
14.276138
14.276139
14.276142
14.276148
14.276132
14.276134
14.276134
14.276134
14.276133
14.276133
14.276135
14.27614
14.276146
14.276126
14.276127
14.276128
14.276128
14.276127
14.276127
14.27613
14.276137
14.276144
14.276119
14.27612
14.276121
14.276121
14.276121
14.276121
14.276125
14.276133
14.276142
14.276113
14.276114
14.276115
14.276115
14.276114
14.276114
14.276118
14.276127
14.276139
14.276107
14.276108
14.276109
14.276109
14.276108
14.276108
14.276111
14.276121
14.276135
14.276102
14.276104
14.276105
14.276104
14.276103
14.276102
14.276106
14.276116
14.276131
14.276099
14.2761
14.276101
14.276101
14.276099
14.276098
14.276102
14.276113
14.276128
14.276097
14.276098
14.276099
14.276099
14.276097
14.276096
14.2761
14.276111
14.276126
14.276097
14.276098
14.276099
14.276099
14.276097
14.276095
14.276099
14.27611
14.276126
14.276099
14.2761
14.276101
14.2761
14.276098
14.276097
14.276101
14.276112
14.276128
14.276102
14.276103
14.276103
14.276103
14.276102
14.2761
14.276104
14.276115
14.276131
14.276106
14.276107
14.276108
14.276107
14.276106
14.276105
14.276109
14.27612
14.276135
14.276111
14.276112
14.276112
14.276112
14.276111
14.276111
14.276115
14.276125
14.276139
14.276116
14.276117
14.276117
14.276117
14.276116
14.276116
14.276121
14.27613
14.276141
14.276121
14.276122
14.276122
14.276122
14.27612
14.276121
14.276125
14.276133
14.276143
14.276125
14.276126
14.276127
14.276126
14.276125
14.276124
14.276127
14.276134
14.276143
14.27613
14.27613
14.276131
14.27613
14.276129
14.276128
14.27613
14.276135
14.276143
14.276134
14.276134
14.276134
14.276134
14.276133
14.276131
14.276132
14.276136
14.276142
14.276137
14.276137
14.276138
14.276137
14.276136
14.276134
14.276133
14.276136
14.276141
14.276138
14.276138
14.276139
14.276138
14.276137
14.276135
14.276133
14.276133
14.276136
13.218726
13.218726
13.218726
13.218726
13.218726
13.218726
13.218725
13.218725
13.218725
13.218727
13.218726
13.218726
13.218726
13.218727
13.218727
13.218727
13.218726
13.218725
13.218727
13.218727
13.218727
13.218728
13.218728
13.218729
13.218729
13.218729
13.218728
13.218729
13.218728
13.218728
13.218729
13.21873
13.218731
13.218732
13.218732
13.218731
13.21873
13.21873
13.21873
13.218731
13.218732
13.218734
13.218735
13.218735
13.218734
13.218731
13.218731
13.218731
13.218732
13.218734
13.218736
13.218738
13.218738
13.218737
13.218733
13.218733
13.218733
13.218734
13.218736
13.218738
13.21874
13.218741
13.218739
13.218734
13.218734
13.218734
13.218735
13.218737
13.21874
13.218742
13.218743
13.218742
13.218735
13.218735
13.218735
13.218736
13.218739
13.218742
13.218744
13.218745
13.218744
13.218736
13.218736
13.218736
13.218737
13.21874
13.218743
13.218746
13.218747
13.218746
13.218736
13.218736
13.218737
13.218738
13.21874
13.218744
13.218747
13.218748
13.218747
13.218737
13.218737
13.218737
13.218738
13.218741
13.218744
13.218747
13.218748
13.218748
13.218737
13.218736
13.218737
13.218738
13.21874
13.218744
13.218747
13.218748
13.218748
13.218736
13.218736
13.218736
13.218737
13.21874
13.218743
13.218746
13.218748
13.218747
13.218735
13.218735
13.218735
13.218736
13.218738
13.218741
13.218744
13.218746
13.218746
13.218734
13.218733
13.218733
13.218734
13.218736
13.218739
13.218742
13.218744
13.218744
13.218732
13.218731
13.218731
13.218732
13.218734
13.218737
13.218739
13.218741
13.218741
13.218729
13.218729
13.218729
13.21873
13.218731
13.218734
13.218736
13.218738
13.218738
13.218727
13.218726
13.218726
13.218727
13.218728
13.21873
13.218733
13.218734
13.218735
13.218724
13.218723
13.218723
13.218723
13.218724
13.218726
13.218728
13.21873
13.218731
13.21872
13.21872
13.218719
13.21872
13.218721
13.218722
13.218724
13.218725
13.218727
13.218717
13.218716
13.218716
13.218716
13.218717
13.218718
13.218719
13.21872
13.218722
13.218714
13.218713
13.218713
13.218713
13.218714
13.218714
13.218714
13.218715
13.218717
13.218712
13.218712
13.218711
13.218711
13.218711
13.218711
13.218711
13.218711
13.218713
12.161136
12.161136
12.161136
12.161136
12.161135
12.161135
12.161135
12.161134
12.161133
12.161133
12.161133
12.161134
12.161134
12.161134
12.161133
12.161133
12.161131
12.16113
12.161131
12.161131
12.161131
12.161131
12.161131
12.161131
12.16113
12.161129
12.161128
12.161128
12.161128
12.161128
12.161129
12.161129
12.161129
12.161128
12.161127
12.161126
12.161126
12.161126
12.161126
12.161126
12.161126
12.161126
12.161126
12.161125
12.161124
12.161123
12.161124
12.161124
12.161124
12.161124
12.161124
12.161124
12.161123
12.161122
12.161121
12.161122
12.161122
12.161122
12.161122
12.161122
12.161122
12.161121
12.16112
12.16112
12.16112
12.16112
12.16112
12.16112
12.16112
12.16112
12.161119
12.161118
12.161118
12.161119
12.161119
12.161119
12.161119
12.161119
12.161119
12.161118
12.161117
12.161117
12.161118
12.161118
12.161118
12.161118
12.161118
12.161117
12.161117
12.161116
12.161117
12.161117
12.161117
12.161117
12.161117
12.161117
12.161117
12.161116
12.161116
12.161116
12.161116
12.161116
12.161116
12.161116
12.161116
12.161116
12.161116
12.161115
12.161116
12.161116
12.161116
12.161116
12.161116
12.161116
12.161116
12.161116
12.161115
12.161116
12.161116
12.161116
12.161116
12.161116
12.161116
12.161116
12.161116
12.161116
12.161116
12.161117
12.161117
12.161117
12.161117
12.161116
12.161116
12.161116
12.161116
12.161117
12.161117
12.161117
12.161117
12.161117
12.161117
12.161117
12.161117
12.161117
12.161118
12.161118
12.161118
12.161118
12.161118
12.161118
12.161117
12.161117
12.161118
12.161118
12.161118
12.161118
12.161118
12.161118
12.161118
12.161118
12.161118
12.161119
12.161119
12.161119
12.161119
12.161119
12.161119
12.161119
12.161119
12.161119
12.16112
12.16112
12.16112
12.16112
12.16112
12.16112
12.16112
12.16112
12.16112
12.161121
12.161121
12.161121
12.161121
12.161121
12.161121
12.161121
12.161121
12.161121
12.161122
12.161122
12.161122
12.161122
12.161122
12.161122
12.161122
12.161122
12.161122
12.161122
12.161123
12.161123
12.161123
12.161123
12.161123
12.161123
12.161122
12.161122
12.161122
12.161124
12.161124
12.161124
12.161124
12.161123
12.161123
12.161123
12.161122
12.161123
11.103742
11.103742
11.103742
11.103742
11.103741
11.103741
11.103742
11.103742
11.103741
11.10374
11.10374
11.10374
11.103741
11.10374
11.10374
11.10374
11.10374
11.10374
11.103739
11.103739
11.103739
11.103739
11.103739
11.103739
11.103739
11.103739
11.103739
11.103737
11.103738
11.103738
11.103738
11.103738
11.103738
11.103738
11.103738
11.103738
11.103736
11.103736
11.103736
11.103736
11.103736
11.103736
11.103736
11.103737
11.103737
11.103735
11.103735
11.103735
11.103735
11.103735
11.103735
11.103735
11.103736
11.103736
11.103734
11.103734
11.103734
11.103734
11.103734
11.103734
11.103734
11.103735
11.103736
11.103733
11.103733
11.103733
11.103733
11.103733
11.103733
11.103734
11.103734
11.103735
11.103732
11.103732
11.103732
11.103732
11.103732
11.103732
11.103733
11.103734
11.103734
11.103732
11.103732
11.103732
11.103732
11.103732
11.103732
11.103732
11.103733
11.103734
11.103731
11.103731
11.103731
11.103731
11.103731
11.103731
11.103732
11.103733
11.103734
11.103731
11.103731
11.103731
11.103731
11.103731
11.103731
11.103732
11.103732
11.103733
11.103731
11.103731
11.103731
11.103731
11.103731
11.103731
11.103731
11.103732
11.103733
11.103731
11.103731
11.103731
11.10373
11.10373
11.103731
11.103731
11.103732
11.103733
11.103731
11.103731
11.103731
11.10373
11.10373