/*--------------------------------*- C++ -*----------------------------------*\
| =========                 |                                                 |
| \\      /  F ield         | OpenFOAM: The Open Source CFD Toolbox           |
|  \\    /   O peration     | Version:  2406                                  |
|   \\  /    A nd           | Website:  www.openfoam.com                      |
|    \\/     M anipulation  |                                                 |
\*---------------------------------------------------------------------------*/
FoamFile
{
    version     2.0;
    format      ascii;
    arch        "LSB;label=32;scalar=64";
    class       surfaceScalarField;
    location    "2.75";
    object      phi;
}
// * * * * * * * * * * * * * * * * * * * * * * * * * * * * * * * * * * * * * //

dimensions      [0 3 -1 0 0 0 0];

oriented        oriented;

internalField   nonuniform List<scalar> 
101088
(
0.0001554025
-2.3636789e-05
1.7780449e-05
2.0503543e-05
0.00032910035
-0.00010106352
7.643489e-05
8.8897163e-05
0.00049747822
-0.0002414691
0.00018222036
0.00021453087
0.00062798045
-0.00045427687
0.00033914848
0.00040749818
0.00069578614
-0.00071568276
0.00052192972
0.00064898052
0.0007044781
-0.00096000797
0.00067368509
0.00088015781
0.00068489215
-0.0011129678
0.00073717865
0.001032124
0.00066912744
-0.0011404271
0.00069735259
0.001069993
-0.0010502299
0.00058437391
0.00099583806
0.00067121981
0.00018891039
-2.6170818e-05
2.2224541e-05
0.00039504568
-0.00011033292
9.4663463e-05
0.00058595368
-0.00026020874
0.00022382669
0.00071868196
-0.00048296348
0.00041291733
0.00076387056
-0.00075089348
0.00062975358
0.00073078154
-0.00099486948
0.00080716529
0.00066297414
-0.0011405939
0.00088216773
0.00060157482
-0.001155576
0.00084109704
-0.0010526637
0.0007178743
0.00056422669
0.00022230256
-2.7751461e-05
2.67871e-05
0.00045961353
-0.00011542056
0.00011310529
0.00067137183
-0.00026907733
0.00026526854
0.00080675736
-0.00049341872
0.00048502238
0.00083384566
-0.00075718544
0.00073286826
0.00076762679
-0.00098992869
0.00093190879
0.00066159215
-0.0011209034
0.0010147209
0.00056393041
-0.0011213253
0.00097006665
-0.001009281
0.00083654161
0.00049484877
0.0002546712
-2.8303838e-05
3.1365807e-05
0.00052177024
-0.00011622674
0.0001313301
0.0007530296
-0.00026804273
0.00030560252
0.00089068139
-0.00048602534
0.00055405846
0.00090188607
-0.00073657282
0.00082991156
0.00080821193
-0.00094997154
0.0010473196
0.00067166043
-0.0010609852
0.0011354501
0.00054601692
-0.0010462283
0.0010858131
-0.00092973355
0.00094146625
0.00045392649
0.00028504008
-2.76004e-05
3.5769262e-05
0.00057951349
-0.00011232815
0.00014869689
0.00082831768
-0.00025702939
0.0003437021
0.00096796347
-0.0004619388
0.0006187012
0.00096551375
-0.0006922581
0.00091996848
0.0008488516
-0.0008805186
0.0011534172
0.00068720737
-0.00096806149
0.001245323
0.00053924674
-0.00093853526
0.0011898687
-0.0008220568
0.0010344351
0.00042937377
0.00031332613
-2.5967359e-05
3.9951776e-05
0.00063353893
-0.00010482942
0.00016505981
0.00089921792
-0.00023814687
0.00037935906
0.0010415247
-0.00042436083
0.00067879284
0.0010271702
-0.0006284508
0.0010032281
0.0008898161
-0.00078675496
0.0012509006
0.00070549916
-0.00084826769
0.001345481
0.00053833394
-0.00080565091
0.0012836434
-0.00069373927
0.0011170464
0.00041391702
0.00033819263
-2.3385771e-05
4.3814556e-05
0.00068038795
-9.3828271e-05
0.00018008627
0.00095951634
-0.00021198
0.00041197719
0.001102211
-0.00037493341
0.00073357112
0.0010753461
-0.00054857465
0.0010789865
0.00091844885
-0.00067439316
0.0013393391
0.00071436996
-0.00070974704
0.0014358431
0.00053231854
-0.00065745149
0.0013675376
-0.00055515063
0.001190245
0.00039841915
0.00035937354
-1.9938205e-05
4.7255415e-05
0.00071972745
-7.9670977e-05
0.00019349565
0.0010087409
-0.0001793333
0.00044121279
0.001148764
-0.00031522935
0.00078301471
0.0011073526
-0.00045561002
0.0011475911
0.00093053148
-0.00054873558
0.0014194897
0.00070904133
-0.00056104709
0.0015174381
0.00051642227
-0.0005045831
0.001442861
-0.00041657578
0.0012554703
0.00037749923
0.00037654127
-1.5716322e-05
5.0202121e-05
0.00075092783
-6.2697109e-05
0.00020506106
0.0010458771
-0.00014086416
0.00046668631
0.0011795488
-0.00024638737
0.00082665955
0.001120804
-0.00035191961
0.0012086038
0.00092341647
-0.00041476178
0.0014909533
0.00068723641
-0.00041076932
0.0015899799
0.00048850117
-0.00035738268
0.0015096165
-0.00028777241
0.0013130738
0.00034891661
0.00038953884
-1.0905188e-05
5.2577088e-05
0.00077392652
-4.346235e-05
0.00021448434
0.0010712891
-9.7482692e-05
0.0004877234
0.0011958075
-0.00016972549
0.00086327428
0.0011179759
-0.00023979738
0.0012604515
0.00090071313
-0.00027682324
0.0015514792
0.00065309426
-0.00026582178
0.0016512439
0.00045228891
-0.0002237152
0.0015660594
-0.00017593102
0.0013618527
0.00031562597
0.00039802376
-5.5990285e-06
5.431098e-05
0.00078812185
-2.2276758e-05
0.00022136553
0.0010848767
-4.9911723e-05
0.00050313706
0.0011995579
-8.6645728e-05
0.00089027782
0.0011044573
-0.00012148117
0.0012989898
0.00087105995
-0.00013804997
0.0015964186
0.00061620373
-0.00012946095
0.0016964926
0.00041626696
-0.00010617163
0.0016081727
-8.1974096e-05
0.00139811
0.00028393416
0.00040228882
-3.6562042e-11
5.5165036e-05
0.00079515551
-1.4894449e-10
0.00022484921
0.0010911312
-3.8759942e-10
0.00051116291
0.0011996772
-8.6537673e-10
0.00090474106
0.0010941239
-1.3905308e-09
0.0013201116
0.000851157
-2.0074145e-09
0.0016216184
0.00059251367
-2.4449175e-09
0.0017219478
0.00039378844
-2.48394e-09
0.0016317784
-1.7353332e-09
0.0014181876
0.00026469102
0.00040228879
5.5989646e-06
5.5165026e-05
0.00079515537
2.2276479e-05
0.00022484917
0.0010911312
4.9910991e-05
0.00051116281
0.0011996774
8.6644094e-05
0.00090474087
0.0010941239
0.00012147855
0.0013201113
0.00085115705
0.00013804621
0.0016216181
0.00059251379
0.00012945644
0.0017219475
0.00039378877
0.00010616692
0.0016317781
8.1970567e-05
0.0014181874
0.00026469145
0.00039802377
1.0905132e-05
5.4310977e-05
0.00078812172
4.3462121e-05
0.00022136552
0.0010848768
9.748212e-05
0.000503137
0.0011995586
0.00016972416
0.00089027762
0.0011044577
0.00023979519
0.0012989896
0.00087106029
0.00027682009
0.0015964183
0.00061620406
0.00026581811
0.0016964921
0.00041626779
0.00022371105
0.0016081723
0.00017592725
0.0013981095
0.00028393514
0.00038953895
1.5716276e-05
5.2577074e-05
0.0007739265
6.2696904e-05
0.00021448428
0.0010712889
0.0001408637
0.00048772324
0.0011958081
0.00024638627
0.00086327388
0.0011179764
0.00035191762
0.0012604512
0.00090071369
0.00041475892
0.0015514787
0.00065309449
0.00041076607
0.0016512434
0.00045228974
0.00035737885
0.0015660588
0.00028776819
0.001361852
0.00031562688
0.00037654174
1.9938191e-05
5.0202109e-05
0.00075092836
7.9670779e-05
0.000205061
0.001045877
0.00017933287
0.0004666862
0.0011795497
0.00031522836
0.0008266593
0.001120805
0.00045560794
0.0012086036
0.00092341747
0.00054873249
0.001490953
0.00068723646
0.00056104339
0.0015899796
0.00048850156
0.00050457909
0.0015096161
0.00041657128
0.0013130731
0.00034891717
0.00035937387
2.3385749e-05
4.7255412e-05
0.00071972798
9.3828117e-05
0.00019349563
0.0010087411
0.00021197969
0.00044121278
0.0011487657
0.00037493268
0.00078301466
0.0011073543
0.00054857268
0.0011475911
0.00093053283
0.00067438986
0.0014194896
0.0007090414
0.0007097427
0.0015174381
0.00051642223
0.00065744736
0.0014428608
0.00055514611
0.0012554698
0.0003774994
0.00033819301
2.5967353e-05
4.3814558e-05
0.00068038876
0.00010482941
0.00018008628
0.00095951677
0.00023814652
0.00041197722
0.0011022122
0.00042435993
0.00073357112
0.0010753474
0.00062844887
0.0010789865
0.00091845004
0.00078675179
0.0013393391
0.00071437034
0.00084826373
0.0014358432
0.00053231822
0.00080564744
0.0013675376
0.00069373451
0.0011902447
0.0003984183
0.0003133266
2.7600347e-05
3.9951783e-05
0.0006335398
0.00011232792
0.00016505984
0.00089921814
0.00025702861
0.00037935913
0.0010415251
0.00046193755
0.00067879295
0.0010271711
0.00069225634
0.0010032282
0.00088981727
0.00088051603
0.0012509009
0.00070550008
0.00096805887
0.0013454813
0.00053833332
0.00093853277
0.0012836435
0.0008220521
0.0011170464
0.00041391459
0.0002850402
2.8303764e-05
3.576926e-05
0.00057951385
0.00011622649
0.00014869688
0.00082831785
0.00026804227
0.00034370206
0.00096796356
0.00048602481
0.00061870116
0.00096551397
0.00073657202
0.00091996842
0.00084885269
0.00094996976
0.0011534171
0.00068720828
0.0010609826
0.0012453231
0.0005392456
0.0010462256
0.0011898688
0.00092973135
0.0010344351
0.00042937008
0.00025467124
2.7751403e-05
3.1365801e-05
0.00052177052
0.00011542034
0.00013133007
0.00075302973
0.0002690768
0.00030560244
0.00089068065
0.00049341775
0.00055405834
0.00090188494
0.0007571842
0.00082991137
0.00080821162
0.00098992689
0.0010473194
0.00067166013
0.0011209007
0.00113545
0.00054601581
0.001121323
0.0010858131
0.0010092814
0.00094146626
0.00045392251
0.00022230245
2.617075e-05
2.6787093e-05
0.00045961333
0.00011033267
0.00011310526
0.00067137143
0.00026020823
0.00026526845
0.00080675629
0.00048296261
0.00048502223
0.0008338436
0.00075089235
0.00073286809
0.00076762414
0.00099486795
0.00093190863
0.00066158954
0.0011405915
0.0010147207
0.00056392971
0.0011555753
0.00097006644
0.001052665
0.00083654161
0.00049484485
0.00018891028
2.3636755e-05
2.2224542e-05
0.0003950454
0.0001010634
9.4663461e-05
0.00058595312
0.00024146886
0.00022382667
0.0007186808
0.00045427645
0.0004129173
0.000763868
0.00071568229
0.00062975353
0.00073077752
0.00096000752
0.00080716526
0.00066296954
0.0011129666
0.00088216769
0.0006015709
0.0011404274
0.00084109704
0.0010502312
0.00071787425
0.00056422271
0.00015540245
1.7780453e-05
2.0503575e-05
0.00032910003
7.6434901e-05
8.8897277e-05
0.00049747716
0.00018222038
0.00021453114
0.0006279784
0.0003391485
0.00040749872
0.00069578259
0.00052192974
0.00064898127
0.00070447276
0.00067368516
0.00088015822
0.00068488707
0.00073717871
0.0010321234
0.00066912348
0.00069735285
0.0010699928
0.00058437399
0.00099583653
0.00067122067
2.7650684e-06
-3.9076102e-06
1.6316884e-05
2.6061047e-06
1.2656322e-05
-2.0419891e-05
7.2525253e-05
1.4438305e-05
3.3319958e-05
-5.9656168e-05
0.00017725958
4.3953387e-05
6.8168448e-05
-0.00013825152
0.00033708215
0.00010546944
0.00011594949
-0.00026525004
0.00053016927
0.00020922945
0.00016824619
-0.00042038892
0.0006993288
0.00034244848
0.00021830808
-0.00055291254
0.00077998506
0.000460044
0.00026445359
-0.0006190314
0.00074805494
0.00052218362
-0.00060881928
0.00063084808
0.00052196965
0.00030482883
3.6662167e-06
-4.974214e-06
1.962499e-05
1.6678924e-05
-2.5813066e-05
8.7044176e-05
4.2923445e-05
-7.4263551e-05
0.00021219011
8.4142975e-05
-0.00016841628
0.00040186356
0.00013492932
-0.00031504247
0.00062876074
0.00018325066
-0.00048684266
0.00082529796
0.00022086109
-0.00062742278
0.0009190678
0.00024842625
-0.00069190806
0.00088640816
-0.00067226901
0.00075993938
0.00026981149
4.9366685e-06
-5.9274347e-06
2.2803619e-05
2.1834173e-05
-3.0580419e-05
0.00010097508
5.4292674e-05
-8.697864e-05
0.00024552527
0.00010201582
-0.0001940803
0.00046296357
0.00015546612
-0.00035556253
0.00071993801
0.00019928227
-0.00053738218
0.00093863261
0.00022554589
-0.00067925981
0.001040294
0.00023803052
-0.000738018
0.0010036915
-0.00070963412
0.00086787003
0.00024406698
6.4057603e-06
-6.7846424e-06
2.5817314e-05
2.7803778e-05
-3.4767019e-05
0.00011411884
6.7400851e-05
-9.7734091e-05
0.00027676149
0.00012200227
-0.00021424307
0.00051962057
0.00017786004
-0.00038473929
0.00080323037
0.00021716545
-0.0005695432
0.0010401756
0.0002333974
-0.00070657902
0.0011465365
0.00023340397
-0.00075652161
0.0011043099
-0.00071982661
0.00095871607
0.00022634658
7.8783845e-06
-7.4284683e-06
2.8534704e-05
3.3676272e-05
-3.7880144e-05
0.00012601213
8.0217534e-05
-0.00010563406
0.00030506091
0.00014133988
-0.00022751885
0.00057085439
0.00019947247
-0.00040099793
0.00087809527
0.00023478925
-0.00058195273
0.0011305089
0.00024237921
-0.00070861657
0.0012397702
0.00023198307
-0.00074744653
0.0011911894
-0.00070346736
0.0010356849
0.00021437339
9.402886e-06
-7.8623821e-06
3.0982757e-05
3.9641545e-05
-3.9795684e-05
0.0001367366
9.2847056e-05
-0.00011005384
0.00033057365
0.00016071146
-0.00023355192
0.00061696102
0.00022122199
-0.00040344205
0.0009451619
0.00025264896
-0.00057327059
0.0012107914
0.00025196245
-0.00068416449
0.0013217153
0.00023202769
-0.00071028719
0.0012664183
-0.00066088967
0.0011010758
0.00020542032
1.0738124e-05
-7.945776e-06
3.3159834e-05
4.4721693e-05
-3.9946966e-05
0.00014625373
0.00010303432
-0.00010955937
0.00035316971
0.00017576825
-0.00023043669
0.00065772135
0.0002364831
-0.00038941963
0.0010042484
0.00026295617
-0.00054142709
0.0012810218
0.00025463067
-0.00063269661
0.0013927008
0.00022707654
-0.00064594517
0.0013307496
-0.00059406856
0.0011562077
0.00019429301
1.190753e-05
-7.6256014e-06
3.502741e-05
4.9010742e-05
-3.8022512e-05
0.00015446809
0.00011113915
-0.00010326005
0.00037278557
0.00018501728
-0.00021462432
0.00069332397
0.00024256039
-0.00035542374
0.0010560522
0.00026236442
-0.00048413638
0.0013423945
0.00024685999
-0.00055395159
0.001454198
0.00021374648
-0.00055582691
0.0013858562
-0.00050531063
0.0012028399
0.00017761934
1.2692192e-05
-6.7001499e-06
3.6583923e-05
5.1517136e-05
-3.3162714e-05
0.00016137605
0.00011465881
-8.914413e-05
0.00038942919
0.00018566861
-0.00018276854
0.00072379339
0.0002376021
-0.00029942539
0.0011006726
0.000248806
-0.00039961897
0.0013952324
0.00022640397
-0.00044828448
0.0015067154
0.00018996771
-0.00044221195
0.0014324375
-0.00039757252
0.0012418447
0.00015345889
1.3205484e-05
-5.1475597e-06
3.7818854e-05
5.2793993e-05
-2.5181799e-05
0.000166915
0.00011544051
-6.6963514e-05
0.00040289679
0.00018292443
-0.00013560544
0.00074862667
0.0002251804
-0.00021843087
0.0011372015
0.00022464131
-0.00028606587
0.0014384656
0.00019543517
-0.00031719999
0.0015493659
0.00015741716
-0.00030807049
0.0014699355
-0.00027369547
0.0012729994
0.00012239348
1.3274801e-05
-2.8709266e-06
3.8759636e-05
5.227255e-05
-1.3860468e-05
0.00017104657
0.00011210367
-3.644495e-05
0.00041278774
0.00017317604
-7.3036193e-05
0.00076663619
0.000206859
-0.00011646758
0.0011633439
0.00019824505
-0.00015013814
0.001469105
0.00016207789
-0.00016395311
0.0015794128
0.00012427557
-0.00015827489
0.0014961792
-0.00013937535
0.0012946849
9.3380693e-05
1.3100172e-05
9.3940292e-12
3.9194005e-05
5.1044288e-05
1.5958338e-11
0.00017304458
0.0001080242
5.5031838e-11
0.00041773805
0.00016385211
3.1688151e-11
0.00077587725
0.00019054712
-8.7427567e-11
0.0011769492
0.00017689706
-3.1437999e-10
0.0014851306
0.00013971723
-3.8634641e-10
0.0015951749
0.00010321809
-1.0972942e-10
0.0015100029
6.5702184e-10
0.0013060991
7.5931094e-05
1.310016e-05
2.8709519e-06
3.9193997e-05
5.104435e-05
1.3860529e-05
0.00017304455
0.00010802416
3.6445109e-05
0.00041773796
0.00016385211
7.3036204e-05
0.00077587709
0.00019054703
0.00011646727
0.001176949
0.00017689702
0.00015013744
0.0014851304
0.00013971731
0.00016395247
0.0015951747
0.00010321832
0.00015827472
0.0015100027
0.00013937648
0.0013060989
7.5931358e-05
1.3274825e-05
5.1475726e-06
3.8759631e-05
5.2272635e-05
2.5181837e-05
0.00017104655
0.0001121034
6.6963621e-05
0.00041278768
0.00017317616
0.00013560527
0.00076663603
0.00020685895
0.00021843032
0.0011633438
0.00019824501
0.00028606514
0.0014691047
0.00016207811
0.00031719955
0.0015794125
0.00012427617
0.00030807027
0.001496179
0.00027369603
0.0012946846
9.3381293e-05
1.3205746e-05
6.7001679e-06
3.781884e-05
5.2794244e-05
3.3162779e-05
0.00016691493
0.00011544013
8.9144208e-05
0.00040289664
0.0001829249
0.00018276828
0.00074862634
0.0002251806
0.00029942472
0.0011372012
0.00022464142
0.00039961817
0.0014384652
0.00019543535
0.00044828386
0.0015493654
0.00015741785
0.00044221131
0.0014699351
0.00039757221
0.0012729989
0.00012239409
1.2692777e-05
7.6256619e-06
3.658391e-05
5.151783e-05
3.8022729e-05
0.000161376
0.00011465878
0.00010326023
0.00038942909
0.00018566934
0.00021462408
0.00072379317
0.00023760238
0.00035542295
0.0011006725
0.00024880627
0.0004841353
0.0013952322
0.00022640392
0.00055395043
0.0015067152
0.00018996814
0.00055582561
0.0014324373
0.0005053095
0.0012418442
0.00015345942
1.1907903e-05
7.9458041e-06
3.5027404e-05
4.9011064e-05
3.9947094e-05
0.00015446806
0.000111139
0.00010955937
0.00037278555
0.00018501764
0.00023043622
0.0006933239
0.00024256055
0.0003894188
0.0010560522
0.00026236475
0.00054142604
0.0013423945
0.00024685971
0.00063269517
0.001454198
0.0002137466
0.00064594351
0.0013858561
0.00059406685
0.0012028395
0.00017761982
1.0738129e-05
7.8624058e-06
3.3159836e-05
4.4721816e-05
3.979585e-05
0.00014625374
0.0001030344
0.00011005404
0.00035316975
0.00017576841
0.00023355178
0.00065772136
0.00023648315
0.00040344184
0.0010042484
0.00026295631
0.00057327007
0.0012810217
0.00025463025
0.00068416344
0.0013927009
0.00022707643
0.00071028562
0.0013307496
0.0006608873
0.0011562075
0.00019429303
9.4029425e-06
7.4284596e-06
3.0982763e-05
3.9641683e-05
3.7880198e-05
0.00013673662
9.2846787e-05
0.00010563418
0.0003305737
0.00016071139
0.00022751894
0.00061696106
0.00022122155
0.00040099794
0.00094516195
0.00025264859
0.00058195242
0.0012107915
0.00025196197
0.00070861598
0.0013217155
0.00023202733
0.00074744522
0.0012664185
0.00070346463
0.0011010758
0.00020541954
7.8783193e-06
6.784668e-06
2.85347e-05
3.3676073e-05
3.4767116e-05
0.00012601211
8.0217048e-05
9.7734316e-05
0.00030506086
0.00014133941
0.00021424335
0.00057085432
0.00019947128
0.00038473916
0.0008780952
0.00023478862
0.00056954326
0.0011305088
0.00024237864
0.00070657852
0.0012397702
0.00023198207
0.00075652046
0.0011911895
0.00071982485
0.0010356849
0.00021437169
6.4057505e-06
5.9274129e-06
2.5817307e-05
2.7803809e-05
3.0580395e-05
0.00011411881
6.7400663e-05
8.6978678e-05
0.00027676142
0.00012200164
0.00019408042
0.00051962046
0.00017785924
0.00035556264
0.00080323018
0.00021716424
0.00053738217
0.0010401754
0.00023339636
0.00067925967
0.0011465364
0.00023340258
0.00073801716
0.0011043098
0.00070963358
0.00095871608
0.00022634463
4.9367077e-06
4.9741988e-06
2.2803612e-05
2.1834289e-05
2.5813054e-05
0.00010097504
5.4292542e-05
7.4263564e-05
0.00024552519
0.000102015
0.00016841632
0.00046296345
0.00015546484
0.00031504251
0.00071993785
0.00019928071
0.00048684261
0.00093863245
0.00022554434
0.00062742271
0.0010402938
0.00023802906
0.00069190784
0.0010036913
0.0006722698
0.00086786995
0.00024406475
3.6661976e-06
3.9075896e-06
1.9624989e-05
1.6678782e-05
2.0419837e-05
8.7044168e-05
4.2922768e-05
5.9656099e-05
0.00021219009
8.4141379e-05
0.00013825148
0.00040186351
0.00013492697
0.00026525008
0.00062876066
0.00018324791
0.00042038939
0.00082529788
0.00022085752
0.00055291247
0.00091906773
0.00024842335
0.00061903247
0.00088640806
0.00060882079
0.00075993926
0.00026980925
2.7650036e-06
1.6316887e-05
2.6061472e-06
1.2655929e-05
7.2525263e-05
1.4438476e-05
3.3318766e-05
0.0001772596
4.3953796e-05
6.8166451e-05
0.00033708217
0.00010547022
0.00011594655
0.00053016929
0.00020923051
0.00016824192
0.00069932888
0.00034244927
0.0002183043
0.0007799851
0.00046004396
0.00026445062
0.00074805513
0.00052218384
0.00063084816
0.00052196834
0.00030482786
3.6302893e-07
-1.338065e-06
1.620659e-05
1.0853267e-06
2.2940976e-06
-7.1644729e-06
7.1872439e-05
5.8861937e-06
7.0898304e-06
-2.1691635e-05
0.00017634548
1.7809947e-05
1.574e-05
-5.2874824e-05
0.00033805732
4.3249421e-05
2.907815e-05
-0.00010843273
0.0005363177
8.8946104e-05
4.7560513e-05
-0.00018504445
0.00071208912
0.00015380175
7.122766e-05
-0.0002596096
0.0007959221
0.00022000536
0.00010022999
-0.00030362416
0.00076084057
0.00026183663
-0.00030537083
0.00063715275
0.00026806836
0.00013122791
4.3652598e-07
-1.490432e-06
1.934085e-05
2.9035174e-06
-8.1805612e-06
8.5593361e-05
8.9541445e-06
-2.5182249e-05
0.00020963037
1.9087362e-05
-6.1865156e-05
0.00040072134
3.2740936e-05
-0.00012652922
0.00063320452
4.8422828e-05
-0.00021284962
0.00083742154
6.5346884e-05
-0.00029243091
0.00093496568
8.4509298e-05
-0.00033502392
0.00089864574
-0.00033198841
0.00076441044
0.00010665649
6.3342782e-07
-1.623594e-06
2.2303304e-05
3.9387922e-06
-9.0495755e-06
9.8538615e-05
1.1722669e-05
-2.8323995e-05
0.00024088314
2.3982568e-05
-7.0076783e-05
0.00045891546
3.8557303e-05
-0.00014260543
0.00072143942
5.1928007e-05
-0.00023590608
0.00094831897
6.2717069e-05
-0.00031674592
0.0010538201
7.336526e-05
-0.00035492562
0.001012945
-0.0003461369
0.00086858558
8.6798189e-05
9.2776966e-07
-1.790388e-06
2.5056384e-05
5.4125572e-06
-9.925944e-06
0.00011051054
1.5362316e-05
-3.1121206e-05
0.00026960935
3.0270366e-05
-7.7245535e-05
0.00051188172
4.6097724e-05
-0.00015575227
0.00080054955
5.7421171e-05
-0.00025274111
0.0010456878
6.2767501e-05
-0.00033116999
0.0011556139
6.6198403e-05
-0.0003625976
0.001108551
-0.00034764115
0.00095419202
7.2226855e-05
1.2287609e-06
-1.9615634e-06
2.7477142e-05
6.9836079e-06
-1.0740142e-05
0.00012107151
1.9207153e-05
-3.328839e-05
0.00029500457
3.6979457e-05
-8.2813957e-05
0.00055865035
5.4244737e-05
-0.00016491974
0.00086999846
6.3775147e-05
-0.00026198602
0.0011302229
6.4335106e-05
-0.00033462683
0.001242667
6.1767239e-05
-0.00035776084
0.0011889204
-0.00033712377
0.0010249232
6.2011271e-05
1.6110204e-06
-2.1883776e-06
2.9598578e-05
8.9399026e-06
-1.165747e-05
0.00013032507
2.4189197e-05
-3.5199275e-05
0.00031723543
4.4946209e-05
-8.6148845e-05
0.00059953848
6.3658113e-05
-0.00016889252
0.00093042339
7.1319445e-05
-0.00026200706
0.0012031513
6.7259109e-05
-0.00032576056
0.0013169095
5.9283983e-05
-0.00033984915
0.0012564815
-0.00031487913
0.0010833496
5.4765356e-05
1.9570978e-06
-2.4051279e-06
3.1419548e-05
1.0709219e-05
-1.2393588e-05
0.00013823771
2.881287e-05
-3.6313756e-05
0.00033618037
5.1787416e-05
-8.5720887e-05
0.00063431867
7.1361939e-05
-0.00016581612
0.00098159733
7.6725405e-05
-0.00025084727
0.0012644981
6.8247852e-05
-0.0003033799
0.0013787981
5.5899908e-05
-0.00030895391
0.0013122024
-0.00028191009
0.0011308951
4.8243767e-05
2.1448643e-06
-2.4360829e-06
3.2913271e-05
1.1720416e-05
-1.22537e-05
0.00014475287
3.1489828e-05
-3.5140541e-05
0.00035184353
5.6815926e-05
-8.0892291e-05
0.00066316954
7.6641076e-05
-0.00015393346
0.001024345
7.8974408e-05
-0.00022650769
0.0013157216
6.6175016e-05
-0.00026649248
0.0014301106
5.0602391e-05
-0.00026544606
0.0013579211
-0.00023933842
0.0011693576
4.1513372e-05
2.2910656e-06
-2.2309416e-06
3.4087289e-05
1.2522145e-05
-1.1013686e-05
0.00014990492
3.3660745e-05
-3.1171899e-05
0.00036432257
6.0966136e-05
-7.0787313e-05
0.00068638289
7.8867564e-05
-0.00013039354
0.0010592323
7.7521064e-05
-0.00018762165
0.0013576935
6.0978838e-05
-0.00021521356
0.0014719794
4.3737811e-05
-0.0002104782
0.0013947107
-0.00018842663
0.0011997338
3.4937024e-05
2.2936464e-06
-1.6637748e-06
3.495793e-05
1.2659564e-05
-8.216183e-06
0.00015375177
3.3863538e-05
-2.3184779e-05
0.00037370647
6.0052743e-05
-5.2328734e-05
0.00070397879
7.68877e-05
-9.5818301e-05
0.0010857921
7.3624108e-05
-0.00013601558
0.0013901238
5.4752302e-05
-0.0001512472
0.0015042719
3.7759135e-05
-0.00014626519
0.0014227156
-0.00013100558
0.0012220979
3.1239585e-05
2.3840275e-06
-8.7940052e-07
3.5591335e-05
1.3106766e-05
-4.3606429e-06
0.00015646845
3.4862856e-05
-1.2328584e-05
0.00038017607
6.1052219e-05
-2.7751226e-05
0.00071586971
7.5498801e-05
-5.0409518e-05
0.0011034893
6.833511e-05
-7.1483559e-05
0.0014117372
4.9867524e-05
-7.9047461e-05
0.001525681
3.4170217e-05
-7.5140021e-05
0.0014407514
-6.7390592e-05
0.0012361497
2.9090538e-05
2.4601892e-06
1.7183236e-11
3.5854503e-05
1.3473615e-05
5.479156e-11
0.0001576705
3.5692969e-05
1.6549401e-10
0.00038319027
6.2176446e-05
3.1614212e-10
0.00072164285
7.6412975e-05
4.8897721e-10
0.0011123033
6.7561486e-05
5.4568572e-10
0.0014224983
4.7287208e-05
4.7533726e-10
0.0015364016
3.2416443e-05
4.4643187e-10
0.0014497335
5.4043813e-10
0.0012432286
2.7896073e-05
2.4601534e-06
8.7944213e-07
3.5854498e-05
1.347365e-05
4.3607844e-06
0.00015767048
3.5692906e-05
1.232897e-05
0.00038319021
6.2176336e-05
2.7751854e-05
0.00072164274
7.641275e-05
5.0410436e-05
0.0011123032
6.7561263e-05
7.1484632e-05
0.0014224982
4.7287095e-05
7.9048452e-05
0.0015364014
3.2416403e-05
7.5140946e-05
0.0014497334
6.7391599e-05
0.0012432285
2.7896043e-05
2.3840071e-06
1.6638104e-06
3.5591334e-05
1.3106815e-05
8.2163282e-06
0.00015646844
3.4862559e-05
2.3185175e-05
0.00038017605
6.1052039e-05
5.2329306e-05
0.00071586965
7.5498373e-05
9.5819147e-05
0.0011034892
6.8334634e-05
0.00013601663
0.0014117371
4.986715e-05
0.00015124829
0.0015256808
3.4170058e-05
0.00014626603
0.0014407513
0.00013100625
0.0012361496
2.9090429e-05
2.2938328e-06
2.2309804e-06
3.4957921e-05
1.2659723e-05
1.1013859e-05
0.00015375173
3.3863104e-05
3.1172322e-05
0.00037370638
6.0052755e-05
7.0787933e-05
0.00070397859
7.6887356e-05
0.00013039441
0.0010857919
7.362359e-05
0.00018762265
0.0013901236
5.475161e-05
0.00021521458
0.0015042716
3.7758706e-05
0.0002104787
0.0014227153
0.00018842663
0.0012220976
3.1239308e-05
2.2915141e-06
2.4361651e-06
3.4087282e-05
1.252262e-05
1.2254025e-05
0.00014990489
3.3660619e-05
3.5141111e-05
0.00036432251
6.0966413e-05
8.0892996e-05
0.00068638276
7.8867281e-05
0.00015393429
0.0010592322
7.7520505e-05
0.00022650862
0.0013576934
6.09778e-05
0.00026649325
0.0014719793
4.3736988e-05
0.00026544618
0.0013947106
0.0002393378
0.0011997335
3.4936499e-05
2.1451631e-06
2.405189e-06
3.2913268e-05
1.1720612e-05
1.2393866e-05
0.00014475286
3.1489646e-05
3.6314192e-05
0.00035184352
5.6815834e-05
8.5721368e-05
0.00066316952
7.6640482e-05
0.00016581685
0.001024345
7.8973733e-05
0.00025084833
0.0013157216
6.6173701e-05
0.00030338072
0.0014301106
5.0601218e-05
0.000308954
0.0013579211
0.00028190914
0.0011693573
4.151251e-05
1.957069e-06
2.1884305e-06
3.1419551e-05
1.0709189e-05
1.1657768e-05
0.00013823773
2.8812822e-05
3.5199841e-05
0.00033618042
5.178724e-05
8.6149526e-05
0.00063431873
7.1361251e-05
0.00016889378
0.00098159738
7.6724574e-05
0.0002620087
0.0012644981
6.8246403e-05
0.00032576188
0.0013787982
5.5898541e-05
0.00033984947
0.0013122024
0.00031487788
0.001130895
4.8242396e-05
1.6109963e-06
1.961603e-06
2.9598587e-05
8.9398532e-06
1.0740372e-05
0.0001303251
2.4188867e-05
3.328895e-05
0.00031723551
4.4946008e-05
8.2814918e-05
0.00059953856
6.3657165e-05
0.00016492121
0.00093042354
7.1318338e-05
0.00026198778
0.0012031515
6.7257725e-05
0.00033462842
0.0013169098
5.9282637e-05
0.00035776133
0.0012564817
0.00033712242
0.0010833497
5.4763562e-05
1.2286967e-06
1.7904481e-06
2.7477141e-05
6.9834225e-06
9.9261998e-06
0.00012107149
1.9206783e-05
3.1121871e-05
0.00029500455
3.6979116e-05
7.7246645e-05
0.00055865032
5.4243568e-05
0.00015575354
0.00086999845
6.3774175e-05
0.00025274308
0.0011302228
6.4334028e-05
0.00033117164
0.001242667
6.1765861e-05
0.00036259828
0.0011889204
0.00034764056
0.0010249232
6.2009162e-05
9.2775537e-07
1.6236314e-06
2.5056379e-05
5.4125302e-06
9.0497715e-06
0.00011051052
1.5362132e-05
2.8324515e-05
0.0002696093
3.0269942e-05
7.0077755e-05
0.00051188164
4.6097245e-05
0.00014260692
0.00080054937
5.7420128e-05
0.00023590792
0.0010456876
6.2766504e-05
0.00031674782
0.0011556138
6.6196884e-05
0.00035492664
0.0011085509
0.00034613726
0.00095419203
7.2224851e-05
6.3348094e-07
1.490479e-06
2.2303299e-05
3.9389598e-06
8.1807711e-06
9.8538588e-05
1.1722762e-05
2.5182737e-05
0.00024088308
2.3982301e-05
6.1866047e-05
0.00045891534
3.8556931e-05
0.00012653058
0.00072143924
5.1927396e-05
0.00021285134
0.00094831877
6.2716156e-05
0.00029243284
0.0010538199
7.3363885e-05
0.00033502534
0.0010129448
0.00033198989
0.00086858548
8.6796233e-05
4.3654651e-07
1.3380899e-06
1.9340849e-05
2.9035635e-06
7.1645818e-06
8.5593355e-05
8.9539973e-06
2.1691909e-05
0.00020963035
1.908681e-05
5.2875376e-05
0.0004007213
3.2740239e-05
0.00010843366
0.00063320443
4.842219e-05
0.0001850461
0.00083742142
6.5345553e-05
0.00025961113
0.00093496558
8.4508528e-05
0.00030362621
0.00089864559
0.00030537279
0.00076441036
0.00010665604
3.6299709e-07
1.6206594e-05
1.085376e-06
2.2939162e-06
7.1872452e-05
5.8864026e-06
7.0892799e-06
0.00017634551
1.7810466e-05
1.5739192e-05
0.00033805735
4.3250442e-05
2.9076997e-05
0.00053631773
8.8947594e-05
4.75587e-05
0.00071208918
0.00015380316
7.1226625e-05
0.0007959221
0.00022000626
0.00010022966
0.00076084068
0.00026183783
0.00063715287
0.00026806816
0.00013122832
4.4264741e-08
-8.9182912e-07
1.6448089e-05
6.0606377e-07
2.0335264e-07
-4.3839245e-06
7.2995816e-05
3.1014369e-06
1.057227e-06
-1.2330691e-05
0.00017884898
8.9732732e-06
4.3758017e-06
-2.8251723e-05
0.0003419582
2.1032215e-05
1.2640934e-05
-5.5728692e-05
0.00054140401
4.2377229e-05
2.7068718e-05
-9.40569e-05
0.00071858841
7.3129843e-05
4.5741643e-05
-0.00013281378
0.00080423459
0.00010582829
6.4617348e-05
-0.00015665824
0.00077043485
0.00012818856
-0.00015748939
0.0006463516
0.00013277414
8.0133877e-05
1.8402813e-08
-1.1325337e-06
1.9563152e-05
1.499915e-07
-5.5445143e-06
8.6622371e-05
1.1468767e-06
-1.5463038e-05
0.00021176591
5.0680997e-06
-3.5008412e-05
0.0004035571
1.4382437e-05
-6.8045502e-05
0.00063620747
2.9336745e-05
-0.00011260234
0.0008410128
4.6570324e-05
-0.00015519713
0.00094011584
6.176046e-05
-0.00017856815
0.00090536568
-0.00017598996
0.00077160024
7.3071622e-05
1.0595024e-08
-1.3251781e-06
2.2485327e-05
1.170257e-07
-6.4816488e-06
9.936926e-05
1.205168e-06
-1.8041005e-05
0.00024237299
5.6537917e-06
-4.0673152e-05
0.00046013172
1.5915375e-05
-7.8351294e-05
0.00072148366
3.1325291e-05
-0.00012751575
0.00094782289
4.7369279e-05
-0.00017177443
0.0010543537
5.9747769e-05
-0.00019311084
0.0010151092
-0.00018715224
0.00087202785
6.7467851e-05
2.0407186e-08
-1.4696176e-06
2.5180441e-05
1.781684e-07
-7.1828398e-06
0.00011105402
1.5009776e-06
-1.997139e-05
0.00027021708
6.6234513e-06
-4.4940146e-05
0.00051102643
1.7887844e-05
-8.602871e-05
0.00079696232
3.3774778e-05
-0.00013797504
0.0010402605
4.8919677e-05
-0.0001818804
0.0011505748
5.9145746e-05
-0.0001999838
0.0011051979
-0.0001907029
0.00095296091
6.3927738e-05
2.2103647e-08
-1.5398017e-06
2.7525258e-05
2.200854e-07