/*--------------------------------*- C++ -*----------------------------------*\
| =========                 |                                                 |
| \\      /  F ield         | OpenFOAM: The Open Source CFD Toolbox           |
|  \\    /   O peration     | Version:  2406                                  |
|   \\  /    A nd           | Website:  www.openfoam.com                      |
|    \\/     M anipulation  |                                                 |
\*---------------------------------------------------------------------------*/
FoamFile
{
    version     2.0;
    format      ascii;
    arch        "LSB;label=32;scalar=64";
    class       volVectorField;
    location    "2.75";
    object      U;
}
// * * * * * * * * * * * * * * * * * * * * * * * * * * * * * * * * * * * * * //

dimensions      [0 1 -1 0 0 0 0];

internalField   nonuniform List<vector> 
34560
(
(0.093392044 -0.0067769161 -0.021998143)
(0.28938748 -0.020143054 -0.068685175)
(0.51344201 -0.03764363 -0.11891561)
(0.74492403 -0.059612318 -0.1652618)
(0.95351551 -0.084648083 -0.19861269)
(1.1092383 -0.10983371 -0.21176085)
(1.1994446 -0.13169102 -0.20557142)
(1.2382801 -0.14855409 -0.18785439)
(1.2474201 -0.15766019 -0.16892135)
(0.10863436 -0.0080358326 -0.024781782)
(0.3313262 -0.022985114 -0.076744953)
(0.5785102 -0.04149581 -0.13083965)
(0.82419967 -0.063611715 -0.17808471)
(1.0337152 -0.087624984 -0.20861573)
(1.177126 -0.11062888 -0.2159268)
(1.2491837 -0.12930138 -0.20332873)
(1.2729166 -0.14241214 -0.18032839)
(1.2745905 -0.14787421 -0.15737772)
(0.12424343 -0.0085464246 -0.026488313)
(0.37358277 -0.02389191 -0.081842068)
(0.64311039 -0.042403419 -0.13813698)
(0.90199481 -0.06395303 -0.18536836)
(1.1123512 -0.086549839 -0.2134553)
(1.2454664 -0.10726803 -0.21661629)
(1.303101 -0.12306099 -0.19984872)
(1.3151881 -0.13296821 -0.17348918)
(1.3126379 -0.13575197 -0.14869174)
(0.14008947 -0.0089995867 -0.028015938)
(0.41583013 -0.024567248 -0.086337147)
(0.70692267 -0.042687154 -0.14431204)
(0.97833384 -0.063070274 -0.19104509)
(1.1898314 -0.083565451 -0.21648277)
(1.3143993 -0.1013691 -0.21582488)
(1.3603662 -0.11393435 -0.1956354)
(1.3630086 -0.1206505 -0.16682149)
(1.3565885 -0.12099852 -0.14090218)
(0.15552043 -0.0089811896 -0.029121073)
(0.45664202 -0.024100858 -0.089713108)
(0.7683287 -0.041304959 -0.14883789)
(1.0519957 -0.060157206 -0.19487074)
(1.265563 -0.078307044 -0.21784156)
(1.3835955 -0.093014511 -0.21384816)
(1.420181 -0.1022967 -0.19068432)
(1.4148633 -0.10596135 -0.15985738)
(1.4047191 -0.1043789 -0.13297675)
(0.17034668 -0.0087022247 -0.029840639)
(0.49561975 -0.023078941 -0.092027351)
(0.82691581 -0.039068991 -0.15183528)
(1.1227527 -0.056086794 -0.19702733)
(1.3395354 -0.07164324 -0.21768945)
(1.4529518 -0.083102348 -0.21072832)
(1.4820757 -0.089125576 -0.18475918)
(1.4700252 -0.090000123 -0.15219644)
(1.4564219 -0.08698316 -0.12444783)
(0.18433515 -0.0081332241 -0.030349864)
(0.53233617 -0.021384013 -0.093705208)
(0.88232125 -0.035857213 -0.1538132)
(1.1904692 -0.050831892 -0.19790824)
(1.4117598 -0.063720042 -0.21612793)
(1.5223953 -0.072011269 -0.20620577)
(1.5456323 -0.074962938 -0.17734913)
(1.5280241 -0.073489114 -0.14329088)
(1.5113233 -0.069552975 -0.11488587)
(0.19698347 -0.0072510376 -0.030647703)
(0.56573327 -0.018982663 -0.094764196)
(0.93334322 -0.03165893 -0.15482179)
(1.2541174 -0.04445247 -0.19754477)
(1.481453 -0.054732802 -0.21306126)
(1.591161 -0.060146761 -0.19994683)
(1.6099485 -0.060419129 -0.16815076)
(1.5879713 -0.057208168 -0.13284492)
(1.5685481 -0.052876278 -0.10415101)
(0.20791281 -0.0060522925 -0.030776034)
(0.59490111 -0.015842803 -0.095295722)
(0.97868947 -0.026394748 -0.15496966)
(1.3121028 -0.036839337 -0.19600858)
(1.5466822 -0.04464222 -0.20848705)
(1.6571186 -0.047667844 -0.19184663)
(1.6729011 -0.045994071 -0.15723907)
(1.6477333 -0.041855098 -0.12105433)
(1.6259188 -0.037661816 -0.092565365)
(0.21673953 -0.0045904288 -0.030784765)
(0.61876939 -0.01205757 -0.095421077)
(1.0164928 -0.020110637 -0.15446819)
(1.3615812 -0.027949483 -0.19363449)
(1.6035998 -0.033396023 -0.20292608)
(1.715895 -0.034684466 -0.18265427)
(1.7299831 -0.032121003 -0.14562677)
(1.702877 -0.028019525 -0.10900554)
(1.679012 -0.024509032 -0.081181253)
(0.22319098 -0.0029168454 -0.030781952)
(0.63628948 -0.0076817316 -0.095419688)
(1.0444886 -0.01279386 -0.1537922)
(1.398669 -0.017676208 -0.19121371)
(1.6467505 -0.020849928 -0.19767072)
(1.7612238 -0.021143297 -0.17424707)
(1.7746111 -0.018891329 -0.13540184)
(1.7466984 -0.015867014 -0.098703511)
(1.7212747 -0.013538078 -0.07172451)
(0.22637309 -0.0009533214 -0.030752306)
(0.64513203 -0.0025014818 -0.095351731)
(1.0589545 -0.00420208 -0.15331921)
(1.4182839 -0.0058563139 -0.18972391)
(1.6700036 -0.0069266392 -0.19451586)
(1.786124 -0.0069788253 -0.16921797)
(1.7994838 -0.0061363048 -0.12934691)
(1.7713586 -0.0050587794 -0.092682971)
(1.7450212 -0.00426792 -0.066299872)
(0.22637308 0.00095327817 -0.030752301)
(0.645132 0.0025013552 -0.095351723)
(1.0589544 0.0042018411 -0.15331919)
(1.4182838 0.0058559079 -0.18972391)
(1.6700035 0.0069261183 -0.19451587)
(1.7861238 0.0069781914 -0.16921797)
(1.7994835 0.0061356156 -0.12934691)
(1.7713584 0.0050580896 -0.092683006)
(1.7450209 0.0042673929 -0.066299946)
(0.22319096 0.0029168024 -0.030781951)
(0.63628943 0.0076816048 -0.095419685)
(1.0444885 0.01279364 -0.15379218)
(1.3986686 0.017675834 -0.19121372)
(1.6467501 0.020849439 -0.19767077)
(1.7612233 0.021142706 -0.17424709)
(1.7746105 0.018890706 -0.13540185)
(1.7466978 0.015866363 -0.098703593)
(1.7212737 0.013537516 -0.071724671)
(0.21673951 0.0045903901 -0.03078477)
(0.61876932 0.012057441 -0.095421127)
(1.0164926 0.020110438 -0.1544682)
(1.3615808 0.027949138 -0.19363453)
(1.6035995 0.033395554 -0.20292616)
(1.7158945 0.034683917 -0.18265431)
(1.7299825 0.032120451 -0.14562679)
(1.7028763 0.028018917 -0.1090056)
(1.6790107 0.024508405 -0.081181376)
(0.20791277 0.0060522766 -0.030776025)
(0.594901 0.01584269 -0.095295819)
(0.9786893 0.026394567 -0.15496969)
(1.3121024 0.036839 -0.19600861)
(1.546682 0.044641734 -0.20848716)
(1.6571183 0.047667291 -0.19184672)
(1.6729007 0.045993512 -0.15723909)
(1.6477327 0.041854501 -0.1210543)
(1.6259175 0.037661132 -0.092565392)
(0.19698346 0.0072510312 -0.030647677)
(0.56573323 0.018982583 -0.094764224)
(0.93334319 0.031658791 -0.15482175)
(1.2541173 0.044452191 -0.19754478)
(1.4814529 0.054732326 -0.2130614)
(1.5911608 0.060146181 -0.19994693)
(1.6099484 0.060418495 -0.16815075)
(1.5879708 0.057207556 -0.1328448)
(1.568547 0.052875597 -0.10415095)
(0.18433513 0.008133211 -0.030349857)
(0.53233609 0.021383938 -0.093705239)
(0.88232114 0.035857085 -0.15381318)
(1.190469 0.050831671 -0.19790822)
(1.4117595 0.063719609 -0.21612799)
(1.5223951 0.072010684 -0.20620579)
(1.5456321 0.074962257 -0.17734907)
(1.5280236 0.073488495 -0.14329071)
(1.5113225 0.06955231 -0.11488564)
(0.17034664 0.0087022043 -0.029840613)
(0.49561965 0.023078862 -0.092027337)
(0.82691572 0.03906885 -0.15183522)
(1.1227526 0.056086604 -0.19702723)
(1.3395353 0.071642886 -0.21768937)
(1.4529517 0.083101832 -0.21072828)
(1.4820756 0.089124979 -0.18475914)
(1.4700248 0.089999539 -0.15219624)
(1.4564214 0.086982457 -0.12444731)
(0.15552041 0.0089811535 -0.029121038)
(0.45664196 0.024100772 -0.089713054)
(0.7683286 0.041304812 -0.14883781)
(1.0519955 0.06015705 -0.19487062)
(1.2655628 0.078306805 -0.21784145)
(1.3835952 0.093014066 -0.21384809)
(1.4201808 0.10229612 -0.19068426)
(1.4148632 0.10596074 -0.15985701)
(1.4047187 0.10437836 -0.13297599)
(0.14008945 0.0089995638 -0.028015902)
(0.41583005 0.024567153 -0.086337136)
(0.70692253 0.042687018 -0.14431198)
(0.9783337 0.063070135 -0.19104496)
(1.1898312 0.083565315 -0.21648253)
(1.314399 0.10136877 -0.21582463)
(1.360366 0.11393367 -0.19563514)
(1.3630085 0.12064967 -0.16682109)
(1.3565882 0.12099833 -0.14090161)
(0.12424342 0.0085463908 -0.026488278)
(0.37358272 0.023891811 -0.081842004)
(0.64311029 0.04240328 -0.13813684)
(0.90199468 0.063952846 -0.18536815)
(1.1123511 0.086549668 -0.21345498)
(1.2454663 0.10726776 -0.21661586)
(1.3031007 0.12306028 -0.1998482)
(1.3151878 0.1329672 -0.17348911)
(1.3126377 0.13575165 -0.14869159)
(0.10863437 0.0080358014 -0.02478175)
(0.33132621 0.022985046 -0.076744869)
(0.57851019 0.041495739 -0.13083949)
(0.82419964 0.063611642 -0.17808448)
(1.0337152 0.087624942 -0.20861536)
(1.177126 0.11062884 -0.21592623)
(1.2491836 0.12930103 -0.20332829)
(1.2729164 0.14241124 -0.18032871)
(1.2745902 0.14787317 -0.15737775)
(0.093392047 0.006776918 -0.021998139)
(0.28938748 0.020143051 -0.068685159)
(0.51344199 0.037643673 -0.11891553)
(0.74492396 0.059612429 -0.16526165)
(0.95351543 0.084648246 -0.19861248)
(1.1092383 0.10983382 -0.21176052)
(1.1994445 0.13169091 -0.20557106)
(1.2382803 0.14855354 -0.18785464)
(1.24742 0.15765941 -0.16892196)
(0.1068981 -0.0019917996 -0.0020180365)
(0.34293222 -0.0074917838 -0.0078800731)
(0.62768952 -0.016036912 -0.017558285)
(0.93698071 -0.028385714 -0.031837023)
(1.2286757 -0.044384048 -0.049201344)
(1.4587387 -0.061957639 -0.065193198)
(1.6046558 -0.077879969 -0.07491969)
(1.6761779 -0.090350224 -0.077262319)
(1.6964431 -0.099192168 -0.07498483)
(0.11879703 -0.0028311889 -0.0025691609)
(0.37854874 -0.010278639 -0.0097160405)
(0.68716149 -0.021176695 -0.021198736)
(1.0139902 -0.035946248 -0.037549252)
(1.30998 -0.053731823 -0.056349224)
(1.5290386 -0.071668278 -0.072285058)
(1.6543562 -0.086604707 -0.080656864)
(1.704777 -0.097373559 -0.081152165)
(1.7110878 -0.10428631 -0.076634496)
(0.12981922 -0.0032943965 -0.0026851346)
(0.41151251 -0.011968108 -0.010287155)
(0.74197679 -0.024428379 -0.0227076)
(1.0843152 -0.040795062 -0.040284356)
(1.3832452 -0.059585846 -0.059860564)
(1.5916557 -0.077366831 -0.075540486)
(1.698777 -0.09110574 -0.082923784)
(1.7319832 -0.10009964 -0.082328284)
(1.7285691 -0.10522928 -0.076914804)
(0.14022607 -0.0038182334 -0.0027950833)
(0.44246215 -0.013718593 -0.010782759)
(0.79311072 -0.027531644 -0.023942019)
(1.1495148 -0.045036991 -0.042417502)
(1.4510384 -0.06418974 -0.062302465)
(1.650261 -0.08118646 -0.077342563)
(1.7421084 -0.093238759 -0.083609199)
(1.7612968 -0.10023911 -0.082110426)
(1.7494703 -0.10359892 -0.076156041)
(0.14956596 -0.0042442133 -0.0027888634)
(0.4703979 -0.01515521 -0.010917959)
(0.83944663 -0.030067936 -0.024594014)
(1.2089323 -0.048259632 -0.043470315)
(1.5134804 -0.067285839 -0.063365854)
(1.7054993 -0.083083446 -0.077623515)
(1.7848681 -0.093180464 -0.082770803)
(1.7924235 -0.098121449 -0.08045747)
(1.7729817 -0.099765261 -0.074094597)
(0.15805748 -0.00457388 -0.002650243)
(0.49588141 -0.016231511 -0.010572494)
(0.88190559 -0.031929922 -0.024440497)
(1.2635803 -0.05036254 -0.043188123)
(1.5715974 -0.068777824 -0.062769584)
(1.7581117 -0.082930177 -0.076077026)
(1.827225 -0.090837737 -0.080044991)
(1.8248728 -0.09374055 -0.076947721)
(1.7985352 -0.093813206 -0.070247803)
(0.16590452 -0.0047675428 -0.0024342449)
(0.51946975 -0.01680368 -0.0099030965)
(0.92136764 -0.03280545 -0.023505682)
(1.3145773 -0.051127571 -0.042013231)
(1.6265278 -0.068364718 -0.060421345)
(1.8088554 -0.080457891 -0.072459185)
(1.8693336 -0.086016744 -0.075073639)
(1.858253 -0.087007292 -0.071188285)
(1.8258277 -0.085747091 -0.064266865)
(0.17290211 -0.0047375548 -0.0021322554)
(0.54077432 -0.016610732 -0.0089216689)
(0.95755577 -0.032239416 -0.021801676)
(1.3623794 -0.049819493 -0.039946892)
(1.6786622 -0.065184601 -0.055998737)
(1.8579116 -0.07504418 -0.066378175)
(1.9109649 -0.0783669 -0.067548955)
(1.8922287 -0.077690999 -0.062948749)
(1.854554 -0.075458169 -0.05601487)
(0.17901549 -0.0044063606 -0.001757298)
(0.55970915 -0.015355784 -0.0076558801)
(0.99035406 -0.029598311 -0.019357001)
(1.4067405 -0.045274682 -0.036008274)
(1.7276884 -0.058371148 -0.05011481)
(1.9046741 -0.065923954 -0.057825005)
(1.9512213 -0.067391082 -0.057562549)
(1.9258653 -0.065525006 -0.05241718)
(1.8839797 -0.062778953 -0.045731118)
(0.1841392 -0.0036961468 -0.0013578751)
(0.57588069 -0.01277445 -0.0062791312)
(1.018927 -0.024431449 -0.016582242)
(1.4462633 -0.036994144 -0.031242558)
(1.7724756 -0.047257408 -0.044180871)
(1.9469441 -0.052221251 -0.047829771)
(1.9877904 -0.052532859 -0.046043576)
(1.9571513 -0.050203555 -0.040550605)
(1.9127683 -0.047435113 -0.03434184)
(0.18829017 -0.002549209 -0.00098654124)
(0.58879323 -0.0087031335 -0.0049744127)
(1.0415602 -0.016474963 -0.013892933)
(1.4775466 -0.024653697 -0.026554891)
(1.8082177 -0.031016178 -0.036976832)
(1.9805619 -0.033915378 -0.039675496)
(2.0167878 -0.033614756 -0.035201309)
(1.9829539 -0.031705418 -0.029632953)
(1.9370974 -0.029595271 -0.02421035)
(0.19024952 -0.00092809743 -0.00076114726)
(0.59520766 -0.0031402493 -0.0041676244)
(1.0532786 -0.0058985335 -0.012174598)
(1.4943189 -0.0087588617 -0.023564509)
(1.8279539 -0.010912094 -0.032371226)
(2.0000077 -0.011774885 -0.033610853)
(2.0337833 -0.011589933 -0.028815037)
(1.998221 -0.010853414 -0.022904592)
(1.951126 -0.010062633 -0.018316792)
(0.19024951 0.00092811123 -0.00076115067)
(0.59520762 0.0031402728 -0.0041676287)
(1.0532786 0.0058985774 -0.012174613)
(1.4943187 0.0087588685 -0.023564513)
(1.8279538 0.010912045 -0.032371223)
(2.0000075 0.011774777 -0.033610841)
(2.0337831 0.011589832 -0.028815036)
(1.9982208 0.010853397 -0.022904621)
(1.9511259 0.010062824 -0.018316861)
(0.18829015 0.002549222 -0.00098654142)
(0.58879314 0.0087031589 -0.0049744263)
(1.04156 0.016474998 -0.013892936)
(1.4775462 0.024653657 -0.026554874)
(1.8082174 0.03101607 -0.03697683)
(1.9805615 0.033915241 -0.039675477)
(2.0167873 0.03361468 -0.035201314)
(1.9829535 0.031705381 -0.029633027)
(1.9370969 0.029595392 -0.024210506)
(0.18413918 0.0036961593 -0.0013578722)
(0.5758806 0.012774465 -0.0062791945)
(1.0189269 0.024431461 -0.01658223)
(1.4462629 0.036994062 -0.031242532)
(1.7724753 0.04725725 -0.0441809)
(1.9469438 0.052221098 -0.047829778)
(1.9877899 0.052532764 -0.046043583)
(1.957151 0.050203482 -0.040550682)
(1.9127676 0.047435109 -0.034341979)
(0.17901545 0.0044063817 -0.0017573025)
(0.55970905 0.015355791 -0.0076559914)
(0.99035392 0.029598307 -0.019357)
(1.4067402 0.045274611 -0.036008276)
(1.7276883 0.058370988 -0.050114845)
(1.904674 0.065923768 -0.057825025)
(1.9512212 0.067390932 -0.057562537)
(1.9258651 0.065524848 -0.052417196)
(1.8839789 0.062778821 -0.045731175)
(0.17290209 0.0047375638 -0.0021322471)
(0.54077424 0.016610705 -0.0089217111)
(0.95755572 0.032239383 -0.021801634)
(1.3623793 0.049819441 -0.039946877)
(1.6786621 0.06518447 -0.055998743)
(1.8579116 0.075043991 -0.066378167)
(1.910965 0.078366698 -0.067548901)
(1.8922286 0.07769078 -0.062948683)
(1.8545534 0.07545793 -0.056014867)
(0.16590451 0.0047675405 -0.002434232)
(0.51946973 0.016803669 -0.0099030956)
(0.92136765 0.032805444 -0.023505698)
(1.3145771 0.051127548 -0.042013235)
(1.6265275 0.068364661 -0.060421322)
(1.8088552 0.080457763 -0.072459144)
(1.8693337 0.086016552 -0.075073541)
(1.858253 0.087007063 -0.07118815)
(1.8258275 0.085746767 -0.064266778)
(0.15805746 0.0045738754 -0.0026502606)
(0.49588134 0.016231518 -0.010572546)
(0.88190547 0.031929937 -0.024440517)
(1.2635801 0.05036256 -0.043188105)
(1.5715971 0.068777855 -0.062769529)
(1.7581116 0.082930129 -0.076076909)
(1.8272251 0.090837605 -0.080044846)
(1.8248729 0.093740328 -0.076947503)
(1.7985353 0.093812815 -0.070247506)
(0.14956594 0.0042442223 -0.0027888677)
(0.4703978 0.015155226 -0.010917981)
(0.83944648 0.030067959 -0.024593983)
(1.2089322 0.048259674 -0.043470282)
(1.5134803 0.067285884 -0.063365716)
(1.7054992 0.083083478 -0.077623349)
(1.7848683 0.093180356 -0.082770643)
(1.7924237 0.098121227 -0.080457166)
(1.7729818 0.099764938 -0.074094113)
(0.14022605 0.0038182338 -0.0027950726)
(0.44246209 0.013718594 -0.010782741)
(0.79311063 0.027531668 -0.02394197)
(1.1495147 0.045037062 -0.042417419)
(1.4510383 0.064189796 -0.062302358)
(1.6502609 0.081186509 -0.077342435)
(1.7421085 0.093238673 -0.083608984)
(1.761297 0.10023891 -0.082110196)
(1.7494705 0.10359875 -0.076155729)
(0.12981922 0.0032943844 -0.0026851225)
(0.41151248 0.011968097 -0.010287136)
(0.74197675 0.024428394 -0.022707574)
(1.0843152 0.040795135 -0.0402843)
(1.3832452 0.059585973 -0.05986046)
(1.5916559 0.077366859 -0.075540288)
(1.698777 0.091105648 -0.082923648)
(1.7319831 0.10009944 -0.082328316)
(1.7285692 0.10522917 -0.076914668)
(0.11879704 0.0028311797 -0.0025691432)
(0.37854874 0.010278636 -0.0097160065)
(0.68716148 0.021176732 -0.021198673)
(1.0139902 0.035946352 -0.037549119)
(1.3099799 0.053732001 -0.056349)
(1.5290386 0.071668377 -0.072284918)
(1.6543562 0.086604597 -0.080656989)
(1.704777 0.097373171 -0.081152456)
(1.7110877 0.10428573 -0.076634513)
(0.10689811 0.0019918079 -0.0020180339)
(0.34293224 0.0074918086 -0.0078800722)
(0.62768954 0.016037001 -0.017558243)
(0.93698068 0.028385874 -0.031836935)
(1.2286757 0.044384234 -0.049201278)
(1.4587388 0.061957757 -0.065193223)
(1.6046559 0.077879854 -0.074919774)
(1.6761784 0.090349962 -0.077262729)
(1.6964432 0.099191845 -0.074985095)
(0.089568968 -0.00076340848 -0.0007182535)
(0.29126251 -0.0029203011 -0.0028018281)
(0.5424184 -0.0064869775 -0.006248609)
(0.82772752 -0.012111821 -0.011487279)
(1.1120582 -0.020347022 -0.018279867)
(1.3485304 -0.030736059 -0.025264658)
(1.5018957 -0.04136887 -0.030285025)
(1.5710631 -0.050036545 -0.032245275)
(1.5784521 -0.055548524 -0.031948111)
(0.097562088 -0.00092854669 -0.00078443061)
(0.31591837 -0.0035310332 -0.0030562088)
(0.58522189 -0.0077767788 -0.0068682342)
(0.88568764 -0.014341046 -0.012696156)
(1.1754581 -0.023599377 -0.02006346)
(1.4028043 -0.034555337 -0.02712689)
(1.5350168 -0.044843144 -0.031474839)
(1.5803014 -0.052441137 -0.032410915)
(1.5709479 -0.056869144 -0.031099042)
(0.10475808 -0.00095827786 -0.00072244032)
(0.33825135 -0.003758022 -0.0029377198)
(0.62411332 -0.0084385354 -0.0068905127)
(0.93819701 -0.015699984 -0.013084483)
(1.2322339 -0.025691339 -0.020837146)
(1.4503941 -0.036876056 -0.02787474)
(1.563374 -0.0465473 -0.031614058)
(1.5888391 -0.052980704 -0.031706267)
(1.5681166 -0.056341986 -0.029720319)
(0.11138126 -0.0010424216 -0.00070708556)
(0.35878814 -0.0040923804 -0.0029051134)
(0.65987218 -0.0092116423 -0.0070430922)
(0.98643363 -0.017083637 -0.01354548)
(1.2844053 -0.027587667 -0.021533247)
(1.4945998 -0.038663532 -0.028352872)
(1.591302 -0.047392629 -0.031364972)
(1.6005305 -0.052470343 -0.030625065)
(1.5706281 -0.054669884 -0.028046276)
(0.11704849 -0.0011253901 -0.00069236731)
(0.37658364 -0.0043845509 -0.0028391518)
(0.69129967 -0.0098310691 -0.0070148158)
(1.0293812 -0.018247552 -0.013864026)
(1.3315505 -0.029078639 -0.0219349)
(1.5356719 -0.039770045 -0.028397216)
(1.6192787 -0.047319496 -0.030629135)
(1.6153687 -0.050953868 -0.029094744)
(1.5776507 -0.052007572 -0.026036735)
(0.12196742 -0.0012389222 -0.00068007727)
(0.39212167 -0.0047275963 -0.0027907599)
(0.71892799 -0.010399799 -0.0068690303)
(1.0676767 -0.019174153 -0.01401769)
(1.3742491 -0.03000921 -0.021921109)
(1.5739509 -0.039999161 -0.027812883)
(1.6471524 -0.046176621 -0.029197874)
(1.6326202 -0.048353825 -0.026919085)
(1.5881994 -0.048357519 -0.023485908)
(0.12632811 -0.0013897993 -0.00066708312)
(0.4058757 -0.005126762 -0.0027393334)
(0.7434177 -0.010941927 -0.0067208724)
(1.1020643 -0.01962743 -0.013605785)
(1.4131824 -0.030115929 -0.02142711)
(1.609795 -0.039071307 -0.026454494)
(1.6746834 -0.043756192 -0.026897701)
(1.651469 -0.044578927 -0.023942424)
(1.6012887 -0.043736336 -0.020299476)
(0.12996796 -0.00148989 -0.00061131115)
(0.41748895 -0.0053241646 -0.0025317212)
(0.76437208 -0.011044116 -0.0063143317)
(1.131932 -0.019195716 -0.012290804)
(1.4483089 -0.029022139 -0.020369326)
(1.643231 -0.036568853 -0.024269521)
(1.7015324 -0.039754768 -0.023650757)
(1.6711089 -0.039475503 -0.020151787)
(1.6158669 -0.038087479 -0.016550448)
(0.13288009 -0.0014625671 -0.00051248918)
(0.42691102 -0.0051160815 -0.0021809522)
(0.78165077 -0.010425697 -0.0056711102)
(1.1570863 -0.017757396 -0.011106445)
(1.479195 -0.026196816 -0.018263482)
(1.6736885 -0.032064639 -0.021448374)
(1.7268756 -0.033880428 -0.019701971)
(1.6903766 -0.032909145 -0.015852623)
(1.6304746 -0.031334409 -0.012642466)
(0.13507873 -0.00122819 -0.00036975183)
(0.43412421 -0.0042723983 -0.0016856702)
(0.79505525 -0.0086572 -0.0047428765)
(1.1768717 -0.014596011 -0.0096370609)
(1.5037719 -0.020983763 -0.014675647)
(1.6994298 -0.025375517 -0.018356641)
(1.7489413 -0.026053671 -0.015755793)
(1.7073225 -0.024873384 -0.011819648)
(1.6426858 -0.023527146 -0.0093522622)
(0.13685075 -0.00080004818 -0.00025039179)
(0.43968469 -0.00279745 -0.0012776831)
(0.80503059 -0.0056910759 -0.0039641333)
(1.1911798 -0.0096044959 -0.0084329131)
(1.5210795 -0.01378529 -0.012928557)
(1.7178568 -0.016327788 -0.014569166)
(1.7651023 -0.016511502 -0.012789789)
(1.7191225 -0.01557338 -0.0089323805)
(1.6506962 -0.014715794 -0.0071332965)
(0.13753727 -0.00027652703 -0.00019014296)
(0.44204938 -0.00096987477 -0.0010744363)
(0.8095937 -0.0019751908 -0.0035816445)
(1.1980995 -0.0033330108 -0.0078096889)
(1.5296845 -0.0047930572 -0.012059262)
(1.7267437 -0.0056927849 -0.013385246)
(1.7729723 -0.0056867314 -0.010962805)
(1.7247638 -0.0053238553 -0.0075871117)
(1.6546823 -0.0050205089 -0.005928492)
(0.13753726 0.00027655122 -0.00019014601)
(0.44204936 0.00096993379 -0.0010744374)
(0.80959366 0.0019753092 -0.0035816574)
(1.1980994 0.0033331675 -0.0078096884)
(1.5296844 0.0047932444 -0.012059247)
(1.7267436 0.0056929689 -0.013385218)
(1.7729721 0.0056868925 -0.010962779)
(1.7247637 0.0053239967 -0.0075871006)
(1.6546822 0.0050206729 -0.005928498)
(0.13685073 0.00080007327 -0.00025039528)
(0.43968465 0.0027975162 -0.0012776925)
(0.8050305 0.0056911964 -0.0039641387)
(1.1911796 0.0096046333 -0.0084328913)
(1.5210793 0.013785454 -0.012928527)
(1.7178566 0.016327961 -0.014569107)
(1.765102 0.016511651 -0.012789719)
(1.7191223 0.015573517 -0.0089323372)
(1.650696 0.014715927 -0.0071332869)
(0.13507871 0.0012282144 -0.00036975431)
(0.43412416 0.0042724602 -0.0016857235)
(0.79505516 0.0086573183 -0.0047428745)
(1.1768715 0.014596146 -0.0096370425)
(1.5037718 0.020983915 -0.014675648)
(1.6994297 0.025375664 -0.018356591)
(1.748941 0.026053824 -0.0157557)
(1.7073222 0.024873481 -0.011819547)
(1.6426853 0.023527213 -0.0093521833)
(0.13288007 0.0014626009 -0.0005124983)
(0.42691095 0.0051161446 -0.0021810589)
(0.78165067 0.01042582 -0.0056711389)
(1.1570861 0.017757558 -0.011106474)
(1.479195 0.026196976 -0.018263529)
(1.6736885 0.03206479 -0.021448331)
(1.7268755 0.033880576 -0.019701849)
(1.6903764 0.032909216 -0.015852447)
(1.6304741 0.031334387 -0.01264229)
(0.12996794 0.0014899187 -0.00061131323)
(0.41748889 0.0053242089 -0.0025317854)
(0.76437203 0.011044223 -0.0063143404)
(1.131932 0.019195888 -0.012290832)
(1.4483089 0.02902232 -0.020369329)
(1.643231 0.036569036 -0.024269463)
(1.7015324 0.039754925 -0.023650603)
(1.6711088 0.03947558 -0.020151542)
(1.6158665 0.038087416 -0.016550193)
(0.12632811 0.0013898169 -0.00066708286)
(0.40587569 0.0051268123 -0.0027393593)
(0.74341772 0.01094204 -0.0067209278)
(1.1020643 0.019627614 -0.013605865)
(1.4131823 0.030116177 -0.021427128)
(1.6097948 0.039071568 -0.026454438)
(1.6746834 0.043756406 -0.026897537)
(1.6514689 0.04457905 -0.023942139)
(1.6012885 0.043736255 -0.020299134)
(0.12196742 0.0012389421 -0.00068009422)
(0.39212165 0.0047276723 -0.0027908135)
(0.71892793 0.010399938 -0.0068691026)
(1.0676765 0.019174363 -0.01401776)
(1.3742489 0.030009517 -0.021921132)
(1.5739507 0.039999494 -0.027812807)
(1.6471524 0.046176915 -0.029197713)
(1.6326202 0.048353995 -0.026918759)
(1.5881994 0.048357428 -0.023485422)
(0.11704848 0.0011254246 -0.00069238906)
(0.37658358 0.0043846453 -0.0028392208)
(0.69129956 0.009831227 -0.0070148905)
(1.0293811 0.018247788 -0.013864124)
(1.3315504 0.029078952 -0.021934918)
(1.5356718 0.039770436 -0.028397175)
(1.6192787 0.047319821 -0.030629013)
(1.6153687 0.050954076 -0.029094382)
(1.5776507 0.052007572 -0.026036154)
(0.11138125 0.0010424542 -0.00070710108)
(0.35878811 0.0040924677 -0.0029051679)
(0.65987214 0.0092118083 -0.0070431584)
(0.98643358 0.017083901 -0.013545554)
(1.2844052 0.027587988 -0.021533323)
(1.4945997 0.038663935 -0.028352916)
(1.5913019 0.04739298 -0.031364882)
(1.6005304 0.052470596 -0.030624797)
(1.5706281 0.054670032 -0.028045838)
(0.10475808 0.00095830371 -0.00072245524)
(0.33825134 0.0037581019 -0.0029377768)
(0.62411331 0.0084386879 -0.0068906184)
(0.93819701 0.015700238 -0.01308462)
(1.2322339 0.025691698 -0.020837289)
(1.4503941 0.036876433 -0.02787482)
(1.5633739 0.046547672 -0.031614119)
(1.5888388 0.052980975 -0.031706211)
(1.5681164 0.056342058 -0.02971991)
(0.097562092 0.00092856793 -0.00078444254)
(0.31591837 0.0035311021 -0.0030562561)
(0.58522188 0.0077769146 -0.006868316)
(0.8856876 0.014341263 -0.012696247)
(1.175458 0.023599681 -0.020063549)
(1.4028042 0.03455565 -0.027127062)
(1.5350167 0.044843374 -0.031475049)
(1.5803011 0.05244111 -0.032410731)
(1.5709476 0.056868853 -0.031098709)
(0.08956898 0.00076343651 -0.00071827319)
(0.29126253 0.0029203774 -0.0028018917)
(0.54241841 0.006487127 -0.0062486946)
(0.8277275 0.012112022 -0.011487403)
(1.1120581 0.020347236 -0.018280077)
(1.3485304 0.03073628 -0.025264885)
(1.5018956 0.041369064 -0.030285039)
(1.5710632 0.050036571 -0.032245183)
(1.5784524 0.055548303 -0.031948063)
(0.098482032 -0.0004819092 -0.00043650565)
(0.31831452 -0.0017385326 -0.0015457775)
(0.58847425 -0.0036989921 -0.0031581259)
(0.89025012 -0.0065865061 -0.005472805)
(1.1861743 -0.010486306 -0.0086531649)
(1.4304137 -0.015124168 -0.0124912)
(1.5901058 -0.019688156 -0.016104217)
(1.6648007 -0.023338369 -0.018409907)
(1.6760587 -0.025550148 -0.019232351)
(0.10696225 -0.00067597053 -0.00054216964)
(0.34393251 -0.0023660878 -0.0018688161)
(0.63178179 -0.0048810277 -0.0037311152)
(0.94697447 -0.0084125983 -0.0063635427)
(1.2460027 -0.012953436 -0.009936074)
(1.4795378 -0.018010249 -0.014116955)
(1.617656 -0.022524302 -0.017772429)
(1.6685805 -0.025631433 -0.019791605)
(1.6635855 -0.027133248 -0.020008648)
(0.11440642 -0.00078443749 -0.00054638436)
(0.36645841 -0.0027498029 -0.0018927108)
(0.66979745 -0.0056517025 -0.0037928865)
(0.99634523 -0.0096599698 -0.006530025)
(1.2970849 -0.014665989 -0.010308549)
(1.5198641 -0.019942487 -0.014702215)
(1.6382819 -0.024218453 -0.018401253)
(1.6693839 -0.026706953 -0.020291093)
(1.6532653 -0.027595412 -0.020341214)
(0.12109419 -0.00088454509 -0.0005357151)
(0.38659979 -0.0030866374 -0.0018552933)
(0.70362733 -0.0062990151 -0.0037290603)
(1.0400591 -0.010674533 -0.0064892188)
(1.3421365 -0.01600671 -0.010374568)
(1.555507 -0.021333074 -0.014874127)
(1.6572819 -0.025206048 -0.018557542)
(1.6723375 -0.026995101 -0.02037258)
(1.6473791 -0.027271907 -0.0203698)
(0.12664726 -0.00094282176 -0.0004943062)
(0.40347231 -0.0032929946 -0.0017192345)
(0.73220391 -0.0067101121 -0.0034889928)
(1.077315 -0.011343007 -0.0061980321)
(1.3809885 -0.016889357 -0.010121954)
(1.586978 -0.022144264 -0.014674734)
(1.6754533 -0.025512384 -0.018330618)
(1.6777468 -0.026575893 -0.020111928)
(1.6455627 -0.026262801 -0.020135752)
(0.13132214 -0.00096380647 -0.00042591388)
(0.41770071 -0.0033752895 -0.0014934187)
(0.75636387 -0.0068827049 -0.0030832302)
(1.1089736 -0.011639854 -0.0056563668)
(1.4143617 -0.017258233 -0.009536585)
(1.6147139 -0.022304778 -0.01409469)
(1.6927817 -0.025085115 -0.017722912)
(1.6850529 -0.025439207 -0.019515766)
(1.6469521 -0.024606864 -0.019616499)
(0.13532404 -0.00093533646 -0.00034237277)
(0.42981165 -0.0032967715 -0.0012131531)
(0.77685706 -0.0067501308 -0.0025603407)
(1.1358512 -0.01144533 -0.0048947936)
(1.4429472 -0.016944498 -0.0086531725)
(1.6390618 -0.021632961 -0.013152492)
(1.7090359 -0.023796983 -0.016742663)
(1.693497 -0.023534278 -0.018582369)
(1.6505763 -0.022308165 -0.018831258)
(0.13851049 -0.00084449902 -0.00025020656)
(0.43952953 -0.0030178449 -0.00090930776)
(0.7934578 -0.0062445312 -0.0020069203)
(1.1579298 -0.010708945 -0.0041011284)
(1.4669826 -0.0161878 -0.0078540192)
(1.6602502 -0.020470991 -0.012164865)
(1.724014 -0.021846872 -0.015494613)
(1.7023952 -0.020832085 -0.017305321)
(1.6555227 -0.019355276 -0.017830055)
(0.14092869 -0.00070707848 -0.00016404543)
(0.4469897 -0.0025682425 -0.00062213614)
(0.80640147 -0.0053967589 -0.0014843283)
(1.1755806 -0.00944325 -0.003355827)
(1.4868889 -0.014101428 -0.006696797)
(1.6785128 -0.017648701 -0.010682272)
(1.7376765 -0.018655391 -0.013904068)
(1.7110647 -0.017616592 -0.015942356)
(1.6608496 -0.01580293 -0.016735586)
(0.1426678 -0.00052558993 -8.8422957e-05)
(0.45243147 -0.0019459791 -0.00036266592)
(0.81599202 -0.0041711283 -0.00099318739)
(1.1889338 -0.0073250148 -0.0025273963)
(1.5022859 -0.010965649 -0.0054391252)
(1.6931237 -0.013676673 -0.0092643806)
(1.7490471 -0.014234945 -0.012407069)
(1.7187138 -0.013234174 -0.014636359)
(1.6655902 -0.011855286 -0.015858132)
(0.14406994 -0.00031455549 -3.640509e-05)
(0.45658973 -0.0011887949 -0.00018095002)
(0.82301366 -0.0025937718 -0.00063911852)
(1.1983765 -0.0046239534 -0.0019571719)
(1.5129949 -0.0069980684 -0.0046469513)
(1.7033297 -0.0087039761 -0.0082164548)
(1.7570784 -0.0089427915 -0.011398232)
(1.724144 -0.0082253623 -0.013843338)
(1.6690332 -0.0073384114 -0.015269247)
(0.1445283 -0.00010414385 -1.3450495e-05)
(0.45813428 -0.00039926006 -0.00010077196)
(0.82590993 -0.00088054892 -0.00048628032)
(1.2026208 -0.0015829912 -0.0017118778)
(1.5181189 -0.0023994994 -0.0042742295)
(1.7083764 -0.0029858015 -0.0077348311)
(1.7611168 -0.0030520798 -0.010916947)
(1.7268869 -0.0027925577 -0.013467249)
(1.6708014 -0.0024819115 -0.014960263)
(0.1445283 0.0001041723 -1.3452826e-05)
(0.45813427 0.0003993321 -0.00010077574)
(0.82590992 0.00088069056 -0.00048629329)
(1.2026208 0.0015831919 -0.0017118806)
(1.5181188 0.0023997392 -0.0042742198)
(1.7083764 0.0029860526 -0.0077348111)
(1.7611168 0.0030523066 -0.010916922)
(1.7268868 0.0027927067 -0.013467222)
(1.6708014 0.0024819696 -0.014960243)
(0.14406994 0.00031458757 -3.640854e-05)