/*--------------------------------*- C++ -*----------------------------------*\
  =========                 |
  \\      /  F ield         | OpenFOAM: The Open Source CFD Toolbox
   \\    /   O peration     | Website:  https://openfoam.org
    \\  /    A nd           | Version:  10
     \\/     M anipulation  |
\*---------------------------------------------------------------------------*/
FoamFile
{
    format      ascii;
    class       volScalarField;
    location    "5";
    object      ddt0(T);
}
// * * * * * * * * * * * * * * * * * * * * * * * * * * * * * * * * * * * * * //

dimensions      [0 0 -2 0 0 0 0];

internalField   nonuniform List<scalar> 
100
(
-0.841573
-2.5169
-4.16989
-5.78587
-7.35049
-8.84987
-10.2707
-11.6004
-12.8271
-13.9399
-14.9291
-15.7857
-16.5022
-17.0722
-17.4907
-17.754
-17.8597
-17.8068
-17.5959
-17.2288
-16.7088
-16.0405
-15.2298
-14.2839
-13.2112
-12.0213
-10.7246
-9.33282
-7.85815
-6.31373
-4.71327
-3.07098
-1.40142
0.280572
1.96008
3.62218
5.25214
6.83548
8.35814
9.80662
11.1681
12.4304
13.5823
14.6138
15.5155
16.2794
16.8989
17.3684
17.6838
17.8421
17.8421
17.6838
17.3684
16.8989
16.2794
15.5154
14.6137
13.5823
12.4304
11.168
9.80661
8.35813
6.83546
5.25213
3.62217
1.96006
0.280556
-1.40144
-3.07099
-4.71329
-6.31375
-7.85817
-9.33284
-10.7247
-12.0213
-13.2112
-14.2839
-15.2298
-16.0405
-16.7088
-17.2288
-17.5959
-17.8068
-17.8597
-17.754
-17.4907
-17.0722
-16.5022
-15.7857
-14.9291
-13.9399
-12.8271
-11.6004
-10.2707
-8.84986
-7.35048
-5.78586
-4.16988
-2.5169
-0.841571
)
;

boundaryField
{
    xmin
    {
        type            calculated;
        value           uniform 0;
    }
    xmax
    {
        type            calculated;
        value           uniform 0;
    }
    frontAndBack
    {
        type            empty;
    }
}


// ************************************************************************* //
