/*--------------------------------*- C++ -*----------------------------------*\
  =========                 |
  \\      /  F ield         | OpenFOAM: The Open Source CFD Toolbox
   \\    /   O peration     | Website:  https://openfoam.org
    \\  /    A nd           | Version:  10
     \\/     M anipulation  |
\*---------------------------------------------------------------------------*/
FoamFile
{
    format      ascii;
    class       volScalarField;
    location    "35";
    object      T;
}
// * * * * * * * * * * * * * * * * * * * * * * * * * * * * * * * * * * * * * //

dimensions      [0 0 -1 0 0 0 0];

internalField   nonuniform List<scalar> 
100
(
0.485607
1.45231
2.40612
3.33858
4.24141
5.10658
5.92643
6.69368
7.40152
8.04366
8.6144
9.10869
9.52212
9.85104
10.0925
10.2444
10.3054
10.2749
10.1532
9.94137
9.64132
9.25569
8.7879
8.24212
7.62318
6.93657
6.1884
5.38531
4.53441
3.64327
2.71979
1.77217
0.808828
-0.161694
-1.13078
-2.08983
-3.03032
-3.94392
-4.82251
-5.65829
-6.44384
-7.1722
-7.8369
-8.43203
-8.95232
-9.39314
-9.75059
-10.0215
-10.2034
-10.2948
-10.2948
-10.2034
-10.0215
-9.75058
-9.39313
-8.95231
-8.43202
-7.83688
-7.17218
-6.44382
-5.65827
-4.82248
-3.94389
-3.03029
-2.0898
-1.13075
-0.161662
0.808862
1.77221
2.71983
3.6433
4.53445
5.38534
6.18844
6.93661
7.62321
8.24215
8.78794
9.25572
9.64135
9.94141
10.1532
10.2749
10.3054
10.2444
10.0925
9.85107
9.52215
9.10871
8.61442
8.04368
7.40154
6.6937
5.92645
5.10659
4.24142
3.33859
2.40613
1.45231
0.485609
)
;

boundaryField
{
    xmin
    {
        type            fixedValue;
        value           uniform 0;
    }
    xmax
    {
        type            fixedValue;
        value           uniform 0;
    }
    frontAndBack
    {
        type            empty;
    }
}


// ************************************************************************* //
