/*--------------------------------*- C++ -*----------------------------------*\
  =========                 |
  \\      /  F ield         | OpenFOAM: The Open Source CFD Toolbox
   \\    /   O peration     | Website:  https://openfoam.org
    \\  /    A nd           | Version:  10
     \\/     M anipulation  |
\*---------------------------------------------------------------------------*/
FoamFile
{
    format      ascii;
    class       volScalarField;
    location    "35";
    object      T_0;
}
// * * * * * * * * * * * * * * * * * * * * * * * * * * * * * * * * * * * * * //

dimensions      [0 0 -1 0 0 0 0];

internalField   nonuniform List<scalar> 
100
(
0.486075
1.45371
2.40844
3.3418
4.24549
5.1115
5.93214
6.70013
7.40865
8.05141
8.6227
9.11746
9.5313
9.86053
10.1022
10.2543
10.3153
10.2848
10.163
9.95095
9.65061
9.2646
8.79637
8.25006
7.63052
6.94326
6.19437
5.39049
4.53878
3.64678
2.72241
1.77388
0.809607
-0.16185
-1.13187
-2.09184
-3.03324
-3.94772
-4.82715
-5.66374
-6.45005
-7.17911
-7.84445
-8.44016
-8.96095
-9.40219
-9.75999
-10.0311
-10.2133
-10.3047
-10.3047
-10.2133
-10.0311
-9.75998
-9.40218
-8.96093
-8.44014
-7.84443
-7.17909
-6.45003
-5.66372
-4.82713
-3.94769
-3.03321
-2.09181
-1.13184
-0.161818
0.809641
1.77392
2.72245
3.64682
4.53882
5.39053
6.1944
6.94329
7.63056
8.2501
8.79641
9.26464
9.65064
9.95099
10.163
10.2848
10.3154
10.2543
10.1023
9.86056
9.53132
9.11749
8.62272
8.05143
7.40867
6.70015
5.93216
5.11151
4.2455
3.34181
2.40845
1.45371
0.486076
)
;

boundaryField
{
    xmin
    {
        type            fixedValue;
        value           uniform 0;
    }
    xmax
    {
        type            fixedValue;
        value           uniform 0;
    }
    frontAndBack
    {
        type            empty;
    }
}


// ************************************************************************* //
