/*--------------------------------*- C++ -*----------------------------------*\
  =========                 |
  \\      /  F ield         | OpenFOAM: The Open Source CFD Toolbox
   \\    /   O peration     | Website:  https://openfoam.org
    \\  /    A nd           | Version:  10
     \\/     M anipulation  |
\*---------------------------------------------------------------------------*/
FoamFile
{
    format      ascii;
    class       volScalarField;
    location    "12";
    object      ddt0(T);
}
// * * * * * * * * * * * * * * * * * * * * * * * * * * * * * * * * * * * * * //

dimensions      [0 0 -1 1 0 0 0];

internalField   nonuniform List<scalar> 
10000
(
3572.22
1314.63
1411.38
1439.24
1441.58
1441.79
1441.93
1442
1442.03
1442.04
1442.05
1442.06
1442.06
1442.07
1442.08
1442.08
1442.09
1442.1
1442.1
1442.11
1442.11
1442.12
1442.12
1442.13
1442.13
1442.14
1442.14
1442.14
1442.15
1442.15
1442.15
1442.16
1442.16
1442.16
1442.17
1442.17
1442.17
1442.17
1442.17
1442.18
1442.18
1442.18
1442.18
1442.18
1442.18
1442.18
1442.18
1442.18
1442.18
1442.18
1442.18
1442.18
1442.18
1442.18
1442.18
1442.18
1442.18
1442.18
1442.18
1442.18
1442.18
1442.18
1442.18
1442.18
1442.18
1442.18
1442.18
1442.17
1442.17
1442.17
1442.17
1442.17
1442.17
1442.17
1442.17
1442.17
1442.17
1442.16
1442.16
1442.16
1442.16
1442.16
1442.16
1442.16
1442.16
1442.16
1442.16
1442.16
1442.16
1442.15
1442.15
1442.15
1442.15
1442.15
1442.15
1442.11
1441.6
1436.67
1407.49
1536
1558.11
-661.506
-391.89
-338.049
-335.458
-335.857
-335.834
-335.754
-335.707
-335.678
-335.655
-335.634
-335.614
-335.595
-335.576
-335.558
-335.54
-335.523
-335.506
-335.49
-335.475
-335.46
-335.445
-335.431
-335.418
-335.405
-335.393
-335.381
-335.37
-335.36
-335.35
-335.34
-335.331
-335.323
-335.315
-335.308
-335.301
-335.295
-335.289
-335.284
-335.28
-335.276
-335.272
-335.269
-335.266
-335.264
-335.262
-335.26
-335.259
-335.258
-335.258
-335.258
-335.258
-335.259
-335.259
-335.26
-335.262
-335.263
-335.265
-335.267
-335.269
-335.272
-335.274
-335.277
-335.279
-335.282
-335.285
-335.288
-335.291
-335.294
-335.297
-335.3
-335.303
-335.306
-335.309
-335.312
-335.315
-335.318
-335.32
-335.323
-335.326
-335.328
-335.331
-335.333
-335.336
-335.338
-335.34
-335.342
-335.344
-335.346
-335.347
-335.349
-335.35
-335.35
-335.34
-335.311
-335.492
-338.707
-359.001
-326.282
1623.8
-432.38
-114.787
-55.0386
-52.5385
-53.1006
-53.0884
-52.9902
-52.9255
-52.8818
-52.8454
-52.8115
-52.7787
-52.7467
-52.7153
-52.6848
-52.655
-52.6261
-52.5981
-52.571
-52.5448
-52.5196
-52.4953
-52.472
-52.4496
-52.4282
-52.4077
-52.3882
-52.3695
-52.3519
-52.3351
-52.3193
-52.3044
-52.2904
-52.2774
-52.2652
-52.2539
-52.2436
-52.2341
-52.2254
-52.2176
-52.2107
-52.2045
-52.1991
-52.1944
-52.1905
-52.1872
-52.1847
-52.1828
-52.1815
-52.1808
-52.1807
-52.181
-52.1819
-52.1833
-52.1851
-52.1873
-52.1899
-52.1928
-52.196
-52.1996
-52.2034
-52.2074
-52.2117
-52.2161
-52.2207
-52.2254
-52.2303
-52.2352
-52.2402
-52.2452
-52.2502
-52.2553
-52.2603
-52.2653
-52.2703
-52.2751
-52.2799
-52.2846
-52.2892
-52.2936
-52.298
-52.3021
-52.3061
-52.31
-52.3136
-52.3171
-52.3204
-52.3234
-52.3263
-52.329
-52.3316
-52.3343
-52.3362
-52.3272
-52.2595
-52.087
-52.9861
-62.9395
-47.4945
1645.82
-385.807
-62.4519
-2.65518
-0.437659
-1.06971
-1.05072
-0.934992
-0.854372
-0.796397
-0.746559
-0.699564
-0.653956
-0.609391
-0.565824
-0.523297
-0.481874
-0.441618
-0.402578
-0.364791
-0.328281
-0.293065
-0.259152
-0.226545
-0.195247
-0.16526
-0.136583
-0.109217
-0.0831599
-0.058412
-0.034971
-0.0128339
0.00800412
0.0275497
0.0458119
0.062802
0.0785342
0.0930253
0.106295
0.118365
0.129261
0.13901
0.14764
0.155185
0.161678
0.167153
0.171647
0.175199
0.177847
0.179633
0.180595
0.180777
0.180219
0.178964
0.177054
0.174531
0.171437
0.167813
0.1637
0.15914
0.154172
0.148836
0.14317
0.137212
0.130999
0.124566
0.117948
0.111178
0.104289
0.0973122
0.0902775
0.0832135
0.0761478
0.0691068
0.0621154
0.0551975
0.0483757
0.0416712
0.0351044
0.0286943
0.0224589
0.0164149
0.0105782
0.00496368
-0.000414983
-0.00554497
-0.0104145
-0.0150131
-0.0193324
-0.0233717
-0.0271676
-0.0309141
-0.035324
-0.0419911
-0.0494454
-0.0239892
0.176132
0.537529
-1.37868
4.16715
1647.66
-383.501
-60.213
-0.692436
1.42271
0.783158
0.817216
0.94923
1.04458
1.11628
1.17936
1.2393
1.29762
1.35466
1.41045
1.46494
1.51804
1.56967
1.61977
1.66827
1.71516
1.76041
1.80399
1.8459
1.88613
1.92468
1.96154
1.99672
2.0302
2.062
2.09212
2.12055
2.14731
2.17241
2.19585
2.21765
2.23783
2.25642
2.27344
2.28891
2.30288
2.31537
2.32643
2.33609
2.3444
2.3514
2.35714
2.36168
2.36505
2.36732
2.36853
2.36874
2.368
2.36636
2.36388
2.36062
2.35663
2.35195
2.34665
2.34077
2.33438
2.3275
2.32021
2.31254
2.30455
2.29627
2.28776
2.27905
2.27019
2.26122
2.25217
2.24309
2.234
2.22495
2.21596
2.20707
2.1983
2.18968
2.18124
2.173
2.16499
2.15722
2.14972
2.1425
2.13559
2.12899
2.12273
2.11682
2.11127
2.10608
2.10125
2.09664
2.09161
2.08386
2.0685
2.04829
2.08716
2.33644
2.51768
4.34308
1647.82
-383.829
-60.6906
-1.23765
0.870141
0.24427
0.294686
0.441809
0.551162
0.636283
0.712447
0.785239
0.85619
0.925637
0.993591
1.05997
1.12468
1.18762
1.2487
1.30787
1.36508
1.42029
1.47348
1.52464
1.57375
1.6208
1.6658
1.70873
1.7496
1.7884
1.82514
1.85983
1.89246
1.92306
1.95164
1.97821
2.00281
2.02546
2.04619
2.06503
2.08204
2.09724
2.11069
2.12244
2.13254
2.14105
2.14802
2.15352
2.1576
2.16033
2.16177
2.16199
2.16105
2.15902
2.15597
2.15195
2.14705
2.14131
2.13481
2.12762
2.11978
2.11137
2.10244
2.09306
2.08328
2.07316
2.06275
2.0521
2.04127
2.0303
2.01924
2.00814
1.99703
1.98597
1.97499
1.96412
1.95341
1.94288
1.93257
1.9225
1.91271
1.90323
1.89406
1.88525
1.8768
1.86875
1.8611
1.85388
1.84709
1.84077
1.8349
1.82948
1.82423
1.8178
1.80575
1.78081
1.7528
1.79438
2.02872
2.67257
1647.94
-383.804
-60.6752
-1.21556
0.907122
0.297546
0.363197
0.524495
0.647396
0.745712
0.83483
0.920368
1.00385
1.0856
1.16562
1.24379
1.32001
1.39415
1.46613
1.53586
1.60329
1.66838
1.7311
1.79142
1.84933
1.90482
1.95787
2.00849
2.05667
2.10241
2.14572
2.18659
2.22504
2.26109
2.29475
2.32605
2.35501
2.38167
2.40607
2.42824
2.44824
2.46612
2.48193
2.49574
2.5076
2.51758
2.52575
2.53218
2.53694
2.54011
2.54176
2.54197
2.54082
2.53838
2.53473
2.52995
2.52412
2.51731
2.50961
2.50108
2.4918
2.48184
2.47128
2.46018
2.4486
2.43663
2.42432
2.41173
2.39893
2.38596
2.37289
2.35977
2.34665
2.33358
2.3206
2.30777
2.29511
2.28268
2.2705
2.25861
2.24705
2.23584
2.22502
2.21461
2.20464
2.19512
2.18609
2.17757
2.16956
2.16208
2.15516
2.14883
2.14306
2.13746
2.12989
2.11445
2.08487
2.05588
2.12838
2.42572
1648
-383.732
-60.5855
-1.10864
1.03019
0.435669
0.515486
0.690378
0.826531
0.937866
1.0398
1.13797
1.23386
1.3278
1.41976
1.50961
1.59722
1.68246
1.76522
1.84541
1.92296
1.99783
2.06997
2.13936
2.20598
2.26981
2.33084
2.38906
2.44447
2.49708
2.54687
2.59386
2.63806
2.67949
2.71818
2.75413
2.7874
2.81802
2.84603
2.87148
2.89443
2.91494
2.93307
2.94888
2.96246
2.97388
2.98322
2.99055
2.99596
2.99954
3.00138
3.00156
3.00017
2.9973
2.99304
2.98748
2.98071
2.97282
2.96389
2.95402
2.94329
2.93177
2.91956
2.90674
2.89337
2.87955
2.86533
2.8508
2.83602
2.82106
2.80598
2.79084
2.7757
2.76063
2.74566
2.73085
2.71626
2.70192
2.68787
2.67417
2.66084
2.64792
2.63544
2.62345
2.61195
2.60098
2.59058
2.58075
2.57152
2.5629
2.55492
2.5476
2.541
2.53513
2.52941
2.52093
2.50223
2.4635
2.44392
2.66757
1648.03
-383.689
-60.5248
-1.03215
1.12134
0.540817
0.634184
0.822332
0.971528
1.09572
1.21035
1.321
1.42918
1.53517
1.63894
1.74033
1.83921
1.93541
2.02883
2.11935
2.20691
2.29144
2.3729
2.45125
2.52647
2.59854
2.66745
2.73318
2.79573
2.85511
2.91131
2.96434
3.01421
3.06095
3.10458
3.14513
3.18264
3.21715
3.24871
3.27738
3.30323
3.32631
3.34671
3.36449
3.37975
3.39256
3.40302
3.41122
3.41725
3.42121
3.4232
3.42332
3.42167
3.41834
3.41345
3.4071
3.39937
3.39038
3.38022
3.36899
3.3568
3.34372
3.32985
3.3153
3.30013
3.28445
3.26833
3.25185
3.23509
3.21813
3.20104
3.18389
3.16674
3.14966
3.1327
3.11593
3.0994
3.08316
3.06725
3.05173
3.03664
3.02201
3.00789
2.99431
2.98129
2.96888
2.9571
2.94598
2.93553
2.92578
2.91675
2.90845
2.90093
2.8943
2.8886
2.88296
2.87192
2.83584
2.76389
3.00719
1648.04
-383.661
-60.4823
-0.975372
1.19186
0.624755
0.731332
0.932512
1.09458
1.23148
1.35863
1.48163
1.60194
1.71985
1.83527
1.94806
2.05805
2.16508
2.26901
2.36973
2.46716
2.56123
2.65188
2.73907
2.82278
2.90298
2.97965
3.05279
3.12239
3.18843
3.25094
3.30992
3.36538
3.41734
3.46583
3.5109
3.55257
3.5909
3.62595
3.65778
3.68646
3.71206
3.73466
3.75436
3.77125
3.78541
3.79695
3.80598
3.81259
3.8169
3.81901
3.81904
3.81709
3.81329
3.80775
3.80057
3.79187
3.78176
3.77035
3.75776
3.74408
3.72943
3.7139
3.69761
3.68064
3.66309
3.64506
3.62663
3.6079
3.58894
3.56984
3.55067
3.5315
3.51242
3.49348
3.47475
3.45628
3.43815
3.42039
3.40306
3.38621
3.36988
3.35412
3.33895
3.32443
3.31058
3.29743
3.28502
3.27336
3.26249
3.25241
3.24315
3.23474
3.22726
3.22096
3.21601
3.20912
3.1763
3.06362
3.35624
1648.05
-383.638
-60.4462
-0.925705
1.2548
0.700815
0.820374
1.0344
1.20916
1.35861
1.49813
1.63331
1.76559
1.89523
2.02216
2.14618
2.26713
2.38482
2.49912
2.60989
2.71704
2.8205
2.9202
3.0161
3.10817
3.19637
3.2807
3.36112
3.43764
3.51026
3.57897
3.64379
3.70474
3.76183
3.8151
3.86459
3.91034
3.95242
3.99088
4.02579
4.05723
4.08529
4.11004
4.1316
4.15006
4.16552
4.1781
4.1879
4.19505
4.19967
4.20186
4.20177
4.19951
4.1952
4.18897
4.18095
4.17125
4.16001
4.14733
4.13336
4.11819
4.10195
4.08476
4.06671
4.04793
4.02851
4.00857
3.98819
3.96748
3.94652
3.9254
3.90422
3.88305
3.86196
3.84104
3.82035
3.79996
3.77993
3.76032
3.74119
3.72259
3.70457
3.68717
3.67043
3.65441
3.63912
3.62462
3.61092
3.59806
3.58606
3.57495
3.56475
3.55546
3.54716
3.54013
3.53507
3.53047
3.50048
3.35221
3.69881
1648.05
-383.617
-60.4122
-0.878555
1.31495
0.773865
0.906212
1.1329
1.32018
1.48199
1.63371
1.78088
1.92495
2.06615
2.20439
2.33948
2.47121
2.5994
2.72388
2.84454
2.96126
3.07395
3.18256
3.28702
3.38731
3.48338
3.57522
3.6628
3.74613
3.82519
3.9
3.97055
4.03687
4.09899
4.15694
4.21076
4.26051
4.30624
4.34803
4.38595
4.42008
4.45052
4.47736
4.50071
4.52068
4.53739
4.55094
4.56148
4.56912
4.574
4.57625
4.57599
4.57338
4.56853
4.56159
4.5527
4.54198
4.52958
4.51563
4.50025
4.48358
4.46574
4.44687
4.42707
4.40646
4.38518
4.36331
4.34098
4.31828
4.29533
4.2722
4.249
4.22582
4.20274
4.17984
4.1572
4.13489
4.11297
4.09152
4.07059
4.05025
4.03053
4.01151
3.99321
3.97569
3.95898
3.94312
3.92815
3.91409
3.90098
3.88884
3.87769
3.86755
3.85847
3.8507
3.84524
3.84196
3.81453
3.63642
4.03161
1648.06
-383.597
-60.3792
-0.832663
1.37362
0.845234
0.99017
1.22932
1.42893
1.60291
1.76662
1.92559
2.08125
2.23382
2.38318
2.52913
2.67146
2.80996
2.94446
3.07482
3.20094
3.3227
3.44005
3.55292
3.66127
3.76506
3.86427
3.95888
4.04888
4.13426
4.21503
4.2912
4.36278
4.42982
4.49234
4.55039
4.60404
4.65333
4.69836
4.7392
4.77594
4.80868
4.83754
4.86261
4.88403
4.90192
4.9164
4.92762
4.93571
4.9408
4.94305
4.9426
4.93959
4.93418
4.9265
4.91671
4.90495
4.89137
4.87611
4.85932
4.84113
4.82168
4.80111
4.77955
4.75712
4.73395
4.71016
4.68587
4.66119
4.63623
4.6111
4.58589
4.5607
4.53563
4.51075
4.48616
4.46193
4.43814
4.41485
4.39213
4.37005
4.34866
4.32801
4.30816
4.28915
4.27102
4.25382
4.23758
4.22234
4.20812
4.19496
4.18288
4.17189
4.16203
4.15355
4.14757
4.14499
4.11979
3.91868
4.35338
1648.07
-383.578
-60.3469
-0.787737
1.43112
0.915209
1.07252
1.32393
1.53565
1.72159
1.89707
2.06763
2.23468
2.3984
2.55868
2.71529
2.868
3.01661
3.16094
3.30082
3.43615
3.5668
3.69272
3.81383
3.93008
4.04144
4.14787
4.24935
4.34587
4.43744
4.52404
4.60569
4.68242
4.75425
4.82123
4.8834
4.94083
4.99359
5.04176
5.08543
5.1247
5.15966
5.19045
5.21718
5.23998
5.25899
5.27434
5.28618
5.29466
5.29992
5.30213
5.30144
5.298
5.29198
5.28353
5.27282
5.25999
5.24521
5.22862
5.2104
5.19067
5.1696
5.14732
5.12398
5.09971
5.07466
5.04894
5.02269
4.99603
4.96907
4.94193
4.91471
4.88752
4.86045
4.83361
4.80708
4.78093
4.75527
4.73015
4.70565
4.68184
4.65877
4.63651
4.61511
4.59463
4.57509
4.55656
4.53907
4.52265
4.50734
4.49316
4.48015
4.46832
4.4577
4.44852
4.44196
4.43965
4.41621
4.19919
4.66342
1648.07
-383.559
-60.3153
-0.743743
1.48745
0.983792
1.15325
1.41668
1.64029
1.83795
2.02499
2.20691
2.3851
2.55976
2.73073
2.89778
3.06067
3.21919
3.37313
3.52233
3.66667
3.80603
3.94033
4.0695
4.19348
4.31223
4.42572
4.53392
4.63682
4.73441
4.8267
4.9137
4.99544
5.07194
5.14325
5.20943
5.27055
5.32666
5.37787
5.42428
5.46597
5.50308
5.53572
5.56403
5.58813
5.60819
5.62434
5.63674
5.64556
5.65094
5.65306
5.65208
5.64818
5.64151
5.63226
5.62059
5.60666
5.59065
5.57272
5.55304
5.53176
5.50905
5.48506
5.45993
5.43382
5.40687
5.37923
5.35101
5.32236
5.2934
5.26425
5.23502
5.20583
5.17678
5.14797
5.1195
5.09146
5.06392
5.03698
5.01071
4.98517
4.96044
4.93658
4.91365
4.89169
4.87076
4.85091
4.83217
4.81458
4.79819
4.78301
4.76908
4.75642
4.74505
4.73519
4.72802
4.72564
4.70349
4.47718
4.96134
1648.08
-383.54
-60.2844
-0.700723
1.54255
1.05091
1.23227
1.50747
1.74272
1.95186
2.1502
2.34324
2.53234
2.71769
2.89912
3.07638
3.24923
3.41742
3.58077
3.73908
3.89223
4.04009
4.18258
4.31962
4.45115
4.57711
4.69748
4.81223
4.92135
5.02482
5.12265
5.21485
5.30146
5.3825
5.45802
5.52808
5.59275
5.65211
5.70626
5.75529
5.79932
5.83848
5.87289
5.90269
5.92803
5.94906
5.96594
5.97885
5.98793
5.99338
5.99536
5.99405
5.98964
5.98229
5.9722
5.95953
5.94448
5.92722
5.90792
5.88677
5.86392
5.83955
5.81382
5.7869
5.75894
5.7301
5.70051
5.67033
5.63969
5.60873
5.57757
5.54634
5.51515
5.48412
5.45335
5.42295
5.393
5.36361
5.33485
5.30681
5.27957
5.25319
5.22773
5.20327
5.17986
5.15754
5.13638
5.1164
5.09766
5.08019
5.06402
5.04919
5.03571
5.0236
5.01307
5.00529
5.00259
4.98131
4.75153
5.24695
1648.09
-383.522
-60.2542
-0.658736
1.59636
1.11646
1.30945
1.59617
1.84279
2.06314
2.27254
2.47643
2.6762
2.87199
3.06363
3.25086
3.43342
3.61107
3.78358
3.95079
4.11253
4.26869
4.41916
4.56387
4.70275
4.83574
4.96282
5.08394
5.1991
5.30828
5.4115
5.50875
5.60008
5.68551
5.76511
5.83892
5.90703
5.96952
6.02649
6.07805
6.12431
6.16542
6.2015
6.23271
6.2592
6.28113
6.29868
6.31202
6.32132
6.32677
6.32856
6.32688
6.3219
6.31383
6.30286
6.28918
6.27297
6.25443
6.23374
6.21108
6.18665
6.16061
6.13314
6.10441
6.07459
6.04384
6.01231
5.98016
5.94753
5.91456
5.8814
5.84817
5.81498
5.78198
5.74925
5.71692
5.68509
5.65385
5.62328
5.59349
5.56454
5.53652
5.50948
5.4835
5.45864
5.43495
5.41248
5.39129
5.3714
5.35287
5.33572
5.32
5.30571
5.29288
5.2817
5.2733
5.27009
5.24938
5.02099
5.52016
1648.09
-383.505
-60.2249
-0.61784
1.64879
1.18035
1.3847
1.68265
1.94037
2.17167
2.39183
2.60632
2.81648
3.02245
3.22404
3.42099
3.61303
3.79988
3.98133
4.15719
4.32731
4.49154
4.64978
4.80195
4.94798
5.08781
5.2214
5.34872
5.46974
5.58447
5.6929
5.79504
5.89094
5.98062
6.06415
6.14158
6.213
6.27849
6.33816
6.39214
6.44053
6.48348
6.52115
6.55368
6.58123
6.60399
6.62213
6.63583
6.64528
6.65068
6.65222
6.65011
6.64453
6.6357
6.62381
6.60907
6.59167
6.57182
6.54971
6.52554
6.4995
6.47177
6.44254
6.412
6.38031
6.34764
6.31417
6.28004
6.24542
6.21046
6.17529
6.14005
6.10489
6.06991
6.03524
6.00099
5.96727
5.93419
5.90183
5.87029
5.83965
5.80999
5.78138
5.7539
5.7276
5.70254
5.67879
5.65638
5.63536
5.61578
5.59767
5.58106
5.56598
5.55244
5.54062
5.53161
5.52778
5.5074
5.28433
5.78096
1648.1
-383.488
-60.1964
-0.578084
1.69979
1.24251
1.45792
1.76681
2.03533
2.27729
2.50795
2.73275
2.95302
3.1689
3.38019
3.58659
3.78784
3.98365
4.17379
4.35807
4.53632
4.70839
4.87419
5.03361
5.18658
5.33304
5.47295
5.60626
5.73297
5.85306
5.96653
6.07341
6.17371
6.26749
6.3548
6.43571
6.5103
6.57867
6.64093
6.69719
6.74761
6.79231
6.83145
6.86521
6.89375
6.91724
6.9359
6.94989
6.95943
6.96471
6.96595
6.96335
6.95713
6.94748
6.93464
6.9188
6.90019
6.879
6.85545
6.82974
6.80207
6.77264
6.74164
6.70926
6.67569
6.64111
6.60568
6.56958
6.53297
6.496
6.45883
6.4216
6.38445
6.3475
6.31089
6.27474
6.23914
6.20423
6.17008
6.1368
6.10448
6.0732
6.04303
6.01405
5.98633
5.95992
5.93489
5.91128
5.88915
5.86853
5.84946
5.83198
5.81612
5.80189
5.78945
5.77982
5.77527
5.75509
5.54041
6.02937
1648.1
-383.471
-60.1687
-0.539503
1.7493
1.30287
1.52904
1.84857
2.1276
2.37991
2.62077
2.85559
3.0857
3.3112
3.5319
3.74749
3.95768
4.16219
4.36077
4.55322
4.73936
4.91905
5.09216
5.25861
5.4183
5.57118
5.7172
5.85632
5.98852
6.11378
6.23212
6.34355
6.44811
6.54582
6.63676
6.721
6.79863
6.86974
6.93446
6.9929
7.04522
7.09156
7.13209
7.16697
7.1964
7.22056
7.23964
7.25386
7.26341
7.26852
7.2694
7.26626
7.25933
7.24884
7.235
7.21803
7.19816
7.17561
7.15059
7.12331
7.094
7.06285
7.03006
6.99585
6.96039
6.92388
6.8865
6.84842
6.80981
6.77085
6.73168
6.69245
6.65332
6.61442
6.57587
6.53781
6.50036
6.46361
6.42769
6.39269
6.35869
6.3258
6.29408
6.26362
6.23449
6.20674
6.18045
6.15565
6.13241
6.11076
6.09075
6.07242
6.05578
6.04087
6.02782
6.0176
6.01227
5.9922
5.78814
6.26544
1648.11
-383.455
-60.1419
-0.502121
1.79728
1.36139
1.598
1.92785
2.21708
2.47945
2.7302
2.97474
3.21439
3.44923
3.67906
3.90356
4.12242
4.33535
4.54211
4.74247
4.93626
5.12331
5.30351
5.47675
5.64295
5.80203
5.95395
6.09867
6.23616
6.36641
6.48944
6.60525
6.71387
6.81537
6.90978
6.99721
7.07772
7.15144
7.21849
7.27899
7.33309
7.38096
7.42276
7.45868
7.48891
7.51363
7.53307
7.54743
7.55693
7.5618
7.56225
7.55853
7.55085
7.53945
7.52457
7.50644
7.48528
7.46133
7.43482
7.40596
7.37498
7.34209
7.30751
7.27144
7.23408
7.19564
7.1563
7.11624
7.07564
7.03468
6.99351
6.9523
6.91119
6.87033
6.82986
6.78991
6.7506
6.71204
6.67435
6.63763
6.60198
6.56749
6.53424
6.50231
6.47177
6.4427
6.41515
6.38918
6.36484
6.34218
6.32124
6.30206
6.28467
6.26909
6.25545
6.24463
6.23849
6.21847
6.02657
6.48926
1648.12
-383.439
-60.116
-0.465956
1.84373
1.41804
1.66476
2.00462
2.30372
2.57583
2.83616
3.09012
3.339
3.58289
3.82156
4.05467
4.28193
4.50302
4.71768
4.9257
5.12687
5.32104
5.50808
5.68787
5.86034
6.0254
6.18301
6.33312
6.4757
6.61075
6.73827
6.85827
6.9708
7.0759
7.17363
7.26408
7.34735
7.42353
7.49277
7.5552
7.61097
7.66026
7.70323
7.74008
7.77101
7.79622
7.81593
7.83036
7.83973
7.84429
7.84426
7.83989
7.83141
7.81907
7.8031
7.78376
7.76128
7.73591
7.70787
7.6774
7.64474
7.61009
7.5737
7.53577
7.49651
7.45613
7.41482
7.37278
7.33019
7.28722
7.24406
7.20087
7.15779
7.11499
7.07261
7.03077
6.98961
6.94925
6.90981
6.87138
6.83409
6.79801
6.76323
6.72985
6.69792
6.66753
6.63874
6.61161
6.58619
6.56253
6.54067
6.52066
6.50252
6.48628
6.47207
6.46066
6.4537
6.4337
6.25487
6.70087
1648.12
-383.425
-60.091
-0.431016
1.88861
1.4728
1.72929
2.07882
2.38748
2.669
2.9386
3.20167
3.45948
3.71211
3.95931
4.20075
4.43611
4.66507
4.88737
5.10277
5.31106
5.5121
5.70573
5.89184
6.07034
6.24115
6.40422
6.55951
6.70697
6.84662
6.97844
7.10245
7.2187
7.32724
7.42812
7.52144
7.6073
7.68581
7.75711
7.82134
7.87866
7.92924
7.97328
8.01096
8.04249
8.06809
8.08799
8.10241
8.11158
8.11576
8.11519
8.11011
8.10078
8.08744
8.07036
8.04977
8.02594
7.99911
7.96952
7.93742
7.90305
7.86664
7.82842
7.78861
7.74744
7.70511
7.66183
7.61781
7.57322
7.52827
7.48312
7.43794
7.39291
7.34817
7.30387
7.26016
7.21717
7.17502
7.13383
7.09372
7.05479
7.01713
6.98085
6.94602
6.91272
6.88103
6.85101
6.82273
6.79624
6.77159
6.74883
6.728
6.70912
6.69224
6.67745
6.66548
6.6577
6.6377
6.47234
6.90037
1648.12
-383.41
-60.0669
-0.39731
1.93191
1.52563
1.79157
2.15044
2.46831
2.75892
3.03747
3.30932
3.57574
3.8368
4.09224
4.34171
4.58489
4.82144
5.05108
5.27359
5.48874
5.69638
5.89634
6.08852
6.27282
6.44915
6.61746
6.7777
6.92984
7.07387
7.20979
7.33763
7.45742
7.56922
7.67309
7.76912
7.85742
7.93811
8.01133
8.07723
8.13597
8.18773
8.23272
8.27112
8.30317
8.32907
8.34907
8.3634
8.3723
8.37604
8.37486
8.36902
8.35878
8.3444
8.32615
8.30428
8.27906
8.25073
8.21957
8.18582
8.14972
8.11152
8.07146
8.02977
7.98667
7.9424
7.89715
7.85114
7.80456
7.75761
7.71048
7.66333
7.61634
7.56968
7.52348
7.4779
7.43309
7.38916
7.34624
7.30445
7.2639
7.22468
7.1869
7.15064
7.11598
7.08301
7.05178
7.02236
6.99481
6.96919
6.94554
6.92389
6.9043
6.88678
6.87144
6.8589
6.85032
6.83031
6.67837
7.08782
1648.13
-383.396
-60.0437
-0.36484
1.97363
1.57654
1.85157
2.21944
2.5462
2.84557
3.13273
3.41304
3.68776
3.95693
4.2203
4.4775
4.72819
4.97203
5.20875
5.43808
5.65982
5.87379
6.07983
6.27783
6.46768
6.64929
6.82261
6.98758
7.14418
7.29239
7.43222
7.56369
7.68683
7.80171
7.90839
8.00698
8.09757
8.18029
8.25529
8.32272
8.38275
8.43558
8.48141
8.52043
8.55288
8.579
8.59901
8.61317
8.62173
8.62495
8.6231
8.61644
8.60524
8.58977
8.57031
8.54712
8.52047
8.49063
8.45787
8.42243
8.38459
8.34459
8.30268
8.25909
8.21407
8.16783
8.12061
8.07262
8.02405
7.97511
7.926
7.87688
7.82795
7.77936
7.73128
7.68385
7.63722
7.59152
7.54689
7.50343
7.46127
7.42051
7.38125
7.34357
7.30757
7.27332
7.24089
7.21035
7.18176
7.15518
7.13064
7.1082
7.0879
7.06975
7.05387
7.0408
7.03143
7.0114
6.87252
7.26326
1648.13
-383.383
-60.0214
-0.333609
2.01376
1.6255
1.90929
2.28581
2.62111
2.9289
3.22435
3.51279
3.79548
4.07246
4.34344
4.60806
4.86596
5.1168
5.3603
5.59618
5.82423
6.04426
6.25612
6.45968
6.65483
6.84148
7.01958
7.18906
7.34989
7.50208
7.64561
7.78051
7.90682
8.0246
8.13393
8.2349
8.32762
8.41222
8.48886
8.55769
8.6189
8.67267
8.71922
8.75876
8.79152
8.81775
8.83769
8.85159
8.85973
8.86237
8.85979
8.85225
8.84004
8.82343
8.80272
8.77817
8.75006
8.71867
8.68428
8.64715
8.60754
8.56572
8.52194
8.47645
8.42949
8.3813
8.3321
8.28212
8.23156
8.18064
8.12955
8.07848
8.0276
7.97711
7.92714
7.87787
7.82944
7.78199
7.73565
7.69055
7.6468
7.6045
7.56377
7.5247
7.48736
7.45185
7.41824
7.38659
7.35698
7.32944
7.30404
7.28082
7.25981
7.24106
7.22464
7.21104
7.20093
7.18088
7.05443
7.42677
1648.14
-383.37
-59.9999
-0.303619
2.05229
1.67252
1.96471
2.34954
2.69304
3.00891
3.3123
3.60855
3.89889
4.18334
4.46162
4.73335
4.99816
5.2557
5.50568
5.74783
5.98191
6.20774
6.42515
6.63401
6.83421
7.02566
7.20829
7.38205
7.54691
7.70285
7.84988
7.98802
8.11731
8.23781
8.34961
8.45279
8.54749
8.63383
8.71196
8.78205
8.8443
8.89889
8.94605
8.986
9.01897
9.04522
9.065
9.07858
9.08622
9.08821
9.08482
9.07635
9.06308
9.04529
9.02327
8.99732
8.96772
8.93476
8.89871
8.85985
8.81847
8.77481
8.72915
8.68175
8.63285
8.58269
8.53151
8.47955
8.427
8.3741
8.32104
8.26802
8.21522
8.16282
8.11099
8.05989
8.00967
7.96048
7.91245
7.86571
7.82038
7.77657
7.73439
7.69393
7.65528
7.61853
7.58375
7.55101
7.52037
7.4919
7.46565
7.44166
7.41996
7.40061
7.38367
7.36957
7.35875
7.33868
7.22386
7.57838
1648.14
-383.358
-59.9794
-0.274871
2.08923
1.71758
2.01782
2.41061
2.76197
3.08558
3.39658
3.7003
3.99795
4.28956
4.57481
4.85334
5.12475
5.3887
5.64487
5.89299
6.13282
6.36417
6.58686
6.80077
7.00577
7.20177
7.3887
7.56651
7.73517
7.89465
8.04497
8.18615
8.31823
8.44127
8.55536
8.6606
8.75711
8.84503
8.92451
8.99573
9.05889
9.11419
9.16184
9.20209
9.23517
9.26135
9.28088
9.29404
9.30112
9.30239
9.29814
9.28867
9.27428
9.25526
9.23191
9.20452
9.17339
9.13882
9.10109
9.06049
9.0173
8.9718
8.92425
8.87493
8.82408
8.77195
8.7188
8.66484
8.61032
8.55544
8.50042
8.44545
8.39074
8.33645
8.28276
8.22984
8.17785
8.12694
8.07723
8.02887
7.98198
7.93667
7.89305
7.85122
7.81127
7.77329
7.73735
7.70354
7.6719
7.64251
7.61542
7.59067
7.5683
7.54836
7.53091
7.51632
7.50484
7.48476
7.38065
7.71815
1648.15
-383.346
-59.9597
-0.247365
2.12456
1.76069
2.06863
2.46903
2.82789
3.1589
3.47717
3.78802
4.09266
4.3911
4.68301
4.96802
5.24572
5.51577
5.77783
6.03163
6.27693
6.51352
6.74123
6.95992
7.16946
7.36977
7.56077
7.7424
7.91463
8.07744
8.23084
8.37486
8.50953
8.63493
8.75114
8.85827
8.95643
9.04578
9.12647
9.19869
9.26263
9.3185
9.36654
9.40698
9.44007
9.46608
9.48528
9.49795
9.50438
9.50486
9.49969
9.48917
9.47361
9.45331
9.42857
9.39971
9.36703
9.33082
9.29139
9.24902
9.20401
9.15665
9.1072
9.05594
9.00314
8.94905
8.89391
8.83798
8.78148
8.72463
8.66765
8.61075
8.55412
8.49796
8.44243
8.38771
8.33396
8.28133
8.22997
8.18
8.13156
8.08477
8.03973
7.99654
7.95531
7.91612
7.87904
7.84416
7.81154
7.78125
7.75332
7.72783
7.7048
7.68428
7.66634
7.65128
7.63919
7.61911
7.52475
7.84613
1648.15
-383.335
-59.941
-0.221102
2.1583
1.80184
2.11712
2.52478
2.8908
3.22886
3.55406
3.87171
4.18301
4.48794
4.78619
5.07736
5.36105
5.6369
5.90456
6.16375
6.41423
6.65579
6.88824
7.11145
7.32528
7.52965
7.72447
7.90969
8.08526
8.25119
8.40747
8.55413
8.69121
8.81878
8.93694
9.04578
9.14544
9.23606
9.31782
9.39089
9.45549
9.51182
9.56013
9.60065
9.63365
9.6594
9.67818
9.69028
9.69599
9.69561
9.68946
9.67783
9.66105
9.63942
9.61326
9.58289
9.54862
9.51074
9.46958
9.42543
9.37859
9.32935
9.27799
9.22479
9.17003
9.11397
9.05686
8.99894
8.94047
8.88166
8.82273
8.76391
8.70538
8.64735
8.58999
8.53348
8.47799
8.42366
8.37066
8.3191
8.26913
8.22087
8.17443
8.12991
8.08741
8.04702
8.00882
7.97289
7.9393
7.90811
7.87938
7.85316
7.82948
7.8084
7.78997
7.77446
7.7618
7.74172
7.65615
7.96237
1648.15
-383.324
-59.9231
-0.196081
2.19043
1.84103
2.1633
2.57786
2.9507
3.29546
3.62726
3.95137
4.26898
4.58009
4.88436
5.18138
5.47075
5.75208
6.02504
6.28933
6.54471
6.79095
7.02789
7.25535
7.47322
7.6814
7.8798
8.06837
8.24708
8.4159
8.57485
8.72395
8.86324
8.99281
9.11273
9.22312
9.32412
9.41587
9.49855
9.57234
9.63747
9.69414
9.7426
9.7831
9.81592
9.84132
9.85959
9.87104
9.87595
9.87465
9.86745
9.85466
9.83661
9.81361
9.78599
9.75407
9.71817
9.67861
9.63569
9.58974
9.54105
9.48992
9.43664
9.3815
9.32478
9.26674
9.20765
9.14776
9.08732
9.02655
8.96569
8.90495
8.84454
8.78465
8.72548
8.6672
8.60997
8.55397
8.49933
8.44621
8.39473
8.34502
8.29718
8.25134
8.20759
8.16602
8.12672
8.08976
8.05522
8.02315
7.99362
7.96668
7.94237
7.92073
7.90184
7.88589
7.8727
7.85265
7.77493
8.06696
1648.16
-383.314
-59.9061
-0.1723
2.22097
1.87827
2.20717
2.62829
3.0076
3.35872
3.69676
4.027
4.3506
4.66756
4.97752
5.28008
5.5748
5.86132
6.13928
6.40839
6.66838
6.91904
7.16018
7.39163
7.61329
7.82503
8.02677
8.21847
8.40008
8.57159
8.733
8.88434
9.02566
9.15703
9.27855
9.39033
9.49251
9.58523
9.66869
9.74307
9.80859
9.86549
9.91399
9.95437
9.9869
10.0119
10.0295
10.0403
10.0443
10.042
10.0337
10.0197
10.0003
9.97591
9.94679
9.91329
9.87574
9.83446
9.78977
9.74199
9.69143
9.6384
9.5832
9.52611
9.46743
9.40742
9.34635
9.28449
9.22209
9.15937
9.09658
9.03394
8.97166
8.90993
8.84895
8.78891
8.72998
8.67231
8.61606
8.56138
8.50841
8.45726
8.40806
8.36092
8.31593
8.2732
8.23281
8.19484
8.15935
8.12643
8.09611
8.06847
8.04354
8.02136
8.002
7.98564
7.97197
7.95195
7.8812
8.15998
1648.16
-383.304
-59.89
-0.149756
2.24991
1.91356
2.24875
2.67607
3.06149
3.41863
3.76258
4.09861
4.42788
4.75036
5.06569
5.37347
5.67325
5.96465
6.24732
6.52095
6.78527
7.04006
7.28514
7.52033
7.74551
7.96057
8.16542
8.36002
8.54431
8.71829
8.88195
9.03534
9.1785
9.3115
9.43444
9.54744
9.65064
9.74419
9.82829
9.90313
9.96892
10.0259
10.0744
10.1145
10.1466
10.1711
10.1881
10.198
10.2011
10.1978
10.1883
10.173
10.1523
10.1264
10.0957
10.0606
10.0214
9.97836
9.93188
9.88226
9.82983
9.77489
9.71775
9.65871
9.59806
9.53607
9.47304
9.40921
9.34485
9.2802
9.21549
9.15096
9.08681
9.02326
8.9605
8.89872
8.83808
8.77877
8.72093
8.66472
8.61026
8.5577
8.50715
8.45872
8.41252
8.36865
8.32718
8.28821
8.2518
8.21803
8.18695
8.15861
8.13307
8.11037
8.09057
8.0738
8.05969
8.03973
7.97512
8.24154
1648.16
-383.295
-59.8747
-0.128443
2.27727
1.94692
2.28803
2.72121
3.11241
3.47523
3.82475
4.16623
4.50083
4.82851
5.1489
5.46158
5.76611
6.0621
6.34917
6.62704
6.89541
7.15407
7.40281
7.64148
7.86993
8.08807
8.2958
8.49306
8.67981
8.85605
9.02177
9.17701
9.32181
9.45626
9.58046
9.69451
9.79858
9.89282
9.97741
10.0526
10.1185
10.1755
10.2238
10.2636
10.2952
10.319
10.3353
10.3443
10.3464
10.342
10.3313
10.3147
10.2925
10.2651
10.2329
10.1962
10.1552
10.1104
10.0621
10.0107
9.95633
9.89947
9.84039
9.77939
9.71677
9.65282
9.58782
9.52204
9.45573
9.38915
9.32253
9.25612
9.19013
9.12477
9.06024
8.99672
8.93441
8.87347
8.81405
8.75632
8.70041
8.64645
8.59457
8.54487
8.49748
8.45247
8.40995
8.37
8.33269
8.29808
8.26625
8.23724
8.2111
8.18789
8.16765
8.1505
8.13598
8.11609
8.05689
8.31177
1648.17
-383.287
-59.8604
-0.108353
2.30305
1.97834
2.32504
2.76374
3.16036
3.52852
3.88328
4.22989
4.5695
4.90205
5.22718
5.54446
5.85343
6.1537
6.4449
6.72671
6.99885
7.2611
7.51325
7.75514
7.98662
8.20759
8.41796
8.61766
8.80666
8.98495
9.15252
9.30942
9.45569
9.59141
9.71668
9.83164
9.93642
10.0312
10.1162
10.1915
10.2575
10.3143
10.3623
10.4017
10.4328
10.4559
10.4713
10.4794
10.4804
10.4748
10.4628
10.4448
10.4212
10.3923
10.3585
10.32
10.2773
10.2308
10.1806
10.1273
10.0711
10.0123
9.95125
9.8883
9.82372
9.7578
9.69084
9.6231
9.55485
9.48635
9.41785
9.34957
9.28175
9.21459
9.1483
9.08308
9.01911
8.95655
8.89558
8.83635
8.779
8.72366
8.67046
8.61952
8.57095
8.52483
8.48128
8.44036
8.40215
8.36674
8.33416
8.3045
8.27778
8.25406
8.23339
8.21588
8.20099
8.18118
8.12673
8.37081
1648.17
-383.279
-59.8469
-0.0894778
2.32727
2.00786
2.3598
2.80366
3.20538
3.57854
3.93821
4.28962
4.63391
4.97102
5.30058
5.62214
5.93526
6.23952
6.53454
6.82002
7.09566
7.36123
7.61653
7.86138
8.09565
8.31921
8.53199
8.73391
8.92495
9.10507
9.2743
9.43266
9.58022
9.71704
9.84323
9.95893
10.0643
10.1594
10.2446
10.3201
10.3859
10.4425
10.4901
10.529
10.5594
10.5817
10.5962
10.6033
10.6032
10.5963
10.583
10.5636
10.5385
10.508
10.4725
10.4324
10.3879
10.3395
10.2876
10.2323
10.1742
10.1135
10.0505
9.98559
9.91905
9.85117
9.78225
9.71256
9.64239
9.57198
9.5016
9.43147
9.36183
9.29289
9.22487
9.15796
9.09234
9.02819
8.96569
8.90497
8.8462
8.7895
8.73501
8.68284
8.6331
8.5859
8.54132
8.49946
8.46038
8.42416
8.39087
8.36056
8.33327
8.30906
8.28798
8.27012
8.25489
8.23517
8.1849
8.41884
1648.17
-383.271
-59.8342
-0.0718045
2.34995
2.03549
2.39233
2.84102
3.2475
3.62533
3.98958
4.34546
4.69411
5.03547
5.36915
5.6947
6.01166
6.31962
6.61819
6.90705
7.18592
7.45455
7.71274
7.9603
8.19711
8.42303
8.63799
8.84192
9.03477
9.21654
9.38723
9.54687
9.69552
9.83327
9.96022
10.0765
10.1823
10.2777
10.363
10.4383
10.504
10.5603
10.6074
10.6456
10.6753
10.6967
10.7103
10.7162
10.7149
10.7067
10.692
10.6712