/*--------------------------------*- C++ -*----------------------------------*\
  =========                 |
  \\      /  F ield         | OpenFOAM: The Open Source CFD Toolbox
   \\    /   O peration     | Website:  https://openfoam.org
    \\  /    A nd           | Version:  10
     \\/     M anipulation  |
\*---------------------------------------------------------------------------*/
FoamFile
{
    format      ascii;
    class       volScalarField;
    location    "12";
    object      T_0;
}
// * * * * * * * * * * * * * * * * * * * * * * * * * * * * * * * * * * * * * //

dimensions      [0 0 0 1 0 0 0];

internalField   nonuniform List<scalar> 
10000
(
374.95
361.206
356.472
354.368
353.203
352.448
351.907
351.491
351.154
350.872
350.629
350.414
350.222
350.046
349.885
349.735
349.595
349.463
349.338
349.219
349.105
348.996
348.892
348.791
348.695
348.601
348.511
348.424
348.34
348.258
348.179
348.103
348.029
347.957
347.888
347.821
347.756
347.693
347.632
347.573
347.516
347.461
347.408
347.356
347.307
347.259
347.213
347.168
347.125
347.084
347.044
347.006
346.97
346.934
346.901
346.868
346.837
346.807
346.779
346.752
346.726
346.701
346.677
346.654
346.633
346.612
346.593
346.574
346.557
346.54
346.524
346.509
346.495
346.482
346.469
346.457
346.446
346.436
346.426
346.417
346.408
346.401
346.393
346.386
346.38
346.375
346.369
346.365
346.36
346.357
346.353
346.35
346.348
346.346
346.344
346.343
346.342
346.342
346.342
346.341
388.529
374.616
366.801
362.178
359.21
357.145
355.609
354.405
353.421
352.59
351.871
351.234
350.661
350.139
349.658
349.211
348.792
348.397
348.022
347.666
347.325
346.999
346.686
346.386
346.096
345.816
345.546
345.285
345.032
344.788
344.551
344.322
344.1
343.886
343.678
343.476
343.281
343.093
342.91
342.733
342.562
342.397
342.238
342.084
341.935
341.791
341.653
341.52
341.391
341.267
341.148
341.034
340.924
340.818
340.717
340.62
340.526
340.437
340.352
340.27
340.192
340.117
340.046
339.978
339.914
339.852
339.794
339.738
339.685
339.635
339.588
339.543
339.501
339.461
339.423
339.387
339.354
339.323
339.294
339.266
339.241
339.217
339.195
339.175
339.156
339.139
339.123
339.109
339.097
339.085
339.075
339.067
339.059
339.053
339.048
339.045
339.042
339.041
339.041
339.042
393.092
381.918
373.932
368.332
364.31
361.309
358.978
357.098
355.534
354.197
353.029
351.989
351.05
350.192
349.398
348.659
347.966
347.311
346.69
346.098
345.533
344.992
344.472
343.972
343.49
343.024
342.575
342.141
341.72
341.314
340.92
340.539
340.17
339.812
339.466
339.13
338.806
338.492
338.188
337.893
337.609
337.334
337.068
336.812
336.564
336.325
336.094
335.872
335.658
335.452
335.254
335.063
334.88
334.704
334.535
334.373
334.218
334.069
333.927
333.791
333.661
333.536
333.418
333.305
333.197
333.095
332.997
332.904
332.817
332.733
332.654
332.58
332.509
332.442
332.38
332.321
332.265
332.213
332.164
332.119
332.076
332.037
332
331.966
331.935
331.907
331.881
331.857
331.836
331.817
331.8
331.786
331.774
331.764
331.756
331.749
331.745
331.743
331.743
331.745
395.025
386.028
378.679
372.909
368.393
364.808
361.898
359.48
357.424
355.64
354.064
352.651
351.366
350.187
349.093
348.071
347.11
346.201
345.338
344.516
343.729
342.975
342.25
341.552
340.88
340.23
339.603
338.996
338.41
337.841
337.291
336.759
336.243
335.743
335.259
334.79
334.336
333.897
333.472
333.061
332.663
332.278
331.907
331.548
331.201
330.867
330.545
330.234
329.935
329.647
329.369
329.103
328.846
328.6
328.364
328.137
327.92
327.712
327.513
327.323
327.141
326.967
326.801
326.643
326.492
326.349
326.213
326.083
325.96
325.843
325.733
325.629
325.53
325.437
325.349
325.266
325.188
325.116
325.047
324.984
324.924
324.869
324.818
324.77
324.727
324.687
324.651
324.618
324.588
324.562
324.538
324.518
324.501
324.487
324.476
324.467
324.461
324.458
324.458
324.461
396.02
388.486
381.85
376.235
371.55
367.635
364.332
361.506
359.049
356.883
354.946
353.193
351.589
350.107
348.727
347.434
346.215
345.06
343.961
342.913
341.909
340.945
340.018
339.126
338.265
337.433
336.63
335.852
335.1
334.372
333.667
332.983
332.321
331.68
331.059
330.458
329.875
329.312
328.766
328.238
327.727
327.234
326.757
326.296
325.851
325.422
325.008
324.609
324.225
323.855
323.499
323.157
322.827
322.511
322.208
321.917
321.638
321.371
321.115
320.871
320.637
320.414
320.201
319.998
319.804
319.62
319.445
319.279
319.121
318.971
318.829
318.695
318.568
318.448
318.336
318.229
318.13
318.036
317.948
317.867
317.79
317.719
317.654
317.593
317.537
317.486
317.439
317.397
317.359
317.325
317.295
317.269
317.247
317.229
317.214
317.203
317.196
317.192
317.192
317.195
396.605
390.042
384.003
378.634
373.941
369.858
366.297
363.169
360.394
357.908
355.656
353.599
351.701
349.939
348.291
346.74
345.273
343.881
342.553
341.284
340.068
338.899
337.774
336.69
335.644
334.633
333.655
332.709
331.793
330.906
330.047
329.214
328.407
327.626
326.869
326.136
325.426
324.738
324.072
323.429
322.806
322.204
321.622
321.06
320.517
319.994
319.489
319.002
318.533
318.081
317.647
317.229
316.827
316.442
316.071
315.716
315.376
315.05
314.738
314.439
314.154
313.882
313.622
313.374
313.138
312.913
312.699
312.496
312.303
312.121
311.947
311.784
311.629
311.483
311.345
311.215
311.094
310.979
310.872
310.772
310.679
310.593
310.512
310.438
310.37
310.307
310.25
310.199
310.152
310.111
310.074
310.043
310.016
309.993
309.976
309.962
309.953
309.949
309.948
309.952
396.977
391.071
385.491
380.363
375.726
371.566
367.839
364.489
361.462
358.709
356.186
353.858
351.696
349.675
347.775
345.98
344.278
342.658
341.11
339.627
338.204
336.836
335.517
334.245
333.016
331.828
330.678
329.566
328.488
327.444
326.433
325.452
324.502
323.582
322.69
321.826
320.989
320.179
319.394
318.635
317.901
317.191
316.505
315.842
315.202
314.585
313.989
313.415
312.862
312.329
311.817
311.324
310.85
310.395
309.958
309.539
309.138
308.753
308.385
308.033
307.696
307.375
307.068
306.776
306.497
306.232
305.98
305.74
305.513
305.297
305.093
304.899
304.717
304.544
304.382
304.229
304.085
303.95
303.824
303.706
303.596
303.494
303.399
303.311
303.231
303.157
303.09
303.029
302.974
302.925
302.882
302.845
302.813
302.787
302.766
302.75
302.739
302.734
302.733
302.738
397.225
391.77
386.53
381.605
377.043
372.851
369.013
365.498
362.27
359.294
356.538
353.971
351.568
349.309
347.175
345.152
343.226
341.388
339.628
337.939
336.316
334.752
333.244
331.788
330.38
329.019
327.7
326.424
325.187
323.988
322.826
321.7
320.608
319.55
318.524
317.531
316.568
315.636
314.733
313.86
313.015
312.198
311.409
310.646
309.91
309.199
308.513
307.852
307.215
306.602
306.012
305.445
304.899
304.375
303.873
303.39
302.928
302.485
302.061
301.655
301.268
300.898
300.545
300.208
299.887
299.581
299.291
299.015
298.753
298.505
298.269
298.047
297.836
297.638
297.45
297.274
297.109
296.953
296.808
296.672
296.546
296.428
296.319
296.218
296.125
296.04
295.962
295.892
295.829
295.773
295.723
295.68
295.643
295.613
295.589
295.57
295.558
295.552
295.551
295.557
397.395
392.252
387.258
382.491
377.997
373.792
369.875
366.232
362.841
359.678
356.718
353.938
351.319
348.842
346.491
344.252
342.115
340.069
338.106
336.219
334.401
332.649
330.956
329.32
327.738
326.206
324.722
323.284
321.89
320.539
319.228
317.958
316.726
315.532
314.374
313.252
312.165
311.113
310.093
309.107
308.152
307.229
306.337
305.475
304.643
303.84
303.065
302.318
301.598
300.905
300.238
299.596
298.979
298.387
297.819
297.273
296.75
296.25
295.77
295.312
294.873
294.455
294.055
293.675
293.312
292.966
292.638
292.326
292.029
291.748
291.482
291.23
290.993
290.768
290.556
290.357
290.17
289.994
289.83
289.676
289.533
289.399
289.276
289.162
289.057
288.961
288.873
288.793
288.722
288.658
288.602
288.553
288.512
288.477
288.45
288.429
288.416
288.408
288.408
288.414
397.51
392.584
387.764
383.113
378.67
374.456
370.478
366.73
363.202
359.877
356.738
353.769
350.953
348.275
345.721
343.281
340.944
338.7
336.543
334.464
332.46
330.524
328.652
326.842
325.088
323.39
321.743
320.147
318.599
317.098
315.641
314.229
312.859
311.53
310.242
308.993
307.784
306.612
305.477
304.378
303.315
302.287
301.293
300.333
299.406
298.511
297.647
296.815
296.013
295.24
294.497
293.782
293.094
292.434
291.8
291.192
290.61
290.051
289.517
289.006
288.517
288.051
287.605
287.181
286.776
286.391
286.025
285.677
285.346
285.033
284.736
284.455
284.19
283.94
283.704
283.481
283.273
283.077
282.893
282.722
282.562
282.413
282.276
282.148
282.031
281.924
281.826
281.737
281.658
281.587
281.524
281.47
281.423
281.385
281.354
281.331
281.316
281.308
281.307
281.313
397.589
392.809
388.107
383.534
379.124
374.897
370.864
367.026
363.378
359.911
356.613
353.472
350.476
347.612
344.871
342.241
339.714
337.283
334.939
332.677
330.492
328.379
326.334
324.353
322.433
320.571
318.766
317.014
315.315
313.666
312.066
310.514
309.008
307.547
306.13
304.756
303.425
302.135
300.886
299.677
298.506
297.374
296.28
295.222
294.201
293.215
292.264
291.347
290.463
289.612
288.793
288.005
287.248
286.52
285.822
285.152
284.51
283.894
283.305
282.742
282.203
281.689
281.198
280.73
280.284
279.86
279.456
279.072
278.708
278.363
278.036
277.726
277.434
277.157
276.897
276.652
276.422
276.206
276.004
275.815
275.638
275.475
275.323
275.182
275.053
274.935
274.827
274.729
274.641
274.563
274.494
274.434
274.383
274.34
274.306
274.281
274.264
274.255
274.254
274.261
397.639
392.954
388.327
383.802
379.405
375.158
371.072
367.151
363.395
359.799
356.356
353.059
349.896
346.861
343.943
341.135
338.429
335.818
333.296
330.858
328.499
326.214
324.001
321.854
319.772
317.752
315.791
313.887
312.04
310.246
308.505
306.815
305.175
303.584
302.04
300.543
299.092
297.686
296.324
295.005
293.729
292.494
291.3
290.147
289.032
287.956
286.919
285.918
284.953
284.024
283.13
282.27
281.444
280.649
279.887
279.155
278.454
277.783
277.139
276.524
275.936
275.375
274.839
274.328
273.841
273.377
272.936
272.517
272.119
271.742
271.385
271.047
270.727
270.426
270.141
269.874
269.622
269.386
269.165
268.959
268.767
268.588
268.422
268.268
268.127
267.998
267.88
267.773
267.677
267.591
267.516
267.45
267.394
267.348
267.311
267.283
267.264
267.254
267.253
267.261
397.669
393.039
388.454
383.95
379.55
375.273
371.131
367.131
363.274
359.559
355.983
352.54
349.223
346.027
342.943
339.967
337.09
334.309
331.617
329.009
326.482
324.032
321.655
319.347
317.107
314.932
312.82
310.768
308.775
306.839
304.96
303.135
301.363
299.643
297.975
296.357
294.788
293.267
291.794
290.367
288.986
287.65
286.358
285.109
283.902
282.738
281.614
280.531
279.486
278.48
277.512
276.581
275.685
274.825
273.999
273.207
272.448
271.72
271.023
270.357
269.72
269.111
268.531
267.977
267.449
266.947
266.469
266.015
265.584
265.176
264.788
264.422
264.076
263.749
263.441
263.151
262.878
262.622
262.383
262.159
261.951
261.757
261.577
261.411
261.258
261.117
260.99
260.874
260.769
260.676
260.595
260.523
260.463
260.413
260.372
260.342
260.322
260.311
260.31
260.318
397.683
393.078
388.508
384.003
379.585
375.27
371.069
366.989
363.036
359.209
355.507
351.928
348.466
345.118
341.878
338.741
335.703
332.758
329.903
327.133
324.444
321.833
319.298
316.834
314.441
312.115
309.854
307.657
305.522
303.448
301.432
299.475
297.574
295.728
293.937
292.199
290.514
288.88
287.297
285.764
284.28
282.844
281.455
280.112
278.815
277.563
276.354
275.189
274.065
272.984
271.942
270.94
269.977
269.051
268.163
267.31
266.493
265.71
264.961
264.243
263.558
262.903
262.278
261.682
261.114
260.574
260.059
259.571
259.107
258.667
258.25
257.856
257.483
257.131
256.8
256.487
256.194
255.919
255.661
255.42
255.195
254.986
254.793
254.614
254.449
254.298
254.16
254.035
253.923
253.823
253.735
253.658
253.593
253.539
253.495
253.463
253.44
253.429
253.428
253.436
397.685
393.08
388.504
383.982
379.532
375.169
370.905
366.746
362.698
358.763
354.942
351.233
347.634
344.142
340.753
337.464
334.271
331.17
328.158
325.231
322.386
319.621
316.932
314.317
311.774
309.301
306.896
304.557
302.283
300.073
297.925
295.837
293.809
291.84
289.928
288.073
286.274
284.529
282.838
281.2
279.614
278.079
276.594
275.159
273.773
272.434
271.142
269.896
268.694
267.537
266.423
265.352
264.321
263.332
262.381
261.469
260.595
259.757
258.955
258.188
257.454
256.754
256.085
255.447
254.84
254.261
253.711
253.188
252.691
252.221
251.775
251.352
250.953
250.577
250.222
249.888
249.574
249.279
249.003
248.745
248.505
248.281
248.074
247.882
247.705
247.544
247.396
247.263
247.142
247.035
246.941
246.858
246.788
246.73
246.684
246.649
246.625
246.612
246.611
246.62
397.677
393.054
388.454
383.9
379.407
374.989
370.656
366.416
362.275
358.235
354.298
350.465
346.735
343.106
339.575
336.141
332.799
329.549
326.386
323.308
320.312
317.397
314.559
311.798
309.109
306.493
303.948
301.471
299.061
296.718
294.439
292.224
290.072
287.981
285.951
283.981
282.069
280.215
278.418
276.677
274.991
273.359
271.78
270.254
268.779
267.355
265.98
264.654
263.376
262.145
260.96
259.819
258.723
257.669
256.658
255.687
254.756
253.865
253.011
252.194
251.413
250.667
249.955
249.276
248.629
248.013
247.427
246.87
246.342
245.84
245.365
244.916
244.491
244.09
243.712
243.356
243.021
242.707
242.413
242.139
241.883
241.644
241.423
241.219
241.031
240.859
240.702
240.559
240.431
240.317
240.216
240.129
240.054
239.992
239.942
239.905
239.879
239.866
239.864
239.874
397.661
393.005
388.367
383.769
379.224
374.744
370.339
366.015
361.78
357.637
353.589
349.636
345.779
342.018
338.351
334.777
331.293
327.898
324.59
321.366
318.225
315.165
312.183
309.278
306.449
303.694
301.011
298.399
295.857
293.384
290.978
288.638
286.364
284.155
282.008
279.925
277.903
275.941
274.04
272.197
270.413
268.685
267.014
265.398
263.836
262.328
260.872
259.468
258.114
256.81
255.554
254.346
253.184
252.068
250.996
249.967
248.981
248.036
247.131
246.265
245.438
244.647
243.892
243.172
242.487
241.834
241.212
240.622
240.062
239.53
239.026
238.55
238.099
237.674
237.273
236.896
236.541
236.208
235.896
235.605
235.333
235.081
234.846
234.63
234.43
234.248
234.081
233.93
233.794
233.672
233.565
233.472
233.393
233.327
233.274
233.235
233.208
233.193
233.191
233.201
397.639
392.937
388.251
383.599
378.994
374.445
369.963
365.554
361.225
356.98
352.822
348.753
344.774
340.885
337.087
333.377
329.756
326.222
322.774
319.409
316.128
312.927
309.805
306.762
303.796
300.905
298.088
295.345
292.674
290.073
287.543
285.082
282.688
280.362
278.102
275.907
273.777
271.711
269.707
267.764
265.883
264.062
262.299
260.595
258.948
257.357
255.821
254.339
252.911
251.535
250.21
248.935
247.708
246.53
245.399
244.313
243.272
242.274
241.319
240.405
239.531
238.696
237.9
237.14
236.415
235.726
235.07
234.447
233.855
233.293
232.762
232.258
231.782
231.333
230.91
230.511
230.136
229.785
229.455
229.148
228.861
228.594
228.346
228.117
227.907
227.713
227.537
227.377
227.234
227.105
226.992
226.894
226.81
226.74
226.684
226.642
226.614
226.598
226.596
226.606
397.611
392.854
388.111
383.397
378.724
374.102
369.54
365.044
360.62
356.273
352.007
347.824
343.726
339.714
335.788
331.949
328.195
324.526
320.942
317.442
314.023
310.686
307.429
304.251
301.152
298.129
295.182
292.311
289.513
286.789
284.137
281.556
279.046
276.606
274.235
271.931
269.695
267.525
265.42
263.38
261.404
259.49
257.638
255.847
254.116
252.444
250.829
249.272
247.77
246.323
244.929
243.589
242.299
241.06
239.87
238.728
237.633
236.583
235.578
234.617
233.698
232.819
231.981
231.181
230.419
229.694
229.003
228.347
227.725
227.134
226.574
226.044
225.544
225.071
224.625
224.206
223.811
223.441
223.094
222.77
222.468
222.187
221.927
221.686
221.464
221.26
221.075
220.906
220.755
220.62
220.501
220.397
220.309
220.235
220.176
220.131
220.101
220.085
220.082
220.093
397.58
392.76
387.951
383.168
378.423
373.723
369.077
364.492
359.972
355.525
351.152
346.857
342.643
338.511
334.461
330.496
326.613
322.814
319.099
315.466
311.915
308.446
305.057
301.749
298.519
295.368
292.295
289.298
286.378
283.533
280.762
278.065
275.441
272.889
270.408
267.998
265.658
263.387
261.184
259.048
256.978
254.974
253.034
251.158
249.344
247.592
245.9
244.268
242.694
241.177
239.716
238.311
236.959
235.66
234.412
233.215
232.066
230.966
229.912
228.904
227.94
227.019
226.139
225.301
224.501
223.74
223.016
222.328
221.675
221.055
220.468
219.912
219.387
218.891
218.423
217.983
217.569
217.18
216.817
216.477
216.159
215.865
215.591
215.338
215.105
214.891
214.697
214.52
214.361
214.219
214.094
213.985
213.892
213.815
213.753
213.706
213.674
213.656
213.653
213.665
397.545
392.655
387.775
382.919
378.096
373.314
368.582
363.906
359.291
354.742
350.264
345.859
341.531
337.282
333.112
329.023
325.016
321.091
317.247
313.486
309.807
306.21
302.693
299.257
295.902
292.626
289.429
286.311
283.27
280.307
277.42
274.609
271.874
269.213
266.625
264.111
261.669
259.299
256.999
254.769
252.608
250.515
248.489
246.529
244.634
242.803
241.036
239.33
237.685
236.1
234.573
233.104
231.691
230.333
229.028
227.776
226.576
225.425
224.323
223.269
222.261
221.297
220.378
219.501
218.665
217.869
217.111
216.392
215.708
215.06
214.446
213.864
213.315
212.796
212.306
211.846
211.413
211.006
210.626
210.27
209.938
209.629
209.343
209.078
208.834
208.611
208.407
208.222
208.055
207.906
207.775
207.661
207.564
207.483
207.418
207.368
207.334
207.316
207.313
207.324
397.508
392.543
387.586
382.651
377.747
372.882
368.061
363.292
358.581
353.931
349.348
344.836
340.396
336.031
331.744
327.536
323.407
319.359
315.392
311.506
307.702
303.98
300.339
296.78
293.301
289.904
286.587
283.35
280.192
277.114
274.114
271.192
268.347
265.58
262.888
260.272
257.73
255.263
252.868
250.546
248.296
246.115
244.005
241.963
239.989
238.081
236.239
234.461
232.747
231.094
229.503
227.971
226.498
225.081
223.721
222.416
221.164
219.964
218.815
217.715
216.663
215.658
214.699
213.784
212.912
212.082
211.292
210.541
209.828
209.151
208.511
207.904
207.33
206.789
206.278
205.798
205.346
204.921
204.524
204.153
203.806
203.484
203.185
202.909
202.654
202.421
202.208
202.015
201.841
201.685
201.548
201.429
201.327
201.242
201.174
201.123
201.087
201.068
201.064
201.076
397.469
392.424
387.387
382.371
377.382
372.429
367.519
362.656
357.848
353.098
348.412
343.792
339.243
334.766
330.364
326.038
321.791
317.623
313.536
309.529
305.604
301.76
297.998
294.319
290.721
287.205
283.771
280.418
277.147
273.956
270.845
267.815
264.864
261.992
259.199
256.483
253.844
251.281
248.794
246.382
244.044
241.778
239.585
237.463
235.41
233.427
231.512
229.663
227.881
226.162
224.507
222.914
221.382
219.909
218.494
217.136
215.833
214.585
213.389
212.245
211.15
210.105
209.107
208.155
207.247
206.383
205.561
204.779
204.037
203.333
202.666
202.034
201.437
200.874
200.342
199.841
199.371
198.929
198.516
198.129
197.768
197.433
197.121
196.833
196.568
196.325
196.103
195.902
195.721
195.559
195.416
195.292
195.185
195.097
195.026
194.972
194.934
194.914
194.91
194.922
397.427
392.301
387.18
382.079
377.004
371.962
366.96
362.003
357.098
352.248
347.459
342.734
338.076
333.488
328.974
324.535
320.172
315.887
311.682
307.558
303.514
299.553
295.673
291.877
288.163
284.532
280.983
277.518
274.135
270.835
267.617
264.481
261.426
258.452
255.559
252.746
250.012
247.356
244.779
242.278
239.854
237.505
235.231
233.03
230.901
228.844
226.857
224.939
223.09
221.307
219.589
217.936
216.345
214.816
213.348
211.938
210.586
209.29
208.049
206.861
205.725
204.639
203.603
202.614
201.672
200.774
199.92
199.109
198.338
197.607
196.914
196.258
195.638
195.052
194.5
193.98
193.491
193.033
192.603
192.201
191.826
191.477
191.154
190.855
190.579
190.326
190.096
189.886
189.698
189.529
189.381
189.251
189.141
189.049
188.975
188.918
188.879
188.858
188.853
188.866
397.385
392.173
386.967
381.779
376.615
371.483
366.388
361.337
356.334
351.385
346.494
341.664
336.9
332.204
327.58
323.029
318.553
314.155
309.835
305.596
301.438
297.361
293.367
289.456
285.629
281.886
278.227
274.651
271.16
267.753
264.43
261.191
258.035
254.962
251.971
249.063
246.236
243.49
240.824
238.237
235.729
233.298
230.944
228.666
226.463
224.334
222.277
220.291
218.376
216.529
214.751
213.038
211.391
209.807
208.286
206.826
205.425
204.082
202.796
201.566
200.388
199.264
198.19
197.165
196.188
195.258
194.373
193.532
192.733
191.976
191.257
190.577
189.935
189.328
188.755
188.216
187.709
187.234
186.788
186.371
185.983
185.621
185.286
184.975
184.689
184.427
184.188
183.971
183.775
183.6
183.446
183.312
183.197
183.101
183.024
182.965
182.924
182.902
182.897
182.91
397.342
392.043
386.749
381.472
376.219
370.995
365.808
360.661
355.561
350.513
345.521
340.588
335.719
330.917
326.184
321.524
316.938
312.429
307.998
303.646
299.376
295.188
291.082
287.06
283.123
279.27
275.503
271.821
268.224
264.713
261.288
257.948
254.693
251.523
248.438
245.436
242.519
239.684
236.931
234.26
231.67
229.16
226.728
224.375
222.099
219.898
217.773
215.721
213.741
211.833
209.994
208.224
206.521
204.884
203.311
201.801
200.353
198.964
197.634
196.361
195.144
193.981
192.87
191.81
190.8
189.838
188.922
188.052
187.226
186.442
185.699
184.995
184.33
183.702
183.11
182.552
182.028
181.535
181.074
180.643
180.24
179.866
179.519
179.198
178.902
178.63
178.382
178.157
177.954
177.774
177.614
177.474
177.355
177.256
177.176
177.115
177.072
177.049
177.044
177.056
397.297
391.91
386.527
381.161
375.817
370.501
365.22
359.979
354.782
349.636
344.543
339.509
334.536
329.629
324.791
320.024
315.33
310.712
306.172
301.712
297.332
293.035
288.821
284.691
280.646
276.687
272.814
269.028
265.329
261.717
258.191
254.753
251.402
248.138
244.96
241.868
238.861
235.94
233.103
230.35
227.679
225.091
222.584
220.157
217.809
215.54
213.347
211.23
209.188
207.218
205.321
203.495
201.737
200.047
198.424
196.866
195.371
193.937
192.564
191.25
189.993
188.792
187.645
186.551
185.508
184.515
183.569
182.671
181.817
181.008
180.24
179.514
178.827
178.178
177.566
176.99
176.448
175.939
175.463
175.017
174.602
174.215
173.856
173.524
173.218
172.937
172.681
172.448
172.239
172.052
171.886
171.742
171.619
171.516
171.433
171.369
171.325
171.301
171.295
171.308
397.253
391.776
386.304
380.846
375.411
370.003
364.629
359.293
354
348.755
343.564
338.429
333.355
328.345
323.403
318.531
313.732
309.008
304.362
299.795
295.309
290.905
286.585
282.35
278.201
274.138
270.163
266.275
262.476
258.765
255.143
251.609
248.164
244.807
241.539
238.359
235.266
232.26
229.341
226.507
223.759
221.094
218.513
216.014
213.597
211.259
209.001
206.821
204.717
202.688
200.734
198.852
197.041
195.3
193.627
192.021
190.481
189.004
187.589
186.234
184.939
183.701
182.518
181.39
180.315
179.291
178.316
177.39
176.51
175.675
174.884
174.134
173.426
172.757
172.126
171.532
170.973
170.448
169.957
169.497
169.068
168.669
168.299
167.956
167.641
167.351
167.086
166.846
166.63
166.437
166.266
166.117
165.989
165.883
165.797
165.731
165.686
165.66
165.654
165.666
397.208
391.641
386.078
380.531
375.004
369.504
364.036
358.605
353.217
347.876
342.586
337.352
332.178
327.068
322.023
317.049
312.147
307.319
302.569
297.898
293.308
288.801
284.378
280.041
275.79
271.626
267.551
263.565
259.668
255.861
252.144
248.517
244.98
241.534
238.178
234.911
231.734
228.646
225.647
222.735
219.91
217.171
214.518
211.948
209.463
207.059
204.737
202.495
200.331
198.244
196.234
194.298
192.435
190.644
188.923
187.27
185.685
184.165
182.709
181.315
179.982
178.707
177.49
176.329
175.223
174.168
173.165
172.211
171.305
170.446
169.631
168.86
168.13
167.441
166.792
166.18
165.604
165.064
164.558
164.084
163.643
163.231
162.85
162.497
162.172
161.873
161.6
161.353
161.13
160.931
160.754
160.601
160.469
160.359
160.27
160.202
160.155
160.128
160.121
160.134
397.163
391.506
385.853
380.214
374.596
369.004
363.443
357.918
352.435
346.999
341.612
336.281
331.009
325.799
320.655
315.579
310.576
305.648
300.796
296.024
291.333
286.725
282.202
277.764
273.414
269.152
264.98
260.897
256.905
253.005
249.196
245.478
241.853
238.319
234.877
231.527
228.268
225.099
222.021
219.033
216.134
213.322
210.599
207.961
205.409
202.941
200.556
198.253
196.031
193.888
191.823
189.834
187.92
186.08
184.312
182.614
180.985
179.423
177.926
176.494
175.124
173.814
172.563
171.37
170.232
169.149
168.117
167.137
166.205
165.322
164.484
163.691
162.941
162.233
161.565
160.935
160.343
159.788
159.267
158.78
158.326
157.903
157.51
157.147
156.813
156.505
156.225
155.97
155.74
155.535
155.354
155.195
155.06
154.946
154.855
154.784
154.735
154.707
154.7
154.712
397.118
391.371
385.628
379.898
374.189
368.505
362.852
357.235
351.658
346.126
340.645
335.218
329.848
324.541
319.299
314.125
309.023
303.996
299.046
294.175
289.385
284.678
280.057
275.523
271.076
266.719
262.451
258.275
254.191
250.199
246.3
242.495
238.783
235.164
231.639
228.206
224.867
221.621
218.467
215.404
212.432
209.55
206.758
204.053
201.436
198.905
196.46
194.098
191.818
189.62
187.501
185.461
183.498
181.61
179.795
178.053
176.381
174.778
173.243
171.772
170.366
169.022
167.738
166.513
165.346
164.233
163.174
162.168
161.212
160.304
159.444
158.63
157.86
157.132
156.446
155.8
155.192
154.622
154.087
153.587
153.12
152.685
152.282
151.909
151.565
151.249
150.961
150.699
150.463
150.252
150.065
149.902
149.763
149.646
149.551
149.479
149.428
149.399
149.391
149.403
397.073
391.237
385.403
379.584
373.784
368.009
362.265
356.555
350.886
345.261
339.686
334.164
328.699
323.296
317.958
312.688
307.49
302.366
297.319
292.352
287.466
282.663
277.947
273.318
268.777
264.326
259.967
255.7
251.526
247.446
243.459
239.568
235.771
232.07
228.463
224.952
221.535
218.212
214.984
211.848
208.806
205.855
202.996
200.226
197.546
194.954
192.449
190.029
187.694
185.442
183.271
181.181
179.169
177.234
175.375
173.589
171.876
170.233
168.659
167.152
165.711
164.333
163.017
161.761
160.564
159.423
158.338
157.305
156.325
155.395
154.513
153.678
152.888
152.142
151.438
150.775
150.152
149.566
149.018
148.505
148.026
147.58
147.166
146.783
146.43
146.106
145.81
145.541
145.299
145.082
144.89
144.723
144.579
144.459
144.362
144.287
144.235
144.204
144.195
144.208
397.029
391.103
385.181
379.272
373.382
367.518
361.682
355.882
350.121
344.404
338.736
333.121
327.564
322.067
316.635
311.271
305.978
300.76
295.619
290.557
285.577
280.682
275.872
271.151
266.519
261.978
257.529
253.173
248.912
244.745
240.674
236.699
232.82
229.038
225.353
221.764
218.271
214.875
211.574
208.368
205.257
202.239
199.314
196.482
193.74
191.088
188.525
186.049
183.66
181.355
179.134
176.994
174.935
172.955
171.052
169.224
167.47
165.788
164.177
162.634
161.158
159.747
158.4
157.114
155.888
154.72
153.608
152.551
151.547
150.594
149.691
148.835
148.026
147.262
146.541
145.862
145.223
144.624
144.061
143.536
143.045
142.588
142.164
141.771
141.41
141.077
140.774
140.498
140.249
140.027
139.83
139.658
139.511
139.387
139.287
139.21
139.156
139.124
139.115
139.127
396.984
390.971
384.96
378.963
372.984
367.031
361.106
355.216
349.365
343.557
337.798
332.092
326.443
320.854
315.33
309.874
304.489
299.179
293.946
288.792
283.721
278.735
273.835
269.024
264.303
259.674
255.137
250.696
246.349
242.099
237.945
233.889
229.93
226.07
222.308
218.643
215.077
211.609
208.237
204.963
201.785
198.702
195.714
192.82
190.018
187.308
184.689
182.159
179.716
177.36
175.09
172.903
170.797
168.773
166.827
164.958
163.164
161.445
159.797
158.219
156.709
155.266
153.888
152.573
151.319
150.124
148.987
147.906
146.878
145.903
144.979
144.104
143.276
142.494
141.757
141.062
140.408
139.794
139.219
138.681
138.178
137.71
137.276
136.874
136.504
136.164
135.853
135.57
135.315
135.087
134.886
134.709
134.558
134.431
134.328
134.249
134.194
134.161
134.151
134.163
396.941
390.84
384.742
378.657
372.591
366.549
360.537
354.558
348.618
342.722
336.874
331.078
325.339
319.66
314.046
308.5
303.025
297.625
292.302
287.059
281.899
276.824
271.836
266.938
262.13
257.415
252.794
248.269
243.84
239.508
235.274
231.139
227.103
223.166
219.329
215.592
211.954
208.416
204.976
201.635
198.392
195.246
192.196
189.242
186.382
183.615
180.941
178.358
175.864
173.458
171.14
168.906
166.756
164.688
162.701
160.792
158.96
157.203
155.519
153.908
152.365
150.891
149.483
148.139
146.858
145.637
144.475
143.37
142.32
141.323
140.379
139.484
138.638
137.839
137.085
136.374
135.706
135.079
134.49
133.94
133.426
132.948
132.504
132.093
131.714
131.366
131.048
130.758
130.498
130.264
130.058
129.877
129.722
129.592
129.487
129.405
129.348
129.314
129.303
129.315
396.898
390.711
384.526
378.355
372.203
366.075
359.975
353.91
347.883
341.899
335.963
330.08
324.253
318.486
312.784
307.15
301.587
296.099
290.689
285.359
280.112
274.951
269.877
264.894
260.002
255.204
250.501
245.894
241.384
236.973
232.661
228.45
224.338
220.328
216.418
212.61
208.903
205.296
201.79
198.384
195.078
191.87
188.76
185.748
182.831
180.01
177.282
174.647
172.104
169.65
167.284
165.005
162.812
160.702
158.674
156.726
154.856
153.064
151.346
149.701
148.127
146.622
145.185
143.813
142.505
141.258
140.072
138.944
137.872
136.855
135.89
134.977
134.113
133.297
132.527
131.801
131.119
130.478
129.877
129.315
128.79
128.301
127.848
127.428
127.04
126.684
126.359
126.064
125.797
125.558
125.347
125.162
125.003
124.87
124.762
124.679
124.619
124.584
124.573
124.584
396.855
390.584
384.314
378.058
371.821
365.608
359.423
353.272
347.159
341.09
335.068
329.099
323.186
317.333
311.545
305.825
300.176
294.603
289.107
283.692
278.361
273.116
267.959
262.893
257.92
253.041
248.257
243.571
238.984
234.496
230.109
225.822
221.638
217.555
213.576
209.698
205.923
202.251
198.68
195.211
191.843
188.576
185.408
182.339
179.367
176.493
173.713
171.028
168.436
165.935
163.524
161.201
158.965
156.814
154.747
152.761
150.855
149.027
147.276
145.598
143.993
142.459
140.993
139.594
138.26
136.989
135.779
134.629
133.536
132.498
131.514
130.582
129.701
128.868
128.083
127.342
126.646
125.992
125.379
124.805
124.27
123.771
123.308
122.879
122.483
122.12
121.788
121.486
121.214
120.97
120.754
120.565
120.403
120.266
120.155
120.07
120.009
119.972
119.96
119.972
396.814
390.458
384.106
377.766
371.446
365.148
358.88
352.645
346.448
340.295
334.189
328.136
322.139
316.202