/*--------------------------------*- C++ -*----------------------------------*\
| =========                 |                                                 |
| \\      /  F ield         | OpenFOAM: The Open Source CFD Toolbox           |
|  \\    /   O peration     | Version:  2406                                  |
|   \\  /    A nd           | Website:  www.openfoam.com                      |
|    \\/     M anipulation  |                                                 |
\*---------------------------------------------------------------------------*/
FoamFile
{
    version     2.0;
    format      ascii;
    arch        "LSB;label=32;scalar=64";
    class       volScalarField;
    location    "3.75";
    object      p;
}
// * * * * * * * * * * * * * * * * * * * * * * * * * * * * * * * * * * * * * //

dimensions      [0 2 -2 0 0 0 0];

internalField   nonuniform List<scalar> 
34560
(
40.342599
40.335742
40.327537
40.31832
40.307044
40.295543
40.287419
40.286494
40.291617
40.395905
40.387925
40.377689
40.365188
40.34945
40.333539
40.322098
40.319326
40.324297
40.452592
40.443845
40.432293
40.417318
40.397431
40.376531
40.360579
40.354426
40.357079
40.508577
40.499042
40.486256
40.469211
40.445854
40.420324
40.39951
40.388704
40.387168
40.564308
40.554152
40.540188
40.5209
40.493684
40.463018
40.436741
40.420637
40.41436
40.620239
40.609548
40.594461
40.572969
40.541508
40.504739
40.472149
40.450236
40.439063
40.677218
40.665721
40.649136
40.624959
40.589271
40.545525
40.505713
40.477376
40.460928
40.736469
40.723663
40.704903
40.677339
40.636641
40.584686
40.536681
40.501578
40.480119
40.798017
40.783481
40.761656
40.729429
40.682681
40.622159
40.56511
40.523196
40.497401
40.859704
40.842829
40.81705
40.779222
40.725899
40.657711
40.591145
40.54268
40.51343
40.915008
40.894936
40.864769
40.821853
40.76287
40.688025
40.613157
40.55926
40.527053
40.948872
40.926621
40.893698
40.84774
40.785012
40.706123
40.626975
40.569719
40.535378
40.948872
40.926621
40.893698
40.84774
40.785012
40.706124
40.626976
40.569719
40.535378
40.915008
40.894936
40.864769
40.821854
40.76287
40.688025
40.613158
40.55926
40.527054
40.859705
40.84283
40.817051
40.779223
40.7259
40.657712
40.591146
40.542681
40.513431
40.798019
40.783482
40.761657
40.72943
40.682683
40.622161
40.565112
40.523197
40.497402
40.736471
40.723664
40.704905
40.677341
40.636644
40.584689
40.536684
40.501581
40.480121
40.677221
40.665724
40.649139
40.624963
40.589275
40.545529
40.505716
40.477379
40.460929
40.620243
40.609552
40.594465
40.572973
40.541512
40.504742
40.472152
40.450239
40.439064
40.564312
40.554156
40.540192
40.520905
40.493687
40.463021
40.436744
40.42064
40.414363
40.508583
40.499048
40.486261
40.469216
40.445858
40.420327
40.399513
40.388707
40.387172
40.452598
40.443851
40.432298
40.417324
40.397436
40.376535
40.360583
40.35443
40.357083
40.395911
40.387931
40.377694
40.365193
40.349456
40.333544
40.322103
40.319331
40.324302
40.342606
40.335749
40.327544
40.318327
40.307052
40.295551
40.287427
40.2865
40.291624
37.336128
37.336495
37.336682
37.336585
37.336488
37.336445
37.336947
37.338563
37.342003
37.331935
37.33249
37.33285
37.332918
37.333386
37.334173
37.335936
37.339031
37.343239
37.327265
37.328071
37.328582
37.328632
37.329302
37.33057
37.333145
37.33703
37.341307
37.323116
37.324253
37.324946
37.324862
37.325487
37.326923
37.329915
37.334182
37.338405
37.32005
37.321565
37.322448
37.322053
37.322306
37.323624
37.326707
37.331069
37.335134
37.318334
37.320316
37.321433
37.320549
37.319937
37.320762
37.323627
37.327901
37.331805
37.319172
37.321633
37.322956
37.321454
37.319038
37.318914
37.321243
37.325276
37.329058
37.323236
37.326192
37.327655
37.32523
37.320295
37.318881
37.320467
37.324208
37.327971
37.331324
37.334695
37.336233
37.332725
37.324904
37.321205
37.322192
37.325824
37.329664
37.34277
37.346428
37.348046
37.343536
37.332919
37.325662
37.326667
37.330653
37.334702
37.354752
37.358545
37.360219
37.354919
37.341944
37.331634
37.33283
37.337614
37.342001
37.363251
37.367003
37.368643
37.362907
37.348758
37.336629
37.33725
37.343006
37.347717
37.363251
37.367004
37.368644
37.362908
37.348759
37.33663
37.337251
37.343006
37.347717
37.354754
37.358546
37.36022
37.35492
37.341946
37.331636
37.332832
37.337616
37.342002
37.342772
37.34643
37.348048
37.343538
37.332921
37.325664
37.326669
37.330655
37.334704
37.331327
37.334698
37.336235
37.332728
37.324907
37.321207
37.322194
37.325827
37.329667
37.323239
37.326194
37.327657
37.325233
37.320297
37.318884
37.32047
37.324212
37.327975
37.319175
37.321636
37.32296
37.321458
37.319042
37.318918
37.321247
37.32528
37.329061
37.318338
37.32032
37.321437
37.320553
37.319942
37.320766
37.323632
37.327905
37.331808
37.320055
37.32157
37.322453
37.322058
37.322311
37.323629
37.326712
37.331074
37.335139
37.323122
37.324259
37.324952
37.324868
37.325493
37.326929
37.329921
37.334187
37.338411
37.327273
37.328079
37.32859
37.32864
37.329309
37.330577
37.333152
37.337037
37.341312
37.331943
37.332499
37.332859
37.332926
37.333395
37.334182
37.335944
37.339038
37.343246
37.336138
37.336505
37.336692
37.336595
37.336498
37.336455
37.336957
37.338572
37.342011
36.338815
36.338848
36.338879
36.33883
36.338567
36.338209
36.338117
36.338425
36.33885
36.344306
36.344336
36.344342
36.344216
36.343564
36.342756
36.342148
36.341931
36.342013
36.349196
36.349267
36.349325
36.349239
36.348426
36.347305
36.346259
36.345547
36.345295
36.353939
36.354056
36.354178
36.354154
36.353239
36.351858
36.350408
36.3492
36.348541
36.358489
36.358658
36.358854
36.358911
36.357945
36.356335
36.354491
36.352782
36.351663
36.3627
36.362957
36.363269
36.363446
36.362482
36.360676
36.358444
36.356236
36.354641
36.366589
36.366951
36.367416
36.367745
36.36681
36.364817
36.36222
36.359529
36.357468
36.370091
36.370559
36.371193
36.37169
36.370862
36.368703
36.365765
36.362631
36.360138
36.373267
36.373837
36.374599
36.375236
36.374557
36.372253
36.369009
36.365496
36.362623
36.376128
36.376789
36.377655
36.378368
36.37778
36.375303
36.371806
36.367996
36.364816
36.378378
36.379124
36.380092
36.380877
36.38034
36.377639
36.373931
36.369908
36.366512
36.37967
36.38046
36.381486
36.382314
36.381806
36.378921
36.375071
36.370933
36.367421
36.37967
36.38046
36.381487
36.382315
36.381807
36.378922
36.375072
36.370933
36.367421
36.378379
36.379125
36.380094
36.380878
36.380342
36.37764
36.373932
36.36991
36.366514
36.376131
36.376792
36.377657
36.378371
36.377783
36.375305
36.371809
36.367998
36.364819
36.373271
36.37384
36.374603
36.375239
36.37456
36.372257
36.369012
36.365499
36.362626
36.370095
36.370562
36.371197
36.371694
36.370865
36.368707
36.365769
36.362635
36.360142
36.366594
36.366956
36.367421
36.36775
36.366815
36.364822
36.362225
36.359534
36.357473
36.362705
36.362962
36.363274
36.363452
36.362487
36.360681
36.358449
36.356242
36.354647
36.358496
36.358665
36.358861
36.358918
36.357952
36.356342
36.354497
36.352788
36.35167
36.353947
36.354064
36.354187
36.354163
36.353247
36.351866
36.350416
36.349207
36.348549
36.349206
36.349276
36.349335
36.349249
36.348435
36.347315
36.346268
36.345556
36.345304
36.344317
36.344347
36.344352
36.344227
36.343575
36.342767
36.342159
36.341942
36.342022
36.338828
36.33886
36.338891
36.338842
36.33858
36.338222
36.33813
36.338437
36.338862
34.328343
34.32823
34.328111
34.328044
34.328037
34.328023
34.327886
34.327605
34.327428
34.328807
34.328677
34.328544
34.328473
34.328514
34.328549
34.328459
34.328235
34.328047
34.329285
34.329146
34.329005
34.328937
34.329024
34.329108
34.329049
34.32882
34.328524
34.329867
34.329725
34.329582
34.329515
34.329628
34.329742
34.329687
34.329417
34.328996
34.330503
34.330364
34.330226
34.330163
34.330297
34.330434
34.330373
34.330046
34.329499
34.331121
34.330997
34.330874
34.330828
34.330985
34.331142
34.331069
34.330679
34.330011
34.331743
34.331633
34.331529
34.3315
34.331675
34.331845
34.331752
34.331297
34.330514
34.332335
34.332241
34.332156
34.332151
34.332342
34.332518
34.332402
34.331883
34.330996
34.33288
34.332802
34.332737
34.332755
34.332962
34.333137
34.332996
34.332417
34.331443
34.333355
34.333295
34.33325
34.333291
34.333498
34.333669
34.333504
34.332877
34.331832
34.333711
34.333666
34.333639
34.333701
34.333907
34.33407
34.333886
34.333227
34.332137
34.333921
34.333883
34.333865
34.333934
34.334136
34.334291
34.334097
34.333431
34.332325
34.333922
34.333884
34.333866
34.333935
34.334137
34.334292
34.334097
34.333431
34.332325
34.333712
34.333668
34.333641
34.333703
34.333909
34.334072
34.333888
34.333229
34.332138
34.333358
34.333298
34.333253
34.333294
34.333501
34.333672
34.333507
34.33288
34.331835
34.332884
34.332806
34.332741
34.332759
34.332966
34.333141
34.333
34.332421
34.331447
34.33234
34.332246
34.332161
34.332156
34.332347
34.332523
34.332407
34.331887
34.331001
34.33175
34.331639
34.331535
34.331506
34.331681
34.331851
34.331758
34.331303
34.33052
34.331129
34.331004
34.330882
34.330836
34.330993
34.33115
34.331076
34.330686
34.330017
34.330512
34.330373
34.330235
34.330172
34.330306
34.330443
34.330382
34.330054
34.329506
34.329877
34.329735
34.329593
34.329525
34.329638
34.329753
34.329697
34.329426
34.329005
34.329297
34.329157
34.329017
34.328949
34.329036
34.32912
34.32906
34.328831
34.328534
34.32882
34.32869
34.328558
34.328487
34.328528
34.328563
34.328472
34.328248
34.328059
34.328357
34.328245
34.328126
34.328059
34.328052
34.328039
34.327902
34.327621
34.327442
32.785791
32.785811
32.78582
32.785783
32.785704
32.785615
32.785579
32.785634
32.785748
32.786369
32.786391
32.786393
32.786335
32.786218
32.786088
32.786018
32.786052
32.786158
32.786773
32.786801
32.786807
32.786744
32.78661
32.786456
32.786361
32.786377
32.786488
32.787102
32.787138
32.787149
32.787084
32.78694
32.78677
32.78666
32.786668
32.786799
32.787372
32.787414
32.787431
32.787369
32.787222
32.787045
32.786928
32.786938
32.78709
32.787584
32.787634
32.78766
32.787606
32.787462
32.787287
32.787171
32.787185
32.787348
32.787758
32.787816
32.787851
32.787806
32.787669
32.787498
32.787386
32.787401
32.787556
32.787894
32.78796
32.788004
32.78797
32.787841
32.787677
32.787565
32.787573
32.787717
32.787994
32.788067
32.788121
32.788098
32.787978
32.78782
32.787706
32.787708
32.787847
32.788063
32.788144
32.788207
32.788194
32.788083
32.787929
32.787815
32.787814
32.787949
32.788109
32.788196
32.788266
32.788261
32.788155
32.788005
32.787892
32.787888
32.78802
32.788135
32.788224
32.788297
32.788295
32.788193
32.788045
32.787932
32.787927
32.788058
32.788135
32.788224
32.788298
32.788296
32.788194
32.788046
32.787932
32.787928
32.788058
32.788111
32.788198
32.788268
32.788263
32.788158
32.788007
32.787894
32.78789
32.788022
32.788066
32.788147
32.78821
32.788197
32.788086
32.787932
32.787818
32.787817
32.787952
32.787998
32.788072
32.788126
32.788103
32.787983
32.787824
32.787711
32.787712
32.787852
32.7879
32.787966
32.78801
32.787976
32.787848
32.787683
32.787571
32.787579
32.787723
32.787766
32.787823
32.787858
32.787814
32.787677
32.787506
32.787394
32.787408
32.787563
32.787593
32.787643
32.787669
32.787615
32.787472
32.787296
32.78718
32.787194
32.787357
32.787383
32.787425
32.787442
32.78738
32.787233
32.787057
32.78694
32.786949
32.7871
32.787115
32.787151
32.787161
32.787097
32.786953
32.786783
32.786673
32.78668
32.78681
32.786787
32.786816
32.786822
32.786759
32.786625
32.786471
32.786375
32.786391
32.786501
32.786385
32.786408
32.78641
32.786351
32.786234
32.786104
32.786034
32.786068
32.786173
32.785809
32.785829
32.785838
32.785801
32.785722
32.785633
32.785596
32.785651
32.785764
31.05279
31.052768
31.052748
31.052741
31.052742
31.052735
31.052699
31.052627
31.052559
31.05303
31.053006
31.052984
31.052978
31.052981
31.052972
31.052932
31.052854
31.052766
31.053258
31.053233
31.053212
31.053209
31.053215
31.053207
31.053157
31.053057
31.052929
31.053496
31.053472
31.053452
31.053451
31.053459
31.053448
31.053387
31.053263
31.053093
31.053729
31.053705
31.053688
31.053691
31.053702
31.053692
31.053624
31.053477
31.053264
31.053936
31.053916
31.053902
31.053911
31.053928
31.053921
31.053846
31.053678
31.053432
31.054123
31.054105
31.054095
31.054108
31.054131
31.054125
31.054043
31.053859
31.053598
31.054284
31.054268
31.054262
31.05428
31.054308
31.054304
31.05422
31.05403
31.053759
31.054418
31.054405
31.054402
31.054424
31.054457
31.054458
31.054375
31.054181
31.053893
31.054522
31.05451
31.054509
31.054535
31.054573
31.054579
31.054497
31.054297
31.053997
31.054592
31.054581
31.054583
31.054611
31.054652
31.054661
31.05458
31.054376
31.054068
31.054629
31.054619
31.054621
31.054651
31.054693
31.054703
31.054623
31.054417
31.054104
31.05463
31.05462
31.054622
31.054652
31.054694
31.054704
31.054624
31.054418
31.054104
31.054594
31.054583
31.054585
31.054614
31.054654
31.054663
31.054583
31.054379
31.054069
31.054525
31.054513
31.054513
31.054539
31.054577
31.054583
31.054501
31.054301
31.054
31.054424
31.05441
31.054407
31.054429
31.054462
31.054463
31.054381
31.054186
31.053898
31.054291
31.054275
31.054269
31.054287
31.054315
31.054311
31.054227
31.054036
31.053765
31.054132
31.054114
31.054104
31.054117
31.05414
31.054134
31.054052
31.053867
31.053606
31.053947
31.053927
31.053913
31.053922
31.053939
31.053932
31.053856
31.053688
31.053441
31.053741
31.053718
31.053701
31.053704
31.053715
31.053706
31.053636
31.053489
31.053275
31.053511
31.053487
31.053467
31.053467
31.053475
31.053464
31.053402
31.053277
31.053105
31.053276
31.053251
31.05323
31.053227
31.053233
31.053224
31.053174
31.053073
31.052944
31.05305
31.053025
31.053004
31.052998
31.053
31.052992
31.052951
31.052872
31.052783
31.052811
31.052789
31.052769
31.052763
31.052764
31.052756
31.05272
31.052647
31.052578
29.388807
29.38881
29.38881
29.388802
29.388787
29.388769
29.388759
29.388764
29.388787
29.388873
29.388877
29.388876
29.388865
29.388847
29.388827
29.388818
29.388828
29.388857
29.388896
29.388901
29.388901
29.388891
29.388874
29.388857
29.388852
29.388869
29.388902
29.388901
29.388907
29.388909
29.3889
29.388883
29.388867
29.388867
29.388888
29.388927
29.388892
29.3889
29.388902
29.388894
29.388877
29.388861
29.38886
29.388882
29.388924
29.388873
29.388882
29.388887
29.388879
29.388862
29.388846
29.388843
29.388865
29.388908
29.388853
29.388863
29.388869
29.388862
29.388846
29.38883
29.388827
29.388847
29.388891
29.388833
29.388845
29.388852
29.388846
29.388831
29.388815
29.388812
29.388831
29.388874
29.388814
29.388827
29.388836
29.388832
29.388819
29.388803
29.388799
29.388818
29.38886
29.388799
29.388814
29.388823
29.388821
29.388808
29.388793
29.388789
29.388807
29.388849
29.388788
29.388804
29.388815
29.388813
29.388802
29.388787
29.388782
29.388799
29.38884
29.388783
29.388799
29.388811
29.38881
29.388799
29.388784
29.388779
29.388795
29.388836
29.388784
29.3888
29.388812
29.388811
29.388799
29.388785
29.38878
29.388796
29.388837
29.388791
29.388806
29.388817
29.388816
29.388804
29.388789
29.388784
29.388801
29.388843
29.388803
29.388818
29.388828
29.388825
29.388813
29.388798
29.388793
29.388811
29.388852
29.38882
29.388833
29.388842
29.388838
29.388825
29.388809
29.388805
29.388823
29.388865
29.38884
29.388852
29.388859
29.388854
29.38884
29.388823
29.38882
29.388839
29.388881
29.388862
29.388873
29.388879
29.388872
29.388857
29.38884
29.388836
29.388856
29.388899
29.388885
29.388894
29.388899
29.388891
29.388875
29.388858
29.388855
29.388876
29.388918
29.388906
29.388914
29.388917
29.388908
29.388892
29.388876
29.388875
29.388895
29.388936
29.388918
29.388924
29.388926
29.388917
29.3889
29.388885
29.388883
29.388903
29.388941
29.388915
29.38892
29.388921
29.388911
29.388894
29.388877
29.388872
29.388887
29.388919
29.388896
29.388899
29.388899
29.388888
29.38887
29.38885
29.38884
29.388849
29.388876
29.388832
29.388835
29.388835
29.388827
29.388812
29.388794
29.388783
29.388787
29.388809
27.707213
27.70721
27.707209
27.707208
27.707209
27.707209
27.707206
27.707197
27.707187
27.707257
27.707254
27.707252
27.707252
27.707252
27.707252
27.707247
27.707238
27.707228
27.7073
27.707297
27.707296
27.707296
27.707298
27.707297
27.70729
27.707278
27.707263
27.707347
27.707344
27.707343
27.707344
27.707346
27.707345
27.707338
27.707322
27.707303
27.707394
27.707391
27.707391
27.707393
27.707395
27.707395
27.707387
27.707369
27.707345
27.707437
27.707435
27.707436
27.707439
27.707443
27.707443
27.707434
27.707415
27.707388
27.707477
27.707476
27.707477
27.707481
27.707486
27.707488
27.70748
27.707458
27.707428
27.707512
27.707512
27.707514
27.707519
27.707525
27.707528
27.70752
27.707498
27.707464
27.707542
27.707542
27.707545
27.707551
27.707558
27.707562
27.707555
27.707532
27.707495
27.707565
27.707565
27.707568
27.707575
27.707584
27.707589
27.707583
27.70756
27.707522
27.707581
27.707582
27.707585
27.707593
27.707602
27.707608
27.707602
27.70758
27.707543
27.70759
27.70759
27.707594
27.707602
27.707612
27.707618
27.707613
27.707591
27.707553
27.707591
27.707591
27.707595
27.707603
27.707613
27.707619
27.707614
27.707591
27.707554
27.707584
27.707584
27.707588
27.707595
27.707605
27.707611
27.707605
27.707582
27.707545
27.707569
27.707569
27.707573
27.70758
27.707589
27.707594
27.707587
27.707564
27.707526
27.707548
27.707548
27.707551
27.707557
27.707565
27.707569
27.707561
27.707538
27.707501
27.70752
27.70752
27.707522
27.707527
27.707534
27.707537
27.707529
27.707506
27.707471
27.707487
27.707486
27.707487
27.707492
27.707497
27.707499
27.70749
27.707468
27.707437
27.707449
27.707448
27.707448
27.707452
27.707456
27.707456
27.707447
27.707427
27.707399
27.707408
27.707406
27.707406
27.707408
27.707411
27.70741
27.707401
27.707383
27.707358
27.707365
27.707362
27.707361
27.707362
27.707364
27.707363
27.707355
27.707339
27.707318
27.707321
27.707318
27.707317
27.707317
27.707318
27.707317
27.70731
27.707297
27.707281
27.70728
27.707277
27.707276
27.707275
27.707276
27.707275
27.707269
27.707259
27.707248
27.707239
27.707236
27.707234
27.707234
27.707235
27.707234
27.70723
27.707221
27.70721
26.026097
26.026097
26.026096
26.026094
26.026091
26.026087
26.026083
26.026079
26.02608
26.026118
26.026117
26.026116
26.026114
26.026111
26.026107
26.026104
26.026102
26.026103
26.02613
26.02613
26.026129
26.026127
26.026124
26.026122
26.026119
26.026118
26.02612
26.02614
26.02614
26.026139
26.026137
26.026135
26.026133
26.026132
26.026132
26.026134
26.026148
26.026148
26.026147
26.026146
26.026144
26.026143
26.026143
26.026144
26.026147
26.026152
26.026153
26.026153
26.026152
26.026151
26.02615
26.026152
26.026154
26.026157
26.026156
26.026157
26.026157
26.026157
26.026156
26.026157
26.026159
26.026162
26.026165
26.026159
26.02616
26.02616
26.02616
26.02616
26.026162
26.026165
26.026168
26.026172
26.02616
26.026162
26.026162
26.026163
26.026164
26.026166
26.026169
26.026173
26.026177
26.026161
26.026163
26.026164
26.026165
26.026166
26.026168
26.026172
26.026175
26.026177
26.026162
26.026164
26.026165
26.026166
26.026168
26.02617
26.026174
26.026176
26.026176
26.026163
26.026165
26.026166
26.026167
26.026169
26.026172
26.026175
26.026177
26.026176
26.026164
26.026166
26.026167
26.026168
26.02617
26.026173
26.026176
26.026177
26.026177
26.026165
26.026166
26.026168
26.026169
26.02617
26.026173
26.026176
26.026178
26.026179
26.026166
26.026167
26.026168
26.026169
26.026171
26.026173
26.026176
26.026179
26.026181
26.026166
26.026168
26.026169
26.026169
26.02617
26.026172
26.026175
26.026179
26.026182
26.026167
26.026168
26.026168
26.026168
26.026169
26.02617
26.026173
26.026176
26.026179
26.026166
26.026167
26.026167
26.026167
26.026167
26.026168
26.026169
26.026172
26.026174
26.026165
26.026165
26.026165
26.026165
26.026164
26.026163
26.026164
26.026166
26.026168
26.026162
26.026162
26.026162
26.026161
26.026159
26.026158
26.026158
26.026158
26.02616
26.026157
26.026157
26.026157
26.026155
26.026153
26.026151
26.026149
26.026149
26.026149
26.02615
26.02615
26.026149
26.026147
26.026145
26.026142
26.026139
26.026137
26.026137
26.02614
26.02614
26.026139
26.026137
26.026134
26.02613
26.026126
26.026123
26.026123
26.026122
26.026122
26.026121
26.026119
26.026116
26.026112
26.026107
26.026103
26.026102
24.348867
24.348867
24.348868
24.348867
24.348867
24.348867
24.348868
24.348869
24.348869
24.348874
24.348874
24.348875
24.348875
24.348874
24.348874
24.348874
24.348874
24.348874
24.34888
24.34888
24.348881
24.348881
24.34888
24.34888
24.348879
24.348879
24.348878
24.348886
24.348886
24.348887
24.348887
24.348887
24.348886
24.348885
24.348884
24.348883
24.348892
24.348892
24.348893
24.348893
24.348893
24.348892
24.348891
24.348889
24.348888
24.348897
24.348897
24.348898
24.348899
24.348899
24.348898
24.348897
24.348895
24.348893
24.348902
24.348902
24.348903
24.348904
24.348905
24.348904
24.348902
24.3489
24.348898
24.348906
24.348907
24.348908
24.348909
24.34891
24.348909
24.348908
24.348905
24.348902
24.34891
24.348911
24.348912
24.348913
24.348914
24.348914
24.348912
24.348909
24.348906
24.348913
24.348914
24.348915
24.348917
24.348918
24.348918
24.348916
24.348913
24.34891
24.348915
24.348916
24.348918
24.348919
24.348921
24.34892
24.348919
24.348915
24.348912
24.348917
24.348918
24.34892
24.348921
24.348922
24.348922
24.348921
24.348917
24.348914
24.348918
24.348919
24.34892
24.348922
24.348923
24.348923
24.348921
24.348918
24.348914
24.348918
24.348919
24.34892
24.348922
24.348923
24.348923
24.348921
24.348918
24.348914
24.348917
24.348918
24.34892
24.348921
24.348922
24.348922
24.34892
24.348917
24.348913
24.348915
24.348916
24.348918
24.348919
24.34892
24.34892
24.348918
24.348915
24.348911
24.348913
24.348914
24.348916
24.348917
24.348918
24.348918
24.348916
24.348912
24.348909
24.348911
24.348912
24.348913
24.348914
24.348915
24.348914
24.348912
24.348909
24.348906
24.348908
24.348909
24.34891
24.348911
24.348912
24.348911
24.348909
24.348906
24.348903
24.348906
24.348906
24.348907
24.348908
24.348908
24.348907
24.348905
24.348902
24.3489
24.348903
24.348903
24.348904
24.348904
24.348904
24.348903
24.348901
24.348899
24.348897
24.3489
24.3489
24.348901
24.348901
24.3489
24.3489
24.348898
24.348897
24.348895
24.348897
24.348897
24.348897
24.348897
24.348897
24.348896
24.348895
24.348895
24.348894
24.348892
24.348892
24.348892
24.348892
24.348892
24.348892
24.348892
24.348892
24.348891
22.667943
22.667943
22.667942
22.667942
22.667942
22.667942
22.667941
22.66794
22.66794
22.667949
22.667948
22.667948
22.667947
22.667947
22.667947
22.667946
22.667946
22.667946
22.667953
22.667953
22.667952
22.667952
22.667952
22.667951
22.667951
22.66795
22.66795
22.667958
22.667957
22.667957
22.667956
22.667956
22.667956
22.667956
22.667955
22.667955
22.667962
22.667961
22.667961
22.667961
22.667961
22.667961
22.667961
22.66796
22.667959
22.667965
22.667965
22.667965
22.667964
22.667965
22.667965
22.667965
22.667964
22.667963
22.667968
22.667968
22.667968
22.667968
22.667968
22.667969
22.667969
22.667968
22.667967
22.667971
22.667971
22.667971
22.667971
22.667972
22.667972
22.667973
22.667972
22.66797
22.667974
22.667973
22.667973
22.667974
22.667974
22.667975
22.667976
22.667975
22.667973
22.667975
22.667975
22.667975
22.667976
22.667977
22.667978
22.667978
22.667978
22.667975
22.667977
22.667977
22.667977
22.667977
22.667978
22.66798
22.66798
22.667979
22.667977
22.667978
22.667978
22.667978
22.667979
22.66798
22.667981
22.667982
22.667981
22.667978
22.667979
22.667979
22.667979
22.667979
22.66798
22.667982
22.667982
22.667981
22.667978
22.667979
22.667979
22.667979
22.66798
22.667981
22.667982
22.667982
22.667981
22.667979
22.667979
22.667979
22.667979
22.667979
22.66798
22.667982
22.667982
22.667981
22.667978
22.667979
22.667979
22.667979
22.667979
22.66798
22.667981
22.667981
22.66798
22.667977
22.667978
22.667978
22.667978
22.667978
22.667979
22.66798
22.66798
22.667979
22.667976
22.667977
22.667977
22.667977
22.667977
22.667978
22.667978
22.667978
22.667977
22.667974
22.667976
22.667976
22.667975
22.667976
22.667976
22.667976
22.667976
22.667974
22.667972
22.667974
22.667974
22.667974
22.667974
22.667974
22.667974
22.667973
22.667972
22.66797
22.667973
22.667972
22.667972
22.667972
22.667972
22.667972
22.667971
22.667969
22.667967
22.667971
22.667971
22.66797
22.66797
22.66797
22.667969
22.667968
22.667967
22.667965
22.667969
22.667969
22.667968
22.667968
22.667968
22.667967
22.667966
22.667964
22.667963
22.667966
22.667965
22.667965
22.667965
22.667964
22.667964
22.667963
22.667962
22.66796
20.989625
20.989625
20.989625
20.989625
20.989625
20.989625
20.989626
20.989627
20.989627
20.989626
20.989626
20.989626
20.989626
20.989626
20.989626
20.989626
20.989627
20.989629
20.989627
20.989627
20.989627
20.989627
20.989627
20.989627
20.989627
20.989628
20.989629
20.989628
20.989628
20.989628
20.989628
20.989628
20.989628
20.989628
20.989628
20.989629
20.989628
20.989629
20.989629
20.989629
20.989629
20.989629
20.989628
20.989629
20.98963
20.989629
20.989629
20.98963
20.98963
20.98963
20.989629
20.989629
20.98963
20.989631
20.98963
20.98963
20.98963
20.98963
20.98963
20.98963
20.98963
20.98963
20.989631
20.98963
20.989631
20.989631
20.989631
20.989631
20.989631
20.989631
20.989631
20.989632
20.989631
20.989631
20.989632
20.989632
20.989632
20.989632
20.989631
20.989632
20.989633
20.989631
20.989632
20.989632
20.989632
20.989632
20.989632
20.989632
20.989632
20.989633
20.989632
20.989632
20.989633
20.989633
20.989633
20.989633
20.989633
20.989633
20.989634
20.989633
20.989633
20.989633
20.989634
20.989634
20.989634
20.989633
20.989634
20.989635
20.989633
20.989634
20.989634
20.989634
20.989634
20.989634
20.989634
20.989634
20.989635
20.989634
20.989634
20.989635
20.989635
20.989635
20.989635
20.989635
20.989635
20.989635
20.989634
20.989635
20.989635
20.989636
20.989636
20.989635
20.989635
20.989635
20.989636
20.989635
20.989635
20.989636
20.989636
20.989636
20.989636
20.989636
20.989636
20.989636
20.989636
20.989636
20.989637
20.989637
20.989637
20.989637
20.989637
20.989636
20.989637
20.989637
20.989637
20.989638
20.989638
20.989638
20.989638
20.989637
20.989637
20.989637
20.989638
20.989638
20.989639
20.989639
20.989639
20.989638
20.989638
20.989638
20.989638
20.989639
20.989639
20.98964
20.98964
20.98964
20.989639
20.989639
20.989639
20.989639
20.98964
20.98964
20.989641
20.989641
20.989641
20.98964
20.98964
20.98964
20.98964
20.989641
20.989642
20.989642
20.989642
20.989642
20.989641
20.989641
20.989641
20.989641
20.989642
20.989643
20.989643
20.989643
20.989643
20.989642
20.989642
20.989643
20.989643
20.989643
20.989643
20.989643
20.989643
20.989643
20.989643
20.989643
20.989644
20.989643
19.309716
19.309716
19.309716
19.309716
19.309716
19.309716
19.309716
19.309715
19.309715
19.309718
19.309718
19.309718
19.309718
19.309718
19.309718
19.309718
19.309717
19.309717
19.30972
19.30972
19.30972
19.30972
19.30972
19.30972
19.30972
19.309719
19.309719
19.309722
19.309722
19.309722
19.309722
19.309722
19.309722
19.309722
19.309721
19.309721
19.309724
19.309724
19.309724
19.309723
19.309724
19.309724
19.309724
19.309723
19.309723
19.309726
19.309726
19.309725
19.309725
19.309725
19.309725
19.309725
19.309725
19.309724
19.309727
19.309727
19.309727
19.309727
19.309727
19.309727
19.309727
19.309727
19.309726
19.309729
19.309729
19.309728
19.309728
19.309729
19.309729
19.309729
19.309728
19.309727
19.30973
19.30973
19.30973
19.30973
19.30973
19.30973
19.30973
19.309729
19.309728
19.309731
19.309731
19.309731
19.309731
19.309731
19.309731
19.309731
19.309731
19.309729
19.309732
19.309732
19.309731
19.309732
19.309732
19.309732
19.309732
19.309731
19.30973
19.309732
19.309732
19.309732
19.309732
19.309733
19.309733
19.309733
19.309732
19.309731
19.309733
19.309733
19.309733
19.309733
19.309733
19.309733
19.309733
19.309732
19.309731
19.309733
19.309733
19.309733
19.309733
19.309733
19.309734
19.309733
19.309733
19.309731
19.309733
19.309733
19.309733
19.309733
19.309733
19.309734
19.309733
19.309733
19.309731
19.309733
19.309733
19.309733
19.309733
19.309733
19.309733
19.309733
19.309733
19.309731
19.309733
19.309733
19.309733
19.309733
19.309733
19.309733
19.309733
19.309732
19.309731
19.309732
19.309732
19.309732
19.309732
19.309733
19.309733
19.309732
19.309732
19.30973
19.309732
19.309732
19.309732
19.309732
19.309732
19.309732
19.309732
19.309731
19.30973
19.309731
19.309731
19.309731
19.309731
19.309731
19.309731
19.309731
19.30973
19.309729
19.309731
19.309731
19.309731
19.309731
19.309731
19.309731
19.30973
19.309729
19.309728
19.30973
19.30973
19.30973
19.30973
19.30973
19.30973
19.30973
19.309729
19.309728
19.30973
19.30973
19.30973
19.30973
19.30973
19.309729
19.309729
19.309728
19.309727
19.309729
19.309729
19.309729
19.309729
19.309729
19.309729
19.309728
19.309727
19.309726
17.630708
17.630708
17.630708
17.630708
17.630708
17.630708
17.630708
17.630709
17.630709
17.630708
17.630708
17.630709
17.630709
17.630708
17.630708
17.630709
17.630709
17.630709
17.630709
17.630709
17.630709
17.630709
17.630709
17.630709
17.630709
17.630709
17.630709
17.630709
17.630709
17.630709
17.630709
17.630709
17.630709
17.630709
17.630709
17.63071
17.630709
17.630709
17.630709
17.630709
17.630709
17.630709
17.630709
17.630709
17.63071
17.630709
17.630709
17.630709
17.630709
17.630709
17.630709
17.630709
17.630709
17.63071
17.630709
17.63071
17.63071
17.63071
17.630709
17.630709
17.630709
17.63071
17.63071
17.63071
17.63071
17.63071
17.63071
17.63071
17.63071
17.63071
17.63071
17.63071
17.63071
17.63071
17.63071
17.63071
17.63071
17.63071
17.63071
17.63071
17.630711
17.63071
17.63071
17.63071
17.63071
17.63071
17.63071
17.63071
17.63071
17.630711
17.63071
17.63071
17.63071
17.63071
17.63071
17.63071
17.63071
17.63071
17.630711
17.63071
17.63071
17.630711
17.630711
17.630711
17.630711
17.630711
17.630711
17.630711
17.630711
17.630711
17.630711
17.630711
17.630711
17.630711
17.630711
17.630711
17.630711
17.630711
17.630711
17.630711
17.630711
17.630711
17.630711
17.630711
17.630711
17.630712
17.630711
17.630711
17.630712
17.630712
17.630712
17.630712
17.630712
17.630712
17.630712
17.630712