/*--------------------------------*- C++ -*----------------------------------*\
| =========                 |                                                 |
| \\      /  F ield         | OpenFOAM: The Open Source CFD Toolbox           |
|  \\    /   O peration     | Version:  2406                                  |
|   \\  /    A nd           | Website:  www.openfoam.com                      |
|    \\/     M anipulation  |                                                 |
\*---------------------------------------------------------------------------*/
FoamFile
{
    version     2.0;
    format      ascii;
    arch        "LSB;label=32;scalar=64";
    class       volVectorField;
    location    "3.75";
    object      U;
}
// * * * * * * * * * * * * * * * * * * * * * * * * * * * * * * * * * * * * * //

dimensions      [0 1 -1 0 0 0 0];

internalField   nonuniform List<vector> 
34560
(
(0.020495396 -0.0030157705 -0.00024712886)
(0.048260103 -0.0078781625 0.0034566543)
(0.049542752 -0.012136398 0.016490325)
(-0.0032297979 -0.015421012 0.043635747)
(-0.13097622 -0.017743323 0.083692935)
(-0.32135077 -0.021093731 0.12683524)
(-0.52811966 -0.024638863 0.15956959)
(-0.70548647 -0.024319472 0.17474953)
(-0.83003676 -0.018669662 0.17445997)
(0.023479081 -0.0025347216 0.00086939416)
(0.053084358 -0.0054011255 0.0076422518)
(0.048153354 -0.0061836131 0.025660146)
(-0.023514412 -0.0047923473 0.059373721)
(-0.1796646 -0.0029165074 0.10477584)
(-0.39385444 -0.004102156 0.14856871)
(-0.60843041 -0.0067604685 0.17705663)
(-0.77859857 -0.0052350688 0.18604901)
(-0.89142089 0.0019225282 0.17985905)
(0.028001848 -0.0028500494 0.001295008)
(0.062973817 -0.0052219332 0.0096782799)
(0.055896853 -0.0038184147 0.031020619)
(-0.03074877 0.001694046 0.069550975)
(-0.21112915 0.0078621721 0.11874476)
(-0.44391898 0.009361633 0.16268865)
(-0.66172712 0.0085513335 0.18831227)
(-0.82381523 0.012309781 0.19395456)
(-0.92626226 0.022153911 0.18561384)
(0.033966952 -0.0031304373 0.0017579482)
(0.077870292 -0.0052058956 0.011520039)
(0.073191305 -0.0021443028 0.035513309)
(-0.023568664 0.0067400361 0.077493283)
(-0.2230163 0.016839138 0.12901075)
(-0.47009332 0.021260174 0.17251075)
(-0.6893149 0.022874943 0.19638983)
(-0.84429555 0.029106634 0.20085893)
(-0.93789091 0.041344708 0.19220565)
(0.041755029 -0.003876229 0.0019186989)
(0.099167991 -0.0066587582 0.012283214)
(0.10279894 -0.0029427224 0.037793702)
(0.0018138857 0.008677083 0.082022759)
(-0.21251787 0.022317124 0.13486035)
(-0.47105389 0.03029809 0.17872057)
(-0.69189058 0.035321266 0.20294492)
(-0.84156373 0.044926759 0.20866659)
(-0.92675778 0.059827044 0.20170239)
(0.051777761 -0.0052890513 0.0018379962)
(0.12832253 -0.010233615 0.012253999)
(0.14744248 -0.0074053217 0.038419349)
(0.04892473 0.0060315954 0.08419857)
(-0.17713684 0.023885721 0.13912163)
(-0.4463684 0.03674808 0.18476258)
(-0.66808725 0.046338228 0.2114265)
(-0.81143968 0.059293875 0.22009537)
(-0.88797077 0.075745821 0.21576261)
(0.064619941 -0.0073479719 0.0016970428)
(0.16748995 -0.015954707 0.011960032)
(0.21121428 -0.015715003 0.038677902)
(0.12389647 -0.0018046374 0.086440254)
(-0.10898287 0.020140028 0.14468614)
(-0.38708979 0.038901527 0.19399813)
(-0.60920061 0.053985134 0.22522569)
(-0.74615432 0.070472434 0.23829612)
(-0.81404429 0.08821647 0.23734909)
(0.08092083 -0.0099569482 0.0016817897)
(0.21892485 -0.02353569 0.012163031)
(0.29842307 -0.0273866 0.04043062)
(0.23349053 -0.01423512 0.09219742)
(-0.000289452 0.011645322 0.15668122)
(-0.28480472 0.036647258 0.21236613)
(-0.50586203 0.057463991 0.25007107)
(-0.63540722 0.077079195 0.26827108)
(-0.69415383 0.095410413 0.27039126)
(0.10050221 -0.012425169 0.0021138477)
(0.28219043 -0.030966395 0.013889313)
(0.40807339 -0.039135279 0.046636507)
(0.37831219 -0.027969025 0.10572266)
(0.15235866 0.00025576789 0.18089196)
(-0.13382971 0.030122238 0.24645488)
(-0.34967997 0.055447784 0.29176516)
(-0.46914687 0.076788287 0.31475666)
(-0.51794055 0.094611191 0.31841696)
(0.12157288 -0.013323023 0.0032390459)
(0.3513113 -0.034119369 0.018074032)
(0.53098047 -0.044942972 0.058908792)
(0.54491212 -0.036704291 0.1292565)
(0.33758781 -0.0098390829 0.22004392)
(0.059075615 0.02089313 0.29882608)
(-0.1440973 0.04699186 0.35168094)
(-0.24969518 0.067257802 0.37800093)
(-0.28820174 0.082748907 0.38099582)
(0.14060073 -0.010783942 0.0048439319)
(0.41416043 -0.027941684 0.024157555)
(0.64423623 -0.037571037 0.0747388)
(0.70074672 -0.032611515 0.15881509)
(0.51877243 -0.012512658 0.267203)
(0.25882346 0.011633939 0.3597514)
(0.075224123 0.031843695 0.41905038)
(-0.014545652 0.046998247 0.44641418)
(-0.044226816 0.057333773 0.44750295)
(0.15215287 -0.0041633673 0.0060847086)
(0.45271219 -0.010834951 0.028780477)
(0.71455472 -0.014700825 0.086362435)
(0.79828616 -0.013015165 0.18038347)
(0.63571929 -0.0054653688 0.30071045)
(0.39291604 0.0037619007 0.40185327)
(0.22456678 0.01149949 0.46601505)
(0.14575293 0.017278373 0.49285611)
(0.12039545 0.020800139 0.49256783)
(0.15215283 0.0041631787 0.0060846782)
(0.45271206 0.010834366 0.028780451)
(0.71455443 0.014699758 0.086362444)
(0.79828572 0.013013684 0.18038351)
(0.63571878 0.0054637465 0.30071044)
(0.39291556 -0.0037634349 0.40185325)
(0.22456634 -0.01150087 0.46601505)
(0.14575247 -0.017279713 0.49285613)
(0.12039492 -0.020801589 0.49256783)
(0.14060061 0.010783699 0.004843872)
(0.41416003 0.02794099 0.024157532)
(0.64423542 0.037569879 0.074738851)
(0.70074563 0.032610048 0.15881522)
(0.51877113 0.012511144 0.267203)
(0.25882222 -0.011635338 0.3597514)
(0.075222986 -0.031844956 0.41905044)
(-0.014546811 -0.046999525 0.44641429)
(-0.044228118 -0.05733519 0.44750303)
(0.12157275 0.013322772 0.0032390325)
(0.35131083 0.034118669 0.018074084)
(0.5309795 0.044941871 0.058908896)
(0.54491082 0.036702986 0.12925671)
(0.33758616 0.0098377608 0.22004404)
(0.059074043 -0.020894333 0.29882623)
(-0.14409874 -0.046992967 0.35168112)
(-0.24969663 -0.067258995 0.37800118)
(-0.28820333 -0.082750224 0.38099614)
(0.10050209 0.01242502 0.0021138828)
(0.28218998 0.030965922 0.013889442)
(0.40807245 0.039134442 0.046636725)
(0.37831084 0.027967954 0.10572307)
(0.15235701 -0.00025690311 0.18089234)
(-0.13383126 -0.030123227 0.24645527)
(-0.34968136 -0.055448706 0.29176549)
(-0.4691483 -0.076789354 0.31475705)
(-0.51794212 -0.09461238 0.31841753)
(0.080920704 0.0099568732 0.0016818639)
(0.2189244 0.023535375 0.012163337)
(0.2984222 0.027385898 0.040431137)
(0.23348928 0.01423418 0.092198037)
(-0.00029089606 -0.011646229 0.15668176)
(-0.28480612 -0.036647951 0.21236661)
(-0.50586323 -0.057464673 0.25007148)
(-0.63540851 -0.077080109 0.26827156)
(-0.69415523 -0.095411565 0.27039193)
(0.06461984 0.0073478963 0.0016971928)
(0.16748962 0.015954451 0.011960441)
(0.21121364 0.015714454 0.038678338)
(0.12389548 0.0018039275 0.086440552)
(-0.10898408 -0.020140596 0.14468645)
(-0.38709098 -0.038901914 0.19399851)
(-0.6092016 -0.053985588 0.22522613)
(-0.74615542 -0.070473198 0.23829664)
(-0.81404538 -0.088217712 0.2373498)
(0.051777681 0.0052890043 0.0018379862)
(0.12832227 0.010233479 0.012253921)
(0.14744198 0.0074050535 0.038419255)
(0.048923983 -0.0060319493 0.084198558)
(-0.17713774 -0.023885944 0.13912177)
(-0.4463693 -0.036748257 0.18476289)
(-0.66808808 -0.046338508 0.2114269)
(-0.8114406 -0.059294525 0.22009591)
(-0.88797155 -0.075747181 0.2157634)
(0.041754961 0.0038761964 0.0019187321)
(0.099167775 0.0066587096 0.012283348)
(0.10279855 0.002942601 0.037793909)
(0.001813334 -0.0086773236 0.082022893)
(-0.21251852 -0.022317317 0.13486044)
(-0.47105463 -0.030298155 0.17872076)
(-0.69189127 -0.035321463 0.20294518)
(-0.8415644 -0.044927435 0.20866717)
(-0.92675843 -0.05982844 0.20170314)
(0.033966899 0.00313037 0.0017579843)
(0.077870123 0.0052057619 0.01152012)
(0.073190998 0.0021441254 0.035513352)
(-0.023569117 -0.0067402515 0.077493244)
(-0.22301691 -0.016839371 0.12901065)
(-0.47009395 -0.02126027 0.17251068)
(-0.68931555 -0.022875123 0.19639008)
(-0.84429608 -0.029107413 0.20085954)
(-0.9378915 -0.041346022 0.19220609)
(0.028001804 0.002850055 0.0012950032)
(0.062973677 0.0052219739 0.0096782695)
(0.055896593 0.0038185106 0.031020618)
(-0.030749135 -0.0016939142 0.069550986)
(-0.21112957 -0.0078621677 0.11874463)
(-0.44391944 -0.0093618515 0.16268851)
(-0.6617276 -0.0085516943 0.18831255)
(-0.82381578 -0.012310428 0.19395494)
(-0.92626299 -0.022155371 0.18561447)
(0.023479033 0.0025347216 0.00086940985)
(0.053084212 0.0054011644 0.0076423388)
(0.048153095 0.0061836593 0.025660268)
(-0.023514762 0.0047924463 0.059373874)
(-0.179665 0.0029165398 0.10477593)
(-0.39385492 0.0041018487 0.14856887)
(-0.60843081 0.0067597672 0.17705683)
(-0.77859904 0.005234385 0.18604956)
(-0.89142154 -0.0019238359 0.17986007)
(0.02049535 0.003015759 -0.00024710186)
(0.048259965 0.0078781629 0.0034567284)
(0.049542514 0.01213643 0.016490469)
(-0.003230121 0.015421112 0.04363597)
(-0.13097659 0.017743486 0.083693216)
(-0.32135111 0.021093798 0.12683539)
(-0.52812001 0.024638498 0.15956953)
(-0.70548674 0.024318654 0.17475017)
(-0.83003701 0.018668949 0.17446123)
(0.057985169 0.00042119914 0.00027323854)
(0.1704921 0.00099169718 0.00043299977)
(0.28042543 0.0011025692 -0.00044227691)
(0.36047681 -0.0004032532 -0.0031020298)
(0.37821814 -0.0049427766 -0.0083377074)
(0.31553949 -0.013267619 -0.015870913)
(0.18871417 -0.024542308 -0.023602728)
(0.042926034 -0.036496629 -0.029367472)
(-0.075319813 -0.048098701 -0.032413123)
(0.065083314 -0.00025211609 -0.00036812298)
(0.18866328 -0.0012683109 -0.0017151082)
(0.30481947 -0.003195143 -0.004662057)
(0.38215872 -0.0072704174 -0.0098229393)
(0.38651469 -0.014818236 -0.017581677)
(0.30415746 -0.02606292 -0.026860779)
(0.16035858 -0.039446299 -0.034849755)
(0.0069211612 -0.052240962 -0.039615569)
(-0.11247295 -0.06314097 -0.041770695)
(0.072314444 -0.0010575042 -0.00097534502)
(0.20753407 -0.003975968 -0.0038140609)
(0.33104721 -0.0082957537 -0.0088916146)
(0.40776387 -0.015130413 -0.016561324)
(0.40206355 -0.025422999 -0.026482938)
(0.30455036 -0.038680211 -0.036737735)
(0.14849148 -0.052812304 -0.044176802)
(-0.0097574055 -0.065310968 -0.047735644)
(-0.12933646 -0.075426391 -0.048641941)
(0.079012485 -0.0021679562 -0.0016358963)
(0.22501081 -0.007584721 -0.0060764326)
(0.35543444 -0.0148524 -0.013442006)
(0.43205287 -0.024730254 -0.023753401)
(0.41826267 -0.037558186 -0.035732174)
(0.30869475 -0.052086279 -0.046549089)
(0.14352663 -0.066058866 -0.053029515)
(-0.017729383 -0.077716394 -0.055174413)
(-0.13726486 -0.087113892 -0.054899478)
(0.084968504 -0.0035030997 -0.0022498468)
(0.24055233 -0.01186772 -0.0082040093)
(0.37708918 -0.022490139 -0.017802131)
(0.45361169 -0.035535938 -0.030664735)
(0.43319316 -0.050594319 -0.044600459)
(0.313475 -0.065716048 -0.055717076)
(0.14089138 -0.078878084 -0.061121672)
(-0.022530666 -0.089358773 -0.061916824)
(-0.14183565 -0.097864905 -0.060559916)
(0.090284326 -0.0050452015 -0.0027383714)
(0.25440998 -0.016712732 -0.00993579)
(0.39635395 -0.030924218 -0.021533028)
(0.47270175 -0.047002294 -0.036721929)
(0.44648538 -0.063688569 -0.052444093)
(0.31753248 -0.078660113 -0.063587878)
(0.13806168 -0.090474352 -0.067925271)
(-0.027481081 -0.099500016 -0.067582591)
(-0.14651592 -0.1069248 -0.065380973)
(0.09505161 -0.006701077 -0.0030643551)
(0.26690977 -0.021756474 -0.011104954)
(0.41381323 -0.039400412 -0.024240856)
(0.49014167 -0.057934351 -0.041394136)
(0.45863575 -0.07540692 -0.058639301)
(0.32072533 -0.089486881 -0.069463651)
(0.13417288 -0.099595684 -0.072850465)
(-0.033948699 -0.10702181 -0.071710147)
(-0.15287939 -0.11318727 -0.068978263)
(0.099506472 -0.0081695778 -0.0031141451)
(0.27885938 -0.026059322 -0.011381046)
(0.43091221 -0.04628058 -0.025313613)
(0.50756796 -0.066142008 -0.043803836)
(0.47127301 -0.083378581 -0.062083358)
(0.32433946 -0.095705377 -0.072366884)
(0.13002619 -0.10404719 -0.075091893)
(-0.041460073 -0.1099397 -0.073641417)
(-0.16061129 -0.11473661 -0.070786267)
(0.10394349 -0.0090293283 -0.0028171621)
(0.29126827 -0.02834177 -0.010512421)
(0.44951419 -0.049453849 -0.024245511)
(0.52682439 -0.068885425 -0.042992932)
(0.48504769 -0.084516541 -0.061751791)
(0.32973887 -0.09461168 -0.07188837)
(0.12740776 -0.10116057 -0.074031769)
(-0.048103379 -0.10566687 -0.072787825)
(-0.1679255 -0.10910996 -0.070291856)
(0.10835009 -0.0086453158 -0.0021535151)
(0.30412967 -0.026763769 -0.0084346473)
(0.46993551 -0.046011103 -0.020795165)
(0.54948891 -0.062668138 -0.038470476)
(0.50151683 -0.074945409 -0.056971018)
(0.3379314 -0.082500113 -0.067774564)
(0.12754172 -0.087410652 -0.069504009)
(-0.052163652 -0.090701802 -0.068977355)
(-0.17290354 -0.092847746 -0.067317361)
(0.11234127 -0.0064668269 -0.00132951)
(0.31605843 -0.019776193 -0.0058061714)
(0.48961768 -0.033579259 -0.016141549)
(0.57265046 -0.044950797 -0.031973152)
(0.51977645 -0.052706335 -0.049677112)
(0.34795768 -0.057416446 -0.061412838)
(0.13073713 -0.060304864 -0.063049281)
(-0.052520414 -0.062399699 -0.063398476)
(-0.17416049 -0.063528924 -0.062796647)
(0.11479456 -0.0024248479 -0.00076209413)
(0.32366388 -0.007362796 -0.0039666593)
(0.50267753 -0.012403256 -0.012730326)
(0.58875616 -0.016438618 -0.026984211)
(0.53325886 -0.019072337 -0.043782977)
(0.35556988 -0.020605013 -0.055230341)
(0.13443097 -0.021564769 -0.058056527)
(-0.050937351 -0.022317648 -0.059018667)
(-0.17321356 -0.022667883 -0.059207987)
(0.11479455 0.0024248645 -0.00076210018)
(0.32366386 0.0073628991 -0.0039666654)
(0.50267749 0.01240346 -0.01273034)
(0.5887561 0.01643896 -0.026984226)
(0.5332588 0.01907294 -0.043783001)
(0.35556985 0.020605879 -0.055230363)
(0.13443095 0.021565756 -0.058056535)
(-0.050937389 0.022318562 -0.059018656)
(-0.17321362 0.022668593 -0.059207965)
(0.11234126 0.0064668125 -0.0013295346)
(0.31605838 0.019776236 -0.0058062051)
(0.48961757 0.033579416 -0.016141593)
(0.57265034 0.044951139 -0.031973188)
(0.51977633 0.052706983 -0.049677179)
(0.34795761 0.057417362 -0.061412882)
(0.13073707 0.060305883 -0.063049291)
(-0.052520517 0.062400612 -0.063398434)
(-0.17416064 0.063529617 -0.062796567)
(0.10835008 0.0086452828 -0.0021535505)
(0.30412963 0.026763763 -0.0084347178)
(0.46993541 0.046011218 -0.020795256)
(0.54948884 0.062668493 -0.038470546)
(0.50151671 0.074946088 -0.056971116)
(0.33793129 0.082501039 -0.0677746)
(0.12754162 0.087411652 -0.069503993)
(-0.052163791 0.090702674 -0.06897728)
(-0.17290372 0.0928484 -0.067317225)
(0.10394349 0.0090293347 -0.0028171827)
(0.29126825 0.028341823 -0.010512468)
(0.44951412 0.049453992 -0.024245576)
(0.52682435 0.068885785 -0.042992973)
(0.48504758 0.084517187 -0.061751856)
(0.32973875 0.094612565 -0.071888368)
(0.12740763 0.10116152 -0.074031729)
(-0.048103534 0.10566769 -0.072787756)
(-0.1679257 0.10911057 -0.070291723)
(0.099506458 0.0081696112 -0.0031141275)
(0.27885933 0.02605942 -0.011380953)
(0.43091211 0.046280716 -0.025313499)
(0.50756787 0.066142312 -0.04380377)
(0.47127288 0.083379162 -0.062083376)
(0.32433934 0.095706238 -0.07236689)
(0.13002604 0.10404811 -0.075091886)
(-0.041460235 0.10994049 -0.073641415)
(-0.16061151 0.11473711 -0.070786196)
(0.095051592 0.0067010867 -0.0030642972)
(0.26690973 0.021756539 -0.011104793)
(0.41381317 0.039400516 -0.024240741)
(0.4901416 0.057934609 -0.041394184)
(0.45863565 0.075407482 -0.058639433)
(0.32072522 0.089487756 -0.069463771)
(0.13417273 0.099596621 -0.072850546)
(-0.033948877 0.10702256 -0.071710216)
(-0.15287961 0.11318757 -0.068978202)
(0.090284301 0.005045209 -0.0027383797)
(0.25440991 0.016712812 -0.0099358268)
(0.39635383 0.030924368 -0.021533135)
(0.47270164 0.047002592 -0.036722129)
(0.44648522 0.063689163 -0.052444344)
(0.31753233 0.078660984 -0.063588113)
(0.13806149 0.090475271 -0.067925443)
(-0.027481293 0.099500676 -0.06758267)
(-0.14651611 0.10692485 -0.065380849)
(0.084968466 0.0035031009 -0.0022498307)
(0.24055223 0.011867798 -0.0082039784)
(0.37708902 0.022490319 -0.017802143)
(0.4536115 0.035536256 -0.0306649)
(0.43319291 0.05059489 -0.044600762)
(0.31347479 0.065716903 -0.055717395)
(0.14089112 0.078878922 -0.061121909)
(-0.022530924 0.089359239 -0.061916853)
(-0.14183584 0.097864807 -0.060559843)
(0.079012447 0.0021679257 -0.0016358878)
(0.2250107 0.0075847309 -0.00607644)
(0.35543424 0.014852507 -0.0134421)
(0.43205259 0.024730532 -0.023753597)
(0.4182624 0.037558685 -0.035732519)
(0.30869443 0.052087046 -0.046549477)
(0.14352629 0.066059602 -0.053029747)
(-0.017729689 0.077716691 -0.055174508)
(-0.13726506 0.08711381 -0.054899765)
(0.072314404 0.0010575062 -0.00097534142)
(0.20753395 0.0039760587 -0.0038140646)
(0.331047 0.0082959852 -0.0088916613)
(0.40776355 0.015130841 -0.016561447)
(0.40206317 0.025423571 -0.026483294)
(0.30454992 0.038680866 -0.036738209)
(0.14849102 0.052812924 -0.04417715)
(-0.0097577906 0.065311299 -0.047736198)
(-0.12933674 0.075426137 -0.048642392)
(0.065083263 0.0002521314 -0.00036812189)
(0.18866313 0.001268425 -0.0017151111)
(0.3048192 0.0031953838 -0.0046621239)
(0.38215831 0.0072708733 -0.0098230889)
(0.3865142 0.01481885 -0.017582018)
(0.30415696 0.02606347 -0.026861278)
(0.16035808 0.039446652 -0.03485043)
(0.0069207562 0.052241008 -0.039616198)
(-0.11247321 0.063140298 -0.041770838)
(0.057985122 -0.00042117636 0.00027322722)
(0.17049196 -0.00099157937 0.00043294435)
(0.28042519 -0.0011023326 -0.000442403)
(0.36047649 0.00040364321 -0.0031022483)
(0.37821773 0.004943315 -0.0083380775)
(0.31553904 0.01326816 -0.015871559)
(0.1887138 0.024542652 -0.023603627)
(0.042925715 0.036496509 -0.029368084)
(-0.075319991 0.048098253 -0.03241315)
(0.036396983 -0.0008950723 -0.00081791898)
(0.10371715 -0.002718479 -0.0024989593)
(0.16254651 -0.0046838747 -0.0043564755)
(0.19088986 -0.0065767549 -0.0061344182)
(0.16462227 -0.008186148 -0.0073127904)
(0.072522595 -0.0094182123 -0.0072788811)
(-0.069520166 -0.010176985 -0.0060456681)
(-0.22205521 -0.010356576 -0.0045866871)
(-0.34362791 -0.010248736 -0.0039278039)
(0.04033489 -0.00095362602 -0.00076901108)
(0.11291676 -0.002833657 -0.0023298344)
(0.17262362 -0.0047483525 -0.0040390854)
(0.19442458 -0.0063950487 -0.0056359344)
(0.15374452 -0.0075316285 -0.0065059274)
(0.043433084 -0.0081642941 -0.005991027)
(-0.11286828 -0.0082896894 -0.0043302203)
(-0.27018204 -0.0079887195 -0.0026694739)
(-0.39056143 -0.0076334354 -0.0021785262)
(0.044482683 -0.0010084174 -0.00070466563)
(0.12314212 -0.0029513424 -0.0021339439)
(0.18526974 -0.0048350103 -0.0037188802)
(0.20312045 -0.0062592988 -0.0052255084)
(0.15187165 -0.0069472601 -0.0059844858)
(0.028439433 -0.0069948301 -0.0052406274)
(-0.13693346 -0.006545622 -0.0033283165)
(-0.29598036 -0.005851207 -0.0014591314)
(-0.41401844 -0.0052566757 -0.00078359717)
(0.04830506 -0.0010798407 -0.00065292347)
(0.13267901 -0.0031263216 -0.0019844571)
(0.19741736 -0.0050326811 -0.0034978012)
(0.21253781 -0.0062776737 -0.004986238)
(0.15329573 -0.0065219749 -0.0057292505)
(0.020461135 -0.0059536739 -0.0048762096)
(-0.15026756 -0.0049061142 -0.0028005422)
(-0.30881124 -0.0038025627 -0.0007164822)
(-0.42390079 -0.0029444884 0.00020072752)
(0.051693905 -0.0011493247 -0.00060007683)
(0.14123086 -0.0033183914 -0.0018456048)
(0.20855294 -0.0052950318 -0.0033215083)
(0.22180934 -0.0064172702 -0.0048528664)
(0.15647504 -0.0062505433 -0.0056715032)
(0.016879655 -0.0050640161 -0.0048232423)
(-0.15671474 -0.0034087556 -0.0026655691)
(-0.31323913 -0.0018972835 -0.00039469725)
(-0.42480573 -0.00079640204 0.00079357256)
(0.054659624 -0.0012181977 -0.00053666379)
(0.14877223 -0.003529248 -0.0016869971)
(0.21852667 -0.0056181736 -0.0031362233)
(0.23051221 -0.0066725323 -0.004764346)
(0.16048358 -0.0061429074 -0.0057534001)
(0.016001696 -0.004375828 -0.0050299899)
(-0.1588285 -0.0021526591 -0.0028761904)
(-0.31242319 -0.00027113965 -0.0004509235)
(-0.4200487 0.001020981 0.0010147006)
(0.057189113 -0.0012757428 -0.00046776329)
(0.15525319 -0.0037197662 -0.0015209964)
(0.22727206 -0.0059358418 -0.0029574752)
(0.23852706 -0.0069568534 -0.004695237)
(0.16497309 -0.0061414254 -0.0059293308)
(0.017013144 -0.0038987773 -0.0054343538)
(-0.15805164 -0.0012212872 -0.0033603651)
(-0.30836787 0.00093874443 -0.00082046257)
(-0.41195219 0.0023353216 0.00091401705)
(0.059379545 -0.0013015137 -0.00038844157)
(0.16096725 -0.0038193141 -0.0013216794)
(0.23519986 -0.0061201686 -0.0027622996)
(0.24640157 -0.0071345341 -0.0045970047)
(0.1703475 -0.0061439659 -0.0061206085)
(0.019884823 -0.0036015217 -0.0059549095)
(-0.15500541 -0.00066661808 -0.0040296176)
(-0.30224092 0.0016167544 -0.001413826)
(-0.40209748 0.0030201345 0.000566451)
(0.061294934 -0.0012686172 -0.00029864597)
(0.16609035 -0.0037368978 -0.0010890472)
(0.24258842 -0.0060051908 -0.0025014331)
(0.25423739 -0.0070065022 -0.0045280196)
(0.17658984 -0.0059544281 -0.0062970719)
(0.024307702 -0.0033562029 -0.0065118528)
(-0.15033456 -0.00044426462 -0.0047790305)
(-0.29501115 0.0017565845 -0.002122181)
(-0.39174599 0.0030518365 6.7582126e-05)
(0.062932962 -0.00112009 -0.00019379941)
(0.17059168 -0.0033081155 -0.00080429209)
(0.24930263 -0.0053276548 -0.0021493729)
(0.26167261 -0.0062244302 -0.0043400767)
(0.18301791 -0.0052665756 -0.0064292126)
(0.029402259 -0.0029372022 -0.0070375507)
(-0.14502487 -0.00040013046 -0.0054905349)
(-0.28776518 0.0014679265 -0.0028193747)
(-0.38212877 0.0025275411 -0.00046782487)
(0.064170489 -0.00079538567 -9.119702e-05)
(0.17399989 -0.0023518104 -0.00052024262)
(0.25444988 -0.0037937159 -0.0017838353)
(0.26750305 -0.0044410293 -0.0041073437)
(0.18822816 -0.0037536652 -0.0065179488)
(0.033778735 -0.0020915689 -0.0074711999)
(-0.14041967 -0.00032478636 -0.0060592033)
(-0.28180486 0.000944017 -0.0033820981)
(-0.37457249 0.001640596 -0.00092590255)
(0.064860527 -0.00029255378 -2.7927722e-05)
(0.175972 -0.00086507929 -0.00034317985)
(0.25754078 -0.0013946996 -0.0015481183)
(0.27114043 -0.0016305068 -0.0039464448)
(0.19158324 -0.0013721294 -0.0065626642)
(0.036651879 -0.00075881232 -0.0077273968)
(-0.137543 -0.00012017309 -0.0063845061)
(-0.27831957 0.00032808741 -0.0037027192)
(-0.3703575 0.0005594642 -0.0012199386)
(0.064860524 0.00029250866 -2.7929413e-05)
(0.17597199 0.00086500985 -0.0003431765)
(0.25754076 0.0013946373 -0.001548118)
(0.2711404 0.0016305064 -0.0039464434)
(0.19158321 0.0013722711 -0.0065626662)
(0.036651854 0.00075909224 -0.007727392)
(-0.13754302 0.00012049105 -0.0063844838)
(-0.2783196 -0.00032788212 -0.0037026739)
(-0.37035753 -0.00055948985 -0.0012198751)
(0.064170479 0.00079533537 -9.1201839e-05)
(0.17399986 0.0023517312 -0.00052023912)
(0.25444983 0.0037936506 -0.0017838391)
(0.26750299 0.0044410488 -0.004107346)
(0.18822808 0.0037538546 -0.0065179638)
(0.033778655 0.0020919126 -0.0074711897)
(-0.14041975 0.00032516362 -0.0060591362)
(-0.28180494 -0.00094377451 -0.0033819634)
(-0.37457256 -0.0016406037 -0.00092571086)
(0.062932952 0.0011200409 -0.00019380153)
(0.17059164 0.0033080361 -0.00080428826)
(0.24930256 0.0053275966 -0.0021493868)
(0.26167252 0.0062244853 -0.0043400926)
(0.18301779 0.0052668298 -0.0064292461)
(0.029402133 0.002937629 -0.0070375326)
(-0.14502499 0.00040058732 -0.0054904218)
(-0.2877653 -0.001467629 -0.0028191619)
(-0.38212887 -0.002527521 -0.00046751967)
(0.061294923 0.0012685845 -0.0002986399)
(0.16609031 0.0037368492 -0.0010890298)
(0.24258834 0.0060051613 -0.0025014407)
(0.25423727 0.0070065916 -0.0045280358)
(0.17658968 0.005954723 -0.0062971086)
(0.024307539 0.0033566804 -0.0065118224)
(-0.15033471 0.00044479036 -0.0047788883)
(-0.29501129 -0.0017562269 -0.0021219278)
(-0.39174611 -0.0030517858 6.7949228e-05)
(0.059379527 0.0013014917 -0.00038842653)
(0.1609672 0.0038192936 -0.0013216224)
(0.23519975 0.0061201637 -0.0027622566)
(0.24640142 0.0071346475 -0.0045969875)
(0.17034732 0.0061443008 -0.0061206275)
(0.01988463 0.0036020662 -0.0059548955)
(-0.15500559 0.00066721346 -0.0040295077)
(-0.30224109 -0.0016163418 -0.0014135995)
(-0.40209762 -0.003020085 0.00056681215)
(0.05718909 0.001275719 -0.00046773999)
(0.15525313 0.0037197534 -0.0015209259)
(0.22727195 0.0059358559 -0.002957427)
(0.2385269 0.0069569955 -0.0046952497)
(0.16497289 0.006141817 -0.0059294044)
(0.017012921 0.0038994105 -0.005434413)
(-0.15805186 0.0012219551 -0.0033603243)
(-0.30836806 -0.00093830648 -0.00082030965)
(-0.41195234 -0.0023353521 0.00091434092)
(0.054659599 0.0012181763 -0.00053665745)
(0.14877215 0.0035292564 -0.0016869728)
(0.21852654 0.0056182351 -0.0031362273)
(0.23051203 0.0066727382 -0.0047644111)
(0.16048334 0.0061433722 -0.0057535492)
(0.016001428 0.0043765209 -0.0050301406)
(-0.15882876 0.0021533713 -0.0028762541)
(-0.3124234 0.00027154743 -0.0004508608)
(-0.42004884 -0.0010211586 0.0010149832)
(0.051693873 0.0011493024 -0.00060006372)
(0.14123077 0.0033184066 -0.001845574)
(0.20855279 0.005295121 -0.0033215151)
(0.22180912 0.0064175254 -0.0048529613)
(0.15647475 0.0062510616 -0.0056717129)
(0.016879333 0.0050647601 -0.0048234949)
(-0.15671505 0.0034094735 -0.0026657578)
(-0.31323937 0.0018976005 -0.00039472024)
(-0.42480588 0.00079609136 0.00079375941)
(0.048305031 0.0010798156 -0.00065291387)
(0.13267892 0.0031263348 -0.0019844502)
(0.1974172 0.0050327826 -0.0034978485)
(0.21253756 0.0062779646 -0.0049863673)
(0.15329541 0.0065225208 -0.0057295252)
(0.02046076 0.005954421 -0.0048765777)
(-0.15026792 0.0049067877 -0.0028008337)
(-0.3088115 0.003802777 -0.00071664019)
(-0.42390096 0.0029441428 0.00020066578)
(0.044482654 0.0010084061 -0.00070465787)
(0.12314203 0.0029513949 -0.0021339396)
(0.18526957 0.0048351747 -0.0037189307)
(0.2031202 0.0062596681 -0.0052256559)
(0.15187131 0.0069478655 -0.0059848244)
(0.028439034 0.0069955537 -0.0052411049)
(-0.13693384 0.0065462101 -0.0033287631)
(-0.29598066 0.0058513683 -0.0014596112)
(-0.41401865 0.0052563091 -0.00078391026)
(0.040334863 0.00095363338 -0.00076901237)
(0.11291667 0.0028337503 -0.002329861)
(0.17262347 0.0047485755 -0.0040391914)
(0.19442434 0.00639549 -0.0056361634)
(0.15374421 0.007532301 -0.0065063551)
(0.043432715 0.0081650092 -0.005991614)
(-0.11286865 0.0082901263 -0.0043308876)
(-0.27018237 0.0079886169 -0.0026701374)
(-0.39056164 0.0076329141 -0.0021789157)
(0.036396961 0.00089509398 -0.00081793552)
(0.10371709 0.0027185854 -0.0024990385)
(0.1625464 0.0046841002 -0.0043566546)
(0.1908897 0.0065771485 -0.0061347502)
(0.16462208 0.0081867445 -0.0073133167)
(0.072522376 0.0094188962 -0.007279594)
(-0.069520391 0.010177462 -0.0060465136)
(-0.22205543 0.010356434 -0.0045876973)
(-0.34362804 0.01024832 -0.0039281361)
(0.047324413 -0.00015303375 -0.0001390693)
(0.13743558 -0.00053202547 -0.00044726983)
(0.22195433 -0.0011028834 -0.00078927464)
(0.27621166 -0.0019092264 -0.0011450385)
(0.2717508 -0.0029291186 -0.0015443533)
(0.19300058 -0.0040755924 -0.0020345237)
(0.055722299 -0.0052775912 -0.0025608078)
(-0.097705362 -0.0065332071 -0.0029527513)
(-0.22210851 -0.0078055446 -0.0030774365)
(0.052507356 -0.00026634571 -0.0002151655)
(0.15006255 -0.00088836988 -0.00067714932)
(0.23728621 -0.0017503114 -0.0011726829)
(0.28600278 -0.0028747246 -0.001659167)
(0.26667694 -0.0041933733 -0.0021726016)
(0.1680923 -0.0055607049 -0.0027739127)
(0.014641398 -0.0068973332 -0.0033950991)
(-0.14519277 -0.0081853208 -0.0038519252)
(-0.26979115 -0.009317842 -0.0040159179)
(0.057737463 -0.00035563776 -0.00025080284)
(0.16320665 -0.0011763804 -0.0007890737)
(0.25428702 -0.0022803622 -0.0013598204)
(0.29970383 -0.0036636381 -0.0019038079)
(0.26920072 -0.0052017806 -0.0024644757)
(0.15585766 -0.0066930507 -0.0031337953)
(-0.0084038916 -0.008053763 -0.0038458981)
(-0.17132369 -0.009273753 -0.004417241)
(-0.29470031 -0.010258642 -0.0046830967)
(0.062430722 -0.00044142451 -0.00027189257)
(0.1749966 -0.0014470902 -0.0008533982)
(0.2696164 -0.0027627397 -0.0014627091)
(0.3125042 -0.0043513419 -0.002028689)
(0.27317662 -0.0060332997 -0.0026040757)
(0.14883346 -0.0075669591 -0.0033180306)
(-0.022321112 -0.0088810309 -0.0041169488)
(-0.18584532 -0.0099928368 -0.0048091181)
(-0.30716379 -0.010844664 -0.0051923562)
(0.066430498 -0.00050956337 -0.00027354368)
(0.18502041 -0.0016642207 -0.00085902208)
(0.28261153 -0.0031470333 -0.001468166)
(0.32338925 -0.0048847924 -0.0020267261)
(0.27695362 -0.0066463114 -0.0026010317)
(0.14432335 -0.0081631516 -0.0033549749)
(-0.031037928 -0.0093874452 -0.0042417925)
(-0.19345666 -0.010365173 -0.0050488715)
(-0.31191454 -0.011078777 -0.0055425692)
(0.0697634 -0.0005600036 -0.00025598606)
(0.1932924 -0.0018235122 -0.0008050449)
(0.29317849 -0.0034185378 -0.0013748927)
(0.3320058 -0.0052352919 -0.0018970142)
(0.27969194 -0.0070012135 -0.0024563624)
(0.14072978 -0.008438534 -0.0032467755)
(-0.037037923 -0.0095321752 -0.0042204581)
(-0.19727543 -0.01035844 -0.0051381097)
(-0.31227704 -0.010932654 -0.0057384661)
(0.072419464 -0.0005866323 -0.00022564422)
(0.19979439 -0.0019035387 -0.00070910229)
(0.30130317 -0.0035397132 -0.0012069091)
(0.33830999 -0.0053526274 -0.0016649471)
(0.28117543 -0.0070430817 -0.0021933563)
(0.13740317 -0.0083433676 -0.0030142769)
(-0.041597732 -0.0092733803 -0.0040717757)
(-0.19915599 -0.0099343095 -0.0050965147)
(-0.3104467 -0.010375447 -0.0057997617)
(0.074501292 -0.00057839489 -0.00018343506)
(0.20486486 -0.0018719105 -0.00057557816)
(0.30757797 -0.0034578253 -0.00097425416)
(0.3430565 -0.005171634 -0.001347759)
(0.28208329 -0.0067065863 -0.0018375205)
(0.13461841 -0.0078220786 -0.0026866735)
(-0.045033091 -0.00856443 -0.0038242388)
(-0.19997402 -0.0090687545 -0.0049581174)
(-0.30772433 -0.0093885863 -0.0057595518)
(0.07609619 -0.00052801866 -0.00013425998)
(0.20875767 -0.0017046092 -0.0004200898)
(0.31240456 -0.0031300322 -0.00070457023)
(0.34671276 -0.0046348202 -0.00098299134)
(0.28279582 -0.0059299369 -0.0014299572)
(0.13252823 -0.0068211946 -0.0023059874)
(-0.047499192 -0.0073800676 -0.0035248644)
(-0.20020535 -0.0077405342 -0.0047637937)
(-0.30489325 -0.0079564426 -0.0056528515)
(0.077249585 -0.00042956735 -8.4129964e-05)
(0.21158345 -0.0013837256 -0.00026227871)
(0.31591911 -0.0025279608 -0.0004344689)
(0.3493849 -0.0037109378 -0.00062571671)
(0.2833284 -0.0046933443 -0.001036941)
(0.1310491 -0.0053386968 -0.001936854)