/*--------------------------------*- C++ -*----------------------------------*\
| =========                 |                                                 |
| \\      /  F ield         | OpenFOAM: The Open Source CFD Toolbox           |
|  \\    /   O peration     | Version:  2406                                  |
|   \\  /    A nd           | Website:  www.openfoam.com                      |
|    \\/     M anipulation  |                                                 |
\*---------------------------------------------------------------------------*/
FoamFile
{
    version     2.0;
    format      ascii;
    arch        "LSB;label=32;scalar=64";
    class       volScalarField;
    location    "19.25";
    object      p;
}
// * * * * * * * * * * * * * * * * * * * * * * * * * * * * * * * * * * * * * //

dimensions      [0 2 -2 0 0 0 0];

internalField   nonuniform List<scalar> 
34560
(
-7.6507799
-7.6591308
-7.6716776
-7.6893787
-7.7123414
-7.7393865
-7.7690993
-7.8009022
-7.8316995
-7.6072825
-7.618224
-7.6348324
-7.6583563
-7.6887996
-7.7243285
-7.7624848
-7.8019145
-7.8393704
-7.5657754
-7.5793951
-7.6000791
-7.6291243
-7.6663522
-7.7092382
-7.7542055
-7.7993008
-7.8411223
-7.5230914
-7.5393736
-7.5642196
-7.5989498
-7.6430251
-7.6930764
-7.7443723
-7.7944069
-7.8401504
-7.4805772
-7.4995473
-7.5285699
-7.5689428
-7.6197105
-7.6766846
-7.7340556
-7.7887243
-7.8380781
-7.4405503
-7.4619037
-7.4947472
-7.5403959
-7.5974148
-7.6607945
-7.7238246
-7.7827233
-7.8353128
-7.4037015
-7.4272194
-7.4635577
-7.5140643
-7.5768034
-7.6459238
-7.714088
-7.7768413
-7.8322775
-7.3709879
-7.3964159
-7.435841
-7.4906316
-7.5583929
-7.6324897
-7.7051173
-7.7713118
-7.8292507
-7.3433263
-7.3703622
-7.4123902
-7.4707845
-7.5427473
-7.6209738
-7.697294
-7.7663877
-7.8264592
-7.3218446
-7.3501052
-7.3941389
-7.4553165
-7.5305121
-7.6119011
-7.6910342
-7.7623629
-7.8241208
-7.3073005
-7.336403
-7.3818042
-7.444855
-7.5222039
-7.6056929
-7.6866857
-7.7595105
-7.8224358
-7.2995833
-7.3291578
-7.3753048
-7.4393561
-7.5178378
-7.6024221
-7.6843759
-7.7579762
-7.8215188
-7.299583
-7.3291576
-7.3753046
-7.439356
-7.5178379
-7.6024222
-7.6843759
-7.7579761
-7.8215187
-7.3073004
-7.336403
-7.3818042
-7.4448553
-7.5222044
-7.6056933
-7.6866859
-7.7595103
-7.8224354
-7.3218448
-7.3501057
-7.3941397
-7.4553176
-7.5305133
-7.6119021
-7.6910349
-7.762363
-7.82412
-7.3433271
-7.3703635
-7.4123919
-7.4707866
-7.5427494
-7.6209757
-7.6972953
-7.7663881
-7.8264582
-7.3709904
-7.3964188
-7.435844
-7.4906346
-7.5583957
-7.6324922
-7.7051191
-7.7713125
-7.82925
-7.4037055
-7.4272235
-7.4635614
-7.5140677
-7.5768064
-7.6459266
-7.7140903
-7.7768425
-7.8322774
-7.4405541
-7.4619072
-7.4947505
-7.540399
-7.597418
-7.6607977
-7.7238272
-7.782725
-7.8353135
-7.4805785
-7.4995489
-7.5285721
-7.5689458
-7.6197141
-7.6766883
-7.7340588
-7.7887261
-7.8380792
-7.5230925
-7.5393753
-7.5642222
-7.5989534
-7.6430292
-7.6930806
-7.744376
-7.7944089
-7.840151
-7.5657774
-7.5793976
-7.6000824
-7.6291282
-7.6663565
-7.7092427
-7.7542099
-7.7993035
-7.8411234
-7.6072858
-7.6182275
-7.6348363
-7.6583606
-7.6888043
-7.7243335
-7.7624901
-7.8019197
-7.8393733
-7.6507845
-7.6591356
-7.6716827
-7.6893841
-7.712347
-7.739392
-7.7691048
-7.8009084
-7.8317041
-7.7048824
-7.7027885
-7.7002026
-7.6963706
-7.6900031
-7.6806321
-7.6678824
-7.652081
-7.6366885
-7.7296744
-7.7268086
-7.7228819
-7.7166092
-7.7062446
-7.6918236
-7.6744851
-7.6553037
-7.6377553
-7.7570364
-7.7534567
-7.7484242
-7.7400508
-7.7258879
-7.7062329
-7.6839916
-7.6612889
-7.6413199
-7.7837626
-7.7794372
-7.7733328
-7.763068
-7.7454805
-7.7208755
-7.6938316
-7.6676679
-7.6450617
-7.8094725
-7.8044342
-7.7972783
-7.7852237
-7.764507
-7.7352027
-7.7033872
-7.6738196
-7.6485724
-7.8334905
-7.8278227
-7.8196956
-7.8059351
-7.7824542
-7.748997
-7.7126228
-7.6798123
-7.652115
-7.8552573
-7.8490144
-7.8399843
-7.8246208
-7.7986619
-7.7617249
-7.7213261
-7.6854774
-7.6555668
-7.8743013
-7.8675725
-7.8577485
-7.8409293
-7.8127298
-7.77297
-7.7292971
-7.6905601
-7.6584757
-7.8901348
-7.8830208
-7.8725474
-7.8545003
-7.8243892
-7.7823397
-7.7360629
-7.6946765
-7.6604695
-7.9023463
-7.8949598
-7.8840033
-7.8649993
-7.8333752
-7.7895431
-7.7412386
-7.6975824
-7.6617007
-7.9106678
-7.9030942
-7.8917989
-7.8721156
-7.8394102
-7.794304
-7.7445998
-7.6994225
-7.6624346
-7.9148457
-7.9071926
-7.8957388
-7.8757132
-7.8424427
-7.7966501
-7.7462254
-7.7003231
-7.6627936
-7.9148458
-7.9071928
-7.8957389
-7.8757134
-7.842443
-7.7966503
-7.7462255
-7.7003232
-7.6627937
-7.9106683
-7.9030948
-7.8917996
-7.8721164
-7.8394111
-7.7943047
-7.7446003
-7.6994227
-7.6624348
-7.9023473
-7.894961
-7.8840047
-7.8650009
-7.8333768
-7.7895446
-7.7412397
-7.6975831
-7.6617009
-7.8901362
-7.8830226
-7.8725495
-7.8545027
-7.8243916
-7.782342
-7.7360648
-7.6946778
-7.6604698
-7.8743035
-7.867575
-7.8577513
-7.8409323
-7.8127328
-7.772973
-7.7292998
-7.6905621
-7.6584765
-7.8552604
-7.8490177
-7.8399877
-7.8246242
-7.7986654
-7.7617284
-7.7213294
-7.6854801
-7.6555683
-7.833494
-7.8278261
-7.8196991
-7.8059387
-7.782458
-7.7490011
-7.7126267
-7.6798157
-7.6521172
-7.8094757
-7.8044376
-7.797282
-7.7852279
-7.7645117
-7.7352075
-7.7033918
-7.6738234
-7.6485749
-7.7837665
-7.7794414
-7.7733375
-7.7630732
-7.745486
-7.720881
-7.6938367
-7.6676718
-7.6450639
-7.7570416
-7.7534623
-7.74843
-7.7400569
-7.7258942
-7.7062392
-7.6839974
-7.6612929
-7.6413221
-7.7296809
-7.7268152
-7.7228887
-7.7166161
-7.7062518
-7.6918307
-7.6744917
-7.6553084
-7.6377576
-7.70489
-7.7027962
-7.7002103
-7.6963785
-7.690011
-7.6806398
-7.6678894
-7.6520865
-7.6366912
-7.0557482
-7.0552461
-7.054994
-7.0554142
-7.0564846
-7.0574113
-7.0565265
-7.0533553
-7.0495754
-7.0605156
-7.0598155
-7.0593481
-7.0596833
-7.060823
-7.0617118
-7.06053
-7.0568395
-7.0528412
-7.0646801
-7.0638119
-7.0632199
-7.0636763
-7.0653364
-7.0668707
-7.0659454
-7.0620794
-7.0577433
-7.0675043
-7.0664654
-7.0657397
-7.0663075
-7.0685739
-7.0710593
-7.0707248
-7.0668097
-7.0619724
-7.0696985
-7.0685166
-7.0676559
-7.0682143
-7.0708471
-7.0741741
-7.0745128
-7.0706304
-7.0654837
-7.0716799
-7.070372
-7.0694087
-7.0699564
-7.0727175
-7.0765781
-7.0775445
-7.0737329
-7.0683883
-7.0734192
-7.0720086
-7.0709852
-7.071559
-7.0743675
-7.0784711
-7.0798895
-7.0761854
-7.0707255
-7.0749924
-7.0735051
-7.0724597
-7.0731106
-7.0760022
-7.0800877
-7.0816441
-7.0781608
-7.0728079
-7.076356
-7.0748166
-7.0737773
-7.0745249
-7.0775184
-7.0815091
-7.0830356
-7.079903
-7.0748931
-7.0774774
-7.0758983
-7.0748721
-7.0757167
-7.0788075
-7.0827079
-7.084206
-7.0815148
-7.0767552
-7.0782862
-7.0766759
-7.0756621
-7.0765889
-7.0797735
-7.0836483
-7.0851467
-7.0827354
-7.0780885
-7.0786901
-7.0770691
-7.0760676
-7.0770458
-7.0802962
-7.0841951
-7.0857039
-7.0833886
-7.0787664
-7.0786905
-7.0770695
-7.0760679
-7.0770461
-7.0802966
-7.0841954
-7.0857041
-7.0833888
-7.0787666
-7.0782871
-7.0766769
-7.0756631
-7.07659
-7.0797745
-7.0836493
-7.0851475
-7.082736
-7.078089
-7.0774788
-7.0758998
-7.0748738
-7.0757185
-7.0788094
-7.0827096
-7.0842076
-7.081516
-7.0767559
-7.0763579
-7.0748187
-7.0737796
-7.0745274
-7.077521
-7.0815116
-7.0830379
-7.0799048
-7.0748943
-7.0749949
-7.0735078
-7.0724627
-7.0731138
-7.0760055
-7.080091
-7.0816473
-7.0781635
-7.0728097
-7.0734225
-7.0720121
-7.0709888
-7.0715628
-7.0743716
-7.0784752
-7.0798935
-7.0761888
-7.0707281
-7.0716842
-7.0703763
-7.069413
-7.0699609
-7.0727222
-7.0765831
-7.0775493
-7.0737371
-7.0683916
-7.0697035
-7.0685217
-7.0676612
-7.0682198
-7.0708529
-7.07418
-7.0745185
-7.0706353
-7.0654876
-7.0675105
-7.0664718
-7.0657463
-7.0663144
-7.0685809
-7.0710663
-7.0707315
-7.0668152
-7.0619766
-7.0646878
-7.0638198
-7.063228
-7.0636845
-7.0653447
-7.0668789
-7.0659531
-7.0620857
-7.0577478
-7.0605247
-7.0598247
-7.0593574
-7.0596926
-7.0608324
-7.0617211
-7.0605387
-7.0568467
-7.0528465
-7.0557582
-7.0552562
-7.0550041
-7.0554244
-7.0564947
-7.0574212
-7.0565358
-7.0533636
-7.049582
-6.7522621
-6.7524799
-6.7527035
-6.7527849
-6.7524876
-6.7515492
-6.75044
-6.7495724
-6.7482704
-6.7560104
-6.7561761
-6.7562688
-6.756081
-6.755296
-6.7535245
-6.7511148
-6.7490309
-6.7472827
-6.7605487
-6.7606592
-6.7606466
-6.7602448
-6.759068
-6.7567084
-6.7534465
-6.7504339
-6.7482752
-6.7650068
-6.7650522
-6.7649441
-6.7643749
-6.7628861
-6.7601365
-6.7563973
-6.7528203
-6.750306
-6.7692924
-6.7692733
-6.7690755
-6.7683609
-6.7666049
-6.7635208
-6.7594771
-6.7555685
-6.7527815
-6.7732062
-6.7731371
-6.772874
-6.7720038
-6.7699902
-6.7665757
-6.7622644
-6.758099
-6.7550507
-6.7764073
-6.7763157
-6.7760037
-6.7750024
-6.7727141
-6.7689734
-6.7643872
-6.7599832
-6.7566917
-6.7788956
-6.7788063
-6.7784566
-6.7773242
-6.7747731
-6.7707252
-6.7658838
-6.7612894
-6.7578185
-6.7806631
-6.7805963
-6.7802411
-6.7790106
-6.7762494
-6.7719458
-6.7669044
-6.7621865
-6.7586034
-6.7818495
-6.7818018
-6.7814426
-6.7801441
-6.7772314
-6.7727333
-6.7675564
-6.7627915
-6.759128
-6.7825736
-6.7825409
-6.7821778
-6.7808296
-6.7778128
-6.7731814
-6.7679268
-6.763151
-6.759436
-6.7828996
-6.7828768
-6.7825157
-6.781146
-6.7780796
-6.7733822
-6.7680943
-6.7633154
-6.7595724
-6.7828998
-6.782877
-6.782516
-6.7811463
-6.7780799
-6.7733825
-6.7680946
-6.7633156
-6.7595725
-6.7825742
-6.7825416
-6.7821786
-6.7808304
-6.7778137
-6.7731824
-6.7679277
-6.7631517
-6.7594363
-6.7818505
-6.781803
-6.781444
-6.7801457
-6.7772331
-6.772735
-6.767558
-6.7627928
-6.7591286
-6.7806647
-6.7805982
-6.7802431
-6.779013
-6.7762519
-6.7719483
-6.7669068
-6.7621884
-6.7586045
-6.7788981
-6.7788091
-6.7784596
-6.7773275
-6.7747765
-6.7707287
-6.7658871
-6.7612921
-6.7578204
-6.7764109
-6.7763194
-6.7760077
-6.7750066
-6.7727185
-6.7689779
-6.7643914
-6.7599867
-6.7566944
-6.7732109
-6.773142
-6.772879
-6.7720091
-6.7699957
-6.7665812
-6.7622695
-6.7581034
-6.7550543
-6.7692983
-6.7692793
-6.7690817
-6.7683674
-6.7666117
-6.7635275
-6.7594834
-6.7555739
-6.7527861
-6.7650139
-6.7650596
-6.7649517
-6.7643828
-6.7628941
-6.7601445
-6.7564048
-6.7528269
-6.7503117
-6.7605575
-6.7606682
-6.7606558
-6.7602541
-6.7590774
-6.7567177
-6.7534555
-6.7504423
-6.7482828
-6.7560209
-6.7561867
-6.7562794
-6.7560917
-6.7553069
-6.7535353
-6.7511257
-6.7490419
-6.7472931
-6.7522738
-6.7524917
-6.7527154
-6.7527969
-6.7524999
-6.7515618
-6.7504531
-6.7495862
-6.7482843
-6.3806873
-6.3806896
-6.3807355
-6.3808746
-6.381158
-6.3816218
-6.3822318
-6.3828275
-6.3831421
-6.3828833
-6.3828418
-6.3828205
-6.3828679
-6.3830328
-6.3833631
-6.383793
-6.384145
-6.3842861
-6.3850721
-6.3849994
-6.384946
-6.3849697
-6.3851161
-6.3854107
-6.3857429
-6.3859354
-6.3859418
-6.3867232
-6.3866323
-6.3865632
-6.3865872
-6.3867674
-6.3870665
-6.3873467
-6.3873862
-6.3871649
-6.3878031
-6.3877178
-6.3876448
-6.3876426
-6.3877804
-6.3880377
-6.3882295
-6.3880937
-6.3876402
-6.3884746
-6.3884032
-6.3883307
-6.3883148
-6.3883835
-6.3885517
-6.3886275
-6.3883289
-6.3876952
-6.388914
-6.3888541
-6.388782
-6.3887485
-6.3887979
-6.3889086
-6.3888926
-6.3884805
-6.387719
-6.3892099
-6.3891545
-6.3890936
-6.389064
-6.3891138
-6.3891973
-6.3891196
-6.3886193
-6.3877478
-6.3894279
-6.3893682
-6.3893013
-6.3892781
-6.3893363
-6.3894125
-6.3892993
-6.3887324
-6.3877631
-6.3895775
-6.389515
-6.3894437
-6.3894189
-6.3894813
-6.3895596
-6.3894267
-6.3888074
-6.3877636
-6.3896707
-6.3896029
-6.3895267
-6.3895003
-6.3895663
-6.3896504
-6.3895055
-6.3888496
-6.387758
-6.3897063
-6.3896375
-6.3895597
-6.3895333
-6.3896029
-6.3896932
-6.3895434
-6.38887
-6.3877563
-6.3897064
-6.3896376
-6.3895599
-6.3895335
-6.3896031
-6.3896935
-6.3895436
-6.3888701
-6.3877563
-6.3896711
-6.3896034
-6.3895272
-6.389501
-6.3895671
-6.3896513
-6.3895063
-6.3888501
-6.387758
-6.3895782
-6.389516
-6.3894447
-6.3894202
-6.3894828
-6.3895611
-6.3894281
-6.3888083
-6.3877637
-6.3894293
-6.3893697
-6.3893031
-6.3892802
-6.3893386
-6.3894149
-6.3893015
-6.3887339
-6.3877635
-6.3892122
-6.389157
-6.3890964
-6.3890671
-6.3891172
-6.3892007
-6.3891227
-6.3886215
-6.3877488
-6.3889174
-6.3888577
-6.3887859
-6.3887528
-6.3888025
-6.3889132
-6.3888968
-6.3884836
-6.3877207
-6.3884794
-6.3884083
-6.3883361
-6.3883205
-6.3883895
-6.3885577
-6.3886329
-6.3883331
-6.3876976
-6.3878095
-6.3877245
-6.3876519
-6.38765
-6.3877881
-6.3880453
-6.3882363
-6.3880991
-6.3876437
-6.3867317
-6.386641
-6.3865723
-6.3865966
-6.3867769
-6.3870759
-6.3873552
-6.3873932
-6.3871697
-6.3850829
-6.3850104
-6.3849572
-6.3849812
-6.3851276
-6.385422
-6.3857535
-6.3859445
-6.3859483
-6.3828963
-6.382855
-6.3828338
-6.3828814
-6.3830464
-6.3833765
-6.3838058
-6.3841565
-6.384295
-6.3807019
-6.3807043
-6.3807502
-6.3808894
-6.3811729
-6.3816368
-6.3822467
-6.382842
-6.3831546
-6.0570949
-6.0571421
-6.0571998
-6.0572544
-6.0572928
-6.0572942
-6.0572473
-6.0571589
-6.0569483
-6.0574378
-6.0574854
-6.0575285
-6.0575382
-6.0574823
-6.0573363
-6.0571268
-6.0568939
-6.0566334
-6.0580108
-6.0580531
-6.0580776
-6.0580391
-6.0578989
-6.0576472
-6.0573437
-6.0570522
-6.0568205
-6.0587528
-6.0587806
-6.0587833
-6.0587068
-6.0585037
-6.0581863
-6.0578268
-6.0575012
-6.0572755
-6.0596357
-6.0596462
-6.0596267
-6.0595245
-6.0592927
-6.0589444
-6.0585453
-6.0581844
-6.0579452
-6.0606083
-6.0606017
-6.0605639
-6.060452
-6.06023
-6.0598807
-6.0594553
-6.0590541
-6.0587792
-6.0615945
-6.0615737
-6.0615254
-6.0614201
-6.0612173
-6.0608795
-6.0604403
-6.0600001
-6.059672
-6.0625227
-6.0624925
-6.0624397
-6.0623422
-6.0621561
-6.0618344
-6.061387
-6.0609076
-6.0605147
-6.0633294
-6.0632935
-6.0632386
-6.0631458
-6.062976
-6.0626713
-6.0622172
-6.0616984
-6.0612375
-6.0639715
-6.0639319
-6.0638759
-6.0637889
-6.0636342
-6.0633435
-6.0628821
-6.0623258
-6.0618031
-6.0644189
-6.0643768
-6.0643207
-6.0642386
-6.0640951
-6.0638138
-6.0633457
-6.0627602
-6.0621916
-6.0646462
-6.064603
-6.064547
-6.0644679
-6.0643308
-6.0640552
-6.0635836
-6.0629828
-6.0623904
-6.0646462
-6.0646031
-6.0645471
-6.0644681
-6.0643311
-6.0640554
-6.0635838
-6.0629829
-6.0623903
-6.0644192
-6.0643773
-6.0643212
-6.0642393
-6.0640959
-6.0638146
-6.0633464
-6.0627605
-6.0621912
-6.0639723
-6.0639328
-6.063877
-6.0637902
-6.0636357
-6.063345
-6.0628833
-6.0623264
-6.0618026
-6.0633307
-6.063295
-6.0632404
-6.0631478
-6.0629783
-6.0626737
-6.0622192
-6.0616994
-6.0612369
-6.062525
-6.062495
-6.0624425
-6.0623454
-6.0621596
-6.0618379
-6.06139
-6.0609092
-6.0605144
-6.061598
-6.0615775
-6.0615295
-6.0614247
-6.0612222
-6.0608844
-6.0604444
-6.0600026
-6.0596722
-6.0606135
-6.0606072
-6.0605699
-6.0604584
-6.0602367
-6.0598872
-6.059461
-6.0590578
-6.0587801
-6.0596431
-6.0596539
-6.0596349
-6.0595331
-6.0593016
-6.058953
-6.0585527
-6.0581895
-6.0579473
-6.0587628
-6.0587909
-6.0587941
-6.058718
-6.058515
-6.0581973
-6.0578364
-6.0575083
-6.0572791
-6.0580237
-6.0580663
-6.0580912
-6.058053
-6.0579128
-6.0576607
-6.0573559
-6.0570617
-6.056826
-6.0574535
-6.0575013
-6.0575446
-6.0575546
-6.0574986
-6.0573523
-6.0571415
-6.0569063
-6.0566414
-6.0571125
-6.0571598
-6.0572175
-6.0572722
-6.0573106
-6.0573117
-6.0572642
-6.0571745
-6.0569603
-5.721713
-5.7217151
-5.7217264
-5.7217572
-5.7218224
-5.7219352
-5.7220891
-5.7222595
-5.7223772
-5.7222261
-5.722219
-5.7222155
-5.7222261
-5.7222657
-5.7223463
-5.7224525
-5.7225531
-5.7226123
-5.7227326
-5.7227206
-5.7227114
-5.7227164
-5.7227498
-5.7228152
-5.7228877
-5.7229414
-5.7229687
-5.7231278
-5.7231129
-5.7231017
-5.7231087
-5.7231472
-5.7232015
-5.7232402
-5.723245
-5.7232211
-5.7234042
-5.7233907
-5.7233814
-5.7233896
-5.7234185
-5.7234434
-5.7234373
-5.7233887
-5.7233088
-5.7235685
-5.723559
-5.7235523
-5.7235548
-5.7235567
-5.723543
-5.7234904
-5.7233902
-5.7232592
-5.7236348
-5.7236293
-5.7236223
-5.7236107
-5.7235861
-5.7235385
-5.7234455
-5.7233006
-5.7231278
-5.7236501
-5.7236453
-5.7236342
-5.7236105
-5.7235659
-5.7234865
-5.7233567
-5.7231739
-5.7229682
-5.7236434
-5.7236371
-5.7236218
-5.7235903
-5.7235286
-5.7234207
-5.7232593
-5.7230463
-5.7228168
-5.7236316
-5.7236234
-5.7236045
-5.7235656
-5.7234894
-5.7233594
-5.7231741
-5.7229391
-5.7226937
-5.7236211
-5.7236113
-5.7235893
-5.7235444
-5.7234579
-5.7233135
-5.7231126
-5.7228638
-5.7226086
-5.7236128
-5.7236026
-5.7235793
-5.7235317
-5.7234402
-5.723289
-5.7230808
-5.7228256
-5.7225656
-5.7236129
-5.7236027
-5.7235794
-5.7235319
-5.7234405
-5.7232893
-5.723081
-5.7228257
-5.7225654
-5.7236214
-5.7236117
-5.7235898
-5.7235452
-5.7234588
-5.7233143
-5.7231133
-5.7228641
-5.722608
-5.7236323
-5.7236243
-5.7236056
-5.7235669
-5.7234909
-5.723361
-5.7231754
-5.7229396
-5.7226929
-5.7236447
-5.7236387
-5.7236236
-5.7235925
-5.7235311
-5.7234232
-5.7232614
-5.7230472
-5.7228159
-5.7236524
-5.7236478
-5.7236372
-5.7236138
-5.7235696
-5.7234902
-5.7233598
-5.7231754
-5.7229675
-5.7236384
-5.7236333
-5.7236267
-5.7236157
-5.7235914
-5.7235437
-5.7234498
-5.7233031
-5.7231276
-5.723574
-5.723565
-5.7235588
-5.7235618
-5.723564
-5.7235501
-5.7234964
-5.7233939
-5.7232598
-5.7234121
-5.7233991
-5.7233903
-5.7233991
-5.7234282
-5.7234528
-5.7234453
-5.723394
-5.7233107
-5.7231388
-5.7231243
-5.7231136
-5.7231211
-5.7231597
-5.7232135
-5.7232506
-5.7232526
-5.7232248
-5.7227469
-5.7227353
-5.7227264
-5.7227318
-5.7227654
-5.7228302
-5.7229011
-5.7229518
-5.7229751
-5.7222436
-5.7222367
-5.7222335
-5.7222443
-5.7222839
-5.7223641
-5.722469
-5.7225671
-5.722622
-5.7217327
-5.7217348
-5.7217462
-5.7217771
-5.7218423
-5.7219551
-5.7221085
-5.7222776
-5.7223917
-5.3964257
-5.3964355
-5.3964483
-5.396462
-5.3964749
-5.3964841
-5.3964911
-5.396502
-5.3964916
-5.3965299
-5.3965385
-5.3965468
-5.3965498
-5.3965425
-5.3965222
-5.3964975
-5.3964772
-5.396454
-5.3966843
-5.3966911
-5.3966949
-5.3966881
-5.3966649
-5.3966264
-5.3965851
-5.3965546
-5.3965402
-5.396868
-5.3968715
-5.3968705
-5.3968561
-5.3968226
-5.3967751
-5.3967268
-5.3966916
-5.3966777
-5.3970807
-5.3970803
-5.3970745
-5.3970549
-5.397017
-5.3969657
-5.3969125
-5.3968716
-5.3968529
-5.397312
-5.3973082
-5.3972992
-5.3972789
-5.3972429
-5.3971918
-5.3971354
-5.397088
-5.3970607
-5.3975419
-5.3975357
-5.3975251
-5.3975066
-5.3974748
-5.3974277
-5.397371
-5.3973179
-5.3972798
-5.3977566
-5.397749
-5.3977379
-5.3977206
-5.3976928
-5.3976513
-5.3975959
-5.3975372
-5.3974865
-5.3979429
-5.3979345
-5.3979233
-5.3979073
-5.3978832
-5.3978467
-5.3977927
-5.3977283
-5.3976648
-5.3980915
-5.3980827
-5.3980715
-5.3980569
-5.398036
-5.3980034
-5.39795
-5.3978803
-5.3978055
-5.398195
-5.398186
-5.3981751
-5.3981616
-5.398143
-5.3981129
-5.3980598
-5.397986
-5.3979027
-5.3982478
-5.3982386
-5.3982278
-5.398215
-5.3981977
-5.3981691
-5.3981162
-5.3980403
-5.3979524
-5.3982478
-5.3982387
-5.398228
-5.3982152
-5.398198
-5.3981694
-5.3981164
-5.3980403
-5.3979522
-5.3981953
-5.3981863
-5.3981756
-5.3981623
-5.3981438
-5.3981138
-5.3980605
-5.3979862
-5.397902
-5.398092
-5.3980834
-5.3980725
-5.3980582
-5.3980375
-5.398005
-5.3979513
-5.3978807
-5.3978045
-5.397944
-5.3979359
-5.397925
-5.3979094
-5.3978857
-5.3978492
-5.3977947
-5.3977291
-5.3976637
-5.3977587
-5.3977514
-5.3977407
-5.397724
-5.3976965
-5.397655
-5.397599
-5.3975387
-5.3974856
-5.3975453
-5.3975395
-5.3975295
-5.3975116
-5.3974802
-5.397433
-5.3973754
-5.3973203
-5.3972794
-5.3973174
-5.3973141
-5.3973056
-5.397286
-5.3972503
-5.3971991
-5.3971415
-5.3970917
-5.3970613
-5.3970887
-5.3970888
-5.3970835
-5.3970645
-5.397027
-5.3969753
-5.3969207
-5.3968772
-5.396855
-5.3968792
-5.3968831
-5.3968826
-5.3968687
-5.3968354
-5.3967874
-5.3967376
-5.3966996
-5.3966821
-5.3966989
-5.3967061
-5.3967103
-5.3967039
-5.3966807
-5.3966417
-5.3965989
-5.3965657
-5.3965476
-5.3965477
-5.3965566
-5.3965652
-5.3965684
-5.3965612
-5.3965405
-5.3965148
-5.3964923
-5.3964655
-5.3964458
-5.3964557
-5.3964685
-5.3964824
-5.3964954
-5.3965048
-5.3965117
-5.3965218
-5.396508
-5.0677294
-5.0677299
-5.0677326
-5.06774
-5.0677553
-5.0677812
-5.0678163
-5.0678558
-5.0678819
-5.0678459
-5.0678442
-5.0678434
-5.0678459
-5.0678547
-5.0678716
-5.0678929
-5.0679125
-5.0679219
-5.06796
-5.0679573
-5.067955
-5.0679558
-5.0679624
-5.067974
-5.067985
-5.067992
-5.0679954
-5.0680511
-5.0680477
-5.068045
-5.0680457
-5.068052
-5.0680592
-5.0680617
-5.0680585
-5.068053
-5.0681181
-5.068115
-5.0681124
-5.0681129
-5.0681158
-5.0681163
-5.0681103
-5.0680976
-5.0680826
-5.0681638
-5.0681611
-5.0681585
-5.0681568
-5.0681544
-5.0681486
-5.0681345
-5.0681122
-5.0680872
-5.0681913
-5.0681889
-5.0681858
-5.0681814
-5.0681745
-5.0681627
-5.0681409
-5.068109
-5.0680742
-5.0682089
-5.0682064
-5.0682024
-5.0681962
-5.0681859
-5.0681678
-5.0681379
-5.0680969
-5.068053
-5.0682208
-5.0682178
-5.068213
-5.0682055
-5.0681922
-5.0681685
-5.0681315
-5.0680824
-5.068031
-5.0682288
-5.0682254
-5.06822
-5.0682112
-5.0681954
-5.0681676
-5.068125
-5.0680696
-5.0680123
-5.0682339
-5.0682302
-5.0682242
-5.0682146
-5.0681971
-5.0681664
-5.06812
-5.0680604
-5.0679992
-5.068236
-5.0682322
-5.068226
-5.068216
-5.0681977
-5.0681657
-5.0681174
-5.0680556
-5.0679924
-5.068236
-5.0682322
-5.0682261
-5.0682161
-5.0681979
-5.0681659
-5.0681176
-5.0680556
-5.0679921
-5.068234
-5.0682304
-5.0682246
-5.0682151
-5.0681978
-5.0681672
-5.0681206
-5.0680604
-5.0679984
-5.0682291
-5.0682259
-5.0682208
-5.0682123
-5.0681969
-5.0681691
-5.0681261
-5.0680698
-5.0680111
-5.0682216
-5.068219
-5.0682145
-5.0682074
-5.0681945
-5.0681709
-5.0681334
-5.068083
-5.0680296
-5.0682107
-5.0682085
-5.068205
-5.0681994
-5.0681895
-5.0681714
-5.0681408
-5.0680981
-5.0680518
-5.0681945
-5.0681926
-5.06819
-5.0681861
-5.0681797
-5.0681679
-5.0681451
-5.0681112
-5.0680734
-5.068169
-5.0681668
-5.0681647
-5.0681636
-5.0681617
-5.0681557
-5.0681404
-5.0681157
-5.0680873
-5.0681258
-5.0681231
-5.0681211
-5.0681223
-5.0681255
-5.0681258
-5.0681184
-5.0681029
-5.0680841
-5.0680619
-5.0680589
-5.0680567
-5.068058
-5.0680645
-5.0680712
-5.0680722
-5.0680661
-5.0680566
-5.0679741
-5.0679718
-5.0679699
-5.0679711
-5.0679778
-5.0679889
-5.0679983
-5.0680025
-5.0680017
-5.0678631
-5.0678617
-5.0678612
-5.0678639
-5.0678727
-5.0678892
-5.0679093
-5.0679265
-5.0679318
-5.0677487
-5.0677492
-5.0677521
-5.0677595
-5.0677749
-5.0678008
-5.0678354
-5.0678737
-5.0678964
-4.7411392
-4.741141
-4.7411436
-4.7411466
-4.7411505
-4.7411554
-4.741163
-4.7411743
-4.7411819
-4.7411725
-4.7411736
-4.7411745
-4.7411747
-4.7411739
-4.7411732
-4.7411749
-4.7411799
-4.7411845
-4.7412185
-4.741219
-4.7412187
-4.7412167
-4.7412125
-4.7412079
-4.7412059
-4.7412083
-4.7412143
-4.7412663
-4.7412659
-4.7412648
-4.7412615
-4.7412558
-4.7412492
-4.7412446
-4.7412443
-4.7412487
-4.7413146
-4.7413137
-4.7413118
-4.7413079
-4.7413012
-4.7412929
-4.7412854
-4.7412817
-4.7412831
-4.741362
-4.7413607
-4.7413584
-4.7413542
-4.7413471
-4.7413375
-4.7413274
-4.7413205
-4.7413188
-4.7414051
-4.7414037
-4.7414013
-4.741397
-4.7413898
-4.7413797
-4.741368
-4.7413587
-4.7413541
-4.7414434
-4.7414419
-4.7414394
-4.7414351
-4.741428
-4.7414176
-4.7414049
-4.7413936
-4.7413863
-4.7414755
-4.741474
-4.7414715
-4.7414672
-4.7414602
-4.7414497
-4.7414362
-4.7414233
-4.7414136
-4.7415006
-4.741499
-4.7414966
-4.7414923
-4.7414853
-4.7414748
-4.7414607
-4.7414465
-4.7414348
-4.7415177
-4.7415162
-4.7415138
-4.7415096
-4.7415027
-4.7414921
-4.7414776
-4.7414624
-4.7414493
-4.7415263
-4.7415248
-4.7415224
-4.7415184
-4.7415115
-4.7415009
-4.7414862
-4.7414705
-4.7414564
-4.7415263
-4.7415248
-4.7415225
-4.7415185
-4.7415117
-4.7415011
-4.7414863
-4.7414704
-4.7414561
-4.7415178
-4.7415163
-4.7415141
-4.7415101
-4.7415033
-4.7414928
-4.7414781
-4.7414623
-4.7414483
-4.7415007
-4.7414994
-4.7414972
-4.7414933
-4.7414866
-4.7414761
-4.7414617
-4.7414465
-4.7414334
-4.7414761
-4.7414749
-4.7414727
-4.7414689
-4.7414622
-4.7414518
-4.7414378
-4.7414236
-4.741412
-4.7414449
-4.7414437
-4.7414416
-4.7414379
-4.7414312
-4.7414208
-4.7414074
-4.7413944
-4.7413847
-4.741408
-4.7414069
-4.741405
-4.7414013
-4.7413946
-4.7413844
-4.7413718
-4.7413604
-4.7413528
-4.7413666
-4.7413658
-4.741364
-4.7413605
-4.7413538
-4.7413441
-4.7413328
-4.7413235
-4.7413183
-4.7413217
-4.7413212
-4.7413198
-4.7413166
-4.7413103
-4.7413017
-4.7412928
-4.7412863
-4.7412839
-4.7412762
-4.7412764
-4.7412757
-4.741273
-4.7412675
-4.7412605
-4.7412544
-4.741251
-4.7412513
-4.7412317
-4.7412325
-4.7412327
-4.741231
-4.7412269
-4.7412218
-4.7412183
-4.7412177
-4.7412195
-4.7411886
-4.7411899
-4.7411911
-4.7411915
-4.7411907
-4.7411896
-4.7411899
-4.7411925
-4.741193
-4.7411571
-4.741159
-4.7411616
-4.7411648
-4.7411686
-4.7411734
-4.7411804
-4.7411904
-4.7411946
-4.4139293
-4.4139296
-4.4139304
-4.4139322
-4.4139356
-4.413941
-4.4139481
-4.4139558
-4.4139601
-4.413954
-4.4139538
-4.4139537
-4.4139543
-4.4139559
-4.4139588
-4.4139619
-4.4139648
-4.4139657
-4.4139812
-4.4139807
-4.4139802
-4.4139801
-4.4139806
-4.4139812
-4.4139811
-4.413981
-4.4139813
-4.4140049
-4.4140042
-4.4140034
-4.4140031
-4.4140029
-4.414002
-4.4140002
-4.4139982
-4.4139973
-4.4140248
-4.414024
-4.414023
-4.4140221
-4.4140211
-4.4140194
-4.4140166
-4.4140133
-4.4140109
-4.4140418
-4.4140407
-4.4140395
-4.4140381
-4.4140365
-4.4140343
-4.4140308
-4.4140262
-4.414022
-4.4140561
-4.4140549
-4.4140533
-4.4140516
-4.4140497
-4.4140472
-4.4140431
-4.4140371
-4.4140309
-4.4140683
-4.414067
-4.4140652
-4.4140633
-4.4140611
-4.4140584
-4.4140536
-4.4140463
-4.4140381
-4.4140785
-4.4140769
-4.414075
-4.414073
-4.4140707
-4.4140679
-4.4140625
-4.4140539
-4.4140438
-4.4140863
-4.4140847
-4.4140826
-4.4140805
-4.4140783
-4.4140754
-4.4140696
-4.4140598
-4.4140482
-4.4140917
-4.41409
-4.4140878
-4.4140857
-4.4140836
-4.4140807
-4.4140745
-4.414064
-4.4140511
-4.4140943
-4.4140926
-4.4140905
-4.4140884
-4.4140863
-4.4140834
-4.4140771
-4.4140661
-4.4140525
-4.4140943
-4.4140926
-4.4140905
-4.4140885
-4.4140864
-4.4140836
-4.4140772
-4.414066
-4.4140522
-4.4140916
-4.41409
-4.414088
-4.4140861
-4.4140841
-4.4140812
-4.4140749
-4.4140638
-4.4140502
-4.4140864
-4.4140849
-4.4140831
-4.4140813
-4.4140793
-4.4140764
-4.4140703
-4.4140597
-4.4140467
-4.4140789
-4.4140776
-4.414076
-4.4140744
-4.4140724
-4.4140696
-4.4140638
-4.4140539
-4.414042
-4.4140695
-4.4140684
-4.4140671
-4.4140657
-4.4140639
-4.4140612
-4.4140557
-4.4140468
-4.4140362
-4.4140584
-4.4140576
-4.4140565
-4.4140554
-4.4140539
-4.4140513
-4.4140463
-4.4140384
-4.4140294
-4.4140458
-4.4140452
-4.4140444
-4.4140436
-4.4140425
-4.4140401
-4.4140355
-4.4140286
-4.4140212
-4.4140311
-4.4140306
-4.4140302
-4.4140299
-4.4140292
-4.4140272
-4.4140231
-4.4140172
-4.4140113
-4.4140139
-4.4140135
-4.4140133
-4.4140135
-4.4140135
-4.4140122
-4.4140089
-4.4140042
-4.4139996
-4.4139932
-4.413993
-4.4139929
-4.4139932
-4.4139938
-4.4139939
-4.4139924
-4.4139897
-4.4139864
-4.4139688
-4.4139688
-4.413969
-4.4139697
-4.4139714
-4.4139738
-4.413976
-4.4139768
-4.4139742
-4.4139458
-4.4139462
-4.413947
-4.4139489
-4.4139524
-4.4139579
-4.4139647
-4.4139716
-4.4139728
-4.0869865
-4.0869866
-4.0869869
-4.0869875
-4.0869887
-4.0869909
-4.0869942
-4.0869987
-4.0870021
-4.0869978
-4.0869977
-4.0869975
-4.0869974
-4.0869976
-4.0869986
-4.0870008
-4.0870039
-4.0870067
-4.0870104
-4.0870102
-4.0870098
-4.0870093
-4.0870089
-4.0870091
-4.0870102
-4.0870124
-4.0870153
-4.0870217
-4.0870214
-4.087021
-4.0870203
-4.0870196
-4.0870191
-4.0870193
-4.0870205
-4.0870227
-4.0870317
-4.0870314
-4.087031
-4.0870302
-4.087029
-4.0870277
-4.0870268
-4.0870267
-4.0870278
-4.0870408
-4.0870405
-4.08704
-4.087039
-4.0870375
-4.0870354
-4.0870331
-4.0870316
-4.0870314
-4.0870486
-4.0870483
-4.0870477
-4.0870467
-4.0870448
-4.0870419
-4.0870384
-4.0870354
-4.0870339
-4.0870552
-4.0870549
-4.0870543
-4.0870532
-4.087051
-4.0870474
-4.0870427
-4.0870384
-4.0870357
-4.0870605
-4.0870602
-4.0870596
-4.0870584
-4.087056
-4.0870517
-4.0870461
-4.0870407
-4.087037
-4.0870645
-4.0870642
-4.0870637
-4.0870624
-4.0870597
-4.087055
-4.0870486
-4.0870423
-4.0870378
-4.0870672
-4.0870669
-4.0870664
-4.0870651
-4.0870623
-4.0870572
-4.0870503
-4.0870434
-4.0870382
-4.0870685
-4.0870683
-4.0870677
-4.0870664
-4.0870636
-4.0870584
-4.0870512
-4.0870439
-4.0870383
-4.0870685
-4.0870683
-4.0870678
-4.0870665
-4.0870637
-4.0870586
-4.0870513
-4.0870438
-4.087038
-4.0870672
-4.087067
-4.0870666
-4.0870654
-4.0870628
-4.0870578
-4.0870507
-4.0870433
-4.0870375
-4.0870647
-4.0870645
-4.0870641
-4.0870631
-4.0870607
-4.087056
-4.0870493
-4.0870423
-4.0870367
-4.087061
-4.0870609
-4.0870606
-4.0870597
-4.0870575
-4.0870533
-4.0870473
-4.0870408
-4.0870356
-4.0870563
-4.0870563
-4.0870561
-4.0870553
-4.0870535
-4.0870498
-4.0870446
-4.087039
-4.0870344
-4.0870508
-4.0870508
-4.0870506
-4.08705
-4.0870485
-4.0870455
-4.0870412
-4.0870366
-4.0870329
-4.0870444
-4.0870445
-4.0870444
-4.0870439
-4.0870427
-4.0870404
-4.0870372
-4.0870338
-4.087031
-4.0870372
-4.0870373
-4.0870373
-4.087037
-4.0870361
-4.0870345
-4.0870324
-4.0870302
-4.0870285
-4.0870295
-4.0870296
-4.0870296
-4.0870293
-4.0870288
-4.0870279
-4.0870268
-4.0870258
-4.0870251
-4.0870208
-4.0870209
-4.0870208
-4.0870207
-4.0870204
-4.0870201
-4.08702
-4.0870201
-4.08702
-4.0870107
-4.0870107
-4.0870107
-4.0870108
-4.087011
-4.0870118
-4.0870131
-4.0870146
-4.0870145
-4.0870009
-4.087001
-4.0870014
-4.087002
-4.0870034
-4.0870057
-4.0870089
-4.0870128
-4.0870135
-3.7600601
-3.7600602
-3.7600604
-3.7600608
-3.7600614
-3.7600623
-3.7600638
-3.7600657
-3.760067
-3.7600658
-3.7600657
-3.7600657
-3.7600656
-3.7600656
-3.7600657
-3.7600663
-3.7600673
-3.7600682
-3.7600726
-3.7600725
-3.7600723
-3.760072
-3.7600715
-3.7600711
-3.7600709
-3.7600714
-3.7600725
-3.7600798
-3.7600796
-3.7600792
-3.7600787
-3.7600781
-3.7600774
-3.760077
-3.760077
-3.7600779
-3.7600873
-3.7600869
-3.7600865
-3.7600858
-3.7600852
-3.7600845
-3.7600838
-3.7600836
-3.7600841
-3.7600948
-3.7600944
-3.7600938
-3.7600932
-3.7600926
-3.7600919
-3.7600913
-3.7600909
-3.7600909
-3.760102
-3.7601015
-3.7601009
-3.7601002
-3.7600997
-3.7600993
-3.7600987
-3.7600982
-3.7600978
-3.7601084
-3.7601078
-3.7601072
-3.7601066
-3.7601062
-3.760106
-3.7601056
-3.7601049
-3.7601041
-3.7601137
-3.7601132
-3.7601126
-3.7601121
-3.7601118
-3.7601117
-3.7601114