/*--------------------------------*- C++ -*----------------------------------*\
| =========                 |                                                 |
| \\      /  F ield         | OpenFOAM: The Open Source CFD Toolbox           |
|  \\    /   O peration     | Version:  2406                                  |
|   \\  /    A nd           | Website:  www.openfoam.com                      |
|    \\/     M anipulation  |                                                 |
\*---------------------------------------------------------------------------*/
FoamFile
{
    version     2.0;
    format      ascii;
    arch        "LSB;label=32;scalar=64";
    class       volVectorField;
    location    "19.25";
    object      U;
}
// * * * * * * * * * * * * * * * * * * * * * * * * * * * * * * * * * * * * * //

dimensions      [0 1 -1 0 0 0 0];

internalField   nonuniform List<vector> 
34560
(
(0.075907308 -0.002273493 -0.018023137)
(0.24098588 -0.0057440242 -0.057596455)
(0.43981801 -0.010321811 -0.1026187)
(0.66209132 -0.015586532 -0.148661)
(0.88899798 -0.02185907 -0.18800653)
(1.0959934 -0.028728604 -0.21311751)
(1.2591451 -0.034543273 -0.21932752)
(1.3735988 -0.039636253 -0.21108608)
(1.4477903 -0.04277405 -0.19575534)
(0.091696959 -0.0029163166 -0.020812242)
(0.28634208 -0.00701571 -0.066073114)
(0.51394666 -0.011925292 -0.11614796)
(0.75933312 -0.017058677 -0.16535426)
(0.99920771 -0.022798014 -0.20463308)
(1.2067461 -0.028886806 -0.22612097)
(1.360214 -0.033719703 -0.22643225)
(1.4596273 -0.037211287 -0.2118247)
(1.5210158 -0.039159977 -0.18979936)
(0.10790721 -0.0030710884 -0.02283703)
(0.33187378 -0.0070472936 -0.072408424)
(0.58660849 -0.011703668 -0.12618348)
(0.85190606 -0.01648513 -0.17760095)
(1.1011127 -0.021839583 -0.21668096)
(1.3065423 -0.027645218 -0.23547008)
(1.4500456 -0.03237675 -0.23190348)
(1.5362523 -0.035236342 -0.21298039)
(1.5874169 -0.036751183 -0.18808532)
(0.12457146 -0.0032942871 -0.024751581)
(0.37770213 -0.0072451783 -0.078319932)
(0.6582089 -0.011597157 -0.13529984)
(0.94105244 -0.015861059 -0.18833701)
(1.1972481 -0.020589125 -0.22674954)
(1.3992165 -0.025825008 -0.2428237)
(1.53293 -0.030233386 -0.23602521)
(1.6073423 -0.032454894 -0.21396616)
(1.649044 -0.033310447 -0.1872911)
(0.1408788 -0.0032665407 -0.026328262)
(0.42194562 -0.0068834223 -0.083294063)
(0.72643762 -0.010727629 -0.14290586)
(1.024795 -0.014403694 -0.19715827)
(1.2865289 -0.018496287 -0.23481069)
(1.4846717 -0.023092695 -0.24844876)
(1.6091388 -0.02699441 -0.23891672)
(1.6730455 -0.028655047 -0.21456582)
(1.7059378 -0.028994407 -0.18661674)
(0.15650033 -0.0031368755 -0.027582736)
(0.46379814 -0.0063974246 -0.08734843)
(0.79025201 -0.0096989172 -0.1490946)
(1.1023042 -0.012748723 -0.20424293)
(1.368313 -0.016178211 -0.24120701)
(1.5626504 -0.02006792 -0.25274021)
(1.6787091 -0.023357932 -0.24095235)
(1.7332669 -0.024499517 -0.21484486)
(1.758061 -0.024413367 -0.18582682)
(0.17109955 -0.0028955349 -0.02862991)
(0.50245804 -0.005727451 -0.090751059)
(0.84860083 -0.0084492648 -0.15422423)
(1.1725907 -0.010869478 -0.20997405)
(1.441892 -0.013665035 -0.24625195)
(1.6326768 -0.016862443 -0.25588582)
(1.7411307 -0.019494274 -0.24203941)
(1.7876025 -0.020217228 -0.21462927)
(1.8050928 -0.019790944 -0.184692)
(0.18397615 -0.0025427538 -0.029456472)
(0.53632468 -0.0048966103 -0.09349421)
(0.89944168 -0.0070490726 -0.15834623)
(1.2336052 -0.0088994139 -0.2145221)
(1.5057584 -0.011116065 -0.25013711)
(1.6936946 -0.013663506 -0.25806884)
(1.7957695 -0.015682525 -0.24241068)
(1.83532 -0.016044517 -0.2138939)
(1.8463535 -0.01536388 -0.18317001)
(0.19470616 -0.0020757777 -0.030077413)
(0.56441855 -0.0039019442 -0.095610879)
(0.94149472 -0.0055077116 -0.16152672)
(1.2840322 -0.0068610172 -0.21799411)
(1.5587233 -0.0085585994 -0.25298932)
(1.7446169 -0.01051391 -0.25942332)
(1.84166 -0.012003283 -0.24220266)
(1.8754224 -0.012095045 -0.21268318)
(1.8809267 -0.011294247 -0.18133668)
(0.20302705 -0.0015360101 -0.030513772)
(0.58614289 -0.0028475494 -0.097140617)
(0.97395801 -0.0039666094 -0.16383166)
(1.3229544 -0.0048979977 -0.2204847)
(1.5997611 -0.0061079652 -0.25492903)
(1.7842923 -0.0074936583 -0.26010761)
(1.8775974 -0.0085064348 -0.24159582)
(1.9067477 -0.0084257423 -0.21118541)
(1.907845 -0.0076715223 -0.17943442)
(0.20893741 -0.00097825434 -0.030835235)
(0.60139571 -0.0018196904 -0.09822531)
(0.99653091 -0.0025032024 -0.16541889)
(1.3498137 -0.0030448991 -0.22213859)
(1.6280016 -0.0037492794 -0.25610681)
(1.8115832 -0.004550475 -0.26033119)
(1.9023367 -0.0051149021 -0.24086886)
(1.9282063 -0.0049784887 -0.20978065)
(1.926227 -0.004436048 -0.17783055)
(0.21172794 -0.0003039635 -0.030974447)
(0.60869842 -0.0005207834 -0.098732998)
(1.007477 -0.00070035237 -0.16617628)
(1.3630054 -0.00085719657 -0.22293362)
(1.6420486 -0.0011009441 -0.25665836)
(1.8253064 -0.0013978834 -0.26038215)
(1.9148644 -0.0016192073 -0.24041317)
(1.9390675 -0.001592347 -0.20895725)
(1.9355187 -0.0014220293 -0.17692364)
(0.21172794 0.00030393894 -0.030974462)
(0.60869841 0.00052070622 -0.098733012)
(1.007477 0.00070023801 -0.16617632)
(1.3630054 0.00085703691 -0.22293364)
(1.6420486 0.0011007219 -0.25665836)
(1.8253063 0.0013975547 -0.26038212)
(1.9148644 0.0016187726 -0.24041314)
(1.9390675 0.0015918527 -0.20895725)
(1.9355187 0.0014215577 -0.17692367)
(0.20893741 0.0009782259 -0.030835253)
(0.60139571 0.0018196039 -0.098225334)
(0.99653091 0.0025030785 -0.16541894)
(1.3498137 0.0030447233 -0.22213862)
(1.6280015 0.0037490236 -0.25610677)
(1.8115831 0.004550106 -0.26033111)
(1.9023366 0.0051144517 -0.24086879)
(1.9282062 0.004977988 -0.20978062)
(1.9262269 0.0044355275 -0.1778306)
(0.20302705 0.0015359933 -0.030513758)
(0.58614289 0.0028474773 -0.097140665)
(0.97395801 0.0039664969 -0.16383169)
(1.3229544 0.0048978072 -0.22048472)
(1.5997611 0.0061076816 -0.25492897)
(1.7842922 0.0074932736 -0.26010751)
(1.8775973 0.0085059796 -0.24159572)
(1.9067476 0.0084252359 -0.21118532)
(1.9078449 0.0076709547 -0.17943443)
(0.19470616 0.0020758041 -0.030077353)
(0.56441855 0.0039019172 -0.095610923)
(0.94149471 0.0055076449 -0.16152666)
(1.2840322 0.0068608504 -0.21799405)
(1.5587232 0.0085583328 -0.25298924)
(1.7446168 0.010513572 -0.2594232)
(1.8416599 0.012002862 -0.24220254)
(1.8754222 0.012094555 -0.21268302)
(1.8809265 0.01129366 -0.18133661)
(0.18397615 0.0025427869 -0.029456398)
(0.53632468 0.0048965875 -0.093494166)
(0.89944167 0.0070490377 -0.15834606)
(1.2336052 0.0088992945 -0.214522)
(1.5057583 0.011115853 -0.25013704)
(1.6936945 0.013663256 -0.25806875)
(1.7957693 0.015682193 -0.24241051)
(1.8353198 0.01604409 -0.21389363)
(1.8463532 0.015363337 -0.18316984)
(0.17109955 0.0028955477 -0.028629861)
(0.50245804 0.0057274358 -0.090751028)
(0.84860083 0.0084492599 -0.15422414)
(1.1725906 0.010869403 -0.20997402)
(1.4418919 0.013664917 -0.24625197)
(1.6326767 0.016862287 -0.25588576)
(1.7411306 0.019494042 -0.24203917)
(1.7876023 0.020216889 -0.2146289)
(1.8050926 0.019790517 -0.18469169)
(0.15650032 0.0031368655 -0.027582764)
(0.46379813 0.0063974142 -0.087348501)
(0.79025199 0.009698894 -0.14909464)
(1.1023042 0.012748688 -0.20424302)
(1.368313 0.016178178 -0.24120709)
(1.5626504 0.020067863 -0.25274007)
(1.678709 0.023357831 -0.24095203)
(1.7332667 0.024499273 -0.21484443)
(1.7580608 0.024413 -0.18582637)
(0.1408788 0.00326652 -0.026328241)
(0.42194562 0.0068833505 -0.083294089)
(0.72643762 0.010727535 -0.14290591)
(1.024795 0.014403672 -0.19715836)
(1.2865289 0.018496294 -0.23481062)
(1.4846716 0.023092761 -0.24844859)
(1.6091387 0.026994463 -0.23891637)
(1.6730454 0.028654971 -0.21456531)
(1.7059376 0.028993998 -0.18661619)
(0.12457146 0.003294272 -0.024751554)
(0.37770212 0.0072450569 -0.078320034)
(0.65820888 0.011597034 -0.13529997)
(0.94105241 0.015860999 -0.18833707)
(1.1972481 0.020589129 -0.22674955)
(1.3992165 0.025825135 -0.24282363)
(1.5329299 0.030233671 -0.23602489)
(1.6073422 0.032455036 -0.2139655)
(1.6490439 0.033310247 -0.18729068)
(0.10790721 0.0030711071 -0.02283704)
(0.33187378 0.0070472711 -0.072408528)
(0.5866085 0.011703668 -0.12618356)
(0.85190608 0.016485146 -0.17760101)
(1.1011128 0.021839692 -0.21668104)
(1.3065423 0.027645374 -0.23547011)
(1.4500456 0.032377165 -0.23190323)
(1.5362522 0.035236899 -0.21297987)
(1.5874168 0.036751295 -0.18808485)
(0.091696969 0.0029163321 -0.020812235)
(0.28634211 0.0070157162 -0.066073122)
(0.51394671 0.011925327 -0.11614797)
(0.75933319 0.017058746 -0.16535431)
(0.9992078 0.022798149 -0.20463312)
(1.2067462 0.028886961 -0.22612104)
(1.360214 0.033719781 -0.22643215)
(1.4596273 0.037211765 -0.21182409)
(1.5210158 0.039160243 -0.1897985)
(0.075907332 0.0022735039 -0.018023133)
(0.24098595 0.0057440269 -0.057596463)
(0.43981814 0.010321848 -0.10261871)
(0.66209151 0.01558663 -0.14866099)
(0.88899822 0.021859221 -0.1880065)
(1.0959936 0.028728823 -0.21311737)
(1.2591452 0.034543395 -0.21932736)
(1.3735988 0.03963619 -0.21108533)
(1.4477904 0.0427741 -0.195754)
(0.058188764 0.00090795474 0.0005639785)
(0.19888217 0.0013867582 -0.00034842687)
(0.38908048 -0.00043663264 -0.005989545)
(0.62619525 -0.0064278717 -0.019015851)
(0.89127328 -0.017784565 -0.039656736)
(1.1506601 -0.033693748 -0.063713315)
(1.3700152 -0.051549826 -0.084930434)
(1.5274646 -0.066735634 -0.096414386)
(1.6187722 -0.076496449 -0.098143719)
(0.06585306 0.00057485592 0.00010549876)
(0.22481013 -8.5193393e-05 -0.0021002297)
(0.4384416 -0.0037251728 -0.010080054)
(0.70039612 -0.01213085 -0.026492897)
(0.98370773 -0.025809736 -0.050474063)
(1.2471937 -0.042802922 -0.075760987)
(1.4558468 -0.05996966 -0.095250216)
(1.5957237 -0.073256905 -0.10337053)
(1.6726954 -0.080559274 -0.10099337)
(0.073070464 0.000666023 -2.7741124e-06)
(0.24930383 -0.00028506619 -0.0027959899)
(0.48505686 -0.0047971268 -0.012319874)
(0.77005555 -0.014595593 -0.03106007)
(1.0687322 -0.029480746 -0.057108899)
(1.3331743 -0.046443815 -0.082525749)
(1.5295171 -0.06203065 -0.099830572)
(1.6530863 -0.073363671 -0.10554704)
(1.7187795 -0.07888651 -0.10090613)
(0.080314405 0.00067007962 -0.00018977445)
(0.27364123 -0.00057563987 -0.0036193797)
(0.53092261 -0.0057097382 -0.014607909)
(0.83784595 -0.016330717 -0.035290135)
(1.1501965 -0.031652363 -0.062703991)
(1.4142659 -0.047913485 -0.087585682)
(1.5984799 -0.061523312 -0.10240499)
(1.707163 -0.070828251 -0.10611931)
(1.7625607 -0.074923112 -0.09993707)
(0.087113777 0.00069876752 -0.00034922221)
(0.29657883 -0.00067150949 -0.0042842885)
(0.57423789 -0.0060831521 -0.016472242)
(0.9018661 -0.016969187 -0.03860935)
(1.2269616 -0.032109895 -0.066931166)
(1.4905846 -0.047279923 -0.09112586)
(1.663807 -0.058931056 -0.10371347)
(1.7590704 -0.066286245 -0.10582018)
(1.8047267 -0.069149547 -0.098849289)
(0.093496871 0.00071956603 -0.00050385772)
(0.31808173 -0.00064844975 -0.0048530335)
(0.61473991 -0.0060295647 -0.017996853)
(0.96146602 -0.016649868 -0.041201929)
(1.2983513 -0.030959497 -0.069825172)
(1.5618474 -0.044637374 -0.093362899)
(1.7253541 -0.054371691 -0.10405003)
(1.8088159 -0.060025551 -0.10498024)
(1.8454752 -0.061945273 -0.097929675)
(0.099565956 0.00068823188 -0.00066500089)
(0.33831376 -0.00063183655 -0.0053829782)
(0.65248302 -0.0057405572 -0.01930157)
(1.0164651 -0.015631396 -0.043293121)
(1.3640082 -0.028562343 -0.071856553)
(1.6275394 -0.040406741 -0.094716769)
(1.7827727 -0.048305796 -0.10396076)
(1.8559162 -0.052558977 -0.1040064)
(1.8846462 -0.05391011 -0.097415982)
(0.10494086 0.00062356428 -0.00081240676)
(0.35626117 -0.0005745521 -0.0058251676)
(0.68598989 -0.0051640089 -0.020318659)
(1.0652977 -0.013906296 -0.044816092)
(1.4223308 -0.025040403 -0.07312947)
(1.686086 -0.034869595 -0.095127896)
(1.8347474 -0.041080191 -0.10350871)
(1.8994041 -0.044339673 -0.10314262)
(1.9215475 -0.045423432 -0.097173819)
(0.10944477 0.0005172771 -0.00094216727)
(0.371366 -0.00050473736 -0.0061817945)
(0.71429664 -0.0043540309 -0.021074249)
(1.1066904 -0.011580203 -0.045845331)
(1.4719092 -0.020586316 -0.07380788)
(1.7361507 -0.028313313 -0.09501863)
(1.8798064 -0.033032411 -0.1027502)
(1.9379695 -0.035594136 -0.10216636)
(1.9548574 -0.036421177 -0.096374154)
(0.11298169 0.00038457185 -0.0010432451)
(0.38329654 -0.00040348335 -0.0064360452)
(0.7367362 -0.0033228329 -0.021566444)
(1.1396036 -0.0087346964 -0.046430555)
(1.5113695 -0.015363367 -0.073998656)
(1.776123 -0.020931844 -0.094478171)
(1.916144 -0.024293137 -0.10179891)
(1.9696684 -0.026206185 -0.10099577)
(1.9823916 -0.026723155 -0.094286667)
(0.11577487 0.00023319667 -0.0011131769)
(0.39238714 -0.00027119929 -0.0066001326)
(0.75333812 -0.0021031682 -0.021852284)
(1.1633935 -0.0054576408 -0.046697242)
(1.5393867 -0.0095127976 -0.073902252)
(1.8042545 -0.012879332 -0.093793335)
(1.941726 -0.014913827 -0.1008014)
(1.9922079 -0.016087959 -0.099569278)
(2.0020204 -0.01632634 -0.092215426)
(0.1169531 5.9064153e-05 -0.0011457467)
(0.39646749 -0.00014913481 -0.0066681925)
(0.76114627 -0.00079510157 -0.021952752)
(1.1749953 -0.001941776 -0.046752391)
(1.553385 -0.0033063509 -0.073740393)
(1.8185247 -0.0044196989 -0.093289211)
(1.9548287 -0.0050792126 -0.10009611)
(2.0038343 -0.0054474439 -0.098488988)
(2.0121736 -0.0054921461 -0.090952812)
(0.11695309 -5.9068539e-05 -0.0011457505)
(0.39646748 0.00014909395 -0.006668196)
(0.76114625 0.00079502392 -0.021952759)
(1.1749953 0.0019416304 -0.046752395)
(1.5533849 0.0033060941 -0.073740384)
(1.8185246 0.0044193174 -0.093289191)
(1.9548286 0.0050787381 -0.10009608)
(2.0038342 0.0054469218 -0.098488959)
(2.0121735 0.0054916713 -0.090952799)
(0.11577486 -0.00023319706 -0.0011131831)
(0.39238713 0.00027116963 -0.0066001494)
(0.75333809 0.0021031083 -0.021852313)
(1.1633935 0.0054575105 -0.046697259)
(1.5393866 0.00951254 -0.073902222)
(1.8042544 0.012878941 -0.093793272)
(1.9417258 0.014913354 -0.10080131)
(1.9922077 0.016087443 -0.099569184)
(2.0020201 0.016325849 -0.092215371)
(0.11298168 -0.00038456675 -0.0010432432)
(0.38329652 0.00040347078 -0.0064360855)
(0.73673615 0.0033227939 -0.021566488)
(1.1396035 0.0087345736 -0.046430585)
(1.5113694 0.015363109 -0.073998612)
(1.7761228 0.020931459 -0.094478082)
(1.9161438 0.024292675 -0.10179878)
(1.9696681 0.026205688 -0.1009956)
(1.9823913 0.026722661 -0.094286553)
(0.10944476 -0.00051724956 -0.00094215084)
(0.37136598 0.00050476056 -0.0061818573)
(0.71429658 0.0043540316 -0.021074264)
(1.1066903 0.011580104 -0.045845342)
(1.4719091 0.020586089 -0.07380783)
(1.7361505 0.028312983 -0.09501853)
(1.8798061 0.033031998 -0.10275003)
(1.9379692 0.035593687 -0.10216613)
(1.954857 0.036420705 -0.09637397)
(0.10494085 -0.00062352191 -0.00081237387)
(0.35626114 0.00057458067 -0.0058252096)
(0.68598982 0.0051640287 -0.020318615)
(1.0652976 0.013906225 -0.044816083)
(1.4223307 0.025040232 -0.073129436)
(1.6860858 0.034869353 -0.095127792)
(1.8347471 0.04107987 -0.1035085)
(1.8994037 0.04433931 -0.10314231)
(1.9215471 0.045423008 -0.097173525)
(0.099565946 -0.00068820053 -0.00066497961)
(0.33831373 0.0006318561 -0.0053830035)
(0.65248297 0.0057405757 -0.019301559)
(1.016465 0.015631341 -0.043293162)
(1.3640081 0.028562233 -0.071856571)
(1.6275392 0.040406575 -0.094716667)
(1.7827724 0.04830558 -0.1039605)
(1.8559158 0.052558718 -0.10400599)
(1.8846458 0.053909772 -0.097415562)
(0.093496865 -0.00071955764 -0.00050387494)
(0.3180817 0.00064845957 -0.0048530889)
(0.61473987 0.0060295656 -0.017996911)
(0.96146598 0.016649838 -0.041202027)
(1.2983512 0.030959443 -0.069825205)
(1.5618473 0.044637276 -0.093362772)
(1.7253538 0.054371575 -0.10404974)
(1.8088157 0.060025393 -0.10497977)
(1.8454749 0.061945015 -0.097929179)
(0.087113778 -0.00069877057 -0.00034921985)
(0.29657883 0.00067147072 -0.0042843392)
(0.57423788 0.0060831178 -0.016472292)
(0.90186608 0.016969181 -0.03860942)
(1.2269616 0.032109893 -0.066931137)
(1.4905845 0.047279913 -0.09112573)
(1.6638069 0.05893102 -0.10371319)
(1.7590703 0.066286157 -0.10581966)
(1.8047265 0.069149315 -0.098848756)
(0.080314412 -0.00067008044 -0.00018977192)
(0.27364124 0.00057557523 -0.0036194593)
(0.53092261 0.0057096831 -0.014608001)
(0.83784595 0.01633071 -0.035290204)
(1.1501965 0.031652401 -0.062704001)
(1.4142659 0.047913554 -0.087585588)
(1.5984799 0.061523346 -0.1024047)
(1.707163 0.070828201 -0.10611876)
(1.7625606 0.074922996 -0.099936631)
(0.073070479 -0.00066600924 -2.7814939e-06)
(0.24930386 0.00028505379 -0.0027960518)
(0.48505692 0.0047971409 -0.012319933)
(0.77005562 0.01459565 -0.031060124)
(1.0687323 0.029480875 -0.057108926)
(1.3331744 0.046443976 -0.082525652)
(1.5295172 0.062030785 -0.099830298)
(1.6530864 0.073363673 -0.10554664)
(1.7187797 0.078886435 -0.10090576)
(0.065853085 -0.00057484485 0.00010549638)
(0.2248102 8.5195596e-05 -0.0021002553)
(0.43844172 0.0037252009 -0.010080091)
(0.70039628 0.012130919 -0.026492958)
(0.98370791 0.025809867 -0.050474086)
(1.2471939 0.042803103 -0.075760905)
(1.455847 0.059969787 -0.095249983)
(1.595724 0.073256902 -0.10337018)
(1.6726957 0.080559104 -0.10099304)
(0.058188801 -0.00090794054 0.00056397248)
(0.19888228 -0.0013867329 -0.00034845507)
(0.38908066 0.00043667638 -0.0059895935)
(0.62619549 0.0064279391 -0.019015892)
(0.89127356 0.017784655 -0.039656729)
(1.1506604 0.033693867 -0.063713192)
(1.3700155 0.051549838 -0.084930159)
(1.5274649 0.06673536 -0.096413958)
(1.6187725 0.076496091 -0.098143411)
(0.046239746 0.00035436478 0.00025833831)
(0.16222746 0.00065150565 0.00018536473)
(0.32688692 8.9304644e-05 -0.0013749578)
(0.54507597 -0.0025736945 -0.0057309951)
(0.8066765 -0.0091531444 -0.014207592)
(1.0803012 -0.020798559 -0.02670784)
(1.3210241 -0.036146864 -0.040680569)
(1.4964041 -0.050161076 -0.050796358)
(1.5968372 -0.05939254 -0.054822563)
(0.049897155 -3.1793124e-05 -0.00011475575)
(0.1761189 -0.00056492442 -0.00097389594)
(0.35634915 -0.0021174246 -0.0035492188)
(0.59453489 -0.0059656382 -0.0092109994)
(0.87561554 -0.013978811 -0.01925403)
(1.1595519 -0.026943158 -0.03314437)
(1.3959172 -0.042680847 -0.047013743)
(1.5561358 -0.055874471 -0.055447109)
(1.6425689 -0.06336764 -0.057174977)
(0.052829636 -0.00027598865 -0.00030536947)
(0.18768528 -0.0013544022 -0.0016041498)
(0.38148851 -0.003561321 -0.0048207318)
(0.63721794 -0.0081580764 -0.011339484)
(0.93493145 -0.016966785 -0.022323388)
(1.226317 -0.03034435 -0.036859927)
(1.4563916 -0.045402273 -0.05002644)
(1.6025689 -0.057207282 -0.056803982)
(1.6784945 -0.063302047 -0.056701341)
(0.055642725 -0.00054902696 -0.00046831374)
(0.19867275 -0.0021855575 -0.0021282233)
(0.40519071 -0.0049844488 -0.0058823549)
(0.67715049 -0.010153574 -0.013116212)
(0.9899214 -0.019425145 -0.024766115)
(1.2876565 -0.032759144 -0.039496115)
(1.5115047 -0.046731767 -0.05174736)
(1.6449896 -0.056859059 -0.056817672)
(1.7113844 -0.061559469 -0.055202473)
(0.058101308 -0.00075746678 -0.00054928848)
(0.20851169 -0.0028310492 -0.0024058709)
(0.42676527 -0.0060906602 -0.0065214999)
(0.71394736 -0.011661894 -0.014333643)
(1.0408121 -0.021117443 -0.026401422)
(1.3448499 -0.034109497 -0.041058368)
(1.5634902 -0.046768442 -0.052317401)
(1.6857932 -0.055150346 -0.055782981)
(1.7433129 -0.058486381 -0.052947902)
(0.060371314 -0.00090140303 -0.00056497392)
(0.21760668 -0.0032774016 -0.0024801355)
(0.44674714 -0.0068424892 -0.0067930249)
(0.74816382 -0.012613675 -0.014982689)
(1.0883874 -0.021956907 -0.027340202)
(1.3983791 -0.034223439 -0.041449314)
(1.6129247 -0.045367007 -0.051603587)
(1.7255382 -0.052044043 -0.05362822)
(1.7747554 -0.054144184 -0.04972656)
(0.062626069 -0.00098675391 -0.00054227956)
(0.22636686 -0.0035302856 -0.002422464)
(0.46562893 -0.0072299285 -0.0067954999)
(0.78018193 -0.012963873 -0.015149924)
(1.1328587 -0.021858727 -0.027553111)
(1.4482368 -0.033022924 -0.040764036)
(1.6594735 -0.042505098 -0.04966595)
(1.7637449 -0.047533414 -0.050333789)
(1.8052414 -0.048532976 -0.045430546)
(0.06462662 -0.00099078504 -0.0004844226)
(0.2341535 -0.0035166433 -0.0022428412)
(0.4824585 -0.0071204386 -0.0065399028)
(0.80888424 -0.012523917 -0.014850269)
(1.1730305 -0.020595836 -0.027035447)
(1.4935394 -0.030297797 -0.039339341)
(1.7020053 -0.038013466 -0.046663976)
(1.7992084 -0.04149335 -0.046007356)
(1.8336598 -0.041592278 -0.040307431)
(0.066300797 -0.00090098993 -0.00040425744)
(0.24071796 -0.0031918974 -0.0019820624)
(0.4967666 -0.0064306867 -0.0060981089)
(0.83359619 -0.011176833 -0.014212059)
(1.2077743 -0.018029686 -0.025956221)
(1.5329193 -0.025932903 -0.037246258)
(1.7391005 -0.031801965 -0.04305137)
(1.8303673 -0.033931333 -0.041331854)
(1.8586457 -0.033515289 -0.035391231)
(0.067631976 -0.00071776556 -0.00031942634)
(0.24596471 -0.0025493678 -0.0017007979)
(0.50825733 -0.0051349879 -0.0055936111)
(0.85354552 -0.0088689389 -0.013431112)
(1.2358458 -0.014112727 -0.024660931)
(1.5647467 -0.01994161 -0.035022935)
(1.7690658 -0.023986075 -0.039466624)
(1.8555929 -0.025125586 -0.03708196)
(1.8790432 -0.024580433 -0.031975819)
(0.06882898 -0.00046480896 -0.00025208789)
(0.25029043 -0.0016522239 -0.001474034)
(0.51717657 -0.003327509 -0.0051762336)
(0.86837667 -0.0057219397 -0.012759545)
(1.2561348 -0.0090145217 -0.023544947)
(1.5873554 -0.012566841 -0.033186766)
(1.7901483 -0.014900308 -0.03667241)
(1.8733334 -0.01543723 -0.034134391)
(1.8934463 -0.01503156 -0.029629928)
(0.06924131 -0.00016333492 -0.00021607141)
(0.2520147 -0.00057834954 -0.0013502848)
(0.52109549 -0.0011580736 -0.0049407387)
(0.87535817 -0.0019798139 -0.012372862)
(1.2660899 -0.0031008345 -0.022910696)
(1.5986957 -0.0042940551 -0.032182645)
(1.8008416 -0.0050550965 -0.03521077)
(1.8824295 -0.0052122234 -0.032732401)
(1.9008406 -0.0050650259 -0.028416507)
(0.069241308 0.00016333179 -0.00021607306)
(0.2520147 0.00057831168 -0.0013502885)
(0.52109547 0.0011580076 -0.0049407438)
(0.87535814 0.0019796978 -0.012372866)
(1.2660898 0.0031006229 -0.022910691)
(1.5986957 0.0042937383 -0.032182627)
(1.8008415 0.0050547022 -0.035210734)
(1.8824294 0.0052117997 -0.032732351)
(1.9008404 0.005064642 -0.028416455)
(0.068828976 0.00046480871 -0.00025208904)
(0.25029041 0.0016521972 -0.0014740469)
(0.51717655 0.003327462 -0.0051762518)
(0.86837662 0.0057218467 -0.012759557)
(1.2561347 0.0090143284 -0.02354493)
(1.5873553 0.012566536 -0.033186708)
(1.7901481 0.014899925 -0.036672305)
(1.8733332 0.015436824 -0.034134238)
(1.893446 0.015031196 -0.029629765)
(0.067631971 0.00071777072 -0.00031942261)
(0.2459647 0.002549359 -0.0017008282)
(0.5082573 0.0051349674 -0.0055936471)
(0.85354544 0.0088688745 -0.013431139)
(1.2358457 0.014112561 -0.024660904)
(1.5647465 0.019941331 -0.035022841)
(1.7690655 0.023985717 -0.039466452)
(1.8555925 0.025125217 -0.037081709)
(1.8790428 0.024580125 -0.03197555)
(0.066300794 0.00090101193 -0.00040425318)
(0.24071795 0.0031919239 -0.0019821191)
(0.49676657 0.0064307105 -0.0060981568)
(0.83359612 0.011176809 -0.014212097)
(1.2077742 0.01802956 -0.025956189)
(1.532919 0.025932671 -0.037246136)
(1.7391002 0.031801653 -0.043051136)
(1.8303669 0.03393102 -0.041331518)
(1.8586452 0.033515059 -0.035390886)
(0.064626617 0.0009908253 -0.00048442261)
(0.23415349 0.003516697 -0.0022429159)
(0.48245847 0.0071205027 -0.0065399491)
(0.80888419 0.012523931 -0.014850315)
(1.1730304 0.02059576 -0.027035418)
(1.4935392 0.030297627 -0.039339201)
(1.702005 0.038013219 -0.046663693)
(1.7992079 0.041493101 -0.046006951)
(1.8336593 0.041592109 -0.040307045)
(0.062626066 0.00098679888 -0.00054228804)
(0.22636685 0.0035303532 -0.0024225355)
(0.46562891 0.0072300197 -0.0067955629)
(0.78018191 0.012963917 -0.015149996)
(1.1328587 0.021858704 -0.027553103)
(1.4482366 0.033022813 -0.040763892)
(1.6594732 0.042504921 -0.049665635)
(1.7637446 0.047533224 -0.050333328)
(1.8052409 0.048532838 -0.045430149)
(0.060371315 0.00090144005 -0.00056500053)
(0.21760668 0.0032774671 -0.0024802224)
(0.44674714 0.0068425836 -0.0067931145)
(0.74816383 0.012613749 -0.014982785)
(1.0883874 0.021956935 -0.027340207)
(1.398379 0.034223386 -0.041449163)
(1.6129245 0.045366899 -0.051603258)
(1.7255379 0.0520439 -0.053627724)
(1.774755 0.054144045 -0.049726177)
(0.058101316 0.00075749776 -0.00054930944)
(0.20851171 0.0028310939 -0.0024059524)
(0.4267653 0.0060907466 -0.0065215816)
(0.7139474 0.011662 -0.014333736)
(1.0408121 0.021117522 -0.026401416)
(1.3448499 0.034109519 -0.041058232)
(1.5634901 0.046768395 -0.052317078)
(1.685793 0.055150237 -0.055782465)
(1.7433127 0.058486218 -0.052947527)
(0.055642737 0.00054905798 -0.00046832798)
(0.19867278 0.0021855907 -0.0021283024)
(0.40519074 0.0049845269 -0.0058824526)
(0.67715053 0.010153689 -0.013116314)
(0.98992146 0.019425254 -0.024766154)
(1.2876565 0.03275922 -0.03949602)
(1.5115046 0.046731777 -0.051747044)
(1.6449895 0.056859012 -0.056817173)
(1.7113843 0.061559377 -0.055202163)
(0.052829653 0.0002760255 -0.00030538948)
(0.18768532 0.0013544532 -0.0016042344)
(0.38148857 0.0035614139 -0.0048208391)
(0.63721801 0.0081581953 -0.011339602)
(0.93493151 0.016966913 -0.022323462)
(1.2263171 0.030344448 -0.036859875)
(1.4563917 0.045402323 -0.050026204)
(1.602569 0.057207329 -0.056803648)
(1.6784945 0.063302106 -0.056701106)
(0.049897179 3.1820622e-05 -0.00011477237)
(0.17611896 0.00056496959 -0.00097395328)
(0.35634925 0.0021175007 -0.0035492987)
(0.59453502 0.0059657277 -0.009211099)
(0.87561566 0.013978896 -0.019254097)
(1.1595521 0.026943222 -0.033144358)
(1.3959174 0.042680865 -0.047013657)
(1.556136 0.055874575 -0.055447056)
(1.6425691 0.063367773 -0.057174878)
(0.04623978 -0.00035434958 0.00025832782)
(0.16222756 -0.0006514765 0.00018532778)
(0.32688707 -8.9266078e-05 -0.0013750181)
(0.54507615 0.0025737203 -0.005731058)
(0.8066767 0.009153135 -0.014207617)
(1.0803014 0.020798506 -0.026707826)
(1.3210243 0.036146677 -0.040680623)
(1.4964043 0.050160871 -0.050796357)
(1.5968375 0.059392566 -0.054822599)
(0.051960691 -9.6344447e-05 -6.4522405e-05)
(0.1794985 -0.00063898942 -0.0004236459)
(0.35596372 -0.0019981531 -0.0012149526)
(0.58340453 -0.0047708455 -0.0028478084)
(0.84957669 -0.009637699 -0.0060299289)
(1.1245113 -0.016866739 -0.011342297)
(1.3667913 -0.025271832 -0.017511784)
(1.5451067 -0.033469069 -0.023162615)
(1.6464204 -0.039785037 -0.026767292)
(0.055869098 -0.00016605405 -0.00010977309)
(0.19365403 -0.00095127745 -0.00058508159)
(0.38469353 -0.0027684524 -0.0015841642)
(0.62950868 -0.0063308861 -0.003628982)
(0.9112582 -0.012397885 -0.0075550997)
(1.1932946 -0.021081963 -0.013905551)
(1.4296066 -0.030490538 -0.020868081)
(1.592323 -0.038518639 -0.026479626)
(1.6799366 -0.043791892 -0.029417463)
(0.058958774 -0.00014307139 -7.8443416e-05)
(0.20512667 -0.00099560796 -0.00052690726)
(0.40834333 -0.0030761739 -0.0015838349)
(0.66760404 -0.0071806111 -0.0038712095)
(0.96174444 -0.014065685 -0.0083384415)
(1.2479983 -0.023633272 -0.015462252)
(1.4769438 -0.033472601 -0.023023561)
(1.6253199 -0.041006204 -0.028508073)
(1.7026784 -0.045359717 -0.030845006)
(0.061865937 -0.00015945167 -8.1784449e-05)
(0.21578365 -0.0011243855 -0.00055336988)
(0.4300869 -0.003460549 -0.0017010193)
(0.70227786 -0.0080142511 -0.0042364079)
(1.007239 -0.015523792 -0.0092395482)
(1.2967926 -0.025583246 -0.016985557)
(1.5188313 -0.03533262 -0.024776872)
(1.6547719 -0.042147824 -0.029947384)
(1.7232119 -0.045574242 -0.031568154)
(0.064335075 -0.0001957362 -9.5242042e-05)
(0.22503156 -0.0012921299 -0.00060075016)
(0.44925462 -0.0038704571 -0.0018394592)
(0.73324628 -0.0088139506 -0.0046137875)
(1.0483949 -0.016848707 -0.010151404)
(1.3413395 -0.026985912 -0.018149532)
(1.5578132 -0.036264708 -0.025868674)
(1.6832117 -0.042165962 -0.030524319)
(1.7434337 -0.044575996 -0.03133959)
(0.066546894 -0.00027782171 -0.00012334251)
(0.23333291 -0.0015585135 -0.00067170006)
(0.46650495 -0.0043785646 -0.001971636)
(0.76128907 -0.0096343598 -0.0049141859)
(1.0860646 -0.017786867 -0.010565901)
(1.3825576 -0.027549092 -0.018390802)
(1.5946721 -0.035974472 -0.02568572)
(1.711101 -0.040757397 -0.029648685)
(1.763649 -0.042165272 -0.029749251)
(0.068680247 -0.00039282212 -0.0001481545)
(0.24112855 -0.0018801295 -0.00070803904)
(0.48243717 -0.0048829203 -0.0019747272)
(0.78701779 -0.010232987 -0.0048545525)
(1.1203498 -0.018087619 -0.010222311)
(1.420399 -0.027098249 -0.017585834)
(1.6291382 -0.034394518 -0.024226447)
(1.7379456 -0.037997876 -0.027473263)
(1.7833966 -0.038486305 -0.027025793)
(0.0705027 -0.00049055193 -0.00014784885)
(0.24782381 -0.0021162217 -0.0006525089)
(0.49620379 -0.0051606248 -0.0017736308)
(0.80942667 -0.010259457 -0.004321906)
(1.1504476 -0.017455968 -0.0091868976)
(1.4541031 -0.025370721 -0.015895189)
(1.660385 -0.03134235 -0.021753846)
(1.7628476 -0.033777863 -0.024301468)
(1.8018801 -0.033513599 -0.023528832)
(0.071956424 -0.00051894136 -0.00011663677)
(0.25322704 -0.002106914 -0.00049288991)
(0.50744168 -0.0049194385 -0.0013423855)
(0.82786282 -0.0094388925 -0.0034282503)
(1.1756684 -0.015598614 -0.0076634924)
(1.4827694 -0.022104867 -0.013595737)
(1.687347 -0.026646999 -0.018687561)
(1.7846722 -0.028056865 -0.0206898)
(1.818156 -0.027360606 -0.019925331)
(0.073055525 -0.00045881113 -6.6858845e-05)
(0.25736123 -0.0018019937 -0.00028240192)
(0.51611299 -0.0040869542 -0.00082478884)
(0.8421812 -0.0076588548 -0.0024198544)
(1.195467 -0.012406175 -0.0060119472)
(1.505471 -0.017251983 -0.011197853)
(1.7088478 -0.020369873 -0.015603646)
(1.8022044 -0.021022391 -0.01729275)
(1.8312546 -0.020245428 -0.01689447)
(0.074059195 -0.00031577695 -1.8256091e-05)
(0.260798 -0.0012155709 -8.8044299e-05)
(0.52283276 -0.0027116508 -0.00037351356)
(0.85272831 -0.0050078867 -0.0015671192)
(1.2096032 -0.0080087553 -0.0046383264)
(1.5214083 -0.010996141 -0.0092315116)
(1.7238128 -0.012789033 -0.013118837)
(1.8143495 -0.013011824 -0.014738378)
(1.8403358 -0.012437312 -0.014732021)
(0.074362348 -0.00011272075 9.5904678e-06)
(0.26204442 -0.00043028038 2.1776384e-05)
(0.52559198 -0.00095310655 -0.0001197316)
(0.85745781 -0.0017481343 -0.0010885451)
(1.2163287 -0.0027769786 -0.0038715356)
(1.5292538 -0.0037864717 -0.0081499295)
(1.7313105 -0.0043668021 -0.011755918)
(1.820469 -0.0044087526 -0.013419425)
(1.844934 -0.00419837 -0.013615266)
(0.074362347 0.00011272552 9.5885931e-06)
(0.26204442 0.00043027416 2.1767999e-05)