/*--------------------------------*- C++ -*----------------------------------*\
  =========                 |
  \\      /  F ield         | OpenFOAM: The Open Source CFD Toolbox
   \\    /   O peration     | Website:  https://openfoam.org
    \\  /    A nd           | Version:  10
     \\/     M anipulation  |
\*---------------------------------------------------------------------------*/
FoamFile
{
    format      ascii;
    class       volScalarField;
    location    "38.5";
    object      ddt0(T);
}
// * * * * * * * * * * * * * * * * * * * * * * * * * * * * * * * * * * * * * //

dimensions      [0 0 -1 1 0 0 0];

internalField   nonuniform List<scalar> 
10000
(
468.871
28.8807
92.6719
90.3967
89.9802
90.0607
90.077
90.0777
90.0784
90.0793
90.0802
90.081
90.0818
90.0826
90.0834
90.0842
90.0849
90.0857
90.0865
90.0872
90.088
90.0887
90.0895
90.0902
90.0909
90.0916
90.0923
90.093
90.0937
90.0944
90.0951
90.0958
90.0964
90.0971
90.0977
90.0984
90.099
90.0996
90.1002
90.1008
90.1014
90.102
90.1026
90.1032
90.1037
90.1043
90.1048
90.1054
90.1059
90.1064
90.1069
90.1074
90.1079
90.1083
90.1088
90.1092
90.1097
90.1101
90.1105
90.1109
90.1113
90.1117
90.1121
90.1125
90.1128
90.1132
90.1135
90.1138
90.1142
90.1145
90.1148
90.115
90.1153
90.1156
90.1158
90.1161
90.1163
90.1165
90.1167
90.1169
90.1171
90.1173
90.1175
90.1177
90.1178
90.1179
90.1181
90.1182
90.1183
90.1184
90.1185
90.1186
90.1187
90.1186
90.1179
90.1184
90.1895
90.6871
85.9974
68.7167
49.3838
-86.7813
-27.3567
-36.203
-36.7845
-36.5818
-36.5575
-36.5599
-36.5589
-36.5565
-36.5541
-36.5518
-36.5494
-36.5471
-36.5448
-36.5425
-36.5402
-36.5379
-36.5357
-36.5334
-36.5312
-36.529
-36.5267
-36.5246
-36.5224
-36.5202
-36.5181
-36.516
-36.5139
-36.5119
-36.5098
-36.5078
-36.5058
-36.5038
-36.5019
-36.5
-36.4981
-36.4962
-36.4943
-36.4925
-36.4907
-36.489
-36.4872
-36.4855
-36.4839
-36.4822
-36.4806
-36.479
-36.4774
-36.4759
-36.4744
-36.4729
-36.4715
-36.4701
-36.4687
-36.4673
-36.466
-36.4647
-36.4635
-36.4622
-36.461
-36.4599
-36.4587
-36.4576
-36.4566
-36.4555
-36.4545
-36.4535
-36.4526
-36.4517
-36.4508
-36.4499
-36.4491
-36.4483
-36.4475
-36.4468
-36.4461
-36.4454
-36.4448
-36.4442
-36.4436
-36.4431
-36.4426
-36.4421
-36.4416
-36.4412
-36.4408
-36.4404
-36.4401
-36.4398
-36.4395
-36.4393
-36.439
-36.4388
-36.4403
-36.4497
-36.4325
-35.9937
-36.9042
-26.9469
104.85
-33.7831
17.4608
8.01783
7.68784
7.94972
7.97709
7.9751
7.97758
7.98153
7.98553
7.98946
7.99337
7.99727
8.00114
8.005
8.00883
8.01264
8.01643
8.02019
8.02392
8.02762
8.0313
8.03494
8.03856
8.04214
8.04568
8.04919
8.05267
8.05611
8.05951
8.06288
8.06621
8.06949
8.07274
8.07594
8.0791
8.08222
8.08529
8.08832
8.09131
8.09425
8.09714
8.09998
8.10278
8.10553
8.10824
8.11089
8.11349
8.11605
8.11855
8.12101
8.12341
8.12577
8.12807
8.13032
8.13253
8.13467
8.13677
8.13882
8.14081
8.14276
8.14465
8.14649
8.14827
8.15001
8.15169
8.15332
8.1549
8.15643
8.1579
8.15933
8.1607
8.16202
8.16329
8.16451
8.16567
8.16679
8.16785
8.16886
8.16983
8.17074
8.1716
8.17241
8.17317
8.17388
8.17454
8.17515
8.17572
8.17623
8.17669
8.17711
8.17753
8.17795
8.17672
8.16306
8.13438
8.30913
7.1982
6.87479
103.2
-41.4547
9.15611
-0.0396556
-0.279822
-0.00992691
0.01655
0.0153415
0.0193227
0.0248626
0.0304359
0.0359398
0.0414093
0.0468533
0.0522706
0.0576593
0.0630174
0.0683432
0.073635
0.078891
0.0841097
0.0892895
0.0944287
0.0995258
0.104579
0.109588
0.11455
0.119463
0.124328
0.129141
0.133903
0.138611
0.143265
0.147862
0.152403
0.156885
0.161308
0.165671
0.169973
0.174212
0.178388
0.182501
0.186548
0.190531
0.194446
0.198295
0.202077
0.20579
0.209435
0.21301
0.216516
0.219951
0.223316
0.22661
0.229833
0.232985
0.236064
0.239072
0.242008
0.244871
0.247662
0.250381
0.253026
0.255599
0.2581
0.260527
0.262882
0.265165
0.267374
0.269511
0.271576
0.273568
0.275489
0.277336
0.279112
0.280816
0.282449
0.284009
0.285499
0.286917
0.288264
0.28954
0.290745
0.29188
0.292944
0.293938
0.294861
0.295715
0.296499
0.297212
0.297855
0.298437
0.29904
0.299989
0.301306
0.297483
0.283457
0.420839
0.472177
0.121296
102.861
-41.9793
8.85747
-0.249835
-0.477308
-0.208265
-0.181522
-0.181395
-0.175844
-0.168722
-0.161576
-0.154506
-0.147477
-0.14048
-0.133516
-0.12659
-0.119702
-0.112855
-0.106053
-0.0992958
-0.0925871
-0.0859286
-0.0793224
-0.0727704
-0.0662747
-0.059837
-0.0534594
-0.0471436
-0.0408914
-0.0347046
-0.0285849
-0.0225339
-0.0165532
-0.0106443
-0.00480882
0.000951903
0.00663647
0.0122436
0.0177719
0.0232203
0.0285875
0.0338726
0.0390745
0.0441921
0.0492246
0.0541711
0.0590307
0.0638028
0.0684865
0.0730814
0.0775866
0.0820018
0.0863263
0.0905598
0.0947018
0.0987519
0.10271
0.106575
0.110348
0.114028
0.117614
0.121108
0.124508
0.127815
0.131028
0.134148
0.137174
0.140107
0.142947
0.145694
0.148347
0.150907
0.153375
0.15575
0.158032
0.160222
0.162319
0.164325
0.166239
0.168062
0.169793
0.171433
0.172982
0.17444
0.175808
0.177085
0.178272
0.17937
0.180377
0.181294
0.182118
0.182841
0.18349
0.184291
0.185611
0.184317
0.16805
0.182563
0.224645
0.212152
102.931
-41.8054
9.08633
-0.0125658
-0.240761
0.0283749
0.0563366
0.0580148
0.0651548
0.0738563
0.0825727
0.0912057
0.0997918
0.108339
0.116845
0.125306
0.133719
0.142082
0.150392
0.158645
0.16684
0.174973
0.183043
0.191046
0.198981
0.206844
0.214635
0.22235
0.229987
0.237544
0.24502
0.252411
0.259716
0.266934
0.274062
0.281099
0.288043
0.294892
0.301645
0.3083
0.314856
0.321312
0.327666
0.333918
0.340065
0.346107
0.352043
0.357872
0.363593
0.369206
0.374709
0.380102
0.385385
0.390556
0.395615
0.400563
0.405397
0.410119
0.414727
0.419222
0.423603
0.427871
0.432024
0.436063
0.439988
0.443799
0.447496
0.451079
0.454547
0.457902
0.461143
0.464271
0.467285
0.470186
0.472973
0.475648
0.478211
0.480661
0.482999
0.485225
0.48734
0.489343
0.491235
0.493016
0.494687
0.496247
0.497697
0.499038
0.500269
0.50139
0.5024
0.503289
0.504049
0.504802
0.506066
0.507531
0.502968
0.498625
0.497498
0.511238
102.944
-41.784
9.11095
0.011459
-0.216418
0.0539402
0.0834412
0.0867094
0.0954321
0.105707
0.11599
0.126183
0.136323
0.146417
0.156462
0.166454
0.17639
0.186266
0.19608
0.205827
0.215505
0.22511
0.234641
0.244092
0.253463
0.26275
0.271951
0.281062
0.290081
0.299007
0.307835
0.316564
0.325192
0.333716
0.342134
0.350445
0.358645
0.366734
0.374709
0.382569
0.390312
0.397936
0.40544
0.412823
0.420082
0.427218
0.434229
0.441113
0.447869
0.454498
0.460997
0.467366
0.473605
0.479712
0.485687
0.491529
0.497239
0.502815
0.508258
0.513566
0.51874
0.523779
0.528684
0.533455
0.53809
0.542591
0.546956
0.551188
0.555284
0.559246
0.563074
0.566767
0.570327
0.573753
0.577045
0.580204
0.58323
0.586124
0.588885
0.591514
0.594011
0.596377
0.598611
0.600715
0.602688
0.604531
0.606243
0.607826
0.60928
0.610605
0.6118
0.61286
0.613764
0.614521
0.615388
0.616784
0.617152
0.616303
0.612169
0.618557
102.945
-41.7857
9.10977
0.011127
-0.215408
0.0565002
0.0875909
0.0924428
0.10274
0.114584
0.126429
0.138179
0.149869
0.161506
0.173087
0.184607
0.196063
0.207449
0.218763
0.23
0.241158
0.252232
0.26322
0.274117
0.284921
0.295628
0.306235
0.31674
0.327138
0.337428
0.347607
0.357671
0.367618
0.377445
0.387151
0.396732
0.406186
0.415512
0.424706
0.433768
0.442694
0.451484
0.460136
0.468647
0.477017
0.485243
0.493326
0.501262
0.509052
0.516694
0.524187
0.53153
0.538722
0.545763
0.552652
0.559388
0.56597
0.572399
0.578673
0.584793
0.590758
0.596569
0.602223
0.607723
0.613067
0.618256
0.623289
0.628167
0.63289
0.637458
0.64187
0.646129
0.650232
0.654182
0.657978
0.66162
0.665109
0.668445
0.671628
0.674659
0.677538
0.680265
0.682841
0.685267
0.687541
0.689666
0.691641
0.693466
0.695141
0.696668
0.698048
0.699278
0.700346
0.701227
0.701971
0.702829
0.70376
0.70464
0.70079
0.7062
102.946
-41.7845
9.11244
0.0153083
-0.209659
0.0638381
0.0965116
0.102938
0.114805
0.128212
0.141616
0.154919
0.168155
0.181332
0.194444
0.207488
0.220459
0.233351
0.246161
0.258885
0.271519
0.284058
0.296499
0.308838
0.321071
0.333194
0.345205
0.357099
0.368873
0.380524
0.392049
0.403444
0.414707
0.425834
0.436824
0.447672
0.458377
0.468936
0.479347
0.489607
0.499714
0.509667
0.519462
0.5291
0.538576
0.547891
0.557043
0.566029
0.574849
0.583502
0.591986
0.6003
0.608443
0.616415
0.624215
0.631842
0.639295
0.646574
0.653679
0.660608
0.667362
0.673941
0.680343
0.68657
0.692621
0.698496
0.704195
0.709718
0.715066
0.720238
0.725234
0.730056
0.734702
0.739174
0.743472
0.747596
0.751546
0.755323
0.758927
0.762359
0.765619
0.768707
0.771624
0.77437
0.776946
0.779351
0.781587
0.783653
0.785551
0.78728
0.788841
0.790235
0.79146
0.792499
0.793334
0.794027
0.794837
0.796407
0.791127
0.798226
102.947
-41.7822
9.11639
0.0208497
-0.202536
0.0725405
0.106788
0.114783
0.128214
0.14318
0.158138
0.172989
0.187767
0.202478
0.217118
0.231681
0.246162
0.260556
0.274858
0.289064
0.303169
0.317169
0.331059
0.344835
0.358493
0.372029
0.385438
0.398718
0.411863
0.424871
0.437738
0.450461
0.463036
0.475459
0.487728
0.49984
0.511792
0.523581
0.535204
0.546659
0.557944
0.569055
0.579992
0.590751
0.601332
0.611732
0.621949
0.631982
0.641829
0.651489
0.660961
0.670244
0.679336
0.688236
0.696944
0.705459
0.713781
0.721907
0.729839
0.737575
0.745116
0.752461
0.759609
0.766561
0.773317
0.779876
0.786239
0.792405
0.798375
0.804149
0.809728
0.815111
0.820298
0.825291
0.830089
0.834694
0.839104
0.843321
0.847345
0.851176
0.854816
0.858264
0.86152
0.864586
0.867462
0.870148
0.872644
0.874951
0.877069
0.878999
0.880741
0.882297
0.883667
0.884847
0.885811
0.886529
0.887283
0.889591
0.882284
0.891506
102.948
-41.7798
9.12038
0.026419
-0.195394
0.0812532
0.117067
0.126626
0.141615
0.158136
0.174642
0.191036
0.20735
0.223591
0.239753
0.25583
0.271817
0.287708
0.303497
0.31918
0.334752
0.350208
0.365542
0.38075
0.395828
0.410771
0.425575
0.440235
0.454748
0.469108
0.483313
0.497359
0.511241
0.524956
0.538501
0.551872
0.565066
0.578081
0.590913
0.603559
0.616016
0.628283
0.640357
0.652235
0.663916
0.675397
0.686676
0.697752
0.708623
0.719288
0.729744
0.739992
0.750029
0.759855
0.769468
0.778868
0.788055
0.797026
0.805782
0.814323
0.822648
0.830756
0.838647
0.846322
0.85378
0.861021
0.868045
0.874853
0.881443
0.887818
0.893976
0.899919
0.905646
0.911158
0.916455
0.921537
0.926406
0.931061
0.935504
0.939734
0.943752
0.947558
0.951153
0.954538
0.957712
0.960677
0.963433
0.96598
0.968319
0.970449
0.972372
0.974088
0.9756
0.976907
0.977988
0.978769
0.979498
0.982617
0.973329
0.984553
102.948
-41.7774
9.12431
0.0319256
-0.188322
0.08989
0.127265
0.138381
0.154924
0.172992
0.191042
0.208973
0.226818
0.244583
0.262261
0.279847
0.297334
0.314716
0.331987
0.349142
0.366174
0.38308
0.399853
0.416489
0.432982
0.449327
0.46552
0.481556
0.49743
0.513138
0.528676
0.54404
0.559224
0.574226
0.589042
0.603668
0.6181
0.632336
0.646372
0.660204
0.673831
0.687249
0.700455
0.713448
0.726224
0.738782
0.75112
0.763235
0.775126
0.786791
0.798229
0.809438
0.820417
0.831165
0.84168
0.851962
0.86201
0.871823
0.881401
0.890743
0.899848
0.908717
0.917349
0.925744
0.933901
0.941822
0.949505
0.956951
0.96416
0.971133
0.977869
0.984369
0.990633
0.996662
1.00246
1.00802
1.01334
1.01843
1.02329
1.02792
1.03231
1.03648
1.04041
1.04411
1.04758
1.05083
1.05384
1.05663
1.05919
1.06152
1.06362
1.0655
1.06715
1.06858
1.06977
1.07062
1.07132
1.07519
1.0642
1.07714
102.949
-41.7751
9.12823
0.0373999
-0.181287
0.0984823
0.137412
0.150079
0.168169
0.187779
0.207366
0.226828
0.246198
0.265481
0.284669
0.303757
0.322738
0.341605
0.360352
0.378972
0.39746
0.415811
0.434017
0.452074
0.469976
0.487718
0.505294
0.5227
0.539931
0.556981
0.573847
0.590522
0.607004
0.623288
0.63937
0.655245
0.670911
0.686362
0.701597
0.716611
0.731402
0.745966
0.760301
0.774404
0.788271
0.801902
0.815294
0.828444
0.841351
0.854012
0.866427
0.878594
0.89051
0.902176
0.91359
0.92475
0.935656
0.946308
0.956704
0.966844
0.976727
0.986353
0.995722
1.00483
1.01369
1.02229
1.03062
1.03871
1.04653
1.0541
1.06141
1.06847
1.07527
1.08181
1.0881
1.09413
1.09991
1.10544
1.11071
1.11574
1.12051
1.12503
1.12929
1.13331
1.13708
1.1406
1.14387
1.1469
1.14968
1.1522
1.15449
1.15653
1.15832
1.15987
1.16117
1.16208
1.16276
1.16725
1.15491
1.16925
102.95
-41.7727
9.13212
0.0428494
-0.174284
0.107037
0.147515
0.161726
0.181355
0.202502
0.223618
0.244605
0.265493
0.286286
0.306979
0.327563
0.348031
0.368376
0.388592
0.408672
0.428609
0.448397
0.468031
0.487503
0.506808
0.52594
0.544894
0.563664
0.582245
0.600631
0.618818
0.636801
0.654575
0.672134
0.689476
0.706596
0.723489
0.740151
0.75658
0.77277
0.78872
0.804426
0.819883
0.835091
0.850046
0.864744
0.879185
0.893366
0.907284
0.920937
0.934325
0.947445
0.960295
0.972875
0.985182
0.997217
1.00898
1.02046
1.03167
1.04261
1.05327
1.06365
1.07375
1.08358
1.09312
1.10239
1.11139
1.1201
1.12854
1.1367
1.14458
1.15219
1.15952
1.16658
1.17336
1.17987
1.1861
1.19206
1.19775
1.20317
1.20831
1.21318
1.21779
1.22212
1.22618
1.22998
1.23351
1.23677
1.23976
1.24249
1.24496
1.24715
1.24909
1.25076
1.25216
1.25315
1.25382
1.25877
1.24546
1.26085
102.951
-41.7704
9.136
0.048273
-0.167313
0.115551
0.157569
0.173318
0.19448
0.217155
0.239794
0.262298
0.284697
0.306994
0.329183
0.351256
0.373204
0.395021
0.416699
0.438231
0.45961
0.48083
0.501883
0.522764
0.543465
0.563981
0.584306
0.604434
0.624358
0.644075
0.663577
0.68286
0.701919
0.720749
0.739345
0.757703
0.775817
0.793685
0.811302
0.828663
0.845766
0.862607
0.879183
0.895491
0.911526
0.927288
0.942773
0.957979
0.972904
0.987545
1.0019
1.01597
1.02975
1.04324
1.05643
1.06934
1.08195
1.09427
1.10629
1.11801
1.12944
1.14057
1.15141
1.16194
1.17218
1.18212
1.19176
1.20111
1.21016
1.21891
1.22736
1.23552
1.24338
1.25095
1.25822
1.2652
1.27188
1.27827
1.28437
1.29018
1.2957
1.30092
1.30586
1.3105
1.31486
1.31893
1.32272
1.32621
1.32942
1.33235
1.33499
1.33735
1.33942
1.34121
1.34272
1.34379
1.34447
1.34974
1.3358
1.35192
102.952
-41.7681
9.13986
0.0536688
-0.160378
0.124022
0.167573
0.184851
0.207538
0.231733
0.255888
0.279901
0.303803
0.327596
0.351274
0.374828
0.39825
0.42153
0.444663
0.46764
0.490454
0.513097
0.535563
0.557845
0.579936
0.601828
0.623517
0.644996
0.666257
0.687297
0.708108
0.728685
0.749023
0.769116
0.78896
0.808549
0.827879
0.846946
0.865744
0.884271
0.902521
0.920492
0.93818
0.955582
0.972693
0.989513
1.00604
1.02226
1.03819
1.05381
1.06913
1.08414
1.09885
1.11324
1.12732
1.14109
1.15455
1.16769
1.18052
1.19303
1.20523
1.2171
1.22866
1.23991
1.25083
1.26144
1.27173
1.2817
1.29136
1.30069
1.30972
1.31842
1.32681
1.33489
1.34264
1.35009
1.35722
1.36404
1.37055
1.37675
1.38263
1.38821
1.39348
1.39844
1.40309
1.40743
1.41147
1.4152
1.41863
1.42175
1.42457
1.42708
1.42929
1.43121
1.43282
1.43397
1.43468
1.44012
1.42586
1.44246
102.952
-41.7658
9.1437
0.0590348
-0.153481
0.132447
0.177522
0.196321
0.220525
0.246232
0.271893
0.297407
0.322804
0.348086
0.373245
0.398272
0.423158
0.447895
0.472474
0.496888
0.521129
0.545189
0.56906
0.592735
0.616207
0.639469
0.662514
0.685336
0.707928
0.730283
0.752395
0.774259
0.795869
0.817219
0.838303
0.859118
0.879657
0.899915
0.919889
0.939574
0.958966
0.978061
0.996855
1.01534
1.03353
1.0514
1.06895
1.08619
1.10312
1.11972
1.13599
1.15194
1.16757
1.18286
1.19782
1.21245
1.22675
1.24072
1.25435
1.26764
1.2806
1.29322
1.3055
1.31745
1.32905
1.34032
1.35126
1.36185
1.37211
1.38203
1.39162
1.40087
1.40978
1.41836
1.42661
1.43452
1.4421
1.44934
1.45626
1.46284
1.46909
1.47502
1.48062
1.48588
1.49083
1.49544
1.49973
1.5037
1.50734
1.51065
1.51365
1.51632
1.51867
1.5207
1.52242
1.52366
1.52441
1.52992
1.51559
1.53242
102.953
-41.7635
9.14751
0.0643694
-0.146624
0.140822
0.187413
0.207724
0.233436
0.260646
0.287806
0.314812
0.341695
0.368457
0.395088
0.421579
0.447922
0.474106
0.500124
0.525967
0.551626
0.577093
0.602361
0.627422
0.652268
0.676891
0.701285
0.725442
0.749355
0.773019
0.796425
0.819568
0.842443
0.865042
0.88736
0.909392
0.931133
0.952577
0.973719
0.994556
1.01508
1.03529
1.05519
1.07476
1.094
1.11292
1.1315
1.14975
1.16766
1.18524
1.20246
1.21935
1.23588
1.25207
1.26791
1.2834
1.29853
1.31331
1.32774
1.34181
1.35553
1.36889
1.38189
1.39453
1.40682
1.41875
1.43032
1.44154
1.45239
1.4629
1.47304
1.48283
1.49227
1.50135
1.51008
1.51845
1.52647
1.53414
1.54146
1.54843
1.55505
1.56132
1.56724
1.57282
1.57805
1.58294
1.58748
1.59168
1.59553
1.59904
1.60221
1.60504
1.60753
1.60968
1.61149
1.61282
1.61363
1.61913
1.60493
1.62181
102.954
-41.7613
9.1513
0.0696709
-0.139809
0.149146
0.197243
0.219057
0.246267
0.274972
0.30362
0.33211
0.36047
0.388702
0.416796
0.444743
0.472532
0.500155
0.527603
0.554865
0.581934
0.608801
0.635457
0.661895
0.688106
0.714082
0.739816
0.7653
0.790527
0.815491
0.840183
0.864598
0.888729
0.912569
0.936114
0.959356
0.982291
1.00491
1.02722
1.0492
1.07085
1.09217
1.11316
1.13381
1.15411
1.17406
1.19367
1.21292
1.23181
1.25035
1.26852
1.28634
1.30378
1.32086
1.33757
1.3539
1.36987
1.38546
1.40068
1.41553
1.42999
1.44409
1.4578
1.47114
1.4841
1.49669
1.50889
1.52072
1.53218
1.54326
1.55396
1.56429
1.57424
1.58382
1.59303
1.60186
1.61032
1.61841
1.62614
1.63349
1.64047
1.64709
1.65334
1.65922
1.66474
1.66989
1.67468
1.67911
1.68318
1.68688
1.69022
1.69321
1.69583
1.6981
1.70002
1.70143
1.70231
1.70772
1.69383
1.7106
102.955
-41.759
9.15507
0.0749377
-0.133039
0.157415
0.207009
0.230315
0.259015
0.289203
0.319331
0.349294
0.379122
0.408814
0.438362
0.467755
0.496982
0.526035
0.554902
0.583575
0.612045
0.640302
0.668337
0.696143
0.72371
0.75103
0.778095
0.804898
0.83143
0.857685
0.883655
0.909333
0.934712
0.959786
0.984548
1.00899
1.03311
1.05691
1.08036
1.10348
1.12626
1.14868
1.17075
1.19247
1.21382
1.23481
1.25542
1.27567
1.29554
1.31504
1.33415
1.35288
1.37123
1.38919
1.40677
1.42395
1.44074
1.45714
1.47314
1.48876
1.50397
1.51879
1.53322
1.54724
1.56088
1.57411
1.58695
1.59939
1.61144
1.62309
1.63435
1.64521
1.65568
1.66575
1.67544
1.68473
1.69363
1.70214
1.71026
1.71799
1.72533
1.73229
1.73886
1.74505
1.75085
1.75628
1.76131
1.76597
1.77025
1.77414
1.77766
1.7808
1.78356
1.78595
1.78796
1.78946
1.79042
1.79568
1.78222
1.79878
102.955
-41.7568
9.15881
0.0801681
-0.126316
0.165627
0.216707
0.241496
0.271674
0.303337
0.334934
0.36636
0.397645
0.428788
0.45978
0.490609
0.521264
0.551736
0.582013
0.612087
0.641948
0.671585
0.70099
0.730154
0.759068
0.787723
0.816111
0.844223
0.872052
0.899589
0.926828
0.95376
0.980379
1.00668
1.03265
1.05829
1.08359
1.10854
1.13315
1.15739
1.18128
1.2048
1.22795
1.25072
1.27312
1.29513
1.31676
1.33799
1.35883
1.37928
1.39933
1.41897
1.43822
1.45706
1.47549
1.49351
1.51112
1.52832
1.54511
1.56148
1.57744
1.59298
1.60811
1.62282
1.63712
1.651
1.66447
1.67752
1.69015
1.70237
1.71418
1.72557
1.73655
1.74712
1.75727
1.76702
1.77635
1.78528
1.79379
1.8019
1.80961
1.8169
1.8238
1.83029
1.83637
1.84206
1.84735
1.85223
1.85672
1.8608
1.86449
1.86778
1.87068
1.87318
1.87529
1.87688
1.87792
1.883
1.87007
1.88632
102.956
-41.7545
9.16252
0.0853605
-0.119642
0.17378
0.226335
0.252596
0.284242
0.317368
0.350423
0.383302
0.416034
0.448617
0.481042
0.513296
0.545369
0.57725
0.608928
0.640393
0.671634
0.702642
0.733407
0.76392
0.79417
0.82415
0.853851
0.883263
0.912378
0.941189
0.969687
0.997864
1.02571
1.05323
1.0804
1.10723
1.13369
1.1598
1.18554
1.21091
1.2359
1.26051
1.28473
1.30856
1.33199
1.35502
1.37764
1.39986
1.42166
1.44305
1.46403
1.48458
1.50472
1.52442
1.54371
1.56256
1.58099
1.59898
1.61654
1.63367
1.65037
1.66663
1.68246
1.69785
1.71281
1.72733
1.74142
1.75507
1.76829
1.78108
1.79343
1.80535
1.81683
1.82789
1.83851
1.84871
1.85847
1.86781
1.87672
1.88521
1.89327
1.9009
1.90811
1.9149
1.92127
1.92722
1.93275
1.93786
1.94255
1.94683
1.95069
1.95413
1.95716
1.95978
1.96199
1.96366
1.96479
1.96967
1.95731
1.9732
102.957
-41.7523
9.16621
0.0905135
-0.113019
0.18187
0.23589
0.263611
0.296714
0.331292
0.365795
0.400116
0.434283
0.468296
0.502143
0.535812
0.569292
0.602571
0.635638
0.668483
0.701094
0.733462
0.765577
0.797428
0.829006
0.860301
0.891304
0.922006
0.952398
0.982472
1.01222
1.04163
1.0707
1.09943
1.12779
1.15579
1.18342
1.21067
1.23754
1.26402
1.29011
1.31579
1.34108
1.36595
1.3904
1.41444
1.43806
1.46125
1.48401
1.50634
1.52824
1.54969
1.57071
1.59128
1.61141
1.63109
1.65032
1.6691
1.68744
1.70532
1.72274
1.73972
1.75624
1.77231
1.78792
1.80308
1.81779
1.83204
1.84584
1.85918
1.87207
1.88451
1.8965
1.90804
1.91913
1.92978
1.93997
1.94972
1.95902
1.96787
1.97629
1.98426
1.99178
1.99887
2.00552
2.01173
2.0175
2.02284
2.02773
2.0322
2.03623
2.03982
2.04299
2.04572
2.04802
2.04979
2.051
2.05566
2.04391
2.05942
102.958
-41.7501
9.16986
0.0956255
-0.106448
0.189896
0.245368
0.274539
0.309087
0.345106
0.381044
0.416795
0.452387
0.487817
0.523075
0.558148
0.593023
0.627689
0.662135
0.696349
0.73032
0.764037
0.797491
0.830669
0.863563
0.896163
0.928458
0.96044
0.992099
1.02343
1.05441
1.08505
1.11534
1.14525
1.1748
1.20397
1.23275
1.26114
1.28913
1.31671
1.34388
1.37064
1.39697
1.42288
1.44836
1.4734
1.498
1.52216
1.54587
1.56913
1.59193
1.61428
1.63617
1.6576
1.67857
1.69907
1.7191
1.73867
1.75776
1.77639
1.79454
1.81222
1.82943
1.84617
1.86243
1.87822
1.89354
1.90839
1.92276
1.93666
1.95009
1.96305
1.97554
1.98756
1.99911
2.01019
2.02081
2.03096
2.04065
2.04988
2.05864
2.06694
2.07478
2.08217
2.08909
2.09556
2.10157
2.10713
2.11223
2.11688
2.12108
2.12483
2.12812
2.13097
2.13337
2.13522
2.13652
2.14096
2.12982
2.14493
102.958
-41.748
9.17348
0.100695
-0.0999322
0.197855
0.254768
0.285375
0.321356
0.358804
0.396166
0.433335
0.47034
0.507176
0.543833
0.580298
0.616557
0.652599
0.688412
0.723983
0.759302
0.794358
0.829138
0.863634
0.897833
0.931726
0.965303
0.998553
1.03147
1.06404
1.09626
1.12811
1.15959
1.1907
1.22142
1.25174
1.28167
1.31118
1.34028
1.36896
1.39721
1.42503
1.4524
1.47934
1.50583
1.53186
1.55744
1.58255
1.6072
1.63138
1.65509
1.67833
1.70109
1.72337
1.74516
1.76648
1.7873
1.80764
1.8275
1.84686
1.86574
1.88412
1.90201
1.91941
1.93632
1.95273
1.96866
1.98409
1.99904
2.01349
2.02745
2.04092
2.05391
2.0664
2.07841
2.08994
2.10098
2.11153
2.1216
2.13119
2.14031
2.14894
2.15709
2.16477
2.17197
2.17869
2.18494
2.19072
2.19603
2.20086
2.20522
2.20912
2.21255
2.21551
2.218
2.21993
2.22133
2.22555
2.21502
2.22974
102.959
-41.7458
9.17708
0.10572
-0.0934729
0.205745
0.264085
0.296117
0.333519
0.372383
0.411156
0.449732
0.488136
0.526367
0.564411
0.602255
0.639886
0.677292
0.71446
0.751377
0.788033
0.824414
0.860511
0.896311
0.931804
0.96698
1.00183
1.03634
1.0705
1.1043
1.13773
1.17079
1.20347
1.23575
1.26763
1.2991
1.33016
1.36079
1.39099
1.42075
1.45007
1.47894
1.50735
1.53531
1.56279
1.58981
1.61636
1.64242
1.668
1.6931
1.7177
1.74182
1.76544
1.78856
1.81118
1.8333
1.85491
1.87602
1.89663
1.91672
1.93631
1.95539
1.97395
1.99201
2.00956
2.0266
2.04312
2.05914
2.07465
2.08964
2.10413
2.11812
2.13159
2.14456
2.15702
2.16898
2.18044
2.19139
2.20185
2.2118
2.22126
2.23021
2.23868
2.24664
2.25411
2.26109
2.26758
2.27358
2.27908
2.2841
2.28863
2.29267
2.29623
2.2993
2.30189
2.30391
2.30539
2.3094
2.29946
2.3138
102.96
-41.7437
9.18063
0.110701
-0.0870722
0.213564
0.273319
0.306762
0.345572
0.385839
0.426011
0.46598
0.505772
0.545384
0.584802
0.624013
0.663004
0.701761
0.740272
0.778523
0.816502
0.854198
0.891599
0.928693
0.965468
1.00191
1.03802
1.07377
1.10917
1.14419
1.17884
1.21309
1.24694
1.28039
1.31342
1.34603
1.37821
1.40994
1.44123
1.47207
1.50245
1.53236
1.5618
1.59076
1.61924
1.64724
1.67474
1.70175
1.72825
1.75425
1.77975
1.80473
1.8292
1.85316
1.87659
1.89951
1.92191
1.94378
1.96512
1.98595
2.00624
2.02601
2.04524
2.06395
2.08213
2.09978
2.11691
2.1335
2.14957
2.16511
2.18012
2.19461
2.20857
2.222
2.23492
2.24731
2.25918
2.27053
2.28136
2.29167
2.30147
2.31075
2.31952
2.32777
2.33551
2.34274
2.34947
2.35568
2.36139
2.36658
2.37128
2.37547
2.37915
2.38234
2.38502
2.38712
2.38868
2.3925
2.38311
2.3971
102.96
-41.7416
9.18416
0.115634
-0.0807318
0.221309
0.282465
0.317307
0.357511
0.399169
0.440726
0.482075
0.523241
0.564221
0.605001
0.645567
0.685904
0.726
0.76584
0.805413
0.844704
0.883702
0.922394
0.960769
0.998814
1.03652
1.07387
1.11086
1.14748
1.18371
1.21955
1.25499
1.29001
1.32461
1.35878
1.39252
1.4258
1.45864
1.49101
1.52291
1.55433
1.58528
1.61573
1.6457
1.67516
1.70412
1.73257
1.76051
1.78793
1.81483
1.8412
1.86705
1.89236
1.91714
1.94139
1.9651
1.98827
2.01089
2.03297
2.05451
2.07551
2.09596
2.11586
2.13521
2.15402
2.17228
2.18999
2.20716
2.22378
2.23986
2.25539
2.27037
2.28481
2.29871
2.31207
2.32489
2.33717
2.34891
2.36012
2.37079
2.38092
2.39052
2.39959
2.40813
2.41614
2.42362
2.43058
2.437
2.44291
2.44829
2.45314
2.45748
2.46129
2.46458
2.46736
2.46954
2.47119
2.47483
2.46595
2.47963
102.961
-41.7395
9.18765
0.120519
-0.0744535
0.228978
0.291522
0.327748
0.369333
0.412367
0.455297
0.498013
0.54054
0.582874
0.625002
0.666909
0.70858
0.750001
0.791158
0.832039
0.872629
0.912916
0.952887
0.99253
1.03183
1.07078
1.10937
1.14758
1.18541
1.22284
1.25986
1.29647
1.33265
1.3684
1.4037
1.43855
1.47293
1.50685
1.54029
1.57325
1.60571
1.63768
1.66914
1.70009
1.73053
1.76044
1.78983
1.81869
1.84702
1.87481
1.90205
1.92875
1.9549
1.9805
2.00555
2.03004
2.05397
2.07734
2.10016
2.12241
2.14409
2.16522
2.18577
2.20577
2.2252
2.24406
2.26236
2.28009
2.29726
2.31387
2.32991
2.34539
2.36031
2.37467
2.38847
2.40171
2.4144
2.42652
2.4381
2.44912
2.45959
2.46951
2.47888
2.4877
2.49597
2.5037
2.51088
2.51753
2.52362
2.52918
2.5342
2.53868
2.54262
2.54602
2.54888
2.55115
2.55288
2.55636
2.54795
2.56134
102.962
-41.7374
9.19111
0.125354
-0.068239
0.236569
0.300487
0.338084
0.381036
0.425432
0.469719
0.513788
0.557662
0.601338
0.6448
0.688034
0.731025
0.773758
0.816219
0.858394
0.90027
0.941833
0.98307
1.02397
1.06452
1.1047
1.14451
1.18393
1.22296
1.26157
1.29977
1.33754
1.37486
1.41174
1.44816
1.48411
1.51958
1.55457
1.58907
1.62307
1.65656
1.68954
1.722
1.75393
1.78533
1.81619
1.84651
1.87629
1.90551
1.93417
1.96228
1.98983
2.0168
2.04321
2.06905
2.09432
2.11901
2.14312
2.16665
2.18961
2.21198
2.23377
2.25498
2.2756
2.29565
2.31511
2.33398
2.35228
2.36999
2.38712
2.40367
2.41964
2.43503
2.44985
2.46408
2.47774
2.49083
2.50334
2.51528
2.52665
2.53745
2.54768
2.55735
2.56645
2.57499
2.58296
2.59037
2.59722
2.60351
2.60925
2.61442
2.61904
2.62311
2.62662
2.62958
2.63192
2.63373
2.63706
2.6291
2.64223
102.963
-41.7353
9.19453
0.130139
-0.06209
0.24408
0.309357
0.34831
0.392614
0.438359
0.48399
0.529397
0.574604
0.619606
0.664389
0.708936
0.753233
0.797264
0.841015
0.884471
0.927619
0.970444
1.01293
1.05507
1.09685
1.13826
1.17928
1.2199
1.26011
1.29989
1.33925
1.37816
1.41662
1.45462
1.49215
1.52919
1.56574
1.60179
1.63734
1.67237
1.70688
1.74086
1.7743
1.8072
1.83955
1.87135
1.90259
1.93327
1.96338
1.99291
2.02187
2.05025
2.07805
2.10526
2.13188
2.15791
2.18335
2.2082
2.23244
2.25609
2.27914
2.3016
2.32345
2.3447
2.36535
2.3854
2.40485
2.4237
2.44195
2.4596
2.47665
2.4931
2.50896
2.52422
2.53889
2.55297
2.56645
2.57934
2.59165
2.60336
2.61449
2.62503
2.63499
2.64437
2.65316
2.66138
2.66902
2.67607
2.68256
2.68847
2.6938
2.69856
2.70275
2.70637
2.70941
2.71184
2.71372
2.71693
2.70936
2.72227
102.963
-41.7333
9.19791
0.134871
-0.0560081
0.251508
0.31813
0.358424
0.404066
0.451145
0.498104
0.544835
0.59136
0.637675
0.683764
0.72961
0.775198
0.820513
0.86554
0.910263
0.954669
0.998743
1.04247
1.08584
1.12884
1.17145
1.21366
1.25547
1.29685
1.3378
1.3783
1.41835
1.45793
1.49703
1.53565
1.57377
1.61139
1.64849
1.68507
1.72113
1.75664
1.79161
1.82603
1.85988
1.89318
1.92591
1.95806
1.98963
2.02061
2.05101
2.08081
2.11002
2.13862
2.16663
2.19402
2.22081
2.24699
2.27256
2.29751
2.32185
2.34557
2.36868
2.39116
2.41303
2.43429
2.45492
2.47493
2.49433
2.51311
2.53128
2.54883
2.56576
2.58208
2.59779
2.61288
2.62737
2.64124
2.65451
2.66717
2.67923
2.69068
2.70153
2.71178
2.72143
2.73048
2.73893
2.74679
2.75406
2.76073
2.76681
2.7723
2.7772
2.78151
2.78524
2.78837
2.79087
2.79283
2.79593
2.78871
2.80144
102.964
-41.7313
9.20125
0.13955
-0.049995
0.258853
0.326804
0.368425
0.415389
0.463786
0.512059
0.560099
0.607928
0.65554
0.702919
0.75005
0.796915
0.843499
0.889787
0.935763
0.981413
1.02672
1.07167
1.11626
1.16046
1.20427
1.24766
1.29064
1.33318
1.37527
1.41691
1.45808
1.49877
1.53897
1.57866
1.61785
1.65652
1.69467
1.73227
1.76933
1.80584
1.84179
1.87717
1.91197
1.9462
1.97984
2.01289
2.04534
2.0772
2.10844
2.13908
2.1691
2.19851
2.22729
2.25546
2.283
2.30991
2.33619
2.36184
2.38686
2.41124
2.435
2.45811
2.48059
2.50244
2.52365
2.54422
2.56416
2.58347
2.60214
2.62018
2.63759
2.65436
2.67051
2.68603
2.70092
2.71518
2.72882
2.74183
2.75423
2.766
2.77715
2.78769
2.79761
2.80692
2.81561
2.82369
2.83116
2.83802
2.84427
2.84991
2.85495
2.85938
2.86321
2.86643
2.86901
2.87103
2.87404
2.86715
2.87971
102.965
-41.7293
9.20456
0.144174
-0.0440522
0.266113
0.335377
0.378308
0.426579
0.476279
0.525851
0.575184
0.624301
0.673195
0.721851
0.770251
0.818378
0.866217
0.913751
0.960965
1.00784
1.05437
1.10054
1.14632
1.19171
1.2367
1.28126
1.32539
1.36908
1.41231
1.45506
1.49734
1.53913
1.58041
1.62117
1.66142
1.70113
1.7403
1.77891
1.81697
1.85446
1.89137
1.92771
1.96345
1.9986
2.03314
2.06708
2.10041
2.13312
2.1652
2.19666
2.22749
2.25769
2.28725
2.31617
2.34445
2.37208
2.39907
2.42541
2.4511
2.47615
2.50053
2.52427
2.54736
2.56979
2.59157
2.6127
2.63318
2.653
2.67217
2.6907
2.70857
2.7258
2.74238
2.75831
2.7736
2.78825
2.80226
2.81562
2.82835
2.84044
2.85189
2.86271
2.8729
2.88245
2.89138
2.89968
2.90735
2.91439
2.92081
2.92661
2.93178
2.93634
2.94027
2.94358
2.94623
2.94832
2.95125
2.94465
2.95707
102.965
-41.7274
9.20782
0.148742
-0.0381811
0.273284
0.343846
0.388072
0.437635
0.488621
0.539476
0.590087
0.640476
0.690637
0.740553
0.790207
0.839581
0.888659
0.937425
0.985862
1.03396
1.08169
1.12905
1.17602
1.22259
1.26874
1.31445
1.35973
1.40455
1.44889
1.49276
1.53613
1.579
1.62135
1.66317
1.70445
1.74519
1.78537
1.82499
1.86403
1.90249
1.94036
1.97763
2.0143
2.05036
2.0858
2.12061
2.1548
2.18836
2.22127
2.25355
2.28518
2.31615
2.34648
2.37615
2.40516
2.43351
2.46119
2.48821
2.51457
2.54026
2.56528
2.58963
2.61331
2.63632
2.65867
2.68034
2.70135
2.72168
2.74135
2.76036
2.77869
2.79637
2.81337
2.82972
2.84541
2.86043
2.8748
2.88851
2.90157
2.91397
2.92572