/*--------------------------------*- C++ -*----------------------------------*\
  =========                 |
  \\      /  F ield         | OpenFOAM: The Open Source CFD Toolbox
   \\    /   O peration     | Website:  https://openfoam.org
    \\  /    A nd           | Version:  10
     \\/     M anipulation  |
\*---------------------------------------------------------------------------*/
FoamFile
{
    format      ascii;
    class       volScalarField;
    location    "38.5";
    object      T;
}
// * * * * * * * * * * * * * * * * * * * * * * * * * * * * * * * * * * * * * //

dimensions      [0 0 0 1 0 0 0];

internalField   nonuniform List<scalar> 
10000
(
374.988
361.3
356.627
354.583
353.477
352.782
352.3
351.943
351.665
351.441
351.255
351.097
350.961
350.842
350.736
350.64
350.553
350.474
350.4
350.332
350.268
350.208
350.152
350.098
350.047
349.998
349.952
349.907
349.864
349.823
349.783
349.745
349.707
349.671
349.636
349.602
349.569
349.536
349.505
349.474
349.445
349.416
349.387
349.359
349.332
349.306
349.28
349.255
349.231
349.207
349.183
349.16
349.138
349.116
349.095
349.074
349.054
349.034
349.015
348.996
348.978
348.96
348.943
348.926
348.91
348.894
348.879
348.864
348.85
348.836
348.822
348.809
348.797
348.785
348.773
348.762
348.751
348.741
348.731
348.722
348.713
348.705
348.697
348.689
348.682
348.676
348.669
348.664
348.659
348.654
348.649
348.646
348.642
348.639
348.637
348.635
348.633
348.632
348.631
348.631
388.624
374.886
367.251
362.809
360.02
358.134
356.776
355.749
354.94
354.283
353.736
353.27
352.867
352.512
352.196
351.911
351.652
351.414
351.195
350.991
350.8
350.621
350.451
350.291
350.138
349.993
349.853
349.72
349.591
349.467
349.348
349.232
349.12
349.012
348.907
348.804
348.705
348.608
348.514
348.422
348.333
348.246
348.161
348.078
347.997
347.918
347.84
347.765
347.691
347.619
347.549
347.481
347.414
347.348
347.285
347.222
347.162
347.103
347.045
346.989
346.934
346.881
346.829
346.779
346.73
346.683
346.637
346.592
346.549
346.507
346.467
346.428
346.39
346.354
346.319
346.286
346.254
346.223
346.194
346.166
346.139
346.114
346.09
346.067
346.046
346.027
346.008
345.991
345.975
345.961
345.948
345.937
345.926
345.917
345.91
345.904
345.899
345.895
345.893
345.893
393.247
382.369
374.684
369.383
365.661
362.957
360.922
359.336
358.064
357.017
356.137
355.382
354.724
354.144
353.625
353.157
352.73
352.338
351.975
351.638
351.322
351.025
350.744
350.478
350.224
349.982
349.751
349.528
349.315
349.109
348.91
348.718
348.532
348.351
348.176
348.006
347.84
347.679
347.523
347.37
347.221
347.076
346.934
346.796
346.661
346.529
346.401
346.275
346.152
346.032
345.916
345.801
345.69
345.581
345.475
345.371
345.27
345.172
345.076
344.982
344.891
344.803
344.716
344.633
344.551
344.472
344.396
344.321
344.249
344.18
344.113
344.048
343.985
343.925
343.866
343.811
343.757
343.706
343.657
343.611
343.566
343.524
343.485
343.447
343.412
343.379
343.348
343.32
343.294
343.27
343.248
343.229
343.212
343.197
343.184
343.174
343.166
343.16
343.157
343.156
395.24
386.659
379.731
374.38
370.283
367.113
364.618
362.611
360.964
359.586
358.412
357.396
356.506
355.715
355.005
354.362
353.774
353.233
352.732
352.264
351.826
351.413
351.023
350.653
350.3
349.963
349.64
349.331
349.032
348.745
348.468
348.199
347.939
347.687
347.443
347.205
346.974
346.749
346.53
346.316
346.108
345.905
345.707
345.513
345.325
345.14
344.961
344.785
344.613
344.446
344.282
344.122
343.966
343.814
343.666
343.521
343.379
343.242
343.107
342.976
342.849
342.725
342.605
342.487
342.373
342.263
342.156
342.052
341.951
341.854
341.759
341.669
341.581
341.496
341.415
341.337
341.262
341.191
341.122
341.057
340.995
340.936
340.881
340.828
340.779
340.733
340.69
340.65
340.614
340.58
340.55
340.523
340.499
340.478
340.461
340.446
340.435
340.427
340.422
340.42
396.296
389.297
383.201
378.124
373.976
370.597
367.825
365.527
363.596
361.951
360.53
359.287
358.189
357.206
356.32
355.513
354.774
354.091
353.456
352.863
352.306
351.782
351.285
350.812
350.362
349.932
349.52
349.123
348.742
348.374
348.019
347.675
347.342
347.019
346.705
346.4
346.104
345.815
345.534
345.26
344.993
344.733
344.478
344.23
343.988
343.751
343.52
343.295
343.074
342.859
342.649
342.444
342.243
342.048
341.857
341.671
341.489
341.312
341.14
340.972
340.808
340.649
340.494
340.343
340.197
340.055
339.917
339.784
339.654
339.529
339.408
339.291
339.179
339.07
338.966
338.866
338.77
338.678
338.59
338.506
338.426
338.351
338.279
338.212
338.148
338.089
338.034
337.983
337.936
337.893
337.854
337.819
337.789
337.762
337.74
337.721
337.707
337.696
337.69
337.688
396.94
391.031
385.652
380.94
376.902
373.472
370.56
368.077
365.943
364.092
362.47
361.036
359.756
358.604
357.557
356.6
355.718
354.902
354.141
353.428
352.758
352.124
351.524
350.953
350.408
349.886
349.386
348.905
348.441
347.994
347.562
347.144
346.738
346.345
345.963
345.592
345.231
344.879
344.536
344.202
343.876
343.559
343.248
342.946
342.65
342.361
342.08
341.804
341.535
341.273
341.016
340.766
340.521
340.283
340.05
339.823
339.601
339.385
339.174
338.969
338.769
338.575
338.386
338.202
338.023
337.849
337.681
337.518
337.36
337.207
337.06
336.917
336.779
336.647
336.519
336.397
336.28
336.167
336.06
335.958
335.86
335.768
335.681
335.598
335.521
335.449
335.381
335.319
335.261
335.209
335.162
335.119
335.082
335.049
335.021
334.999
334.981
334.969
334.961
334.958
397.371
392.238
387.436
383.083
379.22
375.83
372.868
370.279
368.008
366.005
364.225
362.633
361.199
359.896
358.707
357.613
356.601
355.66
354.78
353.954
353.175
352.438
351.738
351.07
350.433
349.822
349.236
348.672
348.129
347.604
347.096
346.604
346.128
345.665
345.215
344.778
344.353
343.938
343.535
343.141
342.757
342.383
342.017
341.66
341.311
340.971
340.639
340.314
339.997
339.687
339.384
339.089
338.8
338.519
338.244
337.975
337.714
337.459
337.21
336.968
336.732
336.503
336.279
336.062
335.851
335.646
335.448
335.255
335.069
334.888
334.714
334.545
334.383
334.226
334.076
333.931
333.793
333.66
333.533
333.413
333.298
333.189
333.086
332.988
332.897
332.812
332.732
332.658
332.591
332.529
332.473
332.423
332.378
332.34
332.307
332.281
332.26
332.245
332.236
332.232
397.679
393.114
388.769
384.738
381.066
377.76
374.804
372.165
369.808
367.696
365.794
364.075
362.51
361.079
359.763
358.546
357.415
356.359
355.369
354.436
353.554
352.718
351.922
351.162
350.436
349.739
349.069
348.424
347.802
347.201
346.619
346.055
345.508
344.977
344.461
343.959
343.47
342.994
342.529
342.077
341.635
341.204
340.784
340.373
339.972
339.58
339.197
338.823
338.458
338.101
337.753
337.412
337.08
336.756
336.439
336.13
335.829
335.535
335.248
334.969
334.698
334.433
334.176
333.926
333.683
333.447
333.218
332.996
332.781
332.573
332.372
332.178
331.99
331.81
331.636
331.47
331.31
331.157
331.011
330.872
330.739
330.614
330.495
330.383
330.277
330.179
330.087
330.002
329.924
329.853
329.788
329.73
329.679
329.635
329.598
329.567
329.543
329.526
329.515
329.511
397.906
393.772
389.791
386.034
382.545
379.343
376.423
373.771
371.364
369.177
367.184
365.363
363.691
362.15
360.724
359.397
358.158
356.997
355.903
354.871
353.892
352.962
352.074
351.226
350.414
349.633
348.883
348.159
347.46
346.784
346.129
345.495
344.879
344.281
343.699
343.133
342.581
342.044
341.52
341.009
340.51
340.024
339.548
339.084
338.631
338.188
337.755
337.333
336.92
336.516
336.122
335.737
335.361
334.995
334.636
334.287
333.946
333.613
333.289
332.973
332.666
332.367
332.075
331.792
331.517
331.25
330.991
330.74
330.497
330.261
330.034
329.814
329.602
329.398
329.201
329.013
328.832
328.659
328.493
328.336
328.186
328.044
327.909
327.782
327.663
327.551
327.448
327.352
327.263
327.182
327.109
327.044
326.986
326.936
326.893
326.858
326.831
326.812
326.8
326.796
398.08
394.279
390.587
387.061
383.74
380.644
377.777
375.134
372.703
370.466
368.406
366.504
364.744
363.11
361.587
360.164
358.828
357.57
356.382
355.256
354.186
353.167
352.193
351.26
350.365
349.504
348.675
347.875
347.101
346.352
345.627
344.923
344.24
343.575
342.929
342.299
341.686
341.089
340.506
339.937
339.382
338.84
338.311
337.794
337.289
336.795
336.313
335.842
335.382
334.932
334.493
334.064
333.644
333.235
332.836
332.446
332.065
331.695
331.333
330.981
330.638
330.304
329.979
329.663
329.356
329.058
328.769
328.488
328.217
327.954
327.7
327.455
327.218
326.99
326.771
326.561
326.359
326.166
325.981
325.805
325.638
325.479
325.329
325.187
325.054
324.93
324.814
324.706
324.608
324.518
324.436
324.363
324.298
324.242
324.195
324.156
324.126
324.104
324.091
324.086
398.216
394.676
391.218
387.886
384.712
381.716
378.908
376.288
373.849
371.581
369.471
367.507
365.675
363.962
362.356
360.846
359.423
358.078
356.803
355.591
354.436
353.332
352.276
351.262
350.288
349.35
348.445
347.57
346.725
345.905
345.11
344.339
343.589
342.86
342.15
341.459
340.785
340.128
339.487
338.861
338.25
337.654
337.071
336.502
335.946
335.402
334.871
334.352
333.844
333.349
332.864
332.391
331.929
331.478
331.037
330.607
330.188
329.779
329.38
328.991
328.613
328.244
327.886
327.537
327.199
326.87
326.551
326.242
325.942
325.652
325.372
325.101
324.84
324.589
324.347
324.115
323.892
323.678
323.475
323.28
323.096
322.92
322.755
322.598
322.452
322.314
322.186
322.068
321.959
321.859
321.769
321.689
321.617
321.556
321.503
321.46
321.427
321.403
321.388
321.383
398.324
394.993
391.724
388.553
385.506
382.603
379.854
377.262
374.826
372.539
370.394
368.381
366.49
364.71
363.032
361.447
359.946
358.521
357.166
355.873
354.639
353.456
352.322
351.232
350.182
349.169
348.191
347.245
346.329
345.441
344.579
343.741
342.927
342.134
341.362
340.61
339.876
339.161
338.462
337.781
337.115
336.464
335.829
335.208
334.601
334.008
333.428
332.861
332.307
331.766
331.237
330.72
330.216
329.723
329.241
328.772
328.313
327.866
327.431
327.006
326.592
326.19
325.798
325.417
325.047
324.687
324.338
324
323.673
323.356
323.049
322.753
322.468
322.193
321.929
321.675
321.431
321.198
320.975
320.763
320.56
320.369
320.188
320.017
319.856
319.706
319.566
319.436
319.317
319.208
319.11
319.022
318.944
318.876
318.819
318.772
318.735
318.709
318.693
318.687
398.41
395.247
392.133
389.096
386.158
383.338
380.644
378.084
375.656
373.36
371.189
369.137
367.197
365.361
363.62
361.968
360.397
358.9
357.471
356.105
354.796
353.539
352.331
351.168
350.046
348.962
347.914
346.899
345.915
344.96
344.032
343.13
342.252
341.397
340.565
339.752
338.96
338.187
337.433
336.695
335.975
335.272
334.584
333.912
333.255
332.613
331.985
331.371
330.771
330.185
329.612
329.052
328.505
327.97
327.449
326.939
326.443
325.958
325.485
325.025
324.576
324.139
323.715
323.301
322.9
322.51
322.131
321.765
321.409
321.065
320.733
320.412
320.102
319.804
319.517
319.241
318.977
318.724
318.482
318.252
318.033
317.825
317.628
317.442
317.268
317.105
316.953
316.813
316.683
316.565
316.458
316.363
316.278
316.205
316.143
316.092
316.052
316.023
316.006
316
398.48
395.454
392.466
389.54
386.696
383.947
381.304
378.774
376.358
374.057
371.868
369.785
367.805
365.92
364.125
362.413
360.779
359.217
357.721
356.285
354.907
353.581
352.303
351.07
349.88
348.728
347.612
346.53
345.481
344.461
343.469
342.505
341.565
340.65
339.757
338.887
338.037
337.207
336.397
335.606
334.832
334.076
333.337
332.615
331.908
331.217
330.542
329.882
329.236
328.605
327.988
327.385
326.796
326.221
325.659
325.111
324.575
324.053
323.544
323.048
322.565
322.094
321.637
321.191
320.759
320.338
319.931
319.535
319.152
318.782
318.424
318.078
317.744
317.422
317.113
316.816
316.531
316.258
315.997
315.749
315.513
315.288
315.076
314.876
314.689
314.513
314.349
314.198
314.058
313.931
313.815
313.712
313.621
313.542
313.475
313.42
313.377
313.347
313.328
313.321
398.537
395.622
392.739
389.905
387.139
384.452
381.854
379.352
376.95
374.647
372.443
370.336
368.321
366.395
364.552
362.787
361.096
359.474
357.915
356.417
354.973
353.582
352.238
350.94
349.683
348.466
347.285
346.14
345.026
343.944
342.891
341.865
340.865
339.891
338.94
338.012
337.106
336.221
335.356
334.511
333.685
332.877
332.088
331.315
330.56
329.821
329.099
328.392
327.702
327.026
326.366
325.721
325.09
324.475
323.873
323.286
322.713
322.154
321.608
321.077
320.559
320.055
319.565
319.088
318.624
318.174
317.737
317.313
316.903
316.506
316.122
315.751
315.393
315.048
314.717
314.398
314.093
313.8
313.521
313.255
313.001
312.761
312.534
312.319
312.118
311.93
311.754
311.592
311.442
311.306
311.182
311.071
310.974
310.889
310.817
310.758
310.712
310.679
310.659
310.652
398.584
395.76
392.961
390.205
387.504
384.869
382.311
379.834
377.444
375.141
372.927
370.798
368.754
366.791
364.905
363.093
361.351
359.673
358.058
356.5
354.996
353.542
352.137
350.776
349.457
348.177
346.934
345.727
344.552
343.409
342.296
341.21
340.152
339.12
338.112
337.128
336.167
335.227
334.309
333.412
332.534
331.675
330.836
330.014
329.211
328.425
327.656
326.904
326.169
325.45
324.747
324.059
323.388
322.732
322.091
321.465
320.854
320.259
319.677
319.111
318.559
318.022
317.499
316.99
316.496
316.016
315.55
315.098
314.661
314.237
313.827
313.432
313.05
312.683
312.329
311.989
311.664
311.352
311.054
310.77
310.499
310.243
310
309.772
309.557
309.356
309.169
308.995
308.836
308.69
308.558
308.44
308.336
308.246
308.169
308.106
308.057
308.022
308.001
307.993
398.622
395.872
393.144
390.45
387.804
385.214
382.688
380.234
377.854
375.552
373.328
371.181
369.111
367.116
365.192
363.336
361.546
359.819
358.15
356.537
354.976
353.465
352
350.58
349.201
347.861
346.559
345.292
344.058
342.856
341.685
340.542
339.427
338.338
337.275
336.236
335.22
334.228
333.257
332.308
331.379
330.47
329.582
328.712
327.861
327.028
326.214
325.417
324.637
323.875
323.13
322.401
321.689
320.993
320.313
319.649
319.001
318.369
317.752
317.151
316.565
315.995
315.44
314.9
314.375
313.865
313.371
312.891
312.426
311.977
311.542
311.122
310.717
310.326
309.951
309.59
309.244
308.913
308.596
308.294
308.007
307.735
307.477
307.234
307.006
306.793
306.594
306.41
306.24
306.086
305.945
305.82
305.709
305.613
305.532
305.465
305.413
305.376
305.353
305.345
398.653
395.963
393.292
390.651
388.049
385.496
382.998
380.562
378.191
375.888
373.656
371.493
369.4
367.375
365.416
363.521
361.688
359.913
358.195
356.53
354.915
353.349
351.829
350.352
348.916
347.519
346.16
344.835
343.544
342.286
341.057
339.859
338.688
337.544
336.427
335.334
334.266
333.221
332.199
331.199
330.22
329.263
328.325
327.408
326.51
325.632
324.772
323.931
323.108
322.303
321.516
320.746
319.993
319.258
318.54
317.838
317.153
316.485
315.833
315.197
314.578
313.975
313.388
312.817
312.262
311.723
311.2
310.693
310.201
309.725
309.265
308.821
308.392
307.979
307.582
307.2
306.834
306.484
306.149
305.829
305.526
305.238
304.965
304.708
304.466
304.24
304.03
303.835
303.656
303.492
303.344
303.211
303.094
302.992
302.906
302.836
302.781
302.741
302.717
302.708
398.678
396.037
393.413
390.814
388.248
385.724
383.249
380.827
378.463
376.16
373.919
371.741
369.626
367.574
365.583
363.651
361.777
359.959
358.194
356.481
354.816
353.198
351.625
350.094
348.604
347.152
345.737
344.357
343.011
341.698
340.415
339.162
337.937
336.74
335.569
334.424
333.304
332.208
331.136
330.086
329.058
328.052
327.067
326.103
325.16
324.236
323.331
322.446
321.581
320.733
319.905
319.094
318.302
317.528
316.771
316.032
315.311
314.607
313.92
313.251
312.598
311.962
311.344
310.742
310.157
309.589
309.038
308.503
307.985
307.483
306.998
306.53
306.078
305.642
305.224
304.821
304.435
304.065
303.712
303.376
303.055
302.751
302.464
302.193
301.938
301.7
301.478
301.272
301.083
300.911
300.754
300.614
300.491
300.383
300.293
300.218
300.16
300.118
300.093
300.084
398.698
396.097
393.51
390.944
388.408
385.907
383.45
381.039
378.679
376.374
374.124
371.931
369.796
367.718
365.697
363.731
361.82
359.961
358.152
356.393
354.681
353.013
351.389
349.807
348.264
346.76
345.292
343.859
342.46
341.093
339.757
338.451
337.174
335.924
334.702
333.506
332.336
331.189
330.067
328.969
327.893
326.839
325.808
324.798
323.809
322.84
321.892
320.964
320.055
319.167
318.297
317.447
316.615
315.802
315.008
314.232
313.475
312.736
312.014
311.311
310.625
309.958
309.308
308.676
308.061
307.464
306.885
306.323
305.778
305.251
304.741
304.249
303.774
303.316
302.876
302.453
302.047
301.659
301.287
300.933
300.597
300.277
299.975
299.69
299.422
299.172
298.938
298.722
298.523
298.342
298.177
298.03
297.9
297.787
297.692
297.614
297.553
297.509
297.482
297.473
398.714
396.144
393.586
391.047
388.533
386.051
383.607
381.204
378.846
376.536
374.277
372.07
369.915
367.813
365.763
363.765
361.818
359.92
358.071
356.268
354.51
352.796
351.124
349.492
347.9
346.344
344.825
343.341
341.89
340.471
339.084
337.727
336.399
335.099
333.826
332.58
331.36
330.165
328.994
327.848
326.725
325.625
324.547
323.491
322.458
321.445
320.454
319.483
318.533
317.603
316.694
315.804
314.933
314.082
313.251
312.439
311.645
310.871
310.116
309.379
308.661
307.962
307.281
306.618
305.974
305.349
304.742
304.153
303.582
303.03
302.495
301.979
301.481
301.002
300.54
300.096
299.671
299.264
298.875
298.503
298.15
297.815
297.498
297.2
296.919
296.656
296.412
296.185
295.977
295.786
295.614
295.459
295.323
295.205
295.105
295.023
294.959
294.913
294.885
294.875
398.726
396.18
393.645
391.126
388.63
386.161
383.725
381.327
378.969
376.654
374.385
372.163
369.989
367.863
365.786
363.757
361.776
359.841
357.952
356.108
354.307
352.548
350.83
349.151
347.51
345.906
344.338
342.804
341.303
339.835
338.397
336.99
335.612
334.263
332.941
331.646
330.377
329.134
327.917
326.723
325.554
324.408
323.285
322.185
321.107
320.052
319.018
318.005
317.014
316.044
315.094
314.165
313.257
312.368
311.5
310.651
309.823
309.014
308.225
307.455
306.705
305.974
305.263
304.57
303.897
303.244
302.609
301.993
301.397
300.819
300.26
299.721
299.2
298.699
298.216
297.752
297.307
296.881
296.474
296.086
295.717
295.367
295.035
294.723
294.429
294.154
293.899
293.662
293.444
293.244
293.064
292.903
292.76
292.636
292.532
292.446
292.379
292.331
292.302
292.291
398.735
396.207
393.689
391.185
388.701
386.241
383.811
381.414
379.053
376.732
374.451
372.214
370.021
367.872
365.769
363.71
361.696
359.726
357.8
355.916
354.074
352.272
350.509
348.785
347.098
345.447
343.831
342.249
340.7
339.183
337.697
336.241
334.815
333.417
332.047
330.705
329.389
328.099
326.835
325.595
324.38
323.19
322.023
320.879
319.758
318.66
317.584
316.53
315.498
314.488
313.499
312.532
311.585
310.66
309.755
308.871
308.008
307.165
306.342
305.54
304.758
303.996
303.254
302.532
301.831
301.149
300.487
299.845
299.222
298.62
298.037
297.475
296.932
296.408
295.905
295.421
294.957
294.512
294.088
293.683
293.297
292.932
292.586
292.26
291.954
291.667
291.4
291.153
290.925
290.717
290.529
290.361
290.212
290.083
289.974
289.884
289.814
289.764
289.733
289.722
398.742
396.227
393.72
391.226
388.75
386.295
383.867
381.469
379.104
376.774
374.481
372.228
370.016
367.844
365.715
363.628
361.582
359.579
357.616
355.694
353.812
351.968
350.163
348.395
346.663
344.967
343.305
341.676
340.081
338.516
336.983
335.481
334.007
332.562
331.146
329.757
328.395
327.059
325.749
324.465
323.205
321.97
320.76
319.573
318.41
317.27
316.153
315.058
313.986
312.937
311.909
310.904
309.92
308.958
308.018
307.099
306.201
305.324
304.469
303.634
302.82
302.028
301.256
300.505
299.775
299.065
298.376
297.708
297.06
296.433
295.827
295.241
294.676
294.131
293.607
293.103
292.62
292.157
291.715
291.293
290.892
290.511
290.151
289.812
289.493
289.194
288.916
288.659
288.422
288.205
288.009
287.834
287.679
287.545
287.431
287.337
287.265
287.212
287.181
287.169
398.746
396.239
393.739
391.251
388.779
386.327
383.898
381.496
379.124
376.784
374.478
372.209
369.977
367.783
365.628
363.513
361.437
359.4
357.403
355.444
353.523
351.64
349.794
347.983
346.208
344.468
342.761
341.088
339.447
337.837
336.258
334.709
333.19
331.699
330.237
328.803
327.395
326.015
324.66
323.332
322.029
320.751
319.497
318.268
317.063
315.882
314.724
313.59
312.479
311.391
310.325
309.282
308.262
307.264
306.288
305.334
304.402
303.492
302.604
301.738
300.893
300.07
299.268
298.488
297.73
296.993
296.277
295.583
294.91
294.259
293.629
293.02
292.433
291.867
291.322
290.799
290.297
289.816
289.357
288.918
288.502
288.106
287.732
287.379
287.047
286.737
286.448
286.18
285.934
285.709
285.505
285.323
285.162
285.022
284.904
284.807
284.732
284.677
284.644
284.632
398.748
396.245
393.749
391.263
388.792
386.338
383.906
381.498
379.117
376.766
374.446
372.16
369.908
367.692
365.512
363.369
361.263
359.194
357.163
355.168
353.21
351.288
349.402
347.551
345.734
343.951
342.202
340.484
338.799
337.145
335.521
333.928
332.364
330.829
329.322
327.843
326.391
324.967
323.569
322.197
320.851
319.53
318.235
316.964
315.718
314.497
313.299
312.126
310.976
309.849
308.746
307.667
306.61
305.576
304.566
303.577
302.612
301.669
300.749
299.851
298.976
298.123
297.292
296.483
295.697
294.933
294.191
293.471
292.774
292.098
291.445
290.814
290.204
289.617
289.052
288.51
287.989
287.49
287.013
286.559
286.127
285.716
285.328
284.962
284.618
284.296
283.996
283.718
283.463
283.229
283.018
282.829
282.662
282.517
282.394
282.294
282.215
282.159
282.125
282.112
398.748
396.246
393.75
391.264
388.79
386.332
383.894
381.478
379.087
376.723
374.388
372.084
369.812
367.573
365.368
363.198
361.062
358.963
356.898
354.869
352.875
350.916
348.991
347.1
345.243
343.418
341.627
339.867
338.139
336.441
334.774
333.137
331.529
329.951
328.4
326.878
325.383
323.916
322.475
321.061
319.673
318.311
316.974
315.663
314.376
313.115
311.878
310.666
309.478
308.314
307.174
306.058
304.966
303.897
302.852
301.83
300.831
299.856
298.904
297.975
297.069
296.187
295.327
294.49
293.676
292.886
292.118
291.373
290.65
289.951
289.275
288.621
287.99
287.383
286.798
286.235
285.696
285.18
284.686
284.215
283.768
283.343
282.94
282.561
282.205
281.872
281.561
281.273
281.009
280.767
280.548
280.352
280.179
280.029
279.902
279.798
279.716
279.658
279.623
279.61
398.747
396.243
393.744
391.253
388.774
386.311
383.864
381.438
379.035
376.657
374.306
371.984
369.691
367.429
365.199
363.002
360.838
358.708
356.611
354.548
352.519
350.523
348.56
346.631
344.734
342.87
341.037
339.236
337.466
335.727
334.017
332.338
330.688
329.066
327.473
325.909
324.372
322.862
321.379
319.924
318.494
317.091
315.714
314.363
313.037
311.737
310.462
309.211
307.986
306.785
305.609
304.457
303.329
302.226
301.147
300.092
299.06
298.053
297.07
296.11
295.174
294.262
293.374
292.51
291.669
290.851
290.058
289.288
288.541
287.818
287.119
286.444
285.791
285.163
284.558
283.977
283.419
282.885
282.375
281.888
281.425
280.986
280.57
280.178
279.809
279.465
279.143
278.846
278.572
278.322
278.096
277.893
277.714
277.559
277.427
277.32
277.236
277.175
277.139
277.125
398.745
396.235
393.731
391.234
388.748
386.275
383.819
381.382
378.965
376.572
374.204
371.862
369.548
367.263
365.008
362.785
360.592
358.432
356.303
354.207
352.143
350.112
348.113
346.146
344.211
342.307
340.435
338.594
336.783
335.002
333.252
331.531
329.839
328.176
326.542
324.935
323.357
321.806
320.283
318.786
317.317
315.874
314.457
313.066
311.702
310.363
309.05
307.762
306.5
305.262
304.05
302.863
301.701
300.564
299.451
298.363
297.3
296.261
295.247
294.257
293.292
292.351
291.434
290.542
289.674
288.831
288.012
287.217
286.447
285.7
284.979
284.281
283.608
282.959
282.335
281.735
281.159
280.608
280.081
279.578
279.1
278.646
278.217
277.812
277.432
277.075
276.744
276.437
276.154
275.896
275.662
275.453
275.268
275.108
274.972
274.86
274.774
274.711
274.673
274.66
398.741
396.224
393.711
391.206
388.711
386.228
383.76
381.309
378.878
376.468
374.082
371.721
369.385
367.077
364.797
362.547
360.326
358.136
355.977
353.848
351.751
349.685
347.65
345.646
343.674
341.732
339.821
337.94
336.09
334.269
332.478
330.717
328.984
327.281
325.606
323.959
322.34
320.749
319.185
317.649
316.14
314.658
313.202
311.773
310.37
308.994
307.643
306.319
305.02
303.747
302.5
301.278
300.082
298.911
297.765
296.645
295.55
294.48
293.435
292.415
291.421
290.452
289.507
288.588
287.694
286.825
285.98
285.161
284.367
283.598
282.854
282.135
281.441
280.772
280.128
279.51
278.916
278.348
277.804
277.286
276.793
276.325
275.882
275.465
275.072
274.705
274.363
274.046
273.755
273.488
273.247
273.031
272.841
272.675
272.535
272.42
272.331
272.267
272.228
272.214
398.736
396.209
393.687
391.171
388.665
386.169
383.688
381.223
378.776
376.349
373.944
371.562
369.205
366.873
364.568
362.291
360.043
357.823
355.633
353.473
351.342
349.242
347.172
345.133
343.124
341.145
339.196
337.277
335.388
333.528
331.698
329.897
328.125
326.381
324.667
322.98
321.321
319.691
318.088
316.513
314.965
313.444
311.95
310.483
309.043
307.629
306.242
304.882
303.547
302.239
300.957
299.701
298.471
297.267
296.089
294.937
293.811
292.71
291.636
290.587
289.563
288.566
287.594
286.648
285.728
284.833
283.964
283.121
282.303
281.512
280.746
280.005
279.291
278.602
277.939
277.302
276.691
276.105
275.546
275.012
274.504
274.022
273.566
273.136
272.732
272.354
272.001
271.675
271.375
271.1
270.852
270.63
270.433
270.263
270.119
270
269.908
269.842
269.802
269.787
398.731
396.192
393.658
391.13
388.61
386.102
383.606
381.125
378.661
376.216
373.791
371.388
369.008
366.653
364.323
362.02
359.743
357.495
355.274
353.082
350.92
348.786
346.682
344.607
342.562
340.547
338.561
336.605
334.678
332.78
330.911
329.072
327.261
325.478
323.725
321.999
320.302
318.633
316.991
315.378
313.792
312.233
310.702
309.198
307.721
306.271
304.848
303.451
302.082
300.739
299.423
298.134
296.871
295.634
294.424
293.241
292.084
290.953
289.849
288.771
287.719
286.694
285.695
284.723
283.776
282.857
281.963
281.096
280.256
279.442
278.654
277.893
277.158
276.45
275.768
275.112
274.484
273.882
273.306
272.757
272.234
271.739
271.27
270.827
270.411
270.022
269.66
269.324
269.015
268.733
268.477
268.248
268.046
267.871
267.723
267.601
267.506
267.438
267.397
267.382
398.724
396.173
393.625
391.083
388.549
386.025
383.513
381.016
378.534
376.07
373.625
371.2
368.798
366.418
364.063
361.733
359.429
357.152
354.901
352.679
350.484
348.318
346.18
344.071
341.991
339.94
337.918
335.925
333.961
332.026
330.119
328.242
326.393
324.573
322.781
321.017
319.282
317.575
315.896
314.245
312.621
311.026
309.457
307.917
306.404
304.918
303.46
302.029
300.625
299.248
297.899
296.576
295.281
294.012
292.771
291.556
290.369
289.208
288.075
286.968
285.889
284.836
283.811
282.812
281.841
280.896
279.979
279.088
278.225
277.389
276.58
275.798
275.043
274.315
273.615
272.941
272.295
271.677
271.085
270.521
269.984
269.475
268.993
268.538
268.111
267.711
267.339
266.994
266.676
266.386
266.123
265.888
265.681
265.5
265.348
265.223
265.125
265.055
265.013
264.998
398.717
396.151
393.588
391.031
388.482
385.941
383.413
380.897
378.396
375.912
373.446
371
368.574
366.171
363.79
361.434
359.102
356.796
354.516
352.263
350.037
347.838
345.668
343.525
341.411
339.325
337.267
335.238
333.238
331.266
329.323
327.408
325.522
323.665
321.836
320.035
318.263
316.518
314.802
313.114
311.454
309.822
308.218
306.642
305.093
303.572
302.079
300.614
299.176
297.766
296.384
295.029
293.701
292.401
291.129
289.884
288.667
287.477
286.315
285.18
284.073
282.994
281.942
280.918
279.921
278.952
278.011
277.097
276.211
275.353
274.523
273.721
272.946
272.199
271.48
270.789
270.126
269.491
268.884
268.305
267.754
267.231
266.737
266.27
265.831
265.421
265.038
264.684
264.358
264.06
263.791
263.549
263.336
263.151
262.995
262.866
262.766
262.694
262.651
262.635
398.709
396.127
393.549
390.975
388.409
385.851
383.304
380.77
378.249
375.745
373.258
370.789
368.34
365.912
363.506
361.123
358.764
356.429
354.12
351.837
349.58
347.349
345.146
342.97
340.822
338.702
336.61
334.546
332.51
330.502
328.523
326.572
324.65
322.756
320.89
319.053
317.244
315.463
313.711
311.987
310.291
308.623
306.984
305.372
303.789
302.234
300.707
299.208
297.737
296.294
294.879
293.492
292.133
290.802
289.499
288.225
286.978
285.759
284.569
283.406
282.272
281.166
280.089
279.039
278.018
277.025
276.06
275.124
274.216
273.336
272.485
271.662
270.868
270.103
269.366
268.657
267.978
267.326
266.704
266.11
265.545
265.009
264.501
264.023
263.573
263.152
262.76
262.397
262.062
261.757
261.48
261.233
261.014
260.825
260.664
260.532
260.43
260.356
260.311
260.295
398.7
396.102
393.506
390.915
388.331
385.755
383.189
380.635
378.094
375.569
373.059
370.568
368.095
365.643
363.211
360.802
358.415
356.053
353.714
351.401
349.114
346.852
344.617
342.408
340.227
338.073
335.947
333.848
331.778
329.735
327.72
325.734
323.776
321.846
319.945
318.072
316.227
314.411
312.623
310.864
309.132
307.43
305.756
304.11
302.492
300.903
299.343
297.81
296.307
294.831
293.385
291.966
290.576
289.215
287.882
286.578
285.303
284.056
282.837
281.648
280.487
279.355
278.251
277.177
276.131
275.115
274.127
273.168
272.238
271.338
270.466
269.623
268.81
268.026
267.271
266.545
265.849
265.182
264.544
263.936
263.357
262.808
262.288
261.798
261.337
260.905
260.504
260.131
259.789
259.476
259.193
258.939
258.715
258.521
258.356
258.221
258.116
258.04
257.994
257.978
398.692
396.075
393.461
390.852
388.249
385.653
383.068
380.494
377.932
375.385
372.853
370.338
367.842
365.364
362.907
360.472
358.058
355.667
353.3
350.957
348.639
346.347
344.08
341.84
339.626
337.439
335.279
333.147
331.042
328.965
326.916
324.895
322.902
320.937
319
317.092
315.213
313.361
311.539
309.745
307.979
306.242
304.534
302.854
301.203
299.581
297.987
296.423
294.887
293.38
291.902
290.452
289.032
287.641
286.279
284.946
283.642
282.367
281.121
279.905
278.717
277.56
276.431
275.332
274.263
273.223
272.212
271.231
270.28
269.358
268.466
267.604
266.772
265.969
265.197
264.454
263.742
263.059
262.406
261.784
261.191
260.629
260.097
259.595
259.123
258.681
258.27
257.889
257.538
257.218
256.928
256.668
256.439
256.24
256.072
255.934
255.826
255.748
255.701
255.685
398.682
396.046
393.414
390.785
388.163
385.548
382.942
380.347
377.764
375.194
372.64
370.102
367.581
365.078
362.596
360.133
357.693
355.274
352.878