/*--------------------------------*- C++ -*----------------------------------*\
  =========                 |
  \\      /  F ield         | OpenFOAM: The Open Source CFD Toolbox
   \\    /   O peration     | Website:  https://openfoam.org
    \\  /    A nd           | Version:  10
     \\/     M anipulation  |
\*---------------------------------------------------------------------------*/
FoamFile
{
    format      ascii;
    class       volScalarField;
    location    "38.5";
    object      T_0;
}
// * * * * * * * * * * * * * * * * * * * * * * * * * * * * * * * * * * * * * //

dimensions      [0 0 0 1 0 0 0];

internalField   nonuniform List<scalar> 
10000
(
374.986
361.3
356.627
354.582
353.477
352.782
352.3
351.942
351.664
351.44
351.254
351.097
350.961
350.841
350.735
350.639
350.553
350.473
350.4
350.331
350.267
350.208
350.151
350.097
350.046
349.998
349.951
349.907
349.864
349.822
349.782
349.744
349.707
349.67
349.635
349.601
349.568
349.536
349.504
349.474
349.444
349.415
349.386
349.359
349.332
349.305
349.28
349.254
349.23
349.206
349.182
349.16
349.137
349.115
349.094
349.073
349.053
349.034
349.014
348.996
348.977
348.96
348.942
348.926
348.909
348.894
348.878
348.863
348.849
348.835
348.821
348.808
348.796
348.784
348.772
348.761
348.75
348.74
348.73
348.721
348.712
348.704
348.696
348.688
348.681
348.675
348.669
348.663
348.658
348.653
348.649
348.645
348.641
348.638
348.636
348.634
348.632
348.631
348.63
348.63
388.624
374.886
367.251
362.809
360.02
358.134
356.776
355.749
354.94
354.283
353.736
353.27
352.867
352.512
352.195
351.911
351.652
351.414
351.195
350.991
350.8
350.62
350.451
350.291
350.138
349.992
349.853
349.719
349.591
349.467
349.347
349.232
349.12
349.011
348.906
348.804
348.704
348.608
348.513
348.422
348.332
348.245
348.16
348.077
347.996
347.917
347.839
347.764
347.69
347.618
347.548
347.48
347.413
347.347
347.284
347.221
347.161
347.102
347.044
346.988
346.933
346.88
346.828
346.778
346.729
346.682
346.636
346.591
346.548
346.506
346.466
346.427
346.389
346.353
346.318
346.285
346.252
346.222
346.192
346.164
346.138
346.113
346.089
346.066
346.045
346.025
346.007
345.99
345.974
345.96
345.947
345.935
345.925
345.916
345.909
345.902
345.898
345.894
345.892
345.891
393.246
382.369
374.683
369.383
365.661
362.957
360.922
359.336
358.064
357.017
356.136
355.381
354.724
354.143
353.624
353.156
352.729
352.337
351.974
351.637
351.321
351.024
350.743
350.477
350.223
349.981
349.75
349.527
349.314
349.108
348.909
348.717
348.53
348.35
348.175
348.005
347.839
347.678
347.521
347.368
347.22
347.074
346.933
346.794
346.659
346.528
346.399
346.273
346.151
346.031
345.914
345.8
345.688
345.579
345.473
345.369
345.268
345.17
345.074
344.98
344.889
344.801
344.714
344.631
344.549
344.47
344.394
344.319
344.247
344.178
344.11
344.045
343.983
343.922
343.864
343.809
343.755
343.704
343.655
343.608
343.564
343.522
343.482
343.445
343.41
343.377
343.346
343.318
343.291
343.268
343.246
343.227
343.209
343.195
343.182
343.172
343.164
343.158
343.155
343.153
395.24
386.659
379.731
374.38
370.282
367.113
364.617
362.611
360.964
359.585
358.411
357.396
356.505
355.714
355.004
354.361
353.773
353.232
352.731
352.263
351.825
351.412
351.022
350.651
350.299
349.962
349.639
349.329
349.031
348.743
348.466
348.198
347.938
347.685
347.441
347.203
346.972
346.747
346.528
346.314
346.106
345.903
345.705
345.511
345.322
345.138
344.958
344.782
344.611
344.443
344.28
344.12
343.964
343.812
343.663
343.518
343.377
343.239
343.105
342.974
342.846
342.722
342.602
342.484
342.371
342.26
342.153
342.049
341.948
341.851
341.756
341.665
341.578
341.493
341.412
341.334
341.259
341.188
341.119
341.054
340.992
340.933
340.878
340.825
340.776
340.73
340.687
340.647
340.61
340.577
340.547
340.52
340.496
340.475
340.457
340.443
340.432
340.424
340.419
340.417
396.295
389.297
383.201
378.124
373.976
370.596
367.825
365.527
363.595
361.95
360.529
359.287
358.188
357.205
356.319
355.512
354.772
354.089
353.455
352.862
352.305
351.78
351.283
350.811
350.361
349.93
349.518
349.121
348.74
348.372
348.017
347.673
347.34
347.017
346.703
346.398
346.102
345.813
345.532
345.258
344.99
344.73
344.475
344.227
343.985
343.748
343.517
343.292
343.071
342.856
342.646
342.441
342.24
342.045
341.854
341.668
341.486
341.309
341.136
340.968
340.805
340.645
340.49
340.34
340.193
340.051
339.914
339.78
339.651
339.525
339.404
339.288
339.175
339.066
338.962
338.862
338.766
338.674
338.586
338.502
338.422
338.347
338.275
338.208
338.144
338.085
338.03
337.979
337.932
337.889
337.85
337.815
337.785
337.758
337.735
337.717
337.702
337.692
337.686
337.683
396.939
391.031
385.652
380.94
376.902
373.471
370.56
368.077
365.942
364.091
362.47
361.035
359.755
358.602
357.556
356.598
355.717
354.9
354.139
353.426
352.756
352.123
351.522
350.951
350.406
349.884
349.383
348.902
348.439
347.992
347.56
347.141
346.736
346.342
345.96
345.589
345.228
344.876
344.533
344.199
343.873
343.555
343.245
342.942
342.647
342.358
342.076
341.801
341.532
341.269
341.012
340.762
340.517
340.279
340.046
339.818
339.597
339.381
339.17
338.965
338.765
338.57
338.381
338.197
338.018
337.845
337.677
337.514
337.356
337.203
337.055
336.912
336.775
336.642
336.515
336.392
336.275
336.162
336.055
335.953
335.855
335.763
335.676
335.593
335.516
335.443
335.376
335.314
335.256
335.204
335.156
335.114
335.076
335.044
335.016
334.994
334.976
334.963
334.956
334.953
397.371
392.238
387.435
383.083
379.219
375.829
372.867
370.279
368.008
366.004
364.224
362.632
361.197
359.895
358.705
357.611
356.599
355.658
354.778
353.952
353.173
352.436
351.735
351.068
350.431
349.82
349.234
348.669
348.126
347.601
347.093
346.601
346.124
345.662
345.212
344.775
344.349
343.935
343.531
343.137
342.753
342.379
342.013
341.656
341.307
340.967
340.634
340.31
339.992
339.682
339.38
339.084
338.796
338.514
338.239
337.971
337.709
337.454
337.205
336.963
336.727
336.497
336.274
336.057
335.846
335.641
335.442
335.25
335.063
334.883
334.708
334.54
334.377
334.221
334.07
333.926
333.787
333.654
333.528
333.407
333.292
333.183
333.08
332.982
332.891
332.806
332.726
332.652
332.585
332.523
332.467
332.416
332.372
332.334
332.301
332.274
332.254
332.239
332.23
332.226
397.678
393.114
388.769
384.737
381.065
377.76
374.803
372.164
369.807
367.694
365.793
364.073
362.509
361.078
359.762
358.544
357.413
356.357
355.367
354.434
353.552
352.715
351.919
351.16
350.433
349.736
349.066
348.421
347.799
347.197
346.615
346.051
345.504
344.973
344.457
343.955
343.466
342.989
342.525
342.073
341.631
341.2
340.779
340.368
339.967
339.575
339.192
338.818
338.453
338.096
337.748
337.407
337.075
336.75
336.434
336.125
335.823
335.529
335.243
334.964
334.692
334.427
334.17
333.92
333.676
333.44
333.211
332.989
332.774
332.566
332.365
332.171
331.984
331.803
331.63
331.463
331.303
331.151
331.004
330.865
330.733
330.607
330.488
330.376
330.271
330.172
330.08
329.995
329.917
329.846
329.781
329.724
329.672
329.628
329.591
329.56
329.536
329.519
329.508
329.504
397.906
393.772
389.79
386.033
382.545
379.342
376.423
373.77
371.363
369.176
367.183
365.361
363.69
362.149
360.722
359.395
358.156
356.994
355.901
354.868
353.889
352.959
352.071
351.223
350.411
349.63
348.879
348.155
347.456
346.78
346.126
345.491
344.875
344.276
343.694
343.128
342.577
342.039
341.515
341.004
340.505
340.019
339.543
339.079
338.626
338.183
337.75
337.327
336.914
336.511
336.116
335.731
335.355
334.988
334.63
334.28
333.939
333.607
333.283
332.967
332.659
332.36
332.069
331.785
331.51
331.243
330.984
330.733
330.489
330.254
330.026
329.807
329.595
329.39
329.194
329.005
328.824
328.651
328.486
328.328
328.178
328.036
327.901
327.774
327.655
327.544
327.44
327.344
327.255
327.174
327.101
327.036
326.978
326.928
326.885
326.851
326.823
326.804
326.792
326.788
398.08
394.279
390.587
387.061
383.74
380.643
377.776
375.133
372.701
370.465
368.404
366.503
364.742
363.108
361.585
360.161
358.825
357.567
356.379
355.253
354.183
353.164
352.19
351.257
350.361
349.501
348.671
347.871
347.097
346.348
345.623
344.919
344.235
343.57
342.924
342.294
341.681
341.083
340.5
339.932
339.376
338.834
338.305
337.788
337.283
336.789
336.307
335.836
335.375
334.926
334.486
334.057
333.638
333.228
332.829
332.439
332.058
331.687
331.326
330.973
330.63
330.296
329.971
329.655
329.348
329.05
328.761
328.48
328.209
327.946
327.692
327.447
327.21
326.982
326.763
326.552
326.351
326.157
325.973
325.797
325.629
325.47
325.32
325.178
325.045
324.921
324.805
324.698
324.599
324.509
324.427
324.354
324.289
324.233
324.186
324.147
324.117
324.095
324.082
324.077
398.216
394.676
391.218
387.885
384.711
381.715
378.907
376.287
373.847
371.579
369.469
367.505
365.673
363.96
362.353
360.844
359.421
358.075
356.8
355.587
354.432
353.329
352.272
351.259
350.284
349.346
348.441
347.566
346.72
345.9
345.106
344.334
343.584
342.855
342.145
341.453
340.779
340.122
339.481
338.855
338.244
337.647
337.065
336.495
335.939
335.395
334.864
334.345
333.837
333.341
332.857
332.384
331.922
331.47
331.03
330.6
330.18
329.771
329.372
328.983
328.605
328.236
327.878
327.529
327.19
326.861
326.542
326.233
325.933
325.643
325.363
325.092
324.831
324.58
324.338
324.105
323.882
323.669
323.465
323.271
323.086
322.911
322.745
322.589
322.442
322.305
322.177
322.058
321.949
321.85
321.759
321.679
321.608
321.546
321.493
321.451
321.417
321.393
321.378
321.373
398.323
394.993
391.724
388.552
385.505
382.602
379.853
377.261
374.824
372.538
370.392
368.379
366.488
364.708
363.03
361.444
359.943
358.518
357.162
355.87
354.635
353.453
352.318
351.228
350.178
349.165
348.187
347.241
346.324
345.436
344.574
343.736
342.921
342.128
341.356
340.604
339.87
339.154
338.456
337.774
337.108
336.457
335.822
335.201
334.594
334
333.42
332.854
332.3
331.758
331.229
330.712
330.207
329.714
329.233
328.763
328.305
327.858
327.422
326.997
326.583
326.181
325.789
325.408
325.037
324.678
324.329
323.991
323.663
323.346
323.039
322.744
322.458
322.183
321.919
321.664
321.421
321.188
320.965
320.752
320.55
320.358
320.177
320.006
319.846
319.695
319.555
319.426
319.307
319.198
319.099
319.011
318.933
318.865
318.808
318.761
318.725
318.698
318.682
318.677
398.41
395.247
392.133
389.095
386.158
383.337
380.643
378.082
375.654
373.358
371.187
369.135
367.195
365.358
363.617
361.965
360.394
358.897
357.468
356.101
354.792
353.535
352.327
351.163
350.041
348.957
347.909
346.894
345.909
344.954
344.026
343.124
342.246
341.391
340.558
339.746
338.954
338.18
337.426
336.688
335.968
335.264
334.577
333.904
333.247
332.605
331.977
331.363
330.763
330.176
329.603
329.043
328.496
327.961
327.44
326.93
326.433
325.948
325.476
325.015
324.566
324.13
323.705
323.291
322.89
322.5
322.121
321.754
321.399
321.055
320.722
320.401
320.092
319.793
319.506
319.23
318.966
318.713
318.471
318.241
318.021
317.813
317.617
317.431
317.257
317.094
316.942
316.801
316.672
316.554
316.447
316.351
316.266
316.193
316.131
316.08
316.04
316.012
315.995
315.988
398.48
395.454
392.466
389.54
386.695
383.946
381.303
378.772
376.357
374.055
371.865
369.783
367.802
365.917
364.122
362.41
360.776
359.213
357.717
356.281
354.903
353.576
352.298
351.066
349.875
348.722
347.607
346.525
345.475
344.455
343.463
342.498
341.559
340.643
339.75
338.879
338.03
337.2
336.39
335.598
334.824
334.068
333.329
332.606
331.9
331.209
330.533
329.873
329.227
328.596
327.979
327.376
326.787
326.211
325.649
325.101
324.565
324.043
323.534
323.038
322.554
322.084
321.626
321.181
320.748
320.327
319.92
319.524
319.141
318.771
318.412
318.066
317.732
317.411
317.101
316.804
316.519
316.246
315.986
315.737
315.501
315.276
315.064
314.864
314.676
314.501
314.337
314.185
314.046
313.918
313.803
313.7
313.609
313.53
313.463
313.408
313.365
313.334
313.315
313.309
398.537
395.622
392.738
389.904
387.138
384.45
381.853
379.351
376.948
374.645
372.441
370.333
368.318
366.392
364.548
362.784
361.092
359.47
357.911
356.412
354.969
353.577
352.233
350.934
349.678
348.46
347.28
346.134
345.02
343.938
342.884
341.858
340.858
339.883
338.932
338.004
337.098
336.213
335.348
334.503
333.676
332.869
332.079
331.306
330.551
329.812
329.089
328.383
327.692
327.016
326.356
325.711
325.08
324.464
323.862
323.275
322.702
322.143
321.597
321.066
320.548
320.044
319.553
319.076
318.612
318.162
317.725
317.301
316.891
316.493
316.109
315.738
315.381
315.036
314.704
314.386
314.08
313.788
313.508
313.242
312.988
312.748
312.521
312.306
312.105
311.916
311.741
311.578
311.429
311.292
311.169
311.058
310.96
310.875
310.804
310.745
310.699
310.666
310.646
310.639
398.583
395.759
392.961
390.204
387.503
384.868
382.309
379.833
377.442
375.139
372.924
370.796
368.751
366.788
364.902
363.09
361.347
359.669
358.053
356.495
354.991
353.537
352.131
350.77
349.451
348.171
346.928
345.72
344.546
343.402
342.289
341.203
340.145
339.112
338.104
337.12
336.159
335.219
334.301
333.403
332.525
331.666
330.826
330.005
329.201
328.415
327.646
326.894
326.158
325.439
324.736
324.049
323.377
322.721
322.08
321.454
320.843
320.247
319.666
319.099
318.547
318.01
317.486
316.978
316.483
316.003
315.537
315.085
314.648
314.224
313.814
313.419
313.037
312.669
312.316
311.976
311.65
311.338
311.04
310.756
310.486
310.229
309.987
309.758
309.543
309.342
309.155
308.981
308.822
308.676
308.544
308.426
308.322
308.231
308.155
308.092
308.043
308.008
307.986
307.979
398.621
395.872
393.143
390.449
387.802
385.212
382.687
380.232
377.852
375.549
373.325
371.178
369.108
367.112
365.188
363.332
361.542
359.814
358.145
356.532
354.971
353.459
351.994
350.574
349.195
347.855
346.552
345.285
344.051
342.849
341.677
340.534
339.419
338.33
337.266
336.227
335.211
334.219
333.248
332.298
331.369
330.461
329.572
328.702
327.851
327.018
326.203
325.406
324.626
323.864
323.118
322.389
321.677
320.981
320.301
319.637
318.989
318.356
317.74
317.138
316.552
315.982
315.427
314.887
314.362
313.852
313.357
312.878
312.413
311.963
311.528
311.108
310.703
310.312
309.936
309.576
309.229
308.898
308.582
308.28
307.993
307.72
307.463
307.22
306.991
306.778
306.579
306.395
306.225
306.07
305.93
305.805
305.694
305.598
305.517
305.45
305.398
305.361
305.338
305.33
398.652
395.963
393.292
390.65
388.048
385.494
382.996
380.559
378.189
375.886
373.653
371.49
369.396
367.371
365.412
363.517
361.683
359.908
358.19
356.524
354.91
353.344
351.823
350.346
348.91
347.513
346.153
344.828
343.537
342.278
341.049
339.85
338.68
337.536
336.418
335.325
334.257
333.212
332.189
331.189
330.21
329.252
328.315
327.397
326.499
325.621
324.761
323.919
323.096
322.291
321.504
320.734
319.981
319.245
318.527
317.825
317.14
316.472
315.82
315.184
314.565
313.961
313.374
312.803
312.248
311.709
311.186
310.678
310.186
309.711
309.25
308.806
308.377
307.964
307.567
307.185
306.819
306.468
306.133
305.814
305.51
305.222
304.949
304.692
304.451
304.225
304.014
303.819
303.64
303.476
303.328
303.195
303.078
302.976
302.89
302.819
302.764
302.725
302.701
302.692
398.677
396.037
393.412
390.813
388.247
385.723
383.247
380.825
378.461
376.157
373.916
371.738
369.623
367.57
365.578
363.647
361.773
359.954
358.189
356.475
354.811
353.192
351.619
350.088
348.597
347.145
345.73
344.35
343.003
341.689
340.406
339.153
337.928
336.731
335.56
334.415
333.295
332.198
331.126
330.075
329.048
328.041
327.056
326.092
325.148
324.224
323.319
322.434
321.568
320.721
319.892
319.081
318.289
317.515
316.758
316.019
315.297
314.593
313.906
313.236
312.584
311.948
311.329
310.727
310.142
309.574
309.023
308.488
307.969
307.468
306.983
306.514
306.062
305.627
305.208
304.805
304.419
304.049
303.696
303.359
303.039
302.735
302.447
302.176
301.922
301.683
301.461
301.256
301.067
300.894
300.737
300.597
300.474
300.367
300.276
300.201
300.143
300.101
300.076
300.067
398.697
396.097
393.509
390.943
388.406
385.906
383.448
381.037
378.677
376.371
374.121
371.928
369.792
367.714
365.693
363.727
361.815
359.955
358.147
356.387
354.674
353.007
351.383
349.8
348.257
346.752
345.284
343.851
342.451
341.084
339.748
338.442
337.164
335.915
334.692
333.496
332.325
331.179
330.057
328.958
327.882
326.828
325.796
324.786
323.796
322.828
321.879
320.951
320.043
319.154
318.284
317.433
316.602
315.789
314.994
314.218
313.46
312.721
311.999
311.296
310.61
309.943
309.293
308.66
308.046
307.449
306.869
306.307
305.762
305.235
304.725
304.233
303.757
303.3
302.859
302.436
302.03
301.642
301.27
300.916
300.579
300.26
299.957
299.672
299.405
299.154
298.921
298.705
298.506
298.324
298.16
298.012
297.882
297.77
297.674
297.596
297.535
297.491
297.464
297.455
398.713
396.144
393.585
391.046
388.532
386.05
383.604
381.201
378.843
376.533
374.274
372.066
369.911
367.809
365.759
363.76
361.813
359.915
358.065
356.262
354.504
352.789
351.117
349.485
347.892
346.337
344.817
343.332
341.881
340.462
339.075
337.717
336.389
335.089
333.816
332.569
331.349
330.154
328.983
327.836
326.713
325.613
324.535
323.479
322.445
321.432
320.441
319.47
318.52
317.59
316.68
315.789
314.919
314.068
313.236
312.424
311.63
310.856
310.1
309.363
308.645
307.946
307.265
306.602
305.958
305.332
304.725
304.136
303.565
303.013
302.478
301.962
301.464
300.984
300.522
300.079
299.653
299.246
298.857
298.485
298.132
297.797
297.48
297.181
296.901
296.638
296.393
296.166
295.958
295.767
295.595
295.441
295.304
295.186
295.086
295.004
294.94
294.894
294.866
294.856
398.725
396.18
393.644
391.125
388.628
386.159
383.723
381.324
378.966
376.651
374.381
372.159
369.985
367.859
365.781
363.752
361.77
359.835
357.946
356.102
354.3
352.541
350.822
349.143
347.502
345.898
344.329
342.795
341.294
339.825
338.387
336.98
335.602
334.252
332.93
331.635
330.366
329.123
327.905
326.711
325.541
324.395
323.272
322.172
321.094
320.038
319.004
317.991
317
316.029
315.08
314.15
313.241
312.353
311.484
310.636
309.807
308.998
308.209
307.439
306.689
305.958
305.246
304.553
303.88
303.226
302.591
301.976
301.379
300.801
300.243
299.703
299.182
298.68
298.198
297.734
297.289
296.863
296.456
296.067
295.698
295.348
295.016
294.704
294.41
294.135
293.879
293.642
293.424
293.225
293.045
292.883
292.741
292.617
292.512
292.426
292.359
292.311
292.282
292.272
398.734
396.207
393.688
391.184
388.699
386.239
383.809
381.411
379.05
376.728
374.448
372.21
370.016
367.868
365.764
363.705
361.691
359.72
357.794
355.909
354.067
352.264
350.501
348.777
347.089
345.438
343.822
342.239
340.69
339.173
337.687
336.231
334.804
333.406
332.036
330.693
329.377
328.087
326.822
325.583
324.368
323.177
322.009
320.865
319.744
318.646
317.569
316.516
315.483
314.473
313.484
312.516
311.57
310.644
309.739
308.855
307.991
307.148
306.326
305.523
304.741
303.979
303.237
302.515
301.813
301.131
300.469
299.826
299.204
298.601
298.019
297.456
296.913
296.389
295.885
295.402
294.937
294.493
294.068
293.663
293.278
292.912
292.566
292.24
291.934
291.647
291.38
291.132
290.905
290.697
290.509
290.34
290.191
290.062
289.953
289.863
289.794
289.743
289.713
289.702
398.741
396.226
393.719
391.225
388.748
386.293
383.865
381.466
379.1
376.77
374.477
372.224
370.011
367.84
365.71
363.622
361.576
359.572
357.609
355.687
353.804
351.961
350.155
348.387
346.655
344.958
343.296
341.667
340.071
338.506
336.973
335.47
333.996
332.551
331.134
329.745
328.382
327.046
325.736
324.452
323.192
321.957
320.746
319.559
318.395
317.255
316.138
315.043
313.971
312.921
311.894
310.888
309.904
308.942
308.001
307.082
306.184
305.307
304.451
303.616
302.803
302.01
301.238
300.486
299.756
299.046
298.357
297.689
297.041
296.414
295.807
295.221
294.656
294.111
293.587
293.083
292.599
292.137
291.694
291.273
290.872
290.491
290.131
289.791
289.472
289.173
288.895
288.638
288.401
288.184
287.988
287.813
287.658
287.523
287.409
287.316
287.243
287.191
287.159
287.148
398.745
396.238
393.738
391.25
388.777
386.325
383.895
381.493
379.121
376.78
374.474
372.205
369.972
367.778
365.623
363.507
361.431
359.394
357.396
355.437
353.516
351.632
349.785
347.975
346.199
344.459
342.752
341.078
339.436
337.826
336.247
334.698
333.178
331.688
330.225
328.79
327.383
326.002
324.647
323.318
322.015
320.736
319.483
318.253
317.048
315.867
314.709
313.574
312.463
311.374
310.309
309.265
308.245
307.246
306.27
305.316
304.384
303.474
302.586
301.719
300.874
300.051
299.249
298.469
297.711
296.973
296.258
295.563
294.891
294.239
293.609
293
292.413
291.846
291.302
290.778
290.276
289.795
289.335
288.897
288.48
288.085
287.71
287.357
287.026
286.715
286.426
286.158
285.912
285.687
285.483
285.301
285.14
285
284.882
284.785
284.709
284.655
284.622
284.61
398.747
396.245
393.748
391.262
388.79
386.336
383.903
381.495
379.114
376.762
374.442
372.155
369.903
367.686
365.506
363.363
361.256
359.187
357.156
355.161
353.202
351.28
349.394
347.542
345.725
343.942
342.192
340.474
338.788
337.134
335.51
333.916
332.352
330.816
329.309
327.83
326.378
324.953
323.555
322.183
320.836
319.516
318.22
316.949
315.703
314.481
313.283
312.109
310.959
309.833
308.729
307.649
306.592
305.558
304.547
303.559
302.593
301.65
300.73
299.832
298.956
298.103
297.272
296.463
295.677
294.913
294.171
293.451
292.753
292.077
291.424
290.792
290.183
289.596
289.031
288.488
287.967
287.468
286.991
286.537
286.104
285.694
285.306
284.939
284.595
284.273
283.973
283.696
283.44
283.207
282.995
282.806
282.639
282.494
282.371
282.271
282.192
282.136
282.102
282.089
398.748
396.246
393.749
391.262
388.788
386.33
383.891
381.475
379.083
376.719
374.384
372.079
369.806
367.567
365.362
363.191
361.056
358.956
356.891
354.861
352.867
350.907
348.982
347.091
345.233
343.408
341.616
339.856
338.127
336.43
334.762
333.125
331.517
329.938
328.387
326.864
325.369
323.902
322.461
321.046
319.658
318.295
316.958
315.647
314.36
313.099
311.862
310.649
309.461
308.297
307.156
306.04
304.947
303.878
302.833
301.811
300.812
299.837
298.884
297.955
297.049
296.166
295.306
294.47
293.656
292.865
292.096
291.351
290.629
289.929
289.253
288.599
287.968
287.36
286.775
286.213
285.674
285.157
284.663
284.192
283.745
283.319
282.917
282.538
282.182
281.848
281.538
281.25
280.985
280.743
280.524
280.328
280.155
280.005
279.878
279.774
279.692
279.634
279.599
279.586
398.747
396.242
393.743
391.252
388.773
386.308
383.862
381.435
379.032
376.653
374.302
371.979
369.685
367.423
365.193
362.996
360.831
358.7
356.603
354.54
352.51
350.514
348.551
346.621
344.724
342.859
341.027
339.225
337.455
335.715
334.005
332.325
330.675
329.053
327.46
325.895
324.357
322.847
321.364
319.908
318.479
317.076
315.698
314.347
313.021
311.72
310.444
309.194
307.968
306.767
305.59
304.438
303.31
302.207
301.127
300.072
299.04
298.033
297.049
296.09
295.154
294.242
293.353
292.488
291.647
290.83
290.036
289.266
288.519
287.796
287.097
286.421
285.769
285.14
284.535
283.954
283.396
282.862
282.351
281.865
281.401
280.962
280.546
280.154
279.785
279.44
279.119
278.822
278.548
278.298
278.071
277.869
277.69
277.534
277.403
277.295
277.211
277.15
277.114
277.101
398.744
396.235
393.729
391.232
388.746
386.273
383.816
381.378
378.961
376.568
374.199
371.857
369.542
367.257
365.002
362.778
360.585
358.424
356.295
354.199
352.135
350.103
348.103
346.136
344.201
342.297
340.424
338.582
336.771
334.99
333.239
331.518
329.826
328.162
326.528
324.921
323.342
321.791
320.267
318.771
317.301
315.857
314.44
313.049
311.684
310.345
309.032
307.744
306.481
305.244
304.031
302.844
301.681
300.544
299.431
298.343
297.279
296.24
295.226
294.236
293.27
292.329
291.412
290.52
289.652
288.808
287.989
287.194
286.424
285.677
284.955
284.258
283.585
282.936
282.311
281.711
281.135
280.584
280.057
279.554
279.076
278.622
278.192
277.787
277.407
277.05
276.719
276.411
276.129
275.87
275.637
275.427
275.242
275.082
274.946
274.835
274.748
274.686
274.648
274.634
398.74
396.223
393.71
391.204
388.709
386.225
383.757
381.306
378.874
376.464
374.077
371.715
369.38
367.071
364.791
362.54
360.319
358.128
355.968
353.839
351.742
349.675
347.64
345.636
343.663
341.721
339.809
337.928
336.078
334.257
332.465
330.704
328.971
327.267
325.591
323.944
322.325
320.733
319.169
317.633
316.123
314.641
313.185
311.755
310.352
308.975
307.625
306.3
305.001
303.728
302.48
301.258
300.061
298.89
297.744
296.624
295.528
294.458
293.413
292.394
291.399
290.429
289.485
288.565
287.671
286.801
285.957
285.138
284.343
283.574
282.83
282.111
281.417
280.748
280.104
279.485
278.891
278.323
277.779
277.261
276.768
276.3
275.857
275.439
275.046
274.679
274.337
274.02
273.729
273.462
273.221
273.005
272.814
272.649
272.509
272.394
272.305
272.24
272.201
272.187
398.736
396.209
393.686
391.17
388.662
386.167
383.685
381.22
378.772
376.345
373.939
371.557
369.199
366.867
364.562
362.284
360.035
357.815
355.625
353.464
351.333
349.232
347.162
345.122
343.113
341.133
339.184
337.265
335.375
333.515
331.685
329.883
328.111
326.367
324.652
322.965
321.306
319.675
318.072
316.496
314.948
313.426
311.932
310.465
309.024
307.611
306.223
304.862
303.528
302.219
300.937
299.681
298.451
297.246
296.068
294.916
293.789
292.688
291.613
290.564
289.541
288.543
287.571
286.625
285.704
284.809
283.94
283.097
282.279
281.487
280.721
279.98
279.266
278.577
277.914
277.277
276.665
276.08
275.52
274.986
274.478
273.996
273.54
273.11
272.705
272.327
271.975
271.648
271.348
271.074
270.825
270.603
270.406
270.236
270.092
269.973
269.881
269.815
269.775
269.76
398.73
396.192
393.657
391.128
388.608
386.099
383.603
381.121
378.657
376.211
373.786
371.383
369.002
366.647
364.316
362.012
359.735
357.486
355.265
353.073
350.91
348.776
346.672
344.597
342.551
340.535
338.549
336.592
334.665
332.767
330.897
329.057
327.246
325.463
323.709
321.983
320.286
318.616
316.974
315.36
313.774
312.215
310.683
309.179
307.702
306.251
304.828
303.432
302.062
300.719
299.402
298.113
296.849
295.613
294.403
293.219
292.061
290.93
289.826
288.748
287.696
286.67
285.671
284.698
283.752
282.832
281.939
281.071
280.231
279.416
278.628
277.867
277.132
276.424
275.742
275.086
274.457
273.855
273.279
272.73
272.208
271.712
271.242
270.8
270.384
269.995
269.632
269.296
268.987
268.705
268.45
268.221
268.019
267.843
267.695
267.573
267.478
267.41
267.369
267.354
398.723
396.172
393.624
391.081
388.547
386.023
383.51
381.012
378.53
376.065
373.619
371.195
368.792
366.412
364.056
361.726
359.421
357.143
354.892
352.669
350.474
348.307
346.169
344.06
341.979
339.928
337.905
335.912
333.947
332.012
330.105
328.227
326.378
324.557
322.765
321.001
319.266
317.558
315.879
314.227
312.603
311.007
309.439
307.898
306.384
304.898
303.44
302.008
300.604
299.227
297.877
296.554
295.259
293.99
292.748
291.534
290.346
289.185
288.051
286.945
285.865
284.812
283.786
282.787
281.816
280.871
279.953
279.063
278.199
277.363
276.553
275.771
275.016
274.288
273.588
272.914
272.268
271.649
271.058
270.494
269.957
269.447
268.965
268.51
268.083
267.683
267.31
266.965
266.648
266.357
266.095
265.86
265.652
265.472
265.319
265.194
265.097
265.027
264.984
264.969
398.716
396.15
393.587
391.03
388.479
385.939
383.409
380.893
378.392
375.907
373.441
370.994
368.568
366.164
363.783
361.426
359.094
356.788
354.507
352.253
350.027
347.828
345.657
343.514
341.399
339.312
337.254
335.225
333.224
331.252
329.308
327.393
325.507
323.649
321.82
320.018
318.246
316.501
314.784
313.096
311.436
309.803
308.199
306.622
305.073
303.552
302.059
300.593
299.155
297.745
296.362
295.006
293.679
292.378
291.106
289.861
288.643
287.453
286.291
285.156
284.048
282.969
281.917
280.892
279.895
278.926
277.985
277.071
276.185
275.327
274.496
273.694
272.919
272.172
271.453
270.762
270.099
269.463
268.856
268.277
267.726
267.203
266.708
266.241
265.802
265.392
265.009
264.655
264.329
264.031
263.762
263.52
263.307
263.122
262.965
262.837
262.737
262.665
262.621
262.606
398.708
396.126
393.547
390.973
388.406
385.848
383.301
380.766
378.245
375.74
373.252
370.783
368.333
365.905
363.499
361.115
358.756
356.421
354.111
351.827
349.569
347.339
345.135
342.959
340.81
338.689
336.597
334.532
332.496
330.488
328.508
326.557
324.634
322.74
320.874
319.036
317.227
315.446
313.693
311.968
310.272
308.604
306.964
305.352
303.769
302.213
300.686
299.186
297.715
296.272
294.856
293.469
292.11
290.779
289.476
288.2
286.954
285.735
284.544
283.381
282.247
281.141
280.063
279.013
277.991
276.998
276.033
275.097
274.188
273.309
272.457
271.635
270.84
270.075
269.337
268.629
267.949
267.298
266.675
266.081
265.516
264.98
264.472
263.993
263.543
263.122
262.73
262.367
262.032
261.727
261.45
261.203
260.984
260.794
260.634
260.502
260.399
260.326
260.281
260.265
398.7
396.101
393.505
390.913
388.328
385.752
383.186
380.631
378.09
375.564
373.054
370.562
368.089
365.636
363.204
360.794
358.407
356.044
353.705
351.391
349.103
346.841
344.605
342.396
340.214
338.06
335.933
333.834
331.763
329.72
327.705
325.718
323.76
321.83
319.928
318.054
316.209
314.393
312.604
310.844
309.113
307.41
305.735
304.089
302.471
300.882
299.321
297.788
296.284
294.809
293.362
291.943
290.553
289.191
287.858
286.554
285.278
284.03
282.812
281.622
280.461
279.329
278.225
277.15
276.104
275.087
274.099
273.14
272.21
271.309
270.438
269.595
268.781
267.997
267.242
266.516
265.82
265.153
264.515
263.906
263.327
262.778
262.258
261.767
261.306
260.875
260.473
260.101
259.758
259.445
259.162
258.908
258.684
258.49
258.325
258.19
258.085
258.009
257.963
257.947
398.691
396.074
393.46
390.85
388.246
385.65
383.064
380.49
377.928
375.38
372.848
370.332
367.835
365.357
362.9
360.463
358.049
355.658
353.29
350.947
348.629
346.336
344.068
341.827
339.613
337.426
335.265
333.133
331.027
328.95
326.9
324.879
322.885
320.92
318.983
317.074
315.194
313.343
311.52
309.725
307.959
306.222
304.513
302.833
301.181
299.559
297.965
296.4
294.864
293.356
291.878
290.428
289.008
287.616
286.254
284.92
283.616
282.341
281.095
279.878
278.691
277.533
276.404
275.305
274.235
273.195
272.184
271.203
270.251
269.329
268.437
267.575
266.743
265.94
265.167
264.424
263.712
263.029
262.376
261.753
261.161
260.598
260.066
259.564
259.092
258.65
258.239
257.858
257.507
257.187
256.897
256.637
256.408
256.209
256.04
255.902
255.794
255.717
255.67
255.653
398.681
396.046
393.412
390.783
388.16
385.545
382.938
380.342
377.759
375.189
372.634
370.095
367.574
365.071
362.588
360.125