/*--------------------------------*- C++ -*----------------------------------*\
  =========                 |
  \\      /  F ield         | OpenFOAM: The Open Source CFD Toolbox
   \\    /   O peration     | Website:  https://openfoam.org
    \\  /    A nd           | Version:  10
     \\/     M anipulation  |
\*---------------------------------------------------------------------------*/
FoamFile
{
    format      ascii;
    class       volScalarField;
    location    "24";
    object      ddt0(T);
}
// * * * * * * * * * * * * * * * * * * * * * * * * * * * * * * * * * * * * * //

dimensions      [0 0 -1 1 0 0 0];

internalField   nonuniform List<scalar> 
10000
(
1395.23
294.547
401.228
406.087
405.048
405.04
405.104
405.123
405.128
405.13
405.132
405.134
405.136
405.138
405.14
405.141
405.143
405.145
405.146
405.148
405.15
405.151
405.153
405.154
405.156
405.157
405.159
405.16
405.161
405.163
405.164
405.165
405.166
405.168
405.169
405.17
405.171
405.172
405.173
405.174
405.175
405.176
405.177
405.178
405.179
405.18
405.181
405.182
405.182
405.183
405.184
405.184
405.185
405.186
405.186
405.187
405.187
405.188
405.188
405.189
405.189
405.19
405.19
405.191
405.191
405.191
405.192
405.192
405.192
405.192
405.193
405.193
405.193
405.193
405.193
405.194
405.194
405.194
405.194
405.194
405.194
405.194
405.194
405.195
405.195
405.195
405.195
405.195
405.195
405.195
405.195
405.195
405.195
405.195
405.195
405.214
405.318
404.684
387.487
374.251
372.92
-299.6
-127.884
-130.025
-133.612
-133.828
-133.746
-133.722
-133.716
-133.711
-133.706
-133.7
-133.695
-133.69
-133.685
-133.68
-133.675
-133.67
-133.665
-133.66
-133.656
-133.651
-133.646
-133.642
-133.637
-133.633
-133.629
-133.625
-133.62
-133.616
-133.612
-133.609
-133.605
-133.601
-133.598
-133.594
-133.591
-133.587
-133.584
-133.581
-133.578
-133.575
-133.572
-133.569
-133.567
-133.564
-133.562
-133.559
-133.557
-133.555
-133.553
-133.551
-133.549
-133.547
-133.545
-133.543
-133.542
-133.54
-133.539
-133.537
-133.536
-133.535
-133.533
-133.532
-133.531
-133.53
-133.529
-133.528
-133.527
-133.527
-133.526
-133.525
-133.525
-133.524
-133.524
-133.523
-133.523
-133.522
-133.522
-133.521
-133.521
-133.521
-133.52
-133.52
-133.52
-133.52
-133.52
-133.52
-133.519
-133.519
-133.519
-133.519
-133.519
-133.52
-133.521
-133.499
-133.284
-132.736
-138.259
-119.506
459.47
-148.272
19.7252
13.8105
9.6744
9.49224
9.60565
9.63879
9.64895
9.65731
9.666
9.67475
9.68345
9.69207
9.70061
9.70907
9.71742
9.72567
9.73381
9.74184
9.74974
9.75753
9.76519
9.77273
9.78013
9.78741
9.79455
9.80155
9.80842
9.81514
9.82173
9.82817
9.83446
9.8406
9.8466
9.85244
9.85813
9.86366
9.86904
9.87427
9.87934
9.88426
9.88902
9.89362
9.89808
9.90238
9.90652
9.91052
9.91437
9.91807
9.92162
9.92503
9.9283
9.93143
9.93442
9.93728
9.94
9.9426
9.94507
9.94742
9.94964
9.95175
9.95375
9.95564
9.95742
9.9591
9.96068
9.96216
9.96355
9.96485
9.96606
9.96719
9.96824
9.96922
9.97012
9.97096
9.97173
9.97243
9.97308
9.97367
9.97421
9.9747
9.97515
9.97555
9.9759
9.97622
9.9765
9.97675
9.97696
9.97715
9.97731
9.97743
9.97735
9.97596
9.96983
9.96466
10.0762
10.4989
6.9488
11.9559
463.766
-149.665
14.657
7.8503
3.67772
3.53272
3.66097
3.69952
3.71336
3.72524
3.73743
3.74967
3.76181
3.77384
3.78575
3.79754
3.80919
3.8207
3.83205
3.84325
3.8543
3.86517
3.87587
3.8864
3.89676
3.90693
3.91691
3.92671
3.93631
3.94572
3.95492
3.96393
3.97273
3.98132
3.9897
3.99787
4.00583
4.01357
4.02109
4.0284
4.03549
4.04237
4.04902
4.05546
4.06169
4.0677
4.0735
4.07909
4.08447
4.08964
4.09461
4.09938
4.10395
4.10832
4.11251
4.1165
4.12031
4.12394
4.1274
4.13068
4.1338
4.13675
4.13954
4.14218
4.14467
4.14701
4.14922
4.15129
4.15323
4.15505
4.15674
4.15832
4.15979
4.16116
4.16242
4.16359
4.16467
4.16566
4.16656
4.16739
4.16814
4.16883
4.16945
4.17
4.1705
4.17094
4.17133
4.17167
4.17196
4.17221
4.17243
4.17265
4.17284
4.17222
4.16663
4.15069
4.18936
4.58698
4.16113
4.47411
462.926
-152.737
11.0398
4.19364
0.059785
-0.0654857
0.0699117
0.112388
0.129714
0.145079
0.160761
0.176465
0.192054
0.207501
0.2228
0.237938
0.252906
0.267693
0.282289
0.296687
0.310878
0.324857
0.338617
0.352153
0.36546
0.378533
0.391367
0.403956
0.416297
0.428386
0.440217
0.451788
0.463095
0.474134
0.484902
0.495398
0.505619
0.515564
0.52523
0.534618
0.543727
0.552557
0.561108
0.569382
0.577378
0.5851
0.592548
0.599726
0.606635
0.613279
0.619661
0.625785
0.631654
0.637272
0.642644
0.647775
0.652669
0.657332
0.661768
0.665984
0.669983
0.673774
0.67736
0.680749
0.683946
0.686957
0.689789
0.692448
0.69494
0.697272
0.699449
0.701478
0.703365
0.705117
0.706739
0.708238
0.709619
0.710888
0.712051
0.713114
0.714081
0.714958
0.715751
0.716463
0.7171
0.717666
0.718165
0.718601
0.718977
0.719298
0.719574
0.719849
0.720228
0.720564
0.718168
0.703112
0.68023
0.780776
0.848536
0.822891
462.925
-152.924
10.8773
4.06598
-0.0484446
-0.165654
-0.0260018
0.0200096
0.0408204
0.0596797
0.0788442
0.0980101
0.117034
0.135889
0.154562
0.173043
0.191316
0.209369
0.227191
0.244771
0.2621
0.279171
0.295975
0.312506
0.328757
0.344721
0.360393
0.375767
0.390837
0.405598
0.420045
0.434173
0.447979
0.461457
0.474605
0.487419
0.499898
0.512038
0.523839
0.5353
0.54642
0.557199
0.567638
0.577738
0.587499
0.596925
0.606017
0.614778
0.623212
0.631322
0.639112
0.646586
0.65375
0.660607
0.667164
0.673426
0.6794
0.68509
0.690504
0.695649
0.70053
0.705156
0.709532
0.713667
0.717568
0.721243
0.724699
0.727943
0.730983
0.733828
0.736484
0.738959
0.741262
0.743398
0.745377
0.747205
0.748889
0.750437
0.751856
0.753152
0.754331
0.755401
0.756367
0.757236
0.758012
0.758702
0.75931
0.759841
0.7603
0.760689
0.761013
0.761299
0.761667
0.762384
0.762968
0.758382
0.740426
0.738003
0.753316
0.775328
462.98
-152.853
10.9765
4.17934
0.0719797
-0.0409775
0.102235
0.151731
0.176037
0.198387
0.221024
0.24364
0.266087
0.288335
0.310371
0.332179
0.353743
0.375049
0.396083
0.416833
0.437287
0.457437
0.477272
0.496785
0.515968
0.534813
0.553312
0.571459
0.589247
0.606671
0.623723
0.640398
0.656692
0.6726
0.688117
0.70324
0.717967
0.732295
0.746222
0.759747
0.77287
0.78559
0.797909
0.809827
0.821346
0.832468
0.843197
0.853535
0.863486
0.873056
0.882247
0.891066
0.899518
0.907609
0.915345
0.922733
0.92978
0.936494
0.942881
0.94895
0.954708
0.960164
0.965327
0.970205
0.974806
0.97914
0.983216
0.987042
0.990627
0.993982
0.997114
1.00003
1.00275
1.00527
1.0076
1.00976
1.01174
1.01357
1.01524
1.01677
1.01816
1.01942
1.02055
1.02158
1.02249
1.0233
1.02402
1.02465
1.02519
1.02565
1.02602
1.02632
1.0266
1.02708
1.02809
1.02849
1.02355
1.01332
1.00059
1.03373
462.997
-152.831
11.0064
4.21461
0.111179
0.0017599
0.148459
0.20145
0.22925
0.255079
0.281175
0.307225
0.33308
0.358707
0.38409
0.409212
0.434053
0.458597
0.482829
0.506734
0.530299
0.553514
0.576368
0.59885
0.620951
0.642663
0.663977
0.684885
0.70538
0.725453
0.745098
0.764309
0.78308
0.801406
0.819282
0.836704
0.853669
0.870173
0.886216
0.901796
0.916912
0.931563
0.945752
0.95948
0.972747
0.985558
0.997915
1.00982
1.02128
1.0323
1.04289
1.05305
1.06278
1.0721
1.08101
1.08951
1.09763
1.10536
1.11271
1.1197
1.12633
1.13261
1.13856
1.14417
1.14947
1.15446
1.15915
1.16355
1.16768
1.17154
1.17515
1.17851
1.18163
1.18453
1.18721
1.18969
1.19198
1.19408
1.196
1.19776
1.19936
1.20081
1.20211
1.20329
1.20434
1.20528
1.2061
1.20682
1.20744
1.20797
1.20841
1.20875
1.209
1.20925
1.20979
1.21079
1.211
1.2062
1.18668
1.22401
463.001
-152.825
11.0164
4.2283
0.128365
0.0224349
0.17263
0.229116
0.260398
0.289691
0.31923
0.348698
0.377944
0.406933
0.435646
0.464064
0.492165
0.519932
0.547345
0.574389
0.601049
0.627314
0.65317
0.678606
0.703611
0.728176
0.752291
0.775945
0.799131
0.821841
0.844066
0.8658
0.887035
0.907766
0.927988
0.947696
0.966886
0.985556
1.0037
1.02133
1.03842
1.055
1.07104
1.08657
1.10158
1.11607
1.13004
1.14351
1.15647
1.16893
1.1809
1.19239
1.2034
1.21393
1.22401
1.23363
1.2428
1.25154
1.25986
1.26776
1.27525
1.28236
1.28908
1.29542
1.30141
1.30705
1.31235
1.31733
1.322
1.32636
1.33043
1.33423
1.33776
1.34103
1.34407
1.34687
1.34945
1.35182
1.35399
1.35597
1.35778
1.35942
1.36089
1.36222
1.36341
1.36446
1.36539
1.3662
1.36691
1.3675
1.368
1.3684
1.36869
1.36888
1.3691
1.36972
1.37114
1.36989
1.34318
1.38954
463.004
-152.82
11.0248
4.24027
0.143827
0.041393
0.195082
0.255049
0.289796
0.322534
0.355496
0.388364
0.420982
0.453314
0.485339
0.517034
0.548376
0.579346
0.609922
0.640087
0.669825
0.699121
0.727962
0.756335
0.784228
0.811629
0.838527
0.864912
0.890774
0.916105
0.940894
0.965135
0.98882
1.01194
1.0345
1.05647
1.07788
1.0987
1.11894
1.13859
1.15766
1.17614
1.19403
1.21135
1.22808
1.24424
1.25982
1.27484
1.28929
1.30318
1.31653
1.32934
1.34161
1.35336
1.36459
1.37531
1.38554
1.39528
1.40455
1.41336
1.42171
1.42963
1.43711
1.44419
1.45086
1.45714
1.46305
1.4686
1.4738
1.47866
1.48319
1.48742
1.49135
1.495
1.49838
1.5015
1.50437
1.50701
1.50943
1.51164
1.51365
1.51547
1.51711
1.51859
1.51991
1.52109
1.52212
1.52302
1.5238
1.52446
1.52502
1.52547
1.52581
1.52603
1.52615
1.52649
1.52822
1.52944
1.49326
1.55137
463.006
-152.815
11.0336
4.25251
0.159556
0.0606096
0.217775
0.281205
0.319396
0.355559
0.391924
0.428169
0.464138
0.499792
0.535107
0.570058
0.604621
0.638773
0.672491
0.705757
0.738553
0.770862
0.802668
0.833959
0.86472
0.894938
0.924602
0.9537
0.982221
1.01015
1.03749
1.06422
1.09034
1.11584
1.14071
1.16494
1.18854
1.2115
1.23381
1.25548
1.2765
1.29688
1.31661
1.3357
1.35415
1.37196
1.38914
1.40569
1.42162
1.43694
1.45165
1.46577
1.47929
1.49224
1.50462
1.51644
1.52771
1.53845
1.54866
1.55836
1.56757
1.57629
1.58454
1.59234
1.59969
1.60661
1.61312
1.61923
1.62495
1.6303
1.6353
1.63996
1.64429
1.6483
1.65202
1.65545
1.65862
1.66152
1.66418
1.66661
1.66882
1.67083
1.67264
1.67426
1.67571
1.677
1.67814
1.67913
1.67999
1.68072
1.68133
1.68182
1.68221
1.68247
1.68257
1.68277
1.68468
1.68819
1.64232
1.71216
463.007
-152.809
11.0423
4.26477
0.175298
0.0798182
0.240439
0.307307
0.34892
0.388485
0.428229
0.467829
0.507126
0.546079
0.58466
0.622845
0.660605
0.697917
0.734755
0.7711
0.806931
0.84223
0.876982
0.911169
0.944778
0.977793
1.0102
1.04199
1.07315
1.10367
1.13354
1.16274
1.19127
1.21913
1.24629
1.27277
1.29855
1.32363
1.348
1.37167
1.39463
1.41689
1.43844
1.45929
1.47944
1.49889
1.51765
1.53573
1.55313
1.56986
1.58592
1.60133
1.6161
1.63024
1.64375
1.65666
1.66897
1.68069
1.69184
1.70243
1.71248
1.722
1.731
1.73951
1.74753
1.75509
1.76219
1.76885
1.7751
1.78094
1.78639
1.79147
1.79619
1.80057
1.80462
1.80837
1.81181
1.81498
1.81788
1.82053
1.82294
1.82512
1.82709
1.82886
1.83045
1.83185
1.83309
1.83417
1.8351
1.83589
1.83655
1.83709
1.83752
1.83781
1.83792
1.83802
1.84005
1.84566
1.79131
1.87143
463.009
-152.804
11.051
4.27695
0.19093
0.0988928
0.262943
0.333226
0.378235
0.421177
0.464275
0.507204
0.549803
0.592029
0.633852
0.675244
0.716178
0.756624
0.796558
0.835957
0.8748
0.913067
0.95074
0.987801
1.02424
1.06003
1.09516
1.12962
1.1634
1.19648
1.22886
1.26051
1.29144
1.32163
1.35108
1.37977
1.40771
1.4349
1.46131
1.48696
1.51185
1.53597
1.55932
1.58192
1.60375
1.62483
1.64516
1.66475
1.6836
1.70173
1.71913
1.73583
1.75183
1.76715
1.78179
1.79577
1.8091
1.82179
1.83387
1.84534
1.85622
1.86653
1.87628
1.88549
1.89418
1.90236
1.91005
1.91726
1.92402
1.93034
1.93624
1.94173
1.94684
1.95158
1.95597
1.96002
1.96375
1.96717
1.97031
1.97317
1.97578
1.97814
1.98027
1.98218
1.98389
1.9854
1.98674
1.98791
1.98891
1.98977
1.99048
1.99106
1.99152
1.99184
1.99196
1.992
1.99408
2.00142
1.94038
2.02879
463.011
-152.799
11.0597
4.28903
0.206429
0.117808
0.285261
0.358931
0.407309
0.453599
0.500023
0.546254
0.592128
0.637599
0.682637
0.72721
0.771289
0.814844
0.857848
0.900276
0.942105
0.983314
1.02388
1.06379
1.10303
1.14157
1.1794
1.21652
1.25289
1.28851
1.32337
1.35746
1.39076
1.42327
1.45497
1.48587
1.51595
1.54522
1.57366
1.60128
1.62807
1.65403
1.67917
1.7035
1.727
1.74969
1.77157
1.79265
1.81295
1.83245
1.85119
1.86916
1.88638
1.90286
1.91861
1.93365
1.94799
1.96166
1.97465
1.98699
1.9987
2.00978
2.02027
2.03018
2.03952
2.04831
2.05658
2.06434
2.0716
2.0784
2.08474
2.09065
2.09614
2.10123
2.10594
2.11029
2.1143
2.11797
2.12134
2.12442
2.12721
2.12975
2.13203
2.13409
2.13592
2.13755
2.13898
2.14023
2.14131
2.14222
2.14299
2.14361
2.1441
2.14445
2.14458
2.14457
2.14665
2.15527
2.08941
2.18406
463.013
-152.794
11.0683
4.30099
0.221788
0.136553
0.307379
0.384406
0.436123
0.485732
0.535453
0.584955
0.634075
0.682762
0.730984
0.77871
0.825906
0.872541
0.918586
0.964015
1.0088
1.05293
1.09637
1.1391
1.18111
1.22238
1.26289
1.30262
1.34157
1.37971
1.41703
1.45352
1.48917
1.52398
1.55792
1.591
1.6232
1.65453
1.68497
1.71453
1.74321
1.771
1.79791
1.82394
1.8491
1.87338
1.8968
1.91937
1.94108
1.96195
1.982
2.00123
2.01965
2.03729
2.05414
2.07023
2.08557
2.10019
2.11408
2.12728
2.1398
2.15166
2.16288
2.17347
2.18346
2.19286
2.2017
2.20999
2.21775
2.22502
2.23179
2.2381
2.24397
2.24941
2.25444
2.25909
2.26337
2.26729
2.27089
2.27417
2.27715
2.27986
2.2823
2.28449
2.28644
2.28818
2.2897
2.29104
2.29218
2.29316
2.29398
2.29464
2.29516
2.29553
2.29568
2.29564
2.29768
2.30712
2.23823
2.33718
463.015
-152.789
11.0767
4.31283
0.236997
0.155117
0.329282
0.409634
0.464658
0.517555
0.57054
0.623283
0.675616
0.727488
0.778865
0.829711
0.879994
0.929678
0.978735
1.02713
1.07485
1.12186
1.16814
1.21367
1.25843
1.3024
1.34555
1.38789
1.42937
1.47001
1.50977
1.54864
1.58662
1.6237
1.65985
1.69509
1.72939
1.76275
1.79518
1.82667
1.85721
1.88681
1.91547
1.94319
1.96998
1.99584
2.02078
2.0448
2.06792
2.09015
2.11149
2.13196
2.15158
2.17035
2.18829
2.20541
2.22175
2.2373
2.25209
2.26613
2.27946
2.29207
2.30401
2.31528
2.3259
2.3359
2.3453
2.35412
2.36238
2.3701
2.3773
2.38401
2.39024
2.39603
2.40137
2.40631
2.41085
2.41503
2.41884
2.42233
2.4255
2.42837
2.43095
2.43328
2.43535
2.43719
2.43881
2.44022
2.44144
2.44248
2.44334
2.44405
2.4446
2.44499
2.44516
2.4451
2.44709
2.45694
2.38658
2.4881
463.016
-152.784
11.0851
4.32454
0.252044
0.173485
0.350957
0.434599
0.492897
0.549046
0.605262
0.661212
0.716725
0.771748
0.826246
0.880181
0.933518
0.98622
1.03826
1.0896
1.14021
1.19008
1.23917
1.28746
1.33494
1.38158
1.42735
1.47226
1.51626
1.55936
1.60153
1.64276
1.68304
1.72236
1.76071
1.79807
1.83445
1.86983
1.90422
1.93761
1.96999
2.00138
2.03177
2.06116
2.08956
2.11698
2.14341
2.16888
2.19339
2.21695
2.23958
2.26127
2.28206
2.30195
2.32097
2.33912
2.35642
2.3729
2.38857
2.40345
2.41757
2.43093
2.44357
2.4555
2.46676
2.47735
2.4873
2.49663
2.50538
2.51355
2.52117
2.52827
2.53487
2.54098
2.54664
2.55186
2.55667
2.56108
2.56511
2.5688
2.57214
2.57518
2.57791
2.58036
2.58255
2.5845
2.58621
2.5877
2.58898
2.59007
2.59099
2.59173
2.59231
2.59273
2.59291
2.59284
2.59476
2.60469
2.53418
2.63681
463.018
-152.779
11.0934
4.33613
0.266921
0.191646
0.372388
0.459285
0.520819
0.580186
0.639597
0.698718
0.757375
0.815515
0.873099
0.930089
0.986445
1.04213
1.09711
1.15136
1.20484
1.25753
1.3094
1.36043
1.4106
1.45987
1.50824
1.55568
1.60218
1.64771
1.69226
1.73582
1.77838
1.81991
1.86042
1.89989
1.93832
1.9757
2.01202
2.04729
2.08149
2.11464
2.14674
2.17778
2.20777
2.23672
2.26464
2.29154
2.31742
2.34229
2.36618
2.38908
2.41103
2.43203
2.4521
2.47126
2.48952
2.50691
2.52345
2.53915
2.55404
2.56815
2.58148
2.59407
2.60594
2.61711
2.6276
2.63744
2.64666
2.65528
2.66331
2.6708
2.67775
2.68419
2.69015
2.69565
2.70071
2.70535
2.7096
2.71348
2.717
2.72019
2.72307
2.72565
2.72795
2.72999
2.73179
2.73336
2.73471
2.73586
2.73681
2.73759
2.7382
2.73864
2.73884
2.73878
2.74062
2.75036
2.68078
2.78329
463.02
-152.774
11.1016
4.34756
0.281619
0.209589
0.393563
0.483676
0.548409
0.610955
0.673524
0.735778
0.797544
0.858763
0.919397
0.979405
1.03875
1.09738
1.15527
1.21239
1.26871
1.32419
1.3788
1.43253
1.48535
1.53724
1.58816
1.63811
1.68706
1.735
1.78191
1.82777
1.87257
1.9163
1.95894
2.00049
2.04094
2.08029
2.11852
2.15564
2.19164
2.22653
2.26031
2.29298
2.32454
2.35501
2.38439
2.41269
2.43992
2.46609
2.49122
2.51532
2.53841
2.5605
2.58161
2.60176
2.62097
2.63925
2.65664
2.67316
2.68881
2.70364
2.71765
2.73089
2.74336
2.7551
2.76612
2.77647
2.78615
2.7952
2.80364
2.8115
2.81879
2.82556
2.83181
2.83758
2.84289
2.84777
2.85222
2.85629
2.85998
2.86333
2.86634
2.86904
2.87146
2.8736
2.87548
2.87712
2.87853
2.87973
2.88073
2.88154
2.88218
2.88264
2.88286
2.88282
2.88457
2.89391
2.8261
2.92752
463.021
-152.769
11.1097
4.35886
0.296129
0.227304
0.41447
0.507759
0.575652
0.641337
0.707025
0.772374
0.837208
0.901469
0.965115
1.0281
1.09039
1.15194
1.21271
1.27266
1.33177
1.39001
1.44733
1.50373
1.55917
1.61363
1.66708
1.7195
1.77088
1.8212
1.87043
1.91856
1.96557
2.01146
2.05621
2.09981
2.14226
2.18354
2.22366
2.26261
2.30038
2.33699
2.37243
2.4067
2.43981
2.47177
2.50259
2.53227
2.56083
2.58828
2.61463
2.63991
2.66412
2.68728
2.70941
2.73054
2.75068
2.76985
2.78808
2.80538
2.82179
2.83732
2.85201
2.86587
2.87894
2.89124
2.90279
2.91362
2.92376
2.93323
2.94207
2.95029
2.95793
2.96501
2.97155
2.97759
2.98314
2.98823
2.99289
2.99714
3.001
3.00449
3.00764
3.01046
3.01298
3.01521
3.01718
3.01889
3.02036
3.02161
3.02266
3.0235
3.02417
3.02465
3.02489
3.02486
3.02651
3.0353
2.96992
3.06949
463.023
-152.764
11.1177
4.37
0.310445
0.244783
0.435098
0.531523
0.602533
0.671317
0.740082
0.808485
0.876348
0.94361
1.01023
1.07616
1.14135
1.20577
1.26938
1.33213
1.394
1.45495
1.51496
1.57398
1.63201
1.68901
1.74495
1.79982
1.85359
1.90624
1.95776
2.00813
2.05733
2.10535
2.15218
2.1978
2.24222
2.28541
2.32739
2.36813
2.40765
2.44595
2.48302
2.51887
2.55351
2.58694
2.61917
2.65022
2.68008
2.70879
2.73635
2.76278
2.78809
2.81231
2.83545
2.85753
2.87858
2.89862
2.91767
2.93576
2.9529
2.96913
2.98448
2.99896
3.01261
3.02545
3.03751
3.04882
3.05941
3.0693
3.07852
3.0871
3.09507
3.10245
3.10928
3.11557
3.12136
3.12667
3.13152
3.13595
3.13997
3.14361
3.14689
3.14982
3.15245
3.15477
3.15681
3.15859
3.16012
3.16142
3.1625
3.16338
3.16407
3.16457
3.16483
3.16482
3.16638
3.17452
3.112
3.20918
463.025
-152.76
11.1255
4.38098
0.32456
0.262018
0.455439
0.554955
0.62904
0.70088
0.77268
0.844094
0.914944
0.985166
1.05471
1.12354
1.19161
1.25886
1.32526
1.39078
1.45537
1.519
1.58164
1.64326
1.70383
1.76333
1.82173
1.87901
1.93514
1.9901
2.04388
2.09645
2.1478
2.19792
2.2468
2.29441
2.34076
2.38584
2.42964
2.47216
2.5134
2.55336
2.59204
2.62944
2.66558
2.70046
2.73408
2.76647
2.79762
2.82756
2.85631
2.88387
2.91027
2.93552
2.95965
2.98267
3.00462
3.02551
3.04536
3.06421
3.08208
3.099
3.11498
3.13007
3.14429
3.15766
3.17023
3.182
3.19302
3.20332
3.21292
3.22185
3.23014
3.23782
3.24492
3.25146
3.25748
3.263
3.26805
3.27265
3.27682
3.2806
3.284
3.28705
3.28977
3.29218
3.29429
3.29614
3.29773
3.29907
3.3002
3.30111
3.30182
3.30234
3.30261
3.30263
3.30409
3.31151
3.25214
3.34657
463.026
-152.755
11.1333
4.3918
0.338468
0.279
0.475483
0.578045
0.655161
0.730013
0.804803
0.879186
0.95298
1.02612
1.09856
1.17024
1.24113
1.31118
1.38034
1.44857
1.51584
1.58211
1.64735
1.71153
1.77461
1.83657
1.89739
1.95704
2.01549
2.07273
2.12872
2.18347
2.23694
2.28913
2.34001
2.38959
2.43785
2.48478
2.53038
2.57464
2.61757
2.65917
2.69943
2.73836
2.77597
2.81227
2.84726
2.88096
2.91338
2.94454
2.97444
3.00312
3.03058
3.05685
3.08194
3.10589
3.12872
3.15044
3.17109
3.19068
3.20926
3.22684
3.24346
3.25914
3.27391
3.28781
3.30086
3.31309
3.32454
3.33523
3.34519
3.35446
3.36307
3.37104
3.3784
3.38519
3.39143
3.39716
3.40239
3.40715
3.41148
3.41539
3.41891
3.42207
3.42488
3.42737
3.42956
3.43147
3.43311
3.4345
3.43566
3.4366
3.43734
3.43787
3.43816
3.43821
3.43956
3.44623
3.39017
3.48163
463.028
-152.75
11.1409
4.40246
0.352164
0.295724
0.495222
0.600785
0.680885
0.758703
0.836439
0.913745
0.990438
1.06645
1.14173
1.21623
1.2899
1.3627
1.43457
1.50548
1.57539
1.64426
1.71206
1.77875
1.8443
1.9087
1.97189
2.03387
2.09461
2.15408
2.21227
2.26915
2.3247
2.37892
2.43179
2.48329
2.53343
2.58218
2.62955
2.67553
2.72012
2.76332
2.80513
2.84556
2.88462
2.92232
2.95865
2.99364
3.02731
3.05965
3.0907
3.12046
3.14897
3.17623
3.20228
3.22713
3.25082
3.27335
3.29478
3.31511
3.33437
3.35261
3.36984
3.3861
3.40142
3.41582
3.42935
3.44203
3.45389
3.46496
3.47528
3.48488
3.49379
3.50204
3.50967
3.51669
3.52315
3.52907
3.53447
3.5394
3.54387
3.54791
3.55155
3.55481
3.55771
3.56028
3.56254
3.56451
3.5662
3.56763
3.56883
3.5698
3.57055
3.5711
3.57141
3.57148
3.57274
3.57865
3.52593
3.61433
463.029
-152.746
11.1484
4.41294
0.365644
0.312183
0.514648
0.623165
0.706202
0.786939
0.867574
0.947757
1.0273
1.10614
1.18422
1.26149
1.3379
1.4134
1.48794
1.56149
1.63399
1.70542
1.77573
1.8449
1.91289
1.97967
2.0452
2.10948
2.17246
2.23413
2.29447
2.35345
2.41105
2.46727
2.52208
2.57548
2.62746
2.678
2.7271
2.77476
2.82098
2.86576
2.9091
2.95101
2.99149
3.03055
3.06821
3.10446
3.13934
3.17285
3.20502
3.23585
3.26538
3.29362
3.3206
3.34634
3.37086
3.3942
3.41637
3.43742
3.45737
3.47624
3.49407
3.5109
3.52674
3.54164
3.55563
3.56874
3.581
3.59245
3.60312
3.61304
3.62225
3.63077
3.63864
3.64589
3.65256
3.65867
3.66425
3.66933
3.67394
3.6781
3.68185
3.68521
3.6882
3.69084
3.69317
3.69519
3.69693
3.6984
3.69963
3.70062
3.7014
3.70197
3.70229
3.70238
3.70355
3.70872
3.65928
3.74464
463.031
-152.741
11.1558
4.42326
0.378901
0.328371
0.533754
0.645176
0.731101
0.814709
0.898196
0.981208
1.06356
1.14518
1.22601
1.306
1.38511
1.46326
1.54043
1.61657
1.69163
1.76557
1.83835
1.90995
1.98033
2.04945
2.11729
2.18382
2.24901
2.31284
2.37529
2.43633
2.49595
2.55413
2.61085
2.66611
2.71989
2.77219
2.823
2.87232
2.92014
2.96646
3.0113
3.05465
3.09652
3.13693
3.17587
3.21337
3.24944
3.2841
3.31736
3.34924
3.37977
3.40896
3.43685
3.46345
3.48879
3.51291
3.53583
3.55757
3.57818
3.59767
3.61609
3.63346
3.64982
3.66521
3.67965
3.69318
3.70583
3.71764
3.72865
3.73888
3.74837
3.75716
3.76527
3.77274
3.77961
3.7859
3.79164
3.79687
3.80161
3.8059
3.80975
3.8132
3.81627
3.81899
3.82138
3.82345
3.82524
3.82675
3.82801
3.82902
3.82982
3.8304
3.83073
3.83085
3.83193
3.83639
3.79012
3.87252
463.032
-152.737
11.163
4.4334
0.391931
0.344282
0.552533
0.666809
0.755574
0.842004
0.928292
1.01408
1.09919
1.18354
1.26708
1.34975
1.4315
1.51227
1.59202
1.6707
1.74826
1.82467
1.89989
1.97388
2.0466
2.11803
2.18813
2.25687
2.32423
2.39018
2.4547
2.51777
2.57936
2.63946
2.69806
2.75515
2.8107
2.86472
2.9172
2.96814
3.01753
3.06537
3.11167
3.15644
3.19968
3.24139
3.2816
3.32032
3.35756
3.39333
3.42766
3.46056
3.49207
3.5222
3.55097
3.57842
3.60457
3.62944
3.65308
3.67551
3.69675
3.71685
3.73584
3.75375
3.77061
3.78647
3.80134
3.81528
3.82831
3.84048
3.85181
3.86234
3.8721
3.88114
3.88949
3.89717
3.90423
3.9107
3.9166
3.92197
3.92684
3.93124
3.93519
3.93873
3.94188
3.94467
3.94711
3.94924
3.95106
3.95261
3.9539
3.95494
3.95575
3.95634
3.95669
3.95682
3.95782
3.96162
3.91833
3.99792
463.033
-152.733
11.1702
4.44336
0.40473
0.35991
0.570978
0.688058
0.779611
0.868812
0.957852
1.04638
1.13419
1.22122
1.30742
1.39272
1.47706
1.5604
1.64268
1.72386
1.80388
1.88272
1.96032
2.03665
2.11168
2.18537
2.25768
2.3286
2.39808
2.46611
2.53267
2.59772
2.66125
2.72324
2.78368
2.84255
2.89984
2.95555
3.00967
3.06219
3.11312
3.16245
3.21018
3.25634
3.30091
3.34391
3.38536
3.42526
3.46364
3.50051
3.53588
3.56979
3.60225
3.63328
3.66292
3.6912
3.71813
3.74375
3.76808
3.79117
3.81305
3.83374
3.85328
3.87171
3.88906
3.90536
3.92067
3.935
3.9484
3.9609
3.97254
3.98337
3.9934
4.00268
4.01125
4.01914
4.02638
4.03301
4.03907
4.04457
4.04956
4.05407
4.05812
4.06175
4.06497
4.06782
4.07032
4.07249
4.07435
4.07593
4.07725
4.07831
4.07913
4.07974
4.0801
4.08025
4.08117
4.08436
4.04385
4.1208
463.035
-152.729
11.1771
4.45314
0.417293
0.375249
0.589082
0.708914
0.803204
0.895124
0.986865
1.07807
1.16854
1.25821
1.34701
1.43488
1.52178
1.60763
1.6924
1.77602
1.85847
1.93968
2.01962
2.09825
2.17553
2.25144
2.32593
2.39897
2.47054
2.54062
2.60916
2.67616
2.74158
2.80543
2.86766
2.92829
2.98728
3.04464
3.10036
3.15444
3.20687
3.25765
3.30679
3.3543
3.40018
3.44444
3.4871
3.52816
3.56765
3.60558
3.64198
3.67686
3.71025
3.74218
3.77266
3.80174
3.82943
3.85577
3.88079
3.90453
3.92701
3.94827
3.96835
3.98728
4.00511
4.02185
4.03757
4.05228
4.06604
4.07887
4.09081
4.10191
4.1122
4.12172
4.13051
4.13859
4.14601
4.1528
4.159
4.16463
4.16974
4.17435
4.17849
4.18219
4.18548
4.18839
4.19094
4.19316
4.19506
4.19667
4.198
4.19909
4.19993
4.20054
4.20091
4.20108
4.20193
4.20456
4.16662
4.24112
463.036
-152.725
11.184
4.46272
0.429616
0.390295
0.606839
0.72937
0.826344
0.920931
1.01532
1.10915
1.20223
1.29448
1.38583
1.47624
1.56563
1.65395
1.74115
1.82718
1.91199
1.99553
2.07777
2.15865
2.23815
2.31622
2.39284
2.46798
2.54159
2.61366
2.68415
2.75305
2.82034
2.88599
2.94999
3.01233
3.07299
3.13197
3.18926
3.24485
3.29875
3.35095
3.40147
3.4503
3.49745
3.54294
3.58678
3.62898
3.66955
3.70853
3.74592
3.78175
3.81605
3.84884
3.88015
3.91001
3.93844
3.96548
3.99117
4.01553
4.0386
4.06042
4.08102
4.10044
4.11872
4.13589
4.152
4.16709
4.18118
4.19433
4.20657
4.21794
4.22847
4.23822
4.24721
4.25548
4.26306
4.27001
4.27634
4.2821
4.28731
4.29202
4.29625
4.30002
4.30338
4.30634
4.30894
4.3112
4.31313
4.31477
4.31613
4.31723
4.31808
4.3187
4.31908
4.31926
4.32005
4.32217
4.28658
4.35883
463.038
-152.72
11.1907
4.47213
0.441694
0.405042
0.624244
0.74942
0.849023
0.946224
1.04321
1.13961
1.23525
1.33002
1.42388
1.51676
1.6086
1.69934
1.78893
1.87731
1.96444
2.05026
2.13474
2.21783
2.2995
2.3797
2.4584
2.53558
2.61119
2.68521
2.75762
2.82838
2.89748
2.96491
3.03063
3.09464
3.15693
3.21749
3.27631
3.33339
3.38872
3.44232
3.49417
3.54429
3.59269
3.63938
3.68437
3.72767
3.76931
3.8093
3.84766
3.88442
3.9196
3.95323
3.98534
4.01596
4.04511
4.07283
4.09916
4.12413
4.14778
4.17013
4.19124
4.21113
4.22985
4.24744
4.26393
4.27937
4.2938
4.30725
4.31977
4.3314
4.34217
4.35213
4.36131
4.36976
4.37751
4.3846
4.39106
4.39693
4.40225
4.40705
4.41135
4.4152
4.41862
4.42163
4.42427
4.42656
4.42853
4.43019
4.43157
4.43268
4.43355
4.43418
4.43456
4.43476
4.43549
4.43716
4.40369
4.4739
463.039
-152.717
11.1973
4.48133
0.453525
0.419486
0.641291
0.769056
0.871236
0.970996
1.07052
1.16945
1.26758
1.36483
1.46114
1.55645
1.65069
1.74379
1.83572
1.9264
2.0158
2.10385
2.19053
2.27578
2.35956
2.44185
2.52259
2.60176
2.67932
2.75526
2.82953
2.90211
2.97299
3.04215
3.10956
3.17521
3.23909
3.30119
3.3615
3.42003
3.47677
3.53171
3.58488
3.63626
3.68587
3.73373
3.77984
3.82421
3.86688
3.90786
3.94717
3.98483
4.02087
4.05532
4.0882
4.11956
4.14941
4.1778
4.20475
4.23031
4.25451
4.27738
4.29898
4.31933
4.33847
4.35646
4.37332
4.3891
4.40384
4.41759
4.43038
4.44225
4.45325
4.46341
4.47278
4.4814
4.4893
4.49653
4.50311
4.50909
4.51451
4.51939
4.52377
4.52768
4.53115
4.53422
4.5369
4.53922
4.54121
4.5429
4.54429
4.54542
4.54629
4.54693
4.54732
4.54753
4.54821
4.54948
4.51793
4.58628
463.04
-152.713
11.2037
4.49035
0.465104
0.433623
0.657974
0.788274
0.892974
0.995239
1.09725
1.19865
1.29922
1.3989
1.49761
1.59528
1.69187
1.78729
1.8815
1.97443
2.06605
2.15629
2.24511
2.33247
2.41833
2.50264
2.58538
2.6665
2.74598
2.82377
2.89987
2.97423
3.04685
3.11769
3.18674
3.25399
3.31942
3.38303
3.44481
3.50475
3.56285
3.61912
3.67355
3.72616
3.77696
3.82595
3.87315
3.91858
3.96225
4.00419
4.04441
4.08295
4.11983
4.15507
4.18871
4.22078
4.25131
4.28034
4.30789
4.33402
4.35876
4.38213
4.4042
4.42499
4.44455
4.46292
4.48013
4.49624
4.51129
4.52531
4.53836
4.55047
4.56168
4.57204
4.58159
4.59036
4.59841
4.60576
4.61246
4.61855
4.62405
4.62901
4.63346
4.63743
4.64095
4.64406
4.64678
4.64913
4.65115
4.65285
4.65427
4.6554
4.65629
4.65692
4.65732
4.65754
4.65817
4.65909
4.62927
4.69593
463.041
-152.709
11.21
4.49916
0.476428
0.447448
0.67429
0.807069
0.914233
1.01895
1.12339
1.2272
1.33016
1.43221
1.53326
1.63326
1.73213
1.82982
1.92626
2.02139
2.11517
2.20755
2.29847
2.38789
2.47577
2.56207
2.64676
2.72978
2.81112
2.89074
2.96862
3.04472
3.11903
3.19152
3.26217
3.33098
3.39793
3.463
3.5262
3.58752
3.64695
3.7045
3.76018
3.81399
3.86593
3.91603
3.96429
4.01074
4.05539
4.09826
4.13937
4.17876
4.21644
4.25246
4.28683
4.31959
4.35078
4.38042
4.40857
4.43524
4.46049
4.48436
4.50688
4.52809
4.54805
4.56678
4.58434
4.60076
4.6161
4.63039
4.64368
4.65601
4.66743
4.67798
4.68769
4.69662
4.7048
4.71228
4.71909
4.72527
4.73085
4.73589
4.7404
4.74442
4.74799
4.75114
4.75389
4.75627
4.75831
4.76003
4.76145
4.7626
4.76349
4.76413
4.76454
4.76476
4.76534
4.76597
4.7377
4.80282
463.043
-152.705
11.2162
4.50777
0.487495
0.460958
0.690234
0.825434
0.935006
1.04211
1.14893
1.25509
1.3604
1.46476
1.5681
1.67036
1.77147
1.87136
1.96998
2.06727
2.16317
2.25763
2.35059
2.44203
2.53189
2.62013
2.70671
2.79159
2.87475
2.95615
3.03576
3.11355
3.18951
3.26361
3.33583
3.40615
3.47457
3.54108
3.60566
3.66832
3.72905
3.78785
3.84473
3.8997
3.95277
4.00394
4.05323
4.10067
4.14626
4.19004
4.23202
4.27223
4.3107
4.34746
4.38254
4.41597
4.44779
4.47803
4.50674
4.53395
4.5597
4.58403
4.60699
4.62861
4.64894
4.66803
4.68591
4.70264
4.71826
4.7328
4.74633
4.75887
4.77048
4.7812
4.79108
4.80015
4.80846
4.81605
4.82295
4.82922
4.83489
4.83999
4.84456
4.84863
4.85224
4.85542
4.8582
4.86061
4.86267
4.8644
4.86583
4.86699
4.86788
4.86853
4.86893
4.86916
4.8697
4.87007
4.8432
4.90692
463.044
-152.702
11.2222
4.51619
0.498301
0.474151
0.705802
0.843366
0.95529
1.06473
1.17387
1.28233
1.38992
1.49653
1.60211
1.70658
1.80987
1.91193
2.01267
2.11206
2.21002
2.30651
2.40147
2.49487
2.58666
2.67678
2.76521
2.85191
2.93684
3.01997
3.10128
3.18072
3.25828
3.33394
3.40769
3.47949
3.54934
3.61724
3.68317
3.74713
3.80912
3.86914
3.9272
3.98329
4.03744
4.08966
4.13996
4.18835
4.23486
4.27952
4.32233
4.36334
4.40257
4.44005
4.47581
4.50989
4.54233
4.57315
4.6024
4.63012
4.65635
4.68113
4.70451
4.72652
4.74722
4.76664
4.78484
4.80185
4.81773
4.83252
4.84627
4.85901
4.87081
4.88169
4.89172
4.90092
4.90935
4.91704
4.92405
4.9304
4.93613
4.94129
4.94591
4.95003
4.95368
4.95689
4.9597
4.96212
4.96419
4.96594
4.96738
4.96854
4.96944
4.97009
4.9705
4.97073
4.97123
4.97137
4.94576
5.0082
463.045
-152.698
11.2281
4.52439
0.508845
0.487022
0.720992
0.860863
0.975079
1.0868
1.1982
1.30891
1.41871
1.52753
1.63529
1.74191
1.84734
1.95149
2.05431
2.15574
2.25571