/*--------------------------------*- C++ -*----------------------------------*\
  =========                 |
  \\      /  F ield         | OpenFOAM: The Open Source CFD Toolbox
   \\    /   O peration     | Website:  https://openfoam.org
    \\  /    A nd           | Version:  10
     \\/     M anipulation  |
\*---------------------------------------------------------------------------*/
FoamFile
{
    format      ascii;
    class       volScalarField;
    location    "24";
    object      T;
}
// * * * * * * * * * * * * * * * * * * * * * * * * * * * * * * * * * * * * * //

dimensions      [0 0 0 1 0 0 0];

internalField   nonuniform List<scalar> 
10000
(
374.981
361.275
356.585
354.523
353.401
352.689
352.19
351.815
351.52
351.279
351.077
350.902
350.75
350.614
350.491
350.379
350.276
350.181
350.091
350.008
349.928
349.853
349.781
349.713
349.647
349.584
349.523
349.464
349.407
349.352
349.298
349.246
349.196
349.147
349.099
349.052
349.007
348.963
348.919
348.877
348.836
348.796
348.757
348.719
348.681
348.645
348.609
348.575
348.541
348.508
348.476
348.444
348.413
348.384
348.354
348.326
348.299
348.272
348.246
348.22
348.195
348.171
348.148
348.126
348.104
348.083
348.062
348.042
348.023
348.005
347.987
347.969
347.953
347.937
347.922
347.907
347.893
347.88
347.867
347.855
347.844
347.833
347.822
347.813
347.804
347.795
347.787
347.78
347.773
347.767
347.762
347.757
347.753
347.749
347.746
347.743
347.741
347.74
347.739
347.739
388.599
374.808
367.122
362.628
359.788
357.85
356.441
355.363
354.503
353.796
353.198
352.683
352.229
351.825
351.459
351.126
350.819
350.533
350.266
350.015
349.778
349.553
349.338
349.132
348.935
348.746
348.563
348.387
348.216
348.051
347.891
347.735
347.583
347.436
347.293
347.153
347.017
346.884
346.755
346.629
346.505
346.385
346.268
346.153
346.041
345.932
345.825
345.721
345.62
345.521
345.424
345.33
345.238
345.148
345.061
344.976
344.893
344.812
344.734
344.658
344.584
344.512
344.442
344.374
344.309
344.245
344.184
344.124
344.067
344.011
343.958
343.906
343.856
343.809
343.763
343.719
343.677
343.637
343.599
343.563
343.528
343.496
343.465
343.436
343.409
343.383
343.36
343.338
343.318
343.3
343.284
343.269
343.256
343.245
343.235
343.228
343.222
343.218
343.215
343.215
393.205
382.239
374.468
369.082
365.274
362.485
360.364
358.694
357.337
356.206
355.241
354.403
353.663
353
352.399
351.85
351.342
350.87
350.429
350.013
349.619
349.245
348.889
348.547
348.22
347.905
347.601
347.308
347.024
346.749
346.482
346.223
345.971
345.726
345.488
345.255
345.029
344.808
344.592
344.382
344.177
343.976
343.781
343.59
343.403
343.221
343.044
342.87
342.701
342.536
342.375
342.218
342.065
341.916
341.77
341.628
341.491
341.356
341.226
341.099
340.975
340.856
340.739
340.627
340.517
340.411
340.309
340.21
340.114
340.021
339.932
339.846
339.764
339.684
339.608
339.535
339.465
339.398
339.335
339.274
339.217
339.163
339.111
339.063
339.018
338.976
338.936
338.9
338.867
338.837
338.809
338.785
338.763
338.745
338.729
338.716
338.706
338.7
338.695
338.694
395.181
386.478
379.43
373.959
369.741
366.453
363.838
361.712
359.947
358.45
357.159
356.027
355.02
354.114
353.29
352.533
351.833
351.18
350.567
349.99
349.444
348.924
348.427
347.952
347.496
347.056
346.633
346.223
345.827
345.443
345.071
344.709
344.357
344.014
343.681
343.356
343.039
342.73
342.429
342.135
341.848
341.568
341.294
341.027
340.766
340.512
340.263
340.021
339.784
339.553
339.328
339.108
338.894
338.685
338.482
338.283
338.091
337.903
337.72
337.542
337.37
337.202
337.04
336.882
336.729
336.581
336.437
336.298
336.164
336.035
335.91
335.79
335.674
335.563
335.457
335.354
335.257
335.163
335.074
334.99
334.909
334.833
334.761
334.694
334.631
334.572
334.517
334.466
334.419
334.377
334.339
334.304
334.274
334.248
334.226
334.209
334.195
334.185
334.18
334.178
396.219
389.064
382.814
377.583
373.281
369.747
366.823
364.372
362.288
360.491
358.92
357.528
356.28
355.149
354.116
353.163
352.279
351.452
350.675
349.942
349.245
348.583
347.949
347.342
346.759
346.197
345.655
345.131
344.624
344.132
343.654
343.19
342.739
342.3
341.872
341.455
341.049
340.652
340.265
339.888
339.52
339.16
338.809
338.466
338.131
337.804
337.485
337.174
336.87
336.573
336.284
336.001
335.726
335.458
335.197
334.942
334.694
334.453
334.218
333.99
333.768
333.553
333.344
333.141
332.945
332.754
332.57
332.392
332.22
332.053
331.893
331.739
331.59
331.447
331.31
331.179
331.053
330.933
330.819
330.71
330.607
330.509
330.417
330.33
330.249
330.173
330.102
330.037
329.977
329.923
329.874
329.83
329.791
329.758
329.73
329.707
329.689
329.676
329.669
329.667
396.846
390.748
385.18
380.279
376.053
372.435
369.336
366.666
364.346
362.31
360.504
358.887
357.425
356.091
354.865
353.73
352.672
351.68
350.745
349.86
349.02
348.218
347.451
346.715
346.007
345.325
344.667
344.029
343.412
342.814
342.232
341.667
341.117
340.582
340.061
339.553
339.057
338.574
338.102
337.642
337.192
336.753
336.325
335.906
335.498
335.099
334.709
334.329
333.958
333.596
333.243
332.898
332.563
332.235
331.916
331.605
331.303
331.008
330.721
330.443
330.172
329.909
329.654
329.406
329.166
328.934
328.709
328.491
328.281
328.078
327.882
327.693
327.512
327.338
327.17
327.01
326.856
326.71
326.57
326.437
326.311
326.192
326.079
325.973
325.874
325.781
325.695
325.616
325.543
325.476
325.416
325.362
325.315
325.274
325.24
325.212
325.19
325.175
325.166
325.164
397.261
391.903
386.878
382.303
378.217
374.606
371.423
368.614
366.123
363.901
361.904
360.096
358.446
356.93
355.529
354.224
353.004
351.855
350.771
349.742
348.762
347.826
346.929
346.067
345.238
344.438
343.665
342.916
342.191
341.487
340.803
340.138
339.491
338.861
338.247
337.648
337.064
336.494
335.938
335.395
334.865
334.348
333.843
333.349
332.867
332.397
331.937
331.489
331.051
330.624
330.207
329.8
329.404
329.017
328.641
328.274
327.917
327.569
327.231
326.902
326.582
326.272
325.971
325.678
325.395
325.12
324.855
324.598
324.35
324.11
323.879
323.656
323.442
323.236
323.038
322.849
322.668
322.495
322.33
322.173
322.024
321.883
321.75
321.625
321.508
321.398
321.297
321.203
321.117
321.038
320.967
320.904
320.848
320.8
320.759
320.726
320.701
320.683
320.672
320.669
397.551
392.728
388.127
383.838
379.91
376.349
373.138
370.246
367.635
365.271
363.119
361.15
359.338
357.661
356.101
354.641
353.269
351.975
350.748
349.581
348.468
347.402
346.38
345.396
344.448
343.533
342.648
341.79
340.959
340.151
339.366
338.603
337.859
337.135
336.429
335.741
335.07
334.414
333.775
333.15
332.54
331.944
331.363
330.795
330.24
329.698
329.169
328.652
328.148
327.656
327.176
326.708
326.251
325.806
325.372
324.949
324.538
324.137
323.747
323.368
323
322.642
322.295
321.958
321.632
321.316
321.009
320.713
320.427
320.151
319.885
319.628
319.381
319.144
318.916
318.698
318.489
318.29
318.099
317.919
317.747
317.585
317.431
317.287
317.152
317.026
316.909
316.8
316.701
316.61
316.528
316.455
316.391
316.336
316.289
316.251
316.221
316.201
316.189
316.185
397.762
393.335
389.063
385.016
381.238
377.746
374.538
371.598
368.905
366.433
364.157
362.053
360.101
358.281
356.578
354.977
353.466
352.034
350.674
349.376
348.135
346.945
345.801
344.7
343.637
342.61
341.615
340.651
339.715
338.805
337.921
337.06
336.222
335.405
334.609
333.832
333.074
332.334
331.611
330.905
330.216
329.543
328.886
328.243
327.616
327.004
326.405
325.821
325.251
324.694
324.151
323.622
323.105
322.601
322.11
321.632
321.167
320.713
320.272
319.844
319.427
319.022
318.629
318.248
317.878
317.52
317.174
316.839
316.515
316.202
315.901
315.61
315.331
315.062
314.804
314.557
314.321
314.095
313.88
313.676
313.481
313.298
313.124
312.961
312.808
312.665
312.532
312.41
312.297
312.194
312.102
312.019
311.946
311.884
311.831
311.788
311.754
311.731
311.717
311.713
397.919
393.791
389.775
385.925
382.281
378.861
375.673
372.709
369.958
367.403
365.027
362.81
360.737
358.792
356.961
355.231
353.591
352.032
350.545
349.124
347.762
346.453
345.192
343.977
342.802
341.666
340.564
339.496
338.458
337.448
336.467
335.51
334.579
333.67
332.785
331.92
331.076
330.252
329.448
328.662
327.894
327.144
326.412
325.696
324.997
324.314
323.647
322.996
322.36
321.739
321.134
320.543
319.967
319.405
318.857
318.324
317.804
317.299
316.807
316.328
315.863
315.412
314.973
314.548
314.136
313.736
313.349
312.975
312.614
312.265
311.929
311.605
311.293
310.993
310.705
310.43
310.166
309.914
309.674
309.445
309.229
309.023
308.83
308.648
308.477
308.317
308.169
308.032
307.907
307.792
307.689
307.597
307.515
307.445
307.386
307.338
307.301
307.275
307.259
307.255
398.038
394.138
390.322
386.632
383.101
379.75
376.586
373.612
370.82
368.201
365.742
363.431
361.253
359.197
357.251
355.403
353.645
351.967
350.362
348.824
347.346
345.923
344.551
343.225
341.943
340.7
339.495
338.325
337.187
336.08
335.002
333.952
332.929
331.931
330.957
330.006
329.077
328.171
327.285
326.42
325.574
324.748
323.941
323.153
322.382
321.63
320.894
320.177
319.476
318.791
318.124
317.472
316.837
316.217
315.613
315.025
314.452
313.894
313.352
312.824
312.311
311.813
311.329
310.86
310.405
309.964
309.538
309.125
308.726
308.341
307.97
307.612
307.268
306.937
306.62
306.316
306.025
305.747
305.482
305.23
304.99
304.764
304.55
304.349
304.161
303.985
303.821
303.67
303.531
303.405
303.291
303.189
303.1
303.022
302.957
302.904
302.863
302.834
302.817
302.812
398.129
394.405
390.745
387.182
383.745
380.453
377.316
374.337
371.515
368.845
366.318
363.925
361.656
359.501
357.451
355.496
353.628
351.84
350.125
348.476
346.888
345.357
343.877
342.445
341.059
339.713
338.407
337.138
335.902
334.7
333.528
332.386
331.273
330.186
329.125
328.089
327.077
326.089
325.123
324.179
323.257
322.356
321.475
320.614
319.773
318.951
318.149
317.365
316.599
315.852
315.122
314.411
313.717
313.04
312.38
311.737
311.111
310.501
309.908
309.332
308.771
308.226
307.698
307.185
306.687
306.206
305.739
305.288
304.852
304.431
304.026
303.635
303.258
302.897
302.55
302.217
301.899
301.595
301.305
301.029
300.768
300.52
300.287
300.067
299.861
299.668
299.489
299.324
299.173
299.034
298.91
298.798
298.7
298.616
298.544
298.486
298.441
298.41
298.391
298.386
398.199
394.609
391.071
387.609
384.248
381.005
377.891
374.91
372.064
369.352
366.767
364.303
361.953
359.71
357.566
355.513
353.544
351.653
349.833
348.08
346.388
344.752
343.17
341.636
340.149
338.704
337.3
335.934
334.604
333.308
332.044
330.812
329.61
328.436
327.29
326.17
325.076
324.007
322.962
321.941
320.942
319.967
319.013
318.081
317.17
316.28
315.41
314.561
313.731
312.921
312.131
311.359
310.607
309.873
309.158
308.461
307.782
307.121
306.478
305.852
305.244
304.654
304.08
303.524
302.985
302.462
301.956
301.467
300.994
300.537
300.097
299.673
299.265
298.872
298.496
298.135
297.79
297.46
297.146
296.847
296.563
296.294
296.041
295.802
295.578
295.37
295.176
294.996
294.832
294.682
294.547
294.426
294.319
294.228
294.15
294.087
294.038
294.004
293.984
293.978
398.252
394.766
391.321
387.938
384.637
381.433
378.336
375.354
372.488
369.738
367.102
364.575
362.154
359.83
357.6
355.456
353.394
351.406
349.489
347.637
345.846
344.111
342.43
340.798
339.213
337.673
336.173
334.713
333.291
331.904
330.55
329.23
327.941
326.681
325.451
324.249
323.074
321.925
320.802
319.705
318.631
317.582
316.556
315.554
314.574
313.616
312.68
311.766
310.873
310.001
309.149
308.319
307.508
306.718
305.948
305.197
304.466
303.754
303.061
302.387
301.732
301.096
300.478
299.879
299.297
298.734
298.189
297.662
297.152
296.66
296.186
295.729
295.289
294.866
294.46
294.071
293.699
293.343
293.005
292.682
292.376
292.087
291.814
291.556
291.315
291.09
290.881
290.688
290.511
290.349
290.203
290.073
289.958
289.859
289.776
289.708
289.655
289.618
289.597
289.59
398.293
394.885
391.511
388.188
384.933
381.758
378.674
375.687
372.802
370.018
367.336
364.753
362.265
359.869
357.559
355.332
353.181
351.104
349.094
347.149
345.263
343.434
341.658
339.932
338.253
336.619
335.028
333.476
331.964
330.487
329.047
327.64
326.265
324.922
323.609
322.326
321.071
319.845
318.645
317.472
316.324
315.203
314.106
313.033
311.985
310.96
309.958
308.98
308.024
307.091
306.179
305.29
304.422
303.576
302.751
301.947
301.164
300.401
299.659
298.937
298.236
297.554
296.892
296.25
295.627
295.024
294.44
293.875
293.329
292.801
292.293
291.803
291.331
290.878
290.443
290.026
289.628
289.247
288.884
288.538
288.21
287.9
287.607
287.331
287.073
286.832
286.608
286.401
286.21
286.037
285.881
285.741
285.618
285.512
285.423
285.35
285.294
285.254
285.231
285.224
398.323
394.974
391.653
388.374
385.151
381.997
378.92
375.926
373.021
370.205
367.48
364.845
362.296
359.832
357.449
355.143
352.911
350.748
348.651
346.617
344.641
342.722
340.855
339.038
337.268
335.544
333.863
332.223
330.623
329.06
327.533
326.042
324.584
323.159
321.765
320.402
319.069
317.765
316.49
315.242
314.022
312.829
311.661
310.52
309.404
308.313
307.246
306.204
305.186
304.192
303.222
302.274
301.349
300.448
299.569
298.712
297.877
297.064
296.273
295.504
294.756
294.029
293.323
292.639
291.975
291.332
290.709
290.106
289.524
288.962
288.42
287.897
287.394
286.911
286.447
286.003
285.577
285.171
284.784
284.416
284.066
283.735
283.422
283.128
282.853
282.596
282.356
282.136
281.933
281.748
281.581
281.432
281.301
281.188
281.092
281.015
280.955
280.912
280.888
280.88
398.345
395.038
391.754
388.506
385.306
382.164
379.088
376.084
373.158
370.311
367.545
364.86
362.255
359.727
357.275
354.895
352.586
350.342
348.163
346.044
343.982
341.976
340.021
338.117
336.26
334.449
332.681
330.955
329.269
327.621
326.011
324.437
322.897
321.391
319.918
318.477
317.067
315.688
314.338
313.017
311.725
310.461
309.224
308.015
306.832
305.675
304.545
303.44
302.361
301.306
300.277
299.272
298.291
297.334
296.401
295.492
294.606
293.744
292.904
292.088
291.294
290.523
289.774
289.047
288.342
287.659
286.998
286.358
285.74
285.143
284.568
284.013
283.479
282.966
282.473
282.001
281.55
281.118
280.707
280.316
279.944
279.593
279.261
278.949
278.656
278.383
278.129
277.894
277.679
277.483
277.305
277.147
277.008
276.888
276.786
276.704
276.64
276.595
276.569
276.561
398.36
395.081
391.823
388.595
385.407
382.27
379.189
376.173
373.224
370.345
367.54
364.807
362.148
359.56
357.042
354.593
352.21
349.89
347.631
345.431
343.288
341.198
339.16
337.171
335.229
333.333
331.481
329.671
327.902
326.172
324.48
322.825
321.206
319.621
318.07
316.552
315.066
313.612
312.189
310.796
309.433
308.1
306.795
305.518
304.269
303.048
301.854
300.688
299.547
298.434
297.346
296.284
295.247
294.236
293.25
292.289
291.353
290.441
289.554
288.691
287.851
287.036
286.244
285.475
284.73
284.008
283.308
282.632
281.978
281.347
280.738
280.151
279.586
279.044
278.523
278.023
277.545
277.089
276.654
276.24
275.847
275.475
275.124
274.794
274.484
274.195
273.927
273.678
273.45
273.243
273.055
272.888
272.741
272.613
272.506
272.419
272.351
272.304
272.276
272.268
398.369
395.108
391.864
388.646
385.464
382.324
379.235
376.201
373.227
370.317
367.472
364.694
361.982
359.337
356.757
354.241
351.787
349.394
347.06
344.783
342.56
340.39
338.271
336.2
334.177
332.199
330.266
328.374
326.524
324.713
322.942
321.207
319.51
317.848
316.221
314.627
313.068
311.54
310.045
308.581
307.148
305.746
304.374
303.031
301.717
300.432
299.176
297.948
296.748
295.575
294.43
293.311
292.22
291.155
290.117
289.104
288.118
287.158
286.223
285.313
284.428
283.569
282.734
281.925
281.139
280.378
279.641
278.928
278.239
277.573
276.931
276.313
275.718
275.146
274.596
274.07
273.566
273.085
272.626
272.19
271.776
271.384
271.014
270.665
270.339
270.034
269.751
269.489
269.249
269.03
268.832
268.656
268.5
268.366
268.253
268.161
268.09
268.039
268.01
268.001
398.373
395.12
391.882
388.667
385.482
382.334
379.231
376.178
373.177
370.234
367.35
364.526
361.764
359.063
356.423
353.843
351.322
348.859
346.452
344.1
341.802
339.554
337.357
335.207
333.105
331.048
329.035
327.064
325.135
323.246
321.396
319.585
317.811
316.073
314.371
312.704
311.071
309.472
307.906
306.372
304.871
303.401
301.962
300.554
299.176
297.828
296.51
295.222
293.962
292.731
291.529
290.355
289.21
288.092
287.001
285.938
284.902
283.894
282.911
281.956
281.027
280.124
279.247
278.396
277.571
276.771
275.997
275.248
274.524
273.825
273.15
272.5
271.874
271.273
270.696
270.143
269.613
269.108
268.625
268.167
267.731
267.319
266.93
266.564
266.221
265.901
265.603
265.328
265.075
264.845
264.637
264.452
264.288
264.147
264.028
263.931
263.856
263.804
263.773
263.764
398.373
395.12
391.88
388.66
385.467
382.307
379.186
376.109
373.08
370.103
367.179
364.31
361.498
358.743
356.045
353.403
350.818
348.287
345.81
343.387
341.014
338.692
336.419
334.194
332.014
329.88
327.79
325.742
323.736
321.77
319.845
317.958
316.109
314.297
312.522
310.782
309.078
307.408
305.772
304.17
302.601
301.064
299.56
298.088
296.647
295.237
293.858
292.51
291.192
289.904
288.645
287.417
286.217
285.047
283.905
282.792
281.707
280.65
279.622
278.621
277.648
276.702
275.783
274.892
274.027
273.189
272.378
271.593
270.834
270.101
269.394
268.713
268.058
267.428
266.823
266.243
265.688
265.158
264.653
264.172
263.715
263.283
262.876
262.492
262.132
261.796
261.484
261.196
260.931
260.69
260.472
260.277
260.106
259.958
259.833
259.732
259.653
259.598
259.566
259.556
398.37
395.11
391.862
388.632
385.425
382.247
379.105
376.002
372.942
369.929
366.965
364.052
361.191
358.383
355.628
352.926
350.278
347.682
345.138
342.644
340.201
337.807
335.46
333.16
330.906
328.697
326.532
324.409
322.328
320.288
318.288
316.327
314.405
312.521
310.673
308.863
307.088
305.349
303.645
301.975
300.34
298.738
297.169
295.633
294.13
292.659
291.221
289.813
288.438
287.093
285.779
284.496
283.243
282.021
280.828
279.666
278.533
277.429
276.354
275.309
274.292
273.303
272.344
271.412
270.508
269.633
268.785
267.964
267.171
266.405
265.666
264.954
264.269
263.61
262.978
262.371
261.791
261.237
260.709
260.206
259.729
259.277
258.851
258.45
258.074
257.722
257.396
257.094
256.818
256.565
256.337
256.134
255.955
255.8
255.67
255.563
255.481
255.423
255.39
255.38
398.364
395.091
391.83
388.584
385.358
382.16
378.993
375.861
372.769
369.719
366.714
363.756
360.846
357.986
355.175
352.416
349.706
347.046
344.437
341.876
339.364
336.899
334.481
332.11
329.783
327.501
325.263
323.067
320.912
318.799
316.727
314.694
312.7
310.745
308.827
306.947
305.103
303.296
301.525
299.789
298.088
296.422
294.79
293.192
291.627
290.096
288.598
287.133
285.7
284.3
282.931
281.595
280.29
279.016
277.773
276.562
275.381
274.23
273.11
272.02
270.96
269.93
268.929
267.958
267.016
266.102
265.218
264.363
263.535
262.737
261.966
261.224
260.509
259.822
259.162
258.53
257.925
257.347
256.796
256.271
255.774
255.302
254.858
254.439
254.047
253.68
253.34
253.025
252.736
252.473
252.235
252.023
251.836
251.675
251.539
251.428
251.342
251.282
251.246
251.236
398.355
395.065
391.785
388.519
385.272
382.048
378.853
375.691
372.564
369.476
366.43
363.427
360.468
357.557
354.692
351.875
349.105
346.384
343.71
341.084
338.505
335.972
333.485
331.043
328.646
326.293
323.983
321.716
319.49
317.306
315.163
313.059
310.995
308.97
306.984
305.035
303.124
301.25
299.413
297.612
295.847
294.117
292.423
290.763
289.139
287.548
285.992
284.47
282.981
281.525
280.103
278.713
277.356
276.032
274.74
273.48
272.252
271.055
269.89
268.756
267.654
266.582
265.541
264.53
263.55
262.6
261.68
260.789
259.929
259.098
258.296
257.523
256.779
256.064
255.377
254.719
254.089
253.488
252.914
252.368
251.85
251.36
250.897
250.461
250.052
249.671
249.317
248.989
248.688
248.414
248.167
247.946
247.751
247.583
247.441
247.326
247.237
247.174
247.137
247.126
398.345
395.033
391.73
388.44
385.167
381.916
378.691
375.495
372.332
369.205
366.116
363.068
360.061
357.099
354.18
351.307
348.479
345.697
342.961
340.271
337.626
335.027
332.473
329.963
327.497
325.075
322.695
320.358
318.063
315.809
313.597
311.424
309.292
307.199
305.144
303.129
301.151
299.212
297.31
295.445
293.617
291.825
290.069
288.349
286.665
285.016
283.403
281.824
280.28
278.77
277.294
275.853
274.445
273.071
271.73
270.422
269.147
267.905
266.696
265.519
264.374
263.261
262.18
261.131
260.113
259.126
258.17
257.246
256.352
255.489
254.656
253.853
253.08
252.337
251.624
250.941
250.286
249.661
249.065
248.498
247.96
247.451
246.969
246.517
246.092
245.696
245.328
244.987
244.675
244.39
244.133
243.903
243.701
243.526
243.379
243.259
243.166
243.101
243.063
243.051
398.332
394.995
391.666
388.349
385.047
381.766
378.508
375.277
372.076
368.909
365.777
362.683
359.629
356.615
353.643
350.715
347.83
344.988
342.191
339.439
336.73
334.066
331.446
328.87
326.337
323.847
321.4
318.995
316.632
314.31
312.03
309.79
307.59
305.43
303.31
301.228
299.186
297.182
295.216
293.289
291.398
289.545
287.729
285.95
284.208
282.502
280.831
279.197
277.598
276.035
274.507
273.014
271.556
270.132
268.743
267.389
266.068
264.781
263.528
262.308
261.121
259.968
258.848
257.76
256.705
255.682
254.691
253.733
252.806
251.911
251.047
250.215
249.414
248.644
247.904
247.195
246.517
245.869
245.251
244.663
244.104
243.576
243.077
242.608
242.167
241.756
241.374
241.021
240.697
240.402
240.135
239.897
239.687
239.506
239.353
239.229
239.132
239.064
239.025
239.013
398.318
394.952
391.595
388.247
384.915
381.6
378.307
375.04
371.8
368.592
365.416
362.276
359.174
356.109
353.085
350.102
347.16
344.261
341.404
338.59
335.82
333.092
330.408
327.766
325.168
322.612
320.099
317.627
315.198
312.809
310.463
308.157
305.891
303.666
301.481
299.335
297.229
295.162
293.134
291.144
289.193
287.28
285.405
283.567
281.767
280.004
278.279
276.59
274.937
273.321
271.742
270.198
268.69
267.218
265.782
264.381
263.014
261.683
260.387
259.125
257.897
256.704
255.544
254.419
253.327
252.269
251.243
250.251
249.292
248.366
247.472
246.61
245.781
244.984
244.218
243.484
242.782
242.111
241.471
240.862
240.284
239.737
239.221
238.735
238.279
237.853
237.458
237.092
236.756
236.45
236.174
235.928
235.71
235.523
235.365
235.236
235.136
235.066
235.024
235.012
398.302
394.906
391.516
388.137
384.77
381.421
378.091
374.786
371.506
368.255
365.036
361.85
358.698
355.584
352.508
349.47
346.473
343.516
340.601
337.727
334.895
332.106
329.359
326.654
323.992
321.371
318.793
316.256
313.762
311.309
308.897
306.526
304.196
301.907
299.658
297.45
295.281
293.152
291.063
289.012
287.001
285.029
283.096
281.201
279.344
277.526
275.745
274.003
272.298
270.63
268.999
267.406
265.849
264.329
262.846
261.399
259.988
258.613
257.274
255.97
254.702
253.47
252.272
251.109
249.981
248.887
247.828
246.803
245.811
244.854
243.93
243.04
242.183
241.358
240.567
239.809
239.083
238.389
237.728
237.099
236.501
235.936
235.402
234.899
234.428
233.988
233.579
233.201
232.854
232.538
232.252
231.997
231.772
231.578
231.415
231.281
231.178
231.105
231.063
231.05
398.286
394.855
391.432
388.018
384.616
381.23
377.863
374.517
371.196
367.903
364.638
361.406
358.206
355.042
351.913
348.823
345.77
342.757
339.784
336.852
333.96
331.11
328.301
325.534
322.809
320.126
317.484
314.884
312.326
309.809
307.334
304.9
302.507
300.155
297.843
295.573
293.343
291.153
289.004
286.894
284.824
282.794
280.804
278.852
276.94
275.067
273.233
271.437
269.68
267.961
266.281
264.638
263.033
261.466
259.937
258.444
256.989
255.571
254.19
252.846
251.538
250.266
249.03
247.831
246.667
245.538
244.445
243.387
242.365
241.377
240.423
239.504
238.62
237.769
236.953
236.17
235.42
234.705
234.022
233.372
232.756
232.172
231.621
231.102
230.615
230.161
229.739
229.349
228.99
228.664
228.369
228.106
227.874
227.674
227.505
227.367
227.26
227.185
227.141
227.128
398.268
394.802
391.343
387.893
384.454
381.029
377.622
374.236
370.873
367.536
364.227
360.947
357.699
354.485
351.305
348.161
345.054
341.986
338.956
335.966
333.016
330.106
327.237
324.409
321.622
318.877
316.173
313.511
310.891
308.311
305.774
303.278
300.823
298.41
296.037
293.706
291.416
289.167
286.958
284.79
282.663
280.576
278.529
276.522
274.555
272.628
270.741
268.893
267.085
265.316
263.586
261.895
260.243
258.63
257.055
255.518
254.02
252.559
251.137
249.752
248.404
247.094
245.821
244.585
243.386
242.223
241.097
240.007
238.953
237.935
236.952
236.005
235.094
234.217
233.375
232.568
231.796
231.058
230.354
229.685
229.049
228.447
227.879
227.344
226.843
226.374
225.939
225.537
225.167
224.831
224.527
224.255
224.016
223.81
223.635
223.493
223.384
223.306
223.261
223.247
398.25
394.747
391.25
387.762
384.284
380.82
377.373
373.945
370.539
367.157
363.802
360.476
357.179
353.915
350.684
347.488
344.327
341.204
338.118
335.071
332.063
329.095
326.167
323.279
320.433
317.627
314.862
312.139
309.457
306.817
304.219
301.662
299.147
296.673
294.241
291.85
289.501
287.193
284.927
282.702
280.517
278.374
276.272
274.211
272.191
270.211
268.272
266.373
264.514
262.696
260.917
259.179
257.48
255.821
254.201
252.621
251.08
249.577
248.114
246.689
245.303
243.955
242.645
241.373
240.139
238.943
237.784
236.662
235.577
234.529
233.518
232.543
231.605
230.702
229.836
229.005
228.21
227.451
226.726
226.037
225.382
224.763
224.178
223.627
223.111
222.628
222.18
221.766
221.386
221.039
220.726
220.446
220.2
219.988
219.808
219.662
219.549
219.469
219.422
219.408
398.23
394.689
391.154
387.626
384.108
380.603
377.115
373.644
370.195
366.768
363.367
359.993
356.649
353.335
350.053
346.805
343.591
340.414
337.273
334.17
331.105
328.079
325.093
322.147
319.241
316.376
313.552
310.769
308.028
305.328
302.67
300.053
297.478
294.946
292.455
290.006
287.599
285.234
282.91
280.629
278.389
276.191
274.035
271.92
269.847
267.815
265.825
263.876
261.968
260.101
258.275
256.489
254.745
253.041
251.377
249.753
248.17
246.627
245.123
243.659
242.235
240.849
239.503
238.196
236.928
235.698
234.507
233.353
232.238
231.161
230.121
229.119
228.155
227.227
226.336
225.482
224.664
223.883
223.138
222.43
221.757
221.119
220.518
219.951
219.42
218.925
218.464
218.038
217.646
217.29
216.968
216.68
216.427
216.208
216.024
215.873
215.757
215.675
215.626
215.612
398.21
394.629
391.054
387.485
383.927
380.381
376.85
373.336
369.842
366.371
362.923
359.502
356.109
352.746
349.413
346.114
342.848
339.616
336.421
333.263
330.143
327.06
324.017
321.013
318.05
315.126
312.244
309.402
306.602
303.844
301.127
298.452
295.819
293.229
290.68
288.174
285.71
283.289
280.91
278.573
276.279
274.027
271.818
269.651
267.526
265.443
263.402
261.404
259.447
257.532
255.659
253.828
252.038
250.29
248.583
246.917
245.292
243.708
242.165
240.662
239.2
237.778
236.396
235.054
233.752
232.49
231.266
230.082
228.937
227.831
226.764
225.734
224.744
223.791
222.876
221.999
221.159
220.357
219.592
218.864
218.173
217.518
216.9
216.318
215.773
215.263
214.79
214.352
213.951
213.584
213.253
212.958
212.698
212.473
212.283
212.129
212.009
211.925
211.875
211.86
398.19
394.568
390.952
387.342
383.741
380.153
376.579
373.021
369.483
365.966
362.472
359.004
355.562
352.149
348.767
345.416
342.098
338.814
335.565
332.353
329.177
326.039
322.94
319.88
316.859
313.879
310.939
308.04
305.183
302.367
299.592
296.86
294.171
291.523
288.918
286.356
283.837
281.36
278.926
276.536
274.188
271.883
269.621
267.402
265.227
263.094
261.004
258.957
256.952
254.99
253.071
251.195
249.36
247.569
245.819
244.111
242.446
240.822
239.24
237.699
236.2
234.742
233.325
231.949
230.613
229.318
228.064
226.849
225.675
224.54
223.445
222.39
221.373
220.396
219.457
218.557
217.696
216.873
216.088
215.341
214.631
213.96
213.326
212.729
212.169
211.646
211.16
210.711
210.299
209.923
209.583
209.28
209.013
208.782
208.588
208.429
208.306
208.219
208.168
208.153
398.169
394.506
390.847
387.196
383.553
379.921
376.303
372.702
369.118
365.556
362.015
358.499
355.01
351.548
348.115
344.713
341.344
338.008
334.706
331.44
328.21
325.018
321.863
318.748
315.671
312.635
309.639
306.683
303.77
300.897
298.067
295.279
292.533
289.83
287.17
284.552
281.978
279.448
276.96
274.516
272.116
269.759
267.446
265.177
262.951
260.769
258.631
256.536
254.484
252.476
250.512
248.591
246.713
244.878
243.087
241.338
239.633
237.97
236.349
234.771
233.235
231.742
230.29
228.88
227.512
226.185
224.9
223.656
222.452
221.289
220.167
219.085
218.044
217.042
216.08
215.158
214.275
213.431
212.627
211.861
211.134
210.445
209.795
209.183
208.61
208.074
207.576
207.115
206.693
206.307
205.959
205.648
205.374
205.138
204.938
204.775
204.649
204.56
204.508
204.492
398.148
394.442
390.741
387.047
383.361
379.686
376.024
372.378
368.749
365.14
361.554
357.99
354.452
350.942
347.46
344.008
340.587
337.199
333.845
330.526
327.243
323.997
320.788
317.618
314.487
311.395
308.344
305.334
302.364
299.437
296.551
293.708
290.907
288.15
285.435
282.764
280.136
277.553
275.013
272.517
270.065
267.657
265.294
262.975
260.7
258.47
256.283
254.142
252.044
249.991
247.982
246.017
244.097
242.22
240.387
238.598
236.853
235.152
233.493
231.879
230.307
228.778
227.293
225.85
224.449
223.091
221.775
220.502
219.27
218.079
216.93
215.823
214.756
213.731
212.746
211.801
210.897
210.033
209.209
208.425
207.681
206.976
206.31
205.683
205.096
204.547
204.037
203.565
203.132
202.738
202.381
202.063
201.782
201.54
201.335
201.168
201.039
200.948
200.894
200.878
398.127
394.378
390.634
386.896
383.167
379.448
375.742
372.05
368.377
364.722
361.088
357.478
353.892
350.333
346.801
343.299
339.828
336.39
332.984
329.613
326.277
322.978
319.716
316.492
313.307
310.161
307.056
303.991
300.968
297.986
295.046
292.149
289.295
286.484
283.716
280.992
278.312
275.676
273.084
270.537
268.035
265.577
263.165
260.797
258.474
256.196
253.963
251.775
249.633
247.535
245.482
243.475
241.512
239.594
237.721
235.892
234.108
232.369
230.673
229.022
227.416
225.853
224.333
222.858
221.426
220.037
218.691
217.388
216.128
214.911
213.736
212.603
211.512
210.462
209.455
208.489
207.564
206.68
205.837
205.035
204.273
203.552
202.871
202.229
201.628
201.067
200.545
200.062
199.619
199.215
198.85
198.524
198.237
197.989
197.78
197.609
197.477
197.384
197.329
197.312
398.105
394.313
390.526
386.744
382.971
379.208
375.457
371.721
368.002
364.301
360.621
356.963
353.33
349.722
346.142
342.59
339.069
335.58
332.124
328.701
325.314
321.962
318.648