/*--------------------------------*- C++ -*----------------------------------*\
  =========                 |
  \\      /  F ield         | OpenFOAM: The Open Source CFD Toolbox
   \\    /   O peration     | Website:  https://openfoam.org
    \\  /    A nd           | Version:  10
     \\/     M anipulation  |
\*---------------------------------------------------------------------------*/
FoamFile
{
    format      ascii;
    class       volScalarField;
    location    "24";
    object      T_0;
}
// * * * * * * * * * * * * * * * * * * * * * * * * * * * * * * * * * * * * * //

dimensions      [0 0 0 1 0 0 0];

internalField   nonuniform List<scalar> 
10000
(
374.976
361.273
356.583
354.521
353.398
352.687
352.187
351.813
351.518
351.277
351.074
350.9
350.747
350.611
350.489
350.377
350.274
350.178
350.089
350.005
349.926
349.85
349.779
349.71
349.644
349.581
349.52
349.461
349.404
349.349
349.296
349.244
349.193
349.144
349.096
349.05
349.004
348.96
348.917
348.875
348.833
348.793
348.754
348.716
348.679
348.642
348.607
348.572
348.538
348.505
348.473
348.441
348.411
348.381
348.352
348.323
348.296
348.269
348.243
348.217
348.193
348.169
348.145
348.123
348.101
348.08
348.059
348.039
348.02
348.002
347.984
347.967
347.95
347.934
347.919
347.904
347.89
347.877
347.864
347.852
347.841
347.83
347.819
347.81
347.801
347.792
347.784
347.777
347.771
347.765
347.759
347.754
347.75
347.746
347.743
347.74
347.738
347.737
347.736
347.736
388.597
374.809
367.123
362.629
359.788
357.85
356.441
355.363
354.504
353.796
353.198
352.683
352.229
351.825
351.459
351.126
350.818
350.533
350.266
350.015
349.777
349.552
349.337
349.132
348.935
348.745
348.562
348.386
348.215
348.05
347.89
347.734
347.582
347.435
347.292
347.152
347.016
346.883
346.754
346.627
346.504
346.384
346.266
346.152
346.04
345.931
345.824
345.72
345.618
345.519
345.422
345.328
345.236
345.146
345.059
344.974
344.891
344.811
344.732
344.656
344.582
344.51
344.44
344.373
344.307
344.243
344.182
344.122
344.065
344.009
343.956
343.904
343.855
343.807
343.761
343.717
343.675
343.635
343.597
343.561
343.526
343.494
343.463
343.434
343.407
343.382
343.358
343.336
343.316
343.298
343.282
343.267
343.254
343.243
343.234
343.226
343.22
343.216
343.213
343.213
393.202
382.24
374.468
369.082
365.274
362.485
360.364
358.693
357.336
356.205
355.24
354.402
353.661
352.998
352.398
351.848
351.341
350.869
350.427
350.011
349.617
349.243
348.887
348.545
348.218
347.903
347.599
347.306
347.022
346.747
346.48
346.221
345.969
345.724
345.485
345.252
345.026
344.805
344.589
344.379
344.174
343.973
343.778
343.587
343.4
343.218
343.04
342.867
342.698
342.533
342.372
342.214
342.061
341.912
341.767
341.625
341.487
341.353
341.222
341.095
340.972
340.852
340.736
340.623
340.513
340.408
340.305
340.206
340.11
340.018
339.928
339.842
339.76
339.68
339.604
339.531
339.461
339.394
339.331
339.27
339.213
339.159
339.107
339.059
339.014
338.972
338.932
338.896
338.863
338.833
338.805
338.781
338.759
338.741
338.725
338.712
338.702
338.696
338.691
338.69
395.179
386.479
379.43
373.959
369.741
366.452
363.837
361.711
359.945
358.449
357.158
356.025
355.018
354.112
353.288
352.531
351.83
351.178
350.565
349.988
349.441
348.921
348.424
347.949
347.493
347.053
346.63
346.22
345.824
345.44
345.067
344.705
344.353
344.011
343.677
343.352
343.035
342.726
342.425
342.131
341.843
341.563
341.29
341.023
340.762
340.507
340.259
340.016
339.779
339.548
339.323
339.103
338.889
338.68
338.477
338.278
338.085
337.898
337.715
337.537
337.365
337.197
337.034
336.876
336.723
336.575
336.432
336.293
336.159
336.029
335.905
335.784
335.669
335.558
335.451
335.349
335.251
335.158
335.069
334.984
334.904
334.828
334.756
334.688
334.625
334.566
334.511
334.46
334.414
334.371
334.333
334.299
334.269
334.243
334.221
334.203
334.189
334.179
334.174
334.172
396.217
389.065
382.814
377.582
373.28
369.747
366.822
364.371
362.287
360.49
358.918
357.526
356.278
355.147
354.114
353.161
352.276
351.449
350.672
349.938
349.242
348.579
347.946
347.339
346.755
346.193
345.651
345.127
344.62
344.128
343.65
343.186
342.734
342.295
341.867
341.45
341.044
340.647
340.26
339.883
339.514
339.154
338.803
338.46
338.125
337.798
337.479
337.167
336.863
336.567
336.277
335.995
335.72
335.452
335.19
334.935
334.688
334.446
334.212
333.983
333.762
333.546
333.337
333.134
332.938
332.747
332.563
332.385
332.212
332.046
331.886
331.731
331.583
331.44
331.303
331.172
331.046
330.926
330.812
330.703
330.6
330.502
330.41
330.323
330.242
330.166
330.095
330.03
329.97
329.916
329.866
329.822
329.784
329.75
329.722
329.699
329.682
329.669
329.662
329.66
396.844
390.748
385.179
380.279
376.052
372.434
369.335
366.665
364.345
362.308
360.502
358.885
357.423
356.089
354.862
353.727
352.668
351.676
350.741
349.857
349.016
348.214
347.447
346.711
346.003
345.32
344.662
344.024
343.407
342.808
342.227
341.662
341.112
340.576
340.055
339.546
339.051
338.567
338.095
337.635
337.185
336.746
336.318
335.899
335.491
335.092
334.702
334.322
333.951
333.589
333.235
332.891
332.555
332.227
331.908
331.597
331.294
331
330.713
330.435
330.164
329.901
329.646
329.398
329.158
328.925
328.7
328.483
328.272
328.069
327.873
327.685
327.503
327.329
327.161
327.001
326.848
326.701
326.561
326.429
326.302
326.183
326.071
325.965
325.865
325.772
325.686
325.607
325.534
325.467
325.407
325.353
325.306
325.265
325.231
325.203
325.181
325.166
325.157
325.155
397.258
391.903
386.877
382.302
378.216
374.604
371.421
368.612
366.121
363.899
361.902
360.093
358.443
356.927
355.525
354.221
353
351.851
350.766
349.737
348.757
347.821
346.924
346.062
345.232
344.432
343.659
342.91
342.185
341.481
340.797
340.132
339.484
338.854
338.24
337.641
337.057
336.487
335.931
335.388
334.858
334.34
333.834
333.341
332.859
332.388
331.929
331.48
331.042
330.615
330.198
329.791
329.395
329.008
328.631
328.264
327.907
327.559
327.221
326.892
326.573
326.262
325.961
325.668
325.385
325.11
324.845
324.588
324.339
324.1
323.869
323.646
323.432
323.226
323.028
322.839
322.658
322.484
322.32
322.163
322.014
321.873
321.74
321.615
321.498
321.388
321.286
321.192
321.106
321.027
320.956
320.893
320.837
320.789
320.749
320.716
320.69
320.672
320.662
320.659
397.548
392.729
388.126
383.837
379.909
376.348
373.136
370.244
367.633
365.268
363.116
361.147
359.335
357.658
356.097
354.637
353.265
351.97
350.743
349.576
348.462
347.397
346.374
345.39
344.442
343.527
342.641
341.784
340.952
340.144
339.359
338.595
337.852
337.127
336.421
335.733
335.061
334.406
333.766
333.141
332.531
331.935
331.353
330.785
330.23
329.688
329.159
328.642
328.138
327.646
327.166
326.697
326.24
325.795
325.361
324.938
324.527
324.126
323.736
323.357
322.989
322.631
322.284
321.947
321.62
321.304
320.998
320.702
320.415
320.139
319.873
319.616
319.369
319.132
318.904
318.686
318.477
318.278
318.088
317.907
317.735
317.573
317.419
317.275
317.14
317.014
316.897
316.788
316.689
316.598
316.516
316.443
316.379
316.324
316.277
316.239
316.209
316.189
316.176
316.173
397.759
393.336
389.062
385.015
381.236
377.744
374.536
371.596
368.902
366.43
364.153
362.05
360.097
358.277
356.574
354.972
353.461
352.029
350.668
349.37
348.129
346.939
345.795
344.693
343.63
342.602
341.607
340.643
339.707
338.797
337.913
337.052
336.213
335.396
334.6
333.822
333.064
332.324
331.601
330.895
330.206
329.533
328.875
328.233
327.605
326.992
326.394
325.81
325.239
324.683
324.14
323.61
323.093
322.589
322.098
321.62
321.154
320.701
320.26
319.831
319.414
319.009
318.616
318.235
317.865
317.507
317.161
316.826
316.502
316.189
315.887
315.597
315.317
315.049
314.791
314.544
314.308
314.082
313.867
313.662
313.468
313.284
313.11
312.947
312.794
312.651
312.519
312.396
312.283
312.181
312.088
312.006
311.933
311.87
311.817
311.774
311.741
311.717
311.703
311.7
397.916
393.791
389.774
385.924
382.279
378.86
375.671
372.707
369.955
367.4
365.023
362.806
360.733
358.788
356.956
355.226
353.586
352.026
350.539
349.118
347.755
346.446
345.185
343.969
342.794
341.657
340.556
339.487
338.449
337.439
336.457
335.501
334.569
333.66
332.774
331.909
331.065
330.241
329.437
328.65
327.883
327.132
326.4
325.684
324.984
324.301
323.634
322.983
322.347
321.726
321.12
320.529
319.953
319.391
318.844
318.31
317.79
317.285
316.793
316.314
315.849
315.397
314.959
314.534
314.121
313.722
313.335
312.961
312.599
312.25
311.914
311.59
311.278
310.978
310.69
310.415
310.151
309.899
309.659
309.43
309.214
309.008
308.815
308.632
308.462
308.302
308.154
308.017
307.891
307.777
307.674
307.581
307.5
307.43
307.371
307.323
307.286
307.259
307.244
307.24
398.035
394.138
390.321
386.631
383.1
379.748
376.584
373.609
370.817
368.198
365.739
363.427
361.249
359.192
357.245
355.397
353.639
351.961
350.356
348.817
347.339
345.916
344.543
343.217
341.934
340.691
339.486
338.315
337.177
336.07
334.992
333.942
332.918
331.919
330.945
329.994
329.065
328.158
327.273
326.407
325.561
324.735
323.928
323.139
322.369
321.616
320.881
320.163
319.461
318.777
318.109
317.458
316.822
316.202
315.598
315.01
314.437
313.879
313.336
312.808
312.295
311.797
311.313
310.844
310.389
309.948
309.521
309.109
308.71
308.325
307.954
307.596
307.252
306.921
306.603
306.299
306.008
305.73
305.465
305.213
304.974
304.747
304.533
304.332
304.144
303.968
303.804
303.653
303.515
303.388
303.274
303.172
303.083
303.005
302.94
302.887
302.846
302.817
302.8
302.795
398.126
394.405
390.744
387.181
383.744
380.451
377.313
374.334
371.512
368.841
366.314
363.92
361.651
359.496
357.445
355.49
353.622
351.833
350.117
348.468
346.88
345.348
343.868
342.436
341.049
339.704
338.397
337.127
335.892
334.689
333.517
332.375
331.261
330.174
329.112
328.076
327.064
326.075
325.109
324.165
323.243
322.341
321.46
320.599
319.758
318.936
318.133
317.349
316.584
315.836
315.107
314.395
313.7
313.023
312.363
311.72
311.094
310.485
309.891
309.314
308.754
308.209
307.68
307.167
306.67
306.188
305.722
305.271
304.835
304.414
304.008
303.617
303.24
302.879
302.531
302.199
301.881
301.577
301.287
301.011
300.75
300.502
300.268
300.048
299.842
299.65
299.471
299.306
299.154
299.016
298.891
298.78
298.682
298.597
298.526
298.468
298.423
298.391
298.373
298.368
398.196
394.609
391.07
387.608
384.246
381.003
377.888
374.907
372.061
369.347
366.762
364.298
361.948
359.704
357.559
355.506
353.537
351.645
349.825
348.071
346.379
344.743
343.16
341.626
340.138
338.693
337.289
335.922
334.592
333.296
332.032
330.8
329.597
328.423
327.276
326.156
325.062
323.992
322.947
321.926
320.927
319.951
318.997
318.065
317.154
316.264
315.394
314.544
313.714
312.904
312.114
311.342
310.589
309.855
309.14
308.443
307.764
307.103
306.459
305.834
305.226
304.635
304.061
303.505
302.966
302.443
301.937
301.448
300.975
300.518
300.078
299.653
299.245
298.853
298.476
298.115
297.77
297.44
297.126
296.827
296.543
296.274
296.021
295.782
295.559
295.35
295.156
294.977
294.812
294.662
294.527
294.406
294.3
294.208
294.13
294.067
294.018
293.984
293.964
293.958
398.25
394.766
391.32
387.937
384.635
381.43
378.333
375.35
372.484
369.733
367.097
364.57
362.148
359.824
357.593
355.449
353.386
351.398
349.48
347.628
345.836
344.101
342.42
340.788
339.202
337.661
336.161
334.701
333.278
331.891
330.537
329.216
327.927
326.667
325.436
324.234
323.059
321.91
320.787
319.689
318.615
317.566
316.54
315.537
314.556
313.598
312.662
311.748
310.854
309.982
309.131
308.3
307.49
306.699
305.928
305.178
304.446
303.734
303.041
302.367
301.712
301.076
300.458
299.858
299.277
298.714
298.169
297.641
297.132
296.639
296.165
295.708
295.268
294.845
294.439
294.05
293.678
293.322
292.983
292.661
292.355
292.066
291.792
291.535
291.294
291.069
290.86
290.667
290.489
290.328
290.182
290.051
289.937
289.838
289.754
289.686
289.634
289.597
289.575
289.569
398.29
394.885
391.51
388.187
384.93
381.755
378.67
375.683
372.797
370.013
367.331
364.747
362.259
359.862
357.552
355.324
353.173
351.095
349.085
347.139
345.253
343.423
341.647
339.921
338.241
336.607
335.015
333.463
331.95
330.474
329.032
327.625
326.25
324.907
323.594
322.31
321.055
319.828
318.628
317.455
316.307
315.185
314.088
313.015
311.966
310.941
309.939
308.961
308.005
307.071
306.16
305.27
304.402
303.556
302.73
301.926
301.143
300.38
299.638
298.916
298.214
297.532
296.87
296.228
295.605
295.002
294.418
293.852
293.306
292.779
292.27
291.78
291.309
290.856
290.421
290.004
289.605
289.224
288.861
288.515
288.188
287.877
287.584
287.309
287.05
286.809
286.585
286.378
286.188
286.014
285.858
285.718
285.595
285.489
285.4
285.327
285.271
285.231
285.208
285.201
398.32
394.974
391.652
388.372
385.149
381.994
378.916
375.922
373.016
370.2
367.475
364.839
362.29
359.825
357.441
355.135
352.902
350.739
348.641
346.606
344.631
342.71
340.843
339.026
337.256
335.531
333.85
332.209
330.608
329.045
327.518
326.026
324.568
323.142
321.748
320.385
319.052
317.748
316.472
315.224
314.003
312.81
311.642
310.5
309.384
308.293
307.226
306.184
305.166
304.171
303.2
302.253
301.328
300.426
299.547
298.69
297.855
297.042
296.251
295.481
294.733
294.006
293.3
292.616
291.952
291.308
290.685
290.083
289.5
288.938
288.396
287.873
287.371
286.887
286.423
285.979
285.553
285.147
284.76
284.391
284.042
283.711
283.398
283.104
282.828
282.571
282.332
282.111
281.908
281.723
281.557
281.408
281.277
281.163
281.068
280.99
280.93
280.888
280.863
280.856
398.342
395.037
391.753
388.504
385.303
382.16
379.084
376.08
373.153
370.306
367.539
364.854
362.248
359.72
357.267
354.887
352.576
350.332
348.152
346.033
343.971
341.964
340.009
338.104
336.247
334.435
332.667
330.94
329.254
327.606
325.995
324.42
322.88
321.374
319.901
318.459
317.049
315.669
314.319
312.998
311.705
310.441
309.204
307.994
306.811
305.654
304.523
303.418
302.339
301.284
300.254
299.249
298.268
297.311
296.378
295.469
294.583
293.72
292.881
292.064
291.27
290.498
289.749
289.022
288.317
287.634
286.973
286.333
285.715
285.118
284.542
283.988
283.454
282.94
282.448
281.976
281.524
281.093
280.681
280.29
279.919
279.567
279.235
278.923
278.63
278.357
278.103
277.868
277.653
277.457
277.28
277.121
276.982
276.862
276.76
276.678
276.614
276.569
276.543
276.535
398.357
395.081
391.822
388.593
385.405
382.266
379.185
376.168
373.218
370.34
367.533
364.8
362.14
359.552
357.034
354.584
352.2
349.88
347.62
345.42
343.276
341.185
339.146
337.157
335.215
333.319
331.466
329.656
327.886
326.156
324.463
322.808
321.188
319.603
318.051
316.533
315.047
313.593
312.169
310.776
309.413
308.078
306.773
305.496
304.247
303.026
301.832
300.665
299.524
298.41
297.322
296.26
295.223
294.212
293.226
292.265
291.328
290.416
289.529
288.665
287.826
287.01
286.218
285.449
284.704
283.981
283.282
282.605
281.952
281.32
280.711
280.124
279.56
279.017
278.496
277.996
277.518
277.062
276.627
276.213
275.82
275.448
275.097
274.767
274.457
274.168
273.899
273.651
273.423
273.215
273.028
272.861
272.713
272.586
272.479
272.391
272.324
272.276
272.248
272.24
398.366
395.107
391.863
388.644
385.461
382.32
379.23
376.196
373.222
370.311
367.466
364.686
361.974
359.328
356.747
354.231
351.777
349.383
347.049
344.771
342.547
340.377
338.257
336.186
334.162
332.184
330.25
328.358
326.507
324.696
322.924
321.189
319.491
317.829
316.201
314.607
313.047
311.519
310.024
308.56
307.126
305.724
304.351
303.008
301.694
300.409
299.152
297.924
296.723
295.55
294.405
293.286
292.195
291.13
290.091
289.078
288.092
287.131
286.196
285.286
284.402
283.542
282.707
281.897
281.112
280.35
279.613
278.9
278.211
277.545
276.903
276.285
275.69
275.117
274.568
274.042
273.538
273.057
272.598
272.161
271.747
271.355
270.985
270.637
270.31
270.005
269.722
269.46
269.22
269.001
268.803
268.627
268.471
268.337
268.224
268.132
268.061
268.01
267.981
267.973
398.37
395.119
391.88
388.664
385.479
382.331
379.227
376.172
373.172
370.228
367.343
364.518
361.755
359.054
356.413
353.832
351.311
348.847
346.44
344.088
341.788
339.54
337.342
335.192
333.089
331.032
329.018
327.047
325.117
323.228
321.377
319.566
317.791
316.053
314.35
312.683
311.05
309.45
307.883
306.35
304.848
303.377
301.938
300.53
299.152
297.804
296.485
295.196
293.937
292.706
291.503
290.329
289.183
288.065
286.974
285.911
284.875
283.866
282.884
281.928
280.999
280.096
279.219
278.368
277.542
276.743
275.968
275.219
274.495
273.795
273.121
272.471
271.845
271.243
270.666
270.113
269.583
269.078
268.596
268.137
267.701
267.289
266.9
266.534
266.191
265.87
265.573
265.298
265.045
264.815
264.607
264.421
264.258
264.117
263.998
263.901
263.826
263.773
263.743
263.734
398.37
395.119
391.879
388.658
385.464
382.303
379.182
376.104
373.074
370.096
367.171
364.302
361.489
358.734
356.035
353.392
350.806
348.275
345.798
343.373
341
338.678
336.404
334.178
331.998
329.863
327.772
325.724
323.717
321.751
319.825
317.938
316.088
314.276
312.5
310.76
309.055
307.385
305.749
304.146
302.577
301.04
299.535
298.062
296.621
295.211
293.832
292.483
291.165
289.877
288.618
287.389
286.189
285.018
283.876
282.763
281.678
280.621
279.592
278.592
277.618
276.672
275.753
274.862
273.997
273.159
272.348
271.562
270.804
270.071
269.364
268.682
268.027
267.396
266.791
266.212
265.657
265.127
264.621
264.14
263.684
263.252
262.844
262.46
262.101
261.765
261.453
261.164
260.899
260.658
260.44
260.246
260.074
259.926
259.802
259.7
259.622
259.566
259.534
259.524
398.367
395.109
391.86
388.629
385.421
382.243
379.1
375.997
372.936
369.922
366.957
364.043
361.182
358.373
355.617
352.915
350.266
347.669
345.124
342.63
340.186
337.791
335.444
333.144
330.889
328.68
326.514
324.39
322.309
320.268
318.267
316.306
314.383
312.499
310.651
308.84
307.065
305.325
303.621
301.95
300.314
298.712
297.143
295.607
294.104
292.632
291.193
289.786
288.41
287.065
285.751
284.467
283.214
281.992
280.799
279.636
278.503
277.399
276.324
275.278
274.261
273.272
272.312
271.381
270.477
269.601
268.753
267.932
267.139
266.373
265.634
264.922
264.236
263.578
262.945
262.339
261.759
261.205
260.676
260.173
259.696
259.245
258.818
258.417
258.041
257.689
257.363
257.061
256.785
256.532
256.304
256.101
255.922
255.767
255.637
255.53
255.448
255.39
255.357
255.347
398.361
395.091
391.828
388.581
385.355
382.156
378.988
375.855
372.762
369.712
366.706
363.747
360.837
357.976
355.165
352.404
349.694
347.033
344.423
341.861
339.348
336.883
334.465
332.093
329.766
327.483
325.244
323.047
320.892
318.779
316.706
314.672
312.678
310.722
308.804
306.923
305.079
303.271
301.5
299.763
298.062
296.395
294.763
293.164
291.6
290.068
288.57
287.104
285.671
284.27
282.902
281.565
280.259
278.985
277.742
276.531
275.349
274.199
273.078
271.988
270.928
269.897
268.897
267.925
266.983
266.07
265.185
264.329
263.502
262.703
261.933
261.19
260.475
259.788
259.128
258.496
257.891
257.313
256.762
256.237
255.739
255.268
254.823
254.405
254.012
253.646
253.305
252.991
252.702
252.439
252.201
251.989
251.802
251.64
251.504
251.393
251.308
251.247
251.212
251.201
398.353
395.065
391.783
388.516
385.268
382.044
378.848
375.685
372.557
369.469
366.421
363.417
360.459
357.546
354.68
351.862
349.092
346.37
343.696
341.069
338.489
335.955
333.468
331.025
328.628
326.274
323.963
321.696
319.47
317.285
315.141
313.037
310.972
308.947
306.96
305.01
303.099
301.224
299.387
297.585
295.819
294.089
292.395
290.735
289.11
287.519
285.962
284.44
282.95
281.495
280.072
278.682
277.325
276
274.708
273.448
272.219
271.023
269.857
268.723
267.62
266.548
265.507
264.496
263.516
262.566
261.645
260.755
259.894
259.063
258.261
257.488
256.744
256.029
255.342
254.684
254.054
253.452
252.879
252.333
251.815
251.324
250.861
250.425
250.017
249.635
249.281
248.953
248.653
248.378
248.131
247.91
247.715
247.547
247.406
247.29
247.201
247.138
247.101
247.09
398.342
395.032
391.728
388.437
385.163
381.911
378.685
375.489
372.325
369.197
366.108
363.058
360.051
357.087
354.168
351.294
348.465
345.683
342.946
340.255
337.61
335.01
332.455
329.944
327.478
325.055
322.675
320.337
318.041
315.787
313.574
311.401
309.268
307.174
305.119
303.103
301.125
299.185
297.283
295.417
293.588
291.796
290.04
288.32
286.635
284.986
283.372
281.793
280.248
278.738
277.262
275.82
274.412
273.038
271.697
270.389
269.114
267.871
266.662
265.484
264.339
263.226
262.145
261.096
260.077
259.091
258.135
257.21
256.316
255.453
254.62
253.817
253.044
252.301
251.588
250.904
250.25
249.625
249.029
248.462
247.923
247.414
246.933
246.48
246.055
245.659
245.291
244.95
244.638
244.353
244.096
243.866
243.664
243.489
243.342
243.222
243.129
243.064
243.026
243.014
398.329
394.994
391.664
388.346
385.044
381.761
378.502
375.27
372.069
368.901
365.768
362.674
359.618
356.604
353.631
350.702
347.816
344.974
342.176
339.423
336.714
334.049
331.428
328.851
326.317
323.827
321.379
318.973
316.609
314.287
312.006
309.765
307.565
305.404
303.284
301.202
299.159
297.154
295.188
293.26
291.369
289.516
287.699
285.92
284.177
282.47
280.8
279.165
277.566
276.002
274.474
272.981
271.522
270.098
268.709
267.354
266.033
264.746
263.492
262.272
261.086
259.932
258.811
257.724
256.668
255.645
254.655
253.696
252.769
251.874
251.01
250.178
249.376
248.606
247.866
247.157
246.479
245.831
245.213
244.625
244.066
243.538
243.039
242.569
242.129
241.718
241.336
240.983
240.659
240.363
240.097
239.858
239.649
239.468
239.315
239.19
239.094
239.026
238.986
238.975
398.315
394.952
391.593
388.244
384.911
381.595
378.301
375.033
371.793
368.583
365.407
362.266
359.163
356.098
353.072
350.088
347.146
344.245
341.388
338.573
335.802
333.074
330.389
327.747
325.148
322.591
320.077
317.605
315.174
312.786
310.438
308.131
305.865
303.639
301.454
299.308
297.201
295.133
293.105
291.115
289.163
287.249
285.374
283.536
281.735
279.972
278.246
276.556
274.904
273.288
271.708
270.164
268.656
267.183
265.746
264.345
262.978
261.647
260.35
259.088
257.86
256.667
255.507
254.381
253.289
252.231
251.205
250.213
249.254
248.327
247.433
246.572
245.742
244.945
244.179
243.445
242.743
242.072
241.432
240.823
240.245
239.698
239.181
238.695
238.239
237.814
237.418
237.053
236.717
236.411
236.135
235.888
235.671
235.483
235.325
235.196
235.096
235.026
234.985
234.973
398.3
394.905
391.514
388.133
384.766
381.416
378.085
374.779
371.498
368.247
365.026
361.839
358.687
355.572
352.494
349.456
346.458
343.501
340.584
337.71
334.877
332.087
329.339
326.634
323.97
321.349
318.77
316.233
313.738
311.284
308.872
306.5
304.17
301.88
299.63
297.421
295.252
293.122
291.032
288.982
286.97
284.998
283.064
281.168
279.311
277.493
275.712
273.968
272.263
270.595
268.964
267.37
265.813
264.293
262.809
261.362
259.951
258.576
257.236
255.933
254.664
253.431
252.233
251.07
249.942
248.848
247.789
246.763
245.772
244.814
243.89
243
242.143
241.318
240.527
239.769
239.043
238.349
237.687
237.058
236.461
235.895
235.361
234.858
234.387
233.947
233.538
233.16
232.813
232.497
232.211
231.956
231.732
231.538
231.374
231.241
231.137
231.065
231.022
231.009
398.283
394.855
391.43
388.015
384.612
381.225
377.856
374.51
371.188
367.894
364.629
361.395
358.194
355.029
351.9
348.808
345.755
342.741
339.767
336.834
333.942
331.091
328.281
325.513
322.787
320.103
317.461
314.86
312.301
309.784
307.308
304.873
302.479
300.127
297.815
295.544
293.313
291.123
288.973
286.863
284.792
282.762
280.771
278.819
276.906
275.033
273.198
271.402
269.644
267.925
266.244
264.601
262.996
261.429
259.899
258.406
256.951
255.533
254.152
252.807
251.499
250.227
248.991
247.791
246.627
245.498
244.405
243.347
242.324
241.336
240.382
239.463
238.579
237.728
236.911
236.128
235.379
234.663
233.98
233.331
232.714
232.13
231.579
231.06
230.573
230.119
229.697
229.307
228.949
228.622
228.327
228.064
227.832
227.632
227.463
227.325
227.218
227.143
227.099
227.086
398.265
394.802
391.341
387.889
384.449
381.024
377.616
374.229
370.865
367.527
364.216
360.936
357.687
354.472
351.291
348.146
345.039
341.969
338.939
335.948
332.996
330.086
327.216
324.387
321.6
318.854
316.149
313.486
310.865
308.285
305.747
303.25
300.795
298.381
296.008
293.676
291.385
289.135
286.926
284.758
282.63
280.542
278.495
276.488
274.52
272.593
270.705
268.857
267.048
265.279
263.549
261.858
260.205
258.591
257.016
255.479
253.98
252.52
251.097
249.712
248.364
247.054
245.78
244.544
243.345
242.182
241.055
239.965
238.911
237.893
236.91
235.963
235.051
234.175
233.333
232.526
231.753
231.015
230.312
229.642
229.006
228.404
227.836
227.301
226.8
226.331
225.896
225.494
225.124
224.788
224.484
224.212
223.973
223.766
223.592
223.45
223.34
223.263
223.217
223.204
398.247
394.746
391.248
387.758
384.279
380.814
377.366
373.937
370.53
367.148
363.792
360.464
357.167
353.902
350.67
347.473
344.311
341.187
338.101
335.053
332.044
329.075
326.146
323.257
320.41
317.603
314.838
312.114
309.431
306.79
304.191
301.634
299.118
296.643
294.211
291.819
289.469
287.161
284.894
282.668
280.484
278.34
276.237
274.176
272.155
270.175
268.235
266.336
264.477
262.658
260.879
259.14
257.441
255.781
254.161
252.581
251.039
249.537
248.073
246.648
245.262
243.913
242.603
241.331
240.097
238.9
237.741
236.619
235.534
234.486
233.475
232.5
231.561
230.659
229.792
228.962
228.167
227.407
226.682
225.993
225.338
224.719
224.134
223.583
223.066
222.584
222.136
221.722
221.341
220.995
220.682
220.402
220.156
219.943
219.764
219.617
219.504
219.424
219.378
219.363
398.227
394.688
391.151
387.622
384.103
380.598
377.108
373.636
370.186
366.759
363.357
359.982
356.636
353.321
350.038
346.789
343.575
340.396
337.255
334.151
331.085
328.058
325.071
322.124
319.218
316.352
313.527
310.743
308.001
305.3
302.641
300.024
297.449
294.915
292.424
289.974
287.566
285.201
282.877
280.595
278.355
276.156
273.999
271.884
269.81
267.778
265.787
263.838
261.929
260.062
258.235
256.45
254.705
253
251.336
249.712
248.129
246.585
245.081
243.617
242.192
240.807
239.46
238.153
236.884
235.654
234.463
233.31
232.194
231.117
230.077
229.075
228.11
227.182
226.291
225.437
224.62
223.838
223.093
222.384
221.711
221.074
220.472
219.906
219.375
218.879
218.418
217.992
217.601
217.244
216.922
216.635
216.382
216.163
215.978
215.828
215.711
215.629
215.581
215.566
398.208
394.628
391.051
387.482
383.922
380.375
376.843
373.328
369.833
366.361
362.912
359.49
356.096
352.732
349.398
346.098
342.831
339.599
336.403
333.243
330.122
327.039
323.995
320.99
318.025
315.101
312.218
309.376
306.575
303.816
301.098
298.422
295.789
293.198
290.648
288.142
285.677
283.255
280.876
278.538
276.244
273.991
271.781
269.613
267.488
265.405
263.363
261.364
259.407
257.492
255.619
253.787
251.997
250.248
248.541
246.874
245.249
243.665
242.122
240.619
239.156
237.734
236.352
235.01
233.708
232.445
231.222
230.037
228.892
227.786
226.718
225.689
224.698
223.745
222.83
221.953
221.113
220.311
219.546
218.818
218.126
217.472
216.854
216.272
215.726
215.217
214.744
214.306
213.904
213.538
213.207
212.911
212.651
212.426
212.237
212.082
211.963
211.878
211.828
211.813
398.187
394.567
390.949
387.338
383.737
380.147
376.572
373.013
369.474
365.956
362.461
358.992
355.549
352.135
348.752
345.4
342.081
338.796
335.546
332.332
329.156
326.017
322.917
319.856
316.834
313.853
310.913
308.013
305.154
302.338
299.563
296.83
294.139
291.491
288.886
286.323
283.803
281.325
278.891
276.5
274.151
271.846
269.584
267.364
265.188
263.055
260.964
258.916
256.912
254.949
253.03
251.153
249.318
247.526
245.776
244.068
242.402
240.778
239.196
237.655
236.155
234.697
233.28
231.903
230.568
229.273
228.018
226.803
225.629
224.494
223.399
222.343
221.326
220.349
219.41
218.51
217.649
216.826
216.041
215.293
214.584
213.912
213.278
212.681
212.122
211.599
211.113
210.664
210.251
209.875
209.536
209.233
208.966
208.735
208.54
208.381
208.259
208.172
208.121
208.105
398.166
394.504
390.845
387.192
383.548
379.915
376.296
372.693
369.109
365.545
362.004
358.487
354.996
351.533
348.1
344.697
341.326
337.989
334.686
331.419
328.189
324.995
321.84
318.723
315.646
312.609
309.612
306.656
303.741
300.868
298.036
295.247
292.501
289.797
287.136
284.518
281.944
279.412
276.924
274.48
272.079
269.722
267.408
265.138
262.912
260.729
258.59
256.495
254.443
252.435
250.47
248.548
246.67
244.835
243.043
241.294
239.588
237.925
236.304
234.726
233.19
231.696
230.244
228.834
227.466
226.139
224.853
223.609
222.405
221.242
220.12
219.038
217.996
216.994
216.032
215.11
214.227
213.383
212.578
211.813
211.086
210.397
209.747
209.135
208.561
208.025
207.527
207.067
206.644
206.259
205.91
205.6
205.326
205.089
204.889
204.727
204.601
204.512
204.459
204.443
398.145
394.441
390.739
387.043
383.356
379.679
376.017
372.369
368.74
365.13
361.542
357.977
354.439
350.927
347.444
343.99
340.569
337.18
333.825
330.505
327.221
323.974
320.764
317.593
314.461
311.368
308.316
305.305
302.335
299.406
296.52
293.676
290.875
288.116
285.401
282.729
280.101
277.517
274.976
272.479
270.027
267.619
265.255
262.935
260.66
258.429
256.242
254.1
252.002
249.948
247.939
245.974
244.053
242.176
240.342
238.553
236.808
235.106
233.447
231.832
230.26
228.732
227.246
225.802
224.402
223.044
221.728
220.454
219.221
218.031
216.882
215.774
214.708
213.682
212.697
211.752
210.848
209.984
209.16
208.376
207.631
206.926
206.261
205.634
205.046
204.497
203.987
203.516
203.083
202.688
202.331
202.013
201.732
201.49
201.285
201.119
200.99
200.898
200.845
200.828
398.124
394.377
390.631
386.892
383.161
379.441
375.734
372.042
368.367
364.711
361.076
357.465
353.878
350.317
346.785
343.282
339.81
336.37
332.963
329.591
326.255
322.954
319.691
316.467
313.281
310.134
307.028
303.962
300.938
297.955
295.015
292.117
289.261
286.45
283.681
280.956
278.276
275.639
273.047
270.499
267.996
265.538
263.125
260.756
258.433
256.154
253.921
251.733
249.589
247.491
245.438
243.43
241.467
239.549
237.675
235.846
234.062
232.322
230.627
228.975
227.368
225.805
224.285
222.81
221.377
219.988
218.642
217.339
216.079
214.861
213.686
212.553
211.462
210.413
209.405
208.439
207.514
206.63
205.787
204.985
204.223
203.501
202.82
202.179
201.578
201.016
200.494
200.012
199.568
199.164
198.799
198.474
198.187
197.938
197.729
197.558
197.426
197.333
197.278
197.261
398.102
394.312
390.523
386.74
382.966
379.201
375.449
371.712
367.992
364.29
360.609
356.95
353.315
349.706
346.125
342.573
339.051
335.56
332.103
328.679
325.291