/*--------------------------------*- C++ -*----------------------------------*\
  =========                 |
  \\      /  F ield         | OpenFOAM: The Open Source CFD Toolbox
   \\    /   O peration     | Website:  https://openfoam.org
    \\  /    A nd           | Version:  10
     \\/     M anipulation  |
\*---------------------------------------------------------------------------*/
FoamFile
{
    format      ascii;
    class       volScalarField;
    location    "8.5";
    object      T;
}
// * * * * * * * * * * * * * * * * * * * * * * * * * * * * * * * * * * * * * //

dimensions      [0 0 0 1 0 0 0];

internalField   nonuniform List<scalar> 
10000
(
374.949
361.163
356.394
354.255
353.055
352.266
351.69
351.24
350.87
350.555
350.28
350.034
349.81
349.605
349.414
349.236
349.068
348.909
348.758
348.613
348.475
348.343
348.217
348.095
347.978
347.866
347.757
347.653
347.553
347.456
347.363
347.274
347.188
347.105
347.026
346.95
346.877
346.806
346.739
346.675
346.613
346.554
346.498
346.444
346.392
346.343
346.297
346.252
346.21
346.17
346.132
346.096
346.062
346.03
345.999
345.97
345.943
345.918
345.893
345.871
345.849
345.829
345.811
345.793
345.777
345.761
345.747
345.734
345.721
345.71
345.699
345.689
345.68
345.672
345.664
345.657
345.651
345.645
345.639
345.634
345.63
345.626
345.622
345.619
345.616
345.614
345.611
345.61
345.608
345.607
345.606
345.605
345.604
345.604
345.604
345.604
345.604
345.605
345.606
345.608
388.487
374.456
366.535
361.809
358.736
356.568
354.93
353.625
352.541
351.612
350.796
350.065
349.399
348.787
348.218
347.684
347.182
346.706
346.253
345.821
345.409
345.013
344.634
344.269
343.919
343.581
343.257
342.945
342.644
342.355
342.076
341.808
341.55
341.303
341.065
340.836
340.616
340.406
340.204
340.011
339.826
339.649
339.48
339.319
339.165
339.018
338.878
338.745
338.618
338.498
338.384
338.276
338.174
338.077
337.985
337.899
337.817
337.741
337.668
337.6
337.536
337.476
337.42
337.367
337.318
337.272
337.229
337.19
337.152
337.118
337.086
337.056
337.029
337.004
336.981
336.959
336.94
336.922
336.906
336.891
336.877
336.865
336.854
336.845
336.836
336.829
336.822
336.817
336.812
336.808
336.805
336.803
336.801
336.8
336.8
336.8
336.801
336.803
336.805
336.808
393.014
381.653
373.491
367.717
363.523
360.35
357.848
355.8
354.07
352.569
351.241
350.044
348.951
347.941
347.001
346.119
345.286
344.497
343.746
343.029
342.343
341.686
341.055
340.449
339.867
339.306
338.766
338.246
337.746
337.264
336.801
336.355
335.926
335.513
335.117
334.736
334.371
334.02
333.685
333.363
333.055
332.76
332.479
332.21
331.954
331.709
331.476
331.255
331.044
330.844
330.654
330.474
330.304
330.142
329.99
329.846
329.71
329.582
329.462
329.348
329.242
329.142
329.048
328.961
328.879
328.802
328.731
328.664
328.603
328.545
328.492
328.443
328.397
328.355
328.316
328.281
328.248
328.218
328.191
328.167
328.144
328.124
328.106
328.09
328.076
328.063
328.052
328.043
328.035
328.029
328.024
328.02
328.017
328.016
328.015
328.016
328.018
328.021
328.024
328.029
394.913
385.658
378.065
372.051
367.293
363.468
360.32
357.667
355.379
353.366
351.566
349.933
348.433
347.042
345.743
344.521
343.366
342.27
341.225
340.227
339.272
338.356
337.476
336.631
335.817
335.035
334.281
333.555
332.856
332.183
331.536
330.913
330.313
329.737
329.183
328.651
328.14
327.65
327.181
326.731
326.3
325.888
325.495
325.119
324.76
324.419
324.093
323.783
323.489
323.209
322.944
322.692
322.454
322.228
322.015
321.813
321.623
321.444
321.276
321.117
320.969
320.829
320.698
320.575
320.461
320.354
320.254
320.161
320.075
319.994
319.92
319.851
319.787
319.728
319.674
319.625
319.579
319.537
319.499
319.465
319.434
319.406
319.38
319.358
319.338
319.32
319.305
319.292
319.281
319.272
319.265
319.259
319.256
319.254
319.253
319.254
319.257
319.26
319.266
319.272
395.874
388.012
381.062
375.135
370.139
365.917
362.308
359.18
356.426
353.967
351.742
349.706
347.825
346.073
344.43
342.881
341.413
340.017
338.685
337.412
336.191
335.02
333.895
332.813
331.772
330.769
329.803
328.873
327.978
327.115
326.285
325.485
324.716
323.977
323.266
322.584
321.929
321.3
320.697
320.12
319.568
319.039
318.534
318.052
317.592
317.153
316.735
316.338
315.96
315.6
315.26
314.937
314.631
314.341
314.067
313.809
313.565
313.335
313.119
312.915
312.724
312.545
312.377
312.219
312.072
311.935
311.807
311.687
311.576
311.473
311.378
311.289
311.207
311.132
311.062
310.999
310.94
310.887
310.838
310.794
310.753
310.717
310.685
310.656
310.63
310.608
310.588
310.572
310.557
310.546
310.537
310.53
310.525
310.522
310.521
310.523
310.526
310.531
310.537
310.546
396.424
389.465
383.043
377.294
372.221
367.763
363.831
360.335
357.197
354.353
351.751
349.349
347.115
345.023
343.054
341.191
339.421
337.734
336.123
334.58
333.101
331.679
330.312
328.997
327.731
326.511
325.336
324.204
323.113
322.063
321.051
320.077
319.14
318.239
317.373
316.541
315.742
314.976
314.242
313.538
312.864
312.22
311.604
311.015
310.454
309.919
309.41
308.925
308.464
308.026
307.61
307.216
306.843
306.489
306.155
305.84
305.543
305.262
304.998
304.75
304.517
304.298
304.093
303.901
303.722
303.554
303.398
303.252
303.117
302.991
302.874
302.766
302.666
302.574
302.489
302.412
302.34
302.275
302.215
302.161
302.112
302.068
302.029
301.993
301.962
301.935
301.911
301.89
301.873
301.859
301.847
301.839
301.833
301.83
301.829
301.83
301.834
301.84
301.848
301.859
396.762
390.391
384.36
378.784
373.701
369.099
364.933
361.151
357.697
354.523
351.586
348.853
346.294
343.885
341.607
339.445
337.385
335.419
333.537
331.732
329.999
328.332
326.728
325.184
323.697
322.263
320.881
319.55
318.266
317.03
315.839
314.693
313.59
312.529
311.508
310.528
309.587
308.684
307.819
306.989
306.195
305.436
304.71
304.017
303.355
302.724
302.124
301.552
301.008
300.492
300.002
299.537
299.097
298.681
298.287
297.915
297.564
297.234
296.923
296.63
296.355
296.097
295.855
295.629
295.417
295.22
295.035
294.863
294.704
294.555
294.418
294.29
294.173
294.064
293.964
293.872
293.788
293.711
293.641
293.577
293.519
293.467
293.42
293.378
293.342
293.309
293.281
293.257
293.236
293.22
293.206
293.196
293.189
293.185
293.184
293.186
293.19
293.197
293.207
293.219
396.976
390.989
385.231
379.79
374.715
370.015
365.673
361.661
357.942
354.483
351.251
348.218
345.359
342.655
340.086
337.64
335.304
333.068
330.924
328.865
326.885
324.98
323.145
321.376
319.671
318.027
316.442
314.914
313.441
312.022
310.654
309.337
308.069
306.85
305.677
304.55
303.468
302.43
301.435
300.481
299.568
298.694
297.859
297.062
296.301
295.575
294.884
294.226
293.601
293.007
292.443
291.908
291.402
290.923
290.47
290.042
289.638
289.258
288.9
288.563
288.246
287.949
287.671
287.411
287.167
286.939
286.727
286.529
286.346
286.175
286.016
285.87
285.734
285.609
285.494
285.388
285.291
285.203
285.122
285.048
284.982
284.922
284.868
284.82
284.777
284.74
284.707
284.68
284.656
284.637
284.621
284.61
284.601
284.597
284.596
284.597
284.602
284.611
284.622
284.635
397.112
391.371
385.792
380.444
375.371
370.592
366.107
361.903
357.958
354.249
350.753
347.448
344.314
341.334
338.493
335.777
333.177
330.683
328.286
325.981
323.762
321.624
319.562
317.574
315.657
313.807
312.022
310.301
308.641
307.041
305.499
304.013
302.583
301.207
299.884
298.613
297.392
296.22
295.096
294.019
292.988
292.001
291.058
290.158
289.298
288.479
287.698
286.955
286.248
285.577
284.94
284.336
283.764
283.223
282.711
282.227
281.771
281.341
280.937
280.556
280.199
279.863
279.549
279.254
278.979
278.722
278.482
278.258
278.051
277.857
277.678
277.513
277.359
277.218
277.088
276.968
276.859
276.758
276.667
276.584
276.509
276.441
276.38
276.326
276.277
276.235
276.198
276.167
276.14
276.118
276.101
276.087
276.078
276.073
276.071
276.073
276.079
276.088
276.1
276.116
397.195
391.605
386.134
380.836
375.749
370.898
366.287
361.916
357.771
353.84
350.105
346.551
343.163
339.926
336.828
333.857
331.005
328.263
325.624
323.081
320.63
318.265
315.984
313.782
311.656
309.604
307.624
305.713
303.869
302.091
300.378
298.726
297.137
295.606
294.135
292.72
291.362
290.058
288.807
287.609
286.461
285.363
284.313
283.311
282.354
281.441
280.572
279.744
278.958
278.21
277.501
276.828
276.191
275.588
275.018
274.479
273.971
273.492
273.042
272.618
272.219
271.846
271.495
271.167
270.86
270.574
270.307
270.058
269.826
269.611
269.412
269.227
269.056
268.899
268.754
268.62
268.498
268.386
268.284
268.192
268.108
268.032
267.964
267.904
267.85
267.803
267.762
267.726
267.697
267.672
267.652
267.638
267.627
267.621
267.619
267.622
267.628
267.638
267.651
267.669
397.241
391.732
386.315
381.031
375.914
370.986
366.258
361.734
357.409
353.275
349.322
345.539
341.914
338.436
335.096
331.884
328.791
325.812
322.939
320.167
317.491
314.907
312.411
310.001
307.672
305.422
303.25
301.153
299.13
297.177
295.295
293.481
291.734
290.052
288.434
286.879
285.385
283.95
282.575
281.256
279.993
278.785
277.63
276.526
275.473
274.469
273.512
272.601
271.735
270.913
270.132
269.391
268.689
268.025
267.398
266.805
266.245
265.718
265.222
264.755
264.316
263.904
263.519
263.157
262.819
262.504
262.21
261.935
261.68
261.443
261.224
261.02
260.832
260.659
260.499
260.352
260.217
260.094
259.982
259.88
259.787
259.704
259.629
259.562
259.503
259.451
259.405
259.366
259.333
259.306
259.285
259.268
259.257
259.25
259.248
259.25
259.257
259.267
259.282
259.301
397.259
391.782
386.377
381.077
375.911
370.9
366.058
361.39
356.897
352.575
348.42
344.423
340.576
336.872
333.303
329.861
326.539
323.333
320.235
317.242
314.349
311.552
308.848
306.234
303.707
301.265
298.906
296.627
294.426
292.303
290.255
288.281
286.379
284.548
282.786
281.092
279.465
277.902
276.403
274.967
273.591
272.274
271.014
269.812
268.663
267.568
266.525
265.532
264.588
263.691
262.839
262.031
261.266
260.542
259.857
259.211
258.6
258.025
257.484
256.974
256.496
256.047
255.626
255.232
254.863
254.519
254.198
253.899
253.62
253.362
253.122
252.9
252.695
252.505
252.331
252.17
252.023
251.889
251.766
251.655
251.554
251.463
251.381
251.308
251.243
251.186
251.137
251.094
251.058
251.028
251.004
250.986
250.974
250.966
250.964
250.966
250.973
250.985
251.001
251.021
397.258
391.773
386.348
381.008
375.777
370.676
365.717
360.91
356.258
351.759
347.413
343.215
339.16
335.242
331.455
327.794
324.253
320.829
317.515
314.309
311.206
308.203
305.297
302.485
299.765
297.135
294.593
292.136
289.763
287.473
285.263
283.131
281.078
279.1
277.197
275.367
273.608
271.919
270.299
268.746
267.258
265.834
264.472
263.172
261.93
260.746
259.617
258.543
257.521
256.551
255.629
254.755
253.928
253.144
252.403
251.703
251.043
250.421
249.835
249.284
248.766
248.28
247.824
247.397
246.998
246.626
246.278
245.954
245.653
245.373
245.114
244.873
244.651
244.446
244.257
244.083
243.924
243.778
243.646
243.525
243.415
243.317
243.228
243.149
243.079
243.017
242.963
242.917
242.878
242.845
242.819
242.8
242.786
242.777
242.774
242.777
242.784
242.797
242.814
242.836
397.242
391.72
386.249
380.848
375.539
370.34
365.263
360.319
355.512
350.845
346.318
341.929
337.675
333.554
329.56
325.69
321.939
318.305
314.784
311.372
308.066
304.863
301.761
298.758
295.85
293.037
290.316
287.686
285.144
282.69
280.321
278.036
275.833
273.712
271.67
269.706
267.819
266.006
264.266
262.599
261.001
259.472
258.01
256.612
255.278
254.006
252.794
251.64
250.542
249.499
248.509
247.57
246.68
245.838
245.042
244.29
243.58
242.911
242.281
241.689
241.132
240.61
240.12
239.661
239.232
238.832
238.458
238.11
237.786
237.485
237.206
236.947
236.708
236.487
236.284
236.097
235.926
235.769
235.626
235.497
235.379
235.272
235.177
235.092
235.016
234.95
234.892
234.842
234.799
234.764
234.736
234.715
234.7
234.691
234.687
234.69
234.698
234.711
234.729
234.753
397.213
391.633
386.097
380.619
375.219
369.914
364.717
359.636
354.678
349.848
345.148
340.576
336.133
331.817
327.625
323.554
319.603
315.768
312.046
308.435
304.933
301.537
298.245
295.055
291.965
288.974
286.079
283.279
280.573
277.958
275.434
272.999
270.651
268.389
266.211
264.116
262.102
260.167
258.311
256.531
254.825
253.193
251.631
250.139
248.715
247.356
246.061
244.828
243.656
242.542
241.484
240.481
239.53
238.631
237.78
236.976
236.218
235.503
234.83
234.197
233.602
233.043
232.52
232.03
231.571
231.143
230.743
230.371
230.025
229.703
229.405
229.128
228.873
228.637
228.419
228.22
228.036
227.869
227.716
227.577
227.451
227.337
227.235
227.143
227.062
226.991
226.929
226.875
226.83
226.792
226.762
226.739
226.723
226.713
226.709
226.711
226.719
226.733
226.753
226.777
397.176
391.52
385.902
380.335
374.835
369.418
364.096
358.878
353.772
348.783
343.915
339.167
334.542
330.039
325.657
321.394
317.249
313.221
309.306
305.504
301.812
298.229
294.752
291.382
288.114
284.95
281.885
278.921
276.053
273.283
270.607
268.024
265.534
263.134
260.823
258.599
256.461
254.408
252.437
250.546
248.735
247.001
245.342
243.757
242.244
240.8
239.424
238.114
236.868
235.684
234.56
233.494
232.483
231.527
230.622
229.768
228.962
228.202
227.486
226.813
226.18
225.586
225.03
224.509
224.021
223.566
223.141
222.745
222.376
222.034
221.717
221.423
221.151
220.9
220.669
220.456
220.261
220.083
219.92
219.772
219.638
219.516
219.408
219.31
219.224
219.148
219.082
219.024
218.976
218.936
218.903
218.879
218.861
218.85
218.846
218.848
218.856
218.871
218.891
218.917
397.132
391.386
385.674
380.007
374.399
368.864
363.415
358.06
352.808
347.663
342.631
337.714
332.913
328.23
323.665
319.217
314.886
310.67
306.569
302.581
298.706
294.942
291.287
287.741
284.301
280.968
277.739
274.613
271.59
268.666
265.843
263.117
260.487
257.952
255.511
253.162
250.903
248.732
246.649
244.65
242.735
240.902
239.148
237.472
235.871
234.344
232.888
231.503
230.184
228.932
227.742
226.614
225.545
224.533
223.575
222.671
221.818
221.014
220.256
219.543
218.874
218.245
217.656
217.104
216.588
216.106
215.656
215.237
214.847
214.484
214.148
213.837
213.549
213.283
213.038
212.813
212.606
212.417
212.245
212.088
211.945
211.817
211.702
211.598
211.507
211.426
211.356
211.295
211.243
211.2
211.166
211.139
211.12
211.109
211.104
211.106
211.114
211.129
211.151
211.178
397.082
391.236
385.421
379.645
373.923
368.266
362.687
357.194
351.796
346.499
341.307
336.225
331.254
326.397
321.655
317.028
312.517
308.121
303.84
299.674
295.621
291.681
287.853
284.137
280.53
277.033
273.644
270.362
267.185
264.114
261.145
258.279
255.514
252.848
250.279
247.807
245.43
243.145
240.952
238.847
236.831
234.9
233.053
231.287
229.601
227.992
226.459
224.998
223.609
222.289
221.035
219.846
218.72
217.653
216.644
215.691
214.792
213.944
213.145
212.394
211.688
211.025
210.404
209.822
209.278
208.769
208.295
207.853
207.441
207.059
206.704
206.376
206.072
205.792
205.533
205.296
205.078
204.878
204.696
204.53
204.38
204.244
204.123
204.013
203.917
203.831
203.757
203.692
203.638
203.592
203.556
203.527
203.507
203.494
203.489
203.491
203.499
203.515
203.537
203.565
397.028
391.074
385.147
379.257
373.415
367.633
361.922
356.291
350.749
345.301
339.953
334.709
329.573
324.548
319.634
314.835
310.15
305.579
301.124
296.785
292.56
288.45
284.455
280.573
276.804
273.148
269.603
266.169
262.844
259.628
256.519
253.516
250.619
247.824
245.132
242.54
240.046
237.65
235.349
233.142
231.026
228.999
227.061
225.207
223.438
221.749
220.139
218.606
217.148
215.761
214.445
213.196
212.013
210.893
209.833
208.832
207.888
206.997
206.158
205.369
204.627
203.931
203.278
202.667
202.095
201.561
201.062
200.598
200.165
199.764
199.391
199.046
198.726
198.431
198.16
197.91
197.681
197.471
197.279
197.105
196.947
196.804
196.676
196.561
196.459
196.369
196.29
196.222
196.165
196.117
196.078
196.048
196.026
196.012
196.006
196.008
196.017
196.033
196.055
196.084
396.971
390.902
384.859
378.849
372.884
366.974
361.129
355.36
349.674
344.077
338.576
333.175
327.878
322.689
317.61
312.642
307.789
303.05
298.427
293.919
289.529
285.254
281.096
277.054
273.128
269.317
265.621
262.039
258.57
255.213
251.967
248.832
245.805
242.885
240.072
237.363
234.756
232.251
229.845
227.537
225.324
223.205
221.177
219.238
217.386
215.619
213.935
212.33
210.804
209.353
207.975
206.668
205.43
204.257
203.148
202.1
201.111
200.178
199.3
198.473
197.697
196.968
196.284
195.644
195.045
194.486
193.963
193.477
193.024
192.603
192.213
191.851
191.516
191.207
190.923
190.661
190.42
190.2
190
189.817
189.651
189.501
189.367
189.246
189.139
189.044
188.962
188.89
188.829
188.779
188.738
188.706
188.683
188.668
188.661
188.662
188.671
188.687
188.711
188.741
396.912
390.723
384.559
378.426
372.334
366.294
360.316
354.408
348.579
342.836
337.184
331.629
326.175
320.827
315.587
310.457
305.44
300.538
295.752
291.082
286.53
282.096
277.781
273.583
269.504
265.544
261.701
257.975
254.366
250.872
247.493
244.228
241.076
238.034
235.103
232.28
229.563
226.952
224.444
222.037
219.729
217.519
215.404
213.381
211.45
209.606
207.849
206.175
204.582
203.068
201.631
200.267
198.974
197.75
196.592
195.498
194.466
193.492
192.575
191.712
190.901
190.14
189.426
188.758
188.132
187.548
187.003
186.495
186.022
185.582
185.174
184.796
184.447
184.124
183.826
183.553
183.301
183.072
182.862
182.67
182.497
182.34
182.199
182.073
181.961
181.862
181.775
181.7
181.636
181.583
181.54
181.506
181.482
181.466
181.458
181.459
181.468
181.484
181.508
181.539
396.851
390.539
384.251
377.992
371.772
365.6
359.488
353.442
347.472
341.583
335.784
330.078
324.472
318.968
313.571
308.284
303.109
298.048
293.104
288.277
283.569
278.98
274.512
270.164
265.937
261.831
257.846
253.98
250.235
246.609
243.1
239.709
236.435
233.275
230.229
227.295
224.471
221.756
219.148
216.645
214.245
211.946
209.746
207.642
205.633
203.715
201.886
200.144
198.487
196.911
195.415
193.995
192.649
191.375
190.17
189.031
187.956
186.942
185.987
185.089
184.245
183.452
182.709
182.013
181.361
180.753
180.185
179.655
179.163
178.705
178.28
177.886
177.522
177.185
176.875
176.59
176.328
176.088
175.869
175.67
175.489
175.326
175.179
175.047
174.93
174.826
174.735
174.657
174.59
174.534
174.489
174.453
174.427
174.41
174.402
174.402
174.411
174.428
174.452
174.484
396.788
390.351
383.937
377.551
371.201
364.898
358.65
352.468
346.357
340.326
334.381
328.528
322.772
317.117
311.568
306.128
300.799
295.585
290.487
285.508
280.649
275.91
271.294
266.801
262.43
258.183
254.059
250.059
246.181
242.425
238.792
235.278
231.885
228.61
225.452
222.41
219.482
216.667
213.962
211.365
208.875
206.49
204.207
202.024
199.938
197.947
196.049
194.241
192.52
190.884
189.331
187.856
186.459
185.136
183.884
182.702
181.585
180.533
179.541
178.608
177.731
176.907
176.135
175.412
174.735
174.103
173.513
172.963
172.451
171.975
171.533
171.124
170.745
170.395
170.073
169.776
169.504
169.255
169.027
168.82
168.631
168.461
168.308
168.171
168.049
167.941
167.846
167.764
167.694
167.636
167.588
167.551
167.523
167.505
167.496
167.496
167.504
167.521
167.546
167.579
396.725
390.161
383.62
377.105
370.625
364.19
357.809
351.49
345.241
339.07
332.982
326.985
321.082
315.28
309.582
303.993
298.515
293.152
287.906
282.779
277.773
272.89
268.13
263.495
258.986
254.602
250.344
246.212
242.206
238.326
234.57
230.938
227.429
224.042
220.776
217.629
214.6
211.686
208.887
206.199
203.622
201.153
198.789
196.528
194.368
192.307
190.341
188.468
186.686
184.992
183.382
181.855
180.407
179.036
177.74
176.514
175.357
174.266
173.239
172.272
171.363
170.509
169.709
168.959
168.258
167.602
166.99
166.42
165.889
165.396
164.938
164.513
164.121
163.758
163.423
163.116
162.833
162.574
162.338
162.123
161.927
161.751
161.591
161.449
161.322
161.209
161.111
161.026
160.953
160.892
160.842
160.802
160.773
160.754
160.744
160.744
160.752
160.769
160.794
160.827
396.661
389.971
383.302
376.658
370.048
363.482
356.967
350.513
344.128
337.818
331.591
325.451
319.406
313.461
307.619
301.885
296.262
290.754
285.364
280.094
274.946
269.922
265.024
260.252
255.607
251.091
246.703
242.444
238.314
234.312
230.438
226.691
223.07
219.575
216.203
212.954
209.826
206.818
203.926
201.151
198.488
195.937
193.495
191.159
188.927
186.797
184.765
182.83
180.987
179.236
177.572
175.993
174.496
173.079
171.738
170.471
169.275
168.147
167.084
166.084
165.144
164.261
163.433
162.657
161.932
161.254
160.621
160.031
159.482
158.971
158.497
158.058
157.651
157.276
156.93
156.611
156.318
156.05
155.806
155.583
155.38
155.197
155.032
154.884
154.752
154.635
154.533
154.444
154.368
154.305
154.253
154.211
154.181
154.16
154.15
154.148
154.156
154.173
154.198
154.232
396.598
389.78
382.983
376.211
369.472
362.775
356.128
349.541
343.021
336.575
330.211
323.933
317.749
311.663
305.681
299.806
294.043
288.394
282.865
277.456
272.17
267.01
261.977
257.073
252.298
247.653
243.14
238.757
234.507
230.387
226.398
222.54
218.81
215.209
211.736
208.388
205.164
202.063
199.083
196.222
193.477
190.846
188.328
185.919
183.617
181.419
179.324
177.327
175.426
173.619
171.902
170.273
168.729
167.266
165.883
164.575
163.34
162.176
161.079
160.046
159.076
158.165
157.31
156.51
155.76
155.06
154.407
153.797
153.23
152.703
152.213
151.76
151.34
150.952
150.594
150.265
149.963
149.686
149.432
149.202
148.992
148.803
148.632
148.479
148.342
148.221
148.115
148.023
147.944
147.878
147.823
147.78
147.748
147.727
147.715
147.713
147.72
147.737
147.763
147.796
396.535
389.59
382.666
375.766
368.899
362.072
355.296
348.577
341.925
335.345
328.846
322.433
316.113
309.891
303.772
297.76
291.86
286.076
280.411
274.867
269.449
264.157
258.993
253.96
249.059
244.29
239.655
235.154
230.786
226.553
222.453
218.486
214.652
210.949
207.376
203.932
200.616
197.425
194.359
191.414
188.589
185.881
183.289
180.809
178.439
176.176
174.018
171.962
170.005
168.144
166.376
164.698
163.107
161.601
160.175
158.828
157.556
156.356
155.226
154.162
153.162
152.224
151.343
150.518
149.746
149.024
148.35
147.722
147.138
146.594
146.089
145.621
145.188
144.788
144.419
144.08
143.768
143.482
143.221
142.983
142.766
142.571
142.394
142.236
142.095
141.969
141.86
141.764
141.682
141.614
141.557
141.512
141.478
141.455
141.442
141.44
141.447
141.463
141.489
141.523
396.472
389.401
382.352
375.325
368.331
361.377
354.472
347.624
340.842
334.131
327.5
320.955
314.503
308.147
301.895
295.751
289.718
283.802
278.005
272.332
266.784
261.364
256.075
250.918
245.894
241.005
236.252
231.635
227.155
222.811
218.603
214.532
210.596
206.794
203.125
199.589
196.183
192.905
189.755
186.729
183.827
181.044
178.38
175.831
173.395
171.07
168.851
166.738
164.726
162.812
160.994
159.269
157.633
156.084
154.618
153.232
151.924
150.69
149.527
148.433
147.405
146.439
145.533
144.684
143.889
143.147
142.454
141.807
141.206
140.646
140.127
139.645
139.199
138.788
138.408
138.058
137.737
137.442
137.173
136.928
136.705
136.503
136.321
136.157
136.011
135.882
135.769
135.67
135.585
135.514
135.455
135.408
135.373
135.348
135.335
135.331
135.338
135.354
135.379
135.414
396.41
389.215
382.041
374.89
367.77
360.69
353.659
346.684
339.774
332.936
326.176
319.502
312.92
306.435
300.054
293.78
287.619
281.575
275.651
269.851
264.178
258.635
253.224
247.946
242.804
237.799
232.932
228.204
223.614
219.164
214.852
210.679
206.645
202.747
198.986
195.36
191.866
188.505
185.273
182.17
179.192
176.337
173.603
170.988
168.488
166.101
163.824
161.655
159.589
157.625
155.759
153.987
152.308
150.717
149.212
147.789
146.446
145.178
143.985
142.861
141.804
140.812
139.881
139.009
138.193
137.43
136.718
136.054
135.436
134.861
134.327
133.832
133.374
132.951
132.56
132.2
131.87
131.567
131.29
131.038
130.808
130.6
130.413
130.244
130.094
129.961
129.844
129.742
129.654
129.58
129.519
129.47
129.433
129.407
129.393
129.388
129.394
129.41
129.436
129.47
396.348
389.031
381.734
374.46
367.217
360.014
352.858
345.759
338.724
331.761
324.876
318.076
311.368
304.757
298.25
291.851
285.565
279.397
273.35
267.428
261.634
255.971
250.442
245.048
239.792
234.675
229.697
224.861
220.166
215.612
211.2
206.93
202.8
198.81
194.959
191.245
187.668
184.226
180.916
177.736
174.685
171.761
168.959
166.279
163.718
161.272
158.938
156.714
154.597
152.584
150.671
148.855
147.133
145.502
143.959
142.5
141.122
139.823
138.598
137.446
136.362
135.345
134.39
133.496
132.659
131.876
131.145
130.464
129.83
129.24
128.692
128.184
127.714
127.279
126.878
126.509
126.17
125.859
125.574
125.315
125.079
124.865
124.672
124.499
124.344
124.207
124.086
123.981
123.89
123.814
123.75
123.7
123.661
123.634
123.618
123.613
123.618
123.634
123.659
123.694
396.288
388.85
381.433
374.038
366.674
359.35
352.073
344.852
337.695
330.609
323.601
316.679
309.848
303.116
296.486
289.966
283.559
277.27
271.104
265.064
259.153
253.375
247.731
242.225
236.859
231.633
226.549
221.608
216.811
212.158
207.649
203.284
199.062
194.983
191.045
187.248
183.589
180.068
176.682
173.43
170.308
167.316
164.45
161.707
159.086
156.582
154.194
151.918
149.751
147.689
145.731
143.872
142.109
140.439
138.859
137.365
135.954
134.624
133.37
132.19
131.08
130.038
129.06
128.144
127.286
126.485
125.736
125.038
124.388
123.783
123.222
122.701
122.219
121.774
121.363
120.984
120.636
120.317
120.025
119.759
119.517
119.297
119.099
118.921
118.762
118.621
118.497
118.388
118.295
118.216
118.15
118.098
118.057
118.029
118.012
118.005
118.01
118.025
118.05
118.085
396.229
388.673
381.137
373.624
366.142
358.699
351.303
343.963
336.687
329.481
322.355
315.313
308.364
301.512
294.765
288.126
281.602
275.197
268.915
262.761
256.737
250.847
245.093
239.479
234.005
228.675
223.488
218.447
213.551
208.802
204.2
199.743
195.432
191.267
187.245
183.367
179.63
176.033
172.574
169.251
166.061
163.003
160.074
157.271
154.592
152.033
149.592
147.265
145.05
142.942
140.94
139.039
137.237
135.529
133.913
132.386
130.943
129.582
128.3
127.093
125.958
124.891
123.891
122.954
122.076
121.256
120.49
119.776
119.111
118.492
117.918
117.385
116.891
116.435
116.014
115.627
115.27
114.943
114.644
114.371
114.123
113.898
113.695
113.512
113.349
113.204
113.076
112.965
112.868
112.787
112.719
112.664
112.622
112.592
112.574
112.567
112.571
112.585
112.61
112.645
396.171
388.5
380.848
373.219
365.621
358.062
350.55
343.094
335.702
328.38
321.138
313.98
306.915
299.948
293.086
286.333
279.696
273.178
266.785
260.52
254.387
248.389
242.529
236.81
231.233
225.802
220.516
215.378
210.387
205.545
200.852
196.308
191.911
187.663
183.56
179.604
175.791
172.121
168.591
165.2
161.945
158.824
155.834
152.973
150.237
147.625
145.133
142.757
140.495
138.343
136.298
134.357
132.516
130.772
129.122
127.562
126.088
124.698
123.388
122.155
120.995
119.906
118.884
117.926
117.03
116.191
115.409
114.679
113.999
113.367
112.779
112.234
111.73
111.264
110.833
110.436
110.072
109.737
109.431
109.152
108.898
108.667
108.459
108.272
108.105
107.956
107.824
107.71
107.611
107.527
107.457
107.4
107.356
107.325
107.305
107.297
107.3
107.314
107.339
107.373
396.115
388.33
380.566
372.824
365.113
357.44
349.815
342.246
334.741
327.307
319.951
312.682
305.504
298.426
291.452
284.589
277.842
271.215
264.714
258.342
252.104
246.002
240.039
234.219
228.544
223.014
217.633
212.401
207.319
202.388
197.608
192.978
188.499
184.171
179.991
175.958
172.073
168.332
164.734
161.277
157.959
154.777
151.728
148.811
146.022
143.358
140.816
138.393
136.086
133.891
131.805
129.825
127.947
126.168
124.485
122.893
121.389
119.971
118.634
117.376
116.193
115.081
114.038
113.061
112.146
111.29
110.491
109.746
109.052
108.406
107.806
107.25
106.735
106.258
105.819
105.414
105.041
104.699
104.386
104.101
103.841
103.605
103.392
103.2
103.029
102.876
102.742
102.624
102.522
102.435
102.363
102.305
102.259
102.226
102.205
102.196
102.198
102.212
102.236
102.27
396.06
388.165
380.291
372.439
364.617
356.835
349.1
341.421
333.806
326.262
318.797
311.418
304.132
296.946
289.864
282.894
276.041
269.309
262.704
256.229
249.889
243.686
237.625
231.708
225.936
220.313
214.84
209.518
204.348
199.33
194.466
189.755
185.197
180.791
176.536
172.431
168.475
164.666
161.002
157.482
154.103
150.862
147.757
144.786
141.945
139.231
136.642
134.173
131.823
129.586
127.461
125.444
123.53
121.717
120.001
118.379
116.847
115.401
114.039
112.756
111.55
110.416
109.353
108.357
107.424
106.551
105.737
104.977
104.269
103.611
102.999
102.431
101.906
101.42
100.971
100.557
100.177
99.8283
99.5088
99.2171
98.9516
98.7106
98.4928
98.2967
98.1212
97.9649
97.8269
97.7062
97.6016
97.5125
97.4381
97.3776
97.3304
97.2959
97.2738
97.2635
97.2648
97.2774
97.301
97.3346
396.006
388.004
380.023
372.064
364.135
356.246
348.404
340.618
332.896
325.246
317.675
310.191
302.8
295.509
288.323
281.25
274.294
267.461
260.755
254.181
247.743
241.444
235.287
229.276
223.412
217.698
212.137
206.728
201.473
196.373
191.428
186.638
182.003
177.523
173.196
169.021
164.997
161.123
157.396
153.815
150.377
147.08
143.921
140.897
138.006
135.244
132.609
130.097
127.704
125.428
123.265
121.211
119.263
117.418
115.671
114.019
112.459
110.987
109.6
108.294
107.065
105.911
104.829
103.814
102.863
101.975
101.145
100.371
99.6499
98.979
98.3557
97.7774
97.2417
96.7463
96.2888
95.8673
95.4796
95.1237
94.7978
94.5002
94.2291
93.9831
93.7607
93.5603
93.3809
93.2211
93.0798
92.956
92.8488
92.7573
92.6806
92.6182
92.5692
92.5333
92.5098
92.4984
92.4988
92.5106
92.5336
92.5668
395.954
387.848
379.762
371.699
363.667
355.674
347.728
339.839
332.014
324.261
316.587
309.001
301.508
294.116
286.83
279.657
272.602
265.671
258.868
252.199
245.666
239.273
233.025
226.923
220.971
215.17
209.523
204.031
198.695
193.515
188.492
183.627
178.918
174.366
169.97
165.728
161.639
157.702
153.915
150.275
146.78
143.429
140.218
137.144
134.205
131.397
128.717
126.163
123.73
121.416
119.216
117.127
115.146
113.269
111.492
109.812
108.226
106.728
105.317
103.988
102.739
101.565
100.463
99.4304
98.4636
97.5595
96.715
95.9272
95.1932
94.5103
93.8758
93.287
92.7416
92.2372
91.7713
91.3419
90.947
90.5844
90.2523
89.9489
89.6725
89.4216
89.1946
88.9901
88.8068
88.6435
88.4991
88.3724
88.2625
88.1685
88.0897
88.0253
87.9746
87.9371
87.9123
87.8997
87.8991
87.9101
87.9324
87.9652
395.904
387.697
379.51
371.346
363.213
355.119
347.073
339.084
331.159
323.306
315.533
307.848
300.257
292.767
285.384
278.115
270.965
263.94