/*--------------------------------*- C++ -*----------------------------------*\
  =========                 |
  \\      /  F ield         | OpenFOAM: The Open Source CFD Toolbox
   \\    /   O peration     | Website:  https://openfoam.org
    \\  /    A nd           | Version:  10
     \\/     M anipulation  |
\*---------------------------------------------------------------------------*/
FoamFile
{
    format      ascii;
    class       volScalarField;
    location    "19.5";
    object      T;
}
// * * * * * * * * * * * * * * * * * * * * * * * * * * * * * * * * * * * * * //

dimensions      [0 0 0 1 0 0 0];

internalField   nonuniform List<scalar> 
10000
(
374.978
361.261
356.56
354.489
353.356
352.635
352.126
351.741
351.437
351.186
350.974
350.79
350.628
350.483
350.351
350.23
350.118
350.013
349.915
349.823
349.735
349.651
349.571
349.495
349.421
349.35
349.282
349.215
349.151
349.089
349.029
348.97
348.913
348.857
348.803
348.751
348.7
348.65
348.601
348.554
348.508
348.463
348.419
348.376
348.335
348.294
348.255
348.216
348.179
348.142
348.107
348.072
348.039
348.006
347.974
347.943
347.913
347.884
347.856
347.829
347.802
347.777
347.752
347.728
347.705
347.682
347.661
347.64
347.62
347.601
347.582
347.564
347.547
347.531
347.515
347.5
347.486
347.472
347.459
347.447
347.435
347.424
347.414
347.404
347.395
347.387
347.379
347.372
347.365
347.359
347.354
347.349
347.345
347.341
347.338
347.336
347.334
347.332
347.332
347.332
388.585
374.763
367.047
362.524
359.653
357.686
356.247
355.14
354.251
353.515
352.888
352.344
351.862
351.43
351.037
350.676
350.342
350.029
349.736
349.459
349.197
348.946
348.707
348.477
348.256
348.044
347.838
347.64
347.447
347.261
347.08
346.904
346.733
346.567
346.405
346.248
346.094
345.945
345.799
345.657
345.519
345.384
345.252
345.124
344.999
344.878
344.759
344.644
344.531
344.422
344.316
344.212
344.111
344.013
343.918
343.826
343.736
343.649
343.564
343.482
343.403
343.326
343.252
343.18
343.11
343.043
342.978
342.916
342.856
342.798
342.742
342.689
342.637
342.588
342.541
342.496
342.453
342.412
342.373
342.337
342.302
342.269
342.238
342.209
342.182
342.156
342.133
342.111
342.091
342.073
342.057
342.043
342.03
342.019
342.01
342.003
341.997
341.993
341.991
341.991
393.18
382.164
374.344
368.908
365.05
362.212
360.042
358.322
356.917
355.737
354.725
353.839
353.051
352.342
351.695
351.1
350.548
350.031
349.546
349.087
348.651
348.235
347.838
347.456
347.089
346.736
346.394
346.064
345.744
345.434
345.132
344.84
344.555
344.278
344.009
343.747
343.491
343.242
343
342.763
342.533
342.308
342.089
341.876
341.668
341.465
341.268
341.076
340.888
340.706
340.529
340.356
340.189
340.025
339.867
339.713
339.563
339.418
339.277
339.141
339.009
338.881
338.757
338.637
338.521
338.409
338.301
338.197
338.097
338
337.908
337.818
337.733
337.651
337.573
337.498
337.426
337.358
337.293
337.232
337.174
337.119
337.067
337.019
336.974
336.932
336.892
336.856
336.823
336.793
336.767
336.743
336.721
336.703
336.688
336.676
336.667
336.66
336.657
336.656
395.147
386.373
379.255
373.715
369.428
366.07
363.386
361.192
359.359
357.795
356.436
355.238
354.165
353.194
352.305
351.484
350.721
350.006
349.333
348.695
348.089
347.511
346.957
346.425
345.914
345.421
344.944
344.483
344.036
343.603
343.182
342.773
342.376
341.989
341.612
341.246
340.889
340.54
340.201
339.871
339.548
339.234
338.928
338.63
338.339
338.055
337.779
337.51
337.249
336.994
336.746
336.504
336.269
336.041
335.819
335.604
335.395
335.192
334.995
334.804
334.619
334.44
334.266
334.099
333.937
333.78
333.629
333.483
333.343
333.208
333.078
332.953
332.834
332.719
332.609
332.505
332.404
332.309
332.219
332.133
332.052
331.975
331.903
331.835
331.771
331.712
331.658
331.607
331.561
331.519
331.481
331.448
331.418
331.393
331.372
331.355
331.342
331.333
331.328
331.327
396.175
388.93
382.59
377.27
372.878
369.256
366.243
363.704
361.533
359.65
357.992
356.514
355.182
353.967
352.851
351.817
350.851
349.945
349.089
348.278
347.506
346.768
346.061
345.382
344.727
344.096
343.486
342.896
342.323
341.768
341.229
340.704
340.195
339.698
339.215
338.745
338.286
337.84
337.404
336.98
336.566
336.163
335.77
335.387
335.013
334.649
334.295
333.949
333.613
333.286
332.967
332.657
332.355
332.062
331.777
331.501
331.232
330.971
330.718
330.473
330.235
330.005
329.782
329.567
329.359
329.158
328.963
328.776
328.596
328.423
328.256
328.096
327.942
327.794
327.654
327.519
327.39
327.268
327.152
327.041
326.937
326.838
326.745
326.658
326.577
326.501
326.431
326.366
326.307
326.253
326.204
326.161
326.123
326.091
326.064
326.042
326.025
326.013
326.007
326.005
396.792
390.583
384.906
379.897
375.561
371.835
368.629
365.851
363.425
361.282
359.372
357.65
356.085
354.649
353.321
352.086
350.929
349.84
348.809
347.83
346.896
346.003
345.146
344.322
343.527
342.76
342.019
341.301
340.604
339.928
339.271
338.633
338.012
337.407
336.818
336.244
335.685
335.141
334.609
334.092
333.587
333.095
332.615
332.148
331.692
331.248
330.815
330.394
329.983
329.584
329.195
328.816
328.448
328.09
327.743
327.405
327.077
326.758
326.449
326.15
325.86
325.579
325.307
325.044
324.789
324.544
324.307
324.078
323.858
323.646
323.443
323.247
323.059
322.879
322.707
322.543
322.386
322.237
322.094
321.96
321.832
321.712
321.598
321.492
321.393
321.3
321.214
321.135
321.063
320.997
320.938
320.885
320.839
320.799
320.766
320.739
320.718
320.704
320.696
320.695
397.197
391.709
386.555
381.852
377.638
373.898
370.588
367.652
365.036
362.689
360.567
358.636
356.864
355.228
353.707
352.284
350.947
349.684
348.486
347.345
346.256
345.211
344.209
343.243
342.311
341.411
340.54
339.696
338.877
338.082
337.309
336.558
335.826
335.114
334.42
333.744
333.085
332.443
331.817
331.207
330.612
330.031
329.466
328.914
328.377
327.853
327.342
326.845
326.361
325.889
325.43
324.984
324.549
324.127
323.716
323.318
322.931
322.555
322.19
321.837
321.494
321.162
320.841
320.531
320.231
319.941
319.661
319.392
319.132
318.882
318.641
318.41
318.189
317.976
317.773
317.579
317.394
317.217
317.049
316.89
316.74
316.598
316.464
316.338
316.221
316.111
316.01
315.917
315.831
315.754
315.684
315.621
315.567
315.52
315.481
315.449
315.425
315.408
315.399
315.397
397.477
392.505
387.755
383.319
379.242
375.534
372.176
369.138
366.383
363.874
361.58
359.469
357.516
355.7
354.002
352.407
350.901
349.474
348.117
346.821
345.581
344.391
343.247
342.143
341.078
340.047
339.049
338.082
337.142
336.23
335.342
334.479
333.638
332.82
332.022
331.245
330.487
329.748
329.028
328.326
327.641
326.973
326.322
325.687
325.068
324.465
323.877
323.304
322.746
322.203
321.675
321.16
320.66
320.173
319.701
319.241
318.795
318.362
317.942
317.535
317.14
316.758
316.388
316.031
315.685
315.351
315.028
314.718
314.418
314.13
313.853
313.587
313.331
313.087
312.852
312.629
312.415
312.212
312.019
311.835
311.662
311.498
311.344
311.199
311.064
310.938
310.821
310.713
310.615
310.525
310.445
310.373
310.31
310.256
310.211
310.174
310.146
310.127
310.116
310.114
397.678
393.083
388.643
384.428
380.482
376.824
373.45
370.346
367.488
364.853
362.415
360.151
358.04
356.063
354.205
352.45
350.787
349.206
347.697
346.254
344.87
343.54
342.258
341.021
339.825
338.667
337.545
336.456
335.398
334.37
333.37
332.396
331.448
330.524
329.624
328.747
327.891
327.057
326.243
325.449
324.675
323.92
323.184
322.467
321.767
321.085
320.42
319.773
319.142
318.528
317.93
317.348
316.782
316.232
315.697
315.177
314.672
314.183
313.707
313.247
312.8
312.368
311.949
311.544
311.153
310.775
310.41
310.059
309.72
309.394
309.08
308.779
308.49
308.213
307.948
307.695
307.453
307.223
307.004
306.797
306.6
306.415
306.24
306.077
305.923
305.781
305.649
305.527
305.415
305.314
305.223
305.142
305.07
305.009
304.958
304.916
304.885
304.863
304.851
304.848
397.826
393.51
389.306
385.27
381.439
377.833
374.46
371.312
368.378
365.642
363.085
360.69
358.44
356.319
354.314
352.413
350.604
348.878
347.226
345.643
344.121
342.655
341.241
339.874
338.551
337.269
336.025
334.818
333.644
332.502
331.391
330.309
329.255
328.228
327.226
326.25
325.297
324.368
323.462
322.578
321.716
320.875
320.054
319.255
318.475
317.714
316.973
316.251
315.548
314.863
314.197
313.548
312.917
312.303
311.706
311.127
310.564
310.017
309.487
308.973
308.475
307.993
307.526
307.074
306.638
306.216
305.809
305.417
305.039
304.675
304.325
303.989
303.666
303.357
303.061
302.779
302.509
302.252
302.008
301.777
301.558
301.351
301.156
300.973
300.802
300.643
300.496
300.36
300.235
300.122
300.02
299.93
299.85
299.782
299.725
299.678
299.643
299.619
299.605
299.602
397.935
393.828
389.805
385.909
382.173
378.616
375.249
372.072
369.078
366.259
363.601
361.093
358.72
356.471
354.333
352.296
350.351
348.489
346.703
344.986
343.332
341.736
340.194
338.702
337.256
335.853
334.491
333.168
331.88
330.627
329.407
328.218
327.06
325.93
324.829
323.754
322.706
321.684
320.686
319.713
318.763
317.837
316.933
316.052
315.192
314.354
313.538
312.742
311.967
311.212
310.477
309.761
309.065
308.389
307.731
307.092
306.471
305.868
305.284
304.717
304.167
303.635
303.12
302.622
302.14
301.675
301.226
300.793
300.376
299.975
299.589
299.218
298.862
298.521
298.195
297.883
297.586
297.303
297.033
296.778
296.536
296.307
296.093
295.891
295.702
295.527
295.364
295.214
295.077
294.952
294.839
294.739
294.652
294.576
294.513
294.462
294.423
294.396
294.381
294.378
398.017
394.066
390.18
386.393
382.731
379.215
375.855
372.654
369.612
366.723
363.979
361.371
358.889
356.523
354.264
352.103
350.031
348.042
346.128
344.284
342.504
340.784
339.119
337.505
335.94
334.419
332.942
331.505
330.106
328.744
327.417
326.124
324.863
323.632
322.432
321.262
320.119
319.004
317.916
316.854
315.818
314.807
313.821
312.859
311.921
311.006
310.115
309.246
308.399
307.574
306.772
305.99
305.23
304.491
303.772
303.074
302.395
301.737
301.098
300.479
299.878
299.297
298.734
298.189
297.663
297.155
296.664
296.191
295.735
295.296
294.874
294.469
294.08
293.707
293.351
293.01
292.685
292.375
292.081
291.801
291.537
291.287
291.052
290.832
290.626
290.434
290.256
290.092
289.942
289.805
289.682
289.573
289.477
289.395
289.326
289.27
289.227
289.198
289.181
289.178
398.077
394.242
390.459
386.753
383.149
379.663
376.307
373.087
370.002
367.052
364.232
361.535
358.954
356.482
354.112
351.835
349.645
347.536
345.502
343.537
341.637
339.797
338.013
336.282
334.601
332.967
331.377
329.83
328.323
326.854
325.422
324.026
322.664
321.334
320.037
318.772
317.536
316.33
315.153
314.003
312.882
311.788
310.72
309.678
308.662
307.671
306.705
305.763
304.846
303.953
303.082
302.236
301.412
300.61
299.831
299.074
298.339
297.625
296.932
296.261
295.61
294.979
294.369
293.778
293.208
292.656
292.124
291.611
291.117
290.641
290.183
289.743
289.322
288.917
288.531
288.161
287.808
287.472
287.153
286.85
286.563
286.292
286.037
285.798
285.575
285.366
285.173
284.995
284.832
284.684
284.551
284.433
284.329
284.239
284.164
284.104
284.057
284.025
284.008
284.004
398.121
394.371
390.662
387.017
383.454
379.989
376.632
373.391
370.268
367.263
364.373
361.596
358.925
356.356
353.882
351.497
349.197
346.975
344.826
342.747
340.731
338.777
336.879
335.035
333.242
331.497
329.798
328.143
326.529
324.956
323.422
321.925
320.463
319.037
317.645
316.285
314.958
313.662
312.396
311.161
309.955
308.778
307.63
306.509
305.416
304.35
303.31
302.297
301.309
300.347
299.411
298.499
297.612
296.749
295.91
295.095
294.303
293.534
292.788
292.064
291.363
290.684
290.027
289.39
288.776
288.182
287.608
287.056
286.523
286.01
285.517
285.043
284.589
284.153
283.737
283.338
282.958
282.596
282.252
281.925
281.616
281.325
281.05
280.792
280.551
280.327
280.119
279.927
279.751
279.592
279.448
279.32
279.208
279.112
279.031
278.966
278.916
278.881
278.862
278.858
398.152
394.462
390.806
387.202
383.666
380.212
376.85
373.586
370.425
367.369
364.416
361.564
358.81
356.15
353.579
351.094
348.689
346.361
344.104
341.914
339.789
337.724
335.716
333.763
331.862
330.009
328.204
326.444
324.727
323.052
321.417
319.821
318.262
316.741
315.254
313.803
312.385
311.001
309.649
308.328
307.039
305.781
304.552
303.354
302.184
301.044
299.931
298.847
297.79
296.76
295.758
294.782
293.832
292.908
292.01
291.137
290.289
289.465
288.667
287.892
287.141
286.413
285.709
285.028
284.369
283.733
283.119
282.526
281.956
281.406
280.878
280.371
279.884
279.417
278.97
278.544
278.136
277.749
277.38
277.03
276.699
276.386
276.092
275.816
275.557
275.317
275.094
274.888
274.7
274.529
274.375
274.238
274.118
274.015
273.928
273.858
273.805
273.768
273.747
273.743
398.173
394.523
390.902
387.324
383.802
380.35
376.977
373.689
370.49
367.384
364.37
361.448
358.616
355.871
353.21
350.63
348.127
345.697
343.336
341.042
338.811
336.641
334.527
332.468
330.462
328.505
326.596
324.734
322.916
321.141
319.408
317.715
316.062
314.446
312.868
311.326
309.819
308.348
306.91
305.506
304.135
302.796
301.489
300.213
298.968
297.754
296.569
295.415
294.289
293.193
292.125
291.085
290.074
289.089
288.132
287.202
286.298
285.421
284.57
283.744
282.944
282.168
281.418
280.691
279.989
279.311
278.657
278.025
277.417
276.831
276.268
275.727
275.208
274.711
274.234
273.779
273.345
272.932
272.538
272.165
271.812
271.479
271.165
270.87
270.595
270.338
270.101
269.882
269.681
269.499
269.334
269.188
269.06
268.95
268.858
268.783
268.726
268.686
268.665
268.66
398.186
394.56
390.958
387.393
383.876
380.418
377.027
373.711
370.475
367.319
364.247
361.259
358.353
355.527
352.781
350.11
347.513
344.986
342.527
340.133
337.801
335.528
333.312
331.151
329.043
326.985
324.976
323.014
321.098
319.226
317.396
315.609
313.862
312.154
310.486
308.855
307.261
305.703
304.182
302.695
301.243
299.824
298.44
297.088
295.769
294.482
293.226
292.002
290.809
289.646
288.514
287.411
286.338
285.294
284.279
283.292
282.333
281.403
280.499
279.623
278.774
277.951
277.154
276.384
275.639
274.919
274.224
273.554
272.908
272.287
271.689
271.115
270.564
270.036
269.53
269.047
268.586
268.147
267.73
267.334
266.959
266.605
266.271
265.959
265.666
265.394
265.142
264.909
264.696
264.502
264.328
264.173
264.037
263.92
263.822
263.742
263.682
263.64
263.616
263.611
398.192
394.576
390.982
387.419
383.897
380.426
377.013
373.667
370.389
367.186
364.057
361.004
358.026
355.124
352.296
349.539
346.852
344.233
341.679
339.189
336.759
334.388
332.074
329.814
327.607
325.451
323.344
321.285
319.273
317.306
315.383
313.502
311.664
309.866
308.108
306.39
304.711
303.069
301.464
299.896
298.364
296.868
295.407
293.98
292.587
291.228
289.903
288.61
287.35
286.122
284.925
283.761
282.627
281.524
280.451
279.408
278.395
277.411
276.456
275.53
274.633
273.763
272.921
272.106
271.318
270.557
269.823
269.114
268.432
267.775
267.142
266.535
265.952
265.394
264.859
264.349
263.861
263.397
262.955
262.537
262.14
261.766
261.413
261.082
260.773
260.485
260.218
259.972
259.747
259.542
259.357
259.193
259.049
258.926
258.822
258.738
258.674
258.629
258.605
258.599
398.192
394.576
390.979
387.408
383.873
380.383
376.944
373.563
370.245
366.991
363.806
360.69
357.644
354.668
351.761
348.921
346.149
343.441
340.796
338.213
335.689
333.223
330.814
328.458
326.155
323.904
321.702
319.549
317.443
315.383
313.367
311.396
309.468
307.582
305.738
303.934
302.17
300.445
298.759
297.111
295.5
293.927
292.39
290.89
289.425
287.995
286.6
285.24
283.913
282.621
281.361
280.135
278.941
277.779
276.65
275.552
274.485
273.448
272.443
271.467
270.522
269.605
268.718
267.86
267.03
266.229
265.455
264.708
263.989
263.296
262.63
261.99
261.376
260.787
260.224
259.686
259.172
258.683
258.217
257.776
257.358
256.964
256.592
256.243
255.917
255.614
255.332
255.073
254.835
254.619
254.425
254.252
254.1
253.97
253.86
253.772
253.704
253.657
253.631
253.626
398.188
394.562
390.953
387.368
383.813
380.298
376.829
373.41
370.048
366.745
363.503
360.326
357.213
354.164
351.181
348.262
345.406
342.613
339.88
337.208
334.593
332.035
329.533
327.085
324.689
322.345
320.051
317.805
315.608
313.457
311.352
309.292
307.277
305.304
303.374
301.486
299.639
297.833
296.067
294.34
292.652
291.003
289.392
287.819
286.282
284.783
283.319
281.892
280.501
279.144
277.823
276.535
275.282
274.063
272.877
271.724
270.604
269.516
268.46
267.436
266.443
265.48
264.549
263.647
262.776
261.934
261.121
260.337
259.581
258.853
258.154
257.481
256.836
256.218
255.626
255.061
254.521
254.007
253.518
253.054
252.615
252.2
251.81
251.444
251.101
250.782
250.486
250.214
249.964
249.737
249.533
249.351
249.191
249.054
248.939
248.846
248.775
248.726
248.698
248.692
398.179
394.537
390.909
387.301
383.722
380.177
376.672
373.214
369.806
366.452
363.155
359.916
356.737
353.619
350.561
347.565
344.629
341.753
338.935
336.176
333.474
330.827
328.235
325.697
323.211
320.776
318.392
316.057
313.77
311.531
309.338
307.191
305.09
303.032
301.019
299.048
297.12
295.234
293.389
291.585
289.821
288.097
286.413
284.768
283.161
281.593
280.062
278.569
277.113
275.694
274.311
272.963
271.652
270.376
269.134
267.927
266.754
265.615
264.51
263.437
262.397
261.389
260.414
259.469
258.557
257.675
256.823
256.002
255.21
254.448
253.715
253.011
252.335
251.687
251.067
250.474
249.909
249.37
248.858
248.372
247.912
247.478
247.068
246.685
246.326
245.991
245.681
245.396
245.134
244.896
244.682
244.491
244.324
244.18
244.06
243.962
243.888
243.836
243.807
243.801
398.168
394.501
390.848
387.214
383.603
380.024
376.482
372.981
369.526
366.12
362.766
359.467
356.223
353.036
349.906
346.834
343.82
340.864
337.964
335.121
332.333
329.6
326.921
324.295
321.721
319.198
316.726
314.304
311.93
309.605
307.326
305.095
302.909
300.768
298.673
296.621
294.613
292.648
290.726
288.846
287.008
285.211
283.454
281.738
280.063
278.426
276.829
275.271
273.752
272.27
270.827
269.42
268.051
266.719
265.422
264.162
262.937
261.748
260.593
259.472
258.386
257.334
256.314
255.328
254.374
253.453
252.563
251.705
250.878
250.082
249.316
248.58
247.873
247.196
246.548
245.929
245.338
244.775
244.24
243.732
243.251
242.797
242.369
241.968
241.593
241.243
240.919
240.621
240.347
240.099
239.875
239.676
239.501
239.351
239.224
239.122
239.044
238.99
238.96
238.954
398.153
394.458
390.774
387.107
383.463
379.846
376.262
372.717
369.213
365.754
362.343
358.983
355.675
352.42
349.22
346.074
342.984
339.949
336.97
334.044
331.174
328.357
325.593
322.882
320.222
317.614
315.057
312.549
310.09
307.68
305.318
303.003
300.735
298.513
296.337
294.206
292.12
290.078
288.08
286.125
284.213
282.344
280.517
278.732
276.988
275.285
273.622
272
270.418
268.876
267.372
265.908
264.481
263.093
261.743
260.43
259.154
257.914
256.711
255.543
254.411
253.315
252.252
251.224
250.23
249.27
248.342
247.448
246.586
245.755
244.957
244.19
243.453
242.748
242.072
241.426
240.81
240.223
239.665
239.135
238.634
238.16
237.715
237.296
236.905
236.54
236.202
235.891
235.606
235.347
235.113
234.905
234.723
234.566
234.435
234.328
234.247
234.19
234.159
234.152
398.137
394.407
390.689
386.986
383.303
379.645
376.017
372.425
368.87
365.358
361.89
358.469
355.097
351.776
348.506
345.288
342.124
339.013
335.955
332.95
329.999
327.1
324.254
321.459
318.717
316.025
313.384
310.793
308.251
305.759
303.314
300.918
298.57
296.268
294.013
291.805
289.642
287.524
285.451
283.423
281.439
279.499
277.602
275.749
273.938
272.169
270.442
268.757
267.113
265.511
263.948
262.426
260.944
259.501
258.097
256.732
255.406
254.117
252.866
251.652
250.474
249.334
248.229
247.16
246.126
245.127
244.162
243.232
242.335
241.471
240.641
239.843
239.077
238.342
237.64
236.968
236.327
235.716
235.135
234.584
234.062
233.57
233.106
232.67
232.263
231.884
231.532
231.208
230.911
230.641
230.398
230.182
229.992
229.829
229.692
229.581
229.496
229.437
229.405
229.397
398.118
394.351
390.594
386.851
383.126
379.425
375.751
372.109
368.503
364.936
361.411
357.929
354.494
351.107
347.768
344.48
341.243
338.057
334.922
331.84
328.81
325.831
322.905
320.029
317.205
314.432
311.71
309.037
306.414
303.841
301.317
298.841
296.414
294.034
291.702
289.417
287.179
284.987
282.841
280.741
278.686
276.676
274.711
272.79
270.913
269.08
267.29
265.543
263.839
262.176
260.556
258.977
257.44
255.943
254.487
253.07
251.694
250.356
249.058
247.798
246.577
245.393
244.246
243.136
242.063
241.026
240.025
239.059
238.128
237.231
236.369
235.54
234.744
233.982
233.252
232.555
231.889
231.255
230.652
230.079
229.537
229.026
228.544
228.092
227.669
227.275
226.91
226.573
226.265
225.984
225.732
225.507
225.31
225.14
224.998
224.883
224.795
224.734
224.699
224.692
398.098
394.289
390.491
386.705
382.936
379.188
375.466
371.774
368.115
364.493
360.909
357.367
353.869
350.416
347.01
343.652
340.343
337.084
333.875
330.717
327.61
324.553
321.548
318.594
315.69
312.838
310.035
307.284
304.582
301.93
299.327
296.773
294.269
291.813
289.405
287.045
284.733
282.469
280.251
278.08
275.956
273.877
271.845
269.858
267.916
266.019
264.167
262.359
260.595
258.874
257.197
255.562
253.97
252.42
250.912
249.445
248.02
246.635
245.29
243.985
242.719
241.492
240.304
239.155
238.043
236.968
235.93
234.929
233.964
233.035
232.142
231.283
230.458
229.668
228.912
228.189
227.499
226.841
226.216
225.623
225.061
224.531
224.031
223.562
223.124
222.715
222.337
221.988
221.668
221.377
221.116
220.883
220.678
220.502
220.355
220.235
220.144
220.08
220.045
220.037
398.076
394.223
390.381
386.549
382.733
378.938
375.166
371.422
367.709
364.03
360.389
356.786
353.225
349.707
346.234
342.808
339.429
336.098
332.816
329.583
326.4
323.268
320.186
317.154
314.173
311.243
308.363
305.533
302.754
300.025
297.346
294.716
292.136
289.605
287.123
284.69
282.306
279.97
277.682
275.441
273.249
271.103
269.005
266.953
264.947
262.988
261.074
259.206
257.384
255.605
253.872
252.182
250.537
248.934
247.375
245.859
244.385
242.952
241.561
240.212
238.903
237.634
236.406
235.216
234.066
232.954
231.881
230.845
229.847
228.886
227.961
227.073
226.22
225.402
224.619
223.871
223.157
222.477
221.83
221.216
220.635
220.086
219.569
219.084
218.63
218.207
217.815
217.454
217.123
216.822
216.551
216.31
216.098
215.916
215.763
215.64
215.545
215.479
215.442
215.434
398.053
394.154
390.265
386.386
382.521
378.676
374.853
371.056
367.288
363.552
359.852
356.189
352.565
348.983
345.444
341.95
338.501
335.1
331.746
328.44
325.184
321.977
318.82
315.713
312.656
309.65
306.694
303.788
300.933
298.129
295.374
292.67
290.016
287.412
284.858
282.353
279.897
277.491
275.134
272.826
270.566
268.355
266.191
264.076
262.008
259.987
258.013
256.086
254.206
252.371
250.582
248.839
247.14
245.486
243.877
242.311
240.79
239.311
237.875
236.481
235.13
233.82
232.551
231.323
230.135
228.987
227.878
226.808
225.777
224.784
223.829
222.911
222.03
221.185
220.377
219.604
218.866
218.163
217.495
216.86
216.26
215.692
215.158
214.657
214.188
213.751
213.346
212.973
212.631
212.32
212.04
211.79
211.572
211.383
211.225
211.097
210.999
210.931
210.893
210.885
398.029
394.082
390.144
386.215
382.301
378.404
374.528
370.677
366.854
363.061
359.302
355.578
351.892
348.246
344.642
341.081
337.564
334.093
330.669
327.292
323.963
320.683
317.453
314.272
311.141
308.06
305.03
302.05
299.121
296.242
293.414
290.637
287.911
285.235
282.609
280.034
277.51
275.035
272.61
270.235
267.909
265.633
263.406
261.228
259.098
257.017
254.985
252.999
251.062
249.172
247.329
245.532
243.782
242.077
240.418
238.805
237.236
235.711
234.231
232.794
231.401
230.05
228.741
227.475
226.25
225.066
223.922
222.819
221.756
220.731
219.746
218.799
217.89
217.019
216.185
215.387
214.626
213.901
213.211
212.557
211.937
211.352
210.801
210.283
209.8
209.349
208.931
208.546
208.193
207.872
207.583
207.326
207.1
206.905
206.742
206.61
206.509
206.439
206.399
206.39
398.004
394.007
390.019
386.039
382.073
378.124
374.195
370.289
366.409
362.559
358.74
354.956
351.208
347.499
343.83
340.202
336.619
333.079
329.586
326.139
322.739
319.388
316.085
312.832
309.628
306.475
303.372
300.319
297.318
294.367
291.467
288.619
285.821
283.075
280.38
277.736
275.143
272.601
270.11
267.669
265.279
262.939
260.65
258.41
256.221
254.08
251.989
249.947
247.954
246.009
244.113
242.264
240.462
238.708
237.001
235.34
233.725
232.155
230.631
229.152
227.717
226.326
224.978
223.674
222.412
221.193
220.015
218.879
217.784
216.729
215.714
214.738
213.802
212.904
212.045
211.223
210.439
209.692
208.982
208.307
207.669
207.066
206.498
205.965
205.466
205.002
204.571
204.174
203.81
203.48
203.182
202.916
202.684
202.483
202.315
202.179
202.075
202.002
201.961
201.952
397.978
393.93
389.89
385.859
381.84
377.837
373.854
369.892
365.956
362.048
358.17
354.325
350.516
346.743
343.01
339.318
335.667
332.061
328.499
324.983
321.514
318.092
314.719
311.395
308.12
304.896
301.721
298.598
295.525
292.504
289.534
286.615
283.749
280.934
278.17
275.459
272.799
270.191
267.635
265.13
262.677
260.275
257.924
255.624
253.375
251.177
249.029
246.931
244.883
242.884
240.935
239.035
237.183
235.38
233.625
231.917
230.257
228.643
227.076
225.555
224.079
222.649
221.263
219.921
218.624
217.369
216.158
214.989
213.862
212.777
211.733
210.73
209.766
208.843
207.959
207.113
206.306
205.538
204.807
204.113
203.456
202.835
202.251
201.702
201.189
200.711
200.268
199.859
199.485
199.144
198.838
198.565
198.325
198.119
197.945
197.805
197.698
197.623
197.581
197.571
397.952
393.852
389.759
385.675
381.603
377.545
373.506
369.489
365.496
361.529
357.592
353.687
349.816
345.982
342.185
338.428
334.712
331.04
327.411
323.827
320.29
316.799
313.357
309.963
306.619
303.324
300.08
296.887
293.745
290.654
287.616
284.629
281.694
278.811
275.981
273.204
270.479
267.806
265.186
262.618
260.103
257.64
255.229
252.87
250.563
248.307
246.103
243.951
241.849
239.798
237.797
235.846
233.946
232.094
230.292
228.539
226.833
225.176
223.567
222.004
220.489
219.019
217.596
216.218
214.885
213.596
212.352
211.151
209.993
208.878
207.805
206.774
205.784
204.835
203.927
203.058
202.229
201.439
200.687
199.974
199.299
198.661
198.06
197.497
196.969
196.478
196.022
195.602
195.217
194.867
194.552
194.271
194.025
193.813
193.635
193.49
193.38
193.303
193.259
193.249
397.925
393.772
389.626
385.488
381.361
377.249
373.155
369.081
365.03
361.006
357.01
353.045
349.113
345.216
341.356
337.536
333.755
330.017
326.322
322.672
319.067
315.51
311.999
308.538
305.125
301.762
298.45
295.188
291.978
288.82
285.714
282.66
279.658
276.71
273.814
270.972
268.183
265.447
262.764
260.135
257.559
255.036
252.566
250.149
247.785
245.474
243.215
241.008
238.853
236.751
234.699
232.699
230.75
228.851
227.003
225.205
223.456
221.756
220.105
218.502
216.947
215.439
213.979
212.565
211.197
209.875
208.597
207.365
206.177
205.032
203.931
202.873
201.857
200.883
199.95
199.059
198.207
197.396
196.625
195.893
195.2
194.545
193.928
193.349
192.808
192.303
191.835
191.404
191.009
190.649
190.326
190.037
189.784
189.566
189.383
189.235
189.122
189.042
188.998
188.987
397.898
393.691
389.491
385.298
381.117
376.95
372.799
368.669
364.561
360.478
356.423
352.398
348.406
344.448
340.526
336.642
332.798
328.995
325.236
321.52
317.849
314.225
310.648
307.12
303.64
300.21
296.831
293.503
290.226
287.001
283.829
280.71
277.643
274.63
271.67
268.765
265.913
263.115
260.371
257.681
255.045
252.464
249.936
247.462
245.043
242.676
240.363
238.104
235.898
233.744
231.643
229.594
227.598
225.653
223.759
221.916
220.124
218.382
216.69
215.048
213.454
211.909
210.412
208.963
207.561
206.205
204.896
203.633
202.415
201.241
200.112
199.027
197.986
196.987
196.031
195.116
194.243
193.412
192.621
191.87
191.159
190.488
189.855
189.261
188.706
188.188
187.708
187.266
186.861
186.492
186.16
185.864
185.605
185.381
185.193
185.041
184.924
184.843
184.797
184.786
397.871
393.609
389.355
385.107
380.871
376.648
372.441
368.254
364.089
359.948
355.834
351.75
347.697
343.678
339.695
335.749
331.842
327.976
324.152
320.372
316.636
312.947
309.305
305.711
302.166
298.67
295.226
291.832
288.49
285.2
281.963
278.779
275.649
272.573
269.551
266.583
263.669
260.811
258.007
255.258
252.564
249.925
247.34
244.811
242.336
239.916
237.55
235.239
232.982
230.779
228.629
226.533
224.489
222.499
220.561
218.675
216.84
215.057
213.325
211.643
210.012
208.43
206.897
205.413
203.977
202.589
201.249
199.955
198.707
197.506
196.349
195.238
194.171
193.148
192.168
191.232
190.338
189.486
188.676
187.906
187.178
186.49
185.842
185.234
184.665
184.134
183.643
183.189
182.774
182.396
182.056
181.753
181.487
181.257
181.065
180.909
180.789
180.706
180.659
180.647
397.844
393.527
389.218
384.915
380.623
376.345
372.082
367.838
363.615
359.417
355.245
351.101
346.989
342.909
338.865
334.857
330.888
326.96
323.073
319.229
315.43
311.677
307.971
304.313
300.703
297.143
293.634
290.176
286.771
283.417
280.117
276.87
273.678
270.539
267.456
264.427
261.453
258.535
255.673
252.866
250.114
247.419
244.779
242.195
239.667
237.194
234.777
232.414
230.107
227.855
225.658
223.515
221.426
219.39
217.409
215.48
213.604
211.781
210.009
208.289
206.62
205.002
203.434
201.916
200.448
199.028
197.656
196.332
195.056
193.826
192.643
191.506
190.414
189.367
188.365
187.406
186.491
185.62
184.79
184.003
183.258
182.553
181.89
181.267
180.685
180.142
179.639
179.175
178.749
178.363
178.014
177.704
177.431
177.197
176.999
176.84
176.717
176.632
176.583
176.571
397.816
393.445
389.08
384.723
380.375
376.041
371.722
367.421
363.142
358.885
354.655
350.453
346.281
342.142
338.037
333.969
329.939
325.949
322
318.094
314.232
310.416
306.647
302.926
299.253
295.63
292.058
288.538
285.069
281.654
278.291
274.983
271.729
268.53
265.386
262.298
259.266
256.289
253.369
250.506
247.698
244.948
242.254
239.616
237.035
234.511
232.043
229.631
227.275
224.975
222.731
220.542
218.408
216.329
214.304
212.334
210.417
208.554
206.744
204.986
203.281
201.627
200.025
198.473
196.972
195.521
194.119
192.766
191.461
190.204
188.995
187.832
186.716
185.646
184.621
183.641
182.705
181.814
180.966
180.161
179.398
178.678
178
177.363
176.767
176.212
175.698
175.223
174.788
174.392
174.036
173.719
173.44
173.2
172.998
172.834
172.709
172.621
172.572
172.559
397.789
393.362
388.943
384.53
380.127
375.737
371.362
367.005
362.668
358.355
354.067
349.806
345.576
341.378
337.213