/*--------------------------------*- C++ -*----------------------------------*\
  =========                 |
  \\      /  F ield         | OpenFOAM: The Open Source CFD Toolbox
   \\    /   O peration     | Website:  https://openfoam.org
    \\  /    A nd           | Version:  10
     \\/     M anipulation  |
\*---------------------------------------------------------------------------*/
FoamFile
{
    format      ascii;
    class       volScalarField;
    location    "33";
    object      T_0;
}
// * * * * * * * * * * * * * * * * * * * * * * * * * * * * * * * * * * * * * //

dimensions      [0 0 -1 0 0 0 0];

internalField   nonuniform List<scalar> 
100
(
0.589322
1.76249
2.92002
4.05163
5.14727
6.19723
7.19218
8.1233
8.98231
9.7616
10.4542
11.0541
11.5558
11.955
12.248
12.4324
12.5064
12.4694
12.3217
12.0646
11.7005
11.2325
10.6648
10.0024
9.25129
8.41804
7.51008
6.53546
5.50282
4.42135
3.30064
2.15063
0.981533
-0.196274
-1.37234
-2.53622
-3.67758
-4.7863
-5.85254
-6.86683
-7.82016
-8.70408
-9.51075
-10.233
-10.8644
-11.3994
-11.8332
-12.1619
-12.3827
-12.4936
-12.4936
-12.3827
-12.1619
-11.8332
-11.3994
-10.8644
-10.233
-9.51073
-8.70406
-7.82014
-6.8668
-5.85251
-4.78628
-3.67755
-2.53618
-1.3723
-0.196238
0.98157
2.15067
3.30068
4.42139
5.50287
6.5355
7.51012
8.41808
9.25133
10.0025
10.6648
11.2325
11.7005
12.0646
12.3217
12.4694
12.5064
12.4324
12.2481
11.955
11.5559
11.0541
10.4543
9.76162
8.98233
8.12332
7.1922
6.19725
5.14728
4.05164
2.92002
1.7625
0.589323
)
;

boundaryField
{
    xmin
    {
        type            fixedValue;
        value           uniform 0;
    }
    xmax
    {
        type            fixedValue;
        value           uniform 0;
    }
    frontAndBack
    {
        type            empty;
    }
}


// ************************************************************************* //
