/*--------------------------------*- C++ -*----------------------------------*\
  =========                 |
  \\      /  F ield         | OpenFOAM: The Open Source CFD Toolbox
   \\    /   O peration     | Website:  https://openfoam.org
    \\  /    A nd           | Version:  10
     \\/     M anipulation  |
\*---------------------------------------------------------------------------*/
FoamFile
{
    format      ascii;
    class       volScalarField;
    location    "8.8";
    object      T;
}
// * * * * * * * * * * * * * * * * * * * * * * * * * * * * * * * * * * * * * //

dimensions      [0 0 -1 0 0 0 0];

internalField   nonuniform List<scalar> 
100
(
0.00475894
0.0141081
0.0229576
0.0309937
0.0379318
0.0435263
0.0475787
0.0499457
0.0505433
0.0493504
0.0464092
0.041824
0.0357571
0.0284235
0.020083
0.011031
0.0015883
-0.0079107
-0.0171295
-0.0257414
-0.0334415
-0.0399568
-0.0450567
-0.0485604
-0.0503439
-0.0503439
-0.0485604
-0.0450567
-0.0399568
-0.0334414
-0.0257413
-0.0171294
-0.00791063
0.00158837
0.0110311
0.020083
0.0284235
0.0357571
0.0418239
0.0464091
0.0493503
0.0505432
0.0499455
0.0475785
0.0435261
0.0379317
0.0309935
0.0229574
0.014108
0.00475885
-0.0047589
-0.0141081
-0.0229574
-0.0309935
-0.0379317
-0.0435261
-0.0475785
-0.0499455
-0.0505431
-0.0493502
-0.046409
-0.0418238
-0.035757
-0.0284234
-0.0200829
-0.011031
-0.00158823
0.00791076
0.0171295
0.0257415
0.0334415
0.0399569
0.0450567
0.0485605
0.0503439
0.0503439
0.0485604
0.0450567
0.0399568
0.0334414
0.0257413
0.0171294
0.0079106
-0.00158841
-0.0110312
-0.0200831
-0.0284236
-0.0357572
-0.041824
-0.0464093
-0.0493504
-0.0505433
-0.0499457
-0.0475787
-0.0435262
-0.0379318
-0.0309936
-0.0229575
-0.0141081
-0.00475885
)
;

boundaryField
{
    inlet
    {
        type            cyclic;
    }
    outlet
    {
        type            cyclic;
    }
    bottom
    {
        type            slip;
    }
    top
    {
        type            slip;
    }
    frontAndBack
    {
        type            empty;
    }
}


// ************************************************************************* //
