/*--------------------------------*- C++ -*----------------------------------*\
  =========                 |
  \\      /  F ield         | OpenFOAM: The Open Source CFD Toolbox
   \\    /   O peration     | Website:  https://openfoam.org
    \\  /    A nd           | Version:  10
     \\/     M anipulation  |
\*---------------------------------------------------------------------------*/
FoamFile
{
    format      ascii;
    class       volScalarField;
    location    "30";
    object      T_0;
}
// * * * * * * * * * * * * * * * * * * * * * * * * * * * * * * * * * * * * * //

dimensions      [0 0 0 1 0 0 0];

internalField   nonuniform List<scalar> 
10000
(
374.981
361.287
356.605
354.553
353.439
352.736
352.245
351.88
351.593
351.361
351.167
351.001
350.857
350.73
350.615
350.512
350.417
350.33
350.248
350.172
350.101
350.034
349.969
349.908
349.85
349.794
349.74
349.689
349.639
349.59
349.544
349.498
349.454
349.411
349.37
349.329
349.29
349.251
349.214
349.177
349.142
349.107
349.073
349.04
349.007
348.975
348.944
348.914
348.884
348.856
348.827
348.8
348.773
348.747
348.721
348.696
348.672
348.648
348.625
348.602
348.581
348.559
348.538
348.518
348.499
348.48
348.461
348.444
348.426
348.41
348.394
348.378
348.363
348.349
348.335
348.321
348.309
348.297
348.285
348.274
348.263
348.253
348.244
348.235
348.227
348.219
348.212
348.205
348.199
348.193
348.188
348.183
348.179
348.176
348.173
348.17
348.169
348.167
348.166
348.166
388.611
374.849
367.189
362.722
359.908
357.997
356.614
355.562
354.728
354.047
353.475
352.985
352.557
352.178
351.838
351.529
351.246
350.985
350.743
350.515
350.302
350.099
349.908
349.725
349.55
349.383
349.222
349.066
348.917
348.772
348.632
348.496
348.364
348.236
348.111
347.99
347.872
347.756
347.644
347.534
347.427
347.322
347.22
347.121
347.023
346.928
346.835
346.744
346.656
346.569
346.484
346.402
346.321
346.243
346.166
346.091
346.018
345.947
345.877
345.81
345.744
345.68
345.618
345.557
345.499
345.442
345.387
345.333
345.282
345.232
345.183
345.137
345.092
345.048
345.007
344.967
344.929
344.892
344.857
344.824
344.792
344.762
344.734
344.707
344.682
344.659
344.637
344.617
344.598
344.582
344.566
344.553
344.541
344.53
344.521
344.514
344.508
344.504
344.502
344.501
393.225
382.306
374.579
369.237
365.473
362.728
360.651
359.024
357.711
356.623
355.702
354.906
354.208
353.587
353.028
352.52
352.054
351.623
351.221
350.845
350.491
350.156
349.837
349.534
349.243
348.965
348.698
348.44
348.191
347.95
347.717
347.491
347.271
347.058
346.85
346.648
346.451
346.259
346.072
345.889
345.711
345.537
345.367
345.201
345.039
344.88
344.725
344.574
344.426
344.282
344.141
344.004
343.869
343.738
343.61
343.485
343.364
343.245
343.13
343.017
342.908
342.801
342.698
342.597
342.499
342.404
342.312
342.223
342.137
342.054
341.973
341.896
341.821
341.749
341.68
341.613
341.549
341.488
341.43
341.375
341.322
341.272
341.225
341.181
341.139
341.1
341.064
341.03
340.999
340.971
340.945
340.923
340.902
340.885
340.87
340.858
340.849
340.842
340.838
340.837
395.21
386.572
379.585
374.176
370.02
366.793
364.239
362.175
360.47
359.034
357.803
356.731
355.783
354.936
354.17
353.471
352.828
352.232
351.676
351.155
350.663
350.197
349.754
349.332
348.928
348.54
348.166
347.807
347.459
347.123
346.798
346.482
346.175
345.877
345.587
345.305
345.03
344.761
344.5
344.244
343.995
343.751
343.514
343.281
343.055
342.833
342.616
342.405
342.198
341.996
341.799
341.607
341.419
341.235
341.056
340.882
340.711
340.545
340.384
340.226
340.073
339.924
339.779
339.638
339.502
339.369
339.24
339.116
338.995
338.879
338.766
338.657
338.553
338.452
338.355
338.262
338.173
338.087
338.006
337.928
337.855
337.785
337.719
337.657
337.598
337.544
337.493
337.446
337.402
337.363
337.327
337.295
337.267
337.243
337.222
337.206
337.192
337.183
337.177
337.176
396.257
389.184
383.013
377.862
373.639
370.184
367.339
364.966
362.961
361.242
359.747
358.432
357.26
356.206
355.247
354.369
353.558
352.805
352.1
351.438
350.812
350.219
349.654
349.115
348.599
348.103
347.626
347.165
346.721
346.29
345.873
345.469
345.075
344.693
344.321
343.959
343.606
343.262
342.926
342.598
342.278
341.965
341.66
341.362
341.071
340.786
340.508
340.236
339.971
339.712
339.458
339.211
338.97
338.734
338.504
338.28
338.061
337.848
337.64
337.438
337.241
337.05
336.864
336.683
336.507
336.337
336.171
336.011
335.856
335.706
335.562
335.422
335.287
335.158
335.033
334.914
334.799
334.69
334.585
334.485
334.391
334.301
334.216
334.136
334.061
333.991
333.926
333.865
333.81
333.759
333.713
333.672
333.636
333.605
333.578
333.557
333.54
333.528
333.521
333.518
396.893
390.894
385.423
380.619
376.49
372.969
369.966
367.392
365.167
363.226
361.515
359.991
358.622
357.381
356.247
355.202
354.234
353.331
352.485
351.687
350.933
350.216
349.533
348.88
348.254
347.652
347.073
346.513
345.973
345.449
344.942
344.449
343.97
343.505
343.051
342.61
342.179
341.76
341.35
340.95
340.56
340.179
339.806
339.443
339.087
338.74
338.401
338.069
337.745
337.429
337.119
336.818
336.523
336.235
335.955
335.681
335.414
335.153
334.9
334.653
334.413
334.179
333.951
333.73
333.516
333.308
333.106
332.91
332.721
332.538
332.362
332.191
332.027
331.868
331.716
331.57
331.43
331.297
331.169
331.047
330.931
330.822
330.718
330.62
330.529
330.443
330.363
330.29
330.222
330.16
330.104
330.054
330.01
329.971
329.939
329.913
329.892
329.877
329.869
329.866
397.316
392.076
387.165
382.704
378.733
375.235
372.166
369.47
367.092
364.982
363.097
361.399
359.86
358.453
357.159
355.962
354.848
353.805
352.824
351.898
351.02
350.184
349.386
348.623
347.89
347.185
346.505
345.848
345.213
344.598
344.001
343.422
342.859
342.311
341.777
341.257
340.75
340.255
339.773
339.301
338.841
338.392
337.953
337.524
337.104
336.695
336.294
335.903
335.521
335.147
334.783
334.426
334.079
333.739
333.408
333.085
332.77
332.462
332.163
331.872
331.588
331.312
331.043
330.783
330.529
330.284
330.045
329.814
329.591
329.375
329.166
328.965
328.771
328.584
328.404
328.232
328.067
327.909
327.758
327.614
327.478
327.348
327.226
327.111
327.002
326.901
326.807
326.72
326.64
326.567
326.5
326.441
326.389
326.344
326.306
326.275
326.25
326.233
326.223
326.219
397.615
392.927
388.457
384.301
380.505
377.075
373.995
371.233
368.752
366.517
364.494
362.652
360.967
359.416
357.98
356.644
355.395
354.221
353.114
352.066
351.07
350.12
349.212
348.341
347.504
346.698
345.921
345.169
344.441
343.736
343.052
342.387
341.74
341.11
340.497
339.899
339.317
338.748
338.193
337.651
337.121
336.604
336.099
335.605
335.122
334.65
334.189
333.739
333.299
332.869
332.449
332.038
331.638
331.246
330.865
330.492
330.129
329.775
329.431
329.095
328.768
328.45
328.14
327.84
327.548
327.265
326.99
326.724
326.466
326.217
325.977
325.745
325.521
325.306
325.099
324.9
324.71
324.528
324.354
324.188
324.031
323.881
323.74
323.607
323.483
323.366
323.257
323.157
323.065
322.98
322.904
322.836
322.776
322.724
322.68
322.644
322.616
322.596
322.584
322.58
397.835
393.561
389.437
385.539
381.91
378.567
375.507
372.715
370.169
367.843
365.712
363.753
361.944
360.267
358.705
357.243
355.871
354.576
353.351
352.188
351.08
350.021
349.006
348.032
347.095
346.191
345.318
344.474
343.656
342.862
342.091
341.342
340.613
339.903
339.212
338.537
337.879
337.237
336.61
335.998
335.4
334.816
334.245
333.686
333.141
332.607
332.086
331.577
331.079
330.593
330.117
329.653
329.2
328.758
328.326
327.905
327.494
327.093
326.703
326.323
325.953
325.593
325.243
324.903
324.572
324.252
323.941
323.64
323.348
323.067
322.794
322.532
322.278
322.035
321.8
321.575
321.36
321.154
320.957
320.769
320.591
320.422
320.262
320.112
319.971
319.839
319.716
319.602
319.497
319.402
319.316
319.239
319.171
319.112
319.062
319.021
318.989
318.967
318.953
318.949
398.001
394.042
390.193
386.51
383.031
379.778
376.754
373.956
371.368
368.977
366.762
364.707
362.794
361.007
359.333
357.759
356.274
354.868
353.533
352.261
351.047
349.884
348.768
347.695
346.66
345.662
344.696
343.761
342.855
341.975
341.119
340.288
339.478
338.689
337.92
337.17
336.438
335.723
335.026
334.344
333.678
333.027
332.39
331.768
331.16
330.566
329.985
329.417
328.862
328.32
327.79
327.272
326.767
326.273
325.792
325.322
324.863
324.416
323.981
323.557
323.144
322.742
322.352
321.972
321.604
321.246
320.899
320.563
320.238
319.923
319.619
319.326
319.044
318.772
318.51
318.259
318.018
317.788
317.569
317.359
317.16
316.972
316.793
316.625
316.468
316.32
316.183
316.056
315.94
315.833
315.737
315.651
315.575
315.509
315.453
315.408
315.372
315.347
315.332
315.327
398.128
394.415
390.783
387.277
383.929
380.761
377.78
374.987
372.376
369.937
367.657
365.523
363.522
361.641
359.868
358.193
356.605
355.096
353.658
352.285
350.97
349.709
348.496
347.327
346.199
345.109
344.053
343.03
342.038
341.073
340.135
339.222
338.333
337.467
336.622
335.797
334.992
334.206
333.438
332.688
331.954
331.237
330.536
329.851
329.181
328.526
327.886
327.26
326.648
326.05
325.466
324.895
324.338
323.794
323.263
322.744
322.239
321.746
321.266
320.798
320.342
319.899
319.468
319.049
318.643
318.248
317.865
317.494
317.136
316.788
316.453
316.129
315.818
315.517
315.229
314.952
314.686
314.432
314.19
313.959
313.739
313.531
313.334
313.149
312.975
312.812
312.661
312.52
312.392
312.274
312.168
312.073
311.989
311.916
311.855
311.805
311.766
311.738
311.721
311.716
398.228
394.707
391.248
387.887
384.65
381.558
378.62
375.839
373.215
370.742
368.41
366.211
364.135
362.172
360.312
358.545
356.864
355.26
353.727
352.259
350.849
349.494
348.188
346.928
345.71
344.531
343.389
342.28
341.204
340.157
339.138
338.146
337.179
336.236
335.316
334.418
333.541
332.685
331.848
331.029
330.23
329.447
328.683
327.935
327.204
326.489
325.79
325.106
324.438
323.785
323.147
322.523
321.914
321.32
320.739
320.173
319.621
319.082
318.557
318.046
317.548
317.063
316.592
316.135
315.69
315.258
314.84
314.435
314.042
313.663
313.296
312.942
312.601
312.273
311.957
311.654
311.364
311.086
310.821
310.569
310.329
310.101
309.886
309.683
309.493
309.315
309.149
308.996
308.855
308.726
308.61
308.506
308.415
308.335
308.268
308.213
308.17
308.14
308.122
308.116
398.306
394.938
391.617
388.373
385.23
382.203
379.305
376.54
373.908
371.409
369.036
366.783
364.642
362.607
360.668
358.819
357.052
355.361
353.74
352.182
350.684
349.239
347.845
346.498
345.193
343.929
342.702
341.511
340.353
339.226
338.128
337.058
336.015
334.997
334.004
333.034
332.086
331.16
330.255
329.369
328.504
327.657
326.83
326.02
325.228
324.454
323.696
322.956
322.232
321.524
320.833
320.157
319.497
318.852
318.223
317.609
317.01
316.425
315.856
315.302
314.762
314.236
313.725
313.229
312.746
312.278
311.825
311.385
310.959
310.547
310.15
309.766
309.396
309.039
308.697
308.368
308.053
307.752
307.464
307.19
306.93
306.683
306.449
306.229
306.022
305.829
305.65
305.483
305.331
305.191
305.065
304.952
304.853
304.766
304.694
304.634
304.588
304.555
304.535
304.528
398.368
395.12
391.909
388.761
385.694
382.724
379.86
377.109
374.474
371.954
369.546
367.247
365.05
362.951
360.942
359.019
357.174
355.402
353.698
352.057
350.474
348.945
347.467
346.036
344.648
343.302
341.994
340.722
339.484
338.279
337.104
335.959
334.841
333.75
332.684
331.643
330.626
329.631
328.659
327.708
326.777
325.867
324.977
324.106
323.255
322.421
321.606
320.809
320.03
319.268
318.524
317.796
317.085
316.391
315.713
315.051
314.406
313.777
313.164
312.566
311.984
311.418
310.868
310.333
309.813
309.309
308.819
308.346
307.887
307.443
307.014
306.6
306.202
305.818
305.449
305.094
304.755
304.43
304.12
303.824
303.543
303.277
303.025
302.788
302.565
302.357
302.163
301.984
301.819
301.669
301.533
301.411
301.304
301.211
301.133
301.068
301.018
300.983
300.962
300.954
398.417
395.264
392.142
389.07
386.065
383.141
380.306
377.568
374.93
372.392
369.955
367.615
365.368
363.212
361.14
359.148
357.231
355.384
353.603
351.883
350.221
348.612
347.054
345.542
344.075
342.649
341.262
339.913
338.598
337.317
336.067
334.848
333.657
332.494
331.358
330.247
329.161
328.099
327.061
326.044
325.05
324.078
323.126
322.195
321.283
320.392
319.52
318.667
317.833
317.018
316.22
315.441
314.68
313.937
313.211
312.502
311.811
311.137
310.48
309.84
309.217
308.61
308.021
307.447
306.89
306.35
305.826
305.318
304.826
304.35
303.891
303.447
303.02
302.608
302.213
301.833
301.469
301.121
300.788
300.472
300.17
299.885
299.615
299.361
299.122
298.899
298.691
298.499
298.322
298.161
298.015
297.885
297.77
297.67
297.586
297.517
297.464
297.426
297.403
297.395
398.456
395.378
392.325
389.314
386.359
383.471
380.659
377.931
375.289
372.736
370.272
367.895
365.604
363.396
361.266
359.211
357.227
355.31
353.457
351.663
349.926
348.241
346.606
345.018
343.474
341.972
340.509
339.084
337.695
336.34
335.017
333.725
332.463
331.23
330.024
328.845
327.692
326.564
325.46
324.38
323.323
322.288
321.276
320.285
319.315
318.366
317.438
316.53
315.641
314.773
313.924
313.094
312.283
311.491
310.717
309.962
309.225
308.507
307.807
307.124
306.46
305.813
305.184
304.573
303.979
303.403
302.844
302.302
301.778
301.271
300.781
300.308
299.852
299.413
298.991
298.586
298.197
297.826
297.471
297.133
296.812
296.508
296.22
295.949
295.694
295.456
295.234
295.029
294.841
294.669
294.513
294.374
294.251
294.145
294.055
293.982
293.925
293.884
293.86
293.851
398.486
395.466
392.467
389.504
386.587
383.728
380.934
378.212
375.565
372.997
370.508
368.098
365.766
363.509
361.326
359.212
357.166
355.184
353.263
351.4
349.591
347.834
346.125
344.464
342.846
341.27
339.734
338.236
336.774
335.347
333.953
332.591
331.259
329.957
328.683
327.438
326.218
325.025
323.857
322.714
321.595
320.5
319.427
318.377
317.35
316.344
315.36
314.397
313.456
312.535
311.634
310.754
309.893
309.053
308.232
307.431
306.649
305.887
305.144
304.419
303.714
303.028
302.36
301.711
301.081
300.469
299.875
299.3
298.743
298.205
297.684
297.182
296.698
296.232
295.783
295.353
294.941
294.546
294.17
293.811
293.47
293.146
292.84
292.552
292.282
292.029
291.794
291.576
291.376
291.193
291.028
290.88
290.749
290.637
290.541
290.463
290.402
290.359
290.333
290.325
398.509
395.534
392.577
389.649
386.762
383.924
381.142
378.422
375.769
373.185
370.672
368.23
365.86
363.558
361.325
359.157
357.053
355.009
353.024
351.094
349.217
347.391
345.613
343.881
342.192
340.545
338.938
337.369
335.837
334.34
332.876
331.445
330.046
328.676
327.336
326.025
324.741
323.484
322.253
321.048
319.868
318.712
317.581
316.473
315.388
314.327
313.288
312.271
311.276
310.303
309.352
308.421
307.512
306.624
305.757
304.91
304.083
303.277
302.492
301.726
300.98
300.254
299.548
298.862
298.195
297.548
296.92
296.312
295.723
295.153
294.602
294.071
293.559
293.066
292.591
292.136
291.7
291.283
290.884
290.504
290.143
289.801
289.478
289.173
288.886
288.619
288.37
288.139
287.928
287.734
287.559
287.403
287.265
287.145
287.044
286.962
286.898
286.852
286.824
286.815
398.526
395.585
392.658
389.757
386.891
384.067
381.292
378.571
375.909
373.309
370.772
368.3
365.893
363.549
361.269
359.049
356.89
354.788
352.742
350.749
348.807
346.915
345.07
343.27
341.513
339.797
338.122
336.484
334.884
333.318
331.787
330.289
328.823
327.388
325.983
324.607
323.26
321.94
320.647
319.381
318.141
316.927
315.737
314.572
313.431
312.314
311.221
310.151
309.104
308.079
307.077
306.098
305.141
304.205
303.291
302.399
301.529
300.68
299.851
299.045
298.259
297.494
296.75
296.026
295.323
294.641
293.979
293.338
292.717
292.117
291.536
290.976
290.436
289.916
289.416
288.936
288.476
288.036
287.616
287.215
286.835
286.474
286.132
285.811
285.509
285.227
284.964
284.721
284.498
284.294
284.109
283.944
283.799
283.673
283.566
283.479
283.412
283.363
283.334
283.325
398.538
395.621
392.716
389.833
386.981
384.165
381.392
378.667
375.994
373.376
370.816
368.314
365.871
363.487
361.161
358.893
356.681
354.524
352.42
350.367
348.363
346.407
344.498
342.632
340.81
339.028
337.286
335.582
333.915
332.284
330.687
329.123
327.592
326.093
324.624
323.185
321.775
320.394
319.041
317.715
316.416
315.143
313.896
312.675
311.478
310.307
309.16
308.037
306.938
305.863
304.812
303.784
302.779
301.796
300.837
299.9
298.986
298.094
297.224
296.376
295.551
294.747
293.965
293.205
292.466
291.75
291.054
290.38
289.728
289.096
288.486
287.898
287.33
286.783
286.258
285.753
285.27
284.807
284.365
283.944
283.544
283.165
282.806
282.468
282.151
281.854
281.578
281.322
281.087
280.873
280.679
280.506
280.353
280.22
280.108
280.016
279.945
279.894
279.864
279.854
398.546
395.645
392.754
389.883
387.037
384.224
381.449
378.717
376.031
373.394
370.809
368.278
365.8
363.377
361.008
358.693
356.431
354.22
352.06
349.95
347.887
345.87
343.898
341.97
340.084
338.238
336.431
334.663
332.932
331.236
329.575
327.948
326.353
324.791
323.26
321.759
320.288
318.847
317.434
316.049
314.692
313.362
312.058
310.781
309.531
308.305
307.106
305.931
304.781
303.656
302.556
301.479
300.427
299.398
298.394
297.413
296.455
295.521
294.61
293.722
292.857
292.015
291.195
290.399
289.625
288.874
288.145
287.439
286.755
286.093
285.454
284.837
284.242
283.669
283.118
282.589
282.082
281.597
281.134
280.692
280.273
279.875
279.499
279.145
278.812
278.501
278.211
277.943
277.697
277.472
277.269
277.087
276.927
276.788
276.67
276.574
276.5
276.446
276.414
276.404
398.551
395.658
392.775
389.908
387.065
384.25
381.469
378.726
376.025
373.368
370.758
368.197
365.685
363.224
360.813
358.453
356.142
353.88
351.667
349.501
347.38
345.305
343.273
341.284
339.336
337.428
335.56
333.729
331.934
330.176
328.452
326.763
325.107
323.483
321.891
320.33
318.799
317.298
315.827
314.384
312.97
311.584
310.225
308.893
307.589
306.31
305.059
303.833
302.633
301.458
300.309
299.185
298.086
297.012
295.963
294.938
293.937
292.961
292.009
291.081
290.178
289.298
288.441
287.609
286.8
286.015
285.253
284.515
283.8
283.108
282.439
281.794
281.172
280.573
279.997
279.444
278.914
278.406
277.922
277.461
277.022
276.606
276.213
275.842
275.494
275.169
274.866
274.586
274.328
274.093
273.88
273.69
273.522
273.377
273.254
273.154
273.075
273.02
272.986
272.975
398.552
395.663
392.781
389.914
387.068
384.247
381.457
378.7
375.981
373.303
370.667
368.076
365.53
363.032
360.58
358.175
355.818
353.507
351.242
349.022
346.846
344.714
342.625
340.577
338.569
336.601
334.671
332.78
330.924
329.105
327.321
325.57
323.854
322.17
320.518
318.898
317.308
315.749
314.221
312.721
311.251
309.809
308.396
307.01
305.653
304.322
303.019
301.743
300.493
299.27
298.073
296.902
295.757
294.638
293.544
292.476
291.434
290.416
289.424
288.456
287.514
286.596
285.704
284.836
283.992
283.173
282.379
281.608
280.863
280.141
279.444
278.771
278.122
277.497
276.896
276.319
275.766
275.237
274.731
274.25
273.792
273.358
272.948
272.561
272.198
271.858
271.542
271.25
270.981
270.736
270.514
270.315
270.14
269.989
269.86
269.755
269.674
269.616
269.581
269.569
398.552
395.659
392.775
389.903
387.05
384.219
381.416
378.643
375.905
373.203
370.541
367.919
365.34
362.804
360.312
357.865
355.462
353.103
350.787
348.516
346.287
344.1
341.954
339.849
337.783
335.757
333.768
331.817
329.903
328.024
326.18
324.37
322.595
320.852
319.142
317.463
315.817
314.201
312.616
311.06
309.535
308.039
306.572
305.133
303.724
302.342
300.988
299.662
298.363
297.092
295.848
294.631
293.441
292.277
291.14
290.029
288.944
287.886
286.853
285.847
284.867
283.912
282.983
282.08
281.202
280.35
279.523
278.721
277.945
277.194
276.468
275.767
275.092
274.441
273.816
273.215
272.639
272.088
271.562
271.061
270.584
270.132
269.705
269.302
268.924
268.571
268.242
267.937
267.657
267.402
267.17
266.964
266.781
266.624
266.49
266.381
266.296
266.235
266.199
266.187
398.548
395.65
392.757
389.877
387.013
384.169
381.351
378.56
375.8
373.074
370.384
367.731
365.118
362.545
360.014
357.524
355.076
352.671
350.307
347.984
345.703
343.463
341.263
339.102
336.98
334.897
332.851
330.842
328.87
326.933
325.031
323.164
321.33
319.53
317.763
316.028
314.325
312.653
311.012
309.402
307.823
306.273
304.753
303.263
301.802
300.37
298.966
297.591
296.244
294.926
293.635
292.372
291.137
289.929
288.749
287.596
286.47
285.371
284.299
283.254
282.236
281.245
280.28
279.342
278.43
277.545
276.686
275.853
275.047
274.267
273.513
272.785
272.083
271.407
270.757
270.133
269.535
268.962
268.415
267.894
267.399
266.929
266.485
266.067
265.674
265.307
264.965
264.648
264.357
264.092
263.851
263.637
263.447
263.283
263.144
263.031
262.942
262.879
262.842
262.829
398.543
395.634
392.73
389.837
386.96
384.1
381.264
378.452
375.669
372.917
370.199
367.515
364.868
362.258
359.688
357.156
354.665
352.213
349.802
347.43
345.099
342.806
340.553
338.339
336.162
334.023
331.922
329.857
327.828
325.834
323.876
321.952
320.062
318.205
316.382
314.591
312.833
311.106
309.412
307.748
306.115
304.513
302.941
301.4
299.888
298.406
296.953
295.53
294.136
292.77
291.434
290.126
288.847
287.595
286.373
285.178
284.011
282.873
281.762
280.679
279.624
278.596
277.596
276.623
275.678
274.76
273.87
273.006
272.17
271.361
270.579
269.824
269.096
268.395
267.721
267.073
266.453
265.859
265.292
264.752
264.238
263.751
263.29
262.856
262.448
262.067
261.712
261.384
261.082
260.807
260.557
260.335
260.138
259.968
259.824
259.706
259.614
259.549
259.51
259.497
398.536
395.613
392.695
389.787
386.892
384.015
381.157
378.324
375.516
372.737
369.989
367.273
364.592
361.946
359.336
356.764
354.23
351.733
349.275
346.856
344.474
342.131
339.827
337.559
335.33
333.137
330.981
328.861
326.777
324.728
322.714
320.735
318.79
316.878
315
313.155
311.342
309.562
307.814
306.098
304.413
302.759
301.136
299.544
297.983
296.452
294.951
293.48
292.039
290.628
289.246
287.894
286.571
285.277
284.012
282.776
281.569
280.391
279.242
278.122
277.029
275.966
274.931
273.924
272.946
271.996
271.074
270.18
269.315
268.477
267.667
266.886
266.132
265.406
264.708
264.038
263.395
262.78
262.193
261.633
261.101
260.597
260.119
259.67
259.248
258.853
258.486
258.146
257.833
257.547
257.289
257.058
256.855
256.678
256.529
256.407
256.312
256.245
256.204
256.191
398.528
395.588
392.653
389.726
386.812
383.914
381.035
378.177
375.343
372.536
369.758
367.01
364.294
361.611
358.963
356.35
353.773
351.232
348.729
346.262
343.833
341.44
339.085
336.766
334.484
332.239
330.03
327.856
325.718
323.615
321.547
319.514
317.515
315.549
313.618
311.719
309.854
308.021
306.221
304.452
302.716
301.012
299.339
297.697
296.087
294.508
292.96
291.442
289.955
288.498
287.072
285.676
284.309
282.973
281.667
280.391
279.145
277.928
276.74
275.583
274.454
273.356
272.286
271.246
270.235
269.253
268.3
267.376
266.481
265.615
264.779
263.971
263.191
262.441
261.719
261.026
260.362
259.726
259.119
258.54
257.99
257.468
256.975
256.51
256.073
255.665
255.285
254.934
254.61
254.315
254.048
253.809
253.599
253.416
253.262
253.136
253.038
252.968
252.926
252.912
398.518
395.559
392.604
389.657
386.722
383.801
380.897
378.014
375.153
372.317
369.507
366.726
363.975
361.256
358.569
355.916
353.297
350.713
348.165
345.652
343.175
340.734
338.329
335.961
333.628
331.331
329.07
326.844
324.653
322.498
320.377
318.29
316.238
314.22
312.236
310.285
308.368
306.483
304.631
302.813
301.026
299.272
297.55
295.86
294.201
292.575
290.979
289.416
287.883
286.382
284.912
283.472
282.064
280.686
279.34
278.023
276.738
275.482
274.258
273.063
271.899
270.765
269.662
268.588
267.545
266.532
265.548
264.595
263.671
262.777
261.914
261.079
260.275
259.5
258.755
258.04
257.354
256.697
256.07
255.473
254.905
254.366
253.857
253.377
252.926
252.504
252.112
251.749
251.415
251.11
250.835
250.588
250.371
250.182
250.023
249.892
249.791
249.719
249.676
249.661
398.508
395.527
392.55
389.58
386.622
383.677
380.747
377.837
374.947
372.081
369.24
366.425
363.639
360.883
358.158
355.465
352.805
350.178
347.585
345.027
342.504
340.015
337.562
335.144
332.762
330.414
328.102
325.825
323.583
321.376
319.203
317.065
314.961
312.891
310.855
308.853
306.885
304.95
303.048
301.179
299.343
297.54
295.769
294.031
292.326
290.653
289.011
287.402
285.825
284.28
282.767
281.285
279.835
278.416
277.029
275.673
274.349
273.056
271.794
270.564
269.365
268.196
267.059
265.953
264.877
263.833
262.82
261.837
260.885
259.964
259.073
258.213
257.384
256.585
255.817
255.079
254.372
253.695
253.049
252.433
251.847
251.292
250.766
250.271
249.806
249.372
248.967
248.593
248.248
247.934
247.65
247.395
247.171
246.977
246.812
246.678
246.573
246.499
246.454
246.439
398.496
395.492
392.491
389.497
386.513
383.542
380.586
377.647
374.728
371.831
368.957
366.109
363.288
360.495
357.731
354.999
352.297
349.628
346.992
344.389
341.82
339.285
336.784
334.318
331.887
329.49
327.128
324.801
322.509
320.251
318.027
315.839
313.684
311.564
309.477
307.425
305.406
303.421
301.47
299.552
297.668
295.817
293.999
292.214
290.462
288.743
287.056
285.403
283.782
282.193
280.637
279.113
277.622
276.163
274.737
273.342
271.98
270.65
269.352
268.085
266.851
265.649
264.478
263.34
262.233
261.158
260.115
259.103
258.123
257.175
256.258
255.373
254.519
253.696
252.905
252.146
251.417
250.72
250.055
249.42
248.817
248.245
247.704
247.194
246.715
246.268
245.851
245.465
245.111
244.787
244.494
244.232
244.001
243.801
243.632
243.493
243.386
243.309
243.263
243.247
398.484
395.454
392.428
389.408
386.398
383.399
380.415
377.447
374.497
371.568
368.662
365.779
362.923
360.093
357.291
354.519
351.776
349.065
346.386
343.739
341.125
338.544
335.997
333.484
331.005
328.56
326.149
323.773
321.431
319.124
316.851
314.612
312.408
310.238
308.102
306
303.933
301.899
299.899
297.934
296.002
294.103
292.238
290.407
288.61
286.845
285.115
283.417
281.753
280.122
278.524
276.959
275.427
273.929
272.463
271.03
269.631
268.264
266.93
265.628
264.36
263.124
261.921
260.75
259.613
258.507
257.435
256.394
255.387
254.411
253.469
252.558
251.68
250.834
250.021
249.24
248.491
247.774
247.089
246.436
245.816
245.227
244.671
244.146
243.654
243.193
242.765
242.368
242.003
241.67
241.369
241.099
240.862
240.656
240.481
240.339
240.228
240.149
240.102
240.086
398.47
395.414
392.361
389.314
386.276
383.249
380.235
377.237
374.256
371.295
368.355
365.438
362.545
359.678
356.838
354.027
351.244
348.492
345.77
343.08
340.421
337.796
335.203
332.643
330.117
327.625
325.166
322.742
320.351
317.995
315.674
313.386
311.133
308.915
306.73
304.58
302.465
300.383
298.336
296.323
294.344
292.4
290.489
288.613
286.77
284.962
283.187
281.446
279.74
278.067
276.428
274.822
273.251
271.713
270.209
268.739
267.302
265.899
264.529
263.193
261.891
260.622
259.387
258.185
257.016
255.881
254.78
253.711
252.676
251.675
250.706
249.771
248.869
248
247.164
246.362
245.592
244.856
244.152
243.482
242.844
242.239
241.668
241.129
240.623
240.149
239.709
239.301
238.926
238.584
238.274
237.997
237.753
237.541
237.362
237.216
237.102
237.021
236.972
236.956
398.456
395.372
392.291
389.216
386.149
383.092
380.048
377.019
374.006
371.012
368.038
365.086
362.157
359.254
356.376
353.525
350.702
347.908
345.145
342.412
339.71
337.04
334.402
331.797
329.224
326.685
324.18
321.708
319.271
316.867
314.498
312.163
309.862
307.595
305.364
303.166
301.003
298.875
296.781
294.722
292.697
290.707
288.751
286.83
284.944
283.092
281.274
279.491
277.742
276.028
274.349
272.704
271.093
269.517
267.975
266.467
264.994
263.555
262.151
260.781
259.445
258.144
256.877
255.644
254.445
253.281
252.151
251.055
249.993
248.965
247.971
247.011
246.086
245.194
244.337
243.513
242.723
241.967
241.245
240.557
239.903
239.282
238.695
238.142
237.622
237.137
236.684
236.266
235.881
235.53
235.212
234.927
234.677
234.459
234.276
234.125
234.008
233.925
233.875
233.858
398.442
395.329
392.218
389.114
386.017
382.93
379.855
376.794
373.749
370.721
367.713
364.726
361.761
358.82
355.904
353.014
350.151
347.317
344.512
341.737
338.992
336.278
333.596
330.946
328.328
325.744
323.192
320.674
318.19
315.74
313.323
310.941
308.594
306.281
304.002
301.758
299.549
297.375
295.235
293.13
291.061
289.026
287.026
285.061
283.131
281.236
279.377
277.552
275.762
274.008
272.288
270.604
268.955
267.34
265.761
264.217
262.708
261.235
259.796
258.392
257.024
255.69
254.392
253.128
251.9
250.707
249.548
248.425
247.336
246.283
245.264
244.28
243.332
242.417
241.538
240.694
239.884
239.109
238.369
237.663
236.992
236.356
235.754
235.187
234.654
234.156
233.692
233.263
232.868
232.508
232.182
231.89
231.633
231.41
231.222
231.067
230.948
230.862
230.811
230.793
398.427
395.284
392.144
389.008
385.881
382.763
379.656
376.562
373.484
370.423
367.38
364.357
361.356
358.378
355.424
352.496
349.594
346.719
343.873
341.056
338.268
335.512
332.786
330.092
327.43
324.8
322.204
319.64
317.11
314.614
312.152
309.724
307.33
304.971
302.647
300.358
298.103
295.883
293.699
291.55
289.436
287.357
285.314
283.306
281.333
279.397
277.495
275.63
273.8
272.005
270.247
268.524
266.836
265.185
263.569
261.989
260.445
258.937
257.464
256.028
254.627
253.262
251.933
250.639
249.381
248.159
246.973
245.823
244.708
243.629
242.586
241.579
240.607
239.671
238.77
237.905
237.076
236.282
235.523
234.8
234.113
233.461
232.845
232.264
231.718
231.207
230.732
230.293
229.888
229.519
229.185
228.886
228.623
228.394
228.201
228.043
227.921
227.833
227.78
227.762
398.412
395.238
392.067
388.9
385.741
382.591
379.452
376.326
373.214
370.119
367.041
363.983
360.946
357.93
354.939
351.972
349.03
346.116
343.229
340.37
337.541
334.742
331.973
329.236
326.53
323.856
321.215
318.607
316.032
313.491
310.984
308.511
306.072
303.668
301.299
298.965
296.666
294.402
292.173
289.98
287.823
285.701
283.615
281.565
279.551
277.573
275.631
273.725
271.855
270.022
268.224
266.464
264.739
263.051
261.399
259.784
258.205
256.663
255.157
253.688
252.255
250.859
249.499
248.176
246.89
245.64
244.426
243.249
242.109
241.005
239.938
238.907
237.912
236.954
236.033
235.147
234.299
233.486
232.71
231.97
231.267
230.599
229.968
229.374
228.815
228.293
227.806
227.356
226.942
226.564
226.222
225.917
225.647
225.413
225.215
225.054
224.928
224.838
224.784
224.766
398.396
395.191
391.988
388.79
385.599
382.417
379.245
376.085
372.94
369.81
366.697
363.603
360.53
357.477
354.448
351.443
348.462
345.508
342.581
339.682