/*--------------------------------*- C++ -*----------------------------------*\
  =========                 |
  \\      /  F ield         | OpenFOAM: The Open Source CFD Toolbox
   \\    /   O peration     | Website:  https://openfoam.org
    \\  /    A nd           | Version:  10
     \\/     M anipulation  |
\*---------------------------------------------------------------------------*/
FoamFile
{
    format      ascii;
    class       volScalarField;
    location    "2.7";
    object      T;
}
// * * * * * * * * * * * * * * * * * * * * * * * * * * * * * * * * * * * * * //

dimensions      [0 0 -1 0 0 0 0];

internalField   nonuniform List<scalar> 
100
(
0.0658899
0.195334
0.317859
0.429123
0.525185
0.602642
0.658751
0.691523
0.699797
0.683281
0.642559
0.579074
0.495076
0.393538
0.27806
0.152731
0.0219918
-0.109527
-0.237165
-0.356402
-0.463013
-0.553221
-0.623832
-0.672343
-0.697035
-0.697035
-0.672343
-0.623832
-0.553221
-0.463012
-0.356401
-0.237164
-0.109526
0.0219925
0.152732
0.278061
0.393539
0.495076
0.579075
0.642559
0.683281
0.699797
0.691523
0.658751
0.602642
0.525184
0.429122
0.317857
0.195333
0.0658885
-0.06589
-0.195334
-0.317859
-0.429123
-0.525185
-0.602643
-0.658751
-0.691523
-0.699797
-0.683281
-0.642559
-0.579074
-0.495075
-0.393538
-0.278059
-0.15273
-0.0219911
0.109527
0.237166
0.356402
0.463013
0.553222
0.623832
0.672343
0.697036
0.697035
0.672342
0.623831
0.553221
0.463012
0.356401
0.237164
0.109525
-0.0219933
-0.152733
-0.278061
-0.39354
-0.495077
-0.579075
-0.64256
-0.683281
-0.699797
-0.691523
-0.65875
-0.602642
-0.525184
-0.429122
-0.317857
-0.195333
-0.0658885
)
;

boundaryField
{
    inlet
    {
        type            cyclic;
    }
    outlet
    {
        type            cyclic;
    }
    bottom
    {
        type            slip;
    }
    top
    {
        type            slip;
    }
    frontAndBack
    {
        type            empty;
    }
}


// ************************************************************************* //
