/*--------------------------------*- C++ -*----------------------------------*\
  =========                 |
  \\      /  F ield         | OpenFOAM: The Open Source CFD Toolbox
   \\    /   O peration     | Website:  https://openfoam.org
    \\  /    A nd           | Version:  10
     \\/     M anipulation  |
\*---------------------------------------------------------------------------*/
FoamFile
{
    format      ascii;
    class       volScalarField;
    location    "2.7";
    object      T_0;
}
// * * * * * * * * * * * * * * * * * * * * * * * * * * * * * * * * * * * * * //

dimensions      [0 0 -1 0 0 0 0];

internalField   nonuniform List<scalar> 
100
(
0.0662967
0.19654
0.319821
0.431772
0.528427
0.606362
0.662817
0.695791
0.704117
0.687499
0.646526
0.582649
0.498132
0.395968
0.279776
0.153674
0.0221276
-0.110203
-0.238629
-0.358602
-0.465871
-0.556636
-0.627683
-0.676493
-0.701338
-0.701338
-0.676493
-0.627682
-0.556636
-0.46587
-0.358601
-0.238628
-0.110202
0.0221283
0.153675
0.279777
0.395968
0.498132
0.582649
0.646526
0.687499
0.704117
0.695791
0.662817
0.606362
0.528426
0.431771
0.31982
0.196539
0.0662952
-0.0662967
-0.19654
-0.319821
-0.431772
-0.528427
-0.606363
-0.662817
-0.695792
-0.704117
-0.687499
-0.646525
-0.582648
-0.498131
-0.395967
-0.279776
-0.153673
-0.0221268
0.110203
0.23863
0.358602
0.465871
0.556637
0.627683
0.676493
0.701338
0.701338
0.676492
0.627682
0.556635
0.46587
0.358601
0.238628
0.110201
-0.022129
-0.153675
-0.279778
-0.395969
-0.498133
-0.58265
-0.646526
-0.687499
-0.704117
-0.695791
-0.662817
-0.606362
-0.528426
-0.43177
-0.319819
-0.196538
-0.0662952
)
;

boundaryField
{
    inlet
    {
        type            cyclic;
    }
    outlet
    {
        type            cyclic;
    }
    bottom
    {
        type            slip;
    }
    top
    {
        type            slip;
    }
    frontAndBack
    {
        type            empty;
    }
}


// ************************************************************************* //
