/*--------------------------------*- C++ -*----------------------------------*\
  =========                 |
  \\      /  F ield         | OpenFOAM: The Open Source CFD Toolbox
   \\    /   O peration     | Website:  https://openfoam.org
    \\  /    A nd           | Version:  10
     \\/     M anipulation  |
\*---------------------------------------------------------------------------*/
FoamFile
{
    format      ascii;
    class       volScalarField;
    location    "21.5";
    object      ddt0(T);
}
// * * * * * * * * * * * * * * * * * * * * * * * * * * * * * * * * * * * * * //

dimensions      [0 0 -1 1 0 0 0];

internalField   nonuniform List<scalar> 
10000
(
1691.46
407.659
519.566
527.412
526.447
526.4
526.47
526.496
526.503
526.507
526.509
526.512
526.514
526.516
526.518
526.52
526.522
526.525
526.527
526.529
526.53
526.532
526.534
526.536
526.538
526.539
526.541
526.543
526.544
526.546
526.547
526.549
526.55
526.552
526.553
526.554
526.556
526.557
526.558
526.559
526.56
526.562
526.563
526.564
526.565
526.565
526.566
526.567
526.568
526.569
526.569
526.57
526.571
526.571
526.572
526.573
526.573
526.574
526.574
526.574
526.575
526.575
526.575
526.576
526.576
526.576
526.577
526.577
526.577
526.577
526.577
526.577
526.578
526.578
526.578
526.578
526.578
526.578
526.578
526.578
526.578
526.578
526.578
526.578
526.578
526.578
526.578
526.578
526.578
526.578
526.578
526.578
526.578
526.578
526.579
526.599
526.664
525.456
505.006
501.39
506.7
-362.312
-164.042
-160.527
-164.449
-164.877
-164.808
-164.776
-164.766
-164.76
-164.753
-164.747
-164.74
-164.734
-164.728
-164.722
-164.715
-164.709
-164.704
-164.698
-164.692
-164.686
-164.681
-164.676
-164.67
-164.665
-164.66
-164.655
-164.65
-164.646
-164.641
-164.636
-164.632
-164.628
-164.624
-164.62
-164.616
-164.612
-164.608
-164.605
-164.601
-164.598
-164.595
-164.592
-164.589
-164.586
-164.584
-164.581
-164.579
-164.577
-164.574
-164.572
-164.57
-164.568
-164.567
-164.565
-164.563
-164.562
-164.561
-164.559
-164.558
-164.557
-164.556
-164.555
-164.554
-164.554
-164.553
-164.552
-164.552
-164.551
-164.551
-164.55
-164.55
-164.549
-164.549
-164.549
-164.549
-164.549
-164.548
-164.548
-164.548
-164.548
-164.548
-164.548
-164.548
-164.548
-164.548
-164.548
-164.548
-164.548
-164.548
-164.549
-164.549
-164.549
-164.548
-164.512
-164.269
-163.968
-171.464
-151.158
595.771
-188.305
11.4703
11.1497
6.40067
5.94398
6.03991
6.08342
6.09862
6.1095
6.12025
6.13101
6.14168
6.15225
6.1627
6.17302
6.18321
6.19325
6.20313
6.21284
6.22239
6.23177
6.24097
6.25
6.25884
6.26751
6.27598
6.28427
6.29237
6.30027
6.30798
6.31549
6.32279
6.3299
6.3368
6.34349
6.34998
6.35626
6.36233
6.36819
6.37384
6.37928
6.38452
6.38955
6.39437
6.399
6.40342
6.40764
6.41167
6.4155
6.41915
6.4226
6.42588
6.42898
6.4319
6.43465
6.43724
6.43967
6.44194
6.44405
6.44602
6.44785
6.44955
6.45111
6.45254
6.45386
6.45505
6.45614
6.45713
6.45801
6.4588
6.4595
6.46012
6.46066
6.46113
6.46153
6.46187
6.46215
6.46237
6.46255
6.46268
6.46277
6.46283
6.46286
6.46286
6.46283
6.46279
6.46273
6.46265
6.46257
6.46248
6.46235
6.46194
6.4601
6.45482
6.46242
6.62527
7.03111
2.67251
9.58866
602.444
-184.709
11.3577
9.80832
4.90809
4.47218
4.5845
4.63533
4.65534
4.67061
4.68567
4.70069
4.71558
4.73032
4.74489
4.75928
4.77347
4.78747
4.80125
4.8148
4.82813
4.84123
4.85409
4.8667
4.87906
4.89117
4.90302
4.91461
4.92594
4.93699
4.94777
4.95827
4.96849
4.97843
4.98808
4.99744
5.00651
5.01529
5.02377
5.03197
5.03987
5.04748
5.0548
5.06183
5.06858
5.07504
5.08122
5.08712
5.09275
5.09811
5.10321
5.10804
5.11262
5.11695
5.12104
5.12488
5.1285
5.13189
5.13506
5.13802
5.14077
5.14333
5.14569
5.14788
5.14988
5.15172
5.15339
5.15491
5.15629
5.15752
5.15863
5.15961
5.16047
5.16122
5.16188
5.16243
5.1629
5.16329
5.16361
5.16385
5.16403
5.16416
5.16424
5.16427
5.16427
5.16423
5.16416
5.16407
5.16395
5.16383
5.1637
5.16358
5.16332
5.16174
5.15437
5.14065
5.20949
5.66487
5.06528
5.98553
601.66
-188.045
7.21932
5.51811
0.632772
0.216582
0.338249
0.394393
0.418837
0.438415
0.457755
0.47703
0.496141
0.515054
0.533756
0.552232
0.570466
0.588442
0.606148
0.623572
0.640705
0.657539
0.674065
0.690278
0.70617
0.721736
0.736971
0.751867
0.76642
0.780625
0.794476
0.80797
0.821101
0.833866
0.846263
0.858288
0.869939
0.881215
0.892115
0.902639
0.912788
0.922561
0.931962
0.940992
0.949654
0.957951
0.965887
0.973467
0.980696
0.987578
0.994119
1.00033
1.00621
1.01177
1.01701
1.02195
1.02659
1.03094
1.03501
1.03881
1.04235
1.04563
1.04866
1.05146
1.05403
1.05639
1.05854
1.06049
1.06225
1.06383
1.06525
1.06651
1.06761
1.06858
1.06942
1.07013
1.07073
1.07123
1.07163
1.07194
1.07218
1.07234
1.07244
1.07248
1.07247
1.07242
1.07233
1.07221
1.07206
1.0719
1.07173
1.0716
1.07156
1.07114
1.0667
1.04841
1.03076
1.16065
1.23892
1.335
601.626
-188.411
6.81868
5.1361
0.270129
-0.135734
-0.00824392
0.0524674
0.0812466
0.105121
0.128731
0.152247
0.175562
0.198639
0.221461
0.24401
0.266265
0.288209
0.309825
0.331098
0.352018
0.372573
0.392755
0.412553
0.43196
0.450969
0.469572
0.487762
0.505532
0.522876
0.539788
0.556262
0.572293
0.587877
0.60301
0.617688
0.63191
0.645674
0.658979
0.671824
0.68421
0.696138
0.707611
0.718631
0.729202
0.739328
0.749013
0.758262
0.767083
0.775481
0.783463
0.791037
0.798211
0.804993
0.811392
0.817418
0.823081
0.828389
0.833355
0.837988
0.842298
0.846299
0.849999
0.853412
0.856548
0.85942
0.862039
0.864416
0.866564
0.868495
0.87022
0.87175
0.873098
0.874275
0.875293
0.876161
0.876892
0.877495
0.877982
0.878362
0.878645
0.878841
0.878959
0.879007
0.878995
0.878929
0.878819
0.87867
0.878489
0.878281
0.878058
0.877857
0.877808
0.878057
0.877515
0.870042
0.84887
0.849346
0.878699
0.928294
601.687
-188.351
6.90272
5.23567
0.378887
-0.0211688
0.11095
0.176016
0.2091
0.237257
0.265124
0.292863
0.320364
0.347588
0.374511
0.401114
0.427371
0.453263
0.478769
0.503874
0.528562
0.552822
0.57664
0.600007
0.622913
0.645349
0.667305
0.688773
0.709745
0.730214
0.750172
0.769613
0.78853
0.806919
0.824776
0.842096
0.858876
0.875115
0.890813
0.905967
0.92058
0.934652
0.948187
0.961188
0.973657
0.985602
0.997026
1.00794
1.01834
1.02825
1.03766
1.04659
1.05505
1.06305
1.0706
1.0777
1.08438
1.09064
1.09649
1.10195
1.10704
1.11175
1.11611
1.12014
1.12383
1.12721
1.1303
1.1331
1.13563
1.1379
1.13993
1.14173
1.14332
1.14471
1.1459
1.14692
1.14778
1.14849
1.14906
1.1495
1.14983
1.15006
1.1502
1.15025
1.15023
1.15015
1.15002
1.14984
1.14963
1.14938
1.1491
1.14882
1.14859
1.14868
1.1492
1.14833
1.14062
1.12649
1.11483
1.163
601.709
-188.322
6.94189
5.28198
0.430486
0.0349948
0.171469
0.240842
0.278215
0.310637
0.34274
0.374683
0.40635
0.437698
0.468702
0.499337
0.529577
0.559396
0.588773
0.617689
0.646126
0.67407
0.701507
0.728425
0.754812
0.780656
0.805948
0.830677
0.854835
0.878412
0.9014
0.923791
0.94558
0.966759
0.987324
1.00727
1.0266
1.0453
1.06337
1.08082
1.09765
1.11385
1.12944
1.14441
1.15876
1.17252
1.18567
1.19823
1.21021
1.22161
1.23245
1.24273
1.25247
1.26167
1.27036
1.27853
1.28622
1.29342
1.30016
1.30644
1.31229
1.31771
1.32273
1.32735
1.3316
1.33549
1.33904
1.34226
1.34516
1.34778
1.35011
1.35218
1.354
1.35559
1.35696
1.35813
1.35911
1.35992
1.36057
1.36108
1.36145
1.36171
1.36186
1.36192
1.3619
1.3618
1.36164
1.36144
1.36119
1.3609
1.36058
1.36024
1.35988
1.35963
1.3598
1.36035
1.35933
1.35088
1.32676
1.37936
601.716
-188.313
6.95652
5.30143
0.454366
0.0632122
0.203993
0.277656
0.319298
0.355964
0.39228
0.428402
0.464211
0.499661
0.534722
0.569366
0.603564
0.637288
0.670512
0.703216
0.735381
0.766988
0.798022
0.828469
0.858315
0.887548
0.916156
0.944127
0.971451
0.998117
1.02412
1.04944
1.07408
1.09803
1.12129
1.14385
1.1657
1.18685
1.20729
1.22702
1.24604
1.26437
1.28199
1.29891
1.31514
1.33069
1.34555
1.35975
1.37329
1.38618
1.39843
1.41005
1.42106
1.43146
1.44127
1.45051
1.45919
1.46733
1.47494
1.48204
1.48864
1.49477
1.50043
1.50565
1.51045
1.51484
1.51885
1.52248
1.52576
1.5287
1.53133
1.53366
1.53571
1.5375
1.53905
1.54036
1.54147
1.54238
1.54311
1.54367
1.54409
1.54438
1.54455
1.54461
1.54457
1.54446
1.54428
1.54404
1.54375
1.54343
1.54307
1.54268
1.54226
1.54184
1.5416
1.54194
1.54293
1.53892
1.50448
1.56936
601.719
-188.306
6.96742
5.31673
0.473981
0.0871272
0.232195
0.310126
0.356013
0.396896
0.4374
0.477675
0.5176
0.557124
0.596215
0.634842
0.672972
0.710573
0.74762
0.784087
0.819953
0.855199
0.889806
0.923759
0.957041
0.98964
1.02154
1.05273
1.0832
1.11293
1.14193
1.17016
1.19764
1.22434
1.25027
1.27542
1.29978
1.32335
1.34614
1.36814
1.38934
1.40977
1.4294
1.44827
1.46636
1.48368
1.50025
1.51608
1.53117
1.54553
1.55917
1.57212
1.58438
1.59597
1.60691
1.6172
1.62687
1.63593
1.6444
1.65231
1.65966
1.66648
1.67278
1.6786
1.68393
1.68882
1.69327
1.69731
1.70096
1.70423
1.70715
1.70974
1.71202
1.714
1.71572
1.71717
1.7184
1.7194
1.72021
1.72083
1.72129
1.7216
1.72178
1.72184
1.7218
1.72167
1.72146
1.72119
1.72086
1.72049
1.7201
1.71967
1.71922
1.71873
1.71827
1.71829
1.71992
1.71892
1.672
1.75292
601.721
-188.3
6.9782
5.33184
0.493378
0.110801
0.26013
0.342302
0.392405
0.437478
0.48214
0.526539
0.570549
0.614118
0.65721
0.69979
0.741822
0.783273
0.824113
0.864315
0.903855
0.942711
0.980865
1.0183
1.05499
1.09093
1.1261
1.16048
1.19407
1.22685
1.25881
1.28994
1.32022
1.34966
1.37824
1.40595
1.43281
1.45879
1.4839
1.50814
1.53151
1.55402
1.57566
1.59644
1.61638
1.63547
1.65372
1.67116
1.68778
1.7036
1.71863
1.73289
1.7464
1.75916
1.7712
1.78253
1.79318
1.80316
1.81249
1.82119
1.82928
1.83678
1.84372
1.85011
1.85598
1.86135
1.86625
1.87069
1.87469
1.87829
1.8815
1.88434
1.88684
1.88902
1.89089
1.89249
1.89382
1.89492
1.8958
1.89648
1.89698
1.89731
1.8975
1.89756
1.8975
1.89735
1.89711
1.89681
1.89644
1.89603
1.89559
1.89512
1.89463
1.8941
1.89354
1.89334
1.89532
1.89696
1.83737
1.93438
601.724
-188.293
6.98898
5.34691
0.512708
0.134379
0.28794
0.374321
0.428609
0.477839
0.526626
0.575116
0.62318
0.670761
0.717821
0.764321
0.810224
0.855492
0.900094
0.944
0.987184
1.02962
1.07129
1.11217
1.15225
1.1915
1.22991
1.26747
1.30415
1.33995
1.37485
1.40884
1.44191
1.47405
1.50526
1.53552
1.56484
1.59321
1.62062
1.64709
1.6726
1.69717
1.7208
1.74348
1.76524
1.78608
1.806
1.82503
1.84317
1.86043
1.87684
1.8924
1.90713
1.92106
1.93419
1.94655
1.95816
1.96904
1.97921
1.9887
1.99752
2.0057
2.01326
2.02022
2.02662
2.03247
2.0378
2.04263
2.04699
2.0509
2.05439
2.05748
2.06019
2.06256
2.06459
2.06632
2.06777
2.06895
2.0699
2.07063
2.07116
2.07152
2.07171
2.07177
2.0717
2.07152
2.07126
2.07091
2.07051
2.07006
2.06957
2.06905
2.06851
2.06794
2.06731
2.06695
2.06915
2.07317
2.0025
2.11364
601.726
-188.287
6.99968
5.36186
0.531882
0.157768
0.315525
0.406081
0.464519
0.51787
0.570748
0.623293
0.675375
0.726932
0.777925
0.828311
0.878049
0.9271
0.97543
1.02301
1.0698
1.11579
1.16094
1.20524
1.24867
1.2912
1.33282
1.37352
1.41326
1.45205
1.48987
1.52669
1.56253
1.59735
1.63116
1.66395
1.69571
1.72644
1.75613
1.7848
1.81244
1.83904
1.86463
1.8892
1.91276
1.93533
1.9569
1.9775
1.99714
2.01583
2.03359
2.05044
2.06638
2.08145
2.09567
2.10904
2.12161
2.13338
2.14438
2.15464
2.16418
2.17302
2.18119
2.18872
2.19563
2.20195
2.20771
2.21293
2.21763
2.22185
2.22562
2.22895
2.23187
2.23441
2.2366
2.23846
2.24001
2.24128
2.24229
2.24307
2.24363
2.244
2.2442
2.24425
2.24416
2.24397
2.24367
2.24329
2.24284
2.24234
2.2418
2.24124
2.24066
2.24004
2.23934
2.23885
2.24116
2.24715
2.16772
2.29029
601.728
-188.28
7.01028
5.37665
0.550872
0.180935
0.34285
0.437543
0.500092
0.557526
0.614455
0.671018
0.727078
0.782574
0.837461
0.891694
0.94523
0.998027
1.05005
1.10126
1.15163
1.20113
1.24973
1.29742
1.34417
1.38995
1.43475
1.47855
1.52133
1.56308
1.60377
1.64341
1.68197
1.71945
1.75583
1.79111
1.82529
1.85836
1.89031
1.92115
1.95089
1.97951
2.00704
2.03347
2.05882
2.08309
2.10629
2.12845
2.14957
2.16967
2.18876
2.20687
2.22402
2.24022
2.2555
2.26987
2.28337
2.29602
2.30784
2.31886
2.3291
2.3386
2.34738
2.35546
2.36288
2.36966
2.37583
2.38142
2.38647
2.39099
2.39502
2.39858
2.40171
2.40442
2.40676
2.40874
2.41039
2.41174
2.41282
2.41364
2.41423
2.41461
2.41481
2.41485
2.41475
2.41452
2.41419
2.41377
2.41328
2.41274
2.41215
2.41154
2.4109
2.41024
2.40949
2.40888
2.4112
2.41864
2.33296
2.4641
601.73
-188.274
7.02077
5.39129
0.569663
0.203862
0.369895
0.468682
0.535301
0.596776
0.657715
0.718253
0.778251
0.837644
0.896384
0.954424
1.01172
1.06822
1.1239
1.1787
1.23261
1.28559
1.3376
1.38864
1.43867
1.48766
1.53561
1.58248
1.62826
1.67294
1.71649
1.7589
1.80016
1.84026
1.87919
1.91693
1.9535
1.98887
2.02306
2.05605
2.08786
2.11848
2.14792
2.17618
2.20329
2.22925
2.25406
2.27775
2.30033
2.32182
2.34223
2.36159
2.37991
2.39723
2.41355
2.42892
2.44334
2.45685
2.46947
2.48124
2.49218
2.50232
2.51168
2.5203
2.52822
2.53545
2.54203
2.54799
2.55336
2.55818
2.56247
2.56626
2.56958
2.57246
2.57494
2.57704
2.57879
2.58021
2.58134
2.5822
2.58281
2.58321
2.58341
2.58343
2.58331
2.58305
2.58269
2.58223
2.58169
2.5811
2.58046
2.5798
2.57912
2.5784
2.5776
2.5769
2.57917
2.58754
2.49794
2.63498
601.733
-188.268
7.03114
5.40577
0.588242
0.226533
0.396637
0.499475
0.570118
0.63559
0.700495
0.764963
0.828855
0.892101
0.954651
1.01646
1.07746
1.13763
1.19692
1.25528
1.31268
1.36909
1.42449
1.47883
1.5321
1.58428
1.63533
1.68524
1.73399
1.78155
1.82792
1.87308
1.917
1.95969
2.00113
2.04132
2.08024
2.11789
2.15428
2.18939
2.22324
2.25583
2.28716
2.31724
2.34608
2.3737
2.4001
2.4253
2.44932
2.47218
2.49389
2.51447
2.53396
2.55237
2.56973
2.58605
2.60138
2.61574
2.62916
2.64166
2.65327
2.66404
2.67398
2.68314
2.69153
2.6992
2.70618
2.7125
2.7182
2.72329
2.72783
2.73184
2.73535
2.7384
2.74101
2.74322
2.74506
2.74655
2.74773
2.74862
2.74926
2.74966
2.74985
2.74986
2.74971
2.74943
2.74902
2.74852
2.74794
2.7473
2.74661
2.7459
2.74516
2.7444
2.74355
2.74277
2.74495
2.75377
2.66233
2.80288
601.735
-188.262
7.04139
5.42006
0.606594
0.248928
0.423057
0.529896
0.604517
0.673938
0.742761
0.811113
0.878851
0.945903
1.01222
1.07774
1.14242
1.20621
1.26906
1.33093
1.39179
1.4516
1.51032
1.56793
1.62441
1.67972
1.73384
1.78675
1.83842
1.88885
1.938
1.98586
2.03242
2.07767
2.12159
2.16417
2.20542
2.24532
2.28388
2.32108
2.35695
2.39148
2.42467
2.45653
2.48709
2.51634
2.5443
2.57099
2.59643
2.62063
2.64362
2.66541
2.68604
2.70552
2.72389
2.74117
2.75739
2.77258
2.78677
2.79999
2.81227
2.82365
2.83416
2.84383
2.8527
2.8608
2.86816
2.87483
2.88083
2.88621
2.89099
2.89521
2.8989
2.9021
2.90484
2.90716
2.90908
2.91063
2.91186
2.91278
2.91343
2.91383
2.91402
2.91401
2.91383
2.91351
2.91307
2.91252
2.91189
2.9112
2.91047
2.9097
2.90891
2.9081
2.9072
2.90636
2.9084
2.91731
2.82577
2.96777
601.737
-188.256
7.05149
5.43416
0.624704
0.271031
0.449133
0.559924
0.638471
0.711791
0.784481
0.856667
0.928203
0.999013
1.06904
1.13824
1.20654
1.2739
1.34027
1.40561
1.46987
1.53303
1.59505
1.65589
1.71552
1.77393
1.83108
1.88694
1.94151
1.99474
2.04664
2.09717
2.14633
2.19409
2.24046
2.28541
2.32895
2.37107
2.41176
2.45103
2.48889
2.52532
2.56034
2.59397
2.62621
2.65707
2.68656
2.71472
2.74155
2.76707
2.79131
2.8143
2.83605
2.85659
2.87595
2.89416
2.91125
2.92725
2.9422
2.95612
2.96906
2.98103
2.99209
3.00227
3.0116
3.02011
3.02785
3.03486
3.04116
3.0468
3.05181
3.05623
3.0601
3.06345
3.06631
3.06872
3.07072
3.07234
3.0736
3.07455
3.07521
3.07561
3.07578
3.07575
3.07554
3.07518
3.0747
3.07411
3.07343
3.07269
3.0719
3.07107
3.07024
3.06938
3.06843
3.06754
3.06942
3.07811
2.98789
3.12965
601.739
-188.25
7.06145
5.44806
0.642559
0.292826
0.474847
0.589536
0.671957
0.749123
0.825628
0.901596
0.976877
1.05139
1.12509
1.1979
1.26978
1.34066
1.41051
1.47926
1.54689
1.61335
1.67861
1.74263
1.80538
1.86684
1.92697
1.98576
2.04317
2.09918
2.15378
2.20694
2.25865
2.3089
2.35768
2.40496
2.45076
2.49506
2.53786
2.57916
2.61896
2.65727
2.6941
2.72945
2.76334
2.79579
2.82679
2.85639
2.88458
2.91141
2.93688
2.96103
2.98388
3.00545
3.02579
3.04491
3.06285
3.07965
3.09534
3.10995
3.12352
3.13608
3.14768
3.15834
3.16812
3.17704
3.18514
3.19247
3.19906
3.20496
3.21019
3.21481
3.21884
3.22232
3.2253
3.2278
3.22987
3.23154
3.23284
3.23381
3.23447
3.23487
3.23502
3.23497
3.23472
3.23433
3.23379
3.23315
3.23242
3.23163
3.23078
3.22991
3.22902
3.22811
3.22712
3.22618
3.22789
3.23612
3.14834
3.2885
601.741
-188.244
7.07126
5.46175
0.66015
0.314299
0.500184
0.618715
0.704953
0.78591
0.866176
0.945872
1.02484
1.10301
1.18032
1.2567
1.3321
1.40646
1.47972
1.55184
1.62278
1.6925
1.76095
1.82811
1.89393
1.9584
2.02147
2.08312
2.14334
2.20208
2.25934
2.3151
2.36933
2.42202
2.47316
2.52274
2.57076
2.6172
2.66207
2.70537
2.74709
2.78725
2.82585
2.8629
2.89842
2.93241
2.9649
2.99591
3.02544
3.05354
3.08022
3.10551
3.12943
3.15202
3.17331
3.19332
3.2121
3.22968
3.24609
3.26136
3.27555
3.28868
3.3008
3.31194
3.32215
3.33146
3.33992
3.34756
3.35443
3.36057
3.36602
3.37082
3.37501
3.37862
3.3817
3.38429
3.38643
3.38814
3.38947
3.39045
3.39111
3.3915
3.39163
3.39154
3.39127
3.39083
3.39025
3.38955
3.38877
3.38792
3.38702
3.38609
3.38515
3.38419
3.38316
3.38217
3.38369
3.3913
3.30681
3.4443
601.743
-188.238
7.08091
5.47522
0.677467
0.33544
0.525129
0.647444
0.737443
0.822132
0.906102
0.989468
1.07208
1.15384
1.23471
1.3146
1.39347
1.47124
1.54788
1.62332
1.69752
1.77044
1.84203
1.91227
1.98112
2.04854
2.11451
2.17899
2.24196
2.3034
2.36327
2.42157
2.47828
2.53337
2.58685
2.63868
2.68888
2.73743
2.78434
2.82959
2.8732
2.91517
2.95551
2.99423
3.03134
3.06686
3.1008
3.13319
3.16404
3.19338
3.22124
3.24765
3.27262
3.2962
3.31842
3.33931
3.3589
3.37723
3.39435
3.41028
3.42506
3.43875
3.45137
3.46298
3.4736
3.48329
3.49209
3.50003
3.50717
3.51355
3.5192
3.52417
3.5285
3.53224
3.53542
3.53808
3.54027
3.54203
3.54338
3.54437
3.54503
3.5454
3.5455
3.54538
3.54506
3.54458
3.54395
3.5432
3.54236
3.54145
3.5405
3.53951
3.53851
3.5375
3.53643
3.53541
3.53673
3.54361
3.46298
3.59705
601.745
-188.232
7.0904
5.48848
0.694502
0.356238
0.549671
0.675709
0.769408
0.857771
0.945385
1.03236
1.11855
1.20386
1.28822
1.37157
1.45385
1.53499
1.61493
1.69364
1.77105
1.84712
1.92181
1.99508
2.0669
2.13723
2.20604
2.2733
2.33898
2.40306
2.46551
2.52632
2.58545
2.64291
2.69867
2.75272
2.80506
2.85568
2.90458
2.95176
2.99722
3.04097
3.08301
3.12336
3.16203
3.19904
3.23441
3.26815
3.30029
3.33085
3.35987
3.38736
3.41337
3.43792
3.46104
3.48278
3.50316
3.52223
3.54003
3.55659
3.57196
3.58618
3.5993
3.61135
3.62238
3.63243
3.64155
3.64979
3.65718
3.66378
3.66962
3.67476
3.67923
3.68308
3.68635
3.68908
3.69132
3.6931
3.69447
3.69546
3.69612
3.69646
3.69654
3.69638
3.69602
3.69548
3.6948
3.694
3.6931
3.69213
3.69112
3.69007
3.68902
3.68796
3.68685
3.68579
3.6869
3.69298
3.6166
3.74673
601.747
-188.227
7.09972
5.50151
0.711248
0.376683
0.573797
0.703497
0.800833
0.892808
0.984005
1.07454
1.16424
1.25303
1.34083
1.42758
1.51321
1.59766
1.68086
1.76277
1.84333
1.9225
2.00023
2.07649
2.15123
2.22442
2.29602
2.36601
2.43435
2.50103
2.566
2.62926
2.69079
2.75056
2.80856
2.86479
2.91923
2.97188
3.02274
3.0718
3.11907
3.16456
3.20828
3.25023
3.29043
3.3289
3.36566
3.40072
3.43412
3.46587
3.49602
3.52458
3.55158
3.57707
3.60108
3.62364
3.6448
3.66459
3.68305
3.70023
3.71616
3.7309
3.74449
3.75697
3.76839
3.77879
3.78822
3.79674
3.80437
3.81118
3.81721
3.82249
3.82709
3.83105
3.8344
3.83719
3.83947
3.84128
3.84266
3.84365
3.84429
3.84461
3.84465
3.84445
3.84404
3.84345
3.84271
3.84185
3.84089
3.83986
3.83879
3.83769
3.83658
3.83546
3.83431
3.83322
3.83413
3.83936
3.76743
3.8933
601.748
-188.221
7.10888
5.51431
0.727697
0.396767
0.597498
0.730794
0.831705
0.927229
1.02195
1.11597
1.20912
1.30133
1.39251
1.4826
1.57153
1.65922
1.74563
1.83068
1.91434
1.99655
2.07727
2.15645
2.23406
2.31005
2.3844
2.45706
2.52802
2.59724
2.6647
2.73037
2.79423
2.85627
2.91648
2.97483
3.03133
3.08597
3.13874
3.18965
3.2387
3.28589
3.33124
3.37476
3.41645
3.45635
3.49447
3.53083
3.56545
3.59837
3.62961
3.65921
3.68719
3.7136
3.73847
3.76183
3.78374
3.80422
3.82333
3.8411
3.85758
3.87282
3.88687
3.89976
3.91155
3.92229
3.93202
3.9408
3.94866
3.95567
3.96187
3.9673
3.97201
3.97606
3.97949
3.98233
3.98465
3.98648
3.98786
3.98884
3.98945
3.98974
3.98975
3.9895
3.98904
3.98839
3.98759
3.98667
3.98565
3.98456
3.98342
3.98226
3.98109
3.97992
3.97873
3.97761
3.97831
3.98271
3.91525
4.03674
601.75
-188.216
7.11786
5.52687
0.743844
0.416482
0.620763
0.757591
0.86201
0.961018
1.05919
1.15664
1.25319
1.34875
1.44325
1.53661
1.62877
1.71965
1.8092
1.89735
1.98404
2.06924
2.15288
2.23493
2.31535
2.3941
2.47113
2.54642
2.61994
2.69165
2.76154
2.82957
2.89573
2.96
3.02236
3.0828
3.14131
3.1979
3.25254
3.30526
3.35604
3.4049
3.45184
3.49689
3.54005
3.58134
3.62078
3.6584
3.69422
3.72827
3.76059
3.79119
3.82013
3.84743
3.87313
3.89728
3.91991
3.94106
3.96079
3.97914
3.99615
4.01187
4.02635
4.03965
4.05179
4.06285
4.07287
4.08189
4.08998
4.09717
4.10353
4.10909
4.11391
4.11804
4.12153
4.12443
4.12677
4.12861
4.12999
4.13095
4.13154
4.13179
4.13175
4.13145
4.13093
4.13023
4.12936
4.12837
4.12729
4.12614
4.12494
4.12371
4.12249
4.12127
4.12003
4.11887
4.11939
4.12295
4.0599
4.17702
601.752
-188.211
7.12667
5.5392
0.759682
0.43582
0.643584
0.783875
0.891737
0.994161
1.09572
1.19653
1.2964
1.39526
1.49301
1.58959
1.68492
1.77892
1.87155
1.96272
2.0524
2.14052
2.22703
2.3119
2.39507
2.47651
2.55618
2.63404
2.71007
2.78423
2.85649
2.92683
2.99524
3.06168
3.12615
3.18863
3.24912
3.3076
3.36408
3.41856
3.47104
3.52152
3.57003
3.61656
3.66114
3.70379
3.74453
3.78338
3.82036
3.85552
3.88887
3.92046
3.95032
3.97849
4.005
4.0299
4.05323
4.07504
4.09537
4.11427
4.13179
4.14798
4.16288
4.17655
4.18904
4.2004
4.21069
4.21995
4.22824
4.23561
4.24211
4.24779
4.25271
4.25692
4.26046
4.26339
4.26575
4.26759
4.26896
4.2699
4.27046
4.27067
4.27058
4.27023
4.26965
4.26888
4.26795
4.26689
4.26574
4.26452
4.26325
4.26197
4.26068
4.25941
4.25813
4.25694
4.25727
4.26004
4.20122
4.31408
601.754
-188.205
7.13531
5.55128
0.775207
0.454774
0.665952
0.809638
0.920872
1.02665
1.13153
1.23563
1.33876
1.44084
1.54178
1.64151
1.73994
1.83701
1.93265
2.02679
2.11938
2.21037
2.29969
2.38731
2.47318
2.55726
2.63951
2.71989
2.79837
2.87492
2.94951
3.02211
3.09271
3.16128
3.22781
3.29228
3.35469
3.41503
3.4733
3.5295
3.58364
3.63571
3.68573
3.73372
3.77969
3.82366
3.86566
3.9057
3.94382
3.98005
4.01442
4.04696
4.07771
4.10671
4.13401
4.15964
4.18365
4.20609
4.227
4.24644
4.26444
4.28107
4.29638
4.31041
4.32323
4.33488
4.34541
4.3549
4.36338
4.37091
4.37754
4.38334
4.38835
4.39262
4.39621
4.39916
4.40153
4.40337
4.40472
4.40564
4.40615
4.40632
4.40617
4.40576
4.40512
4.40428
4.40328
4.40215
4.40093
4.39964
4.39831
4.39696
4.39561
4.39428
4.39296
4.39173
4.39189
4.39392
4.33909
4.44789
601.755
-188.2
7.14377
5.56311
0.790412
0.473338
0.687859
0.834868
0.949406
1.05846
1.16659
1.27391
1.38024
1.48548
1.58954
1.69235
1.79382
1.89389
1.99248
2.08953
2.18497
2.27876
2.37083
2.46115
2.54965
2.63631
2.72108
2.80392
2.8848
2.96368
3.04055
3.11536
3.1881
3.25875
3.32729
3.39371
3.458
3.52015
3.58017
3.63804
3.69379
3.74741
3.79891
3.84832
3.89564
3.9409
3.98411
4.02532
4.06454
4.10181
4.13715
4.17062
4.20224
4.23205
4.26011
4.28644
4.31111
4.33415
4.35562
4.37557
4.39404
4.41109
4.42678
4.44116
4.45429
4.46621
4.47699
4.48668
4.49533
4.50301
4.50977
4.51567
4.52075
4.52508
4.5287
4.53167
4.53405
4.53587
4.5372
4.53808
4.53855
4.53866
4.53846
4.53798
4.53727
4.53636
4.53529
4.53409
4.5328
4.53143
4.53003
4.52862
4.52721
4.52582
4.52445
4.52319
4.52318
4.52454
4.47343
4.57839
601.757
-188.195
7.15205
5.57469
0.805291
0.491504
0.709295
0.859558
0.977327
1.08959
1.20091
1.31138
1.42083
1.52915
1.63627
1.74209
1.84654
1.94953
2.05101
2.1509
2.24913
2.34566
2.44042
2.53337
2.62445
2.71363
2.80086
2.88611
2.96933
3.05049
3.12957
3.20654
3.28137
3.35405
3.42455
3.49287
3.55899
3.62291
3.68462
3.74414
3.80145
3.85657
3.90952
3.9603
4.00893
4.05544
4.09985
4.14218
4.18246
4.22074
4.25704
4.29139
4.32385
4.35445
4.38323
4.41025
4.43555
4.45917
4.48117
4.50161
4.52053
4.53799
4.55404
4.56875
4.58216
4.59434
4.60534
4.61523
4.62405
4.63186
4.63873
4.64471
4.64986
4.65423
4.65788
4.66087
4.66323
4.66504
4.66634
4.66717
4.66759
4.66765
4.66738
4.66683
4.66605
4.66506
4.66392
4.66264
4.66127
4.65984
4.65837
4.65689
4.65542
4.65397
4.65255
4.65126
4.65109
4.65182
4.60414
4.70554
601.759
-188.191
7.16014
5.58601
0.81984
0.509267
0.730255
0.883697
1.00463
1.12002
1.23445
1.34801
1.46051
1.57185
1.68195
1.79071
1.89807
2.00393
2.10822
2.21088
2.31184
2.41104
2.50843
2.60395
2.69755
2.78919
2.87882
2.96641
3.05192
3.13531
3.21655
3.29562
3.37249
3.44714
3.51956
3.58972
3.65762
3.72326
3.78663
3.84774
3.90658
3.96316
4.0175
4.06962
4.11953
4.16725
4.21281
4.25623
4.29755
4.3368
4.37402
4.40924
4.4425
4.47385
4.50334
4.53101
4.55691
4.5811
4.60361
4.62451
4.64386
4.66171
4.67811
4.69312
4.70681
4.71923
4.73044
4.7405
4.74947
4.75741
4.76437
4.77043
4.77563
4.78004
4.7837
4.78669
4.78904
4.79082
4.79208
4.79287
4.79323
4.79322
4.79289
4.79226
4.7914
4.79034
4.78911
4.78776
4.78631
4.7848
4.78326
4.78171
4.78017
4.77867
4.77721
4.77588
4.77557
4.77574
4.73118
4.82929
601.76
-188.186
7.16805
5.59707
0.834055
0.526619
0.750731
0.907279
1.03129
1.14975
1.26722
1.38378
1.49926
1.61355
1.72656
1.83821
1.9484
2.05705
2.1641
2.26946
2.37308
2.47489
2.57484
2.67287
2.76892
2.86296
2.95494
3.04481
3.13255
3.2181
3.30145
3.38257
3.46142
3.538
3.61227
3.68423
3.75387
3.82118
3.88616
3.94881
4.00913
4.06713
4.12284
4.17625
4.22739
4.27628
4.32296
4.36744
4.40976
4.44995
4.48805
4.5241
4.55814
4.59023
4.62039
4.64869
4.67517
4.69988
4.72289
4.74424
4.76399
4.7822
4.79892
4.81423
4.82817
4.84082
4.85222
4.86244
4.87155
4.87959
4.88665
4.89277
4.89801
4.90244
4.90612
4.90909
4.91142
4.91317
4.91438
4.91511
4.91541
4.91533
4.91492
4.91422
4.91328
4.91213
4.91083
4.90939
4.90786
4.90628
4.90466
4.90304
4.90144
4.89988
4.89837
4.897
4.89656
4.89623
4.8545
4.94959
601.762
-188.181
7.17577
5.60787
0.847929
0.543557
0.770716
0.930295
1.05732
1.17877
1.2992
1.4187
1.53709
1.65425
1.7701
1.88455
1.99751
2.10889
2.21862
2.32662
2.43283
2.53719
2.63963
2.7401
2.83855
2.93492
3.02918
3.12128
3.21118
3.29885
3.38425
3.46736
3.54814
3.62659
3.70267
3.77638
3.8477
3.91663
3.98317
4.04732
4.10908
4.16846
4.22547
4.28014
4.33248
4.38251
4.43026
4.47576
4.51904
4.56014
4.5991
4.63595
4.67074
4.70352
4.73434
4.76323
4.79027
4.81549
4.83896
4.86073
4.88087
4.89942
4.91646
4.93203
4.94622
4.95906
4.97064
4.98101
4.99024
4.99839
5.00551
5.01168
5.01696
5.0214
5.02507
5.02803
5.03033
5.03203
5.03319
5.03386
5.0341
5.03394
5.03345
5.03267
5.03164
5.03041
5.02901
5.02749
5.02588
5.02422
5.02253
5.02083
5.01917
5.01755
5.01599
5.01458
5.01402
5.01325
4.97408
5.0664
601.763
-188.177
7.1833
5.6184
0.86146
0.560074
0.790205
0.952738
1.0827
1.20706
1.33038
1.45274
1.57397
1.69393
1.81255
1.92973
2.04538
2.15942
2.27176
2.38234
2.49107
2.59791
2.70278
2.80562
2.9064
3.00505
3.10153
3.19579
3.2878
3.37752
3.46492
3.54996
3.63262
3.71288
3.79072
3.86612
3.93908
4.00958
4.07764
4.14323
4.20639
4.2671
4.32539
4.38127
4.43476
4.48589
4.53468
4.58117
4.62538
4.66735
4.70713
4.74475
4.78026
4.81371
4.84514
4.87461
4.90218
4.92789
4.9518
4.97397
4.99447
5.01334
5.03067
5.0465
5.0609
5.07394
5.08568
5.09618
5.10552
5.11374
5.12093
5.12714
5.13244
5.13689
5.14054
5.14347
5.14574
5.14739
5.14849
5.14909
5.14925
5.14901
5.14843
5.14757
5.14645
5.14513
5.14364
5.14203
5.14034
5.13859
5.13682
5.13506
5.13333
5.13165
5.13003
5.12858
5.12791
5.12676
5.08988
5.17968
601.765
-188.172
7.19064
5.62867
0.874643
0.576166
0.809192
0.974603
1.10742
1.23462
1.36076
1.48591
1.60989
1.73258
1.8539
1.97374
2.09201
2.20863
2.32352
2.4366
2.54779
2.65703
2.76426
2.86942
2.97246
3.07332
3.17196
3.26833
3.36239
3.4541
3.54343
3.63035
3.71483
3.79685
3.87639
3.95344
4.02798
4.10001
4.16953
4.23654
4.30103
4.36304
4.42256
4.47961
4.53422
4.5864
4.6362
4.68363
4.72873
4.77155
4.81211
4.85047
4.88667
4.92076
4.95279
4.9828
5.01087
5.03704
5.06137
5.08392
5.10475
5.12393
5.14153
5.15759
5.1722
5.18541
5.19729
5.20791
5.21734
5.22564
5.23288
5.23911
5.24442
5.24886
5.2525
5.25539
5.2576
5.2592
5.26023
5.26075
5.26083
5.26051
5.25984
5.25888
5.25767
5.25626
5.25468
5.25298
5.2512
5.24937
5.24752
5.24568
5.24388
5.24214
5.24048
5.23898
5.23821
5.23672
5.2019
5.28939
601.766
-188.168
7.19778
5.63866
0.887476
0.591829
0.827673
0.995885
1.13149
1.26145
1.39032
1.51818
1.64485
1.7702
1.89413
2.01656
2.13739
2.25652
2.37388
2.48939
2.60297
2.71455
2.82408
2.93149
3.03672
3.13973
3.24046
3.33887
3.43492
3.52856
3.61977
3.70851
3.79476
3.87849
3.95968
4.03832
4.11439
4.1879
4.25883
4.3272
4.393
4.45624
4.51695
4.57513
4.63082
4.68402
4.73478
4.78312
4.82909
4.87271
4.91403
4.95309
4.98995
5.02465
5.05724
5.08778
5.11632
5.14292
5.16764
5.19055
5.2117
5.23117
5.24901
5.26529
5.28008
5.29345
5.30546
5.31619
5.32569
5.33405
5.34132
5.34757
5.35288
5.3573
5.3609
5.36375
5.36591
5.36744
5.36839
5.36884
5.36882
5.36841
5.36765
5.36659
5.36528
5.36377
5.3621
5.36031
5.35844
5.35652
5.35459
5.35268
5.35081
5.34901
5.34729
5.34576
5.34488
5.34311
5.31014
5.39551
601.767
-188.164
7.20473
5.64837
0.899954
0.607061
0.845643
1.01658
1.15488
1.28753
1.41906
1.54956
1.67883
1.80676
1.93325
2.05819
2.18149
2.30307
2.42283
2.5407
2.65659
2.77045
2.88221
2.9918
3.09916
3.20426
3.30702
3.40741
3.50538
3.6009
3.69393
3.78443
3.87239
3.95777
4.04055
4.12073
4.19829
4.27322
4.34553
4.4152
4.48226
4.54671
4.60856
4.66783
4.72454
4.77873
4.83041
4.87963
4.92642
4.97081
5.01285
5.05259
5.09008
5.12536
5.15848
5.18951
5.2185
5.24552
5.27061
5.29385
5.3153
5.33503
5.3531
5.36958
5.38453
5.39804
5.41017
5.42098
5.43055
5.43895
5.44624
5.4525
5.45779
5.46218
5.46575
5.46854
5.47063
5.47209
5.47296
5.47332
5.47321
5.4727
5.47184
5.47068
5.46927
5.46766
5.46589
5.464
5.46204
5.46003
5.45802
5.45603
5.4541
5.45223
5.45046
5.44888
5.44792
5.4459
5.41459
5.49801
601.769
-188.16
7.21148
5.65781
0.912077
0.621858
0.8631
1.03668
1.17761
1.31286
1.44698
1.58004
1.71185
1.84228
1.97124
2.09862
2.22433
2.34827
2.47036
2.59052
2.70867
2.82473
2.93864
3.05035
3.15978
3.26689
3.37162
3.47393
3.57377
3.6711
3.76589
3.8581
3.94771
4.03468
4.11901
4.20068
4.27967
4.35597
4.4296
4.50054