/*--------------------------------*- C++ -*----------------------------------*\
| =========                 |                                                 |
| \\      /  F ield         | OpenFOAM: The Open Source CFD Toolbox           |
|  \\    /   O peration     | Version:  2406                                  |
|   \\  /    A nd           | Website:  www.openfoam.com                      |
|    \\/     M anipulation  |                                                 |
\*---------------------------------------------------------------------------*/
FoamFile
{
    version     2.0;
    format      ascii;
    arch        "LSB;label=32;scalar=64";
    class       volScalarField;
    location    "42";
    object      p;
}
// * * * * * * * * * * * * * * * * * * * * * * * * * * * * * * * * * * * * * //

dimensions      [0 2 -2 0 0 0 0];

internalField   nonuniform List<scalar> 
1176
(
0.79699976
0.79702264
0.7970463
0.79705397
0.79702244
0.79692774
0.79677051
0.79658434
0.79640514
0.79623799
0.79608337
0.79598776
0.79598776
0.79608337
0.796238
0.79640516
0.79658437
0.79677055
0.7969278
0.79702252
0.79705408
0.79704646
0.79702282
0.79699996
0.77385133
0.77380438
0.77375662
0.77373972
0.77380222
0.77400458
0.7743699
0.7748343
0.77526516
0.77555126
0.77567066
0.77570492
0.77570492
0.77567066
0.77555126
0.77526515
0.77483427
0.77436983
0.77400448
0.77380209
0.77373956
0.77375644
0.77380419
0.77385115
0.75676658
0.75678859
0.75680838
0.75680648
0.75674741
0.75658624
0.75631447
0.75598652
0.75568031
0.75546752
0.75535672
0.7553079
0.7553079
0.75535673
0.75546754
0.75568033
0.75598654
0.75631449
0.75658625
0.75674742
0.75680649
0.75680839
0.75678859
0.75676658
0.74009469
0.74010381
0.74011587
0.74013227
0.74015482
0.74017239
0.74014015
0.74000674
0.73977463
0.73950206
0.73927786
0.73915736
0.73915736
0.73927786
0.73950207
0.73977464
0.74000675
0.74014016
0.74017239
0.74015482
0.74013227
0.74011587
0.74010382
0.74009469
0.72367564
0.72367959
0.72368458
0.72369065
0.72370035
0.72372062
0.72375681
0.72379832
0.72381999
0.72379611
0.723734
0.72368136
0.72368136
0.723734
0.72379612
0.72381999
0.72379832
0.7237568
0.72372062
0.72370034
0.72369063
0.72368457
0.72367958
0.72367562
0.70721398
0.7072164
0.70721964
0.70722369
0.7072286
0.70723543
0.7072496
0.70728091
0.7073309
0.70738815
0.70743085
0.70744751
0.70744751
0.70743086
0.70738815
0.7073309
0.70728091
0.7072496
0.70723542
0.70722859
0.70722368
0.70721963
0.70721638
0.70721397
0.69080817
0.69081031
0.69081312
0.69081655
0.69082045
0.69082396
0.69082603
0.6908282
0.69083675
0.69085398
0.69087188
0.6908836
0.6908836
0.69087188
0.69085398
0.69083675
0.6908282
0.69082603
0.69082395
0.69082044
0.69081653
0.69081311
0.69081029
0.69080816
0.67442831
0.67443007
0.67443239
0.67443531
0.67443899
0.67444336
0.67444781
0.67445097
0.6744522
0.67445382
0.67445086
0.67444835
0.67444835
0.67445087
0.67445382
0.67445221
0.67445097
0.67444781
0.67444335
0.67443897
0.67443529
0.67443237
0.67443004
0.67442829
0.65807402
0.65807548
0.65807741
0.65807982
0.65808284
0.65808662
0.65809167
0.65809871
0.6581074
0.65811743
0.65812519
0.65812878
0.65812878
0.6581252
0.65811743
0.65810741
0.65809872
0.65809167
0.65808661
0.65808282
0.6580798
0.65807738
0.65807545
0.658074
0.64173633
0.64173753
0.64173914
0.64174118
0.64174374
0.64174692
0.64175108
0.64175747
0.64176763
0.64178077
0.64179509
0.6418044
0.6418044
0.6417951
0.64178077
0.64176764
0.64175748
0.64175108
0.64174691
0.64174372
0.64174115
0.64173911
0.64173751
0.6417363
0.62541195
0.62541298
0.62541435
0.6254161
0.62541831
0.62542104
0.62542443
0.62542928
0.62543714
0.6254478
0.62546036
0.6254695
0.6254695
0.62546037
0.62544781
0.62543715
0.62542929
0.62542443
0.62542103
0.62541829
0.62541607
0.62541432
0.62541295
0.62541192
0.60909848
0.60909937
0.60910057
0.60910209
0.60910403
0.60910643
0.6091094
0.6091134
0.60911962
0.60912828
0.60913884
0.60914629
0.60914629
0.60913885
0.60912829
0.60911963
0.60911341
0.60910939
0.60910642
0.60910401
0.60910206
0.60910054
0.60909934
0.60909844
0.59279428
0.59279507
0.59279613
0.59279748
0.59279919
0.59280133
0.59280396
0.5928075
0.5928129
0.59282065
0.59283033
0.59283701
0.59283701
0.59283034
0.59282066
0.59281291
0.59280751
0.59280396
0.59280131
0.59279917
0.59279744
0.59279609
0.59279504
0.59279425
0.57649806
0.57649876
0.5764997
0.57650091
0.57650244
0.57650435
0.5765067
0.57650983
0.57651461
0.57652158
0.57653024
0.57653633
0.57653633
0.57653025
0.57652159
0.57651462
0.57650984
0.5765067
0.57650434
0.57650242
0.57650088
0.57649967
0.57649873
0.57649803
0.56020879
0.56020942
0.56021027
0.56021135
0.56021273
0.56021445
0.56021655
0.56021931
0.56022347
0.5602296
0.56023713
0.56024253
0.56024253
0.56023713
0.56022961
0.56022349
0.56021932
0.56021655
0.56021444
0.56021271
0.56021132
0.56021023
0.56020939
0.56020876
0.54392567
0.54392624
0.54392701
0.54392799
0.54392924
0.5439308
0.54393269
0.54393515
0.54393878
0.54394416
0.54395069
0.54395548
0.54395548
0.5439507
0.54394417
0.54393879
0.54393515
0.54393269
0.54393078
0.54392921
0.54392795
0.54392697
0.5439262
0.54392563
0.52764805
0.52764856
0.52764926
0.52765015
0.5276513
0.52765271
0.52765443
0.52765664
0.52765986
0.52766462
0.52767034
0.52767463
0.52767463
0.52767034
0.52766463
0.52765987
0.52765664
0.52765443
0.5276527
0.52765127
0.52765011
0.52764922
0.52764852
0.527648
0.51137537
0.51137584
0.51137648
0.51137729
0.51137834
0.51137964
0.51138121
0.5113832
0.51138608
0.51139032
0.51139537
0.51139923
0.51139924
0.51139538
0.51139033
0.51138609
0.51138321
0.51138121
0.51137962
0.51137831
0.51137725
0.51137643
0.5113758
0.51137532
0.49510717
0.49510761
0.49510819
0.49510894
0.4951099
0.4951111
0.49511254
0.49511434
0.49511692
0.49512073
0.49512522
0.4951287
0.49512871
0.49512522
0.49512074
0.49511693
0.49511435
0.49511253
0.49511108
0.49510987
0.4951089
0.49510814
0.49510756
0.49510712
0.47884306
0.47884346
0.478844
0.47884469
0.47884558
0.47884668
0.478848
0.47884965
0.47885197
0.4788554
0.47885943
0.47886258
0.47886259
0.47885943
0.47885541
0.47885199
0.47884966
0.478848
0.47884666
0.47884554
0.47884464
0.47884395
0.47884341
0.47884301
0.46258269
0.46258306
0.46258356
0.4625842
0.46258502
0.46258604
0.46258726
0.46258877
0.46259087
0.46259397
0.46259761
0.46260048
0.46260048
0.46259762
0.46259398
0.46259089
0.46258878
0.46258726
0.46258601
0.46258498
0.46258414
0.4625835
0.462583
0.46258263
0.44632576
0.4463261
0.44632656
0.44632715
0.44632792
0.44632886
0.44632999
0.44633138
0.4463333
0.44633611
0.44633942
0.44634203
0.44634204
0.44633943
0.44633612
0.44633331
0.44633139
0.44632999
0.44632883
0.44632787
0.44632709
0.4463265
0.44632603
0.44632569
0.43007199
0.43007231
0.43007274
0.43007329
0.430074
0.43007488
0.43007593
0.43007721
0.43007896
0.43008153
0.43008456
0.43008694
0.43008694
0.43008457
0.43008154
0.43007898
0.43007722
0.43007592
0.43007485
0.43007395
0.43007322
0.43007267
0.43007223
0.43007191
0.41382116
0.41382145
0.41382185
0.41382237
0.41382303
0.41382385
0.41382482
0.41382601
0.41382762
0.41382997
0.41383275
0.41383494
0.41383494
0.41383276
0.41382999
0.41382764
0.41382602
0.41382482
0.41382381
0.41382297
0.41382229
0.41382177
0.41382137
0.41382107
0.39757304
0.39757332
0.39757369
0.39757417
0.39757478
0.39757555
0.39757646
0.39757756
0.39757904
0.3975812
0.39758377
0.39758578
0.39758578
0.39758378
0.39758122
0.39757907
0.39757758
0.39757645
0.39757551
0.39757472
0.39757408
0.3975736
0.39757322
0.39757294
0.38132745
0.38132771
0.38132805
0.3813285
0.38132908
0.38132979
0.38133064
0.38133167
0.38133304
0.38133503
0.3813374
0.38133925
0.38133925
0.38133741
0.38133505
0.38133306
0.38133169
0.38133064
0.38132975
0.38132901
0.38132841
0.38132796
0.3813276
0.38132734
0.36508421
0.36508445
0.36508477
0.36508519
0.36508573
0.3650864
0.3650872
0.36508815
0.36508942
0.36509126
0.36509346
0.36509517
0.36509517
0.36509347
0.36509128
0.36508945
0.36508817
0.36508719
0.36508636
0.36508565
0.36508509
0.36508467
0.36508433
0.36508409
0.34884316
0.34884338
0.34884369
0.34884408
0.34884459
0.34884521
0.34884596
0.34884685
0.34884803
0.34884973
0.34885178
0.34885335
0.34885336
0.34885179
0.34884975
0.34884806
0.34884687
0.34884595
0.34884516
0.3488445
0.34884397
0.34884357
0.34884326
0.34884303
0.33260415
0.33260436
0.33260465
0.33260502
0.33260549
0.33260608
0.33260678
0.33260762
0.33260871
0.33261029
0.3326122
0.33261366
0.33261366
0.33261221
0.33261032
0.33260874
0.33260764
0.33260677
0.33260603
0.3326054
0.3326049
0.33260453
0.33260423
0.33260402
0.31636706
0.31636726
0.31636753
0.31636788
0.31636832
0.31636887
0.31636953
0.31637031
0.31637133
0.3163728
0.31637458
0.31637594
0.31637594
0.31637459
0.31637283
0.31637137
0.31637034
0.31636952
0.31636882
0.31636823
0.31636775
0.3163674
0.31636712
0.31636692
0.30013177
0.30013195
0.30013221
0.30013253
0.30013295
0.30013347
0.30013409
0.30013482
0.30013577
0.30013714
0.30013881
0.30014007
0.30014007
0.30013882
0.30013717
0.30013581
0.30013484
0.30013408
0.30013341
0.30013285
0.3001324
0.30013207
0.30013181
0.30013162
0.28389815
0.28389833
0.28389856
0.28389887
0.28389926
0.28389975
0.28390033
0.28390102
0.28390191
0.28390319
0.28390474
0.28390592
0.28390592
0.28390476
0.28390322
0.28390195
0.28390105
0.28390032
0.28389969
0.28389916
0.28389873
0.28389842
0.28389817
0.28389799
0.26766611
0.26766628
0.2676665
0.26766679
0.26766716
0.26766762
0.26766817
0.26766881
0.26766965
0.26767084
0.2676723
0.26767339
0.2676734
0.26767231
0.26767087
0.26766969
0.26766884
0.26766815
0.26766756
0.26766705
0.26766665
0.26766635
0.26766612
0.26766595
0.25143555
0.25143571
0.25143592
0.25143619
0.25143654
0.25143697
0.25143749
0.2514381
0.25143888
0.25143999
0.25144136
0.25144238
0.25144238
0.25144137
0.25144002
0.25143892
0.25143812
0.25143747
0.25143691
0.25143643
0.25143605
0.25143576
0.25143555
0.25143539
0.23520639
0.23520653
0.23520673
0.23520699
0.23520732
0.23520772
0.23520821
0.23520878
0.23520952
0.23521056
0.23521184
0.2352128
0.2352128
0.23521186
0.23521059
0.23520956
0.23520881
0.2352082
0.23520766
0.2352072
0.23520684
0.23520657
0.23520637
0.23520622
0.21897853
0.21897867
0.21897885
0.2189791
0.21897941
0.21897979
0.21898025
0.21898079
0.21898148
0.21898245
0.21898366
0.21898455
0.21898455
0.21898367
0.21898249
0.21898152
0.21898082
0.21898024
0.21897973
0.21897929
0.21897895
0.2189787
0.21897851
0.21897837
0.2027519
0.20275204
0.20275221
0.20275244
0.20275273
0.20275309
0.20275353
0.20275404
0.20275468
0.2027556
0.20275673
0.20275757
0.20275758
0.20275675
0.20275563
0.20275473
0.20275406
0.20275351
0.20275303
0.20275262
0.2027523
0.20275206
0.20275188
0.20275175
0.18652644
0.18652657
0.18652673
0.18652695
0.18652722
0.18652757
0.18652797
0.18652845
0.18652906
0.18652992
0.18653098
0.18653176
0.18653177
0.18653099
0.18652995
0.1865291
0.18652848
0.18652796
0.18652751
0.18652712
0.18652681
0.18652659
0.18652642
0.1865263
0.17030207
0.17030219
0.17030235
0.17030255
0.17030281
0.17030313
0.17030352
0.17030397
0.17030454
0.17030535
0.17030636
0.17030709
0.1703071
0.17030637
0.17030538
0.17030458
0.170304
0.17030351
0.17030308
0.17030271
0.17030243
0.17030222
0.17030206
0.17030194
0.15407874
0.15407885
0.154079
0.15407919
0.15407944
0.15407974
0.15408011
0.15408053
0.15408107
0.15408182
0.15408276
0.15408344
0.15408344
0.15408277
0.15408185
0.15408111
0.15408056
0.1540801
0.1540797
0.15407935
0.15407909
0.15407889
0.15407874
0.15407863
0.13785637
0.13785648
0.13785662
0.1378568
0.13785703
0.13785732
0.13785766
0.13785807
0.13785857
0.13785928
0.13786017
0.13786081
0.13786081
0.13786017
0.13785931
0.13785861
0.13785809
0.13785766
0.13785728
0.13785697
0.13785672
0.13785653
0.13785639
0.13785629
0.12163494
0.12163504
0.12163517
0.12163534
0.12163556
0.12163584
0.12163616
0.12163654
0.12163701
0.12163767
0.12163847
0.12163906
0.12163906
0.12163848
0.12163769
0.12163704
0.12163656
0.12163616
0.12163581
0.12163552
0.12163529
0.12163512
0.12163499
0.12163489
0.10541436
0.10541445
0.10541458
0.10541474
0.10541495
0.10541521
0.10541551
0.10541587
0.10541631
0.10541692
0.10541768
0.10541823
0.10541823
0.10541768
0.10541694
0.10541633
0.10541588
0.10541551
0.1054152
0.10541493
0.10541472
0.10541456
0.10541444
0.10541435
0.089194641
0.089194729
0.089194848
0.089195001
0.089195199
0.089195444
0.089195734
0.089196067
0.089196472
0.089197011
0.089197658
0.089198115
0.089198112
0.089197654
0.089197015
0.08919648
0.089196074
0.089195738
0.089195452
0.089195213
0.089195022
0.089194872
0.089194758
0.089194672
0.072975634
0.072975717
0.072975829
0.072975973
0.072976162
0.072976398
0.072976676
0.072976994
0.072977373
0.072977868
0.072978446
0.072978835
0.072978831
0.072978438
0.072977861
0.072977368
0.072976992
0.072976684
0.072976423
0.072976208
0.072976035
0.072975895
0.07297579
0.07297571
0.056757512
0.056757593
0.056757701
0.056757839
0.056758016
0.056758233
0.056758488
0.056758775
0.056759099
0.056759475
0.056759847
0.056760054
0.056760049
0.056759834
0.056759457
0.05675908
0.056758763
0.056758497
0.056758274
0.056758089
0.056757935
0.056757804
0.056757702
0.056757624
0.040539724
0.040539795
0.040539893
0.040540023
0.040540199
0.040540425
0.040540692
0.040540987
0.040541315
0.040541723
0.040542189
0.04054249
0.040542484
0.040542172
0.040541697
0.040541284
0.040540966
0.040540701
0.040540476
0.040540291
0.040540142
0.040540017
0.040539925
0.040539855
0.024323456
0.024323539
0.024323646
0.024323774
0.024323922
0.024324084
0.024324259
0.024324444
0.024324612
0.024324691
0.024324603
0.024324368
0.024324362
0.024324584
0.024324659
0.024324574
0.024324419
0.024324269
0.02432414
0.024324017
0.024323891
0.024323765
0.024323658
0.024323574
0.0081053633
0.0081054336
0.0081055266
0.0081056481
0.0081058095
0.0081060099
0.0081062315
0.0081064718
0.0081068506
0.0081076867
0.0081091645
0.0081105312
0.0081105284
0.0081091541
0.008107665
0.008106822
0.0081064524
0.0081062399
0.0081060534
0.008105882
0.0081057361
0.0081056149
0.0081055207
0.0081054474
)
;

boundaryField
{
    INLET
    {
        type            zeroGradient;
    }
    OUTLET
    {
        type            fixedValue;
        value           uniform 0;
    }
    WALL
    {
        type            zeroGradient;
    }
    frontAndBackPlanes
    {
        type            empty;
    }
}


// ************************************************************************* //
