/*--------------------------------*- C++ -*----------------------------------*\
| =========                 |                                                 |
| \\      /  F ield         | OpenFOAM: The Open Source CFD Toolbox           |
|  \\    /   O peration     | Version:  2406                                  |
|   \\  /    A nd           | Website:  www.openfoam.com                      |
|    \\/     M anipulation  |                                                 |
\*---------------------------------------------------------------------------*/
FoamFile
{
    version     2.0;
    format      ascii;
    arch        "LSB;label=32;scalar=64";
    class       surfaceScalarField;
    location    "42";
    object      phi;
}
// * * * * * * * * * * * * * * * * * * * * * * * * * * * * * * * * * * * * * //

dimensions      [0 3 -1 0 0 0 0];

oriented        oriented;

internalField   nonuniform List<scalar> 
2279
(
2.3617514e-08
1.0148926e-05
2.0509769e-07
4.982375e-05
6.9331766e-07
0.00014252872
1.5784715e-06
0.00034353082
2.6788475e-06
0.00075378089
3.3472909e-06
0.0015415573
3.0435193e-06
0.0029497096
2.1516833e-06
0.005249171
1.4318027e-06
0.008582269
9.8959011e-07
0.012685995
5.126641e-07
0.016666385
-5.864977e-12
0.01918202
-5.1267772e-07
0.01918202
-9.8961255e-07
0.016666385
-1.4318464e-06
0.012685995
-2.1517516e-06
0.0085822691
-3.043619e-06
0.0052491711
-3.3474247e-06
0.0029497097
-2.6790056e-06
0.0015415574
-1.5786279e-06
0.00075378097
-6.93448e-07
0.00034353086
-2.0518236e-07
0.00014252873
-2.3656491e-08
4.9823753e-05
1.0148927e-05
-9.524846e-08
1.0244175e-05
-5.3794007e-07
5.0266441e-05
-1.6230012e-06
0.00014361378
-3.5389525e-06
0.00034544677
-5.9201869e-06
0.00075616213
-7.4055031e-06
0.0015430426
-6.5847283e-06
0.0029488888
-3.936161e-06
0.0052465224
-1.3883908e-06
0.0085797213
-6.5121634e-08
0.012684671
2.4240242e-07
0.016666078
-6.7752147e-12
0.019182263
-2.424129e-07
0.019182263
6.5125281e-08
0.016666078
1.3884305e-06
0.012684671
3.9362574e-06
0.0085797212
6.5848857e-06
0.0052465223
7.4056921e-06
0.0029488887
5.92036e-06
0.0015430426
3.5390724e-06
0.00075616208
1.6230655e-06
0.00034544675
5.3796564e-07
0.00014361377
9.525263e-08
5.0266437e-05
1.0244174e-05
5.0139844e-08
1.0194035e-05
2.6334499e-07
5.0053236e-05
7.4910716e-07
0.00014312802
1.5314583e-06
0.00034466442
2.3366556e-06
0.00075535693
2.5476617e-06
0.0015428316
1.8390957e-06
0.0029495974
9.7567376e-07
0.0052473858
6.7695631e-07
0.00858002
6.7178218e-07
0.012684677
4.8415565e-07
0.016666266
-1.4349466e-11
0.019182747
-4.8418732e-07
0.019182747
-6.7181997e-07
0.016666266
-6.7699581e-07
0.012684677
-9.7571694e-07
0.00858002
-1.8391378e-06
0.0052473859
-2.5476907e-06
0.0029495974
-2.3366671e-06
0.0015428316
-1.5314587e-06
0.00075535694
-7.49103e-07
0.00034466442
-2.6334101e-07
0.00014312802
-5.0137366e-08
5.0053237e-05
1.0194035e-05
1.9586713e-08
1.0174448e-05
1.1184925e-07
4.9960974e-05
3.612843e-07
0.00014287858
9.0504786e-07
0.00034412066
1.8716601e-06
0.00075439032
3.0948239e-06
0.0015416085
3.8987245e-06
0.0029487935
3.7285555e-06
0.005247556
2.9242106e-06
0.0085808243
1.9733741e-06
0.012685627
1.0127702e-06
0.016667226
1.0368861e-12
0.01918376
-1.0127666e-06
0.01918376
-1.9733671e-06
0.016667226
-2.9242028e-06
0.012685627
-3.7285498e-06
0.0085808243
-3.8987224e-06
0.005247556
-3.0948258e-06
0.0029487935
-1.8716663e-06
0.0015416085
-9.050553e-07
0.00075439032
-3.6129159e-07
0.00034412066
-1.1185463e-07
0.00014287858
-1.958953e-08
4.9960974e-05
1.0174448e-05
8.0838932e-09
1.0166364e-05
4.7141386e-08
4.9921916e-05
1.5494679e-07
0.00014277078
3.9846312e-07
0.00034387714
8.7979479e-07
0.00075390899
1.7015168e-06
0.0015407867
2.7512759e-06
0.0029477437
3.4623622e-06
0.0052468449
3.4708623e-06
0.0085808158
2.8006865e-06
0.012686298
1.5505142e-06
0.016668476
-1.3935808e-12
0.01918531
-1.5505172e-06
0.01918531
-2.8006893e-06
0.016668476
-3.4708623e-06
0.012686298
-3.4623587e-06
0.0085808158
-2.751263e-06
0.0052468449
-1.7014957e-06
0.0029477437
-8.797734e-07
0.0015407867
-3.9844815e-07
0.00075390898
-1.5493971e-07
0.00034387714
-4.713956e-08
0.00014277078
-8.0842974e-09
4.9921916e-05
1.0166364e-05
4.9358228e-09
1.0161429e-05
2.8698761e-08
4.9898153e-05
9.5121334e-08
0.00014270436
2.4921428e-07
0.00034372305
5.6360943e-07
0.00075359459
1.1213751e-06
0.001540229
1.9184578e-06
0.0029469467
2.6588208e-06
0.0052461046
2.8930589e-06
0.0085805816
2.4787661e-06
0.012686712
1.4344254e-06
0.016669521
-9.6161038e-13
0.019186745
-1.4344276e-06
0.019186745
-2.4787688e-06
0.016669521
-2.8930619e-06
0.012686712
-2.6588203e-06
0.0085805816
-1.9184507e-06
0.0052461046
-1.1213635e-06
0.0029469467
-5.6359742e-07
0.001540229
-2.4920608e-07
0.00075359459
-9.5118702e-08
0.00034372305
-2.8699534e-08
0.00014270436
-4.9373267e-09
4.9898154e-05
1.0161429e-05
4.4123058e-09
1.0157016e-05
2.5525576e-08
4.987704e-05
8.3829996e-08
0.00014264605
2.1689403e-07
0.00034358999
4.8450099e-07
0.00075332698
9.5636058e-07
0.0015397571
1.6413732e-06
0.0029462616
2.3245816e-06
0.0052454214
2.5939523e-06
0.0085803122
2.2393617e-06
0.012687066
1.3066721e-06
0.016670453
-1.4700568e-12
0.019188051
-1.3066755e-06
0.019188051
-2.239366e-06
0.016670453
-2.5939564e-06
0.012687066
-2.3245804e-06
0.0085803122
-1.6413637e-06
0.0052454214
-9.5634467e-07
0.0029462616
-4.8448482e-07
0.0015397571
-2.1688408e-07
0.00075332699
-8.3828181e-08
0.00034358999
-2.5528003e-08
0.00014264605
-4.4150662e-09
4.987704e-05
1.0157016e-05
3.6254797e-09
1.0153391e-05
2.1036477e-08
4.9859629e-05
6.9437962e-08
0.00014259765
1.811413e-07
0.00034347828
4.097141e-07
0.00075309841
8.2390338e-07
0.0015393429
1.4539916e-06
0.0029456316
2.1430744e-06
0.0052447323
2.4674719e-06
0.0085799878
2.188392e-06
0.012687346
1.286641e-06
0.016671355
-2.086512e-12
0.019189338
-1.286646e-06
0.019189338
-2.1883985e-06
0.016671355
-2.4674775e-06
0.012687346
-2.1430725e-06
0.0085799878
-1.4539784e-06
0.0052447323
-8.2388158e-07
0.0029456316
-4.0969227e-07
0.0015393429
-1.8112808e-07
0.00075309841
-6.9435402e-08
0.00034347828
-2.103939e-08
0.00014259765
-3.6288889e-09
4.9859629e-05
1.0153391e-05
2.9830679e-09
1.0150408e-05
1.7346874e-08
4.9845265e-05
5.7377109e-08
0.00014255762
1.5007361e-07
0.00034338559
3.4097081e-07
0.00075290751
6.9193123e-07
0.001538992
1.2441079e-06
0.0029450794
1.904185e-06
0.0052440722
2.3015997e-06
0.0085795904
2.0975072e-06
0.01268755
1.2520092e-06
0.016672201
-2.3261514e-12
0.01919059
-1.252015e-06
0.01919059
-2.0975149e-06
0.016672201
-2.3016062e-06
0.01268755
-1.9041831e-06
0.0085795904
-1.244093e-06
0.0052440722
-6.919062e-07
0.0029450794
-3.4094586e-07
0.001538992
-1.5005872e-07
0.00075290752
-5.7374389e-08
0.00034338559
-1.7350293e-08
0.00014255762
-2.9869757e-09
4.9845265e-05
1.0150408e-05
2.4653709e-09
1.0147942e-05
1.4363011e-08
4.9833367e-05
4.7626331e-08
0.00014252436
1.2502849e-07
0.00034330818
2.8558864e-07
0.00075274695
5.8417891e-07
0.0015386934
1.0641836e-06
0.0029445994
1.664157e-06
0.0052434722
2.0898739e-06
0.0085791647
1.9528941e-06
0.012687687
1.1802441e-06
0.016672973
-2.0723676e-12
0.01919177
-1.1802498e-06
0.01919177
-1.9529026e-06
0.016672973
-2.0898814e-06
0.012687687
-1.6641556e-06
0.0085791647
-1.0641676e-06
0.0052434722
-5.8415143e-07
0.0029445994
-2.8556128e-07
0.0015386934
-1.2501225e-07
0.00075274695
-4.7623364e-08
0.00034330818
-1.4366694e-08
0.00014252436
-2.4695856e-09
4.9833367e-05
1.0147942e-05
2.1024234e-09
1.014584e-05
1.2258016e-08
4.9823212e-05
4.068819e-08
0.00014249593
1.0699007e-07
0.00034324188
2.4507819e-07
0.00075260887
5.0385245e-07
0.0015384346
9.2623402e-07
0.002944177
1.4715105e-06
0.0052429269
1.890908e-06
0.0085787453
1.8050226e-06
0.012687772
1.1036899e-06
0.016673675
-2.0388193e-12
0.019192874
-1.1036959e-06
0.019192874
-1.8050321e-06
0.016673675
-1.8909168e-06
0.012687772
-1.4715098e-06
0.0085787453
-9.2621748e-07
0.0052429269
-5.0382343e-07
0.002944177
-2.4504922e-07
0.0015384346
-1.0697283e-07
0.00075260887
-4.06849e-08
0.00034324188
-1.2261743e-08
0.00014249593
-2.1067714e-09
4.9823212e-05
1.014584e-05
1.8282487e-09
1.0144011e-05
1.0665521e-08
4.9814374e-05
3.5430302e-08
0.00014247116
9.32829e-08
0.00034318403
2.1413882e-07
0.00075248801
4.4192691e-07
0.0015382068
8.181127e-07
0.0029438008
1.3163799e-06
0.0052424287
1.7244937e-06
0.0085783372
1.6780432e-06
0.012687819
1.0378047e-06
0.016674315
-2.0125988e-12
0.019193912
-1.037811e-06
0.019193912
-1.6780535e-06
0.016674315
-1.7245036e-06
0.012687819
-1.3163798e-06
0.0085783372
-8.1809593e-07
0.0052424287
-4.4189703e-07
0.0029438008
-2.1410888e-07
0.0015382068
-9.3264987e-08
0.00075248801
-3.5426741e-08
0.00034318403
-1.0669219e-08
0.00014247116
-1.8326529e-09
4.9814374e-05
1.0144011e-05
1.6105429e-09
1.0142401e-05
9.3997578e-09
4.9806585e-05
3.1244476e-08
0.00014244932
8.2340289e-08
0.00034313293
1.8932024e-07
0.00075238103
3.9182222e-07
0.0015380043
7.2924056e-07
0.0029434634
1.1851449e-06
0.0052419728
1.5781752e-06
0.0085779442
1.5623399e-06
0.012687835
9.7669849e-07
0.0166749
-2.0449016e-12
0.019194888
-9.7670503e-07
0.019194888
-1.5623508e-06
0.0166749
-1.5781856e-06
0.012687835
-1.185145e-06
0.0085779441
-7.2922352e-07
0.0052419728
-3.9179167e-07
0.0029434634
-1.8928953e-07
0.0015380043
-8.2321806e-08
0.00075238103
-3.1240657e-08
0.00034313293
-9.4034117e-09
0.00014244932
-1.6149864e-09
4.9806585e-05
1.0142401e-05
1.4324017e-09
1.0140969e-05
8.3631673e-09
4.9799655e-05
2.7812729e-08
0.00014242987
7.3352679e-08
0.00034308739
1.6886829e-07
0.00075228551
3.5026715e-07
0.0015378229
6.5458209e-07
0.0029431591
1.0720586e-06
0.0052415553
1.4464335e-06
0.0085775698
1.4548768e-06
0.012687826
9.1880981e-07
0.016675437
-2.1650716e-12
0.019195807
-9.1881662e-07
0.019195807
-1.4548879e-06
0.016675437
-1.4464439e-06
0.012687826
-1.0720586e-06
0.0085775698
-6.5456468e-07
0.0052415553
-3.5023586e-07
0.0029431591
-1.6883674e-07
0.0015378229
-7.3333565e-08
0.00075228551
-2.7808641e-08
0.00034308739
-8.3668009e-09
0.00014242987
-1.4369111e-09
4.9799655e-05
1.0140969e-05
1.2851156e-09
1.0139684e-05
7.5052705e-09
4.9793434e-05
2.4968994e-08
0.0001424124
6.5891013e-08
0.00034304647
1.5183751e-07
0.00075219957
3.1548444e-07
0.0015376593
5.9149568e-07
0.0029428831
9.7478639e-07
0.005241172
1.3297048e-06
0.0085772149
1.3567877e-06
0.012687799
8.652522e-07
0.016675928
-2.3923498e-12
0.019196672
-8.6525941e-07
0.019196672
-1.356799e-06
0.016675928
-1.3297153e-06
0.012687799
-9.7478633e-07
0.0085772149
-5.9147775e-07
0.005241172
-3.1545217e-07
0.0029428831
-1.5180483e-07
0.0015376593
-6.587108e-08
0.00075219957
-2.4964609e-08
0.00034304647
-7.5089431e-09
0.0001424124
-1.2897546e-09
4.9793435e-05
1.0139684e-05
1.1616175e-09
1.0138522e-05
6.7854162e-09
4.9787811e-05
2.2580611e-08
0.00014239661
5.961524e-08
0.00034300944
1.3748043e-07
0.0007521217
2.8604555e-07
0.0015375107
5.3770986e-07
0.0029426314
8.9070528e-07
0.005240819
1.2263976e-06
0.0085768792
1.2674901e-06
0.012687758
8.1592664e-07
0.01667638
-2.7722127e-12
0.019197488
-8.1593454e-07
0.019197488
-1.2675019e-06
0.01667638
-1.2264085e-06
0.012687758
-8.9070527e-07
0.0085768792
-5.3769125e-07
0.005240819
-2.8601186e-07
0.0029426314
-1.3744613e-07
0.0015375107
-5.9594181e-08
0.0007521217
-2.2575878e-08
0.00034300944
-6.7892106e-09
0.00014239661
-1.1664781e-09
4.9787811e-05
1.0138522e-05
1.0562872e-09
1.0137466e-05
6.1711987e-09
4.9782696e-05
2.0541476e-08
0.00014238224
5.4251867e-08
0.00034297572
1.2518991e-07
0.00075205076
2.6076654e-07
0.0015373751
4.9125014e-07
0.0029424009
8.1722395e-07
0.005240493
1.1341831e-06
0.0085765622
1.1857907e-06
0.012687707
7.7021429e-07
0.016676795
-3.3231212e-12
0.019198259
-7.7022324e-07
0.019198259
-1.1858035e-06
0.016676795
-1.1341949e-06
0.012687707
-8.1722418e-07
0.0085765622
-4.9123058e-07
0.005240493
-2.6073082e-07
0.0029424009
-1.2515333e-07
0.0015373751
-5.4229279e-08
0.00075205076
-2.0536325e-08
0.00034297572
-6.1752169e-09
0.00014238224
-1.0614828e-09
4.9782696e-05
1.0137466e-05
9.6529083e-10
1.0136501e-05
5.6403811e-09
4.9778021e-05
1.8778362e-08
0.0001423691
4.9610882e-08
0.00034294489
1.1454055e-07
0.00075198583
2.3880916e-07
0.0015372509
4.5070187e-07
0.002942189
7.5248098e-07
0.0052401913
1.0514988e-06
0.0085762632
1.1108312e-06
0.012687647
7.276876e-07
0.016677178
-4.011284e-12
0.019198986
-7.2769791e-07
0.019198986
-1.1108454e-06
0.016677178
-1.0515118e-06
0.012687647
-7.5248147e-07
0.0085762632
-4.5068092e-07
0.0052401913
-2.387706e-07
0.002942189
-1.145009e-07
0.0015372509
-4.9586294e-08
0.00075198583
-1.8772716e-08
0.00034294489
-5.6447401e-09
0.0001423691
-9.7095013e-10
4.9778021e-05
1.0136501e-05
8.8594923e-10
1.0135615e-05
5.1774005e-09
4.9773729e-05
1.7239888e-08
0.00014235704
4.5558417e-08
0.00034291657
1.0523091e-07
0.00075192616
2.195743e-07
0.0015371365
4.1503961e-07
0.0029419936
6.9508669e-07
0.0052399112
9.7709251e-07
0.0085759812
1.0418664e-06
0.012687582
6.880034e-07
0.016677532
-4.7612768e-12
0.019199674
-6.8801528e-07
0.019199674
-1.0418823e-06
0.016677532
-9.7710697e-07
0.012687582
-6.9508737e-07
0.0085759812
-4.1501671e-07
0.0052399112
-2.19532e-07
0.0029419936
-1.0518731e-07
0.0015371365
-4.553133e-08
0.00075192616
-1.723367e-08
0.00034291657
-5.1822264e-09
0.00014235704
-8.9220876e-10
4.977373e-05
1.0135615e-05
8.1616661e-10
1.0134799e-05
4.7700951e-09
4.9769776e-05
1.5885932e-08
0.00014234592
4.1989953e-08
0.00034289047
9.7025293e-08
0.00075187112
2.0259109e-07
0.0015370309
3.8344578e-07
0.0029418127
6.4389263e-07
0.0052396508
9.0984054e-07
0.0085757152
9.7823449e-07
0.012687514
6.5086412e-07
0.01667786
-5.4882803e-12
0.019200325
-6.5087763e-07
0.019200325
-9.7825235e-07
0.01667786
-9.0985663e-07
0.012687514
-6.4389335e-07
0.0085757152
-3.8342033e-07
0.0052396508
-2.0254412e-07
0.0029418127
-9.6976866e-08
0.0015370309
-4.1959866e-08
0.00075187112
-1.5879066e-08
0.00034289047
-4.7755144e-09
0.00014234592
-8.2316179e-10
4.9769776e-05
1.0134799e-05
7.542931e-10
1.0134045e-05
4.4088783e-09
4.9766121e-05
1.4684831e-08
0.00014233564
3.8822873e-08
0.00034286633
8.9736875e-08
0.00075182021
1.8748425e-07
0.0015369332
3.5526194e-07
0.0029416449
5.9795489e-07
0.0052394081
8.487858e-07
0.0085754644
9.1936499e-07
0.012687443
6.1600799e-07
0.016678163
-6.1183804e-12
0.019200941
-6.1602302e-07
0.019200941
-9.1938481e-07
0.016678163
-8.4880354e-07
0.012687443
-5.9795543e-07
0.0085754644
-3.5523333e-07
0.0052394081
-1.874317e-07
0.0029416449
-8.9682774e-08
0.0015369332
-3.8789315e-08
0.00075182021
-1.4677246e-08
0.00034286633
-4.415009e-09
0.00014233565
-7.621498e-10
4.9766121e-05
1.0134045e-05
6.990412e-10
1.0133346e-05
4.0862569e-09
4.9762734e-05
1.3611792e-08
0.00014232612
3.5992341e-08
0.00034284395
8.3218529e-08
0.00075177298
1.7395664e-07
0.0015368425
3.2996153e-07
0.0029414889
5.5650363e-07
0.0052391815
7.931179e-07
0.0085752278
8.6476644e-07
0.012687372
5.8322903e-07
0.016678444
-6.6064885e-12
0.019201524
-5.8324538e-07
0.019201524
-8.6478816e-07
0.016678444
-7.9313727e-07
0.012687372
-5.5650379e-07
0.0085752278
-3.2992919e-07
0.0052391815
-1.7389769e-07
0.0029414889
-8.3157995e-08
0.0015368425
-3.5954892e-08
0.00075177298
-1.3603426e-08
0.00034284395
-4.0932012e-09
0.00014232612
-7.0786858e-10
4.9762734e-05
1.0133346e-05
6.4939638e-10
1.0132697e-05
3.7963196e-09
4.9759587e-05
1.2647238e-08
0.00014231727
3.3447082e-08
0.00034282315
7.7353648e-08
0.00075172907
1.6177185e-07
0.001536758
3.0712292e-07
0.0029413436
5.1891561e-07
0.0052389697
7.4216998e-07
0.0085750045
8.140123e-07
0.0126873
5.5234015e-07
0.016678706
-6.9349691e-12
0.019202077
-5.5235758e-07
0.019202077
-8.1403582e-07
0.016678706
-7.4219094e-07
0.0126873
-5.189152e-07
0.0085750045
-3.0708638e-07
0.0052389697
-1.617058e-07
0.0029413436
-7.7286045e-08
0.001536758
-3.3405396e-08
0.00075172908
-1.263804e-08
0.00034282315
-3.804159e-09
0.00014231727
-6.5928173e-10
4.9759587e-05
1.0132697e-05
6.0454607e-10
1.0132092e-05
3.5343293e-09
4.9756657e-05
1.1775468e-08
0.00014230903
3.114593e-08
0.00034280378
7.2048438e-08
0.00075168817
1.5073912e-07
0.0015366793
2.8640367e-07
0.0029412079
4.8467765e-07
0.0052387715
6.9537802e-07
0.0085747938
7.667426e-07
0.012687229
5.2320259e-07
0.01667895
-7.1069281e-12
0.0192026
-5.2322086e-07
0.0192026
-7.667678e-07
0.01667895
-6.9540051e-07
0.012687229
-4.8467653e-07
0.0085747938
-2.8636256e-07
0.0052387715
-1.5066543e-07
0.0029412079
-7.1973281e-08
0.0015366794
-3.1099747e-08
0.00075168817
-1.1765398e-08
0.00034280378
-3.5431219e-09
0.00014230903
-6.1555199e-10
4.9756658e-05
1.0132092e-05
5.6383276e-10
1.0131528e-05
3.2964514e-09
4.9753925e-05
1.0983769e-08
0.00014230134
2.9055528e-08
0.00034278571
6.722681e-08
0.00075165
1.4070335e-07
0.0015366059
2.6752431e-07
0.0029410811
4.5336822e-07
0.0052385856
6.5227306e-07
0.0085745949
7.2263539e-07
0.012687158
4.9567274e-07
0.016679177
-7.1491769e-12
0.019203096
-4.9569164e-07
0.019203096
-7.2266217e-07
0.016679177
-6.5229706e-07
0.012687158
-4.5336631e-07
0.0085745949
-2.6747838e-07
0.0052385856
-1.4062166e-07
0.0029410811
-6.7143784e-08
0.0015366059
-2.9004686e-08
0.00075165
-1.0972802e-08
0.00034278571
-3.306232e-09
0.00014230134
-5.7599617e-10
4.9753925e-05
1.0131529e-05
5.2671781e-10
1.0131002e-05
3.079545e-09
4.9751372e-05
1.0261723e-08
0.00014229416
2.7148521e-08
0.00034276882
6.2826276e-08
0.00075161432
1.3153686e-07
0.0015365372
2.5025346e-07
0.0029409624
4.2463373e-07
0.0052384113
6.1245091e-07
0.0085744071
6.8142283e-07
0.012687089
4.6965662e-07
0.016679388
-7.0943338e-12
0.019203565
-4.6967599e-07
0.019203565
-6.8145112e-07
0.016679388
-6.1247642e-07
0.012687089
-4.24631e-07
0.0085744071
-2.502026e-07
0.0052384112
-1.31447e-07
0.0029409624
-6.273524e-08
0.0015365372
-2.7092956e-08
0.00075161432
-1.0249853e-08
0.00034276882
-3.0903263e-09
0.00014229416
-5.4005047e-10
4.9751372e-05
1.0131002e-05
4.9275679e-10
1.0130509e-05
2.8810188e-09
4.9748984e-05
9.6007334e-09
0.00014228744
2.5402336e-08
0.00034275302
5.879526e-08
0.00075158093
1.2313413e-07
0.0015364728
2.3439968e-07
0.0029408511
3.9818119e-07
0.0052382475
5.7557505e-07
0.0085742297
6.4285271e-07
0.012687022
4.4503284e-07
0.016679586
-6.9730207e-12
0.01920401
-4.4505257e-07
0.01920401
-6.4288247e-07
0.016679586
-5.7560209e-07
0.012687022
-3.9817767e-07
0.0085742297
-2.3434391e-07
0.0052382475
-1.2303612e-07
0.0029408511
-5.8696252e-08
0.0015364728
-2.5342091e-08
0.00075158093
-9.5879771e-09
0.00034275302
-2.8927939e-09
0.00014228744
-5.0724661e-10
4.9748984e-05
1.013051e-05
4.6157796e-10
1.0130048e-05
2.6987074e-09
4.9746747e-05
8.9936166e-09
0.00014228114
2.3798092e-08
0.00034273821
5.5090545e-08
0.00075154963
1.1540656e-07
0.0015364125
2.198012e-07
0.0029407467
3.7375924e-07
0.0052380935
5.4134797e-07
0.0085740622
6.0672481e-07
0.012686957
4.2174184e-07
0.016679771
-6.8049865e-12
0.019204432
-4.2176186e-07
0.019204432
-6.0675599e-07
0.016679771
-5.4137654e-07
0.012686957
-3.7375499e-07
0.0085740621
-2.1974064e-07
0.0052380935
-1.1530059e-07
0.0029407467
-5.4983775e-08
0.0015364125
-2.3733308e-08
0.00075154963
-8.9800109e-09
0.00034273821
-2.7114513e-09
0.00014228114
-4.7719031e-10
4.9746747e-05
1.0130048e-05
4.3286846e-10
1.0129615e-05
2.5307883e-09
4.9744649e-05
8.4343273e-09
0.00014227524
2.2319909e-08
0.00034272432
5.1675822e-08
0.00075152027
1.082797e-07
0.0015363559
2.0632226e-07
0.0029406487
3.5115784e-07
0.0052379487
5.0952155e-07
0.0085739038
5.7283134e-07
0.012686893
3.9966906e-07
0.016679944
-6.5959902e-12
0.019204832
-3.9968927e-07
0.019204832
-5.7286387e-07
0.016679944
-5.0955162e-07
0.012686893
-3.5115295e-07
0.0085739038
-2.0625717e-07
0.0052379487
-1.0816614e-07
0.0029406487
-5.1561668e-08
0.0015363559
-2.2250833e-08
0.00075152028
-8.4199345e-09
0.00034272432
-2.5444603e-09
0.00014227524
-4.4954706e-10
4.9744649e-05
1.0129615e-05
4.0636243e-10
1.0129209e-05
2.3757154e-09
4.9742679e-05
7.9177364e-09
0.0001422697
2.0954292e-08
0.00034271129
4.852014e-08
0.00075149271
1.0168987e-07
0.0015363027
1.9384588e-07
0.0029405565
3.3019243e-07
0.0052378123
4.7987077e-07
0.0085737541
5.410257e-07
0.012686832
3.7878671e-07
0.016680107
-6.3311523e-12
0.01920521
-3.7880699e-07
0.01920521
-5.4105947e-07
0.016680107
-4.7990228e-07
0.012686832
-3.3018699e-07
0.0085737541
-1.9377657e-07
0.0052378123
-1.0156925e-07
0.0029405565
-4.839915e-08
0.0015363027
-2.0881276e-08
0.00075149271
-7.9026468e-09
0.00034271129
-2.39026e-09
0.0001422697
-4.2402909e-10
4.974268e-05
1.0129209e-05
3.8183157e-10
1.0128828e-05
2.232159e-09
4.9740829e-05
7.4394338e-09
0.00014226449
1.9689666e-08
0.00034269903
4.5597037e-08
0.0007514668
9.5582784e-08
0.0015362527
1.8227265e-07
0.0029404698
3.1070787e-07
0.0052376839
4.5220722e-07
0.0085736126
5.111247e-07
0.012686773
3.5897356e-07
0.016680259
-5.9770048e-12
0.019205569
-3.5899374e-07
0.019205569
-5.1115949e-07
0.016680259
-4.5224001e-07
0.012686773
-3.1070194e-07
0.0085736126
-1.8219954e-07
0.0052376839
-9.545581e-08
0.0029404698
-4.5469939e-08
0.0015362527
-1.9613178e-08
0.0007514668
-7.4237678e-09
0.00034269903
-2.247504e-09
0.00014226449
-4.0038366e-10
4.9740829e-05
1.0128828e-05
3.5908112e-10
1.0128469e-05
2.0989899e-09
4.9739089e-05
6.9956712e-09
0.00014225959
1.8516141e-08
0.00034268751
4.2883749e-08
0.00075144243
8.9911385e-08
0.0015362057
1.7151561e-07
0.0029403882
2.9256523e-07
0.0052375628
4.2635811e-07
0.0085734788
4.830306e-07
0.012686717
3.4023759e-07
0.016680402
-5.5040714e-12
0.01920591
-3.4025736e-07
0.01920591
-4.8306609e-07
0.016680402
-4.2639195e-07
0.012686717
-2.9255885e-07
0.0085734788
-1.714392e-07
0.0052375628
-8.9778951e-08
0.0029403882
-4.2751481e-08
0.0015362057
-1.8436786e-08
0.00075144243
-6.9795874e-09
0.00034268751
-2.1150449e-09
0.00014225959
-3.783878e-10
4.973909e-05
1.0128469e-05
3.3793837e-10
1.0128131e-05
1.9751988e-09
4.9737452e-05
6.5831027e-09
0.00014225498
1.7424961e-08
0.00034267667
4.0360331e-08
0.00075141949
8.4634815e-08
0.0015361614
1.6149971e-07
0.0029403113
2.7564616e-07
0.0052374487
4.0217438e-07
0.0085733523
4.5656619e-07
0.012686662
3.2243623e-07
0.016680536
-4.871807e-12
0.019206232
-3.2245522e-07
0.019206232
-4.5660192e-07
0.016680536
-4.0220889e-07
0.012686662
-2.7563933e-07
0.0085733523
-1.614206e-07
0.0052374487
-8.449804e-08
0.0029403113
-4.0224076e-08
0.0015361614
-1.7343507e-08
0.00075141949
-6.5668031e-09
0.00034267667
-1.9918494e-09
0.00014225498
-3.578333e-10
4.9737452e-05
1.0128131e-05
3.1825989e-10
1.0127813e-05
1.8599598e-09
4.9735911e-05
6.1989845e-09
0.00014225064
1.6408835e-08
0.00034266646
3.8009835e-08
0.00075139789
7.9717741e-08
0.0015361197
1.521593e-07
0.0029402389
2.5984518e-07
0.005237341
3.795254e-07
0.0085732326
4.3168679e-07
0.01268661
3.0562411e-07
0.016680662
-4.0232225e-12
0.019206538
-3.0564179e-07
0.019206538
-4.3172215e-07
0.016680662
-3.7956009e-07
0.01268661
-2.5983789e-07
0.0085732326
-1.5207825e-07
0.005237341
-7.9578031e-08
0.0029402389
-3.7871084e-08
0.0015361197
-1.6326249e-08
0.00075139789
-6.1827185e-09
0.00034266646
-1.877057e-09
0.00014225064
-3.385304e-10
4.9735911e-05
1.0127814e-05
2.9990817e-10
1.0127514e-05
1.7524609e-09
4.9734458e-05
5.8406244e-09
0.00014224655
1.5460781e-08
0.00034265684
3.5816549e-08
0.00075137753
7.5128243e-08
0.0015360804
1.4343549e-07
0.0029401706
2.4506745e-07
0.0052372394
3.5828347e-07
0.0085731194
4.0819876e-07
0.01268656
2.8961785e-07
0.01668078
-2.9128131e-12
0.019206827
-2.8963364e-07
0.019206827
-4.0823305e-07
0.01668078
-3.5831776e-07
0.01268656
-2.450597e-07
0.0085731194
-1.4335346e-07
0.0052372394
-7.4987381e-08
0.0029401706
-3.5677194e-08
0.0015360804
-1.5378288e-08
0.00075137753
-5.8247123e-09
0.00034265684
-1.7698188e-09
0.00014224655
-3.2028674e-10
4.9734458e-05
1.0127514e-05
2.827831e-10
1.0127232e-05
1.652138e-09
4.9733089e-05
5.5061429e-09
0.0001422427
1.4575685e-08
0.00034264777
3.3768216e-08
0.00075135833
7.0840164e-08
0.0015360433
1.3527951e-07
0.0029401061
2.3123604e-07
0.0052371434
3.383605e-07
0.0085730123
3.861266e-07
0.012686512
2.7453881e-07
0.016680892
-1.5120687e-12
0.019207102
-2.7455206e-07
0.019207102
-3.8615902e-07
0.016680892
-3.383937e-07
0.012686512
-2.3122785e-07
0.0085730123
-1.3519773e-07
0.0052371434
-7.0700391e-08
0.0029401062
-3.3630614e-08
0.0015360433
-1.4494799e-08
0.00075135834
-5.4909622e-09
0.00034264776
-1.6695087e-09
0.0001422427
-3.0292799e-10
4.9733089e-05
1.0127232e-05
2.6676337e-10
1.0126965e-05
1.5582551e-09
4.9731798e-05
5.1931045e-09
0.00014223906
1.3747378e-08
0.00034263921
3.1851426e-08
0.00075134023
6.6826955e-08
0.0015360084
1.27642e-07
0.0029400453
2.1826699e-07
0.0052370528
3.196285e-07
0.0085729109
3.6522789e-07
0.012686467
2.6013459e-07
0.016680997
1.7002983e-13
0.019207362
-2.6014463e-07
0.019207362
-3.6525758e-07
0.016680997
-3.1965989e-07
0.012686467
-2.1825848e-07
0.0085729109
-1.2756204e-07
0.0052370528
-6.669109e-08
0.0029400453
-3.1718512e-08
0.0015360084
-1.3669962e-08
0.00075134023
-5.1791042e-09
0.00034263921
-1.5753182e-09
0.00014223906
-2.8624584e-10
4.9731797e-05
1.0126965e-05
2.5179884e-10
1.0126714e-05
1.4705649e-09
4.9730579e-05
4.9006681e-09
0.00014223563
1.2973244e-08
0.00034263114
3.0058907e-08
0.00075132314
6.307158e-08
0.0015359753
1.2049119e-07
0.0029399879
2.0611588e-07
0.0052369672
3.0205772e-07
0.008572815
3.4563128e-07
0.012686423
2.4662702e-07
0.016681096
2.0751102e-12
0.019207609
-2.4663325e-07
0.019207609
-3.4565737e-07
0.016681096
-3.0208653e-07
0.012686423
-2.0610733e-07
0.008572815
-1.2041509e-07
0.0052369672
-6.2943146e-08
0.0029399879
-2.9934312e-08
0.0015359753
-1.2901598e-08
0.00075132314
-4.8884106e-09
0.00034263113
-1.4869384e-09
0.00014223563
-2.7010079e-10
4.9730578e-05
1.0126714e-05
2.3775547e-10
1.0126477e-05
1.3882164e-09
4.9729429e-05
4.6260343e-09
0.0001422324
1.2246519e-08
0.00034262351
2.8377027e-08
0.00075130701
5.9548755e-08
0.0015359442
1.1377946e-07
0.0029399337
1.9469233e-07
0.0052368863
2.8548515e-07
0.0085727242
3.2699405e-07
0.012686382
2.3365221e-07
0.016681189
4.1247962e-12
0.019207842
-2.3365413e-07
0.019207842
-3.2701566e-07
0.016681189
-2.8551063e-07
0.012686382
-1.9468415e-07
0.0085727242
-1.137097e-07
0.0052368863
-5.9431937e-08
0.0029399337
-2.8264988e-08
0.0015359442
-1.2183237e-08
0.000751307
-4.6160514e-09
0.00034262351
-1.4033589e-09
0.00014223239
-2.5422503e-10
4.9729428e-05
1.0126477e-05
2.2467372e-10
1.0126253e-05
1.3115549e-09
4.9728343e-05
4.3702921e-09
0.00014222934
1.1569041e-08
0.00034261631
2.6806777e-08
0.00075129177
5.6255334e-08
0.0015359147
1.0750066e-07
0.0029398824
1.8400533e-07
0.0052368098
2.6998464e-07
0.0085726383
3.0961709e-07
0.012686342
2.2158828e-07
0.016681277
6.1365851e-12
0.019208064
-2.2158568e-07
0.019208064
-3.0963351e-07
0.016681277
-2.7000612e-07
0.012686342
-1.8399817e-07
0.0085726382
-1.0744025e-07
0.0052368098
-5.6155116e-08
0.0029398824
-2.6712298e-08
0.0015359147
-1.151719e-08
0.00075129176
-4.3632466e-09
0.00034261631
-1.3248758e-09
0.00014222933
-2.3857689e-10
4.9728341e-05
1.0126253e-05
2.123335e-10
1.0126041e-05
1.2391303e-09
4.9727316e-05
4.1287225e-09
0.00014222645
1.0930022e-08
0.00034260951
2.5328471e-08
0.00075127736
5.3158689e-08
0.0015358869
1.0159397e-07
0.002939834
1.7392483e-07
0.0052367375
2.552939e-07
0.0085725569
2.9297413e-07
0.012686304
2.098972e-07
0.01668136
7.998068e-12
0.019208274
-2.0989006e-07
0.019208274
-2.9298471e-07
0.01668136
-2.5531075e-07
0.012686304
-1.7391949e-07
0.0085725569
-1.0154628e-07
0.0052367375
-5.3080452e-08
0.002939834
-2.5256773e-08
0.0015358869
-1.08926e-08
0.00075127736
-4.1250275e-09
0.0003426095
-1.2497954e-09
0.00014222644
-2.2279322e-10
4.9727314e-05
1.0126041e-05
2.0101493e-10
1.0125841e-05
1.1728437e-09
4.9726345e-05
3.9074309e-09
0.00014222371
1.0342669e-08
0.00034260307
2.3963487e-08
0.00075126374
5.0288045e-08
0.0015358606
9.6109598e-08
0.0029397882
1.64574e-07
0.005236669
2.4169715e-07
0.0085724798
2.7766767e-07
0.012686268
1.9920791e-07
0.016681439
9.4104432e-12
0.019208473
-1.991967e-07
0.019208473
-2.7767207e-07
0.016681439
-2.417089e-07
0.012686268
-1.6457154e-07
0.0085724798
-9.6078509e-08
0.005236669
-5.0237901e-08
0.0029397882
-2.3920494e-08
0.0015358606
-1.0323146e-08
0.00075126373
-3.9077367e-09
0.00034260307
-1.1801102e-09
0.00014222371
-2.0717476e-10
4.9726342e-05
1.0125841e-05
1.9011379e-10
1.0125652e-05
1.1087701e-09
4.9725426e-05
3.6938295e-09
0.00014222113
9.7789107e-09
0.00034259699
2.2663147e-08
0.00075125085
4.7570072e-08
0.0015358356
9.0924202e-08
0.0029397448
1.5569975e-07
0.0052366042
2.2870664e-07
0.0085724068
2.6286479e-07
0.012686234
1.8872667e-07
0.016681513
1.0106668e-11
0.019208662
-1.8871215e-07
0.019208662
-2.6286283e-07
0.016681513
-2.2871291e-07
0.012686234
-1.5570122e-07
0.0085724068
-9.0913449e-08
0.0052366042
-4.7553795e-08
0.0029397448
-2.2654291e-08
0.0015358356
-9.7803173e-09
0.00075125085
-3.6985472e-09
0.00034259698
-1.1118382e-09
0.00014222112
-1.9114379e-10
4.9725424e-05
1.0125651e-05
1.8076286e-10
1.0125472e-05
1.054158e-09
4.9724553e-05
3.5109759e-09
0.00014221867
9.2898881e-09
0.0003425912
2.151539e-08
0.00075123863
4.5134129e-08
0.001535812
8.6243858e-08
0.0029397037
1.4770017e-07
0.0052365428
2.1705466e-07
0.0085723374
2.4971697e-07
0.012686202
1.7950391e-07
0.016681583
1.0064203e-11
0.019208841
-1.7948729e-07
0.019208841
-2.4970892e-07
0.016681583
-2.1705514e-07
0.012686202
-1.4770622e-07
0.0085723374
-8.6256072e-08
0.0052365428
-4.5155277e-08
0.0029397037
-2.1542818e-08
0.001535812
-9.3117785e-09
0.00075123862
-3.5179605e-09
0.0003425912
-1.0509152e-09
0.00014221866
-1.7544072e-10
4.9724551e-05
1.0125471e-05
1.696664e-10
1.0125303e-05
9.8925896e-10
4.9723734e-05
3.2976221e-09
0.00014221636
8.7404602e-09
0.00034258576
2.028844e-08
0.00075122707
4.2654024e-08
0.0015357897
8.1632214e-08
0.0029396647
1.3991807e-07
0.0052364845
2.0571885e-07
0.0085722716
2.3676855e-07
0.012686171
1.703236e-07
0.01668165
8.9683285e-12
0.019209011
-1.7030655e-07
0.019209011
-2.3675526e-07
0.01668165
-2.0571389e-07
0.012686171
-1.3992977e-07
0.0085722716
-8.167007e-08
0.0052364845
-4.2716139e-08
0.0029396647
-2.0354896e-08
0.0015357896
-8.7841826e-09
0.00075122707
-3.3074742e-09
0.00034258575
-9.8005864e-10
0.00014221636
-1.5818808e-10
4.9723732e-05
1.0125302e-05
1.6485291e-10
1.0125139e-05
9.6134303e-10
4.9722938e-05
3.1985237e-09