/*--------------------------------*- C++ -*----------------------------------*\
| =========                 |                                                 |
| \\      /  F ield         | OpenFOAM: The Open Source CFD Toolbox           |
|  \\    /   O peration     | Version:  2406                                  |
|   \\  /    A nd           | Website:  www.openfoam.com                      |
|    \\/     M anipulation  |                                                 |
\*---------------------------------------------------------------------------*/
FoamFile
{
    version     2.0;
    format      ascii;
    arch        "LSB;label=32;scalar=64";
    class       volVectorField;
    location    "42";
    object      U;
}
// * * * * * * * * * * * * * * * * * * * * * * * * * * * * * * * * * * * * * //

dimensions      [0 1 -1 0 0 0 0];

internalField   nonuniform List<vector> 
1176
(
(0.019493789 7.0786323e-07 0)
(0.066677318 8.1696618e-06 0)
(0.13357994 3.9503164e-05 0)
(0.22724701 0.00010873576 0)
(0.35591522 0.00021176025 0)
(0.52772023 0.00030396282 0)
(0.74780387 0.00031818013 0)
(1.0136216 0.00024904579 0)
(1.3093323 0.00016666983 0)
(1.6017081 0.0001126466 0)
(1.8421723 7.0213775e-05 0)
(1.9793239 2.3940283e-05 0)
(1.9793239 -2.3941475e-05 0)
(1.8421723 -7.0215495e-05 0)
(1.6017081 -0.00011264987 0)
(1.3093323 -0.00016667561 0)
(1.0136216 -0.00024905489 0)
(0.74780389 -0.00031819352 0)
(0.52772026 -0.00030398003 0)
(0.35591524 -0.00021177758 0)
(0.22724702 -0.00010875086 0)
(0.13357995 -3.9508484e-05 0)
(0.066677319 -8.1798165e-06 0)
(0.01949379 -7.0688653e-07 0)
(0.020187017 -3.7419184e-06 0)
(0.068813532 -2.4638637e-05 0)
(0.13732107 -9.6548556e-05 0)
(0.23247391 -0.00024839461 0)
(0.36204617 -0.00047268784 0)
(0.53373557 -0.00067421189 0)
(0.75267407 -0.00069486953 0)
(1.0170176 -0.00049687383 0)
(1.3116385 -0.0002334594 0)
(1.6034438 -4.9824719e-05 0)
(1.8436588 1.9764317e-05 0)
(1.9807026 1.3427169e-05 0)
(1.9807026 -1.3428302e-05 0)
(1.8436588 -1.976463e-05 0)
(1.6034438 4.9826669e-05 0)
(1.3116385 0.00023346597 0)
(1.0170176 0.00049688673 0)
(0.75267407 0.00069488745 0)
(0.53373557 0.00067423067 0)
(0.36204617 0.00047270238 0)
(0.23247391 0.00024840325 0)
(0.13732107 9.6551694e-05 0)
(0.068813529 2.4640606e-05 0)
(0.020187016 3.7418134e-06 0)
(0.020018442 2.0918368e-06 0)
(0.068327405 1.2720775e-05 0)
(0.13655405 4.6877257e-05 0)
(0.23159544 0.00011389738 0)
(0.36138709 0.00019769267 0)
(0.53366969 0.00023903233 0)
(0.75344344 0.00020559808 0)
(1.0184881 0.00011361101 0)
(1.3134639 7.4313321e-05 0)
(1.6053464 7.9532418e-05 0)
(1.8455118 7.0515788e-05 0)
(1.9825245 2.7824493e-05 0)
(1.9825245 -2.7827316e-05 0)
(1.8455118 -7.0519017e-05 0)
(1.6053464 -7.9535992e-05 0)
(1.3134639 -7.431713e-05 0)
(1.0184881 -0.00011361489 0)
(0.75344343 -0.00020560258 0)
(0.53366968 -0.00023903408 0)
(0.36138708 -0.00019769303 0)
(0.23159544 -0.00011389706 0)
(0.13655404 -4.6876847e-05 0)
(0.068327405 -1.2720465e-05 0)
(0.020018442 -2.0918268e-06 0)
(0.019966547 7.0076479e-07 0)
(0.068159232 4.6870483e-06 0)
(0.13624021 1.9355443e-05 0)
(0.2311194 5.6456174e-05 0)
(0.36078093 0.00013444566 0)
(0.53306293 0.00025829318 0)
(0.75295637 0.00035344739 0)
(1.0181104 0.00036911997 0)
(1.313184 0.00030758865 0)
(1.6051633 0.00022777229 0)
(1.8453995 0.00014555934 0)
(1.9824491 4.9997219e-05 0)
(1.9824491 -4.9997048e-05 0)
(1.8453995 -0.00014555887 0)
(1.6051633 -0.0002277712 0)
(1.313184 -0.00030758806 0)
(1.0181104 -0.00036911991 0)
(0.75295637 -0.000353447 0)
(0.53306293 -0.00025829404 0)
(0.36078093 -0.00013444654 0)
(0.2311194 -5.6457017e-05 0)
(0.1362402 -1.9355611e-05 0)
(0.068159231 -4.6878265e-06 0)
(0.019966547 -7.0066136e-07 0)
(0.019942203 2.907696e-07 0)
(0.068078703 1.9871974e-06 0)
(0.13608628 8.2361161e-06 0)
(0.23087699 2.3699321e-05 0)
(0.36044744 5.6881625e-05 0)
(0.53266448 0.00012306886 0)
(0.75256878 0.00022681816 0)
(1.017808 0.00032272216 0)
(1.3129044 0.00034572456 0)
(1.604912 0.00030729971 0)
(1.8452029 0.00021095304 0)
(1.9822898 7.4614408e-05 0)
(1.9822898 -7.4614691e-05 0)
(1.8452029 -0.0002109533 0)
(1.604912 -0.00030729984 0)
(1.3129044 -0.0003457242 0)
(1.017808 -0.00032272162 0)
(0.75256878 -0.00022681634 0)
(0.53266448 -0.00012306678 0)
(0.36044744 -5.6879856e-05 0)
(0.23087699 -2.3698354e-05 0)
(0.13608628 -8.235543e-06 0)
(0.068078703 -1.9873561e-06 0)
(0.019942204 -2.9070277e-07 0)
(0.019933132 1.7181641e-07 0)
(0.068047755 1.1940661e-06 0)
(0.13602489 5.0651969e-06 0)
(0.23077535 1.4968851e-05 0)
(0.36029898 3.6219538e-05 0)
(0.5324792 7.6944231e-05 0)
(0.75239427 0.00014713769 0)
(1.0177222 0.00023749024 0)
(1.3129292 0.00028525592 0)
(1.6049746 0.00027441485 0)
(1.8452865 0.00019644615 0)
(1.9823834 7.1176905e-05 0)
(1.9823834 -7.1177124e-05 0)
(1.8452865 -0.00019644637 0)
(1.6049746 -0.00027441512 0)
(1.3129292 -0.00028525599 0)
(1.0177222 -0.00023748997 0)
(0.75239427 -0.00014713679 0)
(0.5324792 -7.6943148e-05 0)
(0.36029899 -3.6218633e-05 0)
(0.23077535 -1.4968486e-05 0)
(0.13602489 -5.0647209e-06 0)
(0.068047756 -1.194615e-06 0)
(0.019933132 -1.7169579e-07 0)
(0.0199234 1.5587723e-07 0)
(0.068015507 1.0700645e-06 0)
(0.13596286 4.4934619e-06 0)
(0.23067607 1.319545e-05 0)
(0.36015773 3.185711e-05 0)
(0.53230178 6.6958202e-05 0)
(0.75221429 0.00012411882 0)
(1.0176105 0.00019917044 0)
(1.3129358 0.00025490837 0)
(1.6050904 0.00024595165 0)
(1.8454579 0.00018127891 0)
(1.9825798 6.6548425e-05 0)
(1.9825798 -6.6548734e-05 0)
(1.8454579 -0.00018127925 0)
(1.6050904 -0.00024595204 0)
(1.3129358 -0.00025490855 0)
(1.0176105 -0.00019916994 0)
(0.75221429 -0.00012411761 0)
(0.53230178 -6.6956786e-05 0)
(0.36015773 -3.1856001e-05 0)
(0.23067607 -1.3195124e-05 0)
(0.13596286 -4.4929167e-06 0)
(0.068015507 -1.0709434e-06 0)
(0.0199234 -1.5570442e-07 0)
(0.019915697 1.2758825e-07 0)
(0.067989792 8.7800257e-07 0)
(0.13591293 3.6959968e-06 0)
(0.23059503 1.0901585e-05 0)
(0.36003987 2.6613319e-05 0)
(0.53214753 5.7237062e-05 0)
(0.75204133 0.00010911039 0)
(1.0174723 0.00017936615 0)
(1.3128926 0.00023802467 0)
(1.6051414 0.00023746746 0)
(1.8455877 0.00017750671 0)
(1.9827514 6.5539285e-05 0)
(1.9827514 -6.5539704e-05 0)
(1.8455877 -0.00017750721 0)
(1.6051414 -0.00023746806 0)
(1.3128926 -0.00023802489 0)
(1.0174723 -0.00017936544 0)
(0.75204133 -0.00010910874 0)
(0.53214753 -5.7235113e-05 0)
(0.36003987 -2.6611805e-05 0)
(0.23059503 -1.0901115e-05 0)
(0.13591293 -3.695337e-06 0)
(0.067989793 -8.7905116e-07 0)
(0.019915697 -1.2738326e-07 0)
(0.019909217 1.0466066e-07 0)
(0.067968141 7.2311955e-07 0)
(0.13587084 3.0520998e-06 0)
(0.23052654 9.0118095e-06 0)
(0.35993984 2.1999846e-05 0)
(0.53201542 4.7473373e-05 0)
(0.75188901 9.2013952e-05 0)
(1.0173341 0.00015618174 0)
(1.3128278 0.00021699664 0)
(1.6051595 0.00022709619 0)
(1.8456699 0.00017232625 0)
(1.982868 6.4147571e-05 0)
(1.982868 -6.4148042e-05 0)
(1.8456699 -0.00017232684 0)
(1.6051595 -0.00022709688 0)
(1.3128278 -0.00021699689 0)
(1.0173341 -0.00015618095 0)
(0.75188901 -9.2012093e-05 0)
(0.53201542 -4.7471143e-05 0)
(0.35993984 -2.1998123e-05 0)
(0.23052654 -9.0112858e-06 0)
(0.13587084 -3.0513775e-06 0)
(0.067968141 -7.2430023e-07 0)
(0.019909217 -1.0443241e-07 0)
(0.019903971 8.6129226e-08 0)
(0.067950553 5.9694782e-07 0)
(0.13583649 2.5273759e-06 0)
(0.2304703 7.4915984e-06 0)
(0.35985692 1.8376276e-05 0)
(0.53190436 3.9835643e-05 0)
(0.75175836 7.7712077e-05 0)
(1.0172122 0.00013432424 0)
(1.3127613 0.00019323361 0)
(1.6051772 0.00021058345 0)
(1.8457533 0.00016272971 0)
(1.9829863 6.1084153e-05 0)
(1.9829863 -6.1084604e-05 0)
(1.8457533 -0.00016273034 0)
(1.6051772 -0.0002105842 0)
(1.3127613 -0.00019323393 0)
(1.0172122 -0.00013432343 0)
(0.75175837 -7.771006e-05 0)
(0.53190436 -3.983319e-05 0)
(0.35985692 -1.8374383e-05 0)
(0.2304703 -7.4910195e-06 0)
(0.13583649 -2.5266083e-06 0)
(0.067950553 -5.98206e-07 0)
(0.019903971 -8.5886786e-08 0)
(0.019899543 7.3358209e-08 0)
(0.067935688 5.0895443e-07 0)
(0.13580742 2.1568885e-06 0)
(0.23042259 6.4027566e-06 0)
(0.35978626 1.5747579e-05 0)
(0.5318089 3.4277794e-05 0)
(0.75164409 6.7204549e-05 0)
(1.0171021 0.00011722987 0)
(1.3126976 0.00017262459 0)
(1.6051928 0.00019308905 0)
(1.8458371 0.0001521987 0)
(1.9831061 5.7544721e-05 0)
(1.9831061 -5.7545162e-05 0)
(1.8458371 -0.00015219939 0)
(1.6051928 -0.00019308991 0)
(1.3126976 -0.000172625 0)
(1.0171021 -0.00011722907 0)
(0.75164409 -6.7202438e-05 0)
(0.5318089 -3.4275189e-05 0)
(0.35978626 -1.5745563e-05 0)
(0.23042259 -6.4021248e-06 0)
(0.13580742 -2.1560859e-06 0)
(0.067935688 -5.1024634e-07 0)
(0.019899543 -7.310852e-08 0)
(0.019895721 6.3727086e-08 0)
(0.06792285 4.4252384e-07 0)
(0.13578228 1.8767394e-06 0)
(0.23038125 5.5765287e-06 0)
(0.35972483 1.3738676e-05 0)
(0.53172535 2.9997983e-05 0)
(0.75154264 5.9111517e-05 0)
(1.0170011 0.00010388814 0)
(1.3126344 0.00015540278 0)
(1.6052015 0.0001784953 0)
(1.8459125 0.00014271561 0)
(1.9832185 5.4330556e-05 0)
(1.9832185 -5.4331e-05 0)
(1.8459125 -0.00014271635 0)
(1.6052015 -0.00017849626 0)
(1.3126344 -0.00015540327 0)
(1.0170011 -0.00010388737 0)
(0.75154264 -5.9109356e-05 0)
(0.53172535 -2.9995288e-05 0)
(0.35972483 -1.3736582e-05 0)
(0.23038125 -5.5758578e-06 0)
(0.13578228 -1.8759103e-06 0)
(0.06792285 -4.4383212e-07 0)
(0.019895721 -6.3473041e-08 0)
(0.019892371 5.6088393e-08 0)
(0.067911586 3.8979055e-07 0)
(0.13576021 1.6541262e-06 0)
(0.2303449 4.9187713e-06 0)
(0.35967069 1.2132005e-05 0)
(0.53165136 2.6542411e-05 0)
(0.7514519 5.2498729e-05 0)
(1.0169086 9.2875647e-05 0)
(1.3125728 0.00014061488 0)
(1.605205 0.00016529623 0)
(1.8459798 0.00013398937 0)
(1.9833221 5.1387396e-05 0)
(1.9833221 -5.1387855e-05 0)
(1.8459798 -0.00013399014 0)
(1.605205 -0.00016529722 0)
(1.3125728 -0.0001406154 0)
(1.0169086 -9.2874881e-05 0)
(0.7514519 -5.2496526e-05 0)
(0.53165136 -2.6539646e-05 0)
(0.35967069 -1.2129846e-05 0)
(0.2303449 -4.9180662e-06 0)
(0.13576021 -1.6532705e-06 0)
(0.067911586 -3.9111368e-07 0)
(0.019892371 -5.5830036e-08 0)
(0.019889403 4.9845908e-08 0)
(0.067901607 3.4663832e-07 0)
(0.13574064 1.4717641e-06 0)
(0.23031264 4.3793972e-06 0)
(0.35962253 1.0812297e-05 0)
(0.53158531 2.3691367e-05 0)
(0.75137029 4.6984077e-05 0)
(1.016824 8.3546246e-05 0)
(1.3125139 0.00012773745 0)
(1.6052051 0.00015293352 0)
(1.8460415 0.00012582045 0)
(1.9834196 4.8616435e-05 0)
(1.9834196 -4.8616925e-05 0)
(1.8460415 -0.00012582125 0)
(1.6052051 -0.00015293452 0)
(1.3125139 -0.00012773797 0)
(1.016824 -8.3545463e-05 0)
(0.75137029 -4.6981821e-05 0)
(0.53158531 -2.3688527e-05 0)
(0.35962253 -1.0810069e-05 0)
(0.23031264 -4.3786572e-06 0)
(0.13574064 -1.4708749e-06 0)
(0.067901607 -3.4798708e-07 0)
(0.019889403 -4.9580989e-08 0)
(0.019886752 4.4694758e-08 0)
(0.067892685 3.1097056e-07 0)
(0.13572313 1.320816e-06 0)
(0.23028375 3.932212e-06 0)
(0.35957935 9.7158576e-06 0)
(0.53152592 2.1315536e-05 0)
(0.75129648 4.2360181e-05 0)
(1.0167465 7.5619827e-05 0)
(1.3124581 0.00011654233 0)
(1.6052027 0.00014169877 0)
(1.8460982 0.00011827107 0)
(1.9835117 4.6031472e-05 0)
(1.9835117 -4.6032013e-05 0)
(1.8460982 -0.0001182719 0)
(1.6052027 -0.00014169977 0)
(1.3124581 -0.00011654284 0)
(1.0167465 -7.561902e-05 0)
(0.75129648 -4.2357858e-05 0)
(0.53152592 -2.1312599e-05 0)
(0.35957935 -9.7135424e-06 0)
(0.23028375 -3.9314322e-06 0)
(0.13572313 -1.3198806e-06 0)
(0.067892685 -3.1236621e-07 0)
(0.019886752 -4.4419089e-08 0)
(0.019884362 4.0381529e-08 0)
(0.067884644 2.8107025e-07 0)
(0.13570735 1.1941519e-06 0)
(0.23025769 3.5564895e-06 0)
(0.35954035 8.7928611e-06 0)
(0.53147216 1.9309958e-05 0)
(0.75122934 3.8440064e-05 0)
(1.0166753 6.883886e-05 0)
(1.3124053 0.0001067835 0)
(1.6051983 0.00013155232 0)
(1.8461504 0.00011132804 0)
(1.9835985 4.3631012e-05 0)
(1.9835985 -4.363163e-05 0)
(1.8461504 -0.00011132892 0)
(1.6051983 -0.00013155335 0)
(1.3124053 -0.00010678404 0)
(1.0166753 -6.8838029e-05 0)
(0.75122934 -3.8437645e-05 0)
(0.53147216 -1.9306885e-05 0)
(0.35954035 -8.7904241e-06 0)
(0.23025769 -3.5556604e-06 0)
(0.13570735 -1.193153e-06 0)
(0.067884644 -2.8254181e-07 0)
(0.019884363 -4.0089441e-08 0)
(0.019882195 3.6705967e-08 0)
(0.067877349 2.5557213e-07 0)
(0.13569303 1.0860726e-06 0)
(0.23023403 3.235628e-06 0)
(0.3595049 8.0035377e-06 0)
(0.5314232 1.7590836e-05 0)
(0.75116797 3.5067096e-05 0)
(1.0166096 6.2964024e-05 0)
(1.3123553 9.8203145e-05 0)
(1.6051923 0.00012233361 0)
(1.8461982 0.00010491313 0)
(1.9836803 4.1390262e-05 0)
(1.9836803 -4.139099e-05 0)
(1.8461982 -0.00010491411 0)
(1.6051923 -0.00012233473 0)
(1.3123553 -9.8203736e-05 0)
(1.0166096 -6.2963164e-05 0)
(0.75116797 -3.5064538e-05 0)
(0.5314232 -1.7587568e-05 0)
(0.3595049 -8.000933e-06 0)
(0.23023403 -3.2347363e-06 0)
(0.13569303 -1.0849894e-06 0)
(0.067877349 -2.5715432e-07 0)
(0.019882196 -3.6390727e-08 0)
(0.019880219 3.3532887e-08 0)
(0.067870695 2.3354589e-07 0)
(0.13567996 9.9266504e-07 0)
(0.23021243 2.9581473e-06 0)
(0.35947252 7.3202377e-06 0)
(0.53137842 1.6100018e-05 0)
(0.75111164 3.2132838e-05 0)
(1.0165488 5.7823226e-05 0)
(1.3123082 9.0602359e-05 0)
(1.6051852 0.00011395337 0)
(1.8462423 9.8955896e-05 0)
(1.9837576 3.9288684e-05 0)
(1.9837576 -3.9289549e-05 0)
(1.8462423 -9.8956994e-05 0)
(1.6051852 -0.00011395461 0)
(1.3123082 -9.0603026e-05 0)
(1.0165488 -5.7822317e-05 0)
(0.75111164 -3.2130083e-05 0)
(0.53137842 -1.6096485e-05 0)
(0.35947252 -7.3174108e-06 0)
(0.23021243 -2.957177e-06 0)
(0.13567996 -9.914749e-07 0)
(0.067870696 -2.3527722e-07 0)
(0.01988022 -3.3187101e-08 0)
(0.019878409 3.0768166e-08 0)
(0.0678646 2.1434247e-07 0)
(0.13566798 9.1119253e-07 0)
(0.23019263 2.715979e-06 0)
(0.35944282 6.7233612e-06 0)
(0.53133728 1.4795875e-05 0)
(0.75105977 2.9559486e-05 0)
(1.0164925 5.3292326e-05 0)
(1.3122638 8.3831417e-05 0)
(1.6051772 0.00010632395 0)
(1.846283 9.3403108e-05 0)
(1.9838307 3.7312082e-05 0)
(1.9838307 -3.7313096e-05 0)
(1.846283 -9.3404359e-05 0)
(1.6051772 -0.00010632534 0)
(1.3122638 -8.3832172e-05 0)
(1.0164925 -5.3291339e-05 0)
(0.75105977 -2.9556467e-05 0)
(0.53133728 -1.4791998e-05 0)
(0.35944282 -6.7202528e-06 0)
(0.23019263 -2.7149132e-06 0)
(0.13566798 -9.0987256e-07 0)
(0.0678646 -2.1626294e-07 0)
(0.01987841 -3.0384225e-08 0)
(0.019876745 2.8337981e-08 0)
(0.067858993 1.9745396e-07 0)
(0.13565697 8.3951624e-07 0)
(0.23017441 2.5028231e-06 0)
(0.35941547 6.1975853e-06 0)
(0.53129936 1.3645654e-05 0)
(0.75101183 2.7285094e-05 0)
(1.0164401 4.9271487e-05 0)
(1.3122219 7.7767514e-05 0)
(1.6051688 9.9355994e-05 0)
(1.8463207 8.8213388e-05 0)
(1.9838998 3.5449089e-05 0)
(1.9838998 -3.5450249e-05 0)
(1.8463207 -8.8214801e-05 0)
(1.6051688 -9.9357556e-05 0)
(1.3122219 -7.7768354e-05 0)
(1.0164401 -4.9270385e-05 0)
(0.75101183 -2.7281739e-05 0)
(0.53129936 -1.3641351e-05 0)
(0.35941547 -6.1941356e-06 0)
(0.23017441 -2.501645e-06 0)
(0.13565697 -8.3804457e-07 0)
(0.067858993 -1.9960255e-07 0)
(0.019876745 -2.7908529e-08 0)
(0.019875209 2.6184251e-08 0)
(0.067853818 1.8248047e-07 0)
(0.1356468 7.7594957e-07 0)
(0.23015758 2.3137082e-06 0)
(0.3593902 5.7308099e-06 0)
(0.5312643 1.2623422e-05 0)
(0.75096742 2.5260128e-05 0)
(1.0163914 4.5679296e-05 0)
(1.3121824 7.2307858e-05 0)
(1.6051599 9.2973237e-05 0)
(1.8463555 8.3350131e-05 0)
(1.9839652 3.3689059e-05 0)
(1.9839652 -3.3690349e-05 0)
(1.8463555 -8.3351704e-05 0)
(1.6051599 -9.2974971e-05 0)
(1.3121824 -7.2308774e-05 0)
(1.0163914 -4.567804e-05 0)
(0.75096742 -2.5256367e-05 0)
(0.5312643 -1.2618615e-05 0)
(0.3593902 -5.7269619e-06 0)
(0.23015758 -2.3124015e-06 0)
(0.1356468 -7.7430647e-07 0)
(0.067853818 -1.8489276e-07 0)
(0.019875209 -2.5702597e-08 0)
(0.019873787 2.4261707e-08 0)
(0.067849027 1.6911008e-07 0)
(0.13563738 7.1917379e-07 0)
(0.230142 2.1447389e-06 0)
(0.35936679 5.3135313e-06 0)
(0.53123178 1.1708754e-05 0)
(0.75092616 2.3445362e-05 0)
(1.016346 4.2450297e-05 0)
(1.3121452 6.7367415e-05 0)
(1.6051509 8.7107403e-05 0)
(1.8463878 7.8785001e-05 0)
(1.9840271 3.2023416e-05 0)
(1.9840271 -3.2024811e-05 0)
(1.8463878 -7.8786721e-05 0)
(1.6051509 -8.7109302e-05 0)
(1.3121452 -6.7368395e-05 0)
(1.016346 -4.2448851e-05 0)
(0.75092616 -2.344113e-05 0)
(0.53123178 -1.1703371e-05 0)
(0.35936679 -5.3092336e-06 0)
(0.230142 -2.143289e-06 0)
(0.13563738 -7.1734258e-07 0)
(0.067849028 -1.7181631e-07 0)
(0.019873787 -2.3722175e-08 0)
(0.019872467 2.2534692e-08 0)
(0.067844581 1.570971e-07 0)
(0.13562864 6.6814841e-07 0)
(0.23012754 1.9928382e-06 0)
(0.35934505 4.938226e-06 0)
(0.53120156 1.0885439e-05 0)
(0.75088776 2.1809572e-05 0)
(1.0163035 3.9531969e-05 0)
(1.31211 6.2876317e-05 0)
(1.6051418 8.1701986e-05 0)
(1.8464178 7.4491763e-05 0)
(1.9840857 3.0444017e-05 0)
(1.9840857 -3.0445489e-05 0)
(1.8464178 -7.4493611e-05 0)
(1.6051418 -8.1704041e-05 0)
(1.31211 -6.2877347e-05 0)
(1.0163035 -3.9530303e-05 0)
(0.75088776 -2.1804815e-05 0)
(0.53120157 -1.087942e-05 0)
(0.35934505 -4.9334355e-06 0)
(0.23012754 -1.9912324e-06 0)
(0.13562864 -6.6611615e-07 0)
(0.067844582 -1.6012083e-07 0)
(0.019872467 -2.1932862e-08 0)
(0.01987124 2.0974657e-08 0)
(0.067840446 1.4624479e-07 0)
(0.13562051 6.2203964e-07 0)
(0.23011408 1.8555376e-06 0)
(0.35932481 4.5988487e-06 0)
(0.53117342 1.0140415e-05 0)
(0.75085195 2.0327497e-05 0)
(1.0162638 3.6881614e-05 0)
(1.3120768 5.8776846e-05 0)
(1.6051327 7.6706711e-05 0)
(1.8464458 7.04513e-05 0)
(1.9841412 2.8944815e-05 0)
(1.9841412 -2.8946338e-05 0)
(1.8464458 -7.0453256e-05 0)
(1.6051327 -7.6708909e-05 0)
(1.3120768 -5.8777918e-05 0)
(1.0162638 -3.6879703e-05 0)
(0.75085195 -2.0322174e-05 0)
(0.53117342 -1.0133712e-05 0)
(0.35932481 -4.5935326e-06 0)
(0.23011408 -1.8537662e-06 0)
(0.13562051 -6.1979754e-07 0)
(0.067840447 -1.4960219e-07 0)
(0.01987124 -2.0307503e-08 0)
(0.019870096 1.9558517e-08 0)
(0.067836592 1.3639394e-07 0)
(0.13561293 5.8017243e-07 0)
(0.23010153 1.730838e-06 0)
(0.35930594 4.2905e-06 0)
(0.53114716 9.4630796e-06 0)
(0.75081849 1.8978579e-05 0)
(1.0162266 3.4464235e-05 0)
(1.3120455 5.5020865e-05 0)
(1.6051237 7.2080782e-05 0)
(1.8464718 6.6642834e-05 0)
(1.9841938 2.7519376e-05 0)
(1.9841938 -2.7520926e-05 0)
(1.8464718 -6.6644881e-05 0)
(1.6051237 -7.2083117e-05 0)
(1.3120455 -5.5021974e-05 0)
(1.0162266 -3.4462066e-05 0)
(0.75081849 -1.897266e-05 0)
(0.53114716 -9.4556621e-06 0)
(0.35930594 -4.2846367e-06 0)
(0.23010153 -1.7288945e-06 0)
(0.13561293 -5.7771612e-07 0)
(0.067836593 -1.400936e-07 0)
(0.019870097 -1.8824453e-08 0)
(0.019869029 1.826739e-08 0)
(0.067832995 1.2741417e-07 0)
(0.13560586 5.4199398e-07 0)
(0.23008981 1.6171008e-06 0)
(0.35928832 4.0091589e-06 0)
(0.53112262 8.8447152e-06 0)
(0.75078719 1.7745862e-05 0)
(1.0161917 3.2250887e-05 0)
(1.312016 5.1568173e-05 0)
(1.6051149 6.7786357e-05 0)
(1.846496 6.305314e-05 0)
(1.9842437 2.6163663e-05 0)
(1.9842437 -2.6165225e-05 0)
(1.846496 -6.3055265e-05 0)
(1.6051149 -6.7788824e-05 0)
(1.3120159 -5.1569315e-05 0)
(1.0161917 -3.2248455e-05 0)
(0.75078719 -1.7739337e-05 0)
(0.53112262 -8.8365686e-06 0)
(0.35928832 -4.0027392e-06 0)
(0.23008981 -1.6149826e-06 0)
(0.13560586 -5.3932357e-07 0)
(0.067832995 -1.3145733e-07 0)
(0.019869029 -1.7466253e-08 0)
(0.019868031 1.708573e-08 0)
(0.067829631 1.1919786e-07 0)
(0.13559924 5.0704827e-07 0)
(0.23007886 1.5129742e-06 0)
(0.35927183 3.7515083e-06 0)
(0.53109966 8.278128e-06 0)
(0.75075788 1.6615336e-05 0)
(1.0161589 3.0217481e-05 0)
(1.311988 4.8384735e-05 0)
(1.6051063 6.3793819e-05 0)
(1.8465187 5.9664018e-05 0)
(1.9842909 2.4872313e-05 0)
(1.9842909 -2.4873877e-05 0)
(1.8465187 -5.9666212e-05 0)
(1.6051063 -6.3796414e-05 0)
(1.311988 -4.8385914e-05 0)
(1.0161589 -3.0214787e-05 0)
(0.75075788 -1.6608205e-05 0)
(0.53109966 -8.269254e-06 0)
(0.35927183 -3.7445352e-06 0)
(0.23007886 -1.5106825e-06 0)
(0.13559924 -5.0416836e-07 0)
(0.067829632 -1.2357876e-07 0)
(0.019868031 -1.6218728e-08 0)
(0.019867097 1.6000563e-08 0)
(0.067826482 1.1165506e-07 0)
(0.13559305 4.7495439e-07 0)
(0.2300686 1.4173281e-06 0)
(0.35925639 3.5147701e-06 0)
(0.53107814 7.7572781e-06 0)
(0.75073038 1.557521e-05 0)
(1.0161281 2.834376e-05 0)
(1.3119617 4.5441898e-05 0)
(1.6050979 6.0073653e-05 0)
(1.8465398 5.6467022e-05 0)
(1.9843356 2.3643008e-05 0)
(1.9843356 -2.3644566e-05 0)
(1.8465398 -5.6469277e-05 0)
(1.6050979 -6.0076374e-05 0)
(1.3119617 -4.5443116e-05 0)
(1.0161281 -2.8340815e-05 0)
(0.75073038 -1.5567489e-05 0)
(0.53107814 -7.7476945e-06 0)
(0.35925639 -3.5072586e-06 0)
(0.2300686 -1.4148683e-06 0)
(0.13559305 -4.7187405e-07 0)
(0.067826483 -1.1636131e-07 0)
(0.019867097 -1.5070232e-08 0)
(0.019866221 1.5001e-08 0)
(0.067823531 1.0470995e-07 0)
(0.13558724 4.4539169e-07 0)
(0.23005898 1.3292115e-06 0)
(0.35924191 3.2966103e-06 0)
(0.53105796 7.2770983e-06 0)
(0.75070457 1.4615579e-05 0)
(1.0160992 2.6612539e-05 0)
(1.3119367 4.2714822e-05 0)
(1.6050897 5.6604189e-05 0)
(1.8465596 5.3444572e-05 0)
(1.984378 2.2470767e-05 0)
(1.984378 -2.2472312e-05 0)
(1.8465596 -5.3446882e-05 0)
(1.6050897 -5.660703e-05 0)
(1.3119367 -4.2716082e-05 0)
(1.0160992 -2.6609357e-05 0)
(0.75070457 -1.4607296e-05 0)
(0.53105796 -7.2668382e-06 0)
(0.35924191 -3.2885875e-06 0)
(0.23005898 -1.3265933e-06 0)
(0.13558724 -4.4212467e-07 0)
(0.067823531 -1.097227e-07 0)
(0.019866221 -1.4011203e-08 0)
(0.0198654 1.4077813e-08 0)
(0.067820762 9.8298238e-08 0)
(0.1355818 4.180885e-07 0)
(0.23004996 1.2478176e-06 0)
(0.35922832 3.095041e-06 0)
(0.53103901 6.8332535e-06 0)
(0.75068032 1.3727953e-05 0)
(1.0160719 2.5009188e-05 0)
(1.3119132 4.0182617e-05 0)
(1.6050818 5.3361497e-05 0)
(1.8465781 5.0592856e-05 0)
(1.9844182 2.1354838e-05 0)
(1.9844182 -2.1356359e-05 0)
(1.8465781 -5.0595209e-05 0)
(1.6050818 -5.336445e-05 0)
(1.3119132 -4.0183919e-05 0)
(1.0160719 -2.500579e-05 0)
(0.75068032 -1.3719148e-05 0)
(0.53103901 -6.8223656e-06 0)
(0.35922832 -3.0865465e-06 0)
(0.23004996 -1.2450549e-06 0)
(0.1355818 -4.1465362e-07 0)
(0.067820762 -1.0359192e-07 0)
(0.0198654 -1.3033815e-08 0)
(0.019864628 1.3223093e-08 0)
(0.067818161 9.2364526e-08 0)
(0.13557668 3.9281086e-07 0)
(0.23004148 1.1724526e-06 0)
(0.35921555 2.9083618e-06 0)
(0.5310212 6.4220536e-06 0)
(0.75065752 1.2905096e-05 0)
(1.0160463 2.3521008e-05 0)
(1.3118909 3.782647e-05 0)
(1.6050743 5.0329757e-05 0)
(1.8465955 4.7893136e-05 0)
(1.9844563 2.0289913e-05 0)
(1.9844563 -2.0291395e-05 0)
(1.8465955 -4.7895514e-05 0)
(1.6050743 -5.0332804e-05 0)
(1.3118909 -3.782781e-05 0)
(1.0160463 -2.3517415e-05 0)
(0.75065752 -1.2895822e-05 0)
(0.5310212 -6.4106023e-06 0)
(0.35921556 -2.8994482e-06 0)
(0.23004148 -1.1695647e-06 0)
(0.13557668 -3.8923269e-07 0)
(0.067818161 -9.7905971e-08 0)
(0.019864628 -1.213176e-08 0)
(0.019863903 1.2430109e-08 0)
(0.067815716 8.6861814e-08 0)
(0.13557187 3.6936059e-07 0)
(0.23003351 1.1025264e-06 0)
(0.35920355 2.7351128e-06 0)
(0.53100445 6.0402995e-06 0)
(0.75063606 1.2140726e-05 0)
(1.0160221 2.2137198e-05 0)
(1.3118699 3.5631002e-05 0)
(1.6050669 4.7488931e-05 0)
(1.8466118 4.5346932e-05 0)
(1.9844924 1.9276951e-05 0)
(1.9844924 -1.9278368e-05 0)
(1.8466118 -4.5349307e-05 0)
(1.6050669 -4.7492045e-05 0)
(1.3118699 -3.5632368e-05 0)
(1.0160221 -2.2133435e-05 0)
(0.75063606 -1.2131048e-05 0)
(0.53100445 -6.0283674e-06 0)
(0.35920355 -2.7258482e-06 0)
(0.23003351 -1.0995382e-06 0)
(0.13557187 -3.6567072e-07 0)
(0.067815717 -9.2608895e-08 0)
(0.019863903 -1.130022e-08 0)
(0.019863221 1.1692896e-08 0)
(0.067813417 8.1748009e-08 0)
(0.13556735 3.4755989e-07 0)
(0.23002601 1.0375133e-06 0)
(0.35919226 2.5740112e-06 0)
(0.53098868 5.6852176e-06 0)
(0.75061585 1.1429388e-05 0)
(1.0159993 2.0848014e-05 0)
(1.31185 3.3581263e-05 0)
(1.6050599 4.4827499e-05 0)
(1.8466272 4.293234e-05 0)
(1.9845266 1.8309526e-05 0)
(1.9845266 -1.8310847e-05 0)
(1.8466272 -4.2934673e-05 0)
(1.6050599 -4.483064e-05 0)
(1.31185 -3.3582637e-05 0)
(1.0159993 -2.0844109e-05 0)
(0.75061585 -1.1419386e-05 0)
(0.53098869 -5.6729086e-06 0)
(0.35919226 -2.5644816e-06 0)
(0.23002601 -1.0344563e-06 0)
(0.13556735 -3.4379855e-07 0)
(0.067813417 -8.7647262e-08 0)
(0.019863221 -1.0535635e-08 0)
(0.019862579 1.100651e-08 0)
(0.067811252 7.6988789e-08 0)
(0.13556309 3.2726432e-07 0)
(0.23001895 9.7698034e-07 0)
(0.35918162 2.4239742e-06 0)
(0.53097384 5.3544091e-06 0)
(0.75059681 1.0766357e-05 0)
(1.0159778 1.9645446e-05 0)
(1.3118312 3.1666179e-05 0)
(1.6050532 4.2328481e-05 0)
(1.8466415 4.0657785e-05 0)
(1.984559 1.7390824e-05 0)
(1.984559 -1.7392006e-05 0)
(1.8466415 -4.0660026e-05 0)
(1.6050532 -4.2331598e-05 0)
(1.3118312 -3.1667535e-05 0)
(1.0159778 -1.9641432e-05 0)
(0.75059682 -1.075613e-05 0)
(0.53097384 -5.3418538e-06 0)
(0.35918162 -2.4142879e-06 0)
(0.23001895 -9.7389388e-07 0)
(0.13556309 -3.234821e-07 0)
(0.067811252 -8.2972156e-08 0)
(0.019862579 -9.8360933e-09 0)
(0.019861974 1.0366195e-08 0)
(0.067809213 7.2550217e-08 0)
(0.13555908 3.0833009e-07 0)
(0.2300123 9.2050554e-07 0)
(0.3591716 2.2839869e-06 0)
(0.53095985 5.0457092e-06 0)
(0.75057886 1.0147367e-05 0)
(1.0159575 1.8521625e-05 0)
(1.3118134 2.9872941e-05 0)
(1.6050467 3.9983113e-05 0)
(1.8466551 3.8495553e-05 0)
(1.9845898 1.6512285e-05 0)
(1.9845898 -1.6513278e-05 0)
(1.8466551 -3.8497641e-05 0)
(1.6050467 -3.9986144e-05 0)
(1.3118134 -2.9874249e-05 0)
(1.0159575 -1.8517545e-05 0)
(0.75057887 -1.0137043e-05 0)
(0.53095985 -5.0330733e-06 0)
(0.3591716 -2.2742815e-06 0)
(0.2300123 -9.174399e-07 0)
(0.13555907 -3.0459104e-07 0)
(0.067809213 -7.853215e-08 0)
(0.019861974 -9.2005632e-09 0)
(0.019861404 9.7685045e-09 0)
(0.067807292 6.8409035e-08 0)
(0.13555529 2.9065965e-07 0)
(0.23000603 8.677905e-07 0)
(0.35916216 2.1532757e-06 0)
(0.53094666 4.7573478e-06 0)
(0.75056194 9.5689102e-06 0)
(1.0159384 1.7470866e-05 0)
(1.3117965 2.8194501e-05 0)
(1.6050405 3.7777709e-05 0)
(1.8466678 3.646368e-05 0)
(1.9846188 1.5680333e-05 0)
(1.9846188 -1.5681081e-05 0)
(1.8466678 -3.6465549e-05 0)
(1.6050405 -3.7780585e-05 0)
(1.3117965 -2.8195727e-05 0)
(1.0159384 -1.7466775e-05 0)
(0.75056194 -9.5586506e-06 0)
(0.53094666 -4.7448384e-06 0)
(0.35916216 -2.1437213e-06 0)
(0.23000603 -8.6480613e-07 0)
(0.13555529 -2.8704266e-07 0)
(0.067807291 -7.4281027e-08 0)
(0.019861404 -8.6302377e-09 0)
(0.019860867 9.2092162e-09 0)
(0.067805479 6.4534354e-08 0)
(0.13555173 2.7412113e-07 0)
(0.23000012 8.1845578e-07 0)
(0.35915325 2.0309624e-06 0)
(0.53093422 4.4875214e-06 0)
(0.75054596 9.0274425e-06 0)
(1.0159203 1.6486225e-05 0)
(1.3117806 2.6618386e-05 0)
(1.6050346 3.570403e-05 0)
(1.8466798 3.45249e-05 0)
(1.9846465 1.4882811e-05 0)
(1.9846465 -1.4883257e-05 0)
(1.8466798 -3.452648e-05 0)
(1.6050346 -3.5706675e-05 0)
(1.3117806 -2.6619498e-05 0)
(1.0159203 -1.6482202e-05 0)
(0.75054596 -9.0174514e-06 0)
(0.53093422 -4.4753973e-06 0)
(0.35915325 -2.0217695e-06 0)
(0.23000012 -8.1562599e-07 0)
(0.13555173 -2.7072219e-07 0)
(0.067805479 -7.0161462e-08 0)
(0.019860867 -8.1261933e-09 0)
(0.01986036 8.6866344e-09 0)
(0.067803771 6.0916418e-08 0)
(0.13554837 2.5867482e-07 0)
(0.22999455 7.7236275e-07 0)
(0.35914485 1.9166141e-06 0)
(0.53092248 4.2350959e-06 0)
(0.75053089 8.5206586e-06 0)
(1.0159032 1.5564515e-05 0)
(1.3117655 2.5142498e-05 0)
(1.605029 3.3753714e-05 0)
(1.846691 3.2711229e-05 0)
(1.9846726 1.4131125e-05 0)
(1.9846726 -1.4131222e-05 0)
(1.846691 -3.2712456e-05 0)
(1.605029 -3.3756052e-05 0)
(1.3117655 -2.514347e-05 0)
(1.0159032 -1.5560664e-05 0)
(0.75053089 -8.5111945e-06 0)
(0.53092248 -4.2236798e-06 0)
(0.35914485 -1.9080436e-06 0)
(0.22999455 -7.6977936e-07 0)
(0.13554836 -2.5561098e-07 0)
(0.06780377 -6.6135879e-08 0)
(0.01986036 -7.69258e-09 0)
(0.019859881 8.1960647e-09 0)
(0.067802156 5.7519054e-08 0)
(0.13554519 2.441652e-07 0)
(0.22998928 7.2908053e-07 0)
(0.35913691 1.8093073e-06 0)
(0.53091139 3.9983319e-06 0)
(0.75051664 8.0452055e-06 0)
(1.0158871 1.4698527e-05 0)
(1.3117512 2.3752092e-05 0)
(1.6050236 3.1915031e-05 0)
(1.8467017 3.0970393e-05 0)
(1.9846975 1.340731e-05 0)
(1.9846975 -1.3407024e-05 0)
(1.8467017 -3.0971206e-05 0)
(1.6050236 -3.1916989e-05 0)
(1.3117512 -2.3752904e-05 0)
(1.0158871 -1.4694982e-05 0)
(0.75051664 -8.0365776e-06 0)
(0.53091139 -3.988001e-06 0)
(0.35913691 -1.8016559e-06 0)
(0.22998928 -7.2683806e-07 0)
(0.13554519 -2.4156693e-07 0)
(0.067802155 -6.213029e-08 0)
(0.019859881 -7.3312244e-09 0)
(0.01985943 7.739086e-09 0)
(0.067800635 5.4357984e-08 0)
(0.13554219 2.3066242e-07 0)
(0.22998432 6.8876482e-07 0)
(0.35912943 1.7091982e-06 0)
(0.53090093 3.7771e-06 0)
(0.7505032 7.6005801e-06 0)
(1.0158719 1.3888952e-05 0)
(1.3117377 2.2453217e-05 0)
(1.6050185 3.0190414e-05 0)
(1.8467117 2.9355379e-05 0)
(1.9847208 1.2730682e-05 0)
(1.9847208 -1.2730008e-05 0)
(1.8467117 -2.9355743e-05 0)
(1.6050185 -3.0191928e-05 0)
(1.3117377 -2.2453864e-05 0)
(1.0158719 -1.3885881e-05 0)
(0.75050321 -7.5931606e-06 0)
(0.53090093 -3.7683036e-06 0)
(0.35912943 -1.702819e-06 0)
(0.22998431 -6.8697995e-07 0)
(0.13554219 -2.2867948e-07 0)
(0.067800633 -5.8136588e-08 0)
(0.019859429 -7.0485873e-09 0)
(0.019859003 7.3079025e-09 0)
(0.067799193 5.1370445e-08 0)
(0.13553936 2.1789699e-07 0)
(0.22997961 6.506983e-07 0)
(0.35912234 1.6148787e-06 0)
(0.53089102 3.5690615e-06 0)
(0.75049047 7.1825568e-06 0)
(1.0158574 1.3126049e-05 0)
(1.3117249 2.1224082e-05 0)
(1.6050136 2.8557118e-05 0)
(1.8467212 2.7791098e-05 0)
(1.9847433 1.2074168e-05 0)
(1.9847433 -1.2073123e-05 0)
(1.8467212 -2.7790988e-05 0)
(1.6050136 -2.8558134e-05 0)
(1.3117249 -2.122457e-05 0)
(1.0158574 -1.3123644e-05 0)
(0.75049047 -7.1767502e-06 0)
(0.53089102 -3.5622701e-06 0)
(0.35912234 -1.6101232e-06 0)
(0.22997961 -6.4946459e-07 0)
(0.13553935 -2.1667251e-07 0)
(0.06779919 -5.4056864e-08 0)
(0.019859002 -6.8408024e-09 0)
(0.0198586 6.9129075e-09 0)
(0.067797836 4.8639724e-08 0)
(0.13553669 2.0622742e-07 0)
(0.22997518 6.1579984e-07 0)
(0.35911566 1.5279985e-06 0)
(0.5308817 3.3765252e-06 0)
(0.75047849 6.7947289e-06 0)
(1.0158438 1.2418754e-05 0)
(1.3117128 2.0087054e-05 0)
(1.605009 2.7040619e-05 0)
(1.84673 2.6362937e-05 0)
(1.9847642 1.1469963e-05 0)
(1.9847642 -1.1468613e-05 0)
(1.84673 -2.6362371e-05 0)
(1.605009 -2.7041108e-05 0)
(1.3117128 -2.0087411e-05 0)
(1.0158438 -1.2417248e-05 0)
(0.75047849 -6.7910028e-06 0)