/*--------------------------------*- C++ -*----------------------------------*\
  =========                 |
  \\      /  F ield         | OpenFOAM: The Open Source CFD Toolbox
   \\    /   O peration     | Website:  https://openfoam.org
    \\  /    A nd           | Version:  10
     \\/     M anipulation  |
\*---------------------------------------------------------------------------*/
FoamFile
{
    format      ascii;
    class       volScalarField;
    location    "49.5";
    object      T;
}
// * * * * * * * * * * * * * * * * * * * * * * * * * * * * * * * * * * * * * //

dimensions      [0 0 0 1 0 0 0];

internalField   nonuniform List<scalar> 
10000
(
374.991
361.311
356.645
354.608
353.51
352.822
352.347
351.997
351.726
351.509
351.33
351.18
351.051
350.938
350.839
350.75
350.67
350.598
350.531
350.47
350.413
350.36
350.31
350.263
350.218
350.176
350.136
350.098
350.061
350.026
349.993
349.96
349.929
349.899
349.87
349.842
349.814
349.788
349.762
349.737
349.713
349.689
349.666
349.644
349.622
349.601
349.58
349.56
349.541
349.521
349.503
349.485
349.467
349.45
349.433
349.416
349.4
349.385
349.369
349.355
349.34
349.326
349.313
349.299
349.287
349.274
349.262
349.25
349.239
349.228
349.218
349.207
349.198
349.188
349.179
349.17
349.162
349.154
349.146
349.139
349.132
349.125
349.119
349.113
349.108
349.102
349.098
349.093
349.089
349.085
349.082
349.079
349.076
349.074
349.072
349.07
349.069
349.068
349.068
349.067
388.635
374.918
367.306
362.885
360.118
358.253
356.917
355.911
355.124
354.488
353.962
353.518
353.135
352.801
352.506
352.242
352.004
351.787
351.589
351.405
351.235
351.075
350.926
350.786
350.653
350.527
350.407
350.292
350.183
350.078
349.977
349.88
349.787
349.696
349.609
349.525
349.443
349.363
349.286
349.211
349.139
349.068
348.999
348.932
348.867
348.803
348.741
348.681
348.622
348.564
348.508
348.454
348.4
348.348
348.298
348.249
348.201
348.154
348.108
348.064
348.021
347.979
347.938
347.898
347.86
347.823
347.786
347.751
347.717
347.685
347.653
347.622
347.593
347.564
347.537
347.511
347.486
347.461
347.438
347.417
347.396
347.376
347.357
347.34
347.323
347.307
347.293
347.28
347.267
347.256
347.246
347.237
347.229
347.222
347.216
347.211
347.207
347.204
347.203
347.202
393.265
382.423
374.774
369.51
365.823
363.156
361.156
359.606
358.37
357.359
356.514
355.794
355.172
354.627
354.143
353.709
353.317
352.96
352.631
352.328
352.046
351.782
351.535
351.302
351.081
350.872
350.673
350.483
350.301
350.126
349.959
349.797
349.642
349.492
349.346
349.206
349.07
348.938
348.809
348.685
348.564
348.446
348.331
348.219
348.111
348.005
347.901
347.801
347.703
347.607
347.514
347.423
347.334
347.248
347.163
347.081
347.001
346.923
346.847
346.774
346.702
346.632
346.564
346.498
346.434
346.372
346.311
346.253
346.196
346.142
346.089
346.038
345.989
345.941
345.896
345.852
345.81
345.77
345.731
345.695
345.66
345.627
345.596
345.567
345.539
345.513
345.489
345.467
345.446
345.428
345.411
345.395
345.382
345.37
345.36
345.352
345.346
345.341
345.339
345.338
395.266
386.735
379.857
374.557
370.51
367.391
364.945
362.989
361.392
360.064
358.939
357.973
357.132
356.391
355.73
355.135
354.596
354.103
353.65
353.23
352.839
352.473
352.13
351.806
351.499
351.208
350.931
350.666
350.412
350.169
349.935
349.71
349.493
349.283
349.081
348.884
348.694
348.509
348.33
348.156
347.987
347.822
347.662
347.506
347.354
347.205
347.061
346.92
346.783
346.649
346.519
346.391
346.267
346.147
346.029
345.914
345.802
345.693
345.587
345.483
345.383
345.285
345.19
345.098
345.008
344.921
344.837
344.755
344.676
344.599
344.525
344.454
344.385
344.319
344.255
344.194
344.135
344.079
344.025
343.974
343.926
343.88
343.836
343.795
343.756
343.72
343.686
343.655
343.626
343.6
343.576
343.555
343.536
343.52
343.506
343.495
343.486
343.48
343.476
343.474
396.328
389.394
383.363
378.351
374.268
370.953
368.246
366.013
364.146
362.565
361.208
360.029
358.994
358.075
357.251
356.507
355.83
355.209
354.636
354.104
353.608
353.144
352.707
352.295
351.904
351.532
351.178
350.84
350.515
350.204
349.905
349.617
349.339
349.07
348.811
348.559
348.315
348.078
347.848
347.625
347.408
347.196
346.991
346.79
346.595
346.405
346.22
346.039
345.863
345.691
345.523
345.36
345.201
345.045
344.894
344.747
344.603
344.463
344.327
344.194
344.065
343.939
343.817
343.698
343.583
343.471
343.363
343.258
343.156
343.058
342.963
342.871
342.783
342.698
342.616
342.537
342.462
342.39
342.321
342.255
342.192
342.133
342.077
342.024
341.975
341.928
341.885
341.845
341.808
341.774
341.744
341.716
341.692
341.671
341.653
341.639
341.627
341.619
341.614
341.612
396.979
391.15
385.85
381.218
377.258
373.908
371.075
368.67
366.615
364.842
363.299
361.942
360.74
359.664
358.694
357.814
357.009
356.268
355.582
354.944
354.348
353.789
353.262
352.764
352.291
351.841
351.412
351.001
350.608
350.23
349.866
349.516
349.178
348.851
348.535
348.229
347.931
347.643
347.363
347.091
346.826
346.569
346.318
346.073
345.835
345.603
345.377
345.157
344.942
344.732
344.528
344.328
344.134
343.944
343.76
343.58
343.404
343.233
343.067
342.905
342.747
342.594
342.445
342.3
342.159
342.023
341.89
341.762
341.638
341.518
341.402
341.29
341.182
341.078
340.978
340.882
340.79
340.702
340.617
340.537
340.461
340.389
340.32
340.255
340.195
340.138
340.085
340.036
339.991
339.95
339.913
339.879
339.85
339.824
339.803
339.785
339.771
339.761
339.755
339.752
397.418
392.379
387.67
383.411
379.641
376.344
373.476
370.98
368.802
366.891
365.203
363.703
362.36
361.149
360.05
359.047
358.125
357.273
356.482
355.745
355.054
354.404
353.79
353.209
352.657
352.131
351.629
351.148
350.687
350.244
349.817
349.406
349.009
348.625
348.253
347.892
347.543
347.203
346.874
346.553
346.241
345.938
345.642
345.354
345.074
344.8
344.533
344.273
344.02
343.773
343.531
343.296
343.067
342.843
342.625
342.413
342.206
342.004
341.808
341.617
341.43
341.249
341.073
340.903
340.737
340.575
340.419
340.268
340.121
339.98
339.843
339.71
339.583
339.46
339.342
339.229
339.12
339.016
338.916
338.822
338.732
338.646
338.565
338.489
338.417
338.35
338.288
338.23
338.177
338.128
338.084
338.045
338.01
337.98
337.954
337.933
337.917
337.905
337.898
337.895
397.732
393.276
389.039
385.116
381.551
378.353
375.505
372.973
370.723
368.717
366.922
365.308
363.85
362.524
361.312
360.2
359.172
358.219
357.331
356.501
355.72
354.984
354.289
353.628
353
352.401
351.828
351.279
350.752
350.245
349.757
349.286
348.83
348.39
347.963
347.549
347.148
346.758
346.379
346.011
345.652
345.303
344.963
344.632
344.309
343.995
343.688
343.389
343.097
342.812
342.535
342.264
342
341.742
341.491
341.247
341.008
340.776
340.549
340.329
340.115
339.906
339.704
339.507
339.315
339.13
338.95
338.775
338.606
338.443
338.285
338.133
337.986
337.844
337.708
337.577
337.452
337.332
337.218
337.108
337.005
336.906
336.813
336.725
336.642
336.565
336.493
336.427
336.365
336.309
336.259
336.213
336.173
336.138
336.109
336.084
336.065
336.052
336.043
336.04
397.967
393.956
390.096
386.461
383.095
380.015
377.217
374.686
372.4
370.334
368.461
366.76
365.208
363.786
362.478
361.269
360.148
359.103
358.126
357.209
356.345
355.528
354.754
354.019
353.318
352.648
352.007
351.392
350.801
350.232
349.683
349.153
348.641
348.145
347.665
347.199
346.746
346.307
345.879
345.464
345.059
344.665
344.281
343.907
343.543
343.187
342.841
342.503
342.173
341.851
341.537
341.231
340.932
340.641
340.357
340.081
339.811
339.548
339.292
339.043
338.8
338.564
338.335
338.112
337.896
337.686
337.482
337.285
337.093
336.909
336.73
336.557
336.391
336.231
336.077
335.929
335.787
335.651
335.522
335.398
335.281
335.169
335.064
334.964
334.871
334.783
334.702
334.626
334.557
334.494
334.436
334.385
334.339
334.3
334.266
334.239
334.217
334.202
334.192
334.189
398.149
394.484
390.928
387.539
384.354
381.394
378.663
376.156
373.859
371.757
369.832
368.064
366.438
364.936
363.546
362.254
361.049
359.922
358.864
357.867
356.925
356.033
355.185
354.378
353.608
352.87
352.164
351.485
350.832
350.202
349.595
349.008
348.44
347.89
347.357
346.84
346.337
345.849
345.374
344.911
344.461
344.023
343.596
343.18
342.774
342.378
341.992
341.615
341.247
340.889
340.539
340.198
339.865
339.54
339.224
338.915
338.614
338.321
338.036
337.758
337.487
337.224
336.968
336.72
336.478
336.244
336.016
335.796
335.583
335.377
335.177
334.985
334.799
334.621
334.449
334.284
334.125
333.974
333.829
333.691
333.56
333.435
333.318
333.207
333.102
333.005
332.914
332.83
332.752
332.681
332.617
332.56
332.509
332.465
332.428
332.397
332.373
332.356
332.345
332.341
398.292
394.902
391.595
388.413
385.39
382.545
379.886
377.416
375.126
373.007
371.046
369.229
367.544
365.978
364.519
363.154
361.876
360.675
359.543
358.473
357.46
356.497
355.58
354.705
353.868
353.067
352.297
351.557
350.844
350.156
349.491
348.849
348.227
347.624
347.039
346.472
345.92
345.383
344.861
344.353
343.858
343.376
342.906
342.448
342.001
341.565
341.14
340.725
340.321
339.926
339.54
339.164
338.797
338.439
338.091
337.75
337.419
337.096
336.781
336.474
336.176
335.886
335.603
335.329
335.063
334.804
334.553
334.31
334.075
333.848
333.628
333.415
333.21
333.013
332.824
332.641
332.467
332.299
332.14
331.988
331.843
331.705
331.575
331.453
331.338
331.23
331.13
331.037
330.951
330.873
330.802
330.739
330.683
330.635
330.593
330.559
330.533
330.514
330.502
330.498
398.406
395.24
392.136
389.13
386.248
383.509
380.924
378.496
376.223
374.099
372.117
370.265
368.535
366.916
365.398
363.972
362.629
361.362
360.163
359.027
357.947
356.918
355.937
354.998
354.099
353.235
352.405
351.606
350.836
350.091
349.372
348.675
348.001
347.346
346.711
346.094
345.494
344.91
344.342
343.789
343.25
342.725
342.213
341.713
341.226
340.751
340.287
339.834
339.392
338.961
338.541
338.13
337.73
337.339
336.958
336.586
336.224
335.871
335.527
335.192
334.866
334.549
334.241
333.941
333.65
333.367
333.093
332.827
332.57
332.321
332.081
331.849
331.625
331.409
331.202
331.003
330.812
330.629
330.454
330.288
330.13
329.979
329.837
329.703
329.577
329.46
329.35
329.248
329.155
329.069
328.992
328.923
328.862
328.808
328.763
328.726
328.697
328.677
328.664
328.659
398.5
395.516
392.581
389.722
386.964
384.321
381.806
379.423
377.173
375.053
373.059
371.183
369.418
367.756
366.189
364.709
363.31
361.984
360.726
359.528
358.387
357.298
356.255
355.257
354.298
353.376
352.489
351.633
350.807
350.008
349.235
348.487
347.761
347.056
346.371
345.706
345.059
344.429
343.816
343.218
342.636
342.068
341.515
340.974
340.447
339.933
339.431
338.941
338.463
337.996
337.54
337.096
336.662
336.238
335.826
335.423
335.03
334.648
334.275
333.912
333.558
333.214
332.88
332.555
332.239
331.933
331.636
331.348
331.069
330.799
330.538
330.286
330.043
329.809
329.584
329.368
329.161
328.963
328.773
328.593
328.421
328.258
328.104
327.958
327.822
327.694
327.575
327.465
327.363
327.271
327.187
327.111
327.045
326.987
326.939
326.898
326.867
326.844
326.83
326.825
398.577
395.744
392.949
390.216
387.564
385.008
382.557
380.218
377.994
375.884
373.884
371.991
370.2
368.503
366.895
365.37
363.921
362.543
361.231
359.978
358.781
357.634
356.536
355.48
354.466
353.488
352.546
351.636
350.757
349.906
349.081
348.282
347.506
346.753
346.02
345.308
344.615
343.94
343.282
342.641
342.016
341.406
340.812
340.232
339.665
339.112
338.573
338.046
337.532
337.03
336.539
336.061
335.594
335.138
334.694
334.26
333.838
333.426
333.024
332.633
332.253
331.882
331.522
331.172
330.832
330.502
330.182
329.871
329.571
329.28
328.999
328.727
328.466
328.214
327.971
327.738
327.515
327.301
327.097
326.902
326.717
326.541
326.375
326.218
326.071
325.933
325.805
325.686
325.577
325.477
325.387
325.305
325.234
325.172
325.119
325.076
325.042
325.018
325.003
324.997
398.641
395.933
393.256
390.63
388.07
385.589
383.198
380.902
378.704
376.606
374.606
372.702
370.89
369.165
367.523
365.958
364.466
363.042
361.68
360.377
359.128
357.929
356.778
355.669
354.602
353.572
352.577
351.616
350.685
349.784
348.91
348.061
347.237
346.436
345.657
344.899
344.16
343.441
342.74
342.057
341.39
340.739
340.104
339.485
338.88
338.289
337.712
337.149
336.599
336.062
335.538
335.026
334.526
334.039
333.563
333.099
332.647
332.206
331.776
331.357
330.949
330.553
330.167
329.792
329.428
329.074
328.731
328.398
328.076
327.765
327.464
327.173
326.892
326.622
326.362
326.113
325.873
325.644
325.426
325.217
325.018
324.83
324.652
324.484
324.326
324.178
324.041
323.914
323.796
323.689
323.592
323.505
323.429
323.362
323.305
323.259
323.223
323.197
323.181
323.175
398.694
396.091
393.514
390.978
388.498
386.084
383.745
381.488
379.317
377.232
375.235
373.324
371.496
369.748
368.077
366.478
364.947
363.481
362.076
360.726
359.43
358.183
356.982
355.824
354.706
353.627
352.583
351.572
350.592
349.642
348.72
347.824
346.953
346.106
345.282
344.479
343.696
342.934
342.19
341.465
340.757
340.066
339.392
338.734
338.091
337.463
336.849
336.25
335.665
335.094
334.536
333.991
333.459
332.94
332.433
331.939
331.457
330.987
330.529
330.083
329.649
329.226
328.815
328.415
328.027
327.65
327.284
326.93
326.586
326.254
325.933
325.623
325.324
325.036
324.759
324.493
324.237
323.993
323.76
323.537
323.325
323.124
322.934
322.755
322.587
322.429
322.283
322.147
322.022
321.907
321.804
321.711
321.629
321.558
321.498
321.449
321.41
321.382
321.365
321.358
398.739
396.224
393.731
391.272
388.86
386.504
384.212
381.991
379.844
377.774
375.781
373.865
372.025
370.258
368.562
366.933
365.369
363.866
362.42
361.029
359.688
358.396
357.149
355.945
354.78
353.653
352.562
351.503
350.477
349.48
348.512
347.57
346.654
345.762
344.894
344.048
343.222
342.418
341.633
340.866
340.119
339.388
338.675
337.978
337.298
336.633
335.984
335.35
334.73
334.124
333.533
332.956
332.392
331.842
331.304
330.78
330.269
329.771
329.285
328.812
328.351
327.902
327.466
327.042
326.63
326.23
325.841
325.465
325.101
324.748
324.407
324.078
323.76
323.455
323.16
322.878
322.607
322.347
322.099
321.863
321.638
321.425
321.223
321.033
320.854
320.687
320.531
320.387
320.254
320.132
320.022
319.924
319.837
319.762
319.698
319.645
319.604
319.574
319.556
319.549
398.777
396.337
393.914
391.521
389.168
386.862
384.612
382.422
380.298
378.241
376.253
374.335
372.485
370.702
368.984
367.329
365.735
364.198
362.716
361.286
359.905
358.571
357.281
356.032
354.823
353.651
352.515
351.412
350.34
349.299
348.286
347.3
346.34
345.405
344.494
343.605
342.738
341.893
341.067
340.261
339.473
338.704
337.953
337.219
336.502
335.801
335.116
334.447
333.793
333.154
332.53
331.921
331.325
330.744
330.177
329.623
329.083
328.557
328.043
327.543
327.056
326.582
326.121
325.672
325.237
324.814
324.403
324.005
323.62
323.247
322.886
322.538
322.202
321.879
321.568
321.269
320.982
320.708
320.445
320.195
319.957
319.732
319.518
319.317
319.128
318.951
318.786
318.633
318.493
318.364
318.248
318.144
318.052
317.972
317.904
317.848
317.805
317.774
317.754
317.747
398.809
396.431
394.069
391.732
389.428
387.166
384.952
382.791
380.687
378.642
376.66
374.739
372.881
371.084
369.348
367.67
366.048
364.48
362.965
361.499
360.081
358.708
357.377
356.088
354.837
353.623
352.443
351.297
350.182
349.098
348.042
347.014
346.012
345.035
344.082
343.152
342.244
341.358
340.493
339.648
338.822
338.015
337.227
336.456
335.702
334.966
334.246
333.543
332.855
332.184
331.527
330.886
330.259
329.648
329.051
328.468
327.899
327.345
326.804
326.278
325.765
325.265
324.779
324.307
323.848
323.402
322.97
322.55
322.144
321.751
321.371
321.004
320.65
320.309
319.981
319.666
319.364
319.074
318.798
318.534
318.283
318.045
317.82
317.608
317.409
317.222
317.048
316.887
316.739
316.603
316.481
316.371
316.274
316.19
316.118
316.06
316.014
315.981
315.96
315.953
398.836
396.511
394.2
391.91
389.649
387.424
385.241
383.104
381.018
378.985
377.007
375.086
373.22
371.411
369.658
367.959
366.312
364.717
363.171
361.672
360.219
358.809
357.441
356.112
354.822
353.567
352.347
351.16
350.004
348.878
347.781
346.711
345.668
344.65
343.657
342.687
341.74
340.815
339.911
339.028
338.164
337.32
336.495
335.688
334.9
334.128
333.374
332.637
331.917
331.212
330.524
329.851
329.194
328.553
327.926
327.315
326.718
326.136
325.568
325.015
324.477
323.952
323.442
322.946
322.464
321.996
321.541
321.101
320.674
320.261
319.862
319.476
319.104
318.746
318.401
318.07
317.752
317.448
317.157
316.88
316.616
316.366
316.13
315.907
315.697
315.501
315.318
315.149
314.993
314.85
314.722
314.606
314.504
314.416
314.34
314.279
314.231
314.196
314.174
314.167
398.858
396.578
394.31
392.06
389.836
387.643
385.486
383.37
381.3
379.276
377.302
375.379
373.508
371.688
369.919
368.2
366.531
364.91
363.336
361.807
360.321
358.877
357.473
356.107
354.779
353.486
352.227
351
349.805
348.639
347.502
346.393
345.31
344.253
343.221
342.212
341.227
340.263
339.322
338.401
337.501
336.62
335.759
334.917
334.094
333.288
332.5
331.73
330.977
330.241
329.521
328.818
328.13
327.459
326.804
326.164
325.539
324.93
324.336
323.757
323.193
322.644
322.109
321.59
321.084
320.594
320.118
319.656
319.209
318.777
318.358
317.954
317.564
317.189
316.827
316.48
316.147
315.829
315.524
315.233
314.957
314.695
314.447
314.213
313.993
313.787
313.596
313.418
313.255
313.106
312.971
312.85
312.743
312.65
312.571
312.506
312.456
312.419
312.397
312.389
398.877
396.635
394.403
392.187
389.993
387.826
385.692
383.595
381.537
379.521
377.551
375.626
373.748
371.918
370.135
368.399
366.708
365.063
363.462
361.904
360.388
358.912
357.474
356.074
354.71
353.38
352.084
350.819
349.586
348.382
347.207
346.059
344.938
343.843
342.773
341.726
340.703
339.703
338.724
337.767
336.831
335.915
335.019
334.142
333.285
332.446
331.625
330.822
330.037
329.269
328.518
327.785
327.068
326.367
325.683
325.015
324.363
323.727
323.107
322.502
321.913
321.339
320.781
320.238
319.71
319.198
318.7
318.218
317.751
317.299
316.861
316.439
316.031
315.639
315.261
314.898
314.55
314.217
313.898
313.595
313.306
313.032
312.772
312.528
312.298
312.083
311.882
311.697
311.526
311.37
311.228
311.102
310.99
310.893
310.811
310.743
310.69
310.652
310.629
310.62
398.893
396.682
394.48
392.292
390.124
387.98
385.865
383.782
381.734
379.726
377.757
375.83
373.946
372.106
370.31
368.556
366.847
365.179
363.553
361.968
360.423
358.916
357.447
356.013
354.615
353.25
351.918
350.618
349.348
348.108
346.895
345.711
344.553
343.421
342.313
341.23
340.171
339.134
338.12
337.127
336.156
335.205
334.275
333.364
332.473
331.601
330.747
329.913
329.096
328.297
327.516
326.753
326.006
325.277
324.565
323.869
323.19
322.527
321.881
321.251
320.637
320.039
319.458
318.892
318.342
317.807
317.289
316.786
316.299
315.827
315.371
314.931
314.506
314.096
313.702
313.324
312.961
312.613
312.281
311.964
311.663
311.377
311.106
310.851
310.611
310.387
310.178
309.984
309.806
309.643
309.495
309.363
309.247
309.145
309.059
308.989
308.934
308.894
308.87
308.86
398.906
396.721
394.544
392.38
390.233
388.107
386.007
383.936
381.897
379.893
377.926
375.996
374.106
372.256
370.447
368.677
366.949
365.26
363.611
362
360.428
358.892
357.392
355.927
354.496
353.098
351.732
350.397
349.092
347.816
346.568
345.348
344.154
342.986
341.843
340.724
339.629
338.557
337.508
336.481
335.475
334.49
333.526
332.582
331.658
330.754
329.869
329.003
328.155
327.326
326.515
325.722
324.947
324.189
323.449
322.726
322.02
321.331
320.66
320.005
319.366
318.745
318.14
317.551
316.979
316.423
315.884
315.361
314.854
314.363
313.888
313.43
312.988
312.562
312.151
311.757
311.38
311.018
310.672
310.342
310.028
309.731
309.449
309.183
308.934
308.7
308.482
308.281
308.095
307.925
307.772
307.634
307.513
307.407
307.318
307.245
307.187
307.146
307.12
307.111
398.917
396.754
394.597
392.452
390.322
388.211
386.123
384.062
382.029
380.028
378.06
376.128
374.231
372.371
370.549
368.765
367.018
365.309
363.637
362.003
360.404
358.84
357.312
355.817
354.354
352.925
351.526
350.157
348.819
347.508
346.226
344.971
343.743
342.54
341.362
340.209
339.079
337.973
336.889
335.828
334.789
333.771
332.774
331.798
330.842
329.905
328.989
328.092
327.214
326.355
325.514
324.693
323.889
323.103
322.336
321.586
320.854
320.139
319.442
318.763
318.1
317.455
316.827
316.216
315.622
315.045
314.485
313.942
313.415
312.906
312.413
311.937
311.477
311.035
310.609
310.2
309.807
309.431
309.072
308.729
308.403
308.094
307.801
307.525
307.266
307.023
306.797
306.587
306.394
306.218
306.058
305.916
305.789
305.68
305.587
305.51
305.451
305.408
305.381
305.371
398.926
396.78
394.639
392.509
390.393
388.294
386.216
384.162
382.134
380.134
378.165
376.228
374.324
372.455
370.62
368.821
367.057
365.329
363.635
361.977
360.353
358.764
357.207
355.683
354.191
352.731
351.3
349.9
348.529
347.185
345.87
344.581
343.319
342.083
340.871
339.684
338.521
337.381
336.264
335.17
334.098
333.048
332.018
331.01
330.023
329.056
328.108
327.181
326.273
325.385
324.515
323.665
322.833
322.02
321.226
320.45
319.692
318.952
318.23
317.526
316.84
316.171
315.521
314.887
314.272
313.674
313.093
312.53
311.985
311.456
310.945
310.452
309.976
309.517
309.075
308.65
308.243
307.853
307.481
307.125
306.787
306.466
306.163
305.877
305.607
305.356
305.121
304.904
304.704
304.521
304.355
304.207
304.076
303.962
303.866
303.787
303.725
303.68
303.653
303.643
398.933
396.8
394.673
392.555
390.449
388.36
386.289
384.239
382.213
380.214
378.242
376.3
374.389
372.509
370.662
368.848
367.068
365.321
363.607
361.926
360.278
358.663
357.08
355.528
354.008
352.517
351.057
349.626
348.223
346.848
345.5
344.179
342.884
341.615
340.37
339.151
337.955
336.783
335.633
334.507
333.403
332.321
331.26
330.221
329.202
328.204
327.227
326.27
325.333
324.416
323.518
322.64
321.78
320.94
320.119
319.317
318.534
317.769
317.022
316.294
315.585
314.893
314.22
313.565
312.928
312.31
311.709
311.126
310.562
310.015
309.486
308.975
308.482
308.007
307.55
307.11
306.689
306.285
305.9
305.532
305.182
304.849
304.535
304.238
303.96
303.699
303.456
303.231
303.024
302.835
302.663
302.51
302.374
302.256
302.156
302.074
302.01
301.964
301.936
301.925
398.938
396.816
394.699
392.59
390.492
388.409
386.342
384.296
382.271
380.27
378.295
376.347
374.428
372.538
370.679
368.85
367.053
365.287
363.553
361.851
360.18
358.541
356.932
355.353
353.805
352.286
350.797
349.335
347.902
346.496
345.117
343.765
342.438
341.137
339.861
338.609
337.382
336.178
334.997
333.839
332.703
331.59
330.499
329.429
328.38
327.353
326.346
325.36
324.394
323.448
322.522
321.617
320.73
319.864
319.017
318.189
317.38
316.59
315.82
315.068
314.335
313.622
312.926
312.25
311.592
310.953
310.332
309.73
309.147
308.582
308.035
307.507
306.998
306.507
306.034
305.58
305.144
304.727
304.328
303.948
303.586
303.243
302.917
302.611
302.323
302.053
301.802
301.569
301.355
301.159
300.982
300.823
300.683
300.561
300.458
300.373
300.307
300.259
300.23
300.219
398.942
396.827
394.717
392.615
390.523
388.443
386.38
384.334
382.309
380.305
378.326
376.371
374.443
372.543
370.671
368.828
367.015
365.231
363.478
361.754
360.061
358.398
356.764
355.16
353.585
352.038
350.52
349.03
347.567
346.132
344.723
343.34
341.982
340.65
339.343
338.06
336.802
335.567
334.355
333.166
332
330.856
329.735
328.635
327.557
326.5
325.464
324.45
323.456
322.482
321.529
320.596
319.683
318.791
317.918
317.065
316.231
315.417
314.623
313.848
313.093
312.356
311.639
310.942
310.263
309.604
308.964
308.342
307.74
307.157
306.594
306.049
305.523
305.016
304.528
304.06
303.61
303.179
302.767
302.375
302.001
301.647
301.311
300.995
300.697
300.419
300.159
299.919
299.698
299.496
299.313
299.149
299.004
298.878
298.772
298.684
298.616
298.566
298.536
298.525
398.945
396.835
394.73
392.631
390.542
388.465
386.403
384.356
382.329
380.321
378.336
376.374
374.437
372.526
370.641
368.784
366.954
365.153
363.381
361.637
359.922
358.236
356.578
354.949
353.348
351.775
350.229
348.711
347.22
345.755
344.317
342.904
341.517
340.155
338.817
337.504
336.215
334.95
333.708
332.49
331.294
330.12
328.969
327.84
326.733
325.648
324.584
323.541
322.519
321.518
320.538
319.579
318.64
317.721
316.823
315.945
315.087
314.25
313.432
312.634
311.856
311.098
310.36
309.641
308.942
308.263
307.603
306.963
306.343
305.742
305.161
304.6
304.058
303.535
303.033
302.549
302.086
301.642
301.217
300.813
300.427
300.062
299.716
299.39
299.083
298.796
298.528
298.281
298.053
297.844
297.656
297.486
297.337
297.207
297.098
297.007
296.937
296.886
296.855
296.843
398.946
396.84
394.737
392.64
390.553
388.476
386.412
384.364
382.333
380.321
378.329
376.359
374.412
372.489
370.592
368.72
366.875
365.056
363.265
361.501
359.765
358.056
356.375
354.721
353.095
351.496
349.924
348.379
346.86
345.367
343.9
342.458
341.042
339.651
338.284
336.942
335.623
334.329
333.057
331.809
330.584
329.382
328.202
327.044
325.909
324.795
323.703
322.633
321.584
320.557
319.55
318.565
317.6
316.656
315.733
314.831
313.949
313.088
312.247
311.427
310.627
309.847
309.087
308.348
307.629
306.93
306.252
305.593
304.955
304.336
303.738
303.16
302.603
302.065
301.547
301.05
300.573
300.116
299.679
299.262
298.865
298.489
298.133
297.796
297.481
297.185
296.91
296.655
296.42
296.205
296.011
295.837
295.683
295.549
295.436
295.343
295.27
295.218
295.186
295.174
398.947
396.841
394.739
392.643
390.554
388.476
386.41
384.358
382.323
380.304
378.305
376.327
374.369
372.435
370.524
368.638
366.777
364.941
363.131
361.348
359.591
357.86
356.156
354.479
352.828
351.204
349.606
348.034
346.489
344.968
343.474
342.004
340.56
339.14
337.744
336.373
335.026
333.703
332.403
331.126
329.872
328.642
327.434
326.248
325.085
323.944
322.825
321.727
320.652
319.598
318.565
317.554
316.565
315.596
314.649
313.722
312.817
311.932
311.069
310.226
309.404
308.603
307.823
307.063
306.325
305.606
304.909
304.232
303.576
302.94
302.326
301.731
301.158
300.605
300.073
299.561
299.071
298.601
298.151
297.723
297.315
296.928
296.561
296.216
295.891
295.587
295.304
295.041
294.8
294.579
294.379
294.2
294.042
293.904
293.788
293.692
293.617
293.564
293.531
293.518
398.946
396.84
394.737
392.639
390.548
388.467
386.398
384.341
382.3
380.274
378.267
376.279
374.311
372.365
370.441
368.54
366.663
364.81
362.982
361.179
359.401
357.65
355.923
354.223
352.549
350.9
349.277
347.679
346.107
344.56
343.038
341.542
340.069
338.622
337.199
335.799
334.424
333.073
331.745
330.44
329.159
327.9
326.664
325.451
324.261
323.093
321.947
320.823
319.722
318.642
317.584
316.548
315.533
314.54
313.569
312.619
311.691
310.783
309.898
309.033
308.19
307.368
306.567
305.787
305.029
304.292
303.576
302.881
302.207
301.555
300.923
300.313
299.724
299.156
298.61
298.085
297.58
297.098
296.636
296.196
295.777
295.379
295.003
294.647
294.314
294.001
293.71
293.441
293.193
292.966
292.76
292.576
292.414
292.273
292.153
292.055
291.978
291.923
291.889
291.876
398.945
396.836
394.73
392.629
390.535
388.45
386.376
384.313
382.265
380.232
378.216
376.217
374.238
372.28
370.342
368.426
366.533
364.664
362.817
360.995
359.198
357.425
355.677
353.954
352.256
350.584
348.936
347.313
345.716
344.143
342.595
341.071
339.573
338.098
336.647
335.221
333.818
332.439
331.084
329.752
328.443
327.158
325.895
324.655
323.438
322.244
321.072
319.922
318.795
317.69
316.607
315.546
314.507
313.49
312.495
311.522
310.571
309.641
308.734
307.848
306.983
306.141
305.32
304.52
303.743
302.987
302.252
301.54
300.849
300.179
299.532
298.906
298.302
297.719
297.158
296.619
296.102
295.607
295.133
294.681
294.251
293.843
293.457
293.092
292.75
292.429
292.131
291.854
291.599
291.366
291.155
290.967
290.8
290.655
290.532
290.431
290.352
290.296
290.261
290.248
398.943
396.83
394.72
392.615
390.516
388.426
386.345
384.276
382.22
380.178
378.152
376.143
374.153
372.181
370.23
368.299
366.39
364.504
362.64
360.799
358.982
357.188
355.419
353.674
351.953
350.257
348.586
346.938
345.316
343.718
342.144
340.595
339.069
337.568
336.091
334.638
333.209
331.803
330.421
329.062
327.727
326.415
325.126
323.86
322.617
321.396
320.199
319.024
317.871
316.741
315.634
314.549
313.486
312.446
311.428
310.432
309.458
308.506
307.577
306.67
305.785
304.922
304.081
303.262
302.466
301.691
300.939
300.209
299.501
298.815
298.151
297.51
296.891
296.294
295.719
295.167
294.636
294.128
293.643
293.18
292.739
292.32
291.924
291.551
291.2
290.871
290.565
290.281
290.02
289.781
289.565
289.371
289.2
289.051
288.925
288.822
288.741
288.683
288.647
288.634
398.941
396.823
394.708
392.597
390.492
388.395
386.307
384.23
382.165
380.114
378.078
376.058
374.055
372.071
370.105
368.16
366.235
364.331
362.45
360.59
358.754
356.94
355.15
353.383
351.64
349.921
348.226
346.555
344.908
343.285
341.686
340.112
338.561
337.034
335.531
334.052
332.597
331.165
329.756
328.372
327.01
325.672
324.357
323.065
321.797
320.551
319.328
318.128
316.951
315.797
314.665
313.557
312.471
311.407
310.366
309.348
308.352
307.379
306.429
305.501
304.595
303.712
302.852
302.014
301.199
300.406
299.636
298.889
298.164
297.462
296.783
296.126
295.492
294.88
294.292
293.726
293.183
292.663
292.166
291.691
291.24
290.811
290.406
290.023
289.663
289.327
289.013
288.722
288.455
288.21
287.989
287.79
287.615
287.463
287.334
287.228
287.145
287.085
287.049
287.035
398.938
396.813
394.692
392.574
390.462
388.358
386.262
384.177
382.103
380.041
377.995
375.963
373.948
371.95
369.97
368.009
366.069
364.148
362.249
360.371
358.515
356.681
354.871
353.083
351.318
349.576
347.858
346.164
344.493
342.846
341.223
339.623
338.048
336.496
334.967
333.463
331.982
330.524
329.091
327.68
326.293
324.93
323.589
322.272
320.979
319.708
318.461
317.237
316.035
314.857
313.702
312.57
311.461
310.375
309.312
308.271
307.254
306.26
305.288
304.34
303.414
302.512
301.632
300.776
299.942
299.132
298.344
297.58
296.839
296.121
295.426
294.754
294.105
293.48
292.878
292.299
291.743
291.211
290.702
290.217
289.755
289.316
288.901
288.509
288.141
287.797
287.476
287.178
286.904
286.654
286.427
286.224
286.045
285.889
285.757
285.649
285.564
285.503
285.465
285.451
398.934
396.803
394.674
392.548
390.429
388.316
386.211
384.116
382.032
379.961
377.902
375.859
373.83
371.819
369.825
367.849
365.892
363.955
362.038
360.142
358.267
356.414
354.582
352.774