/*--------------------------------*- C++ -*----------------------------------*\
  =========                 |
  \\      /  F ield         | OpenFOAM: The Open Source CFD Toolbox
   \\    /   O peration     | Website:  https://openfoam.org
    \\  /    A nd           | Version:  10
     \\/     M anipulation  |
\*---------------------------------------------------------------------------*/
FoamFile
{
    format      ascii;
    class       volScalarField;
    location    "14";
    object      T;
}
// * * * * * * * * * * * * * * * * * * * * * * * * * * * * * * * * * * * * * //

dimensions      [0 0 0 1 0 0 0];

internalField   nonuniform List<scalar> 
10000
(
374.969
361.231
356.51
354.418
353.265
352.523
351.993
351.589
351.264
350.994
350.762
350.558
350.377
350.213
350.062
349.923
349.793
349.671
349.556
349.446
349.342
349.242
349.146
349.054
348.965
348.88
348.797
348.717
348.64
348.565
348.492
348.422
348.353
348.287
348.222
348.16
348.099
348.04
347.983
347.928
347.874
347.822
347.771
347.722
347.674
347.628
347.584
347.541
347.499
347.458
347.419
347.382
347.345
347.31
347.276
347.244
347.212
347.182
347.153
347.124
347.098
347.072
347.047
347.023
347
346.978
346.957
346.937
346.918
346.9
346.883
346.866
346.85
346.835
346.821
346.808
346.795
346.783
346.772
346.761
346.751
346.742
346.733
346.725
346.717
346.71
346.704
346.698
346.693
346.688
346.684
346.68
346.677
346.674
346.672
346.67
346.669
346.668
346.668
346.668
388.556
374.669
366.891
362.306
359.374
357.345
355.846
354.678
353.729
352.933
352.248
351.645
351.106
350.617
350.168
349.752
349.364
348.999
348.653
348.326
348.013
347.714
347.427
347.151
346.886
346.629
346.381
346.142
345.91
345.685
345.467
345.256
345.051
344.852
344.659
344.471
344.289
344.113
343.941
343.775
343.613
343.457
343.305
343.158
343.015
342.877
342.744
342.614
342.489
342.368
342.251
342.137
342.028
341.923
341.821
341.723
341.629
341.538
341.45
341.366
341.285
341.207
341.133
341.061
340.993
340.927
340.864
340.804
340.747
340.692
340.64
340.591
340.543
340.499
340.456
340.416
340.378
340.342
340.308
340.276
340.246
340.218
340.192
340.167
340.145
340.124
340.105
340.087
340.071
340.057
340.044
340.033
340.024
340.015
340.009
340.003
340
339.997
339.996
339.997
393.13
382.009
374.085
368.546
364.585
361.645
359.373
357.553
356.047
354.769
353.658
352.675
351.792
350.988
350.248
349.561
348.919
348.314
347.742
347.198
346.68
346.183
345.706
345.248
344.806
344.38
343.968
343.569
343.183
342.809
342.447
342.095
341.753
341.422
341.101
340.788
340.485
340.191
339.906
339.629
339.36
339.099
338.847
338.601
338.364
338.134
337.911
337.696
337.487
337.285
337.09
336.902
336.72
336.544
336.375
336.211
336.054
335.903
335.757
335.617
335.482
335.352
335.228
335.109
334.995
334.886
334.781
334.681
334.586
334.494
334.408
334.325
334.246
334.172
334.101
334.034
333.97
333.91
333.854
333.8
333.75
333.704
333.66
333.62
333.582
333.547
333.515
333.486
333.46
333.436
333.415
333.396
333.38
333.367
333.355
333.347
333.34
333.336
333.335
333.336
395.076
386.156
378.893
373.209
368.778
365.277
362.451
360.116
358.143
356.44
354.945
353.61
352.404
351.3
350.281
349.333
348.443
347.605
346.81
346.054
345.332
344.641
343.976
343.337
342.721
342.126
341.551
340.994
340.455
339.933
339.426
338.935
338.458
337.995
337.545
337.109
336.685
336.274
335.875
335.487
335.112
334.747
334.394
334.051
333.719
333.397
333.085
332.784
332.492
332.21
331.937
331.673
331.419
331.173
330.936
330.708
330.488
330.276
330.072
329.876
329.687
329.506
329.332
329.166
329.006
328.853
328.707
328.567
328.433
328.306
328.184
328.069
327.959
327.854
327.755
327.661
327.572
327.488
327.409
327.335
327.265
327.2
327.139
327.082
327.029
326.981
326.936
326.895
326.858
326.825
326.795
326.769
326.747
326.728
326.712
326.7
326.691
326.685
326.683
326.684
396.083
388.65
382.125
376.62
372.044
368.238
365.043
362.323
359.972
357.91
356.076
354.425
352.92
351.536
350.253
349.054
347.927
346.862
345.851
344.887
343.966
343.083
342.234
341.417
340.628
339.866
339.13
338.417
337.726
337.056
336.406
335.776
335.164
334.57
333.994
333.434
332.89
332.362
331.85
331.353
330.87
330.402
329.948
329.508
329.082
328.669
328.269
327.881
327.507
327.144
326.794
326.455
326.128
325.813
325.509
325.215
324.933
324.66
324.398
324.147
323.904
323.672
323.449
323.235
323.029
322.833
322.645
322.465
322.294
322.13
321.974
321.825
321.684
321.55
321.422
321.302
321.188
321.08
320.978
320.883
320.793
320.709
320.631
320.558
320.49
320.428
320.37
320.318
320.271
320.228
320.19
320.156
320.127
320.103
320.083
320.067
320.056
320.049
320.046
320.047
396.68
390.243
384.339
379.104
374.543
370.593
367.164
364.166
361.52
359.16
357.034
355.1
353.325
351.682
350.151
348.715
347.361
346.078
344.858
343.693
342.577
341.507
340.477
339.484
338.526
337.6
336.704
335.836
334.995
334.179
333.388
332.62
331.874
331.15
330.447
329.764
329.101
328.458
327.833
327.226
326.638
326.067
325.513
324.976
324.456
323.952
323.464
322.991
322.534
322.091
321.664
321.251
320.852
320.467
320.095
319.737
319.392
319.06
318.74
318.433
318.137
317.853
317.581
317.32
317.069
316.829
316.6
316.381
316.171
315.971
315.781
315.599
315.427
315.263
315.107
314.96
314.821
314.689
314.565
314.448
314.339
314.236
314.141
314.052
313.969
313.893
313.823
313.759
313.701
313.649
313.602
313.561
313.526
313.496
313.472
313.452
313.438
313.43
313.426
313.428
397.065
391.308
385.886
380.916
376.437
372.433
368.86
365.664
362.789
360.186
357.811
355.629
353.61
351.729
349.968
348.309
346.739
345.248
343.826
342.466
341.162
339.909
338.702
337.538
336.413
335.325
334.272
333.251
332.262
331.302
330.371
329.466
328.588
327.735
326.907
326.102
325.321
324.562
323.826
323.111
322.417
321.744
321.09
320.457
319.844
319.249
318.673
318.116
317.576
317.054
316.55
316.063
315.592
315.138
314.7
314.277
313.87
313.478
313.101
312.738
312.389
312.054
311.732
311.424
311.128
310.845
310.575
310.316
310.069
309.833
309.608
309.394
309.19
308.997
308.813
308.639
308.475
308.32
308.173
308.035
307.906
307.785
307.672
307.567
307.47
307.38
307.297
307.222
307.153
307.092
307.037
306.988
306.947
306.911
306.882
306.86
306.843
306.833
306.829
306.831
397.325
392.043
386.985
382.242
377.86
373.848
370.188
366.849
363.796
360.993
358.407
356.007
353.77
351.673
349.698
347.83
346.057
344.367
342.752
341.205
339.718
338.288
336.908
335.576
334.288
333.042
331.834
330.663
329.528
328.426
327.356
326.317
325.307
324.327
323.374
322.449
321.551
320.678
319.83
319.008
318.209
317.434
316.683
315.954
315.247
314.563
313.9
313.258
312.637
312.036
311.455
310.894
310.352
309.829
309.324
308.838
308.369
307.917
307.483
307.065
306.663
306.277
305.907
305.551
305.211
304.885
304.573
304.275
303.99
303.718
303.459
303.213
302.978
302.755
302.544
302.344
302.154
301.975
301.807
301.648
301.499
301.36
301.23
301.108
300.996
300.893
300.797
300.71
300.631
300.56
300.497
300.442
300.393
300.353
300.319
300.293
300.274
300.263
300.258
300.26
397.506
392.56
387.772
383.211
378.92
374.918
371.203
367.759
364.565
361.596
358.829
356.239
353.806
351.511
349.34
347.277
345.312
343.434
341.635
339.907
338.244
336.641
335.094
333.598
332.151
330.749
329.39
328.072
326.792
325.55
324.343
323.171
322.033
320.926
319.851
318.806
317.792
316.806
315.849
314.919
314.017
313.141
312.292
311.468
310.669
309.896
309.146
308.42
307.718
307.039
306.382
305.748
305.135
304.543
303.972
303.422
302.892
302.381
301.89
301.417
300.962
300.526
300.107
299.705
299.32
298.952
298.599
298.261
297.939
297.632
297.339
297.06
296.794
296.542
296.303
296.077
295.862
295.66
295.469
295.289
295.121
294.963
294.816
294.679
294.552
294.435
294.327
294.229
294.139
294.059
293.987
293.924
293.87
293.824
293.786
293.757
293.735
293.722
293.716
293.719
397.633
392.927
388.337
383.914
379.698
375.71
371.955
368.43
365.121
362.013
359.088
356.33
353.721
351.247
348.894
346.649
344.503
342.447
340.471
338.57
336.738
334.969
333.259
331.604
330.001
328.447
326.94
325.477
324.056
322.676
321.335
320.032
318.765
317.534
316.338
315.175
314.046
312.948
311.882
310.847
309.842
308.866
307.92
307.002
306.112
305.25
304.415
303.606
302.823
302.066
301.334
300.626
299.943
299.284
298.647
298.034
297.442
296.873
296.325
295.798
295.291
294.804
294.337
293.889
293.46
293.048
292.655
292.279
291.919
291.577
291.25
290.939
290.643
290.361
290.095
289.842
289.603
289.377
289.164
288.964
288.776
288.6
288.436
288.283
288.141
288.01
287.89
287.78
287.681
287.591
287.511
287.441
287.38
287.329
287.287
287.254
287.23
287.215
287.209
287.212
397.723
393.186
388.737
384.416
380.255
376.277
372.49
368.897
365.49
362.262
359.199
356.291
353.523
350.884
348.362
345.948
343.632
341.406
339.262
337.196
335.2
333.27
331.403
329.593
327.839
326.137
324.484
322.879
321.32
319.804
318.331
316.899
315.507
314.153
312.837
311.558
310.315
309.107
307.933
306.793
305.686
304.612
303.57
302.559
301.578
300.628
299.708
298.817
297.954
297.12
296.313
295.533
294.78
294.053
293.352
292.675
292.023
291.396
290.791
290.21
289.652
289.115
288.6
288.106
287.633
287.179
286.745
286.33
285.934
285.556
285.196
284.853
284.526
284.216
283.922
283.643
283.379
283.13
282.896
282.675
282.468
282.274
282.092
281.924
281.767
281.623
281.491
281.369
281.26
281.161
281.073
280.995
280.928
280.871
280.825
280.788
280.762
280.745
280.739
280.742
397.785
393.366
389.014
384.763
380.639
376.662
372.844
369.19
365.697
362.362
359.176
356.131
353.218
350.427
347.749
345.175
342.699
340.312
338.009
335.783
333.631
331.546
329.526
327.566
325.664
323.818
322.023
320.279
318.584
316.936
315.333
313.774
312.258
310.783
309.349
307.955
306.6
305.283
304.003
302.76
301.553
300.381
299.243
298.14
297.07
296.033
295.029
294.056
293.114
292.203
291.322
290.471
289.649
288.855
288.089
287.35
286.638
285.953
285.293
284.658
284.048
283.462
282.899
282.359
281.842
281.347
280.873
280.42
279.987
279.574
279.18
278.805
278.449
278.11
277.788
277.484
277.196
276.924
276.667
276.426
276.199
275.987
275.789
275.605
275.434
275.277
275.132
274.999
274.879
274.771
274.675
274.59
274.517
274.455
274.404
274.364
274.335
274.317
274.31
274.313
397.826
393.484
389.197
384.989
380.884
376.9
373.048
369.336
365.764
362.331
359.032
355.862
352.815
349.883
347.059
344.336
341.708
339.169
336.713
334.335
332.031
329.797
327.629
325.524
323.479
321.491
319.558
317.679
315.851
314.072
312.342
310.658
309.02
307.427
305.877
304.369
302.904
301.479
300.094
298.749
297.442
296.174
294.943
293.748
292.59
291.467
290.379
289.325
288.305
287.319
286.364
285.442
284.551
283.691
282.861
282.061
281.289
280.546
279.831
279.143
278.482
277.847
277.237
276.652
276.092
275.555
275.041
274.55
274.081
273.633
273.206
272.8
272.413
272.046
271.698
271.367
271.055
270.76
270.482
270.22
269.975
269.745
269.53
269.331
269.145
268.974
268.817
268.674
268.543
268.426
268.322
268.23
268.151
268.083
268.028
267.985
267.953
267.934
267.926
267.929
397.851
393.556
389.306
385.12
381.018
377.017
373.128
369.358
365.71
362.185
358.782
355.496
352.323
349.259
346.298
343.434
340.662
337.978
335.376
332.852
330.403
328.024
325.714
323.467
321.283
319.158
317.09
315.078
313.12
311.214
309.359
307.553
305.795
304.085
302.421
300.802
299.227
297.697
296.209
294.763
293.358
291.994
290.67
289.386
288.14
286.932
285.762
284.628
283.531
282.469
281.442
280.45
279.491
278.565
277.672
276.81
275.98
275.18
274.411
273.67
272.958
272.274
271.618
270.988
270.385
269.807
269.254
268.725
268.219
267.737
267.278
266.84
266.424
266.028
265.653
265.297
264.961
264.643
264.344
264.062
263.798
263.55
263.319
263.104
262.904
262.72
262.551
262.396
262.256
262.13
262.017
261.918
261.832
261.76
261.7
261.654
261.62
261.599
261.59
261.594
397.864
393.591
389.356
385.174
381.062
377.035
373.103
369.274
365.553
361.941
358.438
355.043
351.752
348.563
345.472
342.474
339.566
336.742
334.001
331.337
328.748
326.23
323.781
321.398
319.078
316.82
314.621
312.479
310.394
308.363
306.385
304.459
302.585
300.759
298.983
297.254
295.573
293.938
292.348
290.803
289.301
287.844
286.428
285.055
283.722
282.431
281.179
279.966
278.793
277.657
276.558
275.496
274.47
273.48
272.524
271.602
270.713
269.857
269.033
268.241
267.479
266.747
266.044
265.37
264.724
264.105
263.513
262.947
262.406
261.89
261.398
260.929
260.483
260.06
259.658
259.277
258.917
258.577
258.256
257.954
257.671
257.406
257.158
256.928
256.714
256.517
256.336
256.17
256.02
255.884
255.764
255.658
255.566
255.488
255.425
255.375
255.338
255.315
255.306
255.31
397.866
393.597
389.359
385.166
381.032
376.971
372.992
369.102
365.308
361.61
358.012
354.512
351.11
347.802
344.587
341.462
338.423
335.467
332.591
329.793
327.069
324.417
321.834
319.317
316.866
314.478
312.151
309.883
307.673
305.521
303.423
301.38
299.39
297.452
295.565
293.729
291.942
290.204
288.514
286.871
285.275
283.724
282.218
280.757
279.34
277.965
276.633
275.343
274.093
272.884
271.715
270.584
269.492
268.437
267.419
266.438
265.491
264.58
263.702
262.858
262.047
261.267
260.519
259.801
259.112
258.453
257.822
257.219
256.643
256.093
255.569
255.07
254.595
254.143
253.715
253.31
252.926
252.563
252.222
251.9
251.598
251.316
251.052
250.806
250.579
250.368
250.175
249.999
249.838
249.694
249.566
249.453
249.355
249.272
249.204
249.151
249.112
249.087
249.077
249.081
397.861
393.579
389.325
385.108
380.943
376.84
372.808
368.855
364.987
361.206
357.515
353.915
350.405
346.984
343.65
340.403
337.238
334.155
331.151
328.222
325.368
322.586
319.873
317.228
314.649
312.134
309.682
307.292
304.961
302.689
300.474
298.316
296.213
294.164
292.169
290.227
288.337
286.498
284.709
282.97
281.28
279.638
278.044
276.496
274.994
273.538
272.127
270.759
269.435
268.154
266.915
265.716
264.558
263.44
262.361
261.321
260.317
259.351
258.421
257.526
256.665
255.838
255.044
254.283
253.553
252.854
252.185
251.545
250.934
250.351
249.795
249.265
248.761
248.283
247.829
247.398
246.991
246.607
246.244
245.903
245.583
245.283
245.003
244.743
244.501
244.278
244.073
243.885
243.715
243.562
243.426
243.306
243.202
243.114
243.042
242.985
242.944
242.918
242.907
242.911
397.849
393.542
389.259
385.009
380.803
376.652
372.564
368.545
364.602
360.738
356.957
353.259
349.644
346.114
342.667
339.302
336.017
332.811
329.682
326.629
323.649
320.74
317.902
315.132
312.429
309.791
307.217
304.707
302.257
299.869
297.539
295.268
293.055
290.898
288.797
286.751
284.759
282.821
280.935
279.101
277.319
275.587
273.905
272.272
270.688
269.152
267.662
266.219
264.821
263.469
262.16
260.895
259.672
258.492
257.352
256.253
255.194
254.173
253.191
252.245
251.336
250.463
249.624
248.82
248.049
247.31
246.604
245.928
245.282
244.666
244.078
243.519
242.986
242.481
242.001
241.546
241.116
240.709
240.326
239.966
239.627
239.311
239.015
238.739
238.484
238.248
238.031
237.833
237.653
237.492
237.347
237.22
237.111
237.018
236.941
236.881
236.837
236.81
236.798
236.803
397.831
393.489
389.168
384.876
380.623
376.418
372.268
368.181
364.163
360.216
356.345
352.551
348.836
345.2
341.643
338.164
334.763
331.438
328.19
325.015
321.913
318.883
315.922
313.031
310.207
307.45
304.758
302.13
299.565
297.062
294.621
292.24
289.918
287.655
285.45
283.302
281.211
279.175
277.194
275.267
273.394
271.574
269.806
268.089
266.423
264.808
263.241
261.723
260.253
258.83
257.454
256.123
254.836
253.594
252.395
251.238
250.123
249.049
248.015
247.02
246.063
245.144
244.261
243.415
242.603
241.825
241.081
240.37
239.69
239.041
238.422
237.833
237.273
236.74
236.235
235.756
235.303
234.875
234.471
234.092
233.735
233.402
233.09
232.8
232.531
232.282
232.054
231.845
231.656
231.485
231.333
231.2
231.084
230.986
230.905
230.842
230.796
230.767
230.754
230.759
397.81
393.423
389.057
384.715
380.408
376.144
371.93
367.773
363.677
359.648
355.688
351.801
347.987
344.247
340.583
336.994
333.481
330.042
326.677
323.384
320.165
317.016
313.937
310.928
307.987
305.113
302.305
299.563
296.886
294.272
291.721
289.232
286.804
284.437
282.13
279.882
277.693
275.561
273.487
271.469
269.507
267.6
265.747
263.948
262.202
260.508
258.866
257.275
255.733
254.241
252.797
251.401
250.052
248.749
247.492
246.278
245.109
243.982
242.896
241.852
240.848
239.884
238.958
238.069
237.217
236.401
235.62
234.873
234.16
233.479
232.829
232.211
231.623
231.064
230.533
230.03
229.555
229.105
228.682
228.283
227.909
227.559
227.232
226.927
226.644
226.383
226.144
225.924
225.726
225.546
225.387
225.246
225.125
225.022
224.937
224.87
224.822
224.791
224.778
224.782
397.784
393.347
388.928
384.531
380.166
375.838
371.557
367.327
363.153
359.041
354.993
351.013
347.102
343.262
339.494
335.798
332.175
328.624
325.147
321.741
318.406
315.142
311.949
308.825
305.77
302.782
299.862
297.009
294.221
291.499
288.84
286.246
283.715
281.246
278.839
276.494
274.208
271.983
269.817
267.709
265.66
263.667
261.731
259.851
258.026
256.256
254.539
252.875
251.264
249.704
248.194
246.734
245.323
243.96
242.644
241.375
240.151
238.972
237.837
236.745
235.694
234.685
233.716
232.786
231.895
231.041
230.223
229.442
228.695
227.982
227.303
226.655
226.039
225.454
224.899
224.373
223.875
223.404
222.961
222.544
222.152
221.785
221.442
221.123
220.828
220.554
220.303
220.074
219.865
219.678
219.51
219.363
219.236
219.128
219.039
218.969
218.918
218.886
218.872
218.877
397.756
393.262
388.785
384.328
379.9
375.506
371.154
366.849
362.597
358.401
354.266
350.194
346.187
342.249
338.379
334.579
330.849
327.191
323.603
320.087
316.641
313.265
309.96
306.724
303.558
300.46
297.431
294.468
291.573
288.745
285.982
283.285
280.652
278.084
275.579
273.138
270.758
268.441
266.185
263.989
261.854
259.778
257.76
255.801
253.898
252.053
250.263
248.528
246.847
245.22
243.645
242.122
240.65
239.228
237.856
236.531
235.255
234.024
232.84
231.7
230.603
229.55
228.539
227.568
226.638
225.746
224.893
224.077
223.298
222.554
221.844
221.168
220.525
219.914
219.334
218.785
218.265
217.774
217.311
216.875
216.466
216.083
215.725
215.392
215.083
214.798
214.535
214.296
214.078
213.882
213.707
213.553
213.42
213.307
213.214
213.141
213.088
213.054
213.04
213.044
397.726
393.17
388.631
384.11
379.614
375.151
370.726
366.345
362.013
357.734
353.511
349.348
345.248
341.213
337.243
333.342
329.508
325.744
322.05
318.426
314.871
311.387
307.973
304.629
301.354
298.149
295.012
291.944
288.944
286.012
283.147
280.349
277.618
274.952
272.352
269.816
267.345
264.937
262.593
260.312
258.092
255.933
253.836
251.798
249.82
247.9
246.038
244.233
242.484
240.791
239.153
237.568
236.036
234.556
233.128
231.749
230.42
229.139
227.906
226.719
225.578
224.481
223.428
222.417
221.449
220.52
219.632
218.782
217.97
217.195
216.456
215.753
215.083
214.446
213.842
213.27
212.728
212.217
211.735
211.281
210.854
210.455
210.082
209.735
209.413
209.116
208.843
208.593
208.366
208.161
207.979
207.819
207.68
207.562
207.465
207.389
207.333
207.298
207.283
207.287
397.693
393.073
388.467
383.878
379.313
374.778
370.278
365.82
361.407
357.044
352.734
348.482
344.289
340.158
336.091
332.09
328.155
324.288
320.49
316.761
313.101
309.511
305.991
302.541
299.161
295.85
292.609
289.438
286.336
283.303
280.338
277.442
274.613
271.852
269.158
266.531
263.97
261.474
259.043
256.677
254.375
252.136
249.96
247.845
245.792
243.8
241.867
239.994
238.178
236.421
234.719
233.074
231.483
229.946
228.462
227.031
225.65
224.32
223.039
221.806
220.62
219.481
218.386
217.336
216.33
215.365
214.442
213.559
212.715
211.91
211.142
210.41
209.714
209.053
208.425
207.83
207.267
206.736
206.234
205.762
205.319
204.904
204.517
204.156
203.821
203.512
203.227
202.968
202.732
202.519
202.33
202.163
202.018
201.896
201.795
201.715
201.657
201.62
201.604
201.609
397.659
392.97
388.295
383.636
378.999
374.39
369.814
365.277
360.783
356.336
351.94
347.598
343.314
339.089
334.927
330.828
326.794
322.826
318.926
315.095
311.332
307.639
304.016
300.462
296.979
293.567
290.224
286.952
283.75
280.618
277.556
274.564
271.641
268.787
266.001
263.284
260.634
258.052
255.537
253.088
250.705
248.387
246.134
243.944
241.818
239.754
237.752
235.812
233.931
232.109
230.346
228.641
226.993
225.4
223.862
222.378
220.947
219.568
218.239
216.961
215.732
214.55
213.416
212.327
211.283
210.283
209.325
208.41
207.535
206.7
205.903
205.144
204.422
203.736
203.085
202.468
201.884
201.332
200.812
200.322
199.863
199.432
199.03
198.656
198.308
197.987
197.692
197.422
197.178
196.957
196.76
196.587
196.437
196.309
196.205
196.122
196.062
196.023
196.006
196.011
397.624
392.864
388.117
383.386
378.675
373.99
369.337
364.72
360.144
355.613
351.131
346.701
342.327
338.01
333.753
329.558
325.427
321.361
317.362
313.431
309.568
305.774
302.05
298.396
294.813
291.3
287.859
284.488
281.189
277.961
274.804
271.717
268.702
265.757
262.882
260.076
257.341
254.674
252.076
249.546
247.084
244.689
242.36
240.097
237.899
235.765
233.695
231.688
229.743
227.859
226.036
224.272
222.567
220.919
219.328
217.792
216.312
214.885
213.51
212.187
210.915
209.693
208.518
207.391
206.311
205.276
204.284
203.337
202.431
201.566
200.741
199.956
199.208
198.498
197.824
197.185
196.58
196.009
195.47
194.963
194.487
194.041
193.625
193.237
192.877
192.545
192.239
191.96
191.706
191.477
191.273
191.094
190.938
190.806
190.697
190.612
190.549
190.509
190.491
190.496
397.587
392.755
387.935
383.129
378.343
373.581
368.85
364.153
359.495
354.88
350.312
345.795
341.331
336.922
332.573
328.284
324.058
319.896
315.8
311.771
307.81
303.918
300.096
296.344
292.662
289.053
285.515
282.048
278.654
275.332
272.082
268.904
265.798
262.764
259.801
256.91
254.09
251.341
248.662
246.053
243.513
241.042
238.639
236.304
234.036
231.834
229.697
227.625
225.617
223.672
221.79
219.968
218.207
216.505
214.862
213.276
211.747
210.273
208.853
207.486
206.172
204.909
203.696
202.531
201.415
200.345
199.321
198.341
197.405
196.512
195.659
194.848
194.075
193.341
192.644
191.983
191.358
190.768
190.211
189.687
189.195
188.734
188.303
187.902
187.53
187.186
186.87
186.581
186.319
186.082
185.871
185.685
185.524
185.388
185.275
185.186
185.121
185.079
185.061
185.065
397.55
392.643
387.748
382.867
378.004
373.165
368.354
363.577
358.837
354.139
349.486
344.881
340.329
335.831
331.39
327.009
322.69
318.434
314.243
310.118
306.061
302.074
298.155
294.308
290.531
286.826
283.194
279.634
276.147
272.733
269.392
266.125
262.931
259.81
256.762
253.787
250.885
248.055
245.296
242.61
239.994
237.449
234.974
232.568
230.231
227.962
225.76
223.624
221.555
219.55
217.609
215.731
213.916
212.161
210.467
208.831
207.254
205.734
204.269
202.86
201.504
200.201
198.95
197.749
196.597
195.493
194.437
193.426
192.46
191.538
190.659
189.821
189.024
188.266
187.547
186.865
186.22
185.611
185.036
184.495
183.987
183.511
183.067
182.653
182.269
181.914
181.587
181.289
181.018
180.773
180.556
180.364
180.197
180.056
179.94
179.848
179.78
179.737
179.718
179.722
397.513
392.53
387.559
382.601
377.661
372.743
367.854
362.996
358.174
353.392
348.655
343.964
339.324
334.738
330.208
325.736
321.325
316.977
312.693
308.475
304.325
300.243
296.231
292.29
288.42
284.623
280.898
277.247
273.67
270.166
266.737
263.383
260.102
256.897
253.765
250.708
247.725
244.816
241.98
239.218
236.528
233.91
231.365
228.89
226.485
224.15
221.885
219.687
217.557
215.494
213.496
211.563
209.694
207.887
206.142
204.459
202.834
201.269
199.761
198.309
196.913
195.571
194.282
193.045
191.858
190.722
189.633
188.592
187.597
186.647
185.741
184.878
184.057
183.276
182.535
181.832
181.168
180.54
179.947
179.39
178.866
178.376
177.917
177.491
177.095
176.729
176.392
176.085
175.805
175.553
175.328
175.13
174.959
174.813
174.693
174.598
174.528
174.483
174.463
174.467
397.474
392.415
387.368
382.333
377.315
372.319
367.349
362.411
357.507
352.643
347.821
343.046
338.32
333.646
329.027
324.467
319.966
315.527
311.152
306.843
302.601
298.428
294.325
290.293
286.332
282.444
278.63
274.89
271.224
267.633
264.118
260.678
257.314
254.025
250.812
247.675
244.613
241.627
238.716
235.879
233.117
230.428
227.813
225.271
222.8
220.401
218.073
215.815
213.626
211.505
209.451
207.464
205.542
203.685
201.891
200.16
198.49
196.88
195.329
193.837
192.401
191.02
189.694
188.422
187.201
186.032
184.912
183.841
182.817
181.84
180.908
180.02
179.175
178.372
177.609
176.886
176.202
175.556
174.946
174.372
173.833
173.329
172.857
172.418
172.01
171.633
171.287
170.97
170.682
170.423
170.191
169.987
169.811
169.66
169.536
169.439
169.367
169.32
169.299
169.303
397.436
392.3
387.175
382.063
376.967
371.892
366.843
361.824
356.839
351.893
346.988
342.128
337.317
332.557
327.852
323.203
318.614
314.087
309.623
305.225
300.894
296.631
292.439
288.317
284.268
280.292
276.39
272.563
268.811
265.135
261.535
258.012
254.566
251.197
247.904
244.689
241.551
238.489
235.504
232.595
229.762
227.004
224.321
221.713
219.178
216.716
214.327
212.009
209.762
207.585
205.477
203.436
201.463
199.557
197.715
195.937
194.222
192.568
190.976
189.443
187.968
186.55
185.188
183.881
182.627
181.425
180.275
179.175
178.123
177.119
176.161
175.249
174.38
173.555
172.771
172.028
171.325
170.661
170.034
169.445
168.891
168.372
167.887
167.435
167.016
166.629
166.273
165.947
165.651
165.384
165.146
164.936
164.754
164.599
164.472
164.371
164.297
164.249
164.227
164.231
397.397
392.184
386.982
381.792
376.618
371.465
366.336
361.237
356.172
351.144
346.156
341.213
336.318
331.474
326.683
321.949
317.273
312.659
308.108
303.623
299.204
294.854
290.574
286.366
282.23
278.168
274.181
270.269
266.433
262.674
258.992
255.387
251.861
248.413
245.043
241.751
238.538
235.403
232.346
229.366
226.464
223.638
220.889
218.216
215.618
213.095
210.646
208.27
205.967
203.735
201.573
199.481
197.458
195.502
193.614
191.79
190.031
188.335
186.701
185.129
183.616
182.161
180.764
179.423
178.136
176.904
175.723
174.594
173.515
172.484
171.502
170.565
169.674
168.826
168.022
167.26
166.538
165.856
165.213
164.608
164.039
163.506
163.008
162.545
162.114
161.717
161.351
161.016
160.712
160.438
160.194
159.978
159.791
159.632
159.501
159.397
159.32
159.271
159.248
159.252
397.359
392.069
386.789
381.522
376.27
371.038
365.831
360.652
355.507
350.397
345.329
340.304
335.326
330.398
325.523
320.704
315.944
311.245
306.609
302.038
297.533
293.098
288.733
284.44
280.22
276.073
272.003
268.008
264.09
260.25
256.488
252.805
249.2
245.675
242.229
238.863
235.577
232.37
229.242
226.194
223.224
220.332
217.519
214.783
212.124
209.541
207.033
204.6
202.241
199.956
197.742
195.599
193.527
191.524
189.589
187.721
185.919
184.182
182.508
180.896
179.346
177.855
176.424
175.049
173.731
172.467
171.258
170.1
168.994
167.938
166.931
165.971
165.057
164.188
163.364
162.582
161.842
161.143
160.484
159.863
159.28
158.733
158.223
157.747
157.306
156.898
156.523
156.18
155.868
155.587
155.336
155.114
154.922
154.759
154.624
154.517
154.439
154.388
154.364
154.367
397.321
391.953
386.597
381.252
375.923
370.613
365.327
360.07
354.845
349.656
344.506
339.4
334.341
329.331
324.374
319.472
314.629
309.846
305.126
300.472
295.884
291.365
286.917
282.541
278.238
274.01
269.858
265.782
261.785
257.865
254.025
250.265
246.584
242.984
239.465
236.026
232.668
229.391
226.195
223.079
220.043
217.087
214.211
211.413
208.694
206.053
203.488
201
198.587
196.249
193.984
191.792
189.672
187.622
185.642
183.731
181.887
180.109
178.396
176.746
175.159
173.634
172.168
170.761
169.412
168.118
166.88
165.695
164.562
163.481
162.449
161.466
160.531
159.641
158.797
157.997
157.239
156.523
155.847
155.211
154.614
154.055
153.532
153.044
152.592
152.174
151.79
151.438
151.118
150.83
150.573
150.346
150.149
149.981
149.843
149.734
149.653
149.6
149.576
149.579
397.282
391.839
386.406
380.984
375.577
370.19
364.827
359.492
354.188
348.92
343.691
338.505
333.365
328.275
323.236
318.254
313.329
308.464
303.663
298.926
294.257
289.657
285.127
280.67
276.287
271.979
267.747
263.593
259.518
255.521
251.605
247.769
244.015
240.341
236.75
233.24
229.813
226.468
223.204
220.023
216.923
213.904
210.966
208.109
205.331
202.632
200.012
197.47
195.004
192.615
190.3
188.06
185.893
183.798
181.774
179.82
177.935
176.117
174.366
172.679
171.057
169.497
167.998
166.559
165.179
163.857
162.59
161.378
160.22
159.114
158.059
157.053
156.096
155.186
154.323
153.504
152.729
151.996
151.305
150.654
150.043
149.47
148.935
148.437
147.974
147.546
147.153
146.793
146.465
146.17
145.907
145.674
145.472
145.301
145.159
145.047
144.963
144.909
144.884
144.887
397.244
391.725
386.216
380.718
375.235
369.771
364.331
358.918
353.537
348.191
342.884
337.619
332.4
327.23
322.113
317.05
312.045
307.101
302.219
297.403
292.654
287.974
283.365
278.829
274.367
269.981
265.672
261.442
257.29
253.219
249.228
245.319
241.492
237.748
234.086
230.508
227.012
223.601
220.272
217.027
213.864
210.784
207.786
204.87
202.035
199.281
196.606
194.011
191.494
189.055
186.692
184.405
182.192
180.053
177.986
175.99
174.065
172.208
170.419
168.697
167.039
165.446
163.915
162.445
161.035
159.684
158.39
157.152
155.968
154.838
153.76
152.732
151.754
150.824
149.942
149.105
148.312
147.564
146.857
146.192
145.567
144.982
144.435
143.925
143.452
143.015
142.612
142.244
141.909
141.607
141.338
141.1
140.893
140.718
140.572
140.457
140.372
140.316
140.29
140.292
397.207
391.612
386.028
380.454
374.896
369.356
363.84
358.351
352.893
347.47
342.086
336.744
331.447
326.2
321.004
315.863
310.78
305.757
300.797
295.903
291.076
286.318
281.632
277.019
272.481
268.019
263.634
259.329
255.103
250.958
246.895
242.915
239.018
235.204
231.474
227.828
224.267
220.79
217.398
214.09
210.867
207.727
204.671
201.698
198.807
195.999
193.271
190.624
188.057
185.569
183.159
180.826
178.568
176.386
174.277
172.241
170.277
168.382
166.557
164.799
163.107
161.481
159.919
158.418
156.979
155.6
154.279
153.015
151.807
150.653
149.553
148.504
147.505
146.556
145.655
144.8
143.991
143.226
142.505
141.826
141.188
140.59
140.031
139.511
139.027
138.58
138.169
137.793
137.451
137.142
136.867
136.624
136.412
136.233
136.084
135.966
135.879
135.821
135.794
135.797
397.17
391.5
385.842
380.194
374.561
368.946
363.355
357.791
352.257
346.759
341.299
335.88
330.508
325.183
319.911
314.694
309.534
304.435
299.398
294.427
289.524
284.69