/*--------------------------------*- C++ -*----------------------------------*\
  =========                 |
  \\      /  F ield         | OpenFOAM: The Open Source CFD Toolbox
   \\    /   O peration     | Website:  https://openfoam.org
    \\  /    A nd           | Version:  10
     \\/     M anipulation  |
\*---------------------------------------------------------------------------*/
FoamFile
{
    format      ascii;
    class       volScalarField;
    location    "14";
    object      T_0;
}
// * * * * * * * * * * * * * * * * * * * * * * * * * * * * * * * * * * * * * //

dimensions      [0 0 0 1 0 0 0];

internalField   nonuniform List<scalar> 
10000
(
374.957
361.225
356.504
354.412
353.258
352.516
351.987
351.582
351.257
350.987
350.755
350.552
350.37
350.206
350.056
349.916
349.786
349.664
349.549
349.439
349.335
349.235
349.139
349.047
348.958
348.872
348.79
348.71
348.632
348.557
348.485
348.414
348.346
348.279
348.215
348.152
348.092
348.033
347.975
347.92
347.866
347.814
347.763
347.714
347.667
347.621
347.576
347.533
347.491
347.451
347.412
347.374
347.337
347.302
347.268
347.236
347.204
347.174
347.145
347.117
347.09
347.064
347.039
347.015
346.992
346.97
346.949
346.929
346.91
346.892
346.875
346.858
346.842
346.827
346.813
346.8
346.787
346.775
346.764
346.753
346.743
346.734
346.725
346.717
346.71
346.703
346.696
346.69
346.685
346.68
346.676
346.672
346.669
346.667
346.664
346.663
346.661
346.66
346.66
346.66
388.548
374.671
366.892
362.307
359.375
357.346
355.846
354.678
353.729
352.933
352.247
351.644
351.105
350.616
350.167
349.751
349.362
348.997
348.652
348.324
348.011
347.712
347.425
347.149
346.883
346.627
346.379
346.139
345.907
345.682
345.464
345.253
345.048
344.849
344.655
344.468
344.286
344.109
343.938
343.771
343.61
343.453
343.301
343.154
343.012
342.874
342.74
342.61
342.485
342.364
342.247
342.134
342.024
341.919
341.817
341.719
341.625
341.534
341.446
341.362
341.281
341.204
341.129
341.058
340.989
340.923
340.861
340.801
340.743
340.689
340.637
340.587
340.54
340.495
340.452
340.412
340.374
340.338
340.304
340.272
340.242
340.214
340.188
340.164
340.141
340.12
340.101
340.084
340.068
340.054
340.041
340.03
340.02
340.012
340.005
340
339.996
339.994
339.993
339.993
393.123
382.01
374.085
368.546
364.585
361.644
359.372
357.551
356.046
354.767
353.656
352.672
351.789
350.985
350.245
349.558
348.915
348.311
347.738
347.194
346.675
346.178
345.701
345.243
344.801
344.374
343.962
343.563
343.177
342.803
342.44
342.088
341.747
341.416
341.094
340.782
340.479
340.184
339.899
339.622
339.353
339.092
338.839
338.594
338.357
338.126
337.904
337.688
337.479
337.278
337.082
336.894
336.712
336.536
336.367
336.204
336.046
335.895
335.749
335.609
335.474
335.345
335.221
335.101
334.987
334.878
334.773
334.674
334.578
334.487
334.4
334.317
334.239
334.164
334.093
334.026
333.963
333.903
333.846
333.793
333.743
333.697
333.653
333.613
333.575
333.54
333.508
333.479
333.453
333.429
333.408
333.389
333.373
333.36
333.349
333.34
333.333
333.33
333.328
333.329
395.069
386.156
378.893
373.208
368.777
365.275
362.449
360.114
358.14
356.437
354.941
353.606
352.399
351.296
350.276
349.327
348.438
347.599
346.804
346.048
345.325
344.634
343.969
343.33
342.713
342.118
341.543
340.986
340.447
339.924
339.417
338.925
338.448
337.985
337.535
337.099
336.675
336.264
335.864
335.477
335.101
334.736
334.383
334.04
333.708
333.386
333.074
332.773
332.481
332.198
331.926
331.662
331.407
331.162
330.925
330.696
330.476
330.264
330.06
329.864
329.676
329.495
329.321
329.154
328.995
328.842
328.696
328.556
328.422
328.295
328.173
328.058
327.948
327.843
327.744
327.65
327.561
327.478
327.398
327.324
327.254
327.189
327.128
327.071
327.019
326.97
326.926
326.885
326.848
326.815
326.785
326.759
326.737
326.718
326.702
326.69
326.681
326.675
326.673
326.674
396.076
388.651
382.124
376.618
372.042
368.236
365.04
362.319
359.968
357.906
356.072
354.419
352.914
351.53
350.246
349.047
347.92
346.854
345.843
344.879
343.957
343.074
342.225
341.407
340.618
339.856
339.119
338.406
337.715
337.044
336.395
335.764
335.152
334.558
333.981
333.421
332.877
332.349
331.836
331.339
330.856
330.388
329.934
329.494
329.068
328.654
328.254
327.867
327.492
327.13
326.779
326.441
326.114
325.798
325.494
325.201
324.918
324.646
324.384
324.132
323.89
323.657
323.434
323.22
323.015
322.819
322.631
322.451
322.28
322.116
321.96
321.811
321.67
321.536
321.408
321.288
321.174
321.066
320.965
320.869
320.779
320.696
320.617
320.544
320.477
320.414
320.357
320.305
320.257
320.215
320.177
320.143
320.114
320.09
320.07
320.054
320.043
320.036
320.033
320.034
396.673
390.243
384.338
379.102
374.541
370.59
367.16
364.162
361.515
359.155
357.029
355.094
353.318
351.675
350.143
348.707
347.352
346.069
344.848
343.682
342.567
341.495
340.465
339.472
338.514
337.587
336.691
335.822
334.981
334.165
333.373
332.605
331.859
331.135
330.431
329.748
329.085
328.442
327.816
327.21
326.621
326.05
325.496
324.959
324.439
323.934
323.446
322.973
322.516
322.074
321.646
321.233
320.834
320.449
320.078
319.719
319.374
319.042
318.722
318.415
318.119
317.835
317.563
317.302
317.051
316.812
316.582
316.363
316.154
315.954
315.763
315.582
315.409
315.246
315.09
314.943
314.804
314.672
314.548
314.432
314.322
314.22
314.124
314.035
313.953
313.877
313.807
313.743
313.685
313.633
313.586
313.545
313.51
313.48
313.456
313.436
313.423
313.414
313.41
313.412
397.057
391.308
385.885
380.914
376.434
372.429
368.856
365.659
362.783
360.179
357.804
355.621
353.602
351.721
349.958
348.299
346.729
345.237
343.814
342.454
341.15
339.896
338.688
337.524
336.398
335.31
334.256
333.236
332.246
331.285
330.354
329.449
328.57
327.717
326.889
326.084
325.302
324.543
323.806
323.091
322.397
321.724
321.07
320.437
319.823
319.228
318.652
318.095
317.555
317.034
316.529
316.042
315.571
315.117
314.678
314.256
313.849
313.457
313.079
312.717
312.368
312.033
311.711
311.403
311.108
310.825
310.554
310.295
310.048
309.812
309.587
309.373
309.17
308.977
308.793
308.619
308.455
308.3
308.153
308.016
307.887
307.766
307.653
307.548
307.45
307.361
307.278
307.203
307.134
307.073
307.018
306.97
306.928
306.893
306.864
306.841
306.825
306.814
306.81
306.812
397.317
392.043
386.984
382.239
377.857
373.844
370.183
366.843
363.79
360.986
358.399
355.999
353.76
351.663
349.687
347.819
346.045
344.355
342.739
341.191
339.704
338.272
336.892
335.56
334.271
333.024
331.816
330.645
329.509
328.406
327.336
326.296
325.287
324.306
323.353
322.428
321.529
320.656
319.808
318.985
318.186
317.411
316.659
315.93
315.224
314.539
313.876
313.234
312.613
312.012
311.431
310.87
310.328
309.805
309.3
308.813
308.344
307.893
307.458
307.04
306.639
306.253
305.883
305.527
305.187
304.861
304.549
304.251
303.967
303.695
303.436
303.189
302.955
302.732
302.521
302.321
302.131
301.952
301.784
301.625
301.476
301.337
301.207
301.086
300.974
300.87
300.775
300.688
300.609
300.539
300.475
300.42
300.372
300.331
300.298
300.272
300.253
300.241
300.236
300.238
397.498
392.56
387.771
383.208
378.916
374.913
371.197
367.752
364.558
361.588
358.82
356.229
353.795
351.5
349.328
347.264
345.298
343.419
341.619
339.891
338.227
336.624
335.076
333.58
332.132
330.73
329.37
328.051
326.771
325.528
324.321
323.149
322.01
320.903
319.827
318.782
317.767
316.781
315.823
314.894
313.991
313.115
312.265
311.442
310.643
309.869
309.119
308.393
307.691
307.012
306.355
305.72
305.107
304.516
303.945
303.395
302.864
302.354
301.862
301.39
300.935
300.499
300.08
299.678
299.293
298.925
298.572
298.235
297.913
297.605
297.312
297.033
296.768
296.516
296.277
296.051
295.836
295.634
295.443
295.264
295.096
294.938
294.791
294.654
294.527
294.41
294.302
294.204
294.115
294.034
293.963
293.9
293.846
293.8
293.762
293.732
293.711
293.698
293.692
293.695
397.626
392.927
388.335
383.91
379.693
375.704
371.949
368.423
365.113
362.004
359.078
356.319
353.709
351.234
348.88
346.635
344.488
342.431
340.454
338.553
336.719
334.95
333.239
331.584
329.98
328.426
326.918
325.454
324.032
322.652
321.31
320.007
318.74
317.508
316.312
315.149
314.018
312.921
311.854
310.819
309.813
308.837
307.891
306.973
306.083
305.22
304.385
303.576
302.793
302.036
301.304
300.596
299.913
299.253
298.617
298.003
297.412
296.842
296.294
295.767
295.261
294.774
294.307
293.859
293.43
293.018
292.625
292.249
291.89
291.547
291.22
290.909
290.613
290.332
290.066
289.813
289.574
289.348
289.136
288.935
288.748
288.572
288.408
288.255
288.113
287.983
287.863
287.753
287.653
287.564
287.484
287.414
287.353
287.302
287.26
287.227
287.203
287.188
287.182
287.185
397.715
393.186
388.735
384.412
380.25
376.271
372.483
368.889
365.481
362.252
359.188
356.279
353.51
350.87
348.347
345.932
343.615
341.388
339.244
337.176
335.18
333.249
331.381
329.571
327.816
326.113
324.459
322.854
321.294
319.778
318.304
316.871
315.478
314.124
312.808
311.528
310.285
309.076
307.902
306.762
305.655
304.58
303.538
302.526
301.546
300.596
299.675
298.784
297.921
297.087
296.28
295.5
294.747
294.02
293.318
292.642
291.99
291.362
290.758
290.177
289.618
289.082
288.567
288.073
287.599
287.146
286.712
286.298
285.902
285.524
285.163
284.82
284.494
284.184
283.89
283.611
283.348
283.099
282.864
282.644
282.436
282.243
282.062
281.893
281.737
281.593
281.46
281.339
281.229
281.13
281.042
280.965
280.898
280.841
280.795
280.759
280.732
280.716
280.709
280.712
397.777
393.365
389.012
384.759
380.634
376.656
372.837
369.181
365.687
362.351
359.164
356.118
353.203
350.411
347.732
345.158
342.681
340.293
337.989
335.762
333.609
331.523
329.502
327.542
325.639
323.791
321.996
320.252
318.556
316.907
315.303
313.744
312.227
310.752
309.318
307.923
306.567
305.25
303.969
302.726
301.518
300.346
299.208
298.105
297.035
295.998
294.993
294.02
293.078
292.167
291.286
290.434
289.612
288.818
288.052
287.313
286.602
285.916
285.256
284.621
284.011
283.425
282.863
282.323
281.806
281.311
280.837
280.384
279.951
279.538
279.145
278.77
278.414
278.075
277.754
277.449
277.161
276.889
276.633
276.392
276.165
275.954
275.756
275.572
275.401
275.243
275.099
274.966
274.846
274.738
274.642
274.557
274.484
274.422
274.372
274.332
274.303
274.285
274.278
274.281
397.818
393.483
389.194
384.985
380.878
376.893
373.04
369.326
365.753
362.319
359.019
355.848
352.8
349.866
347.041
344.317
341.688
339.148
336.691
334.312
332.007
329.772
327.603
325.497
323.451
321.463
319.529
317.649
315.82
314.041
312.31
310.625
308.987
307.393
305.842
304.334
302.868
301.443
300.058
298.712
297.405
296.136
294.905
293.71
292.552
291.428
290.34
289.286
288.266
287.279
286.325
285.403
284.512
283.652
282.822
282.021
281.25
280.507
279.792
279.104
278.443
277.808
277.198
276.613
276.053
275.516
275.003
274.511
274.042
273.595
273.168
272.762
272.375
272.008
271.66
271.33
271.018
270.723
270.445
270.184
269.938
269.709
269.494
269.295
269.109
268.939
268.782
268.638
268.508
268.391
268.286
268.195
268.115
268.048
267.993
267.95
267.918
267.899
267.891
267.894
397.843
393.555
389.303
385.115
381.012
377.009
373.119
369.348
365.699
362.173
358.768
355.481
352.307
349.241
346.279
343.414
340.641
337.955
335.352
332.828
330.377
327.998
325.686
323.438
321.253
319.127
317.059
315.046
313.087
311.18
309.324
307.518
305.759
304.048
302.384
300.764
299.189
297.658
296.17
294.723
293.318
291.954
290.63
289.345
288.099
286.891
285.72
284.586
283.489
282.427
281.4
280.407
279.449
278.523
277.629
276.768
275.938
275.138
274.368
273.628
272.916
272.232
271.576
270.946
270.343
269.765
269.212
268.683
268.178
267.696
267.237
266.799
266.383
265.988
265.613
265.257
264.921
264.604
264.304
264.023
263.758
263.511
263.28
263.065
262.866
262.682
262.512
262.358
262.218
262.091
261.979
261.88
261.795
261.722
261.663
261.616
261.582
261.561
261.553
261.556
397.856
393.59
389.353
385.169
381.055
377.027
373.094
369.264
365.541
361.927
358.423
355.026
351.735
348.544
345.452
342.452
339.543
336.718
333.976
331.311
328.721
326.202
323.752
321.367
319.046
316.787
314.587
312.445
310.359
308.327
306.348
304.422
302.546
300.72
298.943
297.214
295.532
293.897
292.306
290.761
289.259
287.801
286.385
285.011
283.678
282.386
281.135
279.922
278.748
277.612
276.513
275.451
274.425
273.434
272.478
271.556
270.668
269.812
268.988
268.196
267.434
266.702
265.999
265.325
264.679
264.061
263.469
262.902
262.362
261.846
261.354
260.885
260.44
260.017
259.615
259.234
258.874
258.534
258.214
257.912
257.629
257.364
257.117
256.887
256.673
256.476
256.295
256.129
255.979
255.844
255.723
255.617
255.526
255.448
255.385
255.335
255.298
255.276
255.266
255.27
397.858
393.595
389.356
385.161
381.026
376.963
372.982
369.091
365.295
361.596
357.996
354.495
351.091
347.782
344.566
341.439
338.399
335.442
332.565
329.765
327.04
324.386
321.802
319.285
316.833
314.443
312.115
309.847
307.636
305.482
303.384
301.34
299.349
297.411
295.523
293.686
291.899
290.16
288.47
286.826
285.23
283.678
282.173
280.711
279.293
277.918
276.586
275.295
274.046
272.836
271.667
270.536
269.444
268.389
267.371
266.39
265.443
264.532
263.654
262.81
261.999
261.219
260.471
259.753
259.065
258.406
257.775
257.172
256.596
256.047
255.523
255.023
254.549
254.098
253.67
253.264
252.881
252.518
252.177
251.856
251.554
251.272
251.008
250.763
250.535
250.325
250.132
249.955
249.795
249.651
249.523
249.41
249.312
249.229
249.161
249.108
249.069
249.045
249.035
249.039
397.853
393.577
389.321
385.103
380.935
376.831
372.797
368.843
364.973
361.191
357.498
353.896
350.385
346.962
343.628
340.378
337.213
334.128
331.122
328.193
325.337
322.554
319.84
317.194
314.614
312.098
309.645
307.253
304.921
302.648
300.433
298.273
296.17
294.121
292.125
290.182
288.291
286.452
284.662
282.923
281.232
279.59
277.995
276.447
274.945
273.489
272.077
270.709
269.385
268.104
266.864
265.666
264.508
263.39
262.311
261.27
260.267
259.3
258.37
257.475
256.614
255.788
254.994
254.233
253.503
252.804
252.135
251.496
250.885
250.302
249.746
249.216
248.713
248.234
247.78
247.35
246.943
246.559
246.197
245.856
245.536
245.236
244.957
244.696
244.455
244.232
244.027
243.84
243.67
243.517
243.38
243.261
243.157
243.069
242.997
242.94
242.899
242.873
242.862
242.866
397.841
393.54
389.255
385.003
380.796
376.643
372.552
368.532
364.588
360.722
356.939
353.239
349.623
346.092
342.643
339.276
335.99
332.783
329.652
326.597
323.616
320.706
317.867
315.096
312.391
309.753
307.178
304.666
302.216
299.826
297.496
295.224
293.01
290.852
288.75
286.704
284.711
282.772
280.886
279.052
277.269
275.536
273.854
272.221
270.636
269.099
267.61
266.166
264.768
263.416
262.107
260.842
259.619
258.438
257.299
256.2
255.14
254.12
253.137
252.192
251.283
250.41
249.572
248.767
247.996
247.258
246.551
245.876
245.23
244.614
244.027
243.467
242.935
242.43
241.95
241.496
241.066
240.659
240.277
239.916
239.578
239.262
238.966
238.691
238.435
238.2
237.983
237.785
237.605
237.444
237.3
237.173
237.063
236.97
236.894
236.834
236.79
236.763
236.751
236.756
397.823
393.487
389.164
384.87
380.615
376.408
372.256
368.168
364.148
360.199
356.327
352.531
348.814
345.176
341.617
338.137
334.735
331.409
328.158
324.982
321.879
318.847
315.886
312.993
310.168
307.41
304.716
302.087
299.521
297.018
294.575
292.193
289.871
287.607
285.401
283.252
281.16
279.124
277.142
275.215
273.341
271.521
269.752
268.035
266.369
264.753
263.186
261.668
260.198
258.775
257.398
256.067
254.78
253.538
252.339
251.182
250.067
248.993
247.959
246.964
246.007
245.088
244.206
243.359
242.548
241.77
241.026
240.315
239.635
238.987
238.368
237.779
237.219
236.687
236.182
235.703
235.25
234.822
234.419
234.04
233.684
233.35
233.039
232.749
232.48
232.232
232.003
231.795
231.606
231.435
231.283
231.15
231.034
230.936
230.856
230.793
230.746
230.717
230.705
230.709
397.802
393.422
389.053
384.709
380.4
376.134
371.918
367.759
363.662
359.631
355.669
351.779
347.964
344.223
340.557
336.966
333.451
330.01
326.644
323.35
320.129
316.979
313.899
310.888
307.946
305.071
302.262
299.519
296.84
294.225
291.673
289.183
286.755
284.387
282.079
279.83
277.64
275.508
273.433
271.414
269.452
267.544
265.691
263.892
262.145
260.451
258.809
257.217
255.675
254.183
252.739
251.343
249.994
248.691
247.433
246.22
245.05
243.923
242.838
241.794
240.79
239.826
238.9
238.011
237.16
236.344
235.563
234.816
234.103
233.422
232.773
232.155
231.567
231.008
230.478
229.975
229.5
229.051
228.627
228.229
227.855
227.505
227.178
226.874
226.591
226.331
226.091
225.872
225.673
225.494
225.335
225.194
225.073
224.97
224.885
224.819
224.77
224.74
224.727
224.731
397.776
393.345
388.924
384.525
380.157
375.828
371.544
367.312
363.137
359.023
354.973
350.991
347.078
343.236
339.466
335.769
332.144
328.592
325.112
321.705
318.369
315.104
311.909
308.783
305.727
302.738
299.817
296.962
294.173
291.45
288.791
286.195
283.663
281.194
278.786
276.439
274.153
271.927
269.76
267.652
265.602
263.609
261.673
259.792
257.967
256.196
254.479
252.815
251.203
249.643
248.133
246.673
245.262
243.899
242.583
241.314
240.09
238.911
237.776
236.684
235.634
234.624
233.656
232.726
231.835
230.981
230.164
229.382
228.636
227.923
227.244
226.597
225.981
225.396
224.841
224.315
223.818
223.347
222.904
222.487
222.096
221.729
221.387
221.068
220.772
220.499
220.248
220.019
219.811
219.623
219.456
219.309
219.182
219.074
218.985
218.916
218.865
218.832
218.819
218.823
397.748
393.26
388.781
384.321
379.89
375.495
371.14
366.834
362.579
358.382
354.244
350.171
346.162
342.222
338.35
334.548
330.817
327.157
323.568
320.05
316.602
313.225
309.918
306.681
303.513
300.414
297.383
294.42
291.524
288.694
285.93
283.232
280.598
278.029
275.524
273.081
270.701
268.383
266.126
263.93
261.794
259.717
257.699
255.739
253.837
251.991
250.2
248.465
246.784
245.157
243.582
242.059
240.587
239.165
237.792
236.468
235.191
233.961
232.776
231.637
230.54
229.487
228.476
227.506
226.575
225.684
224.831
224.016
223.236
222.492
221.783
221.108
220.465
219.854
219.275
218.725
218.206
217.715
217.252
216.817
216.408
216.025
215.667
215.335
215.026
214.741
214.479
214.239
214.021
213.826
213.651
213.497
213.364
213.251
213.159
213.086
213.032
212.999
212.984
212.989
397.718
393.168
388.626
384.102
379.605
375.139
370.712
366.329
361.995
357.714
353.489
349.324
345.222
341.185
337.214
333.31
329.475
325.709
322.013
318.387
314.831
311.346
307.93
304.584
301.308
298.101
294.963
291.894
288.893
285.96
283.094
280.295
277.562
274.895
272.294
269.758
267.286
264.877
262.532
260.25
258.03
255.871
253.773
251.735
249.756
247.836
245.973
244.168
242.419
240.726
239.087
237.502
235.97
234.491
233.062
231.684
230.354
229.074
227.841
226.654
225.513
224.416
223.363
222.353
221.384
220.456
219.568
218.718
217.907
217.132
216.393
215.69
215.02
214.384
213.781
213.208
212.667
212.156
211.674
211.22
210.794
210.395
210.023
209.676
209.354
209.057
208.784
208.534
208.307
208.103
207.921
207.761
207.622
207.505
207.408
207.332
207.276
207.241
207.225
207.23
397.685
393.07
388.462
383.871
379.303
374.766
370.264
365.803
361.388
357.023
352.712
348.457
344.262
340.129
336.061
332.057
328.121
324.252
320.452
316.721
313.059
309.468
305.946
302.494
299.113
295.801
292.559
289.386
286.283
283.248
280.283
277.385
274.556
271.794
269.099
266.47
263.908
261.412
258.98
256.614
254.311
252.071
249.894
247.78
245.726
243.733
241.8
239.927
238.111
236.353
234.652
233.006
231.415
229.878
228.394
226.963
225.582
224.252
222.971
221.738
220.553
219.413
218.319
217.269
216.263
215.299
214.376
213.493
212.65
211.845
211.077
210.346
209.65
208.989
208.361
207.767
207.204
206.673
206.171
205.7
205.257
204.842
204.455
204.094
203.76
203.451
203.167
202.907
202.671
202.459
202.27
202.103
201.958
201.836
201.735
201.656
201.598
201.561
201.545
201.549
397.651
392.968
388.29
383.628
378.989
374.377
369.799
365.26
360.764
356.314
351.916
347.573
343.286
339.06
334.895
330.794
326.758
322.789
318.887
315.054
311.289
307.594
303.969
300.414
296.93
293.516
290.172
286.898
283.695
280.562
277.499
274.505
271.581
268.726
265.94
263.221
260.571
257.988
255.472
253.023
250.639
248.32
246.066
243.877
241.75
239.686
237.683
235.742
233.861
232.04
230.277
228.571
226.922
225.33
223.792
222.308
220.877
219.498
218.17
216.891
215.662
214.481
213.347
212.258
211.214
210.214
209.257
208.342
207.467
206.632
205.836
205.077
204.356
203.67
203.019
202.402
201.819
201.267
200.747
200.258
199.799
199.368
198.966
198.592
198.245
197.925
197.63
197.36
197.115
196.895
196.698
196.525
196.375
196.248
196.143
196.061
196.001
195.962
195.945
195.95
397.616
392.861
388.112
383.378
378.664
373.977
369.322
364.703
360.125
355.591
351.107
346.675
342.298
337.979
333.72
329.523
325.39
321.323
317.322
313.388
309.523
305.728
302.002
298.347
294.762
291.248
287.805
284.433
281.132
277.903
274.744
271.657
268.64
265.694
262.818
260.012
257.275
254.608
252.009
249.479
247.016
244.62
242.29
240.027
237.828
235.694
233.624
231.617
229.672
227.788
225.964
224.2
222.495
220.847
219.256
217.72
216.24
214.813
213.438
212.116
210.844
209.621
208.447
207.32
206.24
205.205
204.214
203.267
202.361
201.497
200.673
199.887
199.14
198.43
197.756
197.118
196.513
195.942
195.404
194.897
194.421
193.976
193.559
193.172
192.812
192.48
192.175
191.896
191.642
191.414
191.21
191.031
190.875
190.743
190.635
190.549
190.486
190.446
190.429
190.433
397.579
392.752
387.929
383.12
378.332
373.568
368.834
364.135
359.474
354.857
350.287
345.768
341.301
336.891
332.539
328.248
324.02
319.856
315.758
311.727
307.764
303.871
300.046
296.293
292.61
288.999
285.459
281.991
278.596
275.272
272.021
268.842
265.735
262.7
259.736
256.844
254.023
251.273
248.593
245.983
243.443
240.971
238.568
236.232
233.963
231.761
229.624
227.552
225.544
223.599
221.716
219.894
218.133
216.431
214.788
213.202
211.673
210.199
208.779
207.413
206.099
204.836
203.623
202.458
201.342
200.273
199.249
198.27
197.334
196.441
195.589
194.777
194.005
193.271
192.574
191.914
191.29
190.699
190.143
189.619
189.127
188.666
188.236
187.835
187.464
187.12
186.804
186.515
186.253
186.017
185.806
185.621
185.46
185.323
185.211
185.122
185.057
185.015
184.997
185.001
397.542
392.64
387.742
382.858
377.993
373.151
368.338
363.558
358.816
354.116
349.46
344.853
340.299
335.799
331.356
326.972
322.651
318.393
314.2
310.073
306.015
302.025
298.105
294.255
290.477
286.771
283.137
279.576
276.087
272.672
269.33
266.061
262.866
259.744
256.695
253.719
250.816
247.985
245.226
242.538
239.922
237.376
234.9
232.494
230.156
227.887
225.685
223.549
221.479
219.474
217.533
215.655
213.84
212.085
210.391
208.755
207.178
205.658
204.194
202.784
201.429
200.126
198.875
197.674
196.522
195.419
194.363
193.352
192.387
191.465
190.586
189.749
188.952
188.195
187.476
186.795
186.15
185.541
184.966
184.426
183.918
183.442
182.998
182.584
182.201
181.846
181.52
181.222
180.951
180.707
180.489
180.297
180.131
179.99
179.874
179.782
179.715
179.671
179.652
179.656
397.504
392.527
387.553
382.592
377.649
372.729
367.837
362.977
358.152
353.368
348.628
343.936
339.293
334.705
330.172
325.698
321.285
316.935
312.649
308.429
304.277
300.193
296.179
292.236
288.365
284.566
280.84
277.187
273.608
270.104
266.673
263.317
260.036
256.829
253.696
250.638
247.655
244.745
241.908
239.145
236.454
233.836
231.289
228.814
226.409
224.074
221.808
219.61
217.48
215.416
213.418
211.485
209.616
207.809
206.065
204.381
202.757
201.191
199.684
198.232
196.836
195.494
194.205
192.968
191.782
190.646
189.558
188.517
187.522
186.573
185.667
184.804
183.983
183.203
182.462
181.76
181.096
180.468
179.876
179.319
178.795
178.305
177.847
177.421
177.025
176.66
176.323
176.016
175.737
175.485
175.261
175.063
174.891
174.746
174.625
174.531
174.461
174.416
174.396
174.4
397.466
392.412
387.362
382.324
377.303
372.304
367.332
362.391
357.485
352.618
347.794
343.016
338.288
333.612
328.991
324.428
319.925
315.484
311.107
306.796
302.552
298.377
294.272
290.238
286.276
282.386
278.57
274.828
271.161
267.569
264.052
260.611
257.245
253.956
250.742
247.604
244.541
241.554
238.642
235.804
233.041
230.352
227.736
225.193
222.723
220.323
217.995
215.736
213.547
211.425
209.372
207.385
205.463
203.606
201.812
200.08
198.411
196.801
195.25
193.758
192.322
190.942
189.616
188.344
187.124
185.954
184.835
183.764
182.741
181.764
180.832
179.945
179.1
178.297
177.535
176.812
176.129
175.483
174.873
174.3
173.761
173.257
172.785
172.347
171.939
171.563
171.217
170.9
170.613
170.353
170.122
169.918
169.742
169.591
169.468
169.37
169.298
169.252
169.231
169.235
397.428
392.297
387.169
382.053
376.955
371.877
366.826
361.804
356.817
351.868
346.96
342.098
337.284
332.522
327.815
323.164
318.573
314.043
309.577
305.177
300.844
296.579
292.385
288.261
284.21
280.233
276.329
272.5
268.747
265.07
261.468
257.944
254.496
251.126
247.832
244.616
241.477
238.414
235.428
232.518
229.685
226.926
224.243
221.634
219.098
216.636
214.246
211.928
209.681
207.504
205.395
203.355
201.382
199.475
197.633
195.856
194.141
192.487
190.895
189.362
187.887
186.47
185.108
183.801
182.548
181.346
180.196
179.096
178.045
177.041
176.084
175.172
174.304
173.479
172.695
171.953
171.25
170.586
169.96
169.371
168.817
168.299
167.814
167.363
166.944
166.557
166.201
165.876
165.58
165.313
165.075
164.866
164.684
164.529
164.402
164.301
164.227
164.179
164.157
164.161
397.389
392.181
386.976
381.783
376.606
371.45
366.319
361.217
356.149
351.118
346.128
341.183
336.285
331.438
326.645
321.908
317.231
312.614
308.061
303.573
299.153
294.801
290.519
286.309
282.171
278.107
274.118
270.205
266.367
262.607
258.923
255.318
251.79
248.341
244.97
241.677
238.463
235.327
232.268
229.288
226.385
223.559
220.809
218.136
215.538
213.014
210.564
208.188
205.884
203.652
201.49
199.398
197.375
195.42
193.531
191.707
189.948
188.253
186.619
185.047
183.534
182.079
180.682
179.342
178.056
176.823
175.643
174.514
173.436
172.405
171.423
170.487
169.596
168.749
167.945
167.183
166.462
165.78
165.138
164.533
163.964
163.432
162.934
162.471
162.041
161.644
161.278
160.944
160.64
160.366
160.122
159.906
159.72
159.561
159.43
159.326
159.25
159.2
159.178
159.181
397.35
392.066
386.783
381.512
376.257
371.023
365.813
360.632
355.483
350.371
345.3
340.272
335.292
330.362
325.484
320.663
315.901
311.199
306.561
301.987
297.481
293.044
288.677
284.382
280.16
276.012
271.939
267.943
264.023
260.182
256.418
252.733
249.128
245.602
242.155
238.788
235.5
232.292
229.164
226.114
223.144
220.252
217.437
214.701
212.041
209.458
206.95
204.517
202.158
199.872
197.658
195.515
193.443
191.44
189.505
187.637
185.835
184.098
182.424
180.813
179.263
177.772
176.341
174.967
173.649
172.386
171.176
170.019
168.914
167.858
166.851
165.891
164.978
164.11
163.286
162.504
161.765
161.066
160.407
159.787
159.204
158.658
158.148
157.673
157.232
156.824
156.449
156.106
155.794
155.514
155.263
155.042
154.85
154.687
154.552
154.445
154.367
154.316
154.292
154.296
397.312
391.95
386.591
381.242
375.91
370.597
365.309
360.049
354.821
349.629
344.477
339.368
334.306
329.294
324.334
319.43
314.585
309.799
305.077
300.421
295.831
291.31
286.86
282.481
278.177
273.947
269.793
265.716
261.717
257.796
253.954
250.192
246.511
242.909
239.389
235.949
232.59
229.312
226.115
222.998
219.962
217.005
214.128
211.33
208.61
205.968
203.403
200.915
198.502
196.163
193.899
191.707
189.586
187.537
185.557
183.645
181.801
180.023
178.31
176.661
175.075
173.549
172.084
170.677
169.328
168.035
166.797
165.613
164.48
163.399
162.368
161.386
160.451
159.562
158.718
157.918
157.16
156.445
155.77
155.134
154.537
153.978
153.455
152.969
152.517
152.099
151.715
151.364
151.044
150.756
150.499
150.272
150.076
149.908
149.77
149.661
149.58
149.527
149.503
149.506
397.274
391.835
386.399
380.974
375.564
370.175
364.808
359.47
354.164
348.893
343.661
338.473
333.33
328.237
323.196
318.211
313.284
308.417
303.613
298.874
294.203
289.6
285.069
280.61
276.225
271.915
267.682
263.526
259.449
255.451
251.533
247.696
243.94
240.265
236.673
233.162
229.734
226.387
223.123
219.941
216.84
213.821
210.882
208.024
205.246
202.547
199.926
197.384
194.918
192.528
190.214
187.973
185.806
183.711
181.687
179.734
177.848
176.031
174.279
172.593
170.971
169.411
167.913
166.474
165.095
163.772
162.506
161.295
160.137
159.031
157.977
156.972
156.015
155.106
154.242
153.424
152.649
151.917
151.226
150.576
149.965
149.393
148.858
148.36
147.898
147.47
147.077
146.717
146.39
146.095
145.832
145.6
145.398
145.227
145.085
144.973
144.89
144.836
144.81
144.813
397.236
391.721
386.209
380.708
375.222
369.755
364.312
358.897
353.512
348.164
342.854
337.586
332.365
327.192
322.072
317.007
312
307.053
302.169
297.35
292.599
287.917
283.306
278.768
274.304
269.916
265.606
261.373
257.22
253.147
249.155
245.244
241.416
237.67
234.008
230.428
226.932
223.519
220.189
216.943
213.78
210.699
207.701
204.784
201.949
199.194
196.519
193.924
191.406
188.967
186.604
184.316
182.104
179.964
177.898
175.902
173.977
172.12
170.332
168.609
166.952
165.359
163.828
162.359
160.949
159.598
158.305
157.067
155.884
154.754
153.676
152.649
151.672
150.743
149.86
149.024
148.232
147.484
146.778
146.113
145.489
144.904
144.357
143.848
143.375
142.938
142.536
142.168
141.833
141.532
141.262
141.025
140.818
140.643
140.497
140.382
140.297
140.242
140.216
140.218
397.198
391.609
386.021
380.444
374.882
369.34
363.821
358.329
352.868
347.442
342.055
336.711
331.411
326.161
320.963
315.819
310.734
305.708
300.746
295.849
291.02
286.26
281.572
276.957
272.416
267.953
263.566
259.259
255.032
250.886
246.821
242.839
238.94
235.125
231.394
227.747
224.185
220.708
217.314
214.006
210.781
207.641
204.584
201.611
198.72
195.911
193.183
190.536
187.969
185.48
183.07
180.736
178.479
176.297
174.188
172.152
170.188
168.293
166.468
164.711
163.019
161.393
159.831
158.331
156.893
155.514
154.193
152.93
151.722
150.569
149.469
148.42
147.422
146.473
145.572
144.718
143.91
143.145
142.425
141.746
141.108
140.511
139.952
139.432
138.949
138.503
138.092
137.716
137.374
137.066
136.79
136.548
136.337
136.157
136.008
135.891
135.803
135.746
135.719
135.721
397.161
391.497
385.835
380.183
374.547
368.93
363.335
357.768
352.232
346.73
341.267
335.847
330.471
325.144
319.869
314.649