/*--------------------------------*- C++ -*----------------------------------*\
| =========                 |                                                 |
| \\      /  F ield         | OpenFOAM: The Open Source CFD Toolbox           |
|  \\    /   O peration     | Version:  2406                                  |
|   \\  /    A nd           | Website:  www.openfoam.com                      |
|    \\/     M anipulation  |                                                 |
\*---------------------------------------------------------------------------*/
FoamFile
{
    version     2.0;
    format      ascii;
    arch        "LSB;label=32;scalar=64";
    class       volScalarField;
    location    "18.75";
    object      p;
}
// * * * * * * * * * * * * * * * * * * * * * * * * * * * * * * * * * * * * * //

dimensions      [0 2 -2 0 0 0 0];

internalField   nonuniform List<scalar> 
34560
(
31.615038
31.61179
31.607392
31.601798
31.595367
31.591595
31.594885
31.607966
31.627092
31.646606
31.642623
31.63658
31.628533
31.619752
31.614976
31.618808
31.632976
31.652587
31.690561
31.685907
31.678282
31.667128
31.653946
31.645102
31.646368
31.658748
31.676367
31.735652
31.730201
31.720952
31.707023
31.690011
31.676721
31.673743
31.681716
31.695719
31.783012
31.776884
31.765859
31.748347
31.726405
31.707786
31.699609
31.702649
31.712658
31.834798
31.827844
31.814808
31.793238
31.764995
31.739312
31.724687
31.722485
31.72809
31.890481
31.882359
31.866928
31.840811
31.805564
31.771624
31.749306
31.740773
31.741773
31.95138
31.941476
31.922859
31.891125
31.847467
31.80381
31.772768
31.757653
31.754518
32.01755
32.004953
31.982148
31.943836
31.890413
31.835761
31.795419
31.77409
31.767441
32.085813
32.069603
32.041704
31.996518
31.932776
31.866805
31.817326
31.790615
31.781119
32.147537
32.127886
32.094918
32.042717
31.969549
31.893667
31.836291
31.805328
31.794248
32.18522
32.163945
32.127837
32.070656
31.992115
31.910383
31.848242
31.814132
31.803213
32.18522
32.163945
32.127837
32.070656
31.992115
31.910383
31.848242
31.814132
31.803213
32.147538
32.127887
32.094919
32.042717
31.969549
31.893667
31.836292
31.805329
31.794248
32.085814
32.069605
32.041706
31.99652
31.932777
31.866806
31.817327
31.790615
31.781119
32.017554
32.004956
31.982151
31.943839
31.890416
31.835763
31.795421
31.774091
31.767441
31.951386
31.941481
31.922864
31.891129
31.847471
31.803814
31.77277
31.757654
31.754519
31.890488
31.882364
31.866933
31.840816
31.805568
31.771628
31.749309
31.740775
31.741775
31.834803
31.827849
31.814813
31.793243
31.765
31.739317
31.724691
31.722488
31.728092
31.783019
31.776891
31.765865
31.748352
31.72641
31.707792
31.699614
31.702653
31.712662
31.735658
31.730207
31.720958
31.70703
31.690018
31.676728
31.673749
31.681722
31.695725
31.69057
31.685915
31.67829
31.667136
31.653953
31.645109
31.646376
31.658757
31.676376
31.646617
31.642634
31.63659
31.628542
31.619761
31.614985
31.618818
31.632986
31.6526
31.615049
31.611801
31.607402
31.601808
31.595377
31.591606
31.594897
31.607981
31.62711
29.188978
29.189708
29.19021
29.190297
29.190078
29.190203
29.191286
29.193169
29.195882
29.178689
29.179751
29.18059
29.181006
29.181241
29.182254
29.184766
29.188313
29.19203
29.169928
29.171341
29.172385
29.172769
29.172965
29.17434
29.17767
29.181997
29.185746
29.164184
29.166013
29.167248
29.1674
29.167161
29.168355
29.171877
29.17635
29.179871
29.162057
29.164316
29.165708
29.165441
29.164425
29.164991
29.168187
29.172392
29.175575
29.163605
29.166372
29.167995
29.167203
29.165078
29.164603
29.167132
29.17085
29.173638
29.169972
29.173243
29.175038
29.173582
29.170038
29.168156
29.169721
29.172769
29.175171
29.18156
29.185311
29.187142
29.185071
29.18003
29.176583
29.17709
29.179443
29.181409
29.197901
29.20206
29.203904
29.201289
29.194982
29.190224
29.189909
29.191721
29.193185
29.217338
29.221845
29.22374
29.220363
29.213254
29.207842
29.207303
29.208968
29.210034
29.235321
29.240088
29.241972
29.238108
29.231045
29.225796
29.225658
29.227581
29.228452
29.247238
29.252029
29.25384
29.249645
29.242472
29.237643
29.238031
29.2402
29.241045
29.247238
29.252029
29.25384
29.249645
29.242472
29.237643
29.238031
29.240201
29.241045
29.235322
29.240089
29.241973
29.238109
29.231046
29.225796
29.225659
29.227581
29.228453
29.21734
29.221847
29.223742
29.220365
29.213256
29.207843
29.207304
29.208969
29.210034
29.197904
29.202063
29.203907
29.201292
29.194985
29.190226
29.189911
29.191722
29.193187
29.181565
29.185315
29.187146
29.185075
29.180034
29.176587
29.177093
29.179445
29.181411
29.169978
29.173248
29.175043
29.173587
29.170043
29.168161
29.169725
29.172772
29.175174
29.163611
29.166378
29.168001
29.167208
29.165084
29.164609
29.167137
29.170854
29.173641
29.162064
29.164323
29.165714
29.165448
29.164432
29.164999
29.168193
29.172398
29.175579
29.164192
29.166021
29.167257
29.167408
29.16717
29.168364
29.171885
29.176357
29.179877
29.169938
29.171351
29.172396
29.172779
29.172975
29.17435
29.177679
29.182006
29.185752
29.178701
29.179764
29.180602
29.181018
29.181253
29.182265
29.184777
29.188322
29.192037
29.188991
29.189722
29.190223
29.19031
29.190091
29.190216
29.191299
29.19318
29.195892
28.373998
28.374029
28.374021
28.37387
28.37361
28.373413
28.373492
28.374043
28.374876
28.377414
28.37743
28.377373
28.377112
28.37668
28.376266
28.376119
28.376472
28.37722
28.380792
28.380829
28.380771
28.380445
28.379865
28.379213
28.378775
28.378855
28.379479
28.384214
28.384277
28.384233
28.383864
28.383153
28.382257
28.381489
28.381243
28.381668
28.387758
28.387854
28.387827
28.387418
28.386565
28.385397
28.384255
28.38363
28.383791
28.391391
28.391534
28.391542
28.391108
28.390104
28.388637
28.387077
28.386034
28.385888
28.395118
28.395311
28.395357
28.394896
28.393754
28.391962
28.389959
28.388479
28.387997
28.398869
28.399118
28.399209
28.398728
28.397439
28.395324
28.39288
28.390967
28.390158
28.4025
28.402812
28.402952
28.40245
28.401011
28.398608
28.395757
28.393454
28.392338
28.405787
28.406171
28.40637
28.405833
28.404252
28.401592
28.398407
28.395785
28.394411
28.408402
28.408857
28.409113
28.40853
28.406821
28.403946
28.400521
28.397676
28.396122
28.40993
28.410419
28.410705
28.410088
28.408268
28.405257
28.4017
28.398741
28.3971
28.40993
28.410419
28.410705
28.410088
28.408269
28.405257
28.401701
28.398742
28.3971
28.408403
28.408858
28.409114
28.408531
28.406821
28.403947
28.400522
28.397677
28.396123
28.405788
28.406173
28.406372
28.405834
28.404254
28.401593
28.398408
28.395786
28.394412
28.402502
28.402814
28.402955
28.402453
28.401014
28.39861
28.395759
28.393455
28.392339
28.398873
28.399122
28.399213
28.398732
28.397443
28.395327
28.392883
28.390969
28.390159
28.395122
28.395316
28.395362
28.394901
28.393759
28.391966
28.389963
28.388482
28.387999
28.391397
28.39154
28.391548
28.391114
28.39011
28.388643
28.387083
28.386039
28.38589
28.387765
28.387861
28.387835
28.387426
28.386573
28.385404
28.384261
28.383636
28.383795
28.384223
28.384285
28.384242
28.383873
28.383162
28.382266
28.381497
28.381249
28.381673
28.380803
28.380839
28.380781
28.380456
28.379876
28.379223
28.378784
28.378863
28.379485
28.377426
28.377442
28.377385
28.377124
28.376692
28.376278
28.37613
28.376481
28.377227
28.374011
28.374042
28.374034
28.373883
28.373624
28.373426
28.373505
28.374053
28.374883
26.865532
26.865419
26.865304
26.86524
26.865214
26.865175
26.865066
26.864855
26.864694
26.865826
26.865698
26.865577
26.865524
26.865519
26.865505
26.865421
26.865248
26.865084
26.866209
26.866072
26.865948
26.865908
26.865927
26.865931
26.865841
26.865626
26.865341
26.866768
26.866627
26.866504
26.866474
26.866507
26.866511
26.866388
26.866092
26.865671
26.867471
26.867332
26.867214
26.867197
26.867243
26.86724
26.86707
26.866675
26.866123
26.868264
26.868139
26.868039
26.868041
26.868097
26.868083
26.867863
26.867393
26.866745
26.869185
26.869077
26.868999
26.869022
26.869089
26.869066
26.868811
26.868284
26.867554
26.87018
26.870094
26.870044
26.8701
26.870194
26.870182
26.8699
26.869302
26.868462
26.871154
26.871091
26.87107
26.871162
26.871298
26.871292
26.870982
26.870305
26.869348
26.872
26.871958
26.871965
26.872089
26.872246
26.872247
26.871912
26.871167
26.870114
26.872624
26.872601
26.87263
26.872774
26.872946
26.872955
26.872601
26.871809
26.870684
26.872976
26.87296
26.872998
26.87315
26.873327
26.873337
26.872974
26.872155
26.870992
26.872976
26.87296
26.872998
26.87315
26.873328
26.873338
26.872974
26.872155
26.870992
26.872625
26.872602
26.872631
26.872775
26.872947
26.872956
26.872602
26.871809
26.870685
26.872001
26.871959
26.871966
26.872091
26.872248
26.872248
26.871913
26.871168
26.870115
26.871156
26.871092
26.871072
26.871165
26.8713
26.871295
26.870984
26.870307
26.869349
26.870182
26.870096
26.870047
26.870103
26.870198
26.870185
26.869903
26.869304
26.868463
26.869188
26.869081
26.869003
26.869026
26.869093
26.86907
26.868814
26.868287
26.867555
26.868269
26.868144
26.868044
26.868046
26.868103
26.868088
26.867868
26.867396
26.866746
26.867477
26.867338
26.86722
26.867204
26.867249
26.867247
26.867076
26.86668
26.866126
26.866775
26.866635
26.866512
26.866482
26.866515
26.866519
26.866395
26.866098
26.865675
26.866218
26.866081
26.865957
26.865917
26.865937
26.86594
26.865849
26.865633
26.865346
26.865837
26.865709
26.865588
26.865535
26.86553
26.865516
26.865432
26.865257
26.865091
26.865544
26.865431
26.865316
26.865253
26.865226
26.865187
26.865078
26.864866
26.864703
25.614168
25.614178
25.614172
25.61413
25.614053
25.613972
25.613939
25.613996
25.61415
25.614502
25.61451
25.614498
25.614442
25.614352
25.614269
25.614253
25.614335
25.614494
25.614696
25.614707
25.614696
25.614635
25.614536
25.614447
25.614431
25.614516
25.614672
25.614811
25.614827
25.614819
25.614755
25.614649
25.614553
25.614534
25.61463
25.614811
25.614868
25.614889
25.614884
25.614822
25.614716
25.61462
25.614605
25.614715
25.614904
25.614864
25.61489
25.614893
25.614839
25.614742
25.614653
25.614637
25.614719
25.614873
25.61479
25.614823
25.614832
25.614784
25.614692
25.614598
25.614553
25.61458
25.614682
25.614654
25.614693
25.614706
25.614654
25.614548
25.614426
25.614338
25.614327
25.614406
25.614507
25.614552
25.614569
25.614512
25.614388
25.614233
25.614107
25.614069
25.61414
25.614385
25.614436
25.614457
25.614399
25.614263
25.614084
25.613929
25.613871
25.613934
25.6143
25.614355
25.614379
25.614321
25.614178
25.613984
25.613811
25.613737
25.613794
25.614257
25.614315
25.614341
25.614283
25.614136
25.613935
25.613752
25.61367
25.613723
25.614257
25.614315
25.614341
25.614283
25.614136
25.613935
25.613752
25.61367
25.613723
25.6143
25.614356
25.61438
25.614322
25.614179
25.613985
25.613812
25.613738
25.613794
25.614386
25.614437
25.614458
25.614401
25.614265
25.614086
25.613931
25.613872
25.613934
25.614508
25.614554
25.61457
25.614514
25.61439
25.614235
25.614109
25.614071
25.614141
25.614656
25.614695
25.614708
25.614657
25.614551
25.61443
25.614341
25.614329
25.614407
25.614793
25.614826
25.614835
25.614788
25.614696
25.614602
25.614557
25.614583
25.614683
25.614868
25.614894
25.614897
25.614844
25.614748
25.614658
25.614642
25.614723
25.614875
25.614874
25.614894
25.61489
25.614828
25.614722
25.614626
25.614611
25.61472
25.614908
25.614818
25.614834
25.614826
25.614762
25.614657
25.614561
25.614541
25.614637
25.614815
25.614704
25.614716
25.614705
25.614644
25.614545
25.614456
25.614439
25.614524
25.614679
25.614512
25.61452
25.614508
25.614452
25.614362
25.61428
25.614262
25.614345
25.614502
25.61418
25.614189
25.614183
25.614141
25.614064
25.613983
25.61395
25.614007
25.61416
24.288879
24.288864
24.28885
24.28884
24.288832
24.288819
24.288792
24.288738
24.288676
24.289027
24.289011
24.288996
24.288986
24.288977
24.28896
24.288927
24.288878
24.288826
24.289176
24.28916
24.289146
24.289138
24.28913
24.289112
24.289077
24.289027
24.288972
24.289354
24.289339
24.289326
24.28932
24.289314
24.289298
24.289262
24.289207
24.289144
24.289541
24.289527
24.289517
24.289514
24.289512
24.289499
24.289463
24.289403
24.289331
24.289723
24.289712
24.289706
24.289708
24.289712
24.289704
24.289669
24.289604
24.289523
24.289903
24.289894
24.289891
24.289899
24.28991
24.289908
24.289876
24.289803
24.289717
24.290069
24.290062
24.290064
24.290077
24.290095
24.290101
24.290075
24.29001
24.289928
24.290215
24.29021
24.290215
24.290233
24.290258
24.290272
24.290255
24.290209
24.290131
24.290331
24.290329
24.290337
24.29036
24.290391
24.290414
24.290408
24.290368
24.290288
24.290413
24.290412
24.290422
24.290448
24.290484
24.290514
24.290518
24.290478
24.290394
24.290457
24.290457
24.290467
24.290495
24.290534
24.290567
24.290574
24.290534
24.290448
24.290457
24.290457
24.290467
24.290495
24.290534
24.290567
24.290574
24.290534
24.290448
24.290414
24.290412
24.290423
24.290449
24.290485
24.290515
24.290519
24.290478
24.290394
24.290332
24.290329
24.290337
24.290361
24.290392
24.290415
24.290409
24.290369
24.290288
24.290216
24.290211
24.290216
24.290235
24.29026
24.290274
24.290257
24.29021
24.290131
24.290071
24.290064
24.290066
24.29008
24.290098
24.290104
24.290077
24.290012
24.289928
24.289906
24.289897
24.289895
24.289903
24.289914
24.289912
24.289879
24.289805
24.289717
24.289728
24.289716
24.28971
24.289713
24.289718
24.289709
24.289674
24.289607
24.289523
24.289547
24.289533
24.289523
24.289521
24.289519
24.289506
24.289469
24.289408
24.289333
24.289362
24.289347
24.289335
24.289329
24.289323
24.289307
24.28927
24.289213
24.289148
24.289186
24.28917
24.289157
24.289148
24.289141
24.289123
24.289086
24.289035
24.288978
24.289038
24.289023
24.289008
24.288998
24.288989
24.288972
24.288938
24.288888
24.288834
24.288892
24.288877
24.288863
24.288853
24.288845
24.288832
24.288805
24.28875
24.288686
22.97098
22.970977
22.970971
22.970962
22.970948
22.970931
22.970914
22.970902
22.970915
22.971087
22.971083
22.971076
22.971065
22.97105
22.971034
22.971022
22.971019
22.971035
22.971155
22.971152
22.971145
22.971134
22.971121
22.971108
22.9711
22.971102
22.971115
22.971209
22.971206
22.9712
22.971191
22.971179
22.971169
22.971164
22.971168
22.971183
22.971249
22.971247
22.971243
22.971235
22.971226
22.971218
22.971217
22.971225
22.97124
22.971274
22.971274
22.971272
22.971267
22.971261
22.971256
22.971259
22.971271
22.971287
22.971289
22.971291
22.971291
22.971288
22.971285
22.971284
22.971289
22.971306
22.971315
22.971295
22.971299
22.9713
22.9713
22.971299
22.971299
22.971303
22.971307
22.971299
22.971294
22.9713
22.971303
22.971305
22.971305
22.971304
22.971302
22.971281
22.971257
22.971289
22.971296
22.971301
22.971304
22.971306
22.971302
22.971289
22.971258
22.971225
22.971284
22.971291
22.971298
22.971302
22.971304
22.971298
22.971275
22.971241
22.971205
22.97128
22.971289
22.971296
22.9713
22.971302
22.971294
22.971269
22.971233
22.971195
22.97128
22.971289
22.971296
22.971301
22.971302
22.971294
22.971269
22.971233
22.971194
22.971284
22.971292
22.971298
22.971302
22.971304
22.971298
22.971276
22.971241
22.971204
22.971289
22.971296
22.971302
22.971305
22.971307
22.971303
22.97129
22.971258
22.971224
22.971295
22.9713
22.971304
22.971306
22.971307
22.971306
22.971303
22.971281
22.971256
22.971296
22.9713
22.971302
22.971302
22.971302
22.971302
22.971305
22.971308
22.971298
22.971291
22.971294
22.971294
22.971292
22.971289
22.971288
22.971292
22.971307
22.971314
22.971278
22.971279
22.971277
22.971272
22.971266
22.971262
22.971263
22.971273
22.971287
22.971255
22.971254
22.97125
22.971243
22.971234
22.971226
22.971223
22.971228
22.971241
22.971218
22.971216
22.97121
22.971201
22.97119
22.971178
22.971172
22.971174
22.971185
22.971167
22.971164
22.971157
22.971147
22.971134
22.97112
22.971111
22.97111
22.971119
22.971101
22.971098
22.971091
22.97108
22.971065
22.971048
22.971035
22.97103
22.971042
22.970996
22.970993
22.970987
22.970978
22.970964
22.970947
22.970929
22.970917
22.970926
21.664421
21.664421
21.66442
21.664417
21.664413
21.664407
21.664401
21.664397
21.664395
21.664445
21.664445
21.664444
21.664441
21.664436
21.66443
21.664425
21.664425
21.664428
21.664464
21.664463
21.664463
21.664461
21.664456
21.66445
21.664444
21.664443
21.664445
21.664484
21.664485
21.664485
21.664483
21.664479
21.664472
21.664465
21.664463
21.664464
21.664505
21.664506
21.664507
21.664506
21.664502
21.664496
21.664489
21.664486
21.664487
21.664525
21.664527
21.664529
21.664529
21.664526
21.66452
21.664514
21.66451
21.664512
21.664544
21.664547
21.66455
21.66455
21.664548
21.664543
21.664538
21.664535
21.664536
21.664562
21.664565
21.664569
21.66457
21.664569
21.664566
21.664561
21.664559
21.664561
21.664578
21.664581
21.664586
21.664588
21.664588
21.664586
21.664583
21.664583
21.664586
21.664591
21.664595
21.664599
21.664602
21.664603
21.664602
21.664602
21.664604
21.66461
21.664601
21.664604
21.664609
21.664612
21.664614
21.664614
21.664616
21.664621
21.66463
21.664606
21.664609
21.664614
21.664618
21.66462
21.664621
21.664624
21.664632
21.664641
21.664606
21.664609
21.664614
21.664618
21.66462
21.664621
21.664624
21.664632
21.66464
21.664601
21.664604
21.664609
21.664613
21.664615
21.664615
21.664617
21.664621
21.66463
21.664591
21.664595
21.6646
21.664603
21.664604
21.664603
21.664603
21.664604
21.664609
21.664579
21.664582
21.664586
21.664589
21.664589
21.664587
21.664584
21.664583
21.664585
21.664563
21.664566
21.66457
21.664573
21.664572
21.664568
21.664563
21.66456
21.66456
21.664546
21.664549
21.664552
21.664554
21.664552
21.664547
21.664541
21.664536
21.664535
21.664529
21.664531
21.664533
21.664534
21.664531
21.664525
21.664518
21.664512
21.664511
21.664511
21.664512
21.664514
21.664513
21.66451
21.664503
21.664495
21.664489
21.664488
21.664492
21.664493
21.664494
21.664493
21.664488
21.664481
21.664473
21.664468
21.664467
21.664474
21.664475
21.664475
21.664473
21.664468
21.664461
21.664454
21.66445
21.664449
21.664459
21.664458
21.664458
21.664455
21.66445
21.664444
21.664438
21.664435
21.664436
21.664436
21.664436
21.664435
21.664433
21.664428
21.664422
21.664416
21.664411
21.664406
20.34618
20.346178
20.346176
20.346174
20.346173
20.34617
20.346166
20.34616
20.34616
20.346203
20.346201
20.346199
20.346197
20.346196
20.346194
20.346192
20.346189
20.34619
20.346219
20.346217
20.346214
20.346213
20.346213
20.346213
20.346213
20.346211
20.346211
20.346233
20.346231
20.346229
20.346229
20.34623
20.346231
20.346231
20.34623
20.346229
20.346246
20.346245
20.346243
20.346243
20.346245
20.346247
20.346248
20.346247
20.346245
20.346256
20.346255
20.346254
20.346255
20.346258
20.346262
20.346264
20.346263
20.34626
20.346265
20.346264
20.346264
20.346266
20.34627
20.346274
20.346277
20.346275
20.346271
20.346271
20.346271
20.346271
20.346274
20.346279
20.346284
20.346287
20.346285
20.346279
20.346275
20.346276
20.346276
20.34628
20.346286
20.346292
20.346294
20.346291
20.346283
20.346278
20.346279
20.34628
20.346284
20.346291
20.346297
20.346299
20.346294
20.346281
20.346279
20.34628
20.346282
20.346287
20.346294
20.3463
20.346301
20.346293
20.346275
20.346279
20.346281
20.346283
20.346288
20.346295
20.346301
20.346302
20.346291
20.346272
20.346279
20.346281
20.346283
20.346288
20.346295
20.346301
20.346302
20.346291
20.346272
20.346279
20.34628
20.346282
20.346287
20.346294
20.3463
20.346301
20.346293
20.346274
20.346277
20.346278
20.34628
20.346285
20.346291
20.346298
20.3463
20.346294
20.346279
20.346275
20.346276
20.346277
20.346281
20.346287
20.346293
20.346295
20.346291
20.346281
20.346271
20.346272
20.346272
20.346276
20.346281
20.346286
20.346288
20.346285
20.346278
20.346266
20.346266
20.346266
20.346269
20.346273
20.346277
20.346279
20.346276
20.346269
20.346259
20.346259
20.346258
20.34626
20.346263
20.346266
20.346267
20.346264
20.346258
20.346251
20.34625
20.346249
20.346249
20.346251
20.346253
20.346253
20.34625
20.346245
20.34624
20.346239
20.346237
20.346237
20.346238
20.346239
20.346238
20.346235
20.34623
20.346228
20.346226
20.346224
20.346224
20.346224
20.346223
20.346221
20.346218
20.346214
20.346215
20.346213
20.346211
20.346209
20.346208
20.346206
20.346203
20.346198
20.346197
20.346193
20.346191
20.346189
20.346188
20.346186
20.346183
20.346179
20.346172
20.34617
19.036547
19.036547
19.036547
19.036546
19.036545
19.036543
19.036542
19.036543
19.036544
19.036549
19.03655
19.03655
19.036549
19.036547
19.036546
19.036545
19.036547
19.03655
19.03655
19.036551
19.036551
19.036551
19.036549
19.036547
19.036546
19.036548
19.036551
19.036551
19.036552
19.036553
19.036552
19.03655
19.036548
19.036547
19.036548
19.036553
19.036552
19.036553
19.036554
19.036553
19.036552
19.036549
19.036548
19.03655
19.036555
19.036553
19.036554
19.036555
19.036555
19.036553
19.036551
19.03655
19.036552
19.036557
19.036553
19.036555
19.036556
19.036556
19.036555
19.036553
19.036552
19.036553
19.036558
19.036554
19.036556
19.036557
19.036557
19.036556
19.036554
19.036553
19.036555
19.03656
19.036555
19.036557
19.036558
19.036559
19.036557
19.036556
19.036555
19.036557
19.036562
19.036556
19.036557
19.036559
19.036559
19.036559
19.036557
19.036557
19.036559
19.036564
19.036556
19.036558
19.03656
19.03656
19.036559
19.036558
19.036558
19.03656
19.036566
19.036556
19.036558
19.03656
19.036561
19.03656
19.036559
19.036559
19.036561
19.036567
19.036556
19.036558
19.03656
19.036561
19.03656
19.036559
19.036559
19.036561
19.036567
19.036556
19.036558
19.03656
19.03656
19.03656
19.036558
19.036558
19.03656
19.036565
19.036555
19.036557
19.036559
19.03656
19.036559
19.036558
19.036557
19.036558
19.036563
19.036555
19.036557
19.036559
19.036559
19.036558
19.036557
19.036556
19.036557
19.03656
19.036555
19.036556
19.036558
19.036559
19.036558
19.036556
19.036555
19.036555
19.036558
19.036555
19.036556
19.036558
19.036559
19.036557
19.036556
19.036554
19.036554
19.036556
19.036555
19.036557
19.036558
19.036559
19.036557
19.036555
19.036553
19.036553
19.036555
19.036556
19.036558
19.036559
19.036559
19.036558
19.036555
19.036553
19.036552
19.036554
19.036558
19.036559
19.03656
19.03656
19.036558
19.036556
19.036553
19.036553
19.036554
19.036559
19.03656
19.036561
19.036561
19.036559
19.036556
19.036554
19.036554
19.036554
19.036561
19.036562
19.036562
19.036561
19.03656
19.036557
19.036556
19.036555
19.036556
19.036559
19.03656
19.03656
19.036559
19.036558
19.036556
19.036555
19.036554
19.036553
17.721542
17.721541
17.72154
17.72154
17.72154
17.72154
17.72154
17.72154
17.72154
17.721548
17.721547
17.721546
17.721546
17.721546
17.721546
17.721547
17.721547
17.721548
17.721553
17.721552
17.721551
17.721551
17.721552
17.721552
17.721553
17.721553
17.721554
17.721558
17.721557
17.721557
17.721557
17.721557
17.721558
17.721559
17.721558
17.721558
17.721563
17.721563
17.721562
17.721562
17.721563
17.721564
17.721565
17.721564
17.721563
17.721568
17.721567
17.721567
17.721567
17.721569
17.72157
17.721571
17.72157
17.721568
17.721572
17.721571
17.721571
17.721572
17.721573
17.721575
17.721576
17.721575
17.721572
17.721575
17.721574
17.721574
17.721575
17.721577
17.721579
17.72158
17.721579
17.721575
17.721577
17.721577
17.721577
17.721578
17.721581
17.721583
17.721584
17.721582
17.721578
17.721579
17.721579
17.721579
17.721581
17.721583
17.721585
17.721586
17.721584
17.721579
17.72158
17.72158
17.72158
17.721582
17.721585
17.721587
17.721588
17.721585
17.721579
17.72158
17.72158
17.721581
17.721583
17.721585
17.721588
17.721588
17.721585
17.721579
17.72158
17.72158
17.721581
17.721583
17.721585
17.721588
17.721588
17.721585
17.721579
17.721579
17.72158
17.72158
17.721582
17.721585
17.721587
17.721588
17.721585
17.721578
17.721578
17.721579
17.721579
17.721581
17.721583
17.721586
17.721586
17.721583
17.721578
17.721577
17.721577
17.721577
17.721579
17.721582
17.721584
17.721584
17.721581
17.721576
17.721575
17.721575
17.721575
17.721577
17.721579
17.721581
17.721581
17.721579
17.721573
17.721573
17.721573
17.721573
17.721574
17.721576
17.721578
17.721578
17.721575
17.72157
17.72157
17.72157
17.72157
17.721571
17.721573
17.721574
17.721574
17.721571
17.721567
17.721568
17.721567
17.721567
17.721568
17.721569
17.72157
17.721569
17.721567
17.721563
17.721565
17.721564
17.721564
17.721564
17.721565
17.721566
17.721565
17.721562
17.721559
17.721561
17.721561
17.72156
17.721561
17.721561
17.721561
17.721561
17.721558
17.721556
17.721558
17.721558
17.721557
17.721557
17.721557
17.721557
17.721557
17.721555
17.721553
17.721554
17.721553
17.721552
17.721552
17.721552
17.721553
17.721552
17.721551
17.721548
16.40965
16.40965
16.409651
16.40965
16.40965
16.40965
16.40965
16.409652
16.409653
16.409651
16.409651
16.409651
16.409651
16.40965
16.40965
16.40965
16.409652
16.409654
16.409651
16.409651
16.409651
16.409651
16.40965
16.40965
16.40965
16.409651
16.409654
16.409651
16.409651
16.409652
16.409651
16.409651
16.40965
16.40965
16.409651
16.409654
16.409651
16.409651
16.409652
16.409651
16.409651
16.40965
16.40965
16.409651
16.409654
16.409651
16.409651
16.409652
16.409652
16.409651
16.40965
16.40965
16.409651
16.409654
16.409651
16.409651
16.409652
16.409652
16.409651
16.40965
16.40965
16.409652
16.409654
16.409651
16.409652
16.409652
16.409652
16.409651
16.409651
16.409651
16.409652
16.409654
16.409651
16.409652
16.409652
16.409652
16.409651
16.409651
16.409651
16.409652
16.409654
16.409651
16.409652
16.409652
16.409652
16.409652
16.409651
16.409651
16.409652
16.409654
16.409651
16.409652
16.409652
16.409652
16.409652
16.409651
16.409651
16.409652
16.409655
16.409651
16.409651
16.409652
16.409652
16.409652
16.409651
16.409651
16.409652
16.409655
16.409651
16.409651
16.409652
16.409652
16.409652
16.409651
16.409651
16.409652
16.409654
16.409651
16.409651
16.409652
16.409652
16.409652
16.409651
16.409651
16.409652
16.409654
16.409651
16.409651
16.409652
16.409652
16.409652
16.409652
16.409651
16.409652
16.409653
16.409651
16.409652
16.409652
16.409653
16.409652
16.409652
16.409651
16.409652
16.409653
16.409651
16.409652
16.409653
16.409653
16.409653
16.409652
16.409652
16.409652
16.409653
16.409652
16.409653
16.409654
16.409654
16.409653
16.409653
16.409652
16.409652
16.409653
16.409653
16.409654
16.409655
16.409655
16.409654
16.409654
16.409653
16.409652
16.409653
16.409655
16.409655
16.409656
16.409656
16.409656
16.409655
16.409654
16.409653
16.409654
16.409656
16.409657
16.409657
16.409657
16.409657
16.409656
16.409655
16.409654
16.409655
16.409658
16.409658
16.409659
16.409659
16.409658
16.409657
16.409657
16.409656
16.409656
16.40966
16.40966
16.40966
16.40966
16.409659
16.409659
16.409659
16.409659
16.409659
16.40966
16.40966
16.40966
16.40966
16.40966
16.40966
16.40966
16.40966
16.409659
15.096075
15.096075
15.096074
15.096074
15.096074
15.096074
15.096074
15.096074
15.096074
15.096077
15.096077
15.096077
15.096076
15.096077
15.096077
15.096077
15.096077
15.096077
15.096079
15.096079
15.096079
15.096079
15.096079
15.096079
15.096079
15.096079
15.09608
15.096082
15.096081
15.096081
15.096081
15.096081
15.096082
15.096082
15.096082
15.096082
15.096084
15.096084
15.096083
15.096083
15.096084
15.096084
15.096084
15.096084
15.096084
15.096086
15.096086
15.096085
15.096085
15.096086
15.096086
15.096086
15.096086
15.096086
15.096088
15.096087
15.096087
15.096087
15.096088
15.096088
15.096088
15.096088
15.096087
15.096089
15.096089
15.096089
15.096089
15.096089
15.09609
15.09609
15.09609
15.096089
15.09609
15.09609
15.09609
15.09609
15.096091
15.096091
15.096091
15.096091
15.09609
15.096091
15.096091
15.096091
15.096091
15.096092
15.096092
15.096093
15.096092
15.09609
15.096091
15.096091
15.096091
15.096092
15.096092
15.096093
15.096093
15.096092
15.096091
15.096091
15.096091
15.096092
15.096092
15.096093
15.096094
15.096094
15.096093
15.096091
15.096091
15.096091
15.096092
15.096092
15.096093
15.096094
15.096094
15.096093
15.096091
15.096091
15.096091
15.096091
15.096092
15.096093
15.096093
15.096093
15.096092
15.09609
15.096091
15.096091
15.096091
15.096092
15.096092
15.096093
15.096093
15.096092
15.09609
15.09609
15.09609
15.09609
15.096091
15.096092
15.096092
15.096092
15.096091
15.096089
15.09609
15.09609
15.09609
15.09609
15.096091
15.096091
15.096091
15.09609
15.096088
15.096089
15.096089
15.096089
15.096089
15.09609
15.09609
15.09609
15.096089
15.096087
15.096088
15.096088
15.096088
15.096088
15.096089
15.096089
15.096089
15.096088
15.096086
15.096087
15.096087
15.096087
15.096087
15.096088
15.096088
15.096087
15.096086
15.096085
15.096086
15.096086
15.096086
15.096086
15.096086
15.096086
15.096086
15.096085
15.096083
15.096085
15.096085
15.096085
15.096085
15.096085
15.096085
15.096085
15.096084
15.096082
15.096084
15.096084
15.096084
15.096084
15.096084
15.096084
15.096083
15.096082
15.096081
15.096083
15.096082
15.096082
15.096082
15.096082
15.096082
15.096082
15.096081
15.09608
13.783362
13.783362
13.783362
13.783362
13.783362
13.783362
13.783362
13.783362
13.783362
13.783363
13.783363
13.783363
13.783363
13.783362
13.783362
13.783362
13.783363
13.783363
13.783363
13.783363
13.783363
13.783363
13.783363
13.783363
13.783363
13.783363
13.783364
13.783364
13.783364
13.783364
13.783364
13.783363
13.783363
13.783363
13.783364
13.783364
13.783364
13.783364
13.783364
13.783364
13.783364
13.783364
13.783364
13.783364
13.783365
13.783364
13.783364
13.783364
13.783364
13.783364
13.783364
13.783364
13.783364
13.783365
13.783364
13.783365
13.783365
13.783365
13.783364
13.783364
13.783364
13.783365
13.783365
13.783365
13.783365
13.783365
13.783365
13.783365
13.783364
13.783365
13.783365
13.783366
13.783365
13.783365
13.783365
13.783365
13.783365
13.783365
13.783365
13.783365
13.783366
13.783365
13.783365
13.783365
13.783365
13.783365
13.783365
13.783365
13.783365
13.783366
13.783365
13.783365
13.783365
13.783365
13.783365
13.783365
13.783365
13.783366
13.783366
13.783365
13.783365
13.783366
13.783366
13.783365
13.783365
13.783365
13.783366
13.783367
13.783365
13.783365
13.783366
13.783366
13.783366
13.783366
13.783366
13.783366
13.783367
13.783365
13.783366
13.783366
13.783366
13.783366
13.783366
13.783366
13.783366
13.783367
13.783366
13.783366
13.783366
13.783366
13.783366
13.783366
13.783366
13.783366