/*--------------------------------*- C++ -*----------------------------------*\
| =========                 |                                                 |
| \\      /  F ield         | OpenFOAM: The Open Source CFD Toolbox           |
|  \\    /   O peration     | Version:  2406                                  |
|   \\  /    A nd           | Website:  www.openfoam.com                      |
|    \\/     M anipulation  |                                                 |
\*---------------------------------------------------------------------------*/
FoamFile
{
    version     2.0;
    format      ascii;
    arch        "LSB;label=32;scalar=64";
    class       surfaceScalarField;
    location    "18.75";
    object      phi;
}
// * * * * * * * * * * * * * * * * * * * * * * * * * * * * * * * * * * * * * //

dimensions      [0 3 -1 0 0 0 0];

oriented        oriented;

internalField   nonuniform List<scalar> 
101088
(
-9.2175233e-05
1.3104102e-05
1.2854407e-06
-9.8991291e-06
-0.00023047592
6.7055903e-05
3.0654607e-07
-5.1767435e-05
-0.00042484092
0.00018810276
-1.302591e-05
-0.00014760507
-0.00066784409
0.00040687176
-5.6209592e-05
-0.00032571033
-0.0009159308
0.00070812444
-0.00014685978
-0.00058287618
-0.0011011711
0.0010086697
-0.00027760666
-0.00085651021
-0.0011852466
0.0012186002
-0.00040184391
-0.001061015
-0.0011928938
0.0013054478
-0.00046351433
-0.001149423
0.0012669761
-0.0004408466
-0.0011272737
-0.0011661087
-0.00011155567
1.503493e-05
2.0613998e-06
-0.00027512138
7.8580418e-05
1.7163413e-06
-0.00049839364
0.00022188633
-1.4702827e-05
-0.00076463539
0.00047679448
-7.0245449e-05
-0.0010143084
0.00081388622
-0.00018595879
-0.0011711102
0.0011330012
-0.0003486997
-0.0012077285
0.0013488367
-0.00049929311
-0.0011639616
0.0014405584
-0.0005731095
0.0014059636
-0.00054987839
-0.0011027213
-0.00013175672
1.5901976e-05
3.2634125e-06
-0.00032138027
8.5307295e-05
4.8299149e-06
-0.00057261489
0.00024448175
-1.2763783e-05
-0.0008584579
0.00052653945
-7.841879e-05
-0.00110652
0.0008895826
-0.00021625414
-0.0012364994
0.0012201958
-0.00040614873
-0.0012324318
0.0014431949
-0.00057713503
-0.0011481739
0.0015479801
-0.00065919124
0.0015289338
-0.00063496903
-0.0010542781
-0.00015170752
1.5610466e-05
4.7911153e-06
-0.00036730426
8.6469503e-05
9.4034495e-06
-0.0006454686
0.000252736
-7.4506998e-06
-0.00094780909
0.00054893839
-8.0543242e-05
-0.001190514
0.00092464707
-0.00023670465
-0.0012964917
0.0012626615
-0.00044883208
-0.0012622793
0.0014984721
-0.00063546187
-0.0011514224
0.0016265743
-0.00072327801
0.0016296741
-0.00069785001
-0.0010333041
-0.00017027116
1.3386019e-05
6.709613e-06
-0.00040921088
7.919055e-05
1.5689788e-05
-0.00071083286
0.00024115103
2.0064086e-06
-0.0010272155
0.00053724296
-7.5375795e-05
-0.0012668512
0.00091429969
-0.00024597791
-0.0013581305
0.0012594729
-0.00047594088
-0.001307441
0.0015160351
-0.00067495819
-0.0011824092
0.001675236
-0.00076647722
0.0017032932
-0.00073904953
-0.0010492455
-0.00018810394
9.4156721e-06
9.0671221e-06
-0.00045064944
6.384466e-05
2.3798011e-05
-0.00077806433
0.00020991704
1.6304937e-05
-0.0011134907
0.00049147524
-6.1577285e-05
-0.0013598089
0.00086066006
-0.00024284746
-0.0014477635
0.0012117541
-0.00048686692
-0.0013913895
0.0014935027
-0.00069435716
-0.0012583887
0.0016853853
-0.00078737479
0.0017386275
-0.00075824552
-0.0011134855
-0.00020449302
3.7202971e-06
1.1877452e-05
-0.00049066944
4.0837019e-05
3.42004e-05
-0.000846785
0.00015991742
3.6261077e-05
-0.0012086718
0.00041306366
-3.7029104e-05
-0.0014731076
0.00076499768
-0.00022360952
-0.0015725456
0.0011204021
-0.00047686751
-0.0015229645
0.0014269205
-0.00068957509
-0.0013901282
0.0016479633
-0.00078311929
0.0017223107
-0.00075337193
-0.0012365982
-0.00021996379
-2.9763844e-06
1.5206848e-05
-0.00053266887
1.2995317e-05
4.7658701e-05
-0.00092571072
9.7010999e-05
6.2581062e-05
-0.0013299266
0.0003099699
5.662935e-07
-0.0016321561
0.00063395213
-0.00018505449
-0.001760669
0.00098556535
-0.00044221831
-0.0017287561
0.0013067239
-0.00065663742
-0.0015990852
0.0015445428
-0.0007497547
0.0016313576
-0.00072100496
-0.0014343215
-0.00023537363
-8.8466293e-06
1.9019057e-05
-0.00058042613
-1.3029521e-05
6.3536667e-05
-0.0010262414
3.4437542e-05
9.5821716e-05
-0.0014970012
0.00019854232
5.1500576e-05
-0.0018624866
0.00047885443
-0.00012579934
-0.0020383685
0.00080555044
-0.0003802028
-0.0020312998
0.0011157777
-0.00059168832
-0.0019018745
0.0013463664
-0.00068309931
0.0014330907
-0.00065761336
-0.0017175116
-0.00025104651
-1.1295054e-05
2.3040787e-05
-0.00063593512
-2.7584284e-05
8.0721157e-05
-0.0011546102
-9.2132663e-06
0.00013513291
-0.001717643
0.00010145948
0.0001112357
-0.0021708201
0.00031456496
-5.0157647e-05
-0.0024078428
0.00057771474
-0.00029424679
-0.002427376
0.00083390257
-0.00049710122
-0.0022904619
0.0010215293
-0.00058498579
0.0010930731
-0.00056502386
-0.0020748498
-0.00026597852
-7.9142222e-06
2.6619144e-05
-0.00069417691
-2.1905587e-05
9.629857e-05
-0.0012925777
-1.820098e-05
0.00017040048
-0.0019562237
3.7463512e-05
0.00016660268
-0.0025042727
0.00015397548
2.6853413e-05
-0.0028035055
0.0003038475
-0.00020128879
-0.002845313
0.00045320122
-0.00039117322
-0.0026945927
0.0005584159
-0.000474364
0.00059964557
-0.00046064554
-0.0024416557
-0.00027549334
-1.7574146e-10
2.8809599e-05
-0.00073337017
-8.1197136e-10
0.00010596425
-0.0013860871
-1.9527327e-09
0.00019258618
-0.0021201346
-3.3924336e-09
0.00020434333
-0.0027336231
-4.4249529e-09
7.8550769e-05
-0.0030751771
-4.8236971e-09
-0.0001366684
-0.003127233
-4.677014e-09
-0.00031603441
-0.0029661554
-4.0875782e-09
-0.00039634578
-2.6792122e-09
-0.00038680844
-0.0026866763
-0.00027549334
7.9139244e-06
2.8809589e-05
-0.00073336955
2.1904063e-05
0.00010596421
-0.0013860865
1.8197176e-05
0.00019258607
-0.0021201342
-3.7470381e-05
0.00020434315
-0.0027336231
-0.00015398462
7.8550562e-05
-0.0030751772
-0.0003038573
-0.00013666857
-0.0031272332
-0.00045321049
-0.0003160345
-0.0029661558
-0.00055842379
-0.00039634581
-0.0005996507
-0.00038680846
-0.0026866769
-0.00026597879
1.1294699e-05
2.6619126e-05
-0.00069417637
2.7582598e-05
9.629849e-05
-0.0012925776
9.2092732e-06
0.00017040027
-0.0019562238
-0.00010146646
0.00016660231
-0.0025042735
-0.00031457422
2.6852952e-05
-0.0028035067
-0.0005777245
-0.00020128921
-0.0028453144
-0.00083391163
-0.00039117349
-0.0026945939
-0.001021537
-0.00047436412
-0.0010930785
-0.00046064561
-0.0024416568
-0.0002510467
8.8461145e-06
2.3040759e-05
-0.00063593491
1.302753e-05
8.072104e-05
-0.0011546109
-3.4441459e-05
0.00013513264
-0.0017176429
-0.00019854837
0.00011123526
-0.0021708209
-0.00047886245
-5.0158187e-05
-0.0024078446
-0.00080555903
-0.00029424727
-0.0024273781
-0.0011157857
-0.00049710156
-0.0022904632
-0.0013463741
-0.00058498595
-0.0014330974
-0.00056502397
-0.0020748508
-0.00023537323
2.9760013e-06
1.9019034e-05
-0.00058042598
-1.2996814e-05
6.3536565e-05
-0.001026243
-9.7014068e-05
9.5821474e-05
-0.0014970021
-0.00030997491
5.1500165e-05
-0.0018624885
-0.00063395892
-0.00012579986
-0.002038371
-0.00098557247
-0.00038020331
-0.0020313028
-0.0013067309
-0.00059168872
-0.0019018763
-0.0015445505
-0.00068309953
-0.0016313661
-0.0006576135
-0.0017175125
-0.00021996331
-3.7205883e-06
1.520683e-05
-0.00053266911
-4.0838144e-05
4.7658615e-05
-0.00092571328
-0.00015992018
6.258086e-05
-0.0013299292
-0.00041306863
5.659369e-07
-0.0016321591
-0.00076500345
-0.00018505495
-0.001760672
-0.0011204076
-0.00044221878
-0.0017287602
-0.0014269265
-0.00065663779
-0.0015990883
-0.0016479707
-0.00074975493
-0.0017223197
-0.00072100516
-0.0014343235
-0.00020449275
-9.4156822e-06
1.1877441e-05
-0.00049066944
-6.3844958e-05
3.4200342e-05
-0.0008467874
-0.0002099187
3.6260924e-05
-0.0012086748
-0.0004914787
-3.7029389e-05
-0.0014731109
-0.00086066383
-0.00022360991
-0.0015725488
-0.001211758
-0.0004768679
-0.0015229693
-0.0014935076
-0.00068957538
-0.0013901323
-0.0016853918
-0.00078311952
-0.0017386358
-0.00075337219
-0.0012366016
-0.00018810382
-1.3386257e-05
9.0671135e-06
-0.00045064929
-7.9191204e-05
2.3797969e-05
-0.00077806558
-0.00024115234
1.6304822e-05
-0.0011134925
-0.00053724497
-6.1577517e-05
-0.0013598126
-0.00091430311
-0.0002428478
-0.0014477674
-0.0012594761
-0.00048686729
-0.0013913942
-0.0015160389
-0.00069435747
-0.0012583924
-0.0016752409
-0.00078737512
-0.0017033003
-0.00075824574
-0.0011134893
-0.00017027107
-1.5610501e-05
6.7096033e-06
-0.00040921029
-8.6469745e-05
1.5689744e-05
-0.00071083309
-0.00025273678
2.0062969e-06
-0.0010272182
-0.00054894062
-7.5375995e-05
-0.0012668548
-0.00092465101
-0.00024597819
-0.0013581331
-0.0012626645
-0.00047594116
-0.0013074439
-0.001498475
-0.00067495845
-0.0011824113
-0.0016265779
-0.00076647749
-0.0016296799
-0.00073904957
-0.001049249
-0.00015170753
-1.5902147e-05
4.791105e-06
-0.00036730414
-8.5307816e-05
9.4034074e-06
-0.00064546901
-0.00024448256
-7.4507948e-06
-0.0009478109
-0.00052654073
-8.0543415e-05
-0.001190515
-0.00088958371
-0.00023670491
-0.0012964923
-0.0012201971
-0.00044883239
-0.0012622797
-0.0014431956
-0.0006354621
-0.0011514241
-0.0015479826
-0.00072327815
-0.0015289397
-0.00069784993
-0.0010333076
-0.00013175669
-1.5035017e-05
3.2634021e-06
-0.00032137984
-7.8580631e-05
4.8298732e-06
-0.00057261387
-0.00022188675
-1.2763877e-05
-0.00085845743
-0.00047679538
-7.8418958e-05
-0.0011065204
-0.00081388743
-0.00021625438
-0.0012364997
-0.0011330017
-0.00040614901
-0.0012324338
-0.0013488358
-0.00057713526
-0.0011481778
-0.0014405574
-0.00065919136
-0.0014059682
-0.00063496908
-0.0010542818
-0.00011155553
-1.3104112e-05
2.0613912e-06
-0.00027512074
-6.7055927e-05
1.7163051e-06
-0.00049839255
-0.00018810284
-1.4702914e-05
-0.00076463518
-0.00040687208
-7.0245617e-05
-0.0010143094
-0.00070812512
-0.00018595905
-0.00117111
-0.0010086691
-0.00034870003
-0.0012077271
-0.0012185988
-0.00049929342
-0.0011639613
-0.0013054486
-0.0005731096
-0.0012669785
-0.00054987846
-0.0011027221
-9.2175222e-05
1.285433e-06
-9.8990885e-06
-0.00023047584
3.0651363e-07
-5.1767283e-05
-0.0004248409
-1.3025988e-05
-0.00014760475
-0.00066784405
-5.6209738e-05
-0.00032570982
-0.00091593015
-0.00014686001
-0.0005828756
-0.0011011713
-0.00027760694
-0.00085650982
-0.0011852473
-0.00040184408
-0.0010610162
-0.0011928922
-0.00046351442
-0.001149426
-0.00044084663
-0.0011272787
-0.001166108
1.5201384e-06
1.6386477e-07
1.0062525e-06
-1.4048115e-06
6.5037256e-06
-8.5222558e-07
1.0225665e-06
-4.8474619e-06
1.5933735e-05
-6.9648271e-06
-7.6882471e-06
-7.8030712e-06
2.9798542e-05
-2.736165e-05
-3.925301e-05
-3.4600026e-06
4.6617489e-05
-7.5511744e-05
-0.00010853973
2.037273e-05
6.6234419e-05
-0.00015670213
-0.00021357612
7.3054982e-05
9.1448423e-05
-0.00025344774
-0.00031957853
0.00014596833
0.00012307943
-0.00033321831
-0.00037687827
0.0002149513
-0.00037279975
-0.00036203518
0.00026029035
0.0001567781
2.4719139e-06
-1.6146675e-06
1.3679809e-06
1.0926957e-05
-9.0946447e-06
1.5036016e-06
2.6982695e-05
-2.8015784e-05
-9.7077307e-06
4.920492e-05
-6.9619538e-05
-5.0209448e-05
7.1981734e-05
-0.00014631513
-0.00013793125
9.1960894e-05
-0.00025658335
-0.00026879753
0.00011197118
-0.0003736876
-0.00039906431
0.00013638514
-0.00046100314
-0.00046973764
-0.00049656151
-0.0004558912
0.00016616034
3.7895269e-06
-4.0232258e-06
1.882376e-06
1.6814388e-05
-1.994766e-05
2.6577603e-06
4.1060068e-05
-5.4952633e-05
-1.0072999e-05
7.2484778e-05
-0.0001216693
-5.7793578e-05
0.0001002276
-0.00022924944
-0.0001610622
0.00011797582
-0.00036714343
-0.00031333685
0.00013018507
-0.00050045256
-0.00046257861
0.00014491133
-0.00059205449
-0.00054286674
-0.00062267409
-0.0005294564
0.0001655123
5.3595088e-06
-7.0085622e-06
2.4169478e-06
2.3926393e-05
-3.3076414e-05
3.9653084e-06
5.7982717e-05
-8.6602028e-05
-9.8571303e-06
9.9886231e-05
-0.00018044907
-6.3665698e-05
0.00013255839
-0.00031852894
-0.00018009783
0.00014709373
-0.00048064621
-0.00034986461
0.00015061553
-0.00062598311
-0.00051345357
0.00015448898
-0.00071924949
-0.00059995635
-0.00074376589
-0.00058610428
0.00016383555
7.0430535e-06
-1.0309641e-05
2.9674898e-06
3.1607007e-05
-4.7368483e-05
5.4173627e-06
7.6391972e-05
-0.00012031121
-9.0696107e-06
0.00012949416
-0.00024102497
-6.7901166e-05
0.00016717202
-0.00040675019
-0.00019543379
0.00017849828
-0.00058833511
-0.00037957832
0.00017363866
-0.00074200299
-0.00055407839
0.00016715879
-0.00083495034
-0.00064429711
-0.00085205154
-0.00062912852
0.0001655234
8.9802317e-06
-1.3739226e-05
3.5164911e-06
4.0255102e-05
-6.1795588e-05
6.9505179e-06
9.7337237e-05
-0.00015325093
-7.836616e-06
0.00016326181
-0.00029777868
-7.0748415e-05
0.00020670743
-0.00048541076
-0.00020763175
0.00021512333
-0.00067990639
-0.00040371155
0.00020262015
-0.0008372078
-0.00058664879
0.00018657493
-0.00092744961
-0.00067883073
-0.00093616853
-0.00066162685
0.00017407326
1.0857387e-05
-1.6759027e-05
4.0396171e-06
4.879809e-05
-7.4028998e-05
8.4930431e-06
0.00011804441
-0.00017998901
-6.246049e-06
0.00019677798
-0.00034128138
-7.2259995e-05
0.00024602444
-0.00054149133
-0.00021677612
0.00025237351
-0.0007404878
-0.00042263626
0.00023411097
-0.00089635432
-0.00061216592
0.00021059948
-0.00098173056
-0.00070532709
-0.0009820198
-0.0006858341
0.00018891278
1.2461716e-05
-1.8589043e-05
4.5748345e-06
5.6735495e-05
-8.0843343e-05
1.0199422e-05
0.00013668216
-0.00019335974
-3.9937244e-06
0.00022767953
-0.00035968556
-7.2026542e-05
0.00028293845
-0.00055922781
-0.00022257678
0.00028858057
-0.00075179316
-0.00043655575
0.00026693899
-0.00089979096
-0.00063155936
0.00023852214
-0.00097773889
-0.00072533007
-0.00097054253
-0.00070360303
0.00020964266
1.3630906e-05
-1.8332823e-05
5.1316821e-06
6.2870072e-05
-7.8653778e-05
1.2107747e-05
0.00015179249
-0.00018544944
-1.0107053e-06
0.00025347217
-0.0003398375
-7.0027977e-05
0.0003143285
-0.00052080214
-0.00022508135
0.0003205719
-0.00069259183
-0.00044564767
0.00029798127
-0.00082361501
-0.00064527381
0.0002671927
-0.0008903782
-0.00073967207
-0.00087814347
-0.00071615223
0.00023333244
1.4109061e-05
-1.5088896e-05
5.6880189e-06
6.6075484e-05
-6.4027204e-05
1.4128126e-05
0.00016234962
-0.00014913647
2.545918e-06
0.00027109947
-0.000270628
-6.6724439e-05
0.00033653559
-0.00041144009
-0.00022495604
0.00034464181
-0.00054433233
-0.00045061241
0.0003233729
-0.00064551081
-0.00065393649
0.00029253666
-0.00069559907
-0.00074892895
-0.00068265749
-0.00072407241
0.00025609949
1.4114743e-05
-8.7304194e-06
6.1461189e-06
6.7188365e-05
-3.6666407e-05
1.5863892e-05
0.00016724674
-8.461032e-05
5.815896e-06
0.00027884722
-0.00015232589
-6.3299819e-05
0.00034758906
-0.00022991045
-0.00022341785
0.00035796985
-0.00030359756
-0.00045240403
0.0003392889
-0.00035984192
-0.00065816096
0.00030981334
-0.000386943
-0.00075354433
-0.00037853744
-0.00072785192
0.00027290008
1.3626882e-05
4.1086975e-11
6.4523091e-06
6.5862901e-05
2.0225458e-10
1.7061438e-05
0.00016565326
5.2063048e-10
8.1848454e-06
0.00027814103
1.103302e-09
-6.0470988e-05
0.00034851049
1.8758889e-09
-0.00022173071
0.00036087368
2.3742179e-09
-0.00045263127
0.00034482977
2.3690296e-09
-0.00065983464
0.00031707725
2.1186981e-09
-0.00075553798
1.9383883e-09
-0.00072943724
0.00028116707
1.362687e-05
8.7305138e-06
6.4523073e-06
6.5863128e-05
3.666682e-05
1.7061432e-05
0.00016565343
8.4611311e-05
8.1848356e-06
0.00027814096
0.00015232785
-6.0470994e-05
0.00034851022
0.0002299137
-0.0002217307
0.00036087336
0.00030360175
-0.00045263124
0.00034482957
0.00035984629
-0.0006598346
0.00031707722
0.00038694705
-0.00075553796
0.00037854131
-0.00072943726
0.00028116712
1.4114625e-05
1.5088958e-05
6.1461157e-06
6.7188616e-05
6.4027485e-05
1.586388e-05
0.00016724674
0.0001491372
5.8158715e-06
0.00027884699
0.00027062945
-6.3299853e-05
0.00034758846
0.00041144251
-0.00022341789
0.00035796909
0.00054433566
-0.00045240407
0.00033928838
0.00064551464
-0.00065816099
0.0003098133
0.00069560273
-0.00075354437
0.00068266101
-0.000727852
0.00027290029
1.4108906e-05
1.8332769e-05
5.6880134e-06
6.6075412e-05
7.8653736e-05
1.4128107e-05
0.00016234903
0.00018544975
2.5458863e-06
0.0002710992
0.00033983859
-6.6724466e-05
0.00033653506
0.00052080411
-0.00022495604
0.00034464104
0.00069259474
-0.00045061239
0.00032337228
0.0008236186
-0.00065393647
0.00029253665
0.00089038138
-0.00074892895
0.00087814593
-0.00072407248
0.00025609991
1.363103e-05
1.8588992e-05
5.1316771e-06
6.287011e-05
8.0843316e-05
1.2107726e-05
0.0001517917
0.00019336008
-1.0107419e-06
0.00025347183
0.00035968664
-7.0028014e-05
0.00031432794
0.00055922971
-0.00022508137
0.00032057122
0.0007517961
-0.00044564768
0.00029798052
0.0008997945
-0.00064527382
0.00026719244
0.00097774162
-0.00073967209
0.00097054388
-0.00071615228
0.00023333259
1.2461918e-05
1.6758995e-05
4.5748298e-06
5.6735449e-05
7.4029017e-05
1.0199401e-05
0.00013668104
0.00017998923
-3.9937665e-06
0.00022767851
0.00034128202
-7.2026594e-05
0.00028293746
0.00054149301
-0.00022257683
0.00028857991
0.00074049087
-0.0004365558
0.00026693803
0.00089635779
-0.00063155939
0.00023852149
0.00098173312
-0.00072533008
0.000982021
-0.00070360306
0.0002096423
1.085757e-05
1.3739269e-05
4.0396132e-06
4.8798255e-05
6.1795833e-05
8.4930246e-06
0.00011804345
0.00015325128
-6.2460914e-06
0.00019677692
0.00029777937
-7.226006e-05
0.00024602345
0.00048541273
-0.0002167762
0.00025237285
0.00067990978
-0.00042263634
0.00023410984
0.00083721135
-0.00061216596
0.00021059865
0.00092745245
-0.00070532711
0.00093617016
-0.00068583413
0.00018891226
8.9803244e-06
1.0309617e-05
3.5164871e-06
4.025518e-05
4.7368582e-05
6.9504979e-06
9.7336587e-05
0.00012031145
-7.8366665e-06
0.00016326119
0.00024102576
-7.0748509e-05
0.00020670625
0.00040675181
-0.00020763188
0.0002151224
0.00058833831
-0.00040371169
0.00020261913
0.00074200678
-0.00058664891
0.00018657456
0.00083495372
-0.00067883082
0.00085205305
-0.00066162688
0.00017407331
7.043153e-06
7.0085684e-06
2.9674841e-06
3.1607445e-05
3.3076573e-05
5.4173392e-06
7.6392181e-05
8.6602398e-05
-9.069663e-06
0.00012949329
0.00018044966
-6.7901255e-05
0.00016717074
0.00031853012
-0.0001954339
0.00017849755
0.0004806492
-0.00037957842
0.0001736382
0.00062598702
-0.00055407848
0.00016715918
0.00071925297
-0.0006442972
0.00074376685
-0.00062912851
0.00016552404
5.3595148e-06
4.0231745e-06
2.4169418e-06
2.3926507e-05
1.9947636e-05
3.965284e-06
5.7982584e-05
5.4952771e-05
-9.8571831e-06
9.9885201e-05
0.00012166972
-6.3665785e-05
0.00013255786
0.00022925105
-0.00018009794
0.00014709357
0.00036714655
-0.00034986473
0.00015061597
0.00050045678
-0.00051345367
0.00015448968
0.00059205746
-0.00059995641
0.0006226736
-0.00058610427
0.00016383659
3.7895085e-06
1.614647e-06
1.88237e-06
1.6814539e-05
9.0947185e-06
2.6577363e-06
4.106052e-05
2.8016103e-05
-1.007305e-05
7.2484856e-05
6.962026e-05
-5.7793663e-05
0.00010022727
0.00014631687
-0.00016106232
0.00011797552
0.00025658692
-0.00031333697
0.00013018429
0.000373692
-0.00046257872
0.00014491078
0.00046100688
-0.00054286681
0.00049656017
-0.00052945646
0.00016551312
2.4719474e-06
-1.6384958e-07
1.367976e-06
1.0927199e-05
8.5235919e-07
1.5035805e-06
2.6983173e-05
6.9652111e-06
-9.70778e-06
4.9204887e-05
2.736243e-05
-5.020954e-05
7.1980892e-05
7.5513459e-05
-0.00013793139
9.1960241e-05
0.000156706
-0.00026879771
0.00011197129
0.000253452
-0.00039906448
0.00013638528
0.00033322073
-0.00046973776
0.00037279857
-0.0004558913
0.00016616088
1.5201385e-06
1.0062492e-06
-1.4047534e-06
6.5038065e-06
1.0225512e-06
-4.8472069e-06
1.5933843e-05
-7.6882845e-06
-7.8024293e-06
2.979858e-05
-3.9253081e-05
-3.4587204e-06
4.6617858e-05
-0.00010853984
2.0375196e-05
6.6234384e-05
-0.00021357626
7.3058604e-05
9.1448193e-05
-0.00031957866
0.0001459715
0.00012307968
-0.00037687838
0.00021495317
-0.00036203526
0.00026028828
0.0001567776
-2.9571983e-08
-2.2664553e-07
9.9532368e-07
2.6714654e-07
1.0751787e-07
-7.0422264e-07
6.6165721e-07
9.2801349e-07
1.9143247e-07
-1.0067531e-06
-8.449109e-06
1.6836208e-06
-1.0925458e-06
-4.9677005e-07
-3.9612831e-05
2.1404747e-06
-5.1072306e-06
1.6545639e-06
-0.00010792107
1.7414257e-06
-1.1536475e-05
5.9074545e-06
-0.00021304223
-1.2041521e-08
-1.789712e-05
1.1384155e-05
-0.00032157179
-3.0303132e-06
-2.1380992e-05
1.563042e-05
-0.00038304733
-5.977519e-06
1.5397381e-05
-0.00037109467
-7.4002081e-06
-2.0318579e-05
-2.5255775e-08
-2.420586e-07
1.4086307e-06
1.9436824e-07
-6.8112622e-07
1.2608066e-06
3.6336443e-07
-7.2411618e-07
-1.0159498e-05
-1.1573707e-06
5.6317957e-07
-4.9748742e-05
-5.8995326e-06
4.3608779e-06
-0.00013589535
-1.3254694e-05
1.1079362e-05
-0.00026661444
-2.0233004e-05
1.8977168e-05
-0.00039967935
-2.3645282e-05
2.4464984e-05
-0.00047515984
2.4048254e-05
-0.00046535133
-2.2836108e-05
-1.3253732e-09
-3.2195113e-07
1.9635736e-06
4.1820548e-07
-9.3069614e-07
2.4877197e-06
9.7288764e-07
-1.0531848e-06
-1.0298705e-05
-2.7870845e-07
6.4109606e-07
-5.6619848e-05
-5.12991e-06
5.8701963e-06
-0.00015772025
-1.2902405e-05
1.5048128e-05
-0.00030953317
-2.0372546e-05
2.5484386e-05
-0.00046161555
-2.4335548e-05
3.2595424e-05
-0.00054703438
3.2929977e-05
-0.00053845843
-2.421514e-05
3.0692088e-08
-4.5765666e-07
2.5219444e-06
6.9370437e-07
-1.429467e-06
3.8009943e-06
1.7601982e-06
-1.9737196e-06
-1.0003091e-05
1.0640639e-06
-3.036608e-07
-6.2024599e-05
-3.4576834e-06
6.0211236e-06
-0.00017572722
-1.1248576e-05
1.7540351e-05
-0.00034456595
-1.9124522e-05
3.0622223e-05
-0.00051071565
-2.3831704e-05
3.9679918e-05
-0.00060233367
4.108641e-05
-0.0005937885
-2.4303863e-05
7.6618808e-08
-6.3780849e-07
3.0709941e-06
1.0374966e-06
-2.1340154e-06
5.1609188e-06
2.7404767e-06
-3.3992641e-06
-9.347118e-06
2.8292122e-06
-2.1691744e-06
-6.6124238e-05
-1.0651955e-06
4.836181e-06
-0.00019035429
-8.6483757e-06
1.8377446e-05
-0.00037283227
-1.6927861e-05
3.3967976e-05
-0.00054914467
-2.2404947e-05
4.4893437e-05
-0.00064403375
4.74271e-05
-0.00063439994
-2.3474242e-05
1.3638252e-07
-8.4007858e-07
3.582372e-06
1.4393615e-06
-2.9483863e-06
6.4619622e-06
3.8652337e-06
-5.1147667e-06
-8.5467858e-06
4.8673886e-06
-4.631569e-06
-6.9288284e-05
1.7667863e-06
2.5510845e-06
-0.00020224587
-5.5434319e-06
1.7520994e-05
-0.00039554493
-1.4200101e-05
3.4964974e-05
-0.00057898909
-2.0479596e-05
4.7319352e-05
-0.00067497732
5.087752e-05
-0.00066330279
-2.2254078e-05
2.0405303e-07
-1.0240285e-06
4.019456e-06
1.874e-06
-3.7129719e-06
7.5876523e-06
5.0922882e-06
-6.7931021e-06
-7.7857306e-06
7.166662e-06
-7.2537135e-06
-7.1712213e-05
4.9838539e-06
-4.2827239e-07
-0.00021161415
-1.9738515e-06
1.5007969e-05
-0.00041316595
-1.1053121e-05
3.3236021e-05
-0.00060135777
-1.8344269e-05
4.6316819e-05
-0.00069703354
5.0585214e-05
-0.0006828643
-2.1021789e-05
2.7864298e-07
-1.1388004e-06
4.4109016e-06
2.3392419e-06
-4.2224357e-06
8.6483277e-06
6.395949e-06
-7.9973498e-06
-6.8459156e-06
9.6110897e-06
-9.3712878e-06
-7.3124015e-05
8.4391787e-06
-3.4854833e-06
-0.00021834765
1.7885529e-06
1.1210824e-05
-0.00042610831
-7.9066284e-06
2.8839095e-05
-0.0006174674
-1.6370214e-05
4.1639796e-05
-0.00071218966
4.6146924e-05
-0.00069550283
-2.003219e-05
3.6036952e-07
-1.12818e-06
4.760622e-06
2.834009e-06
-4.247364e-06
9.6590094e-06
7.7674311e-06
-8.2341565e-06
-5.7072305e-06
1.2135815e-05
-1.0225295e-05
-7.3542583e-05
1.1846667e-05
-5.6532921e-06
-0.00022262444
5.3639604e-06
6.9536374e-06
-0.00043490792
-5.0428037e-06
2.234271e-05
-0.00062837077
-1.4670066e-05
3.3604928e-05
-0.00072201013
3.7726906e-05
-0.00070310146
-1.9300835e-05
4.4519379e-07
-9.370646e-07
5.0517437e-06
3.3455465e-06
-3.5618016e-06
1.0542222e-05
9.2331826e-06
-7.0141064e-06
-4.5616762e-06
1.4651021e-05
-9.0365048e-06
-7.3331272e-05
1.5038526e-05
-5.9674058e-06
-0.0002250295
8.4937882e-06
3.2947797e-06
-0.00044040885
-2.6609105e-06
1.4751469e-05
-0.00063519057
-1.3309809e-05
2.3176493e-05
-0.0007278517
2.6327469e-05
-0.00070719073
-1.8791977e-05
5.1914484e-07
-5.4432862e-07
5.2342837e-06
3.7984139e-06
-2.0755133e-06
1.1098282e-05
1.0551184e-05
-4.1224801e-06
-3.8284466e-06
1.6784793e-05
-5.4274167e-06
-7.3142466e-05
1.763678e-05
-3.861551e-06
-0.0002263756
1.093102e-05
1.0948322e-06
-0.00044349824
-8.7714563e-07
7.2553175e-06
-0.00063885659
-1.230368e-05
1.1766882e-05
-0.00073070813
1.3451052e-05
-0.00070885246
-1.8426614e-05
5.5385397e-07
-1.9823601e-11
5.3541688e-06
4.04901e-06
-5.3090758e-11
1.1490786e-05
1.1333955e-05
-7.4582311e-11
-3.2224677e-06
1.8127256e-05
-2.0093968e-11
-7.2691525e-05
1.9179463e-05
1.7053779e-10
-0.00022664447
1.2317353e-05
3.9521603e-10
-0.00044467462
1.3089086e-07
5.0885298e-10
-0.00064039331
-1.1735418e-05
5.2759821e-10
-0.00073190519
5.6325552e-10
-0.00070949132
-1.8230718e-05
5.5385123e-07
5.4428838e-07
5.3541677e-06
4.0490795e-06
2.0754086e-06
1.1490783e-05
1.1334034e-05
4.122329e-06
-3.2224704e-06
1.8127295e-05
5.4273461e-06
-7.2691521e-05
1.9179458e-05
3.8618206e-06
-0.00022664445
1.2317308e-05
-1.0941e-06
-0.00044467459
1.3083352e-07
-7.2542974e-06
-0.00064039327
-1.1735477e-05
-1.176579e-05
-0.00073190517
-1.3449894e-05
-0.00070949132
-1.8230782e-05
5.1911484e-07
9.3701968e-07
5.2342824e-06
3.7984719e-06
3.5616882e-06
1.1098276e-05
1.0551181e-05
7.0139388e-06
-3.8284566e-06
1.6784742e-05
9.0363874e-06
-7.314248e-05
1.7636623e-05
5.9676012e-06
-0.00022637561
1.0930765e-05
-3.2940975e-06
-0.00044349825
-8.7742039e-07
-1.4750393e-05
-0.0006388566
-1.2303902e-05
-2.3175352e-05
-0.00073070815
-2.6326333e-05
-0.00070885248
-1.8426801e-05
4.4517471e-07
1.1281092e-06
5.0517412e-06
3.3455512e-06
4.247187e-06
1.0542213e-05
9.2330706e-06
8.2339249e-06
-4.5616887e-06
1.4651008e-05
1.0225188e-05
-7.3331276e-05
1.5038406e-05
5.6535952e-06
-0.00022502948
8.493508e-06
-6.9527617e-06
-0.0004404088
-2.6612535e-06
-2.2341416e-05
-0.00063519052
-1.3310088e-05
-3.3603696e-05
-0.00072785166
-3.7725898e-05
-0.00070719074
-1.8792215e-05
3.6041239e-07
1.13873e-06
4.76062e-06
2.8340343e-06
4.2222639e-06
9.6590006e-06
7.7672816e-06
7.9971496e-06
-5.7072457e-06
1.2135775e-05
9.3712842e-06
-7.3542596e-05
1.1846488e-05
3.4860092e-06
-0.00022262444
5.3636516e-06
-1.1209588e-05
-0.0004349079
-5.0432115e-06
-2.8837529e-05
-0.00062837075
-1.4670362e-05
-4.1638516e-05
-0.00072201012
-4.6146089e-05
-0.00070310146
-1.9301027e-05
2.7868797e-07
1.0239571e-06
4.4109001e-06
2.3392471e-06
3.712799e-06
8.6483195e-06
6.3957222e-06
6.7928816e-06
-6.8459326e-06
9.6108257e-06
7.2536953e-06
-7.3124037e-05
8.4387835e-06
4.2898626e-07
-0.00021834768
1.7881691e-06
-1.5006365e-05
-0.00042610832
-7.9071538e-06
-3.3234193e-05
-0.0006174674
-1.6370506e-05
-4.6315541e-05
-0.00071218965
-5.0584525e-05
-0.00069550283
-2.0032145e-05
2.0409983e-07
8.4002219e-07
4.0194554e-06
1.8740514e-06
2.9482661e-06
7.5876465e-06
5.0920394e-06
5.1145862e-06
-7.7857468e-06
7.166324e-06
4.6315956e-06
-7.1712244e-05
4.98334e-06
-2.5500666e-06
-0.0002116142
-1.9744122e-06
-1.751898e-05
-0.00041316601
-1.1053832e-05
-3.4962901e-05
-0.00060135781
-1.8344526e-05
-4.7318155e-05
-0.00069703355
-5.0877246e-05
-0.0006828643
-2.1021238e-05
1.3640798e-07
6.3774048e-07
3.5823718e-06
1.4393436e-06
2.1338861e-06
6.4619564e-06
3.8649376e-06
3.3991038e-06
-8.5468069e-06
4.8669217e-06
2.1693692e-06
-6.9288335e-05
1.7660483e-06
-4.8351558e-06
-0.00020224597
-5.544311e-06
-1.8375228e-05
-0.00039554507
-1.420105e-05
-3.3965665e-05
-0.00057898921
-2.0479877e-05
-4.4892424e-05
-0.00067497738
-4.7427918e-05
-0.00066330279
-2.2252963e-05
7.6628812e-08
4.5759475e-07
3.0709929e-06
1.0375254e-06
1.429361e-06
5.1609107e-06
2.7403396e-06
1.9736396e-06
-9.3471399e-06
2.8286912e-06
3.0390836e-07
-6.6124285e-05
-1.066075e-06
-6.019978e-06
-0.00019035437
-8.6493694e-06
-1.7537934e-05
-0.00037283238
-1.6928907e-05
-3.0619632e-05
-0.00054914475
-2.2405356e-05
-3.9679144e-05
-0.00064403377
-4.1088823e-05
-0.00063439991
-2.3472943e-05
3.0672321e-08
3.2190109e-07
2.5219424e-06
6.9363436e-07
9.3064028e-07
3.8009843e-06
1.7599135e-06
1.0532249e-06
-1.0003115e-05
1.0633125e-06
-6.4067176e-07
-6.2024647e-05
-3.4585671e-06
-5.8687364e-06
-0.0001757273
-1.1249578e-05
-1.5045536e-05
-0.00034456604
-1.9125433e-05
-2.5481555e-05
-0.00051071572
-2.383229e-05
-3.2594906e-05
-0.00060233368
-3.2934125e-05
-0.00059378847
-2.430288e-05
-1.3614952e-09
2.4203917e-07
1.9635717e-06
4.1808853e-07
6.8117782e-07
2.4877107e-06
9.7259757e-07
7.2436985e-07
-1.0298726e-05
-2.7944786e-07
-5.6244067e-07
-5.6619888e-05
-5.131059e-06
-4.3591379e-06
-0.00015772031
-1.2903666e-05
-1.10765e-05
-0.00030953324
-2.0373761e-05
-1.8974374e-05
-0.0004616156
-2.4336328e-05
-2.4464619e-05
-0.00054703439
-2.4053066e-05
-0.00053845843
-2.4215006e-05
-2.5288213e-08
2.2667223e-07
1.4086296e-06
1.9426755e-07
7.0440383e-07
1.2608004e-06
3.6309164e-07
1.007258e-06
-1.0159515e-05
-1.1581282e-06
4.9789752e-07
-4.9748778e-05
-5.9008906e-06
-1.6523695e-06
-0.00013589542
-1.3256311e-05
-5.9040687e-06
-0.00026661453
-2.0234622e-05
-1.1381097e-05
-0.00039967943
-2.3647089e-05
-1.5630118e-05
-0.00047515991
-1.5401676e-05
-0.00046535139
-2.283813e-05
-2.9589784e-08
9.9532377e-07
2.6719453e-07
1.0748213e-07
6.6165612e-07
9.2824574e-07
1.913415e-07
-8.4491135e-06
1.6842342e-06
-1.092784e-06
-3.9612844e-05
2.1418428e-06
-5.1076136e-06
-0.00010792109
1.7440584e-06
-1.1537542e-05
-0.00021304227
-8.1129734e-09
-1.7899112e-05
-0.00032157184
-3.0266576e-06
-2.1384559e-05
-0.0003830474
-5.9755679e-06
-0.00037109472
-7.4032449e-06
-2.0323804e-05
-6.7520756e-08
-2.7918187e-07
1.2096026e-06
1.3242331e-07
-4.88722e-07
-1.3017287e-06
1.7212385e-06
6.6333473e-07
-1.4089815e-06
-3.432191e-06
-5.9531482e-06
1.8564462e-06
-2.4910413e-06
-7.3146612e-06
-3.5409132e-05
4.1929435e-06
-3.0275738e-06
-1.3484584e-05
-0.00010207887
8.178813e-06
-2.2600508e-06
-2.1912137e-05
-0.00020587784
1.3980104e-05
3.0980557e-07
-3.1545327e-05
-0.00031358527
2.0988828e-05
4.6422494e-06
-4.017277e-05
-0.000374929
2.7721896e-05
-4.4944841e-05
-0.00036376174
3.2555136e-05
9.6989467e-06
-7.9931073e-08
-4.3351104e-07
1.6428814e-06
-5.7340733e-07
-1.9855989e-06
2.4381084e-06
-1.623284e-06
-5.1192037e-06
-7.4227103e-06
-2.802837e-06
-1.0597132e-05
-4.5286879e-05
-3.3364217e-06
-1.890865e-05
-0.0001299379
-2.5082418e-06
-2.9766666e-05
-0.00025958831
5.5667648e-08
-4.169585e-05