/*--------------------------------*- C++ -*----------------------------------*\
| =========                 |                                                 |
| \\      /  F ield         | OpenFOAM: The Open Source CFD Toolbox           |
|  \\    /   O peration     | Version:  2406                                  |
|   \\  /    A nd           | Website:  www.openfoam.com                      |
|    \\/     M anipulation  |                                                 |
\*---------------------------------------------------------------------------*/
FoamFile
{
    version     2.0;
    format      ascii;
    arch        "LSB;label=32;scalar=64";
    class       volVectorField;
    location    "18.75";
    object      U;
}
// * * * * * * * * * * * * * * * * * * * * * * * * * * * * * * * * * * * * * //

dimensions      [0 1 -1 0 0 0 0];

internalField   nonuniform List<vector> 
34560
(
(-0.0096836167 0.0030032245 0.011817953)
(-0.054096719 0.011811564 0.042689687)
(-0.1493071 0.025438751 0.087350885)
(-0.31939249 0.042094097 0.14555506)
(-0.56830276 0.05791663 0.20725762)
(-0.86123234 0.069063069 0.25671917)
(-1.1398981 0.078143384 0.28308133)
(-1.3596698 0.091848908 0.2863468)
(-1.5010779 0.10937629 0.27423954)
(-0.0077016447 0.0047036581 0.014343476)
(-0.053952863 0.018048402 0.051264918)
(-0.16189328 0.037771971 0.10354657)
(-0.35881892 0.060471294 0.1690602)
(-0.64061693 0.079581936 0.2337538)
(-0.95543928 0.090919059 0.27992252)
(-1.2350859 0.099705278 0.29905007)
(-1.4390157 0.11418067 0.29473332)
(-1.5618527 0.13341386 0.27587059)
(-0.0029000748 0.00486344 0.015294593)
(-0.045100395 0.020017642 0.055223149)
(-0.15970299 0.043530188 0.11219921)
(-0.37824509 0.071260576 0.18300465)
(-0.68773555 0.093816165 0.25008464)
(-1.0182409 0.10626548 0.29411591)
(-1.2944135 0.11592685 0.30865408)
(-1.4835856 0.1319096 0.30002179)
(-1.5924027 0.15322665 0.27834916)
(0.004481188 0.0050238567 0.016210624)
(-0.027868019 0.021533349 0.058568731)
(-0.14265645 0.047734741 0.11902443)
(-0.37660982 0.078751661 0.19292792)
(-0.70789533 0.10387004 0.26093791)
(-1.0499447 0.11754447 0.30284513)
(-1.3218275 0.12858624 0.31469698)
(-1.4992247 0.14612528 0.30461437)
(-1.5967489 0.16984797 0.28292865)
(0.014818163 0.0042962532 0.016535003)
(-0.00088690218 0.020406231 0.059943142)
(-0.1082373 0.047688602 0.12225941)
(-0.35160866 0.0811477 0.19819412)
(-0.70028016 0.10803638 0.26613776)
(-1.0513999 0.12353124 0.30743391)
(-1.3202662 0.13705988 0.31937631)
(-1.4870175 0.15777539 0.31087242)
(-1.5721052 0.18294057 0.29109556)
(0.028385447 0.0025983556 0.016389669)
(0.036989955 0.016180415 0.059697349)
(-0.05404989 0.042292158 0.12262738)
(-0.2999493 0.076761766 0.19994425)
(-0.66307402 0.10601465 0.26929859)
(-1.0221031 0.1244549 0.312059)
(-1.2856118 0.14134361 0.32644904)
(-1.4402768 0.16436733 0.32102335)
(-1.5132461 0.19072007 0.30449623)
(0.045624331 1.5985774e-05 0.016106746)
(0.087463514 0.0090303961 0.058946666)
(0.023691319 0.031639683 0.12217892)
(-0.21521971 0.065339185 0.20120694)
(-0.58726688 0.096506646 0.27323904)
(-0.95151423 0.11863641 0.31984936)
(-1.2086642 0.13956462 0.33915604)
(-1.3510369 0.16527452 0.33868821)
(-1.4117177 0.19248705 0.32623977)
(0.067043343 -0.003422628 0.015798222)
(0.15239138 -0.00080741312 0.058569483)
(0.12890188 0.016151525 0.12273978)
(-0.091125534 0.047417244 0.20534464)
(-0.46531143 0.080127716 0.28296764)
(-0.83107952 0.10630123 0.33653788)
(-1.0795244 0.13125213 0.36314263)
(-1.20796 0.15897932 0.36871612)
(-1.2554064 0.18619706 0.36029841)
(0.092220035 -0.0069430667 0.015909381)
(0.23118759 -0.011377802 0.059767917)
(0.26085757 -0.0013648864 0.1268854)
(0.072889236 0.025748493 0.21667289)
(-0.29436989 0.058652197 0.30394249)
(-0.65513919 0.087797936 0.36780757)
(-0.88981211 0.1153401 0.40365924)
(-1.0008429 0.14345689 0.41547578)
(-1.0334787 0.16899964 0.41019236)
(0.11912238 -0.009123925 0.016744373)
(0.31714628 -0.018835438 0.063370721)
(0.40768732 -0.015258029 0.13654614)
(0.2636641 0.0060599625 0.23778476)
(-0.08592809 0.036038785 0.33873922)
(-0.43207738 0.064688189 0.41547047)
(-0.64546751 0.091350998 0.46149631)
(-0.73458316 0.11651528 0.4789596)
(-0.75107572 0.13828284 0.47496723)
(0.14331148 -0.0081183696 0.018144529)
(0.39534474 -0.018173308 0.068626744)
(0.54242838 -0.018248234 0.15057788)
(0.44521957 -0.004451977 0.26463416)
(0.12112334 0.017249162 0.38078662)
(-0.20211992 0.039035894 0.47061652)
(-0.38891374 0.059153448 0.52604599)
(-0.45480492 0.077004028 0.54777199)
(-0.45474518 0.092215539 0.54307774)
(0.15801276 -0.0032378977 0.019271542)
(0.44337634 -0.0074384123 0.072522212)
(0.62639601 -0.0078504988 0.16168775)
(0.56061176 -0.0030353202 0.2841709)
(0.25686151 0.0050089808 0.4113388)
(-0.047742088 0.013349533 0.50993832)
(-0.21424319 0.021336755 0.57148975)
(-0.26562177 0.027080853 0.59471579)
(-0.25366017 0.033080734 0.58926807)
(0.15801272 0.003237713 0.019271531)
(0.44337618 0.0074377559 0.07252222)
(0.62639568 0.0078492556 0.16168772)
(0.56061127 0.0030335847 0.28417093)
(0.25686101 -0.0050108101 0.41133886)
(-0.04774249 -0.013351153 0.50993841)
(-0.21424342 -0.021338084 0.57148986)
(-0.26562186 -0.027081966 0.59471596)
(-0.25366014 -0.033081498 0.58926826)
(0.14331135 0.0081181585 0.018144521)
(0.39534431 0.018172607 0.068626849)
(0.54242756 0.018246953 0.15057797)
(0.4452184 0.0044502179 0.26463437)
(0.12112214 -0.017250993 0.38078685)
(-0.20212089 -0.039037502 0.47061683)
(-0.38891431 -0.059154787 0.52604634)
(-0.45480512 -0.077005108 0.5477724)
(-0.45474515 -0.092216308 0.54307817)
(0.11912222 0.0091236664 0.016744391)
(0.31714575 0.018834736 0.063370892)
(0.40768635 0.015256843 0.13654642)
(0.26366273 -0.0060615568 0.23778521)
(-0.085929562 -0.036040471 0.33873966)
(-0.43207863 -0.064689691 0.41547102)
(-0.64546833 -0.091352258 0.46149691)
(-0.73458352 -0.11651635 0.47896014)
(-0.75107581 -0.13828368 0.47496776)
(0.092219882 0.0069428268 0.015909449)
(0.23118708 0.011377162 0.059768049)
(0.26085663 0.001363869 0.12688589)
(0.072887906 -0.025749807 0.21667364)
(-0.29437133 -0.058653593 0.30394321)
(-0.65514047 -0.087799178 0.36780836)
(-0.88981304 -0.11534115 0.40366002)
(-1.0008434 -0.14345792 0.41547641)
(-1.0334789 -0.16900066 0.41019304)
(0.067043216 0.0034224289 0.015798385)
(0.15239094 0.0008067651 0.05856974)
(0.12890104 -0.016152463 0.12274052)
(-0.091126689 -0.047418322 0.2053456)
(-0.46531269 -0.08012874 0.28296854)
(-0.83108066 -0.10630211 0.33653876)
(-1.0795253 -0.13125292 0.3631435)
(-1.2079605 -0.15898025 0.36871692)
(-1.2554068 -0.18619825 0.36029933)
(0.045624237 -1.611072e-05 0.016106938)
(0.087463187 -0.0090309429 0.058946842)
(0.023690685 -0.031640461 0.12217942)
(-0.21522062 -0.065340001 0.20120771)
(-0.5872679 -0.096507266 0.27323983)
(-0.95151511 -0.11863697 0.31985022)
(-1.2086648 -0.13956518 0.33915696)
(-1.3510373 -0.16527528 0.33868917)
(-1.4117182 -0.19248823 0.32624079)
(0.028385376 -0.0025984482 0.01638969)
(0.036989712 -0.016180728 0.059697418)
(-0.054050349 -0.042292679 0.12262768)
(-0.29994997 -0.076762249 0.19994473)
(-0.66307473 -0.10601506 0.26929925)
(-1.0221038 -0.12445524 0.31205989)
(-1.2856123 -0.14134394 0.32644992)
(-1.4402774 -0.1643679 0.32102429)
(-1.5132466 -0.19072115 0.30449717)
(0.014818099 -0.0042963232 0.016535082)
(-0.00088711556 -0.020406507 0.059943296)
(-0.1082377 -0.047689132 0.12225963)
(-0.35160919 -0.081148175 0.19819457)
(-0.7002808 -0.10803686 0.26613858)
(-1.0514005 -0.12353153 0.3074346)
(-1.3202667 -0.13706016 0.31937701)
(-1.487018 -0.1577758 0.31087327)
(-1.5721054 -0.18294139 0.29109643)
(0.0044811394 -0.0050239286 0.016210676)
(-0.02786818 -0.021533556 0.058568858)
(-0.14265675 -0.04773513 0.11902464)
(-0.37661031 -0.078752126 0.19292839)
(-0.70789604 -0.10387047 0.26093833)
(-1.0499455 -0.11754481 0.30284539)
(-1.321828 -0.1285865 0.31469736)
(-1.4992251 -0.14612589 0.30461496)
(-1.5967488 -0.16984854 0.28292916)
(-0.0029001228 -0.0048635065 0.015294627)
(-0.045100552 -0.020017762 0.055223265)
(-0.15970329 -0.04353042 0.11219935)
(-0.37824555 -0.071260891 0.18300476)
(-0.68773613 -0.09381634 0.25008468)
(-1.0182416 -0.10626585 0.29411599)
(-1.2944141 -0.11592726 0.30865444)
(-1.483586 -0.1319099 0.30002178)
(-1.592403 -0.15322767 0.27834974)
(-0.0077016893 -0.0047036877 0.014343519)
(-0.053953008 -0.018048478 0.051264994)
(-0.16189355 -0.037772122 0.10354659)
(-0.35881935 -0.060471514 0.16906015)
(-0.64061752 -0.079582158 0.2337539)
(-0.95544001 -0.09091933 0.2799226)
(-1.2350866 -0.099706021 0.29904966)
(-1.4390159 -0.11418166 0.29473368)
(-1.5618531 -0.13341512 0.27587206)
(-0.0096836599 -0.0030032127 0.011817968)
(-0.054096854 -0.011811567 0.042689694)
(-0.14930735 -0.025438745 0.087350868)
(-0.31939285 -0.04209405 0.14555504)
(-0.56830326 -0.057916667 0.20725751)
(-0.86123292 -0.069063194 0.25671891)
(-1.1398984 -0.078143739 0.28308166)
(-1.3596701 -0.091850178 0.28634783)
(-1.5010781 -0.10937713 0.27424049)
(0.015597764 0.00069752082 0.000480536)
(0.032599274 0.0016321643 0.00076196951)
(0.023679183 0.0018789039 -0.00058292499)
(-0.03126496 2.3282357e-05 -0.004557303)
(-0.14767526 -0.0055817282 -0.01168882)
(-0.32185552 -0.015603487 -0.020730719)
(-0.521853 -0.028720474 -0.029082266)
(-0.70213816 -0.042580888 -0.034928633)
(-0.82638622 -0.056231282 -0.037462917)
(0.018578876 -0.00031557807 -0.00049317739)
(0.03816677 -0.0016751348 -0.0024114028)
(0.026394697 -0.0041964268 -0.0066485261)
(-0.038663107 -0.0092092647 -0.013892855)
(-0.17072823 -0.018142096 -0.023842923)
(-0.35975899 -0.031167565 -0.034120606)
(-0.56627273 -0.046353433 -0.041768822)
(-0.74252721 -0.061149375 -0.045713688)
(-0.85963118 -0.074311135 -0.046892165)
(0.022208517 -0.001568075 -0.0014377469)
(0.045974544 -0.0057013568 -0.0055427155)
(0.033571864 -0.011446238 -0.012691871)
(-0.038546634 -0.019787269 -0.023085817)
(-0.18225777 -0.031641677 -0.035328553)
(-0.38147791 -0.04658149 -0.045980024)
(-0.59051488 -0.062441794 -0.052254659)
(-0.76153984 -0.077129366 -0.054345484)
(-0.87273165 -0.08990495 -0.053945362)
(0.025672742 -0.0032348722 -0.0024187637)
(0.053578323 -0.010891157 -0.0087669053)
(0.04104102 -0.020483097 -0.018890286)
(-0.036796765 -0.032374264 -0.03240508)
(-0.18992131 -0.046785387 -0.046662447)
(-0.39673394 -0.062801267 -0.057253524)
(-0.60648598 -0.078475652 -0.061921465)
(-0.77216113 -0.092584734 -0.062179697)
(-0.87830172 -0.10499358 -0.060345801)
(0.02897993 -0.0051573904 -0.0032814992)
(0.060984534 -0.016800705 -0.011628129)
(0.048690334 -0.030603695 -0.024478608)
(-0.033999447 -0.046077346 -0.04086689)
(-0.19534692 -0.062624675 -0.056857842)
(-0.40871514 -0.07905597 -0.067213768)
(-0.61898895 -0.09403692 -0.070374638)
(-0.78005924 -0.10725785 -0.06905181)
(-0.88173564 -0.11899405 -0.066042953)
(0.032121179 -0.0072550874 -0.0039033034)
(0.068157175 -0.023140181 -0.013736646)
(0.056415861 -0.04122641 -0.028809834)
(-0.030481007 -0.060000912 -0.047655522)
(-0.1993939 -0.078052139 -0.065082092)
(-0.41915379 -0.094217301 -0.075118489)
(-0.63065414 -0.10805509 -0.077009159)
(-0.78828756 -0.12010132 -0.074529994)
(-0.8861364 -0.13081456 -0.07071579)
(0.035024082 -0.0093414617 -0.0042398294)
(0.074950623 -0.02927096 -0.014919713)
(0.064085128 -0.051201011 -0.03150572)
(-0.026376707 -0.072582432 -0.052154459)
(-0.2023772 -0.091322782 -0.070626446)
(-0.42871622 -0.10659169 -0.080348663)
(-0.64247159 -0.11895964 -0.081340113)
(-0.79806586 -0.12957364 -0.078183055)
(-0.89284253 -0.13888405 -0.073945033)
(0.037914629 -0.010976286 -0.0041619005)
(0.082046469 -0.033887873 -0.014794546)
(0.072745292 -0.058414997 -0.031932736)
(-0.020470103 -0.081118741 -0.053509364)
(-0.20326076 -0.099534188 -0.072638971)
(-0.43670568 -0.11341415 -0.082212627)
(-0.65395975 -0.12415293 -0.082799269)
(-0.80886579 -0.13322063 -0.079546157)
(-0.90122205 -0.14100789 -0.075333365)
(0.040902886 -0.011636558 -0.0036381065)
(0.089783264 -0.035474672 -0.013265388)
(0.082899837 -0.060378777 -0.029872035)
(-0.012231446 -0.082567341 -0.051590837)
(-0.20124658 -0.099535192 -0.070954888)
(-0.44201103 -0.11150557 -0.08048046)
(-0.66369091 -0.12050722 -0.081124235)
(-0.8191255 -0.12794157 -0.078266459)
(-0.90996385 -0.13394084 -0.07439094)
(0.04395945 -0.010680412 -0.0027233182)
(0.098112713 -0.032216336 -0.010509439)
(0.094698909 -0.054212239 -0.02558963)
(-0.0018401638 -0.073329169 -0.046763658)
(-0.19647632 -0.087405923 -0.065815899)
(-0.44426858 -0.096976281 -0.075388565)
(-0.67054726 -0.10399276 -0.076444943)
(-0.82703863 -0.10954799 -0.074346675)
(-0.91680897 -0.11371158 -0.071083357)
(0.046631013 -0.0077306789 -0.0017268122)
(0.10569291 -0.023093411 -0.00748265)
(0.10600879 -0.038489354 -0.020670931)
(0.0085338394 -0.051611904 -0.040775488)
(-0.1903331 -0.061015574 -0.059172439)
(-0.4436403 -0.067304517 -0.068780282)
(-0.67361421 -0.071853134 -0.070376096)
(-0.831058 -0.075303105 -0.069126853)
(-0.9200704 -0.077708305 -0.066534684)
(0.048406368 -0.0028568765 -0.0010770985)
(0.11092485 -0.0084821704 -0.0054782279)
(0.11419682 -0.014041696 -0.017260503)
(0.016867348 -0.018707447 -0.036263183)
(-0.18490574 -0.022036075 -0.054423152)
(-0.44159657 -0.024263945 -0.063993848)
(-0.67387309 -0.025858432 -0.065955053)
(-0.83201469 -0.027023218 -0.065265814)
(-0.92060934 -0.027794147 -0.063108526)
(0.048406363 0.0028569397 -0.0010771044)
(0.11092484 0.0084823714 -0.0054782386)
(0.1141968 0.014042036 -0.017260541)
(0.016867323 0.018707942 -0.036263199)
(-0.18490575 0.022036722 -0.054423131)
(-0.44159657 0.024264647 -0.06399381)
(-0.67387308 0.02585909 -0.06595502)
(-0.8320147 0.027023805 -0.065265796)
(-0.9206094 0.027794711 -0.063108511)
(0.046630998 0.0077307292 -0.0017268254)
(0.10569287 0.023093585 -0.0074826487)
(0.10600874 0.038489641 -0.020670964)
(0.0085337932 0.051612298 -0.040775464)
(-0.19033312 0.061016101 -0.059172372)
(-0.44364029 0.067305123 -0.068780192)
(-0.6736142 0.071853736 -0.070376022)
(-0.83105805 0.075303655 -0.069126823)
(-0.92007056 0.077708849 -0.066534652)
(0.043959431 0.01068042 -0.0027233292)
(0.098112665 0.032216441 -0.010509407)
(0.094698846 0.054212449 -0.025589578)
(-0.0018402061 0.073329466 -0.046763538)
(-0.19647634 0.087406342 -0.0658158)
(-0.44426858 0.096976803 -0.075388462)
(-0.67054728 0.10399331 -0.076444869)
(-0.8270387 0.10954847 -0.074346667)
(-0.91680915 0.11371204 -0.071083309)
(0.040902867 0.011636545 -0.0036381044)
(0.089783206 0.035474731 -0.013265366)
(0.08289976 0.060378945 -0.029871919)
(-0.0122315 0.08256762 -0.051590635)
(-0.20124661 0.099535593 -0.070954754)
(-0.44201104 0.11150608 -0.080480354)
(-0.66369094 0.12050776 -0.081124173)
(-0.81912556 0.127942 -0.078266464)
(-0.90996398 0.13394116 -0.074390844)
(0.037914607 0.010976265 -0.0041618596)
(0.082046402 0.033887867 -0.014794465)
(0.072745199 0.058415095 -0.031932515)
(-0.020470173 0.081119 -0.053509058)
(-0.20326079 0.099534614 -0.072638775)
(-0.43670568 0.1134147 -0.082212519)
(-0.65395975 0.1241535 -0.082799214)
(-0.80886577 0.13322105 -0.079546159)
(-0.90122214 0.14100814 -0.075333236)
(0.035024064 0.009341452 -0.0042397785)
(0.074950567 0.029270946 -0.014919661)
(0.064085044 0.051201083 -0.031505576)
(-0.026376781 0.072582698 -0.052154245)
(-0.20237724 0.091323274 -0.070626338)
(-0.42871621 0.10659231 -0.080348613)
(-0.64247152 0.11896023 -0.081340086)
(-0.79806581 0.12957409 -0.078183093)
(-0.89284261 0.13888427 -0.073944993)
(0.032121157 0.0072550797 -0.0039032923)
(0.068157111 0.023140199 -0.013736632)
(0.056415766 0.0412265 -0.028809778)
(-0.030481103 0.060001214 -0.047655457)
(-0.19939396 0.078052637 -0.06508205)
(-0.41915377 0.094217949 -0.075118449)
(-0.63065409 0.10805573 -0.077009196)
(-0.78828758 0.12010181 -0.074530134)
(-0.88613644 0.1308147 -0.070715896)
(0.028979904 0.005157381 -0.0032814909)
(0.06098446 0.016800731 -0.011628121)
(0.04869022 0.03060374 -0.024478671)
(-0.033999584 0.046077583 -0.040866883)
(-0.19534703 0.062625085 -0.056857769)
(-0.40871519 0.079056566 -0.067213837)
(-0.618989 0.094037535 -0.070374812)
(-0.78005934 0.1072583 -0.069052034)
(-0.88173559 0.11899408 -0.066043132)
(0.025672713 0.003234849 -0.0024187552)
(0.05357824 0.010891166 -0.0087668821)
(0.041040889 0.020483111 -0.018890292)
(-0.036796934 0.032374401 -0.032405014)
(-0.18992149 0.046785732 -0.046662504)
(-0.39673412 0.062801758 -0.057253795)
(-0.60648613 0.078476173 -0.061921793)
(-0.77216124 0.092584954 -0.06218002)
(-0.87830163 0.10499355 -0.060346264)
(0.022208482 0.0015680542 -0.0014377397)
(0.045974443 0.0057013918 -0.005542687)
(0.0335717 0.011446292 -0.012691902)
(-0.038546862 0.019787401 -0.023085941)
(-0.18225805 0.031642031 -0.035328834)
(-0.38147821 0.046581899 -0.045980455)
(-0.59051515 0.062442137 -0.052255063)
(-0.76154002 0.077129568 -0.054346174)
(-0.87273174 0.089904727 -0.053946122)
(0.018578841 0.00031558145 -0.00049317582)
(0.038166663 0.0016752043 -0.0024114188)
(0.026394514 0.0041965499 -0.0066486387)
(-0.038663374 0.0092094694 -0.0138931)
(-0.17072857 0.01814242 -0.023843255)
(-0.35975936 0.031167931 -0.03412107)
(-0.56627309 0.046353525 -0.0417696)
(-0.74252742 0.061149059 -0.045714461)
(-0.8596313 0.074310533 -0.046892615)
(0.015597729 -0.00069749558 0.00048052357)
(0.032599166 -0.0016320942 0.0007618974)
(0.023678994 -0.0018787631 -0.00058308401)
(-0.031265229 -2.3033798e-05 -0.0045575711)
(-0.14767559 0.0055820515 -0.011689259)
(-0.32185587 0.015603778 -0.020731432)
(-0.52185324 0.0287206 -0.029082983)
(-0.70213829 0.042580486 -0.034929625)
(-0.82638631 0.056230788 -0.037463408)
(0.0014468688 -0.00016233337 -0.00014537849)
(-0.009971692 -0.0003846368 -0.0003496686)
(-0.049282987 -0.00046181549 -0.0004456205)
(-0.1326953 -0.00041088956 -0.00029785749)
(-0.27189543 -0.0003612662 0.00029825195)
(-0.46208296 -0.00043401411 0.001466029)
(-0.67307136 -0.00058872848 0.0029874172)
(-0.86173084 -0.00063583047 0.0042142911)
(-0.99189554 -0.00069571267 0.0045407803)
(0.0025102506 -0.00014149617 -0.00010922485)
(-0.0095303819 -0.00027721369 -0.00023460493)
(-0.054174169 -0.00019587525 -0.00023427026)
(-0.14893372 9.2921156e-05 5.8241064e-05)
(-0.30389993 0.00044984275 0.00088837616)
(-0.50861439 0.00072354111 0.0023396799)
(-0.72568238 0.00088742352 0.0040445021)
(-0.90948914 0.001024912 0.0052740316)
(-1.0316382 0.0010413427 0.0053199837)
(0.0041855895 -0.00017360739 -0.00011722754)
(-0.0068377558 -0.00032751069 -0.00026103399)
(-0.054339724 -0.00018619693 -0.00028512346)
(-0.15688609 0.00028678401 1.8407474e-05)
(-0.32292806 0.00096415052 0.00096361291)
(-0.53673878 0.0016398568 0.0026109619)
(-0.75512017 0.0021676411 0.0044817959)
(-0.93237714 0.002519173 0.0058114417)
(-1.0473253 0.0026714298 0.0059615407)
(0.0058373778 -0.00023726314 -0.00014059465)
(-0.0038761901 -0.0004809651 -0.00034541)
(-0.053295648 -0.00035941581 -0.00045652964)
(-0.16172586 0.00024258893 -0.00022436388)
(-0.33591067 0.0012381192 0.00074279732)
(-0.55535441 0.0023477496 0.0024979457)
(-0.77230932 0.0032695328 0.0044960935)
(-0.94218374 0.0038720668 0.0059903434)
(-1.0502666 0.0041890855 0.0063461349)
(0.0075027056 -0.00033496316 -0.00017495372)
(-0.00060008342 -0.00074293268 -0.00047111389)
(-0.051144341 -0.00072098129 -0.00071654262)
(-0.16403655 -5.0119288e-05 -0.00062263626)
(-0.34439319 0.0012444208 0.00028366155)
(-0.56743669 0.0028009466 0.0020703957)
(-0.7816588 0.0041412992 0.0041697698)
(-0.94392705 0.005019676 0.0058536026)
(-1.0452081 0.0054857277 0.0064448493)
(0.0091028489 -0.00045551908 -0.00020469109)
(0.0027436004 -0.0010830585 -0.00059080622)
(-0.048344429 -0.0012261764 -0.00099134071)
(-0.16458452 -0.00054822442 -0.0010912375)
(-0.34962873 0.00099761853 -0.00033255179)
(-0.57493559 0.0029730396 0.0014023916)
(-0.78584907 0.004713789 0.0035569927)
(-0.9407245 0.0058207619 0.0053958181)
(-1.0354176 0.0064161327 0.0062578064)
(0.010558253 -0.00057936593 -0.00022075776)
(0.0059403614 -0.001443356 -0.00067446033)
(-0.045225208 -0.0017848697 -0.0012240169)
(-0.16380311 -0.0011562767 -0.0015454677)
(-0.35224422 0.00056675534 -0.0010103403)
(-0.57881916 0.0028606929 0.00056998861)
(-0.78632345 0.0048791525 0.0026975699)
(-0.93448769 0.0061602692 0.0046881871)
(-1.0231164 0.0068415511 0.005842745)
(0.012008607 -0.00067855172 -0.0002146333)
(0.0093580372 -0.001745558 -0.00069600484)
(-0.041270063 -0.0022816324 -0.0013719609)
(-0.16119711 -0.0017582049 -0.0019351336)
(-0.35196317 -3.3109221e-07 -0.0016967182)
(-0.57930792 0.0024413979 -0.00035553312)
(-0.78385428 0.0045985799 0.0017037312)
(-0.92638241 0.0059593496 0.00383905)
(-1.0097826 0.0066716071 0.0052792492)
(0.013451056 -0.00071896336 -0.0001840856)
(0.012968769 -0.0018910892 -0.00064663399)
(-0.036580906 -0.0025633062 -0.0014158273)
(-0.1570018 -0.0021806824 -0.0022165608)
(-0.34928727 -0.00054662271 -0.0023027768)
(-0.5770836 0.0018133875 -0.0012470796)
(-0.7792845 0.0039001997 0.00070643268)
(-0.91740416 0.0052113256 0.0029582518)
(-0.99660427 0.0058710838 0.0046450664)
(0.01476596 -0.00066380753 -0.00013306861)
(0.016381293 -0.0017711284 -0.00053607942)
(-0.031878511 -0.002455993 -0.0013657257)
(-0.15229296 -0.0022156938 -0.0023907484)
(-0.34542703 -0.00085721585 -0.0027859123)
(-0.57338295 0.0011279183 -0.0020054521)
(-0.77380955 0.0028952339 -0.00016763313)
(-0.90870506 0.0039934689 0.0021591215)
(-0.98478925 0.0045274515 0.0040409709)
(0.015688167 -0.00048191167 -7.6723615e-05)
(0.018814583 -0.0012962132 -0.00040383243)
(-0.028422346 -0.001824273 -0.001267138)
(-0.14859843 -0.0017056351 -0.0024682951)
(-0.34203515 -0.0007981615 -0.0031147217)
(-0.56987002 0.00055008527 -0.0025562612)
(-0.76895553 0.0017455123 -0.00081537765)
(-0.90167114 0.0024832386 0.0015522587)
(-0.97569044 0.0028295986 0.0035714224)
(0.016301556 -0.00017898313 -4.0290492e-05)
(0.020467997 -0.00048368756 -0.00031639592)
(-0.026005274 -0.00068532775 -0.0011959419)
(-0.14593155 -0.00064990697 -0.0025035471)
(-0.33952849 -0.00032146428 -0.0032910056)
(-0.56739306 0.00016251334 -0.0028511485)
(-0.76590765 0.00058584977 -0.0011621451)
(-0.8976191 0.00084411298 0.0012255085)
(-0.97065851 0.0009618227 0.0033181411)
(0.016301552 0.00017895942 -4.0291956e-05)
(0.020467986 0.0004836424 -0.0003163879)
(-0.026005291 0.00068527593 -0.0011959407)
(-0.14593157 0.00064988163 -0.002503535)
(-0.33952852 0.00032150644 -0.0032909865)
(-0.56739309 -0.00016240735 -0.0028511267)
(-0.76590767 -0.00058571188 -0.0011621227)
(-0.89761911 -0.00084396627 0.0012255307)
(-0.97065853 -0.00096165702 0.0033181742)
(0.015688156 0.00048188359 -7.6725468e-05)
(0.01881455 0.0012961636 -0.00040380743)
(-0.028422397 0.0018242149 -0.0012671186)
(-0.14859849 0.001705598 -0.0024682482)
(-0.34203522 0.0007981944 -0.003114668)
(-0.56987009 -0.00054997892 -0.0025562047)
(-0.76895557 -0.0017453635 -0.0008153208)
(-0.90167119 -0.0024830824 0.0015523135)
(-0.9756905 -0.0028294268 0.0035715105)
(0.014765945 0.00066377096 -0.00013306475)
(0.016381247 0.0017710725 -0.00053602952)
(-0.031878582 0.0024559326 -0.0013656639)
(-0.15229304 0.0022156601 -0.0023906526)
(-0.34542711 0.00085726137 -0.0027858298)
(-0.57338302 -0.0011277866 -0.0020053754)
(-0.77380962 -0.0028950552 -0.00016756117)
(-0.90870512 -0.0039932987 0.0021591832)
(-0.98478932 -0.0045272854 0.0040410886)
(0.01345104 0.00071892495 -0.00018407326)
(0.012968716 0.0018910368 -0.00064656787)
(-0.03658099 0.0025632573 -0.0014157303)
(-0.1570019 0.0021806797 -0.0022164251)
(-0.34928737 0.00054671648 -0.0023026729)
(-0.57708368 -0.0018131957 -0.0012469957)
(-0.77928457 -0.0038999711 0.00070650274)
(-0.91740421 -0.0052111432 0.0029582948)
(-0.99660433 -0.0058709487 0.0046451869)
(0.01200859 0.00067851192 -0.00021460878)
(0.0093579785 0.0017455035 -0.00069590802)
(-0.041270158 0.0022815886 -0.0013718256)
(-0.16119722 0.0017582372 -0.001934961)
(-0.35196328 4.9241639e-07 -0.0016965963)
(-0.57930802 -0.0024411279 -0.00035545198)
(-0.78385434 -0.004598296 0.0017037874)
(-0.92638245 -0.0059591698 0.003839051)
(-1.0097826 -0.0066715347 0.0052793303)
(0.010558238 0.00057932902 -0.0002207278)
(0.0059403064 0.0014433109 -0.00067436732)
(-0.045225304 0.0017848397 -0.0012238959)
(-0.16380323 0.0011563471 -0.001545311)
(-0.35224435 -0.0005665139 -0.0010102434)
(-0.57881928 -0.0028603386 0.00057004637)
(-0.78632352 -0.0048788185 0.0026975964)
(-0.93448774 -0.0061601116 0.0046881148)
(-1.0231164 -0.0068415859 0.0058427276)
(0.0091028295 0.00045548218 -0.00020467251)
(0.0027435355 0.0010830313 -0.00059072068)
(-0.048344543 0.0012261702 -0.00099123181)
(-0.16458467 0.00054833947 -0.0010911224)
(-0.3496289 -0.00099733115 -0.00033248821)
(-0.57493575 -0.0029726157 0.001402433)
(-0.78584919 -0.0047134047 0.0035569697)
(-0.94072459 -0.0058206413 0.0053956404)
(-1.0354176 -0.0064163342 0.0062576597)
(0.0075026851 0.0003349253 -0.00017493325)
(-0.00060015265 0.00074291324 -0.00047102872)
(-0.051144468 0.00072097773 -0.00071646841)
(-0.16403674 5.0254857e-05 -0.00062254021)
(-0.34439343 -0.0012441124 0.00028372905)
(-0.56743692 -0.0028004895 0.0020703667)
(-0.781659 -0.0041408899 0.0041696519)
(-0.9439272 -0.0050195966 0.0058533097)
(-1.0452082 -0.0054860889 0.0064445824)
(0.0058373548 0.0002372258 -0.00014057562)
(-0.0038762684 0.00048095283 -0.00034533778)
(-0.053295794 0.00035943013 -0.00045646209)
(-0.16172609 -0.00024244153 -0.00022427267)
(-0.33591095 -0.0012377816 0.0007427929)
(-0.55535473 -0.002347299 0.0024977939)
(-0.7723096 -0.0032691371 0.0044958417)
(-0.94218393 -0.0038720336 0.0059898983)
(-1.0502667 -0.0041895059 0.0063456487)
(0.0041855687 0.00017358448 -0.00011721304)
(-0.0068378289 0.00032754004 -0.00026097995)
(-0.054339863 0.00018627947 -0.00028508839)
(-0.15688632 -0.00028656978 1.8406776e-05)
(-0.32292837 -0.00096374555 0.00096348831)
(-0.53673915 -0.0016394114 0.0026106699)
(-0.7551205 -0.0021673437 0.0044813722)
(-0.93237737 -0.0025191341 0.0058107004)
(-1.0473255 -0.0026717748 0.0059607926)
(0.0025102326 0.00014150395 -0.00010922844)
(-0.0095304467 0.00027730524 -0.00023462256)
(-0.054174294 0.00019605882 -0.0002343505)
(-0.14893393 -9.2594514e-05 5.8072907e-05)
(-0.30390021 -0.00044935012 0.00088808711)
(-0.50861473 -0.00072301071 0.0023392129)
(-0.72568271 -0.00088717274 0.0040437148)
(-0.9094894 -0.0010250959 0.0052729593)
(-1.0316384 -0.0010416475 0.0053191774)
(0.0014468593 0.00016236254 -0.0001454034)
(-0.009971727 0.00038474213 -0.00034976251)
(-0.049283054 0.00046201523 -0.00044580798)
(-0.13269541 0.00041121378 -0.00029817904)
(-0.27189557 0.00036171946 0.00029773862)
(-0.46208314 0.00043449455 0.0014652651)
(-0.67307154 0.00058901506 0.0029864393)
(-0.86173106 0.00063566657 0.0042127812)
(-0.99189576 0.00069539513 0.0045402984)
(0.0080705918 -0.00013405344 -0.00011612854)
(0.0099240886 -0.00047729076 -0.0003767441)
(-0.015292677 -0.0010158808 -0.00066596802)
(-0.085750166 -0.001803584 -0.00097076424)
(-0.21525899 -0.0028455152 -0.0013060866)
(-0.40001734 -0.0041129371 -0.0016827883)
(-0.60922421 -0.0055679858 -0.0020775201)
(-0.79844306 -0.0071643151 -0.0024049216)
(-0.93029727 -0.0087604781 -0.0026062223)
(0.0099359377 -0.000237008 -0.00018478762)
(0.012448897 -0.00079799381 -0.00057955234)
(-0.017234339 -0.0015923501 -0.00099619775)
(-0.098899501 -0.0026491178 -0.001405695)
(-0.24477231 -0.0039386252 -0.0018203716)
(-0.44500347 -0.0054114708 -0.0022568798)
(-0.66121391 -0.0070295464 -0.0026993337)
(-0.84645736 -0.0087272287 -0.0030831134)
(-0.97122561 -0.010310855 -0.0033546412)
(0.012282233 -0.00032719791 -0.00022302249)
(0.016813973 -0.0010813401 -0.00069386616)
(-0.015177991 -0.002099848 -0.0011793731)
(-0.10478291 -0.0033805616 -0.0016414625)
(-0.2625166 -0.0048521459 -0.0020991914)
(-0.47285053 -0.0064423745 -0.0025809206)
(-0.69127909 -0.0081158664 -0.0030795224)
(-0.87076308 -0.0097962654 -0.0035393307)
(-0.98915118 -0.011287355 -0.0038749073)
(0.014400355 -0.00042135326 -0.00025077051)
(0.020820416 -0.0013694091 -0.00077414659)
(-0.012988099 -0.0025972115 -0.0013044008)
(-0.10900342 -0.0040663569 -0.001798515)
(-0.2758704 -0.005663912 -0.0022850959)
(-0.49289832 -0.0072973586 -0.002802872)
(-0.71078894 -0.0089454184 -0.0033530241)
(-0.88361758 -0.010552606 -0.0038867534)
(-0.99587687 -0.011942944 -0.0042852607)
(0.016291884 -0.00050313143 -0.0002603074)
(0.024428308 -0.0016192978 -0.00080077386)
(-0.010875577 -0.0030211778 -0.0013422216)
(-0.1122376 -0.004633568 -0.0018439932)
(-0.28643919 -0.0062998968 -0.0023464173)
(-0.50814092 -0.0079191883 -0.0029005457)
(-0.72416451 -0.00950023 -0.0035141058)
(-0.89013833 -0.01100558 -0.0041150829)
(-0.99635248 -0.012223961 -0.0045246556)
(0.017880541 -0.00056967861 -0.00024988876)
(0.027396939 -0.001818692 -0.00076751939)
(-0.0092873372 -0.0033446158 -0.0012843161)
(-0.11522213 -0.0050373015 -0.0017695188)
(-0.29541608 -0.0067126194 -0.0022796132)
(-0.52046481 -0.0082677407 -0.0028717039)
(-0.73407318 -0.0097414713 -0.003538542)
(-0.89348354 -0.011028566 -0.0041361387)
(-0.99373755 -0.01204625 -0.0045552332)
(0.019072287 -0.00061294133 -0.00022488617)
(0.029488799 -0.0019407874 -0.00068858916)
(-0.0085578558 -0.0035223919 -0.0011489833)
(-0.11837531 -0.0052105679 -0.0015899205)
(-0.30338817 -0.006818423 -0.0020876856)
(-0.53082123 -0.0082354633 -0.0026924676)
(-0.74192329 -0.009493995 -0.0033608975)
(-0.89530248 -0.010591779 -0.0039784089)
(-0.9899122 -0.011425071 -0.0044321343)
(0.020025531 -0.00061810355 -0.0001846796)
(0.031144571 -0.0019435317 -0.00056289533)
(-0.0080301347 -0.0034892752 -0.00093463976)
(-0.12099886 -0.0050852241 -0.0013047458)
(-0.30989132 -0.0065225522 -0.0017626784)
(-0.53910766 -0.007742039 -0.0023660456)
(-0.74798563 -0.008786456 -0.0030578346)
(-0.896249 -0.0096711551 -0.0037133416)
(-0.98588338 -0.010302093 -0.004209024)
(0.02079934 -0.00057135332 -0.0001334611)
(0.032533151 -0.0017865033 -0.00040388715)
(-0.0074498935 -0.0031791543 -0.00066506779)
(-0.12282261 -0.0045769737 -0.00094900168)
(-0.31466068 -0.0057807281 -0.0013662944)
(-0.54525973 -0.0067770909 -0.0019751751)
(-0.75239882 -0.0075872415 -0.0026999962)
(-0.89663674 -0.0082379646 -0.0034034457)
(-0.98216169 -0.0087087963 -0.0039557989)
(0.021386846 -0.00046647062 -7.9213257e-05)
(0.033614157 -0.0014530352 -0.00023675865)