/*--------------------------------*- C++ -*----------------------------------*\
  =========                 |
  \\      /  F ield         | OpenFOAM: The Open Source CFD Toolbox
   \\    /   O peration     | Website:  https://openfoam.org
    \\  /    A nd           | Version:  10
     \\/     M anipulation  |
\*---------------------------------------------------------------------------*/
FoamFile
{
    format      ascii;
    class       volScalarField;
    location    "0.6";
    object      T_0;
}
// * * * * * * * * * * * * * * * * * * * * * * * * * * * * * * * * * * * * * //

dimensions      [0 0 -1 0 0 0 0];

internalField   nonuniform List<scalar> 
100
(
-0.0501396
-0.148641
-0.241877
-0.326545
-0.399644
-0.458586
-0.501282
-0.52622
-0.532516
-0.519948
-0.48896
-0.440651
-0.376731
-0.299466
-0.211592
-0.116221
-0.0167343
0.0833458
0.180473
0.271207
0.352334
0.420979
0.47471
0.511625
0.530415
0.530415
0.511624
0.474709
0.420978
0.352332
0.271206
0.180472
0.0833441
-0.0167359
-0.116223
-0.211593
-0.299467
-0.376733
-0.440652
-0.488961
-0.519948
-0.532516
-0.52622
-0.501282
-0.458585
-0.399644
-0.326544
-0.241877
-0.14864
-0.0501385
0.0501396
0.148641
0.241878
0.326545
0.399644
0.458586
0.501282
0.52622
0.532516
0.519948
0.488961
0.440651
0.376732
0.299466
0.211592
0.116222
0.0167349
-0.0833452
-0.180473
-0.271207
-0.352333
-0.420978
-0.47471
-0.511625
-0.530415
-0.530415
-0.511624
-0.47471
-0.420978
-0.352333
-0.271206
-0.180472
-0.0833447
0.0167354
0.116223
0.211593
0.299467
0.376732
0.440652
0.488961
0.519948
0.532516
0.52622
0.501282
0.458585
0.399643
0.326544
0.241876
0.14864
0.0501383
)
;

boundaryField
{
    inlet
    {
        type            cyclic;
    }
    outlet
    {
        type            cyclic;
    }
    bottom
    {
        type            slip;
    }
    top
    {
        type            slip;
    }
    frontAndBack
    {
        type            empty;
    }
}


// ************************************************************************* //
