/*--------------------------------*- C++ -*----------------------------------*\
| =========                 |                                                 |
| \\      /  F ield         | OpenFOAM: The Open Source CFD Toolbox           |
|  \\    /   O peration     | Version:  2406                                  |
|   \\  /    A nd           | Website:  www.openfoam.com                      |
|    \\/     M anipulation  |                                                 |
\*---------------------------------------------------------------------------*/
FoamFile
{
    version     2.0;
    format      ascii;
    arch        "LSB;label=32;scalar=64";
    class       volScalarField;
    location    "0.045";
    object      T;
}
// * * * * * * * * * * * * * * * * * * * * * * * * * * * * * * * * * * * * * //

dimensions      [0 0 0 1 0 0 0];

internalField   nonuniform List<scalar> 
12225
(
1.00694
1.00397
1.00144
1.00053
1.00001
0.99965
0.999457
0.99937
0.999323
0.999288
0.999257
0.9992
0.999074
0.998759
0.997969
0.996058
0.991105
0.979109
0.994965
0.99447
0.996349
0.997908
0.99867
0.998979
0.999136
0.999239
0.999301
0.999331
0.999333
0.9993
0.999189
0.998892
0.998134
0.996311
0.991792
0.98115
0.999592
0.99992
1
0.999967
0.999819
0.999637
0.999514
0.999448
0.999409
0.999376
0.99934
0.999283
0.999159
0.998868
0.998157
0.996484
0.99255
0.984059
1.00032
1.00007
0.999547
0.99942
0.999421
0.999388
0.999355
0.999341
0.999334
0.999322
0.999301
0.999256
0.999147
0.998884
0.998249
0.996788
0.993544
0.987044
1.00013
0.999833
0.999434
0.999387
0.999436
0.999423
0.999388
0.999364
0.999348
0.999329
0.999303
0.999255
0.999151
0.998911
0.998356
0.997129
0.994559
0.989746
0.999993
0.999846
0.999578
0.999496
0.999494
0.99946
0.999412
0.999376
0.99935
0.999324
0.999292
0.999242
0.999144
0.998932
0.998464
0.997475
0.995514
0.992046
0.999975
0.999925
0.999719
0.999592
0.999547
0.999498
0.999443
0.999398
0.999362
0.999328
0.999291
0.999238
0.999146
0.998963
0.998581
0.997814
0.996369
0.99393
0.999983
0.999963
0.999798
0.999661
0.999596
0.999539
0.999477
0.999423
0.999378
0.999336
0.999292
0.999237
0.99915
0.998991
0.998676
0.998071
0.996977
0.995188
0.999986
0.999973
0.99984
0.999706
0.999627
0.99956
0.999491
0.99943
0.999377
0.999328
0.99928
0.999222
0.99914
0.999
0.99874
0.998261
0.997424
0.996091
0.999984
0.999963
0.999852
0.999723
0.999631
0.999554
0.999478
0.99941
0.99935
0.999296
0.999242
0.999183
0.999105
0.998985
0.998776
0.99841
0.997796
0.99684
0.99998
0.999942
0.99984
0.999715
0.999612
0.999524
0.999441
0.999365
0.9993
0.99924
0.999182
0.999122
0.99905
0.998947
0.998783
0.998514
0.998081
0.997427
0.999976
0.999921
0.999818
0.999694
0.999583
0.999486
0.999398
0.999317
0.999245
0.99918
0.999119
0.999059
0.998992
0.998905
0.99878
0.998588
0.998296
0.997867
0.999975
0.999912
0.999811
0.99969
0.999577
0.999476
0.999384
0.9993
0.999224
0.999156
0.999095
0.999035
0.998971
0.998899
0.998805
0.998672
0.998482
0.998214
0.999978
0.999919
0.999828
0.999717
0.99961
0.999512
0.999421
0.999338
0.999264
0.999196
0.999136
0.999079
0.999021
0.998961
0.998891
0.998801
0.998681
0.998523
0.999982
0.999936
0.999861
0.999769
0.999677
0.99959
0.999511
0.999438
0.99937
0.999308
0.999254
0.999204
0.999157
0.999109
0.999057
0.998997
0.998925
0.998836
0.999987
0.999957
0.999905
0.99984
0.999774
0.999712
0.999654
0.9996
0.999548
0.999503
0.999462
0.999425
0.999392
0.999359
0.999324
0.999287
0.999247
0.999201
0.999993
0.999986
0.999968
0.999941
0.999912
0.999886
0.999864
0.999841
0.99982
0.999801
0.999783
0.999767
0.999754
0.999742
0.999728
0.999712
0.999696
0.999679
1
1.00003
1.00005
1.00007
1.00009
1.00011
1.00013
1.00015
1.00017
1.00018
1.0002
1.00021
1.00022
1.00023
1.00024
1.00024
1.00025
1.00025
1.00001
1.00006
1.00011
1.00017
1.00022
1.00028
1.00034
1.00039
1.00043
1.00048
1.00051
1.00055
1.00058
1.0006
1.00063
1.00065
1.00067
1.00068
1.00001
1.00006
1.00012
1.00019
1.00026
1.00033
1.00039
1.00046
1.00052
1.00057
1.00062
1.00067
1.00071
1.00075
1.00078
1.00081
1.00084
1.00086
1.00001
1.00006
1.00012
1.00018
1.00025
1.00031
1.00038
1.00045
1.00051
1.00057
1.00062
1.00068
1.00072
1.00077
1.00081
1.00085
1.00088
1.00091
1.00001
1.00006
1.00012
1.00017
1.00023
1.0003
1.00036
1.00043
1.00049
1.00055
1.00061
1.00067
1.00072
1.00077
1.00081
1.00085
1.00089
1.00092
1
1.00008
1.00013
1.00016
1.00021
1.00027
1.00034
1.00041
1.00048
1.00054
1.0006
1.00066
1.00071
1.00076
1.00081
1.00085
1.00089
1.00093
0.999997
1.0001
1.00014
1.00015
1.00019
1.00026
1.00033
1.0004
1.00047
1.00054
1.00061
1.00067
1.00072
1.00077
1.00082
1.00086
1.00091
1.00094
1
1.00009
1.0001
1.00012
1.00019
1.00028
1.00035
1.00042
1.00049
1.00056
1.00063
1.00069
1.00074
1.00079
1.00084
1.00088
1.00093
1.00097
1.00014
1.00014
0.999953
0.999972
1.00014
1.00029
1.00039
1.00047
1.00055
1.00062
1.00068
1.00074
1.0008
1.00084
1.00089
1.00093
1.00097
1.00101
1.0005
1.00058
1.0001
0.999927
1.00003
1.00018
1.00031
1.00042
1.00053
1.00062
1.0007
1.00076
1.00082
1.00088
1.00093
1.00097
1.00102
1.00106
1.00004
1.00088
1.00115
1.00111
1.00099
1.00088
1.00081
1.0008
1.00082
1.00085
1.00088
1.00092
1.00096
1.00099
1.00103
1.00106
1.0011
1.00113
0.994517
0.993822
0.99606
0.998048
0.999185
0.99978
1.00015
1.0004
1.00059
1.00072
1.00083
1.00091
1.00098
1.00104
1.00109
1.00114
1.00118
1.00121
1.00648
1.00454
1.00223
1.0015
1.00119
1.00097
1.00088
1.00087
1.00089
1.00092
1.00096
1.00099
1.00103
1.00107
1.0011
1.00114
1.00117
1.00122
0.455658
0.455615
0.455498
0.455324
0.455101
0.454829
0.454504
0.454128
0.453704
0.453234
0.452719
0.452161
0.45156
0.450919
0.45024
0.449526
0.448779
0.448003
0.447201
0.446377
0.445533
0.444675
0.443805
0.442928
0.442048
0.441168
0.440291
0.439421
0.438559
0.43771
0.436884
0.436101
0.435406
0.434879
0.434376
0.43379
0.433236
0.432686
0.432156
0.431652
0.431159
0.43073
0.430389
0.430067
0.4298
0.429618
0.42948
0.429394
0.429359
0.429375
0.42944
0.429554
0.429715
0.429922
0.430174
0.430471
0.43081
0.431191
0.431612
0.432072
0.432569
0.433102
0.433668
0.434267
0.434897
0.435555
0.436241
0.436951
0.437686
0.438442
0.439218
0.440013
0.440824
0.44165
0.442489
0.443339
0.444199
0.445068
0.445943
0.446824
0.447708
0.448595
0.449482
0.450369
0.451255
0.452137
0.453015
0.453889
0.454755
0.455615
0.456466
0.457307
0.458138
0.458958
0.459764
0.460557
0.461334
0.462093
0.462838
0.463568
0.46428
0.464973
0.465647
0.466301
0.466934
0.467545
0.468133
0.468698
0.469238
0.469753
0.470243
0.470706
0.471141
0.471548
0.471927
0.472275
0.472593
0.472879
0.473132
0.473352
0.473538
0.473689
0.473803
0.473879
0.473917
0.473916
0.473875
0.473792
0.473668
0.4735
0.473289
0.473033
0.472731
0.472381
0.471984
0.471538
0.471041
0.470493
0.469893
0.469239
0.468531
0.467766
0.466944
0.466063
0.465122
0.46412
0.463055
0.461926
0.460732
0.459471
0.458143
0.456745
0.455278
0.453739
0.452128
0.450443
0.448683
0.446847
0.444934
0.442943
0.440871
0.438718
0.436478
0.434144
0.431715
0.4292
0.426601
0.423916
0.421145
0.418287
0.415339
0.4123
0.409169
0.405945
0.402631
0.399228
0.395762
0.392203
0.3888
0.384932
0.457099
0.457045
0.456941
0.456778
0.456564
0.456299
0.455981
0.45561
0.455187
0.454713
0.45419
0.453622
0.453011
0.45236
0.451672
0.45095
0.450196
0.449415
0.44861
0.447784
0.446941
0.446086
0.445223
0.444357
0.443494
0.442639
0.441799
0.440979
0.440185
0.43942
0.438683
0.437966
0.437259
0.43646
0.435621
0.434903
0.434261
0.433692
0.433184
0.432726
0.432328
0.431969
0.431623
0.431342
0.431129
0.430946
0.430809
0.43072
0.430682
0.430693
0.430753
0.430862
0.431018
0.431221
0.431469
0.431761
0.432096
0.432472
0.432889
0.433344
0.433837
0.434365
0.434927
0.435521
0.436146
0.4368
0.437481
0.438188
0.438918
0.43967
0.440442
0.441233
0.442041
0.442864
0.4437
0.444547
0.445405
0.446271
0.447144
0.448022
0.448905
0.44979
0.450676
0.451562
0.452446
0.453328
0.454205
0.455078
0.455944
0.456803
0.457653
0.458495
0.459325
0.460144
0.460951
0.461745
0.462526
0.463293
0.464043
0.464775
0.465488
0.466183
0.466859
0.467514
0.468148
0.46876
0.469349
0.469915
0.470456
0.470973
0.471463
0.471927
0.472364
0.472772
0.473151
0.4735
0.473818
0.474105
0.474359
0.474579
0.474765
0.474916
0.47503
0.475106
0.475143
0.475142
0.4751
0.475016
0.474891
0.474722
0.47451
0.474252
0.473948
0.473596
0.473197
0.472748
0.472249
0.471698
0.471094
0.470437
0.469725
0.468956
0.46813
0.467245
0.466299
0.465292
0.464221
0.463087
0.461887
0.46062
0.459286
0.457882
0.456408
0.454862
0.453243
0.451551
0.449783
0.447939
0.446018
0.444018
0.441938
0.439776
0.437534
0.43521
0.432803
0.430311
0.427733
0.425069
0.422317
0.419476
0.416545
0.413523
0.410407
0.407198
0.403898
0.400509
0.397054
0.393515
0.390077
0.386378
0.460059
0.459971
0.459847
0.459672
0.459443
0.459159
0.45882
0.458428
0.457984
0.457491
0.456949
0.456363
0.455734
0.455065
0.45436
0.453621
0.452851
0.452055
0.451235
0.450396
0.449541
0.448674
0.4478
0.446923
0.446048
0.445178
0.444317
0.443467
0.442631
0.441809
0.441006
0.440225
0.439473
0.438742
0.438035
0.43737
0.436745
0.436166
0.435639
0.435163
0.434744
0.434382
0.434069
0.433803
0.43358
0.433399
0.433264
0.433176
0.433137
0.433146
0.433203
0.433307
0.433458
0.433655
0.433897
0.434183
0.434512
0.434882
0.435292
0.435741
0.436227
0.436749
0.437305
0.437894
0.438514
0.439163
0.439839
0.440541
0.441268
0.442017
0.442786
0.443574
0.44438
0.445201
0.446037
0.446884
0.447742
0.448609
0.449483
0.450364
0.451249
0.452137
0.453026
0.453917
0.454806
0.455693
0.456576
0.457456
0.458329
0.459195
0.460054
0.460904
0.461744
0.462572
0.463389
0.464192
0.464982
0.465757
0.466516
0.467259
0.467984
0.468691
0.469378
0.470046
0.470692
0.471317
0.471919
0.472499
0.473053
0.473583
0.474087
0.474565
0.475015
0.475437
0.475829
0.476192
0.476524
0.476823
0.477091
0.477324
0.477524
0.477687
0.477814
0.477902
0.477952
0.477962
0.477932
0.47786
0.477746
0.477589
0.477387
0.477139
0.476845
0.476503
0.476113
0.475672
0.475181
0.474638
0.474042
0.473392
0.472686
0.471924
0.471103
0.470223
0.469282
0.468278
0.467211
0.46608
0.464882
0.463617
0.462284
0.460882
0.459408
0.457862
0.456243
0.45455
0.452781
0.450936
0.449013
0.447011
0.444929
0.442766
0.440523
0.4382
0.435797
0.433309
0.430735
0.428074
0.425325
0.422488
0.419559
0.416539
0.413425
0.410217
0.406916
0.403524
0.400059
0.39651
0.393025
0.389384
0.464485
0.464362
0.464211
0.464015
0.463763
0.463453
0.463087
0.462668
0.462196
0.461676
0.461108
0.460496
0.459842
0.459149
0.45842
0.457658
0.456867
0.45605
0.45521
0.454352
0.45348
0.452596
0.451707
0.450814
0.449923
0.449037
0.44816
0.447294
0.446444
0.445612
0.444803
0.444022
0.44327
0.442546
0.441853
0.441199
0.440585
0.440012
0.439484
0.439001
0.438567
0.438182
0.437844
0.437557
0.437319
0.437127
0.436983
0.436888
0.43684
0.43684
0.436888
0.436982
0.437123
0.43731
0.437541
0.437815
0.438133
0.438492
0.438891
0.439329
0.439805
0.440316
0.440862
0.441442
0.442052
0.442692
0.443361
0.444056
0.444776
0.445519
0.446283
0.447067
0.447869
0.448687
0.449521
0.450367
0.451225
0.452093
0.452969
0.453852
0.454741
0.455633
0.456528
0.457425
0.458321
0.459216
0.460109
0.460998
0.461881
0.462759
0.46363
0.464493
0.465346
0.466189
0.467021
0.46784
0.468646
0.469438
0.470214
0.470975
0.471718
0.472443
0.47315
0.473837
0.474504
0.475149
0.475772
0.476372
0.476948
0.477499
0.478025
0.478524
0.478995
0.479439
0.479853
0.480238
0.480591
0.480913
0.481202
0.481457
0.481678
0.481862
0.48201
0.482119
0.48219
0.48222
0.48221
0.482157
0.482062
0.481923
0.481739
0.481509
0.481233
0.480907
0.480533
0.480109
0.479632
0.479104
0.478521
0.477884
0.477191
0.47644
0.47563
0.47476
0.473828
0.472834
0.471775
0.470651
0.46946
0.468201
0.466874
0.465476
0.464006
0.462464
0.460848
0.459157
0.45739
0.455546
0.453623
0.451622
0.44954
0.447378
0.445134
0.442809
0.440403
0.437912
0.435335
0.432672
0.42992
0.42708
0.424148
0.421125
0.418007
0.414794
0.411486
0.408084
0.404601
0.40103
0.397493
0.393833
0.470371
0.470213
0.470034
0.469816
0.469539
0.469202
0.468806
0.468356
0.467852
0.467299
0.466699
0.466055
0.465369
0.464644
0.463885
0.463094
0.462274
0.46143
0.460564
0.459682
0.458786
0.45788
0.456969
0.456057
0.455147
0.454243
0.453349
0.452469
0.451606
0.450765
0.449948
0.449159
0.4484
0.447671
0.446976
0.446319
0.445701
0.445125
0.444592
0.444104
0.443662
0.443266
0.442917
0.442616
0.442364
0.442159
0.442003
0.441894
0.441833
0.441819
0.441853
0.441933
0.442059
0.44223
0.442446
0.442706
0.443008
0.443351
0.443735
0.444158
0.444619
0.445117
0.445649
0.446215
0.446813
0.447441
0.448099
0.448784
0.449494
0.450228
0.450985
0.451762
0.452559
0.453373
0.454203
0.455047
0.455904
0.456772
0.457649
0.458534
0.459426
0.460323
0.461224
0.462128
0.463032
0.463936
0.464839
0.465739
0.466634
0.467526
0.46841
0.469288
0.470157
0.471017
0.471866
0.472704
0.473529
0.474341
0.475138
0.47592
0.476685
0.477434
0.478164
0.478874
0.479565
0.480235
0.480883
0.481508
0.48211
0.482688
0.48324
0.483765
0.484264
0.484734
0.485176
0.485587
0.485967
0.486316
0.486632
0.486914
0.487161
0.487371
0.487545
0.48768
0.487775
0.487831
0.487845
0.487817
0.487745
0.487629
0.487468
0.48726
0.487005
0.4867
0.486346
0.485941
0.485483
0.484972
0.484407
0.483786
0.483108
0.482372
0.481576
0.480718
0.479799
0.478815
0.477767
0.476652
0.47547
0.474219
0.472898
0.471506
0.470042
0.468504
0.466892
0.465204
0.463439
0.461597
0.459676
0.457674
0.455593
0.45343
0.451185
0.448858
0.446448
0.443954
0.441374
0.438707
0.435952
0.433107
0.430172
0.427144
0.424021
0.420802
0.417486
0.414073
0.410572
0.406975
0.403392
0.399672
0.477735
0.477547
0.477343
0.477102
0.476799
0.476432
0.476004
0.475519
0.47498
0.474391
0.473754
0.473072
0.47235
0.471589
0.470795
0.469969
0.469116
0.46824
0.467345
0.466433
0.46551
0.464579
0.463644
0.462709
0.461778
0.460855
0.459944
0.459049
0.458172
0.457319
0.45649
0.45569
0.454921
0.454183
0.45348
0.452814
0.452188
0.451603
0.451061
0.450562
0.450109
0.449701
0.449339
0.449025
0.448757
0.448537
0.448364
0.448237
0.448159
0.448127
0.448141
0.448202
0.448309
0.44846
0.448656
0.448895
0.449177
0.449501
0.449865
0.450268
0.450709
0.451188
0.451702
0.45225
0.452832
0.453444
0.454086
0.454757
0.455454
0.456176
0.456921
0.457689
0.458477
0.459283
0.460107
0.460946
0.461799
0.462665
0.463541
0.464427
0.465321
0.466221
0.467126
0.468035
0.468946
0.469859
0.470771
0.471682
0.47259
0.473494
0.474393
0.475286
0.476172
0.477049
0.477917
0.478774
0.47962
0.480453
0.481273
0.482078
0.482867
0.48364
0.484395
0.485132
0.48585
0.486547
0.487223
0.487876
0.488507
0.489113
0.489694
0.49025
0.490778
0.491278
0.49175
0.492192
0.492602
0.492981
0.493327
0.493639
0.493916
0.494156
0.494359
0.494523
0.494647
0.494731
0.494773
0.494772
0.494727
0.494638
0.494502
0.494319
0.494088
0.493807
0.493476
0.493093
0.492656
0.492166
0.49162
0.491018
0.490358
0.489638
0.488857
0.488015
0.487109
0.486138
0.485101
0.483998
0.482825
0.481583
0.48027
0.478886
0.477427
0.475895
0.474287
0.472603
0.470841
0.469
0.46708
0.465079
0.462997
0.460833
0.458587
0.456258
0.453845
0.451348
0.448764
0.446094
0.443336
0.440487
0.437548
0.434516
0.431389
0.428164
0.42484
0.421416
0.417897
0.414275
0.410648
0.406853
0.486614
0.486403
0.486177
0.485911
0.48558
0.485181
0.484719
0.484198
0.483621
0.482992
0.482316
0.481594
0.480832
0.480032
0.479198
0.478335
0.477446
0.476535
0.475606
0.474663
0.473709
0.47275
0.471789
0.47083
0.469877
0.468933
0.468003
0.46709
0.466197
0.465328
0.464486
0.463672
0.462888
0.462138
0.461423
0.460745
0.460106
0.459508
0.458952
0.458438
0.457969
0.457545
0.457166
0.456833
0.456546
0.456305
0.456111
0.455963
0.455861
0.455806
0.455797
0.455833
0.455915
0.456041
0.456211
0.456425
0.456681
0.456979
0.457318
0.457696
0.458113
0.458568
0.459058
0.459584
0.460143
0.460734
0.461356
0.462007
0.462686
0.463391
0.464121
0.464874
0.465649
0.466444
0.467257
0.468087
0.468933
0.469792
0.470664
0.471546
0.472439
0.473339
0.474245
0.475157
0.476073
0.476991
0.47791
0.47883
0.479748
0.480663
0.481575
0.482482
0.483383
0.484277
0.485162
0.486038
0.486904
0.487758
0.488599
0.489427
0.490241
0.491038
0.491819
0.492582
0.493327
0.494052
0.494756
0.495439
0.496099
0.496735
0.497347
0.497933
0.498493
0.499025
0.499528
0.500001
0.500444
0.500855
0.501232
0.501576
0.501884
0.502156
0.50239
0.502585
0.50274
0.502855
0.502926
0.502955
0.502939
0.502878
0.50277
0.502614
0.502409
0.502154
0.501847
0.501488
0.501075
0.500607
0.500083
0.4995
0.498859
0.498158
0.497395
0.496569
0.495678
0.494721
0.493698
0.492606
0.491445
0.490213
0.488909
0.487532
0.486081
0.484554
0.482951
0.481271
0.479512
0.477674
0.475755
0.473755
0.471674
0.46951
0.467262
0.464932
0.462516
0.460016
0.45743
0.454756
0.451994
0.449143
0.446201
0.443165
0.440033
0.436804
0.433473
0.430039
0.426506
0.42286
0.419193
0.415323
0.497063
0.496834
0.496585
0.496293
0.495932
0.4955
0.495003
0.494444
0.493828
0.493158
0.49244
0.491676
0.490872
0.49003
0.489155
0.488252
0.487324
0.486376
0.485411
0.484434
0.483448
0.482459
0.48147
0.480484
0.479506
0.478539
0.477588
0.476654
0.475743
0.474855
0.473994
0.473163
0.472362
0.471595
0.470864
0.470169
0.469512
0.468896
0.468321
0.467788
0.467298
0.466853
0.466451
0.466095
0.465783
0.465517
0.465296
0.465121
0.464991
0.464907
0.464868
0.464874
0.464925
0.465021
0.46516
0.465342
0.465567
0.465833
0.46614
0.466488
0.466874
0.467298
0.467759
0.468255
0.468786
0.46935
0.469946
0.470571
0.471226
0.471908
0.472616
0.473349
0.474105
0.474882
0.475679
0.476494
0.477327
0.478175
0.479036
0.479911
0.480796
0.481691
0.482594
0.483504
0.484419
0.485339
0.486261
0.487184
0.488108
0.489031
0.489952
0.490869
0.491781
0.492688
0.493588
0.49448
0.495362
0.496235
0.497095
0.497944
0.498779
0.499599
0.500404
0.501191
0.501961
0.502713
0.503444
0.504154
0.504842
0.505508
0.506149
0.506765
0.507355
0.507918
0.508452
0.508957
0.509431
0.509874
0.510283
0.510659
0.510999
0.511302
0.511568
0.511795
0.511981
0.512126
0.512228
0.512287
0.512301
0.512269
0.512189
0.512061
0.511884
0.511655
0.511374
0.51104
0.510651
0.510206
0.509704
0.509143
0.508522
0.50784
0.507096
0.506287
0.505412
0.504471
0.503461
0.502383
0.501234
0.500013
0.498719
0.497351
0.495907
0.494388
0.492791
0.491115
0.48936
0.487525
0.485609
0.483611
0.48153
0.479366
0.477119
0.474787
0.47237
0.469868
0.467279
0.464604
0.461839
0.458986
0.456041
0.453003
0.449869
0.446636
0.4433
0.439859
0.436314
0.432649
0.428949
0.42501
0.50915
0.508902
0.50863
0.50831
0.507919
0.507453
0.506919
0.506321
0.505664
0.504952
0.504191
0.503383
0.502535
0.50165
0.500732
0.499787
0.498819
0.497831
0.496828
0.495815
0.494796
0.493774
0.492754
0.491739
0.490734
0.489741
0.488765
0.487808
0.486873
0.485963
0.485081
0.484228
0.483406
0.482618
0.481864
0.481148
0.480469
0.479829
0.47923
0.478672
0.478157
0.477684
0.477254
0.476868
0.476527
0.476229
0.475976
0.475768
0.475604
0.475485
0.47541
0.47538
0.475394
0.475452
0.475553
0.475697
0.475883
0.476111
0.47638
0.476689
0.477038
0.477424
0.477848
0.478308
0.478804
0.479333
0.479895
0.480488
0.481111
0.481762
0.482441
0.483146
0.483875
0.484627
0.4854
0.486193
0.487005
0.487834
0.488678
0.489537
0.490408
0.491291
0.492183
0.493084
0.493992
0.494906
0.495824
0.496746
0.497669
0.498593
0.499516
0.500438
0.501356
0.50227
0.503179
0.504081
0.504975
0.50586
0.506735
0.507599
0.508451
0.509289
0.510113
0.510921
0.511712
0.512486
0.51324
0.513974
0.514688
0.515379
0.516046
0.516689
0.517307
0.517898
0.51846
0.518994
0.519498
0.51997
0.520409
0.520815
0.521185
0.521518
0.521814
0.522071
0.522287
0.522462
0.522594
0.522682
0.522724
0.52272
0.522669
0.522568
0.522417
0.522215
0.52196
0.52165
0.521285
0.520864
0.520384
0.519845
0.519245
0.518583
0.517857
0.517066
0.516208
0.515283
0.514288
0.513224
0.512087
0.510878
0.509595
0.508236
0.506802
0.50529
0.5037
0.50203
0.500281
0.49845
0.496537
0.494542
0.492463
0.4903
0.488053
0.485722
0.483305
0.480802
0.478213
0.475536
0.472771
0.469917
0.466971
0.463933
0.460798
0.457564
0.454227
0.450783
0.447231
0.443552
0.439826
0.43583
0.522949
0.522684
0.522388
0.522038
0.521614
0.521113
0.52054
0.519902
0.519203
0.518447
0.517641
0.516789
0.515895
0.514965
0.514003
0.513014
0.512003
0.510974
0.509931
0.50888
0.507824
0.506767
0.505714
0.504667
0.503631
0.50261
0.501605
0.50062
0.499659
0.498722
0.497814
0.496934
0.496087
0.495272
0.494492
0.493748
0.493041
0.492372
0.491743
0.491155
0.490607
0.490101
0.489637
0.489215
0.488837
0.488502
0.48821
0.487961
0.487757
0.487596
0.487479
0.487405
0.487375
0.487387
0.487443
0.487542
0.487682
0.487864
0.488087
0.488349
0.488652
0.488993
0.489371
0.489787
0.490238
0.490723
0.491243
0.491794
0.492376
0.492988
0.493628
0.494296
0.494989
0.495706
0.496447
0.497208
0.49799
0.498791
0.499608
0.500442
0.50129
0.502151
0.503023
0.503906
0.504797
0.505696
0.506602
0.507512
0.508426
0.509342
0.510259
0.511176
0.512092
0.513005
0.513914
0.514818
0.515716
0.516607
0.517489
0.518361
0.519222
0.520071
0.520907
0.521729
0.522535
0.523324
0.524095
0.524848
0.52558
0.526291
0.526979
0.527644
0.528284
0.528898
0.529484
0.530042
0.530571
0.531068
0.531533
0.531965
0.532361
0.532721
0.533044
0.533327
0.53357
0.533772
0.533931
0.534046
0.534115
0.534137
0.534112
0.534037
0.533911
0.533733
0.533502
0.533217
0.532875
0.532476
0.532018
0.5315
0.530921
0.530278
0.52957
0.528797
0.527956
0.527047
0.526067
0.525017
0.523894
0.522697
0.521425
0.520078
0.518653
0.51715
0.515567
0.513905
0.512162
0.510336
0.508428
0.506437
0.504362
0.502202
0.499958
0.497628
0.495213
0.492711
0.490123
0.487448
0.484684
0.481831
0.478887
0.475851
0.472718
0.469487
0.466153
0.462709
0.459156
0.45547
0.451728
0.447688
0.538549
0.538265
0.537942
0.537561
0.537101
0.536562
0.53595
0.535269
0.534526
0.533725
0.532872
0.531973
0.531032
0.530054
0.529046
0.528011
0.526955
0.525882
0.524797
0.523705
0.522609
0.521514
0.520424
0.519342
0.518272
0.517217
0.51618
0.515163
0.51417
0.513202
0.512262
0.511352
0.510472
0.509625
0.508813
0.508035
0.507294
0.506591
0.505925
0.505299
0.504713
0.504167
0.503662
0.503198
0.502776
0.502395
0.502057
0.501762
0.501509
0.501298
0.50113
0.501005
0.500923
0.500883
0.500885
0.500929
0.501014
0.501141
0.501309
0.501516
0.501763
0.502049
0.502372
0.502733
0.50313
0.503562
0.504028
0.504527
0.505057
0.505619
0.50621
0.506829
0.507475
0.508146
0.508842
0.509561
0.510301
0.511062
0.511841
0.512638
0.51345
0.514278
0.515119
0.515972
0.516835
0.517708
0.518589
0.519476
0.520369
0.521266
0.522167
0.523068
0.52397
0.524872
0.525771
0.526667
0.527558
0.528444
0.529322
0.530193
0.531054
0.531904
0.532743
0.533569
0.53438
0.535177
0.535957
0.536718
0.537461
0.538184
0.538886
0.539564
0.540219
0.540849
0.541452
0.542028
0.542575
0.543091
0.543576
0.544027
0.544444
0.544826
0.54517
0.545475
0.545741
0.545965
0.546146
0.546284
0.546376
0.546421
0.546418
0.546365
0.546262
0.546106
0.545897
0.545632
0.545312
0.544933
0.544496
0.543997
0.543437
0.542812
0.542122
0.541366
0.540542
0.539648
0.538684
0.537647
0.536538
0.535354
0.534094
0.532758
0.531343
0.52985
0.528277
0.526623
0.524887
0.523069
0.521167
0.519182
0.517112
0.514957
0.512717
0.510391
0.50798
0.505482
0.502898
0.500226
0.497466
0.494618
0.491679
0.488648
0.485522
0.482297
0.478969
0.475533
0.471985
0.468301
0.464553
0.460482
0.556046
0.555742
0.55539
0.554974
0.554476
0.553896
0.55324
0.552514
0.551723
0.550874
0.549972
0.549022
0.54803
0.547002
0.545944
0.544859
0.543755
0.542635
0.541504
0.540367
0.539228
0.538091
0.53696
0.535838
0.534729
0.533636
0.532561
0.531508
0.530478
0.529473
0.528496
0.527548
0.526631
0.525746
0.524894
0.524077
0.523295
0.522549
0.52184
0.521169
0.520537
0.519944
0.51939
0.518876
0.518402
0.517969
0.517577
0.517225
0.516915
0.516647
0.51642
0.516235
0.516091
0.515988
0.515927
0.515908
0.515929
0.51599
0.516092
0.516234
0.516415
0.516634
0.516892
0.517186
0.517517
0.517883
0.518284
0.518718
0.519185
0.519683
0.520212
0.52077
0.521355
0.521968
0.522606
0.523268
0.523953
0.52466
0.525387
0.526133
0.526897
0.527677
0.528472
0.529281
0.530102
0.530935
0.531777
0.532629
0.533487
0.534351
0.535221
0.536093
0.536969
0.537845
0.538721
0.539595
0.540467
0.541335
0.542198
0.543054
0.543903
0.544743
0.545573
0.546391
0.547197
0.547989
0.548766
0.549527
0.55027
0.550995
0.551699
0.552382
0.553042
0.553678
0.554289
0.554874
0.55543
0.555958
0.556454
0.556918
0.557348
0.557743
0.558102
0.558423
0.558704
0.558944
0.559143
0.559297
0.559406
0.559469
0.559484
0.559449
0.559364
0.559226
0.559035
0.558789
0.558486
0.558125
0.557705
0.557224
0.55668
0.556072
0.555398
0.554658
0.553849
0.55297
0.55202
0.550997
0.549901
0.54873
0.547483
0.546158
0.544755
0.543272
0.541709
0.540065
0.538338
0.536529
0.534635
0.532657
0.530595
0.528447
0.526214
0.523895
0.52149
0.518999
0.516421
0.513757
0.511004
0.508164
0.505233
0.502212
0.499096
0.495882
0.492567
0.489144
0.485609
0.481935
0.478193
0.474105
0.575551
0.575223
0.574838
0.574383
0.573842
0.573216
0.572511
0.571734
0.570891
0.569988
0.56903
0.568025
0.566978
0.565894
0.564781
0.563642
0.562485
0.561313
0.560131
0.558944
0.557757
0.556573
0.555395
0.554228
0.553075
0.551938
0.55082
0.549724
0.54865
0.547603
0.546582
0.54559
0.544629
0.543698
0.5428
0.541935
0.541104
0.540309
0.539549
0.538825
0.538139
0.53749
0.536879
0.536306
0.535772
0.535277
0.534821
0.534405
0.534029
0.533693
0.533397
0.533141
0.532926
0.532751
0.532616
0.532521
0.532467
0.532452
0.532476
0.53254
0.532643
0.532783
0.532962
0.533177
0.533428
0.533716
0.534037
0.534393
0.534782
0.535202
0.535654
0.536135
0.536646
0.537184
0.537748
0.538338
0.538952
0.539589
0.540248
0.540927
0.541626
0.542342
0.543076
0.543825
0.544588
0.545364
0.546152
0.546951
0.547758
0.548574
0.549397
0.550225
0.551057
0.551893
0.55273
0.553568
0.554405
0.555241
0.556073
0.5569
0.557722
0.558538
0.559344
0.560142
0.560928
0.561703
0.562464
0.563211
0.563942
0.564656
0.565351
0.566026
0.56668
0.567312
0.56792
0.568502
0.569058
0.569586
0.570084
0.570551
0.570985
0.571385
0.57175
0.572077
0.572366
0.572615
0.572823
0.572987
0.573107
0.573181
0.573207
0.573185
0.573112
0.572987
0.572809
0.572577
0.572288
0.571941
0.571534
0.571067
0.570537
0.569943
0.569283
0.568557
0.567761
0.566896
0.565959
0.56495
0.563866
0.562708
0.561473
0.56016
0.558769
0.557298
0.555746
0.554112
0.552396
0.550597
0.548714
0.546746
0.544693
0.542555
0.540331
0.538022
0.535627
0.533145
0.530578
0.527923
0.525182
0.522353
0.519436
0.516428
0.513327
0.51013
0.506834
0.50343
0.499916
0.496261
0.492536
0.488448
0.597184
0.596828
0.596405
0.595904
0.595312
0.594633
0.593871
0.593035
0.592131
0.591165
0.590144
0.589075
0.587964
0.586817
0.585641
0.584441
0.583222
0.581991
0.580752
0.579509
0.578267
0.577029
0.575799
0.574581
0.573376
0.572189
0.571021
0.569874
0.568751
0.567653
0.566582
0.565538
0.564524
0.56354
0.562588
0.561667
0.560779
0.559925
0.559105
0.55832
0.55757
0.556856
0.556178
0.555537
0.554933
0.554366
0.553837
0.553345
0.552892
0.552477
0.552101
0.551764
0.551465
0.551205
0.550984
0.550802
0.550659
0.550555
0.550489
0.550461
0.550471
0.550519
0.550604
0.550725
0.550882
0.551075
0.551302
0.551563
0.551858
0.552184
0.552542
0.55293
0.553348
0.553794
0.554268
0.554768
0.555293
0.555843
0.556415
0.55701
0.557625
0.55826
0.558914
0.559584
0.560271
0.560972
0.561688
0.562415
0.563154
0.563903
0.564661
0.565427
0.566199
0.566976
0.567758
0.568542
0.569327
0.570113
0.570898
0.57168
0.572459
0.573233
0.574001
0.574762
0.575514
0.576256
0.576987
0.577705
0.578409
0.579097
0.57977
0.580424
0.581058
0.581672
0.582264
0.582832
0.583376
0.583892
0.58438
0.584839
0.585267
0.585661
0.586022
0.586347
0.586634
0.586883
0.587091
0.587257
0.587379
0.587457
0.587487
0.58747
0.587403
0.587285
0.587114
0.58689
0.586609
0.586271
0.585874
0.585417
0.584897
0.584314
0.583665
0.582949
0.582165
0.581311
0.580386
0.579389
0.578317
0.57717
0.575947
0.574647
0.573267
0.571808
0.570268
0.568647
0.566943
0.565156
0.563285
0.561329
0.559288
0.557163
0.554952
0.552655
0.550273
0.547804
0.545251
0.542611
0.539885
0.537072
0.534172
0.531183
0.528103
0.524928
0.521656
0.518278
0.514793
0.511168
0.507472
0.503398
0.621081
0.620691
0.620221
0.619665
0.619012
0.618267
0.617436
0.616527
0.615548
0.614506
0.613408
0.612262
0.611075
0.609853
0.608603
0.607331
0.606042
0.604742
0.603436
0.602129
0.600823
0.599523
0.598233
0.596955
0.595692
0.594446
0.59322
0.592016
0.590834
0.589678
0.588547
0.587443
0.586368
0.585322
0.584305
0.583319
0.582365
0.581442
0.580552
0.579695
0.578871
0.578081
0.577326
0.576605
0.575919
0.575268
0.574653
0.574075
0.573532
0.573026
0.572557
0.572125
0.57173
0.571371
0.571051
0.570767
0.570521
0.570312
0.570141
0.570006
0.569908
0.569847
0.569822
0.569833
0.569879
0.56996
0.570075
0.570224
0.570406
0.57062
0.570866
0.571142
0.571449
0.571784
0.572148
0.572539
0.572956
0.573398
0.573865
0.574355
0.574867
0.575401
0.575954
0.576527
0.577117
0.577724
0.578347
0.578984
0.579634
0.580297
0.580971
0.581655
0.582347
0.583047
0.583753
0.584465
0.58518
0.585898
0.586617
0.587336
0.588054
0.588769
0.589481
0.590188
0.590888
0.591581
0.592264
0.592937
0.593599
0.594247
0.594881
0.595499
0.5961
0.596682
0.597244
0.597784
0.598301
0.598793
0.599259
0.599697
0.600106
0.600483
0.600829
0.601139
0.601415
0.601652
0.601851
0.602009
0.602125
0.602197
0.602224
0.602204
0.602135
0.602017
0.601847
0.601624
0.601346
0.601011
0.600618
0.600166
0.599652
0.599075
0.598433
0.597725
0.59695
0.596105
0.595189
0.594202
0.593141
0.592005
0.590793
0.589504
0.588137
0.58669
0.585163
0.583555
0.581864
0.580091
0.578233
0.576292
0.574266
0.572156
0.56996
0.567679
0.565313
0.562862
0.560326
0.557705
0.554999
0.552207
0.549329
0.546364
0.54331
0.540163
0.536922
0.533578
0.53013
0.526543
0.522887
0.518843
0.647422
0.646988
0.64646
0.645833
0.645102
0.64427
0.643348
0.642343
0.641266
0.640125
0.638928
0.637684
0.636401
0.635085
0.633744
0.632383
0.63101
0.629628
0.628242
0.626857
0.625477
0.624105
0.622744
0.621396
0.620065
0.618751
0.617457
0.616185
0.614936
0.613711
0.612511
0.611337
0.61019
0.60907
0.607979
0.606917
0.605884
0.604881
0.603908
0.602966
0.602056
0.601177
0.60033
0.599516
0.598735
0.597987
0.597273
0.596592
0.595946
0.595333
0.594756
0.594213
0.593706
0.593233
0.592796
0.592395
0.592029
0.591699
0.591404