/*--------------------------------*- C++ -*----------------------------------*\
  =========                 |
  \\      /  F ield         | OpenFOAM: The Open Source CFD Toolbox
   \\    /   O peration     | Website:  https://openfoam.org
    \\  /    A nd           | Version:  10
     \\/     M anipulation  |
\*---------------------------------------------------------------------------*/
FoamFile
{
    format      ascii;
    class       volScalarField;
    location    "37";
    object      ddt0(T);
}
// * * * * * * * * * * * * * * * * * * * * * * * * * * * * * * * * * * * * * //

dimensions      [0 0 -1 1 0 0 0];

internalField   nonuniform List<scalar> 
10000
(
523.923
39.4817
107.547
105.511
105.026
105.108
105.129
105.13
105.131
105.132
105.133
105.133
105.134
105.135
105.136
105.137
105.138
105.138
105.139
105.14
105.141
105.142
105.142
105.143
105.144
105.145
105.145
105.146
105.147
105.148
105.148
105.149
105.15
105.15
105.151
105.152
105.153
105.153
105.154
105.154
105.155
105.156
105.156
105.157
105.157
105.158
105.159
105.159
105.16
105.16
105.161
105.161
105.162
105.162
105.163
105.163
105.164
105.164
105.165
105.165
105.165
105.166
105.166
105.167
105.167
105.167
105.168
105.168
105.168
105.169
105.169
105.169
105.169
105.17
105.17
105.17
105.17
105.171
105.171
105.171
105.171
105.172
105.172
105.172
105.172
105.172
105.172
105.172
105.173
105.173
105.173
105.173
105.173
105.173
105.172
105.174
105.254
105.737
100.266
81.9291
63.0079
-99.4952
-32.2883
-41.4436
-42.2406
-42.0346
-42.0029
-42.0046
-42.0036
-42.0012
-41.9986
-41.9961
-41.9936
-41.9912
-41.9887
-41.9862
-41.9838
-41.9814
-41.979
-41.9766
-41.9742
-41.9719
-41.9695
-41.9672
-41.9649
-41.9626
-41.9604
-41.9581
-41.9559
-41.9538
-41.9516
-41.9495
-41.9474
-41.9453
-41.9432
-41.9412
-41.9392
-41.9372
-41.9353
-41.9334
-41.9315
-41.9297
-41.9278
-41.926
-41.9243
-41.9226
-41.9209
-41.9192
-41.9176
-41.916
-41.9144
-41.9129
-41.9114
-41.9099
-41.9085
-41.9071
-41.9057
-41.9044
-41.903
-41.9018
-41.9005
-41.8993
-41.8982
-41.897
-41.8959
-41.8949
-41.8938
-41.8928
-41.8918
-41.8909
-41.89
-41.8891
-41.8883
-41.8875
-41.8867
-41.8859
-41.8852
-41.8845
-41.8839
-41.8833
-41.8827
-41.8821
-41.8816
-41.8811
-41.8806
-41.8802
-41.8798
-41.8794
-41.8791
-41.8788
-41.8785
-41.8782
-41.878
-41.8779
-41.8796
-41.8889
-41.8598
-41.3745
-42.4573
-31.6704
121.88
-39.5876
18.9299
8.9091
8.3496
8.62424
8.6615
8.66046
8.66292
8.66705
8.6713
8.67549
8.67965
8.6838
8.68792
8.69202
8.6961
8.70015
8.70417
8.70816
8.71212
8.71605
8.71995
8.72382
8.72765
8.73144
8.73519
8.73891
8.74259
8.74622
8.74982
8.75337
8.75688
8.76035
8.76377
8.76715
8.77048
8.77376
8.77699
8.78017
8.78331
8.78639
8.78943
8.79241
8.79534
8.79822
8.80104
8.80381
8.80653
8.8092
8.81181
8.81437
8.81687
8.81932
8.82171
8.82405
8.82633
8.82856
8.83073
8.83285
8.83491
8.83692
8.83887
8.84077
8.84261
8.8444
8.84613
8.8478
8.84943
8.85099
8.85251
8.85397
8.85537
8.85672
8.85802
8.85926
8.86045
8.86159
8.86268
8.86371
8.86469
8.86562
8.86649
8.86732
8.86809
8.86881
8.86948
8.8701
8.87067
8.87118
8.87165
8.87208
8.8725
8.87287
8.87113
8.85601
8.83088
9.02929
7.77369
7.65996
120.451
-47.5003
10.1211
0.315752
-0.143377
0.14374
0.180751
0.180531
0.184563
0.190383
0.19631
0.202171
0.207992
0.213784
0.219546
0.225276
0.230971
0.236631
0.242252
0.247834
0.253373
0.258869
0.26432
0.269724
0.275079
0.280385
0.285638
0.290838
0.295983
0.301072
0.306103
0.311075
0.315986
0.320836
0.325623
0.330345
0.335002
0.339593
0.344116
0.348571
0.352957
0.357273
0.361517
0.36569
0.369791
0.373818
0.377772
0.381651
0.385456
0.389186
0.39284
0.396418
0.39992
0.403346
0.406694
0.409966
0.413161
0.416278
0.419318
0.422281
0.425167
0.427975
0.430706
0.433359
0.435936
0.438436
0.440858
0.443204
0.445474
0.447667
0.449785
0.451826
0.453792
0.455683
0.457499
0.459239
0.460906
0.462498
0.464016
0.465461
0.466832
0.46813
0.469355
0.470508
0.471588
0.472597
0.473533
0.474398
0.475192
0.475913
0.476564
0.477157
0.477785
0.478761
0.479837
0.474686
0.460826
0.615982
0.647793
0.268104
120.058
-48.2116
9.62013
-0.0867429
-0.527747
-0.240373
-0.203021
-0.201869
-0.196183
-0.188681
-0.18108
-0.173553
-0.166072
-0.158628
-0.151222
-0.143856
-0.136534
-0.129259
-0.122033
-0.114858
-0.107736
-0.100671
-0.0936644
-0.086718
-0.0798342
-0.0730152
-0.0662629
-0.0595793
-0.0529663
-0.0464259
-0.0399598
-0.0335698
-0.0272576
-0.0210249
-0.0148731
-0.00880398
-0.00281878
0.00308105
0.00889423
0.0146195
0.0202557
0.0258018
0.0312566
0.0366193
0.0418889
0.0470646
0.0521457
0.0571314
0.062021
0.0668141
0.0715101
0.0761085
0.0806089
0.0850109
0.0893144
0.0935189
0.0976244
0.101631
0.105538
0.109345
0.113053
0.116662
0.120171
0.123582
0.126893
0.130105
0.133219
0.136234
0.13915
0.141969
0.14469
0.147313
0.14984
0.152269
0.154603
0.15684
0.158981
0.161027
0.162978
0.164835
0.166597
0.168265
0.16984
0.171321
0.17271
0.174006
0.17521
0.176322
0.177342
0.178269
0.179102
0.179835
0.180508
0.181372
0.182703
0.180704
0.162918
0.18183
0.227467
0.203782
120.129
-48.0352
9.85972
0.165535
-0.275087
0.0124907
0.051087
0.0538644
0.0612363
0.0704185
0.0796914
0.0888821
0.0980193
0.107112
0.116159
0.125155
0.134098
0.142985
0.151812
0.160576
0.169274
0.177904
0.186463
0.194948
0.203356
0.211686
0.219934
0.228098
0.236175
0.244164
0.252063
0.259868
0.267578
0.275191
0.282706
0.290119
0.29743
0.304636
0.311737
0.31873
0.325615
0.332389
0.339052
0.345602
0.352039
0.358361
0.364568
0.370657
0.37663
0.382485
0.388221
0.393837
0.399334
0.404711
0.409968
0.415104
0.420118
0.425012
0.429784
0.434435
0.438964
0.443372
0.447659
0.451824
0.455869
0.459792
0.463595
0.467278
0.470841
0.474284
0.477607
0.480812
0.483898
0.486865
0.489715
0.492448
0.495064
0.497563
0.499946
0.502213
0.504366
0.506403
0.508327
0.510136
0.511832
0.513416
0.514886
0.516244
0.51749
0.518625
0.519645
0.520541
0.521314
0.522113
0.523476
0.524828
0.519422
0.514921
0.514298
0.52844
120.146
-48.0074
9.89298
0.19883
-0.241389
0.047438
0.0876435
0.0921055
0.101161
0.112018
0.122958
0.133809
0.144599
0.155337
0.166021
0.176645
0.187206
0.1977
0.208124
0.218474
0.228747
0.238938
0.249046
0.259066
0.268996
0.278833
0.288574
0.298215
0.307754
0.317189
0.326517
0.335734
0.34484
0.353831
0.362704
0.371459
0.380093
0.388603
0.396989
0.405248
0.413378
0.421378
0.429246
0.436982
0.444583
0.452049
0.459379
0.46657
0.473624
0.480537
0.487311
0.493944
0.500436
0.506786
0.512993
0.519058
0.52498
0.530759
0.536395
0.541887
0.547236
0.552442
0.557504
0.562423
0.567199
0.571833
0.576324
0.580673
0.58488
0.588946
0.592871
0.596655
0.600299
0.603804
0.60717
0.610397
0.613486
0.616437
0.619251
0.621929
0.624471
0.626877
0.629149
0.631286
0.633289
0.635158
0.636895
0.638498
0.63997
0.641311
0.642519
0.643588
0.644497
0.64527
0.646202
0.647676
0.647907
0.646732
0.641953
0.649701
120.148
-48.0085
9.89266
0.199416
-0.23942
0.0510321
0.0929221
0.0990689
0.109801
0.122327
0.13493
0.147438
0.159877
0.172256
0.184572
0.19682
0.208996
0.221094
0.233111
0.245043
0.256886
0.268636
0.280288
0.291841
0.303289
0.314629
0.325859
0.336974
0.347971
0.358848
0.369602
0.380229
0.390726
0.401091
0.411321
0.421414
0.431368
0.441179
0.450846
0.460367
0.46974
0.478963
0.488034
0.496952
0.505715
0.514322
0.522772
0.531063
0.539194
0.547165
0.554974
0.562621
0.570105
0.577425
0.584581
0.591573
0.5984
0.605063
0.61156
0.617891
0.624058
0.630059
0.635895
0.641566
0.647072
0.652413
0.657591
0.662605
0.667455
0.672142
0.676667
0.681029
0.685231
0.689271
0.693151
0.696871
0.700432
0.703835
0.707079
0.710166
0.713097
0.715871
0.718489
0.720953
0.723262
0.725417
0.727419
0.729268
0.730965
0.73251
0.733904
0.735146
0.736221
0.737105
0.737868
0.738782
0.739777
0.740602
0.735984
0.742629
120.148
-48.0073
9.89536
0.203689
-0.233493
0.0586442
0.102218
0.110042
0.122444
0.136635
0.150896
0.165055
0.179138
0.193154
0.207099
0.220966
0.234751
0.248449
0.262056
0.275565
0.288974
0.302277
0.315471
0.328551
0.341513
0.354353
0.367067
0.379652
0.392104
0.404419
0.416594
0.428626
0.440511
0.452247
0.46383
0.475258
0.486527
0.497635
0.508581
0.519361
0.529973
0.540415
0.550686
0.560783
0.570704
0.580449
0.590016
0.599403
0.608609
0.617634
0.626475
0.635133
0.643607
0.651895
0.659997
0.667913
0.675643
0.683186
0.690542
0.69771
0.704692
0.711486
0.718094
0.724515
0.730749
0.736796
0.742658
0.748335
0.753826
0.759133
0.764256
0.769195
0.773952
0.778527
0.782919
0.787131
0.791163
0.795015
0.798689
0.802184
0.805502
0.808643
0.811607
0.814397
0.817011
0.819451
0.821718
0.823811
0.825732
0.827481
0.82906
0.830468
0.831703
0.832746
0.833582
0.834293
0.835183
0.83683
0.830547
0.839115
120.149
-48.0048
9.8995
0.209521
-0.22598
0.0678381
0.113087
0.12258
0.136647
0.152497
0.168411
0.184217
0.19994
0.215587
0.231155
0.246637
0.262027
0.277319
0.292509
0.307592
0.322562
0.337414
0.352143
0.366746
0.381217
0.395552
0.409746
0.423796
0.437698
0.451447
0.46504
0.478472
0.491741
0.504843
0.517774
0.530532
0.543113
0.555515
0.567734
0.579769
0.591616
0.603274
0.61474
0.626013
0.637089
0.647969
0.658649
0.669129
0.679406
0.689481
0.699352
0.709018
0.718477
0.72773
0.736775
0.745613
0.754242
0.762663
0.770875
0.778878
0.786672
0.794258
0.801634
0.808802
0.815762
0.822513
0.829058
0.835395
0.841525
0.84745
0.853169
0.858683
0.863994
0.8691
0.874005
0.878707
0.883208
0.887508
0.891609
0.895511
0.899215
0.902722
0.906032
0.909146
0.912064
0.914788
0.917319
0.919656
0.9218
0.923753
0.925514
0.927086
0.928468
0.929655
0.930619
0.931338
0.932167
0.934651
0.925986
0.937069
120.15
-48.0023
9.90374
0.215445
-0.218382
0.0771087
0.124026
0.135182
0.150908
0.168411
0.185972
0.203418
0.220775
0.238049
0.255234
0.272324
0.289313
0.306195
0.322964
0.339613
0.356139
0.372534
0.388794
0.404914
0.420889
0.436713
0.452383
0.467893
0.483239
0.498417
0.513422
0.52825
0.542898
0.557361
0.571636
0.58572
0.599608
0.613298
0.626787
0.640073
0.653151
0.66602
0.678677
0.691121
0.703348
0.715358
0.727148
0.738716
0.750062
0.761183
0.77208
0.782749
0.793192
0.803406
0.813391
0.823147
0.832672
0.841968
0.851033
0.859868
0.868471
0.876845
0.884987
0.8929
0.900582
0.908036
0.91526
0.922255
0.929022
0.935562
0.941875
0.947963
0.953824
0.959462
0.964875
0.970066
0.975035
0.979782
0.984309
0.988616
0.992705
0.996576
1.00023
1.00367
1.00689
1.0099
1.01269
1.01527
1.01764
1.01979
1.02174
1.02347
1.025
1.02631
1.02739
1.02817
1.02897
1.03237
1.02136
1.03484
120.151
-47.9998
9.90793
0.221309
-0.210851
0.086304
0.134882
0.147696
0.165073
0.184223
0.203426
0.222507
0.241491
0.260384
0.27918
0.297873
0.316455
0.33492
0.353261
0.371471
0.389546
0.407479
0.425264
0.442895
0.460368
0.477676
0.494815
0.51178
0.528565
0.545166
0.561578
0.577797
0.593818
0.609637
0.62525
0.640654
0.655845
0.670818
0.685572
0.700103
0.714407
0.728483
0.742327
0.755937
0.769311
0.782446
0.795341
0.807994
0.820403
0.832568
0.844485
0.856155
0.867576
0.878748
0.889669
0.900339
0.910758
0.920925
0.93084
0.940502
0.949913
0.959071
0.967977
0.976631
0.985033
0.993185
1.00109
1.00874
1.01614
1.02329
1.0302
1.03685
1.04327
1.04943
1.05535
1.06103
1.06646
1.07166
1.07661
1.08132
1.08579
1.09002
1.09402
1.09778
1.1013
1.10459
1.10765
1.11047
1.11306
1.11542
1.11754
1.11944
1.12111
1.12255
1.12374
1.12458
1.12535
1.1296
1.11657
1.13211
120.152
-47.9973
9.91209
0.227136
-0.203364
0.0954488
0.145681
0.160145
0.179168
0.199957
0.220794
0.241503
0.262107
0.282613
0.303014
0.323302
0.34347
0.363511
0.383418
0.403183
0.422801
0.442264
0.461568
0.480704
0.499669
0.518455
0.537057
0.555469
0.573687
0.591705
0.609518
0.627121
0.64451
0.661679
0.678625
0.695344
0.711831
0.728083
0.744096
0.759867
0.775392
0.790669
0.805695
0.820466
0.834981
0.849238
0.863233
0.876966
0.890435
0.903637
0.916571
0.929237
0.941633
0.953758
0.965611
0.977192
0.9885
0.999534
1.01029
1.02078
1.031
1.04093
1.0506
1.05999
1.06911
1.07796
1.08654
1.09484
1.10287
1.11064
1.11813
1.12536
1.13231
1.13901
1.14543
1.15159
1.15749
1.16313
1.1685
1.17361
1.17847
1.18306
1.1874
1.19148
1.1953
1.19887
1.20219
1.20525
1.20806
1.21062
1.21293
1.21499
1.2168
1.21836
1.21966
1.22056
1.22132
1.22626
1.21164
1.22884
120.153
-47.9948
9.91624
0.232935
-0.195912
0.104551
0.15643
0.172536
0.193196
0.215619
0.238082
0.260411
0.282628
0.30474
0.326738
0.348614
0.370361
0.391971
0.413436
0.434748
0.455902
0.476889
0.497704
0.518338
0.538787
0.559044
0.579103
0.598957
0.618601
0.638029
0.657237
0.676218
0.694968
0.713481
0.731754
0.749781
0.767559
0.785083
0.802349
0.819355
0.836095
0.852568
0.868769
0.884697
0.900348
0.91572
0.930811
0.945619
0.960141
0.974377
0.988323
1.00198
1.01535
1.02842
1.0412
1.05369
1.06588
1.07778
1.08938
1.10069
1.1117
1.12242
1.13284
1.14297
1.1528
1.16234
1.17159
1.18054
1.1892
1.19757
1.20565
1.21345
1.22095
1.22816
1.23509
1.24174
1.2481
1.25417
1.25997
1.26548
1.27071
1.27567
1.28034
1.28474
1.28887
1.29272
1.29629
1.2996
1.30263
1.30538
1.30787
1.31009
1.31204
1.31373
1.31514
1.31611
1.31685
1.32231
1.30654
1.325
120.154
-47.9923
9.92037
0.238705
-0.188497
0.113608
0.167125
0.184865
0.207156
0.231203
0.255285
0.279225
0.303048
0.326756
0.350343
0.3738
0.397118
0.420289
0.443304
0.466157
0.488839
0.511342
0.53366
0.555786
0.577712
0.599432
0.62094
0.642228
0.663291
0.684123
0.704718
0.72507
0.745175
0.765025
0.784618
0.803947
0.823009
0.841799
0.860312
0.878546
0.896495
0.914158
0.931529
0.948607
0.965389
0.981871
0.998052
1.01393
1.0295
1.04476
1.05972
1.07436
1.08869
1.10271
1.11641
1.1298
1.14287
1.15563
1.16807
1.1802
1.192
1.2035
1.21467
1.22553
1.23607
1.2463
1.25621
1.26581
1.2751
1.28408
1.29274
1.30109
1.30914
1.31687
1.3243
1.33143
1.33825
1.34476
1.35097
1.35688
1.3625
1.36781
1.37282
1.37754
1.38196
1.38609
1.38992
1.39346
1.39671
1.39967
1.40234
1.40472
1.40681
1.40862
1.41013
1.41118
1.41193
1.41774
1.40123
1.42057
120.154
-47.9899
9.92447
0.244443
-0.181121
0.122617
0.177764
0.197129
0.221041
0.246704
0.272395
0.297939
0.323358
0.348656
0.373823
0.398852
0.423733
0.448456
0.473014
0.497398
0.521599
0.545611
0.569425
0.593033
0.616429
0.639604
0.662553
0.685268
0.707743
0.729971
0.751946
0.773662
0.795113
0.816294
0.837199
0.857824
0.878163
0.898211
0.917965
0.93742
0.956572
0.975418
0.993953
1.01218
1.03008
1.04767
1.06493
1.08187
1.09849
1.11477
1.13073
1.14635
1.16164
1.1766
1.19122
1.20551
1.21946
1.23307
1.24634
1.25928
1.27187
1.28414
1.29606
1.30764
1.31889
1.32981
1.34038
1.35063
1.36054
1.37011
1.37936
1.38827
1.39685
1.40511
1.41303
1.42063
1.42791
1.43486
1.44149
1.4478
1.45378
1.45945
1.4648
1.46984
1.47455
1.47896
1.48305
1.48683
1.49029
1.49345
1.4963
1.49884
1.50107
1.503
1.50461
1.50575
1.50652
1.51253
1.49563
1.51553
120.155
-47.9874
9.92855
0.250149
-0.173788
0.131574
0.188341
0.209323
0.234847
0.262116
0.289408
0.316546
0.343553
0.37043
0.397169
0.42376
0.450194
0.476462
0.502553
0.528459
0.554172
0.579683
0.604984
0.630067
0.654923
0.679546
0.703928
0.728062
0.75194
0.775555
0.798903
0.821974
0.844765
0.867268
0.889479
0.911391
0.933
0.9543
0.975287
0.995957
1.0163
1.03633
1.05602
1.07538
1.0944
1.11309
1.13143
1.14943
1.16708
1.18438
1.20133
1.21793
1.23418
1.25007
1.2656
1.28078
1.2956
1.31006
1.32416
1.3379
1.35129
1.36431
1.37698
1.38929
1.40124
1.41283
1.42407
1.43495
1.44548
1.45565
1.46547
1.47494
1.48406
1.49283
1.50125
1.50933
1.51706
1.52444
1.53148
1.53819
1.54455
1.55057
1.55625
1.5616
1.56661
1.57129
1.57564
1.57965
1.58334
1.58669
1.58971
1.59241
1.59478
1.59683
1.59855
1.59977
1.60059
1.60667
1.58969
1.60987
120.156
-47.985
9.93261
0.255819
-0.166499
0.140476
0.198854
0.221443
0.248568
0.277434
0.306317
0.33504
0.363624
0.392071
0.420372
0.448517
0.476495
0.504297
0.531912
0.559332
0.586547
0.613548
0.640327
0.666875
0.693184
0.719245
0.745051
0.770594
0.795867
0.820862
0.845573
0.869992
0.894114
0.917932
0.94144
0.964632
0.987502
1.01005
1.03226
1.05414
1.07567
1.09686
1.11771
1.1382
1.15833
1.1781
1.19752
1.21657
1.23525
1.25356
1.2715
1.28907
1.30626
1.32308
1.33952
1.35558
1.37127
1.38657
1.4015
1.41604
1.43021
1.444
1.4574
1.47043
1.48308
1.49535
1.50724
1.51876
1.5299
1.54067
1.55106
1.56108
1.57074
1.58002
1.58893
1.59748
1.60566
1.61347
1.62093
1.62802
1.63475
1.64112
1.64714
1.6528
1.6581
1.66306
1.66766
1.6719
1.6758
1.67935
1.68256
1.68541
1.68792
1.69009
1.69191
1.69322
1.69409
1.70014
1.68333
1.70355
120.157
-47.9826
9.93664
0.261453
-0.159258
0.149321
0.209298
0.233483
0.2622
0.292652
0.323116
0.353413
0.383565
0.413572
0.443425
0.473113
0.502625
0.531951
0.561081
0.590004
0.618712
0.647194
0.675441
0.703445
0.731196
0.758686
0.785907
0.812851
0.839509
0.865875
0.891941
0.917699
0.943143
0.968267
0.993063
1.01753
1.04165
1.06543
1.08886
1.11194
1.13465
1.15701
1.17899
1.2006
1.22184
1.2427
1.26318
1.28327
1.30298
1.32229
1.34122
1.35975
1.37788
1.39562
1.41296
1.42991
1.44645
1.46259
1.47834
1.49368
1.50862
1.52316
1.5373
1.55104
1.56438
1.57733
1.58987
1.60202
1.61377
1.62513
1.63609
1.64666
1.65684
1.66663
1.67603
1.68505
1.69368
1.70192
1.70978
1.71726
1.72436
1.73109
1.73743
1.7434
1.749
1.75422
1.75907
1.76356
1.76767
1.77141
1.77479
1.7778
1.78045
1.78274
1.78466
1.78605
1.78699
1.79294
1.77649
1.79657
120.158
-47.9802
9.94064
0.267047
-0.152067
0.158105
0.219671
0.245441
0.275739
0.307766
0.3398
0.371661
0.403369
0.434925
0.46632
0.49754
0.528576
0.559417
0.59005
0.620467
0.650656
0.680609
0.710314
0.739764
0.768948
0.797857
0.826484
0.854818
0.882853
0.91058
0.937991
0.965079
0.991837
1.01826
1.04433
1.07006
1.09543
1.12044
1.14508
1.16934
1.19323
1.21674
1.23986
1.26258
1.28492
1.30685
1.32839
1.34952
1.37024
1.39055
1.41045
1.42994
1.44901
1.46766
1.4859
1.50372
1.52111
1.53809
1.55464
1.57078
1.58649
1.60178
1.61665
1.6311
1.64513
1.65874
1.67193
1.68471
1.69707
1.70901
1.72054
1.73165
1.74236
1.75265
1.76254
1.77202
1.78109
1.78976
1.79803
1.80589
1.81336
1.82043
1.8271
1.83338
1.83927
1.84476
1.84986
1.85458
1.8589
1.86284
1.86639
1.86956
1.87234
1.87475
1.87677
1.87825
1.87927
1.88504
1.86911
1.88891
120.159
-47.9778
9.94461
0.272602
-0.144928
0.166825
0.229969
0.257313
0.28918
0.322771
0.356364
0.389777
0.42303
0.456125
0.489049
0.521792
0.55434
0.586684
0.61881
0.650709
0.68237
0.713783
0.744936
0.775821
0.806427
0.836746
0.866767
0.896483
0.925884
0.954962
0.983709
1.01212
1.04018
1.06789
1.09523
1.12221
1.14882
1.17504
1.20088
1.22633
1.25138
1.27604
1.30028
1.32412
1.34754
1.37054
1.39312
1.41528
1.43701
1.45831
1.47918
1.49962
1.51962
1.53918
1.55831
1.57699
1.59523
1.61304
1.6304
1.64732
1.6638
1.67983
1.69542
1.71058
1.72529
1.73956
1.7534
1.76679
1.77975
1.79228
1.80437
1.81602
1.82725
1.83805
1.84841
1.85835
1.86787
1.87696
1.88563
1.89388
1.90171
1.90912
1.91612
1.92271
1.92888
1.93464
1.93999
1.94493
1.94947
1.9536
1.95732
1.96065
1.96357
1.96609
1.96821
1.96978
1.97088
1.97644
1.96112
1.98055
120.159
-47.9755
9.94855
0.278113
-0.137843
0.175479
0.240188
0.269094
0.302518
0.337662
0.372802
0.407755
0.442542
0.477163
0.511606
0.545858
0.579908
0.613743
0.647352
0.680722
0.713843
0.746704
0.779295
0.811604
0.843622
0.875338
0.906744
0.93783
0.968587
0.999006
1.02908
1.0588
1.08815
1.11714
1.14574
1.17397
1.2018
1.22923
1.25627
1.28289
1.30909
1.33488
1.36025
1.38518
1.40968
1.43374
1.45737
1.48055
1.50328
1.52556
1.54739
1.56877
1.58969
1.61016
1.63016
1.64971
1.66879
1.68741
1.70557
1.72327
1.74051
1.75728
1.7736
1.78945
1.80484
1.81977
1.83424
1.84825
1.86181
1.87491
1.88756
1.89975
1.91149
1.92279
1.93363
1.94403
1.95398
1.96349
1.97256
1.98119
1.98938
1.99714
2.00446
2.01135
2.0178
2.02383
2.02943
2.0346
2.03934
2.04366
2.04756
2.05104
2.05409
2.05673
2.05894
2.06061
2.06179
2.06711
2.05248
2.07147
120.16
-47.9731
9.95246
0.283581
-0.130815
0.184063
0.250326
0.280782
0.315751
0.352435
0.389108
0.42559
0.461898
0.498033
0.533983
0.569734
0.605273
0.640587
0.675666
0.710496
0.745065
0.779364
0.813379
0.847101
0.88052
0.913623
0.946403
0.978848
1.01095
1.0427
1.07409
1.1051
1.13574
1.166
1.19585
1.22531
1.25436
1.28299
1.31121
1.33899
1.36634
1.39326
1.41973
1.44575
1.47133
1.49644
1.5211
1.54529
1.56901
1.59227
1.61506
1.63737
1.6592
1.68056
1.70144
1.72184
1.74176
1.76119
1.78015
1.79862
1.81661
1.83412
1.85114
1.86768
1.88375
1.89933
1.91443
1.92906
1.94321
1.95688
1.97008
1.9828
1.99506
2.00685
2.01816
2.02902
2.0394
2.04933
2.0588
2.0678
2.07635
2.08445
2.09209
2.09927
2.10601
2.1123
2.11814
2.12354
2.12849
2.133
2.13707
2.1407
2.14389
2.14664
2.14895
2.15071
2.15197
2.15704
2.14313
2.16164
120.161
-47.9708
9.95634
0.289004
-0.123845
0.192576
0.26038
0.292371
0.328873
0.367084
0.405279
0.443276
0.481093
0.51873
0.556173
0.593409
0.630425
0.667208
0.703744
0.740021
0.776027
0.81175
0.847179
0.882303
0.91711
0.951589
0.98573
1.01952
1.05296
1.08603
1.11872
1.15102
1.18294
1.21445
1.24554
1.27622
1.30648
1.3363
1.36569
1.39463
1.42312
1.45115
1.47872
1.50582
1.53246
1.55861
1.58429
1.60949
1.6342
1.65842
1.68215
1.70539
1.72813
1.75038
1.77212
1.79337
1.81411
1.83435
1.8541
1.87333
1.89207
1.9103
1.92803
1.94526
1.96199
1.97822
1.99395
2.00918
2.02392
2.03816
2.05191
2.06516
2.07792
2.0902
2.10199
2.11329
2.12411
2.13445
2.1443
2.15368
2.16259
2.17102
2.17898
2.18646
2.19348
2.20003
2.20612
2.21174
2.2169
2.22159
2.22583
2.22961
2.23293
2.2358
2.23821
2.24005
2.2414
2.24621
2.23303
2.25105
120.162
-47.9685
9.96018
0.294379
-0.116936
0.201015
0.270345
0.30386
0.34188
0.381605
0.421308
0.460808
0.500121
0.539246
0.57817
0.616879
0.655359
0.693596
0.731576
0.769288
0.806718
0.843855
0.880685
0.917197
0.95338
0.989223
1.02471
1.05984
1.0946
1.12898
1.16296
1.19654
1.22972
1.26247
1.2948
1.32669
1.35814
1.38915
1.41969
1.44977
1.47939
1.50853
1.53719
1.56536
1.59305
1.62024
1.64693
1.67313
1.69881
1.72399
1.74866
1.77282
1.79646
1.81958
1.84218
1.86427
1.88583
1.90687
1.92739
1.94739
1.96687
1.98582
2.00425
2.02216
2.03955
2.05642
2.07277
2.0886
2.10392
2.11872
2.13301
2.14679
2.16006
2.17282
2.18507
2.19682
2.20807
2.21881
2.22906
2.23881
2.24807
2.25683
2.2651
2.27288
2.28018
2.28699
2.29331
2.29916
2.30452
2.3094
2.31381
2.31774
2.32119
2.32417
2.32667
2.3286
2.33004
2.3346
2.32214
2.33967
120.162
-47.9662
9.96399
0.299705
-0.11009
0.209377
0.28022
0.315244
0.354769
0.395994
0.437192
0.47818
0.518975
0.559575
0.599967
0.640135
0.680065
0.719743
0.759156
0.798289
0.837131
0.875667
0.913885
0.951774
0.989321
1.02651
1.06334
1.0998
1.13586
1.17154
1.2068
1.24165
1.27607
1.31006
1.34361
1.3767
1.40934
1.44151
1.4732
1.50442
1.53515
1.56539
1.59513
1.62436
1.65309
1.68131
1.709
1.73618
1.76284
1.78896
1.81456
1.83963
1.86416
1.88815
1.9116
1.93452
1.95689
1.97873
2.00002
2.02077
2.04098
2.06065
2.07977
2.09835
2.1164
2.1339
2.15087
2.1673
2.18319
2.19855
2.21338
2.22767
2.24144
2.25468
2.26739
2.27958
2.29125
2.3024
2.31304
2.32315
2.33276
2.34185
2.35043
2.35851
2.36608
2.37315
2.37971
2.38577
2.39134
2.39641
2.40098
2.40505
2.40864
2.41173
2.41433
2.41634
2.41787
2.42218
2.41041
2.42749
120.163
-47.9639
9.96776
0.304981
-0.103309
0.21766
0.290002
0.326521
0.367536
0.410247
0.452925
0.495387
0.537651
0.579712
0.621557
0.66317
0.704537
0.745643
0.786474
0.827016
0.867254
0.907177
0.94677
0.986022
1.02492
1.06345
1.10161
1.13937
1.17674
1.21369
1.25022
1.28632
1.32199
1.3572
1.39195
1.42623
1.46004
1.49337
1.52621
1.55854
1.59038
1.6217
1.65251
1.6828
1.71256
1.74179
1.77048
1.79864
1.82625
1.85332
1.87983
1.9058
1.93121
1.95606
1.98036
2.0041
2.02728
2.0499
2.07196
2.09345
2.11438
2.13476
2.15457
2.17382
2.19251
2.21064
2.22822
2.24524
2.2617
2.27761
2.29297
2.30778
2.32204
2.33576
2.34893
2.36156
2.37365
2.3852
2.39621
2.40669
2.41664
2.42606
2.43495
2.44332
2.45116
2.45848
2.46528
2.47156
2.47733
2.48258
2.48731
2.49154
2.49525
2.49845
2.50115
2.50324
2.50485
2.50894
2.49783
2.51447
120.164
-47.9617
9.97149
0.310206
-0.096595
0.225861
0.299687
0.337686
0.380177
0.424359
0.468503
0.512425
0.556142
0.59965
0.642934
0.685978
0.728768
0.771288
0.813523
0.855458
0.897081
0.938376
0.979331
1.01993
1.06017
1.10002
1.13949
1.17855
1.2172
1.25543
1.29322
1.33056
1.36745
1.40387
1.43981
1.47528
1.51025
1.54472
1.57868
1.61213
1.64506
1.67746
1.70933
1.74066
1.77144
1.80167
1.83135
1.86048
1.88904
1.91703
1.94446
1.97131
1.9976
2.02331
2.04844
2.07299
2.09697
2.12036
2.14318
2.16541
2.18706
2.20813
2.22862
2.24854
2.26787
2.28662
2.3048
2.3224
2.33943
2.35589
2.37178
2.38709
2.40184
2.41603
2.42965
2.44271
2.45522
2.46716
2.47856
2.4894
2.49969
2.50943
2.51863
2.52728
2.53539
2.54296
2.55
2.5565
2.56246
2.56789
2.57279
2.57716
2.581
2.58431
2.5871
2.58928
2.59097
2.59485
2.58435
2.60059
120.165
-47.9595
9.97519
0.315376
-0.0899495
0.233978
0.309273
0.348737
0.392689
0.438327
0.483922
0.529289
0.574444
0.619384
0.664092
0.708553
0.752751
0.79667
0.840294
0.88361
0.926602
0.969256
1.01156
1.0535
1.09505
1.13622
1.17699
1.21734
1.25726
1.29674
1.33577
1.37434
1.41244
1.45006
1.48719
1.52382
1.55994
1.59554
1.63062
1.66517
1.69918
1.73265
1.76556
1.79792
1.82971
1.86094
1.8916
1.92168
1.95117
1.98009
2.00842
2.03616
2.0633
2.08986
2.11581
2.14117
2.16593
2.1901
2.21366
2.23662
2.25899
2.28075
2.30191
2.32248
2.34245
2.36182
2.38059
2.39877
2.41636
2.43336
2.44977
2.46559
2.48082
2.49547
2.50954
2.52303
2.53595
2.54829
2.56005
2.57125
2.58188
2.59194
2.60144
2.61038
2.61875
2.62658
2.63384
2.64055
2.64671
2.65232
2.65738
2.66189
2.66586
2.66929
2.67216
2.67443
2.6762
2.67988
2.66995
2.68583
120.165
-47.9573
9.97884
0.320492
-0.0833746
0.242009
0.318757
0.35967
0.405068
0.452146
0.499176
0.545973
0.592552
0.638908
0.685025
0.730888
0.776478
0.821781
0.866781
0.911461
0.955808
0.999807
1.04344
1.0867
1.12957
1.17203
1.21408
1.2557
1.29688
1.33761
1.37787
1.41765
1.45695
1.49576
1.53406
1.57184
1.6091
1.64582
1.68201
1.71765
1.75273
1.78725
1.8212
1.85457
1.88737
1.91958
1.9512
1.98222
2.01265
2.04247
2.07169
2.1003
2.1283
2.15569
2.18247
2.20862
2.23416
2.25909
2.28339
2.30708
2.33014
2.35259
2.37442
2.39563
2.41623
2.43621
2.45557
2.47432
2.49246
2.51
2.52692
2.54324
2.55895
2.57406
2.58857
2.60249
2.61581
2.62854
2.64067
2.65222
2.66318
2.67356
2.68336
2.69258
2.70122
2.70929
2.71678
2.72371
2.73006
2.73585
2.74107
2.74572
2.74982
2.75335
2.75631
2.75866
2.76051
2.76402
2.75461
2.77017
120.166
-47.9551
9.98246
0.325552
-0.0768721
0.249952
0.328136
0.370483
0.41731
0.465813
0.514263
0.562474
0.61046
0.658216
0.705728
0.752976
0.799944
0.846616
0.892975
0.939006
0.984693
1.03002
1.07497
1.11954
1.1637
1.20745
1.25077
1.29365
1.33607
1.37803
1.4195
1.46049
1.50098
1.54095
1.58041
1.61933
1.65771
1.69555
1.73283
1.76954
1.80568
1.84124
1.87621
1.9106
1.94438
1.97756
2.01014
2.0421
2.07344
2.10416
2.13427
2.16374
2.19258
2.2208
2.24838
2.27533
2.30164
2.32731
2.35235
2.37675
2.40051
2.42363
2.44612
2.46797
2.48919
2.50977
2.52972
2.54903
2.56772
2.58578
2.60321
2.62002
2.63621
2.65178
2.66673
2.68106
2.69478
2.70789
2.7204
2.73229
2.74359
2.75428
2.76437
2.77387
2.78277
2.79108
2.7988
2.80593
2.81248
2.81844
2.82382
2.82862
2.83283
2.83647
2.83953
2.84196
2.84387
2.84724
2.8383
2.85358
120.167
-47.953
9.98603
0.330554
-0.0704437
0.257804
0.337409
0.381173
0.429413
0.479324
0.529177
0.578786
0.628163
0.677305
0.726194
0.774812
0.823142
0.871167
0.918871
0.966236
1.01325
1.05989
1.10615
1.152
1.19745
1.24246
1.28704
1.33116
1.37481
1.41798
1.46066
1.50284
1.54449
1.58563
1.62623
1.66628
1.70577
1.7447
1.78306
1.82084
1.85802
1.89461
1.9306
1.96598
2.00074
2.03488
2.0684
2.10128
2.13354
2.16515
2.19612
2.22645
2.25613
2.28516
2.31354
2.34126
2.36833
2.39475
2.42051
2.44562
2.47006
2.49386
2.51699
2.53948
2.56131
2.58248
2.60301
2.62288
2.64211
2.66069
2.67863
2.69593
2.71258
2.7286
2.74398
2.75873
2.77285
2.78634
2.7992
2.81144
2.82306
2.83406
2.84445
2.85422
2.86338
2.87193
2.87987
2.88721
2.89395
2.90008
2.90562
2.91056
2.9149
2.91864
2.92179
2.92429
2.92628
2.92952
2.921
2.93604
120.168
-47.9508
9.98956
0.335497
-0.0640913
0.265563
0.346572
0.391736
0.441372
0.492676
0.543916
0.594905
0.645658
0.696168
0.746418
0.79639
0.846066
0.895428
0.94446
0.993144
1.04146
1.0894
1.13695
1.18408
1.23079
1.27706
1.32288
1.36822
1.41309
1.45746
1.50133
1.54468
1.5875
1.62978
1.6715
1.71267
1.75326
1.79328
1.8327
1.87153
1.90975
1.94735
1.98434
2.0207
2.05643
2.09152
2.12597
2.15977
2.19292
2.22541
2.25724
2.28841
2.31892
2.34875
2.37792
2.40641
2.43424
2.46139
2.48786
2.51367
2.53879
2.56325
2.58703
2.61013
2.63257
2.65433
2.67543
2.69586
2.71562
2.73471
2.75315
2.77092
2.78804
2.8045
2.82031
2.83547
2.84998
2.86384
2.87706
2.88965
2.90159
2.9129
2.92357
2.93361
2.94303
2.95182
2.95998
2.96753
2.97445
2.98075
2.98644
2.99152
2.99598
2.99983
3.00306
3.00564
3.0077
3.01082
3.00269
3.01752
120.168
-47.9487
9.99305
0.340379
-0.0578163
0.273228
0.355623
0.402171
0.453186
0.505864
0.558474
0.610828
0.662939
0.7148
0.766395
0.817705
0.86871
0.919393
0.969737
1.01972
1.06934
1.11856
1.16738
1.21577
1.26373
1.31124
1.35828
1.40484
1.4509
1.49646
1.5415
1.58601
1.62997
1.67338
1.71623
1.75849
1.80017
1.84125
1.88173
1.92159
1.96084
1.99945
2.03742
2.07476
2.11144
2.14747
2.18284
2.21754
2.25157
2.28493
2.31761
2.34961
2.38093
2.41156
2.44151
2.47077
2.49933
2.52721
2.55439
2.58088
2.60668
2.63178
2.6562
2.67992
2.70295
2.7253
2.74696
2.76793
2.78822
2.80782
2.82675
2.845
2.86257
2.87947
2.8957
2.91127
2.92616
2.9404
2.95397
2.96689
2.97915
2.99076
3.00172
3.01203
3.02169
3.03072
3.0391
3.04685
3.05396
3.06043
3.06627
3.07148
3.07606
3.08002
3.08334
3.08599
3.08812
3.09115
3.08336
3.09801
120.169
-47.9467
9.9965
0.3452
-0.0516204
0.280796
0.36456
0.412474
0.464851
0.518887
0.572849
0.62655
0.680002
0.733198
0.786121
0.83875
0.891068
0.943055
0.994694
1.04597
1.09686
1.14735
1.19742
1.24706
1.29625
1.34498
1.39323
1.44099
1.48824
1.53497
1.58117
1.62682
1.67191
1.71644
1.76038
1.80373
1.84648
1.88862
1.93014
1.97103
2.01128
2.05088
2.08983
2.12813
2.16575
2.2027
2.23898
2.27457
2.30948
2.3437
2.37722
2.41004
2.44216
2.47358
2.50429
2.5343
2.5636
2.59219
2.62007
2.64724
2.6737
2.69945
2.72449
2.74882
2.77244
2.79536
2.81757
2.83908
2.85989
2.88
2.89941
2.91813
2.93615
2.95349
2.97014
2.9861
3.00138
3.01597
3.0299
3.04314
3.05572
3.06763
3.07887
3.08944
3.09936
3.10862
3.11721
3.12516
3.13245
3.13909
3.14508
3.15043
3.15513
3.15919
3.16259
3.16532
3.16751
3.17046