/*--------------------------------*- C++ -*----------------------------------*\
  =========                 |
  \\      /  F ield         | OpenFOAM: The Open Source CFD Toolbox
   \\    /   O peration     | Website:  https://openfoam.org
    \\  /    A nd           | Version:  10
     \\/     M anipulation  |
\*---------------------------------------------------------------------------*/
FoamFile
{
    format      ascii;
    class       volScalarField;
    location    "37";
    object      T;
}
// * * * * * * * * * * * * * * * * * * * * * * * * * * * * * * * * * * * * * //

dimensions      [0 0 0 1 0 0 0];

internalField   nonuniform List<scalar> 
10000
(
374.988
361.298
356.624
354.579
353.472
352.776
352.292
351.934
351.654
351.429
351.242
351.083
350.946
350.825
350.718
350.621
350.533
350.452
350.378
350.308
350.243
350.182
350.125
350.07
350.018
349.968
349.92
349.875
349.831
349.788
349.747
349.708
349.669
349.632
349.596
349.561
349.527
349.494
349.461
349.43
349.399
349.369
349.34
349.311
349.283
349.256
349.23
349.204
349.178
349.153
349.129
349.106
349.083
349.06
349.038
349.017
348.996
348.976
348.956
348.936
348.918
348.899
348.881
348.864
348.847
348.831
348.815
348.8
348.785
348.77
348.756
348.743
348.73
348.718
348.706
348.694
348.683
348.672
348.662
348.653
348.644
348.635
348.627
348.619
348.612
348.605
348.598
348.593
348.587
348.582
348.578
348.574
348.57
348.567
348.565
348.563
348.561
348.56
348.559
348.559
388.622
374.88
367.242
362.796
360.003
358.113
356.752
355.721
354.909
354.248
353.697
353.228
352.821
352.462
352.142
351.854
351.591
351.35
351.127
350.92
350.726
350.543
350.37
350.206
350.05
349.901
349.759
349.622
349.49
349.363
349.24
349.122
349.007
348.895
348.787
348.682
348.58
348.48
348.383
348.288
348.196
348.106
348.019
347.933
347.849
347.768
347.688
347.61
347.534
347.46
347.387
347.316
347.247
347.18
347.114
347.05
346.987
346.926
346.866
346.808
346.752
346.697
346.644
346.592
346.541
346.492
346.445
346.398
346.354
346.311
346.269
346.229
346.19
346.152
346.116
346.082
346.049
346.017
345.987
345.958
345.93
345.904
345.88
345.856
345.835
345.814
345.795
345.778
345.761
345.747
345.733
345.721
345.711
345.701
345.694
345.687
345.682
345.679
345.677
345.676
393.244
382.359
374.668
369.362
365.633
362.923
360.882
359.29
358.012
356.959
356.072
355.311
354.647
354.061
353.536
353.062
352.629
352.231
351.863
351.519
351.198
350.895
350.608
350.337
350.078
349.83
349.593
349.365
349.146
348.935
348.731
348.534
348.342
348.157
347.977
347.802
347.631
347.466
347.304
347.147
346.993
346.843
346.697
346.555
346.415
346.28
346.147
346.017
345.89
345.767
345.646
345.528
345.413
345.3
345.191
345.084
344.979
344.877
344.778
344.682
344.588
344.496
344.407
344.32
344.236
344.155
344.075
343.999
343.924
343.852
343.783
343.716
343.651
343.589
343.529
343.471
343.416
343.363
343.312
343.264
343.219
343.175
343.134
343.095
343.059
343.025
342.993
342.964
342.937
342.912
342.89
342.87
342.853
342.837
342.824
342.814
342.805
342.8
342.796
342.795
395.236
386.646
379.709
374.35
370.244
367.066
364.561
362.546
360.891
359.504
358.321
357.297
356.398
355.599
354.881
354.229
353.633
353.084
352.574
352.099
351.652
351.232
350.834
350.455
350.095
349.75
349.42
349.102
348.797
348.502
348.217
347.942
347.674
347.415
347.164
346.919
346.681
346.449
346.224
346.004
345.789
345.58
345.375
345.176
344.981
344.791
344.605
344.424
344.247
344.074
343.905
343.74
343.579
343.421
343.268
343.118
342.972
342.83
342.691
342.556
342.424
342.296
342.171
342.05
341.933
341.818
341.707
341.6
341.496
341.395
341.298
341.204
341.114
341.026
340.942
340.862
340.785
340.711
340.64
340.573
340.508
340.448
340.39
340.336
340.285
340.238
340.193
340.152
340.115
340.08
340.049
340.021
339.996
339.975
339.957
339.942
339.93
339.922
339.917
339.915
396.29
389.28
383.173
378.085
373.926
370.535
367.753
365.444
363.502
361.845
360.413
359.16
358.05
357.057
356.16
355.343
354.593
353.899
353.254
352.65
352.083
351.548
351.041
350.559
350.099
349.658
349.236
348.83
348.439
348.062
347.697
347.344
347.002
346.67
346.347
346.033
345.728
345.431
345.141
344.859
344.583
344.315
344.052
343.796
343.546
343.302
343.064
342.831
342.603
342.381
342.164
341.952
341.745
341.543
341.346
341.154
340.966
340.783
340.605
340.431
340.262
340.098
339.937
339.782
339.631
339.484
339.341
339.203
339.07
338.94
338.815
338.695
338.578
338.466
338.358
338.255
338.155
338.06
337.97
337.883
337.801
337.723
337.649
337.579
337.514
337.453
337.396
337.343
337.295
337.25
337.21
337.174
337.143
337.115
337.092
337.073
337.058
337.047
337.041
337.038
396.933
391.011
385.618
380.893
376.841
373.397
370.472
367.975
365.828
363.963
362.328
360.881
359.587
358.421
357.362
356.392
355.497
354.667
353.894
353.168
352.485
351.839
351.227
350.643
350.086
349.552
349.039
348.546
348.071
347.613
347.169
346.739
346.323
345.918
345.525
345.143
344.771
344.409
344.056
343.712
343.376
343.048
342.728
342.416
342.111
341.813
341.522
341.238
340.96
340.689
340.424
340.165
339.913
339.666
339.425
339.191
338.962
338.738
338.521
338.309
338.102
337.901
337.706
337.516
337.331
337.152
336.978
336.809
336.646
336.488
336.335
336.188
336.046
335.909
335.777
335.651
335.529
335.413
335.302
335.197
335.096
335.001
334.911
334.826
334.746
334.671
334.602
334.537
334.478
334.424
334.375
334.331
334.292
334.259
334.23
334.207
334.189
334.176
334.168
334.165
397.363
392.214
387.395
383.027
379.148
375.741
372.764
370.159
367.872
365.853
364.057
362.45
360.999
359.681
358.476
357.367
356.339
355.383
354.488
353.647
352.853
352.101
351.386
350.705
350.053
349.428
348.827
348.249
347.692
347.153
346.632
346.127
345.637
345.161
344.698
344.248
343.81
343.383
342.968
342.562
342.166
341.78
341.403
341.034
340.675
340.323
339.98
339.645
339.317
338.997
338.685
338.379
338.081
337.79
337.506
337.229
336.959
336.695
336.438
336.188
335.944
335.707
335.476
335.252
335.034
334.822
334.617
334.418
334.225
334.039
333.859
333.685
333.517
333.355
333.2
333.05
332.907
332.77
332.639
332.514
332.395
332.283
332.176
332.076
331.982
331.893
331.811
331.735
331.665
331.601
331.544
331.492
331.446
331.406
331.373
331.345
331.324
331.309
331.299
331.296
397.669
393.087
388.723
384.673
380.982
377.658
374.684
372.027
369.651
367.52
365.601
363.863
362.28
360.832
359.498
358.263
357.114
356.04
355.032
354.082
353.183
352.33
351.517
350.741
349.997
349.284
348.598
347.937
347.298
346.681
346.084
345.504
344.942
344.396
343.865
343.348
342.844
342.354
341.876
341.409
340.954
340.509
340.075
339.652
339.238
338.833
338.438
338.052
337.675
337.306
336.946
336.595
336.251
335.916
335.589
335.27
334.958
334.655
334.359
334.07
333.789
333.516
333.25
332.991
332.74
332.496
332.26
332.03
331.808
331.593
331.386
331.185
330.992
330.805
330.626
330.454
330.289
330.131
329.98
329.836
329.699
329.569
329.447
329.331
329.222
329.121
329.026
328.938
328.858
328.784
328.717
328.658
328.605
328.559
328.52
328.489
328.464
328.446
328.435
328.432
397.896
393.741
389.738
385.96
382.451
379.228
376.287
373.614
371.186
368.978
366.965
365.123
363.431
361.87
360.423
359.076
357.817
356.636
355.523
354.47
353.472
352.522
351.616
350.749
349.917
349.118
348.349
347.607
346.89
346.196
345.523
344.871
344.238
343.623
343.024
342.441
341.873
341.319
340.78
340.253
339.739
339.237
338.746
338.267
337.8
337.342
336.896
336.459
336.033
335.616
335.209
334.811
334.423
334.044
333.674
333.313
332.96
332.617
332.282
331.955
331.638
331.328
331.027
330.735
330.45
330.174
329.907
329.647
329.396
329.152
328.917
328.69
328.471
328.26
328.057
327.862
327.676
327.497
327.326
327.163
327.008
326.861
326.722
326.591
326.468
326.353
326.246
326.147
326.055
325.972
325.896
325.829
325.769
325.717
325.674
325.638
325.61
325.59
325.577
325.573
398.069
394.244
390.528
386.979
383.635
380.515
377.625
374.959
372.504
370.244
368.161
366.237
364.454
362.797
361.251
359.805
358.447
357.167
355.957
354.809
353.717
352.676
351.681
350.727
349.811
348.929
348.079
347.258
346.464
345.696
344.95
344.227
343.524
342.841
342.175
341.527
340.896
340.28
339.679
339.093
338.521
337.962
337.416
336.882
336.361
335.851
335.354
334.867
334.392
333.927
333.473
333.03
332.597
332.174
331.761
331.358
330.965
330.582
330.208
329.844
329.489
329.144
328.808
328.482
328.165
327.857
327.558
327.268
326.988
326.716
326.454
326.2
325.956
325.72
325.494
325.276
325.068
324.868
324.678
324.496
324.323
324.159
324.004
323.858
323.72
323.592
323.472
323.361
323.259
323.166
323.082
323.006
322.94
322.882
322.833
322.793
322.762
322.74
322.726
322.721
398.203
394.637
391.153
387.795
384.595
381.574
378.74
376.094
373.629
371.336
369.201
367.212
365.354
363.616
361.985
360.451
359.003
357.633
356.333
355.097
353.918
352.791
351.711
350.674
349.676
348.715
347.787
346.89
346.022
345.18
344.364
343.57
342.799
342.049
341.318
340.606
339.912
339.235
338.574
337.929
337.299
336.684
336.083
335.495
334.921
334.36
333.811
333.275
332.751
332.239
331.739
331.25
330.772
330.306
329.851
329.407
328.973
328.55
328.138
327.737
327.345
326.965
326.594
326.234
325.884
325.544
325.214
324.895
324.585
324.285
323.996
323.716
323.446
323.187
322.937
322.697
322.467
322.246
322.036
321.835
321.644
321.463
321.292
321.131
320.979
320.837
320.705
320.583
320.47
320.368
320.274
320.191
320.118
320.054
320
319.956
319.921
319.897
319.882
319.876
398.31
394.95
391.653
388.454
385.379
382.448
379.67
377.05
374.586
372.272
370.099
368.058
366.139
364.332
362.626
361.014
359.486
358.034
356.652
355.334
354.072
352.864
351.704
350.588
349.513
348.475
347.472
346.501
345.561
344.648
343.762
342.901
342.063
341.247
340.452
339.677
338.922
338.184
337.464
336.761
336.074
335.403
334.748
334.107
333.48
332.868
332.269
331.684
331.112
330.553
330.006
329.472
328.951
328.441
327.944
327.459
326.985
326.523
326.072
325.634
325.206
324.79
324.385
323.991
323.608
323.237
322.876
322.527
322.188
321.861
321.544
321.238
320.944
320.659
320.386
320.124
319.872
319.631
319.401
319.182
318.973
318.775
318.588
318.411
318.245
318.09
317.946
317.812
317.689
317.577
317.475
317.384
317.303
317.234
317.175
317.126
317.089
317.062
317.045
317.039
398.395
395.201
392.056
388.988
386.02
383.169
380.445
377.854
375.396
373.069
370.868
368.786
366.816
364.95
363.18
361.498
359.898
358.372
356.914
355.519
354.181
352.896
351.66
350.469
349.319
348.208
347.133
346.091
345.08
344.099
343.145
342.218
341.314
340.435
339.577
338.74
337.924
337.127
336.349
335.589
334.846
334.12
333.411
332.717
332.039
331.376
330.727
330.093
329.473
328.868
328.275
327.697
327.132
326.579
326.04
325.514
325.001
324.5
324.011
323.535
323.071
322.62
322.181
321.754
321.339
320.936
320.545
320.166
319.798
319.443
319.099
318.768
318.448
318.139
317.843
317.558
317.285
317.024
316.774
316.536
316.309
316.095
315.891
315.7
315.52
315.352
315.195
315.05
314.916
314.794
314.684
314.585
314.498
314.422
314.358
314.306
314.265
314.235
314.217
314.211
398.464
395.404
392.383
389.424
386.547
383.765
381.089
378.526
376.078
373.744
371.522
369.407
367.394
365.477
363.65
361.907
360.241
358.647
357.12
355.654
354.244
352.888
351.58
350.317
349.096
347.915
346.77
345.659
344.581
343.533
342.513
341.521
340.554
339.611
338.692
337.795
336.92
336.064
335.229
334.413
333.615
332.834
332.072
331.326
330.596
329.883
329.186
328.503
327.836
327.184
326.547
325.924
325.316
324.721
324.14
323.574
323.021
322.481
321.955
321.442
320.942
320.456
319.983
319.523
319.075
318.641
318.22
317.811
317.415
317.032
316.662
316.304
315.96
315.627
315.308
315.001
314.706
314.425
314.155
313.899
313.655
313.423
313.204
312.997
312.803
312.622
312.453
312.296
312.152
312.021
311.902
311.795
311.701
311.62
311.551
311.494
311.45
311.418
311.399
311.392
398.52
395.569
392.65
389.781
386.979
384.256
381.624
379.086
376.649
374.311
372.072
369.93
367.881
365.92
364.043
362.244
360.519
358.863
357.271
355.739
354.263
352.838
351.462
350.132
348.843
347.594
346.382
345.206
344.062
342.949
341.865
340.81
339.781
338.777
337.798
336.842
335.908
334.995
334.103
333.232
332.379
331.546
330.731
329.933
329.153
328.391
327.644
326.915
326.201
325.503
324.821
324.154
323.503
322.866
322.245
321.638
321.045
320.467
319.904
319.354
318.819
318.298
317.791
317.298
316.819
316.354
315.902
315.464
315.04
314.63
314.233
313.849
313.48
313.124
312.781
312.452
312.137
311.834
311.546
311.271
311.009
310.761
310.526
310.305
310.097
309.902
309.721
309.553
309.399
309.258
309.13
309.016
308.915
308.828
308.754
308.693
308.646
308.612
308.591
308.584
398.565
395.703
392.867
390.072
387.333
384.661
382.065
379.551
377.123
374.783
372.531
370.365
368.284
366.284
364.362
362.514
360.735
359.022
357.37
355.777
354.237
352.749
351.309
349.913
348.56
347.247
345.971
344.73
343.523
342.347
341.202
340.085
338.995
337.932
336.894
335.879
334.888
333.92
332.973
332.047
331.141
330.255
329.388
328.54
327.71
326.898
326.104
325.327
324.568
323.825
323.098
322.388
321.694
321.016
320.353
319.706
319.075
318.459
317.859
317.273
316.703
316.147
315.607
315.081
314.57
314.074
313.592
313.125
312.673
312.235
311.812
311.403
311.009
310.629
310.264
309.913
309.576
309.254
308.946
308.653
308.373
308.109
307.858
307.622
307.4
307.192
306.999
306.82
306.655
306.505
306.369
306.247
306.14
306.046
305.967
305.903
305.852
305.816
305.794
305.786
398.602
395.811
393.043
390.309
387.622
384.992
382.427
379.932
377.513
375.171
372.907
370.721
368.612
366.577
364.615
362.721
360.892
359.126
357.419
355.768
354.17
352.622
351.12
349.663
348.248
346.873
345.535
344.233
342.964
341.728
340.522
339.346
338.197
337.076
335.98
334.909
333.862
332.838
331.837
330.857
329.899
328.961
328.043
327.145
326.266
325.406
324.565
323.742
322.936
322.148
321.378
320.625
319.889
319.169
318.467
317.781
317.111
316.457
315.82
315.198
314.593
314.003
313.429
312.871
312.329
311.802
311.291
310.795
310.315
309.85
309.4
308.966
308.548
308.144
307.756
307.383
307.026
306.684
306.357
306.045
305.748
305.467
305.201
304.95
304.715
304.494
304.289
304.099
303.924
303.764
303.619
303.49
303.376
303.276
303.193
303.124
303.07
303.032
303.008
303
398.631
395.899
393.186
390.502
387.857
385.261
382.721
380.243
377.83
375.485
373.211
371.006
368.871
366.805
364.805
362.869
360.995
359.18
357.421
355.716
354.063
352.457
350.898
349.382
347.908
346.473
345.076
343.714
342.386
341.091
339.827
338.593
337.387
336.208
335.056
333.93
332.828
331.75
330.696
329.664
328.654
327.665
326.697
325.75
324.823
323.915
323.027
322.158
321.307
320.475
319.662
318.866
318.088
317.328
316.585
315.86
315.152
314.461
313.787
313.13
312.49
311.867
311.26
310.67
310.096
309.539
308.998
308.474
307.966
307.474
306.999
306.539
306.096
305.67
305.259
304.865
304.487
304.124
303.778
303.449
303.135
302.837
302.556
302.29
302.041
301.807
301.59
301.389
301.204
301.035
300.882
300.745
300.624
300.519
300.43
300.357
300.301
300.26
300.235
300.226
398.655
395.97
393.3
390.656
388.046
385.477
382.957
380.491
378.082
375.735
373.449
371.227
369.069
366.973
364.938
362.963
361.047
359.186
357.379
355.623
353.917
352.257
350.643
349.071
347.54
346.048
344.594
343.175
341.79
340.438
339.117
337.826
336.564
335.331
334.124
332.943
331.788
330.657
329.55
328.466
327.406
326.367
325.35
324.354
323.379
322.425
321.49
320.576
319.681
318.805
317.949
317.111
316.292
315.492
314.71
313.946
313.2
312.472
311.762
311.07
310.396
309.739
309.099
308.477
307.873
307.285
306.715
306.162
305.627
305.108
304.607
304.123
303.656
303.206
302.773
302.357
301.959
301.577
301.212
300.864
300.533
300.219
299.922
299.642
299.379
299.133
298.904
298.692
298.497
298.318
298.157
298.013
297.885
297.774
297.681
297.604
297.544
297.501
297.475
297.466
398.674
396.026
393.391
390.778
388.195
385.648
383.143
380.685
378.279
375.926
373.63
371.391
369.21
367.086
365.019
363.008
361.051
359.147
357.294
355.491
353.734
352.024
350.356
348.731
347.146
345.599
344.09
342.615
341.175
339.768
338.392
337.046
335.73
334.442
333.182
331.948
330.74
329.558
328.4
327.266
326.155
325.067
324.001
322.958
321.936
320.935
319.956
318.996
318.058
317.139
316.24
315.361
314.502
313.661
312.84
312.038
311.255
310.491
309.745
309.018
308.309
307.619
306.947
306.294
305.658
305.041
304.442
303.861
303.299
302.754
302.227
301.718
301.227
300.754
300.299
299.862
299.443
299.041
298.658
298.292
297.944
297.614
297.302
297.008
296.731
296.472
296.231
296.008
295.803
295.616
295.446
295.294
295.16
295.044
294.945
294.864
294.801
294.756
294.729
294.719
398.689
396.069
393.462
390.873
388.31
385.779
383.285
380.832
378.426
376.067
373.759
371.504
369.3
367.15
365.053
363.007
361.012
359.067
357.171
355.322
353.518
351.758
350.04
348.364
346.727
345.127
343.564
342.037
340.543
339.082
337.652
336.254
334.884
333.544
332.231
330.946
329.687
328.453
327.245
326.061
324.902
323.765
322.652
321.562
320.494
319.448
318.423
317.42
316.438
315.477
314.536
313.616
312.717
311.837
310.977
310.137
309.317
308.517
307.736
306.974
306.232
305.509
304.805
304.12
303.454
302.808
302.18
301.571
300.981
300.41
299.858
299.325
298.81
298.314
297.837
297.379
296.94
296.519
296.117
295.733
295.369
295.023
294.695
294.387
294.097
293.825
293.573
293.339
293.124
292.927
292.749
292.59
292.449
292.327
292.224
292.139
292.073
292.026
291.997
291.987
398.7
396.102
393.515
390.944
388.396
385.876
383.389
380.938
378.529
376.163
373.843
371.57
369.345
367.17
365.042
362.964
360.933
358.949
357.011
355.118
353.269
351.462
349.696
347.97
346.283
344.633
343.019
341.439
339.894
338.381
336.899
335.449
334.028
332.636
331.273
329.937
328.627
327.344
326.087
324.854
323.647
322.463
321.303
320.166
319.053
317.962
316.893
315.847
314.822
313.819
312.837
311.877
310.937
310.019
309.121
308.244
307.387
306.551
305.735
304.939
304.164
303.408
302.672
301.957
301.261
300.585
299.929
299.292
298.676
298.079
297.501
296.944
296.406
295.887
295.389
294.909
294.45
294.01
293.589
293.188
292.807
292.445
292.103
291.78
291.477
291.193
290.929
290.684
290.459
290.253
290.067
289.9
289.753
289.626
289.518
289.429
289.36
289.311
289.281
289.27
398.708
396.126
393.553
390.995
388.457
385.943
383.459
381.009
378.594
376.219
373.886
371.595
369.349
367.148
364.992
362.882
360.816
358.795
356.817
354.883
352.99
351.138
349.326
347.553
345.817
344.117
342.454
340.824
339.228
337.665
336.133
334.632
333.161
331.719
330.306
328.921
327.562
326.23
324.925
323.645
322.39
321.16
319.954
318.772
317.613
316.478
315.366
314.277
313.21
312.166
311.144
310.143
309.165
308.208
307.272
306.358
305.466
304.594
303.744
302.914
302.105
301.318
300.551
299.804
299.079
298.374
297.689
297.026
296.383
295.76
295.158
294.576
294.015
293.474
292.954
292.454
291.974
291.515
291.076
290.658
290.26
289.882
289.525
289.188
288.872
288.576
288.3
288.045
287.81
287.595
287.401
287.227
287.073
286.94
286.828
286.735
286.663
286.611
286.58
286.569
398.713
396.142
393.579
391.028
388.496
385.985
383.501
381.047
378.626
376.24
373.892
371.584
369.316
367.09
364.906
362.765
360.666
358.608
356.593
354.618
352.683
350.788
348.931
347.112
345.329
343.582
341.871
340.193
338.548
336.936
335.355
333.805
332.285
330.794
329.332
327.898
326.492
325.113
323.76
322.433
321.132
319.856
318.605
317.378
316.176
314.997
313.843
312.711
311.603
310.518
309.456
308.416
307.399
306.404
305.432
304.481
303.553
302.646
301.762
300.899
300.057
299.238
298.44
297.663
296.908
296.175
295.462
294.772
294.102
293.454
292.827
292.222
291.637
291.074
290.533
290.012
289.513
289.035
288.578
288.142
287.728
287.335
286.963
286.612
286.283
285.974
285.687
285.421
285.177
284.953
284.751
284.57
284.41
284.271
284.154
284.058
283.983
283.929
283.896
283.885
398.716
396.151
393.593
391.046
388.515
386.004
383.517
381.057
378.627
376.229
373.866
371.539
369.25
366.999
364.788
362.616
360.484
358.392
356.339
354.325
352.35
350.412
348.512
346.649
344.821
343.029
341.27
339.546
337.854
336.194
334.565
332.967
331.399
329.861
328.352
326.871
325.417
323.991
322.592
321.22
319.873
318.552
317.257
315.986
314.741
313.52
312.323
311.15
310.001
308.876
307.774
306.696
305.641
304.608
303.599
302.613
301.649
300.708
299.79
298.894
298.02
297.169
296.341
295.534
294.75
293.988
293.248
292.531
291.835
291.162
290.511
289.882
289.275
288.69
288.127
287.586
287.067
286.57
286.096
285.643
285.212
284.804
284.417
284.053
283.71
283.39
283.091
282.815
282.561
282.328
282.118
281.93
281.764
281.62
281.497
281.397
281.32
281.264
281.23
281.218
398.718
396.154
393.597
391.05
388.518
386.004
383.511
381.042
378.601
376.19
373.811
371.464
369.153
366.878
364.639
362.438
360.274
358.147
356.059
354.007
351.993
350.015
348.073
346.166
344.295
342.458
340.654
338.884
337.146
335.439
333.764
332.12
330.506
328.921
327.365
325.838
324.338
322.867
321.422
320.005
318.614
317.249
315.91
314.597
313.308
312.045
310.807
309.594
308.405
307.24
306.099
304.983
303.89
302.821
301.775
300.754
299.755
298.78
297.828
296.9
295.995
295.113
294.254
293.418
292.605
291.815
291.048
290.303
289.582
288.884
288.209
287.556
286.927
286.32
285.736
285.175
284.637
284.122
283.629
283.16
282.713
282.289
281.888
281.51
281.155
280.822
280.513
280.226
279.962
279.721
279.503
279.308
279.135
278.986
278.859
278.755
278.674
278.616
278.581
278.569
398.717
396.152
393.592
391.043
388.506
385.985
383.485
381.006
378.553
376.126
373.729
371.363
369.03
366.73
364.464
362.233
360.038
357.878
355.754
353.666
351.613
349.596
347.613
345.665
343.751
341.871
340.023
338.208
336.426
334.674
332.954
331.264
329.604
327.974
326.373
324.8
323.256
321.74
320.251
318.79
317.355
315.947
314.565
313.209
311.88
310.575
309.296
308.043
306.814
305.61
304.432
303.277
302.147
301.042
299.961
298.904
297.872
296.863
295.878
294.918
293.981
293.068
292.179
291.314
290.473
289.655
288.861
288.091
287.344
286.621
285.922
285.246
284.595
283.966
283.362
282.781
282.224
281.69
281.18
280.694
280.231
279.792
279.377
278.985
278.617
278.273
277.952
277.655
277.382
277.132
276.906
276.704
276.525
276.37
276.239
276.132
276.048
275.988
275.951
275.938
398.715
396.145
393.581
391.025
388.481
385.952
383.441
380.95
378.483
376.04
373.625
371.238
368.882
366.557
364.264
362.004
359.778
357.586
355.427
353.303
351.213
349.158
347.135
345.147
343.191
341.269
339.379
337.521
335.694
333.899
332.134
330.4
328.696
327.022
325.376
323.759
322.171
320.611
319.079
317.574
316.097
314.646
313.223
311.825
310.454
309.11
307.791
306.498
305.23
303.988
302.771
301.58
300.414
299.273
298.156
297.065
295.999
294.957
293.94
292.947
291.98
291.037
290.118
289.224
288.354
287.509
286.689
285.893
285.121
284.374
283.651
282.953
282.279
281.629
281.004
280.403
279.827
279.275
278.748
278.245
277.767
277.313
276.883
276.478
276.098
275.742
275.41
275.103
274.82
274.562
274.328
274.119
273.934
273.774
273.639
273.527
273.441
273.379
273.341
273.327
398.711
396.134
393.562
390.998
388.444
385.905
383.381
380.877
378.394
375.934
373.5
371.092
368.712
366.362
364.042
361.754
359.497
357.273
355.081
352.921
350.795
348.702
346.641
344.613
342.617
340.653
338.722
336.822
334.952
333.114
331.307
329.529
327.782
326.064
324.375
322.715
321.084
319.481
317.906
316.359
314.84
313.348
311.883
310.445
309.034
307.649
306.291
304.959
303.653
302.373
301.12
299.892
298.689
297.513
296.362
295.237
294.137
293.062
292.013
290.99
289.991
289.018
288.071
287.148
286.251
285.379
284.532
283.71
282.914
282.142
281.396
280.675
279.98
279.309
278.664
278.044
277.449
276.879
276.334
275.815
275.321
274.852
274.409
273.991
273.598
273.23
272.887
272.57
272.278
272.012
271.77
271.554
271.364
271.198
271.058
270.943
270.854
270.789
270.75
270.737
398.706
396.119
393.537
390.963
388.398
385.845
383.308
380.789
378.289
375.811
373.356
370.926
368.523
366.148
363.801
361.484
359.197
356.941
354.715
352.522
350.36
348.23
346.131
344.065
342.029
340.026
338.053
336.112
334.202
332.322
330.472
328.652
326.862
325.102
323.371
321.669
319.995
318.351
316.734
315.145
313.585
312.052
310.547
309.069
307.618
306.194
304.797
303.427
302.083
300.767
299.476
298.212
296.975
295.764
294.579
293.42
292.287
291.18
290.1
289.045
288.017
287.014
286.037
285.087
284.162
283.263
282.39
281.544
280.723
279.927
279.158
278.415
277.698
277.007
276.341
275.702
275.088
274.501
273.94
273.404
272.895
272.411
271.954
271.523
271.117
270.738
270.385
270.058
269.757
269.482
269.233
269.01
268.813
268.642
268.498
268.38
268.287
268.221
268.181
268.167
398.7
396.102
393.508
390.92
388.342
385.776
383.223
380.687
378.169
375.672
373.196
370.744
368.317
365.916
363.542
361.196
358.879
356.591
354.334
352.106
349.909
347.743
345.608
343.503
341.43
339.387
337.375
335.393
333.442
331.521
329.631
327.77
325.938
324.137
322.364
320.62
318.906
317.22
315.562
313.933
312.332
310.759
309.214
307.697
306.207
304.745
303.31
301.902
300.522
299.169
297.842
296.543
295.271
294.025
292.806
291.615
290.449
289.311
288.199
287.114
286.056
285.024
284.019
283.041
282.089
281.164
280.265
279.394
278.548
277.73
276.938
276.173
275.434
274.722
274.037
273.379
272.747
272.142
271.564
271.013
270.488
269.99
269.519
269.075
268.657
268.267
267.903
267.566
267.256
266.972
266.716
266.486
266.284
266.108
265.959
265.837
265.742
265.674
265.632
265.618
398.694
396.082
393.474
390.872
388.279
385.696
383.127
380.573
378.036
375.518
373.021
370.546
368.095
365.668
363.267
360.892
358.546
356.227
353.937
351.676
349.445
347.244
345.072
342.931
340.819
338.738
336.687
334.666
332.676
330.715
328.784
326.882
325.011
323.168
321.355
319.571
317.816
316.09
314.392
312.723
311.083
309.47
307.886
306.33
304.802
303.302
301.83
300.386
298.969
297.58
296.218
294.884
293.577
292.298
291.046
289.822
288.625
287.455
286.313
285.198
284.11
283.049
282.016
281.011
280.032
279.081
278.157
277.261
276.392
275.55
274.736
273.949
273.189
272.457
271.752
271.075
270.425
269.803
269.208
268.641
268.101
267.589
267.105
266.648
266.218
265.816
265.442
265.095
264.776
264.485
264.221
263.985
263.776
263.596
263.442
263.317
263.219
263.149
263.106
263.091
398.686
396.059
393.436
390.818
388.208
385.609
383.022
380.449
377.892
375.353
372.833
370.335
367.858
365.406
362.977
360.575
358.198
355.849
353.527
351.233
348.968
346.732
344.525
342.347
340.199
338.081
335.992
333.932
331.903
329.903
327.932
325.992
324.08
322.198
320.345
318.521
316.727
314.961
313.224
311.516
309.837
308.186
306.564
304.97
303.404
301.867
300.358
298.877
297.425
296
294.604
293.235
291.895
290.583
289.298
288.042
286.813
285.613
284.44
283.295
282.179
281.09
280.029
278.997
277.992
277.015
276.066
275.146
274.253
273.388
272.552
271.744
270.963
270.211
269.487
268.791
268.124
267.485
266.873
266.291
265.736
265.21
264.712
264.242
263.801
263.388
263.003
262.647
262.319
262.019
261.748
261.506
261.291
261.105
260.948
260.819
260.718
260.646
260.603
260.587
398.678
396.034
393.394
390.759
388.132
385.514
382.907
380.315
377.737
375.176
372.634
370.111
367.61
365.131
362.675
360.244
357.838
355.458
353.105
350.779
348.48
346.21
343.968
341.755
339.571
337.415
335.289
333.192
331.125
329.086
327.077
325.098
323.148
321.227
319.335
317.472
315.639
313.834
312.059
310.312
308.595
306.906
305.246
303.615
302.013
300.439
298.894
297.378
295.89
294.431
293
291.598
290.225
288.88
287.563
286.275
285.016
283.785
282.582
281.409
280.263
279.147
278.059
277
275.969
274.967
273.993
273.049
272.133
271.246
270.387
269.558
268.757
267.985
267.242
266.528
265.843
265.187
264.56
263.961
263.392
262.852
262.341
261.858
261.405
260.981
260.587
260.221
259.884
259.577
259.298
259.049
258.829
258.638
258.477
258.344
258.241
258.167
258.122
258.106
398.669
396.007
393.349
390.696
388.049
385.412
382.786
380.172
377.573
374.99
372.424
369.877
367.35
364.845
362.362
359.902
357.467
355.057
352.672
350.314
347.983
345.679
343.403
341.155
338.935
336.743
334.581
332.447
330.342
328.266
326.22
324.202
322.214
320.255
318.325
316.424
314.552
312.71
310.897
309.113
307.358
305.632
303.936
302.268
300.629
299.02
297.44
295.888
294.366
292.872
291.408
289.973
288.567
287.189
285.841
284.522
283.232
281.972
280.74
279.538
278.364
277.22
276.105
275.02
273.964
272.937
271.939
270.971
270.032
269.123
268.243
267.392
266.571
265.78
265.018
264.286
263.584
262.911
262.268
261.654
261.07
260.516
259.992
259.498
259.033
258.598
258.193
257.818
257.473
257.158
256.872
256.617
256.391
256.195
256.029
255.894
255.788
255.712
255.666
255.649
398.66
395.979
393.301
390.629
387.963
385.305
382.658
380.023
377.401
374.795
372.205
369.634
367.081
364.549
362.039
359.551
357.086
354.646
352.231
349.841
347.477
345.14
342.83
340.547
338.293
336.066
333.867
331.697
329.556
327.443
325.36
323.305
321.279
319.283
317.316
315.377
313.469
311.589
309.739
307.918
306.127
304.364
302.632
300.928
299.254
297.609
295.994
294.408
292.852
291.325
289.828
288.36
286.922
285.513
284.134
282.784
281.464
280.174
278.914
277.683
276.482
275.311
274.169
273.058
271.977
270.925
269.904
268.912
267.951
267.019
266.118
265.247
264.406
263.596
262.816
262.066
261.346
260.657
259.998
259.369
258.771
258.204
257.667
257.16
256.684
256.239
255.824
255.439
255.086
254.762
254.47
254.208
253.977
253.776
253.607
253.467
253.359
253.281
253.234
253.217
398.65
395.949
393.251
390.558
387.872
385.193
382.524
379.867
377.222
374.593
371.979
369.382
366.804
364.245
361.707
359.191
356.697
354.227
351.781
349.36
346.964
344.594
342.251
339.934
337.645
335.384
333.15
330.944
328.767
326.619
324.499
322.407
320.345
318.312
316.308
314.334
312.388
310.472
308.586
306.729
304.901
303.103
301.335
299.596
297.887
296.208
294.559
292.939
291.349
289.79
288.26
286.76
285.29
283.85
282.44
281.061
279.711
278.392
277.103
275.845
274.617
273.419
272.252
271.115
270.009
268.933
267.888
266.873
265.89
264.937
264.015
263.123
262.263
261.434
260.635
259.867
259.131
258.425
257.751
257.108
256.496
255.915
255.365
254.846
254.359
253.903
253.478
253.085
252.723
252.392
252.093
251.824
251.588
251.382
251.209
251.066
250.955
250.875
250.827
250.81
398.639
395.918
393.199
390.485
387.777
385.077
382.385
379.705
377.038
374.384
371.745
369.123
366.518
363.933
361.368
358.823
356.3
353.801