/*--------------------------------*- C++ -*----------------------------------*\
  =========                 |
  \\      /  F ield         | OpenFOAM: The Open Source CFD Toolbox
   \\    /   O peration     | Website:  https://openfoam.org
    \\  /    A nd           | Version:  10
     \\/     M anipulation  |
\*---------------------------------------------------------------------------*/
FoamFile
{
    format      ascii;
    class       volScalarField;
    location    "37";
    object      T_0;
}
// * * * * * * * * * * * * * * * * * * * * * * * * * * * * * * * * * * * * * //

dimensions      [0 0 0 1 0 0 0];

internalField   nonuniform List<scalar> 
10000
(
374.986
361.298
356.623
354.578
353.471
352.775
352.292
351.933
351.654
351.428
351.241
351.083
350.945
350.825
350.717
350.62
350.532
350.452
350.377
350.308
350.243
350.182
350.124
350.069
350.017
349.967
349.92
349.874
349.83
349.788
349.747
349.707
349.669
349.631
349.595
349.56
349.526
349.493
349.46
349.429
349.398
349.368
349.339
349.31
349.283
349.255
349.229
349.203
349.177
349.153
349.128
349.105
349.082
349.059
349.037
349.016
348.995
348.975
348.955
348.935
348.917
348.898
348.88
348.863
348.846
348.83
348.814
348.799
348.784
348.769
348.755
348.742
348.729
348.717
348.705
348.693
348.682
348.671
348.661
348.652
348.643
348.634
348.626
348.618
348.611
348.604
348.597
348.592
348.586
348.581
348.577
348.573
348.569
348.566
348.564
348.562
348.56
348.559
348.558
348.558
388.622
374.881
367.242
362.796
360.003
358.113
356.752
355.721
354.909
354.248
353.697
353.228
352.82
352.462
352.142
351.854
351.591
351.35
351.127
350.92
350.725
350.543
350.37
350.206
350.05
349.901
349.758
349.621
349.49
349.363
349.24
349.121
349.006
348.895
348.786
348.681
348.579
348.479
348.382
348.288
348.195
348.106
348.018
347.932
347.848
347.767
347.687
347.609
347.533
347.459
347.386
347.316
347.246
347.179
347.113
347.049
346.986
346.925
346.865
346.807
346.751
346.696
346.642
346.591
346.54
346.491
346.443
346.397
346.353
346.31
346.268
346.228
346.189
346.151
346.115
346.081
346.047
346.016
345.985
345.957
345.929
345.903
345.878
345.855
345.833
345.813
345.794
345.776
345.76
345.745
345.732
345.72
345.709
345.7
345.692
345.686
345.681
345.678
345.675
345.675
393.243
382.36
374.668
369.362
365.633
362.923
360.881
359.29
358.012
356.958
356.071
355.31
354.647
354.06
353.536
353.061
352.628
352.231
351.862
351.519
351.197
350.894
350.607
350.336
350.077
349.829
349.592
349.364
349.145
348.934
348.73
348.532
348.341
348.156
347.975
347.8
347.63
347.464
347.303
347.145
346.992
346.842
346.696
346.553
346.414
346.278
346.145
346.015
345.889
345.765
345.644
345.526
345.411
345.298
345.189
345.082
344.977
344.875
344.776
344.68
344.585
344.494
344.405
344.318
344.234
344.152
344.073
343.996
343.922
343.85
343.781
343.713
343.649
343.586
343.526
343.469
343.413
343.361
343.31
343.262
343.216
343.173
343.132
343.093
343.057
343.023
342.991
342.962
342.935
342.91
342.888
342.868
342.85
342.835
342.822
342.811
342.803
342.797
342.793
342.792
395.235
386.646
379.709
374.35
370.243
367.065
364.561
362.546
360.89
359.503
358.321
357.297
356.397
355.598
354.88
354.228
353.632
353.083
352.573
352.097
351.651
351.23
350.832
350.454
350.093
349.749
349.418
349.101
348.795
348.5
348.215
347.94
347.673
347.413
347.162
346.917
346.679
346.447
346.221
346.001
345.787
345.577
345.373
345.174
344.979
344.789
344.603
344.421
344.244
344.071
343.902
343.737
343.576
343.419
343.265
343.115
342.969
342.827
342.688
342.553
342.421
342.293
342.168
342.047
341.93
341.815
341.704
341.597
341.493
341.392
341.295
341.201
341.11
341.023
340.939
340.859
340.781
340.707
340.637
340.569
340.505
340.444
340.387
340.333
340.282
340.234
340.19
340.149
340.111
340.077
340.045
340.017
339.993
339.971
339.953
339.938
339.927
339.919
339.914
339.912
396.289
389.28
383.173
378.085
373.926
370.535
367.752
365.443
363.501
361.844
360.413
359.159
358.049
357.056
356.159
355.342
354.591
353.898
353.252
352.649
352.082
351.547
351.039
350.557
350.097
349.656
349.234
348.828
348.437
348.06
347.695
347.342
346.999
346.667
346.344
346.031
345.725
345.428
345.138
344.856
344.58
344.312
344.049
343.793
343.543
343.299
343.061
342.828
342.6
342.378
342.161
341.949
341.742
341.54
341.343
341.15
340.963
340.78
340.601
340.428
340.258
340.094
339.934
339.778
339.627
339.48
339.337
339.199
339.066
338.936
338.811
338.691
338.574
338.462
338.354
338.251
338.151
338.056
337.965
337.879
337.797
337.718
337.645
337.575
337.51
337.448
337.391
337.339
337.29
337.246
337.206
337.17
337.138
337.111
337.087
337.068
337.053
337.043
337.036
337.034
396.932
391.011
385.618
380.892
376.84
373.397
370.471
367.975
365.827
363.962
362.327
360.88
359.586
358.42
357.36
356.39
355.496
354.666
353.892
353.167
352.483
351.838
351.224
350.641
350.083
349.549
349.037
348.544
348.069
347.61
347.166
346.737
346.32
345.915
345.522
345.14
344.768
344.406
344.053
343.708
343.372
343.045
342.725
342.412
342.107
341.809
341.518
341.234
340.956
340.685
340.42
340.161
339.908
339.662
339.421
339.186
338.957
338.734
338.516
338.304
338.097
337.896
337.701
337.511
337.326
337.147
336.973
336.804
336.641
336.483
336.33
336.183
336.041
335.904
335.772
335.646
335.524
335.408
335.297
335.192
335.091
334.996
334.905
334.82
334.741
334.666
334.596
334.532
334.473
334.418
334.369
334.326
334.287
334.253
334.225
334.202
334.183
334.17
334.162
334.16
397.363
392.214
387.395
383.027
379.147
375.741
372.763
370.158
367.871
365.852
364.056
362.448
360.998
359.68
358.475
357.365
356.338
355.381
354.486
353.645
352.851
352.099
351.384
350.702
350.05
349.425
348.825
348.246
347.689
347.15
346.628
346.123
345.633
345.157
344.695
344.245
343.807
343.38
342.964
342.558
342.162
341.776
341.398
341.03
340.67
340.319
339.976
339.64
339.313
338.992
338.68
338.375
338.076
337.785
337.501
337.224
336.954
336.69
336.433
336.183
335.939
335.702
335.471
335.246
335.028
334.817
334.611
334.412
334.22
334.033
333.853
333.679
333.511
333.349
333.194
333.044
332.901
332.764
332.633
332.508
332.389
332.277
332.17
332.07
331.975
331.887
331.805
331.729
331.659
331.595
331.537
331.485
331.44
331.4
331.367
331.339
331.318
331.302
331.293
331.289
397.669
393.087
388.723
384.672
380.982
377.658
374.683
372.026
369.65
367.519
365.6
363.861
362.279
360.83
359.496
358.261
357.112
356.038
355.03
354.08
353.181
352.327
351.514
350.738
349.994
349.281
348.595
347.933
347.295
346.677
346.08
345.5
344.938
344.392
343.861
343.344
342.84
342.349
341.871
341.404
340.949
340.505
340.071
339.647
339.233
338.828
338.433
338.047
337.669
337.301
336.941
336.589
336.246
335.91
335.583
335.264
334.952
334.649
334.353
334.064
333.783
333.51
333.244
332.985
332.734
332.49
332.253
332.024
331.802
331.587
331.379
331.178
330.985
330.798
330.619
330.447
330.282
330.124
329.973
329.829
329.692
329.562
329.44
329.324
329.215
329.113
329.019
328.931
328.85
328.777
328.71
328.65
328.597
328.552
328.513
328.481
328.457
328.439
328.428
328.424
397.895
393.741
389.738
385.96
382.45
379.227
376.286
373.613
371.185
368.977
366.964
365.122
363.429
361.868
360.421
359.074
357.815
356.633
355.52
354.468
353.469
352.519
351.613
350.745
349.914
349.115
348.345
347.603
346.886
346.192
345.519
344.867
344.234
343.618
343.019
342.436
341.868
341.314
340.775
340.248
339.733
339.231
338.741
338.262
337.794
337.337
336.89
336.453
336.027
335.61
335.203
334.805
334.417
334.037
333.667
333.306
332.954
332.61
332.275
331.948
331.631
331.321
331.02
330.727
330.443
330.167
329.899
329.639
329.388
329.145
328.909
328.682
328.463
328.252
328.049
327.855
327.668
327.489
327.318
327.155
327
326.853
326.714
326.583
326.46
326.345
326.238
326.138
326.047
325.964
325.888
325.821
325.761
325.709
325.665
325.629
325.601
325.581
325.569
325.565
398.068
394.244
390.528
386.979
383.634
380.514
377.624
374.958
372.503
370.243
368.159
366.235
364.452
362.795
361.249
359.803
358.444
357.164
355.954
354.806
353.714
352.673
351.677
350.723
349.807
348.925
348.075
347.254
346.46
345.691
344.946
344.222
343.519
342.835
342.17
341.522
340.89
340.274
339.674
339.087
338.515
337.956
337.409
336.876
336.354
335.845
335.347
334.86
334.385
333.92
333.466
333.023
332.59
332.167
331.754
331.351
330.958
330.574
330.2
329.836
329.482
329.136
328.8
328.474
328.157
327.849
327.55
327.26
326.979
326.708
326.445
326.192
325.947
325.712
325.485
325.268
325.059
324.859
324.669
324.487
324.314
324.15
323.995
323.848
323.711
323.583
323.463
323.352
323.25
323.157
323.073
322.997
322.931
322.873
322.824
322.784
322.753
322.73
322.717
322.712
398.203
394.637
391.153
387.795
384.595
381.573
378.739
376.093
373.628
371.334
369.199
367.209
365.352
363.613
361.982
360.448
359
357.63
356.33
355.094
353.914
352.787
351.707
350.67
349.672
348.711
347.782
346.885
346.017
345.175
344.358
343.565
342.794
342.043
341.312
340.6
339.906
339.229
338.568
337.923
337.293
336.677
336.076
335.488
334.914
334.353
333.804
333.268
332.744
332.232
331.731
331.242
330.765
330.298
329.843
329.398
328.965
328.542
328.13
327.728
327.337
326.956
326.585
326.225
325.875
325.535
325.205
324.885
324.576
324.276
323.986
323.707
323.437
323.177
322.927
322.687
322.457
322.236
322.026
321.825
321.634
321.453
321.282
321.121
320.969
320.827
320.695
320.573
320.46
320.357
320.264
320.181
320.108
320.044
319.99
319.946
319.911
319.886
319.871
319.866
398.309
394.95
391.653
388.453
385.378
382.447
379.669
377.049
374.584
372.27
370.097
368.056
366.137
364.329
362.624
361.011
359.483
358.031
356.649
355.33
354.069
352.86
351.7
350.583
349.508
348.47
347.467
346.496
345.555
344.643
343.756
342.895
342.057
341.241
340.446
339.671
338.915
338.177
337.457
336.754
336.067
335.396
334.74
334.099
333.473
332.86
332.261
331.676
331.104
330.544
329.998
329.464
328.942
328.433
327.935
327.45
326.976
326.514
326.063
325.624
325.196
324.78
324.375
323.981
323.599
323.227
322.866
322.517
322.178
321.851
321.534
321.228
320.933
320.649
320.376
320.113
319.861
319.62
319.39
319.171
318.962
318.764
318.577
318.4
318.234
318.079
317.935
317.801
317.678
317.565
317.464
317.373
317.292
317.223
317.163
317.115
317.077
317.05
317.034
317.028
398.394
395.201
392.056
388.988
386.019
383.168
380.444
377.852
375.394
373.067
370.866
368.784
366.814
364.947
363.177
361.495
359.894
358.368
356.91
355.515
354.177
352.892
351.656
350.464
349.314
348.203
347.128
346.086
345.075
344.093
343.139
342.211
341.308
340.428
339.57
338.733
337.917
337.12
336.342
335.581
334.839
334.112
333.403
332.709
332.03
331.367
330.718
330.084
329.465
328.859
328.266
327.688
327.122
326.57
326.031
325.504
324.991
324.49
324.001
323.525
323.061
322.61
322.17
321.743
321.328
320.925
320.534
320.155
319.787
319.432
319.088
318.756
318.436
318.128
317.832
317.547
317.274
317.012
316.762
316.524
316.298
316.083
315.88
315.688
315.508
315.34
315.183
315.038
314.904
314.782
314.672
314.573
314.486
314.41
314.346
314.293
314.252
314.223
314.205
314.199
398.463
395.404
392.383
389.424
386.546
383.763
381.088
378.524
376.076
373.742
371.519
369.404
367.391
365.474
363.647
361.903
360.237
358.643
357.115
355.649
354.24
352.883
351.575
350.312
349.091
347.909
346.764
345.653
344.575
343.526
342.507
341.514
340.547
339.604
338.685
337.788
336.912
336.057
335.221
334.404
333.606
332.826
332.063
331.317
330.587
329.874
329.176
328.494
327.827
327.175
326.537
325.914
325.305
324.711
324.13
323.563
323.01
322.47
321.944
321.431
320.931
320.445
319.972
319.511
319.064
318.63
318.208
317.799
317.403
317.02
316.65
316.292
315.947
315.615
315.295
314.988
314.694
314.412
314.143
313.886
313.642
313.41
313.191
312.985
312.791
312.609
312.44
312.283
312.139
312.008
311.889
311.782
311.688
311.607
311.538
311.481
311.437
311.405
311.386
311.379
398.519
395.569
392.649
389.78
386.978
384.255
381.622
379.085
376.647
374.309
372.07
369.927
367.878
365.917
364.039
362.24
360.515
358.859
357.267
355.734
354.258
352.833
351.457
350.126
348.837
347.588
346.376
345.199
344.055
342.942
341.858
340.803
339.773
338.77
337.79
336.834
335.899
334.987
334.095
333.223
332.37
331.537
330.721
329.924
329.144
328.381
327.634
326.905
326.191
325.493
324.811
324.144
323.492
322.855
322.233
321.626
321.034
320.456
319.892
319.343
318.807
318.286
317.779
317.286
316.807
316.341
315.889
315.452
315.027
314.617
314.22
313.836
313.467
313.111
312.768
312.439
312.123
311.821
311.532
311.257
310.995
310.747
310.512
310.291
310.083
309.888
309.707
309.539
309.385
309.244
309.116
309.002
308.901
308.814
308.739
308.679
308.631
308.598
308.577
308.57
398.564
395.702
392.866
390.071
387.332
384.66
382.063
379.549
377.121
374.78
372.528
370.362
368.281
366.281
364.358
362.51
360.731
359.017
357.365
355.772
354.232
352.744
351.303
349.908
348.554
347.24
345.964
344.723
343.516
342.34
341.194
340.077
338.987
337.924
336.885
335.871
334.88
333.911
332.963
332.037
331.131
330.245
329.378
328.53
327.7
326.888
326.094
325.317
324.557
323.813
323.087
322.376
321.682
321.004
320.341
319.694
319.063
318.447
317.846
317.26
316.69
316.134
315.594
315.068
314.557
314.06
313.579
313.112
312.659
312.221
311.798
311.389
310.995
310.615
310.25
309.899
309.562
309.24
308.932
308.638
308.359
308.094
307.843
307.607
307.385
307.178
306.984
306.805
306.641
306.49
306.354
306.232
306.125
306.031
305.952
305.887
305.837
305.801
305.779
305.771
398.601
395.811
393.042
390.308
387.621
384.991
382.425
379.93
377.511
375.168
372.904
370.718
368.609
366.574
364.611
362.716
360.888
359.121
357.414
355.763
354.165
352.616
351.114
349.657
348.242
346.866
345.528
344.225
342.957
341.72
340.514
339.337
338.189
337.067
335.971
334.9
333.853
332.829
331.827
330.847
329.889
328.951
328.033
327.134
326.255
325.395
324.554
323.73
322.925
322.137
321.366
320.613
319.876
319.157
318.454
317.768
317.098
316.444
315.806
315.185
314.579
313.99
313.416
312.857
312.315
311.788
311.276
310.781
310.3
309.835
309.386
308.952
308.533
308.129
307.741
307.368
307.011
306.668
306.341
306.03
305.733
305.452
305.186
304.935
304.699
304.478
304.273
304.083
303.908
303.748
303.603
303.474
303.36
303.26
303.177
303.108
303.054
303.016
302.992
302.984
398.631
395.899
393.185
390.501
387.856
385.26
382.719
380.24
377.827
375.482
373.208
371.003
368.868
366.801
364.801
362.865
360.99
359.175
357.416
355.711
354.057
352.451
350.892
349.376
347.901
346.466
345.068
343.706
342.379
341.083
339.819
338.584
337.378
336.199
335.047
333.92
332.818
331.74
330.686
329.653
328.643
327.654
326.686
325.738
324.811
323.903
323.015
322.145
321.295
320.463
319.649
318.853
318.075
317.315
316.572
315.847
315.139
314.447
313.773
313.116
312.476
311.852
311.245
310.655
310.081
309.524
308.983
308.459
307.95
307.459
306.983
306.524
306.081
305.654
305.243
304.849
304.47
304.108
303.762
303.432
303.118
302.821
302.539
302.274
302.024
301.791
301.573
301.372
301.187
301.018
300.865
300.728
300.607
300.502
300.413
300.34
300.284
300.243
300.218
300.209
398.654
395.97
393.3
390.655
388.044
385.475
382.955
380.488
378.08
375.732
373.446
371.224
369.065
366.969
364.934
362.959
361.042
359.181
357.373
355.617
353.911
352.251
350.636
349.064
347.533
346.041
344.586
343.167
341.782
340.429
339.108
337.817
336.555
335.321
334.114
332.933
331.777
330.646
329.539
328.455
327.394
326.355
325.338
324.342
323.367
322.412
321.478
320.563
319.668
318.792
317.935
317.098
316.279
315.478
314.696
313.932
313.186
312.458
311.748
311.055
310.381
309.723
309.084
308.462
307.857
307.269
306.699
306.146
305.611
305.092
304.591
304.107
303.64
303.19
302.757
302.341
301.942
301.56
301.195
300.847
300.516
300.202
299.905
299.625
299.362
299.116
298.887
298.674
298.479
298.301
298.139
297.995
297.867
297.757
297.663
297.586
297.526
297.483
297.457
297.448
398.673
396.026
393.39
390.777
388.193
385.646
383.141
380.683
378.276
375.923
373.627
371.387
369.206
367.082
365.015
363.003
361.046
359.142
357.289
355.485
353.728
352.017
350.349
348.724
347.138
345.591
344.081
342.607
341.166
339.759
338.382
337.037
335.72
334.432
333.172
331.938
330.73
329.547
328.388
327.254
326.143
325.055
323.989
322.945
321.923
320.922
319.942
318.983
318.044
317.125
316.226
315.347
314.487
313.647
312.825
312.023
311.24
310.475
309.729
309.002
308.293
307.603
306.931
306.277
305.642
305.025
304.426
303.845
303.282
302.737
302.21
301.701
301.21
300.737
300.282
299.844
299.425
299.023
298.64
298.274
297.926
297.596
297.284
296.989
296.713
296.454
296.213
295.99
295.784
295.597
295.427
295.275
295.141
295.025
294.926
294.846
294.783
294.737
294.71
294.7
398.688
396.069
393.461
390.872
388.308
385.777
383.282
380.83
378.423
376.064
373.756
371.5
369.296
367.146
365.048
363.002
361.007
359.061
357.165
355.315
353.511
351.751
350.033
348.356
346.718
345.119
343.556
342.028
340.534
339.072
337.643
336.244
334.874
333.533
332.221
330.935
329.675
328.442
327.233
326.049
324.889
323.753
322.639
321.549
320.48
319.434
318.409
317.406
316.424
315.462
314.522
313.601
312.701
311.822
310.962
310.122
309.301
308.501
307.719
306.958
306.215
305.492
304.788
304.103
303.437
302.79
302.162
301.554
300.963
300.392
299.84
299.307
298.792
298.296
297.819
297.361
296.921
296.5
296.098
295.714
295.35
295.003
294.676
294.367
294.077
293.806
293.553
293.319
293.104
292.907
292.729
292.57
292.429
292.307
292.204
292.119
292.053
292.006
291.977
291.967
398.699
396.102
393.514
390.943
388.394
385.874
383.386
380.936
378.526
376.16
373.839
371.566
369.341
367.165
365.037
362.958
360.927
358.943
357.005
355.111
353.262
351.455
349.689
347.962
346.275
344.624
343.01
341.43
339.884
338.371
336.889
335.438
334.017
332.625
331.261
329.925
328.615
327.332
326.074
324.842
323.633
322.45
321.289
320.153
319.039
317.947
316.879
315.832
314.807
313.804
312.822
311.861
310.922
310.003
309.105
308.228
307.371
306.534
305.718
304.922
304.146
303.39
302.655
301.939
301.243
300.567
299.911
299.274
298.657
298.06
297.483
296.925
296.387
295.868
295.369
294.89
294.43
293.99
293.569
293.168
292.787
292.425
292.083
291.76
291.456
291.173
290.908
290.664
290.438
290.233
290.047
289.88
289.733
289.605
289.497
289.409
289.34
289.29
289.26
289.249
398.707
396.126
393.552
390.994
388.455
385.941
383.457
381.006
378.591
376.216
373.882
371.591
369.345
367.143
364.987
362.876
360.81
358.789
356.811
354.876
352.982
351.13
349.318
347.544
345.808
344.108
342.444
340.815
339.218
337.655
336.123
334.621
333.15
331.708
330.294
328.908
327.55
326.218
324.912
323.631
322.376
321.146
319.939
318.757
317.599
316.463
315.351
314.262
313.195
312.15
311.127
310.127
309.148
308.191
307.255
306.341
305.448
304.576
303.726
302.896
302.087
301.299
300.532
299.786
299.06
298.355
297.67
297.006
296.363
295.74
295.138
294.556
293.995
293.454
292.933
292.433
291.954
291.494
291.056
290.637
290.239
289.861
289.504
289.167
288.851
288.555
288.279
288.023
287.788
287.574
287.379
287.206
287.052
286.919
286.806
286.714
286.642
286.59
286.559
286.547
398.713
396.141
393.578
391.027
388.494
385.983
383.499
381.044
378.622
376.236
373.888
371.579
369.311
367.085
364.901
362.759
360.659
358.602
356.585
354.61
352.675
350.779
348.922
347.103
345.32
343.573
341.861
340.183
338.538
336.925
335.344
333.793
332.273
330.782
329.32
327.886
326.479
325.099
323.746
322.419
321.118
319.841
318.59
317.363
316.16
314.982
313.827
312.695
311.587
310.501
309.439
308.399
307.382
306.387
305.414
304.463
303.535
302.628
301.743
300.88
300.039
299.219
298.421
297.644
296.889
296.155
295.443
294.752
294.082
293.434
292.807
292.201
291.617
291.054
290.512
289.991
289.492
289.013
288.557
288.121
287.706
287.313
286.941
286.59
286.261
285.952
285.665
285.399
285.154
284.931
284.729
284.548
284.388
284.249
284.132
284.035
283.96
283.906
283.874
283.862
398.716
396.15
393.592
391.045
388.513
386.002
383.515
381.054
378.623
376.225
373.862
371.534
369.245
366.994
364.782
362.61
360.477
358.385
356.331
354.317
352.342
350.404
348.504
346.64
344.812
343.019
341.26
339.535
337.843
336.182
334.553
332.955
331.387
329.848
328.339
326.857
325.404
323.977
322.578
321.205
319.858
318.537
317.241
315.971
314.725
313.503
312.306
311.133
309.984
308.859
307.757
306.678
305.623
304.59
303.581
302.594
301.63
300.689
299.77
298.874
298.001
297.149
296.321
295.514
294.73
293.967
293.228
292.51
291.814
291.141
290.489
289.86
289.253
288.668
288.105
287.564
287.045
286.548
286.073
285.62
285.19
284.781
284.394
284.03
283.687
283.367
283.068
282.792
282.537
282.305
282.095
281.907
281.74
281.596
281.474
281.374
281.296
281.24
281.206
281.194
398.717
396.153
393.596
391.049
388.516
386.001
383.508
381.039
378.598
376.186
373.806
371.46
369.148
366.872
364.633
362.431
360.267
358.14
356.051
353.999
351.984
350.006
348.064
346.157
344.285
342.447
340.644
338.873
337.134
335.428
333.752
332.108
330.493
328.908
327.352
325.824
324.324
322.852
321.408
319.99
318.599
317.233
315.894
314.58
313.292
312.029
310.79
309.576
308.387
307.222
306.081
304.964
303.871
302.802
301.756
300.734
299.736
298.76
297.808
296.88
295.974
295.092
294.233
293.397
292.583
291.793
291.026
290.282
289.561
288.862
288.187
287.534
286.904
286.297
285.713
285.152
284.614
284.099
283.606
283.136
282.69
282.266
281.865
281.486
281.131
280.798
280.489
280.202
279.938
279.697
279.479
279.284
279.111
278.962
278.835
278.731
278.65
278.592
278.557
278.544
398.716
396.151
393.591
391.041
388.504
385.983
383.482
381.003
378.549
376.122
373.725
371.358
369.024
366.724
364.458
362.226
360.031
357.871
355.746
353.658
351.605
349.587
347.604
345.655
343.741
341.86
340.012
338.197
336.414
334.662
332.941
331.251
329.591
327.961
326.359
324.786
323.242
321.725
320.236
318.774
317.339
315.931
314.549
313.193
311.862
310.558
309.279
308.025
306.796
305.592
304.413
303.258
302.128
301.023
299.941
298.884
297.851
296.842
295.858
294.897
293.96
293.047
292.158
291.292
290.451
289.633
288.839
288.068
287.321
286.598
285.899
285.223
284.571
283.943
283.338
282.757
282.2
281.666
281.156
280.67
280.207
279.768
279.352
278.961
278.592
278.248
277.927
277.63
277.357
277.107
276.881
276.679
276.5
276.345
276.214
276.107
276.023
275.963
275.926
275.913
398.714
396.144
393.579
391.023
388.479
385.949
383.438
380.947
378.479
376.036
373.62
371.233
368.876
366.551
364.258
361.997
359.771
357.578
355.419
353.295
351.205
349.148
347.126
345.137
343.181
341.258
339.367
337.509
335.682
333.886
332.122
330.387
328.682
327.007
325.362
323.745
322.156
320.596
319.063
317.558
316.08
314.63
313.205
311.808
310.437
309.092
307.772
306.479
305.211
303.969
302.752
301.56
300.394
299.252
298.136
297.044
295.978
294.936
293.918
292.926
291.958
291.014
290.096
289.201
288.332
287.486
286.666
285.869
285.098
284.35
283.627
282.929
282.255
281.605
280.98
280.379
279.803
279.251
278.723
278.22
277.742
277.288
276.858
276.453
276.072
275.716
275.385
275.077
274.795
274.536
274.303
274.093
273.909
273.748
273.613
273.502
273.415
273.353
273.315
273.302
398.71
396.133
393.561
390.996
388.442
385.902
383.378
380.874
378.39
375.93
373.495
371.087
368.707
366.356
364.036
361.747
359.49
357.265
355.072
352.913
350.786
348.692
346.631
344.602
342.606
340.642
338.71
336.809
334.94
333.101
331.293
329.516
327.768
326.049
324.36
322.7
321.069
319.465
317.89
316.343
314.823
313.331
311.865
310.427
309.015
307.63
306.272
304.94
303.634
302.354
301.099
299.871
298.669
297.492
296.341
295.215
294.115
293.041
291.991
290.967
289.969
288.996
288.048
287.125
286.227
285.355
284.508
283.686
282.889
282.118
281.372
280.651
279.955
279.284
278.639
278.018
277.423
276.853
276.309
275.79
275.295
274.827
274.383
273.965
273.571
273.204
272.861
272.544
272.252
271.985
271.744
271.528
271.337
271.171
271.031
270.916
270.827
270.763
270.724
270.71
398.705
396.119
393.536
390.961
388.396
385.843
383.305
380.785
378.285
375.806
373.351
370.921
368.517
366.141
363.794
361.476
359.189
356.932
354.707
352.513
350.35
348.22
346.121
344.054
342.018
340.014
338.041
336.099
334.189
332.308
330.458
328.638
326.848
325.087
323.356
321.653
319.979
318.334
316.717
315.128
313.567
312.034
310.528
309.05
307.599
306.175
304.777
303.407
302.063
300.746
299.456
298.191
296.954
295.742
294.557
293.398
292.265
291.158
290.077
289.022
287.993
286.991
286.014
285.063
284.138
283.239
282.366
281.519
280.698
279.902
279.133
278.39
277.672
276.981
276.315
275.676
275.062
274.475
273.913
273.378
272.868
272.385
271.927
271.496
271.09
270.711
270.358
270.03
269.729
269.454
269.205
268.982
268.786
268.615
268.47
268.352
268.26
268.193
268.153
268.139
398.7
396.101
393.507
390.919
388.34
385.773
383.22
380.683
378.165
375.667
373.191
370.738
368.311
365.909
363.535
361.189
358.871
356.583
354.325
352.097
349.9
347.733
345.597
343.492
341.418
339.375
337.362
335.38
333.429
331.508
329.616
327.755
325.923
324.121
322.348
320.604
318.889
317.203
315.545
313.916
312.314
310.741
309.195
307.678
306.188
304.725
303.29
301.882
300.501
299.147
297.821
296.521
295.249
294.003
292.784
291.592
290.426
289.288
288.176
287.091
286.032
285
283.995
283.016
282.064
281.139
280.24
279.368
278.523
277.704
276.912
276.147
275.408
274.696
274.011
273.352
272.72
272.115
271.537
270.985
270.46
269.962
269.491
269.047
268.629
268.239
267.875
267.538
267.228
266.944
266.688
266.458
266.256
266.08
265.931
265.809
265.714
265.645
265.604
265.589
398.693
396.081
393.472
390.87
388.276
385.694
383.124
380.569
378.032
375.514
373.016
370.54
368.088
365.661
363.259
360.885
358.537
356.218
353.928
351.667
349.435
347.233
345.061
342.919
340.807
338.726
336.674
334.653
332.662
330.701
328.769
326.867
324.995
323.152
321.339
319.554
317.799
316.072
314.374
312.705
311.064
309.451
307.867
306.311
304.782
303.282
301.809
300.365
298.947
297.558
296.196
294.861
293.555
292.275
291.023
289.798
288.601
287.431
286.288
285.173
284.085
283.024
281.991
280.985
280.006
279.055
278.131
277.235
276.365
275.523
274.709
273.922
273.162
272.43
271.725
271.048
270.398
269.775
269.18
268.613
268.073
267.561
267.076
266.619
266.189
265.787
265.413
265.066
264.747
264.456
264.192
263.956
263.747
263.566
263.413
263.288
263.19
263.119
263.077
263.062
398.685
396.058
393.434
390.816
388.206
385.606
383.018
380.445
377.887
375.348
372.828
370.329
367.852
365.399
362.97
360.567
358.19
355.84
353.518
351.223
348.958
346.721
344.514
342.336
340.187
338.068
335.978
333.919
331.889
329.888
327.917
325.976
324.064
322.182
320.328
318.504
316.709
314.943
313.206
311.497
309.818
308.166
306.544
304.949
303.384
301.846
300.337
298.856
297.403
295.978
294.581
293.212
291.872
290.559
289.274
288.018
286.789
285.588
284.415
283.27
282.153
281.064
280.004
278.971
277.966
276.989
276.04
275.119
274.226
273.361
272.524
271.716
270.935
270.183
269.459
268.763
268.095
267.456
266.845
266.262
265.707
265.181
264.682
264.213
263.771
263.358
262.973
262.617
262.289
261.99
261.718
261.476
261.261
261.075
260.918
260.789
260.688
260.616
260.572
260.557
398.677
396.033
393.392
390.757
388.129
385.511
382.904
380.311
377.732
375.171
372.628
370.105
367.603
365.124
362.668
360.236
357.829
355.449
353.095
350.769
348.47
346.199
343.957
341.743
339.558
337.402
335.276
333.178
331.11
329.071
327.062
325.082
323.131
321.21
319.318
317.455
315.621
313.816
312.04
310.293
308.575
306.886
305.226
303.595
301.992
300.418
298.873
297.356
295.868
294.408
292.977
291.575
290.201
288.855
287.539
286.25
284.991
283.76
282.557
281.383
280.237
279.121
278.032
276.973
275.942
274.94
273.966
273.021
272.105
271.218
270.359
269.529
268.729
267.956
267.213
266.499
265.814
265.157
264.53
263.932
263.362
262.822
262.311
261.828
261.375
260.951
260.556
260.19
259.854
259.546
259.268
259.019
258.799
258.608
258.446
258.314
258.21
258.136
258.091
258.075
398.668
396.007
393.348
390.694
388.047
385.409
382.782
380.168
377.568
374.985
372.418
369.871
367.344
364.838
362.354
359.894
357.458
355.048
352.663
350.304
347.972
345.668
343.391
341.142
338.922
336.73
334.567
332.432
330.327
328.251
326.204
324.186
322.197
320.237
318.307
316.406
314.534
312.691
310.878
309.093
307.338
305.612
303.915
302.247
300.608
298.998
297.417
295.865
294.343
292.849
291.384
289.949
288.542
287.165
285.816
284.497
283.207
281.946
280.714
279.511
278.338
277.193
276.078
274.992
273.936
272.909
271.911
270.942
270.003
269.094
268.214
267.363
266.542
265.75
264.989
264.256
263.554
262.881
262.237
261.624
261.04
260.486
259.961
259.467
259.002
258.567
258.162
257.787
257.442
257.126
256.841
256.585
256.359
256.164
255.998
255.862
255.756
255.68
255.634
255.618
398.659
395.978
393.3
390.627
387.96
385.302
382.654
380.019
377.397
374.79
372.199
369.627
367.074
364.542
362.031
359.542
357.077
354.636
352.22
349.83
347.466
345.128
342.818
340.535
338.279
336.052
333.853
331.682
329.541
327.428
325.343
323.288
321.262
319.265
317.297
315.359
313.45
311.57
309.719
307.898
306.106
304.343
302.61
300.906
299.232
297.587
295.971
294.385
292.828
291.301
289.803
288.335
286.897
285.487
284.108
282.758
281.438
280.147
278.887
277.656
276.454
275.283
274.142
273.03
271.948
270.896
269.875
268.883
267.921
266.99
266.089
265.217
264.376
263.566
262.785
262.035
261.315
260.626
259.967
259.338
258.74
258.172
257.635
257.128
256.652
256.207
255.792
255.407
255.053
254.73
254.438
254.176
253.945
253.744
253.574
253.435
253.326
253.248
253.201
253.184
398.649
395.948
393.25
390.556
387.869
385.19
382.52
379.863
377.218
374.587
371.973
369.375
366.796
364.237
361.699
359.182
356.688
354.217
351.77
349.349
346.952
344.582
342.238
339.921
337.632
335.37
333.135
330.929
328.752
326.602
324.482
322.39
320.328
318.294
316.29
314.315
312.369
310.452
308.565
306.708
304.88
303.082
301.313
299.574
297.865
296.185
294.535
292.915
291.325
289.765
288.235
286.735
285.264
283.824
282.414
281.034
279.685
278.365
277.076
275.817
274.589
273.391
272.223
271.086
269.979
268.904
267.858
266.844
265.86
264.907
263.984
263.093
262.232
261.403
260.604
259.836
259.099
258.394
257.719
257.076
256.464
255.882
255.333
254.814
254.327
253.87
253.446
253.052
252.69
252.359
252.06
251.791
251.555
251.349
251.175
251.033
250.922
250.842
250.794
250.776
398.638
395.917
393.198
390.483
387.774
385.073
382.382
379.701
377.033
374.378
371.739
369.116
366.511
363.925
361.359
358.814
356.291