/*--------------------------------*- C++ -*----------------------------------*\
  =========                 |
  \\      /  F ield         | OpenFOAM: The Open Source CFD Toolbox
   \\    /   O peration     | Website:  https://openfoam.org
    \\  /    A nd           | Version:  10
     \\/     M anipulation  |
\*---------------------------------------------------------------------------*/
FoamFile
{
    format      ascii;
    class       volScalarField;
    location    "21";
    object      T;
}
// * * * * * * * * * * * * * * * * * * * * * * * * * * * * * * * * * * * * * //

dimensions      [0 0 -1 0 0 0 0];

internalField   nonuniform List<scalar> 
100
(
1.86995
5.59249
9.26539
12.8561
16.3326
19.6642
22.8212
25.7757
28.5014
30.9741
33.1719
35.0753
36.6673
37.9339
38.8637
39.4486
39.6834
39.5659
39.0973
38.2816
37.1261
35.6411
33.8398
31.7381
29.3547
26.7107
23.8296
20.7371
17.4604
14.0288
10.4727
6.82365
3.11401
-0.623268
-4.35501
-8.0481
-11.6697
-15.1878
-18.5711
-21.7895
-24.8145
-27.6193
-30.1789
-32.4706
-34.4741
-36.1716
-37.5481
-38.5913
-39.2919
-39.6438
-39.6438
-39.2919
-38.5912
-37.5481
-36.1716
-34.4741
-32.4706
-30.1788
-27.6192
-24.8145
-21.7894
-18.571
-15.1878
-11.6697
-8.04804
-4.35495
-0.623204
3.11408
6.82372
10.4728
14.0289
17.4605
20.7371
23.8297
26.7108
29.3547
31.7381
33.8399
35.6412
37.1262
38.2817
39.0973
39.566
39.6835
39.4487
38.8638
37.9339
36.6673
35.0753
33.1719
30.9741
28.5014
25.7757
22.8212
19.6642
16.3326
12.8561
9.2654
5.5925
1.86996
)
;

boundaryField
{
    xmin
    {
        type            fixedValue;
        value           uniform 0;
    }
    xmax
    {
        type            fixedValue;
        value           uniform 0;
    }
    frontAndBack
    {
        type            empty;
    }
}


// ************************************************************************* //
