/*--------------------------------*- C++ -*----------------------------------*\
  =========                 |
  \\      /  F ield         | OpenFOAM: The Open Source CFD Toolbox
   \\    /   O peration     | Website:  https://openfoam.org
    \\  /    A nd           | Version:  10
     \\/     M anipulation  |
\*---------------------------------------------------------------------------*/
FoamFile
{
    format      ascii;
    class       volScalarField;
    location    "7";
    object      T;
}
// * * * * * * * * * * * * * * * * * * * * * * * * * * * * * * * * * * * * * //

dimensions      [0 0 -1 0 0 0 0];

internalField   nonuniform List<scalar> 
100
(
7.20075
21.5354
35.6788
49.5056
62.893
75.7221
87.8791
99.2561
109.752
119.274
127.737
135.067
141.197
146.074
149.655
151.907
152.811
152.359
150.554
147.413
142.964
137.246
130.309
122.216
113.038
102.856
91.7621
79.8534
67.2358
54.0215
40.3276
26.2758
11.9908
-2.40065
-16.7708
-30.9921
-44.9383
-58.4856
-71.5138
-83.9072
-95.5559
-106.356
-116.213
-125.038
-132.753
-139.29
-144.59
-148.607
-151.305
-152.66
-152.66
-151.305
-148.607
-144.59
-139.29
-132.753
-125.038
-116.213
-106.356
-95.5558
-83.9071
-71.5136
-58.4854
-44.9381
-30.9919
-16.7706
-2.40049
11.991
26.276
40.3278
54.0216
67.236
79.8535
91.7623
102.857
113.038
122.216
130.309
137.246
142.964
147.414
150.554
152.359
152.811
151.907
149.655
146.074
141.197
135.067
127.737
119.274
109.752
99.2561
87.8791
75.7221
62.893
49.5056
35.6788
21.5354
7.20075
)
;

boundaryField
{
    xmin
    {
        type            fixedValue;
        value           uniform 0;
    }
    xmax
    {
        type            fixedValue;
        value           uniform 0;
    }
    frontAndBack
    {
        type            empty;
    }
}


// ************************************************************************* //
