/*--------------------------------*- C++ -*----------------------------------*\
| =========                 |                                                 |
| \\      /  F ield         | OpenFOAM: The Open Source CFD Toolbox           |
|  \\    /   O peration     | Version:  2406                                  |
|   \\  /    A nd           | Website:  www.openfoam.com                      |
|    \\/     M anipulation  |                                                 |
\*---------------------------------------------------------------------------*/
FoamFile
{
    version     2.0;
    format      ascii;
    arch        "LSB;label=32;scalar=64";
    class       volScalarField;
    location    "1.75";
    object      p;
}
// * * * * * * * * * * * * * * * * * * * * * * * * * * * * * * * * * * * * * //

dimensions      [0 2 -2 0 0 0 0];

internalField   nonuniform List<scalar> 
34560
(
-25.679586
-25.68157
-25.685875
-25.694271
-25.707258
-25.725096
-25.746623
-25.770428
-25.794987
-25.683641
-25.686662
-25.692732
-25.703969
-25.720722
-25.742803
-25.76856
-25.796138
-25.824174
-25.686689
-25.69102
-25.699232
-25.713661
-25.734324
-25.760338
-25.789503
-25.819505
-25.849031
-25.687649
-25.693341
-25.703839
-25.721704
-25.746495
-25.776438
-25.808772
-25.840744
-25.871214
-25.686949
-25.694102
-25.706993
-25.728375
-25.757302
-25.79106
-25.826404
-25.860192
-25.891278
-25.685328
-25.693888
-25.709102
-25.733893
-25.766771
-25.804075
-25.842155
-25.87756
-25.909057
-25.683278
-25.693119
-25.710481
-25.738424
-25.774914
-25.815393
-25.855865
-25.892644
-25.924422
-25.680921
-25.691925
-25.711222
-25.741974
-25.781638
-25.824867
-25.86738
-25.905298
-25.937269
-25.67849
-25.690498
-25.711453
-25.744582
-25.786904
-25.832419
-25.876613
-25.915437
-25.947543
-25.676403
-25.689195
-25.71145
-25.746425
-25.790793
-25.838063
-25.883541
-25.923038
-25.955231
-25.675037
-25.68835
-25.71148
-25.747691
-25.793411
-25.841848
-25.888179
-25.928112
-25.960353
-25.674089
-25.687707
-25.711323
-25.74819
-25.794617
-25.843663
-25.890439
-25.930601
-25.962877
-25.674089
-25.687707
-25.711323
-25.74819
-25.794617
-25.843663
-25.890439
-25.930602
-25.962877
-25.675037
-25.68835
-25.71148
-25.747691
-25.793411
-25.841849
-25.888179
-25.928112
-25.960353
-25.676403
-25.689195
-25.71145
-25.746426
-25.790794
-25.838064
-25.883542
-25.923039
-25.955231
-25.678492
-25.690499
-25.711454
-25.744584
-25.786906
-25.83242
-25.876614
-25.915439
-25.947544
-25.680922
-25.691926
-25.711223
-25.741975
-25.78164
-25.824869
-25.867382
-25.905299
-25.93727
-25.68328
-25.693121
-25.710483
-25.738427
-25.774917
-25.815396
-25.855868
-25.892646
-25.924422
-25.685332
-25.693891
-25.709106
-25.733897
-25.766775
-25.804079
-25.842158
-25.877562
-25.909058
-25.686954
-25.694107
-25.706998
-25.72838
-25.757307
-25.791065
-25.826408
-25.860195
-25.891279
-25.687655
-25.693348
-25.703846
-25.721711
-25.746502
-25.776445
-25.808778
-25.840747
-25.871215
-25.686698
-25.691029
-25.699241
-25.713669
-25.734332
-25.760346
-25.78951
-25.819509
-25.849034
-25.68365
-25.686672
-25.692742
-25.703979
-25.720731
-25.742812
-25.768567
-25.796143
-25.824179
-25.679596
-25.681581
-25.685886
-25.694281
-25.707268
-25.725104
-25.74663
-25.770436
-25.794994
-24.47897
-24.477116
-24.475024
-24.472366
-24.468148
-24.461007
-24.450351
-24.437052
-24.422963
-24.496057
-24.493631
-24.490586
-24.486269
-24.479355
-24.468444
-24.453455
-24.436522
-24.420455
-24.515105
-24.512118
-24.508283
-24.502562
-24.493278
-24.478913
-24.459803
-24.439277
-24.420811
-24.534098
-24.530514
-24.525858
-24.518758
-24.507253
-24.489764
-24.466907
-24.442954
-24.421827
-24.552692
-24.548558
-24.543093
-24.53457
-24.520825
-24.500368
-24.474023
-24.44683
-24.423181
-24.570077
-24.565506
-24.559342
-24.549473
-24.533616
-24.510475
-24.481006
-24.450826
-24.424843
-24.585906
-24.580939
-24.574127
-24.562993
-24.545181
-24.519636
-24.487503
-24.454755
-24.426643
-24.599762
-24.594474
-24.587109
-24.574856
-24.555303
-24.527637
-24.493242
-24.458359
-24.428403
-24.611273
-24.60574
-24.597933
-24.584759
-24.56375
-24.534294
-24.497988
-24.461402
-24.43
-24.620134
-24.614431
-24.606299
-24.592427
-24.570295
-24.539438
-24.501637
-24.46374
-24.431262
-24.626171
-24.620345
-24.611982
-24.59763
-24.574729
-24.54291
-24.504091
-24.465313
-24.43211
-24.629232
-24.623351
-24.614879
-24.60029
-24.577001
-24.544689
-24.50535
-24.46612
-24.432542
-24.629232
-24.623351
-24.614879
-24.60029
-24.577001
-24.54469
-24.50535
-24.46612
-24.432542
-24.626171
-24.620345
-24.611982
-24.59763
-24.574729
-24.54291
-24.504091
-24.465313
-24.43211
-24.620134
-24.614431
-24.606299
-24.592428
-24.570295
-24.539439
-24.501638
-24.463741
-24.431262
-24.611274
-24.605741
-24.597934
-24.584761
-24.563752
-24.534296
-24.497989
-24.461403
-24.43
-24.599764
-24.594476
-24.587111
-24.574858
-24.555305
-24.527639
-24.493243
-24.458361
-24.428404
-24.585908
-24.580942
-24.57413
-24.562995
-24.545183
-24.519639
-24.487505
-24.454756
-24.426644
-24.570081
-24.565509
-24.559346
-24.549477
-24.533619
-24.510478
-24.481009
-24.450828
-24.424844
-24.552696
-24.548563
-24.543098
-24.534574
-24.52083
-24.500373
-24.474028
-24.446833
-24.423182
-24.534104
-24.53052
-24.525864
-24.518764
-24.507259
-24.48977
-24.466913
-24.442958
-24.421829
-24.515112
-24.512125
-24.508291
-24.50257
-24.493286
-24.47892
-24.45981
-24.439283
-24.420814
-24.496066
-24.49364
-24.490595
-24.486278
-24.479364
-24.468452
-24.453464
-24.436529
-24.42046
-24.478979
-24.477126
-24.475034
-24.472376
-24.468157
-24.461016
-24.45036
-24.437062
-24.422971
-23.291224
-23.290708
-23.290167
-23.289855
-23.290104
-23.291155
-23.292205
-23.291445
-23.288728
-23.294414
-23.293785
-23.293039
-23.29242
-23.29229
-23.292966
-23.29365
-23.292557
-23.289707
-23.297624
-23.296891
-23.296003
-23.295238
-23.295033
-23.295768
-23.296548
-23.295519
-23.292716
-23.300262
-23.299411
-23.29838
-23.297509
-23.297343
-23.298258
-23.299203
-23.298218
-23.29527
-23.30264
-23.301671
-23.300496
-23.299515
-23.299379
-23.30042
-23.301418
-23.30042
-23.297356
-23.304947
-23.303852
-23.302544
-23.301494
-23.301385
-23.302448
-23.303371
-23.302319
-23.299189
-23.307078
-23.305862
-23.304436
-23.303354
-23.303308
-23.304387
-23.305137
-23.303952
-23.300817
-23.308995
-23.307671
-23.306146
-23.305048
-23.305089
-23.306204
-23.306764
-23.305386
-23.302243
-23.310619
-23.309206
-23.307601
-23.306498
-23.306634
-23.307812
-23.308251
-23.306665
-23.303425
-23.311891
-23.310408
-23.308743
-23.307641
-23.307866
-23.309107
-23.309474
-23.307735
-23.304372
-23.312761
-23.311227
-23.309518
-23.308424
-23.308717
-23.310006
-23.310328
-23.308489
-23.305038
-23.313194
-23.311637
-23.309909
-23.308818
-23.309149
-23.310463
-23.310764
-23.308876
-23.305377
-23.313194
-23.311637
-23.309909
-23.308819
-23.309149
-23.310463
-23.310764
-23.308876
-23.305377
-23.312762
-23.311227
-23.309519
-23.308424
-23.308718
-23.310006
-23.310328
-23.30849
-23.305038
-23.311892
-23.310409
-23.308744
-23.307642
-23.307867
-23.309108
-23.309475
-23.307736
-23.304372
-23.310621
-23.309208
-23.307603
-23.306499
-23.306636
-23.307813
-23.308252
-23.306666
-23.303425
-23.308996
-23.307673
-23.306148
-23.30505
-23.305091
-23.306206
-23.306765
-23.305387
-23.302243
-23.30708
-23.305864
-23.304439
-23.303356
-23.303311
-23.304389
-23.30514
-23.303954
-23.300817
-23.30495
-23.303856
-23.302548
-23.301497
-23.301389
-23.302451
-23.303374
-23.302322
-23.29919
-23.302644
-23.301675
-23.300501
-23.29952
-23.299384
-23.300425
-23.301422
-23.300423
-23.297357
-23.300268
-23.299416
-23.298386
-23.297515
-23.297349
-23.298264
-23.299208
-23.298222
-23.295273
-23.297631
-23.296898
-23.29601
-23.295245
-23.295041
-23.295776
-23.296555
-23.295525
-23.292719
-23.294423
-23.293794
-23.293047
-23.292429
-23.292299
-23.292975
-23.293658
-23.292564
-23.289712
-23.291233
-23.290718
-23.290177
-23.289864
-23.290114
-23.291165
-23.292215
-23.291454
-23.288734
-22.223144
-22.223259
-22.223424
-22.223596
-22.22364
-22.223286
-22.222509
-22.221809
-22.220795
-22.227638
-22.227693
-22.227738
-22.227686
-22.227334
-22.226301
-22.224541
-22.222671
-22.221014
-22.232468
-22.232471
-22.232435
-22.232238
-22.23162
-22.230129
-22.227727
-22.225121
-22.222954
-22.237025
-22.236967
-22.236857
-22.236546
-22.235689
-22.23384
-22.230977
-22.227846
-22.225183
-22.241256
-22.241147
-22.240975
-22.240558
-22.239455
-22.23721
-22.23393
-22.230358
-22.227275
-22.245009
-22.244877
-22.244664
-22.244135
-22.242812
-22.240214
-22.23653
-22.23255
-22.229068
-22.248138
-22.248001
-22.247769
-22.247159
-22.24563
-22.242722
-22.238684
-22.234349
-22.230512
-22.250693
-22.250564
-22.250316
-22.249632
-22.247925
-22.244747
-22.240405
-22.235779
-22.231645
-22.252671
-22.252555
-22.252307
-22.251572
-22.249721
-22.246316
-22.241728
-22.236871
-22.232499
-22.254121
-22.254017
-22.25377
-22.252998
-22.251035
-22.247454
-22.242678
-22.23765
-22.233103
-22.255076
-22.25498
-22.254733
-22.253932
-22.251888
-22.248185
-22.243283
-22.238145
-22.233487
-22.255539
-22.255449
-22.255204
-22.254389
-22.252305
-22.24854
-22.243575
-22.238384
-22.233673
-22.255539
-22.255449
-22.255204
-22.25439
-22.252305
-22.24854
-22.243576
-22.238384
-22.233673
-22.255076
-22.25498
-22.254734
-22.253933
-22.251888
-22.248185
-22.243284
-22.238145
-22.233487
-22.254122
-22.254017
-22.253771
-22.252999
-22.251036
-22.247455
-22.242679
-22.237651
-22.233103
-22.252672
-22.252556
-22.252309
-22.251573
-22.249722
-22.246318
-22.241729
-22.236871
-22.232499
-22.250695
-22.250565
-22.250318
-22.249634
-22.247928
-22.244749
-22.240407
-22.235781
-22.231646
-22.24814
-22.248004
-22.247772
-22.247162
-22.245633
-22.242725
-22.238687
-22.234351
-22.230513
-22.245012
-22.24488
-22.244668
-22.244139
-22.242817
-22.240218
-22.236533
-22.232553
-22.229069
-22.24126
-22.241151
-22.24098
-22.240563
-22.23946
-22.237215
-22.233935
-22.230361
-22.227276
-22.237031
-22.236973
-22.236863
-22.236553
-22.235696
-22.233846
-22.230983
-22.22785
-22.225185
-22.232475
-22.232478
-22.232443
-22.232246
-22.231628
-22.230137
-22.227734
-22.225127
-22.222957
-22.227646
-22.227702
-22.227747
-22.227695
-22.227343
-22.22631
-22.22455
-22.222678
-22.22102
-22.223153
-22.223268
-22.223434
-22.223605
-22.223649
-22.223295
-22.222518
-22.221818
-22.220802
-21.092265
-21.092264
-21.092291
-21.092379
-21.092564
-21.092876
-21.093314
-21.093764
-21.093877
-21.094219
-21.09418
-21.094143
-21.09413
-21.094163
-21.094283
-21.094475
-21.094613
-21.094539
-21.096257
-21.096188
-21.096116
-21.096066
-21.096052
-21.096104
-21.096178
-21.096172
-21.096035
-21.097924
-21.097837
-21.097744
-21.097678
-21.097668
-21.097711
-21.097738
-21.097623
-21.097343
-21.099178
-21.099091
-21.098986
-21.09889
-21.09886
-21.098905
-21.098906
-21.098709
-21.098308
-21.100175
-21.100088
-21.099975
-21.099872
-21.099816
-21.099838
-21.099817
-21.09956
-21.09907
-21.10101
-21.100921
-21.100798
-21.100679
-21.100619
-21.100624
-21.100581
-21.10028
-21.09971
-21.101691
-21.101598
-21.101476
-21.101356
-21.101293
-21.101293
-21.101233
-21.100893
-21.100242
-21.102239
-21.102141
-21.102012
-21.101891
-21.101832
-21.101837
-21.101768
-21.101393
-21.100671
-21.102654
-21.102552
-21.102418
-21.102295
-21.10224
-21.102251
-21.10218
-21.101779
-21.101001
-21.102936
-21.102831
-21.102693
-21.102567
-21.102516
-21.102534
-21.102462
-21.102045
-21.101228
-21.103072
-21.102965
-21.102826
-21.102701
-21.102654
-21.102677
-21.102606
-21.102182
-21.101345
-21.103072
-21.102965
-21.102826
-21.102701
-21.102654
-21.102677
-21.102606
-21.102182
-21.101345
-21.102937
-21.102831
-21.102693
-21.102568
-21.102517
-21.102535
-21.102463
-21.102045
-21.101227
-21.102654
-21.102553
-21.102419
-21.102296
-21.102241
-21.102252
-21.102181
-21.10178
-21.101001
-21.10224
-21.102142
-21.102013
-21.101892
-21.101834
-21.101838
-21.10177
-21.101394
-21.100671
-21.101692
-21.1016
-21.101477
-21.101358
-21.101296
-21.101296
-21.101235
-21.100894
-21.100242
-21.101012
-21.100923
-21.1008
-21.100682
-21.100622
-21.100627
-21.100584
-21.100282
-21.09971
-21.100178
-21.100092
-21.099979
-21.099876
-21.099821
-21.099842
-21.099821
-21.099562
-21.099071
-21.099182
-21.099095
-21.098991
-21.098895
-21.098865
-21.098911
-21.098911
-21.098712
-21.09831
-21.09793
-21.097843
-21.09775
-21.097685
-21.097675
-21.097718
-21.097744
-21.097627
-21.097346
-21.096265
-21.096196
-21.096124
-21.096074
-21.09606
-21.096112
-21.096185
-21.096178
-21.09604
-21.094228
-21.094189
-21.094152
-21.094139
-21.094172
-21.094292
-21.094483
-21.094622
-21.094546
-21.092275
-21.092273
-21.092301
-21.092389
-21.092574
-21.092886
-21.093324
-21.093775
-21.093888
-20.01224
-20.012285
-20.012344
-20.012407
-20.012466
-20.012502
-20.012499
-20.012449
-20.012216
-20.013005
-20.013045
-20.013084
-20.013099
-20.013061
-20.012938
-20.012728
-20.012457
-20.012097
-20.013895
-20.013931
-20.013953
-20.013925
-20.013807
-20.013574
-20.013258
-20.012906
-20.01255
-20.014822
-20.014847
-20.014851
-20.01479
-20.014618
-20.014321
-20.01394
-20.013526
-20.013131
-20.015806
-20.015817
-20.015803
-20.015719
-20.01552
-20.015185
-20.014735
-20.014238
-20.013772
-20.016796
-20.016793
-20.016762
-20.016666
-20.016461
-20.016108
-20.015604
-20.015024
-20.014476
-20.017733
-20.017716
-20.017672
-20.017569
-20.017362
-20.017001
-20.016462
-20.015815
-20.015188
-20.018574
-20.018547
-20.018494
-20.018386
-20.018178
-20.01781
-20.017247
-20.016547
-20.015847
-20.01928
-20.019247
-20.019188
-20.019076
-20.018868
-20.018499
-20.017919
-20.017176
-20.016412
-20.01983
-20.019792
-20.019728
-20.019615
-20.019409
-20.01904
-20.018448
-20.017673
-20.016858
-20.020207
-20.020166
-20.0201
-20.019985
-20.019781
-20.019413
-20.018813
-20.018017
-20.017166
-20.020397
-20.020354
-20.020287
-20.020172
-20.01997
-20.019603
-20.019
-20.018193
-20.017324
-20.020397
-20.020354
-20.020287
-20.020172
-20.01997
-20.019603
-20.019
-20.018193
-20.017324
-20.020207
-20.020166
-20.0201
-20.019985
-20.019782
-20.019413
-20.018814
-20.018017
-20.017166
-20.01983
-20.019792
-20.019729
-20.019615
-20.01941
-20.019041
-20.018448
-20.017673
-20.016857
-20.01928
-20.019247
-20.019189
-20.019077
-20.018869
-20.0185
-20.017919
-20.017176
-20.016411
-20.018574
-20.018548
-20.018496
-20.018388
-20.01818
-20.017812
-20.017249
-20.016548
-20.015845
-20.017734
-20.017718
-20.017675
-20.017572
-20.017365
-20.017003
-20.016464
-20.015816
-20.015187
-20.016799
-20.016795
-20.016766
-20.01667
-20.016465
-20.016112
-20.015607
-20.015026
-20.014476
-20.01581
-20.015821
-20.015808
-20.015725
-20.015525
-20.01519
-20.014739
-20.014241
-20.013773
-20.014828
-20.014853
-20.014858
-20.014798
-20.014625
-20.014328
-20.013946
-20.01353
-20.013133
-20.013903
-20.013939
-20.013962
-20.013934
-20.013816
-20.013583
-20.013266
-20.012912
-20.012554
-20.013015
-20.013055
-20.013095
-20.01311
-20.013072
-20.012948
-20.012738
-20.012466
-20.012102
-20.012252
-20.012297
-20.012355
-20.012419
-20.012478
-20.012514
-20.01251
-20.01246
-20.012225
-18.922557
-18.922563
-18.922578
-18.922608
-18.922665
-18.922761
-18.922896
-18.923051
-18.923123
-18.923149
-18.923147
-18.923146
-18.923151
-18.923173
-18.923218
-18.923277
-18.923323
-18.923309
-18.923739
-18.923731
-18.923723
-18.92372
-18.923729
-18.923752
-18.923769
-18.923761
-18.923725
-18.924257
-18.924245
-18.924233
-18.924227
-18.924234
-18.924242
-18.924228
-18.924181
-18.924111
-18.92469
-18.924677
-18.924664
-18.924656
-18.924655
-18.924642
-18.924597
-18.924515
-18.924409
-18.925036
-18.925023
-18.92501
-18.924999
-18.924984
-18.924949
-18.924877
-18.924762
-18.924618
-18.925295
-18.925284
-18.925269
-18.925251
-18.925222
-18.925169
-18.925072
-18.924926
-18.924748
-18.92549
-18.925479
-18.925462
-18.925437
-18.925396
-18.925325
-18.925204
-18.925029
-18.92482
-18.925637
-18.925626
-18.925607
-18.925576
-18.925524
-18.925436
-18.925293
-18.925091
-18.924855
-18.925746
-18.925734
-18.925712
-18.925677
-18.925615
-18.925513
-18.925351
-18.925128
-18.924871
-18.925818
-18.925805
-18.925782
-18.925742
-18.925674
-18.925562
-18.925387
-18.925149
-18.924877
-18.925852
-18.925838
-18.925815
-18.925774
-18.925702
-18.925585
-18.925404
-18.925159
-18.92488
-18.925852
-18.925838
-18.925815
-18.925774
-18.925702
-18.925585
-18.925404
-18.925159
-18.924879
-18.925817
-18.925804
-18.925782
-18.925742
-18.925674
-18.925562
-18.925387
-18.925149
-18.924876
-18.925746
-18.925733
-18.925712
-18.925677
-18.925615
-18.925514
-18.925352
-18.925128
-18.924869
-18.925637
-18.925626
-18.925607
-18.925576
-18.925525
-18.925437
-18.925293
-18.92509
-18.924853
-18.92549
-18.925479
-18.925463
-18.925438
-18.925397
-18.925326
-18.925205
-18.925029
-18.924818
-18.925296
-18.925285
-18.925271
-18.925253
-18.925225
-18.925171
-18.925074
-18.924926
-18.924746
-18.925038
-18.925026
-18.925013
-18.925003
-18.924988
-18.924952
-18.92488
-18.924763
-18.924616
-18.924695
-18.924682
-18.924669
-18.924662
-18.92466
-18.924647
-18.924601
-18.924517
-18.924407
-18.924263
-18.924252
-18.92424
-18.924235
-18.924242
-18.92425
-18.924234
-18.924185
-18.924111
-18.923748
-18.923741
-18.923733
-18.92373
-18.923739
-18.923762
-18.923777
-18.923766
-18.923727
-18.923161
-18.923158
-18.923157
-18.923163
-18.923185
-18.92323
-18.923288
-18.923331
-18.923313
-18.92257
-18.922576
-18.922591
-18.922621
-18.922678
-18.922774
-18.922909
-18.923062
-18.923131
-17.842176
-17.842184
-17.842196
-17.842211
-17.842229
-17.842248
-17.84227
-17.842296
-17.842284
-17.842395
-17.8424
-17.842406
-17.842409
-17.842405
-17.84239
-17.842368
-17.842341
-17.842296
-17.842633
-17.842637
-17.84264
-17.842634
-17.842615
-17.842581
-17.842538
-17.842494
-17.842453
-17.842869
-17.842871
-17.842869
-17.842857
-17.84283
-17.842788
-17.842736
-17.842683
-17.842636
-17.843111
-17.84311
-17.843104
-17.843087
-17.843054
-17.843006
-17.842946
-17.842881
-17.842823
-17.84336
-17.843357
-17.843348
-17.843328
-17.843293
-17.843241
-17.843172
-17.843095
-17.843023
-17.843604
-17.843598
-17.843587
-17.843566
-17.843532
-17.843478
-17.843404
-17.843316
-17.843228
-17.84383
-17.843822
-17.843809
-17.843789
-17.843757
-17.843704
-17.843627
-17.84353
-17.843427
-17.844025
-17.844015
-17.844002
-17.843983
-17.843953
-17.843903
-17.843824
-17.84372
-17.843603
-17.844179
-17.844169
-17.844155
-17.844137
-17.844109
-17.844062
-17.843984
-17.843874
-17.843745
-17.844286
-17.844275
-17.844261
-17.844244
-17.844219
-17.844174
-17.844096
-17.843982
-17.843845
-17.844341
-17.844329
-17.844315
-17.844298
-17.844274
-17.844231
-17.844153
-17.844037
-17.843896
-17.84434
-17.844329
-17.844315
-17.844298
-17.844274
-17.844231
-17.844153
-17.844037
-17.843896
-17.844286
-17.844275
-17.844261
-17.844244
-17.844219
-17.844174
-17.844096
-17.843981
-17.843844
-17.844178
-17.844168
-17.844155
-17.844137
-17.84411
-17.844062
-17.843984
-17.843873
-17.843743
-17.844024
-17.844015
-17.844002
-17.843983
-17.843953
-17.843903
-17.843824
-17.843719
-17.843601
-17.843829
-17.843822
-17.843809
-17.84379
-17.843758
-17.843705
-17.843627
-17.843529
-17.843424
-17.843605
-17.843599
-17.843588
-17.843568
-17.843534
-17.84348
-17.843405
-17.843316
-17.843226
-17.843362
-17.843359
-17.84335
-17.843331
-17.843296
-17.843244
-17.843174
-17.843095
-17.84302
-17.843114
-17.843113
-17.843108
-17.843091
-17.843059
-17.843011
-17.842949
-17.842883
-17.842822
-17.842875
-17.842877
-17.842876
-17.842864
-17.842837
-17.842794
-17.842741
-17.842685
-17.842636
-17.842641
-17.842646
-17.842648
-17.842643
-17.842625
-17.84259
-17.842546
-17.842499
-17.842455
-17.842405
-17.842411
-17.842417
-17.84242
-17.842416
-17.842401
-17.842378
-17.842349
-17.8423
-17.842188
-17.842196
-17.842208
-17.842223
-17.842241
-17.842261
-17.842282
-17.842307
-17.842291
-16.759217
-16.759218
-16.75922
-16.759226
-16.759239
-16.759262
-16.759295
-16.759334
-16.759353
-16.759362
-16.75936
-16.759359
-16.759359
-16.759363
-16.759374
-16.759388
-16.759399
-16.759396
-16.759503
-16.7595
-16.759497
-16.759495
-16.759497
-16.759501
-16.759503
-16.759501
-16.759494
-16.759628
-16.759624
-16.75962
-16.759618
-16.759618
-16.759618
-16.759613
-16.759602
-16.759588
-16.759733
-16.759729
-16.759725
-16.759723
-16.759721
-16.759716
-16.759705
-16.759686
-16.759663
-16.759819
-16.759815
-16.759811
-16.759808
-16.759803
-16.759794
-16.759777
-16.759751
-16.75972
-16.759885
-16.759882
-16.759878
-16.759873
-16.759866
-16.759853
-16.759831
-16.759797
-16.759758
-16.759936
-16.759933
-16.759928
-16.759922
-16.759913
-16.759897
-16.759869
-16.759828
-16.759781
-16.759975
-16.759971
-16.759966
-16.759959
-16.759947
-16.759928
-16.759894
-16.759847
-16.759793
-16.760002
-16.759999
-16.759993
-16.759985
-16.759972
-16.759949
-16.759911
-16.759858
-16.759799
-16.76002
-16.760017
-16.760011
-16.760002
-16.759987
-16.759962
-16.759921
-16.759865
-16.759801
-16.760029
-16.760025
-16.76002
-16.760011
-16.759995
-16.759969
-16.759926
-16.759867
-16.759802
-16.760029
-16.760025
-16.760019
-16.76001
-16.759995
-16.759968
-16.759926
-16.759867
-16.759801
-16.76002
-16.760016
-16.760011
-16.760002
-16.759987
-16.759962
-16.759921
-16.759864
-16.7598
-16.760001
-16.759998
-16.759993
-16.759985
-16.759972
-16.759949
-16.759911
-16.759857
-16.759797
-16.759974
-16.75997
-16.759966
-16.759959
-16.759948
-16.759928
-16.759894
-16.759846
-16.759791
-16.759936
-16.759933
-16.759928
-16.759923
-16.759914
-16.759897
-16.759869
-16.759827
-16.759778
-16.759885
-16.759882
-16.759879
-16.759874
-16.759868
-16.759855
-16.759831
-16.759796
-16.759755
-16.75982
-16.759817
-16.759813
-16.75981
-16.759806
-16.759797
-16.759779
-16.759751
-16.759717
-16.759736
-16.759732
-16.759729
-16.759727
-16.759725
-16.75972
-16.759708
-16.759687
-16.759661
-16.759632
-16.759629
-16.759626
-16.759624
-16.759624
-16.759624
-16.759618
-16.759605
-16.759587
-16.759509
-16.759507
-16.759504
-16.759503
-16.759504
-16.759508
-16.759509
-16.759505
-16.759495
-16.759371
-16.759369
-16.759368
-16.759368
-16.759373
-16.759383
-16.759396
-16.759406
-16.7594
-16.759227
-16.759227
-16.75923
-16.759236
-16.759249
-16.759272
-16.759305
-16.759343
-16.75936
-15.678247
-15.678249
-15.67825
-15.678253
-15.678256
-15.678261
-15.678267
-15.678276
-15.678277
-15.678302
-15.678303
-15.678303
-15.678303
-15.678301
-15.678298
-15.678296
-15.678293
-15.678286
-15.678358
-15.678358
-15.678358
-15.678356
-15.678352
-15.678345
-15.678338
-15.678331
-15.678326
-15.678414
-15.678414
-15.678413
-15.67841
-15.678404
-15.678396
-15.678386
-15.678377
-15.67837
-15.67847
-15.67847
-15.678468
-15.678464
-15.678457
-15.678447
-15.678435
-15.678423
-15.678413
-15.678526
-15.678524
-15.678522
-15.678518
-15.678511
-15.6785
-15.678485
-15.67847
-15.678456
-15.678577
-15.678576
-15.678574
-15.67857
-15.678562
-15.678551
-15.678534
-15.678515
-15.678497
-15.678624
-15.678623
-15.67862
-15.678616
-15.678609
-15.678597
-15.67858
-15.678558
-15.678537
-15.678664
-15.678662
-15.67866
-15.678656
-15.678649
-15.678638
-15.678619
-15.678596
-15.678571
-15.678695
-15.678693
-15.678691
-15.678687
-15.678681
-15.67867
-15.678651
-15.678626
-15.678599
-15.678716
-15.678715
-15.678712
-15.678709
-15.678703
-15.678692
-15.678673
-15.678648
-15.678619
-15.678727
-15.678725
-15.678723
-15.67872
-15.678714
-15.678703
-15.678685
-15.678658
-15.678628
-15.678727
-15.678725
-15.678723
-15.67872
-15.678714
-15.678703
-15.678685
-15.678658
-15.678628
-15.678716
-15.678714
-15.678712
-15.678709
-15.678703
-15.678692
-15.678673
-15.678647
-15.678617
-15.678694
-15.678692
-15.67869
-15.678687
-15.678681
-15.67867
-15.678651
-15.678625
-15.678597
-15.678663
-15.678661
-15.678659
-15.678656
-15.678649
-15.678638
-15.678619
-15.678595
-15.678568
-15.678623
-15.678622
-15.67862
-15.678616
-15.67861
-15.678598
-15.67858
-15.678557
-15.678533
-15.678577
-15.678576
-15.678574
-15.678571
-15.678564
-15.678552
-15.678535
-15.678514
-15.678494
-15.678526
-15.678526
-15.678524
-15.67852
-15.678513
-15.678502
-15.678487
-15.678469
-15.678452
-15.678473
-15.678472
-15.678471
-15.678467
-15.678461
-15.678451
-15.678438
-15.678424
-15.67841
-15.678418
-15.678418
-15.678417
-15.678415
-15.678409
-15.678401
-15.67839
-15.678379
-15.678369
-15.678364
-15.678365
-15.678365
-15.678363
-15.678359
-15.678352
-15.678344
-15.678335
-15.678326
-15.67831
-15.678311
-15.678311
-15.678311
-15.67831
-15.678307
-15.678303
-15.678298
-15.678289
-15.678256
-15.678257
-15.678259
-15.678262
-15.678266
-15.67827
-15.678276
-15.678284
-15.678283
-14.596775
-14.596775
-14.596775
-14.596776
-14.596779
-14.596784
-14.596791
-14.596799
-14.596803
-14.596805
-14.596805
-14.596805
-14.596805
-14.596805
-14.596807
-14.59681
-14.596813
-14.596813
-14.596835
-14.596835
-14.596834
-14.596834
-14.596833
-14.596834
-14.596834
-14.596834
-14.596834
-14.596863
-14.596862
-14.596861
-14.59686
-14.59686
-14.596859
-14.596858
-14.596857
-14.596855
-14.596887
-14.596886
-14.596885
-14.596884
-14.596883
-14.596882
-14.59688
-14.596877
-14.596874
-14.596908
-14.596907
-14.596906
-14.596905
-14.596904
-14.596902
-14.596899
-14.596894
-14.59689
-14.596925
-14.596924
-14.596923
-14.596922
-14.59692
-14.596918
-14.596914
-14.596909
-14.596903
-14.596939
-14.596938
-14.596937
-14.596935
-14.596934
-14.596931
-14.596927
-14.59692
-14.596913
-14.59695
-14.596949
-14.596948
-14.596946
-14.596944
-14.596942
-14.596937
-14.596929
-14.59692
-14.596958
-14.596957
-14.596956
-14.596954
-14.596952
-14.596949
-14.596944
-14.596935
-14.596925
-14.596963
-14.596963
-14.596961
-14.59696
-14.596958
-14.596954
-14.596949
-14.596939
-14.596928
-14.596966
-14.596965
-14.596964
-14.596962
-14.59696
-14.596957
-14.596951
-14.596941
-14.596929
-14.596966
-14.596965
-14.596964
-14.596962
-14.59696
-14.596957
-14.596951
-14.596941
-14.596929
-14.596963
-14.596962
-14.596961
-14.596959
-14.596958
-14.596954
-14.596948
-14.596939
-14.596927
-14.596957
-14.596956
-14.596955
-14.596954
-14.596952
-14.596949
-14.596944
-14.596934
-14.596923
-14.596949
-14.596948
-14.596947
-14.596946
-14.596945
-14.596942
-14.596936
-14.596928
-14.596917
-14.596938
-14.596938
-14.596937
-14.596936
-14.596934
-14.596932
-14.596927
-14.596919
-14.59691
-14.596925
-14.596924
-14.596923
-14.596923
-14.596921
-14.596919
-14.596915
-14.596908
-14.5969
-14.596909
-14.596908
-14.596907
-14.596907
-14.596906
-14.596904
-14.5969
-14.596894
-14.596887
-14.596889
-14.596889
-14.596888
-14.596888
-14.596887
-14.596886
-14.596882
-14.596877
-14.596872
-14.596867
-14.596866
-14.596866
-14.596865
-14.596865
-14.596864
-14.596862
-14.596858
-14.596854
-14.596841
-14.596841
-14.596841
-14.59684
-14.59684
-14.59684
-14.59684
-14.596838
-14.596835
-14.596813
-14.596813
-14.596813
-14.596813
-14.596814
-14.596815
-14.596817
-14.596819
-14.596816
-14.596783
-14.596784
-14.596784
-14.596785
-14.596788
-14.596793
-14.5968
-14.596807
-14.596809
-13.515573
-13.515573
-13.515574
-13.515574
-13.515575
-13.515576
-13.515578
-13.515581
-13.515582
-13.515586
-13.515586
-13.515586
-13.515585
-13.515585
-13.515585
-13.515585
-13.515586
-13.515587
-13.515598
-13.515598
-13.515598
-13.515597
-13.515597
-13.515596
-13.515595
-13.515595
-13.515596
-13.51561
-13.51561
-13.51561
-13.515609
-13.515608
-13.515607
-13.515606
-13.515605
-13.515605
-13.515622
-13.515622
-13.515621
-13.515621
-13.51562
-13.515618
-13.515616
-13.515615
-13.515613
-13.515633
-13.515633
-13.515632
-13.515631
-13.51563
-13.515628
-13.515626
-13.515623
-13.515621
-13.515642
-13.515642
-13.515642
-13.515641
-13.51564
-13.515638
-13.515634
-13.515631
-13.515628
-13.515651
-13.51565
-13.51565
-13.515649
-13.515648
-13.515646
-13.515642
-13.515638
-13.515633
-13.515657
-13.515657
-13.515657
-13.515656
-13.515655
-13.515652
-13.515648
-13.515643
-13.515638
-13.515663
-13.515662
-13.515662
-13.515662
-13.51566
-13.515658
-13.515653
-13.515648
-13.515642
-13.515666
-13.515666
-13.515666
-13.515665
-13.515664
-13.515661
-13.515657
-13.515651
-13.515644
-13.515668
-13.515668
-13.515667
-13.515667
-13.515666
-13.515663
-13.515658
-13.515652
-13.515645
-13.515668
-13.515668
-13.515667
-13.515667
-13.515666
-13.515663
-13.515658
-13.515652
-13.515645
-13.515666
-13.515666
-13.515665
-13.515665
-13.515664
-13.515661
-13.515656
-13.51565
-13.515643
-13.515662
-13.515662
-13.515662
-13.515661
-13.51566
-13.515658
-13.515653
-13.515647
-13.51564
-13.515657
-13.515657
-13.515657
-13.515656
-13.515655
-13.515653
-13.515648
-13.515642
-13.515636
-13.51565
-13.51565
-13.51565
-13.51565
-13.515649
-13.515646
-13.515642
-13.515637
-13.515631
-13.515642
-13.515643
-13.515642
-13.515642
-13.515641
-13.515639
-13.515635
-13.51563
-13.515626
-13.515634
-13.515634
-13.515634
-13.515633
-13.515632
-13.51563
-13.515627
-13.515623
-13.515619
-13.515624
-13.515624
-13.515624
-13.515624
-13.515623
-13.515621
-13.515619
-13.515615
-13.515612
-13.515614
-13.515614
-13.515614
-13.515614
-13.515613
-13.515612
-13.51561
-13.515607
-13.515604
-13.515604
-13.515604
-13.515604
-13.515603
-13.515603
-13.515602
-13.5156
-13.515598
-13.515597
-13.515593
-13.515593
-13.515593
-13.515593
-13.515592
-13.515592
-13.515592
-13.515592
-13.51559
-13.515581
-13.515581
-13.515581
-13.515582
-13.515583
-13.515584
-13.515586
-13.515588
-13.515588
-12.434336
-12.434336
-12.434336
-12.434336
-12.434337
-12.434338
-12.434339
-12.434341
-12.434342
-12.434342
-12.434342
-12.434342
-12.434342
-12.434342
-12.434342
-12.434343
-12.434344
-12.434344
-12.434348
-12.434348
-12.434348
-12.434348
-12.434348
-12.434348
-12.434348
-12.434348
-12.434349
-12.434354
-12.434354
-12.434354
-12.434354
-12.434353
-12.434353
-12.434353
-12.434353
-12.434353
-12.43436
-12.43436
-12.434359
-12.434359
-12.434359
-12.434358
-12.434358
-12.434358
-12.434358
-12.434365
-12.434365
-12.434364
-12.434364
-12.434364
-12.434363
-12.434363
-12.434362
-12.434362
-12.43437
-12.434369
-12.434369
-12.434369
-12.434368
-12.434368
-12.434368
-12.434367
-12.434366
-12.434374
-12.434374
-12.434373
-12.434373
-12.434373
-12.434372
-12.434372
-12.434371
-12.43437
-12.434377
-12.434377
-12.434377
-12.434376
-12.434376
-12.434376
-12.434375