/*--------------------------------*- C++ -*----------------------------------*\
| =========                 |                                                 |
| \\      /  F ield         | OpenFOAM: The Open Source CFD Toolbox           |
|  \\    /   O peration     | Version:  2406                                  |
|   \\  /    A nd           | Website:  www.openfoam.com                      |
|    \\/     M anipulation  |                                                 |
\*---------------------------------------------------------------------------*/
FoamFile
{
    version     2.0;
    format      ascii;
    arch        "LSB;label=32;scalar=64";
    class       surfaceScalarField;
    location    "1.75";
    object      phi;
}
// * * * * * * * * * * * * * * * * * * * * * * * * * * * * * * * * * * * * * //

dimensions      [0 3 -1 0 0 0 0];

oriented        oriented;

internalField   nonuniform List<scalar> 
101088
(
0.0001114366
-5.6630003e-06
4.1471692e-06
4.8050751e-06
0.00025444397
-2.6065959e-05
2.0919115e-05
2.2686167e-05
0.00042255305
-6.6690522e-05
5.771882e-05
5.9223715e-05
0.00059496467
-0.00013307831
0.00012512778
0.00012083477
0.00073736438
-0.00022125901
0.00022613721
0.0002055924
0.00081564434
-0.00030910367
0.00034249034
0.00029483371
0.00081804869
-0.00036235886
0.00043346782
0.00035607537
0.00076192739
-0.0003580409
0.00046222288
0.00036426057
-0.00029801338
0.0004230066
0.0003239215
0.00067198139
0.00013569042
-6.2882298e-06
5.669586e-06
0.00030656541
-2.8517255e-05
2.8259579e-05
0.00050170462
-7.1842765e-05
7.7174852e-05
0.00069234652
-0.0001402797
0.00016532983
0.00083607968
-0.00022799249
0.00029459891
0.00089642788
-0.00031037971
0.00043964561
0.00086825566
-0.00035358335
0.00055017657
0.00077875127
-0.00033757037
0.00058484326
-0.00027037115
0.00054037231
0.00066821648
0.00015996114
-6.5944033e-06
7.3297404e-06
0.00035782637
-2.9513935e-05
3.611178e-05
0.00057765774
-7.3448735e-05
9.7623557e-05
0.00078314728
-0.00014095624
0.00020669801
0.00092543386
-0.00022494997
0.00036313759
0.00096826667
-0.00029949274
0.00053366044
0.00091458119
-0.00033266918
0.00065910973
0.00080158907
-0.00030862031
0.00069572851
-0.00024042286
0.00064428111
0.00067440227
0.00018349538
-6.6483793e-06
9.1637591e-06
0.00040699738
-2.930911e-05
4.4553509e-05
0.00064935163
-7.1982447e-05
0.00011907575
0.0008669164
-0.00013584086
0.00024897518
0.0010055858
-0.00021339665
0.00043115324
0.0010312623
-0.00027883402
0.00062401054
0.00095563995
-0.00030320771
0.00076050498
0.00082430256
-0.00027484731
0.00079601794
-0.00020939969
0.00073600557
0.00068398156
0.00020558132
-6.3717157e-06
1.1054448e-05
0.00045254732
-2.7772559e-05
5.3118441e-05
0.00071474654
-6.7526354e-05
0.00014051598
0.00094201037
-0.00012572966
0.00029050036
0.0010761164
-0.00019515002
0.00049655764
0.0010859497
-0.00025120634
0.00070885538
0.00099147791
-0.00026839413
0.0008534656
0.00084499039
-0.00023861239
0.00088584401
-0.00017827944
0.00081629034
0.00069399172
0.00022598216
-5.8549152e-06
1.2945623e-05
0.00049437829
-2.527292e-05
6.1557445e-05
0.00077432712
-6.089639e-05
0.0001613412
0.0010097761
-0.00011204702
0.00033018621
0.0011391371
-0.00017217445
0.0005578647
0.0011344947
-0.00021884724
0.00078680821
0.0010232931
-0.00023027677
0.00093729544
0.00086352153
-0.00020122477
0.00096528032
-0.0001475519
0.00088577624
0.00070327703
0.0002440015
-5.1705738e-06
1.4781731e-05
0.00053099644
-2.2084796e-05
6.9602176e-05
0.00082588594
-5.2733988e-05
0.00018086171
0.001067607
-9.5972856e-05
0.00036673479
0.0011920917
-0.0001462028
0.0006132593
0.0011746585
-0.00018384793
0.00085598898
0.0010492481
-0.00019088235
0.0010104923
0.00087843458
-0.00016425776
0.0010336318
-0.000118187
0.0009445644
0.00071068039
0.00025938669
-4.3346146e-06
1.6440638e-05
0.00056204457
-1.8333839e-05
7.6802648e-05
0.00086923437
-4.3423378e-05
0.00019817787
0.0011157414
-7.8293459e-05
0.00039883119
0.0012356364
-0.0001184151
0.0006613323
0.0012072048
-0.00014757308
0.00091531341
0.0010698837
-0.00015146623
0.0010725512
0.00088987101
-0.00012860639
0.0010909853
-9.0786814e-05
0.00099323069
0.00071602173
0.00027193629
-3.3585238e-06
1.7843856e-05
0.00058723885
-1.4111617e-05
8.2857643e-05
0.00090418342
-3.3231179e-05
0.00021266165
0.0011542321
-5.9514461e-05
0.00042551649
0.0012700745
-8.9539906e-05
0.0007010021
0.0012325297
-0.00011080905
0.0009638853
0.0010855087
-0.00011266517
0.0011229614
0.00089804383
-9.4598661e-05
0.0011371688
-6.5591704e-05
0.0010320091
0.00071944521
0.00028151253
-2.2915466e-06
1.8944392e-05
0.00060642279
-9.5985666e-06
8.758907e-05
0.0009306934
-2.2502557e-05
0.00022393509
0.0011832374
-4.0094967e-05
0.00044618389
0.001295758
-6.0073614e-05
0.00073152513
0.0012510891
-7.3933563e-05
0.0010009986
0.0010965944
-7.4619355e-05
0.00116121
0.00090341773
-6.2109541e-05
0.0011719521
-4.2415533e-05
0.0010609411
0.00072134257
0.00028789634
-1.1857054e-06
1.9749747e-05
0.00061905418
-4.9101025e-06
9.0977737e-05
0.00094787941
-1.1430291e-05
0.0002318528
0.0012016625
-2.024961e-05
0.00046042926
0.0013116341
-3.021284e-05
0.00075220815
0.0012621335
-3.7030303e-05
0.0010257998
0.0011028271
-3.7192678e-05
0.0011864927
0.0009061347
-3.0783131e-05
0.0011947502
-2.0804983e-05
0.0010797527
0.0007221305
0.00029109964
-9.4592468e-12
2.0118291e-05
0.00062539885
-2.8977557e-11
9.2569248e-05
0.00095653408
-1.7588418e-10
0.00023565329
0.0012109692
-3.7403538e-10
0.00046739677
0.0013196674
-5.6500647e-10
0.00076246258
0.0012677011
-6.1484139e-10
0.0010381952
0.0011059108
-6.9433695e-10
0.0011991734
0.00090738414
-8.1933037e-10
0.0012061975
-7.6565951e-10
0.0010892026
0.00072237941
0.00029109972
1.1856588e-06
2.0118289e-05
0.00062539851
4.9099404e-06
9.2569238e-05
0.00095653378
1.142989e-05
0.00023565326
0.0012109692
2.0249148e-05
0.00046739671
0.0013196673
3.0212157e-05
0.00076246249
0.001267701
3.7029378e-05
0.001038195
0.0011059107
3.7191398e-05
0.0011991733
0.00090738412
3.0781506e-05
0.0012061974
2.0803138e-05
0.0010892026
0.0007223796
0.00028789673
2.2915299e-06
1.9749748e-05
0.00061905413
9.5984202e-06
9.0977743e-05
0.00094787974
2.250237e-05
0.00023185281
0.0012016629
4.0095199e-05
0.00046042926
0.0013116344
6.0073667e-05
0.00075220812
0.0012621336
7.3933083e-05
0.0010257997
0.001102827
7.4618231e-05
0.0011864926
0.00090613451
6.2108031e-05
0.0011947501
4.2413312e-05
0.0010797526
0.00072213069
0.00028151279
3.3585538e-06
1.8944389e-05
0.00060642321
1.41115e-05
8.7589054e-05
0.00093069445
3.3231157e-05
0.00022393504
0.0011832375
5.9514873e-05
0.00044618382
0.001295758
8.954001e-05
0.00073152498
0.001251089
0.0001108086
0.0010009984
0.001096594
0.00011266402
0.0011612098
0.000903417
9.4597375e-05
0.0011719519
6.5589765e-05
0.001060941
0.00072134217
0.00027193589
4.3345371e-06
1.7843853e-05
0.00058723874
1.8333411e-05
8.2857627e-05
0.00090418415
4.3423046e-05
0.00021266161
0.0011542319
7.8293517e-05
0.00042551645
0.0012700747
0.00011841512
0.00070100202
0.0012325295
0.00014757266
0.00096388524
0.0010855084
0.00015146517
0.0011229614
0.00089804277
0.00012860558
0.0011371687
9.0785702e-05
0.0010320089
0.00071944427
0.00025938606
5.1705806e-06
1.6440639e-05
0.00056204409
2.2084741e-05
7.6802646e-05
0.00086923511
5.2734127e-05
0.00019817787
0.0011157419
9.5973483e-05
0.00039883122
0.0012356369
0.00014620317
0.00066133231
0.0012072043
0.00018384761
0.00091531341
0.0010698837
0.00019088161
0.0010725511
0.00088987019
0.00016425745
0.0010909852
0.00011818621
0.00099323057
0.00071602076
0.00024400096
5.8549884e-06
1.4781734e-05
0.00053099546
2.5273084e-05
6.9602188e-05
0.00082588632
6.0896512e-05
0.00018086173
0.001067607
0.0001120472
0.00036673483
0.0011920921
0.00017217385
0.00061325932
0.0011746581
0.00021884674
0.00085598897
0.0010492486
0.00023027653
0.0010104923
0.00087843401
0.00020122495
0.0010336317
0.00014755105
0.00094456434
0.00071067908
0.00022598225
6.3718106e-06
1.2945627e-05
0.00049437858
2.7772811e-05
6.1557462e-05
0.00077432799
6.7526342e-05
0.00016134124
0.0010097759
0.0001257292
0.00033018627
0.0011391382
0.00019514996
0.00055786474
0.0011344951
0.00025120687
0.00078680828
0.0010232938
0.00026839446
0.00093729551
0.00086352072
0.00023861255
0.00096528032
0.000178279
0.00088577619
0.00070327482
0.00020558112
6.6484062e-06
1.1054448e-05
0.00045254653
2.930917e-05
5.3118441e-05
0.00071474585
7.1982695e-05
0.00014051598
0.00094201133
0.00013584165
0.00029050035
0.0010761177
0.00021339828
0.00049655763
0.0010859501
0.0002788353
0.00070885537
0.00099147803
0.00030320846
0.00085346556
0.00084498982
0.00027484662
0.00088584391
0.00020939982
0.00081629025
0.00069399035
0.0001834955
6.5944992e-06
9.1637583e-06
0.00040699762
2.9514175e-05
4.4553505e-05
0.00064935226
7.344927e-05
0.00011907573
0.00086691799
0.00014095669
0.00024897513
0.0010055864
0.00022494964
0.00043115316
0.0010312628
0.0002994927
0.00062401043
0.00095563958
0.00033266865
0.00076050489
0.00082430264
0.00030861899
0.00079601781
0.00024042416
0.00073600552
0.00068398111
0.00015996112
6.2882371e-06
7.329738e-06
0.00035782597
2.8517241e-05
3.6111769e-05
0.00057765688
7.1842807e-05
9.7623528e-05
0.00078314693
0.00014027967
0.00020669795
0.0009254346
0.00022799222
0.00036313748
0.00096826651
0.00031038003
0.00053366034
0.00091458017
0.0003535838
0.00065910966
0.00080158892
0.00033756762
0.00069572847
0.00027037027
0.00064428113
0.00067440163
0.00013569028
5.6630089e-06
5.6695869e-06
0.00030656482
2.6065983e-05
2.8259583e-05
0.00050170369
6.6690591e-05
7.717486e-05
0.00069234608
0.00013307841
0.00016532984
0.00083608017
0.0002212592
0.00029459892
0.00089642793
0.00030910354
0.00043964566
0.0008682546
0.00036235866
0.00055017667
0.00077875148
0.00035803939
0.00058484337
0.00029801141
0.00054037237
0.00066821641
0.0001114366
4.1471719e-06
4.8050723e-06
0.00025444393
2.0919126e-05
2.2686112e-05
0.00042255301
5.7718846e-05
5.9223468e-05
0.00059496456
0.00012512783
0.00012083399
0.00073736396
0.00022613729
0.00020559095
0.00081564506
0.00034249044
0.00029483305
0.00081805049
0.00043346792
0.00035607735
0.00076192737
0.00046222301
0.00036426012
0.00042300666
0.00032392253
0.00067198214
2.6173418e-06
2.7138483e-06
1.3434265e-06
-2.5274488e-06
1.3646796e-05
9.180344e-06
9.5921708e-06
-8.8827853e-06
3.8988639e-05
1.3104718e-05
3.3407385e-05
-1.4134951e-05
8.4094478e-05
-6.4736409e-07
8.6941093e-05
-6.2715413e-06
0.00014894547
-5.3816582e-05
0.00018101045
3.4092474e-05
0.00022382577
-0.00015580112
0.00030440242
0.00011900858
0.00029087027
-0.00027587848
0.0004142103
0.00022809155
0.00033785593
-0.00036115826
0.00046199302
0.00031440249
-0.00037895988
0.0004319299
0.00034302698
0.00036486504
3.5671752e-06
3.1240868e-06
1.6922073e-06
1.8615972e-05
1.0011127e-05
1.2380106e-05
5.2919905e-05
1.2481862e-05
4.3493906e-05
0.0001117378
-7.3492101e-06
0.00011321362
0.00019037174
-7.2057717e-05
0.00023420542
0.00027070598
-0.00018623124
0.00038974139
0.00032986964
-0.00031015324
0.00052528829
0.00035872757
-0.00038940211
0.00058422858
-0.00039691862
0.00055177063
0.00036528756
4.9425686e-06
3.5115829e-06
1.9997085e-06
2.5162667e-05
1.086531e-05
1.5037674e-05
6.9650696e-05
1.226222e-05
5.3355435e-05
0.00014244229
-1.2479374e-05
0.00013903646
0.00023289597
-8.5310816e-05
0.00028593661
0.00031523396
-0.0002055124
0.00047060373
0.00036415722
-0.00032697371
0.00062700649
0.00037545272
-0.00039773864
0.00069277004
-0.00039756437
0.00065641471
0.00036396434
6.5770796e-06
3.7257115e-06
2.3725429e-06
3.2814193e-05
1.1231558e-05
1.7950052e-05
8.8736908e-05
1.1706352e-05
6.3708393e-05
0.00017603624
-1.6151143e-05
0.00016534663
0.00027723463
-9.2495043e-05
0.00033713966
0.00035975638
-0.00021215656
0.0005481332
0.00039839822
-0.00032626435
0.0007211543
0.00039432075
-0.00038761652
0.00078997339
-0.0003825117
0.00074785359
0.00036741995
8.2457916e-06
3.7606049e-06
2.7738807e-06
4.0527477e-05
1.1123773e-05
2.0944931e-05
0.00010774732
1.088661e-05
7.4115912e-05
0.00020896833
-1.820166e-05
0.00019132895
0.00031998505
-9.365044e-05
0.00038669554
0.00040241994
-0.00020713905
0.00062140321
0.0004324171
-0.00031054452
0.00080774848
0.00041636379
-0.00036259204
0.00087687344
-0.00035501042
0.00082747348
0.00037767951
9.8772026e-06
3.6206237e-06
3.2083569e-06
4.8015865e-05
1.0539247e-05
2.4003093e-05
0.00012604159
9.762477e-06
8.4439073e-05
0.00024027426
-1.8824366e-05
0.00021657696
0.00036025332
-8.9680443e-05
0.00043391509
0.00044317327
-0.00019287115
0.0006896208
0.00046674433
-0.00028335888
0.00088653845
0.00044166902
-0.00032633845
0.00095410245
-0.00031784801
0.00089638291
0.00039390005
1.1416014e-05
3.2973759e-06
3.6892058e-06
5.4979092e-05
9.4667741e-06
2.7111471e-05
0.00014278216
8.3413045e-06
9.4478759e-05
0.00026839402
-1.812412e-05
0.00024042312
0.0003959009
-8.1389939e-05
0.00047746229
0.00047915759
-0.00017130526
0.00075116749
0.00049785456
-0.0002477843
0.00095622076
0.00046635122
-0.00028234602
0.001021143
-0.00027367325
0.00095493751
0.00041180352
1.2770288e-05
2.8169133e-06
4.1511964e-06
6.1050984e-05
7.9911844e-06
2.9997498e-05
0.00015723335
6.7199049e-06
0.00010361609
0.00029235551
-1.6231179e-05
0.00026181625
0.00042588886
-6.9552367e-05
0.00051596132
0.00050908917
-0.00014399902
0.00080480768
0.00052381184
-0.00020607778
0.0010161223
0.00048723608
-0.00023278593
0.0010780014
-0.0002241033
0.0010037936
0.0004271034
1.3890114e-05
2.2141579e-06
4.5566794e-06
6.6030884e-05
6.222093e-06
3.2486155e-05
0.00016897317
5.0238137e-06
0.00011141535
0.00031156254
-1.3251937e-05
0.00027994877
0.00044955646
-5.4816346e-05
0.00054827239
0.00053215169
-0.000112105
0.00084939658
0.00054277172
-0.00015918016
0.0010654441
0.00050138998
-0.0001786011
0.0011243661
-0.0001708013
0.0010431287
0.00043696827
1.4741125e-05
1.5307816e-06
4.8865321e-06
6.9797915e-05
4.271231e-06
3.4483346e-05
0.0001777975
3.3418251e-06
0.00011761747
0.00032584251
-9.3731347e-06
0.00029426082
0.00046686552
-3.7848571e-05
0.00057353476
0.00054854502
-7.6724645e-05
0.00088393915
0.00055554445
-0.00010829324
0.0011033238
0.00051006932
-0.00012085861
0.0011596848
-0.00011502225
0.0010727828
0.00044244837
1.5338271e-05
7.7151486e-07
5.1707019e-06
7.2399327e-05
2.1325234e-06
3.6055742e-05
0.00018376741
1.5963249e-06
0.00012223022
0.00033528018
-4.9380201e-06
0.00030448157
0.00047800004
-1.9392715e-05
0.00059103258
0.00055869788
-3.8989143e-05
0.00090736667
0.00056302201
-5.4766971e-05
0.0011286423
0.00051474939
-6.0889583e-05
0.0011830537
-5.7771692e-05
0.0010922308
0.00044502062
1.5609784e-05
1.4926727e-11
5.2800319e-06
7.3580128e-05
4.7470965e-11
3.6731597e-05
0.00018648306
2.7836065e-11
0.00012434669
0.00033956282
-9.0294982e-11
0.00030937922
0.00048299472
-3.203953e-10
0.00059963841
0.00056314675
-5.8731377e-10
0.00091905482
0.00056618254
-8.3371295e-10
0.0011413716
0.00051663862
-9.876339e-10
0.0011948528
-9.1872702e-10
0.0011020699
0.00044600068
1.560976e-05
-7.7149488e-07
5.280031e-06
7.3579934e-05
-2.1324644e-06
3.6731592e-05
0.00018648293
-1.5962785e-06
0.00012434668
0.00033956278
4.9379869e-06
0.00030937918
0.00048299469
1.9392331e-05
0.00059963834
0.00056314666
3.8988197e-05
0.00091905469
0.00056618242
5.4765472e-05
0.0011413714
0.00051663852
6.0887706e-05
0.0011948527
5.7769826e-05
0.0011020698
0.00044600062
1.5338317e-05
-1.5307603e-06
5.1707018e-06
7.239914e-05
-4.2711892e-06
3.605574e-05
0.00018376749
-3.3417e-06
0.00012223021
0.00033528032
9.3734676e-06
0.00030448155
0.00047800015
3.7848678e-05
0.00059103254
0.00055869779
7.6724133e-05
0.00090736657
0.00056302176
0.00010829211
0.0011286421
0.00051474903
0.00012085706
0.0011830536
0.00011502053
0.0010922307
0.00044502034
1.4741258e-05
-2.2141014e-06
4.8865307e-06
6.9798029e-05
-6.2220079e-06
3.4483336e-05
0.00017779794
-5.023593e-06
0.00011761744
0.00032584255
1.3252425e-05
0.00029426074
0.00046686545
5.4816564e-05
0.00057353461
0.00054854468
0.00011210463
0.00088393893
0.00055554389
0.00015917924
0.0011033235
0.00051006855
0.00017859994
0.0011596845
0.00017079999
0.0010727826
0.00044244781
1.3890037e-05
-2.8168812e-06
4.5566778e-06
6.6030918e-05
-7.9911971e-06
3.2486145e-05
0.00016897367
-6.7198214e-06
0.00011141532
0.00031156249
1.6231488e-05
0.00027994871
0.00044955643
6.955246e-05
0.00054827228
0.00053215123
0.00014399869
0.00084939643
0.00054277104
0.00020607703
0.0010654439
0.00050138899
0.00023278523
0.0011243659
0.00022410246
0.0010431285
0.00043696759
1.276995e-05
-3.2973472e-06
4.1511946e-06
6.1050717e-05
-9.466752e-06
2.9997491e-05
0.00015723382
-8.3411223e-06
0.00010361607
0.00029235567
1.8124586e-05
0.00026181622
0.00042588907
8.1390118e-05
0.00051596126
0.0005090887
0.00017130502
0.00080480759
0.00052381134
0.00024778369
0.0010161222
0.00048723525
0.00028234555
0.0010780012
0.00027367246
0.0010037934
0.00042710265
1.1415735e-05
-3.6205682e-06
3.6892051e-06
5.4978773e-05
-1.0539105e-05
2.7111469e-05
0.00014278278
-9.7621502e-06
9.4478754e-05
0.00026839439
1.8824845e-05
0.00024042311
0.00039590138
8.9680508e-05
0.00047746226
0.00047915728
0.00019287098
0.00075116744
0.00049785433
0.00028335841
0.00095622066
0.00046635049
0.00032633801
0.0010211428
0.00031784699
0.00095493734
0.0004118024
9.8771932e-06
-3.7605081e-06
3.2083574e-06
4.8015916e-05
-1.1123488e-05
2.4003096e-05
0.00012604218
-1.0886231e-05
8.4439084e-05
0.0002402745
1.8201917e-05
0.00021657699
0.00036025402
9.3650698e-05
0.00043391512
0.00044317318
0.00020713916
0.00068962084
0.00046674409
0.00031054417
0.00088653847
0.00044166803
0.00036259146
0.0009541024
0.00035500942
0.00089638278
0.00039389854
8.2457263e-06
-3.7256325e-06
2.7738801e-06
4.0527194e-05
-1.1231342e-05
2.0944929e-05
0.00010774719
-1.1705952e-05
7.4115908e-05
0.00020896889
1.6151802e-05
0.00019132894
0.00031998575
9.2495912e-05
0.00038669551
0.00040241985
0.00021215704
0.00062140316
0.00043241659
0.00032626422
0.00080774841
0.00041636271
0.00038761553
0.00087687335
0.00038251095
0.00082747337
0.00037767829
6.577101e-06
-3.5114882e-06
2.3725427e-06
3.2814248e-05
-1.0865038e-05
1.795005e-05
8.8737209e-05
-1.2261639e-05
6.3708382e-05
0.00017603719
1.248014e-05
0.0001653466
0.00027723522
8.5311215e-05
0.00033713959
0.00035975664
0.00020551268
0.00054813309
0.00039839773
0.00032697347
0.0007211542
0.00039431989
0.00039773767
0.00078997331
0.00039756413
0.00074785354
0.00036741884
4.9425851e-06
-3.1240229e-06
1.9997078e-06
2.5162562e-05
-1.0010949e-05
1.5037669e-05
6.9650499e-05
-1.248152e-05
5.3355417e-05
0.00014244257
7.3496056e-06
0.00013903642
0.00023289695
7.2057902e-05
0.00028593651
0.00031523456
0.00018623152
0.00047060361
0.00036415686
0.0003101539
0.00062700639
0.00037545152
0.00038940145
0.00069276999
0.00039691776
0.00065641472
0.00036396313
3.567148e-06
-2.7138167e-06
1.6922074e-06
1.8615831e-05
-9.1802549e-06
1.2380106e-05
5.2919828e-05
-1.3104578e-05
4.3493905e-05
0.00011173833
6.4747686e-07
0.00011321361
0.00019037315
5.3816547e-05
0.0002342054
0.00027070757
0.0001558008
0.00038974138
0.00032987117
0.0002758786
0.00052528829
0.00035872941
0.00036115797
0.00058422861
0.00037895872
0.0005517707
0.00036528903
2.6173755e-06
1.3434275e-06
-2.5274671e-06
1.3646943e-05
9.5921752e-06
-8.88287e-06
3.8989156e-05
3.3407396e-05
-1.4135183e-05
8.4095513e-05
8.6941112e-05
-6.2721425e-06
0.00014894689
0.00018101048
3.4091272e-05
0.00022382831
0.00030440245
0.00011900749
0.000290874
0.00041421034
0.00022809191
0.00033785872
0.0004619931
0.0003144026
0.00043192998
0.00034302877
0.00036486654
6.1946357e-07
1.903706e-07
1.1378968e-06
-6.0430375e-07
3.4715473e-06
1.6618406e-07
8.5394147e-06
-1.9654982e-06
1.0763329e-05
-2.1643706e-06
3.0644739e-05
-2.3647408e-06
2.5730801e-05
-1.2738134e-05
8.1594956e-05
3.1168327e-06
5.2185117e-05
-4.4048658e-05
0.00017322987
2.5374981e-05
9.2090285e-05
-0.00011064323
0.00029696894
7.817164e-05
0.00014199602
-0.00020821287
0.00041094624
0.00016157136
0.00019297347
-0.00029433091
0.00046372997
0.00024161661
-0.00032613591
0.0004361098
0.00028077962
0.00023415002
7.8175399e-07
-1.5710894e-07
1.2579377e-06
4.5876643e-06
-1.4957142e-06
1.0236132e-05
1.4510366e-05
-6.5522951e-06
3.7959208e-05
3.4549934e-05
-2.2132587e-05
0.00010256862
6.7920763e-05
-6.1834173e-05
0.00021862026
0.00011311143
-0.00014003996
0.00037394764
0.00016204895
-0.00024742521
0.00051556331
0.00020440064
-0.00033451246
0.00058205867
-0.00035900872
0.00055400443
0.00023503997
9.947072e-07
-4.3324193e-07
1.2811339e-06
5.8345838e-06
-2.8224164e-06
1.1524483e-05
1.8421344e-05
-1.009501e-05
4.4311304e-05
4.347211e-05
-2.9771206e-05
0.00012162413
8.334413e-05
-7.6119903e-05
0.00026035015
0.00013256954
-0.00016272084
0.00044405903
0.00017833346
-0.00027486662
0.00060868391
0.0002102916
-0.00035866751
0.00068496703
-0.00037506388
0.00065524158
0.00022751993
1.2335411e-06
-6.2493189e-07
1.3307189e-06
7.2347508e-06
-3.7501732e-06
1.2876629e-05
2.2737744e-05
-1.2549644e-05
5.0659956e-05
5.3066262e-05
-3.4964658e-05
0.00014021129
9.9386587e-05
-8.5527139e-05
0.00030022638
0.00015190169
-0.00017659291
0.00050949008
0.00019352638
-0.00028841844
0.0006930813
0.00021510486
-0.00036587425
0.00077560163
-0.00037471111
0.00074248077
0.00022012492
1.4534487e-06
-6.9939067e-07
1.3949021e-06
8.5687793e-06
-4.1563968e-06
1.4235809e-05
2.6945193e-05
-1.3670111e-05
5.6859808e-05
6.2512386e-05
-3.7302379e-05
0.00015809919
0.00011503167
-8.9452766e-05
0.00033810164
0.00017019016
-0.00018080119
0.00057045303
0.00020763529
-0.00028783328
0.00076971822
0.00022012136
-0.00035712107
0.00085563429
-0.00035989334
0.00081752076
0.00021525628
1.7199651e-06
-7.0627375e-07
1.4952835e-06
1.0105708e-05
-4.2079545e-06
1.5668849e-05
3.1648035e-05
-1.3778056e-05
6.3004377e-05
7.2843196e-05
-3.726973e-05
0.00017534883
0.00013165923
-8.8322632e-05
0.00037396861
0.00018883591
-0.00017536244
0.00062700549
0.0002219966
-0.00027349648
0.00083904109
0.00022642483
-0.00033351843
0.00092607168
-0.00033191861
0.00088167765
0.00021315535
1.9874223e-06
-6.6142955e-07
1.6569745e-06
1.1628017e-05
-3.968011e-06
1.7230882e-05
3.6235708e-05
-1.2995675e-05
6.9088412e-05
8.2707968e-05
-3.5013335e-05
0.00019169448
0.00014703879
-8.2255493e-05
0.00040706428
0.00020567053
-0.0001608606
0.00067803415
0.00023487776
-0.00024672607
0.00090024329
0.00023254495
-0.00029680555
0.00098676305
-0.00029276572
0.00093551347
0.00021281614
2.2340324e-06
-5.752125e-07
1.8309969e-06
1.3022691e-05
-3.480256e-06
1.8721052e-05
4.0409467e-05
-1.1427525e-05
7.4660911e-05
9.1602636e-05
-3.0744929e-05
0.00020635479
0.00016069231
-7.1733254e-05
0.00043634941
0.00022053939
-0.00013848129
0.0007225816
0.00024638287
-0.00020932221
0.00095287517
0.00023880612
-0.00024921146
0.0010379842
-0.00024469205
0.0009799215
0.00021460451
2.4475176e-06
-4.5710681e-07
1.9910692e-06
1.4224482e-05
-2.7888515e-06
2.0017772e-05
4.3986746e-05
-9.1898602e-06
7.9415274e-05
9.9169566e-05
-2.4722847e-05
0.00021874405
0.00017215434
-5.7386336e-05
0.00046094068
0.00023306228
-0.00010967419
0.00075968174
0.00025685008
-0.00016390836
0.00099624253
0.00024593223
-0.00019357071
0.0010796432
-0.0001895077
0.0010153712
0.0002185052
2.6195317e-06
-3.172863e-07
2.127181e-06
1.5190893e-05
-1.9479999e-06
2.1071131e-05
4.6852873e-05
-6.4386487e-06
8.3204152e-05
0.00010519541
-1.7320332e-05
0.00022851585
0.00018119169
-4.0040311e-05
0.00048019232
0.00024292846
-7.5951859e-05
0.00078848001
0.00026534881
-0.00011258469
0.0010295796
0.00025233291
-0.00013218555
0.0011113153
-0.00012908952
0.0010419396
0.00022275765
2.7513432e-06
-1.6607825e-07
2.2681751e-06
1.5909857e-05
-1.0129372e-06
2.1962127e-05
4.8930036e-05
-3.3344227e-06
8.6105578e-05
0.00010946
-8.9421245e-06
0.00023557324
0.00018743281
-2.058874e-05
0.00049360793
0.00024961528
-3.8844535e-05
0.00080807661
0.00027106109
-5.7275225e-05
0.0010518866
0.00025669651
-6.6998807e-05
0.0011322312
-6.5325759e-05
0.0010592693
0.00022589403
2.8034305e-06
1.3775965e-11
2.3105022e-06
1.6214907e-05
3.2528318e-11
2.2307037e-05
4.9855613e-05
3.4854301e-11
8.7371244e-05
0.00011141657
-3.1796315e-11
0.00023887589
0.00019031632
-2.637861e-10
0.00050014989
0.00025268625
-6.2112934e-10
0.00081784066
0.00027366633
-9.1349123e-10
0.0010631169
0.00025871748
-9.7192898e-10
0.0011428036
-8.0060273e-10
0.0010680323
0.00022742996
2.8033821e-06
1.6611079e-07
2.3105016e-06
1.6214823e-05
1.0130223e-06
2.2307033e-05
4.9855564e-05
3.3345507e-06
8.7371231e-05
0.00011141649
8.942163e-06
0.00023887586
0.00019031622
2.0588333e-05
0.00050014983
0.00025268611
3.8843423e-05
0.00081784056
0.00027366616
5.7273516e-05
0.0010631167
0.00025871729
6.6996939e-05
0.0011428035
6.5324224e-05
0.0010680323
0.00022742973
2.7512752e-06
3.1731938e-07
2.2681746e-06
1.5909746e-05
1.9480989e-06
2.1962125e-05
4.8930034e-05
6.4388504e-06
8.6105572e-05
0.00010945992
1.7320531e-05
0.00023557322
0.0001874327
4.0040134e-05
0.0004936079
0.00024961502
7.5951039e-05
0.00080807654
0.00027106069
0.00011258328
0.0010518865
0.00025669599
0.00013218392
0.0011322311
0.0001290882
0.0010592691
0.00022589343
2.619511e-06
4.5715355e-07
2.1271798e-06
1.5190836e-05
2.7889934e-06
2.1071124e-05
4.6852897e-05
9.190132e-06
8.3204128e-05
0.00010519524
2.4723148e-05
0.00022851579
0.00018119145
5.7386312e-05
0.00048019221
0.00024292793
0.00010967358
0.00078847982
0.00026534804
0.00016390719
0.0010295793
0.00025233197
0.00019356934
0.001111315
0.00018950662
0.0010419394
0.00022275672
2.4475035e-06
5.7527185e-07
1.9910685e-06
1.4224456e-05
3.4804415e-06
2.0017768e-05
4.3986825e-05
1.1427845e-05
7.941526e-05
9.916939e-05
3.0745263e-05
0.00021874401
0.00017215403
7.1733284e-05
0.00046094061
0.00023306154
0.00013848077
0.00075968162
0.00025684902
0.00020932117
0.00099624235
0.00024593093
0.00024921033
0.0010796429
0.00024469123
0.001015371
0.00021850388
2.2339822e-06
6.6149389e-07
1.8309967e-06
1.3022649e-05
3.9682125e-06
1.8721052e-05
4.0409588e-05
1.2996035e-05
7.466091e-05
9.1602498e-05
3.501372e-05
0.00020635478
0.000160692
8.2255554e-05
0.00043634939
0.0002205386
0.00016086009
0.00072258155
0.00024638168
0.00024672513
0.00095287505
0.00023880459
0.00029680459
0.001037984
0.00029276504
0.00097992129
0.00021460278
1.9873726e-06
7.0634556e-07
1.6569749e-06
1.1627972e-05
4.2081763e-06
1.7230885e-05
3.6235823e-05
1.3778479e-05
6.9088421e-05
8.2707907e-05
3.7270197e-05
0.00019169449
0.00014703859
8.8322771e-05
0.0004070643
0.00020566986
0.000175362
0.00067803416
0.00023487665
0.00027349563
0.00090024324
0.00023254337
0.00033351761
0.00098676293
0.00033191798
0.00093551331
0.00021281418
1.7199252e-06
6.9948423e-07
1.4952848e-06
1.0105633e-05
4.1566804e-06
1.5668857e-05
3.1648087e-05
1.3670659e-05
6.3004402e-05
7.2843266e-05
3.7303053e-05
0.00017534889
0.00013165924
8.9453123e-05
0.0003739687
0.00018883549
0.00018080086
0.00062700559
0.00022199575
0.0002878325
0.00083904115
0.00022642339
0.00035712045
0.00092607165
0.00035989284
0.00088167754
0.00021315353
1.4534253e-06
6.2503628e-07
1.394903e-06
8.5687216e-06
3.7504805e-06
1.4235813e-05
2.6945195e-05
1.2550213e-05
5.6859817e-05
6.2512493e-05
3.4965356e-05
0.00015809921
0.00011503179
8.5527498e-05
0.00033810165
0.00017018998
0.00017659259
0.00057045302
0.00020763478
0.00028841772
0.00076971818
0.00022012023
0.00036587391
0.00085563421
0.00037471095
0.00081752067
0.00021525478
1.2335289e-06
4.3333176e-07
1.3307189e-06
7.2347373e-06
2.8226781e-06
1.2876628e-05
2.2737826e-05
1.0095524e-05
5.0659949e-05
5.3066591e-05
2.9771874e-05
0.00014021127
9.938704e-05
7.6120295e-05
0.00030022633
0.000151902
0.00016272069
0.00050949
0.00019352641
0.00027486618
0.00069308121
0.00021510438
0.00035866762
0.00077560154
0.00037506412
0.00074248072
0.00022012393
9.947256e-07
1.5717243e-07
1.281133e-06
5.8346634e-06
1.4958923e-06
1.1524477e-05
1.8421639e-05
6.5526397e-06
4.4311287e-05
4.3472829e-05
2.213302e-05
0.00012162409
8.3345259e-05
6.1834393e-05
0.00026035007
0.00013257077
0.00014003986
0.0004440589
0.00017833426
0.00024742519
0.00060868378
0.00021029147
0.00033451327
0.00068496697
0.00035900943
0.00065524158
0.00022751945
7.8179858e-07
-1.9035209e-07
1.2579368e-06
4.587849e-06
-1.661518e-07
1.0236128e-05
1.4510927e-05
2.1643952e-06
3.7959196e-05
3.4551146e-05
1.2738027e-05
0.00010256859
6.7922697e-05
4.4048183e-05
0.00021862021
0.00011311383
0.00011064254
0.00037394757
0.0001620514
0.00020821285
0.00051556325
0.00020440258
0.00029433195
0.00058205869
0.000326137
0.00055400451
0.00023504124
6.1950148e-07
1.1378968e-06
-6.0431865e-07
3.4717091e-06
8.5394147e-06
-1.9655642e-06
1.076377e-05
3.0644739e-05
-2.3649016e-06
2.5731583e-05
8.1594954e-05
3.1164506e-06
5.2186185e-05
0.00017322986
2.5374156e-05
9.2091939e-05
0.00029696893
7.8170373e-05
0.00014199889
0.00041094624
0.00016157019
0.00019297782
0.00046373004
0.00024161602
0.0004361099
0.00028078178
0.0002341532
-2.1449457e-07
3.7453976e-07
1.3754067e-06
-3.9755477e-07
-1.0652781e-06
9.7731873e-07
9.6083451e-06
-1.1954626e-06
-2.5201517e-06
1.5793381e-07
3.3162093e-05
-1.2204093e-06
-3.1055574e-06
-6.3730839e-06
8.5955475e-05
2.597978e-06
1.320433e-06
-2.7054662e-05
0.00017923663
1.6621965e-05
1.6747767e-05
-7.1344838e-05
0.0003039975
4.8889055e-05
4.5909153e-05
-0.00013561061
0.00041858721
9.8808353e-05
8.3219293e-05
-0.00019636537
0.00047180259
0.00015098264
-0.00022683623
0.00044348736
0.00018365107
0.00011902704
-2.3364196e-07
3.792239e-07
1.4868956e-06
-1.0424434e-06
7.701178e-07
1.1252153e-05
-2.128299e-06
-1.0351775e-06
4.023822e-05
-1.4935936e-06
-1.0555604e-05
0.00010611654
5.4584249e-06
-3.8052159e-05
0.00022266595
2.4209277e-05
-9.380902e-05
0.00037766114
5.4876872e-05
-0.00016989925
0.00051918441
9.0033936e-05
-0.00023592734
0.00058646379
-0.0002636966
0.0005587455
0.00012215348
-1.7312715e-07
3.5666693e-07
1.476824e-06
-7.2069015e-07
4.7539388e-07
1.236678e-05
-1.0706648e-06
-2.3848003e-06
4.6010897e-05
1.2926917e-06
-1.4883046e-05
0.00012358826
1.1376607e-05
-4.8799778e-05
0.00026101398
3.3349952e-05
-0.00011410537
0.00044238205
6.4448001e-05
-0.00019816791
0.00060585461
9.5930965e-05
-0.00026575405
0.00068331086
-0.00028853721
0.0006551929
0.00012082037
-5.4263696e-08
2.6896075e-07
1.4727142e-06
-1.0635682e-07
-4.0080622e-08
1.3444257e-05
7.4377199e-07
-4.0695022e-06
5.1494594e-05
5.4489722e-06
-1.9328586e-05
0.00013995168
1.9139387e-05
-5.861414e-05
0.00029635024