/*--------------------------------*- C++ -*----------------------------------*\
| =========                 |                                                 |
| \\      /  F ield         | OpenFOAM: The Open Source CFD Toolbox           |
|  \\    /   O peration     | Version:  2406                                  |
|   \\  /    A nd           | Website:  www.openfoam.com                      |
|    \\/     M anipulation  |                                                 |
\*---------------------------------------------------------------------------*/
FoamFile
{
    version     2.0;
    format      ascii;
    arch        "LSB;label=32;scalar=64";
    class       volScalarField;
    location    "38";
    object      p;
}
// * * * * * * * * * * * * * * * * * * * * * * * * * * * * * * * * * * * * * //

dimensions      [0 2 -2 0 0 0 0];

internalField   nonuniform List<scalar> 
1176
(
0.79699976
0.79702263
0.7970463
0.79705396
0.79702243
0.79692774
0.79677051
0.79658434
0.79640514
0.79623799
0.79608336
0.79598775
0.79598775
0.79608336
0.79623798
0.79640514
0.79658435
0.79677053
0.79692779
0.79702251
0.79705407
0.79704643
0.79702277
0.79699991
0.77385133
0.77380437
0.77375661
0.77373972
0.77380222
0.77400457
0.77436989
0.7748343
0.77526516
0.77555126
0.77567066
0.77570492
0.77570491
0.77567065
0.77555125
0.77526514
0.77483428
0.77436987
0.77400454
0.77380217
0.77373965
0.77375654
0.7738043
0.77385125
0.75676658
0.75678859
0.75680838
0.75680647
0.75674741
0.75658624
0.75631447
0.75598652
0.75568031
0.75546752
0.75535671
0.7553079
0.7553079
0.75535671
0.75546752
0.75568031
0.75598653
0.75631448
0.75658625
0.75674743
0.75680649
0.7568084
0.75678861
0.75676659
0.74009468
0.74010381
0.74011587
0.74013227
0.74015481
0.74017238
0.74014015
0.74000674
0.73977463
0.73950206
0.73927786
0.73915736
0.73915735
0.73927785
0.73950205
0.73977462
0.74000673
0.74014013
0.74017237
0.7401548
0.74013225
0.74011585
0.74010379
0.74009466
0.72367563
0.72367959
0.72368458
0.72369064
0.72370034
0.72372062
0.7237568
0.72379831
0.72381998
0.72379611
0.72373399
0.72368136
0.72368136
0.72373399
0.72379611
0.72381998
0.72379831
0.7237568
0.72372061
0.72370033
0.72369063
0.72368457
0.72367957
0.72367562
0.70721398
0.70721639
0.70721964
0.70722368
0.70722859
0.70723542
0.70724959
0.7072809
0.70733089
0.70738814
0.70743085
0.70744751
0.70744751
0.70743085
0.70738815
0.7073309
0.70728091
0.70724959
0.70723542
0.70722859
0.70722368
0.70721963
0.70721639
0.70721397
0.69080817
0.6908103
0.69081311
0.69081654
0.69082044
0.69082395
0.69082602
0.6908282
0.69083675
0.69085398
0.69087188
0.69088359
0.69088359
0.69087188
0.69085398
0.69083675
0.6908282
0.69082602
0.69082395
0.69082044
0.69081654
0.69081311
0.6908103
0.69080816
0.6744283
0.67443006
0.67443239
0.67443531
0.67443898
0.67444335
0.6744478
0.67445096
0.67445219
0.67445381
0.67445086
0.67444835
0.67444835
0.67445086
0.67445382
0.6744522
0.67445096
0.67444781
0.67444335
0.67443898
0.67443531
0.67443238
0.67443006
0.6744283
0.65807402
0.65807547
0.6580774
0.65807981
0.65808283
0.65808661
0.65809166
0.65809871
0.65810739
0.65811742
0.65812519
0.65812877
0.65812877
0.65812519
0.65811742
0.65810739
0.65809871
0.65809166
0.65808661
0.65808283
0.65807981
0.6580774
0.65807547
0.65807402
0.64173632
0.64173753
0.64173914
0.64174117
0.64174374
0.64174691
0.64175108
0.64175747
0.64176762
0.64178076
0.64179509
0.64180439
0.64180439
0.64179509
0.64178076
0.64176763
0.64175747
0.64175108
0.64174691
0.64174374
0.64174117
0.64173914
0.64173753
0.64173632
0.62541194
0.62541297
0.62541435
0.62541609
0.62541831
0.62542103
0.62542443
0.62542927
0.62543714
0.6254478
0.62546036
0.62546949
0.62546949
0.62546036
0.6254478
0.62543714
0.62542927
0.62542443
0.62542103
0.62541831
0.62541609
0.62541435
0.62541297
0.62541195
0.60909847
0.60909936
0.60910056
0.60910209
0.60910403
0.60910643
0.60910939
0.6091134
0.60911962
0.60912828
0.60913884
0.60914629
0.60914629
0.60913884
0.60912828
0.60911962
0.6091134
0.60910939
0.60910643
0.60910403
0.60910209
0.60910056
0.60909936
0.60909847
0.59279428
0.59279506
0.59279612
0.59279747
0.59279919
0.59280132
0.59280395
0.59280749
0.59281289
0.59282064
0.59283033
0.59283701
0.59283701
0.59283033
0.59282064
0.5928129
0.59280749
0.59280395
0.59280132
0.59279919
0.59279747
0.59279612
0.59279506
0.59279427
0.57649806
0.57649876
0.5764997
0.5765009
0.57650244
0.57650434
0.57650669
0.57650983
0.5765146
0.57652157
0.57653024
0.57653632
0.57653632
0.57653024
0.57652157
0.5765146
0.57650983
0.57650669
0.57650434
0.57650244
0.5765009
0.5764997
0.57649876
0.57649805
0.56020879
0.56020942
0.56021026
0.56021134
0.56021273
0.56021444
0.56021654
0.56021931
0.56022347
0.5602296
0.56023712
0.56024252
0.56024253
0.56023712
0.5602296
0.56022347
0.56021931
0.56021654
0.56021444
0.56021273
0.56021134
0.56021026
0.56020941
0.56020879
0.54392567
0.54392623
0.543927
0.54392798
0.54392923
0.54393079
0.54393268
0.54393514
0.54393877
0.54394415
0.54395069
0.54395548
0.54395548
0.54395069
0.54394415
0.54393877
0.54393514
0.54393268
0.54393079
0.54392923
0.54392798
0.543927
0.54392623
0.54392566
0.52764804
0.52764856
0.52764925
0.52765015
0.52765129
0.52765271
0.52765443
0.52765663
0.52765985
0.52766461
0.52767034
0.52767463
0.52767463
0.52767034
0.52766461
0.52765985
0.52765663
0.52765443
0.52765271
0.52765129
0.52765014
0.52764925
0.52764856
0.52764804
0.51137536
0.51137584
0.51137647
0.51137729
0.51137833
0.51137963
0.5113812
0.51138319
0.51138607
0.51139032
0.51139537
0.51139923
0.51139923
0.51139537
0.51139032
0.51138607
0.51138319
0.5113812
0.51137963
0.51137833
0.51137729
0.51137647
0.51137583
0.51137536
0.49510717
0.4951076
0.49510819
0.49510894
0.4951099
0.49511109
0.49511253
0.49511434
0.49511691
0.49512072
0.49512522
0.4951287
0.4951287
0.49512522
0.49512072
0.49511691
0.49511434
0.49511253
0.49511109
0.4951099
0.49510893
0.49510818
0.4951076
0.49510716
0.47884306
0.47884346
0.478844
0.47884469
0.47884557
0.47884667
0.478848
0.47884965
0.47885197
0.47885539
0.47885943
0.47886258
0.47886258
0.47885943
0.47885539
0.47885197
0.47884965
0.478848
0.47884667
0.47884557
0.47884468
0.47884399
0.47884345
0.47884305
0.46258269
0.46258306
0.46258355
0.46258419
0.46258501
0.46258603
0.46258725
0.46258876
0.46259087
0.46259397
0.46259761
0.46260048
0.46260048
0.46259761
0.46259397
0.46259087
0.46258876
0.46258725
0.46258603
0.46258501
0.46258419
0.46258355
0.46258305
0.46258268
0.44632575
0.44632609
0.44632656
0.44632715
0.44632791
0.44632886
0.44632999
0.44633138
0.44633329
0.44633611
0.44633942
0.44634204
0.44634204
0.44633942
0.44633611
0.44633329
0.44633138
0.44632999
0.44632885
0.44632791
0.44632714
0.44632655
0.44632609
0.44632575
0.43007199
0.43007231
0.43007273
0.43007329
0.43007399
0.43007487
0.43007592
0.4300772
0.43007896
0.43008153
0.43008456
0.43008695
0.43008695
0.43008456
0.43008153
0.43007896
0.43007721
0.43007592
0.43007487
0.43007399
0.43007328
0.43007273
0.4300723
0.43007198
0.41382115
0.41382145
0.41382185
0.41382236
0.41382302
0.41382384
0.41382482
0.41382601
0.41382761
0.41382997
0.41383275
0.41383494
0.41383494
0.41383275
0.41382997
0.41382761
0.41382601
0.41382482
0.41382384
0.41382302
0.41382236
0.41382184
0.41382144
0.41382115
0.39757304
0.39757331
0.39757369
0.39757416
0.39757478
0.39757554
0.39757646
0.39757756
0.39757904
0.3975812
0.39758377
0.39758578
0.39758578
0.39758377
0.3975812
0.39757904
0.39757756
0.39757646
0.39757554
0.39757478
0.39757416
0.39757368
0.39757331
0.39757303
0.38132744
0.3813277
0.38132805
0.3813285
0.38132907
0.38132979
0.38133064
0.38133166
0.38133303
0.38133503
0.3813374
0.38133925
0.38133925
0.3813374
0.38133503
0.38133303
0.38133167
0.38133064
0.38132979
0.38132907
0.38132849
0.38132804
0.3813277
0.38132744
0.3650842
0.36508444
0.36508477
0.36508519
0.36508573
0.3650864
0.36508719
0.36508815
0.36508941
0.36509126
0.36509347
0.36509517
0.36509517
0.36509347
0.36509126
0.36508942
0.36508815
0.36508719
0.36508639
0.36508572
0.36508518
0.36508476
0.36508444
0.3650842
0.34884315
0.34884338
0.34884368
0.34884408
0.34884458
0.34884521
0.34884595
0.34884685
0.34884802
0.34884973
0.34885178
0.34885336
0.34885336
0.34885178
0.34884973
0.34884802
0.34884685
0.34884595
0.3488452
0.34884458
0.34884407
0.34884368
0.34884337
0.34884315
0.33260415
0.33260436
0.33260465
0.33260502
0.33260549
0.33260608
0.33260678
0.33260761
0.33260871
0.33261029
0.3326122
0.33261367
0.33261367
0.3326122
0.33261029
0.33260871
0.33260761
0.33260677
0.33260607
0.33260549
0.33260501
0.33260464
0.33260436
0.33260414
0.31636706
0.31636726
0.31636753
0.31636787
0.31636832
0.31636887
0.31636953
0.31637031
0.31637133
0.3163728
0.31637459
0.31637595
0.31637595
0.31637459
0.3163728
0.31637133
0.31637031
0.31636953
0.31636887
0.31636831
0.31636787
0.31636752
0.31636725
0.31636706
0.30013176
0.30013195
0.3001322
0.30013253
0.30013295
0.30013347
0.30013408
0.30013481
0.30013577
0.30013714
0.30013881
0.30014008
0.30014008
0.30013881
0.30013714
0.30013577
0.30013481
0.30013408
0.30013346
0.30013294
0.30013253
0.3001322
0.30013195
0.30013176
0.28389815
0.28389832
0.28389856
0.28389887
0.28389926
0.28389975
0.28390033
0.28390102
0.28390191
0.28390319
0.28390475
0.28390593
0.28390593
0.28390475
0.28390318
0.2839019
0.28390101
0.28390033
0.28389975
0.28389926
0.28389887
0.28389856
0.28389832
0.28389815
0.26766611
0.26766627
0.2676665
0.26766678
0.26766716
0.26766762
0.26766816
0.26766881
0.26766964
0.26767084
0.2676723
0.26767341
0.26767341
0.2676723
0.26767083
0.26766964
0.2676688
0.26766816
0.26766761
0.26766716
0.26766679
0.2676665
0.26766628
0.26766611
0.25143555
0.25143571
0.25143592
0.25143619
0.25143654
0.25143697
0.25143748
0.25143809
0.25143887
0.25143999
0.25144136
0.25144239
0.25144239
0.25144136
0.25143998
0.25143887
0.25143809
0.25143748
0.25143697
0.25143654
0.25143619
0.25143593
0.25143572
0.25143556
0.23520638
0.23520653
0.23520673
0.23520698
0.23520731
0.23520772
0.23520821
0.23520878
0.23520951
0.23521056
0.23521185
0.23521282
0.23521282
0.23521185
0.23521055
0.2352095
0.23520877
0.2352082
0.23520772
0.23520732
0.235207
0.23520674
0.23520655
0.2352064
0.21897853
0.21897867
0.21897885
0.21897909
0.2189794
0.21897979
0.21898025
0.21898078
0.21898147
0.21898245
0.21898366
0.21898457
0.21898457
0.21898366
0.21898244
0.21898146
0.21898077
0.21898024
0.21897979
0.21897942
0.21897911
0.21897888
0.21897869
0.21897856
0.2027519
0.20275203
0.20275221
0.20275244
0.20275273
0.20275309
0.20275352
0.20275403
0.20275468
0.2027556
0.20275674
0.20275759
0.20275759
0.20275674
0.20275559
0.20275466
0.20275402
0.20275352
0.2027531
0.20275275
0.20275247
0.20275224
0.20275207
0.20275194
0.18652644
0.18652657
0.18652673
0.18652695
0.18652722
0.18652757
0.18652797
0.18652845
0.18652906
0.18652992
0.18653099
0.18653178
0.18653178
0.18653098
0.1865299
0.18652904
0.18652844
0.18652797
0.18652758
0.18652725
0.18652698
0.18652678
0.18652662
0.1865265
0.17030207
0.17030219
0.17030235
0.17030255
0.17030281
0.17030313
0.17030352
0.17030397
0.17030454
0.17030535
0.17030637
0.17030711
0.17030711
0.17030635
0.17030533
0.17030452
0.17030395
0.17030352
0.17030315
0.17030285
0.1703026
0.1703024
0.17030225
0.17030214
0.15407874
0.15407885
0.154079
0.15407919
0.15407944
0.15407974
0.15408011
0.15408053
0.15408107
0.15408182
0.15408277
0.15408346
0.15408346
0.15408275
0.1540818
0.15408104
0.15408051
0.15408011
0.15407977
0.15407948
0.15407925
0.15407907
0.15407893
0.15407883
0.13785638
0.13785648
0.13785662
0.1378568
0.13785703
0.13785732
0.13785766
0.13785806
0.13785857
0.13785928
0.13786018
0.13786083
0.13786083
0.13786016
0.13785926
0.13785854
0.13785804
0.13785767
0.13785735
0.13785709
0.13785688
0.13785671
0.13785658
0.13785648
0.12163495
0.12163505
0.12163518
0.12163535
0.12163557
0.12163584
0.12163616
0.12163654
0.12163701
0.12163767
0.12163848
0.12163908
0.12163908
0.12163846
0.12163763
0.12163697
0.12163651
0.12163617
0.12163588
0.12163564
0.12163544
0.12163529
0.12163517
0.12163508
0.10541436
0.10541446
0.10541458
0.10541474
0.10541495
0.10541521
0.10541551
0.10541587
0.10541631
0.10541692
0.10541769
0.10541825
0.10541824
0.10541767
0.10541689
0.10541627
0.10541584
0.10541552
0.10541526
0.10541504
0.10541486
0.10541471
0.1054146
0.10541452
0.089194647
0.089194735
0.089194854
0.089195008
0.089195205
0.089195448
0.089195735
0.089196065
0.089196468
0.089197009
0.089197664
0.089198132
0.089198124
0.08919764
0.089196967
0.08919642
0.089196035
0.089195744
0.089195506
0.089195307
0.089195143
0.089195006
0.089194903
0.089194824
0.072975641
0.072975724
0.072975836
0.072975981
0.072976169
0.072976403
0.072976678
0.072976992
0.072977368
0.072977865
0.072978451
0.072978849
0.072978841
0.072978425
0.072977818
0.072977315
0.072976959
0.07297669
0.07297647
0.072976286
0.072976134
0.072976006
0.072975911
0.072975838
0.05675752
0.0567576
0.056757709
0.056757847
0.056758023
0.056758238
0.05675849
0.056758773
0.056759094
0.05675947
0.05675985
0.056760066
0.056760058
0.056759823
0.056759422
0.056759038
0.056758739
0.056758504
0.056758312
0.056758149
0.05675801
0.05675789
0.056757798
0.056757727
0.040539732
0.040539803
0.040539901
0.040540031
0.040540207
0.040540431
0.040540695
0.040540986
0.04054131
0.040541718
0.040542189
0.040542499
0.040542492
0.040542164
0.04054167
0.040541254
0.040540951
0.040540711
0.040540507
0.040540335
0.040540196
0.040540081
0.040539998
0.040539935
0.024323462
0.024323545
0.024323653
0.024323781
0.024323928
0.024324089
0.024324261
0.024324442
0.024324607
0.024324686
0.024324602
0.024324374
0.024324368
0.024324579
0.024324643
0.024324558
0.024324415
0.02432428
0.024324161
0.024324044
0.024323925
0.024323808
0.024323709
0.024323631
0.0081053675
0.0081054378
0.0081055306
0.0081056519
0.0081058127
0.008106012
0.0081062323
0.0081064707
0.0081068477
0.0081076836
0.0081091642
0.0081105346
0.0081105313
0.0081091513
0.0081076578
0.0081068178
0.0081064561
0.008106249
0.0081060628
0.0081058893
0.0081057429
0.0081056254
0.0081055358
0.0081054664
)
;

boundaryField
{
    INLET
    {
        type            zeroGradient;
    }
    OUTLET
    {
        type            fixedValue;
        value           uniform 0;
    }
    WALL
    {
        type            zeroGradient;
    }
    frontAndBackPlanes
    {
        type            empty;
    }
}


// ************************************************************************* //
