/*--------------------------------*- C++ -*----------------------------------*\
| =========                 |                                                 |
| \\      /  F ield         | OpenFOAM: The Open Source CFD Toolbox           |
|  \\    /   O peration     | Version:  2406                                  |
|   \\  /    A nd           | Website:  www.openfoam.com                      |
|    \\/     M anipulation  |                                                 |
\*---------------------------------------------------------------------------*/
FoamFile
{
    version     2.0;
    format      ascii;
    arch        "LSB;label=32;scalar=64";
    class       surfaceScalarField;
    location    "38";
    object      phi;
}
// * * * * * * * * * * * * * * * * * * * * * * * * * * * * * * * * * * * * * //

dimensions      [0 3 -1 0 0 0 0];

oriented        oriented;

internalField   nonuniform List<scalar> 
2279
(
2.3617549e-08
1.0148926e-05
2.0509779e-07
4.982375e-05
6.9331785e-07
0.00014252872
1.5784719e-06
0.00034353082
2.6788481e-06
0.00075378089
3.3472915e-06
0.0015415573
3.0435198e-06
0.0029497096
2.1516837e-06
0.005249171
1.4318035e-06
0.008582269
9.8959261e-07
0.012685995
5.1266989e-07
0.016666385
4.6686725e-12
0.01918202
-5.1266247e-07
0.01918202
-9.8959582e-07
0.016666385
-1.4318384e-06
0.012685995
-2.1517996e-06
0.0085822691
-3.0437766e-06
0.0052491711
-3.347718e-06
0.0029497098
-2.6793966e-06
0.0015415574
-1.5790291e-06
0.00075378095
-6.9377177e-07
0.00034353084
-2.053848e-07
0.00014252872
-2.3740971e-08
4.982375e-05
1.0148927e-05
-9.5248419e-08
1.0244175e-05
-5.3793998e-07
5.0266441e-05
-1.6230011e-06
0.00014361378
-3.5389524e-06
0.00034544677
-5.9201869e-06
0.00075616213
-7.4055035e-06
0.0015430426
-6.5847293e-06
0.0029488888
-3.9361623e-06
0.0052465224
-1.3883909e-06
0.0085797213
-6.5118372e-08
0.012684671
2.4241257e-07
0.016666078
1.3755638e-11
0.019182263
-2.4237939e-07
0.019182263
6.516027e-08
0.016666078
1.3884447e-06
0.012684671
3.9362307e-06
0.0085797212
6.5848363e-06
0.0052465224
7.4056782e-06
0.0029488888
5.9204134e-06
0.0015430426
3.5391732e-06
0.0007561621
1.6231646e-06
0.00034544676
5.380338e-07
0.00014361378
9.5282923e-08
5.0266439e-05
1.0244174e-05
5.0139885e-08
1.0194035e-05
2.6334506e-07
5.0053236e-05
7.4910723e-07
0.00014312802
1.5314583e-06
0.00034466442
2.3366552e-06
0.00075535693
2.5476604e-06
0.0015428316
1.839093e-06
0.0029495974
9.756699e-07
0.0052473859
6.7695289e-07
0.00858002
6.7178157e-07
0.012684677
4.8416072e-07
0.016666266
-1.3773491e-12
0.019182747
-4.84167e-07
0.019182747
-6.7179852e-07
0.016666266
-6.769866e-07
0.012684677
-9.7571913e-07
0.00858002
-1.83914e-06
0.0052473859
-2.5476928e-06
0.0029495974
-2.3366706e-06
0.0015428316
-1.531454e-06
0.00075535694
-7.4909176e-07
0.00034466443
-2.6332673e-07
0.00014312802
-5.012899e-08
5.0053238e-05
1.0194035e-05
1.9586764e-08
1.0174448e-05
1.1184934e-07
4.9960974e-05
3.6128434e-07
0.00014287858
9.050477e-07
0.00034412066
1.8716593e-06
0.00075439032
3.0948218e-06
0.0015416085
3.8987204e-06
0.0029487935
3.7285497e-06
0.005247556
2.9242044e-06
0.0085808243
1.9733698e-06
0.012685627
1.0127699e-06
0.016667226
4.9685355e-12
0.01918376
-1.0127616e-06
0.01918376
-1.9733658e-06
0.016667226
-2.9242011e-06
0.012685627
-3.7285418e-06
0.0085808243
-3.8987078e-06
0.005247556
-3.094803e-06
0.0029487935
-1.8716417e-06
0.0015416085
-9.0503933e-07
0.00075439032
-3.6128439e-07
0.00034412066
-1.1184892e-07
0.00014287858
-1.9586463e-08
4.9960974e-05
1.0174448e-05
8.0839173e-09
1.0166364e-05
4.7141407e-08
4.9921916e-05
1.5494669e-07
0.00014277078
3.9846276e-07
0.00034387714
8.797937e-07
0.00075390899
1.7015142e-06
0.0015407867
2.7512711e-06
0.0029477437
3.4623555e-06
0.0052468449
3.4708551e-06
0.0085808158
2.8006815e-06
0.012686298
1.550514e-06
0.016668476
3.8422144e-12
0.01918531
-1.5505092e-06
0.01918531
-2.8006845e-06
0.016668476
-3.470865e-06
0.012686298
-3.462351e-06
0.0085808158
-2.7512419e-06
0.0052468449
-1.7014645e-06
0.0029477437
-8.7973615e-07
0.0015407867
-3.9841236e-07
0.00075390898
-1.5491145e-07
0.00034387714
-4.7119254e-08
0.00014277078
-8.0744621e-09
4.9921916e-05
1.0166364e-05
4.9358443e-09
1.0161429e-05
2.8698765e-08
4.9898153e-05
9.5121195e-08
0.00014270436
2.4921387e-07
0.00034372305
5.6360834e-07
0.00075359459
1.1213727e-06
0.001540229
1.9184535e-06
0.0029469467
2.6588145e-06
0.0052461046
2.8930521e-06
0.0085805816
2.4787607e-06
0.012686712
1.4344229e-06
0.016669521
-1.3615751e-12
0.019186745
-1.4344293e-06
0.019186745
-2.4787745e-06
0.016669521
-2.8930665e-06
0.012686712
-2.6588189e-06
0.0085805816
-1.9184376e-06
0.0052461046
-1.1213405e-06
0.0029469467
-5.6357133e-07
0.001540229
-2.4918176e-07
0.00075359459
-9.5098683e-08
0.00034372305
-2.8684315e-08
0.00014270436
-4.9294876e-09
4.9898153e-05
1.0161429e-05
4.4123298e-09
1.0157016e-05
2.552558e-08
4.987704e-05
8.3829855e-08
0.00014264605
2.168936e-07
0.00034358999
4.8449996e-07
0.00075332698
9.5635854e-07
0.0015397571
1.6413699e-06
0.0029462616
2.3245773e-06
0.0052454214
2.5939478e-06
0.0085803122
2.2393582e-06
0.012687066
1.3066701e-06
0.016670453
-3.6309765e-12
0.019188051
-1.3066799e-06
0.019188051
-2.2393717e-06
0.016670453
-2.5939572e-06
0.012687066
-2.3245744e-06
0.0085803122
-1.641351e-06
0.0052454214
-9.5632994e-07
0.0029462616
-4.8447097e-07
0.0015397571
-2.1687035e-07
0.00075332698
-8.3814439e-08
0.00034358999
-2.5515979e-08
0.00014264605
-4.4081791e-09
4.987704e-05
1.0157016e-05
3.6254713e-09
1.0153391e-05
2.1036405e-08
4.9859629e-05
6.9437706e-08
0.00014259765
1.811407e-07
0.00034347828
4.0971295e-07
0.00075309841
8.2390155e-07
0.0015393429
1.4539891e-06
0.0029456316
2.1430718e-06
0.0052447323
2.4674698e-06
0.0085799878
2.1883911e-06
0.012687346
1.2866409e-06
0.016671355
-2.9576652e-12
0.019189338
-1.2866484e-06
0.019189338
-2.1883999e-06
0.016671355
-2.4674736e-06
0.012687346
-2.1430642e-06
0.0085799878
-1.4539705e-06
0.0052447323
-8.2387718e-07
0.0029456316
-4.0968935e-07
0.0015393429
-1.8112198e-07
0.00075309841
-6.9425244e-08
0.00034347828
-2.1028742e-08
0.00014259765
-3.6221935e-09
4.9859629e-05
1.0153391e-05
2.9830071e-09
1.0150408e-05
1.7346682e-08
4.9845265e-05
5.7376672e-08
0.00014255762
1.5007276e-07
0.00034338559
3.4096945e-07
0.00075290751
6.9192938e-07
0.001538992
1.2441058e-06
0.0029450794
1.9041834e-06
0.0052440722
2.301599e-06
0.0085795904
2.0975079e-06
0.01268755
1.2520105e-06
0.016672201
-1.7632634e-12
0.01919059
-1.2520149e-06
0.01919059
-2.0975126e-06
0.016672201
-2.3015993e-06
0.01268755
-1.9041758e-06
0.0085795904
-1.2440914e-06
0.0052440722
-6.9191182e-07
0.0029450794
-3.4095299e-07
0.001538992
-1.5005988e-07
0.00075290751
-5.7368107e-08
0.00034338559
-1.7341432e-08
0.00014255762
-2.9807578e-09
4.9845265e-05
1.0150408e-05
2.4652652e-09
1.0147942e-05
1.4362721e-08
4.9833367e-05
4.7625754e-08
0.00014252436
1.2502747e-07
0.00034330818
2.8558714e-07
0.00075274695
5.8417706e-07
0.0015386934
1.0641818e-06
0.0029445994
1.664156e-06
0.0052434722
2.0898741e-06
0.0085791647
1.9528956e-06
0.012687687
1.180246e-06
0.016672973
-5.8579706e-13
0.01919177
-1.1802476e-06
0.01919177
-1.952897e-06
0.016672973
-2.0898724e-06
0.012687687
-1.6641497e-06
0.0085791647
-1.0641714e-06
0.0052434722
-5.8416502e-07
0.0029445994
-2.8557609e-07
0.0015386934
-1.2501889e-07
0.00075274695
-4.762005e-08
0.00034330818
-1.4359219e-08
0.00014252436
-2.4637597e-09
4.9833367e-05
1.0147942e-05
2.1022885e-09
1.014584e-05
1.2257672e-08
4.9823212e-05
4.0687563e-08
0.00014249593
1.0698904e-07
0.00034324188
2.4507676e-07
0.00075260886
5.0385079e-07
0.0015384346
9.2623246e-07
0.002944177
1.4715097e-06
0.0052429269
1.8909084e-06
0.0085787453
1.8050241e-06
0.012687772
1.1036918e-06
0.016673675
9.2780859e-15
0.019192874
-1.103692e-06
0.019192874
-1.8050243e-06
0.016673675
-1.8909068e-06
0.012687772
-1.4715052e-06
0.0085787453
-9.2622538e-07
0.005242927
-5.0384257e-07
0.002944177
-2.4506905e-07
0.0015384346
-1.0698286e-07
0.00075260887
-4.0683337e-08
0.00034324188
-1.2255005e-08
0.00014249593
-2.1011208e-09
4.9823212e-05
1.014584e-05
1.8280945e-09
1.0144011e-05
1.0665157e-08
4.9814374e-05
3.5429696e-08
0.00014247116
9.3281988e-08
0.00034318403
2.1413765e-07
0.00075248801
4.4192562e-07
0.0015382068
8.181115e-07
0.0029438008
1.3163792e-06
0.0052424287
1.724494e-06
0.0085783372
1.6780443e-06
0.012687819
1.0378063e-06
0.016674315
2.1751811e-13
0.019193912
-1.0378062e-06
0.019193912
-1.6780446e-06
0.016674315
-1.7244935e-06
0.012687819
-1.3163768e-06
0.0085783372
-8.1810693e-07
0.0052424287
-4.4191975e-07
0.0029438008
-2.1413167e-07
0.0015382068
-9.3276866e-08
0.00075248801
-3.5426029e-08
0.00034318403
-1.0662726e-08
0.00014247116
-1.8270002e-09
4.9814374e-05
1.0144011e-05
1.6103737e-09
1.0142401e-05
9.3993901e-09
4.9806585e-05
3.1243926e-08
0.00014244932
8.2339568e-08
0.00034313293
1.8931944e-07
0.00075238103
3.9182143e-07
0.0015380043
7.2923982e-07
0.0029434634
1.1851444e-06
0.0052419728
1.5781753e-06
0.0085779441
1.5623407e-06
0.012687835
9.7669964e-07
0.0166749
1.5929388e-13
0.019194888
-9.7669972e-07
0.019194888
-1.5623415e-06
0.0166749
-1.5781759e-06
0.012687835
-1.1851434e-06
0.0085779442
-7.292366e-07
0.0052419728
-3.9181638e-07
0.0029434634
-1.893137e-07
0.0015380043
-8.2334333e-08
0.00075238103
-3.1240057e-08
0.00034313293
-9.3967288e-09
0.00014244932
-1.6091545e-09
4.9806585e-05
1.0142401e-05
1.4322225e-09
1.0140969e-05
8.3628085e-09
4.9799655e-05
2.7812255e-08
0.00014242987
7.3352184e-08
0.00034308739
1.6886791e-07
0.00075228551
3.5026693e-07
0.0015378229
6.5458193e-07
0.0029431591
1.0720584e-06
0.0052415553
1.4464335e-06
0.0085775698
1.4548772e-06
0.012687826
9.1881055e-07
0.016675437
-1.3435021e-13
0.019195807
-9.1881124e-07
0.019195807
-1.4548787e-06
0.016675437
-1.446435e-06
0.012687826
-1.0720582e-06
0.0085775698
-6.5457898e-07
0.0052415553
-3.5026145e-07
0.0029431591
-1.6886127e-07
0.0015378229
-7.334597e-08
0.00075228551
-2.7807626e-08
0.00034308739
-8.359584e-09
0.00014242987
-1.430739e-09
4.9799655e-05
1.0140969e-05
1.284935e-09
1.0139684e-05
7.5049358e-09
4.9793434e-05
2.4968612e-08
0.0001424124
6.5890755e-08
0.00034304647
1.5183756e-07
0.00075219957
3.1548482e-07
0.0015376593
5.9149614e-07
0.0029428831
9.7478665e-07
0.005241172
1.3297048e-06
0.0085772149
1.3567877e-06
0.012687799
8.6525256e-07
0.016675928
-5.6278193e-13
0.019196672
-8.6525414e-07
0.019196672
-1.3567901e-06
0.016675928
-1.3297071e-06
0.012687799
-9.7478674e-07
0.0085772149
-5.9149269e-07
0.005241172
-3.1547805e-07
0.0029428831
-1.5182927e-07
0.0015376593
-6.5883006e-08
0.00075219957
-2.4962865e-08
0.00034304647
-7.5009367e-09
0.0001424124
-1.2830981e-09
4.9793434e-05
1.0139684e-05
1.1614442e-09
1.0138522e-05
6.7851194e-09
4.9787811e-05
2.2580331e-08
0.00014239661
5.9615216e-08
0.00034300944
1.3748088e-07
0.0007521217
2.8604648e-07
0.0015375107
5.3771095e-07
0.0029426314
8.9070604e-07
0.005240819
1.2263978e-06
0.0085768792
1.2674899e-06
0.012687758
8.1592676e-07
0.01667638
-1.053719e-12
0.019197488
-8.1592933e-07
0.019197488
-1.2674933e-06
0.01667638
-1.2264006e-06
0.012687758
-8.9070603e-07
0.0085768792
-5.3770645e-07
0.005240819
-2.8603785e-07
0.0029426314
-1.3747044e-07
0.0015375107
-5.9605554e-08
0.0007521217
-2.2573219e-08
0.00034300944
-6.7801951e-09
0.00014239661
-1.1591892e-09
4.9787811e-05
1.0138522e-05
1.0561266e-09
1.0137466e-05
6.1709456e-09
4.9782696e-05
2.0541296e-08
0.00014238224
5.4252046e-08
0.00034297572
1.251907e-07
0.00075205076
2.6076795e-07
0.0015373751
4.9125178e-07
0.0029424009
8.172252e-07
0.005240493
1.1341836e-06
0.0085765622
1.1857905e-06
0.012687707
7.7021434e-07
0.016676795
-1.5379621e-12
0.019198259
-7.7021785e-07
0.019198259
-1.1857946e-06
0.016676795
-1.1341868e-06
0.012687707
-8.1722481e-07
0.0085765622
-4.9124587e-07
0.005240493
-2.6075708e-07
0.0029424009
-1.2517776e-07
0.0015373751
-5.4240199e-08
0.00075205076
-2.0532631e-08
0.00034297572
-6.164978e-09
0.00014238224
-1.0534015e-09
4.9782696e-05
1.0137466e-05
9.6514331e-10
1.0136501e-05
5.6401671e-09
4.9778021e-05
1.8778263e-08
0.0001423691
4.9611214e-08
0.00034294489
1.1454158e-07
0.00075198583
2.388109e-07
0.0015372509
4.5070391e-07
0.002942189
7.5248263e-07
0.0052401913
1.0514995e-06
0.0085762632
1.1108311e-06
0.012687647
7.2768772e-07
0.016677178
-1.9662906e-12
0.019198986
-7.2769208e-07
0.019198986
-1.1108359e-06
0.016677178
-1.051503e-06
0.012687647
-7.524817e-07
0.0085762632
-4.5069637e-07
0.0052401913
-2.3879753e-07
0.002942189
-1.1452591e-07
0.0015372509
-4.9596981e-08
0.00075198583
-1.8767905e-08
0.00034294489
-5.6330662e-09
0.0001423691
-9.6190843e-10
4.9778021e-05
1.0136501e-05
8.8581168e-10
1.0135615e-05
5.1772139e-09
4.9773729e-05
1.7239843e-08
0.00014235704
4.555884e-08
0.00034291657
1.0523207e-07
0.00075192616
2.1957622e-07
0.0015371365
4.1504189e-07
0.0029419936
6.9508861e-07
0.0052399112
9.7709345e-07
0.0085759812
1.0418664e-06
0.012687582
6.880037e-07
0.016677532
-2.3217275e-12
0.019199674
-6.8800877e-07
0.019199674
-1.0418719e-06
0.016677532
-9.7709714e-07
0.012687582
-6.9508704e-07
0.0085759812
-4.1503257e-07
0.0052399112
-2.1956019e-07
0.0029419936
-1.0521351e-07
0.0015371365
-4.5542086e-08
0.00075192616
-1.72277e-08
0.00034291657
-5.1689221e-09
0.00014235704
-8.820421e-10
4.9773729e-05
1.0135615e-05
8.1603439e-10
1.0134799e-05
4.7699217e-09
4.9769775e-05
1.5885911e-08
0.00014234592
4.199041e-08
0.00034289047
9.7026501e-08
0.00075187112
2.0259307e-07
0.0015370309
3.8344817e-07
0.0029418127
6.438947e-07
0.0052396508
9.0984163e-07
0.0085757152
9.7823466e-07
0.012687514
6.5086461e-07
0.01667786
-2.6087022e-12
0.019200325
-6.5087027e-07
0.019200325
-9.7824064e-07
0.01667786
-9.0984549e-07
0.012687514
-6.4389242e-07
0.0085757152
-3.8343698e-07
0.0052396508
-2.0257427e-07
0.0029418127
-9.7004944e-08
0.0015370309
-4.1971075e-08
0.00075187112
-1.5871951e-08
0.00034289047
-4.7604238e-09
0.00014234592
-8.1172505e-10
4.9769776e-05
1.0134799e-05
7.5416162e-10
1.0134045e-05
4.4087057e-09
4.9766121e-05
1.4684809e-08
0.00014233564
3.8823322e-08
0.00034286633
8.9738066e-08
0.00075182021
1.8748622e-07
0.0015369332
3.5526434e-07
0.0029416449
5.9795701e-07
0.0052394081
8.4878696e-07
0.0085754644
9.1936522e-07
0.012687443
6.1600861e-07
0.016678163
-2.841203e-12
0.019200941
-6.1601478e-07
0.019200941
-9.1937171e-07
0.016678163
-8.4879096e-07
0.012687443
-5.9795399e-07
0.0085754644
-3.5525125e-07
0.0052394081
-1.8746463e-07
0.0029416449
-8.971353e-08
0.0015369332
-3.8801446e-08
0.00075182021
-1.4669077e-08
0.00034286633
-4.398041e-09
0.00014233564
-7.4933311e-10
4.9766121e-05
1.0134045e-05
6.9890658e-10
1.0133346e-05
4.0860755e-09
4.9762734e-05
1.3611752e-08
0.00014232612
3.5992758e-08
0.00034284395
8.3219674e-08
0.00075177298
1.7395856e-07
0.0015368425
3.299639e-07
0.0029414889
5.5650576e-07
0.0052391815
7.9311906e-07
0.0085752278
8.6476665e-07
0.012687372
5.8322968e-07
0.016678444
-3.0252569e-12
0.019201524
-5.8323628e-07
0.019201524
-8.647736e-07
0.016678444
-7.9312318e-07
0.012687372
-5.5650197e-07
0.0085752278
-3.299489e-07
0.0052391815
-1.7393424e-07
0.0029414889
-8.3192302e-08
0.0015368425
-3.5968507e-08
0.00075177298
-1.3594391e-08
0.00034284395
-4.0743526e-09
0.00014232612
-6.9361138e-10
4.9762734e-05
1.0133346e-05
6.4925517e-10
1.0132697e-05
3.7961226e-09
4.9759587e-05
1.2647172e-08
0.00014231727
3.3447461e-08
0.00034282315
7.735475e-08
0.00075172907
1.6177374e-07
0.001536758
3.0712528e-07
0.0029413436
5.1891774e-07
0.0052389697
7.4217112e-07
0.0085750045
8.1401242e-07
0.0126873
5.5234072e-07
0.016678706
-3.1567732e-12
0.019202077
-5.5234766e-07
0.019202077
-8.1401976e-07
0.016678706
-7.4217529e-07
0.0126873
-5.1891316e-07
0.0085750045
-3.0710845e-07
0.0052389697
-1.6174691e-07
0.0029413436
-7.7324854e-08
0.001536758
-3.3421166e-08
0.00075172907
-1.2628445e-08
0.00034282315
-3.7835355e-09
0.00014231727
-6.4358519e-10
4.9759587e-05
1.0132697e-05
6.0439467e-10
1.0132092e-05
3.5341108e-09
4.9756657e-05
1.1775373e-08
0.00014230903
3.1146275e-08
0.00034280378
7.2049518e-08
0.00075168817
1.5074101e-07
0.0015366793
2.8640606e-07
0.0029412079
4.846798e-07
0.0052387715
6.9537911e-07
0.0085747938
7.6674257e-07
0.012687229
5.23203e-07
0.01667895
-3.2239582e-12
0.0192026
-5.2321015e-07
0.0192026
-7.6675018e-07
0.01667895
-6.9538324e-07
0.012687229
-4.8467442e-07
0.0085747938
-2.8638756e-07
0.0052387715
-1.5071208e-07
0.0029412079
-7.2017638e-08
0.0015366793
-3.1118475e-08
0.00075168817
-1.1755697e-08
0.00034280378
-3.5209591e-09
0.00014230903
-5.9849015e-10
4.9756657e-05
1.0132092e-05
5.6366688e-10
1.0131528e-05
3.2962052e-09
4.9753925e-05
1.0983643e-08
0.00014230134
2.9055852e-08
0.0003427857
6.7227903e-08
0.00075165
1.4070531e-07
0.0015366059
2.675268e-07
0.0029410811
4.5337045e-07
0.0052385856
6.5227411e-07
0.0085745949
7.2263519e-07
0.012687158
4.9567293e-07
0.016679177
-3.2080984e-12
0.019203096
-4.9568014e-07
0.019203096
-7.2264291e-07
0.016679177
-6.5227809e-07
0.012687158
-4.5336429e-07
0.0085745949
-2.6750696e-07
0.0052385856
-1.4067491e-07
0.0029410811
-6.7194861e-08
0.0015366059
-2.902734e-08
0.00075165
-1.096362e-08
0.0003427857
-3.2829163e-09
0.00014230134
-5.577263e-10
4.9753925e-05
1.0131528e-05
5.2653229e-10
1.0131002e-05
3.0792637e-09
4.9751372e-05
1.0261561e-08
0.00014229416
2.7148836e-08
0.00034276882
6.282742e-08
0.00075161432
1.3153895e-07
0.0015365372
2.5025613e-07
0.0029409624
4.246361e-07
0.0052384112
6.1245196e-07
0.0085744071
6.8142244e-07
0.012687089
4.6965657e-07
0.016679388
-3.090073e-12
0.019203565
-4.6966361e-07
0.019203565
-6.8143005e-07
0.016679388
-6.1245563e-07
0.012687089
-4.2462925e-07
0.0085744071
-2.5023546e-07
0.0052384112
-1.3150803e-07
0.0029409624
-6.2794386e-08
0.0015365372
-2.7120717e-08
0.00075161432
-1.0242018e-08
0.00034276882
-3.0664172e-09
0.00014229416
-5.2082335e-10
4.9751372e-05
1.0131002e-05
4.9254573e-10
1.0130509e-05
2.8806937e-09
4.9748984e-05
9.6005331e-09
0.00014228744
2.5402653e-08
0.00034275301
5.8796492e-08
0.00075158092
1.2313642e-07
0.0015364728
2.3440261e-07
0.0029408511
3.9818378e-07
0.0052382475
5.7557615e-07
0.0085742297
6.4285216e-07
0.012687022
4.4503257e-07
0.016679586
-2.8482965e-12
0.01920401
-4.4503918e-07
0.01920401
-6.4285939e-07
0.016679586
-5.7557934e-07
0.012687022
-3.9817642e-07
0.0085742297
-2.3438187e-07
0.0052382475
-1.231063e-07
0.0029408511
-5.8765047e-08
0.0015364728
-2.5376398e-08
0.00075158092
-9.5825573e-09
0.00034275301
-2.8690475e-09
0.00014228744
-4.8741692e-10
4.9748984e-05
1.0130509e-05
4.6133502e-10
1.0130048e-05
2.6983286e-09
4.9746746e-05
8.9933709e-09
0.00014228114
2.3798418e-08
0.00034273821
5.5091895e-08
0.00075154963
1.1540909e-07
0.0015364125
2.1980446e-07
0.0029407467
3.737621e-07
0.0052380935
5.4134916e-07
0.0085740621
6.0672411e-07
0.012686957
4.2174139e-07
0.016679771
-2.4607864e-12
0.019204432
-4.2174727e-07
0.019204432
-6.0673065e-07
0.016679771
-5.4135171e-07
0.012686957
-3.7375453e-07
0.0085740621
-2.1978468e-07
0.0052380935
-1.1538153e-07
0.0029407467
-5.50641e-08
0.0015364125
-2.3775918e-08
0.00075154963
-8.9783536e-09
0.00034273821
-2.6888455e-09
0.00014228114
-4.572276e-10
4.9746746e-05
1.0130048e-05
4.3258735e-10
1.0129615e-05
2.5303456e-09
4.9744649e-05
8.4340282e-09
0.00014227524
2.2320247e-08
0.00034272432
5.167731e-08
0.00075152027
1.0828252e-07
0.0015363559
2.063259e-07
0.0029406487
3.5116103e-07
0.0052379487
5.0952286e-07
0.0085739038
5.7283052e-07
0.012686893
3.9966847e-07
0.016679944
-1.9060791e-12
0.019204832
-3.9967325e-07
0.019204832
-5.7283598e-07
0.016679944
-5.0952457e-07
0.012686893
-3.5115365e-07
0.0085739038
-2.0630846e-07
0.0052379487
-1.0825977e-07
0.0029406487
-5.1655771e-08
0.0015363559
-2.2303875e-08
0.00075152027
-8.4237038e-09
0.00034272432
-2.5242205e-09
0.00014227524
-4.3004753e-10
4.9744649e-05
1.0129615e-05
4.0603737e-10
1.0129209e-05
2.3751994e-09
4.9742679e-05
7.9173755e-09
0.0001422697
2.0954642e-08
0.00034271129
4.8521778e-08
0.00075149271
1.01693e-07
0.0015363027
1.9384992e-07
0.0029405565
3.3019597e-07
0.0052378123
4.798722e-07
0.0085737541
5.4102476e-07
0.012686832
3.7878602e-07
0.016680107
-1.1589568e-12
0.01920521
-3.7878927e-07
0.01920521
-5.4102869e-07
0.016680107
-4.7987288e-07
0.012686832
-3.3018934e-07
0.0085737541
-1.9383654e-07
0.0052378123
-1.0167785e-07
0.0029405565
-4.8509707e-08
0.0015363027
-2.0947306e-08
0.0007514927
-7.9138624e-09
0.00034271129
-2.3738865e-09
0.0001422697
-4.0572854e-10
4.9742679e-05
1.0129209e-05
3.8145777e-10
1.0128828e-05
2.2315617e-09
4.9740829e-05
7.4390035e-09
0.00014226449
1.9690024e-08
0.00034269903
4.559883e-08
0.0007514668
9.5586231e-08
0.0015362527
1.822771e-07
0.0029404698
3.1071174e-07
0.0052376839
4.5220875e-07
0.0085736126
5.1112362e-07
0.012686773
3.5897281e-07
0.016680259
-1.8969048e-13
0.019205569
-3.5897402e-07
0.019205569
-5.1112545e-07
0.016680259
-4.5220814e-07
0.012686773
-3.1070655e-07
0.0085736126
-1.822699e-07
0.0052376839
-9.5582084e-08
0.0029404698
-4.5600114e-08
0.0015362527
-1.9695226e-08
0.0007514668
-7.4448454e-09
0.00034269903
-2.2368019e-09
0.00014226449
-3.8417282e-10
4.9740829e-05
1.0128828e-05
3.5865506e-10
1.0128469e-05
2.0983052e-09
4.9739089e-05
6.9951662e-09
0.00014225959
1.8516507e-08
0.00034268751
4.28857e-08
0.00075144243
8.991515e-08
0.0015362057
1.7152045e-07
0.0029403882
2.925694e-07
0.0052375628
4.2635968e-07
0.0085734788
4.8302931e-07
0.012686717
3.4023676e-07
0.016680402
1.0390202e-12
0.01920591
-3.4023533e-07
0.01920591
-4.830284e-07
0.016680402
-4.2635751e-07
0.012686717
-2.9256649e-07
0.0085734788
-1.7152199e-07
0.0052375628
-8.9926068e-08
0.0029403882
-4.2904957e-08
0.0015362057
-1.8538396e-08
0.00075144243
-7.0133693e-09
0.00034268751
-2.1121515e-09
0.00014225959
-3.6532777e-10
4.9739089e-05
1.0128469e-05
3.3745809e-10
1.0128131e-05
1.974424e-09
4.9737452e-05
6.5825208e-09
0.00014225498
1.7425333e-08
0.00034267667
4.0362438e-08
0.00075141949
8.463889e-08
0.0015361614
1.6150492e-07
0.0029403113
2.7565058e-07
0.0052374487
4.021759e-07
0.0085733523
4.5656459e-07
0.012686662
3.2243528e-07
0.016680536
2.5701341e-12
0.019206232
-3.2243051e-07
0.019206232
-4.5656015e-07
0.016680536
-4.021718e-07
0.012686662
-2.7565093e-07
0.0085733523
-1.6151819e-07
0.0052374487
-8.4669654e-08
0.0029403113
-4.0405085e-08
0.0015361614
-1.7468762e-08
0.00075141949
-6.6165924e-09
0.00034267667
-1.9992662e-09
0.00014225498
-3.4917409e-10
4.9737452e-05
1.0128131e-05
3.1772513e-10
1.0127813e-05
1.8590952e-09
4.9735911e-05
6.1983278e-09
0.00014225064
1.6409219e-08
0.00034266646
3.80121e-08
0.00075139789
7.9722117e-08
0.0015361197
1.5216484e-07
0.0029402389
2.5984977e-07
0.005237341
3.7952676e-07
0.0085732326
4.3168475e-07
0.01268661
3.0562296e-07
0.016680662
4.4554143e-12
0.019206538
-3.0561401e-07
0.019206538
-4.3167583e-07
0.016680662
-3.7952031e-07
0.01268661
-2.5985454e-07
0.0085732326
-1.5219336e-07
0.005237341
-7.9778286e-08
0.0029402389
-3.8084413e-08
0.0015361197
-1.6479792e-08
0.00075139788
-6.2523128e-09
0.00034266646
-1.8976845e-09
0.00014225064
-3.3573278e-10
4.973591e-05
1.0127813e-05
2.9932039e-10
1.0127514e-05
1.7515103e-09
4.9734458e-05
5.8399001e-09
0.00014224655
1.5461186e-08
0.00034265684
3.5818982e-08
0.00075137753
7.5132916e-08
0.0015360804
1.4344134e-07
0.0029401706
2.4507215e-07
0.0052372394
3.5828455e-07
0.0085731194
4.0819613e-07
0.01268656
2.8961643e-07
0.01668078
6.7531802e-12
0.019206827
-2.8960234e-07
0.019206827
-4.0818163e-07
0.01668078
-3.5827525e-07
0.01268656
-2.4508266e-07
0.0085731194
-1.4348916e-07
0.0052372394
-7.5220867e-08
0.0029401706
-3.5928135e-08
0.0015360804
-1.5565293e-08
0.00075137753
-5.9183987e-09
0.00034265684
-1.8069697e-09
0.00014224655
-3.2503536e-10
4.9734458e-05
1.0127514e-05
2.8214539e-10
1.0127232e-05
1.651109e-09
4.9733089e-05
5.5053637e-09
0.0001422427
1.4576129e-08
0.00034264777
3.3770835e-08
0.00075135833
7.0845143e-08
0.0015360433
1.3528565e-07
0.0029401061
2.3124078e-07
0.0052371434
3.3836118e-07
0.0085730123
3.8612324e-07
0.012686512
2.7453706e-07
0.016680892
9.5187687e-12
0.019207102
-2.7451672e-07
0.019207102
-3.8610191e-07
0.016680892
-3.3834846e-07
0.012686512
-2.3125856e-07
0.0085730123
-1.3535737e-07
0.0052371434
-7.0972105e-08
0.0029401061
-3.3924928e-08
0.0015360433
-1.4720959e-08
0.00075135833
-5.613536e-09
0.00034264776
-1.7269345e-09
0.0001422427
-3.1715018e-10
4.9733089e-05
1.0127232e-05
2.6608044e-10
1.0126965e-05
1.5571586e-09
4.9731798e-05
5.1922888e-09
0.00014223906
1.3747889e-08
0.00034263921
3.1854263e-08
0.00075134023
6.6832267e-08
0.0015360084
1.2764843e-07
0.0029400453
2.1827173e-07
0.0052370528
3.1962868e-07
0.0085729109
3.6522367e-07
0.012686467
2.6013248e-07
0.016680997
1.2802267e-11
0.019207362
-2.6010464e-07
0.019207362
-3.6519408e-07
0.016680997
-3.196119e-07
0.012686467
-2.1829851e-07
0.0085729109
-1.2774926e-07
0.0052370528
-6.7006346e-08
0.0029400453
-3.2062334e-08
0.0015360084
-1.3941427e-08
0.00075134022
-5.335848e-09
0.00034263921
-1.6572104e-09
0.00014223906
-3.121189e-10
4.9731797e-05
1.0126965e-05
2.5107706e-10
1.0126714e-05
1.469416e-09
4.9730579e-05
4.8998411e-09
0.00014223563
1.2973859e-08
0.00034263114
3.006201e-08
0.00075132314
6.3077277e-08
0.0015359753
1.2049795e-07
0.0029399879
2.0612063e-07
0.0052369672
3.0205734e-07
0.008572815
3.4562612e-07
0.012686423
2.4662458e-07
0.016681096
1.6639201e-11
0.019207609
-2.4658792e-07
0.019207609
-3.4558673e-07
0.016681096
-3.0203581e-07
0.012686423
-2.0615839e-07
0.008572815
-1.2063369e-07
0.0052369672
-6.3307466e-08
0.0029399879
-3.0334023e-08
0.0015359753
-1.3224871e-08
0.00075132314
-5.0850408e-09
0.00034263113
-1.5979037e-09
0.00014223563
-3.1004727e-10
4.9730579e-05
1.0126714e-05
2.3700325e-10
1.0126477e-05
1.3870346e-09
4.9729429e-05
4.625229e-09
0.0001422324
1.224729e-08
0.00034262351
2.8380466e-08
0.00075130701
5.9554915e-08
0.0015359442
1.1378663e-07
0.0029399337
1.9469711e-07
0.0052368863
2.8548419e-07
0.0085727242
3.269879e-07
0.012686382
2.336495e-07
0.016681189
2.1051431e-11
0.019207842
-2.3360264e-07
0.019207842
-3.269371e-07
0.016681189
-2.8545728e-07
0.012686382
-1.9474814e-07
0.0085727242
-1.1396374e-07
0.0052368863
-5.9851012e-08
0.0029399337
-2.872714e-08
0.0015359442
-1.2565112e-08
0.000751307
-4.8586758e-09
0.00034262351
-1.5483825e-09
0.00014223239
-3.1089393e-10
4.9729428e-05
1.0126477e-05
2.2390213e-10
1.0126253e-05
1.3103659e-09
4.9728342e-05
4.3695511e-09
0.00014222934
1.1570035e-08
0.00034261631
2.6810641e-08
0.00075129176
5.6262068e-08
0.0015359147
1.0750834e-07
0.0029398824
1.8401024e-07
0.0052368098
2.6998313e-07
0.0085726383
3.0960995e-07
0.012686342
2.2158546e-07
0.016681277
2.5995399e-11
0.019208064
-2.2152714e-07
0.019208064
-3.0954621e-07
0.016681277
-2.6995037e-07
0.012686342
-1.8407722e-07
0.0085726382
-1.0773384e-07
0.0052368098
-5.6634461e-08
0.0029398824
-2.7243109e-08
0.0015359147
-1.1964181e-08
0.00075129176
-4.6578676e-09
0.00034261631
-1.5089631e-09
0.00014222933
-3.1467094e-10
4.9728341e-05
1.0126253e-05
2.1155731e-10
1.0126041e-05
1.2379679e-09
4.9727316e-05
4.1281008e-09
0.00014222645
1.0931323e-08
0.00034260951
2.5332875e-08
0.00075127736
5.3166134e-08
0.0015358869
1.0160231e-07
0.002939834
1.7392999e-07
0.0052367375
2.5529191e-07
0.0085725569
2.9296603e-07
0.012686304
2.0989446e-07
0.01668136
3.1448441e-11
0.019208274
-2.0982346e-07
0.019208274
-2.9288794e-07
0.01668136
-2.5525304e-07
0.012686304
-1.7401594e-07
0.0085725569
-1.018836e-07
0.0052367375
-5.3625393e-08
0.002939834
-2.5862158e-08
0.0015358869
-1.1410989e-08
0.00075127736
-4.4775618e-09
0.0003426095
-1.4778959e-09
0.00014222644
-3.2100009e-10
4.9727315e-05
1.0126041e-05
2.0025404e-10
1.0125841e-05
1.1717523e-09
4.9726344e-05
3.9069994e-09
0.00014222371
1.0344382e-08
0.00034260307
2.3968571e-08
0.00075126374
5.0296366e-08
0.0015358606
9.6118777e-08
0.0029397882
1.6457954e-07
0.005236669
2.4169474e-07
0.0085724798
2.7765867e-07
0.012686268
1.992055e-07
0.016681439
3.7256742e-11
0.019208473
-1.9912108e-07
0.019208473
-2.775652e-07
0.016681439
-2.4164994e-07
0.012686268
-1.6468785e-07
0.0085724798
-9.6463231e-08
0.005236669
-5.0852389e-08
0.0029397882
-2.4604491e-08
0.0015358606
-1.091742e-08
0.00075126373
-4.322778e-09
0.00034260307
-1.4562661e-09
0.00014222371
-3.2977297e-10
4.9726343e-05
1.0125841e-05
1.8939398e-10
1.0125652e-05
1.1078063e-09
4.9725426e-05
3.693675e-09
0.00014222113
9.7811613e-09
0.00034259699
2.2669069e-08
0.00075125085
4.7579453e-08
0.0015358356
9.0934402e-08
0.0029397448
1.5570584e-07
0.0052366042
2.2870388e-07
0.0085724068
2.6285487e-07
0.012686234
1.8872472e-07
0.016681513
4.334109e-11
0.019208662
-1.8862642e-07
0.019208662
-2.6274532e-07
0.016681513
-2.2865367e-07
0.012686234
-1.5584006e-07
0.0085724068
-9.1348965e-08
0.0052366042
-4.8240614e-08
0.0029397448
-2.341881e-08
0.0015358356
-1.0452278e-08
0.00075125085
-4.1781744e-09
0.00034259698
-1.4380744e-09
0.00014222112
-3.3938602e-10
4.9725425e-05
1.0125651e-05
1.8011617e-10
1.0125472e-05
1.0533897e-09
4.9724553e-05
3.5111982e-09
0.00014221867
9.2928119e-09
0.0003425912
2.1522316e-08
0.00075123862
4.514476e-08
0.001535812
8.6255273e-08
0.0029397037
1.4770694e-07
0.0052365428
2.170516e-07
0.0085723374
2.497061e-07
0.012686202
1.795025e-07
0.016681583
4.9214253e-11
0.019208841
-1.7939059e-07
0.019208841
-2.4958002e-07
0.016681583
-2.1699655e-07
0.012686202
-1.4787048e-07
0.0085723374
-8.6745522e-08
0.0052365428
-4.5916382e-08
0.0029397037
-2.2388996e-08
0.001535812
-1.0062716e-08
0.00075123862
-4.0638098e-09
0.0003425912
-1.4282466e-09
0.00014221866
-3.498417e-10
4.9724552e-05
1.0125471e-05
1.691294e-10
1.0125303e-05
9.8875826e-10
4.9723734e-05
3.2983145e-09
0.00014221636
8.7441636e-09
0.00034258576
2.0296478e-08
0.00075122707
4.2666021e-08
0.0015357897
8.1644996e-08
0.0029396647
1.399257e-07
0.0052364845
2.0571558e-07
0.0085722716
2.367567e-07
0.012686171
1.7032266e-07
0.01668165
5.4062293e-11
0.019209011
-1.7019808e-07
0.019209011
-2.3661404e-07
0.01668165
-2.0565555e-07
0.012686171
-1.4011897e-07
0.0085722716
-8.2209294e-08
0.0052364845
-4.3540117e-08
0.0029396648
-2.1264986e-08
0.0015357897
-9.5945651e-09
0.00075122707
-3.9030475e-09
0.00034258575
-1.3963639e-09
0.00014221636
-3.5293476e-10
4.9723733e-05
1.0125303e-05
1.6446479e-10
1.0125139e-05
9.6117738e-10
4.9722938e-05
3.1997463e-09