/*--------------------------------*- C++ -*----------------------------------*\
| =========                 |                                                 |
| \\      /  F ield         | OpenFOAM: The Open Source CFD Toolbox           |
|  \\    /   O peration     | Version:  2406                                  |
|   \\  /    A nd           | Website:  www.openfoam.com                      |
|    \\/     M anipulation  |                                                 |
\*---------------------------------------------------------------------------*/
FoamFile
{
    version     2.0;
    format      ascii;
    arch        "LSB;label=32;scalar=64";
    class       volVectorField;
    location    "38";
    object      U;
}
// * * * * * * * * * * * * * * * * * * * * * * * * * * * * * * * * * * * * * //

dimensions      [0 1 -1 0 0 0 0];

internalField   nonuniform List<vector> 
1176
(
(0.019493789 7.0786619e-07 0)
(0.066677318 8.1696662e-06 0)
(0.13357994 3.9503181e-05 0)
(0.22724701 0.00010873578 0)
(0.35591522 0.00021176029 0)
(0.52772023 0.00030396287 0)
(0.74780387 0.00031818018 0)
(1.0136216 0.00024904583 0)
(1.3093323 0.00016666988 0)
(1.6017081 0.00011264676 0)
(1.8421723 7.0214171e-05 0)
(1.9793239 2.3941067e-05 0)
(1.9793239 -2.3940238e-05 0)
(1.8421723 -7.0213901e-05 0)
(1.6017081 -0.00011264835 0)
(1.3093323 -0.0001666767 0)
(1.0136216 -0.00024906357 0)
(0.74780387 -0.00031821375 0)
(0.52772023 -0.00030401155 0)
(0.35591522 -0.00021181572 0)
(0.227247 -0.00010878666 0)
(0.13357993 -3.9540233e-05 0)
(0.066677314 -8.1902002e-06 0)
(0.019493788 -7.1402584e-07 0)
(0.020187017 -3.7419155e-06 0)
(0.068813532 -2.4638631e-05 0)
(0.13732107 -9.6548542e-05 0)
(0.23247391 -0.0002483946 0)
(0.36204617 -0.00047268783 0)
(0.53373556 -0.00067421191 0)
(0.75267407 -0.00069486961 0)
(1.0170176 -0.00049687396 0)
(1.3116385 -0.00023345949 0)
(1.6034438 -4.9824604e-05 0)
(1.8436588 1.9764901e-05 0)
(1.9807026 1.3428586e-05 0)
(1.9807026 -1.3425825e-05 0)
(1.8436588 -1.9761482e-05 0)
(1.6034438 4.9829301e-05 0)
(1.3116385 0.00023346564 0)
(1.0170177 0.00049688254 0)
(0.75267411 0.00069488356 0)
(0.5337356 0.00067423192 0)
(0.36204619 0.0004727101 0)
(0.23247392 0.00024841376 0)
(0.13732107 9.6561264e-05 0)
(0.068813532 2.4644886e-05 0)
(0.020187017 3.7436553e-06 0)
(0.020018442 2.0918393e-06 0)
(0.068327405 1.2720781e-05 0)
(0.13655404 4.6877267e-05 0)
(0.23159544 0.00011389739 0)
(0.36138709 0.00019769265 0)
(0.53366969 0.00023903225 0)
(0.75344344 0.00020559788 0)
(1.0184881 0.00011361068 0)
(1.3134639 7.4312941e-05 0)
(1.6053464 7.9532186e-05 0)
(1.8455118 7.0515955e-05 0)
(1.9825245 2.7825348e-05 0)
(1.9825245 -2.7825678e-05 0)
(1.8455118 -7.0517048e-05 0)
(1.6053464 -7.9534767e-05 0)
(1.3134639 -7.4317373e-05 0)
(1.0184881 -0.00011361614 0)
(0.75344341 -0.00020560086 0)
(0.53366967 -0.00023903503 0)
(0.36138707 -0.00019769299 0)
(0.23159544 -0.00011389623 0)
(0.13655404 -4.6875427e-05 0)
(0.068327405 -1.2719241e-05 0)
(0.020018442 -2.0912954e-06 0)
(0.019966547 7.0076752e-07 0)
(0.068159232 4.6870557e-06 0)
(0.13624021 1.9355452e-05 0)
(0.2311194 5.6456171e-05 0)
(0.36078093 0.00013444562 0)
(0.53306293 0.00025829304 0)
(0.75295637 0.00035344709 0)
(1.0181104 0.00036911948 0)
(1.313184 0.00030758806 0)
(1.6051633 0.00022777179 0)
(1.8453995 0.00014555912 0)
(1.9824491 4.999745e-05 0)
(1.9824491 -4.9996505e-05 0)
(1.8453995 -0.00014555854 0)
(1.6051633 -0.0002277719 0)
(1.313184 -0.00030758718 0)
(1.0181104 -0.00036911815 0)
(0.75295637 -0.0003534465 0)
(0.53306294 -0.00025829079 0)
(0.36078093 -0.00013444437 0)
(0.2311194 -5.645583e-05 0)
(0.13624021 -1.9355406e-05 0)
(0.068159234 -4.6870386e-06 0)
(0.019966548 -7.0075534e-07 0)
(0.019942203 2.9076895e-07 0)
(0.068078703 1.9872027e-06 0)
(0.13608628 8.2361112e-06 0)
(0.23087699 2.3699303e-05 0)
(0.36044744 5.6881562e-05 0)
(0.53266448 0.00012306869 0)
(0.75256878 0.00022681781 0)
(1.017808 0.00032272159 0)
(1.3129044 0.00034572386 0)
(1.604912 0.0003072991 0)
(1.8452029 0.00021095277 0)
(1.9822898 7.4614658e-05 0)
(1.9822898 -7.4614042e-05 0)
(1.8452029 -0.00021095264 0)
(1.604912 -0.00030729958 0)
(1.3129044 -0.00034572457 0)
(1.0178079 -0.00032271993 0)
(0.75256877 -0.00022681402 0)
(0.53266448 -0.00012306322 0)
(0.36044744 -5.6876194e-05 0)
(0.23087699 -2.3695053e-05 0)
(0.13608628 -8.2332302e-06 0)
(0.068078702 -1.985643e-06 0)
(0.019942203 -2.9029971e-07 0)
(0.019933132 1.7181446e-07 0)
(0.068047755 1.1940723e-06 0)
(0.13602489 5.0651868e-06 0)
(0.23077535 1.4968828e-05 0)
(0.36029899 3.6219471e-05 0)
(0.5324792 7.6944071e-05 0)
(0.75239427 0.00014713737 0)
(1.0177222 0.00023748972 0)
(1.3129292 0.00028525524 0)
(1.6049746 0.00027441424 0)
(1.8452865 0.00019644577 0)
(1.9823834 7.1176814e-05 0)
(1.9823834 -7.1177161e-05 0)
(1.8452865 -0.00019644669 0)
(1.6049746 -0.00027441564 0)
(1.3129292 -0.00028525647 0)
(1.0177222 -0.0002374893 0)
(0.75239427 -0.00014713498 0)
(0.5324792 -7.6940546e-05 0)
(0.36029898 -3.6215996e-05 0)
(0.23077535 -1.4966108e-05 0)
(0.13602488 -5.0633294e-06 0)
(0.068047755 -1.1930439e-06 0)
(0.019933132 -1.7150047e-07 0)
(0.0199234 1.5587501e-07 0)
(0.068015507 1.0700716e-06 0)
(0.13596286 4.4934507e-06 0)
(0.23067607 1.3195426e-05 0)
(0.36015773 3.1857045e-05 0)
(0.53230178 6.6958061e-05 0)
(0.75221429 0.00012411856 0)
(1.0176105 0.00019917005 0)
(1.3129358 0.00025490792 0)
(1.6050904 0.00024595126 0)
(1.8454579 0.00018127865 0)
(1.9825798 6.6548266e-05 0)
(1.9825798 -6.6549024e-05 0)
(1.8454579 -0.00018127981 0)
(1.6050904 -0.00024595244 0)
(1.3129358 -0.00025490839 0)
(1.0176105 -0.00019916904 0)
(0.75221429 -0.0001241162 0)
(0.53230178 -6.6955161e-05 0)
(0.36015773 -3.1854437e-05 0)
(0.23067607 -1.3193512e-05 0)
(0.13596286 -4.4921997e-06 0)
(0.068015507 -1.0693965e-06 0)
(0.0199234 -1.5567066e-07 0)
(0.019915697 1.2758346e-07 0)
(0.067989792 8.7800569e-07 0)
(0.13591293 3.6959738e-06 0)
(0.23059503 1.0901547e-05 0)
(0.36003987 2.6613238e-05 0)
(0.53214753 5.7236922e-05 0)
(0.75204133 0.00010911018 0)
(1.0174723 0.0001793659 0)
(1.3128926 0.00023802443 0)
(1.6051414 0.00023746731 0)
(1.8455877 0.00017750667 0)
(1.9827514 6.5539265e-05 0)
(1.9827514 -6.5539883e-05 0)
(1.8455877 -0.00017750753 0)
(1.6051414 -0.00023746802 0)
(1.3128926 -0.0002380243 0)
(1.0174723 -0.00017936463 0)
(0.75204133 -0.00010910803 0)
(0.53214753 -5.7234522e-05 0)
(0.36003987 -2.6611138e-05 0)
(0.23059503 -1.0900007e-05 0)
(0.13591293 -3.694971e-06 0)
(0.067989792 -8.7746891e-07 0)
(0.019915697 -1.27422e-07 0)
(0.019909217 1.0465238e-07 0)
(0.067968141 7.2311551e-07 0)
(0.13587084 3.0520598e-06 0)
(0.23052654 9.0117496e-06 0)
(0.35993984 2.199974e-05 0)
(0.53201542 4.7473217e-05 0)
(0.75188901 9.2013762e-05 0)
(1.0173341 0.00015618156 0)
(1.3128278 0.00021699654 0)
(1.6051595 0.0002270962 0)
(1.8456699 0.00017232636 0)
(1.982868 6.4147676e-05 0)
(1.982868 -6.4148054e-05 0)
(1.8456699 -0.00017232686 0)
(1.6051595 -0.00022709651 0)
(1.3128278 -0.00021699618 0)
(1.0173341 -0.00015618048 0)
(0.75188901 -9.2012168e-05 0)
(0.53201542 -4.7471522e-05 0)
(0.35993984 -2.1998287e-05 0)
(0.23052654 -9.0106917e-06 0)
(0.13587084 -3.0513725e-06 0)
(0.067968141 -7.227476e-07 0)
(0.019909217 -1.0454168e-07 0)
(0.019903971 8.6119253e-08 0)
(0.067950552 5.9693609e-07 0)
(0.13583649 2.5273246e-06 0)
(0.2304703 7.4915226e-06 0)
(0.35985692 1.8376154e-05 0)
(0.53190436 3.9835479e-05 0)
(0.75175836 7.7711895e-05 0)
(1.0172122 0.0001343241 0)
(1.3127613 0.00019323358 0)
(1.6051772 0.00021058354 0)
(1.8457533 0.0001627299 0)
(1.9829863 6.1084328e-05 0)
(1.9829863 -6.1084473e-05 0)
(1.8457533 -0.00016273008 0)
(1.6051772 -0.00021058355 0)
(1.3127613 -0.00019323319 0)
(1.0172122 -0.00013432328 0)
(0.75175836 -7.7710783e-05 0)
(0.53190436 -3.9834333e-05 0)
(0.35985692 -1.8375184e-05 0)
(0.2304703 -7.4908185e-06 0)
(0.13583649 -2.5268666e-06 0)
(0.067950552 -5.9669033e-07 0)
(0.019903971 -8.604519e-08 0)
(0.019899543 7.3349124e-08 0)
(0.067935688 5.0893544e-07 0)
(0.13580742 2.1568359e-06 0)
(0.23042259 6.4026765e-06 0)
(0.35978626 1.5747458e-05 0)
(0.5318089 3.4277639e-05 0)
(0.75164409 6.7204385e-05 0)
(1.0171021 0.00011722975 0)
(1.3126976 0.00017262458 0)
(1.6051928 0.00019308917 0)
(1.8458371 0.00015219889 0)
(1.9831061 5.7544911e-05 0)
(1.9831061 -5.7544932e-05 0)
(1.8458371 -0.00015219893 0)
(1.6051928 -0.00019308911 0)
(1.3126976 -0.00017262429 0)
(1.0171021 -0.00011722918 0)
(0.75164409 -6.7203632e-05 0)
(0.5318089 -3.4276851e-05 0)
(0.35978626 -1.5746771e-05 0)
(0.23042259 -6.4021627e-06 0)
(0.13580742 -2.1564912e-06 0)
(0.067935688 -5.0874625e-07 0)
(0.019899543 -7.3291538e-08 0)
(0.019895721 6.372042e-08 0)
(0.06792285 4.4249792e-07 0)
(0.13578228 1.8766925e-06 0)
(0.23038125 5.5764538e-06 0)
(0.35972483 1.3738571e-05 0)
(0.53172535 2.9997856e-05 0)
(0.75154264 5.9111387e-05 0)
(1.0170011 0.00010388804 0)
(1.3126344 0.00015540277 0)
(1.6052015 0.00017849541 0)
(1.8459125 0.00014271578 0)
(1.9832185 5.4330737e-05 0)
(1.9832185 -5.4330713e-05 0)
(1.8459125 -0.00014271579 0)
(1.6052015 -0.0001784954 0)
(1.3126345 -0.00015540264 0)
(1.0170011 -0.0001038877 0)
(0.75154264 -5.9110876e-05 0)
(0.53172535 -2.9997269e-05 0)
(0.35972483 -1.373802e-05 0)
(0.23038125 -5.5760173e-06 0)
(0.13578228 -1.8763848e-06 0)
(0.06792285 -4.4232276e-07 0)
(0.019895721 -6.3666257e-08 0)
(0.019892371 5.6084397e-08 0)
(0.067911586 3.8975834e-07 0)
(0.13576021 1.6540876e-06 0)
(0.2303449 4.9187066e-06 0)
(0.35967069 1.2131926e-05 0)
(0.53165136 2.6542325e-05 0)
(0.7514519 5.2498646e-05 0)
(1.0169086 9.2875581e-05 0)
(1.3125728 0.00014061487 0)
(1.605205 0.0001652963 0)
(1.8459798 0.00013398949 0)
(1.9833221 5.1387559e-05 0)
(1.9833221 -5.1387541e-05 0)
(1.8459798 -0.00013398953 0)
(1.605205 -0.00016529638 0)
(1.3125728 -0.00014061486 0)
(1.0169086 -9.2875385e-05 0)
(0.7514519 -5.2498243e-05 0)
(0.53165136 -2.6541787e-05 0)
(0.35967069 -1.2131379e-05 0)
(0.2303449 -4.9182523e-06 0)
(0.13576021 -1.6537556e-06 0)
(0.067911586 -3.8956467e-07 0)
(0.019892371 -5.6023889e-08 0)
(0.019889403 4.9844243e-08 0)
(0.067901607 3.4660139e-07 0)
(0.13574064 1.4717344e-06 0)
(0.23031264 4.3793453e-06 0)
(0.35962253 1.0812247e-05 0)
(0.53158531 2.3691328e-05 0)
(0.75137029 4.6984049e-05 0)
(1.016824 8.3546223e-05 0)
(1.3125139 0.00012773745 0)
(1.6052051 0.00015293357 0)
(1.8460415 0.00012582054 0)
(1.9834196 4.8616577e-05 0)
(1.9834196 -4.8616611e-05 0)
(1.8460415 -0.00012582065 0)
(1.6052051 -0.00015293373 0)
(1.3125139 -0.00012773753 0)
(1.016824 -8.3546086e-05 0)
(0.75137029 -4.6983639e-05 0)
(0.53158531 -2.3690722e-05 0)
(0.35962253 -1.0811605e-05 0)
(0.23031264 -4.3788032e-06 0)
(0.13574064 -1.471334e-06 0)
(0.067901607 -3.4636618e-07 0)
(0.019889403 -4.9770539e-08 0)
(0.019886752 4.4695103e-08 0)
(0.067892685 3.1093114e-07 0)
(0.13572313 1.3207954e-06 0)
(0.23028375 3.9321745e-06 0)
(0.35957935 9.7158398e-06 0)
(0.53152592 2.1315546e-05 0)
(0.75129648 4.2360214e-05 0)
(1.0167465 7.5619856e-05 0)
(1.3124581 0.00011654234 0)
(1.6052027 0.0001416988 0)
(1.8460982 0.00011827113 0)
(1.9835117 4.6031594e-05 0)
(1.9835117 -4.6031709e-05 0)
(1.8460982 -0.00011827132 0)
(1.6052027 -0.00014169904 0)
(1.3124581 -0.00011654249 0)
(1.0167465 -7.5619714e-05 0)
(0.75129648 -4.2359716e-05 0)
(0.53152592 -2.1314792e-05 0)
(0.35957935 -9.7150376e-06 0)
(0.23028375 -3.9314998e-06 0)
(0.13572313 -1.3202984e-06 0)
(0.067892685 -3.1063973e-07 0)
(0.019886752 -4.460384e-08 0)
(0.019884362 4.0383708e-08 0)
(0.067884644 2.8103045e-07 0)
(0.13570735 1.1941405e-06 0)
(0.23025769 3.5564671e-06 0)
(0.35954035 8.7928735e-06 0)
(0.53147216 1.9310016e-05 0)
(0.75122934 3.8440156e-05 0)
(1.0166753 6.8838946e-05 0)
(1.3124053 0.00010678355 0)
(1.6051983 0.00013155234 0)
(1.8461504 0.00011132807 0)
(1.9835985 4.3631123e-05 0)
(1.9835985 -4.3631332e-05 0)
(1.8461504 -0.00011132836 0)
(1.6051983 -0.00013155266 0)
(1.3124053 -0.00010678372 0)
(1.0166753 -6.8838752e-05 0)
(0.75122934 -3.8439516e-05 0)
(0.53147216 -1.930906e-05 0)
(0.35954035 -8.7918683e-06 0)
(0.23025769 -3.5556289e-06 0)
(0.13570735 -1.1935273e-06 0)
(0.067884644 -2.8067227e-07 0)
(0.019884362 -4.0271708e-08 0)
(0.019882195 3.6709784e-08 0)
(0.067877349 2.5553329e-07 0)
(0.13569303 1.08607e-06 0)
(0.23023403 3.2356196e-06 0)
(0.3595049 8.0035757e-06 0)
(0.5314232 1.7590932e-05 0)
(0.75116797 3.5067238e-05 0)
(1.0166096 6.2964161e-05 0)
(1.3123553 9.8203232e-05 0)
(1.6051923 0.00012233365 0)
(1.8461982 0.00010491316 0)
(1.9836803 4.1390379e-05 0)
(1.9836803 -4.1390679e-05 0)
(1.8461982 -0.00010491353 0)
(1.6051923 -0.00012233403 0)
(1.3123553 -9.8203408e-05 0)
(1.0166096 -6.2963885e-05 0)
(0.75116797 -3.5066418e-05 0)
(0.5314232 -1.7589739e-05 0)
(0.3595049 -8.0023371e-06 0)
(0.23023403 -3.2345953e-06 0)
(0.13569303 -1.0853252e-06 0)
(0.067877349 -2.5509996e-07 0)
(0.019882195 -3.657449e-08 0)
(0.019880219 3.353799e-08 0)
(0.067870695 2.3350847e-07 0)
(0.13567996 9.9266948e-07 0)
(0.23021243 2.9581497e-06 0)
(0.35947252 7.3202944e-06 0)
(0.53137842 1.6100141e-05 0)
(0.75111164 3.2133014e-05 0)
(1.0165488 5.7823402e-05 0)
(1.3123082 9.0602478e-05 0)
(1.6051852 0.00011395342 0)
(1.8462423 9.8955933e-05 0)
(1.9837576 3.9288821e-05 0)
(1.9837576 -3.9289204e-05 0)
(1.8462423 -9.8956382e-05 0)
(1.6051852 -0.00011395385 0)
(1.3123082 -9.0602648e-05 0)
(1.0165488 -5.7823025e-05 0)
(0.75111164 -3.2131992e-05 0)
(0.53137842 -1.6098687e-05 0)
(0.35947252 -7.3188004e-06 0)
(0.23021243 -2.9569224e-06 0)
(0.13567996 -9.9178157e-07 0)
(0.067870695 -2.3299356e-07 0)
(0.019880219 -3.3377435e-08 0)
(0.019878409 3.0774065e-08 0)
(0.0678646 2.1430631e-07 0)
(0.13566798 9.1120149e-07 0)
(0.23019263 2.7159882e-06 0)
(0.35944282 6.7234286e-06 0)
(0.53133728 1.4796014e-05 0)
(0.75105977 2.9559684e-05 0)
(1.0164925 5.3292528e-05 0)
(1.3122638 8.3831561e-05 0)
(1.6051772 0.00010632402 0)
(1.846283 9.3403161e-05 0)
(1.9838307 3.7312248e-05 0)
(1.9838307 -3.7312701e-05 0)
(1.846283 -9.3403677e-05 0)
(1.6051772 -0.0001063245 0)
(1.3122638 -8.3831717e-05 0)
(1.0164925 -5.3292037e-05 0)
(0.75105977 -2.9558443e-05 0)
(0.53133728 -1.4794281e-05 0)
(0.35944282 -6.7216642e-06 0)
(0.23019263 -2.7145467e-06 0)
(0.13566798 -9.10163e-07 0)
(0.0678646 -2.1370576e-07 0)
(0.019878409 -3.0587021e-08 0)
(0.019876745 2.8344175e-08 0)
(0.067858993 1.974186e-07 0)
(0.13565697 8.3952709e-07 0)
(0.23017441 2.5028351e-06 0)
(0.35941547 6.1976565e-06 0)
(0.53129936 1.3645798e-05 0)
(0.75101183 2.7285299e-05 0)
(1.0164401 4.9271701e-05 0)
(1.3122219 7.7767673e-05 0)
(1.6051688 9.9356078e-05 0)
(1.8463207 8.8213457e-05 0)
(1.9838998 3.5449288e-05 0)
(1.9838998 -3.5449797e-05 0)
(1.8463207 -8.821403e-05 0)
(1.6051688 -9.9356596e-05 0)
(1.3122219 -7.776781e-05 0)
(1.0164401 -4.9271091e-05 0)
(0.75101183 -2.728383e-05 0)
(0.53129936 -1.3643777e-05 0)
(0.35941547 -6.1956144e-06 0)
(0.23017441 -2.5011749e-06 0)
(0.13565697 -8.3833576e-07 0)
(0.067858993 -1.9673149e-07 0)
(0.019876745 -2.81304e-08 0)
(0.019875208 2.6190351e-08 0)
(0.067853818 1.8244536e-07 0)
(0.1356468 7.7596018e-07 0)
(0.23015758 2.3137197e-06 0)
(0.3593902 5.7308799e-06 0)
(0.5312643 1.2623565e-05 0)
(0.75096742 2.5260332e-05 0)
(1.0163914 4.5679513e-05 0)
(1.3121824 7.2308024e-05 0)
(1.6051599 9.2973329e-05 0)
(1.8463555 8.3350211e-05 0)
(1.9839652 3.3689285e-05 0)
(1.9839652 -3.368984e-05 0)
(1.8463555 -8.3350835e-05 0)
(1.6051599 -9.2973884e-05 0)
(1.3121824 -7.2308139e-05 0)
(1.0163914 -4.5678778e-05 0)
(0.75096742 -2.5258632e-05 0)
(0.5312643 -1.2621254e-05 0)
(0.3593902 -5.7285627e-06 0)
(0.23015758 -2.3118452e-06 0)
(0.1356468 -7.746205e-07 0)
(0.067853818 -1.8167478e-07 0)
(0.019875209 -2.5950877e-08 0)
(0.019873787 2.4267506e-08 0)
(0.067849027 1.6907463e-07 0)
(0.13563738 7.1918283e-07 0)
(0.230142 2.1447482e-06 0)
(0.35936679 5.3135975e-06 0)
(0.53123178 1.1708892e-05 0)
(0.75092616 2.3445563e-05 0)
(1.016346 4.2450513e-05 0)
(1.3121452 6.7367583e-05 0)
(1.6051509 8.7107497e-05 0)
(1.8463878 7.8785084e-05 0)
(1.9840271 3.2023659e-05 0)
(1.9840271 -3.2024252e-05 0)
(1.8463878 -7.8785753e-05 0)
(1.6051509 -8.7108086e-05 0)
(1.3121452 -6.7367675e-05 0)
(1.016346 -4.2449653e-05 0)
(0.75092616 -2.3443634e-05 0)
(0.53123178 -1.1706303e-05 0)
(0.35936679 -5.3110206e-06 0)
(0.230142 -2.1426749e-06 0)
(0.13563738 -7.177078e-07 0)
(0.067849027 -1.6822874e-07 0)
(0.019873787 -2.4004954e-08 0)
(0.019872467 2.2540164e-08 0)
(0.067844581 1.5706059e-07 0)
(0.13562864 6.6815532e-07 0)
(0.23012754 1.9928442e-06 0)
(0.35934505 4.9382879e-06 0)
(0.53120156 1.0885573e-05 0)
(0.75088776 2.1809769e-05 0)
(1.0163035 3.9532184e-05 0)
(1.31211 6.2876484e-05 0)
(1.6051418 8.1702077e-05 0)
(1.8464178 7.4491841e-05 0)
(1.9840857 3.0444266e-05 0)
(1.9840857 -3.0444888e-05 0)
(1.8464178 -7.4492548e-05 0)
(1.6051418 -8.1702694e-05 0)
(1.31211 -6.2876547e-05 0)
(1.0163035 -3.9531199e-05 0)
(0.75088776 -2.1807624e-05 0)
(0.53120156 -1.0882732e-05 0)
(0.35934505 -4.9354837e-06 0)
(0.23012754 -1.9906023e-06 0)
(0.13562864 -6.6656855e-07 0)
(0.067844581 -1.561538e-07 0)
(0.019872467 -2.2259116e-08 0)
(0.01987124 2.0979913e-08 0)
(0.067840446 1.4620634e-07 0)
(0.13562051 6.2204439e-07 0)
(0.23011408 1.8555403e-06 0)
(0.35932481 4.5989075e-06 0)
(0.53117342 1.0140547e-05 0)
(0.75085195 2.0327696e-05 0)
(1.0162638 3.6881831e-05 0)
(1.3120768 5.8777013e-05 0)
(1.6051327 7.6706796e-05 0)
(1.8464458 7.0451367e-05 0)
(1.9841412 2.8945064e-05 0)
(1.9841412 -2.8945701e-05 0)
(1.8464458 -7.0452101e-05 0)
(1.6051327 -7.670743e-05 0)
(1.3120768 -5.8777042e-05 0)
(1.0162638 -3.6880727e-05 0)
(0.75085195 -2.0325363e-05 0)
(0.53117342 -1.01375e-05 0)
(0.35932481 -4.5959299e-06 0)
(0.23011408 -1.8531776e-06 0)
(0.13562051 -6.2038261e-07 0)
(0.067840446 -1.4526072e-07 0)
(0.01987124 -2.0687348e-08 0)
(0.019870096 1.9563744e-08 0)
(0.067836592 1.3635242e-07 0)
(0.13561293 5.8017526e-07 0)
(0.23010153 1.7308375e-06 0)
(0.35930594 4.2905576e-06 0)
(0.53114716 9.4632144e-06 0)
(0.75081849 1.8978785e-05 0)
(1.0162266 3.446446e-05 0)
(1.3120455 5.5021037e-05 0)
(1.6051237 7.2080862e-05 0)
(1.8464718 6.6642887e-05 0)
(1.9841938 2.751962e-05 0)
(1.9841938 -2.7520257e-05 0)
(1.8464718 -6.6643631e-05 0)
(1.6051237 -7.2081499e-05 0)
(1.3120455 -5.5021025e-05 0)
(1.0162266 -3.4463252e-05 0)
(0.75081849 -1.8976309e-05 0)
(0.53114716 -9.4600348e-06 0)
(0.35930594 -4.2874875e-06 0)
(0.23010153 -1.7284241e-06 0)
(0.13561293 -5.7849117e-07 0)
(0.067836592 -1.3539932e-07 0)
(0.019870096 -1.9269534e-08 0)
(0.019869029 1.8272803e-08 0)
(0.067832994 1.2736823e-07 0)
(0.13560586 5.4199514e-07 0)
(0.23008981 1.6170974e-06 0)
(0.35928831 4.0092176e-06 0)
(0.53112262 8.8448574e-06 0)
(0.75078719 1.7746083e-05 0)
(1.0161917 3.2251129e-05 0)
(1.312016 5.1568354e-05 0)
(1.6051149 6.7786434e-05 0)
(1.846496 6.3053179e-05 0)
(1.9842436 2.6163902e-05 0)
(1.9842436 -2.616452e-05 0)
(1.846496 -6.3053912e-05 0)
(1.6051149 -6.7787055e-05 0)
(1.312016 -5.1568295e-05 0)
(1.0161917 -3.2249843e-05 0)
(0.75078719 -1.7743536e-05 0)
(0.53112262 -8.8416512e-06 0)
(0.35928831 -4.0061685e-06 0)
(0.23008981 -1.6147297e-06 0)
(0.13560586 -5.4036051e-07 0)
(0.067832994 -1.2645001e-07 0)
(0.019869029 -1.7990254e-08 0)
(0.019868031 1.7091533e-08 0)
(0.067829631 1.1914601e-07 0)
(0.13559924 5.0704791e-07 0)
(0.23007886 1.5129678e-06 0)
(0.35927183 3.7515698e-06 0)
(0.53109966 8.2782821e-06 0)
(0.75075787 1.6615578e-05 0)
(1.0161589 3.0217746e-05 0)
(1.311988 4.8384931e-05 0)
(1.6051063 6.3793896e-05 0)
(1.8465187 5.9664045e-05 0)
(1.9842909 2.4872552e-05 0)
(1.9842909 -2.4873127e-05 0)
(1.8465187 -5.9664743e-05 0)
(1.6051063 -6.379448e-05 0)
(1.311988 -4.8384823e-05 0)
(1.0161589 -3.0216423e-05 0)
(0.75075787 -1.661306e-05 0)
(0.53109966 -8.2751942e-06 0)
(0.35927183 -3.7486943e-06 0)
(0.23007886 -1.5107737e-06 0)
(0.13559924 -5.0555688e-07 0)
(0.067829631 -1.1831792e-07 0)
(0.019868031 -1.6837958e-08 0)
(0.019867097 1.6006933e-08 0)
(0.067826482 1.1159573e-07 0)
(0.13559305 4.749525e-07 0)
(0.2300686 1.4173184e-06 0)
(0.35925639 3.5148359e-06 0)
(0.53107814 7.7574477e-06 0)
(0.75073038 1.5575478e-05 0)
(1.0161281 2.8344055e-05 0)
(1.3119617 4.5442114e-05 0)
(1.6050979 6.0073734e-05 0)
(1.8465398 5.646704e-05 0)
(1.9843356 2.3643254e-05 0)
(1.9843356 -2.3643757e-05 0)
(1.8465398 -5.646767e-05 0)
(1.6050979 -6.0074253e-05 0)
(1.3119617 -4.5441957e-05 0)
(1.0161281 -2.8342756e-05 0)
(0.75073038 -1.5573125e-05 0)
(0.53107814 -7.7546688e-06 0)
(0.35925639 -3.5123312e-06 0)
(0.2300686 -1.4154618e-06 0)
(0.13559305 -4.7372495e-07 0)
(0.067826482 -1.1092781e-07 0)
(0.019867097 -1.5804242e-08 0)
(0.019866221 1.5008074e-08 0)
(0.067823531 1.0464162e-07 0)
(0.13558724 4.4538812e-07 0)
(0.23005898 1.3291981e-06 0)
(0.35924191 3.2966812e-06 0)
(0.53105796 7.2772857e-06 0)
(0.75070457 1.4615877e-05 0)
(1.0160992 2.6612867e-05 0)
(1.3119367 4.2715062e-05 0)
(1.6050897 5.6604276e-05 0)
(1.8465596 5.3444585e-05 0)
(1.984378 2.2471029e-05 0)
(1.984378 -2.2471428e-05 0)
(1.8465596 -5.3445112e-05 0)
(1.6050897 -5.6604701e-05 0)
(1.3119367 -4.2714861e-05 0)
(1.0160992 -2.6611673e-05 0)
(0.75070457 -1.4613866e-05 0)
(0.53105796 -7.2750583e-06 0)
(0.35924191 -3.2947958e-06 0)
(0.23005898 -1.3278839e-06 0)
(0.13558724 -4.4457312e-07 0)
(0.067823531 -1.0422069e-07 0)
(0.019866221 -1.4883383e-08 0)
(0.0198654 1.4085697e-08 0)
(0.067820761 9.8219537e-08 0)
(0.1355818 4.1808302e-07 0)
(0.23004995 1.2477996e-06 0)
(0.35922832 3.0951173e-06 0)
(0.53103901 6.8334603e-06 0)
(0.75068032 1.3728283e-05 0)
(1.0160719 2.5009552e-05 0)
(1.3119132 4.0182882e-05 0)
(1.6050818 5.3361591e-05 0)
(1.8465781 5.0592867e-05 0)
(1.9844182 2.1355125e-05 0)
(1.9844182 -2.135538e-05 0)
(1.8465781 -5.0593247e-05 0)
(1.6050818 -5.3361885e-05 0)
(1.3119132 -4.0182647e-05 0)
(1.0160719 -2.5008566e-05 0)
(0.75068032 -1.3726833e-05 0)
(0.531039 -6.8320844e-06 0)
(0.35922832 -3.0941566e-06 0)
(0.23004995 -1.2472786e-06 0)
(0.1355818 -4.1786225e-07 0)
(0.067820761 -9.8151111e-08 0)
(0.019865399 -1.407193e-08 0)
(0.019864628 1.3231873e-08 0)
(0.067818161 9.2274315e-08 0)
(0.13557668 3.9280326e-07 0)
(0.23004148 1.1724294e-06 0)
(0.35921555 2.9084435e-06 0)
(0.5310212 6.4222802e-06 0)
(0.75065752 1.290546e-05 0)
(1.0160463 2.3521408e-05 0)
(1.3118909 3.7826759e-05 0)
(1.6050743 5.0329855e-05 0)
(1.8465955 4.7893145e-05 0)
(1.9844563 2.0290232e-05 0)
(1.9844563 -2.02903e-05 0)
(1.8465955 -4.7893326e-05 0)
(1.6050743 -5.0329974e-05 0)
(1.3118909 -3.78265e-05 0)
(1.0160463 -2.3520757e-05 0)
(0.75065752 -1.2904841e-05 0)
(0.5310212 -6.4221201e-06 0)
(0.35921555 -2.9087762e-06 0)
(0.23004148 -1.1730032e-06 0)
(0.13557668 -3.9339449e-07 0)
(0.067818161 -9.2684601e-08 0)
(0.019864628 -1.3368376e-08 0)
(0.019863903 1.2439862e-08 0)
(0.067815716 8.6759243e-08 0)
(0.13557187 3.6935075e-07 0)
(0.23003351 1.1024976e-06 0)
(0.35920355 2.7351999e-06 0)
(0.53100445 6.0405458e-06 0)
(0.75063606 1.2141122e-05 0)
(1.0160221 2.213763e-05 0)
(1.3118699 3.5631309e-05 0)
(1.6050669 4.7489027e-05 0)
(1.8466118 4.5346935e-05 0)
(1.9844924 1.9277308e-05 0)
(1.9844924 -1.9277137e-05 0)
(1.8466118 -4.5346855e-05 0)
(1.6050669 -4.7488919e-05 0)
(1.3118699 -3.5631043e-05 0)
(1.0160221 -2.2137471e-05 0)
(0.75063606 -1.2141656e-05 0)
(0.53100445 -6.0420354e-06 0)
(0.35920355 -2.7372634e-06 0)
(0.23003351 -1.1045228e-06 0)
(0.13557187 -3.7101105e-07 0)
(0.067815716 -8.7796958e-08 0)
(0.019863903 -1.2772964e-08 0)
(0.019863221 1.1703705e-08 0)
(0.067813416 8.1632558e-08 0)
(0.13556735 3.475479e-07 0)
(0.23002601 1.0374786e-06 0)
(0.35919226 2.5741034e-06 0)
(0.53098868 5.6854832e-06 0)
(0.75061585 1.1429815e-05 0)
(1.0159993 2.0848475e-05 0)
(1.31185 3.358158e-05 0)
(1.6050599 4.4827583e-05 0)
(1.8466272 4.293233e-05 0)
(1.9845266 1.8309925e-05 0)
(1.9845266 -1.8309454e-05 0)
(1.8466272 -4.2931915e-05 0)
(1.6050599 -4.4827184e-05 0)
(1.31185 -3.3581323e-05 0)
(1.0159993 -2.0848989e-05 0)
(0.75061585 -1.1431883e-05 0)
(0.53098868 -5.6891322e-06 0)
(0.35919225 -2.5784101e-06 0)
(0.23002601 -1.041372e-06 0)
(0.13556735 -3.5057676e-07 0)
(0.067813416 -8.34707e-08 0)
(0.019863221 -1.2287263e-08 0)
(0.019862579 1.101848e-08 0)
(0.067811252 7.6860286e-08 0)
(0.13556309 3.2725055e-07 0)
(0.23001895 9.7694008e-07 0)
(0.35918162 2.424072e-06 0)
(0.53097384 5.3546938e-06 0)
(0.75059681 1.0766811e-05 0)
(1.0159778 1.964593e-05 0)
(1.3118312 3.1666497e-05 0)
(1.6050532 4.2328541e-05 0)
(1.8466415 4.0657751e-05 0)
(1.984559 1.7391267e-05 0)
(1.984559 -1.7390425e-05 0)
(1.8466415 -4.0656914e-05 0)
(1.6050532 -4.2327776e-05 0)
(1.3118312 -3.166627e-05 0)
(1.0159778 -1.9647333e-05 0)
(0.75059681 -1.0770858e-05 0)
(0.53097384 -5.3610939e-06 0)
(0.35918162 -2.4312146e-06 0)
(0.23001895 -9.8318268e-07 0)
(0.13556309 -3.3199302e-07 0)
(0.067811252 -7.969788e-08 0)
(0.019862579 -1.1914418e-08 0)
(0.019861974 1.0379466e-08 0)
(0.067809213 7.2408824e-08 0)
(0.13555907 3.0831522e-07 0)
(0.2300123 9.204606e-07 0)
(0.3591716 2.2840913e-06 0)
(0.53095985 5.0460132e-06 0)
(0.75057886 1.0147848e-05 0)
(1.0159575 1.8522128e-05 0)
(1.3118134 2.9873251e-05 0)
(1.6050467 3.9983134e-05 0)
(1.8466551 3.8495483e-05 0)
(1.9845898 1.6512775e-05 0)
(1.9845898 -1.6511479e-05 0)
(1.8466551 -3.8494122e-05 0)
(1.6050467 -3.9981914e-05 0)
(1.3118134 -2.9873075e-05 0)
(1.0159575 -1.8524666e-05 0)
(0.75057886 -1.0154382e-05 0)
(0.53095985 -5.055842e-06 0)
(0.3591716 -2.2947464e-06 0)
(0.2300123 -9.2959999e-07 0)
(0.13555907 -3.1516331e-07 0)
(0.067809212 -7.6471662e-08 0)
(0.019861974 -1.1657997e-08 0)
(0.019861404 9.7832609e-09 0)
(0.067807291 6.8255228e-08 0)
(0.13555529 2.9064479e-07 0)
(0.23000603 8.6774243e-07 0)
(0.35916216 2.1533886e-06 0)
(0.53094666 4.7576727e-06 0)
(0.75056194 9.5694183e-06 0)
(1.0159384 1.7471382e-05 0)
(1.3117965 2.8194793e-05 0)
(1.6050405 3.7777678e-05 0)
(1.8466678 3.6463563e-05 0)
(1.9846188 1.5680873e-05 0)
(1.9846188 -1.5679028e-05 0)
(1.8466678 -3.646156e-05 0)
(1.6050405 -3.77759e-05 0)
(1.3117965 -2.8194692e-05 0)
(1.0159384 -1.7475337e-05 0)
(0.75056194 -9.5790187e-06 0)
(0.53094666 -4.7716969e-06 0)
(0.35916216 -2.168319e-06 0)
(0.23000603 -8.8039381e-07 0)
(0.13555529 -3.0003769e-07 0)
(0.067807291 -7.3795854e-08 0)
(0.019861404 -1.1522862e-08 0)
(0.019860867 9.225699e-09 0)
(0.067805479 6.4368893e-08 0)
(0.13555173 2.7410778e-07 0)
(0.23000012 8.1840689e-07 0)
(0.35915325 2.0310868e-06 0)
(0.53093422 4.4878704e-06 0)
(0.75054596 9.0279791e-06 0)
(1.0159203 1.6486754e-05 0)
(1.3117806 2.6618653e-05 0)
(1.6050346 3.5703933e-05 0)
(1.8466798 3.4524724e-05 0)
(1.9846465 1.4883408e-05 0)
(1.9846465 -1.488091e-05 0)
(1.8466798 -3.4521948e-05 0)
(1.6050346 -3.5701482e-05 0)
(1.3117806 -2.6618656e-05 0)
(1.0159203 -1.6492445e-05 0)
(0.75054596 -9.0412982e-06 0)
(0.53093422 -4.5069475e-06 0)
(0.35915325 -2.0511416e-06 0)
(0.23000012 -8.3525252e-07 0)
(0.13555173 -2.8653098e-07 0)
(0.067805479 -7.1665826e-08 0)
(0.019860867 -1.1512837e-08 0)
(0.01986036 8.7051469e-09 0)
(0.067803771 6.0740367e-08 0)
(0.13554837 2.5866498e-07 0)
(0.22999455 7.7231621e-07 0)
(0.35914485 1.9167545e-06 0)
(0.53092248 4.2354742e-06 0)
(0.75053089 8.5212284e-06 0)
(1.0159032 1.5565058e-05 0)
(1.3117655 2.5142737e-05 0)
(1.605029 3.3753542e-05 0)
(1.846691 3.271099e-05 0)
(1.9846726 1.4131792e-05 0)
(1.9846726 -1.412853e-05 0)
(1.846691 -3.2707299e-05 0)
(1.605029 -3.3750293e-05 0)
(1.3117655 -2.5142881e-05 0)
(1.0159032 -1.5572846e-05 0)
(0.75053089 -8.5389924e-06 0)
(0.53092248 -4.2605527e-06 0)
(0.35914485 -1.9428679e-06 0)
(0.22999454 -7.9410387e-07 0)
(0.13554836 -2.7464873e-07 0)
(0.06780377 -7.0097032e-08 0)
(0.01986036 -1.1633913e-08 0)
(0.019859881 8.2169795e-09 0)
(0.067802156 5.7333836e-08 0)
(0.13554519 2.4416143e-07 0)
(0.22998928 7.2904051e-07 0)
(0.35913691 1.8094696e-06 0)
(0.53091139 3.998747e-06 0)
(0.75051664 8.0458163e-06 0)
(1.0158871 1.4699091e-05 0)
(1.3117512 2.3752302e-05 0)
(1.6050236 3.1914778e-05 0)
(1.8467017 3.0970086e-05 0)
(1.9846975 1.3408068e-05 0)
(1.9846975 -1.3403925e-05 0)
(1.8467017 -3.0965329e-05 0)
(1.6050236 -3.1910604e-05 0)
(1.3117512 -2.3752639e-05 0)
(1.0158871 -1.470938e-05 0)
(0.75051664 -8.0688229e-06 0)
(0.53091139 -4.0308537e-06 0)
(0.35913691 -1.8426416e-06 0)
(0.22998928 -7.5656332e-07 0)
(0.13554519 -2.6426424e-07 0)
(0.067802155 -6.9068489e-08 0)
(0.019859881 -1.1885916e-08 0)
(0.01985943 7.7628525e-09 0)
(0.067800634 5.4165519e-08 0)
(0.13554219 2.3066795e-07 0)
(0.22998431 6.8873675e-07 0)
(0.35912943 1.7093903e-06 0)
(0.53090093 3.7775619e-06 0)
(0.7505032 7.6012432e-06 0)
(1.0158719 1.3889547e-05 0)
(1.3117377 2.2453404e-05 0)
(1.6050185 3.0190079e-05 0)
(1.8467117 2.9355009e-05 0)
(1.9847208 1.2731559e-05 0)
(1.9847208 -1.272643e-05 0)
(1.8467117 -2.9349047e-05 0)
(1.6050185 -3.0184858e-05 0)
(1.3117377 -2.2454009e-05 0)
(1.0158719 -1.3902789e-05 0)
(0.75050321 -7.6303497e-06 0)
(0.53090093 -3.8177746e-06 0)
(0.35912942 -1.7506499e-06 0)
(0.22998431 -7.2279638e-07 0)
(0.13554219 -2.5544634e-07 0)
(0.067800633 -6.8592386e-08 0)
(0.01985943 -1.2268894e-08 0)
(0.019859003 7.3350593e-09 0)
(0.067799193 5.1173358e-08 0)
(0.13553936 2.179159e-07 0)
(0.22997961 6.5068907e-07 0)
(0.35912234 1.6151106e-06 0)
(0.53089102 3.569583e-06 0)
(0.75049047 7.1832866e-06 0)
(1.0158574 1.3126687e-05 0)
(1.3117249 2.1224253e-05 0)
(1.6050136 2.8556702e-05 0)
(1.8467212 2.7790667e-05 0)
(1.9847433 1.20752e-05 0)
(1.9847433 -1.2068981e-05 0)
(1.8467212 -2.7783365e-05 0)
(1.6050136 -2.8550333e-05 0)
(1.3117249 -2.122523e-05 0)
(1.0158574 -1.3143373e-05 0)
(0.75049047 -7.2193808e-06 0)
(0.53089102 -3.6189845e-06 0)
(0.35912233 -1.6654652e-06 0)
(0.22997961 -6.9205274e-07 0)
(0.13553935 -2.4789144e-07 0)
(0.067799191 -6.8582389e-08 0)
(0.019859002 -1.2767034e-08 0)
(0.0198586 6.9440927e-09 0)
(0.067797836 4.8441634e-08 0)
(0.13553669 2.062649e-07 0)
(0.22997518 6.1581831e-07 0)
(0.35911566 1.5282825e-06 0)
(0.5308817 3.377122e-06 0)
(0.75047849 6.7955426e-06 0)
(1.0158438 1.2419452e-05 0)
(1.3117128 2.008722e-05 0)
(1.605009 2.7040124e-05 0)
(1.84673 2.6362455e-05 0)
(1.9847642 1.1471193e-05 0)
(1.9847642 -1.1463816e-05 0)
(1.84673 -2.6353723e-05 0)
(1.6050089 -2.7032538e-05 0)
(1.3117128 -2.0088711e-05 0)
(1.0158438 -1.2440092e-05 0)
(0.75047849 -6.8394816e-06 0)