/*--------------------------------*- C++ -*----------------------------------*\
  =========                 |
  \\      /  F ield         | OpenFOAM: The Open Source CFD Toolbox
   \\    /   O peration     | Website:  https://openfoam.org
    \\  /    A nd           | Version:  10
     \\/     M anipulation  |
\*---------------------------------------------------------------------------*/
FoamFile
{
    format      ascii;
    class       volScalarField;
    location    "6.7";
    object      T;
}
// * * * * * * * * * * * * * * * * * * * * * * * * * * * * * * * * * * * * * //

dimensions      [0 0 -1 0 0 0 0];

internalField   nonuniform List<scalar> 
100
(
0.0457538
0.13564
0.22072
0.297982
0.364687
0.418473
0.457435
0.480192
0.485937
0.474468
0.446191
0.402108
0.343779
0.273272
0.193084
0.106056
0.0152711
-0.0760549
-0.164687
-0.247484
-0.321515
-0.384155
-0.433187
-0.466873
-0.484019
-0.484019
-0.466873
-0.433187
-0.384155
-0.321514
-0.247484
-0.164686
-0.0760545
0.0152715
0.106057
0.193084
0.273272
0.343779
0.402108
0.446191
0.474468
0.485937
0.480191
0.457434
0.418473
0.364686
0.297981
0.220719
0.135639
0.0457528
-0.0457538
-0.13564
-0.22072
-0.297982
-0.364687
-0.418473
-0.457435
-0.480191
-0.485937
-0.474468
-0.446191
-0.402107
-0.343779
-0.273271
-0.193084
-0.106056
-0.0152705
0.0760555
0.164687
0.247485
0.321515
0.384156
0.433187
0.466873
0.484019
0.484019
0.466872
0.433186
0.384155
0.321514
0.247483
0.164686
0.076054
-0.0152721
-0.106057
-0.193085
-0.273273
-0.34378
-0.402108
-0.446192
-0.474469
-0.485937
-0.480191
-0.457434
-0.418473
-0.364686
-0.297981
-0.220719
-0.135639
-0.0457528
)
;

boundaryField
{
    inlet
    {
        type            cyclic;
    }
    outlet
    {
        type            cyclic;
    }
    bottom
    {
        type            slip;
    }
    top
    {
        type            slip;
    }
    frontAndBack
    {
        type            empty;
    }
}


// ************************************************************************* //
