/*--------------------------------*- C++ -*----------------------------------*\
| =========                 |                                                 |
| \\      /  F ield         | OpenFOAM: The Open Source CFD Toolbox           |
|  \\    /   O peration     | Version:  2406                                  |
|   \\  /    A nd           | Website:  www.openfoam.com                      |
|    \\/     M anipulation  |                                                 |
\*---------------------------------------------------------------------------*/
FoamFile
{
    version     2.0;
    format      ascii;
    arch        "LSB;label=32;scalar=64";
    class       volScalarField;
    location    "47";
    object      p;
}
// * * * * * * * * * * * * * * * * * * * * * * * * * * * * * * * * * * * * * //

dimensions      [0 2 -2 0 0 0 0];

internalField   nonuniform List<scalar> 
1176
(
0.79699976
0.79702263
0.79704629
0.79705396
0.79702243
0.79692773
0.7967705
0.79658434
0.79640514
0.79623798
0.79608336
0.79598775
0.79598775
0.79608335
0.79623796
0.79640509
0.79658425
0.79677036
0.79692753
0.79702214
0.79705357
0.79704579
0.79702203
0.79699908
0.77385133
0.77380437
0.77375661
0.77373971
0.77380221
0.77400457
0.77436989
0.77483429
0.77526515
0.77555126
0.77567065
0.77570491
0.77570492
0.77567067
0.77555129
0.77526521
0.77483438
0.77437002
0.77400473
0.77380242
0.77373996
0.7737569
0.77380469
0.77385167
0.75676657
0.75678858
0.75680838
0.75680647
0.7567474
0.75658623
0.75631446
0.75598652
0.7556803
0.75546751
0.75535671
0.75530789
0.75530789
0.7553567
0.75546749
0.75568027
0.75598648
0.75631442
0.75658618
0.75674735
0.75680641
0.75680832
0.75678852
0.75676651
0.74009468
0.7401038
0.74011586
0.74013226
0.74015481
0.74017238
0.74014014
0.74000673
0.73977462
0.73950206
0.73927785
0.73915736
0.73915735
0.73927785
0.73950206
0.73977462
0.74000673
0.74014015
0.74017238
0.7401548
0.74013224
0.74011583
0.74010376
0.74009463
0.72367563
0.72367958
0.72368457
0.72369064
0.72370034
0.72372061
0.7237568
0.72379831
0.72381998
0.72379611
0.72373399
0.72368136
0.72368136
0.72373399
0.72379611
0.72381998
0.72379832
0.72375681
0.72372062
0.72370035
0.72369065
0.72368458
0.72367959
0.72367564
0.70721397
0.70721639
0.70721963
0.70722367
0.70722859
0.70723542
0.70724959
0.7072809
0.70733089
0.70738814
0.70743085
0.7074475
0.7074475
0.70743085
0.70738814
0.70733089
0.7072809
0.70724959
0.70723542
0.70722859
0.70722367
0.70721963
0.70721638
0.70721396
0.69080816
0.6908103
0.69081311
0.69081654
0.69082044
0.69082395
0.69082602
0.69082819
0.69083674
0.69085397
0.69087187
0.69088359
0.69088359
0.69087187
0.69085397
0.69083674
0.6908282
0.69082602
0.69082395
0.69082044
0.69081654
0.6908131
0.69081029
0.69080815
0.6744283
0.67443005
0.67443238
0.6744353
0.67443898
0.67444335
0.6744478
0.67445096
0.67445219
0.67445381
0.67445085
0.67444834
0.67444834
0.67445086
0.67445381
0.67445219
0.67445096
0.6744478
0.67444335
0.67443898
0.6744353
0.67443238
0.67443005
0.67442829
0.65807401
0.65807547
0.6580774
0.65807981
0.65808282
0.65808661
0.65809166
0.6580987
0.65810739
0.65811742
0.65812518
0.65812877
0.65812877
0.65812518
0.65811742
0.65810739
0.6580987
0.65809166
0.65808661
0.65808282
0.6580798
0.65807739
0.65807546
0.658074
0.64173632
0.64173752
0.64173913
0.64174117
0.64174373
0.64174691
0.64175107
0.64175746
0.64176762
0.64178076
0.64179509
0.64180439
0.64180439
0.64179509
0.64178076
0.64176762
0.64175746
0.64175107
0.64174691
0.64174373
0.64174116
0.64173913
0.64173751
0.64173631
0.62541194
0.62541297
0.62541434
0.62541609
0.6254183
0.62542103
0.62542442
0.62542927
0.62543713
0.62544779
0.62546035
0.62546949
0.62546949
0.62546035
0.6254478
0.62543713
0.62542927
0.62542443
0.62542103
0.6254183
0.62541609
0.62541434
0.62541296
0.62541193
0.60909847
0.60909936
0.60910056
0.60910208
0.60910403
0.60910642
0.60910939
0.6091134
0.60911961
0.60912827
0.60913884
0.60914629
0.60914629
0.60913884
0.60912827
0.60911961
0.6091134
0.60910939
0.60910642
0.60910402
0.60910208
0.60910055
0.60909935
0.60909846
0.59279427
0.59279506
0.59279612
0.59279747
0.59279919
0.59280132
0.59280395
0.59280749
0.59281289
0.59282064
0.59283033
0.59283701
0.59283701
0.59283033
0.59282064
0.59281289
0.59280749
0.59280395
0.59280132
0.59279918
0.59279746
0.59279611
0.59279505
0.59279427
0.57649805
0.57649875
0.5764997
0.5765009
0.57650244
0.57650434
0.57650669
0.57650982
0.5765146
0.57652157
0.57653023
0.57653632
0.57653632
0.57653023
0.57652157
0.5765146
0.57650982
0.57650669
0.57650434
0.57650243
0.5765009
0.57649969
0.57649875
0.57649805
0.56020879
0.56020941
0.56021026
0.56021134
0.56021273
0.56021444
0.56021654
0.56021931
0.56022347
0.5602296
0.56023712
0.56024252
0.56024252
0.56023712
0.5602296
0.56022347
0.56021931
0.56021654
0.56021444
0.56021272
0.56021134
0.56021026
0.56020942
0.56020879
0.54392566
0.54392623
0.543927
0.54392798
0.54392923
0.54393079
0.54393268
0.54393514
0.54393877
0.54394415
0.54395069
0.54395547
0.54395547
0.54395068
0.54394415
0.54393877
0.54393513
0.54393268
0.54393079
0.54392923
0.54392798
0.543927
0.54392624
0.54392567
0.52764804
0.52764856
0.52764925
0.52765014
0.52765129
0.5276527
0.52765443
0.52765663
0.52765985
0.52766461
0.52767034
0.52767463
0.52767463
0.52767033
0.52766461
0.52765985
0.52765663
0.52765442
0.5276527
0.52765129
0.52765015
0.52764926
0.52764857
0.52764805
0.51137536
0.51137583
0.51137647
0.51137729
0.51137833
0.51137963
0.5113812
0.51138319
0.51138607
0.51139031
0.51139537
0.51139923
0.51139923
0.51139537
0.51139031
0.51138606
0.51138319
0.5113812
0.51137963
0.51137834
0.51137729
0.51137648
0.51137585
0.51137538
0.49510717
0.4951076
0.49510818
0.49510893
0.4951099
0.49511109
0.49511253
0.49511433
0.49511691
0.49512072
0.49512521
0.4951287
0.4951287
0.49512521
0.49512072
0.49511691
0.49511433
0.49511253
0.49511109
0.4951099
0.49510895
0.4951082
0.49510763
0.4951072
0.47884305
0.47884345
0.47884399
0.47884468
0.47884557
0.47884667
0.478848
0.47884964
0.47885197
0.47885539
0.47885943
0.47886258
0.47886258
0.47885942
0.47885539
0.47885196
0.47884964
0.47884799
0.47884667
0.47884558
0.4788447
0.47884402
0.47884349
0.4788431
0.46258268
0.46258305
0.46258355
0.46258419
0.46258501
0.46258603
0.46258725
0.46258876
0.46259087
0.46259396
0.46259761
0.46260048
0.46260048
0.46259761
0.46259396
0.46259086
0.46258876
0.46258725
0.46258603
0.46258502
0.46258421
0.46258358
0.4625831
0.46258274
0.44632575
0.44632609
0.44632655
0.44632715
0.44632791
0.44632885
0.44632999
0.44633137
0.44633329
0.44633611
0.44633942
0.44634203
0.44634203
0.44633942
0.4463361
0.44633328
0.44633137
0.44632998
0.44632886
0.44632792
0.44632717
0.44632659
0.44632615
0.44632582
0.43007199
0.4300723
0.43007273
0.43007328
0.43007399
0.43007487
0.43007592
0.4300772
0.43007895
0.43008152
0.43008456
0.43008694
0.43008694
0.43008456
0.43008152
0.43007895
0.4300772
0.43007592
0.43007487
0.43007401
0.43007331
0.43007278
0.43007237
0.43007206
0.41382115
0.41382145
0.41382185
0.41382236
0.41382302
0.41382384
0.41382482
0.413826
0.41382761
0.41382996
0.41383275
0.41383494
0.41383494
0.41383275
0.41382996
0.4138276
0.41382599
0.41382481
0.41382384
0.41382304
0.4138224
0.4138219
0.41382152
0.41382124
0.39757303
0.39757331
0.39757368
0.39757416
0.39757478
0.39757554
0.39757645
0.39757756
0.39757904
0.3975812
0.39758377
0.39758578
0.39758578
0.39758377
0.3975812
0.39757903
0.39757754
0.39757645
0.39757554
0.3975748
0.3975742
0.39757375
0.3975734
0.39757314
0.38132744
0.3813277
0.38132805
0.3813285
0.38132907
0.38132979
0.38133064
0.38133166
0.38133303
0.38133502
0.3813374
0.38133925
0.38133925
0.3813374
0.38133502
0.38133302
0.38133165
0.38133063
0.38132979
0.38132909
0.38132854
0.38132812
0.3813278
0.38132757
0.3650842
0.36508444
0.36508477
0.36508519
0.36508573
0.36508639
0.36508719
0.36508815
0.36508941
0.36509126
0.36509346
0.36509517
0.36509517
0.36509346
0.36509125
0.3650894
0.36508813
0.36508718
0.3650864
0.36508575
0.36508524
0.36508485
0.36508456
0.36508434
0.34884315
0.34884338
0.34884368
0.34884407
0.34884458
0.3488452
0.34884595
0.34884684
0.34884802
0.34884973
0.34885178
0.34885336
0.34885336
0.34885178
0.34884972
0.348848
0.34884683
0.34884594
0.34884521
0.34884461
0.34884413
0.34884378
0.34884351
0.34884331
0.33260415
0.33260436
0.33260464
0.33260501
0.33260549
0.33260607
0.33260677
0.33260761
0.3326087
0.33261029
0.3326122
0.33261367
0.33261367
0.3326122
0.33261028
0.33260869
0.33260759
0.33260676
0.33260608
0.33260552
0.33260508
0.33260475
0.33260451
0.33260433
0.31636706
0.31636726
0.31636752
0.31636787
0.31636831
0.31636887
0.31636952
0.3163703
0.31637132
0.3163728
0.31637458
0.31637595
0.31637595
0.31637458
0.31637279
0.31637131
0.31637028
0.31636951
0.31636887
0.31636835
0.31636795
0.31636765
0.31636742
0.31636726
0.30013176
0.30013195
0.3001322
0.30013252
0.30013294
0.30013346
0.30013408
0.30013481
0.30013576
0.30013713
0.30013881
0.30014008
0.30014008
0.30013881
0.30013712
0.30013574
0.30013478
0.30013406
0.30013347
0.30013298
0.30013261
0.30013234
0.30013213
0.30013199
0.28389814
0.28389832
0.28389856
0.28389886
0.28389926
0.28389974
0.28390032
0.28390101
0.2839019
0.28390318
0.28390474
0.28390593
0.28390593
0.28390474
0.28390317
0.28390188
0.28390098
0.2839003
0.28389975
0.2838993
0.28389896
0.28389871
0.28389853
0.28389839
0.2676661
0.26766627
0.26766649
0.26766678
0.26766715
0.26766761
0.26766815
0.2676688
0.26766963
0.26767083
0.2676723
0.26767341
0.26767341
0.2676723
0.26767082
0.26766961
0.26766877
0.26766813
0.26766762
0.2676672
0.26766689
0.26766666
0.2676665
0.26766638
0.25143555
0.2514357
0.25143591
0.25143618
0.25143653
0.25143696
0.25143748
0.25143808
0.25143887
0.25143998
0.25144136
0.25144239
0.2514424
0.25144136
0.25143997
0.25143884
0.25143805
0.25143745
0.25143697
0.25143659
0.2514363
0.2514361
0.25143596
0.25143585
0.23520638
0.23520653
0.23520673
0.23520698
0.23520731
0.23520772
0.2352082
0.23520877
0.2352095
0.23521055
0.23521185
0.23521282
0.23521282
0.23521185
0.23521054
0.23520947
0.23520873
0.23520817
0.23520772
0.23520737
0.23520711
0.23520693
0.23520681
0.23520672
0.21897853
0.21897866
0.21897885
0.21897909
0.2189794
0.21897978
0.21898024
0.21898078
0.21898147
0.21898245
0.21898366
0.21898457
0.21898457
0.21898366
0.21898243
0.21898143
0.21898074
0.21898021
0.21897979
0.21897947
0.21897923
0.21897908
0.21897897
0.2189789
0.2027519
0.20275203
0.20275221
0.20275243
0.20275273
0.20275309
0.20275352
0.20275402
0.20275467
0.20275559
0.20275674
0.2027576
0.2027576
0.20275674
0.20275558
0.20275463
0.20275398
0.20275349
0.2027531
0.2027528
0.20275259
0.20275245
0.20275237
0.20275231
0.18652644
0.18652657
0.18652673
0.18652694
0.18652722
0.18652756
0.18652797
0.18652844
0.18652905
0.18652991
0.18653099
0.18653179
0.18653179
0.18653098
0.18652989
0.18652901
0.18652839
0.18652793
0.18652757
0.1865273
0.18652711
0.186527
0.18652693
0.18652688
0.17030207
0.17030219
0.17030235
0.17030255
0.17030281
0.17030313
0.17030351
0.17030396
0.17030453
0.17030535
0.17030636
0.17030712
0.17030712
0.17030636
0.17030533
0.17030449
0.17030391
0.17030348
0.17030314
0.17030289
0.17030273
0.17030264
0.17030259
0.17030256
0.15407874
0.15407885
0.154079
0.15407919
0.15407944
0.15407974
0.1540801
0.15408052
0.15408106
0.15408182
0.15408276
0.15408347
0.15408347
0.15408276
0.1540818
0.15408101
0.15408047
0.15408006
0.15407975
0.15407953
0.15407939
0.15407932
0.15407929
0.15407927
0.13785638
0.13785648
0.13785662
0.1378568
0.13785703
0.13785732
0.13785766
0.13785806
0.13785856
0.13785928
0.13786017
0.13786084
0.13786084
0.13786017
0.13785925
0.13785851
0.137858
0.13785762
0.13785734
0.13785714
0.13785702
0.13785697
0.13785696
0.13785695
0.12163495
0.12163505
0.12163518
0.12163535
0.12163557
0.12163584
0.12163616
0.12163654
0.12163701
0.12163766
0.12163848
0.12163909
0.12163909
0.12163848
0.12163764
0.12163695
0.12163647
0.12163612
0.12163586
0.12163568
0.12163559
0.12163556
0.12163556
0.12163557
0.10541437
0.10541446
0.10541459
0.10541475
0.10541495
0.10541521
0.10541551
0.10541586
0.1054163
0.10541692
0.10541769
0.10541825
0.10541826
0.10541769
0.10541689
0.10541624
0.10541579
0.10541546
0.10541523
0.10541508
0.105415
0.10541499
0.10541501
0.10541503
0.089194655
0.089194742
0.08919486
0.089195011
0.089195206
0.089195448
0.089195733
0.089196062
0.089196463
0.089197005
0.089197663
0.08919814
0.089198144
0.089197664
0.089196978
0.089196401
0.089195986
0.089195685
0.089195471
0.08919534
0.089195287
0.089195294
0.089195328
0.089195358
0.07297565
0.072975731
0.072975842
0.072975985
0.072976171
0.072976403
0.072976677
0.072976989
0.072977364
0.07297786
0.07297845
0.072978858
0.072978863
0.072978452
0.072977833
0.072977299
0.07297691
0.072976626
0.072976429
0.072976313
0.072976275
0.072976296
0.072976342
0.072976382
0.05675753
0.056757609
0.056757716
0.056757852
0.056758026
0.05675824
0.056758489
0.056758771
0.05675909
0.056759466
0.056759848
0.056760074
0.05676008
0.056759852
0.056759438
0.056759023
0.05675869
0.056758438
0.056758267
0.056758172
0.056758147
0.056758174
0.056758222
0.056758262
0.040539743
0.040539813
0.040539909
0.040540037
0.040540211
0.040540433
0.040540695
0.040540984
0.040541307
0.040541713
0.040542187
0.040542506
0.040542514
0.040542193
0.040541688
0.040541241
0.040540902
0.040540644
0.040540458
0.040540349
0.040540316
0.040540338
0.040540383
0.04054042
0.024323473
0.024323554
0.024323661
0.024323787
0.024323932
0.024324091
0.024324262
0.024324442
0.024324605
0.024324681
0.024324598
0.024324379
0.024324387
0.024324608
0.02432466
0.024324545
0.024324367
0.024324217
0.024324117
0.024324055
0.024324023
0.024324013
0.024324012
0.024324009
0.0081053758
0.0081054449
0.0081055362
0.0081056561
0.0081058155
0.0081060139
0.0081062334
0.0081064711
0.0081068467
0.0081076805
0.0081091603
0.0081105348
0.0081105413
0.0081091698
0.0081076724
0.0081068113
0.0081064226
0.0081062019
0.008106028
0.0081058938
0.0081058077
0.00810576
0.0081057317
0.0081057083
)
;

boundaryField
{
    INLET
    {
        type            zeroGradient;
    }
    OUTLET
    {
        type            fixedValue;
        value           uniform 0;
    }
    WALL
    {
        type            zeroGradient;
    }
    frontAndBackPlanes
    {
        type            empty;
    }
}


// ************************************************************************* //
