/*--------------------------------*- C++ -*----------------------------------*\
| =========                 |                                                 |
| \\      /  F ield         | OpenFOAM: The Open Source CFD Toolbox           |
|  \\    /   O peration     | Version:  2406                                  |
|   \\  /    A nd           | Website:  www.openfoam.com                      |
|    \\/     M anipulation  |                                                 |
\*---------------------------------------------------------------------------*/
FoamFile
{
    version     2.0;
    format      ascii;
    arch        "LSB;label=32;scalar=64";
    class       surfaceScalarField;
    location    "47";
    object      phi;
}
// * * * * * * * * * * * * * * * * * * * * * * * * * * * * * * * * * * * * * //

dimensions      [0 3 -1 0 0 0 0];

oriented        oriented;

internalField   nonuniform List<scalar> 
2279
(
2.361758e-08
1.0148926e-05
2.0509784e-07
4.982375e-05
6.9331788e-07
0.00014252872
1.5784718e-06
0.00034353082
2.6788476e-06
0.00075378089
3.3472908e-06
0.0015415573
3.0435188e-06
0.0029497096
2.1516825e-06
0.005249171
1.431802e-06
0.008582269
9.8959024e-07
0.012685995
5.1266628e-07
0.016666385
1.4820569e-12
0.01918202
-5.1265663e-07
0.01918202
-9.8955889e-07
0.016666385
-1.4317271e-06
0.012685995
-2.1515337e-06
0.0085822689
-3.0432627e-06
0.0052491708
-3.3468877e-06
0.0029497095
-2.6782752e-06
0.0015415572
-1.5778036e-06
0.00075378077
-6.9269301e-07
0.00034353074
-2.0467267e-07
0.00014252867
-2.3419119e-08
4.9823729e-05
1.0148921e-05
-9.5248336e-08
1.0244175e-05
-5.379398e-07
5.0266441e-05
-1.6230008e-06
0.00014361378
-3.5389522e-06
0.00034544677
-5.9201867e-06
0.00075616213
-7.4055034e-06
0.0015430426
-6.5847291e-06
0.0029488888
-3.9361623e-06
0.0052465224
-1.388392e-06
0.0085797213
-6.5122186e-08
0.012684671
2.4240285e-07
0.016666078
-7.0108542e-12
0.019182263
-2.4241932e-07
0.019182263
6.5096919e-08
0.016666078
1.3883501e-06
0.012684671
3.9360974e-06
0.0085797214
6.5846285e-06
0.0052465225
7.4053466e-06
0.0029488889
5.9199615e-06
0.0015430427
3.5386945e-06
0.00075616219
1.6227747e-06
0.00034544681
5.3779785e-07
0.0001436138
9.5189448e-08
5.0266447e-05
1.0244176e-05
5.0139999e-08
1.0194035e-05
2.6334532e-07
5.0053236e-05
7.4910765e-07
0.00014312802
1.5314588e-06
0.00034466442
2.3366557e-06
0.00075535693
2.5476613e-06
0.0015428316
1.8390945e-06
0.0029495974
9.7567227e-07
0.0052473858
6.769554e-07
0.00858002
6.717833e-07
0.012684677
4.841605e-07
0.016666266
-4.7501305e-12
0.019182747
-4.8417222e-07
0.019182747
-6.7179966e-07
0.016666266
-6.7697107e-07
0.012684677
-9.7568607e-07
0.0085800199
-1.8391013e-06
0.0052473858
-2.5476552e-06
0.0029495974
-2.3366414e-06
0.0015428316
-1.531446e-06
0.00075535692
-7.4910591e-07
0.00034466442
-2.6335052e-07
0.00014312802
-5.0145895e-08
5.0053237e-05
1.0194035e-05
1.9586847e-08
1.0174448e-05
1.1184952e-07
4.9960974e-05
3.6128465e-07
0.00014287858
9.0504805e-07
0.00034412066
1.8716598e-06
0.00075439032
3.0948226e-06
0.0015416085
3.8987219e-06
0.0029487935
3.7285517e-06
0.005247556
2.9242062e-06
0.0085808243
1.9733701e-06
0.012685627
1.0127681e-06
0.016667226
1.717659e-12
0.01918376
-1.0127634e-06
0.01918376
-1.9733627e-06
0.016667226
-2.924196e-06
0.012685627
-3.7285408e-06
0.0085808243
-3.8987088e-06
0.005247556
-3.0947975e-06
0.0029487935
-1.8716168e-06
0.0015416085
-9.0499269e-07
0.00075439031
-3.6123044e-07
0.00034412065
-1.1181155e-07
0.00014287858
-1.9568678e-08
4.9960973e-05
1.0174448e-05
8.0841434e-09
1.0166364e-05
4.7141907e-08
4.9921916e-05
1.5494752e-07
0.00014277078
3.9846378e-07
0.00034387714
8.7979496e-07
0.00075390899
1.701516e-06
0.0015407867
2.7512738e-06
0.0029477437
3.4623589e-06
0.0052468449
3.4708582e-06
0.0085808158
2.8006825e-06
0.012686298
1.5505117e-06
0.016668476
-1.4362815e-12
0.01918531
-1.5505153e-06
0.01918531
-2.8006889e-06
0.016668476
-3.4708705e-06
0.012686298
-3.4623738e-06
0.0085808158
-2.7512853e-06
0.0052468449
-1.7015214e-06
0.0029477437
-8.797953e-07
0.0015407867
-3.9846105e-07
0.00075390899
-1.5494329e-07
0.00034387714
-4.7137861e-08
0.00014277078
-8.0815967e-09
4.9921916e-05
1.0166364e-05
4.9361004e-09
1.0161429e-05
2.869934e-08
4.9898153e-05
9.5122161e-08
0.00014270436
2.4921512e-07
0.00034372305
5.6360994e-07
0.00075359459
1.1213749e-06
0.001540229
1.9184569e-06
0.0029469467
2.658819e-06
0.0052461046
2.8930566e-06
0.0085805816
2.4787638e-06
0.012686712
1.4344239e-06
0.016669521
-1.185276e-12
0.019186745
-1.4344267e-06
0.019186745
-2.4787672e-06
0.016669521
-2.8930591e-06
0.012686712
-2.6588217e-06
0.0085805816
-1.9184566e-06
0.0052461046
-1.12137e-06
0.0029469467
-5.6360039e-07
0.001540229
-2.4920316e-07
0.00075359459
-9.5111176e-08
0.00034372305
-2.8691789e-08
0.00014270436
-4.9324965e-09
4.9898153e-05
1.0161429e-05
4.4125137e-09
1.0157016e-05
2.5525994e-08
4.987704e-05
8.3830574e-08
0.00014264605
2.168946e-07
0.00034358999
4.8450139e-07
0.00075332698
9.5636072e-07
0.0015397571
1.6413731e-06
0.0029462616
2.3245813e-06
0.0052454214
2.5939519e-06
0.0085803122
2.2393616e-06
0.012687066
1.3066728e-06
0.016670453
4.5476477e-13
0.019188051
-1.3066719e-06
0.019188051
-2.23936e-06
0.016670453
-2.5939495e-06
0.012687066
-2.3245787e-06
0.0085803122
-1.6413688e-06
0.0052454214
-9.5635252e-07
0.0029462616
-4.8448868e-07
0.0015397571
-2.168792e-07
0.00075332698
-8.3816108e-08
0.00034358999
-2.5515835e-08
0.00014264605
-4.407554e-09
4.987704e-05
1.0157016e-05
3.6256462e-09
1.0153391e-05
2.1036801e-08
4.9859629e-05
6.9438393e-08
0.00014259765
1.8114172e-07
0.00034347828
4.0971444e-07
0.00075309841
8.2390374e-07
0.0015393429
1.453992e-06
0.0029456316
2.143075e-06
0.0052447323
2.4674727e-06
0.0085799878
2.1883931e-06
0.012687346
1.2866428e-06
0.016671355
1.0005553e-12
0.019189338
-1.2866408e-06
0.019189338
-2.188391e-06
0.016671355
-2.4674712e-06
0.012687346
-2.1430738e-06
0.0085799878
-1.4539889e-06
0.0052447323
-8.2389676e-07
0.0029456316
-4.0970324e-07
0.0015393429
-1.8112784e-07
0.00075309841
-6.9425086e-08
0.00034347828
-2.1027267e-08
0.00014259765
-3.6209041e-09
4.9859629e-05
1.0153391e-05
2.9832125e-09
1.0150408e-05
1.7347154e-08
4.9845265e-05
5.7377482e-08
0.00014255762
1.50074e-07
0.00034338559
3.4097124e-07
0.00075290751
6.9193187e-07
0.001538992
1.2441089e-06
0.0029450794
1.9041862e-06
0.0052440722
2.301601e-06
0.0085795904
2.0975087e-06
0.01268755
1.2520112e-06
0.016672201
1.2532001e-12
0.01919059
-1.2520087e-06
0.01919059
-2.0975069e-06
0.016672201
-2.301601e-06
0.01268755
-1.9041866e-06
0.0085795904
-1.2441066e-06
0.0052440722
-6.9192513e-07
0.0029450794
-3.4095963e-07
0.001538992
-1.5005925e-07
0.00075290751
-5.7363254e-08
0.00034338559
-1.7336956e-08
0.00014255762
-2.9781516e-09
4.9845265e-05
1.0150408e-05
2.4654693e-09
1.0147942e-05
1.4363201e-08
4.9833367e-05
4.762659e-08
0.00014252436
1.250288e-07
0.00034330818
2.8558909e-07
0.00075274695
5.8417974e-07
0.0015386934
1.0641849e-06
0.0029445994
1.6641587e-06
0.0052434722
2.0898754e-06
0.0085791647
1.9528955e-06
0.012687687
1.1802457e-06
0.016672973
1.1379154e-12
0.01919177
-1.1802437e-06
0.01919177
-1.952895e-06
0.016672973
-2.0898772e-06
0.012687687
-1.6641601e-06
0.0085791647
-1.0641834e-06
0.0052434722
-5.8417319e-07
0.0029445994
-2.8557719e-07
0.0015386934
-1.2501352e-07
0.00075274695
-4.7611893e-08
0.00034330818
-1.4352712e-08
0.00014252436
-2.4602809e-09
4.9833367e-05
1.0147942e-05
2.1024498e-09
1.014584e-05
1.2258065e-08
4.9823212e-05
4.0688271e-08
0.00014249593
1.0699024e-07
0.00034324188
2.4507859e-07
0.00075260887
5.0385333e-07
0.0015384346
9.2623545e-07
0.002944177
1.4715123e-06
0.0052429269
1.8909096e-06
0.0085787453
1.8050238e-06
0.012687772
1.1036913e-06
0.016673675
1.0482669e-12
0.019192874
-1.1036898e-06
0.019192874
-1.8050246e-06
0.016673675
-1.8909125e-06
0.012687772
-1.4715145e-06
0.0085787453
-9.2623449e-07
0.005242927
-5.038472e-07
0.002944177
-2.4506714e-07
0.0015384346
-1.0697565e-07
0.00075260887
-4.0674453e-08
0.00034324188
-1.2248323e-08
0.00014249593
-2.0976718e-09
4.9823212e-05
1.014584e-05
1.8282058e-09
1.0144011e-05
1.0665439e-08
4.9814374e-05
3.5430226e-08
0.00014247116
9.3282951e-08
0.00034318403
2.141392e-07
0.00075248801
4.4192781e-07
0.0015382068
8.1811412e-07
0.0029438008
1.3163816e-06
0.0052424287
1.7244952e-06
0.0085783372
1.6780443e-06
0.012687819
1.0378061e-06
0.016674315
1.2486438e-12
0.019193912
-1.0378046e-06
0.019193912
-1.6780455e-06
0.016674315
-1.7244983e-06
0.012687819
-1.3163839e-06
0.0085783372
-8.1811338e-07
0.0052424287
-4.419223e-07
0.0029438008
-2.1412907e-07
0.0015382068
-9.3270451e-08
0.00075248801
-3.5418729e-08
0.00034318403
-1.0657514e-08
0.00014247116
-1.8243817e-09
4.9814375e-05
1.0144011e-05
1.6104507e-09
1.0142401e-05
9.3995893e-09
4.9806585e-05
3.1244307e-08
0.00014244932
8.2340298e-08
0.00034313293
1.8932066e-07
0.00075238103
3.918232e-07
0.0015380043
7.2924199e-07
0.0029434634
1.1851465e-06
0.0052419728
1.5781765e-06
0.0085779442
1.562341e-06
0.012687835
9.7670005e-07
0.0166749
1.6129869e-12
0.019194888
-9.7669807e-07
0.019194888
-1.5623417e-06
0.0166749
-1.5781789e-06
0.012687835
-1.1851481e-06
0.0085779442
-7.2924111e-07
0.0052419728
-3.9181869e-07
0.0029434634
-1.8931305e-07
0.0015380043
-8.2331539e-08
0.00075238103
-3.1236735e-08
0.00034313293
-9.3946182e-09
0.00014244932
-1.6081375e-09
4.9806585e-05
1.0142401e-05
1.4322746e-09
1.0140969e-05
8.362942e-09
4.9799655e-05
2.7812507e-08
0.00014242987
7.3352684e-08
0.00034308739
1.6886878e-07
0.00075228551
3.5026826e-07
0.0015378229
6.5458363e-07
0.0029431591
1.0720601e-06
0.0052415553
1.4464347e-06
0.0085775698
1.4548779e-06
0.012687826
9.1881169e-07
0.016675437
2.0488463e-12
0.019195807
-9.1880885e-07
0.019195807
-1.4548776e-06
0.016675437
-1.4464356e-06
0.012687826
-1.0720605e-06
0.0085775698
-6.545824e-07
0.0052415553
-3.5026526e-07
0.0029431591
-1.6886491e-07
0.0015378229
-7.3349249e-08
0.00075228551
-2.7810348e-08
0.00034308739
-8.3619592e-09
0.00014242987
-1.4319741e-09
4.9799655e-05
1.0140969e-05
1.2849553e-09
1.0139684e-05
7.5049901e-09
4.9793434e-05
2.4968716e-08
0.0001424124
6.5891001e-08
0.00034304647
1.5183807e-07
0.00075219957
3.154857e-07
0.0015376593
5.9149742e-07
0.0029428831
9.7478809e-07
0.005241172
1.3297061e-06
0.0085772149
1.3567889e-06
0.012687799
8.6525446e-07
0.016675928
2.4825996e-12
0.019196672
-8.6525057e-07
0.019196672
-1.3567869e-06
0.016675928
-1.3297049e-06
0.012687799
-9.7478664e-07
0.0085772149
-5.9149573e-07
0.005241172
-3.1548472e-07
0.0029428831
-1.5183897e-07
0.0015376593
-6.5894219e-08
0.00075219957
-2.4973209e-08
0.00034304647
-7.5088558e-09
0.0001424124
-1.2870844e-09
4.9793434e-05
1.0139684e-05
1.1614194e-09
1.0138522e-05
6.7850694e-09
4.9787811e-05
2.2580258e-08
0.00014239661
5.9615185e-08
0.00034300944
1.3748102e-07
0.0007521217
2.8604696e-07
0.0015375107
5.3771185e-07
0.0029426314
8.9070725e-07
0.005240819
1.2263992e-06
0.0085768792
1.2674916e-06
0.012687758
8.159293e-07
0.01667638
2.8330668e-12
0.019197488
-8.1592439e-07
0.019197488
-1.2674877e-06
0.01667638
-1.2263956e-06
0.012687758
-8.9070378e-07
0.0085768792
-5.3770974e-07
0.005240819
-2.8604846e-07
0.0029426314
-1.3748758e-07
0.0015375107
-5.962616e-08
0.0007521217
-2.259244e-08
0.00034300944
-6.7945108e-09
0.00014239661
-1.166333e-09
4.9787811e-05
1.0138522e-05
1.0560506e-09
1.0137466e-05
6.1707821e-09
4.9782696e-05
2.0541041e-08
0.00014238224
5.4251761e-08
0.00034297572
1.2519053e-07
0.00075205076
2.6076811e-07
0.0015373751
4.9125241e-07
0.0029424009
8.1722627e-07
0.005240493
1.1341849e-06
0.0085765622
1.1857924e-06
0.012687707
7.7021731e-07
0.016676795
3.0367656e-12
0.019198259
-7.7021157e-07
0.019198259
-1.1857869e-06
0.016676795
-1.134179e-06
0.012687707
-8.1722071e-07
0.0085765622
-4.9124998e-07
0.0052404931
-2.6077251e-07
0.0029424009
-1.252035e-07
0.0015373751
-5.4271451e-08
0.00075205076
-2.0561835e-08
0.00034297572
-6.1864555e-09
0.00014238224
-1.0640723e-09
4.9782696e-05
1.0137466e-05
9.6502337e-10
1.0136501e-05
5.6399093e-09
4.9778021e-05
1.8777866e-08
0.0001423691
4.9610746e-08
0.00034294489
1.1454122e-07
0.00075198583
2.3881087e-07
0.0015372509
4.507044e-07
0.002942189
7.5248363e-07
0.0052401913
1.0515009e-06
0.0085762632
1.1108331e-06
0.012687647
7.2769088e-07
0.016677178
3.0639276e-12
0.019198986
-7.276846e-07
0.019198986
-1.1108259e-06
0.016677178
-1.0514926e-06
0.012687647
-7.5247596e-07
0.0085762632
-4.5070175e-07
0.0052401913
-2.3881854e-07
0.002942189
-1.1456129e-07
0.0015372509
-4.9640063e-08
0.00075198583
-1.8808167e-08
0.00034294489
-5.6624619e-09
0.0001423691
-9.7647543e-10
4.9778021e-05
1.0136501e-05
8.8566593e-10
1.0135615e-05
5.1769035e-09
4.9773729e-05
1.7239373e-08
0.00014235704
4.5558295e-08
0.00034291657
1.0523165e-07
0.00075192616
2.1957616e-07
0.0015371365
4.1504237e-07
0.0029419936
6.9508963e-07
0.0052399112
9.7709487e-07
0.0085759812
1.0418684e-06
0.012687582
6.8800679e-07
0.016677532
2.918957e-12
0.019199674
-6.8800027e-07
0.019199674
-1.0418598e-06
0.016677532
-9.7708423e-07
0.012687582
-6.9507983e-07
0.0085759812
-4.1503958e-07
0.0052399112
-2.1958747e-07
0.0029419936
-1.0525954e-07
0.0015371365
-4.5598188e-08
0.00075192616
-1.7280123e-08
0.00034291657
-5.2070188e-09
0.00014235704
-9.0089005e-10
4.9773729e-05
1.0135615e-05
8.1588542e-10
1.0134799e-05
4.7696087e-09
4.9769775e-05
1.5885447e-08
0.00014234592
4.1989894e-08
0.00034289047
9.7026135e-08
0.00075187112
2.0259309e-07
0.0015370309
3.8344873e-07
0.0029418127
6.4389578e-07
0.0052396508
9.0984304e-07
0.0085757152
9.7823643e-07
0.012687514
6.5086743e-07
0.01667786
2.6293734e-12
0.019200325
-6.5086091e-07
0.019200325
-9.782266e-07
0.01667786
-9.0983009e-07
0.012687514
-6.4388379e-07
0.0085757152
-3.8344587e-07
0.0052396508
-2.0260842e-07
0.0029418127
-9.7062609e-08
0.0015370309
-4.20414e-08
0.00075187112
-1.5937672e-08
0.00034289047
-4.8080314e-09
0.00014234592
-8.352538e-10
4.9769775e-05
1.0134799e-05
7.5403042e-10
1.0134045e-05
4.4084355e-09
4.9766121e-05
1.4684422e-08
0.00014233564
3.8822924e-08
0.00034286633
8.9737848e-08
0.00075182021
1.8748639e-07
0.0015369332
3.5526504e-07
0.0029416449
5.9795817e-07
0.0052394081
8.4878831e-07
0.0085754644
9.1936672e-07
0.012687443
6.1601099e-07
0.016678163
2.238417e-12
0.019200941
-6.1600464e-07
0.019200941
-9.1935567e-07
0.016678163
-8.4877295e-07
0.012687443
-5.9794386e-07
0.0085754644
-3.5526215e-07
0.0052394081
-1.8750617e-07
0.0029416449
-8.9783756e-08
0.0015369332
-3.888718e-08
0.00075182021
-1.4749244e-08
0.00034286633
-4.4559773e-09
0.00014233564
-7.7794792e-10
4.9766121e-05
1.0134045e-05
6.9880912e-10
1.0133346e-05
4.0858823e-09
4.9762734e-05
1.3611494e-08
0.00014232612
3.599254e-08
0.00034284395
8.3219664e-08
0.00075177298
1.7395893e-07
0.0015368425
3.2996476e-07
0.0029414889
5.5650699e-07
0.0052391815
7.9312033e-07
0.0085752278
8.6476779e-07
0.012687372
5.8323151e-07
0.016678444
1.7946076e-12
0.019201524
-5.832254e-07
0.019201524
-8.6475547e-07
0.016678444
-7.9310235e-07
0.012687372
-5.5649015e-07
0.0085752278
-3.2996185e-07
0.0052391816
-1.7398359e-07
0.0029414889
-8.3275929e-08
0.0015368425
-3.607078e-08
0.00075177298
-1.3690125e-08
0.00034284395
-4.1434165e-09
0.00014232612
-7.277104e-10
4.9762733e-05
1.0133346e-05
6.4920183e-10
1.0132697e-05
3.7960283e-09
4.9759587e-05
1.2647076e-08
0.00014231727
3.344746e-08
0.00034282315
7.735498e-08
0.00075172907
1.6177433e-07
0.001536758
3.0712631e-07
0.0029413436
5.1891904e-07
0.0052389697
7.4217227e-07
0.0085750045
8.1401315e-07
0.0126873
5.5234191e-07
0.016678706
1.3478699e-12
0.019202077
-5.5233603e-07
0.019202077
-8.1399939e-07
0.016678706
-7.4215139e-07
0.0126873
-5.188994e-07
0.0085750046
-3.0712336e-07
0.0052389698
-1.6180434e-07
0.0029413436
-7.7422582e-08
0.001536758
-3.3540998e-08
0.00075172907
-1.2740802e-08
0.00034282315
-3.8644804e-09
0.00014231727
-6.8354687e-10
4.9759587e-05
1.0132696e-05
6.0439167e-10
1.0132092e-05
3.5341286e-09
4.9756657e-05
1.1775459e-08
0.00014230903
3.1146516e-08
0.00034280378
7.205001e-08
0.00075168817
1.5074184e-07
0.0015366793
2.8640726e-07
0.0029412079
4.8468117e-07
0.0052387715
6.9538013e-07
0.0085747938
7.6674285e-07
0.012687229
5.232035e-07
0.01667895
9.3917379e-13
0.0192026
-5.2319773e-07
0.0192026
-7.6672741e-07
0.01667895
-6.9535598e-07
0.012687229
-4.8465842e-07
0.0085747939
-2.8640424e-07
0.0052387715
-1.5077768e-07
0.0029412079
-7.2129976e-08
0.0015366794
-3.1256729e-08
0.00075168817
-1.1885626e-08
0.00034280378
-3.6144671e-09
0.00014230903
-6.4466149e-10
4.9756657e-05
1.0132092e-05
5.6371837e-10
1.0131528e-05
3.2963441e-09
4.9753924e-05
1.0983923e-08
0.00014230134
2.9056352e-08
0.0003427857
6.7228677e-08
0.00075165
1.407064e-07
0.0015366059
2.6752818e-07
0.0029410811
4.533719e-07
0.0052385856
6.5227501e-07
0.0085745949
7.2263499e-07
0.012687158
4.9567271e-07
0.016679177
5.9092219e-13
0.019203096
-4.956669e-07
0.019203096
-7.2261759e-07
0.016679177
-6.522472e-07
0.012687158
-4.5334568e-07
0.008574595
-2.6752505e-07
0.0052385856
-1.4074855e-07
0.0029410811
-6.7322069e-08
0.0015366059
-2.9184667e-08
0.00075165
-1.1111931e-08
0.0003427857
-3.3895743e-09
0.00014230134
-6.1041222e-10
4.9753924e-05
1.0131528e-05
5.2664227e-10
1.0131002e-05
3.0795327e-09
4.9751372e-05
1.0262052e-08
0.00014229416
2.7149617e-08
0.00034276882
6.2828502e-08
0.00075161432
1.3154031e-07
0.0015365372
2.5025772e-07
0.0029409624
4.2463764e-07
0.0052384112
6.1245274e-07
0.0085744071
6.8142175e-07
0.012687089
4.6965558e-07
0.016679388
3.0918141e-13
0.019203565
-4.6964955e-07
0.019203565
-6.8140208e-07
0.016679388
-6.1242084e-07
0.012687089
-4.2460759e-07
0.0085744071
-2.5025442e-07
0.0052384113
-1.3158927e-07
0.0029409624
-6.2936415e-08
0.0015365372
-2.7297507e-08
0.00075161432
-1.0409346e-08
0.00034276882
-3.1866946e-09
0.00014229416
-5.8027701e-10
4.9751371e-05
1.0131002e-05
4.9271933e-10
1.0130509e-05
2.8811045e-09
4.9748983e-05
9.6012537e-09
0.00014228744
2.5403744e-08
0.00034275301
5.8797917e-08
0.00075158092
1.231381e-07
0.0015364728
2.3440444e-07
0.0029408511
3.9818543e-07
0.0052382475
5.7557681e-07
0.0085742297
6.4285096e-07
0.012687022
4.4503074e-07
0.016679586
8.4944904e-14
0.01920401
-4.4502434e-07
0.01920401
-6.4282869e-07
0.016679586
-5.7554041e-07
0.012687022
-3.9815118e-07
0.0085742298
-2.3440091e-07
0.0052382475
-1.2319439e-07
0.0029408511
-5.8921479e-08
0.0015364728
-2.5572734e-08
0.00075158093
-9.7693299e-09
0.00034275301
-3.0032761e-09
0.00014228744
-5.5383088e-10
4.9748983e-05
1.0130509e-05
4.6157911e-10
1.0130048e-05
2.6988969e-09
4.9746746e-05
8.9943473e-09
0.00014228114
2.3799856e-08
0.00034273821
5.5093704e-08
0.00075154963
1.1541113e-07
0.0015364125
2.1980654e-07
0.0029407467
3.7376389e-07
0.0052380935
5.4134971e-07
0.0085740621
6.0672237e-07
0.012686957
4.2173865e-07
0.016679771
-1.2023715e-13
0.019204432
-4.2173175e-07
0.019204432
-6.0669722e-07
0.016679771
-5.4130838e-07
0.012686957
-3.7372507e-07
0.0085740622
-2.1980275e-07
0.0052380935
-1.1547529e-07
0.0029407467
-5.5234092e-08
0.0015364125
-2.3991529e-08
0.00075154963
-9.1847637e-09
0.00034273821
-2.8372005e-09
0.00014228114
-5.3072601e-10
4.9746746e-05
1.0130048e-05
4.3291048e-10
1.0129615e-05
2.5310907e-09
4.9744649e-05
8.4352921e-09
0.00014227524
2.2322076e-08
0.00034272432
5.1679553e-08
0.00075152027
1.0828495e-07
0.0015363559
2.0632828e-07
0.0029406487
3.5116295e-07
0.0052379487
5.0952328e-07
0.0085739038
5.7282818e-07
0.012686893
3.996647e-07
0.016679944
-3.3860285e-13
0.019204832
-3.9965723e-07
0.019204832
-5.7279989e-07
0.016679944
-5.0947663e-07
0.012686893
-3.5111921e-07
0.0085739038
-2.0632419e-07
0.0052379487
-1.0835756e-07
0.0029406487
-5.1837998e-08
0.0015363559
-2.2538092e-08
0.00075152028
-8.6496813e-09
0.00034272432
-2.6867036e-09
0.00014227524
-5.1067903e-10
4.9744648e-05
1.0129615e-05
4.0644932e-10
1.0129209e-05
2.3761433e-09
4.9742679e-05
7.9189626e-09
0.0001422697
2.0956908e-08
0.00034271129
4.8524502e-08
0.00075149271
1.0169586e-07
0.0015363027
1.938526e-07
0.0029405565
3.3019802e-07
0.0052378123
4.7987247e-07
0.0085737541
5.4102176e-07
0.012686832
3.7878108e-07
0.016680107
-5.8735752e-13
0.01920521
-3.7877303e-07
0.01920521
-5.4099012e-07
0.016680107
-4.7982012e-07
0.012686832
-3.3014902e-07
0.0085737541
-1.9384821e-07
0.0052378124
-1.0177753e-07
0.0029405565
-4.8702309e-08
0.0015363027
-2.1199019e-08
0.00075149271
-8.1590484e-09
0.00034271129
-2.5503096e-09
0.00014226969
-4.9345946e-10
4.9742679e-05
1.0129209e-05
3.8196887e-10
1.0128828e-05
2.2327274e-09
4.9740829e-05
7.4409506e-09
0.00014226449
1.9692775e-08
0.00034269903
4.5602083e-08
0.0007514668
9.5589557e-08
0.0015362527
1.8228008e-07
0.0029404698
3.1071391e-07
0.0052376839
4.5220883e-07
0.0085736126
5.1111988e-07
0.012686773
3.5896654e-07
0.016680259
-8.855912e-13
0.019205569
-3.5895791e-07
0.019205569
-5.1108471e-07
0.016680259
-4.5215043e-07
0.012686773
-3.1065931e-07
0.0085736126
-1.8227541e-07
0.0052376839
-9.5680959e-08
0.0029404698
-4.5800643e-08
0.0015362528
-1.9962847e-08
0.0007514668
-7.7085686e-09
0.00034269903
-2.4267721e-09
0.00014226449
-4.7888114e-10
4.9740828e-05
1.0128827e-05
3.5927557e-10
1.0128469e-05
2.0997155e-09
4.9739089e-05
6.997509e-09
0.00014225959
1.8519787e-08
0.00034268751
4.2889522e-08
0.00075144243
8.991896e-08
0.0015362057
1.7152374e-07
0.0029403882
2.9257167e-07
0.0052375628
4.2635954e-07
0.0085734788
4.8302475e-07
0.012686717
3.4022897e-07
0.016680402
-1.2494168e-12
0.01920591
-3.4021983e-07
0.01920591
-4.8298588e-07
0.016680402
-4.2629473e-07
0.012686717
-2.9251113e-07
0.0085734789
-1.7151879e-07
0.0052375629
-9.0020809e-08
0.0029403882
-4.3110323e-08
0.0015362057
-1.8819815e-08
0.00075144243
-7.2946233e-09
0.00034268751
-2.3150569e-09
0.00014225959
-4.6679724e-10
4.9739088e-05
1.0128469e-05
3.3819765e-10
1.0128131e-05
1.9760998e-09
4.9737452e-05
6.585292e-09
0.00014225498
1.7429182e-08
0.00034267667
4.0366861e-08
0.00075141949
8.4643196e-08
0.0015361614
1.615085e-07
0.0029403113
2.7565291e-07
0.0052374487
4.021755e-07
0.0085733523
4.5655913e-07
0.012686662
3.2242578e-07
0.016680536
-1.6989961e-12
0.019206232
-3.224162e-07
0.019206232
-4.5651639e-07
0.016680536
-4.021039e-07
0.012686662
-2.7558607e-07
0.0085733523
-1.615033e-07
0.0052374488
-8.4756259e-08
0.0029403114
-4.0611499e-08
0.0015361615
-1.7761305e-08
0.0007514195
-6.9140075e-09
0.00034267667
-2.214258e-09
0.00014225498
-4.57087e-10
4.9737451e-05
1.0128131e-05
3.1859244e-10
1.0127813e-05
1.8610552e-09
4.9735911e-05
6.2015556e-09
0.00014225064
1.6413668e-08
0.00034266646
3.8017147e-08
0.00075139789
7.9726918e-08
0.0015361197
1.5216869e-07
0.0029402389
2.5985215e-07
0.005237341
3.7952607e-07
0.0085732326
4.3167834e-07
0.01268661
3.0561155e-07
0.016680662
-2.271253e-12
0.019206538
-3.056016e-07
0.019206538
-4.3163153e-07
0.016680662
-3.7944726e-07
0.01268661
-2.5977859e-07
0.0085732327
-1.5216325e-07
0.0052373411
-7.9852012e-08
0.0029402389
-3.8287332e-08
0.0015361197
-1.6780183e-08
0.00075139789
-6.5641348e-09
0.00034266646
-2.1236644e-09
0.00014225064
-4.4966461e-10
4.9735909e-05
1.0127813e-05
3.0032305e-10
1.0127514e-05
1.7537704e-09
4.9734458e-05
5.8436077e-09
0.00014224655
1.5466258e-08
0.00034265684
3.5824661e-08
0.00075137753
7.5138199e-08
0.0015360804
1.4344543e-07
0.0029401706
2.4507454e-07
0.0052372394
3.5828357e-07
0.0085731194
4.0818873e-07
0.01268656
2.8960293e-07
0.01668078
-2.9725105e-12
0.019206827
-2.8959269e-07
0.019206827
-4.0813763e-07
0.01668078
-3.5819707e-07
0.01268656
-2.4499381e-07
0.0085731195
-1.4343974e-07
0.0052372395
-7.5276191e-08
0.0029401706
-3.6122227e-08
0.0015360804
-1.586963e-08
0.00075137754
-6.2424785e-09
0.00034265684
-2.0425838e-09
0.00014224655
-4.4445246e-10
4.9734457e-05
1.0127514e-05
2.8328987e-10
1.0127232e-05
1.653682e-09
4.9733089e-05
5.509569e-09
0.0001422427
1.4581839e-08
0.00034264777
3.3777144e-08
0.00075135833
7.0850881e-08
0.0015360433
1.3528994e-07
0.0029401061
2.3124315e-07
0.0052371434
3.3835992e-07
0.0085730123
3.8611484e-07
0.012686512
2.7452128e-07
0.016680892
-3.7717712e-12
0.019207102
-2.7451084e-07
0.019207102
-3.8605923e-07
0.016680892
-3.3826523e-07
0.012686512
-2.3115477e-07
0.0085730124
-1.3528398e-07
0.0052371435
-7.1002687e-08
0.0029401062
-3.4104038e-08
0.0015360434
-1.5024687e-08
0.00075135834
-5.9473066e-09
0.00034264777
-1.9705577e-09
0.0001422427
-4.4140292e-10
4.9733088e-05
1.0127231e-05
2.6737204e-10
1.0126965e-05
1.5600548e-09
4.9731798e-05
5.1970042e-09
0.00014223906
1.375424e-08
0.00034263921
3.1861187e-08
0.00075134023
6.6838418e-08
0.0015360083
1.2765287e-07
0.0029400453
2.1827407e-07
0.0052370528
3.1962715e-07
0.0085729109
3.6521426e-07
0.012686467
2.601142e-07
0.016680997
-4.6850564e-12
0.019207362
-2.601037e-07
0.019207362
-3.6515393e-07
0.016680997
-3.1952377e-07
0.012686467
-2.1817751e-07
0.008572911
-1.2764664e-07
0.0052370529
-6.7005017e-08
0.0029400454
-3.2219464e-08
0.0015360084
-1.4239313e-08
0.00075134024
-5.6763024e-09
0.00034263921
-1.9069319e-09
0.00014223906
-4.4043427e-10
4.9731796e-05
1.0126965e-05
2.5252011e-10
1.0126714e-05
1.4726426e-09
4.9730579e-05
4.9050744e-09
0.00014223563
1.2980849e-08
0.00034263113
3.0069521e-08
0.00075132314
6.3083786e-08
0.0015359753
1.2050247e-07
0.0029399879
2.061229e-07
0.0052369672
3.0205559e-07
0.008572815
3.4561573e-07
0.012686423
2.4660359e-07
0.016681096
-5.7669494e-12
0.019207609
-2.4659325e-07
0.019207609
-3.4555055e-07
0.016681096
-3.0194303e-07
0.012686423
-2.060177e-07
0.0085728151
-1.2049603e-07
0.0052369673
-6.326625e-08
0.002939988
-3.0461365e-08
0.0015359754
-1.3511037e-08
0.00075132315
-5.4287506e-09
0.00034263113
-1.8515422e-09
0.00014223563
-4.415353e-10
4.9730578e-05
1.0126714e-05
2.386011e-10
1.0126477e-05
1.3905968e-09
4.9729429e-05
4.6309833e-09
0.0001422324
1.2254906e-08
0.00034262351
2.8388522e-08
0.000751307
5.9561708e-08
0.0015359442
1.1379115e-07
0.0029399337
1.946993e-07
0.0052368863
2.8548226e-07
0.0085727242
3.2697658e-07
0.012686382
2.3362561e-07
0.016681189
-7.0592984e-12
0.019207842
-2.3361573e-07
0.019207842
-3.2690647e-07
0.016681189
-2.8536013e-07
0.012686382
-1.9458505e-07
0.0085727243
-1.1378463e-07
0.0052368864
-5.9761193e-08
0.0029399338
-2.8816181e-08
0.0015359442
-1.2833135e-08
0.00075130702
-5.2018614e-09
0.00034262351
-1.8035337e-09
0.00014223239
-4.4456704e-10
4.9729427e-05
1.0126477e-05
2.2565685e-10
1.0126253e-05
1.3142654e-09
4.9728342e-05
4.3758241e-09
0.00014222934
1.1578256e-08
0.00034261631
2.6819188e-08
0.00075129176
5.6269053e-08
0.0015359147
1.0751277e-07
0.0029398824
1.8401231e-07
0.0052368098
2.699811e-07
0.0085726382
3.0959784e-07
0.012686342
2.2155853e-07
0.016681277
-8.6438253e-12
0.019208064
-2.2154954e-07
0.019208064
-3.0952291e-07
0.016681277
-2.698492e-07
0.012686342
-1.8388882e-07
0.0085726383
-1.0750646e-07
0.0052368099
-5.6486741e-08
0.0029398825
-2.7284771e-08
0.0015359148
-1.220716e-08
0.00075129178
-4.9963799e-09
0.00034261631
-1.7629806e-09
0.00014222933
-4.4942958e-10
4.972834e-05
1.0126253e-05
2.1346919e-10
1.0126041e-05
1.2422021e-09
4.9727316e-05
4.1348826e-09
0.00014222645
1.0940112e-08
0.00034260951
2.5341835e-08
0.00075127736
5.3173194e-08
0.0015358869
1.0160653e-07
0.002939834
1.7393189e-07
0.0052367374
2.552899e-07
0.0085725569
2.929533e-07
0.012686304
2.0986439e-07
0.01668136
-1.0691429e-11
0.019208274
-2.0985694e-07
0.019208274
-2.9287386e-07
0.01668136
-2.5514824e-07
0.012686304
-1.7379917e-07
0.008572557
-1.0160088e-07
0.0052367376
-5.3410344e-08
0.0029398341
-2.5847378e-08
0.0015358869
-1.1622102e-08
0.00075127738
-4.8072968e-09
0.00034260951
-1.7281849e-09
0.00014222644
-4.5576415e-10
4.9727314e-05
1.0126041e-05
2.0232044e-10
1.0125841e-05
1.1763119e-09
4.9726344e-05
3.9142693e-09
0.00014222371
1.0353688e-08
0.00034260307
2.3977844e-08
0.00075126374
5.030336e-08
0.0015358605
9.6122652e-08
0.0029397882
1.6458127e-07
0.005236669
2.4169295e-07
0.0085724798
2.7764565e-07
0.012686268
1.991724e-07
0.016681439
-1.3207711e-11
0.019208473
-1.9916731e-07
0.019208473
-2.775623e-07
0.016681439
-2.4154194e-07
0.012686268
-1.6443973e-07
0.0085724799
-9.6118337e-08
0.0052366691
-5.0561103e-08
0.0029397883
-2.4524861e-08
0.0015358606
-1.1090351e-08
0.00075126375
-4.639847e-09
0.00034260307
-1.7003911e-09
0.00014222371
-4.6351467e-10
4.9726342e-05
1.012584e-05
1.9160976e-10
1.0125652e-05
1.1126759e-09
4.9725426e-05
3.701403e-09
0.00014222112
9.7909171e-09
0.00034259698
2.2678537e-08
0.00075125085
4.7586219e-08
0.0015358356
9.0937785e-08
0.0029397448
1.5570737e-07
0.0052366042
2.2870253e-07
0.0085724068
2.6284199e-07
0.012686234
1.8868882e-07
0.016681513
-1.6276473e-11
0.019208662
-1.8868703e-07
0.019208662
-2.6275552e-07
0.016681513
-2.2854312e-07
0.012686234
-1.5555812e-07
0.0085724069
-9.0935986e-08
0.0052366043
-4.7865568e-08
0.0029397449
-2.3267509e-08
0.0015358357
-1.0581993e-08
0.00075125086
-4.4793275e-09
0.00034259698
-1.6740239e-09
0.00014222112
-4.7121836e-10
4.9725423e-05
1.0125651e-05
1.8247215e-10
1.0125472e-05
1.0585455e-09
4.9724553e-05
3.5193436e-09
0.00014221867
9.3029407e-09
0.0003425912
2.1531859e-08
0.00075123862
4.5151149e-08
0.001535812
8.6258056e-08
0.0029397037
1.4770833e-07
0.0052365428
2.1705104e-07
0.0085723374
2.4969397e-07
0.012686202
1.7946429e-07
0.016681583
-1.9862975e-11
0.019208841
-1.7946673e-07
0.019208841
-2.4960535e-07
0.016681583
-2.168848e-07
0.012686202
-1.4755371e-07
0.0085723375
-8.6261165e-08
0.0052365429
-4.5453349e-08
0.0029397038
-2.2161921e-08
0.0015358121
-1.0145317e-08
0.00075123864
-4.3453234e-09
0.0003425912
-1.6535075e-09
0.00014221866
-4.7849074e-10
4.972455e-05
1.0125471e-05
1.7160472e-10
1.0125303e-05
9.9415139e-10
4.9723734e-05
3.3068013e-09
0.00014221636
8.7545572e-09
0.00034258576
2.0305976e-08
0.00075122707
4.2671944e-08
0.0015357896
8.1647176e-08
0.0029396647
1.3992711e-07
0.0052364845
2.0571618e-07
0.0085722716
2.3674587e-07
0.012686171
1.7028264e-07
0.01668165
-2.4195155e-11
0.019209011
-1.7029033e-07
0.019209011
-2.3665577e-07
0.01668165
-2.0554499e-07
0.012686171
-1.3977128e-07
0.0085722717
-8.1659484e-08
0.0052364846
-4.2997218e-08
0.0029396648
-2.0970071e-08
0.0015357897
-9.6340149e-09
0.00075122708
-4.1637811e-09
0.00034258575
-1.6091243e-09
0.00014221635
-4.7687563e-10
4.9723731e-05
1.0125302e-05
1.6699689e-10
1.0125139e-05
9.6666221e-10
4.9722938e-05