/*--------------------------------*- C++ -*----------------------------------*\
| =========                 |                                                 |
| \\      /  F ield         | OpenFOAM: The Open Source CFD Toolbox           |
|  \\    /   O peration     | Version:  2406                                  |
|   \\  /    A nd           | Website:  www.openfoam.com                      |
|    \\/     M anipulation  |                                                 |
\*---------------------------------------------------------------------------*/
FoamFile
{
    version     2.0;
    format      ascii;
    arch        "LSB;label=32;scalar=64";
    class       volVectorField;
    location    "47";
    object      U;
}
// * * * * * * * * * * * * * * * * * * * * * * * * * * * * * * * * * * * * * //

dimensions      [0 1 -1 0 0 0 0];

internalField   nonuniform List<vector> 
1176
(
(0.019493789 7.0786624e-07 0)
(0.066677318 8.1696697e-06 0)
(0.13357994 3.9503185e-05 0)
(0.22724701 0.00010873578 0)
(0.35591522 0.00021176027 0)
(0.52772023 0.00030396282 0)
(0.74780387 0.0003181801 0)
(1.0136216 0.00024904573 0)
(1.3093323 0.00016666976 0)
(1.6017081 0.00011264657 0)
(1.8421723 7.0213884e-05 0)
(1.9793239 2.3940746e-05 0)
(1.9793239 -2.394012e-05 0)
(1.8421723 -7.0211955e-05 0)
(1.6017081 -0.00011264161 0)
(1.3093323 -0.00016665934 0)
(1.0136215 -0.00024902669 0)
(0.74780384 -0.00031814818 0)
(0.52772019 -0.00030391358 0)
(0.35591518 -0.00021169571 0)
(0.22724697 -0.00010866952 0)
(0.13357991 -3.9450231e-05 0)
(0.0666773 -8.1406772e-06 0)
(0.019493783 -7.0175638e-07 0)
(0.020187017 -3.7419139e-06 0)
(0.068813532 -2.463862e-05 0)
(0.13732107 -9.6548521e-05 0)
(0.23247391 -0.00024839457 0)
(0.36204617 -0.00047268781 0)
(0.53373557 -0.0006742119 0)
(0.75267407 -0.00069486959 0)
(1.0170176 -0.00049687394 0)
(1.3116385 -0.00023345953 0)
(1.6034438 -4.9824819e-05 0)
(1.8436588 1.9764264e-05 0)
(1.9807026 1.3427094e-05 0)
(1.9807026 -1.3428777e-05 0)
(1.8436588 -1.9766533e-05 0)
(1.6034438 4.98214e-05 0)
(1.3116385 0.0002334545 0)
(1.0170176 0.00049686644 0)
(0.75267408 0.00069485747 0)
(0.53373556 0.00067419267 0)
(0.36204616 0.00047266248 0)
(0.23247389 0.00024836979 0)
(0.13732105 9.6530268e-05 0)
(0.06881352 2.4629449e-05 0)
(0.020187012 3.7402248e-06 0)
(0.020018442 2.0918419e-06 0)
(0.068327405 1.2720797e-05 0)
(0.13655405 4.6877299e-05 0)
(0.23159544 0.00011389743 0)
(0.36138709 0.00019769271 0)
(0.53366969 0.00023903232 0)
(0.75344344 0.000205598 0)
(1.0184881 0.00011361088 0)
(1.3134639 7.4313207e-05 0)
(1.6053464 7.9532442e-05 0)
(1.8455118 7.0516092e-05 0)
(1.9825245 2.7825241e-05 0)
(1.9825245 -2.7826062e-05 0)
(1.8455118 -7.0517374e-05 0)
(1.6053464 -7.9534165e-05 0)
(1.3134639 -7.4314901e-05 0)
(1.0184881 -0.00011361202 0)
(0.75344344 -0.00020559821 0)
(0.53366969 -0.00023903129 0)
(0.3613871 -0.000197691 0)
(0.23159546 -0.00011389665 0)
(0.13655406 -4.687768e-05 0)
(0.068327413 -1.2721391e-05 0)
(0.020018445 -2.0920697e-06 0)
(0.019966547 7.0076896e-07 0)
(0.068159232 4.6870671e-06 0)
(0.13624021 1.9355474e-05 0)
(0.2311194 5.6456203e-05 0)
(0.36078093 0.00013444566 0)
(0.53306293 0.0002582931 0)
(0.75295637 0.00035344721 0)
(1.0181104 0.00036911966 0)
(1.313184 0.00030758826 0)
(1.6051633 0.0002277719 0)
(1.8453995 0.00014555906 0)
(1.9824491 4.9997172e-05 0)
(1.9824491 -4.9996858e-05 0)
(1.8453995 -0.00014555859 0)
(1.6051633 -0.00022777115 0)
(1.313184 -0.00030758696 0)
(1.0181104 -0.00036911831 0)
(0.75295637 -0.00035344541 0)
(0.53306293 -0.00025828955 0)
(0.36078092 -0.00013444062 0)
(0.23111939 -5.6450597e-05 0)
(0.1362402 -1.935081e-05 0)
(0.06815923 -4.6844389e-06 0)
(0.019966547 -7.0021142e-07 0)
(0.019942203 2.9077579e-07 0)
(0.068078703 1.9872362e-06 0)
(0.13608628 8.2361751e-06 0)
(0.23087699 2.3699393e-05 0)
(0.36044744 5.6881673e-05 0)
(0.53266448 0.00012306883 0)
(0.75256878 0.00022681803 0)
(1.017808 0.0003227219 0)
(1.3129044 0.0003457242 0)
(1.604912 0.00030729933 0)
(1.8452029 0.00021095273 0)
(1.9822898 7.4614293e-05 0)
(1.9822898 -7.4614632e-05 0)
(1.8452029 -0.00021095324 0)
(1.604912 -0.00030730008 0)
(1.3129044 -0.00034572553 0)
(1.017808 -0.00032272334 0)
(0.75256878 -0.00022681873 0)
(0.53266448 -0.00012306903 0)
(0.36044744 -5.6881539e-05 0)
(0.23087699 -2.3699032e-05 0)
(0.13608628 -8.2357425e-06 0)
(0.068078702 -1.9869127e-06 0)
(0.019942203 -2.9069098e-07 0)
(0.019933132 1.718225e-07 0)
(0.068047755 1.1941107e-06 0)
(0.13602489 5.065261e-06 0)
(0.23077535 1.4968937e-05 0)
(0.36029899 3.6219611e-05 0)
(0.5324792 7.6944258e-05 0)
(0.75239427 0.00014713764 0)
(1.0177222 0.00023749011 0)
(1.3129292 0.00028525572 0)
(1.6049746 0.00027441464 0)
(1.8452865 0.00019644598 0)
(1.9823834 7.1176842e-05 0)
(1.9823834 -7.1177105e-05 0)
(1.8452865 -0.00019644632 0)
(1.6049746 -0.00027441487 0)
(1.3129292 -0.00028525593 0)
(1.0177222 -0.00023749031 0)
(0.75239427 -0.00014713737 0)
(0.5324792 -7.6943462e-05 0)
(0.36029899 -3.6218462e-05 0)
(0.23077535 -1.496776e-05 0)
(0.13602489 -5.0643429e-06 0)
(0.068047755 -1.1935892e-06 0)
(0.019933132 -1.717127e-07 0)
(0.0199234 1.5588085e-07 0)
(0.068015507 1.0700992e-06 0)
(0.13596286 4.4935048e-06 0)
(0.23067607 1.319551e-05 0)
(0.36015773 3.1857163e-05 0)
(0.53230178 6.6958234e-05 0)
(0.75221429 0.00012411883 0)
(1.0176105 0.00019917042 0)
(1.3129358 0.00025490834 0)
(1.6050904 0.00024595164 0)
(1.8454579 0.00018127895 0)
(1.9825798 6.6548554e-05 0)
(1.9825798 -6.6548505e-05 0)
(1.8454579 -0.00018127886 0)
(1.6050904 -0.00024595137 0)
(1.3129358 -0.00025490804 0)
(1.0176105 -0.0001991701 0)
(0.75221429 -0.0001241182 0)
(0.53230178 -6.6957148e-05 0)
(0.36015773 -3.1855692e-05 0)
(0.23067607 -1.3193979e-05 0)
(0.13596286 -4.4922716e-06 0)
(0.068015507 -1.0693898e-06 0)
(0.0199234 -1.55728e-07 0)
(0.019915697 1.2758986e-07 0)
(0.067989792 8.7803242e-07 0)
(0.13591293 3.696026e-06 0)
(0.23059503 1.090163e-05 0)
(0.36003987 2.661336e-05 0)
(0.53214753 5.7237101e-05 0)
(0.75204133 0.00010911043 0)
(1.0174723 0.00017936621 0)
(1.3128926 0.00023802474 0)
(1.6051414 0.00023746756 0)
(1.8455877 0.00017750686 0)
(1.9827514 6.5539511e-05 0)
(1.9827514 -6.5539352e-05 0)
(1.8455877 -0.00017750666 0)
(1.6051414 -0.00023746735 0)
(1.3128926 -0.00023802459 0)
(1.0174723 -0.00017936601 0)
(0.75204133 -0.00010910992 0)
(0.53214753 -5.7236144e-05 0)
(0.36003987 -2.6612042e-05 0)
(0.23059503 -1.0900234e-05 0)
(0.13591293 -3.6948803e-06 0)
(0.067989793 -8.7736068e-07 0)
(0.019915697 -1.2744331e-07 0)
(0.019909217 1.0466088e-07 0)
(0.067968141 7.2314775e-07 0)
(0.13587084 3.0521223e-06 0)
(0.23052654 9.0118496e-06 0)
(0.35993984 2.1999889e-05 0)
(0.53201542 4.7473428e-05 0)
(0.75188901 9.2014035e-05 0)
(1.0173341 0.00015618186 0)
(1.3128278 0.00021699677 0)
(1.6051595 0.00022709634 0)
(1.8456699 0.00017232642 0)
(1.982868 6.4147826e-05 0)
(1.982868 -6.4147618e-05 0)
(1.8456699 -0.0001723262 0)
(1.6051595 -0.00022709619 0)
(1.3128278 -0.00021699681 0)
(1.0173341 -0.00015618177 0)
(0.75188901 -9.2013569e-05 0)
(0.53201542 -4.7472454e-05 0)
(0.35993984 -2.1998497e-05 0)
(0.23052654 -9.0103588e-06 0)
(0.13587084 -3.0508972e-06 0)
(0.067968141 -7.2242984e-07 0)
(0.019909217 -1.0450475e-07 0)
(0.019903971 8.6128409e-08 0)
(0.067950552 5.9696894e-07 0)
(0.13583649 2.5273889e-06 0)
(0.2304703 7.491628e-06 0)
(0.35985692 1.8376314e-05 0)
(0.53190436 3.9835707e-05 0)
(0.75175836 7.7712184e-05 0)
(1.0172122 0.0001343244 0)
(1.3127613 0.00019323378 0)
(1.6051772 0.00021058359 0)
(1.8457533 0.00016272986 0)
(1.9829863 6.1084375e-05 0)
(1.9829863 -6.1084185e-05 0)
(1.8457533 -0.0001627297 0)
(1.6051772 -0.00021058363 0)
(1.3127613 -0.00019323397 0)
(1.0172122 -0.00013432439 0)
(0.75175836 -7.7711759e-05 0)
(0.53190436 -3.9834724e-05 0)
(0.35985692 -1.8374877e-05 0)
(0.2304703 -7.4900861e-06 0)
(0.13583649 -2.5261267e-06 0)
(0.067950553 -5.9623134e-07 0)
(0.019903971 -8.5968251e-08 0)
(0.019899543 7.3356998e-08 0)
(0.067935688 5.0896218e-07 0)
(0.13580742 2.1568894e-06 0)
(0.23042259 6.4027688e-06 0)
(0.35978626 1.5747605e-05 0)
(0.5318089 3.4277855e-05 0)
(0.75164409 6.7204661e-05 0)
(1.0171021 0.00011723003 0)
(1.3126976 0.00017262477 0)
(1.6051928 0.0001930892 0)
(1.8458371 0.00015219883 0)
(1.9831061 5.7544918e-05 0)
(1.9831061 -5.7544747e-05 0)
(1.8458371 -0.00015219876 0)
(1.6051928 -0.00019308939 0)
(1.3126976 -0.00017262505 0)
(1.0171021 -0.00011723008 0)
(0.75164409 -6.7204287e-05 0)
(0.5318089 -3.4276915e-05 0)
(0.35978626 -1.5746228e-05 0)
(0.23042259 -6.4013102e-06 0)
(0.13580742 -2.1557117e-06 0)
(0.067935688 -5.0827948e-07 0)
(0.019899543 -7.3209394e-08 0)
(0.019895721 6.3726432e-08 0)
(0.06792285 4.4251704e-07 0)
(0.13578228 1.8767318e-06 0)
(0.23038125 5.5765256e-06 0)
(0.35972483 1.3738693e-05 0)
(0.53172535 2.9998041e-05 0)
(0.75154264 5.9111627e-05 0)
(1.0170011 0.00010388829 0)
(1.3126344 0.00015540295 0)
(1.6052015 0.00017849545 0)
(1.8459125 0.00014271574 0)
(1.9832185 5.4330765e-05 0)
(1.9832185 -5.4330561e-05 0)
(1.8459125 -0.0001427157 0)
(1.6052015 -0.00017849569 0)
(1.3126345 -0.00015540323 0)
(1.0170011 -0.00010388836 0)
(0.75154264 -5.9111298e-05 0)
(0.53172535 -2.9997206e-05 0)
(0.35972483 -1.37375e-05 0)
(0.23038125 -5.5752975e-06 0)
(0.13578228 -1.8757652e-06 0)
(0.06792285 -4.4196549e-07 0)
(0.019895721 -6.3608187e-08 0)
(0.019892371 5.6088962e-08 0)
(0.067911586 3.8977191e-07 0)
(0.13576021 1.6541156e-06 0)
(0.2303449 4.9187598e-06 0)
(0.35967069 1.213202e-05 0)
(0.53165136 2.6542472e-05 0)
(0.7514519 5.2498842e-05 0)
(1.0169086 9.2875791e-05 0)
(1.3125728 0.00014061503 0)
(1.605205 0.00016529637 0)
(1.8459798 0.0001339895 0)
(1.9833221 5.1387643e-05 0)
(1.9833221 -5.1387369e-05 0)
(1.8459798 -0.00013398943 0)
(1.605205 -0.00016529655 0)
(1.3125728 -0.00014061523 0)
(1.0169086 -9.2875827e-05 0)
(0.7514519 -5.2498561e-05 0)
(0.53165136 -2.6541829e-05 0)
(0.35967069 -1.2131162e-05 0)
(0.2303449 -4.9179304e-06 0)
(0.13576021 -1.6534972e-06 0)
(0.067911587 -3.894312e-07 0)
(0.019892371 -5.6017252e-08 0)
(0.019889403 4.9847674e-08 0)
(0.067901607 3.466107e-07 0)
(0.13574064 1.4717532e-06 0)
(0.23031264 4.3793811e-06 0)
(0.35962253 1.0812313e-05 0)
(0.53158531 2.3691435e-05 0)
(0.75137029 4.6984199e-05 0)
(1.016824 8.3546394e-05 0)
(1.3125139 0.00012773759 0)
(1.6052051 0.00015293366 0)
(1.8460415 0.00012582062 0)
(1.9834196 4.8616736e-05 0)
(1.9834196 -4.8616374e-05 0)
(1.8460415 -0.00012582046 0)
(1.6052051 -0.00015293371 0)
(1.3125139 -0.00012773765 0)
(1.016824 -8.3546348e-05 0)
(0.75137029 -4.6983983e-05 0)
(0.53158531 -2.3691079e-05 0)
(0.35962253 -1.081194e-05 0)
(0.23031264 -4.379108e-06 0)
(0.13574064 -1.4716088e-06 0)
(0.067901607 -3.4655301e-07 0)
(0.019889403 -4.9837991e-08 0)
(0.019886752 4.4697176e-08 0)
(0.067892685 3.1093523e-07 0)
(0.13572313 1.3208034e-06 0)
(0.23028375 3.9321908e-06 0)
(0.35957935 9.7158745e-06 0)
(0.53152592 2.1315612e-05 0)
(0.75129648 4.2360319e-05 0)
(1.0167465 7.5619991e-05 0)
(1.3124581 0.00011654248 0)
(1.6052027 0.00014169892 0)
(1.8460982 0.00011827126 0)
(1.9835117 4.6031833e-05 0)
(1.9835117 -4.603138e-05 0)
(1.8460982 -0.00011827098 0)
(1.6052027 -0.00014169877 0)
(1.3124581 -0.00011654235 0)
(1.0167465 -7.5619837e-05 0)
(0.75129648 -4.2360192e-05 0)
(0.53152592 -2.1315626e-05 0)
(0.35957935 -9.7161113e-06 0)
(0.23028375 -3.9326058e-06 0)
(0.13572313 -1.3212377e-06 0)
(0.067892685 -3.1122054e-07 0)
(0.019886752 -4.4762384e-08 0)
(0.019884362 4.0383967e-08 0)
(0.067884644 2.8102744e-07 0)
(0.13570735 1.1941349e-06 0)
(0.23025769 3.556461e-06 0)
(0.35954035 8.792876e-06 0)
(0.53147216 1.9310042e-05 0)
(0.75122934 3.8440221e-05 0)
(1.0166753 6.883905e-05 0)
(1.3124053 0.00010678368 0)
(1.6051983 0.00013155248 0)
(1.8461504 0.00011132827 0)
(1.9835985 4.3631432e-05 0)
(1.9835985 -4.3630903e-05 0)
(1.8461504 -0.00011132785 0)
(1.6051983 -0.00013155213 0)
(1.3124053 -0.00010678333 0)
(1.0166753 -6.8838775e-05 0)
(0.75122934 -3.8440207e-05 0)
(0.53147216 -1.9310497e-05 0)
(0.35954035 -8.7938275e-06 0)
(0.23025769 -3.5576739e-06 0)
(0.13570735 -1.1952362e-06 0)
(0.067884644 -2.8170659e-07 0)
(0.019884362 -4.0535001e-08 0)
(0.019882195 3.6708034e-08 0)
(0.067877349 2.555224e-07 0)
(0.13569303 1.0860498e-06 0)
(0.23023403 3.2355917e-06 0)
(0.3595049 8.0035499e-06 0)
(0.5314232 1.7590927e-05 0)
(0.75116797 3.5067273e-05 0)
(1.0166096 6.2964243e-05 0)
(1.3123553 9.820335e-05 0)
(1.6051923 0.0001223338 0)
(1.8461982 0.00010491339 0)
(1.9836803 4.1390739e-05 0)
(1.9836803 -4.1390159e-05 0)
(1.8461982 -0.00010491285 0)
(1.6051923 -0.00012233324 0)
(1.3123553 -9.8202777e-05 0)
(1.0166096 -6.2963849e-05 0)
(0.75116797 -3.5067399e-05 0)
(0.5314232 -1.7591884e-05 0)
(0.3595049 -8.0053064e-06 0)
(0.23023403 -3.2376992e-06 0)
(0.13569303 -1.0878973e-06 0)
(0.067877349 -2.5664147e-07 0)
(0.019882195 -3.6954858e-08 0)
(0.019880219 3.3534525e-08 0)
(0.067870695 2.3349092e-07 0)
(0.13567996 9.9263747e-07 0)
(0.23021243 2.9581055e-06 0)
(0.35947252 7.3202494e-06 0)
(0.53137842 1.6100117e-05 0)
(0.75111164 3.2133033e-05 0)
(1.0165488 5.7823474e-05 0)
(1.3123082 9.0602595e-05 0)
(1.6051852 0.00011395358 0)
(1.8462423 9.8956175e-05 0)
(1.9837576 3.9289207e-05 0)
(1.9837576 -3.928861e-05 0)
(1.8462423 -9.8955536e-05 0)
(1.6051852 -0.00011395282 0)
(1.3123082 -9.0601799e-05 0)
(1.0165488 -5.7822964e-05 0)
(0.75111164 -3.2133323e-05 0)
(0.53137842 -1.6101634e-05 0)
(0.35947252 -7.3228957e-06 0)
(0.23021243 -2.9612005e-06 0)
(0.13567996 -9.9530884e-07 0)
(0.067870695 -2.3509554e-07 0)
(0.019880219 -3.3887055e-08 0)
(0.019878409 3.0769576e-08 0)
(0.0678646 2.1428493e-07 0)
(0.13566798 9.1116305e-07 0)
(0.23019263 2.7159362e-06 0)
(0.35944282 6.7233763e-06 0)
(0.53133728 1.4795984e-05 0)
(0.75105977 2.95597e-05 0)
(1.0164925 5.32926e-05 0)
(1.3122638 8.383168e-05 0)
(1.6051772 0.00010632418 0)
(1.846283 9.3403397e-05 0)
(1.9838307 3.7312637e-05 0)
(1.9838307 -3.7312054e-05 0)
(1.846283 -9.3402679e-05 0)
(1.6051772 -0.00010632324 0)
(1.3122638 -8.3830663e-05 0)
(1.0164925 -5.3291976e-05 0)
(0.75105977 -2.9560177e-05 0)
(0.53133728 -1.4798118e-05 0)
(0.35944282 -6.7270004e-06 0)
(0.23019263 -2.7201164e-06 0)
(0.13566798 -9.1474004e-07 0)
(0.0678646 -2.1642336e-07 0)
(0.019878409 -3.1238332e-08 0)
(0.019876745 2.8339503e-08 0)
(0.067858993 1.9739683e-07 0)
(0.13565697 8.3948861e-07 0)
(0.23017441 2.5027847e-06 0)
(0.35941547 6.1976085e-06 0)
(0.53129936 1.3645775e-05 0)
(0.75101183 2.7285324e-05 0)
(1.0164401 4.9271781e-05 0)
(1.3122219 7.7767794e-05 0)
(1.6051688 9.9356227e-05 0)
(1.8463207 8.8213669e-05 0)
(1.9838998 3.5449657e-05 0)
(1.9838998 -3.5449113e-05 0)
(1.8463207 -8.821289e-05 0)
(1.6051688 -9.935511e-05 0)
(1.3122219 -7.7766554e-05 0)
(1.0164401 -4.9271042e-05 0)
(0.75101183 -2.728601e-05 0)
(0.53129936 -1.3648588e-05 0)
(0.35941547 -6.2023064e-06 0)
(0.23017441 -2.5081565e-06 0)
(0.13565697 -8.4406032e-07 0)
(0.067858993 -2.0012169e-07 0)
(0.019876745 -2.8935953e-08 0)
(0.019875208 2.6186257e-08 0)
(0.067853818 1.8242637e-07 0)
(0.1356468 7.759274e-07 0)
(0.23015758 2.3136789e-06 0)
(0.3593902 5.7308453e-06 0)
(0.5312643 1.2623558e-05 0)
(0.75096742 2.5260372e-05 0)
(1.0163914 4.5679604e-05 0)
(1.3121824 7.2308147e-05 0)
(1.6051599 9.2973463e-05 0)
(1.8463555 8.3350385e-05 0)
(1.9839652 3.3689618e-05 0)
(1.9839652 -3.3689132e-05 0)
(1.8463555 -8.3349559e-05 0)
(1.6051599 -9.2972169e-05 0)
(1.3121824 -7.2306672e-05 0)
(1.0163914 -4.5678745e-05 0)
(0.75096742 -2.5261292e-05 0)
(0.5312643 -1.2627117e-05 0)
(0.3593902 -5.7367226e-06 0)
(0.23015758 -2.320359e-06 0)
(0.1356468 -7.8159105e-07 0)
(0.067853817 -1.8579494e-07 0)
(0.019875208 -2.6922884e-08 0)
(0.019873787 2.4264555e-08 0)
(0.067849027 1.6906081e-07 0)
(0.13563738 7.1916001e-07 0)
(0.230142 2.1447227e-06 0)
(0.35936679 5.3135825e-06 0)
(0.53123178 1.1708906e-05 0)
(0.75092616 2.3445621e-05 0)
(1.016346 4.2450616e-05 0)
(1.3121452 6.7367707e-05 0)
(1.6051509 8.7107609e-05 0)
(1.8463878 7.8785211e-05 0)
(1.9840271 3.2023946e-05 0)
(1.9840271 -3.2023526e-05 0)
(1.8463878 -7.8784338e-05 0)
(1.6051509 -8.7106127e-05 0)
(1.3121452 -6.7365975e-05 0)
(1.016346 -4.2449627e-05 0)
(0.75092617 -2.3446799e-05 0)
(0.53123178 -1.1713285e-05 0)
(0.35936679 -5.3207536e-06 0)
(0.230142 -2.1528371e-06 0)
(0.13563738 -7.2602032e-07 0)
(0.067849027 -1.7313465e-07 0)
(0.019873786 -2.515476e-08 0)
(0.019872467 2.2538709e-08 0)
(0.067844581 1.5705348e-07 0)
(0.13562864 6.6814521e-07 0)
(0.23012754 1.9928376e-06 0)
(0.35934505 4.9382963e-06 0)
(0.53120156 1.088561e-05 0)
(0.75088776 2.1809847e-05 0)
(1.0163035 3.95323e-05 0)
(1.31211 6.2876607e-05 0)
(1.6051418 8.1702165e-05 0)
(1.8464178 7.4491914e-05 0)
(1.9840857 3.04445e-05 0)
(1.9840857 -3.0444146e-05 0)
(1.8464178 -7.4490989e-05 0)
(1.6051418 -8.1700472e-05 0)
(1.31211 -6.287459e-05 0)
(1.0163035 -3.9531166e-05 0)
(0.75088776 -2.1811306e-05 0)
(0.53120157 -1.0890887e-05 0)
(0.35934505 -4.9468831e-06 0)
(0.23012754 -2.0025204e-06 0)
(0.13562864 -6.7631325e-07 0)
(0.067844581 -1.6189783e-07 0)
(0.019872467 -2.3596673e-08 0)
(0.01987124 2.0980152e-08 0)
(0.067840446 1.4620684e-07 0)
(0.13562051 6.2204859e-07 0)
(0.23011408 1.8555548e-06 0)
(0.35932481 4.5989416e-06 0)
(0.53117342 1.014061e-05 0)
(0.75085195 2.0327795e-05 0)
(1.0162638 3.6881959e-05 0)
(1.3120768 5.8777135e-05 0)
(1.6051327 7.6706856e-05 0)
(1.8464458 7.0451382e-05 0)
(1.9841412 2.894524e-05 0)
(1.9841412 -2.8944945e-05 0)
(1.8464458 -7.0450388e-05 0)
(1.6051327 -7.6704924e-05 0)
(1.3120768 -5.87748e-05 0)
(1.0162638 -3.6880664e-05 0)
(0.75085195 -2.0329559e-05 0)
(0.53117342 -1.0146865e-05 0)
(0.35932481 -4.6090719e-06 0)
(0.23011408 -1.8669464e-06 0)
(0.13562051 -6.3164065e-07 0)
(0.067840445 -1.5188993e-07 0)
(0.01987124 -2.2220703e-08 0)
(0.019870096 1.9565807e-08 0)
(0.067836592 1.3636115e-07 0)
(0.13561293 5.8019489e-07 0)
(0.23010153 1.7308748e-06 0)
(0.35930594 4.2906193e-06 0)
(0.53114716 9.463305e-06 0)
(0.75081849 1.8978906e-05 0)
(1.0162266 3.4464603e-05 0)
(1.3120455 5.5021158e-05 0)
(1.6051237 7.2080893e-05 0)
(1.8464718 6.6642841e-05 0)
(1.9841938 2.7519736e-05 0)
(1.9841938 -2.7519485e-05 0)
(1.8464718 -6.6641758e-05 0)
(1.6051237 -7.2078688e-05 0)
(1.3120455 -5.5018467e-05 0)
(1.0162266 -3.4463125e-05 0)
(0.75081849 -1.8980998e-05 0)
(0.53114716 -9.4706223e-06 0)
(0.35930594 -4.3024253e-06 0)
(0.23010153 -1.7441208e-06 0)
(0.13561293 -5.9133167e-07 0)
(0.067836591 -1.429538e-07 0)
(0.019870096 -2.100433e-08 0)
(0.019869029 1.8276819e-08 0)
(0.067832994 1.2738579e-07 0)
(0.13560586 5.4203136e-07 0)
(0.23008981 1.6171591e-06 0)
(0.35928831 4.0093093e-06 0)
(0.53112262 8.8449783e-06 0)
(0.75078719 1.7746229e-05 0)
(1.0161917 3.2251287e-05 0)
(1.312016 5.1568475e-05 0)
(1.6051149 6.7786436e-05 0)
(1.846496 6.3053069e-05 0)
(1.9842436 2.6163954e-05 0)
(1.9842436 -2.6163735e-05 0)
(1.846496 -6.3051873e-05 0)
(1.6051149 -6.7783922e-05 0)
(1.312016 -5.156539e-05 0)
(1.0161917 -3.2249606e-05 0)
(0.7507872 -1.7748674e-05 0)
(0.53112262 -8.8534434e-06 0)
(0.35928832 -4.0229274e-06 0)
(0.23008981 -1.6324103e-06 0)
(0.13560586 -5.5483774e-07 0)
(0.067832994 -1.3496131e-07 0)
(0.019869028 -1.9929242e-08 0)
(0.019868031 1.7097678e-08 0)
(0.067829631 1.1917319e-07 0)
(0.13559924 5.0710224e-07 0)
(0.23007886 1.5130565e-06 0)
(0.35927183 3.7516949e-06 0)
(0.53109966 8.2784367e-06 0)
(0.75075787 1.6615751e-05 0)
(1.0161589 3.0217922e-05 0)
(1.311988 4.8385054e-05 0)
(1.6051063 6.3793869e-05 0)
(1.8465187 5.9663868e-05 0)
(1.9842909 2.4872534e-05 0)
(1.9842909 -2.4872334e-05 0)
(1.8465187 -5.9662536e-05 0)
(1.6051063 -6.3791011e-05 0)
(1.311988 -4.8381536e-05 0)
(1.0161589 -3.0216017e-05 0)
(0.75075788 -1.6618574e-05 0)
(0.53109966 -8.2881384e-06 0)
(0.35927183 -3.7672662e-06 0)
(0.23007886 -1.5304685e-06 0)
(0.13559924 -5.2170756e-07 0)
(0.06782963 -1.2780752e-07 0)
(0.01986803 -1.8980514e-08 0)
(0.019867097 1.6015446e-08 0)
(0.067826482 1.1163358e-07 0)
(0.13559305 4.7502696e-07 0)
(0.2300686 1.4174371e-06 0)
(0.35925639 3.5149983e-06 0)
(0.53107814 7.7576403e-06 0)
(0.75073038 1.5575683e-05 0)
(1.0161281 2.8344251e-05 0)
(1.3119617 4.5442239e-05 0)
(1.6050979 6.0073675e-05 0)
(1.8465398 5.646679e-05 0)
(1.9843356 2.3643155e-05 0)
(1.9843356 -2.3642968e-05 0)
(1.8465398 -5.6465302e-05 0)
(1.6050979 -6.007044e-05 0)
(1.3119617 -4.5438249e-05 0)
(1.0161281 -2.8342102e-05 0)
(0.75073039 -1.557891e-05 0)
(0.53107814 -7.768671e-06 0)
(0.35925639 -3.5326694e-06 0)
(0.2300686 -1.437172e-06 0)
(0.13559305 -4.915659e-07 0)
(0.067826481 -1.2140586e-07 0)
(0.019867096 -1.8145906e-08 0)
(0.019866221 1.5019255e-08 0)
(0.067823531 1.0469146e-07 0)
(0.13558724 4.4548521e-07 0)
(0.23005898 1.3293506e-06 0)
(0.35924191 3.2968857e-06 0)
(0.53105796 7.277521e-06 0)
(0.75070457 1.4616117e-05 0)
(1.0160992 2.6613084e-05 0)
(1.3119367 4.2715189e-05 0)
(1.6050897 5.6604183e-05 0)
(1.8465596 5.3444256e-05 0)
(1.984378 2.2470837e-05 0)
(1.984378 -2.2470659e-05 0)
(1.8465596 -5.3442595e-05 0)
(1.6050897 -5.6600539e-05 0)
(1.3119367 -4.271069e-05 0)
(1.0160992 -2.6610672e-05 0)
(0.75070458 -1.4619777e-05 0)
(0.53105796 -7.2899781e-06 0)
(0.35924191 -3.3168102e-06 0)
(0.23005898 -1.3515781e-06 0)
(0.13558724 -4.6409897e-07 0)
(0.06782353 -1.1568472e-07 0)
(0.019866221 -1.7415408e-08 0)
(0.0198654 1.4099884e-08 0)
(0.067820761 9.828286e-08 0)
(0.1355818 4.1820556e-07 0)
(0.23004995 1.2479901e-06 0)
(0.35922832 3.0953688e-06 0)
(0.53103901 6.8337427e-06 0)
(0.75068032 1.372856e-05 0)
(1.0160719 2.5009791e-05 0)
(1.3119132 4.0183009e-05 0)
(1.6050818 5.3361459e-05 0)
(1.8465781 5.0592448e-05 0)
(1.9844182 2.1354823e-05 0)
(1.9844182 -2.1354656e-05 0)
(1.8465781 -5.0590605e-05 0)
(1.6050818 -5.3357378e-05 0)
(1.3119132 -4.0177967e-05 0)
(1.016072 -2.5007097e-05 0)
(0.75068033 -1.3732687e-05 0)
(0.53103901 -6.8477293e-06 0)
(0.35922832 -3.1177091e-06 0)
(0.23004995 -1.2728894e-06 0)
(0.13558179 -4.3904331e-07 0)
(0.06782076 -1.1058484e-07 0)
(0.019865399 -1.6780838e-08 0)
(0.019864628 1.3249418e-08 0)
(0.067818161 9.2352688e-08 0)
(0.13557668 3.9295419e-07 0)
(0.23004148 1.1726621e-06 0)
(0.35921555 2.9087469e-06 0)
(0.5310212 6.4226139e-06 0)
(0.75065752 1.2905776e-05 0)
(1.0160463 2.3521668e-05 0)
(1.3118909 3.7826883e-05 0)
(1.6050743 5.032968e-05 0)
(1.8465955 4.7892625e-05 0)
(1.9844563 2.02898e-05 0)
(1.9844563 -2.028965e-05 0)
(1.8465955 -4.7890593e-05 0)
(1.6050743 -5.0325136e-05 0)
(1.3118909 -3.7821263e-05 0)
(1.0160463 -2.3518676e-05 0)
(0.75065753 -1.2910404e-05 0)
(0.5310212 -6.4382405e-06 0)
(0.35921556 -2.933676e-06 0)
(0.23004148 -1.2004243e-06 0)
(0.13557668 -4.1617481e-07 0)
(0.06781816 -1.0605687e-07 0)
(0.019864628 -1.6235533e-08 0)
(0.019863903 1.2461101e-08 0)
(0.067815716 8.6854209e-08 0)
(0.13557187 3.6953293e-07 0)
(0.23003351 1.1027766e-06 0)
(0.35920355 2.7355597e-06 0)
(0.53100445 6.0409343e-06 0)
(0.75063606 1.2141478e-05 0)
(1.0160221 2.213791e-05 0)
(1.3118699 3.5631428e-05 0)
(1.6050669 4.7488802e-05 0)
(1.8466118 4.5346303e-05 0)
(1.9844924 1.9276722e-05 0)
(1.9844924 -1.9276599e-05 0)
(1.8466118 -4.5344076e-05 0)
(1.6050669 -4.748377e-05 0)
(1.3118699 -3.5625195e-05 0)
(1.0160221 -2.2134604e-05 0)
(0.75063607 -1.2146646e-05 0)
(0.53100445 -6.0583192e-06 0)
(0.35920355 -2.7632625e-06 0)
(0.23003351 -1.1336057e-06 0)
(0.13557187 -3.9530645e-07 0)
(0.067815715 -1.0206065e-07 0)
(0.019863902 -1.5774184e-08 0)
(0.019863221 1.1728942e-08 0)
(0.067813416 8.1745551e-08 0)
(0.13556735 3.4776398e-07 0)
(0.23002601 1.0378075e-06 0)
(0.35919225 2.5745233e-06 0)
(0.53098868 5.6859287e-06 0)
(0.75061585 1.1430211e-05 0)
(1.0159993 2.0848773e-05 0)
(1.31185 3.3581691e-05 0)
(1.6050599 4.4827303e-05 0)
(1.8466272 4.2931572e-05 0)
(1.9845266 1.8309159e-05 0)
(1.9845266 -1.8309074e-05 0)
(1.8466271 -4.2929147e-05 0)
(1.6050599 -4.4821757e-05 0)
(1.31185 -3.3574808e-05 0)
(1.0159993 -2.0845134e-05 0)
(0.75061586 -1.1435961e-05 0)
(0.53098869 -5.7051988e-06 0)
(0.35919226 -2.6051983e-06 0)
(0.23002601 -1.0719226e-06 0)
(0.13556734 -3.7627262e-07 0)
(0.067813415 -9.8561523e-08 0)
(0.01986322 -1.5392372e-08 0)
(0.019862579 1.1047969e-08 0)
(0.067811252 7.6992579e-08 0)
(0.13556309 3.2750283e-07 0)
(0.23001895 9.7732201e-07 0)
(0.35918162 2.424555e-06 0)
(0.53097384 5.3551979e-06 0)
(0.75059681 1.0767247e-05 0)
(1.0159778 1.9646244e-05 0)
(1.3118312 3.1666597e-05 0)
(1.6050532 4.2328203e-05 0)
(1.8466415 4.0656856e-05 0)
(1.984559 1.7390292e-05 0)
(1.984559 -1.7390257e-05 0)
(1.8466415 -4.0654229e-05 0)
(1.6050532 -4.2322113e-05 0)
(1.3118312 -3.1659023e-05 0)
(1.0159778 -1.9642253e-05 0)
(0.75059682 -1.0773622e-05 0)
(0.53097385 -5.3764888e-06 0)
(0.35918162 -2.4584149e-06 0)
(0.23001895 -1.0149582e-06 0)
(0.13556309 -3.5894249e-07 0)
(0.06781125 -9.5533389e-08 0)
(0.019862578 -1.5086878e-08 0)
(0.019861974 1.0413404e-08 0)
(0.067809213 7.2561504e-08 0)
(0.13555907 3.0860563e-07 0)
(0.2300123 9.2089792e-07 0)
(0.3591716 2.2846392e-06 0)
(0.53095985 5.0465759e-06 0)
(0.75057886 1.0148322e-05 0)
(1.0159575 1.8522454e-05 0)
(1.3118134 2.9873339e-05 0)
(1.6050467 3.9982736e-05 0)
(1.8466551 3.8494441e-05 0)
(1.9845898 1.651156e-05 0)
(1.9845898 -1.6511589e-05 0)
(1.8466551 -3.8491607e-05 0)
(1.6050467 -3.9976069e-05 0)
(1.3118134 -2.9865028e-05 0)
(1.0159576 -1.8518087e-05 0)
(0.75057888 -1.0155367e-05 0)
(0.53095986 -5.0700329e-06 0)
(0.35917161 -2.3219125e-06 0)
(0.2300123 -9.6230769e-07 0)
(0.13555907 -3.431865e-07 0)
(0.067809211 -9.2950854e-08 0)
(0.019861973 -1.4854755e-08 0)
(0.019861404 9.8217852e-09 0)
(0.067807291 6.8429183e-08 0)
(0.13555529 2.9097485e-07 0)
(0.23000603 8.6823683e-07 0)
(0.35916216 2.1540023e-06 0)
(0.53094666 4.7582929e-06 0)
(0.75056194 9.5699256e-06 0)
(1.0159384 1.7471718e-05 0)
(1.3117965 2.8194867e-05 0)
(1.6050405 3.7777219e-05 0)
(1.8466678 3.6462365e-05 0)
(1.9846188 1.5679385e-05 0)
(1.9846188 -1.5679491e-05 0)
(1.8466677 -3.6459321e-05 0)
(1.6050405 -3.7769941e-05 0)
(1.3117965 -2.8185769e-05 0)
(1.0159384 -1.7466949e-05 0)
(0.75056195 -9.5776892e-06 0)
(0.53094667 -4.7840698e-06 0)
(0.35916216 -2.1949315e-06 0)
(0.23000603 -9.1368805e-07 0)
(0.13555529 -3.2891974e-07 0)
(0.06780729 -9.0798165e-08 0)
(0.019861404 -1.469415e-08 0)
(0.019860867 9.2688882e-09 0)
(0.067805479 6.4564816e-08 0)
(0.13555173 2.7447859e-07 0)
(0.23000012 8.1895937e-07 0)
(0.35915325 2.031766e-06 0)
(0.53093421 4.4885455e-06 0)
(0.75054596 9.0285161e-06 0)
(1.0159203 1.6487096e-05 0)
(1.3117806 2.6618713e-05 0)
(1.6050346 3.5703416e-05 0)
(1.8466798 3.4523362e-05 0)
(1.9846465 1.4881611e-05 0)
(1.9846465 -1.488181e-05 0)
(1.8466798 -3.4520107e-05 0)
(1.6050346 -3.5695491e-05 0)
(1.3117806 -2.6608778e-05 0)
(1.0159203 -1.6481899e-05 0)
(0.75054597 -9.0370493e-06 0)
(0.53093423 -4.5168053e-06 0)
(0.35915325 -2.0766063e-06 0)
(0.23000012 -8.6873265e-07 0)
(0.13555173 -3.1602026e-07 0)
(0.067805477 -8.9050161e-08 0)
(0.019860866 -1.4602045e-08 0)
(0.01986036 8.7530217e-09 0)
(0.06780377 6.0958776e-08 0)
(0.13554837 2.590773e-07 0)
(0.22999455 7.7292708e-07 0)
(0.35914485 1.9174979e-06 0)
(0.53092248 4.2362002e-06 0)
(0.75053089 8.5217891e-06 0)
(1.0159032 1.5565402e-05 0)
(1.3117655 2.5142784e-05 0)
(1.605029 3.3752971e-05 0)
(1.846691 3.2709455e-05 0)
(1.9846726 1.4129648e-05 0)
(1.9846726 -1.4129962e-05 0)
(1.846691 -3.2705997e-05 0)
(1.605029 -3.374437e-05 0)
(1.3117655 -2.5131963e-05 0)
(1.0159033 -1.5559754e-05 0)
(0.7505309 -8.5311512e-06 0)
(0.53092249 -4.2671177e-06 0)
(0.35914485 -1.9665185e-06 0)
(0.22999455 -8.2731655e-07 0)
(0.13554836 -3.0445869e-07 0)
(0.067803768 -8.7702818e-08 0)
(0.019860359 -1.4577938e-08 0)
(0.019859881 8.2695021e-09 0)
(0.067802156 5.757508e-08 0)
(0.13554519 2.4461566e-07 0)
(0.22998928 7.297095e-07 0)
(0.35913691 1.8102749e-06 0)
(0.53091139 3.9995185e-06 0)
(0.75051664 8.046393e-06 0)
(1.0158871 1.469943e-05 0)
(1.3117512 2.3752338e-05 0)
(1.6050236 3.191416e-05 0)
(1.8467017 3.0968375e-05 0)
(1.9846975 1.3405532e-05 0)
(1.9846975 -1.3406e-05 0)
(1.8467017 -3.0964727e-05 0)
(1.6050236 -3.1904859e-05 0)
(1.3117512 -2.3740591e-05 0)
(1.0158871 -1.4693318e-05 0)
(0.75051666 -8.0566516e-06 0)
(0.5309114 -4.0332757e-06 0)
(0.35913692 -1.8637497e-06 0)
(0.22998928 -7.8901109e-07 0)
(0.13554519 -2.9407948e-07 0)
(0.067802154 -8.6719558e-08 0)
(0.01985988 -1.4617027e-08 0)
(0.01985943 7.8199102e-09 0)
(0.067800634 5.4429727e-08 0)
(0.13554219 2.3116405e-07 0)
(0.22998431 6.894628e-07 0)
(0.35912943 1.7102539e-06 0)
(0.53090093 3.7783719e-06 0)
(0.7505032 7.6018268e-06 0)
(1.0158719 1.3889875e-05 0)
(1.3117377 2.2453431e-05 0)
(1.6050185 3.0189425e-05 0)
(1.8467117 2.9353123e-05 0)
(1.9847208 1.2728586e-05 0)
(1.9847208 -1.2729266e-05 0)
(1.8467116 -2.9349315e-05 0)
(1.6050185 -3.017942e-05 0)
(1.3117377 -2.2440737e-05 0)
(1.0158719 -1.3883301e-05 0)
(0.75050322 -7.6130578e-06 0)
(0.53090095 -3.8151446e-06 0)
(0.35912943 -1.7684338e-06 0)
(0.22998431 -7.5393888e-07 0)
(0.13554219 -2.8492102e-07 0)
(0.067800632 -8.6096753e-08 0)
(0.019859429 -1.471655e-08 0)
(0.019859002 7.3964369e-09 0)
(0.067799193 5.1460351e-08 0)
(0.13553936 2.1845324e-07 0)
(0.22997961 6.5147015e-07 0)
(0.35912234 1.6160271e-06 0)
(0.53089102 3.5704222e-06 0)
(0.75049046 7.1838653e-06 0)
(1.0158574 1.3126996e-05 0)
(1.3117249 2.1224275e-05 0)
(1.6050136 2.855603e-05 0)
(1.8467212 2.7788616e-05 0)
(1.9847433 1.207174e-05 0)
(1.9847433 -1.2072713e-05 0)
(1.8467212 -2.7784693e-05 0)
(1.6050136 -2.8545336e-05 0)
(1.3117249 -2.1210633e-05 0)
(1.0158574 -1.3119983e-05 0)
(0.75049049 -7.1961568e-06 0)
(0.53089104 -3.6103843e-06 0)
(0.35912234 -1.6791456e-06 0)
(0.22997961 -7.2135531e-07 0)
(0.13553935 -2.7668587e-07 0)
(0.06779919 -8.5753264e-08 0)
(0.019859001 -1.486436e-08 0)
(0.0198586 7.0094248e-09 0)
(0.067797836 4.8750756e-08 0)
(0.13553669 2.0684193e-07 0)
(0.22997518 6.1665094e-07 0)
(0.35911566 1.5292449e-06 0)
(0.5308817 3.3779785e-06 0)
(0.75047849 6.7961027e-06 0)
(1.0158438 1.2419735e-05 0)
(1.3117128 2.0087246e-05 0)
(1.605009 2.7039462e-05 0)
(1.84673 2.6360265e-05 0)
(1.9847642 1.1467215e-05 0)
(1.9847642 -1.1468565e-05 0)
(1.84673 -2.6356297e-05 0)
(1.605009 -2.7028124e-05 0)
(1.3117129 -2.0072696e-05 0)
(1.0158438 -1.2412334e-05 0)
(0.75047851 -6.8095459e-06 0)
(0.53088171 -3.4212678e-06 0)