/*--------------------------------*- C++ -*----------------------------------*\
  =========                 |
  \\      /  F ield         | OpenFOAM: The Open Source CFD Toolbox
   \\    /   O peration     | Website:  https://openfoam.org
    \\  /    A nd           | Version:  10
     \\/     M anipulation  |
\*---------------------------------------------------------------------------*/
FoamFile
{
    format      ascii;
    class       volScalarField;
    location    "14.5";
    object      T_0;
}
// * * * * * * * * * * * * * * * * * * * * * * * * * * * * * * * * * * * * * //

dimensions      [0 0 -1 0 0 0 0];

internalField   nonuniform List<scalar> 
100
(
3.50034
10.4685
17.3438
24.0651
30.5728
36.8091
42.7187
48.2492
53.3514
57.98
62.094
65.6569
68.637
71.0078
72.7484
73.8433
74.2828
74.0629
73.1856
71.6587
69.4958
66.7161
63.3442
59.41
54.9485
49.9993
44.6063
38.8173
32.6838
26.2603
19.6036
12.7729
5.82889
-1.16689
-8.1523
-15.0654
-21.8447
-28.4301
-34.7632
-40.7877
-46.4502
-51.7004
-56.4917
-60.7816
-64.5319
-67.7095
-70.2861
-72.2388
-73.5503
-74.209
-74.209
-73.5503
-72.2388
-70.2861
-67.7095
-64.5319
-60.7815
-56.4916
-51.7003
-46.4501
-40.7877
-34.7631
-28.43
-21.8446
-15.0653
-8.15221
-1.16679
5.82898
12.773
19.6037
26.2604
32.6839
38.8174
44.6063
49.9994
54.9486
59.4101
63.3442
66.7162
69.4959
71.6588
73.1857
74.0629
74.2828
73.8434
72.7485
71.0079
68.637
65.6569
62.094
57.98
53.3514
48.2492
42.7187
36.8091
30.5728
24.0651
17.3438
10.4685
3.50034
)
;

boundaryField
{
    xmin
    {
        type            fixedValue;
        value           uniform 0;
    }
    xmax
    {
        type            fixedValue;
        value           uniform 0;
    }
    frontAndBack
    {
        type            empty;
    }
}


// ************************************************************************* //
