/*--------------------------------*- C++ -*----------------------------------*\
  =========                 |
  \\      /  F ield         | OpenFOAM: The Open Source CFD Toolbox
   \\    /   O peration     | Website:  https://openfoam.org
    \\  /    A nd           | Version:  10
     \\/     M anipulation  |
\*---------------------------------------------------------------------------*/
FoamFile
{
    format      ascii;
    class       volScalarField;
    location    "18";
    object      T_0;
}
// * * * * * * * * * * * * * * * * * * * * * * * * * * * * * * * * * * * * * //

dimensions      [0 0 -1 0 0 0 0];

internalField   nonuniform List<scalar> 
100
(
2.49875
7.47305
12.381
17.1791
21.8247
26.2766
30.4952
34.4432
38.0854
41.3896
44.3265
46.8698
48.9972
50.6897
51.9322
52.7138
53.0275
52.8706
52.2443
51.1543
49.6103
47.626
45.2189
42.4104
39.2256
35.6925
31.8427
27.7102
23.3317
18.7462
13.9943
9.11814
4.16107
-0.832928
-5.81953
-10.7545
-15.594
-20.295
-24.816
-29.1166
-33.1589
-36.9068
-40.3271
-43.3894
-46.0667
-48.335
-50.1743
-51.5683
-52.5045
-52.9747
-52.9747
-52.5045
-51.5683
-50.1743
-48.335
-46.0666
-43.3894
-40.327
-36.9067
-33.1588
-29.1166
-24.8159
-20.295
-15.5939
-10.7544
-5.81946
-0.832854
4.16115
9.11822
13.9944
18.7463
23.3318
27.7103
31.8427
35.6926
39.2256
42.4105
45.219
47.626
49.6104
51.1544
52.2444
52.8706
53.0276
52.7139
51.9323
50.6897
48.9973
46.8699
44.3265
41.3897
38.0855
34.4432
30.4952
26.2766
21.8247
17.1791
12.381
7.47306
2.49876
)
;

boundaryField
{
    xmin
    {
        type            fixedValue;
        value           uniform 0;
    }
    xmax
    {
        type            fixedValue;
        value           uniform 0;
    }
    frontAndBack
    {
        type            empty;
    }
}


// ************************************************************************* //
