/*--------------------------------*- C++ -*----------------------------------*\
| =========                 |                                                 |
| \\      /  F ield         | OpenFOAM: The Open Source CFD Toolbox           |
|  \\    /   O peration     | Version:  2406                                  |
|   \\  /    A nd           | Website:  www.openfoam.com                      |
|    \\/     M anipulation  |                                                 |
\*---------------------------------------------------------------------------*/
FoamFile
{
    version     2.0;
    format      ascii;
    arch        "LSB;label=32;scalar=64";
    class       volScalarField;
    location    "16";
    object      p;
}
// * * * * * * * * * * * * * * * * * * * * * * * * * * * * * * * * * * * * * //

dimensions      [0 2 -2 0 0 0 0];

internalField   nonuniform List<scalar> 
1176
(
0.79699979
0.79702266
0.79704632
0.79705399
0.79702246
0.79692776
0.79677053
0.79658436
0.79640517
0.79623801
0.79608339
0.79598778
0.79598778
0.79608338
0.79623801
0.79640516
0.79658437
0.79677055
0.7969278
0.79702252
0.79705408
0.79704643
0.79702278
0.79699991
0.77385136
0.7738044
0.77375664
0.77373974
0.77380224
0.7740046
0.77436992
0.77483432
0.77526518
0.77555129
0.77567068
0.77570494
0.77570494
0.77567068
0.77555128
0.77526517
0.7748343
0.77436989
0.77400456
0.77380219
0.77373968
0.77375656
0.77380432
0.77385128
0.7567666
0.75678861
0.75680841
0.7568065
0.75674744
0.75658626
0.7563145
0.75598655
0.75568033
0.75546754
0.75535674
0.75530792
0.75530792
0.75535674
0.75546754
0.75568034
0.75598655
0.7563145
0.75658627
0.75674745
0.75680651
0.75680842
0.75678863
0.75676662
0.74009471
0.74010384
0.74011589
0.7401323
0.74015484
0.74017241
0.74014018
0.74000676
0.73977465
0.73950209
0.73927788
0.73915738
0.73915738
0.73927788
0.73950208
0.73977465
0.74000676
0.74014017
0.7401724
0.74015483
0.74013229
0.74011589
0.74010383
0.74009471
0.72367566
0.72367962
0.72368461
0.72369067
0.72370037
0.72372065
0.72375683
0.72379834
0.72382001
0.72379614
0.72373402
0.72368139
0.72368139
0.72373402
0.72379614
0.72382001
0.72379834
0.72375683
0.72372065
0.72370037
0.72369067
0.72368461
0.72367961
0.72367566
0.70721401
0.70721642
0.70721967
0.70722371
0.70722862
0.70723545
0.70724962
0.70728093
0.70733092
0.70738817
0.70743088
0.70744754
0.70744754
0.70743088
0.70738817
0.70733092
0.70728094
0.70724962
0.70723546
0.70722862
0.70722371
0.70721967
0.70721642
0.70721401
0.6908082
0.69081034
0.69081315
0.69081657
0.69082047
0.69082398
0.69082605
0.69082823
0.69083678
0.69085401
0.69087191
0.69088363
0.69088363
0.69087191
0.69085401
0.69083678
0.69082823
0.69082605
0.69082399
0.69082047
0.69081658
0.69081315
0.69081034
0.6908082
0.67442833
0.67443009
0.67443242
0.67443534
0.67443901
0.67444338
0.67444784
0.67445099
0.67445223
0.67445385
0.67445089
0.67444838
0.67444838
0.67445089
0.67445385
0.67445223
0.67445099
0.67444784
0.67444339
0.67443902
0.67443534
0.67443242
0.6744301
0.67442834
0.65807405
0.6580755
0.65807743
0.65807985
0.65808286
0.65808665
0.65809169
0.65809874
0.65810742
0.65811745
0.65812522
0.65812881
0.65812881
0.65812522
0.65811745
0.65810743
0.65809874
0.6580917
0.65808665
0.65808287
0.65807985
0.65807744
0.65807551
0.65807406
0.64173636
0.64173756
0.64173917
0.64174121
0.64174377
0.64174695
0.64175111
0.6417575
0.64176766
0.6417808
0.64179512
0.64180443
0.64180443
0.64179512
0.6417808
0.64176766
0.6417575
0.64175111
0.64174695
0.64174377
0.64174121
0.64173917
0.64173757
0.64173636
0.62541198
0.62541301
0.62541438
0.62541613
0.62541834
0.62542107
0.62542446
0.62542931
0.62543717
0.62544783
0.62546039
0.62546953
0.62546953
0.62546039
0.62544783
0.62543717
0.62542931
0.62542446
0.62542107
0.62541835
0.62541613
0.62541439
0.62541301
0.62541199
0.60909851
0.6090994
0.6091006
0.60910212
0.60910406
0.60910646
0.60910942
0.60911343
0.60911965
0.60912831
0.60913888
0.60914633
0.60914633
0.60913888
0.60912831
0.60911965
0.60911344
0.60910943
0.60910647
0.60910407
0.60910213
0.6091006
0.6090994
0.60909851
0.59279431
0.5927951
0.59279616
0.59279751
0.59279923
0.59280136
0.59280399
0.59280753
0.59281293
0.59282068
0.59283037
0.59283705
0.59283705
0.59283037
0.59282068
0.59281293
0.59280753
0.59280399
0.59280136
0.59279923
0.59279751
0.59279616
0.5927951
0.59279432
0.57649809
0.57649879
0.57649974
0.57650094
0.57650248
0.57650438
0.57650673
0.57650986
0.57651464
0.57652161
0.57653027
0.57653636
0.57653636
0.57653027
0.57652161
0.57651464
0.57650986
0.57650673
0.57650438
0.57650248
0.57650094
0.57649974
0.5764988
0.5764981
0.56020883
0.56020945
0.5602103
0.56021138
0.56021277
0.56021448
0.56021658
0.56021935
0.56022351
0.56022964
0.56023716
0.56024256
0.56024256
0.56023716
0.56022963
0.5602235
0.56021935
0.56021658
0.56021448
0.56021277
0.56021138
0.5602103
0.56020946
0.56020883
0.5439257
0.54392627
0.54392704
0.54392802
0.54392927
0.54393083
0.54393272
0.54393518
0.54393881
0.54394419
0.54395073
0.54395552
0.54395552
0.54395073
0.54394419
0.54393881
0.54393518
0.54393272
0.54393083
0.54392927
0.54392802
0.54392704
0.54392628
0.54392571
0.52764808
0.5276486
0.52764929
0.52765018
0.52765133
0.52765274
0.52765447
0.52765667
0.52765989
0.52766465
0.52767038
0.52767467
0.52767467
0.52767037
0.52766465
0.52765989
0.52765667
0.52765447
0.52765275
0.52765133
0.52765019
0.5276493
0.5276486
0.52764808
0.5113754
0.51137587
0.51137651
0.51137733
0.51137837
0.51137967
0.51138124
0.51138323
0.51138611
0.51139035
0.51139541
0.51139927
0.51139927
0.51139541
0.51139035
0.5113861
0.51138323
0.51138124
0.51137967
0.51137838
0.51137733
0.51137651
0.51137588
0.51137541
0.49510721
0.49510764
0.49510822
0.49510897
0.49510994
0.49511113
0.49511257
0.49511437
0.49511695
0.49512076
0.49512525
0.49512874
0.49512874
0.49512525
0.49512076
0.49511695
0.49511437
0.49511257
0.49511113
0.49510994
0.49510898
0.49510823
0.49510764
0.49510721
0.47884309
0.47884349
0.47884403
0.47884472
0.47884561
0.47884671
0.47884804
0.47884968
0.47885201
0.47885543
0.47885946
0.47886262
0.47886262
0.47885946
0.47885543
0.478852
0.47884968
0.47884804
0.47884671
0.47884562
0.47884473
0.47884404
0.4788435
0.4788431
0.46258272
0.46258309
0.46258359
0.46258423
0.46258505
0.46258607
0.46258729
0.4625888
0.4625909
0.462594
0.46259765
0.46260052
0.46260052
0.46259765
0.462594
0.4625909
0.4625888
0.46258729
0.46258607
0.46258506
0.46258424
0.4625836
0.4625831
0.46258273
0.44632579
0.44632613
0.44632659
0.44632719
0.44632795
0.44632889
0.44633002
0.44633141
0.44633333
0.44633614
0.44633946
0.44634207
0.44634207
0.44633946
0.44633614
0.44633332
0.44633141
0.44633002
0.44632889
0.44632795
0.44632719
0.4463266
0.44632614
0.4463258
0.43007202
0.43007234
0.43007277
0.43007332
0.43007403
0.43007491
0.43007596
0.43007724
0.43007899
0.43008156
0.4300846
0.43008698
0.43008698
0.43008459
0.43008156
0.43007899
0.43007724
0.43007596
0.43007491
0.43007404
0.43007333
0.43007278
0.43007235
0.43007203
0.41382119
0.41382148
0.41382188
0.4138224
0.41382306
0.41382388
0.41382485
0.41382604
0.41382765
0.41383
0.41383279
0.41383497
0.41383497
0.41383279
0.41383
0.41382764
0.41382604
0.41382485
0.41382388
0.41382306
0.41382241
0.41382189
0.4138215
0.4138212
0.39757307
0.39757335
0.39757372
0.3975742
0.39757481
0.39757558
0.39757649
0.39757759
0.39757907
0.39758124
0.39758381
0.39758581
0.39758581
0.3975838
0.39758123
0.39757907
0.39757759
0.39757649
0.39757558
0.39757482
0.39757421
0.39757373
0.39757336
0.39757308
0.38132748
0.38132773
0.38132808
0.38132853
0.38132911
0.38132982
0.38133067
0.3813317
0.38133306
0.38133506
0.38133744
0.38133929
0.38133929
0.38133743
0.38133505
0.38133306
0.38133169
0.38133067
0.38132983
0.38132912
0.38132855
0.3813281
0.38132775
0.38132749
0.36508423
0.36508447
0.3650848
0.36508522
0.36508576
0.36508643
0.36508722
0.36508818
0.36508945
0.36509129
0.3650935
0.3650952
0.3650952
0.36509349
0.36509128
0.36508944
0.36508817
0.36508722
0.36508643
0.36508577
0.36508524
0.36508482
0.3650845
0.36508425
0.34884318
0.34884341
0.34884371
0.34884411
0.34884461
0.34884524
0.34884598
0.34884688
0.34884805
0.34884976
0.34885181
0.34885339
0.34885339
0.34885181
0.34884975
0.34884804
0.34884687
0.34884598
0.34884525
0.34884463
0.34884413
0.34884374
0.34884343
0.34884321
0.33260418
0.33260439
0.33260467
0.33260504
0.33260552
0.3326061
0.3326068
0.33260764
0.33260873
0.33261032
0.33261223
0.3326137
0.3326137
0.33261223
0.33261031
0.33260872
0.33260763
0.33260681
0.33260612
0.33260554
0.33260507
0.3326047
0.33260442
0.33260421
0.31636709
0.31636729
0.31636755
0.3163679
0.31636834
0.3163689
0.31636955
0.31637033
0.31637135
0.31637283
0.31637461
0.31637598
0.31637597
0.31637461
0.31637282
0.31637134
0.31637033
0.31636955
0.31636891
0.31636837
0.31636793
0.31636759
0.31636732
0.31636712
0.30013179
0.30013197
0.30013223
0.30013255
0.30013297
0.30013349
0.30013411
0.30013484
0.30013579
0.30013716
0.30013884
0.3001401
0.3001401
0.30013883
0.30013715
0.30013578
0.30013483
0.30013411
0.3001335
0.300133
0.30013259
0.30013226
0.30013201
0.30013183
0.28389817
0.28389835
0.28389858
0.28389889
0.28389928
0.28389977
0.28390035
0.28390104
0.28390193
0.28390321
0.28390477
0.28390595
0.28390595
0.28390476
0.28390319
0.28390191
0.28390103
0.28390035
0.28389979
0.28389931
0.28389893
0.28389863
0.28389839
0.28389822
0.26766613
0.2676663
0.26766652
0.26766681
0.26766718
0.26766764
0.26766818
0.26766883
0.26766966
0.26767086
0.26767233
0.26767343
0.26767343
0.26767232
0.26767084
0.26766964
0.26766882
0.26766818
0.26766766
0.26766721
0.26766685
0.26766657
0.26766635
0.26766618
0.25143557
0.25143573
0.25143594
0.25143621
0.25143656
0.25143699
0.2514375
0.25143811
0.25143889
0.25144001
0.25144138
0.25144242
0.25144241
0.25144137
0.25143999
0.25143887
0.2514381
0.25143751
0.25143701
0.25143659
0.25143626
0.25143599
0.25143578
0.25143563
0.2352064
0.23520655
0.23520675
0.235207
0.23520733
0.23520774
0.23520822
0.2352088
0.23520953
0.23521058
0.23521187
0.23521284
0.23521283
0.23521186
0.23521056
0.23520951
0.23520878
0.23520823
0.23520776
0.23520737
0.23520706
0.23520681
0.23520661
0.23520647
0.21897855
0.21897868
0.21897887
0.21897911
0.21897942
0.21897981
0.21898026
0.2189808
0.21898149
0.21898247
0.21898368
0.21898459
0.21898458
0.21898367
0.21898245
0.21898146
0.21898078
0.21898027
0.21897983
0.21897947
0.21897917
0.21897894
0.21897875
0.21897862
0.20275192
0.20275205
0.20275223
0.20275245
0.20275275
0.20275311
0.20275354
0.20275405
0.20275469
0.20275562
0.20275676
0.20275761
0.20275761
0.20275675
0.20275559
0.20275466
0.20275403
0.20275354
0.20275314
0.2027528
0.20275252
0.2027523
0.20275213
0.202752
0.18652646
0.18652658
0.18652675
0.18652696
0.18652724
0.18652758
0.18652799
0.18652846
0.18652907
0.18652993
0.18653101
0.1865318
0.1865318
0.18653099
0.18652991
0.18652904
0.18652844
0.18652799
0.18652761
0.1865273
0.18652704
0.18652683
0.18652667
0.18652655
0.17030209
0.17030221
0.17030236
0.17030256
0.17030282
0.17030315
0.17030353
0.17030398
0.17030455
0.17030537
0.17030638
0.17030713
0.17030713
0.17030636
0.17030534
0.17030452
0.17030396
0.17030354
0.17030318
0.17030289
0.17030264
0.17030245
0.1703023
0.17030218
0.15407876
0.15407887
0.15407901
0.15407921
0.15407945
0.15407976
0.15408012
0.15408054
0.15408108
0.15408184
0.15408278
0.15408348
0.15408347
0.15408276
0.1540818
0.15408104
0.15408052
0.15408012
0.1540798
0.15407952
0.15407929
0.15407911
0.15407896
0.15407886
0.13785639
0.13785649
0.13785663
0.13785681
0.13785705
0.13785734
0.13785768
0.13785808
0.13785858
0.1378593
0.13786019
0.13786085
0.13786084
0.13786017
0.13785926
0.13785854
0.13785805
0.13785768
0.13785738
0.13785712
0.1378569
0.13785673
0.1378566
0.1378565
0.12163496
0.12163506
0.12163519
0.12163536
0.12163558
0.12163585
0.12163617
0.12163655
0.12163702
0.12163768
0.1216385
0.1216391
0.12163909
0.12163847
0.12163764
0.12163698
0.12163653
0.12163618
0.1216359
0.12163566
0.12163546
0.12163529
0.12163517
0.12163507
0.10541437
0.10541447
0.10541459
0.10541475
0.10541496
0.10541522
0.10541552
0.10541588
0.10541632
0.10541693
0.1054177
0.10541826
0.10541825
0.10541768
0.1054169
0.10541628
0.10541585
0.10541553
0.10541527
0.10541504
0.10541485
0.1054147
0.10541458
0.10541449
0.089194657
0.089194745
0.089194864
0.089195018
0.089195215
0.089195458
0.089195744
0.089196073
0.089196475
0.089197017
0.089197674
0.089198143
0.089198137
0.089197653
0.089196981
0.089196435
0.089196049
0.089195753
0.089195507
0.089195296
0.08919512
0.089194975
0.089194863
0.089194777
0.07297565
0.072975733
0.072975845
0.07297599
0.072976177
0.072976411
0.072976685
0.072976999
0.072977375
0.072977871
0.072978459
0.072978859
0.072978853
0.072978438
0.072977835
0.072977334
0.072976975
0.072976696
0.072976461
0.07297626
0.072976093
0.072975956
0.07297585
0.07297577
0.056757527
0.056757608
0.056757716
0.056757854
0.05675803
0.056758246
0.056758497
0.056758779
0.056759099
0.056759475
0.056759856
0.056760073
0.056760067
0.056759836
0.05675944
0.056759059
0.056758755
0.056758507
0.056758295
0.056758112
0.056757956
0.056757824
0.056757722
0.056757644
0.040539738
0.040539809
0.040539907
0.040540037
0.040540213
0.040540436
0.0405407
0.04054099
0.040541315
0.040541722
0.040542193
0.040542503
0.040542498
0.040542175
0.040541689
0.040541277
0.040540968
0.040540711
0.040540483
0.040540289
0.040540131
0.040540007
0.040539914
0.040539844
0.024323467
0.024323549
0.024323657
0.024323785
0.024323932
0.024324092
0.024324264
0.024324446
0.02432461
0.024324688
0.024324604
0.024324376
0.024324371
0.024324588
0.02432466
0.024324579
0.024324429
0.024324277
0.024324136
0.024323998
0.024323864
0.02432374
0.024323635
0.024323553
0.0081053689
0.0081054391
0.008105532
0.0081056534
0.0081058141
0.0081060134
0.0081062336
0.0081064719
0.0081068488
0.0081076843
0.0081091641
0.0081105338
0.0081105315
0.0081091558
0.0081076685
0.0081068312
0.0081064638
0.0081062436
0.0081060421
0.0081058558
0.008105701
0.0081055799
0.0081054871
0.0081054161
)
;

boundaryField
{
    INLET
    {
        type            zeroGradient;
    }
    OUTLET
    {
        type            fixedValue;
        value           uniform 0;
    }
    WALL
    {
        type            zeroGradient;
    }
    frontAndBackPlanes
    {
        type            empty;
    }
}


// ************************************************************************* //
