/*--------------------------------*- C++ -*----------------------------------*\
| =========                 |                                                 |
| \\      /  F ield         | OpenFOAM: The Open Source CFD Toolbox           |
|  \\    /   O peration     | Version:  2406                                  |
|   \\  /    A nd           | Website:  www.openfoam.com                      |
|    \\/     M anipulation  |                                                 |
\*---------------------------------------------------------------------------*/
FoamFile
{
    version     2.0;
    format      ascii;
    arch        "LSB;label=32;scalar=64";
    class       surfaceScalarField;
    location    "16";
    object      phi;
}
// * * * * * * * * * * * * * * * * * * * * * * * * * * * * * * * * * * * * * //

dimensions      [0 3 -1 0 0 0 0];

oriented        oriented;

internalField   nonuniform List<scalar> 
2279
(
2.361754e-08
1.0148926e-05
2.0509789e-07
4.982375e-05
6.933183e-07
0.00014252872
1.5784731e-06
0.00034353082
2.6788505e-06
0.00075378089
3.3472955e-06
0.0015415573
3.0435245e-06
0.0029497096
2.151688e-06
0.005249171
1.4318065e-06
0.008582269
9.8959458e-07
0.012685995
5.1267007e-07
0.016666385
2.5647296e-12
0.01918202
-5.1266702e-07
0.01918202
-9.89601e-07
0.016666385
-1.4318365e-06
0.012685995
-2.1517549e-06
0.0085822691
-3.0436373e-06
0.0052491711
-3.3474417e-06
0.0029497097
-2.6789922e-06
0.0015415574
-1.5785772e-06
0.00075378093
-6.9337854e-07
0.00034353083
-2.0512537e-07
0.00014252872
-2.3626442e-08
4.9823748e-05
1.0148926e-05
-9.524844e-08
1.0244175e-05
-5.3793992e-07
5.0266441e-05
-1.6230007e-06
0.00014361378
-3.5389514e-06
0.00034544677
-5.9201849e-06
0.00075616212
-7.4055e-06
0.0015430426
-6.5847241e-06
0.0029488888
-3.9361563e-06
0.0052465224
-1.3883859e-06
0.0085797213
-6.5115923e-08
0.012684671
2.4241127e-07
0.016666078
8.2922978e-12
0.019182263
-2.4238849e-07
0.019182263
6.5157207e-08
0.016666078
1.3884576e-06
0.012684671
3.9362696e-06
0.0085797212
6.5848783e-06
0.0052465223
7.4056697e-06
0.0029488887
5.9203285e-06
0.0015430426
3.5390426e-06
0.00075616209
1.6230446e-06
0.00034544676
5.3795494e-07
0.00014361377
9.5250137e-08
5.0266438e-05
1.0244174e-05
5.013985e-08
1.0194035e-05
2.6334505e-07
5.0053236e-05
7.4910736e-07
0.00014312802
1.5314588e-06
0.00034466442
2.3366563e-06
0.00075535692
2.5476628e-06
0.0015428316
1.8390977e-06
0.0029495974
9.7567724e-07
0.0052473858
6.7696083e-07
0.00858002
6.7178725e-07
0.012684677
4.8416138e-07
0.016666266
-8.9194835e-12
0.019182747
-4.8418486e-07
0.019182747
-6.7182475e-07
0.016666266
-6.7701251e-07
0.012684677
-9.7574166e-07
0.00858002
-1.8391637e-06
0.0052473859
-2.5477153e-06
0.0029495974
-2.3366872e-06
0.0015428316
-1.5314705e-06
0.00075535693
-7.4910898e-07
0.00034466443
-2.6334371e-07
0.00014312802
-5.0138321e-08
5.0053237e-05
1.0194035e-05
1.9586719e-08
1.0174448e-05
1.1184929e-07
4.9960973e-05
3.6128443e-07
0.00014287858
9.0504814e-07
0.00034412065
1.8716607e-06
0.00075439031
3.0948249e-06
0.0015416085
3.8987254e-06
0.0029487935
3.7285566e-06
0.005247556
2.924213e-06
0.0085808243
1.973378e-06
0.012685627
1.0127758e-06
0.016667226
8.7641216e-12
0.01918376
-1.0127569e-06
0.01918376
-1.9733549e-06
0.016667226
-2.9241855e-06
0.012685627
-3.7285316e-06
0.0085808243
-3.8987119e-06
0.005247556
-3.0948237e-06
0.0029487935
-1.8716676e-06
0.0015416085
-9.0505613e-07
0.00075439031
-3.6128985e-07
0.00034412065
-1.118519e-07
0.00014287858
-1.9587607e-08
4.9960973e-05
1.0174448e-05
8.083917e-09
1.0166364e-05
4.7141442e-08
4.9921915e-05
1.5494688e-07
0.00014277078
3.9846317e-07
0.00034387714
8.7979465e-07
0.00075390898
1.7015164e-06
0.0015407867
2.7512756e-06
0.0029477437
3.4623626e-06
0.0052468449
3.4708641e-06
0.0085808158
2.8006892e-06
0.012686298
1.5505186e-06
0.016668476
5.06976e-12
0.01918531
-1.5505091e-06
0.01918531
-2.8006817e-06
0.016668476
-3.4708599e-06
0.012686298
-3.4623589e-06
0.0085808158
-2.7512689e-06
0.0052468449
-1.7015069e-06
0.0029477437
-8.7978553e-07
0.0015407867
-3.9845735e-07
0.00075390898
-1.5494425e-07
0.00034387714
-4.7140626e-08
0.00014277078
-8.0838532e-09
4.9921915e-05
1.0166364e-05
4.935858e-09
1.0161428e-05
2.8698829e-08
4.9898152e-05
9.5121412e-08
0.00014270435
2.492143e-07
0.00034372304
5.6360926e-07
0.00075359458
1.1213747e-06
0.001540229
1.9184578e-06
0.0029469466
2.6588218e-06
0.0052461045
2.8930609e-06
0.0085805816
2.4787693e-06
0.012686712
1.4344298e-06
0.016669521
4.8761568e-12
0.019186745
-1.4344206e-06
0.019186745
-2.478761e-06
0.016669521
-2.8930536e-06
0.012686712
-2.6588173e-06
0.0085805816
-1.9184554e-06
0.0052461045
-1.1213736e-06
0.0029469466
-5.6360841e-07
0.001540229
-2.4921363e-07
0.00075359458
-9.5120991e-08
0.00034372304
-2.8698622e-08
0.00014270435
-4.9357722e-09
4.9898152e-05
1.0161428e-05
4.4123446e-09
1.0157016e-05
2.552564e-08
4.9877039e-05
8.3830046e-08
0.00014264605
2.1689397e-07
0.00034358998
4.8450069e-07
0.00075332697
9.5636005e-07
0.0015397571
1.6413729e-06
0.0029462616
2.3245824e-06
0.0052454213
2.5939542e-06
0.0085803122
2.2393653e-06
0.012687066
1.3066775e-06
0.016670453
6.0083159e-12
0.019188051
-1.3066651e-06
0.019188051
-2.2393518e-06
0.016670453
-2.5939404e-06
0.012687066
-2.3245714e-06
0.0085803122
-1.6413655e-06
0.0052454213
-9.5635602e-07
0.0029462616
-4.8449911e-07
0.0015397571
-2.1689365e-07
0.00075332697
-8.383012e-08
0.00034358998
-2.552572e-08
0.00014264605
-4.4123676e-09
4.9877039e-05
1.0157016e-05
3.625527e-09
1.015339e-05
2.1036544e-08
4.9859628e-05
6.9437979e-08
0.00014259765
1.8114112e-07
0.00034347828
4.0971355e-07
0.0007530984
8.2390241e-07
0.0015393429
1.4539906e-06
0.0029456315
2.1430743e-06
0.0052447322
2.4674733e-06
0.0085799878
2.1883952e-06
0.012687345
1.2866464e-06
0.016671355
6.1095934e-12
0.019189338
-1.2866338e-06
0.019189338
-2.1883819e-06
0.016671355
-2.4674606e-06
0.012687345
-2.1430643e-06
0.0085799878
-1.4539839e-06
0.0052447323
-8.2389871e-07
0.0029456315
-4.0971211e-07
0.0015393429
-1.8114087e-07
0.0007530984
-6.9438065e-08
0.00034347828
-2.1036608e-08
0.00014259765
-3.6255297e-09
4.9859628e-05
1.015339e-05
2.9831237e-09
1.0150407e-05
1.734695e-08
4.9845264e-05
5.7377117e-08
0.00014255762
1.5007338e-07
0.00034338558
3.4097013e-07
0.0007529075
6.9192998e-07
0.0015389919
1.2441063e-06
0.0029450793
1.904184e-06
0.0052440722
2.3016002e-06
0.0085795904
2.0975095e-06
0.01268755
1.2520137e-06
0.016672201
5.640046e-12
0.01919059
-1.2520019e-06
0.01919059
-2.0974972e-06
0.016672201
-2.3015895e-06
0.01268755
-1.9041764e-06
0.0085795904
-1.2441018e-06
0.0052440722
-6.9192816e-07
0.0029450794
-3.4097005e-07
0.001538992
-1.5007389e-07
0.0007529075
-5.7377526e-08
0.00034338558
-1.7347105e-08
0.00014255762
-2.9831257e-09
4.9845264e-05
1.0150407e-05
2.4654186e-09
1.0147942e-05
1.4363066e-08
4.9833366e-05
4.7626304e-08
0.00014252435
1.2502821e-07
0.00034330818
2.8558788e-07
0.00075274694
5.8417753e-07
0.0015386934
1.0641818e-06
0.0029445993
1.6641554e-06
0.0052434722
2.0898733e-06
0.0085791646
1.9528951e-06
0.012687687
1.1802472e-06
0.016672973
4.8378823e-12
0.01919177
-1.180237e-06
0.01919177
-1.952885e-06
0.016672973
-2.0898653e-06
0.012687687
-1.66415e-06
0.0085791647
-1.064179e-06
0.0052434722
-5.8417706e-07
0.0029445994
-2.8558872e-07
0.0015386934
-1.2502924e-07
0.00075274694
-4.7626945e-08
0.00034330818
-1.4363295e-08
0.00014252435
-2.4654276e-09
4.9833366e-05
1.0147942e-05
2.1024428e-09
1.0145839e-05
1.2258016e-08
4.9823211e-05
4.0688092e-08
0.00014249592
1.0698973e-07
0.00034324188
2.4507737e-07
0.00075260885
5.0385096e-07
0.0015384346
9.2623189e-07
0.002944177
1.4715082e-06
0.0052429269
1.8909063e-06
0.0085787452
1.8050221e-06
0.012687772
1.1036915e-06
0.016673675
3.8807639e-12
0.019192874
-1.1036836e-06
0.019192874
-1.8050147e-06
0.016673675
-1.8909009e-06
0.012687772
-1.4715048e-06
0.0085787453
-9.2623061e-07
0.0052429269
-5.0385154e-07
0.002944177
-2.4507886e-07
0.0015384346
-1.0699109e-07
0.00075260886
-4.068887e-08
0.00034324188
-1.2258283e-08
0.00014249592
-2.1024525e-09
4.9823211e-05
1.0145839e-05
1.8282291e-09
1.0144011e-05
1.0665452e-08
4.9814373e-05
3.5430133e-08
0.00014247116
9.3282519e-08
0.00034318402
2.1413801e-07
0.000752488
4.419254e-07
0.0015382068
8.1811039e-07
0.0029438008
1.3163772e-06
0.0052424286
1.7244913e-06
0.0085783371
1.6780416e-06
0.012687819
1.0378053e-06
0.016674315
3.1292044e-12
0.019193912
-1.0377991e-06
0.019193912
-1.6780363e-06
0.016674315
-1.7244877e-06
0.012687819
-1.3163752e-06
0.0085783371
-8.1811013e-07
0.0052424286
-4.4192668e-07
0.0029438008
-2.1413993e-07
0.0015382068
-9.3284113e-08
0.000752488
-3.5431007e-08
0.00034318402
-1.0665748e-08
0.00014247116
-1.8282395e-09
4.9814374e-05
1.0144011e-05
1.6104852e-09
1.0142401e-05
9.3996286e-09
4.9806584e-05
3.1244258e-08
0.00014244931
8.2339923e-08
0.00034313293
1.8931954e-07
0.00075238102
3.9182083e-07
0.0015380043
7.2923823e-07
0.0029434634
1.1851419e-06
0.0052419727
1.5781722e-06
0.0085779441
1.5623376e-06
0.012687835
9.7669834e-07
0.0166749
2.620944e-12
0.019194888
-9.7669334e-07
0.019194888
-1.5623336e-06
0.0166749
-1.5781696e-06
0.012687835
-1.1851405e-06
0.0085779441
-7.2923842e-07
0.0052419727
-3.9182242e-07
0.0029434634
-1.8932166e-07
0.0015380043
-8.2341639e-08
0.00075238102
-3.1245189e-08
0.00034313293
-9.399943e-09
0.00014244931
-1.6104968e-09
4.9806584e-05
1.0142401e-05
1.4323136e-09
1.0140968e-05
8.3629947e-09
4.9799654e-05
2.7812489e-08
0.00014242986
7.3352367e-08
0.00034308739
1.6886774e-07
0.0007522855
3.5026596e-07
0.0015378229
6.5457988e-07
0.002943159
1.0720555e-06
0.0052415553
1.4464301e-06
0.0085775697
1.4548741e-06
0.012687826
9.1880935e-07
0.016675436
2.361694e-12
0.019195807
-9.1880495e-07
0.019195807
-1.4548707e-06
0.016675436
-1.4464278e-06
0.012687826
-1.0720542e-06
0.0085775697
-6.545801e-07
0.0052415553
-3.502676e-07
0.002943159
-1.6886993e-07
0.0015378229
-7.3354147e-08
0.0007522855
-2.7813459e-08
0.00034308739
-8.3633239e-09
0.00014242986
-1.4323264e-09
4.9799654e-05
1.0140968e-05
1.2850058e-09
1.0139683e-05
7.5050708e-09
4.9793433e-05
2.4968752e-08
0.0001424124
6.5890773e-08
0.00034304646
1.5183713e-07
0.00075219955
3.154835e-07
0.0015376592
5.914937e-07
0.002942883
9.7478334e-07
0.005241172
1.3297013e-06
0.0085772148
1.3567849e-06
0.012687799
8.6525178e-07
0.016675928
2.3459809e-12
0.019196672
-8.6524742e-07
0.019196672
-1.3567813e-06
0.016675928
-1.3296985e-06
0.012687799
-9.7478165e-07
0.0085772148
-5.9149368e-07
0.005241172
-3.1548507e-07
0.002942883
-1.5183936e-07
0.0015376592
-6.5892615e-08
0.00075219956
-2.4969767e-08
0.00034304646
-7.5054189e-09
0.0001424124
-1.2850212e-09
4.9793433e-05
1.0139683e-05
1.1614928e-09
1.0138522e-05
6.7852004e-09
4.978781e-05
2.2580378e-08
0.00014239661
5.9615073e-08
0.00034300943
1.3748022e-07
0.00075212169
2.8604487e-07
0.0015375107
5.3770818e-07
0.0029426314
8.9070245e-07
0.005240819
1.2263943e-06
0.0085768791
1.2674874e-06
0.012687758
8.1592655e-07
0.01667638
2.488744e-12
0.019197488
-8.1592185e-07
0.019197488
-1.2674833e-06
0.01667638
-1.2263908e-06
0.012687758
-8.9070018e-07
0.0085768791
-5.3770784e-07
0.005240819
-2.8604636e-07
0.0029426314
-1.3748252e-07
0.0015375107
-5.9617022e-08
0.00075212169
-2.2581464e-08
0.00034300943
-6.7855789e-09
0.00014239661
-1.1615129e-09
4.978781e-05
1.0138522e-05
1.0561526e-09
1.0137466e-05
6.1709736e-09
4.9782695e-05
2.0541253e-08
0.00014238223
5.4251763e-08
0.00034297572
1.2518984e-07
0.00075205075
2.607661e-07
0.0015373751
4.9124876e-07
0.0029424009
8.172214e-07
0.005240493
1.1341799e-06
0.0085765621
1.1857882e-06
0.012687706
7.7021464e-07
0.016676795
2.6835437e-12
0.019198258
-7.7020949e-07
0.019198258
-1.1857835e-06
0.016676795
-1.1341757e-06
0.012687706
-8.1721855e-07
0.0085765622
-4.9124815e-07
0.005240493
-2.6076762e-07
0.0029424009
-1.2519233e-07
0.0015373751
-5.4253906e-08
0.00075205075
-2.0542462e-08
0.00034297572
-6.1714013e-09
0.00014238223
-1.0561805e-09
4.9782695e-05
1.0137466e-05
9.6515031e-10
1.0136501e-05
5.6401521e-09
4.977802e-05
1.8778152e-08
0.0001423691
4.9610832e-08
0.00034294489
1.145406e-07
0.00075198582
2.3880892e-07
0.0015372508
4.5070077e-07
0.002942189
7.5247873e-07
0.0052401912
1.0514959e-06
0.0085762631
1.110829e-06
0.012687647
7.2768844e-07
0.016677178
2.8357957e-12
0.019198986
-7.2768288e-07
0.019198986
-1.1108236e-06
0.016677178
-1.0514909e-06
0.012687647
-7.5247538e-07
0.0085762631
-4.5070001e-07
0.0052401912
-2.3881062e-07
0.002942189
-1.1454344e-07
0.0015372508
-4.9613289e-08
0.00075198582
-1.8779549e-08
0.00034294489
-5.640654e-09
0.0001423691
-9.6518947e-10
4.977802e-05
1.0136501e-05
8.8580635e-10
1.0135615e-05
5.1771723e-09
4.9773728e-05
1.7239692e-08
0.00014235703
4.5558411e-08
0.00034291657
1.0523106e-07
0.00075192615
2.1957423e-07
0.0015371365
4.1503874e-07
0.0029419935
6.950847e-07
0.0052399112
9.7708979e-07
0.0085759811
1.0418644e-06
0.012687582
6.8800463e-07
0.016677532
2.8824393e-12
0.019199674
-6.8799885e-07
0.019199674
-1.0418585e-06
0.016677532
-9.7708429e-07
0.012687582
-6.9508096e-07
0.0085759811
-4.1503798e-07
0.0052399112
-2.195763e-07
0.0029419935
-1.0523444e-07
0.0015371365
-4.5561336e-08
0.00075192615
-1.7241361e-08
0.00034291657
-5.1777789e-09
0.00014235703
-8.8586043e-10
4.9773728e-05
1.0135615e-05
8.1602408e-10
1.0134799e-05
4.7698707e-09
4.9769775e-05
1.5885749e-08
0.00014234592
4.1989978e-08
0.00034289046
9.7025503e-08
0.00075187111
2.0259112e-07
0.0015370309
3.8344507e-07
0.0029418127
6.438908e-07
0.0052396507
9.098379e-07
0.0085757152
9.782325e-07
0.012687514
6.5086553e-07
0.016677859
2.796638e-12
0.019200325
-6.5085976e-07
0.019200325
-9.7822631e-07
0.016677859
-9.0983192e-07
0.012687514
-6.4388675e-07
0.0085757152
-3.8344446e-07
0.0052396507
-2.0259381e-07
0.0029418127
-9.7029675e-08
0.0015370309
-4.1993554e-08
0.00075187111
-1.5887789e-08
0.00034289046
-4.7706175e-09
0.00014234592
-8.1609688e-10
4.9769775e-05
1.0134799e-05
7.541524e-10
1.0134045e-05
4.4086588e-09
4.976612e-05
1.4684657e-08
0.00014233564
3.8822917e-08
0.00034286632
8.9737123e-08
0.0007518202
1.8748436e-07
0.0015369332
3.5526134e-07
0.0029416449
5.9795312e-07
0.005239408
8.487831e-07
0.0085754643
9.1936281e-07
0.012687443
6.1600929e-07
0.016678163
2.5910278e-12
0.019200941
-6.1600375e-07
0.019200941
-9.1935643e-07
0.016678163
-8.4877669e-07
0.012687443
-5.9794883e-07
0.0085754643
-3.5526102e-07
0.005239408
-1.874879e-07
0.0029416449
-8.9742358e-08
0.0015369332
-3.8827354e-08
0.0007518202
-1.4687181e-08
0.00034286632
-4.4095858e-09
0.00014233564
-7.5424769e-10
4.976612e-05
1.0134045e-05
6.9890218e-10
1.0133346e-05
4.0860409e-09
4.9762733e-05
1.3611625e-08
0.00014232612
3.5992396e-08
0.00034284394
8.3218803e-08
0.00075177297
1.739568e-07
0.0015368424
3.2996098e-07
0.0029414889
5.5650186e-07
0.0052391815
7.9311501e-07
0.0085752277
8.6476385e-07
0.012687372
5.8322995e-07
0.016678444
2.3101016e-12
0.019201524
-5.8322476e-07
0.019201524
-8.6475732e-07
0.016678444
-7.9310814e-07
0.012687372
-5.5649733e-07
0.0085752277
-3.2996112e-07
0.0052391815
-1.7396146e-07
0.0029414889
-8.3225405e-08
0.0015368424
-3.5997926e-08
0.00075177297
-1.3614757e-08
0.00034284394
-4.0871916e-09
0.00014232612
-6.9902366e-10
4.9762733e-05
1.0133346e-05
6.4925721e-10
1.0132696e-05
3.7961035e-09
4.9759586e-05
1.2647072e-08
0.00014231727
3.3447145e-08
0.00034282314
7.7353949e-08
0.00075172906
1.6177207e-07
0.001536758
3.0712243e-07
0.0029413435
5.189138e-07
0.0052389697
7.4216681e-07
0.0085750045
8.1400912e-07
0.0126873
5.5234042e-07
0.016678706
1.9100794e-12
0.019202077
-5.5233568e-07
0.019202077
-8.1400241e-07
0.016678706
-7.4215939e-07
0.0126873
-5.1890903e-07
0.0085750045
-3.0712316e-07
0.0052389697
-1.6177815e-07
0.0029413435
-7.7362248e-08
0.001536758
-3.3454019e-08
0.00075172906
-1.2650947e-08
0.00034282314
-3.7975245e-09
0.00014231727
-6.4940842e-10
4.9759586e-05
1.0132696e-05
6.0440348e-10
1.0132092e-05
3.5341077e-09
4.9756656e-05
1.17753e-08
0.00014230902
3.1146006e-08
0.00034280377
7.2048783e-08
0.00075168816
1.5073942e-07
0.0015366793
2.8640326e-07
0.0029412079
4.8467579e-07
0.0052387714
6.9537448e-07
0.0085747938
7.6673868e-07
0.012687229
5.2320204e-07
0.01667895
1.5456045e-12
0.0192026
-5.2319768e-07
0.0192026
-7.6673165e-07
0.01667895
-6.9536637e-07
0.012687229
-4.8467072e-07
0.0085747938
-2.8640472e-07
0.0052387714
-1.5074723e-07
0.0029412079
-7.205913e-08
0.0015366793
-3.1154491e-08
0.00075168816
-1.178006e-08
0.00034280377
-3.5358479e-09
0.00014230902
-6.045878e-10
4.9756656e-05
1.0132092e-05
5.6368242e-10
1.0131528e-05
3.2962179e-09
4.9753924e-05
1.0983596e-08
0.00014230134
2.9055627e-08
0.0003427857
6.7227235e-08
0.00075164999
1.407038e-07
0.0015366058
2.6752405e-07
0.002941081
4.5336636e-07
0.0052385856
6.5226915e-07
0.0085745949
7.2263066e-07
0.012687158
4.9567126e-07
0.016679177
1.22961e-12
0.019203095
-4.9566714e-07
0.019203095
-7.2262312e-07
0.016679177
-6.5226014e-07
0.012687158
-4.5336091e-07
0.0085745949
-2.6752638e-07
0.0052385856
-1.4071365e-07
0.0029410811
-6.7239995e-08
0.0015366059
-2.9066004e-08
0.00075164999
-1.0989389e-08
0.0003427857
-3.2983281e-09
0.00014230134
-5.6390301e-10
4.9753924e-05
1.0131528e-05
5.2655477e-10
1.0131002e-05
3.0792929e-09
4.9751371e-05
1.0261543e-08
0.00014229415
2.714866e-08
0.00034276881
6.2826828e-08
0.00075161431
1.3153752e-07
0.0015365371
2.5025344e-07
0.0029409623
4.2463194e-07
0.0052384112
6.1244666e-07
0.008574407
6.8141725e-07
0.012687089
4.6965413e-07
0.016679388
9.7999762e-13
0.019203565
-4.6965009e-07
0.019203565
-6.8140895e-07
0.016679388
-6.1243652e-07
0.012687089
-4.2462602e-07
0.0085744071
-2.5025677e-07
0.0052384112
-1.3154975e-07
0.0029409623
-6.2842382e-08
0.0015365371
-2.7161218e-08
0.00075161431
-1.0268523e-08
0.00034276881
-3.081825e-09
0.00014229415
-5.268146e-10
4.9751371e-05
1.0131002e-05
4.9257591e-10
1.0130509e-05
2.8807417e-09
4.9748983e-05
9.600548e-09
0.00014228743
2.5402538e-08
0.00034275301
5.8795993e-08
0.00075158091
1.2313511e-07
0.0015364728
2.3440001e-07
0.0029408511
3.9817957e-07
0.0052382474
5.7557052e-07
0.0085742297
6.4284629e-07
0.012687022
4.4502931e-07
0.016679586
8.1884173e-13
0.01920401
-4.4502515e-07
0.01920401
-6.4283697e-07
0.016679586
-5.7555899e-07
0.012687022
-3.9817308e-07
0.0085742297
-2.3440448e-07
0.0052382474
-1.2315005e-07
0.0029408511
-5.8814732e-08
0.0015364728
-2.5417572e-08
0.00075158092
-9.6088695e-09
0.00034275301
-2.8837484e-09
0.00014228743
-4.928777e-10
4.9748982e-05
1.0130509e-05
4.6137424e-10
1.0130048e-05
2.6983993e-09
4.9746746e-05
8.9934266e-09
0.00014228114
2.3798378e-08
0.00034273821
5.5091515e-08
0.00075154962
1.1540794e-07
0.0015364125
2.1980198e-07
0.0029407467
3.7375788e-07
0.0052380934
5.4134322e-07
0.0085740621
6.0671757e-07
0.012686957
4.2173728e-07
0.016679771
7.4788698e-13
0.019204432
-4.2173278e-07
0.019204432
-6.0670695e-07
0.016679771
-5.4133006e-07
0.012686957
-3.7375072e-07
0.0085740621
-2.1980773e-07
0.0052380935
-1.1542593e-07
0.0029407467
-5.5113837e-08
0.0015364125
-2.3816189e-08
0.00075154962
-9.0032471e-09
0.00034273821
-2.701933e-09
0.00014228114
-4.6172047e-10
4.9746745e-05
1.0130048e-05
4.3263734e-10
1.0129615e-05
2.5304438e-09
4.9744648e-05
8.4341348e-09
0.00014227524
2.2320302e-08
0.00034272432
5.1677079e-08
0.00075152026
1.0828156e-07
0.0015363559
2.0632359e-07
0.0029406486
3.5115682e-07
0.0052379486
5.0951663e-07
0.0085739037
5.7282329e-07
0.012686893
3.9966348e-07
0.016679944
7.6641073e-13
0.019204832
-3.9965843e-07
0.019204832
-5.7281112e-07
0.016679944
-5.0950158e-07
0.012686893
-3.5114891e-07
0.0085739037
-2.0633079e-07
0.0052379486
-1.0830297e-07
0.0029406486
-5.1703386e-08
0.0015363559
-2.2341188e-08
0.00075152027
-8.4456088e-09
0.00034272432
-2.5345559e-09
0.00014227523
-4.3303013e-10
4.9744647e-05
1.0129615e-05
4.0609991e-10
1.0129209e-05
2.3753303e-09
4.9742679e-05
7.9175434e-09
0.00014226969
2.095481e-08
0.00034271128
4.8521725e-08
0.0007514927
1.0169226e-07
0.0015363027
1.9384781e-07
0.0029405565
3.3019181e-07
0.0052378123
4.7986571e-07
0.008573754
5.4101686e-07
0.012686832
3.7878011e-07
0.016680106
8.7216534e-13
0.01920521
-3.787743e-07
0.01920521
-5.4100286e-07
0.016680106
-4.7984855e-07
0.012686832
-3.3018308e-07
0.008573754
-1.9385664e-07
0.0052378123
-1.0171746e-07
0.0029405565
-4.8552411e-08
0.0015363027
-2.0979062e-08
0.0007514927
-7.9308202e-09
0.00034271128
-2.3800697e-09
0.00014226969
-4.0654096e-10
4.9742678e-05
1.0129209e-05
3.8153435e-10
1.0128828e-05
2.2317297e-09
4.9740828e-05
7.4392422e-09
0.00014226449
1.9690324e-08
0.00034269903
4.5598981e-08
0.00075146679
9.558575e-08
0.0015362527
1.8227522e-07
0.0029404698
3.1070766e-07
0.0052376838
4.5220203e-07
0.0085736125
5.1111506e-07
0.012686773
3.5896594e-07
0.016680259
1.0631656e-12
0.019205569
-3.5895916e-07
0.019205569
-5.1109898e-07
0.016680259
-4.5218254e-07
0.012686773
-3.1069807e-07
0.0085736126
-1.8228586e-07
0.0052376839
-9.5615091e-08
0.0029404698
-4.5634427e-08
0.0015362527
-1.9718216e-08
0.00075146679
-7.4544612e-09
0.00034269903
-2.2371416e-09
0.00014226448
-3.820248e-10
4.9740828e-05
1.0128827e-05
3.5874655e-10
1.0128469e-05
2.0985135e-09
4.9739089e-05
6.9954824e-09
0.00014225959
1.851695e-08
0.00034268751
4.2886073e-08
0.00075144242
8.9914945e-08
0.0015362057
1.7151883e-07
0.0029403882
2.9256543e-07
0.0052375628
4.2635276e-07
0.0085734787
4.8302011e-07
0.012686716
3.4022889e-07
0.016680401
1.3490939e-12
0.01920591
-3.4022096e-07
0.01920591
-4.8300175e-07
0.016680401
-4.2633078e-07
0.012686716
-2.9255495e-07
0.0085734788
-1.7153147e-07
0.0052375628
-8.9948766e-08
0.0029403882
-4.292663e-08
0.0015362057
-1.8548733e-08
0.00075144242
-7.0127687e-09
0.00034268751
-2.1046376e-09
0.00014225959
-3.592868e-10
4.9739088e-05
1.0128468e-05
3.3756443e-10
1.0128131e-05
1.9746732e-09
4.9737452e-05
6.5829173e-09
0.00014225498
1.7425927e-08
0.00034267667
4.0363041e-08
0.00075141948
8.4638967e-08
0.0015361614
1.6150355e-07
0.0029403113
2.7564672e-07
0.0052374486
4.0216882e-07
0.0085733522
4.5655479e-07
0.012686662
3.2242639e-07
0.016680536
1.7229674e-12
0.019206232
-3.2241711e-07
0.019206232
-4.5653392e-07
0.016680536
-4.0214419e-07
0.012686662
-2.7563536e-07
0.0085733522
-1.6151838e-07
0.0052374487
-8.4677578e-08
0.0029403113
-4.0409021e-08
0.0015361614
-1.7461817e-08
0.00075141949
-6.6023769e-09
0.00034267666
-1.981542e-09
0.00014225498
-3.3815404e-10
4.973745e-05
1.0128131e-05
3.1784513e-10
1.0127813e-05
1.8593833e-09
4.973591e-05
6.1988023e-09
0.00014225064
1.6409961e-08
0.00034266645
3.8012932e-08
0.00075139788
7.9722471e-08
0.0015361197
1.5216372e-07
0.0029402389
2.5984605e-07
0.005237341
3.7951955e-07
0.0085732325
4.316744e-07
0.01268661
3.0561301e-07
0.016680662
2.1871653e-12
0.019206538
-3.0560221e-07
0.019206538
-4.3165086e-07
0.016680662
-3.7949216e-07
0.01268661
-2.5983382e-07
0.0085732326
-1.5218091e-07
0.005237341
-7.9766137e-08
0.0029402389
-3.8064589e-08
0.0015361197
-1.6450129e-08
0.00075139788
-6.2205161e-09
0.00034266645
-1.8670203e-09
0.00014225064
-3.184826e-10
4.9735909e-05
1.0127813e-05
2.9945159e-10
1.0127514e-05
1.7518322e-09
4.9734458e-05
5.8404448e-09
0.00014224655
1.5462065e-08
0.00034265683
3.5820025e-08
0.00075137752
7.5133526e-08
0.0015360804
1.4344045e-07
0.0029401706
2.4506856e-07
0.0052372393
3.5827727e-07
0.0085731193
4.081853e-07
0.01268656
2.8960539e-07
0.01668078
2.7451408e-12
0.019206827
-2.8959292e-07
0.019206827
-4.0815896e-07
0.01668078
-3.5824706e-07
0.01268656
-2.4505551e-07
0.0085731194
-1.4346014e-07
0.0052372394
-7.5182453e-08
0.0029401706
-3.5877547e-08
0.0015360804
-1.5506629e-08
0.00075137752
-5.864464e-09
0.00034265683
-1.76025e-09
0.00014224655
-3.0013434e-10
4.9734456e-05
1.0127513e-05
2.8228396e-10
1.0127232e-05
1.651456e-09
4.9733089e-05
5.5059646e-09
0.0001422427
1.4577124e-08
0.00034264776
3.377206e-08
0.00075135832
7.0845972e-08
0.0015360433
1.3528497e-07
0.0029401061
2.3123733e-07
0.0052371434
3.3835389e-07
0.0085730122
3.8611202e-07
0.012686512
2.7452492e-07
0.016680892
3.3736695e-12
0.019207102
-2.7451064e-07
0.019207102
-3.8608282e-07
0.016680892
-3.3832086e-07
0.012686512
-2.3122354e-07
0.0085730122
-1.353073e-07
0.0052371434
-7.09003e-08
0.0029401062
-3.3835549e-08
0.0015360433
-1.4626136e-08
0.00075135833
-5.5323043e-09
0.00034264776
-1.6606544e-09
0.0001422427
-2.8300798e-10
4.9733087e-05
1.0127231e-05
2.6622115e-10
1.0126965e-05
1.5575188e-09
4.9731797e-05
5.1929254e-09
0.00014223906
1.3748967e-08
0.00034263921
3.1855625e-08
0.00075134022
6.6833262e-08
0.0015360083
1.2764791e-07
0.0029400453
2.1826842e-07
0.0052370528
3.1962146e-07
0.0085729109
3.6521218e-07
0.012686467
2.6011921e-07
0.016680997
4.0342789e-12
0.019207362
-2.6010305e-07
0.019207362
-3.651801e-07
0.016680997
-3.1958567e-07
0.012686467
-2.1825398e-07
0.0085729109
-1.2767297e-07
0.0052370528
-6.6893057e-08
0.0029400453
-3.1925098e-08
0.0015360084
-1.380241e-08
0.00075134022
-5.2215634e-09
0.0003426392
-1.5674841e-09
0.00014223906
-2.6698137e-10
4.9731795e-05
1.0126965e-05
2.5121318e-10
1.0126714e-05
1.4697735e-09
4.9730579e-05
4.9004866e-09
0.00014223563
1.2974978e-08
0.00034263113
3.0063451e-08
0.00075132313
6.3078366e-08
0.0015359753
1.2049752e-07
0.0029399879
2.0611744e-07
0.0052369671
3.0205027e-07
0.0085728149
3.4561452e-07
0.012686423
2.4661019e-07
0.016681096
4.6881491e-12
0.019207608
-2.4659216e-07
0.019207608
-3.4557965e-07
0.016681096
-3.0201189e-07
0.012686423
-2.0610252e-07
0.008572815
-1.2052542e-07
0.0052369672
-6.314362e-08
0.0029399879
-3.0138825e-08
0.0015359753
-1.3032759e-08
0.00075132314
-4.9313603e-09
0.00034263113
-1.4804788e-09
0.00014223563
-2.5200406e-10
4.9730577e-05
1.0126714e-05
2.3712638e-10
1.0126477e-05
1.3873696e-09
4.9729429e-05
4.625849e-09
0.00014223239
1.2248396e-08
0.00034262351
2.8381907e-08
0.000751307
5.9556007e-08
0.0015359441
1.1378622e-07
0.0029399336
1.9469404e-07
0.0052368862
2.8547738e-07
0.0085727241
3.2697638e-07
0.012686382
2.3363402e-07
0.016681189
5.2762555e-12
0.019207842
-2.3361425e-07
0.019207842
-3.2693894e-07
0.016681189
-2.8543668e-07
0.012686382
-1.9467887e-07
0.0085727242
-1.1381701e-07
0.0052368863
-5.9626616e-08
0.0029399337
-2.8462982e-08
0.0015359442
-1.2310323e-08
0.000751307
-4.6588413e-09
0.00034262351
-1.3987674e-09
0.00014223239
-2.3793963e-10
4.9729426e-05
1.0126476e-05
2.2400188e-10
1.0126253e-05
1.3106537e-09
4.9728342e-05
4.3701032e-09
0.00014222933
1.1571058e-08
0.00034261631
2.6811989e-08
0.00075129176
5.6263052e-08
0.0015359147
1.0750786e-07
0.0029398824
1.8400728e-07
0.0052368097
2.6997673e-07
0.0085726382
3.0959878e-07
0.012686342
2.2156897e-07
0.016681277
5.7059538e-12
0.019208064
-2.2154777e-07
0.019208064
-3.0955915e-07
0.016681277
-2.6993413e-07
0.012686342
-1.8399216e-07
0.0085726382
-1.0754163e-07
0.0052368098
-5.6338853e-08
0.0029398825
-2.6898474e-08
0.0015359147
-1.1636869e-08
0.00075129176
-4.4050569e-09
0.0003426163
-1.3226829e-09
0.00014222933
-2.2482877e-10
4.9728339e-05
1.0126252e-05
2.1162065e-10
1.0126041e-05
1.2381775e-09
4.9727315e-05
4.1285319e-09
0.00014222644
1.0932176e-08
0.00034260951
2.5334009e-08
0.00075127735
5.3166873e-08
0.0015358869
1.0160165e-07
0.002939834
1.7392714e-07
0.0052367374
2.552861e-07
0.0085725568
2.9295556e-07
0.012686304
2.0987713e-07
0.01668136
5.9465453e-12
0.019208274
-2.0985486e-07
0.019208273
-2.9291427e-07
0.01668136
-2.5524218e-07
0.012686304
-1.7391246e-07
0.0085725568
-1.0163845e-07
0.0052367375
-5.3247594e-08
0.002939834
-2.5425484e-08
0.0015358869
-1.1001512e-08
0.00075127736
-4.1652426e-09
0.0003426095
-1.2507635e-09
0.00014222644
-2.1245365e-10
4.9727313e-05
1.0126041e-05
2.0026458e-10
1.0125841e-05
1.171845e-09
4.9726344e-05
3.9072432e-09
0.00014222371
1.034496e-08
0.00034260307
2.3969345e-08
0.00075126373
5.0296696e-08
0.0015358605
9.6117806e-08
0.0029397881
1.6457683e-07
0.0052366689
2.4168983e-07
0.0085724797
2.7764942e-07
0.012686268
1.9918771e-07
0.016681439
6.0567306e-12
0.019208473
-1.9916488e-07
0.019208473
-2.7760714e-07
0.016681439
-2.4164531e-07
0.012686268
-1.645631e-07
0.0085724797
-9.6157697e-08
0.005236669
-5.0381964e-08
0.0029397882
-2.4065236e-08
0.0015358606
-1.0417325e-08
0.00075126374
-3.9454243e-09
0.00034260306
-1.1848792e-09
0.0001422237
-2.0108993e-10
4.9726341e-05
1.012584e-05
1.8933187e-10
1.0125652e-05
1.1077351e-09
4.9725426e-05
3.6936521e-09
0.00014222112
9.7813359e-09
0.00034259698
2.266931e-08
0.00075125084
4.7579183e-08
0.0015358356
9.0932989e-08
0.0029397448
1.557033e-07
0.0052366042
2.2870019e-07
0.0085724067
2.6284749e-07
0.012686234
1.8870706e-07
0.016681513
5.9000827e-12
0.019208661
-1.8868425e-07
0.019208661
-2.6280507e-07
0.016681513
-2.2865605e-07
0.012686234
-1.5569124e-07
0.0085724067
-9.0976201e-08
0.0052366042
-4.7668709e-08
0.0029397449
-2.2769034e-08
0.0015358357
-9.8561745e-09
0.00075125085
-3.7329594e-09
0.00034259698
-1.1210789e-09
0.00014222112
-1.9012915e-10
4.9725423e-05
1.0125651e-05
1.7995907e-10
1.0125472e-05
1.0531018e-09
4.9724553e-05
3.5108195e-09
0.00014221867
9.2924395e-09
0.0003425912
2.1521831e-08
0.00075123862
4.5143681e-08
0.001535812
8.625328e-08
0.0029397037
1.4770464e-07
0.0052365427
2.1704956e-07
0.0085723373
2.4970137e-07
0.012686202
1.7948569e-07
0.016681583
5.413539e-12
0.019208841
-1.7946363e-07
0.019208841
-2.4965968e-07
0.016681583
-2.1700683e-07
0.012686202
-1.4769513e-07
0.0085723374
-8.6300159e-08
0.0052365428
-4.523715e-08
0.0029397037
-2.1624631e-08
0.001535812
-9.368975e-09
0.00075123862
-3.5507411e-09
0.00034259119
-1.0665348e-09
0.00014221866
-1.8068858e-10
4.9724549e-05
1.0125471e-05
1.6885664e-10
1.0125303e-05
9.8820323e-10
4.9723733e-05
3.2974909e-09
0.00014221636
8.7430909e-09
0.00034258575
2.0295047e-08
0.00075122706
4.2663889e-08
0.0015357896
8.1642254e-08
0.0029396647
1.399237e-07
0.0052364844
2.0571561e-07
0.0085722715
2.367554e-07
0.012686171
1.7030759e-07
0.01668165
4.4896617e-12
0.019209011
-1.7028705e-07
0.019209011
-2.3671516e-07
0.01668165
-2.0567528e-07
0.01268617
-1.3991801e-07
0.0085722716
-8.1693497e-08
0.0052364845
-4.2760843e-08
0.0029396648
-2.0399611e-08
0.0015357897
-8.8199354e-09
0.00075122707
-3.3371076e-09
0.00034258575
-1.0013261e-09
0.00014221635
-1.6943984e-10
4.972373e-05
1.0125302e-05
1.6406527e-10
1.0125139e-05
9.6032221e-10
4.9722937e-05
3.1984086e-09
0.00014221412
8.4482946e-09