/*--------------------------------*- C++ -*----------------------------------*\
| =========                 |                                                 |
| \\      /  F ield         | OpenFOAM: The Open Source CFD Toolbox           |
|  \\    /   O peration     | Version:  2406                                  |
|   \\  /    A nd           | Website:  www.openfoam.com                      |
|    \\/     M anipulation  |                                                 |
\*---------------------------------------------------------------------------*/
FoamFile
{
    version     2.0;
    format      ascii;
    arch        "LSB;label=32;scalar=64";
    class       volVectorField;
    location    "16";
    object      U;
}
// * * * * * * * * * * * * * * * * * * * * * * * * * * * * * * * * * * * * * //

dimensions      [0 1 -1 0 0 0 0];

internalField   nonuniform List<vector> 
1176
(
(0.019493789 7.0786571e-07 0)
(0.066677318 8.1696674e-06 0)
(0.13357994 3.9503203e-05 0)
(0.22724701 0.00010873586 0)
(0.35591522 0.00021176047 0)
(0.52772023 0.00030396319 0)
(0.74780387 0.00031818062 0)
(1.0136216 0.00024904628 0)
(1.3093323 0.00016667023 0)
(1.6017081 0.00011264699 0)
(1.8421723 7.0214268e-05 0)
(1.9793239 2.3940979e-05 0)
(1.9793239 -2.3940559e-05 0)
(1.8421723 -7.021444e-05 0)
(1.6017081 -0.00011264883 0)
(1.3093323 -0.00016667531 0)
(1.0136216 -0.00024905609 0)
(0.74780387 -0.00031819519 0)
(0.52772023 -0.00030397932 0)
(0.35591522 -0.00021177296 0)
(0.227247 -0.00010874368 0)
(0.13357993 -3.9505319e-05 0)
(0.066677313 -8.1725147e-06 0)
(0.019493788 -7.0745765e-07 0)
(0.020187017 -3.7419163e-06 0)
(0.068813532 -2.4638633e-05 0)
(0.13732107 -9.6548526e-05 0)
(0.23247391 -0.00024839454 0)
(0.36204617 -0.00047268769 0)
(0.53373556 -0.00067421165 0)
(0.75267407 -0.00069486917 0)
(1.0170176 -0.00049687338 0)
(1.3116385 -0.00023345894 0)
(1.6034438 -4.9824234e-05 0)
(1.8436588 1.9764956e-05 0)
(1.9807026 1.3428227e-05 0)
(1.9807026 -1.3426573e-05 0)
(1.8436588 -1.9762194e-05 0)
(1.6034438 4.982944e-05 0)
(1.3116385 0.00023346804 0)
(1.0170177 0.00049688722 0)
(0.75267409 0.00069488635 0)
(0.53373558 0.00067422809 0)
(0.36204618 0.00047269907 0)
(0.2324739 0.00024840064 0)
(0.13732106 9.655053e-05 0)
(0.068813527 2.4639625e-05 0)
(0.020187015 3.7418919e-06 0)
(0.020018441 2.0918379e-06 0)
(0.068327404 1.2720776e-05 0)
(0.13655404 4.687727e-05 0)
(0.23159544 0.00011389741 0)
(0.36138708 0.00019769273 0)
(0.53366968 0.00023903241 0)
(0.75344344 0.00020559818 0)
(1.0184881 0.00011361133 0)
(1.3134639 7.4313741e-05 0)
(1.6053464 7.9532911e-05 0)
(1.8455118 7.0516324e-05 0)
(1.9825245 2.7825087e-05 0)
(1.9825245 -2.7826849e-05 0)
(1.8455118 -7.0519153e-05 0)
(1.6053464 -7.9537339e-05 0)
(1.3134639 -7.4319629e-05 0)
(1.0184881 -0.0001136179 0)
(0.75344342 -0.00020560426 0)
(0.53366967 -0.00023903657 0)
(0.36138708 -0.0001976944 0)
(0.23159544 -0.00011389778 0)
(0.13655405 -4.6877341e-05 0)
(0.068327407 -1.2720562e-05 0)
(0.020018442 -2.0918639e-06 0)
(0.019966547 7.0076555e-07 0)
(0.068159231 4.6870491e-06 0)
(0.1362402 1.9355451e-05 0)
(0.2311194 5.645619e-05 0)
(0.36078092 0.00013444569 0)
(0.53306292 0.00025829325 0)
(0.75295636 0.00035344753 0)
(1.0181104 0.00036912004 0)
(1.313184 0.0003075888 0)
(1.6051633 0.00022777265 0)
(1.8453995 0.00014555981 0)
(1.9824491 4.9997883e-05 0)
(1.9824491 -4.9996197e-05 0)
(1.8453995 -0.0001455579 0)
(1.6051633 -0.00022777031 0)
(1.313184 -0.00030758599 0)
(1.0181104 -0.000369118 0)
(0.75295637 -0.000353447 0)
(0.53306293 -0.00025829363 0)
(0.36078093 -0.00013444663 0)
(0.2311194 -5.6456883e-05 0)
(0.1362402 -1.9355669e-05 0)
(0.068159231 -4.6873009e-06 0)
(0.019966547 -7.0073586e-07 0)
(0.019942203 2.9076962e-07 0)
(0.068078702 1.9872026e-06 0)
(0.13608628 8.2361208e-06 0)
(0.23087699 2.3699327e-05 0)
(0.36044744 5.6881619e-05 0)
(0.53266448 0.00012306883 0)
(0.75256877 0.00022681813 0)
(1.0178079 0.00032272216 0)
(1.3129044 0.00034572469 0)
(1.604912 0.00030729994 0)
(1.8452029 0.00021095339 0)
(1.9822898 7.4614945e-05 0)
(1.9822898 -7.4614014e-05 0)
(1.8452029 -0.00021095259 0)
(1.604912 -0.00030729922 0)
(1.3129044 -0.00034572432 0)
(1.0178079 -0.00032272178 0)
(0.75256877 -0.00022681719 0)
(0.53266448 -0.00012306783 0)
(0.36044744 -5.6880909e-05 0)
(0.23087699 -2.3698954e-05 0)
(0.13608628 -8.2359815e-06 0)
(0.068078701 -1.9871663e-06 0)
(0.019942203 -2.9076209e-07 0)
(0.019933131 1.7181585e-07 0)
(0.068047754 1.1940743e-06 0)
(0.13602488 5.0651999e-06 0)
(0.23077535 1.4968857e-05 0)
(0.36029898 3.6219531e-05 0)
(0.5324792 7.6944203e-05 0)
(0.75239427 0.00014713766 0)
(1.0177222 0.00023749028 0)
(1.3129292 0.00028525608 0)
(1.6049746 0.00027441513 0)
(1.8452865 0.00019644653 0)
(1.9823834 7.1177425e-05 0)
(1.9823834 -7.1176512e-05 0)
(1.8452865 -0.00019644572 0)
(1.6049746 -0.00027441431 0)
(1.3129292 -0.00028525546 0)
(1.0177222 -0.00023749001 0)
(0.75239427 -0.0001471375 0)
(0.5324792 -7.6944089e-05 0)
(0.36029898 -3.6219444e-05 0)
(0.23077535 -1.49688e-05 0)
(0.13602488 -5.0651841e-06 0)
(0.068047754 -1.1940524e-06 0)
(0.019933131 -1.7181825e-07 0)
(0.0199234 1.5587618e-07 0)
(0.068015505 1.070074e-06 0)
(0.13596286 4.4934623e-06 0)
(0.23067606 1.3195452e-05 0)
(0.36015773 3.1857095e-05 0)
(0.53230177 6.6958162e-05 0)
(0.75221429 0.00012411877 0)
(1.0176105 0.00019917044 0)
(1.3129358 0.00025490853 0)
(1.6050904 0.00024595191 0)
(1.8454579 0.00018127937 0)
(1.9825798 6.6549053e-05 0)
(1.9825798 -6.6547908e-05 0)
(1.8454579 -0.00018127815 0)
(1.6050904 -0.00024595052 0)
(1.3129358 -0.00025490724 0)
(1.0176105 -0.00019916955 0)
(0.75221429 -0.00012411823 0)
(0.53230177 -6.6957919e-05 0)
(0.36015773 -3.1857022e-05 0)
(0.23067606 -1.3195447e-05 0)
(0.13596286 -4.4934805e-06 0)
(0.068015506 -1.0700664e-06 0)
(0.0199234 -1.5588307e-07 0)
(0.019915697 1.2758652e-07 0)
(0.067989791 8.7801457e-07 0)
(0.13591293 3.6959943e-06 0)
(0.23059502 1.0901581e-05 0)
(0.36003987 2.6613288e-05 0)
(0.53214752 5.7236989e-05 0)
(0.75204132 0.00010911028 0)
(1.0174723 0.00017936608 0)
(1.3128926 0.00023802474 0)
(1.6051414 0.00023746769 0)
(1.8455877 0.00017750715 0)
(1.9827513 6.5539936e-05 0)
(1.9827513 -6.5538765e-05 0)
(1.8455877 -0.00017750589 0)
(1.6051414 -0.00023746638 0)
(1.3128926 -0.00023802359 0)
(1.0174723 -0.00017936527 0)
(0.75204132 -0.00010910978 0)
(0.53214753 -5.7236763e-05 0)
(0.36003987 -2.6613223e-05 0)
(0.23059502 -1.0901582e-05 0)
(0.13591293 -3.6960259e-06 0)
(0.067989791 -8.77993e-07 0)
(0.019915697 -1.2759997e-07 0)
(0.019909216 1.0465835e-07 0)
(0.06796814 7.2313416e-07 0)
(0.13587083 3.052096e-06 0)
(0.23052654 9.0118033e-06 0)
(0.35993984 2.1999807e-05 0)
(0.53201541 4.7473282e-05 0)
(0.751889 9.2013809e-05 0)
(1.0173341 0.0001561816 0)
(1.3128278 0.00021699661 0)
(1.6051595 0.00022709635 0)
(1.8456699 0.00017232659 0)
(1.982868 6.414816e-05 0)
(1.982868 -6.4147077e-05 0)
(1.8456699 -0.0001723254 0)
(1.6051595 -0.00022709516 0)
(1.3128278 -0.00021699572 0)
(1.0173341 -0.00015618101 0)
(0.75188901 -9.201351e-05 0)
(0.53201541 -4.7473215e-05 0)
(0.35993984 -2.1999844e-05 0)
(0.23052654 -9.0118539e-06 0)
(0.13587083 -3.0521518e-06 0)
(0.06796814 -7.2310904e-07 0)
(0.019909216 -1.0467628e-07 0)
(0.019903971 8.612691e-08 0)
(0.067950551 5.9696078e-07 0)
(0.13583649 2.5273702e-06 0)
(0.2304703 7.4915881e-06 0)
(0.35985692 1.837623e-05 0)
(0.53190435 3.9835542e-05 0)
(0.75175836 7.7711912e-05 0)
(1.0172122 0.00013432405 0)
(1.3127613 0.00019323349 0)
(1.6051771 0.00021058348 0)
(1.8457533 0.00016272991 0)
(1.9829863 6.1084622e-05 0)
(1.9829863 -6.1083689e-05 0)
(1.8457533 -0.0001627289 0)
(1.6051771 -0.00021058255 0)
(1.3127613 -0.00019323286 0)
(1.0172122 -0.00013432366 0)
(0.75175836 -7.7711762e-05 0)
(0.53190435 -3.9835587e-05 0)
(0.35985692 -1.8376338e-05 0)
(0.2304703 -7.4916736e-06 0)
(0.13583649 -2.5274433e-06 0)
(0.067950551 -5.9693459e-07 0)
(0.019903971 -8.6147629e-08 0)
(0.019899543 7.3356709e-08 0)
(0.067935687 5.089604e-07 0)
(0.13580742 2.1568804e-06 0)
(0.23042258 6.402739e-06 0)
(0.35978626 1.5747526e-05 0)
(0.53180889 3.4277683e-05 0)
(0.75164408 6.7204364e-05 0)
(1.017102 0.00011722963 0)
(1.3126976 0.00017262439 0)
(1.6051928 0.00019308896 0)
(1.8458371 0.00015219876 0)
(1.9831061 5.7545066e-05 0)
(1.9831061 -5.7544315e-05 0)
(1.8458371 -0.00015219798 0)
(1.6051928 -0.00019308832 0)
(1.3126976 -0.00017262398 0)
(1.017102 -0.0001172294 0)
(0.75164408 -6.7204336e-05 0)
(0.53180889 -3.4277808e-05 0)
(0.35978626 -1.5747679e-05 0)
(0.23042258 -6.4028459e-06 0)
(0.13580742 -2.1569644e-06 0)
(0.067935687 -5.0893248e-07 0)
(0.019899543 -7.3379275e-08 0)
(0.019895721 6.3727025e-08 0)
(0.067922849 4.4251973e-07 0)
(0.13578228 1.8767301e-06 0)
(0.23038125 5.5765045e-06 0)
(0.35972483 1.3738621e-05 0)
(0.53172534 2.999787e-05 0)
(0.75154263 5.9111322e-05 0)
(1.0170011 0.00010388787 0)
(1.3126344 0.00015540252 0)
(1.6052015 0.00017849514 0)
(1.8459125 0.00014271557 0)
(1.9832185 5.4330811e-05 0)
(1.9832185 -5.4330208e-05 0)
(1.8459125 -0.00014271498 0)
(1.6052015 -0.00017849471 0)
(1.3126344 -0.00015540226 0)
(1.0170011 -0.00010388776 0)
(0.75154264 -5.9111375e-05 0)
(0.53172534 -2.9998049e-05 0)
(0.35972483 -1.3738805e-05 0)
(0.23038125 -5.5766259e-06 0)
(0.13578228 -1.8768217e-06 0)
(0.067922849 -4.424907e-07 0)
(0.019895721 -6.3750803e-08 0)
(0.01989237 5.6089969e-08 0)
(0.067911585 3.8977628e-07 0)
(0.13576021 1.6541173e-06 0)
(0.2303449 4.9187438e-06 0)
(0.35967068 1.2131954e-05 0)
(0.53165135 2.6542307e-05 0)
(0.75145189 5.2498538e-05 0)
(1.0169086 9.2875366e-05 0)
(1.3125728 0.00014061457 0)
(1.605205 0.00016529599 0)
(1.8459798 0.00013398925 0)
(1.9833221 5.1387601e-05 0)
(1.9833221 -5.1387097e-05 0)
(1.8459798 -0.00013398879 0)
(1.605205 -0.0001652957 0)
(1.3125728 -0.00014061438 0)
(1.0169086 -9.28753e-05 0)
(0.75145189 -5.2498626e-05 0)
(0.53165135 -2.6542509e-05 0)
(0.35967068 -1.2132153e-05 0)
(0.2303449 -4.9188733e-06 0)
(0.13576021 -1.654214e-06 0)
(0.067911585 -3.8974629e-07 0)
(0.01989237 -5.6114674e-08 0)
(0.019889403 4.9848956e-08 0)
(0.067901605 3.4661572e-07 0)
(0.13574064 1.471757e-06 0)
(0.23031263 4.3793695e-06 0)
(0.35962252 1.0812254e-05 0)
(0.5315853 2.3691279e-05 0)
(0.75137028 4.69839e-05 0)
(1.016824 8.3545964e-05 0)
(1.3125139 0.00012773712 0)
(1.6052051 0.00015293325 0)
(1.8460415 0.00012582031 0)
(1.9834196 4.8616629e-05 0)
(1.9834196 -4.8616174e-05 0)
(1.8460415 -0.00012581992 0)
(1.6052051 -0.00015293299 0)
(1.3125139 -0.00012773694 0)
(1.016824 -8.35459e-05 0)
(0.75137028 -4.698399e-05 0)
(0.53158531 -2.3691487e-05 0)
(0.35962253 -1.081246e-05 0)
(0.23031263 -4.379504e-06 0)
(0.13574064 -1.471858e-06 0)
(0.067901605 -3.4658457e-07 0)
(0.019889403 -4.9874632e-08 0)
(0.019886751 4.4698957e-08 0)
(0.067892684 3.109419e-07 0)
(0.13572313 1.3208112e-06 0)
(0.23028375 3.9321862e-06 0)
(0.35957935 9.7158257e-06 0)
(0.53152592 2.1315467e-05 0)
(0.75129647 4.2360028e-05 0)
(1.0167465 7.561956e-05 0)
(1.3124581 0.00011654199 0)
(1.6052027 0.00014169848 0)
(1.8460982 0.00011827093 0)
(1.9835117 4.6031688e-05 0)
(1.9835117 -4.6031236e-05 0)
(1.8460982 -0.00011827054 0)
(1.6052027 -0.00014169819 0)
(1.3124581 -0.00011654178 0)
(1.0167465 -7.5619464e-05 0)
(0.75129647 -4.2360102e-05 0)
(0.53152592 -2.1315675e-05 0)
(0.35957935 -9.7160376e-06 0)
(0.23028375 -3.932326e-06 0)
(0.13572313 -1.3209174e-06 0)
(0.067892684 -3.1090928e-07 0)
(0.019886751 -4.4725942e-08 0)
(0.019884362 4.0386563e-08 0)
(0.067884642 2.810374e-07 0)
(0.13570735 1.1941492e-06 0)
(0.23025769 3.5564663e-06 0)
(0.35954034 8.7928399e-06 0)
(0.53147215 1.930991e-05 0)
(0.75122933 3.8439938e-05 0)
(1.0166753 6.8838619e-05 0)
(1.3124053 0.00010678319 0)
(1.6051982 0.00013155203 0)
(1.8461503 0.00011132792 0)
(1.9835985 4.3631276e-05 0)
(1.9835985 -4.3630795e-05 0)
(1.8461503 -0.00011132751 0)
(1.6051982 -0.00013155168 0)
(1.3124053 -0.0001067829 0)
(1.0166753 -6.8838477e-05 0)
(0.75122933 -3.8439994e-05 0)
(0.53147215 -1.931012e-05 0)
(0.35954034 -8.793062e-06 0)
(0.23025769 -3.5566151e-06 0)
(0.13570735 -1.1942635e-06 0)
(0.067884642 -2.810028e-07 0)
(0.019884362 -4.0415521e-08 0)
(0.019882195 3.6711583e-08 0)
(0.067877347 2.5553647e-07 0)
(0.13569302 1.0860718e-06 0)
(0.23023402 3.2356076e-06 0)
(0.35950489 8.0035258e-06 0)
(0.53142319 1.7590805e-05 0)
(0.75116796 3.5066996e-05 0)
(1.0166096 6.2963811e-05 0)
(1.3123553 9.820285e-05 0)
(1.6051923 0.00012233334 0)
(1.8461982 0.00010491306 0)
(1.9836803 4.139059e-05 0)
(1.9836803 -4.1390071e-05 0)
(1.8461982 -0.00010491259 0)
(1.6051923 -0.00012233291 0)
(1.3123553 -9.8202496e-05 0)
(1.0166096 -6.2963627e-05 0)
(0.75116796 -3.5067041e-05 0)
(0.5314232 -1.7591029e-05 0)
(0.3595049 -8.0037682e-06 0)
(0.23023403 -3.235772e-06 0)
(0.13569302 -1.0861988e-06 0)
(0.067877347 -2.5549904e-07 0)
(0.019882195 -3.6743541e-08 0)
(0.019880219 3.3538885e-08 0)
(0.067870694 2.3350853e-07 0)
(0.13567996 9.926657e-07 0)
(0.23021243 2.9581294e-06 0)
(0.35947252 7.3202337e-06 0)
(0.53137841 1.6100003e-05 0)
(0.75111163 3.2132761e-05 0)
(1.0165488 5.782304e-05 0)
(1.3123082 9.0602089e-05 0)
(1.6051852 0.00011395311 0)
(1.8462423 9.8955857e-05 0)
(1.9837576 3.9289078e-05 0)
(1.9837576 -3.9288531e-05 0)
(1.8462423 -9.8955342e-05 0)
(1.6051852 -0.00011395262 0)
(1.3123082 -9.0601674e-05 0)
(1.0165488 -5.7822824e-05 0)
(0.75111163 -3.2132809e-05 0)
(0.53137841 -1.6100256e-05 0)
(0.35947252 -7.3205106e-06 0)
(0.23021243 -2.9583184e-06 0)
(0.13567996 -9.92812e-07 0)
(0.067870694 -2.3346702e-07 0)
(0.019880219 -3.3575269e-08 0)
(0.019878409 3.0774373e-08 0)
(0.067864599 2.1430437e-07 0)
(0.13566798 9.1119435e-07 0)
(0.23019263 2.7159635e-06 0)
(0.35944281 6.7233634e-06 0)
(0.53133727 1.4795872e-05 0)
(0.75105976 2.9559429e-05 0)
(1.0164925 5.3292165e-05 0)
(1.3122638 8.3831168e-05 0)
(1.6051772 0.00010632372 0)
(1.846283 9.3403098e-05 0)
(1.9838307 3.7312534e-05 0)
(1.9838307 -3.7311977e-05 0)
(1.846283 -9.340255e-05 0)
(1.6051772 -0.00010632318 0)
(1.3122638 -8.3830703e-05 0)
(1.0164925 -5.3291927e-05 0)
(0.75105976 -2.9559497e-05 0)
(0.53133728 -1.4796177e-05 0)
(0.35944281 -6.723693e-06 0)
(0.23019263 -2.7161886e-06 0)
(0.13566798 -9.1136789e-07 0)
(0.067864599 -2.1425708e-07 0)
(0.019878409 -3.0817018e-08 0)
(0.019876744 2.8344255e-08 0)
(0.067858992 1.9741587e-07 0)
(0.13565696 8.3951886e-07 0)
(0.23017441 2.5028095e-06 0)
(0.35941546 6.1975919e-06 0)
(0.53129935 1.364566e-05 0)
(0.75101182 2.728505e-05 0)
(1.0164401 4.9271342e-05 0)
(1.3122219 7.7767276e-05 0)
(1.6051688 9.9355769e-05 0)
(1.8463207 8.8213388e-05 0)
(1.9838998 3.544958e-05 0)
(1.9838998 -3.5449039e-05 0)
(1.8463207 -8.8212826e-05 0)
(1.6051688 -9.9355183e-05 0)
(1.3122219 -7.7766769e-05 0)
(1.0164401 -4.9271094e-05 0)
(0.75101183 -2.7285156e-05 0)
(0.53129936 -1.364604e-05 0)
(0.35941546 -6.1979959e-06 0)
(0.23017441 -2.5030845e-06 0)
(0.13565696 -8.3972919e-07 0)
(0.067858992 -1.9736062e-07 0)
(0.019876744 -2.8395388e-08 0)
(0.019875208 2.6190498e-08 0)
(0.067853817 1.8244281e-07 0)
(0.13564679 7.7595266e-07 0)
(0.23015758 2.3136959e-06 0)
(0.35939019 5.7308192e-06 0)
(0.53126429 1.2623433e-05 0)
(0.75096741 2.5260093e-05 0)
(1.0163914 4.567916e-05 0)
(1.3121824 7.2307621e-05 0)
(1.6051599 9.2973e-05 0)
(1.8463555 8.3350116e-05 0)
(1.9839652 3.3689562e-05 0)
(1.9839652 -3.3689062e-05 0)
(1.8463555 -8.3349558e-05 0)
(1.6051599 -9.2972382e-05 0)
(1.3121824 -7.2307075e-05 0)
(1.0163914 -4.567891e-05 0)
(0.75096741 -2.5260258e-05 0)
(0.53126429 -1.2623917e-05 0)
(0.35939019 -5.7313224e-06 0)
(0.23015758 -2.3140364e-06 0)
(0.13564679 -7.7621069e-07 0)
(0.067853817 -1.8237701e-07 0)
(0.019875208 -2.6252703e-08 0)
(0.019873786 2.4267897e-08 0)
(0.067849026 1.6907286e-07 0)
(0.13563738 7.1917706e-07 0)
(0.230142 2.1447275e-06 0)
(0.35936678 5.3135423e-06 0)
(0.53123177 1.1708769e-05 0)
(0.75092615 2.3445333e-05 0)
(1.016346 4.2450165e-05 0)
(1.3121451 6.7367171e-05 0)
(1.6051509 8.7107139e-05 0)
(1.8463878 7.8784947e-05 0)
(1.9840271 3.2023905e-05 0)
(1.9840271 -3.2023463e-05 0)
(1.8463878 -7.8784402e-05 0)
(1.6051509 -8.7106489e-05 0)
(1.3121451 -6.7366585e-05 0)
(1.016346 -4.2449921e-05 0)
(0.75092616 -2.3445578e-05 0)
(0.53123178 -1.1709387e-05 0)
(0.35936678 -5.3141722e-06 0)
(0.230142 -2.1451509e-06 0)
(0.13563738 -7.1949492e-07 0)
(0.067849026 -1.6899351e-07 0)
(0.019873786 -2.4344077e-08 0)
(0.019872467 2.2540872e-08 0)
(0.06784458 1.5705987e-07 0)
(0.13562864 6.6815168e-07 0)
(0.23012753 1.9928271e-06 0)
(0.35934504 4.9382384e-06 0)
(0.53120156 1.0885458e-05 0)
(0.75088775 2.1809548e-05 0)
(1.0163035 3.953184e-05 0)
(1.31211 6.2876059e-05 0)
(1.6051418 8.1701682e-05 0)
(1.8464178 7.4491649e-05 0)
(1.9840857 3.0444467e-05 0)
(1.9840857 -3.0444093e-05 0)
(1.8464178 -7.4491121e-05 0)
(1.6051418 -8.1700993e-05 0)
(1.31211 -6.2875425e-05 0)
(1.0163035 -3.9531606e-05 0)
(0.75088775 -2.1809894e-05 0)
(0.53120156 -1.0886244e-05 0)
(0.35934504 -4.939025e-06 0)
(0.23012753 -1.9933523e-06 0)
(0.13562864 -6.6854253e-07 0)
(0.06784458 -1.5696361e-07 0)
(0.019872467 -2.2634194e-08 0)
(0.019871239 2.0980947e-08 0)
(0.067840445 1.4620671e-07 0)
(0.13562051 6.2204289e-07 0)
(0.23011407 1.8555266e-06 0)
(0.3593248 4.5988635e-06 0)
(0.53117341 1.0140439e-05 0)
(0.75085194 2.0327482e-05 0)
(1.0162638 3.6881488e-05 0)
(1.3120768 5.8776572e-05 0)
(1.6051327 7.6706357e-05 0)
(1.8464457 7.045111e-05 0)
(1.9841412 2.8945211e-05 0)
(1.9841412 -2.8944905e-05 0)
(1.8464458 -7.0450591e-05 0)
(1.6051327 -7.6705615e-05 0)
(1.3120768 -5.8775879e-05 0)
(1.0162638 -3.6881268e-05 0)
(0.75085194 -2.0327952e-05 0)
(0.53117341 -1.0141429e-05 0)
(0.35932481 -4.5998385e-06 0)
(0.23011407 -1.8561735e-06 0)
(0.13562051 -6.2252072e-07 0)
(0.067840445 -1.4608988e-07 0)
(0.019871239 -2.1094802e-08 0)
(0.019870096 1.9565103e-08 0)
(0.067836591 1.3635388e-07 0)
(0.13561293 5.8017586e-07 0)
(0.23010153 1.7308273e-06 0)
(0.35930593 4.290519e-06 0)
(0.53114715 9.4631136e-06 0)
(0.75081848 1.8978577e-05 0)
(1.0162266 3.4464118e-05 0)
(1.3120455 5.5020577e-05 0)
(1.6051237 7.2080376e-05 0)
(1.8464718 6.6642559e-05 0)
(1.9841938 2.7519705e-05 0)
(1.9841938 -2.7519461e-05 0)
(1.8464718 -6.6642036e-05 0)
(1.6051237 -7.2079562e-05 0)
(1.3120455 -5.5019812e-05 0)
(1.0162266 -3.4463913e-05 0)
(0.75081848 -1.8979193e-05 0)
(0.53114715 -9.4643436e-06 0)
(0.35930594 -4.2917156e-06 0)
(0.23010153 -1.7316167e-06 0)
(0.13561293 -5.8075531e-07 0)
(0.067836591 -1.3621256e-07 0)
(0.019870096 -1.9703058e-08 0)
(0.019869028 1.8274506e-08 0)
(0.067832993 1.2737082e-07 0)
(0.13560585 5.4199793e-07 0)
(0.23008981 1.6170909e-06 0)
(0.35928831 4.0091849e-06 0)
(0.53112261 8.844765e-06 0)
(0.75078718 1.7745884e-05 0)
(1.0161917 3.2250788e-05 0)
(1.3120159 5.1567876e-05 0)
(1.6051149 6.7785899e-05 0)
(1.846496 6.3052776e-05 0)
(1.9842436 2.6163923e-05 0)
(1.9842436 -2.6163726e-05 0)
(1.846496 -6.305223e-05 0)
(1.6051149 -6.778499e-05 0)
(1.3120159 -5.156702e-05 0)
(1.0161917 -3.2250598e-05 0)
(0.75078719 -1.7746669e-05 0)
(0.53112262 -8.846273e-06 0)
(0.35928831 -4.0106377e-06 0)
(0.23008981 -1.6180444e-06 0)
(0.13560585 -5.4269415e-07 0)
(0.067832993 -1.272009e-07 0)
(0.019869028 -1.8440255e-08 0)
(0.01986803 1.7093637e-08 0)
(0.06782963 1.1914984e-07 0)
(0.13559924 5.0705325e-07 0)
(0.23007885 1.5129658e-06 0)
(0.35927182 3.7515447e-06 0)
(0.53109965 8.2782002e-06 0)
(0.75075787 1.661539e-05 0)
(1.0161589 3.0217409e-05 0)
(1.311988 4.8384438e-05 0)
(1.6051063 6.3793313e-05 0)
(1.8465186 5.9663565e-05 0)
(1.9842909 2.4872505e-05 0)
(1.9842909 -2.4872338e-05 0)
(1.8465186 -5.9662974e-05 0)
(1.6051063 -6.3792283e-05 0)
(1.311988 -4.8383472e-05 0)
(1.0161589 -3.0217235e-05 0)
(0.75075787 -1.6616368e-05 0)
(0.53109965 -8.2800254e-06 0)
(0.35927183 -3.753289e-06 0)
(0.23007885 -1.5141054e-06 0)
(0.13559924 -5.0788164e-07 0)
(0.067829629 -1.1894709e-07 0)
(0.01986803 -1.7290948e-08 0)
(0.019867096 1.6009534e-08 0)
(0.067826481 1.11601e-07 0)
(0.13559305 4.7496096e-07 0)
(0.23006859 1.417322e-06 0)
(0.35925638 3.5148203e-06 0)
(0.53107813 7.7573793e-06 0)
(0.75073037 1.5575305e-05 0)
(1.0161281 2.8343725e-05 0)
(1.3119616 4.5441608e-05 0)
(1.6050979 6.0073104e-05 0)
(1.8465398 5.6466481e-05 0)
(1.9843356 2.3643133e-05 0)
(1.9843356 -2.3642979e-05 0)
(1.8465398 -5.6465822e-05 0)
(1.6050979 -6.0071928e-05 0)
(1.3119617 -4.5440513e-05 0)
(1.0161281 -2.8343568e-05 0)
(0.75073038 -1.5576501e-05 0)
(0.53107814 -7.759562e-06 0)
(0.35925638 -3.516892e-06 0)
(0.23006859 -1.4186699e-06 0)
(0.13559305 -4.7593698e-07 0)
(0.06782648 -1.1136115e-07 0)
(0.019867096 -1.6242184e-08 0)
(0.019866221 1.5011301e-08 0)
(0.06782353 1.046486e-07 0)
(0.13558724 4.4540045e-07 0)
(0.23005898 1.3292087e-06 0)
(0.35924191 3.2966775e-06 0)
(0.53105795 7.2772344e-06 0)
(0.75070456 1.4615722e-05 0)
(1.0160992 2.6612549e-05 0)
(1.3119367 4.2714546e-05 0)
(1.6050897 5.6603601e-05 0)
(1.8465596 5.3443947e-05 0)
(1.984378 2.247083e-05 0)
(1.984378 -2.247067e-05 0)
(1.8465596 -5.3443197e-05 0)
(1.6050897 -5.6602253e-05 0)
(1.3119367 -4.2713306e-05 0)
(1.0160992 -2.6612411e-05 0)
(0.75070457 -1.4617164e-05 0)
(0.53105795 -7.2798152e-06 0)
(0.35924191 -3.2991126e-06 0)
(0.23005898 -1.3307869e-06 0)
(0.13558724 -4.4653928e-07 0)
(0.067823529 -1.0436743e-07 0)
(0.01986622 -1.5283003e-08 0)
(0.019865399 1.4089691e-08 0)
(0.067820761 9.8228489e-08 0)
(0.13558179 4.1810001e-07 0)
(0.23004995 1.2478187e-06 0)
(0.35922832 3.095128e-06 0)
(0.531039 6.8334293e-06 0)
(0.75068031 1.372815e-05 0)
(1.0160719 2.5009248e-05 0)
(1.3119132 4.018236e-05 0)
(1.6050818 5.3360873e-05 0)
(1.8465781 5.0592148e-05 0)
(1.9844182 2.135484e-05 0)
(1.9844182 -2.1354659e-05 0)
(1.8465781 -5.0591286e-05 0)
(1.6050818 -5.335933e-05 0)
(1.3119132 -4.0180957e-05 0)
(1.0160719 -2.5009133e-05 0)
(0.75068032 -1.3729863e-05 0)
(0.531039 -6.8364486e-06 0)
(0.35922832 -3.0979615e-06 0)
(0.23004995 -1.2496484e-06 0)
(0.13558179 -4.1941626e-07 0)
(0.06782076 -9.7901919e-08 0)
(0.019865399 -1.4404008e-08 0)
(0.019864628 1.323677e-08 0)
(0.06781816 9.2285439e-08 0)
(0.13557668 3.9282564e-07 0)
(0.23004147 1.1724583e-06 0)
(0.35921555 2.9084707e-06 0)
(0.53102119 6.4222724e-06 0)
(0.75065751 1.2905352e-05 0)
(1.0160463 2.352112e-05 0)
(1.3118909 3.7826232e-05 0)
(1.6050742 5.0329096e-05 0)
(1.8465955 4.7892344e-05 0)
(1.9844563 2.0289854e-05 0)
(1.9844563 -2.0289634e-05 0)
(1.8465955 -4.789135e-05 0)
(1.6050742 -5.0327336e-05 0)
(1.3118909 -3.7824654e-05 0)
(1.0160463 -2.3521034e-05 0)
(0.75065752 -1.2907363e-05 0)
(0.53102119 -6.4257694e-06 0)
(0.35921555 -2.9117363e-06 0)
(0.23004147 -1.1745598e-06 0)
(0.13557668 -3.9433288e-07 0)
(0.067818159 -9.1909625e-08 0)
(0.019864627 -1.3597023e-08 0)
(0.019863903 1.2445777e-08 0)
(0.067815715 8.6772628e-08 0)
(0.13557187 3.6937905e-07 0)
(0.2300335 1.1025373e-06 0)
(0.35920355 2.7352452e-06 0)
(0.53100444 6.0405633e-06 0)
(0.75063605 1.214104e-05 0)
(1.0160221 2.2137362e-05 0)
(1.3118699 3.5630781e-05 0)
(1.6050669 4.7488231e-05 0)
(1.8466118 4.5346054e-05 0)
(1.9844924 1.9276828e-05 0)
(1.9844924 -1.9276551e-05 0)
(1.8466118 -4.5344907e-05 0)
(1.6050669 -4.7486233e-05 0)
(1.3118699 -3.5629017e-05 0)
(1.0160221 -2.2137312e-05 0)
(0.75063606 -1.2143377e-05 0)
(0.53100445 -6.0445744e-06 0)
(0.35920355 -2.7389735e-06 0)
(0.2300335 -1.1049286e-06 0)
(0.13557187 -3.7108943e-07 0)
(0.067815714 -8.6344067e-08 0)
(0.019863902 -1.2854937e-08 0)
(0.019863221 1.1710714e-08 0)
(0.067813416 8.1648132e-08 0)
(0.13556734 3.4758236e-07 0)
(0.23002601 1.0375295e-06 0)
(0.35919225 2.5741676e-06 0)
(0.53098868 5.6855267e-06 0)
(0.75061584 1.142976e-05 0)
(1.0159993 2.0848226e-05 0)
(1.31185 3.3581053e-05 0)
(1.6050599 4.4826753e-05 0)
(1.8466271 4.2931369e-05 0)
(1.9845266 1.8309334e-05 0)
(1.9845266 -1.8308981e-05 0)
(1.8466271 -4.2930052e-05 0)
(1.6050599 -4.4824501e-05 0)
(1.31185 -3.3579096e-05 0)
(1.0159993 -2.084822e-05 0)
(0.75061585 -1.1432446e-05 0)
(0.53098868 -5.6900845e-06 0)
(0.35919225 -2.5783856e-06 0)
(0.23002601 -1.0402263e-06 0)
(0.13556734 -3.4950607e-07 0)
(0.067813414 -8.1163778e-08 0)
(0.01986322 -1.217129e-08 0)
(0.019862579 1.1026611e-08 0)
(0.067811251 7.6877783e-08 0)
(0.13556309 3.2729102e-07 0)
(0.23001895 9.770021e-07 0)
(0.35918162 2.424155e-06 0)
(0.53097383 5.3547632e-06 0)
(0.7505968 1.0766784e-05 0)
(1.0159778 1.9645702e-05 0)
(1.3118312 3.1665974e-05 0)
(1.6050532 4.2327683e-05 0)
(1.8466415 4.0656713e-05 0)
(1.984559 1.7390554e-05 0)
(1.984559 -1.7390107e-05 0)
(1.8466415 -4.065521e-05 0)
(1.6050532 -4.2325164e-05 0)
(1.3118312 -3.1663818e-05 0)
(1.0159778 -1.9645748e-05 0)
(0.75059681 -1.0769841e-05 0)
(0.53097384 -5.3598948e-06 0)
(0.35918162 -2.4288843e-06 0)
(0.23001895 -9.8001646e-07 0)
(0.13556308 -3.2943582e-07 0)
(0.067811249 -7.6335152e-08 0)
(0.019862578 -1.1540531e-08 0)
(0.019861974 1.0388689e-08 0)
(0.067809212 7.2427755e-08 0)
(0.13555907 3.0836115e-07 0)
(0.2300123 9.2053278e-07 0)
(0.3591716 2.2841917e-06 0)
(0.53095984 5.0461068e-06 0)
(0.75057885 1.0147846e-05 0)
(1.0159575 1.8521919e-05 0)
(1.3118134 2.9872735e-05 0)
(1.6050467 3.9982255e-05 0)
(1.8466551 3.8494372e-05 0)
(1.9845898 1.6511927e-05 0)
(1.9845898 -1.6511366e-05 0)
(1.8466551 -3.8492671e-05 0)
(1.6050467 -3.9979459e-05 0)
(1.3118134 -2.9870379e-05 0)
(1.0159575 -1.8522026e-05 0)
(0.75057886 -1.0151291e-05 0)
(0.53095985 -5.0518326e-06 0)
(0.3591716 -2.2894477e-06 0)
(0.2300123 -9.238728e-07 0)
(0.13555907 -3.1073186e-07 0)
(0.06780921 -7.182509e-08 0)
(0.019861973 -1.0957176e-08 0)
(0.019861404 9.793484e-09 0)
(0.067807291 6.8274873e-08 0)
(0.13555529 2.9069514e-07 0)
(0.23000603 8.6782306e-07 0)
(0.35916215 2.1535041e-06 0)
(0.53094665 4.7577874e-06 0)
(0.75056193 9.5694373e-06 0)
(1.0159384 1.7471191e-05 0)
(1.3117965 2.8194287e-05 0)
(1.6050405 3.7776786e-05 0)
(1.8466677 3.6462382e-05 0)
(1.9846188 1.5679875e-05 0)
(1.9846188 -1.5679183e-05 0)
(1.8466677 -3.6460476e-05 0)
(1.6050405 -3.7773711e-05 0)
(1.3117965 -2.8191735e-05 0)
(1.0159384 -1.7471369e-05 0)
(0.75056194 -9.5732833e-06 0)
(0.53094666 -4.7641194e-06 0)
(0.35916216 -2.1592943e-06 0)
(0.23000603 -8.7149183e-07 0)
(0.13555529 -2.9329309e-07 0)
(0.067807289 -6.7611196e-08 0)
(0.019861403 -1.0416943e-08 0)
(0.019860867 9.2367665e-09 0)
(0.067805478 6.438829e-08 0)
(0.13555173 2.7416104e-07 0)
(0.23000012 8.1849344e-07 0)
(0.35915325 2.0312137e-06 0)
(0.53093421 4.4880014e-06 0)
(0.75054595 9.0280146e-06 0)
(1.0159203 1.6486578e-05 0)
(1.3117806 2.661816e-05 0)
(1.6050346 3.5703039e-05 0)
(1.8466798 3.4523483e-05 0)
(1.9846465 1.4882242e-05 0)
(1.9846465 -1.4881407e-05 0)
(1.8466798 -3.4521367e-05 0)
(1.6050346 -3.5699688e-05 0)
(1.3117806 -2.6615421e-05 0)
(1.0159203 -1.6486836e-05 0)
(0.75054596 -9.0322699e-06 0)
(0.53093422 -4.494943e-06 0)
(0.35915325 -2.0375377e-06 0)
(0.23000012 -8.2248888e-07 0)
(0.13555172 -2.7698374e-07 0)
(0.067805476 -6.3663683e-08 0)
(0.019860866 -9.9146541e-09 0)
(0.01986036 8.716833e-09 0)
(0.06780377 6.0758299e-08 0)
(0.13554836 2.5871916e-07 0)
(0.22999454 7.7240528e-07 0)
(0.35914484 1.9168878e-06 0)
(0.53092247 4.2356152e-06 0)
(0.75053088 8.5212738e-06 0)
(1.0159032 1.5564893e-05 0)
(1.3117655 2.514226e-05 0)
(1.605029 3.375266e-05 0)
(1.846691 3.2709698e-05 0)
(1.9846726 1.4130437e-05 0)
(1.9846726 -1.4129457e-05 0)
(1.846691 -3.2707378e-05 0)
(1.605029 -3.3749044e-05 0)
(1.3117655 -2.5139352e-05 0)
(1.0159032 -1.5565245e-05 0)
(0.75053089 -8.5259416e-06 0)
(0.53092248 -4.2431605e-06 0)
(0.35914485 -1.9237362e-06 0)
(0.22999454 -7.7671967e-07 0)
(0.13554836 -2.6176004e-07 0)
(0.067803767 -5.9974082e-08 0)
(0.019860359 -9.4475654e-09 0)
(0.019859881 8.2289784e-09 0)
(0.067802156 5.7348809e-08 0)
(0.13554519 2.4421396e-07 0)
(0.22998928 7.2912778e-07 0)
(0.35913691 1.8096028e-06 0)
(0.53091138 3.9988898e-06 0)
(0.75051663 8.0458629e-06 0)
(1.0158871 1.4698932e-05 0)
(1.3117512 2.3751847e-05 0)
(1.6050236 3.1913923e-05 0)
(1.8467017 3.096876e-05 0)
(1.9846975 1.3406503e-05 0)
(1.9846975 -1.3405384e-05 0)
(1.8467017 -3.096625e-05 0)
(1.6050236 -3.1910069e-05 0)
(1.3117512 -2.3748795e-05 0)
(1.0158871 -1.4699392e-05 0)
(0.75051664 -8.0509405e-06 0)
(0.53091139 -4.0070209e-06 0)
(0.35913691 -1.8169549e-06 0)
(0.22998928 -7.3374593e-07 0)
(0.13554518 -2.4746148e-07 0)
(0.067802153 -5.650711e-08 0)
(0.01985988 -9.0099086e-09 0)
(0.01985943 7.7747576e-09 0)
(0.067800634 5.4175711e-08 0)
(0.13554219 2.3071563e-07 0)
(0.22998431 6.888168e-07 0)
(0.35912942 1.7095154e-06 0)
(0.53090093 3.7776964e-06 0)
(0.7505032 7.601281e-06 0)
(1.0158718 1.3889388e-05 0)
(1.3117377 2.2452975e-05 0)
(1.6050185 3.0189272e-05 0)
(1.8467116 2.9353669e-05 0)
(1.9847208 1.2729766e-05 0)
(1.9847208 -1.2728525e-05 0)
(1.8467116 -2.9351002e-05 0)
(1.6050185 -3.0185219e-05 0)
(1.3117377 -2.2449818e-05 0)
(1.0158719 -1.3889977e-05 0)
(0.75050321 -7.6067635e-06 0)
(0.53090094 -3.7863875e-06 0)
(0.35912943 -1.7173422e-06 0)
(0.22998431 -6.9371807e-07 0)
(0.13554219 -2.3415352e-07 0)
(0.06780063 -5.3280415e-08 0)
(0.019859429 -8.6019671e-09 0)
(0.019859002 7.3463289e-09 0)
(0.067799192 5.1176521e-08 0)
(0.13553936 2.1795466e-07 0)
(0.22997961 6.507551e-07 0)
(0.35912233 1.6152175e-06 0)
(0.53089102 3.5696965e-06 0)
(0.75049046 7.1833031e-06 0)
(1.0158574 1.3126523e-05 0)
(1.3117249 2.1223861e-05 0)
(1.6050136 2.8555972e-05 0)
(1.8467212 2.7789346e-05 0)
(1.9847433 1.2073161e-05 0)
(1.9847433 -1.2071829e-05 0)
(1.8467212 -2.7786561e-05 0)
(1.6050136 -2.8551777e-05 0)
(1.3117249 -2.1220647e-05 0)
(1.0158574 -1.3127263e-05 0)
(0.75049047 -7.1891784e-06 0)
(0.53089103 -3.5789092e-06 0)
(0.35912233 -1.6234785e-06 0)
(0.22997961 -6.55912e-07 0)
(0.13553935 -2.2156161e-07 0)
(0.067799189 -5.0233478e-08 0)
(0.019859001 -8.2144994e-09 0)
(0.0198586 6.9540089e-09 0)
(0.067797835 4.8434987e-08 0)
(0.13553669 2.0628963e-07 0)
(0.22997518 6.1586184e-07 0)
(0.35911566 1.5283587e-06 0)
(0.53088169 3.3771991e-06 0)
(0.75047848 6.7955232e-06 0)
(1.0158438 1.2419277e-05 0)
(1.3117128 2.0086879e-05 0)
(1.6050089 2.7039512e-05 0)
(1.84673 2.6361201e-05 0)
(1.9847642 1.1468899e-05 0)
(1.9847641 -1.1467528e-05 0)
(1.84673 -2.6358355e-05 0)
(1.6050089 -2.7035242e-05 0)
(1.3117128 -2.0083672e-05 0)
(1.0158438 -1.2420197e-05 0)
(0.75047849 -6.8017741e-06 0)
(0.5308817 -3.38688e-06 0)