/*--------------------------------*- C++ -*----------------------------------*\
  =========                 |
  \\      /  F ield         | OpenFOAM: The Open Source CFD Toolbox
   \\    /   O peration     | Website:  https://openfoam.org
    \\  /    A nd           | Version:  10
     \\/     M anipulation  |
\*---------------------------------------------------------------------------*/
FoamFile
{
    format      ascii;
    class       volScalarField;
    location    "10.5";
    object      T;
}
// * * * * * * * * * * * * * * * * * * * * * * * * * * * * * * * * * * * * * //

dimensions      [0 0 -1 0 0 0 0];

internalField   nonuniform List<scalar> 
100
(
5.14033
15.3732
25.4697
35.3401
44.8968
54.055
62.7334
70.855
78.3477
85.145
91.1865
96.4187
100.795
104.277
106.833
108.441
109.086
108.763
107.475
105.233
102.056
97.9741
93.0224
87.245
80.6931
73.4251
65.5053
57.0041
47.997
38.5638
28.7883
18.7573
8.55978
-1.71369
-11.972
-22.1239
-32.0796
-41.7504
-51.0507
-59.8979
-68.2134
-75.9235
-82.9596
-89.2594
-94.7669
-99.4332
-103.217
-106.085
-108.011
-108.978
-108.978
-108.011
-106.085
-103.217
-99.4332
-94.7668
-89.2593
-82.9595
-75.9234
-68.2133
-59.8978
-51.0506
-41.7503
-32.0795
-22.1238
-11.9718
-1.71357
8.5599
18.7574
28.7884
38.5639
47.9971
57.0042
65.5054
73.4252
80.6932
87.2451
93.0225
97.9742
102.056
105.233
107.475
108.763
109.086
108.441
106.833
104.277
100.795
96.4187
91.1865
85.145
78.3477
70.8551
62.7335
54.055
44.8968
35.3401
25.4697
15.3733
5.14033
)
;

boundaryField
{
    xmin
    {
        type            fixedValue;
        value           uniform 0;
    }
    xmax
    {
        type            fixedValue;
        value           uniform 0;
    }
    frontAndBack
    {
        type            empty;
    }
}


// ************************************************************************* //
