/*--------------------------------*- C++ -*----------------------------------*\
| =========                 |                                                 |
| \\      /  F ield         | OpenFOAM: The Open Source CFD Toolbox           |
|  \\    /   O peration     | Version:  2406                                  |
|   \\  /    A nd           | Website:  www.openfoam.com                      |
|    \\/     M anipulation  |                                                 |
\*---------------------------------------------------------------------------*/
FoamFile
{
    version     2.0;
    format      ascii;
    arch        "LSB;label=32;scalar=64";
    class       volScalarField;
    location    "7.5";
    object      p;
}
// * * * * * * * * * * * * * * * * * * * * * * * * * * * * * * * * * * * * * //

dimensions      [0 2 -2 0 0 0 0];

internalField   nonuniform List<scalar> 
34560
(
38.721234
38.715252
38.70794
38.699396
38.689202
38.679393
38.673898
38.676477
38.68531
38.770372
38.763366
38.75409
38.742327
38.728099
38.714627
38.706719
38.708205
38.717166
38.824947
38.817228
38.806599
38.792117
38.773597
38.755269
38.743252
38.741745
38.748587
38.879162
38.870694
38.858791
38.842001
38.819844
38.79686
38.780085
38.77399
38.776712
38.933669
38.924621
38.911476
38.892082
38.865617
38.837374
38.815122
38.803744
38.8018
38.989407
38.97979
38.965409
38.943507
38.911862
38.877149
38.848437
38.831246
38.824493
39.047124
39.036643
39.020597
38.995726
38.958504
38.916348
38.880155
38.856443
38.844481
39.10755
39.095706
39.077382
39.048834
39.005203
38.954201
38.9095
38.878928
38.862066
39.171418
39.157447
39.135693
39.102114
39.051834
38.990635
38.936581
38.899198
38.8782
39.236342
39.220242
39.194304
39.154356
39.097063
39.025312
38.961582
38.917856
38.893618
39.294905
39.275436
39.244855
39.199243
39.1355
39.055597
38.982882
38.934077
38.907003
39.331311
39.309479
39.275755
39.226621
39.158843
39.074703
38.996031
38.944239
38.915286
39.331311
39.30948
39.275755
39.226622
39.158844
39.074704
38.996032
38.944239
38.915287
39.294906
39.275437
39.244857
39.199245
39.135502
39.055598
38.982883
38.934078
38.907004
39.236345
39.220244
39.194306
39.154359
39.097066
39.025315
38.961584
38.917859
38.89362
39.171421
39.157449
39.135695
39.102116
39.051837
38.990638
38.936583
38.899201
38.878202
39.107551
39.095707
39.077384
39.048836
39.005206
38.954204
38.909503
38.878931
38.862069
39.047126
39.036645
39.020601
38.99573
38.958508
38.916352
38.880159
38.856446
38.844484
38.989413
38.979795
38.965414
38.943513
38.911867
38.877154
38.848441
38.83125
38.824498
38.933675
38.924627
38.911482
38.892088
38.865622
38.837378
38.815127
38.803749
38.801806
38.879169
38.870701
38.858799
38.842008
38.81985
38.796865
38.78009
38.773995
38.776719
38.824953
38.817235
38.806606
38.792125
38.773604
38.755275
38.743259
38.741752
38.748593
38.770378
38.763372
38.754097
38.742336
38.728108
38.714636
38.706727
38.708212
38.717174
38.721242
38.715259
38.707948
38.699406
38.689213
38.679405
38.67391
38.676486
38.685321
35.822809
35.823254
35.823548
35.823756
35.823583
35.823386
35.823909
35.82554
35.828779
35.816754
35.81742
35.817951
35.818505
35.818806
35.819432
35.821263
35.824424
35.82849
35.810556
35.811496
35.812202
35.812874
35.813327
35.814388
35.817039
35.821001
35.825133
35.805368
35.806655
35.807536
35.808193
35.808567
35.809701
35.812729
35.817036
35.821085
35.80172
35.803392
35.804433
35.804866
35.804951
35.805841
35.808871
35.8132
35.817055
35.799828
35.801985
35.80323
35.803099
35.802663
35.802947
35.805657
35.809818
35.813467
35.800896
35.803544
35.804916
35.804037
35.802511
35.801728
35.803789
35.807617
35.81108
35.805928
35.809051
35.81049
35.808509
35.805212
35.803096
35.804304
35.807737
35.811089
35.815308
35.818845
35.82033
35.81724
35.811114
35.807661
35.808188
35.811352
35.814639
35.827886
35.831749
35.833192
35.828755
35.819779
35.815091
35.815556
35.818839
35.822146
35.841219
35.845243
35.846697
35.841303
35.830198
35.823503
35.824747
35.828608
35.832008
35.850545
35.854523
35.855903
35.849919
35.837649
35.829182
35.831519
35.835975
35.839436
35.850545
35.854523
35.855903
35.84992
35.83765
35.829183
35.83152
35.835975
35.839436
35.841221
35.845245
35.846698
35.841304
35.830199
35.823504
35.824749
35.82861
35.832009
35.827889
35.831752
35.833194
35.828757
35.819781
35.815094
35.815558
35.818841
35.822148
35.815311
35.818847
35.820332
35.817243
35.811117
35.807664
35.808191
35.811355
35.814642
35.80593
35.809053
35.810493
35.808512
35.805216
35.8031
35.804308
35.807741
35.811093
35.800899
35.803548
35.80492
35.804042
35.802516
35.801733
35.803795
35.807622
35.811085
35.799833
35.801991
35.803236
35.803105
35.802669
35.802953
35.805662
35.809824
35.813472
35.801728
35.8034
35.804441
35.804873
35.804958
35.805848
35.808877
35.813207
35.817062
35.805377
35.806664
35.807545
35.808202
35.808575
35.809709
35.812736
35.817044
35.821093
35.810565
35.811506
35.812211
35.812884
35.813337
35.814397
35.817049
35.82101
35.825141
35.816765
35.81743
35.817962
35.818516
35.818818
35.819443
35.821273
35.824433
35.828499
35.822821
35.823266
35.82356
35.823769
35.823596
35.8234
35.823921
35.825551
35.828789
34.84862
34.848676
34.84873
34.848537
34.848212
34.847959
34.847945
34.848351
34.848902
34.853695
34.853753
34.853771
34.853402
34.852791
34.852158
34.85171
34.851664
34.851938
34.85837
34.858468
34.858531
34.858106
34.857334
34.85642
34.855561
34.855064
34.855046
34.862974
34.863117
34.863236
34.862785
34.861888
34.860718
34.859464
34.858496
34.858104
34.867502
34.867694
34.867869
34.86743
34.866428
34.864999
34.86334
34.861877
34.861051
34.871854
34.872125
34.872395
34.871999
34.870907
34.869238
34.867149
34.865173
34.863882
34.876081
34.876437
34.876815
34.876479
34.875302
34.873383
34.870846
34.868361
34.866604
34.880105
34.880544
34.881022
34.880789
34.879537
34.877357
34.874406
34.871424
34.869223
34.883908
34.884429
34.884999
34.884872
34.883513
34.881075
34.877736
34.874312
34.871715
34.887309
34.887923
34.888603
34.888592
34.88706
34.884346
34.880666
34.876876
34.873961
34.89
34.890701
34.891498
34.891605
34.889865
34.88687
34.882918
34.878855
34.875696
34.891567
34.892312
34.893182
34.89338
34.891474
34.888268
34.884139
34.879924
34.876636
34.891567
34.892313
34.893182
34.893381
34.891475
34.888269
34.884139
34.879925
34.876636
34.890002
34.890703
34.891499
34.891607
34.889867
34.886872
34.88292
34.878857
34.875698
34.887312
34.887926
34.888606
34.888595
34.887063
34.884349
34.880668
34.876879
34.873964
34.883911
34.884433
34.885003
34.884876
34.883517
34.881079
34.877739
34.874315
34.871719
34.880109
34.880548
34.881027
34.880794
34.879542
34.877362
34.874411
34.871429
34.869227
34.876086
34.876442
34.876821
34.876485
34.875308
34.873389
34.870851
34.868366
34.866609
34.871861
34.872132
34.872402
34.872006
34.870914
34.869245
34.867156
34.865179
34.863888
34.867511
34.867702
34.867877
34.867438
34.866437
34.865007
34.863347
34.861885
34.861058
34.862984
34.863127
34.863246
34.862795
34.861898
34.860727
34.859473
34.858504
34.858113
34.858382
34.85848
34.858543
34.858118
34.857346
34.856431
34.855572
34.855074
34.855055
34.853708
34.853766
34.853784
34.853416
34.852805
34.852171
34.851722
34.851676
34.851949
34.848635
34.84869
34.848745
34.848552
34.848226
34.847973
34.847959
34.848365
34.848914
32.941172
32.941051
32.940918
32.940888
32.940899
32.940879
32.940752
32.940496
32.940337
32.941577
32.941436
32.941288
32.941282
32.941332
32.941355
32.941273
32.941076
32.940915
32.942008
32.941854
32.941697
32.941716
32.941811
32.941878
32.941823
32.941618
32.94135
32.942552
32.942395
32.942234
32.942274
32.9424
32.942494
32.942439
32.942186
32.941793
32.943175
32.943022
32.942872
32.942919
32.94307
32.943183
32.943117
32.9428
32.942276
32.94378
32.943643
32.943515
32.943582
32.943765
32.943899
32.943816
32.943428
32.942776
32.944394
32.944272
32.944164
32.944253
32.944465
32.944616
32.94451
32.94405
32.943277
32.94499
32.944884
32.944798
32.944908
32.945149
32.945309
32.945181
32.944651
32.943766
32.945553
32.945464
32.945399
32.945526
32.945792
32.945956
32.945805
32.945211
32.944223
32.946042
32.945972
32.94593
32.946075
32.946352
32.94652
32.946349
32.945703
32.944623
32.94641
32.946357
32.946334
32.946495
32.946782
32.94695
32.946768
32.946095
32.944962
32.946629
32.946583
32.946568
32.946733
32.947022
32.94719
32.947006
32.946323
32.945171
32.94663
32.946583
32.946569
32.946733
32.947023
32.94719
32.947006
32.946324
32.945171
32.946412
32.946358
32.946335
32.946497
32.946783
32.946952
32.946769
32.946096
32.944963
32.946045
32.945975
32.945933
32.946078
32.946355
32.946523
32.946352
32.945706
32.944625
32.945557
32.945467
32.945403
32.94553
32.945796
32.945961
32.945809
32.945214
32.944227
32.944995
32.944889
32.944803
32.944913
32.945154
32.945314
32.945186
32.944656
32.94377
32.944401
32.944278
32.944171
32.944259
32.944472
32.944622
32.944517
32.944056
32.943282
32.943788
32.94365
32.943523
32.94359
32.943773
32.943907
32.943823
32.943435
32.942782
32.943184
32.943032
32.942882
32.942929
32.94308
32.943193
32.943126
32.942809
32.942284
32.942563
32.942406
32.942245
32.942286
32.942411
32.942505
32.942449
32.942196
32.941802
32.94202
32.941867
32.94171
32.941729
32.941824
32.941891
32.941836
32.941629
32.941361
32.941592
32.94145
32.941303
32.941296
32.941347
32.94137
32.941288
32.94109
32.940928
32.941188
32.941067
32.940935
32.940904
32.940916
32.940896
32.940769
32.940513
32.940353
31.446676
31.446695
31.4467
31.446657
31.44657
31.446478
31.446437
31.446492
31.446619
31.447265
31.447284
31.447282
31.447214
31.447092
31.446965
31.446902
31.44695
31.447079
31.447686
31.44771
31.44771
31.447635
31.447495
31.447346
31.447263
31.447303
31.447446
31.448034
31.448064
31.448068
31.447988
31.447836
31.447671
31.447578
31.447618
31.447788
31.448326
31.448362
31.448369
31.448289
31.448132
31.44796
31.447862
31.447905
31.448082
31.448566
31.448609
31.448624
31.448548
31.448391
31.448218
31.448117
31.448151
31.44832
31.44877
31.448821
31.448846
31.448775
31.448621
31.448446
31.448338
31.448359
31.448527
31.448938
31.449
31.449034
31.448972
31.448821
31.448643
31.448528
31.448544
31.448709
31.449074
31.449144
31.44919
31.449135
31.44899
31.448813
31.448693
31.448703
31.448863
31.449176
31.449255
31.449309
31.449264
31.449124
31.448948
31.448825
31.448831
31.448985
31.449247
31.449331
31.449392
31.449353
31.449217
31.449043
31.448919
31.448923
31.449076
31.449284
31.449371
31.449436
31.449399
31.449266
31.449093
31.448968
31.448973
31.449124
31.449285
31.449372
31.449437
31.4494
31.449267
31.449094
31.448969
31.448974
31.449125
31.449249
31.449333
31.449394
31.449355
31.449219
31.449045
31.448921
31.448925
31.449077
31.449179
31.449258
31.449313
31.449267
31.449127
31.448952
31.448829
31.448834
31.448988
31.449078
31.449149
31.449194
31.44914
31.448995
31.448818
31.448697
31.448708
31.448867
31.448944
31.449006
31.449041
31.448978
31.448827
31.44865
31.448534
31.44855
31.448714
31.448777
31.448829
31.448853
31.448783
31.448629
31.448454
31.448346
31.448367
31.448534
31.448575
31.448618
31.448633
31.448558
31.448401
31.448228
31.448126
31.44816
31.448328
31.448337
31.448373
31.448381
31.448301
31.448144
31.447972
31.447873
31.447916
31.448092
31.448047
31.448077
31.448081
31.448001
31.447849
31.447685
31.447591
31.44763
31.447799
31.447701
31.447726
31.447726
31.44765
31.44751
31.447361
31.447278
31.447317
31.447459
31.447282
31.447301
31.447299
31.447231
31.447109
31.446982
31.446918
31.446966
31.447094
31.446694
31.446713
31.446719
31.446675
31.446589
31.446497
31.446455
31.44651
31.446636
29.792899
29.792878
29.792857
29.79285
29.792852
29.792848
29.79282
29.792751
29.792673
29.793066
29.793043
29.793022
29.793017
29.793022
29.793018
29.792983
29.792904
29.792801
29.79322
29.793197
29.793178
29.793177
29.793185
29.79318
29.793132
29.793026
29.792875
29.793386
29.793364
29.793346
29.793347
29.793357
29.793347
29.793281
29.793142
29.792942
29.793553
29.793531
29.793515
29.793519
29.79353
29.793515
29.793433
29.793266
29.793048
29.793707
29.793688
29.793676
29.793684
29.793699
29.793683
29.793597
29.793427
29.793207
29.793857
29.79384
29.793831
29.793844
29.793865
29.793856
29.793776
29.793609
29.793374
29.793992
29.793977
29.793971
29.793991
29.794021
29.79402
29.793944
29.79377
29.793518
29.794106
29.794093
29.79409
29.794115
29.794151
29.794157
29.794083
29.793902
29.793636
29.794193
29.794182
29.794182
29.794211
29.794252
29.794263
29.794189
29.794004
29.793726
29.794252
29.794242
29.794244
29.794276
29.794321
29.794335
29.794262
29.794074
29.793788
29.794284
29.794274
29.794277
29.79431
29.794357
29.794372
29.7943
29.794109
29.79382
29.794284
29.794275
29.794278
29.794311
29.794357
29.794373
29.7943
29.79411
29.79382
29.794254
29.794244
29.794247
29.794278
29.794323
29.794337
29.794264
29.794076
29.79379
29.794196
29.794185
29.794186
29.794215
29.794256
29.794267
29.794193
29.794008
29.793729
29.794111
29.794098
29.794096
29.79412
29.794157
29.794163
29.794088
29.793907
29.79364
29.793998
29.793983
29.793978
29.793998
29.794028
29.794028
29.793951
29.793777
29.793524
29.793865
29.793848
29.793839
29.793853
29.793875
29.793865
29.793785
29.793617
29.793381
29.793718
29.793699
29.793687
29.793695
29.79371
29.793695
29.793607
29.793436
29.793216
29.793566
29.793544
29.793528
29.793532
29.793544
29.793529
29.793445
29.793278
29.793058
29.793402
29.793379
29.793361
29.793363
29.793373
29.793362
29.793296
29.793156
29.792955
29.793237
29.793214
29.793195
29.793195
29.793203
29.793198
29.793149
29.793042
29.792889
29.793086
29.793063
29.793042
29.793038
29.793042
29.793038
29.793002
29.792922
29.792819
29.792921
29.7929
29.792879
29.792872
29.792874
29.79287
29.792841
29.792772
29.792693
28.191451
28.191453
28.191451
28.191442
28.191425
28.191402
28.191384
28.191379
28.191396
28.191531
28.191533
28.191531
28.191519
28.191498
28.191474
28.191458
28.19146
28.191483
28.191572
28.191574
28.191573
28.191561
28.191541
28.191519
28.191508
28.191517
28.191546
28.191598
28.191602
28.191601
28.19159
28.191571
28.191552
28.191547
28.191564
28.191603
28.191611
28.191616
28.191617
28.191607
28.19159
28.191576
28.191578
28.1916
28.191639
28.191609
28.191616
28.191619
28.191611
28.191597
28.191585
28.191586
28.191605
28.191637
28.191598
28.191607
28.191611
28.191605
28.191591
28.191577
28.191572
28.191587
28.191617
28.191582
28.191592
28.191598
28.191593
28.191579
28.191563
28.191556
28.191568
28.191597
28.191565
28.191577
28.191584
28.19158
28.191567
28.191551
28.191543
28.191552
28.19158
28.191551
28.191564
28.191572
28.191569
28.191557
28.191541
28.191532
28.19154
28.191567
28.19154
28.191554
28.191564
28.191562
28.19155
28.191534
28.191525
28.191532
28.191558
28.191535
28.191549
28.19156
28.191559
28.191547
28.191531
28.191521
28.191528
28.191553
28.191536
28.19155
28.19156
28.191559
28.191548
28.191532
28.191522
28.191528
28.191554
28.191542
28.191556
28.191566
28.191564
28.191553
28.191537
28.191527
28.191534
28.19156
28.191554
28.191567
28.191576
28.191573
28.191561
28.191545
28.191536
28.191543
28.19157
28.19157
28.191582
28.19159
28.191586
28.191573
28.191557
28.191548
28.191557
28.191584
28.191589
28.191599
28.191605
28.1916
28.191586
28.191571
28.191564
28.191575
28.191603
28.191607
28.191616
28.191621
28.191615
28.191601
28.191587
28.191582
28.191595
28.191624
28.191621
28.191628
28.191631
28.191624
28.191609
28.191597
28.191597
28.191616
28.191646
28.191625
28.19163
28.191631
28.191622
28.191605
28.191591
28.191592
28.191613
28.19165
28.191615
28.191619
28.191619
28.191608
28.191589
28.19157
28.191564
28.191579
28.191616
28.191592
28.191595
28.191593
28.191582
28.191562
28.19154
28.191528
28.191535
28.191562
28.191554
28.191556
28.191554
28.191542
28.191521
28.191497
28.191481
28.191481
28.191501
28.191476
28.191478
28.191477
28.191468
28.19145
28.191428
28.191409
28.191403
28.191418
26.580826
26.580824
26.580823
26.580822
26.580821
26.58082
26.580816
26.580809
26.580801
26.580869
26.580867
26.580865
26.580864
26.580863
26.580861
26.580857
26.58085
26.580844
26.580909
26.580907
26.580906
26.580905
26.580905
26.580903
26.580897
26.580888
26.580877
26.580952
26.58095
26.580949
26.580949
26.580949
26.580947
26.580939
26.580928
26.580914
26.580995
26.580993
26.580993
26.580994
26.580995
26.580993
26.580985
26.580971
26.580955
26.581035
26.581034
26.581035
26.581037
26.581039
26.581038
26.58103
26.581015
26.580996
26.581074
26.581073
26.581075
26.581078
26.581081
26.581081
26.581073
26.581057
26.581036
26.581108
26.581108
26.581111
26.581115
26.58112
26.581121
26.581114
26.581097
26.581072
26.581138
26.581139
26.581142
26.581147
26.581152
26.581155
26.581149
26.581132
26.581107
26.581162
26.581162
26.581166
26.581172
26.581179
26.581182
26.581178
26.581162
26.581138
26.581178
26.581179
26.581183
26.58119
26.581197
26.581202
26.581199
26.581184
26.58116
26.581187
26.581188
26.581192
26.581199
26.581207
26.581212
26.58121
26.581196
26.581171
26.581188
26.581189
26.581193
26.5812
26.581208
26.581213
26.581211
26.581197
26.581172
26.58118
26.581181
26.581185
26.581192
26.5812
26.581204
26.581201
26.581187
26.581162
26.581165
26.581166
26.58117
26.581176
26.581183
26.581187
26.581182
26.581166
26.581142
26.581143
26.581144
26.581147
26.581153
26.581159
26.581161
26.581155
26.581137
26.581112
26.581116
26.581116
26.581119
26.581123
26.581128
26.581129
26.581122
26.581104
26.581078
26.581083
26.581083
26.581085
26.581088
26.581092
26.581091
26.581083
26.581066
26.581044
26.581047
26.581046
26.581047
26.58105
26.581052
26.58105
26.581042
26.581026
26.581006
26.581009
26.581008
26.581008
26.581009
26.58101
26.581008
26.580999
26.580984
26.580967
26.580969
26.580968
26.580967
26.580967
26.580967
26.580965
26.580956
26.580943
26.580928
26.580929
26.580927
26.580926
26.580926
26.580926
26.580923
26.580916
26.580906
26.580894
26.580893
26.580891
26.580889
26.580888
26.580887
26.580885
26.580879
26.580872
26.580864
26.580852
26.58085
26.580848
26.580847
26.580847
26.580845
26.580841
26.580833
26.580824
24.966913
24.966912
24.966911
24.966909
24.966906
24.966903
24.966898
24.966892
24.966892
24.966936
24.966935
24.966933
24.966931
24.966928
24.966925
24.966921
24.966918
24.966919
24.96695
24.966949
24.966947
24.966945
24.966944
24.966941
24.966939
24.966937
24.966938
24.966961
24.966961
24.966959
24.966958
24.966956
24.966955
24.966954
24.966953
24.966954
24.966971
24.96697
24.966969
24.966968
24.966968
24.966967
24.966967
24.966967
24.966968
24.966977
24.966977
24.966977
24.966976
24.966977
24.966977
24.966978
24.966979
24.96698
24.966982
24.966982
24.966982
24.966983
24.966984
24.966985
24.966987
24.966989
24.96699
24.966985
24.966986
24.966986
24.966987
24.966989
24.966992
24.966994
24.966996
24.966998
24.966987
24.966988
24.966989
24.966991
24.966993
24.966996
24.966999
24.967001
24.966999
24.966988
24.96699
24.966991
24.966993
24.966996
24.966999
24.967002
24.967001
24.966997
24.966989
24.96699
24.966992
24.966994
24.966998
24.967001
24.967003
24.967001
24.966995
24.966989
24.966991
24.966993
24.966996
24.966999
24.967003
24.967004
24.967001
24.966994
24.96699
24.966992
24.966994
24.966996
24.967
24.967004
24.967005
24.967001
24.966995
24.966991
24.966993
24.966994
24.966997
24.967
24.967004
24.967005
24.967003
24.966996
24.966992
24.966993
24.966995
24.966997
24.967
24.967004
24.967006
24.967005
24.967
24.966992
24.966994
24.966995
24.966997
24.966999
24.967002
24.967005
24.967006
24.967004
24.966992
24.966993
24.966994
24.966995
24.966997
24.967
24.967002
24.967003
24.967003
24.966991
24.966992
24.966992
24.966993
24.966994
24.966995
24.966997
24.966998
24.966997
24.966989
24.966989
24.966989
24.966989
24.966989
24.96699
24.96699
24.96699
24.966989
24.966985
24.966985
24.966984
24.966983
24.966983
24.966982
24.966981
24.96698
24.966979
24.966978
24.966978
24.966977
24.966975
24.966974
24.966972
24.966971
24.966969
24.966968
24.966969
24.966969
24.966967
24.966966
24.966964
24.966961
24.966958
24.966955
24.966954
24.966959
24.966958
24.966956
24.966954
24.966951
24.966947
24.966943
24.966939
24.966938
24.966938
24.966937
24.966936
24.966934
24.966931
24.966927
24.966922
24.966916
24.966915
23.358371
23.358371
23.358371
23.358371
23.35837
23.358369
23.358369
23.358369
23.358369
23.358377
23.358377
23.358377
23.358377
23.358376
23.358375
23.358374
23.358374
23.358375
23.358381
23.358381
23.358381
23.358381
23.35838
23.358379
23.358378
23.358378
23.358378
23.358385
23.358386
23.358386
23.358386
23.358385
23.358384
23.358383
23.358382
23.358382
23.358389
23.35839
23.358391
23.358391
23.35839
23.358389
23.358387
23.358386
23.358386
23.358393
23.358394
23.358395
23.358396
23.358395
23.358394
23.358392
23.358391
23.358391
23.358397
23.358398
23.358399
23.3584
23.3584
23.358399
23.358397
23.358395
23.358395
23.358401
23.358402
23.358403
23.358404
23.358404
23.358403
23.358401
23.3584
23.358399
23.358404
23.358405
23.358406
23.358407
23.358408
23.358407
23.358405
23.358403
23.358403
23.358406
23.358407
23.358409
23.35841
23.358411
23.35841
23.358408
23.358407
23.358406
23.358408
23.35841
23.358411
23.358413
23.358413
23.358412
23.358411
23.358409
23.358408
23.35841
23.358411
23.358413
23.358414
23.358415
23.358414
23.358413
23.358411
23.35841
23.35841
23.358412
23.358413
23.358415
23.358415
23.358415
23.358413
23.358412
23.35841
23.35841
23.358412
23.358413
23.358415
23.358415
23.358415
23.358413
23.358411
23.35841
23.35841
23.358411
23.358413
23.358414
23.358415
23.358414
23.358412
23.35841
23.358409
23.358409
23.35841
23.358412
23.358413
23.358413
23.358412
23.358411
23.358408
23.358407
23.358407
23.358409
23.35841
23.358411
23.358411
23.358411
23.358409
23.358406
23.358404
23.358406
23.358407
23.358408
23.358409
23.358409
23.358408
23.358406
23.358404
23.358402
23.358404
23.358405
23.358407
23.358407
23.358407
23.358406
23.358403
23.358401
23.358399
23.358403
23.358404
23.358405
23.358405
23.358405
23.358403
23.358401
23.358398
23.358397
23.358401
23.358402
23.358403
23.358403
23.358402
23.358401
23.358399
23.358396
23.358395
23.3584
23.3584
23.358401
23.358401
23.3584
23.358399
23.358397
23.358395
23.358394
23.358398
23.358399
23.358399
23.358399
23.358398
23.358397
23.358395
23.358394
23.358393
23.358395
23.358395
23.358395
23.358395
23.358394
23.358393
23.358393
23.358392
23.35839
21.745601
21.745601
21.7456
21.7456
21.7456
21.7456
21.745599
21.745599
21.745598
21.745608
21.745607
21.745606
21.745606
21.745606
21.745606
21.745606
21.745605
21.745606
21.745612
21.745612
21.745611
21.745611
21.745611
21.745611
21.745611
21.745611
21.745611
21.745617
21.745617
21.745616
21.745616
21.745616
21.745617
21.745617
21.745616
21.745616
21.745622
21.745621
21.745621
21.745621
21.745621
21.745622
21.745622
21.745622
21.745621
21.745626
21.745625
21.745625
21.745625
21.745626
21.745627
21.745627
21.745627
21.745625
21.745629
21.745629
21.745629
21.745629
21.74563
21.745631
21.745632
21.745632
21.74563
21.745632
21.745632
21.745632
21.745632
21.745634
21.745635
21.745636
21.745636
21.745633
21.745634
21.745634
21.745634
21.745635
21.745637
21.745639
21.74564
21.745639
21.745636
21.745636
21.745636
21.745636
21.745637
21.745639
21.745641
21.745642
21.745642
21.745639
21.745638
21.745638
21.745638
21.745639
21.745641
21.745643
21.745644
21.745644
21.745641
21.745639
21.745639
21.745639
21.74564
21.745642
21.745645
21.745646
21.745645
21.745642
21.745639
21.745639
21.74564
21.745641
21.745643
21.745645
21.745646
21.745646
21.745642
21.745639
21.74564
21.74564
21.745641
21.745643
21.745645
21.745646
21.745645
21.745642
21.745639
21.745639
21.74564
21.745641
21.745643
21.745645
21.745646
21.745645
21.745641
21.745639
21.745639
21.745639
21.74564
21.745642
21.745644
21.745644
21.745643
21.74564
21.745638
21.745638
21.745638
21.745639
21.74564
21.745642
21.745643
21.745641
21.745638
21.745637
21.745637
21.745637
21.745637
21.745639
21.74564
21.74564
21.745639
21.745636
21.745635
21.745635
21.745635
21.745636
21.745637
21.745637
21.745637
21.745636
21.745633
21.745634
21.745634
21.745633
21.745634
21.745634
21.745635
21.745634
21.745633
21.74563
21.745632
21.745632
21.745631
21.745631
21.745632
21.745632
21.745631
21.745629
21.745627
21.74563
21.745629
21.745629
21.745629
21.745629
21.745629
21.745628
21.745626
21.745625
21.745628
21.745627
21.745627
21.745626
21.745626
21.745626
21.745625
21.745623
21.745622
21.745623
21.745623
21.745622
21.745622
21.745622
21.745622
21.745621
21.745619
21.745617
20.135619
20.135619
20.135619
20.135619
20.135619
20.135619
20.135619
20.13562
20.135621
20.13562
20.13562
20.135621
20.13562
20.13562
20.13562
20.13562
20.135621
20.135623
20.135621
20.135621
20.135622
20.135621
20.135621
20.135621
20.135621
20.135621
20.135623
20.135622
20.135622
20.135623
20.135622
20.135622
20.135621
20.135621
20.135622
20.135623
20.135623
20.135623
20.135623
20.135623
20.135623
20.135622
20.135622
20.135622
20.135624
20.135623
20.135624
20.135624
20.135624
20.135624
20.135623
20.135623
20.135623
20.135624
20.135624
20.135624
20.135625
20.135625
20.135624
20.135624
20.135624
20.135624
20.135625
20.135625
20.135625
20.135625
20.135625
20.135625
20.135625
20.135625
20.135625
20.135626
20.135625
20.135626
20.135626
20.135626
20.135626
20.135626
20.135625
20.135625
20.135626
20.135626
20.135626
20.135627
20.135627
20.135627
20.135626
20.135626
20.135626
20.135627
20.135626
20.135627
20.135627
20.135627
20.135627
20.135627
20.135627
20.135627
20.135628
20.135627
20.135627
20.135628
20.135628
20.135628
20.135627
20.135627
20.135627
20.135628
20.135627
20.135628
20.135628
20.135628
20.135628
20.135628
20.135628
20.135628
20.135629
20.135628
20.135628
20.135629
20.135629
20.135629
20.135629
20.135628
20.135628
20.135629
20.135628
20.135629
20.135629
20.13563
20.135629
20.135629
20.135629
20.135629
20.135629
20.135629
20.135629
20.13563
20.13563
20.13563
20.13563
20.135629
20.135629
20.135629
20.135629
20.13563
20.135631
20.135631
20.135631
20.13563
20.13563
20.135629
20.13563
20.13563
20.135631
20.135631
20.135632
20.135631
20.135631
20.13563
20.13563
20.13563
20.135631
20.135632
20.135632
20.135633
20.135632
20.135632
20.135631
20.135631
20.135631
20.135632
20.135633
20.135633
20.135634
20.135633
20.135633
20.135632
20.135631
20.135631
20.135634
20.135634
20.135635
20.135635
20.135634
20.135634
20.135633
20.135632
20.135632
20.135635
20.135635
20.135636
20.135636
20.135635
20.135635
20.135634
20.135634
20.135634
20.135636
20.135637
20.135637
20.135637
20.135636
20.135636
20.135636
20.135636
20.135636
20.135637
20.135637
20.135637
20.135637
20.135637
20.135637
20.135637
20.135637
20.135636
18.523996
18.523996
18.523996
18.523996
18.523996
18.523996
18.523996
18.523995
18.523995
18.523999
18.523998
18.523998
18.523998
18.523998
18.523998
18.523998
18.523998
18.523998
18.524001
18.524
18.524
18.524
18.524
18.524
18.524
18.524
18.524
18.524003
18.524003
18.524002
18.524002
18.524002
18.524003
18.524003
18.524003
18.524002
18.524005
18.524005
18.524004
18.524004
18.524005
18.524005
18.524005
18.524005
18.524004
18.524007
18.524006
18.524006
18.524006
18.524007
18.524007
18.524007
18.524007
18.524006
18.524008
18.524008
18.524008
18.524008
18.524008
18.524009
18.524009
18.524009
18.524008
18.52401
18.52401
18.52401
18.52401
18.52401
18.524011
18.524011
18.52401
18.524009
18.524011
18.524011
18.524011
18.524011
18.524011
18.524012
18.524012
18.524012
18.524011
18.524012
18.524012
18.524012
18.524012
18.524013
18.524013
18.524013
18.524013
18.524012
18.524013
18.524013
18.524013
18.524013
18.524014
18.524014
18.524014
18.524014
18.524012
18.524013
18.524013
18.524013
18.524014
18.524014
18.524015
18.524015
18.524014
18.524013
18.524014
18.524014
18.524014
18.524014
18.524015
18.524015
18.524015
18.524015
18.524013
18.524014
18.524014
18.524014
18.524014
18.524015
18.524015
18.524016
18.524015
18.524013
18.524014
18.524014
18.524014
18.524014
18.524015
18.524015
18.524016
18.524015
18.524013
18.524014
18.524014
18.524014
18.524014
18.524015
18.524015
18.524015
18.524014
18.524013
18.524013
18.524013
18.524013
18.524014
18.524014
18.524015
18.524015
18.524014
18.524012
18.524013
18.524013
18.524013
18.524013
18.524014
18.524014
18.524014
18.524013
18.524012
18.524013
18.524012
18.524012
18.524013
18.524013
18.524013
18.524013
18.524012
18.524011
18.524012
18.524012
18.524012
18.524012
18.524012
18.524012
18.524012
18.524011
18.52401
18.524011
18.524011
18.524011
18.524011
18.524011
18.524012
18.524011
18.52401
18.524009
18.524011
18.524011
18.52401
18.524011
18.524011
18.524011
18.52401
18.52401
18.524009
18.52401
18.52401
18.52401
18.52401
18.52401
18.52401
18.524009
18.524009
18.524008
18.524009
18.524009
18.524009
18.524009
18.524009
18.524009
18.524008
18.524008
18.524007
16.913281
16.913281
16.913281
16.913281
16.913281
16.913281
16.913281
16.913281
16.913281
16.913281
16.913281
16.913281
16.913281
16.913281
16.913281
16.913281
16.913282
16.913282
16.913282
16.913282
16.913282
16.913282
16.913282
16.913281
16.913281
16.913282
16.913282
16.913282
16.913282
16.913282
16.913282
16.913282
16.913282
16.913282
16.913282
16.913282
16.913282
16.913282
16.913282
16.913282
16.913282
16.913282
16.913282
16.913282
16.913283
16.913283
16.913283
16.913283
16.913283
16.913283
16.913282
16.913282
16.913283
16.913283
16.913283
16.913283
16.913283
16.913283
16.913283
16.913283
16.913283
16.913283
16.913284
16.913283
16.913283
16.913283
16.913283
16.913283
16.913283
16.913283
16.913283
16.913284
16.913283
16.913283
16.913284
16.913284
16.913283
16.913283
16.913283
16.913284
16.913284
16.913284
16.913284
16.913284
16.913284
16.913284
16.913284
16.913284
16.913284
16.913284
16.913284
16.913284
16.913284
16.913284
16.913284
16.913284
16.913284
16.913284
16.913285
16.913284
16.913284
16.913284
16.913284
16.913284
16.913284
16.913284
16.913284
16.913285
16.913284
16.913284
16.913285
16.913285
16.913285
16.913284
16.913284
16.913285
16.913285
16.913285
16.913285
16.913285
16.913285
16.913285
16.913285
16.913285
16.913285
16.913285
16.913285
16.913285
16.913285
16.913285
16.913285
16.913285
16.913285
16.913285