/*--------------------------------*- C++ -*----------------------------------*\
| =========                 |                                                 |
| \\      /  F ield         | OpenFOAM: The Open Source CFD Toolbox           |
|  \\    /   O peration     | Version:  2406                                  |
|   \\  /    A nd           | Website:  www.openfoam.com                      |
|    \\/     M anipulation  |                                                 |
\*---------------------------------------------------------------------------*/
FoamFile
{
    version     2.0;
    format      ascii;
    arch        "LSB;label=32;scalar=64";
    class       surfaceScalarField;
    location    "7.5";
    object      phi;
}
// * * * * * * * * * * * * * * * * * * * * * * * * * * * * * * * * * * * * * //

dimensions      [0 3 -1 0 0 0 0];

oriented        oriented;

internalField   nonuniform List<scalar> 
101088
(
-4.380009e-05
1.4597243e-06
6.1532202e-06
-1.3714763e-07
-0.00012384408
1.4307414e-05
2.2162861e-05
-7.2581793e-06
-0.0002550119
5.6779472e-05
4.1352153e-05
-3.6100623e-05
-0.00044210618
0.00015647117
5.069373e-05
-0.0001104004
-0.00065686304
0.00032271119
2.5150575e-05
-0.00024483137
-0.00083626481
0.00051061757
-4.7979759e-05
-0.00041194447
-0.00092722803
0.00065045351
-0.00014452566
-0.00055098188
-0.00093205793
0.00070943592
-0.00021658936
-0.00061856351
0.00068944313
-0.00023316735
-0.00061593977
-0.00088605096
-5.2900131e-05
2.0056077e-06
7.7951934e-06
-0.00014774863
1.9350543e-05
2.7532594e-05
-0.00030009739
7.490003e-05
4.964132e-05
-0.00051057883
0.00019986995
5.6657044e-05
-0.00073762343
0.00039524114
1.7862666e-05
-0.00090608067
0.00059881185
-7.7640305e-05
-0.00096740216
0.0007395852
-0.00019586219
-0.00093850861
0.00079757533
-0.00028034979
0.00077934097
-0.00029995186
-0.00087330334
-6.2506123e-05
1.9202964e-06
9.7209576e-06
-0.00017251682
2.1544721e-05
3.4051074e-05
-0.00034434248
8.6480562e-05
6.0242381e-05
-0.00057291514
0.00023205854
6.6091468e-05
-0.00080582273
0.00045170477
1.5451541e-05
-0.0009610817
0.00066787375
-9.9776471e-05
-0.00099744092
0.00081336019
-0.00023572814
-0.00094425194
0.00088038564
-0.000329669
0.00087445145
-0.00035142465
-0.00086114399
-7.2079566e-05
1.1916119e-06
1.1826126e-05
-0.00019732235
2.047832e-05
4.1373326e-05
-0.00038773413
8.9303245e-05
7.2689096e-05
-0.00063089624
0.00024721548
7.8669136e-05
-0.00086441888
0.00048267492
1.8479566e-05
-0.0010061853
0.00071066538
-0.00011326698
-0.001024367
0.00086886475
-0.00026349535
-0.00095586837
0.00095547515
-0.00036473076
0.00096809091
-0.00038815778
-0.00085977664
-8.0816364e-05
-7.8927184e-07
1.4119545e-05
-0.00021929462
1.3826073e-05
4.9634056e-05
-0.00042526276
7.8648453e-05
8.7706421e-05
-0.00067929903
0.00023881123
9.530314e-05
-0.00091365445
0.00048314109
2.8434835e-05
-0.0010481541
0.00072561976
-0.00011675269
-0.0010583368
0.00090653068
-0.00027881741
-0.00098397331
0.0010216137
-0.00038606683
0.0010554164
-0.00041056659
-0.00088122722
-8.9142979e-05
-4.1115927e-06
1.6652665e-05
-0.0002408583
1.1753858e-06
5.9104255e-05
-0.00046393381
5.3358288e-05
0.00010654524
-0.00073064087
0.00020563761
0.00011645962
-0.00097266059
0.00045357352
4.6725168e-05
-0.0011089258
0.00071345183
-0.00010945847
-0.0011203265
0.00092515125
-0.00028084418
-0.0010459618
0.0010726212
-0.00039224804
0.0011263144
-0.00041762584
-0.00093867759
-9.7101124e-05
-8.6293229e-06
1.9468188e-05
-0.00026289492
-1.7053756e-05
7.0108654e-05
-0.00050625269
1.4255403e-05
0.00012924035
-0.00079326575
0.00014798375
0.00014692851
-0.001052479
0.00039423108
7.6749425e-05
-0.0012028165
0.00067414329
-8.693705e-05
-0.001225299
0.00092023345
-0.000265305
-0.0011559725
0.001098444
-0.00038003721
0.001167704
-0.00040693715
-0.0010456722
-0.00010512954
-1.3767008e-05
2.2671124e-05
-0.00028821733
-3.8492009e-05
8.3195102e-05
-0.00056136276
-3.2853334e-05
0.00015729647
-0.00088616311
7.4345604e-05
0.00018851419
-0.0011814999
0.0003114926
0.00012192714
-0.0013614759
0.00060663169
-4.4802243e-05
-0.0014028369
0.00088052557
-0.00022752129
-0.0013386613
0.0010794408
-0.00034488995
0.0011564211
-0.00037456122
-0.0012209212
-0.00011433362
-1.7763765e-05
2.6270984e-05
-0.00032226165
-5.6390188e-05
9.8424505e-05
-0.0006432288
-7.3980702e-05
0.00019118476
-0.0010363863
2.1008431e-06
0.00024555926
-0.0013921668
0.00021742416
0.00018208048
-0.0016179279
0.00050722614
2.022959e-05
-0.0016813263
0.00078538374
-0.00016274455
-0.0016157283
0.00098400487
-0.00028162212
0.0010574967
-0.00031602143
-0.0014789636
-0.00012549304
-1.7777184e-05
3.0037343e-05
-0.00036968225
-5.9011095e-05
0.00011477642
-0.00076185053
-8.7268336e-05
0.00022848822
-0.0012535594
-4.1379898e-05
0.00030780924
-0.001697361
0.00012851331
0.00025614322
-0.0019805421
0.00037044334
0.00010549693
-0.0020631992
0.00060910642
-7.1855297e-05
-0.0019844541
0.00077551746
-0.00019044213
0.00083215936
-0.00023174935
-0.0018129701
-0.00013751235
-1.1394607e-05
3.3372839e-05
-0.00042260036
-3.8520694e-05
0.00012945792
-0.00089388007
-5.9752479e-05
0.00026273899
-0.0014950447
-3.8922598e-05
0.00036629047
-0.0020421829
5.6041346e-05
0.0003371733
-0.0023833211
0.00019664359
0.00019413915
-0.0024786604
0.00033849111
2.8879069e-05
-0.0023772547
0.00043564858
-8.7458742e-05
0.00046522809
-0.00013702475
-0.0021637511
-0.00014570669
-1.8248279e-10
3.5399779e-05
-0.00045945895
-8.1289695e-10
0.00013852339
-0.00098655272
-1.917665e-09
0.00028426906
-0.0016644521
-3.5709239e-09
0.00040402388
-0.0022855319
-4.8766711e-09
0.00039173441
-0.0026628234
-5.3165971e-09
0.00024995774
-0.0027641832
-4.930925e-09
9.9626058e-05
-0.0026429806
-4.4260997e-09
-1.4342715e-05
-4.2023537e-09
-7.0264352e-05
-0.0024003559
-0.00014570652
1.1394188e-05
3.5399768e-05
-0.00045945868
3.8518947e-05
0.00013852334
-0.00098655285
5.9748529e-05
0.00028426896
-0.0016644519
3.8915557e-05
0.00040402372
-0.0022855316
-5.605055e-05
0.00039173421
-0.0026628232
-0.00019665341
0.00024995757
-0.0027641832
-0.00033850014
9.9625881e-05
-0.0026429808
-0.00043565689
-1.4342857e-05
-0.00046523625
-7.0264488e-05
-0.0024003562
-0.00013751178
1.7776691e-05
3.3372826e-05
-0.00042259986
5.9009093e-05
0.00012945786
-0.00089388081
8.7264166e-05
0.00026273884
-0.0014950443
4.1373383e-05
0.00036629016
-0.0020421827
-0.00012852109
0.00033717284
-0.0023833211
-0.00037045152
0.0001941387
-0.0024786612
-0.00060911403
2.8878644e-05
-0.0023772557
-0.00077552493
-8.7459096e-05
-0.00083216718
-0.0001370251
-0.0021637523
-0.0001254919
1.7763384e-05
3.0037322e-05
-0.00036968103
5.6388472e-05
0.00011477632
-0.00076185058
7.3977216e-05
0.00022848798
-0.0012535579
-2.1058276e-06
0.00030780876
-0.0016973609
-0.00021743036
0.0002561426
-0.0019805423
-0.00050723293
0.0001054963
-0.0020632004
-0.00078539028
-7.1855849e-05
-0.0019844556
-0.00098401162
-0.00019044258
-0.001057504
-0.00023174982
-0.0018129721
-0.00011433273
1.3766842e-05
2.6270963e-05
-0.00032226104
3.8490991e-05
9.8424412e-05
-0.00064322923
3.2850642e-05
0.00019118453
-0.0010363857
-7.4350084e-05
0.00024555879
-0.001392168
-0.00031149874
0.00018207992
-0.0016179287
-0.00060663755
2.0228968e-05
-0.001681328
-0.00088053121
-0.00016274511
-0.0016157299
-0.001079447
-0.0002816226
-0.001156428
-0.00031602193
-0.0014789656
-0.00010512971
8.6291583e-06
2.2671108e-05
-0.00028821875
1.705292e-05
8.319503e-05
-0.00056136396
-1.4258122e-05
0.00015729629
-0.0008861636
-0.00014798851
0.00018851382
-0.0011815017
-0.00039423661
0.00012192662
-0.001361477
-0.00067414701
-4.4802794e-05
-0.0014028389
-0.00092023755
-0.00022752181
-0.0013386628
-0.0010984495
-0.00034489038
-0.0011677115
-0.00037456166
-0.0012209228
-9.7102392e-05
4.1113729e-06
1.9468175e-05
-0.000262897
-1.1758834e-06
7.0108599e-05
-0.00050625246
-5.3359489e-05
0.00012924022
-0.0007932659
-0.0002056403
0.00014692822
-0.0010524801
-0.00045357646
7.6748988e-05
-0.0012028178
-0.00071345372
-8.6937527e-05
-0.0012253009
-0.00092515441
-0.00026530546
-0.0011559742
-0.0010726265
-0.00038003758
-0.0011263236
-0.00040693752
-0.0010456743
-8.9143113e-05
7.8925748e-07
1.6652659e-05
-0.00024085809
-1.382602e-05
5.9104221e-05
-0.00046393337
-7.8648726e-05
0.00010654514
-0.00073064101
-0.00023881292
0.00011645941
-0.00097266128
-0.00048314286
4.6724788e-05
-0.0011089271
-0.0007256217
-0.00010945892
-0.0011203282
-0.00090653371
-0.0002808446
-0.0010459634
-0.001021619
-0.00039224836
-0.0010554263
-0.00041762614
-0.00093868049
-8.0816648e-05
-1.191793e-06
1.4119532e-05
-0.00021929575
-2.0478803e-05
4.9634e-05
-0.00042526365
-8.930384e-05
8.7706288e-05
-0.00067929752
-0.00024721641
9.5302925e-05
-0.00091365502
-0.00048267675
2.8434474e-05
-0.0010481545
-0.00071066645
-0.00011675308
-0.0010583373
-0.00086886715
-0.00027881777
-0.00098397392
-0.00095548118
-0.00038606709
-0.00096810048
-0.0004105668
-0.00088122848
-7.2079708e-05
-1.920292e-06
1.1826113e-05
-0.00019732261
-2.1544671e-05
4.1373272e-05
-0.00038773386
-8.6480276e-05
7.2688976e-05
-0.00063089472
-0.00023205843
7.8668925e-05
-0.00086441772
-0.00045170595
1.847925e-05
-0.0010061845
-0.00066787471
-0.00011326734
-0.001024367
-0.00081336241
-0.00026349567
-0.0009558691
-0.00088039169
-0.00036473104
-0.00087445916
-0.00038815799
-0.00085977587
-6.2505812e-05
-2.0055842e-06
9.7209423e-06
-0.00017251641
-1.9350426e-05
3.4051013e-05
-0.00034434255
-7.4899874e-05
6.0242246e-05
-0.00057291481
-0.00019987009
6.6091247e-05
-0.00080582103
-0.0003952418
1.5451226e-05
-0.0009610814
-0.00059881272
-9.977684e-05
-0.00099744105
-0.0007395861
-0.00023572849
-0.00094425398
-0.00079758177
-0.00032966927
-0.00077934892
-0.00035142482
-0.00086114575
-5.2900122e-05
-1.4597571e-06
7.7951806e-06
-0.00014774888
-1.4307479e-05
2.7532543e-05
-0.0003000984
-5.6779662e-05
4.9641208e-05
-0.00051058005
-0.00015647166
5.6656852e-05
-0.00073762362
-0.00032271183
1.7862384e-05
-0.00090608038
-0.00051061838
-7.7640639e-05
-0.00096740322
-0.00065045549
-0.00019586252
-0.00093850688
-0.00070943834
-0.00028035009
-0.00068944889
-0.00029995204
-0.00087330174
-4.3800249e-05
6.1532102e-06
-1.3715969e-07
-0.00012384482
2.216282e-05
-7.2582171e-06
-0.00025501349
4.1352063e-05
-3.6100727e-05
-0.00044210773
5.0693574e-05
-0.00011040048
-0.00065686505
2.5150354e-05
-0.00024483111
-0.0008362669
-4.798002e-05
-0.00041194395
-0.00092722716
-0.00014452592
-0.00055098235
-0.00093206006
-0.00021658958
-0.00061856925
-0.00023316755
-0.00061594511
-0.00088605308
1.1408714e-06
1.7435922e-07
5.9380601e-06
-1.1000832e-06
4.5881975e-06
-3.8482921e-07
2.3054048e-05
-3.9537095e-06
1.0735602e-05
-4.7314137e-06
4.671995e-05
-6.7838754e-06
2.1560178e-05
-2.0620529e-05
6.470361e-05
-4.2142542e-06
3.6586984e-05
-6.0634008e-05
5.6219494e-05
1.4537252e-05
5.5560069e-05
-0.00013209973
5.7637704e-06
5.938143e-05
8.0225563e-05
-0.00022091805
-7.3021202e-05
0.00012474728
0.00011002031
-0.00029493373
-0.00013954201
0.00018809249
-0.00033166943
-0.00016214983
0.00023000725
0.00014066435
1.8432166e-06
-1.1247643e-06
7.2511465e-06
7.8480792e-06
-6.5963052e-06
2.773948e-05
1.8871821e-05
-2.1117202e-05
5.5004042e-05
3.6851902e-05
-5.4761217e-05
7.2818682e-05
5.8238638e-05
-0.00012016058
5.6003279e-05
7.9597235e-05
-0.00021916826
-1.1929851e-05
0.00010180422
-0.00032799266
-0.00011099321
0.00012687456
-0.00040906632
-0.00019128875
-0.00044108608
-0.00021784044
0.00015417887
2.8467397e-06
-2.9051076e-06
8.6544618e-06
1.2373752e-05
-1.4887889e-05
3.2815529e-05
2.9667299e-05
-4.2409409e-05
6.4240777e-05
5.5742902e-05
-9.7553406e-05
8.2806739e-05
8.2950203e-05
-0.00019102655
5.9107669e-05
0.0001043103
-0.00031649486
-2.3809834e-05
0.0001211995
-0.0004407969
-0.00013981449
0.0001387021
-0.00052488222
-0.00023135558
-0.0005507452
-0.00026128857
0.00015822372
4.0936065e-06
-5.1745836e-06
1.0002071e-05
1.8091344e-05
-2.5202915e-05
3.7690854e-05
4.3340504e-05
-6.8122639e-05
7.315342e-05
7.9010166e-05
-0.00014725676
9.2702659e-05
0.00011247812
-0.00026919723
6.3182757e-05
0.00013294077
-0.00041794991
-3.2273972e-05
0.0001432027
-0.00055276298
-0.00016179113
0.0001516348
-0.00063629466
-0.00026175053
-0.00065473921
-0.00029416453
0.00016163579
5.4734217e-06
-7.7762818e-06
1.1248001e-05
2.4540837e-05
-3.6842736e-05
4.2206941e-05
5.9155443e-05
-9.6479126e-05
8.1448102e-05
0.00010524221
-0.00020013679
0.00010209428
0.00014542634
-0.00034856366
6.7617894e-05
0.00016486456
-0.00051578689
-3.8354623e-05
0.00016839192
-0.00065650534
-0.00017860252
0.00016773607
-0.0007370935
-0.00028461149
-0.00074724794
-0.00031850372
0.00016818255
7.1131063e-06
-1.0620997e-05
1.2384283e-05
3.2221042e-05
-4.9178235e-05
4.6331471e-05
7.8706904e-05
-0.00012547234
8.9051998e-05
0.00013627695
-0.00025208343
0.00011083599
0.00018421042
-0.0004218403
7.2068752e-05
0.00020262657
-0.00060077222
-4.288842e-05
0.0001995194
-0.00074241481
-0.00019182671
0.00019000802
-0.0008177273
-0.0003021026
-0.00081906525
-0.00033651272
0.0001807131
8.7972878e-06
-1.3341671e-05
1.3392082e-05
4.0232133e-05
-6.0510709e-05
5.000634e-05
9.892245e-05
-0.0001508105
9.5886113e-05
0.00016905993
-0.00029417196
0.00011887873
0.00022415647
-0.00047667178
7.6484599e-05
0.00024156893
-0.00065896417
-4.6157733e-05
0.00023293778
-0.000796834
-0.00020225374
0.00021616506
-0.00086540047
-0.00031559098
-0.00085830283
-0.00034985547
0.00019832243
1.0280357e-05
-1.5265243e-05
1.4314409e-05
4.7499485e-05
-6.7962682e-05
5.3428508e-05
0.00011770496
-0.00016587608
0.00010215638
0.00020055906
-0.00031534813
0.00012683593
0.00026198806
-0.0004977501
8.1577762e-05
0.0002789963
-0.00067305752
-4.7717468e-05
0.00026652143
-0.00080181741
-0.00021006208
0.00024456834
-0.00086244156
-0.00032589518
-0.00084838777
-0.00035970726
0.00021980075
1.1310964e-05
-1.5489317e-05
1.5183461e-05
5.2893248e-05
-6.7866329e-05
5.6745796e-05
0.00013235928
-0.00016257665
0.00010841977
0.00022912175
-0.00030191805
0.00013536625
0.00029351028
-0.00046783952
8.778293e-05
0.00031039727
-0.00062254006
-4.7174504e-05
0.00029617064
-0.00073530369
-0.00021503071
0.00027170084
-0.00078647247
-0.00033312105
-0.00076849366
-0.0003665553
0.00024234121
1.1740171e-05
-1.3187024e-05
1.5994339e-05
5.5635163e-05
-5.6928428e-05
5.994375e-05
0.00014103533
-0.00013426012
0.00011477269
0.00024713409
-0.00024486297
0.00014465502
0.00031347122
-0.00037306254
9.5029724e-05
0.00033052089
-0.00048935668
-4.4735882e-05
0.00031742799
-0.000576766
-0.00021729966
0.00029348487
-0.00061558258
-0.00033738911
-0.00059828732
-0.00037061623
0.00026214516
1.1313976e-05
-7.7983074e-06
1.6670053e-05
5.4424359e-05
-3.3244307e-05
6.2663715e-05
0.00013993013
-7.742769e-05
0.00012040186
0.00024717822
-0.00013920689
0.00015338642
0.00031818764
-0.00020899329
0.0001020946
0.00033621044
-0.00027179918
-4.1441365e-05
0.00032706357
-0.00032135078
-0.0002173894
0.00030595296
-0.00034298416
-0.00033894711
-0.00033206531
-0.00037214667
0.00027485233
1.0518293e-05
1.3295212e-11
1.7083296e-05
5.1419654e-05
7.8715883e-11
6.4377612e-05
0.00013417807
2.3628542e-10
0.00012408308
0.00023944492
5.3258545e-10
0.00015954999
0.00031504135
1.2313753e-09
0.00010714345
0.00033218285
2.1157696e-09
-3.8985236e-05
0.00032743841
2.6913082e-09
-0.00021698309
0.00030957057
2.5379197e-09
-0.00033946207
1.7887438e-09
-0.0003726584
0.00027989713
1.0518306e-05
7.7982905e-06
1.7083292e-05
5.1419752e-05
3.3244369e-05
6.4377599e-05
0.00013417811
7.7428098e-05
0.00012408306
0.00023944505
0.00013920802
0.00015954996
0.00031504144
0.00020899605
0.00010714343
0.00033218291
0.00027180378
-3.898524e-05
0.00032743834
0.00032135648
-0.00021698308
0.0003095704
0.00034298935
-0.00033946207
0.00033206892
-0.00037265842
0.00027989697
1.1314206e-05
1.3186942e-05
1.6670051e-05
5.4424692e-05
5.6928299e-05
6.2663706e-05
0.00013993013
0.00013426036
0.00012040184
0.00024717864
0.0002448643
0.00015338639
0.00031818787
0.00037306593
0.00010209457
0.00033621051
0.00048936195
-4.1441403e-05
0.00032706322
0.0005767722
-0.00021738944
0.00030595246
0.00061558788
-0.00033894717
0.00059829092
-0.00037214676
0.00027485193
1.1740828e-05
1.5489276e-05
1.5994334e-05
5.5635902e-05
6.7866245e-05
5.9943728e-05
0.00014103542
0.00016257695
0.00011477265
0.00024713483
0.00030191967
0.00014465494
0.00031347135
0.00046784311
9.5029647e-05
0.00033052076
0.00062254526
-4.4735944e-05
0.00031742719
0.0007353097
-0.00021729971
0.00029348411
0.00078647753
-0.00033738917
0.00076849711
-0.00037061634
0.00026214474
1.1311699e-05
1.5265313e-05
1.5183457e-05
5.289401e-05
6.79629e-05
5.6745774e-05
0.0001323595
0.00016587663
0.00010841972
0.00022912259
0.00031534966
0.00013536616
0.00029350998
0.00049775299
8.7782829e-05
0.00031039683
0.00067306207
-4.7174598e-05
0.00029616942
0.00080182288
-0.0002150308
0.00027169997
0.00086244634
-0.00033312114
0.00084839092
-0.00036655542
0.0002423409
1.0280474e-05
1.3341687e-05
1.4314404e-05
4.7499124e-05
6.051082e-05
5.3428488e-05
0.00011770483
0.00015081065
0.00010215635
0.00020055961
0.00029417266
0.00012683585
0.00026198744
0.00047667385
8.157765e-05
0.00027899573
0.00065896864
-4.7717588e-05
0.00026652016
0.00079683946
-0.0002100622
0.00024456763
0.00086540516
-0.00032589528
0.00085830505
-0.00035970737
0.00021980052
8.7968242e-06
1.0620957e-05
1.3392077e-05
4.0231341e-05
4.9178395e-05
5.0006322e-05
9.8922951e-05
0.00012547279
9.588608e-05
0.00016906062
0.00025208431
0.00011887865
0.00022415617
0.00042184275
7.6484476e-05
0.00024156842
0.00060077705
-4.6157883e-05
0.00023293669
0.00074242028
-0.00020225389
0.00021616442
0.00081773151
-0.00031559111
0.00081906567
-0.00034985558
0.00019832179
7.1129438e-06
7.776309e-06
1.2384281e-05
3.2220909e-05
3.6843036e-05
4.6331461e-05
7.8707079e-05
9.64797e-05
8.9051972e-05
0.00013627737
0.00020013774
0.00011083591
0.00018421038
0.00034856632
7.2068621e-05
0.00020262608
0.00051579135
-4.2888612e-05
0.00019951852
0.0006565102
-0.00019182691
0.00019000742
0.00073709665
-0.00030210277
0.00074724704
-0.00033651285
0.00018071218
5.4732916e-06
5.1745296e-06
1.1247994e-05
2.4540458e-05
2.520298e-05
4.2206914e-05
5.9155264e-05
6.8123223e-05
8.1448043e-05
0.00010524341
0.00014725835
0.00010209417
0.00014542624
0.00026919995
6.761772e-05
0.00016486426
0.00041795452
-3.8354841e-05
0.00016839143
0.0005527673
-0.00017860274
0.00016773597
0.00063629643
-0.00028461167
0.00065473811
-0.00031850383
0.00016818254
4.0935392e-06
2.905119e-06
1.0002063e-05
1.8091172e-05
1.4888068e-05
3.7690819e-05
4.3340279e-05
4.2410064e-05
7.3153342e-05
7.9010383e-05
9.7554714e-05
9.2702518e-05
0.00011247815
0.00019102863
6.3182539e-05
0.00013294052
0.00031649883
-3.2274228e-05
0.0001432024
0.00044080076
-0.00016179137
0.00015163509
0.00052488366
-0.00026175071
0.00055074438
-0.00029416466
0.00016163721
2.8468659e-06
1.1248011e-06
8.6544518e-06
1.2373864e-05
6.5965833e-06
3.2815487e-05
2.9667037e-05
2.1117989e-05
6.4240682e-05
5.5742771e-05
5.4762791e-05
8.2806578e-05
8.2950858e-05
0.00012016351
5.9107448e-05
0.00010430975
0.00021917269
-2.3810104e-05
0.00012119866
0.00032799731
-0.00013981474
0.00013870132
0.00040906749
-0.00023135577
0.00044108372
-0.00026128872
0.00015822371
1.8432056e-06
-1.743397e-07
7.2511379e-06
7.847881e-06
3.8500763e-07
2.7739446e-05
1.8871072e-05
4.7319055e-06
5.5003964e-05
3.685092e-05
2.0621584e-05
7.2818545e-05
5.8237912e-05
6.0636434e-05
5.6003083e-05
7.9596263e-05
0.00013210374
-1.1930101e-05
0.00010180262
0.00022092154
-0.00011099347
0.00012687534
0.00029493631
-0.00019128897
0.00033166791
-0.00021784058
0.00015418034
1.1407835e-06
5.938054e-06
-1.1000564e-06
4.587827e-06
2.3054023e-05
-3.9535415e-06
1.0734866e-05
4.6719893e-05
-6.7833773e-06
2.1559677e-05
6.4703511e-05
-4.21301e-06
3.6586283e-05
5.6219356e-05
1.4539844e-05
5.5559746e-05
5.7636126e-06
5.9385458e-05
8.0227087e-05
-7.3021365e-05
0.0001247513
0.00011002101
-0.00013954217
0.00018809291
-0.00016214994
0.00023000623
0.00014066563
1.0053694e-07
-1.1330317e-06
5.8923687e-06
1.0781834e-06
9.6262328e-07
-4.7121371e-06
2.2364761e-05
4.5393159e-06
3.2029102e-06
-1.0801452e-05
4.4723391e-05
1.055765e-05
5.1346496e-06
-1.9152371e-05
6.2753604e-05
1.9170453e-05
5.0509801e-06
-2.7795866e-05
5.5138656e-05
2.8959948e-05
2.6080054e-06
-3.3296435e-05
4.6465761e-06
3.6855942e-05
-2.5325296e-07
-3.3138853e-05
-7.6836294e-05
3.9814755e-05
-5.409622e-07
-2.8960443e-05
-0.00014808321
3.778935e-05
-2.5299333e-05
-0.00017399018
3.2930634e-05
3.6677462e-06
1.039442e-07
-1.22144e-06
7.2356137e-06
1.1021696e-06
-4.98852e-06
2.7017651e-05
3.7048047e-06
-1.1165311e-05
5.2765304e-05
5.4007431e-06
-1.9121813e-05
7.1092213e-05
4.1385002e-06
-2.634807e-05
5.5817541e-05
-2.8427505e-07
-2.913305e-05
-1.1670794e-05
-5.1642659e-06
-2.5852269e-05
-0.00011339983
-6.9765599e-06
-1.9527269e-05
-0.00019891015
-1.5474874e-05
-0.00023007903
-4.5626179e-06
1.1142203e-07
-1.3375521e-06
8.659115e-06
1.302866e-06
-5.3804437e-06
3.201591e-05
4.5490973e-06
-1.1793234e-05
6.1622253e-05
6.6742547e-06
-1.9490188e-05
8.1049341e-05
5.1464176e-06
-2.5253857e-05
5.9540213e-05
-2.8715955e-07
-2.509959e-05
-2.2410079e-05
-6.7306843e-06
-1.8406232e-05
-0.00014081784
-1.0369403e-05
-9.5725368e-06
-0.00023767179
-4.2394827e-06
-0.00027306719
-9.8266842e-06
1.2208675e-07
-1.4705667e-06
1.0012992e-05
1.5379599e-06
-5.8646899e-06
3.6759205e-05
5.5381873e-06
-1.2666726e-05
7.002661e-05
8.4388023e-06
-2.0309925e-05
9.0621407e-05
7.2215507e-06
-2.4718382e-05
6.3864182e-05
1.3910373e-06
-2.152766e-05
-3.0015648e-05
-6.1948108e-06
-1.1221317e-05
-0.0001613905
-1.1455419e-05
3.4073319e-07
-0.00026640337
7.143216e-06
-0.00030471878
-1.2283928e-05
1.3916731e-07
-1.6087249e-06
1.1247004e-05
1.8184146e-06
-6.4132816e-06
4.1076252e-05
6.5769332e-06
-1.3760369e-05
7.7782903e-05
1.0555694e-05
-2.1565842e-05
9.9370526e-05
1.006216e-05
-2.4832917e-05
6.8225834e-05
4.3116399e-06
-1.880654e-05
-3.5325781e-05
-4.1071549e-06
-4.9541409e-06
-0.00017645118
-1.0796472e-05
9.2521757e-06
-0.00028683346
1.7423323e-05
-0.00032674182
-1.2838424e-05
1.8134861e-07
-1.7489334e-06
1.234314e-05
2.1957876e-06
-6.9927608e-06
4.489641e-05
7.8635844e-06
-1.4971842e-05
8.4595342e-05
1.3188122e-05
-2.3107306e-05
0.00010705252
1.3743431e-05
-2.5535758e-05
7.221616e-05
8.2289302e-06
-1.7067277e-05
-3.9112961e-05
-9.526577e-07
-2.2761453e-07
-0.00018737143
-9.0288286e-06
1.6096684e-05
-0.00030087079
2.5267595e-05
-0.00034114627
-1.2239392e-05
2.3441612e-07
-1.8555041e-06
1.3264306e-05
2.6078187e-06
-7.4546962e-06
4.8094807e-05
9.2355705e-06
-1.5985083e-05
9.0270934e-05
1.6057297e-05
-2.4483917e-05
0.00011343328
1.781354e-05
-2.6411957e-05
7.5604556e-05
1.2647637e-05
-1.6316342e-05
-4.1742633e-05
2.7989163e-06
2.3339101e-06
-0.0001949661
-6.6846007e-06
1.9897633e-05
-0.00030990816
2.951066e-05
-0.00034968602
-1.109673e-05
3.1532673e-07
-1.890959e-06
1.4034556e-05
3.1404302e-06
-7.6324101e-06
5.078123e-05
1.0660034e-05
-1.6425309e-05
9.507688e-05
1.9161237e-05
-2.5082472e-05
0.0001189333
2.2268493e-05
-2.6786108e-05
7.8845184e-05
1.7496954e-05
-1.618802e-05
-4.3074039e-05
6.7607328e-06
2.7704704e-06
-0.00019976186
-4.2066623e-06
2.0169661e-05
-0.00031519944
2.9503403e-05
-0.00035406218
-9.8440775e-06
4.0416298e-07
-1.7801671e-06
1.4668366e-05
3.7177004e-06
-7.2174747e-06
5.3017325e-05
1.2168079e-05
-1.560628e-05
9.9150478e-05
2.2569681e-05
-2.3867503e-05
0.00012374977
2.6901663e-05
-2.5442704e-05
8.2108332e-05
2.2270704e-05
-1.5564475e-05
-4.3166623e-05
1.0589774e-05
1.6864834e-06
-0.00020226524
-1.8485497e-06
1.7242333e-05
-0.00031775512
2.5397281e-05
-0.00035563625
-8.6613084e-06
4.9290857e-07
-1.4410885e-06
1.5162212e-05
4.2961489e-06
-5.8591829e-06
5.4782357e-05
1.3758699e-05
-1.2722308e-05
0.00010242659
2.6316591e-05
-1.9521167e-05
0.00012775094
3.1613125e-05
-2.0847095e-05
8.5138159e-05
2.6795397e-05
-1.3029819e-05
-4.2452382e-05
1.4030554e-05
2.9821201e-07
-0.00020314619
2.4401222e-07
1.214441e-05
-0.00031850458
1.8169743e-05
-0.000355542
-7.6027687e-06
5.6392875e-07
-8.2791876e-07
1.5492924e-05
4.7726177e-06
-3.3647575e-06
5.5960796e-05
1.5155584e-05
-7.3188785e-06
0.00010461595
2.9835569e-05
-1.1268229e-05
0.00013045378
3.5822674e-05
-1.2026477e-05
8.7287262e-05
3.0543098e-05
-7.5377806e-06
-4.1653568e-05
1.681161e-05
-1.8766346e-07
-0.00020317188
2.067206e-06
6.2136175e-06
-0.00031827201
9.3662063e-06
-0.00035468259
-6.593537e-06
5.8437781e-07
-3.7474733e-11
1.5671077e-05
4.9795252e-06
-9.3839923e-11
5.661792e-05
1.585791e-05
-1.2804661e-10
0.00010588628
3.2041659e-05
-7.8088375e-11
0.00013209847
3.8425369e-05
2.5405611e-10
8.8733398e-05
3.2793153e-05
7.1934706e-10
-4.089127e-05
1.8501308e-05
9.9344514e-10
-0.00020287976
3.1592838e-06
7.4317062e-10
-0.00031790727
8.1345353e-11
-0.00035404779
-6.0853325e-06
5.8439933e-07
8.2783364e-07
1.5671074e-05
4.9795757e-06
3.3645508e-06
5.6617911e-05
1.585796e-05
7.3186182e-06
0.00010588626
3.2041768e-05
1.1268145e-05
0.00013209845
3.8425453e-05
1.202716e-05
8.8733381e-05
3.2793167e-05
7.539457e-06
-4.0891277e-05
1.850119e-05
1.8989892e-07
-0.00020287976
3.1590564e-06
-6.2119843e-06
-0.00031790727
-9.365997e-06
-0.00035404779
-6.0855513e-06
5.6402562e-07
1.4409966e-06
1.5492923e-05
4.7727497e-06
5.8589604e-06
5.5960793e-05
1.515566e-05
1.2722064e-05
0.00010461594
2.9835821e-05
1.952127e-05
0.00013045377
3.5822794e-05
2.0848183e-05
8.7287236e-05
3.0542967e-05
1.3032008e-05
-4.16536e-05
1.6811104e-05
-2.9549639e-07
-0.00020317191
2.066473e-06
-1.2142528e-05
-0.00031827203
-1.8169496e-05
-0.00035468261
-6.5941804e-06
4.9311961e-07
1.7800929e-06
1.5162209e-05
4.2964443e-06
7.2172936e-06
5.4782342e-05
1.3758954e-05
1.5606118e-05
0.00010242656
2.6317077e-05
2.386783e-05
0.00012775089
3.1613261e-05
2.5444112e-05
8.5138103e-05
2.6795101e-05
1.5567045e-05
-4.2452429e-05
1.402966e-05
-1.6834279e-06
-0.00020314622
2.4284455e-07
-1.7240249e-05
-0.00031850461
-2.5397019e-05
-0.00035554203
-7.6037666e-06
4.0437462e-07
1.8909135e-06
1.4668363e-05
3.7180328e-06
7.6323158e-06
5.3017313e-05
1.2168475e-05
1.6425251e-05
9.915045e-05
2.2570237e-05
2.5082877e-05
0.00012374973
2.6901643e-05
2.678753e-05
8.2108266e-05
2.2270181e-05
1.6190739e-05
-4.3166691e-05
1.0588543e-05
-2.7672392e-06
-0.0002022653
-1.8499972e-06
-2.0167417e-05
-0.00031775516
-2.9503151e-05
-0.00035563628
-8.6625458e-06
3.1538406e-07
1.8554432e-06
1.4034555e-05
3.140474e-06
7.4545695e-06
5.0781222e-05
1.0660304e-05
1.5984943e-05
9.507686e-05
1.9161632e-05
2.4484171e-05
0.00011893326
2.2268335e-05
2.6413334e-05
7.884511e-05
1.7496299e-05
1.6319332e-05
-4.307413e-05
6.7593783e-06
-2.3303944e-06
-0.00019976195
-4.2081552e-06
-1.9895248e-05
-0.0003151995
-2.9510642e-05
-0.00035406221
-9.8454099e-06
2.3435093e-07
1.7488703e-06
1.3264305e-05
2.6077151e-06
6.9926751e-06
4.8094802e-05
9.2358693e-06
1.4971817e-05
9.0270919e-05
1.6057647e-05
2.3107679e-05
0.00011343324
1.7813443e-05
2.5537443e-05
7.5604473e-05
1.264697e-05
1.7070668e-05
-4.174275e-05
2.7976593e-06
2.3138066e-07
-0.00019496623
-6.6859897e-06
-1.6094405e-05
-0.00030990824
-2.5268291e-05
-0.00034968605
-1.1097999e-05
1.8130899e-07
1.6086713e-06
1.234314e-05
2.1957233e-06
6.4132303e-06
4.4896409e-05
7.8636757e-06
1.3760401e-05
8.4595332e-05
1.3188375e-05
2.1566364e-05
0.00010705248
1.3743442e-05
2.4834912e-05
7.2216069e-05
8.2283689e-06
1.881018e-05
-3.9113114e-05
-9.5371913e-07
4.9580166e-06
-0.0001873716
-9.0300849e-06
-9.2502519e-06
-0.0003008709
-1.7424906e-05
-0.0003411463
-1.2240412e-05
1.3913477e-07
1.4705097e-06
1.1247e-05
1.8183523e-06
5.8646465e-06
4.1076238e-05
6.5769601e-06
1.2666907e-05
7.7782865e-05
1.055606e-05
2.0310864e-05
9.9370454e-05
1.0061987e-05
2.4720752e-05
6.8225704e-05
4.3112775e-06
2.1531654e-05
-3.5325958e-05
-4.1078833e-06
1.1225358e-05
-0.00017645135
-1.0797438e-05
-3.3918305e-07
-0.00028683356
-7.145524e-06
-0.00032674184
-1.2838912e-05
1.2207574e-07
1.3375204e-06
1.0012986e-05
1.5379177e-06
5.3804713e-06
3.6759181e-05
5.5380674e-06
1.1793536e-05
7.0026552e-05
8.4387808e-06
1.9491213e-05
9.0621307e-05
7.2215223e-06
2.5256228e-05
6.3864026e-05
1.3908589e-06
2.510363e-05
-3.0015845e-05
-6.195218e-06
1.8410337e-05
-0.00016139068
-1.1456013e-05
9.5741493e-06
-0.00026640347
4.2367647e-06
-0.00030471881
-1.2283869e-05
1.1144034e-07
1.2214325e-06
8.659109e-06
1.3028461e-06
4.9886404e-06
3.2015886e-05
4.5488884e-06
1.1165795e-05
6.1622197e-05
6.6739846e-06
1.9123117e-05
8.104924e-05
5.1463953e-06
2.6350846e-05
5.9540061e-05
-2.8751844e-07
2.9137347e-05
-2.2410268e-05
-6.7310157e-06
2.5856592e-05
-0.000140818
-1.0369807e-05
1.9528804e-05
-0.00023767188
1.5471883e-05
-0.00027306723
-9.8270961e-06
1.0391392e-07
1.1330458e-06
7.2356098e-06
1.1020256e-06
4.7123061e-06
2.7017636e-05
3.7043989e-06
1.0801996e-05
5.2765268e-05
5.4001729e-06
1.9153707e-05
7.1092144e-05
4.1380371e-06
2.7798614e-05
5.581743e-05
-2.8519598e-07
3.3301055e-05
-1.1670943e-05
-5.1653911e-06
3.3142864e-05
-0.00011339998
-6.9770904e-06
2.8962372e-05
-0.00019891027
2.5296857e-05
-0.00023007909
-4.5634447e-06
1.004944e-07
5.8923673e-06
1.0782155e-06
9.6247505e-07
2.2364756e-05
4.5395153e-06
3.2026282e-06
4.4723379e-05
1.0558235e-05
5.1343936e-06
6.275358e-05
1.9171867e-05
5.0504486e-06
5.5138616e-05
2.8962856e-05
2.6074773e-06
4.6465231e-06
3.6860499e-05
-2.5395467e-07
-7.6836356e-05
3.9819609e-05
-5.4283355e-07
-0.00014808328
3.7791734e-05
-0.00017399022
3.2928739e-05
3.6656975e-06
-3.1563388e-08
-3.0089883e-07
6.0884996e-06
1.3633105e-07
-3.9990583e-07
-1.3944995e-06
2.3451941e-05
6.7565407e-07
-1.3834093e-06
-3.6544147e-06
4.7486906e-05
1.8743739e-06
-2.2635807e-06
-7.75309e-06
6.7170894e-05
4.2159006e-06
-2.2424493e-06
-1.419105e-05
6.1115703e-05
8.1927271e-06
-6.6033418e-07
-2.2741075e-05
1.1927354e-05
1.3877963e-05
2.5231737e-06
-3.2032712e-05
-6.8478642e-05
2.0491334e-05
6.6839282e-06
-3.9666277e-05
-0.00013908804
2.6510192e-05
-4.3105962e-05
-0.00016538325
3.0482345e-05
1.070045e-05
-3.6497353e-08
-4.6276452e-07
7.4339743e-06
-4.7256441e-07
-2.1219e-06
2.8181095e-05
-1.6533873e-06
-5.4726473e-06
5.5764294e-05
-2.5910539e-06
-1.1328102e-05
7.5604748e-05
-2.4210731e-06
-2.0107662e-05
6.1563926e-05
-5.4432393e-07
-3.1213148e-05
-5.0757734e-06
2.8631819e-06
-4.2723935e-05
-0.0001061164
7.0246131e-06
-5.1618708e-05
-0.00019111949
-5.490069e-05
-0.00022233072
1.1070847e-05