/*--------------------------------*- C++ -*----------------------------------*\
| =========                 |                                                 |
| \\      /  F ield         | OpenFOAM: The Open Source CFD Toolbox           |
|  \\    /   O peration     | Version:  2406                                  |
|   \\  /    A nd           | Website:  www.openfoam.com                      |
|    \\/     M anipulation  |                                                 |
\*---------------------------------------------------------------------------*/
FoamFile
{
    version     2.0;
    format      ascii;
    arch        "LSB;label=32;scalar=64";
    class       volVectorField;
    location    "7.5";
    object      U;
}
// * * * * * * * * * * * * * * * * * * * * * * * * * * * * * * * * * * * * * //

dimensions      [0 1 -1 0 0 0 0];

internalField   nonuniform List<vector> 
34560
(
(0.013160873 -0.0016466479 0.0027222962)
(0.023426953 -0.0033407739 0.013194458)
(0.0012170927 -0.0033104832 0.034321797)
(-0.080454817 -0.0016579991 0.069855946)
(-0.23936405 0.00058634793 0.11644951)
(-0.45736283 0.0007672466 0.16219567)
(-0.68469047 7.4593102e-05 0.19393975)
(-0.87520299 0.0033205211 0.2063342)
(-1.0061227 0.011466905 0.20302085)
(0.015792966 -0.00086197664 0.0042163702)
(0.026820497 9.3793506e-05 0.018567165)
(-0.0034056855 0.0043270227 0.0454547)
(-0.10622368 0.011110098 0.087925544)
(-0.29498268 0.01737562 0.1393858)
(-0.5367185 0.019182832 0.18472631)
(-0.77038391 0.018954663 0.21128785)
(-0.95163391 0.02320141 0.21695962)
(-1.0691261 0.032925687 0.20740514)
(0.020272784 -0.0010657566 0.0047930696)
(0.036186192 0.00071711084 0.021148458)
(0.0025344261 0.0075948284 0.051777058)
(-0.11712729 0.018837052 0.099282959)
(-0.33141828 0.029246378 0.15427539)
(-0.59142785 0.033306135 0.19913654)
(-0.82684492 0.034617245 0.22228473)
(-0.99840253 0.040908799 0.22428434)
(-1.1046408 0.053239471 0.2123748)
(0.026478346 -0.0012408277 0.0053904499)
(0.051433003 0.0011054666 0.023426064)
(0.019468877 0.009953478 0.056965173)
(-0.11184494 0.024660053 0.10789298)
(-0.34628912 0.038743128 0.16490958)
(-0.62026467 0.045259094 0.20883734)
(-0.85587483 0.048701607 0.22993554)
(-1.0191495 0.057253003 0.23066506)
(-1.115979 0.071895613 0.21848157)
(0.034786823 -0.0019946574 0.0056074501)
(0.073930979 -0.00029739599 0.024370702)
(0.050028025 0.0093418805 0.059532609)
(-0.087075769 0.026823337 0.11269638)
(-0.33717001 0.044066834 0.17060706)
(-0.62232775 0.053697387 0.21464731)
(-0.85862266 0.060292087 0.23599082)
(-1.015645 0.07214837 0.23805468)
(-1.1032141 0.089316772 0.22768263)
(0.045602046 -0.003514406 0.0055187261)
(0.10510244 -0.0041379988 0.024276773)
(0.096955878 0.0045295882 0.06011054)
(-0.039226197 0.023788112 0.11481108)
(-0.30190641 0.044951127 0.17447183)
(-0.59749246 0.05899383 0.22025277)
(-0.83348963 0.069905598 0.24407315)
(-0.98292839 0.084934045 0.24919402)
(-1.0610521 0.10354291 0.24163693)
(0.059518902 -0.0057640651 0.0053101238)
(0.14713909 -0.010333583 0.023934142)
(0.16454847 -0.0045530254 0.060192323)
(0.038356264 0.015035196 0.1167925)
(-0.23191323 0.039869259 0.17936595)
(-0.53600675 0.059347812 0.22901108)
(-0.7711252 0.075497359 0.25757346)
(-0.9129344 0.093926174 0.26732045)
(-0.98160305 0.11375094 0.26338766)
(0.077142529 -0.0086466455 0.0052274231)
(0.20234045 -0.018690953 0.023965746)
(0.25726136 -0.017505432 0.061533446)
(0.1529921 0.00093523099 0.12190149)
(-0.1190846 0.029220659 0.19058351)
(-0.42898792 0.05471948 0.24695586)
(-0.66160239 0.076361033 0.2823695)
(-0.79467019 0.097749188 0.29759088)
(-0.85328903 0.11805398 0.29701787)
(0.09834258 -0.01151057 0.0055781356)
(0.27041567 -0.02732868 0.025577682)
(0.37425835 -0.031384571 0.067032814)
(0.30504606 -0.015505427 0.13500636)
(0.039740428 0.014927595 0.21455405)
(-0.27023772 0.045293547 0.28066572)
(-0.49584925 0.071179712 0.32439512)
(-0.61729732 0.094039076 0.34491209)
(-0.66486675 0.11362969 0.34626144)
(0.12131207 -0.012853579 0.0066719895)
(0.34541102 -0.031893326 0.029530043)
(0.50550848 -0.039464806 0.079661006)
(0.48139341 -0.027340669 0.15890821)
(0.23387769 0.0016564343 0.25428257)
(-0.066323921 0.032497258 0.33277312)
(-0.2772325 0.058971531 0.38513414)
(-0.38299636 0.080458519 0.40963772)
(-0.41896712 0.097323973 0.41080894)
(0.14201733 -0.010585351 0.0082989491)
(0.41348438 -0.026721453 0.035682233)
(0.62711899 -0.034243356 0.095614608)
(0.64796742 -0.026685294 0.18864723)
(0.42675683 -0.0052672837 0.30142039)
(0.14608658 0.01873045 0.39390717)
(-0.043394812 0.039474831 0.45364785)
(-0.13119471 0.055521273 0.47996416)
(-0.15729109 0.066566668 0.47975736)
(0.15459207 -0.0041159357 0.0095510096)
(0.45525113 -0.010448602 0.040390433)
(0.70269723 -0.013554303 0.1075144)
(0.75271539 -0.010954789 0.21050982)
(0.55188307 -0.0029904594 0.33563744)
(0.28889431 0.0061888996 0.43767901)
(0.11631685 0.014210673 0.50166066)
(0.041129084 0.02025072 0.52834101)
(0.020209278 0.024147741 0.52636979)
(0.15459203 0.0041156998 0.0095510169)
(0.45525098 0.010447872 0.040390423)
(0.70269698 0.013553058 0.10751442)
(0.75271505 0.010953055 0.21050988)
(0.55188267 0.0029886124 0.33563748)
(0.28889391 -0.0061905833 0.43767907)
(0.11631652 -0.014212073 0.50166074)
(0.04112881 -0.020251933 0.52834109)
(0.020208997 -0.024148949 0.52636989)
(0.14201723 0.010585068 0.0082989875)
(0.41348404 0.026720636 0.035682231)
(0.62711836 0.034242052 0.095614719)
(0.64796647 0.02668358 0.1886474)
(0.42675573 0.0052655752 0.3014205)
(0.14608554 -0.018731941 0.39390733)
(-0.043395654 -0.03947604 0.45364806)
(-0.1311954 -0.055522373 0.47996441)
(-0.15729181 -0.066567834 0.47975768)
(0.12131195 0.012853329 0.0066720319)
(0.34541059 0.031892582 0.029530014)
(0.50550766 0.039463607 0.079661131)
(0.48139209 0.027339161 0.15890841)
(0.23387621 -0.0016578901 0.25428274)
(-0.06632528 -0.032498498 0.33277341)
(-0.27723361 -0.058972528 0.38513449)
(-0.38299728 -0.080459489 0.40963812)
(-0.41896812 -0.097325082 0.41080951)
(0.098342446 0.011510411 0.0055781689)
(0.27041523 0.027328126 0.025577725)
(0.37425752 0.031383566 0.067033118)
(0.30504475 0.015504173 0.13500679)
(0.039738965 -0.014928831 0.21455448)
(-0.27023906 -0.045294572 0.28066619)
(-0.49585037 -0.071180554 0.32439559)
(-0.61729823 -0.094039952 0.34491257)
(-0.66486779 -0.1136307 0.34626214)
(0.077142414 0.0086465194 0.00522747)
(0.20234008 0.018690523 0.023966071)
(0.25726064 0.017504556 0.061534075)
(0.15299096 -0.00093627288 0.12190213)
(-0.11908589 -0.029221662 0.19058409)
(-0.42898907 -0.054720222 0.24695633)
(-0.66160337 -0.076361696 0.28236997)
(-0.79467096 -0.097749956 0.29759133)
(-0.85328991 -0.11805495 0.29701852)
(0.059518801 0.0057639359 0.0053101652)
(0.14713876 0.010333313 0.023934559)
(0.16454786 0.0045524562 0.060192723)
(0.03835531 -0.015035931 0.11679277)
(-0.23191431 -0.039869902 0.17936631)
(-0.53600767 -0.059348223 0.2290114)
(-0.77112599 -0.075497801 0.25757387)
(-0.91293496 -0.093926816 0.26732081)
(-0.98160373 -0.11375202 0.26338829)
(0.045601966 0.0035143244 0.0055187228)
(0.10510218 0.0041378034 0.024276767)
(0.096955369 -0.0045299388 0.060110546)
(-0.039226984 -0.023788618 0.11481125)
(-0.30190734 -0.044951438 0.17447209)
(-0.59749326 -0.058994104 0.22025302)
(-0.83349024 -0.069905906 0.24407346)
(-0.98292877 -0.084934642 0.24919436)
(-1.0610526 -0.10354424 0.24163767)
(0.034786746 0.0019945812 0.0056074797)
(0.073930734 0.00029725126 0.024370873)
(0.050027588 -0.0093421269 0.059532927)
(-0.08707642 -0.026823745 0.11269655)
(-0.33717081 -0.04406714 0.17060716)
(-0.62232841 -0.053697585 0.21464748)
(-0.85862317 -0.060292359 0.23599096)
(-1.0156453 -0.072149124 0.23805518)
(-1.1032144 -0.08931829 0.22768333)
(0.026478288 0.0012407678 0.0053904908)
(0.051432814 -0.0011055935 0.023426182)
(0.019468524 -0.0099536761 0.056965231)
(-0.11184546 -0.024660282 0.10789292)
(-0.34628971 -0.038743489 0.16490953)
(-0.62026522 -0.045259309 0.20883725)
(-0.85587524 -0.048701997 0.22993575)
(-1.0191499 -0.057253862 0.23066576)
(-1.1159794 -0.071896958 0.21848194)
(0.020272726 0.0010657459 0.0047930486)
(0.036186011 -0.00071712444 0.021148439)
(0.0025341017 -0.0075948571 0.05177705)
(-0.11712775 -0.018837091 0.099283044)
(-0.33141886 -0.029246638 0.15427534)
(-0.59142842 -0.033306557 0.19913651)
(-0.82684546 -0.034617813 0.22228506)
(-0.99840294 -0.040909778 0.22428478)
(-1.1046411 -0.053240945 0.21237547)
(0.015792911 0.00086196996 0.0042163654)
(0.026820329 -9.3751026e-05 0.018567227)
(-0.0034059832 -0.0043270051 0.045454799)
(-0.1062241 -0.011110083 0.087925734)
(-0.29498322 -0.017375681 0.13938597)
(-0.53671904 -0.019183331 0.18472651)
(-0.77038443 -0.018955572 0.21128835)
(-0.95163449 -0.023202298 0.21696037)
(-1.0691266 -0.032927297 0.20740604)
(0.01316082 0.001646628 0.0027223151)
(0.023426795 0.0033407823 0.013194543)
(0.0012168186 0.0033105351 0.03432197)
(-0.080455194 0.0016581226 0.069856209)
(-0.2393645 -0.00058614124 0.11644982)
(-0.45736339 -0.00076707285 0.16219612)
(-0.68469106 -7.499298e-05 0.19393993)
(-0.8752035 -0.0033214348 0.20633505)
(-1.0061235 -0.01146784 0.20302252)
(0.048089147 0.00055826433 0.00038745974)
(0.13801195 0.0013535688 0.00071443538)
(0.21930107 0.001625663 -0.00012378947)
(0.26567535 0.0001740849 -0.00304934)
(0.24870343 -0.0044201144 -0.008906496)
(0.15605056 -0.013047373 -0.016996582)
(0.0083699136 -0.024747728 -0.025001484)
(-0.14835985 -0.037120896 -0.030852963)
(-0.26975231 -0.049187502 -0.033772179)
(0.054259182 -0.00019232273 -0.00033734265)
(0.15329307 -0.0011599362 -0.0016935051)
(0.23860935 -0.0031320742 -0.0048191173)
(0.28020648 -0.007318174 -0.010491819)
(0.24896008 -0.014985736 -0.019045618)
(0.13754466 -0.026579411 -0.028785785)
(-0.02464581 -0.040392135 -0.036782432)
(-0.18608577 -0.053631099 -0.04135886)
(-0.30648314 -0.06504542 -0.043239203)
(0.060696596 -0.0011033028 -0.0010329484)
(0.16968437 -0.0041938163 -0.0040654754)
(0.26047886 -0.0087967036 -0.0095290848)
(0.29965877 -0.015920312 -0.017903742)
(0.25765573 -0.026388329 -0.028762508)
(0.13208249 -0.039974509 -0.039363803)
(-0.03998233 -0.054507932 -0.046569536)
(-0.2036848 -0.067495569 -0.049734027)
(-0.3226944 -0.078227811 -0.050244174)
(0.066677485 -0.0023494991 -0.0017804656)
(0.18493068 -0.0082044166 -0.0065895595)
(0.28095908 -0.016021058 -0.014519729)
(0.31853855 -0.026381439 -0.025696406)
(0.26782865 -0.039420354 -0.03870145)
(0.13109167 -0.054219531 -0.049755625)
(-0.048009624 -0.06856189 -0.055808427)
(-0.21257362 -0.080762757 -0.057416897)
(-0.33023402 -0.090875137 -0.056653077)
(0.072060856 -0.0038327508 -0.0024655271)
(0.19868017 -0.012915476 -0.0089298661)
(0.29949185 -0.024347792 -0.019228207)
(0.33589249 -0.038084989 -0.033117642)
(0.27767599 -0.053375481 -0.048042917)
(0.13139415 -0.068694252 -0.059332428)
(-0.053442723 -0.082220526 -0.064187472)
(-0.21841609 -0.093310161 -0.064365577)
(-0.33473381 -0.10259626 -0.062470774)
(0.0769154 -0.0055216688 -0.0029982949)
(0.21109152 -0.018171911 -0.010799293)
(0.31624807 -0.033409015 -0.023194339)
(0.35170974 -0.050404056 -0.039549953)
(0.28665026 -0.067363078 -0.056059444)
(0.13149312 -0.082448689 -0.067408038)
(-0.058882189 -0.094638251 -0.071160899)
(-0.22453487 -0.10433465 -0.07018948)
(-0.33963491 -0.112562 -0.067445928)
(0.081285355 -0.0073122355 -0.003346972)
(0.22234453 -0.023577576 -0.012045499)
(0.3315767 -0.042416901 -0.026022209)
(0.36637301 -0.062112025 -0.044374454)
(0.29498552 -0.079830953 -0.06207779)
(0.13108591 -0.093982566 -0.073306193)
(-0.065251585 -0.10449681 -0.076172918)
(-0.23229274 -0.11262961 -0.074445751)
(-0.34649297 -0.11956623 -0.071195891)
(0.085427403 -0.0088760426 -0.0033815068)
(0.23330152 -0.028105306 -0.012273029)
(0.34684283 -0.049577884 -0.026989814)
(0.38109521 -0.070649737 -0.046444808)
(0.3042059 -0.088037844 -0.065098763)
(0.13133398 -0.10069386 -0.076090418)
(-0.071831774 -0.10949456 -0.078474166)
(-0.24123146 -0.11606814 -0.076508561)
(-0.35493343 -0.12156675 -0.073164321)
(0.08956039 -0.0097001895 -0.0030294162)
(0.24469959 -0.030242667 -0.011238529)
(0.36357001 -0.052436651 -0.025662281)
(0.39786555 -0.072981076 -0.045406584)
(0.31561771 -0.088976865 -0.064787504)
(0.13374992 -0.099723682 -0.075294663)
(-0.076857391 -0.10676988 -0.077490947)
(-0.24944111 -0.11188327 -0.075834747)
(-0.36323144 -0.11590145 -0.072845546)
(0.093713031 -0.0092020372 -0.0023203)
(0.25668262 -0.028308998 -0.0090555141)
(0.38221235 -0.048363959 -0.022184927)
(0.41793149 -0.06603474 -0.041132034)
(0.32994292 -0.079095988 -0.060645136)
(0.13903317 -0.087119471 -0.070724183)
(-0.079087602 -0.09256065 -0.07307017)
(-0.25512297 -0.096291265 -0.072257407)
(-0.36930854 -0.098835113 -0.070040981)
(0.097461439 -0.0068794178 -0.0014530859)
(0.26779398 -0.020891677 -0.0063132642)
(0.4002363 -0.035224674 -0.017440772)
(0.43837622 -0.047296606 -0.034588861)
(0.34485324 -0.055570625 -0.053135769)
(0.14637984 -0.06047647 -0.064185263)
(-0.077941004 -0.064112001 -0.066678774)
(-0.25689034 -0.066450844 -0.066946986)
(-0.3715501 -0.067762779 -0.065689956)
(0.099824964 -0.0025837864 -0.00085151501)
(0.27506198 -0.0077848228 -0.0043870244)
(0.41254441 -0.013008139 -0.013940514)
(0.45317757 -0.017280172 -0.029523214)
(0.35653387 -0.020073136 -0.047360478)
(0.15278437 -0.021711193 -0.059293942)
(-0.075405266 -0.023040187 -0.061740733)
(-0.25617686 -0.023846424 -0.062803448)
(-0.37120745 -0.024226058 -0.062239564)
(0.099824959 0.0025837953 -0.00085152088)
(0.27506196 0.0077848902 -0.0043870314)
(0.41254438 0.013008303 -0.013940538)
(0.45317755 0.017280451 -0.029523246)
(0.35653387 0.020073641 -0.047360516)
(0.15278436 0.021711907 -0.059293966)
(-0.075405283 0.023040988 -0.061740739)
(-0.25617689 0.023847142 -0.062803436)
(-0.37120751 0.024226589 -0.062239543)
(0.097461432 0.0068793915 -0.0014530901)
(0.26779395 0.020891683 -0.0063133012)
(0.40023625 0.035224794 -0.017440823)
(0.43837617 0.047296885 -0.034588925)
(0.34485321 0.055571194 -0.05313587)
(0.14637981 0.060477268 -0.064185326)
(-0.077941059 0.064112881 -0.066678782)
(-0.25689042 0.066451601 -0.066946942)
(-0.37155027 0.067763324 -0.065689877)
(0.09371303 0.0092020056 -0.0023202999)
(0.2566826 0.02830898 -0.0090556127)
(0.38221231 0.048364056 -0.022185013)
(0.4179314 0.066035032 -0.041132123)
(0.32994285 0.079096608 -0.060645275)
(0.13903309 0.087120319 -0.070724256)
(-0.0790877 0.092561574 -0.073070158)
(-0.2551231 0.096292039 -0.07225732)
(-0.36930878 0.09883566 -0.070040837)
(0.08956038 0.0097002025 -0.0030294256)
(0.24469956 0.030242716 -0.011238626)
(0.36356994 0.052436772 -0.025662337)
(0.39786542 0.072981374 -0.045406642)
(0.31561759 0.088977452 -0.064787599)
(0.1337498 0.099724495 -0.075294708)
(-0.076857533 0.10677078 -0.077490917)
(-0.24944129 0.11188404 -0.075834649)
(-0.3632317 0.11590199 -0.072845391)
(0.085427386 0.008876059 -0.0033815131)
(0.23330148 0.028105385 -0.012272957)
(0.34684277 0.049577993 -0.026989688)
(0.3810951 0.070650007 -0.046444766)
(0.30420576 0.088038362 -0.065098797)
(0.13133383 0.10069463 -0.076090469)
(-0.071831941 0.10949543 -0.078474169)
(-0.24123165 0.11606889 -0.076508533)
(-0.35493368 0.12156725 -0.073164224)
(0.081285332 0.0073122266 -0.0033469787)
(0.22234448 0.023577673 -0.012045361)
(0.33157664 0.042417047 -0.026022145)
(0.36637289 0.062112291 -0.044374544)
(0.29498534 0.079831471 -0.062077915)
(0.13108572 0.093983357 -0.07330634)
(-0.065251771 0.10449767 -0.076173006)
(-0.23229293 0.11263032 -0.074445834)
(-0.34649321 0.11956655 -0.071195819)
(0.076915378 0.0055216563 -0.0029983045)
(0.21109146 0.018171985 -0.010799295)
(0.31624798 0.033409176 -0.023194399)
(0.35170958 0.050404335 -0.039550064)
(0.28665007 0.067363655 -0.056059637)
(0.1314929 0.082449463 -0.067408249)
(-0.058882414 0.094639075 -0.071161076)
(-0.2245351 0.10433527 -0.070189606)
(-0.33963516 0.11256204 -0.067445801)
(0.07206082 0.0038327328 -0.0024655314)
(0.19868007 0.012915536 -0.0089298515)
(0.2994917 0.024347952 -0.019228217)
(0.33589231 0.038085282 -0.033117827)
(0.27767574 0.053376028 -0.048043206)
(0.13139386 0.068695016 -0.059332709)
(-0.053443025 0.082221261 -0.064187762)
(-0.21841639 0.093310532 -0.064365635)
(-0.33473407 0.10259608 -0.062470697)
(0.066677451 0.0023494807 -0.0017804404)
(0.18493058 0.0082044393 -0.0065895361)
(0.28095891 0.016021186 -0.014519778)
(0.3185383 0.026381764 -0.025696563)
(0.26782829 0.039420836 -0.0387017)
(0.13109127 0.054220263 -0.049755995)
(-0.048010032 0.068562499 -0.055808651)
(-0.212574 0.080762955 -0.057416972)
(-0.33023432 0.090874985 -0.056653393)
(0.060696546 0.0011033052 -0.0010329576)
(0.16968422 0.0041938958 -0.0040655156)
(0.2604786 0.0087969043 -0.0095291923)
(0.29965842 0.015920708 -0.017903903)
(0.25765532 0.026388844 -0.028762906)
(0.13208199 0.039975122 -0.039364263)
(-0.039982838 0.054508475 -0.046569882)
(-0.20368525 0.067495713 -0.049734562)
(-0.32269475 0.078227485 -0.050244608)
(0.054259126 0.00019234995 -0.00033736814)
(0.15329291 0.0011600968 -0.0016935635)
(0.23860908 0.0031323682 -0.0048192448)
(0.28020611 0.0073186583 -0.010492009)
(0.24895964 0.014986381 -0.019045991)
(0.13754414 0.02657993 -0.028786265)
(-0.024646348 0.040392426 -0.036782994)
(-0.18608624 0.053631062 -0.041359502)
(-0.30648347 0.065044568 -0.043239469)
(0.048089091 -0.00055825128 0.00038744834)
(0.13801179 -0.0013534756 0.00071439221)
(0.21930079 -0.0016254563 -0.00012387878)
(0.26567497 -0.00017373252 -0.0030495305)
(0.24870299 0.004420654 -0.0089068521)
(0.15605014 0.013047943 -0.016997131)
(0.0083695285 0.024747997 -0.025002401)
(-0.14836021 0.037120608 -0.030853622)
(-0.2697526 0.049187027 -0.033772137)
(0.028062738 -0.00072385057 -0.0006603983)
(0.076388094 -0.0021596852 -0.0019928426)
(0.11119743 -0.0036281347 -0.0034364151)
(0.11189777 -0.0049712738 -0.0047088699)
(0.05723294 -0.0061310809 -0.0053047366)
(-0.060651869 -0.0070426297 -0.0048259085)
(-0.22206631 -0.0076055367 -0.0034108394)
(-0.38603846 -0.0077290372 -0.0019362921)
(-0.51171755 -0.0076588599 -0.0013131375)
(0.03131445 -0.00075941258 -0.00061087195)
(0.083454119 -0.0022032237 -0.0018290848)
(0.11754043 -0.0035671336 -0.0031387851)
(0.11045393 -0.0046488795 -0.0042183787)
(0.040855389 -0.0053924619 -0.0044831739)
(-0.094590258 -0.0057666254 -0.0035658537)
(-0.26844288 -0.0057737634 -0.0017902524)
(-0.43486801 -0.0054924302 -0.00016817931)
(-0.55766277 -0.0052212535 0.00025418732)
(0.034876672 -0.0008082097 -0.00056305293)
(0.091857669 -0.002296797 -0.0016861856)
(0.12701364 -0.0036038336 -0.0029203006)
(0.11499348 -0.004460363 -0.0039317669)
(0.03462188 -0.0047937532 -0.0040459093)
(-0.11311445 -0.0046260969 -0.0028899243)
(-0.29425125 -0.004108486 -0.00088279696)
(-0.46039087 -0.0034799435 0.00092262661)
(-0.57965645 -0.0029935852 0.0015118605)
(0.038181528 -0.00087681597 -0.00052832968)
(0.099793801 -0.0024576125 -0.0015920497)
(0.13639295 -0.0037680332 -0.0028062764)
(0.12083103 -0.0044486944 -0.0038328783)
(0.032395186 -0.0043753182 -0.0039027134)
(-0.12391071 -0.0036319371 -0.0026155066)
(-0.30880242 -0.0025639787 -0.00044666387)
(-0.47273326 -0.001567487 0.0015653098)
(-0.58808347 -0.00084139168 0.002391987)
(0.041156224 -0.00095385223 -0.00049710959)
(0.10704943 -0.0026624333 -0.001520189)
(0.14526494 -0.0040366705 -0.002751485)
(0.12715997 -0.004600368 -0.0038595717)
(0.03260937 -0.0041444999 -0.003989197)
(-0.12972986 -0.0028231242 -0.0026759898)
(-0.3161401 -0.0011911639 -0.0004064604)
(-0.47664882 0.00018057397 0.0018026456)
(-0.58765789 0.0011299356 0.0029028016)
(0.043789405 -0.0010398814 -0.00045819471)
(0.11354451 -0.0029111751 -0.0014372628)
(0.1534032 -0.0044005989 -0.0027028439)
(0.13346208 -0.0049019401 -0.0039535171)
(0.034242911 -0.0041112448 -0.0042412251)
(-0.13237261 -0.0022461786 -0.0030101984)
(-0.31889789 -8.0414542e-05 -0.00071371617)
(-0.47533304 0.0016291258 0.0016688976)
(-0.58170696 0.0027537835 0.0030551543)
(0.046056605 -0.0011201873 -0.00041227538)
(0.11920648 -0.0031544471 -0.0013383559)
(0.16070249 -0.0047810518 -0.0026420351)
(0.13956302 -0.0052690868 -0.0040675524)
(0.036892171 -0.0042194627 -0.0046007334)
(-0.13268054 -0.0019093964 -0.0035550806)
(-0.3185151 0.00066820531 -0.0013066301)
(-0.47076718 0.0026327586 0.0012229199)
(-0.5725534 0.0038573512 0.0028968579)
(0.048078322 -0.0011718015 -0.00035363954)
(0.12438979 -0.0033226619 -0.0012008357)
(0.16768989 -0.0050701193 -0.0025356477)
(0.14605483 -0.0055801795 -0.0041435767)
(0.040961699 -0.0043777482 -0.0050014001)
(-0.13068594 -0.0018052428 -0.0042307588)
(-0.31563579 0.00099926632 -0.0020892093)
(-0.46412914 0.0030823064 0.00055617802)
(-0.56177321 0.0043172153 0.0025035546)
(0.049904644 -0.0011606516 -0.00027779525)
(0.12922256 -0.0033127238 -0.0010101317)
(0.17452788 -0.0050927015 -0.0023470352)
(0.15300886 -0.0056277278 -0.0041602939)
(0.046321745 -0.0044032323 -0.0053972171)
(-0.12680408 -0.0018139037 -0.0049476492)
(-0.31096302 0.0009575058 -0.0029476128)
(-0.45640527 0.0029669527 -0.00021651075)
(-0.55062486 0.0041039341 0.0019684161)
(0.051472693 -0.0010334354 -0.00018483358)
(0.13348141 -0.0029660035 -0.00076521353)
(0.1807808 -0.0045912263 -0.0020757512)
(0.15974379 -0.0051003789 -0.0041110314)
(0.052104706 -0.0040113951 -0.0057570485)
(-0.12202365 -0.0017225387 -0.0056198769)
(-0.30554494 0.00067913203 -0.0037578696)
(-0.44871431 0.0023851655 -0.00097210922)
(-0.54036621 0.0033081931 0.0013995506)
(0.052638294 -0.00074029896 -9.1816229e-05)
(0.13665915 -0.0021297896 -0.00051247028)
(0.18551036 -0.0033111561 -0.0017774998)
(0.16497216 -0.0036935161 -0.0040178162)
(0.056847233 -0.0029180131 -0.0060416603)
(-0.11784485 -0.001300739 -0.006163162)
(-0.30080898 0.00036157532 -0.0044027686)
(-0.44241791 0.0015170837 -0.0015917822)
(-0.53242385 0.0020912471 0.00087976435)
(0.053314992 -0.00027401186 -3.3121906e-05)
(0.13856241 -0.00078859185 -0.00034942277)
(0.18843513 -0.00122652 -0.0015753333)
(0.16831155 -0.0013665984 -0.0039463836)
(0.05998019 -0.0010758379 -0.0062164997)
(-0.11507497 -0.0004829979 -0.0064864325)
(-0.29784493 0.00011471166 -0.0047737223)
(-0.43880035 0.00051382888 -0.0019655048)
(-0.52801705 0.00071749949 0.00059922473)
(0.053314988 0.00027396325 -3.3121054e-05)
(0.1385624 0.00078850741 -0.00034941964)
(0.18843512 0.0012264394 -0.0015753345)
(0.16831153 0.0013665701 -0.0039463859)
(0.059980171 0.0010759508 -0.0062165058)
(-0.11507499 0.00048324976 -0.0064864312)
(-0.29784494 -0.00011440718 -0.0047737048)
(-0.43880037 -0.0005136111 -0.0019654666)
(-0.52801707 -0.00071747073 0.00059928235)
(0.052638286 0.00074024431 -9.1812048e-05)
(0.13665913 0.0021296962 -0.00051246834)
(0.18551032 0.0033110728 -0.0017775034)
(0.16497211 0.0036935049 -0.0040178247)
(0.056847171 0.002918171 -0.0060416852)
(-0.11784491 0.0013010522 -0.0061631622)
(-0.30080904 -0.00036120902 -0.0044027159)
(-0.44241796 -0.0015168242 -0.0015916684)
(-0.53242391 -0.0020911998 0.00087993928)
(0.051472685 0.001033384 -0.00018482841)
(0.13348139 0.0029659165 -0.00076521581)
(0.18078074 0.0045911527 -0.002075763)
(0.15974371 0.005100402 -0.0041110518)
(0.052104605 0.0040116137 -0.0057570896)
(-0.12202376 0.0017229274 -0.0056198754)
(-0.30554503 -0.00067868908 -0.0037577822)
(-0.44871439 -0.0023848531 -0.00097192723)
(-0.54036629 -0.0033081227 0.0013998344)
(0.049904633 0.0011606139 -0.00027779305)
(0.12922252 0.0033126674 -0.0010101201)
(0.1745278 0.0050926526 -0.0023470386)
(0.15300875 0.0056277846 -0.0041603113)
(0.046321606 0.0044034905 -0.0053972533)
(-0.12680422 0.001814347 -0.0049476431)
(-0.31096315 -0.00095700509 -0.0029475064)
(-0.45640537 -0.0029665929 -0.00021629532)
(-0.55062495 -0.0041038414 0.0019687551)
(0.048078304 0.0011717666 -0.00035363395)
(0.12438973 0.0033226272 -0.0012007745)
(0.1676898 0.0050700892 -0.0025355997)
(0.14605469 0.0055802583 -0.0041435619)
(0.040961527 0.004378031 -0.0050014241)
(-0.1306861 0.0018057342 -0.00423077)
(-0.31563595 -0.0009987194 -0.0020891253)
(-0.46412925 -0.0030819138 0.00055635976)
(-0.56177329 -0.0043171327 0.0025038755)
(0.046056583 0.0011201512 -0.0004122693)
(0.11920642 0.0031544313 -0.0013382853)
(0.16070238 0.0047810549 -0.0026419952)
(0.13956286 0.0052691952 -0.0040675617)
(0.036891965 0.0042197906 -0.0046007962)
(-0.13268076 0.0019099486 -0.0035551543)
(-0.31851529 -0.00066761317 -0.0013066163)
(-0.4707673 -0.0026323656 0.0012230084)
(-0.57255349 -0.0038573676 0.0028971286)
(0.043789379 0.0010398435 -0.00045818686)
(0.11354443 0.00291116 -0.0014372107)
(0.15340306 0.0044006233 -0.002702811)
(0.13346188 0.004902087 -0.0039535305)
(0.034242658 0.0041116384 -0.0042413413)
(-0.13237289 0.0022467808 -0.0030103477)
(-0.31889813 8.103966e-05 -0.00071380506)
(-0.47533321 -0.0016287847 0.0016688817)
(-0.58170707 -0.0027539868 0.0030553777)
(0.041156195 0.00095381614 -0.00049709681)
(0.10704934 0.0026624271 -0.0015201411)
(0.14526479 0.0040367208 -0.0027514695)
(0.12715975 0.0046005717 -0.0038596451)
(0.032609065 0.0041449516 -0.0039893897)
(-0.1297302 0.0028237779 -0.0026762398)
(-0.31614042 0.001191796 -0.00040668445)
(-0.47664905 -0.00018034109 0.0018025464)
(-0.58765803 -0.0011303129 0.0029029222)
(0.038181497 0.00087678606 -0.0005283107)
(0.099793705 0.0024576143 -0.0015920166)
(0.13639278 0.0037681119 -0.0028062882)
(0.12083077 0.0044489614 -0.0038329658)
(0.032394835 0.0043758126 -0.003902942)
(-0.12391111 0.003632617 -0.0026158707)
(-0.30880279 0.0025645615 -0.00044697739)
(-0.47273354 0.001567631 0.0015650841)
(-0.58808365 0.00084098667 0.0023918422)
(0.034876643 0.000808192 -0.0005630429)
(0.091857576 0.0022968366 -0.0016861743)
(0.12701347 0.0036039713 -0.0029203466)
(0.11499321 0.004460702 -0.0039318969)
(0.034621522 0.0047943094 -0.004046241)
(-0.11311488 0.0046267701 -0.0028904026)
(-0.29425166 0.0041090004 -0.00088327596)
(-0.46039118 0.0034800193 0.00092205818)
(-0.57965667 0.0029932039 0.0015114585)
(0.031314418 0.00075941886 -0.00061087788)
(0.083454024 0.0022033267 -0.0018291189)
(0.11754026 0.003567365 -0.0031388985)
(0.11045368 0.0046493239 -0.0042186015)
(0.040855054 0.0053931263 -0.0044836006)
(-0.094590655 0.0057673001 -0.0035664436)
(-0.26844328 0.0057741478 -0.0017909358)
(-0.43486836 0.0054922575 -0.00016897126)
(-0.55766302 0.0052207051 0.00025365933)
(0.028062713 0.00072386957 -0.0006604144)
(0.076388022 0.0021597868 -0.0019929178)
(0.1111973 0.003628354 -0.0034365803)
(0.11189759 0.0049716641 -0.0047091822)
(0.057232728 0.0061316811 -0.005305255)
(-0.060652096 0.0070432955 -0.0048266163)
(-0.22206655 0.0076059607 -0.0034117602)
(-0.38603873 0.0077288096 -0.0019374789)
(-0.51171776 0.0076584157 -0.0013135046)
(0.038000067 -0.00014180106 -0.00012732266)
(0.10692793 -0.00049981196 -0.00040901085)
(0.16471275 -0.0010584566 -0.0007124421)
(0.18786382 -0.0018652846 -0.0010344795)
(0.15122611 -0.0028866752 -0.0014236337)
(0.044151839 -0.0040549437 -0.0018958783)
(-0.11350736 -0.0053165359 -0.0023904925)
(-0.27829167 -0.0066491523 -0.0027642693)
(-0.40641086 -0.0079998539 -0.0028970785)
(0.04241594 -0.0002531977 -0.00020278152)
(0.11718025 -0.00085055508 -0.00063463996)
(0.17589091 -0.001697825 -0.0010821615)
(0.19194841 -0.0028159047 -0.0015284493)
(0.13982242 -0.0041184826 -0.0020278515)
(0.013742028 -0.0055029513 -0.0025951236)
(-0.15797039 -0.006908359 -0.0031656835)
(-0.32660108 -0.0082927535 -0.0035930329)
(-0.45308939 -0.0095310771 -0.0037722342)
(0.04699155 -0.00034356624 -0.00024040517)
(0.12829848 -0.0011412567 -0.00075018369)
(0.18936827 -0.0022319811 -0.0012672427)
(0.20087606 -0.0036039385 -0.0017654012)
(0.13720001 -0.0051129998 -0.0023162392)
(-0.0026641726 -0.0066187693 -0.0029455214)
(-0.18313537 -0.0080579769 -0.0035938666)
(-0.35263898 -0.0093915978 -0.0041210157)
(-0.47660506 -0.01050078 -0.0043910836)
(0.051101573 -0.00043339085 -0.00026501854)
(0.13829711 -0.0014230921 -0.00082321377)
(0.20161146 -0.0027308471 -0.0013774218)
(0.20954983 -0.004304578 -0.0018944217)
(0.1368059 -0.0059485849 -0.0024668102)
(-0.013116738 -0.0074963207 -0.0031403572)
(-0.19866826 -0.0088966228 -0.0038645421)
(-0.36693726 -0.010132659 -0.0044951475)
(-0.4878124 -0.011119031 -0.0048635035)
(0.054627597 -0.00050819087 -0.00027031228)
(0.14685316 -0.0016579742 -0.00083840569)
(0.21206301 -0.0031383127 -0.0013962417)
(0.21702718 -0.0048567566 -0.0019079617)
(0.13698203 -0.0065760147 -0.0024833083)
(-0.020425912 -0.0081067288 -0.0031949908)
(-0.20868397 -0.0094214947 -0.0039972358)
(-0.37437232 -0.010531764 -0.0047271507)
(-0.49157263 -0.011377158 -0.0051802244)
(0.057571181 -0.00056625913 -0.00025595832)
(0.15391881 -0.0018368076 -0.00079256237)
(0.22054201 -0.0034346574 -0.0013138836)
(0.22285779 -0.0052293902 -0.0017913561)
(0.13679582 -0.0069498091 -0.0023565515)
(-0.026275019 -0.0084030634 -0.0031070243)
(-0.21574254 -0.0095897609 -0.0039882014)
(-0.37811203 -0.010541871 -0.0048051302)
(-0.49120011 -0.011240066 -0.0053381682)
(0.059899864 -0.00060083225 -0.00022783772)
(0.15941621 -0.0019373437 -0.00070223838)
(0.22694406 -0.0035826166 -0.0011537908)
(0.22689 -0.0053738068 -0.0015689483)
(0.13591644 -0.0070187464 -0.0021086626)
(-0.03141629 -0.0083348315 -0.0028916624)
(-0.22118338 -0.0093489772 -0.0038418211)
(-0.37999273 -0.010127302 -0.0047450251)
(-0.48885405 -0.010676712 -0.0053587619)
(0.061730397 -0.00059810895 -0.00018600496)
(0.16370944 -0.0019200553 -0.0005698256)
(0.23187765 -0.0035194013 -0.00092392315)
(0.22986092 -0.0052136859 -0.0012554724)
(0.13496651 -0.0067076012 -0.0017585465)
(-0.03563711 -0.0078324676 -0.002566792)
(-0.22532875 -0.0086520634 -0.0035868664)
(-0.38085718 -0.0092543768 -0.0045826001)
(-0.48578221 -0.0096607515 -0.0052781154)
(0.063144299 -0.00054813225 -0.00013543218)
(0.16703528 -0.0017538417 -0.00041103913)
(0.23571624 -0.0031923038 -0.00065189521)
(0.23220181 -0.0046812639 -0.00088868029)
(0.1342957 -0.0059466692 -0.0013487819)
(-0.038794727 -0.0068492283 -0.0021814332)
(-0.22833076 -0.0074664987 -0.0032730437)
(-0.381142 -0.0079043871 -0.0043646341)
(-0.48270347 -0.0081819684 -0.0051371428)
(0.064173313 -0.00044592077 -8.3260576e-05)
(0.16946527 -0.0014233151 -0.00024829258)
(0.23853493 -0.0025766679 -0.00037669551)
(0.23394684 -0.0037477631 -0.00052540508)