/*--------------------------------*- C++ -*----------------------------------*\
| =========                 |                                                 |
| \\      /  F ield         | OpenFOAM: The Open Source CFD Toolbox           |
|  \\    /   O peration     | Version:  2406                                  |
|   \\  /    A nd           | Website:  www.openfoam.com                      |
|    \\/     M anipulation  |                                                 |
\*---------------------------------------------------------------------------*/
FoamFile
{
    version     2.0;
    format      ascii;
    arch        "LSB;label=32;scalar=64";
    class       volScalarField;
    location    "0.25";
    object      p;
}
// * * * * * * * * * * * * * * * * * * * * * * * * * * * * * * * * * * * * * //

dimensions      [0 2 -2 0 0 0 0];

internalField   nonuniform List<scalar> 
34560
(
22.432586
22.419778
22.402425
22.380984
22.355595
22.328154
22.301165
22.276226
22.255841
22.517588
22.501456
22.479105
22.450777
22.416649
22.379344
22.342342
22.308622
22.280906
22.597517
22.57825
22.551409
22.517279
22.475961
22.430512
22.385188
22.343975
22.310306
22.677955
22.65568
22.624401
22.584459
22.536047
22.482789
22.429657
22.381333
22.341652
22.756721
22.731538
22.695983
22.650472
22.595296
22.534594
22.473999
22.418779
22.373056
22.829943
22.802392
22.763199
22.712804
22.651584
22.584132
22.516668
22.455006
22.403509
22.896935
22.867265
22.824804
22.77002
22.703395
22.629912
22.556269
22.488772
22.431951
22.955928
22.92445
22.879182
22.82061
22.749308
22.6706
22.591574
22.518964
22.457416
23.00541
22.97246
22.924881
22.863171
22.787981
22.704934
22.621426
22.544544
22.479007
23.043672
23.009648
22.960343
22.896247
22.818078
22.7317
22.644745
22.564565
22.495924
23.069672
23.034911
22.984435
22.918739
22.838576
22.749967
22.660702
22.578298
22.507548
23.083177
23.048007
22.996892
22.930328
22.849098
22.759312
22.668845
22.585292
22.513457
23.083177
23.048007
22.996892
22.930328
22.849098
22.759312
22.668845
22.585292
22.513458
23.069672
23.034911
22.984435
22.918739
22.838576
22.749967
22.660702
22.578298
22.507548
23.043672
23.009648
22.960342
22.896247
22.818077
22.731699
22.644744
22.564564
22.495924
23.00541
22.972459
22.92488
22.863169
22.787979
22.704932
22.621424
22.544544
22.479007
22.955925
22.924448
22.879179
22.820607
22.749306
22.670598
22.591572
22.518963
22.457415
22.896932
22.867262
22.824801
22.770018
22.703393
22.629909
22.556266
22.48877
22.43195
22.829941
22.802391
22.763198
22.712802
22.651582
22.58413
22.516665
22.455004
22.403508
22.756721
22.731538
22.695982
22.650471
22.595294
22.534591
22.473996
22.418777
22.373056
22.677956
22.65568
22.624401
22.584458
22.536046
22.482787
22.429655
22.381331
22.341651
22.597518
22.578251
22.551409
22.517279
22.47596
22.430511
22.385188
22.343974
22.310306
22.517589
22.501457
22.479106
22.450778
22.416649
22.379344
22.342343
22.308624
22.280907
22.432587
22.419779
22.402426
22.380985
22.355596
22.328155
22.301167
22.276229
22.255844
20.591337
20.592584
20.594231
20.597067
20.602248
20.610112
20.619741
20.62922
20.637415
20.575368
20.577325
20.580074
20.584532
20.591958
20.602473
20.614624
20.626107
20.635683
20.557395
20.560047
20.563877
20.57002
20.579772
20.593097
20.60801
20.621635
20.632507
20.539888
20.543252
20.548171
20.556044
20.568068
20.583819
20.601136
20.616731
20.628956
20.522678
20.526699
20.532669
20.542358
20.556927
20.575166
20.594646
20.612018
20.625515
20.506033
20.510618
20.517496
20.528941
20.546214
20.567152
20.588665
20.607638
20.622256
20.490767
20.495819
20.503392
20.516316
20.536199
20.559944
20.583395
20.60373
20.619292
20.477243
20.482683
20.490812
20.504862
20.526991
20.553521
20.578918
20.600387
20.616714
20.465942
20.47169
20.480249
20.495097
20.518975
20.548012
20.575269
20.597677
20.614594
20.45712
20.463101
20.471978
20.487403
20.512577
20.543642
20.57251
20.59567
20.612996
20.451035
20.457183
20.466287
20.482104
20.508146
20.5406
20.570671
20.594414
20.61196
20.447978
20.4542
20.463404
20.479409
20.505883
20.539044
20.569754
20.593829
20.61147
20.447978
20.4542
20.463404
20.479409
20.505882
20.539044
20.569754
20.593828
20.61147
20.451035
20.457183
20.466286
20.482104
20.508146
20.5406
20.57067
20.594413
20.61196
20.457119
20.4631
20.471977
20.487401
20.512576
20.543641
20.572509
20.595669
20.612996
20.465941
20.471689
20.480247
20.495095
20.518973
20.54801
20.575267
20.597675
20.614593
20.477241
20.482681
20.49081
20.50486
20.526989
20.553519
20.578915
20.600384
20.616711
20.490765
20.495817
20.50339
20.516313
20.536196
20.559941
20.583392
20.603727
20.61929
20.506031
20.510616
20.517494
20.528938
20.546211
20.567148
20.588661
20.607634
20.622253
20.522676
20.526698
20.532667
20.542355
20.556924
20.575162
20.594642
20.612014
20.625511
20.539886
20.54325
20.548169
20.556042
20.568065
20.583816
20.601132
20.616727
20.628952
20.557393
20.560045
20.563875
20.570018
20.57977
20.593094
20.608007
20.621631
20.632502
20.575366
20.577323
20.580072
20.58453
20.591956
20.602472
20.614622
20.626103
20.635678
20.591335
20.592583
20.59423
20.597066
20.602246
20.61011
20.619739
20.629217
20.637411
20.041525
20.041876
20.042148
20.042165
20.041988
20.0418
20.041877
20.042279
20.042778
20.03767
20.038145
20.038542
20.038732
20.038851
20.039048
20.039548
20.040354
20.041119
20.033473
20.034022
20.034383
20.034503
20.03479
20.035375
20.036361
20.037638
20.038772
20.030105
20.030711
20.030929
20.030649
20.030693
20.031516
20.032925
20.034699
20.036363
20.027723
20.028387
20.02844
20.027589
20.026958
20.027725
20.029532
20.031812
20.03405
20.026195
20.026953
20.02691
20.025452
20.023844
20.02415
20.02627
20.029047
20.031843
20.02541
20.026282
20.026251
20.024309
20.021585
20.021017
20.023233
20.026476
20.029791
20.025122
20.026103
20.026122
20.023913
20.020224
20.018515
20.020515
20.024169
20.027946
20.025112
20.026189
20.026267
20.023957
20.019571
20.016692
20.018239
20.022203
20.026364
20.025275
20.02643
20.026567
20.024219
20.01935
20.015466
20.01647
20.020629
20.025099
20.025483
20.026693
20.026875
20.024518
20.019349
20.014765
20.01528
20.01949
20.024198
20.025636
20.02687
20.027075
20.024714
20.019396
20.014449
20.014682
20.018882
20.023718
20.025636
20.026869
20.027074
20.024714
20.019396
20.014448
20.014682
20.018881
20.023717
20.025483
20.026692
20.026875
20.024517
20.019348
20.014764
20.015279
20.019489
20.024197
20.025274
20.026429
20.026566
20.024218
20.019349
20.015464
20.016468
20.020628
20.025098
20.02511
20.026187
20.026265
20.023955
20.019569
20.01669
20.018237
20.022201
20.026362
20.02512
20.026101
20.026119
20.02391
20.020222
20.018512
20.020513
20.024167
20.027943
20.025407
20.026279
20.026247
20.024306
20.021582
20.021013
20.023229
20.026472
20.029788
20.026191
20.02695
20.026907
20.025448
20.02384
20.024146
20.026265
20.029043
20.03184
20.027719
20.028384
20.028437
20.027585
20.026954
20.02772
20.029527
20.031807
20.034046
20.030101
20.030707
20.030925
20.030645
20.030688
20.031511
20.03292
20.034694
20.036359
20.033468
20.034017
20.034378
20.034498
20.034785
20.03537
20.036356
20.037632
20.038766
20.037664
20.038139
20.038536
20.038726
20.038845
20.039042
20.039542
20.040347
20.041112
20.041519
20.04187
20.042142
20.042159
20.041982
20.041793
20.04187
20.042272
20.042771
19.034162
19.034067
19.033994
19.03404
19.034294
19.034792
19.035519
19.036375
19.037297
19.03289
19.032818
19.032815
19.033007
19.033505
19.034321
19.035358
19.036417
19.037345
19.031374
19.03132
19.031369
19.031686
19.032412
19.033543
19.034909
19.036169
19.037091
19.029821
19.029787
19.029886
19.03031
19.031232
19.032648
19.03429
19.035753
19.036753
19.028206
19.028194
19.028341
19.028869
19.029972
19.031667
19.033589
19.035272
19.036402
19.026533
19.026543
19.026736
19.027359
19.028627
19.03056
19.032775
19.034699
19.035991
19.024875
19.024905
19.025136
19.025828
19.027242
19.029378
19.031862
19.034023
19.035494
19.023302
19.02335
19.023607
19.024344
19.025868
19.028193
19.030905
19.033277
19.034914
19.021955
19.022014
19.022293
19.023067
19.024669
19.027153
19.030045
19.032591
19.034352
19.020915
19.020982
19.021279
19.022094
19.023759
19.026362
19.029389
19.032069
19.033927
19.020181
19.020253
19.020563
19.021431
19.023172
19.025849
19.028959
19.031719
19.033648
19.019797
19.01987
19.020186
19.021086
19.022882
19.025598
19.028747
19.031543
19.033509
19.019797
19.01987
19.020186
19.021086
19.022881
19.025598
19.028747
19.031543
19.033509
19.020181
19.020252
19.020563
19.02143
19.023171
19.025848
19.028958
19.031718
19.033648
19.020914
19.02098
19.021278
19.022092
19.023758
19.02636
19.029387
19.032067
19.033926
19.021953
19.022012
19.022291
19.023065
19.024667
19.027151
19.030043
19.032589
19.03435
19.023299
19.023347
19.023604
19.024341
19.025865
19.02819
19.030902
19.033274
19.034911
19.024872
19.024902
19.025132
19.025824
19.027238
19.029374
19.031859
19.03402
19.035491
19.02653
19.026539
19.026732
19.027354
19.028623
19.030555
19.032771
19.034695
19.035988
19.028201
19.028189
19.028337
19.028864
19.029967
19.031661
19.033584
19.035267
19.036399
19.029815
19.029782
19.02988
19.030304
19.031226
19.032641
19.034284
19.035748
19.036749
19.031367
19.031313
19.031362
19.031679
19.032405
19.033536
19.034903
19.036162
19.037085
19.032882
19.03281
19.032807
19.032999
19.033497
19.034313
19.03535
19.03641
19.037339
19.034153
19.034058
19.033985
19.034031
19.034285
19.034783
19.03551
19.036367
19.037291
18.144759
18.144796
18.144813
18.144771
18.144645
18.144438
18.144198
18.143967
18.143785
18.144072
18.144125
18.144163
18.144142
18.144044
18.143874
18.143669
18.14347
18.143292
18.143396
18.143459
18.143503
18.143485
18.143392
18.143234
18.143037
18.142873
18.14272
18.1428
18.142869
18.142915
18.142889
18.142781
18.142602
18.142415
18.142291
18.142202
18.142318
18.14239
18.142435
18.142401
18.142279
18.142071
18.141894
18.141812
18.14179
18.141978
18.142051
18.142093
18.142052
18.141921
18.141715
18.141544
18.141493
18.141518
18.141815
18.141886
18.141929
18.141893
18.141755
18.141561
18.1414
18.141373
18.141421
18.141792
18.141863
18.141912
18.141902
18.141777
18.141578
18.141429
18.141429
18.141497
18.14182
18.141892
18.14195
18.141964
18.141861
18.141648
18.141512
18.141544
18.141649
18.14185
18.141924
18.141986
18.142008
18.14192
18.141699
18.14157
18.141627
18.141766
18.141904
18.14198
18.142044
18.14205
18.141942
18.141724
18.141602
18.141677
18.141838
18.14195
18.142027
18.142094
18.142086
18.141952
18.141734
18.141616
18.1417
18.141872
18.141949
18.142026
18.142094
18.142085
18.141952
18.141733
18.141616
18.141699
18.141872
18.141903
18.141979
18.142044
18.14205
18.141941
18.141723
18.141601
18.141676
18.141837
18.141848
18.141922
18.141984
18.142007
18.141918
18.141698
18.141568
18.141625
18.141765
18.141818
18.14189
18.141948
18.141962
18.141859
18.141646
18.14151
18.141542
18.141648
18.141789
18.14186
18.14191
18.141899
18.141773
18.141575
18.141426
18.141427
18.141495
18.141811
18.141883
18.141926
18.141889
18.141751
18.141557
18.141396
18.141369
18.141418
18.141974
18.142047
18.142089
18.142047
18.141916
18.14171
18.141539
18.141489
18.141515
18.142313
18.142385
18.14243
18.142395
18.142273
18.142065
18.141888
18.141807
18.141786
18.142793
18.142862
18.142908
18.142882
18.142773
18.142595
18.142408
18.142285
18.142198
18.143388
18.143451
18.143495
18.143477
18.143384
18.143226
18.143029
18.142866
18.142715
18.144062
18.144116
18.144153
18.144132
18.144034
18.143865
18.14366
18.143461
18.143285
18.144749
18.144786
18.144803
18.144761
18.144635
18.144427
18.144188
18.143957
18.143777
17.213315
17.213309
17.213304
17.213305
17.213319
17.213358
17.213429
17.213518
17.213612
17.213094
17.213092
17.213095
17.213113
17.213155
17.213233
17.21334
17.213456
17.213547
17.212871
17.21287
17.212878
17.212906
17.212968
17.213074
17.213213
17.213349
17.213435
17.212653
17.212654
17.212665
17.212699
17.212775
17.212898
17.213059
17.213211
17.213304
17.212441
17.212443
17.212457
17.212497
17.212584
17.212721
17.212896
17.213063
17.21317
17.21224
17.212243
17.212259
17.212303
17.212398
17.212547
17.212733
17.212913
17.213036
17.212062
17.212065
17.212081
17.212127
17.212227
17.212384
17.21258
17.212771
17.21291
17.21191
17.211912
17.211929
17.211977
17.212079
17.212241
17.212444
17.212646
17.2128
17.211784
17.211786
17.211803
17.211853
17.211956
17.212122
17.21233
17.21254
17.212707
17.211683
17.211684
17.211702
17.211754
17.21186
17.212028
17.21224
17.212456
17.212633
17.211613
17.211615
17.211632
17.211685
17.211794
17.211963
17.212178
17.212397
17.212581
17.211578
17.211579
17.211597
17.21165
17.21176
17.211931
17.212146
17.212367
17.212554
17.211578
17.211579
17.211596
17.21165
17.211759
17.21193
17.212146
17.212367
17.212554
17.211613
17.211614
17.211631
17.211684
17.211793
17.211962
17.212177
17.212397
17.212581
17.211681
17.211683
17.2117
17.211752
17.211858
17.212026
17.212238
17.212455
17.212632
17.211782
17.211784
17.211801
17.21185
17.211954
17.212119
17.212328
17.212538
17.212706
17.211907
17.21191
17.211926
17.211974
17.212076
17.212238
17.212441
17.212643
17.212798
17.212058
17.212061
17.212077
17.212123
17.212223
17.21238
17.212576
17.212768
17.212908
17.212235
17.212238
17.212254
17.212297
17.212392
17.212541
17.212728
17.212909
17.213033
17.212435
17.212437
17.212451
17.212491
17.212577
17.212714
17.21289
17.213057
17.213166
17.212645
17.212646
17.212657
17.212691
17.212766
17.21289
17.213051
17.213204
17.213299
17.212862
17.212861
17.212869
17.212896
17.212958
17.213064
17.213204
17.21334
17.213428
17.213083
17.213081
17.213084
17.213101
17.213144
17.213221
17.213329
17.213445
17.213537
17.213302
17.213296
17.213291
17.213292
17.213306
17.213345
17.213416
17.213505
17.2136
16.284654
16.284659
16.284663
16.284662
16.284651
16.284631
16.284605
16.284585
16.284579
16.284543
16.28455
16.284557
16.284559
16.284554
16.28454
16.284524
16.284514
16.284513
16.284446
16.284453
16.284461
16.284464
16.284461
16.284451
16.284444
16.284444
16.284446
16.284358
16.284366
16.284374
16.284377
16.284375
16.284369
16.284368
16.284377
16.284387
16.284281
16.284289
16.284297
16.284301
16.284299
16.284296
16.284302
16.284321
16.284341
16.284215
16.284222
16.28423
16.284234
16.284233
16.284234
16.284245
16.284273
16.284303
16.28416
16.284167
16.284175
16.284179
16.284179
16.284181
16.284197
16.284232
16.284274
16.284113
16.28412
16.284128
16.284133
16.284133
16.284135
16.284154
16.284197
16.28425
16.284075
16.284081
16.284089
16.284093
16.284094
16.284095
16.284117
16.284167
16.28423
16.284045
16.284052
16.284059
16.284062
16.284061
16.284062
16.284087
16.284142
16.284213
16.284026
16.284033
16.284039
16.284041
16.284038
16.284038
16.284065
16.284124
16.284201
16.284017
16.284024
16.28403
16.284031
16.284026
16.284026
16.284053
16.284114
16.284194
16.284017
16.284023
16.28403
16.284031
16.284026
16.284026
16.284053
16.284114
16.284194
16.284026
16.284032
16.284039
16.284041
16.284037
16.284037
16.284064
16.284123
16.284201
16.284044
16.28405
16.284057
16.28406
16.28406
16.28406
16.284085
16.284141
16.284213
16.284073
16.284079
16.284086
16.284091
16.284091
16.284092
16.284115
16.284165
16.284229
16.284111
16.284117
16.284125
16.284129
16.28413
16.284131
16.284151
16.284195
16.284249
16.284156
16.284163
16.28417
16.284174
16.284174
16.284176
16.284192
16.284229
16.284272
16.28421
16.284217
16.284225
16.284228
16.284227
16.284227
16.28424
16.284268
16.284301
16.284274
16.284282
16.28429
16.284293
16.28429
16.284288
16.284295
16.284315
16.284337
16.284349
16.284357
16.284365
16.284367
16.284365
16.284359
16.284359
16.28437
16.284382
16.284434
16.284442
16.284449
16.284452
16.284449
16.28444
16.284433
16.284434
16.284438
16.28453
16.284537
16.284543
16.284545
16.28454
16.284526
16.284511
16.284502
16.284503
16.284639
16.284644
16.284648
16.284646
16.284636
16.284615
16.28459
16.284571
16.284566
15.352635
15.352633
15.352632
15.352634
15.352639
15.352647
15.352657
15.352669
15.352682
15.352604
15.352603
15.352603
15.352607
15.352616
15.352629
15.352645
15.352659
15.352673
15.352578
15.352577
15.352578
15.352583
15.352595
15.352612
15.352631
15.352649
15.352661
15.352556
15.352555
15.352556
15.352562
15.352576
15.352595
15.352617
15.352636
15.352649
15.352536
15.352535
15.352537
15.352544
15.352559
15.35258
15.352603
15.352624
15.352639
15.35252
15.352519
15.352521
15.352529
15.352544
15.352566
15.35259
15.352614
15.352631
15.352507
15.352506
15.352508
15.352516
15.352532
15.352554
15.35258
15.352605
15.352625
15.352497
15.352495
15.352497
15.352506
15.352522
15.352545
15.352572
15.352599
15.35262
15.352489
15.352487
15.352489
15.352498
15.352515
15.352538
15.352566
15.352594
15.352617
15.352483
15.352481
15.352484
15.352492
15.352509
15.352533
15.352562
15.352591
15.352615
15.352479
15.352478
15.35248
15.352489
15.352506
15.35253
15.352559
15.352589
15.352614
15.352477
15.352476
15.352478
15.352487
15.352504
15.352528
15.352558
15.352588
15.352614
15.352477
15.352476
15.352478
15.352487
15.352504
15.352528
15.352558
15.352588
15.352614
15.352479
15.352477
15.352479
15.352488
15.352505
15.352529
15.352558
15.352588
15.352614
15.352482
15.35248
15.352482
15.352491
15.352507
15.352531
15.35256
15.35259
15.352615
15.352487
15.352485
15.352487
15.352496
15.352512
15.352535
15.352564
15.352593
15.352617
15.352494
15.352492
15.352494
15.352502
15.352518
15.352541
15.352569
15.352597
15.35262
15.352503
15.352501
15.352503
15.352511
15.352527
15.352549
15.352576
15.352602
15.352624
15.352514
15.352513
15.352514
15.352522
15.352537
15.352559
15.352584
15.35261
15.352629
15.352528
15.352527
15.352528
15.352535
15.35255
15.352571
15.352595
15.352618
15.352636
15.352545
15.352544
15.352545
15.352551
15.352565
15.352584
15.352606
15.352628
15.352644
15.352565
15.352564
15.352564
15.352569
15.352581
15.352599
15.352619
15.352638
15.352654
15.352588
15.352587
15.352587
15.352591
15.3526
15.352613
15.352629
15.352646
15.352663
15.352617
15.352615
15.352614
15.352616
15.352621
15.35263
15.35264
15.352652
15.352668
14.421466
14.421465
14.421464
14.421463
14.421462
14.421461
14.421459
14.421457
14.421454
14.421448
14.421447
14.421446
14.421446
14.421446
14.421447
14.421447
14.421446
14.421443
14.421429
14.421429
14.421428
14.421428
14.421429
14.421431
14.421433
14.421433
14.421431
14.421411
14.42141
14.42141
14.42141
14.421412
14.421415
14.421417
14.421418
14.421418
14.421394
14.421393
14.421392
14.421393
14.421395
14.421399
14.421402
14.421405
14.421405
14.421378
14.421377
14.421377
14.421377
14.42138
14.421384
14.421388
14.421392
14.421393
14.421364
14.421363
14.421363
14.421364
14.421366
14.42137
14.421375
14.42138
14.421382
14.421353
14.421352
14.421351
14.421351
14.421354
14.421359
14.421364
14.421369
14.421373
14.421343
14.421342
14.421341
14.421342
14.421344
14.421349
14.421355
14.421361
14.421365
14.421336
14.421334
14.421333
14.421334
14.421337
14.421341
14.421347
14.421354
14.421359
14.421331
14.421329
14.421328
14.421329
14.421331
14.421336
14.421342
14.421349
14.421355
14.421328
14.421327
14.421326
14.421326
14.421329
14.421333
14.42134
14.421347
14.421353
14.421328
14.421327
14.421325
14.421326
14.421328
14.421333
14.421339
14.421347
14.421353
14.42133
14.421329
14.421328
14.421328
14.42133
14.421335
14.421342
14.421349
14.421355
14.421335
14.421333
14.421332
14.421332
14.421335
14.42134
14.421346
14.421353
14.421359
14.421341
14.42134
14.421339
14.421339
14.421342
14.421346
14.421352
14.421359
14.421365
14.42135
14.421349
14.421348
14.421348
14.42135
14.421355
14.421361
14.421367
14.421373
14.42136
14.421359
14.421358
14.421359
14.421361
14.421365
14.421371
14.421377
14.421381
14.421373
14.421371
14.42137
14.421371
14.421373
14.421377
14.421382
14.421387
14.421391
14.421386
14.421385
14.421384
14.421384
14.421386
14.42139
14.421395
14.421399
14.421402
14.421401
14.4214
14.421399
14.421399
14.421401
14.421404
14.421407
14.421411
14.421413
14.421416
14.421415
14.421415
14.421414
14.421416
14.421418
14.42142
14.421422
14.421424
14.421432
14.421431
14.421431
14.42143
14.421431
14.421431
14.421432
14.421432
14.421433
14.421449
14.421448
14.421446
14.421445
14.421444
14.421444
14.421442
14.42144
14.42144
13.491315
13.491316
13.491316
13.491315
13.491314
13.491312
13.49131
13.491307
13.491304
13.491305
13.491305
13.491305
13.491305
13.491304
13.491303
13.4913
13.491298
13.491296
13.491294
13.491294
13.491294
13.491294
13.491294
13.491292
13.491291
13.491289
13.491288
13.491283
13.491283
13.491284
13.491284
13.491283
13.491282
13.491281
13.49128
13.491279
13.491273
13.491273
13.491274
13.491274
13.491273
13.491272
13.491272
13.491271
13.491272
13.491264
13.491264
13.491265
13.491265
13.491264
13.491263
13.491263
13.491263
13.491264
13.491256
13.491257
13.491257
13.491257
13.491256
13.491255
13.491255
13.491256
13.491258
13.491249
13.49125
13.49125
13.49125
13.491249
13.491248
13.491248
13.49125
13.491252
13.491244
13.491244
13.491244
13.491244
13.491243
13.491242
13.491242
13.491244
13.491247
13.49124
13.49124
13.49124
13.491239
13.491238
13.491238
13.491238
13.49124
13.491244
13.491237
13.491237
13.491237
13.491236
13.491235
13.491234
13.491235
13.491237
13.491241
13.491236
13.491236
13.491236
13.491235
13.491234
13.491233
13.491233
13.491236
13.49124
13.491235
13.491236
13.491235
13.491235
13.491233
13.491232
13.491233
13.491236
13.49124
13.491237
13.491237
13.491236
13.491236
13.491234
13.491233
13.491234
13.491237
13.491241
13.491239
13.491239
13.491239
13.491238
13.491237
13.491236
13.491237
13.491239
13.491244
13.491243
13.491243
13.491242
13.491242
13.49124
13.49124
13.49124
13.491243
13.491247
13.491247
13.491247
13.491247
13.491246
13.491245
13.491244
13.491245
13.491248
13.491252
13.491252
13.491253
13.491252
13.491252
13.491251
13.49125
13.491251
13.491253
13.491257
13.491259
13.491259
13.491259
13.491258
13.491257
13.491257
13.491257
13.491259
13.491262
13.491266
13.491266
13.491266
13.491265
13.491264
13.491264
13.491264
13.491266
13.491268
13.491273
13.491273
13.491273
13.491273
13.491272
13.491271
13.491271
13.491272
13.491274
13.491281
13.491281
13.491281
13.491281
13.49128
13.491279
13.491279
13.491279
13.49128
13.491289
13.49129
13.49129
13.491289
13.491289
13.491287
13.491286
13.491285
13.491285
13.491298
13.491299
13.491299
13.491298
13.491297
13.491295
13.491293
13.49129
13.491289
12.561105
12.561105
12.561106
12.561106
12.561106
12.561105
12.561105
12.561104
12.561103
12.561099
12.5611
12.5611
12.5611
12.5611
12.5611
12.5611
12.561099
12.561099
12.561093
12.561094
12.561094
12.561095
12.561095
12.561095
12.561095
12.561095
12.561096
12.561088
12.561088
12.561089
12.561089
12.56109
12.56109
12.561091
12.561091
12.561092
12.561083
12.561083
12.561084
12.561084
12.561085
12.561085
12.561086
12.561087
12.561088
12.561078
12.561079
12.561079
12.56108
12.56108
12.561081
12.561082
12.561083
12.561085
12.561074
12.561074
12.561075
12.561076
12.561076
12.561077
12.561078
12.56108
12.561082
12.561071
12.561071
12.561072
12.561072
12.561073
12.561073
12.561075
12.561077
12.561079
12.561068
12.561068
12.561069
12.561069
12.56107
12.56107
12.561072
12.561074
12.561077
12.561066
12.561066
12.561067
12.561067
12.561067
12.561068
12.56107
12.561072
12.561076
12.561064
12.561065
12.561065
12.561065
12.561066
12.561067
12.561068
12.561071
12.561075
12.561064
12.561064
12.561064
12.561064
12.561065
12.561066
12.561067
12.56107
12.561074
12.561063
12.561064
12.561064
12.561064
12.561065
12.561065
12.561067
12.56107
12.561074
12.561064
12.561064
12.561064
12.561065
12.561065
12.561066
12.561068
12.561071
12.561075
12.561065
12.561065
12.561065
12.561066
12.561066
12.561067
12.561068
12.561072
12.561076
12.561066
12.561067
12.561067
12.561067
12.561067
12.561068
12.56107
12.561073
12.561077
12.561068
12.561068
12.561069
12.561069
12.561069
12.56107
12.561072
12.561075
12.561079
12.56107
12.561071
12.561071
12.561071
12.561071
12.561072
12.561074
12.561077
12.561081
12.561073
12.561073
12.561073
12.561073
12.561074
12.561074
12.561076
12.561079
12.561083
12.561075
12.561076
12.561076
12.561076
12.561076
12.561077
12.561079
12.561081
12.561085
12.561078
12.561078
12.561079
12.561079
12.561079
12.56108
12.561081
12.561084
12.561087
12.561081
12.561082
12.561082
12.561082
12.561082
12.561083
12.561084
12.561085
12.561088
12.561085
12.561085
12.561085
12.561085
12.561086
12.561086
12.561086
12.561087
12.561089
12.561089
12.561089
12.561089
12.561089
12.561089
12.561089
12.561089
12.561088
12.56109
11.630706
11.630706
11.630706
11.630706
11.630706
11.630706
11.630706
11.630706
11.630706
11.630704
11.630704
11.630704
11.630704
11.630704
11.630704
11.630704
11.630704
11.630704
11.630701
11.630701
11.630701
11.630702
11.630702
11.630702
11.630702
11.630702
11.630702
11.630699
11.630699
11.630699
11.630699
11.6307
11.6307
11.6307
11.630701
11.630701
11.630696
11.630696
11.630697
11.630697
11.630698
11.630698
11.630699
11.630699
11.630699
11.630694
11.630694
11.630695
11.630695
11.630696
11.630696
11.630697
11.630697
11.630698
11.630692
11.630693
11.630693
11.630693
11.630694
11.630694
11.630695
11.630696
11.630696
11.630691
11.630691
11.630691
11.630692
11.630692
11.630693
11.630694
11.630694
11.630695
11.63069
11.63069
11.63069
11.63069
11.630691
11.630691
11.630692
11.630693
11.630695
11.630689
11.630689
11.630689
11.630689
11.63069
11.63069
11.630691
11.630693
11.630694
11.630688
11.630688
11.630688
11.630689
11.630689
11.63069
11.630691
11.630692
11.630694
11.630688
11.630688
11.630688
11.630688
11.630689
11.630689
11.63069
11.630692
11.630693
11.630688
11.630688
11.630688
11.630688
11.630688
11.630689
11.63069
11.630692
11.630693
11.630688
11.630688
11.630688
11.630688
11.630688
11.630689
11.63069
11.630692
11.630693
11.630688
11.630688
11.630688
11.630688
11.630688
11.630689
11.63069
11.630692
11.630694
11.630688
11.630688
11.630688
11.630688
11.630689
11.630689
11.63069
11.630692
11.630694
11.630689
11.630689
11.630689
11.630689
11.630689
11.63069
11.630691
11.630693
11.630695
11.630689
11.630689
11.630689
11.630689
11.630689
11.63069
11.630691
11.630693
11.630695
11.630689
11.630689
11.630689
11.63069
11.63069
11.63069
11.630692
11.630694
11.630696
11.63069
11.63069
11.63069
11.63069
11.63069
11.630691
11.630692
11.630694
11.630696
11.63069
11.63069
11.63069
11.63069
11.630691
11.630691
11.630692
11.630694
11.630696
11.630691
11.630691
11.630691
11.630691
11.630691
11.630692
11.630692
11.630694
11.630696
11.630691
11.630691
11.630691
11.630691
11.630692
11.630692
11.630692
11.630693
11.630695
11.630692
11.630693
11.630693
11.630693
11.630693
11.630693
11.630692
11.630693
11.630694
10.700242
10.700242
10.700242
10.700242
10.700242
10.700242
10.700242
10.700243
10.700242
10.700241
10.700241
10.700241
10.700241
10.700241
10.700241
10.700241
10.700241
10.70024
10.700239
10.70024
10.70024
10.70024
10.70024
10.70024
10.70024
10.70024
10.700239
10.700238
10.700238
10.700238
10.700238
10.700239
10.700239
10.700239
10.700238
10.700238
10.700237
10.700237
10.700237
10.700237
10.700237
10.700237
10.700237
10.700237
10.700237
10.700235
10.700236
10.700236
10.700236
10.700236
10.700236
10.700236
10.700236
10.700236
10.700234
10.700235
10.700235
10.700235
10.700235
10.700235
10.700235
10.700235
10.700235
10.700234
10.700234
10.700234
10.700234
10.700234
10.700234
10.700235
10.700235
10.700235
10.700233
10.700233
10.700233
10.700233
10.700233
10.700234
10.700234
10.700234
10.700234
10.700232
10.700232
10.700233
10.700233
10.700233
10.700233
10.700233
10.700234
10.700234
10.700232
10.700232
10.700232
10.700232
10.700232
10.700233
10.700233
10.700233
10.700233
10.700232
10.700232
10.700232
10.700232
10.700232
10.700232
10.700233
10.700233
10.700233
10.700232
10.700232
10.700232
10.700232
10.700232
10.700232
10.700232
10.700233
10.700233
10.700232
10.700232
10.700232
10.700232
10.700232
10.700232
10.700232
10.700233
10.700233
10.700232
10.700232
10.700232
10.700232
10.700232
10.700232
10.700232
10.700233
10.700233
10.700232
10.700232
10.700231
10.700231
10.700232
10.700232
10.700232
10.700233
10.700234
10.700232
10.700231
10.700231
10.700231
10.700231
10.700232
10.700232
10.700233
10.700234
10.700232
10.700231
10.700231
10.700231
10.700231
10.700232
10.700232
10.700233
10.700234
10.700231
10.700231
10.700231
10.700231
10.700231
10.700232
10.700232
10.700233
10.700234
10.700231
10.700231
10.700231
10.700231
10.700231
10.700231
10.700232
10.700233
10.700234
10.700231
10.700231
10.700231
10.700231
10.700231
10.700231
10.700232
10.700233
10.700234
10.700231
10.700231
10.700231
10.700231
10.700231
10.700231
10.700232
10.700233
10.700233
10.700231
10.700231
10.700231
10.700231
10.700231
10.700231
10.700232
10.700232
10.700233
10.700231
10.700231
10.700231
10.700231
10.700231
10.700231
10.700231
10.700232
10.700233
9.769768
9.769768
9.7697681
9.7697681
9.7697682
9.7697683
9.7697684
9.7697685
9.769768
9.7697672
9.7697672
9.7697673
9.7697674
9.7697675
9.7697675
9.7697674
9.7697671
9.7697663
9.7697662
9.7697662
9.7697663
9.7697664
9.7697665
9.7697664
9.7697663
9.7697659
9.7697654
9.7697652
9.7697652
9.7697653
9.7697654
9.7697655
9.7697654
9.7697653
9.7697649
9.7697646
9.7697642
9.7697643
9.7697644
9.7697645
9.7697645
9.7697645
9.7697644
9.7697642
9.769764
9.7697635
9.7697635
9.7697636
9.7697637
9.7697637
9.7697637
9.7697637
9.7697635
9.7697634
9.7697628
9.7697628
9.7697629
9.769763
9.769763
9.7697631
9.769763
9.7697629
9.7697629
9.7697623
9.7697623
9.7697623
9.7697624
9.7697625
9.7697625
9.7697625
9.7697624
9.7697624
9.7697618
9.7697618
9.7697619
9.7697619
9.769762
9.769762
9.769762
9.769762
9.7697619
9.7697614
9.7697615
9.7697615
9.7697615
9.7697616
9.7697616
9.7697616
9.7697616
9.7697615
9.7697612
9.7697612
9.7697612
9.7697612
9.7697612
9.7697613
9.7697613
9.7697612
9.7697611
9.7697609
9.7697609
9.7697609
9.7697609
9.7697609
9.769761
9.769761
9.769761
9.7697609
9.7697607
9.7697607
9.7697607
9.7697607
9.7697607
9.7697607
9.7697608
9.7697608
9.7697608
9.7697606
9.7697606
9.7697606
9.7697605
9.7697605
9.7697606
9.7697606
9.7697607
9.7697608
9.7697605
9.7697605
9.7697604
9.7697604
9.7697604
9.7697604
9.7697605
9.7697606