/*--------------------------------*- C++ -*----------------------------------*\
| =========                 |                                                 |
| \\      /  F ield         | OpenFOAM: The Open Source CFD Toolbox           |
|  \\    /   O peration     | Version:  2406                                  |
|   \\  /    A nd           | Website:  www.openfoam.com                      |
|    \\/     M anipulation  |                                                 |
\*---------------------------------------------------------------------------*/
FoamFile
{
    version     2.0;
    format      ascii;
    arch        "LSB;label=32;scalar=64";
    class       surfaceScalarField;
    location    "0.25";
    object      phi;
}
// * * * * * * * * * * * * * * * * * * * * * * * * * * * * * * * * * * * * * //

dimensions      [0 3 -1 0 0 0 0];

oriented        oriented;

internalField   nonuniform List<scalar> 
101088
(
0.00016099299
-2.4803221e-05
1.6670505e-05
2.1413599e-05
0.00034630424
-0.0001060407
7.1714934e-05
9.2892129e-05
0.00053583469
-0.0002535198
0.00017120212
0.00022448694
0.00069982078
-0.00047824345
0.0003197287
0.00042790486
0.00081191025
-0.00075917029
0.0004959157
0.00068719078
0.00086654127
-0.001033715
0.00064972072
0.00094685714
0.00088336399
-0.0012227965
0.00072726782
0.0011312726
0.00088859139
-0.0012792525
0.00070671896
0.0011936424
-0.0012044183
0.00060770983
0.0011323099
0.00089828326
0.00019559778
-2.7579749e-05
2.0961356e-05
0.00041525244
-0.0001162292
8.9304974e-05
0.00063036175
-0.00027418656
0.00021138934
0.0008008014
-0.00051026064
0.00039137784
0.0008950078
-0.00080000502
0.00060225027
0.00091172065
-0.001078024
0.00078517355
0.00088023267
-0.0012647927
0.00087976309
0.0008356901
-0.0013138832
0.00086271565
-0.0012299106
0.00075558592
0.00080053216
0.0002300465
-2.9360454e-05
2.5391506e-05
0.00048257226
-0.00012202949
0.00010718137
0.00072113324
-0.00028450793
0.00025154766
0.00089778679
-0.00052334736
0.00046153655
0.00097760832
-0.00081144857
0.00070400728
0.00096322552
-0.0010831183
0.00091173438
0.00089233186
-0.0012614542
0.001018994
0.0008080033
-0.0013025532
0.0010021784
-0.0012129988
0.00088558141
0.00073649402
0.00026341778
-3.0040728e-05
2.9839008e-05
0.00054729392
-0.00012322247
0.00012481745
0.00080770876
-0.00028414172
0.00029047614
0.0009898427
-0.00051724104
0.00052822643
0.0010571505
-0.00079440536
0.00079878195
0.0010171116
-0.00105214
0.001027346
0.00091507967
-0.0012182198
0.001143917
0.00080049464
-0.0012521399
0.0011251549
-0.0011614392
0.00099823517
0.0007026979
0.0002946977
-2.9337038e-05
3.4098358e-05
0.00060733882
-0.00011918406
0.00014149564
0.00088747236
-0.00027259989
0.00032683652
0.0010748507
-0.00049239089
0.00058964147
0.0011324387
-0.00075097528
0.0008847086
0.0010723449
-0.00098900719
0.00113065
0.00094625189
-0.0011403229
0.0012540266
0.00080848966
-0.0011682809
0.0012320606
-0.0010803031
0.0010946857
0.00069054898
0.00032386856
-2.7577058e-05
3.8099165e-05
0.00066374608
-0.00011100958
0.00015696038
0.00096335644
-0.0002519351
0.00036013553
0.0011576461
-0.00045180795
0.00064513395
0.0012091126
-0.0006848275
0.00096121604
0.0011336964
-0.00089763675
0.0012213476
0.00098827322
-0.0010315828
0.0013494626
0.0008312873
-0.0010544157
0.0013235176
-0.0009726049
0.0011759901
0.00069639107
0.00034959109
-2.4744741e-05
4.1719363e-05
0.00071317252
-9.8836704e-05
0.00017077658
0.0010296664
-0.00022285808
0.00038951817
0.001230371
-0.00039732022
0.00069349647
0.0012779303
-0.00059926025
0.0010269918
0.0011915945
-0.00078261455
0.001298282
0.0010320612
-0.00089723394
0.0014295083
0.00086069411
-0.00091564395
0.0013994098
-0.00084298339
0.001242694
0.00071299552
0.00037163533
-2.0958273e-05
4.4841917e-05
0.00075551207
-8.3191609e-05
0.00018259524
0.001086652
-0.00018663429
0.00041445864
0.0012935097
-0.00033124516
0.00073422315
0.0013389894
-0.00049773488
0.0010819274
0.0012450843
-0.00064828672
0.0013618939
0.00107531
-0.00074199702
0.0014950702
0.00089311317
-0.00075646658
0.0014609841
-0.00069546103
0.0012962465
0.00073564435
0.00038968901
-1.6374709e-05
4.7398847e-05
0.00079024579
-6.4725205e-05
0.00019221401
0.0011336447
-0.00014470342
0.00043464876
0.0013461449
-0.00025602412
0.00076701843
0.0013908385
-0.00038371449
0.001125974
0.0012918875
-0.00049887762
0.0014125425
0.0011148715
-0.00057039329
0.0015468512
0.00092468408
-0.00058119467
0.0015092182
-0.00053381976
0.0013377976
0.00075988741
0.00040355385
-1.1250461e-05
4.9350952e-05
0.00081708747
-4.4326061e-05
0.00019952823
0.0011702775
-9.8794138e-05
0.00044994796
0.0013876774
-0.00017431065
0.00079178428
0.0014324157
-0.00026068193
0.0011591331
0.0013302403
-0.00033844417
0.0014504661
0.001148231
-0.0003866848
0.0015853404
0.00095227724
-0.00039389011
0.0015448064
-0.00036157604
0.0013681842
0.00078209265
0.00041279205
-5.7386867e-06
5.0705252e-05
0.00083482655
-2.2528462e-05
0.00020453239
0.0011943634
-5.0097411e-05
0.0004602812
0.0014150307
-8.8232942e-05
0.00080832245
0.0014600673
-0.00013175503
0.0011810864
0.0013562237
-0.00017087869
0.0014753782
0.0011714495
-0.00019512756
0.0016104124
0.00097212709
-0.00019871926
0.0015678333
-0.00018235989
0.001387697
0.00079872418
0.00041747415
-7.0671377e-12
5.134296e-05
0.00084390592
-6.2934724e-11
0.00020693001
0.0012068219
-1.8836411e-10
0.00046532631
0.0014292791
-3.2528203e-10
0.00081656528
0.0014745117
-4.3367808e-10
0.0011922393
0.0013698031
-4.3291278e-10
0.0014882058
0.0011836042
-2.9318866e-10
0.0016233998
0.0009825843
-1.2357797e-10
0.0015797585
5.3054178e-11
0.0013977517
0.0008075929
0.00041747388
5.7386592e-06
5.1342953e-05
0.00084390558
2.2528332e-05
0.00020692998
0.0012068219
5.0097121e-05
0.00046532624
0.001429279
8.8232483e-05
0.00081656516
0.0014745117
0.00013175442
0.0011922392
0.0013698031
0.0001708781
0.0014882057
0.0011836042
0.00019512715
0.0016233996
0.00098258418
0.00019871908
0.0015797585
0.00018236006
0.0013977517
0.00080759284
0.00041279177
1.1250436e-05
5.0705252e-05
0.00083482624
4.4325971e-05
0.00020453239
0.0011943639
9.8793967e-05
0.00046028119
0.0014150309
0.00017431045
0.0008083224
0.0014600678
0.00026068177
0.0011810863
0.0013562241
0.00033844412
0.0014753781
0.0011714497
0.00038668469
0.0016104124
0.0009721269
0.00039389002
0.0015678332
0.00036157638
0.0013876971
0.00079872432
0.00040355372
1.6374728e-05
4.9350941e-05
0.00081708729
6.4725212e-05
0.00019952819
0.0011702781
0.00014470338
0.00044994786
0.0013876773
0.0002560241
0.0007917841
0.0014324162
0.00038371457
0.0011591328
0.0013302404
0.00049887763
0.0014504659
0.0011482312
0.00057039302
0.0015853402
0.00095227704
0.00058119442
0.0015448062
0.00053382013
0.0013681843
0.00078209339
0.00038968878
2.0958341e-05
4.7398842e-05
0.00079024555
8.3191727e-05
0.00019221399
0.0011336455
0.00018663453
0.00043464873
0.001346145
0.00033124531
0.00076701832
0.0013908389
0.00049773473
0.0011259739
0.0012918876
0.00064828622
0.0014125424
0.0011148718
0.00074199636
0.0015468511
0.00092468412
0.00075646614
0.0015092181
0.00069546111
0.0013377977
0.00075988845
0.0003716351
2.4744787e-05
4.4841916e-05
0.00075551172
9.8836779e-05
0.00018259524
0.0010866527
0.00022285817
0.00041445864
0.0012935103
0.00039731994
0.00073422309
0.0013389902
0.00059925957
0.0010819274
0.0012450846
0.00078261376
0.0013618939
0.0010753105
0.0008972334
0.0014950702
0.0008931135
0.0009156436
0.001460984
0.00084298263
0.0012962466
0.00073564504
0.000349591
2.7577038e-05
4.1719365e-05
0.00071317211
0.00011100954
0.0001707766
0.0010296671
0.00025193476
0.00038951823
0.0012303722
0.00045180718
0.00069349655
0.0012779315
0.00068482659
0.0010269919
0.0011915953
0.00089763613
0.0012982821
0.0010320617
0.0010315826
0.0014295083
0.00086069423
0.0010544154
0.0013994097
0.00097260333
0.0012426941
0.00071299547
0.00032386845
2.9337053e-05
3.8099178e-05
0.00066374585
0.00011918412
0.00015696045
0.00096335712
0.00027259982
0.00036013569
0.0011576475
0.00049239058
0.00064513416
0.0012091142
0.00075097473
0.00096121629
0.0011336975
0.00098900642
0.0012213478
0.00098827367
0.001140322
0.0013494627
0.00083128695
0.0011682804
0.0013235177
0.0010803023
0.0011759902
0.00069639035
0.0002946976
3.0040669e-05
3.4098359e-05
0.00060733866
0.00012322229
0.00014149564
0.00088747242
0.00028414141
0.00032683653
0.0010748515
0.00051724048
0.00058964148
0.00113244
0.00079440444
0.00088470863
0.0010723457
0.0010521385
0.00113065
0.00094625227
0.0012182183
0.0012540267
0.00080848941
0.0012521398
0.0012320607
0.0011614403
0.0010946856
0.00069054787
0.0002634176
2.9360417e-05
2.9839007e-05
0.00054729349
0.00012202936
0.00012481745
0.00080770857
0.00028450776
0.00029047615
0.00098984343
0.00052334701
0.00052822648
0.0010571514
0.00081144767
0.00079878201
0.0010171118
0.0010831165
0.001027346
0.00091507971
0.0012614528
0.0011439169
0.00080049432
0.0013025546
0.0011251548
0.0012130013
0.00099823509
0.0007026967
0.00023004637
2.757974e-05
2.5391503e-05
0.00048257192
0.00011622916
0.00010718136
0.00072113288
0.00027418651
0.00025154763
0.00089778663
0.00051026046
0.00046153651
0.00097760817
0.00080000455
0.00070400724
0.00096322467
0.001078023
0.00091173432
0.0008923312
0.0012647912
0.0010189939
0.0008080018
0.0013138835
0.0010021781
0.0012299142
0.00088558141
0.00073649248
0.00019559776
2.4803224e-05
2.0961357e-05
0.00041525227
0.00010604069
8.9304979e-05
0.00063036156
0.00025351977
0.00021138935
0.00080080127
0.0004782434
0.00039137786
0.00089500734
0.00075917019
0.00060225033
0.00091171885
0.0010337145
0.00078517363
0.00088022997
0.0012227956
0.00087976312
0.00083568651
0.0012792526
0.00086271557
0.0012044204
0.00075558592
0.00080052946
0.00016099299
1.6670509e-05
2.1413641e-05
0.00034630421
7.1714949e-05
9.2892274e-05
0.00053583477
0.00017120216
0.00022448729
0.00069982047
0.00031972876
0.00042790554
0.00081190862
0.00049591581
0.00068719173
0.00086653856
0.00064972087
0.00094685788
0.00088336024
0.00072726788
0.0011312723
0.00088858821
0.00070671892
0.0011936425
0.00060770978
0.0011323094
0.0008982825
2.624931e-06
-2.1351209e-06
1.4903213e-05
1.27748e-06
1.2223921e-05
-1.2830104e-05
6.6232263e-05
8.7138666e-06
3.2767008e-05
-4.174483e-05
0.00016202258
3.0381523e-05
6.8551105e-05
-0.00010549322
0.0003089188
8.0519375e-05
0.00012055459
-0.0002163449
0.00048878886
0.00017146862
0.00018315726
-0.00036043115
0.00065243827
0.00029511106
0.00024628525
-0.00049164125
0.00074188528
0.00041389589
0.00030174546
-0.00056274555
0.00072958349
0.0004844207
-0.00055682418
0.00063161608
0.0004904802
0.000344183
3.5710548e-06
-2.6739498e-06
1.7929156e-05
1.6566642e-05
-1.6036428e-05
7.9515833e-05
4.3552457e-05
-5.1392746e-05
0.0001940516
8.7434156e-05
-0.00012669791
0.00036870078
0.00014485986
-0.00025269597
0.00058117545
0.00020544002
-0.00040989189
0.00077405445
0.00025768018
-0.00054629532
0.00088217759
0.00029534669
-0.00061355457
0.00087585797
-0.00059776094
0.0007732322
0.00031863687
4.8863449e-06
-3.0114961e-06
2.0842795e-05
2.1984936e-05
-1.8247837e-05
9.2294482e-05
5.5846452e-05
-5.8420137e-05
0.00022471381
0.0001075723
-0.00014219875
0.00042531146
0.00016927154
-0.00027750291
0.00066711475
0.00022702237
-0.00044043717
0.00088452858
0.00026922659
-0.0005758022
0.0010062962
0.00029267082
-0.00063691462
0.0010020947
-0.00061416467
0.00089325359
0.00030140186
6.4420381e-06
-3.2004569e-06
2.3585978e-05
2.8320392e-05
-1.9577634e-05
0.00010426895
6.9801237e-05
-6.26725e-05
0.00025324735
0.00012948218
-0.00015109655
0.00047744264
0.00019519342
-0.00028956438
0.00074513265
0.0002500471
-0.00045105888
0.00098311397
0.00028371445
-0.00058060695
0.0011150547
0.00029595414
-0.00063461967
0.0011106202
-0.00060724397
0.00099448099
0.00029278741
8.0660161e-06
-3.190966e-06
2.6022985e-05
3.4835152e-05
-1.9788488e-05
0.00011493773
8.3911204e-05
-6.3576274e-05
0.00027866432
0.00015132334
-0.00015256752
0.00052369965
0.00022126496
-0.00028863056
0.00081383245
0.00027406571
-0.0004422373
0.0010690279
0.00030120866
-0.0005624734
0.00120875
0.00030496925
-0.00060922148
0.0012029022
-0.00057942636
0.0010791781
0.00029265932
9.7975452e-06
-3.0567074e-06
2.8167343e-05
4.1751314e-05
-1.9103339e-05
0.00012432136
9.8781703e-05
-6.1424302e-05
0.00030095264
0.00017425953
-0.0001469342
0.00056402291
0.00024879513
-0.00027516197
0.00087321112
0.00030104835
-0.0004156919
0.0011425489
0.00032334288
-0.00052341707
0.0012881116
0.00032018153
-0.00056275306
0.0012802107
-0.00053260774
0.0011491024
0.0003002506
1.1440798e-05
-2.7855101e-06
3.0007524e-05
4.8285894e-05
-1.750796e-05
0.00013233619
0.00011278398
-5.6272922e-05
0.00031986798
0.00019562201
-0.00013422802
0.00059795219
0.00027443005
-0.00024966078
0.00092268292
0.00032720233
-0.00037338551
0.0012032039
0.00034629135
-0.00046600801
0.0013530102
0.00033812181
-0.00049809973
0.0013429261
-0.00046954523
0.0012052785
0.00031247488
1.2936216e-05
-2.3855528e-06
3.1505999e-05
5.4212857e-05
-1.5066891e-05
0.00013887745
0.00012550538
-4.8408232e-05
0.00033530049
0.00021508061
-0.00011512765
0.00062554716
0.00029821295
-0.0002135704
0.00096270451
0.00035200297
-0.00031725207
0.0012519708
0.00036900491
-0.000392795
0.0014048553
0.00035721
-0.00041801473
0.0013926944
-0.00039280768
0.0012494883
0.00032723086
1.4212206e-05
-1.8663745e-06
3.2667656e-05
5.9265622e-05
-1.1875032e-05
0.00014396888
0.00013637913
-3.8211872e-05
0.00034733847
0.00023200523
-9.0795476e-05
0.00064706048
0.00031910902
-0.00016851747
0.00099381702
0.00037390585
-0.00024923838
0.0012897321
0.00038981425
-0.00030666347
0.0014448113
0.00037554176
-0.00032536062
0.0014308371
-0.00030495192
0.0012831346
0.00034234903
1.5244314e-05
-1.2732137e-06
3.351338e-05
6.3370415e-05
-8.1683841e-06
0.00014769549
0.00014527896
-2.6355649e-05
0.00035618289
0.00024605427
-6.2648043e-05
0.00066286199
0.00033647937
-0.00011640663
0.001016597
0.00039213633
-0.00017168904
0.0013172599
0.00040751408
-0.0002105075
0.0014738067
0.00039153549
-0.00022293504
0.0014583598
-0.00020845675
0.0013072585
0.00035596597
1.5974074e-05
-6.6139053e-07
3.4119293e-05
6.6272661e-05
-4.214458e-06
0.00015027994
0.0001515822
-1.3537107e-05
0.00036215285
0.00025606528
-3.2083102e-05
0.00067327439
0.00034899923
-5.9568024e-05
0.0010313135
0.00040557122
-8.7675666e-05
0.0013347927
0.00042064661
-0.00010727767
0.0014921072
0.00040334551
-0.0001134201
0.0014756196
-0.00010587177
0.0013223227
0.00036613484
1.631402e-05
1.1699984e-11
3.4367538e-05
6.7621836e-05
6.3733909e-12
0.00015140773
0.00015452884
-3.4483869e-11
0.00036488203
0.00026081395
-1.1392851e-10
0.00067819693
0.00035506687
-2.5780185e-10
0.0010384184
0.00041223917
-2.9225619e-10
0.0013433581
0.00042726679
-1.9650969e-10
0.0015010948
0.00040947321
-2.7027478e-11
0.0014841321
1.9802551e-10
0.0013297781
0.0003715749
1.6313975e-05
6.6139532e-07
3.4367533e-05
6.7621659e-05
4.2144244e-06
0.00015140771
0.00015452877
1.3537041e-05
0.00036488198
0.00026081387
3.2082976e-05
0.00067819685
0.0003550669
5.956766e-05
0.0010384183
0.00041223924
8.7675228e-05
0.001343358
0.00042726685
0.00010727735
0.0015010946
0.00040947318
0.00011342008
0.001484132
0.00010587219
0.0013297781
0.00037157484
1.5974048e-05
1.2732237e-06
3.4119294e-05
6.6272428e-05
8.1683747e-06
0.00015027994
0.00015158234
2.635569e-05
0.00036215286
0.00025606531
6.2648122e-05
0.00067327439
0.00034899953
0.00011640654
0.0010313136
0.00040557152
0.00017168889
0.0013347927
0.00042064683
0.00021050731
0.0014921071
0.0004033455
0.00022293507
0.0014756196
0.00020845731
0.0013223227
0.00036613484
1.5244338e-05
1.866426e-06
3.3513374e-05
6.3370328e-05
1.1875142e-05
0.00014769546
0.0001452794
3.8211998e-05
0.00035618284
0.00024605437
9.0795464e-05
0.00066286187
0.00033647975
0.00016851729
0.0010165969
0.00039213664
0.0002492382
0.0013172597
0.00040751435
0.00030666316
0.0014738065
0.00039153552
0.00032536056
0.0014583596
0.00030495267
0.0013072585
0.00035596637
1.4212064e-05
2.3855746e-06
3.2667653e-05
5.9265422e-05
1.5066974e-05
0.00014396887
0.00013637966
4.8408259e-05
0.00034733847
0.00023200548
0.00011512737
0.00064706043
0.00031910951
0.00021357004
0.00099381698
0.00037390613
0.00031725171
0.0012897321
0.00038981459
0.00039279451
0.0014448112
0.00037554192
0.00041801455
0.0014308369
0.0003928083
0.0012831345
0.00034234985
1.2935956e-05
2.7855422e-06
3.1506003e-05
5.4212555e-05
1.7508117e-05
0.00013887747
0.00012550588
5.6273044e-05
0.00033530054
0.00021508113
0.00013422774
0.00062554719
0.00029821352
0.00024966034
0.00096270457
0.0003520032
0.00037338495
0.0012519708
0.00036900532
0.00046600748
0.0014048552
0.00035721031
0.0004980994
0.0013926942
0.00046954512
0.0012494882
0.00032723164
1.1440648e-05
3.0567049e-06
3.0007531e-05
4.8285678e-05
1.9103391e-05
0.00013233622
0.00011278457
6.142431e-05
0.00031986805
0.00019562267
0.00014693382
0.00059795229
0.00027443067
0.00027516129
0.00092268308
0.00032720263
0.00041569118
0.001203204
0.00034629176
0.00052341654
0.0013530102
0.00033812198
0.00056275246
0.001342926
0.00053260703
0.0012052784
0.00031247501
9.797545e-06
3.1909681e-06
2.8167356e-05
4.1751396e-05
1.9788549e-05
0.00012432141
9.8782265e-05
6.3576399e-05
0.00030095278
0.00017425984
0.00015256734
0.00056402314
0.00024879589
0.00028863014
0.00087321144
0.00030104878
0.00044223674
0.0011425492
0.00032334321
0.00056247259
0.0012881117
0.00032018137
0.00060922052
0.0012802107
0.00057942611
0.0011491023
0.00030025009
8.0658969e-06
3.2004696e-06
2.6022992e-05
3.4834753e-05
1.9577663e-05
0.00011493775
8.3910847e-05
6.2672608e-05
0.00027866438
0.00015132344
0.00015109661
0.00052369976
0.00022126546
0.00028956407
0.00081383264
0.0002740659
0.00045105802
0.001069028
0.00030120877
0.00058060593
0.0012087501
0.00030496888
0.00063461877
0.0012029021
0.00060724457
0.0010791779
0.00029265862
6.4420197e-06
3.0115125e-06
2.358598e-05
2.8320281e-05
1.8247906e-05
0.00010426896
6.9801316e-05
5.8420299e-05
0.00025324738
0.00012948277
0.00014219878
0.0004774427
0.00019519364
0.00027750228
0.00074513274
0.00025004716
0.00044043623
0.00098311404
0.00028371403
0.00057580126
0.0011150546
0.00029595341
0.00063691448
0.00111062
0.00061416638
0.00099448075
0.00029278622
4.8862888e-06
2.6739468e-06
2.0842794e-05
2.1984633e-05
1.6036432e-05
9.2294476e-05
5.5846023e-05
5.1392756e-05
0.0002247138
0.00010757215
0.00012669782
0.00042531146
0.00016927162
0.00025269555
0.00066711476
0.00022702215
0.00040989127
0.0008845286
0.00026922625
0.00054629475
0.0010062961
0.0002926696
0.00061355448
0.0010020945
0.00059776319
0.00089325347
0.00030140004
3.5709877e-06
2.1351226e-06
1.792916e-05
1.6566364e-05
1.2830114e-05
7.9515846e-05
4.3552034e-05
4.1744883e-05
0.00019405163
8.7433763e-05
0.00010549334
0.00036870085
0.00014485932
0.00021634485
0.00058117556
0.00020543847
0.00036043077
0.00077405461
0.00025767811
0.00049164084
0.00088217773
0.00029534437
0.00056274591
0.00087585786
0.00055682566
0.00077323212
0.00031863446
2.624892e-06
1.4903218e-05
1.2774997e-06
1.2223741e-05
6.6232284e-05
8.713939e-06
3.2766676e-05
0.00016202263
3.0381695e-05
6.8550316e-05
0.00030891889
8.0519685e-05
0.00012055263
0.00048878901
0.00017146899
0.00018315472
0.00065243846
0.00029511146
0.00024628268
0.00074188539
0.00041389611
0.00030174285
0.00072958349
0.00048442117
0.00063161605
0.00049048114
0.00034418211
6.3982877e-07
-8.523868e-07
1.4423663e-05
6.9210616e-07
3.6394427e-06
-4.6802455e-06
6.4009622e-05
3.9033691e-06
1.0831937e-05
-1.4530783e-05
0.00015719588
1.2165274e-05
2.3818665e-05
-3.6470839e-05
0.00030202063
3.0382695e-05
4.3416332e-05
-7.7339279e-05
0.00048200553
6.4525257e-05
6.8974584e-05
-0.00013716876
0.00064824439
0.00011580436
9.808354e-05
-0.00020024559
0.00074062079
0.00017240111
0.0001278088
-0.00024262983
0.00072931827
0.00021316976
-0.00024983632
0.00063064926
0.00022421686
0.00015439488
7.9714246e-07
-9.0555809e-07
1.7185219e-05
4.590776e-06
-5.0753321e-06
7.6117406e-05
1.3469481e-05
-1.6011523e-05
0.0001866538
2.8722489e-05
-4.0891032e-05
0.0003578679
5.0011263e-05
-8.7266476e-05
0.00056981354
7.4584919e-05
-0.00015336058
0.00076567284
9.8891996e-05
-0.00022004241
0.000877668
0.00012075449
-0.0002618051
0.00087317053
-0.00026646836
0.00077029341
0.00014032503
1.0595838e-06
-9.2275704e-07
1.9800486e-05
5.9327236e-06
-5.2220005e-06
8.7568285e-05
1.6894644e-05
-1.6665452e-05
0.00021440616
3.4659263e-05
-4.3340201e-05
0.00040999601
5.7802473e-05
-9.3734693e-05
0.00065043957
8.1480293e-05
-0.00016355012
0.00087104026
0.00010140753
-0.00023107558
0.00099740168
0.00011661429
-0.00027065844
0.0009957416
-0.00027283555
0.00088718123
0.00012905344
1.392691e-06
-9.4492149e-07
2.221547e-05
7.6378807e-06
-5.2884336e-06
9.8090223e-05
2.1253544e-05
-1.6794322e-05
0.00023976036
4.2104135e-05
-4.3971033e-05
0.00045722249
6.7035716e-05
-9.6126635e-05
0.00072259374
8.9842925e-05
-0.00016709671
0.00096385341
0.0001059071
-0.00023307332
0.0011009887
0.00011554755
-0.00026942723
0.0010997485
-0.00026916287
0.00098448028
0.00012187544
1.7140985e-06
-9.4708725e-07
2.4311154e-05
9.344613e-06
-5.2241973e-06
0.00010724333
2.5772389e-05
-1.6396656e-05
0.0002618391
5.0013586e-05
-4.2807653e-05
0.0004982947
7.6753399e-05
-9.409172e-05
0.00078505725
9.9118597e-05
-0.00016393409
0.0010435004
0.00011208339
-0.00022627446
0.0011889864
0.00011730922
-0.00025875118
0.0011870007
-0.0002564689
0.0010648121
0.00011898136
2.0385029e-06
-9.3411631e-07
2.6115838e-05
1.1076004e-05
-5.0528091e-06
0.00011511237
3.0494544e-05
-1.5632091e-05
0.00028076935
5.8602405e-05
-4.0244059e-05
0.00053335213
8.7967187e-05
-8.8297163e-05
0.00083805133
0.00011014803
-0.00015409575
0.0011105298
0.00012056411
-0.00021097414
0.001262395
0.0001221323
-0.00023917597
0.0012590676
-0.00023547907
0.0011302358
0.00012000912
2.3274457e-06
-8.8390895e-07
2.7630022e-05
1.2629263e-05
-4.6927932e-06
0.00012167447
3.4732657e-05
-1.4327761e-05
0.00029645982
6.6612499e-05
-3.6344407e-05
0.00056217297
9.8850827e-05
-7.9136167e-05
0.0008812841
0.00012099656
-0.00013786117
0.0011648244
0.00012963338
-0.00018801407
0.0013214132
0.00012849004
-0.00021175774
0.0013166513
-0.00020733817
0.0011820624
0.00012356517
2.5757024e-06
-7.8723173e-07
2.8833842e-05
1.3976725e-05
-4.1140955e-06
0.00012689772
3.8416635e-05
-1.2422401e-05
0.00030895469
7.3718335e-05
-3.119723e-05
0.00058509818
0.00010863242
-6.6908926e-05
0.00091556316
0.00013120382
-0.00011617639
0.0012077152
0.00013879087
-0.00015852617
0.0013677804
0.00013567642
-0.00017763038
0.0013616817
-0.00017316024
0.001222317
0.00012866976
2.7843581e-06
-6.4970825e-07
2.9746014e-05
1.5111676e-05
-3.3411957e-06
0.00013086886
4.151711e-05
-9.9729846e-06
0.00031848351
7.9544545e-05
-2.4785477e-05
0.0006026219
0.00011692806
-5.2196875e-05
0.0009417215
0.00014048388
-9.0371631e-05
0.0012403718
0.00014739633
-0.00012359354
0.0014029664
0.0001428299
-0.000137956
0.0013957296
-0.0001340817
0.0012525951
0.00013429093
2.9307175e-06
-4.6579097e-07
3.0398724e-05
1.5925403e-05
-2.365329e-06
0.00013372503
4.3769158e-05
-6.9944297e-06
0.00032536049
8.3791029e-05
-1.7229789e-05
0.00061528513
0.00012337789
-3.5766718e-05
0.0009605803
0.00014820154
-6.1796616e-05
0.0012638614
0.0001547412
-8.4521976e-05
0.0014281957
0.0001491475
-9.4044318e-05
0.0014200422
-9.1300524e-05
0.0012741064
0.00013951849
3.0324936e-06
-2.4622443e-07
3.0867177e-05
1.6480537e-05
-1.2347294e-06
0.00013570154
4.5282289e-05
-3.6173463e-06
0.00032997408
8.6610656e-05
-8.8416736e-06
0.00062355823
0.00012768854
-1.8170512e-05
0.00097263965
0.00015332693
-3.13235e-05
0.0012786815
0.00015972645
-4.2808908e-05
0.0014439949
0.00015370109
-4.7576213e-05
0.0014351772
-4.6160703e-05
0.0012874527
0.00014343132
3.0707245e-06
1.3120942e-11
3.1050581e-05
1.6710454e-05
2.986408e-11
0.00013653349
4.5941937e-05
3.8881025e-11
0.00033203336
8.7870807e-05
1.9026425e-11
0.00062742656
0.00012966622
-2.3360913e-11
0.00097845275
0.00015573725
-4.1951829e-12
0.001285964
0.00016218265
8.3565458e-11
0.0014518408
0.00015600914
1.1723643e-10
0.0014427295
1.5029177e-10
0.0012941293
0.0001454972
3.070744e-06
2.4624037e-07
3.1050577e-05
1.6710347e-05
1.2347531e-06
0.00013653347
4.5941841e-05
3.6174159e-06
0.00033203333
8.787072e-05
8.8418003e-06
0.0006274265
0.0001296662
1.8170604e-05
0.00097845266
0.00015573726
3.1323594e-05
0.0012859638
0.00016218263
4.2809092e-05
0.0014518406
0.00015600906
4.7576445e-05
0.0014427294
4.6161049e-05
0.0012941292
0.00014549705
3.0325559e-06
4.6581528e-07
3.0867179e-05
1.6480412e-05
2.3653699e-06
0.00013570154
4.5282325e-05
6.994579e-06
0.00032997409
8.6610612e-05
1.7230098e-05
0.00062355825
0.00012768862
3.5767036e-05
0.00097263968
0.00015332701
6.1796892e-05
0.0012786815
0.00015972645
8.4522165e-05
0.0014439948
0.00015370094
9.4044519e-05
0.0014351771
9.1300949e-05
0.0012874526
0.00014343113
2.9307321e-06
6.497705e-07
3.039872e-05
1.5925349e-05
3.3413444e-06
0.00013372501
4.3769441e-05
9.9732418e-06
0.00032536045
8.3790995e-05
2.4785751e-05
0.00061528503
0.00012337796
5.2197151e-05
0.00096058018
0.00014820155
9.0371959e-05
0.0012638613
0.00015474115
0.00012359365
0.0014281955
0.00014914733
0.00013795611
0.001420042
0.00013408209
0.0012741063
0.00013951865
2.7841967e-06
7.8726339e-07
2.9746012e-05
1.5111477e-05
4.1142119e-06
0.00013086885
4.1517356e-05
1.2422556e-05
0.0003184835
7.9544532e-05
3.1197259e-05
0.00060262186
0.00011692819
6.6909102e-05
0.00094172149
0.00014048375
0.00011617677
0.0012403718
0.00014739622
0.00015852626
0.0014029663
0.00014282972
0.0001776304
0.0013957294
0.00017316031
0.001252595
0.00013429138
2.5754979e-06
8.8395214e-07
2.8833844e-05
1.3976483e-05
4.6930069e-06
0.00012689773
3.8416855e-05
1.4328057e-05
0.00030895472
7.3718513e-05
3.6344557e-05
0.00058509822
0.0001086326
7.9136431e-05
0.00091556324
0.00013120353
0.00013786157
0.0012077152
0.00013879066
0.00018801423
0.0013677804
0.0001356761
0.00021175768
0.0013616816
0.00020733767
0.0012223169
0.0001286699
2.3273004e-06
9.3414887e-07
2.7630027e-05
1.2629021e-05
5.0529822e-06
0.0001216745
3.4732919e-05
1.5632362e-05
0.00029645987
6.6612635e-05
4.0244179e-05
0.00056217306
9.8850929e-05
8.8297205e-05
0.00088128426
0.0001209962
0.00015409596
0.0011648245
0.00012963303
0.00021097438
0.0013214133
0.00012848937
0.0002391758
0.0013166512
0.00023547829
0.0011820623
0.0001235644
2.0385262e-06
9.4712357e-07
2.6115849e-05
1.1076146e-05
5.2243678e-06
0.00011511241
3.0494918e-05
1.6396995e-05
0.00028076946
5.8602193e-05
4.2807871e-05
0.00053335232
8.7967295e-05
9.4092005e-05
0.00083805164
0.00011014771
0.0001639345
0.0011105301
0.00012056372
0.00022627465
0.0012623952
0.00012213144
0.00025875081
0.0012590676
0.00025646848
0.0011302357
0.00012000777
1.7140138e-06
9.4496444e-07
2.4311159e-05
9.34429e-06
5.2885751e-06
0.00010724335
2.5771965e-05
1.6794709e-05
0.00026183915
5.0013365e-05
4.3971577e-05
0.00049829478
7.6753423e-05
9.612713e-05
0.00078505742
9.9118331e-05
0.00016709694
0.0010435005
0.00011208308
0.0002330734
0.0011889864
0.00011730848
0.00026942682
0.0011870006
0.00026916297
0.001064812
0.00011898022
1.3926838e-06
9.2281304e-07
2.221547e-05
7.6378016e-06
5.2222079e-06
9.8090223e-05
2.1253581e-05
1.6665913e-05
0.00023976037
4.2104525e-05
4.3340709e-05
0.0004572225
6.7035636e-05
9.3734854e-05
0.00072259376
8.9842865e-05
0.00016355024
0.00096385345
0.00010590669
0.00023107546
0.0011009887
0.00011554681
0.00027065849
0.0010997484
0.00027283669
0.0009844801
0.00012187406
1.0595479e-06
9.0558746e-07
1.9800483e-05
5.9325012e-06
5.0754463e-06
8.7568271e-05
1.6894317e-05
1.6011759e-05
0.00021440613
3.4659224e-05
4.0891331e-05
0.00040999596
5.7802736e-05
8.7266733e-05
0.0006504395
8.1480361e-05
0.00015336087
0.00087104021
0.00010140741
0.00022004267
0.00099740163
0.00011661352
0.0002618054
0.00099574151
0.00026646977
0.00088718114
0.00012905175
7.9709568e-07
8.5240743e-07
1.718522e-05
4.5905969e-06
4.6803144e-06
7.6117411e-05
1.3469237e-05
1.453095e-05
0.00018665381
2.8722449e-05
3.6471152e-05
0.00035786792
5.0011575e-05
7.733957e-05
0.00056981357
7.4584873e-05
0.00013716885
0.00076567291
9.8891714e-05
0.0002002456
0.00087766809
0.00012075423
0.00024263032
0.00087317042
0.00024983725
0.00077029336
0.00014032443
6.3981789e-07
1.4423667e-05
6.9212504e-07
3.6393469e-06
6.4009637e-05
3.9034307e-06
1.0831723e-05
0.00015719591
1.2165393e-05
2.3818224e-05
0.00030202068
3.0382827e-05
4.3415443e-05
0.00048200561
6.4525281e-05
6.8974012e-05
0.00064824449
0.00011580446
9.8083597e-05
0.00074062084
0.00017240142
0.00012780811
0.00072931829
0.00021317056
0.00063064929
0.00022421805
0.00015439516
-7.7366446e-08
-2.5717066e-07
1.4632116e-05
1.2608356e-07
-3.622098e-07
-1.473596e-06
6.48866e-05
8.8151945e-07
-5.5133701e-07
-4.7851711e-06
0.00015897381
3.1965278e-06
6.4850782e-07
-1.2484781e-05
0.00030437632
8.9294821e-06
5.3552161e-06
-2.7604478e-05
0.0004842326
2.0670868e-05
1.5035951e-05
-5.1437877e-05
0.0006501182
3.988326e-05
2.8784872e-05
-7.89322e-05
0.00074272515
6.3078906e-05
4.3877826e-05
-9.9527693e-05
0.00073215085
8.1602167e-05
-0.00010473671
0.00063377455
8.8664558e-05
5.6824569e-05
-1.1765624e-07
-3.421308e-07
1.7387859e-05
-4.8923182e-07
-1.9179152e-06
7.6933387e-05
-6.6839701e-07
-6.0683428e-06
0.00018811627
9.171176e-07
-1.5428215e-05
0.00035922585
6.4745885e-06
-3.3330025e-05
0.00056998143
1.6832493e-05
-6.0683727e-05
0.00076456093
3.0149823e-05
-9.1077917e-05
0.00087649684
4.3128564e-05
-0.00011244466
0.00087310867
-0.00011646757
0.00077140807
5.3744708e-05
-1.4269198e-07
-3.8585368e-07
1.998694e-05
-5.8908437e-07
-2.1722298e-06
8.8269148e-05
-7.8457113e-07
-6.8612765e-06
0.00021539479
1.1244559e-06
-1.7356768e-05
0.00041001553
7.4276288e-06
-3.7216712e-05
0.00064802289
1.8402521e-05
-6.6920422e-05
0.00086630206
3.141894e-05
-9.8943977e-05
0.00099225106
4.2836156e-05
-0.000120119
0.00099199901
-0.00012312634
0.00088542688
5.1249129e-05
-1.5051614e-07
-3.9706485e-07
2.2377208e-05
-6.0331108e-07
-2.2633298e-06
9.8634153e-05
-6.8257861e-07
-7.1838753e-06
0.00024016218
1.7109717e-06
-1.8205241e-05
0.00045567725
8.8334786e-06
-3.9030201e-05
0.00071728527
2.0537287e-05
-6.9960412e-05
0.00095518972
3.3330826e-05
-0.00010233174
0.0010915833
4.3450716e-05
-0.00012252039
0.0010920301
-0.00012449069
0.00097949072
4.9804582e-05
-1.5134819e-07
-3.7515941e-07
2.4440655e-05
-5.772885e-07