/*--------------------------------*- C++ -*----------------------------------*\
| =========                 |                                                 |
| \\      /  F ield         | OpenFOAM: The Open Source CFD Toolbox           |
|  \\    /   O peration     | Version:  2406                                  |
|   \\  /    A nd           | Website:  www.openfoam.com                      |
|    \\/     M anipulation  |                                                 |
\*---------------------------------------------------------------------------*/
FoamFile
{
    version     2.0;
    format      ascii;
    arch        "LSB;label=32;scalar=64";
    class       volVectorField;
    location    "0.25";
    object      U;
}
// * * * * * * * * * * * * * * * * * * * * * * * * * * * * * * * * * * * * * //

dimensions      [0 1 -1 0 0 0 0];

internalField   nonuniform List<vector> 
34560
(
(0.090666163 -0.0071873435 -0.022901668)
(0.28128075 -0.021192417 -0.071727905)
(0.50044511 -0.038791419 -0.12522834)
(0.73061705 -0.059962719 -0.17650634)
(0.94727487 -0.083329354 -0.21706901)
(1.1273871 -0.10675286 -0.23965898)
(1.2595355 -0.12759583 -0.2431579)
(1.3476421 -0.14446106 -0.23293389)
(1.4013526 -0.15523175 -0.21889699)
(0.10637666 -0.0086114513 -0.025851186)
(0.32468581 -0.02446743 -0.080313229)
(0.56835634 -0.043305507 -0.13817016)
(0.81509616 -0.064821299 -0.19106142)
(1.0371715 -0.087440965 -0.22980895)
(1.2119576 -0.10914085 -0.24771762)
(1.3323433 -0.12763703 -0.24541939)
(1.4077695 -0.14172805 -0.23010494)
(1.452308 -0.15023745 -0.21120029)
(0.12236959 -0.0092251918 -0.027632602)
(0.36799319 -0.025637812 -0.085673467)
(0.63474125 -0.044632548 -0.14604657)
(0.89593072 -0.065784732 -0.1994746)
(1.1216011 -0.087396433 -0.23661678)
(1.2905902 -0.1075625 -0.25129256)
(1.4001923 -0.12424377 -0.24526512)
(1.4644998 -0.13635812 -0.22669382)
(1.5009898 -0.1432145 -0.20549452)
(0.13843818 -0.0097812238 -0.029218021)
(0.41061373 -0.026563599 -0.090368297)
(0.6987866 -0.045308342 -0.15267173)
(0.97244214 -0.065527229 -0.20607649)
(1.2003234 -0.08557719 -0.24135135)
(1.3634156 -0.10381662 -0.25307603)
(1.4632658 -0.11850246 -0.24412186)
(1.5177564 -0.12867356 -0.22335932)
(1.5466971 -0.13382674 -0.20094727)
(0.15387665 -0.0098049809 -0.030331721)
(0.45094979 -0.026176609 -0.093800616)
(0.75855329 -0.044048554 -0.15740889)
(1.0429182 -0.062921256 -0.21052113)
(1.2721317 -0.081204138 -0.24412607)
(1.4296044 -0.097445977 -0.25349455)
(1.5208039 -0.11015603 -0.242399)
(1.5667191 -0.11853704 -0.22021609)
(1.5887789 -0.12226554 -0.19701865)
(0.16843733 -0.0095000394 -0.031016859)
(0.48842878 -0.025032694 -0.096051457)
(0.81332749 -0.041588103 -0.16045559)
(1.1067104 -0.058688122 -0.21315917)
(1.3365524 -0.074892516 -0.24540157)
(1.4887812 -0.088984046 -0.25302726)
(1.5723711 -0.099730545 -0.24048697)
(1.6108668 -0.10650614 -0.21746886)
(1.6268048 -0.10912546 -0.19374296)
(0.18182678 -0.008834142 -0.031474681)
(0.52245053 -0.023006408 -0.097630047)
(0.86246596 -0.037787295 -0.16249422)
(1.1633343 -0.052754805 -0.21469228)
(1.3932912 -0.066669808 -0.24576502)
(1.5407173 -0.078559054 -0.25207199)
(1.6176609 -0.087433035 -0.23857884)
(1.6497942 -0.092817991 -0.21513302)
(1.6603941 -0.09461778 -0.19102666)
(0.19351487 -0.0077909122 -0.031719399)
(0.55189476 -0.020098243 -0.098612495)
(0.90467879 -0.032710435 -0.16371887)
(1.2116871 -0.045278687 -0.21544073)
(1.4415707 -0.056781921 -0.24559354)
(1.5848758 -0.066471972 -0.25094915)
(1.6562218 -0.073578071 -0.23685864)
(1.683052 -0.077754935 -0.21324268)
(1.68913 -0.078967857 -0.1888376)
(0.20318894 -0.0063998736 -0.031812469)
(0.57611318 -0.016390576 -0.099154526)
(0.93920499 -0.026501908 -0.16436909)
(1.2510802 -0.036466798 -0.21569584)
(1.4808368 -0.045486743 -0.24517157)
(1.6208 -0.053008528 -0.24987124)
(1.6876312 -0.05845236 -0.235429)
(1.7102129 -0.061574607 -0.21179011)
(1.7126124 -0.062378887 -0.18714538)
(0.21065639 -0.0047595205 -0.031813401)
(0.5947319 -0.01213511 -0.099397901)
(0.96560277 -0.019526174 -0.16465188)
(1.2810889 -0.026743178 -0.21569157)
(1.5106913 -0.033218112 -0.24470891)
(1.6481013 -0.03857536 -0.24898383)
(1.7115033 -0.042414065 -0.23435073)
(1.7308834 -0.044574589 -0.21075627)
(1.7304807 -0.045078817 -0.1859234)
(0.21589918 -0.0029697411 -0.031826797)
(0.60766362 -0.0075435759 -0.099580767)
(0.98376005 -0.012065084 -0.16484712)
(1.301546 -0.01642095 -0.21567349)
(1.530898 -0.020286791 -0.24438011)
(1.6664901 -0.023462174 -0.24838534)
(1.7275295 -0.025722188 -0.23365158)
(1.7447449 -0.026977714 -0.21011101)
(1.7424502 -0.027248344 -0.18514663)
(0.21839778 -0.0009647637 -0.031814248)
(0.61389254 -0.0024277696 -0.099646181)
(0.99258883 -0.00389485 -0.16493627)
(1.3115908 -0.0053400957 -0.21568299)
(1.5409053 -0.0066465823 -0.24425627)
(1.6756503 -0.0077371482 -0.24813411)
(1.7355312 -0.008524566 -0.23334731)
(1.751667 -0.0089716134 -0.20982388)
(1.7484192 -0.0090831119 -0.1847807)
(0.21839777 0.00096475163 -0.031814233)
(0.61389253 0.0024277206 -0.09964614)
(0.99258878 0.003894756 -0.16493625)
(1.3115907 0.0053399761 -0.215683)
(1.5409052 0.0066464546 -0.24425629)
(1.6756503 0.0077370422 -0.24813413)
(1.7355312 0.0085245031 -0.23334734)
(1.751667 0.0089715945 -0.20982389)
(1.7484192 0.0090831381 -0.1847807)
(0.21589918 0.0029697199 -0.031826787)
(0.6076636 0.0075435186 -0.099580736)
(0.98375995 0.012065003 -0.16484711)
(1.3015459 0.016420858 -0.21567354)
(1.5308979 0.020286698 -0.24438016)
(1.66649 0.023462094 -0.24838541)
(1.7275294 0.025722132 -0.23365164)
(1.7447448 0.026977689 -0.21011103)
(1.7424503 0.02724838 -0.18514667)
(0.21065637 0.0047595148 -0.031813402)
(0.59473186 0.01213506 -0.099397942)
(0.9656027 0.019526098 -0.16465195)
(1.2810888 0.026743096 -0.2156917)
(1.5106912 0.033218045 -0.24470899)
(1.6481013 0.03857529 -0.24898391)
(1.7115033 0.042413991 -0.2343508)
(1.7308834 0.044574539 -0.2107563)
(1.7304809 0.045078846 -0.18592352)
(0.20318893 0.0063999047 -0.031812425)
(0.57611316 0.016390578 -0.099154532)
(0.93920498 0.026501871 -0.16436915)
(1.2510801 0.03646671 -0.21569598)
(1.4808368 0.045486658 -0.24517164)
(1.6208001 0.053008433 -0.24987132)
(1.6876314 0.058452252 -0.23542908)
(1.7102129 0.061574524 -0.21179016)
(1.7126126 0.062378876 -0.18714558)
(0.19351485 0.0077909593 -0.031719346)
(0.55189472 0.020098302 -0.098612442)
(0.90467871 0.032710454 -0.16371883)
(1.2116869 0.045278596 -0.21544078)
(1.4415706 0.056781799 -0.24559362)
(1.5848759 0.066471857 -0.25094922)
(1.6562219 0.073577963 -0.2368587)
(1.683052 0.07775484 -0.21324274)
(1.6891303 0.078967765 -0.18883781)
(0.18182677 0.0088341644 -0.031474657)
(0.5224505 0.023006437 -0.097630006)
(0.862466 0.037787288 -0.16249415)
(1.1633343 0.052754679 -0.21469235)
(1.3932913 0.066669631 -0.24576517)
(1.5407173 0.07855892 -0.2520721)
(1.6176607 0.087432935 -0.23857889)
(1.6497941 0.092817871 -0.21513304)
(1.6603943 0.094617575 -0.19102673)
(0.16843733 0.0095000482 -0.031016809)
(0.48842883 0.025032709 -0.096051392)
(0.8133276 0.0415881 -0.16045554)
(1.1067104 0.058688012 -0.21315925)
(1.3365523 0.074892317 -0.24540174)
(1.4887811 0.088983861 -0.25302739)
(1.5723709 0.099730385 -0.24048698)
(1.6108668 0.10650595 -0.21746875)
(1.626805 0.10912519 -0.19374281)
(0.15387663 0.0098049732 -0.030331687)
(0.45094972 0.026176597 -0.093800589)
(0.75855319 0.044048537 -0.15740886)
(1.042918 0.062921164 -0.21052115)
(1.2721316 0.08120393 -0.24412617)
(1.4296043 0.097445687 -0.2534946)
(1.5208039 0.11015574 -0.24239891)
(1.5667193 0.1185368 -0.22021588)
(1.5887789 0.12226539 -0.19701842)
(0.13843819 0.009781219 -0.029217986)
(0.41061376 0.026563562 -0.090368289)
(0.69878671 0.045308315 -0.15267168)
(0.9724424 0.065527119 -0.20607652)
(1.2003236 0.08557695 -0.24135139)
(1.3634157 0.10381624 -0.25307596)
(1.4632659 0.11850201 -0.24412168)
(1.5177562 0.12867328 -0.22335914)
(1.5466971 0.13382695 -0.20094722)
(0.1223696 0.009225177 -0.02763258)
(0.36799321 0.025637761 -0.085673448)
(0.6347413 0.044632512 -0.14604651)
(0.89593082 0.065784642 -0.19947455)
(1.1216013 0.087396243 -0.2366167)
(1.2905903 0.10756217 -0.25129236)
(1.4001923 0.12424323 -0.24526492)
(1.4644993 0.13635763 -0.22669386)
(1.50099 0.14321478 -0.20549471)
(0.10637666 0.008611457 -0.025851189)
(0.32468581 0.024467445 -0.080313236)
(0.56835635 0.043305553 -0.13817014)
(0.8150962 0.064821329 -0.19106138)
(1.0371716 0.087440956 -0.22980886)
(1.2119577 0.10914079 -0.24771737)
(1.3323433 0.12763679 -0.24541926)
(1.4077693 0.14172745 -0.23010525)
(1.452308 0.15023724 -0.21120061)
(0.090666164 0.0071873631 -0.022901685)
(0.28128075 0.02119245 -0.071727952)
(0.50044511 0.038791477 -0.1252284)
(0.73061707 0.059962799 -0.17650644)
(0.94727495 0.083329477 -0.21706912)
(1.1273872 0.10675295 -0.23965896)
(1.2595354 0.12759582 -0.24315769)
(1.3476417 0.14446071 -0.23293404)
(1.4013523 0.15523139 -0.2188975)
(0.097734479 -0.00097929078 -0.0010898157)
(0.31366202 -0.0043581492 -0.0050501165)
(0.5746986 -0.010477987 -0.012777804)
(0.85996951 -0.020331139 -0.025508814)
(1.1337204 -0.033980241 -0.042433286)
(1.3597497 -0.049397769 -0.059958259)
(1.5198587 -0.063410971 -0.073399949)
(1.6197745 -0.074000511 -0.080273156)
(1.6730531 -0.08065445 -0.081392745)
(0.10882952 -0.0015152924 -0.0015051207)
(0.3468991 -0.0062531973 -0.0065156049)
(0.63038432 -0.014118844 -0.01588209)
(0.93283609 -0.025847013 -0.030695768)
(1.2128326 -0.040980243 -0.049394827)
(1.4328534 -0.056805638 -0.067420921)
(1.5791887 -0.069949839 -0.079887314)
(1.6641656 -0.078781196 -0.084967812)
(1.7074259 -0.083384671 -0.08385687)
(0.11921984 -0.0016530716 -0.0015314609)
(0.37802043 -0.0069823797 -0.0068447071)
(0.68233474 -0.015780373 -0.017078327)
(1.0002038 -0.028494755 -0.033082517)
(1.2850693 -0.044181018 -0.052637899)
(1.4988016 -0.059719813 -0.070711673)
(1.6324148 -0.07173865 -0.082435584)
(1.7042518 -0.078968764 -0.086529946)
(1.7390082 -0.082037783 -0.084622176)
(0.12900899 -0.0017906391 -0.0015610145)
(0.40716019 -0.0075876687 -0.0071059696)
(0.73060925 -0.017024091 -0.018046361)
(1.0621735 -0.03024214 -0.034989315)
(1.350959 -0.045756454 -0.054782375)
(1.5589692 -0.060406594 -0.072528693)
(1.6817125 -0.071008227 -0.083467604)
(1.7424211 -0.076704609 -0.086921058)
(1.7693959 -0.07854394 -0.084749897)
(0.13769484 -0.0018127251 -0.0015203616)
(0.43309334 -0.0077699319 -0.0071062484)
(0.7736274 -0.017435146 -0.018492675)
(1.1172843 -0.03070526 -0.036086345)
(1.4093401 -0.045673355 -0.056003096)
(1.6125773 -0.059057266 -0.073174982)
(1.7264125 -0.068192231 -0.083556635)
(1.7779809 -0.07253817 -0.086687247)
(1.7980483 -0.073385427 -0.08459395)
(0.14538408 -0.0017507472 -0.0014296401)
(0.45602646 -0.0075857426 -0.0068910193)
(0.81160519 -0.017049285 -0.018459509)
(1.1657729 -0.029884069 -0.036431274)
(1.4604295 -0.04389344 -0.05630303)
(1.6595358 -0.05575177 -0.072818502)
(1.7660834 -0.063441378 -0.082935665)
(1.8102557 -0.066645937 -0.086031687)
(1.8244339 -0.066751426 -0.084180951)
(0.15216795 -0.0016359878 -0.0013365736)
(0.47615304 -0.0071138032 -0.0066188192)
(0.84473809 -0.015956743 -0.018178704)
(1.2079124 -0.027863764 -0.036352034)
(1.5045522 -0.04051697 -0.056047979)
(1.6999401 -0.05073282 -0.071993882)
(1.8005207 -0.056988664 -0.081914583)
(1.8387221 -0.059236377 -0.085168227)
(1.8480475 -0.05884331 -0.083631481)
(0.15779882 -0.001445772 -0.001233211)
(0.49290136 -0.0063101145 -0.0062918186)
(0.87235033 -0.014129263 -0.017740806)
(1.2430585 -0.024587474 -0.03585728)
(1.5414309 -0.035567192 -0.055463735)
(1.7336903 -0.04412128 -0.07102933)
(1.8295055 -0.048999276 -0.080685802)
(1.8629797 -0.050489391 -0.084238347)
(1.8684074 -0.049823114 -0.083037323)
(0.16223246 -0.0011868513 -0.0011311212)
(0.50613967 -0.0052054352 -0.005954693)
(0.89426336 -0.011649518 -0.017244963)
(1.2710106 -0.020229806 -0.035154812)
(1.5709774 -0.029230528 -0.05476355)
(1.7607901 -0.036044807 -0.070015483)
(1.852875 -0.039666694 -0.079423089)
(1.8827114 -0.040601514 -0.083351552)
(1.8851043 -0.039853841 -0.082474396)
(0.16549934 -0.00087276349 -0.0010424822)
(0.51594659 -0.003859585 -0.0056557725)
(0.91061608 -0.0086562037 -0.016790625)
(1.2919481 -0.015038818 -0.034510122)
(1.5932188 -0.021744831 -0.054100178)
(1.781201 -0.026717675 -0.069116348)
(1.8704701 -0.0292199 -0.078340802)
(1.8976456 -0.02977685 -0.082607352)
(1.8978085 -0.029103304 -0.08200933)
(0.16794322 -0.00053458543 -0.0009811534)
(0.52304948 -0.0023738695 -0.0054438097)
(0.92214112 -0.0053295495 -0.016459226)
(1.306378 -0.0092616654 -0.034037257)
(1.6083235 -0.01340117 -0.053600553)
(1.794902 -0.016435553 -0.068476952)
(1.8821528 -0.017928885 -0.07770162)
(1.9075729 -0.018215114 -0.082086959)
(1.9062759 -0.017745281 -0.081690402)
(0.16892438 -0.00019519726 -0.00095212798)
(0.52608765 -0.00084206126 -0.0053389044)
(0.92733296 -0.0018567964 -0.016286493)
(1.3131483 -0.0031904696 -0.033789261)
(1.6156201 -0.0045872684 -0.053341434)
(1.8016208 -0.0055957104 -0.068159628)
(1.8879109 -0.00607671 -0.077396075)
(1.9124794 -0.0061512691 -0.081824423)
(1.9104681 -0.0059745056 -0.081536138)
(0.16892438 0.00019520858 -0.00095213006)
(0.52608765 0.0008420657 -0.0053388935)
(0.92733296 0.0018567826 -0.016286486)
(1.3131483 0.0031904317 -0.033789266)
(1.6156201 0.0045871888 -0.053341442)
(1.8016208 0.0055956354 -0.068159649)
(1.8879108 0.0060766712 -0.077396092)
(1.9124794 0.0061512769 -0.081824432)
(1.9104681 0.0059745689 -0.081536148)
(0.16794322 0.00053459083 -0.00098115291)
(0.52304948 0.0023738658 -0.0054438044)
(0.92214112 0.0053295396 -0.016459228)
(1.3063779 0.0092616373 -0.034037285)
(1.6083235 0.013401102 -0.053600579)
(1.7949019 0.016435485 -0.068477009)
(1.8821527 0.017928842 -0.077701663)
(1.9075728 0.018215115 -0.082086982)
(1.9062759 0.017745352 -0.081690445)
(0.16549934 0.00087278395 -0.0010424716)
(0.51594661 0.003859602 -0.0056557994)
(0.91061611 0.0086562069 -0.016790649)
(1.291948 0.015038785 -0.034510174)
(1.5932188 0.021744763 -0.054100214)
(1.781201 0.026717603 -0.069116418)
(1.8704701 0.029219837 -0.078340855)
(1.8976454 0.029776833 -0.08260739)
(1.8978086 0.029103386 -0.082009426)
(0.16223246 0.0011868789 -0.0011310894)
(0.5061397 0.0052054574 -0.0059546778)
(0.89426343 0.011649511 -0.01724493)
(1.2710106 0.020229745 -0.035154853)
(1.5709774 0.029230449 -0.0547636)
(1.7607901 0.036044723 -0.070015553)
(1.852875 0.039666608 -0.079423138)
(1.8827112 0.040601471 -0.083351608)
(1.8851043 0.039853907 -0.082474536)
(0.15779884 0.0014457832 -0.0012331654)
(0.49290141 0.006310109 -0.0062917625)
(0.87235042 0.014129238 -0.017740762)
(1.2430585 0.024587411 -0.035857354)
(1.5414309 0.035567119 -0.055463826)
(1.7336903 0.044121188 -0.071029387)
(1.8295055 0.048999183 -0.080685834)
(1.8629795 0.050489325 -0.084238401)
(1.8684074 0.049823108 -0.083037464)
(0.15216796 0.0016359876 -0.0013365497)
(0.47615307 0.0071138022 -0.0066187956)
(0.84473815 0.01595674 -0.018178735)
(1.2079125 0.027863719 -0.036352152)
(1.5045523 0.040516888 -0.05604807)
(1.69994 0.050732706 -0.071993914)
(1.8005205 0.056988559 -0.081914594)
(1.8387219 0.059236282 -0.085168228)
(1.8480475 0.058843219 -0.083631532)
(0.14538409 0.0017507462 -0.0014296564)
(0.45602651 0.0075857459 -0.0068910829)
(0.81160532 0.017049271 -0.018459603)
(1.1657731 0.029883997 -0.036431371)
(1.4604296 0.043893342 -0.056303092)
(1.6595358 0.055751628 -0.072818534)
(1.7660833 0.063441226 -0.082935643)
(1.8102555 0.066645788 -0.086031588)
(1.8244338 0.066751321 -0.084180833)
(0.13769486 0.0018127358 -0.0015203624)
(0.4330934 0.0077699373 -0.0071062734)
(0.77362751 0.01743515 -0.018492657)
(1.1172845 0.030705208 -0.036086366)
(1.4093403 0.045673257 -0.056003124)
(1.6125774 0.059057114 -0.073174964)
(1.7264125 0.068192038 -0.083556548)
(1.7779808 0.072537987 -0.08668707)
(1.798048 0.073385408 -0.084593755)
(0.12900902 0.0017906456 -0.0015610075)
(0.40716026 0.0075876621 -0.0071059706)
(0.73060941 0.01702409 -0.01804635)
(1.0621738 0.030242093 -0.034989339)
(1.3509593 0.045756315 -0.054782392)
(1.5589695 0.060406406 -0.072528635)
(1.6817126 0.071008028 -0.083467458)
(1.7424209 0.076704525 -0.086920928)
(1.7693956 0.078544122 -0.084749786)
(0.11921986 0.0016530762 -0.0015314543)
(0.37802051 0.0069824004 -0.0068446823)
(0.6823349 0.015780418 -0.01707828)
(1.0002041 0.028494772 -0.033082463)
(1.2850696 0.044180934 -0.052637853)
(1.4988019 0.05971961 -0.070711581)
(1.632415 0.071738427 -0.082435543)
(1.7042516 0.078968769 -0.08653003)
(1.7390081 0.082038123 -0.084622094)
(0.10882955 0.0015153011 -0.0015051174)
(0.34689918 0.0062532368 -0.0065155864)
(0.63038447 0.014118911 -0.01588207)
(0.93283632 0.025847082 -0.030695745)
(1.2128329 0.040980266 -0.049394788)
(1.4328537 0.056805536 -0.067420887)
(1.579189 0.069949625 -0.079887483)
(1.6641654 0.078780971 -0.084967979)
(1.7074257 0.083384597 -0.083856669)
(0.097734502 0.00097929969 -0.0010898175)
(0.31366209 0.0043581701 -0.0050501238)
(0.57469872 0.010478027 -0.012777819)
(0.85996968 0.020331198 -0.025508831)
(1.1337206 0.033980306 -0.042433282)
(1.3597499 0.049397767 -0.05995828)
(1.5198588 0.063410879 -0.073400048)
(1.6197744 0.074000443 -0.080273256)
(1.6730529 0.080654544 -0.081392803)
(0.081104249 -0.00047259221 -0.00047450392)
(0.2638664 -0.001826102 -0.0019610759)
(0.49190742 -0.0040239886 -0.0046505127)
(0.75259551 -0.0074701859 -0.0090791204)
(1.017596 -0.012668058 -0.015355542)
(1.2506828 -0.019535305 -0.022711747)
(1.4250379 -0.026923442 -0.0293864)
(1.537186 -0.033306298 -0.033793073)
(1.5965224 -0.037485414 -0.035741698)
(0.088182758 -0.00056775269 -0.00052000709)
(0.28574932 -0.0021638713 -0.0021261087)
(0.53010175 -0.0047260474 -0.0051061232)
(0.80503615 -0.0087193054 -0.010092133)
(1.0772294 -0.01456193 -0.017001846)
(1.3073309 -0.021859643 -0.024704907)
(1.4705002 -0.029130796 -0.031104079)
(1.5691227 -0.034870879 -0.034828107)
(1.6197365 -0.038383975 -0.035942258)
(0.094529795 -0.00054184142 -0.00046406948)
(0.30551502 -0.0021261794 -0.0019845419)
(0.56479022 -0.0047394678 -0.0050054977)
(0.85269935 -0.0089854024 -0.010319253)
(1.1310296 -0.015214064 -0.017690759)
(1.3577064 -0.022668388 -0.025553365)
(1.510209 -0.02963683 -0.031687175)
(1.5965877 -0.034731368 -0.03488531)
(1.6394156 -0.037712319 -0.035571781)
(0.10024505 -0.00054305668 -0.00044162521)
(0.32328703 -0.0021117324 -0.0019203835)
(0.59596188 -0.0046738624 -0.0049980831)
(0.89554545 -0.0089540031 -0.01051751)
(1.1793843 -0.015382454 -0.018340834)
(1.4031361 -0.022761352 -0.026144504)
(1.5466356 -0.029270236 -0.031900075)
(1.6226393 -0.033695136 -0.034633512)
(1.658214 -0.036140634 -0.034988341)
(0.10494829 -0.00053968019 -0.00041997737)
(0.33807955 -0.0020620185 -0.0018583483)
(0.62217155 -0.0044882524 -0.0049772643)
(0.93195165 -0.0086097206 -0.010627568)
(1.2209421 -0.01493098 -0.018668836)
(1.442585 -0.022129299 -0.026519702)
(1.5790252 -0.028115432 -0.031862309)
(1.6467438 -0.031888156 -0.034208803)
(1.6759592 -0.033804827 -0.03435954)
(0.10884081 -0.00053388269 -0.00039356413)
(0.35036581 -0.0019938365 -0.0017889102)
(0.64398662 -0.0042403601 -0.0049471418)
(0.96231659 -0.008043276 -0.010654216)
(1.2558101 -0.013979657 -0.018798797)
(1.4759757 -0.020794944 -0.026749766)
(1.6069749 -0.026172333 -0.031642989)
(1.6683097 -0.029333308 -0.033672716)
(1.6922795 -0.030769863 -0.033716511)
(0.11211091 -0.00051963745 -0.00036498248)
(0.36062584 -0.0018949121 -0.0017120506)
(0.66211381 -0.0039413097 -0.0049368801)
(0.98733237 -0.0073073121 -0.010625011)
(1.2845285 -0.012623947 -0.018802881)
(1.5036975 -0.018773397 -0.026771749)
(1.6304823 -0.023488743 -0.031338368)
(1.6869821 -0.026090274 -0.033098957)
(1.7068239 -0.027121947 -0.033103364)
(0.11464327 -0.00047937714 -0.00033029922)
(0.36863417 -0.0017161834 -0.0016116994)
(0.67635943 -0.0035129692 -0.0048675468)
(1.0070918 -0.0064010462 -0.010615136)
(1.3072842 -0.010891774 -0.018652598)
(1.5259603 -0.01611456 -0.02653734)
(1.6496327 -0.020138305 -0.031027682)
(1.7025691 -0.022229912 -0.032548709)
(1.7192826 -0.022940828 -0.032553071)
(0.11649847 -0.00041572024 -0.00029501969)
(0.3745709 -0.0014627022 -0.0015056071)
(0.68704049 -0.0029522338 -0.0047592257)
(1.0220775 -0.0052982668 -0.010606923)
(1.3245633 -0.008825595 -0.018386747)
(1.5430893 -0.012977107 -0.026223549)
(1.6646149 -0.016231405 -0.030769456)
(1.7149999 -0.017836823 -0.032071603)
(1.729431 -0.018307897 -0.032089793)
(0.11778589 -0.00032513668 -0.00026007526)
(0.37875336 -0.0011270008 -0.001398217)
(0.69465163 -0.0022467051 -0.0046201017)
(1.0328416 -0.0039732869 -0.010512164)
(1.3369832 -0.0064947333 -0.018081638)
(1.5555221 -0.0094975916 -0.025900961)
(1.675669 -0.011888591 -0.030549212)
(1.7242699 -0.013014794 -0.031692771)
(1.7371071 -0.013315903 -0.031725799)
(0.11883438 -0.00020840875 -0.00023234876)
(0.38194205 -0.00071492872 -0.0013137073)
(0.70014849 -0.0014141473 -0.0045057367)
(1.0402804 -0.0024731162 -0.010412677)
(1.345283 -0.0039821532 -0.017835687)
(1.5637273 -0.0057921883 -0.025636048)
(1.6829999 -0.007232287 -0.030263846)
(1.7303907 -0.0079042324 -0.031425344)
(1.7422093 -0.0080774527 -0.031469536)
(0.11915212 -7.3568802e-05 -0.00021717998)
(0.38306951 -0.00024881669 -0.001267102)
(0.70233033 -0.00048433628 -0.0044398251)
(1.0434971 -0.00083754285 -0.010347271)
(1.3490745 -0.0013398957 -0.017695376)
(1.5676354 -0.0019477843 -0.02548741)
(1.6865652 -0.0024304091 -0.030101436)
(1.7334034 -0.0026530965 -0.031294212)
(1.7447337 -0.0027083926 -0.031337521)
(0.11915212 7.3583493e-05 -0.00021718669)
(0.38306951 0.00024884198 -0.001267104)
(0.70233034 0.00048436843 -0.0044398238)
(1.0434971 0.00083757066 -0.010347273)
(1.3490745 0.0013399057 -0.017695383)
(1.5676354 0.0019477971 -0.02548742)
(1.6865652 0.0024304433 -0.030101443)
(1.7334034 0.0026531368 -0.031294208)
(1.7447337 0.0027084439 -0.031337511)
(0.11883439 0.00020842307 -0.00023235487)
(0.38194206 0.00071494921 -0.0013137187)
(0.70014852 0.0014141805 -0.004505747)
(1.0402805 0.0024731555 -0.010412699)
(1.3452831 0.0039821764 -0.017835708)
(1.5637273 0.0057922045 -0.025636075)
(1.6829998 0.0072323099 -0.030263861)
(1.7303906 0.0079042641 -0.031425332)
(1.7422092 0.0080775133 -0.031469523)
(0.11778589 0.00032516744 -0.00026006495)
(0.37875338 0.0011270438 -0.0013982446)
(0.69465167 0.0022467571 -0.0046201283)
(1.0328416 0.0039733327 -0.010512213)
(1.3369833 0.0064947625 -0.01808167)
(1.5555221 0.0094976114 -0.025900991)
(1.6756689 0.011888599 -0.030549221)
(1.7242698 0.013014813 -0.031692755)
(1.7371071 0.013315967 -0.031725814)
(0.11649848 0.00041575309 -0.00029499502)
(0.37457093 0.0014627444 -0.0015056069)
(0.68704056 0.0029522799 -0.0047592067)
(1.0220776 0.0052982975 -0.010606958)
(1.3245634 0.0088256252 -0.018386788)
(1.5430893 0.01297714 -0.026223582)
(1.6646149 0.016231413 -0.030769449)
(1.7149998 0.017836837 -0.032071577)
(1.7294308 0.018307937 -0.032089832)
(0.11464329 0.00047938933 -0.00033027362)
(0.36863421 0.0017161896 -0.001611678)
(0.67635952 0.0035129912 -0.004867528)
(1.0070918 0.0064010777 -0.010615201)
(1.3072843 0.010891819 -0.018652674)
(1.5259603 0.016114611 -0.026537378)
(1.6496326 0.020138333 -0.031027646)
(1.7025689 0.022229937 -0.032548646)
(1.7192823 0.022940821 -0.032553056)
(0.11211092 0.00051964541 -0.00036497158)
(0.36062589 0.0018949312 -0.0017120483)
(0.66211388 0.0039413579 -0.0049369308)
(0.98733247 0.0073073739 -0.010625119)
(1.2845286 0.012624003 -0.018802956)
(1.5036976 0.01877345 -0.026771766)
(1.6304822 0.023488793 -0.031338302)
(1.6869819 0.026090322 -0.033098821)
(1.7068237 0.027121918 -0.033103194)
(0.10884083 0.0005339009 -0.00039358779)
(0.35036586 0.0019938783 -0.0017889941)
(0.64398672 0.0042404104 -0.0049472716)
(0.96231674 0.0080433245 -0.010654322)
(1.2558104 0.013979716 -0.018798834)
(1.4759758 0.020794986 -0.026749757)
(1.6069749 0.026172399 -0.031642907)
(1.6683096 0.029333372 -0.03367248)
(1.6922793 0.030769874 -0.033716168)
(0.10494832 0.00053971086 -0.00041999659)
(0.33807963 0.0020620726 -0.0018584147)
(0.62217169 0.0044883275 -0.0049773118)
(0.93195184 0.0086097848 -0.010627629)
(1.2209425 0.014931049 -0.018668874)
(1.4425853 0.022129359 -0.026519694)
(1.5790253 0.028115508 -0.0318622)
(1.6467438 0.031888235 -0.034208463)
(1.6759589 0.033804937 -0.03435914)
(0.10024507 0.00054308463 -0.00044163946)
(0.3232871 0.002111772 -0.0019204389)
(0.59596202 0.0046739305 -0.0049981422)
(0.89554566 0.0089540669 -0.010517595)
(1.1793846 0.015382498 -0.018340892)
(1.4031364 0.022761409 -0.026144481)
(1.5466358 0.029270292 -0.031899905)
(1.6226393 0.033695296 -0.034633161)
(1.6582137 0.03614096 -0.03498799)
(0.094529817 0.00054186841 -0.00046408159)
(0.30551508 0.0021262453 -0.0019845685)
(0.56479033 0.0047395825 -0.005005524)
(0.85269953 0.0089855198 -0.010319292)
(1.1310299 0.015214137 -0.0176908)
(1.3577067 0.02266844 -0.025553322)
(1.5102092 0.029636897 -0.031687075)
(1.5965878 0.034731595 -0.034885157)
(1.6394155 0.037712641 -0.035571347)
(0.088182781 0.00056777294 -0.00052001654)
(0.28574939 0.0021639281 -0.0021261279)
(0.53010186 0.0047261426 -0.0051061554)
(0.80503632 0.0087194148 -0.010092175)
(1.0772296 0.014562018 -0.017001873)
(1.3073312 0.021859682 -0.024704904)
(1.4705005 0.029130833 -0.031104109)
(1.5691225 0.034870898 -0.034827766)
(1.6197364 0.038383945 -0.035941711)
(0.081104269 0.00047260521 -0.00047451192)
(0.26386646 0.0018261281 -0.0019610962)
(0.49190751 0.0040240312 -0.0046505365)
(0.75259563 0.0074702307 -0.0090791364)
(1.0175962 0.01266809 -0.015355534)
(1.250683 0.019535338 -0.022711728)
(1.425038 0.026923573 -0.029386291)
(1.537186 0.033306452 -0.033792666)
(1.5965225 0.037485448 -0.035741449)
(0.086780229 -0.00012465847 -0.00010329213)
(0.28044096 -0.00056100547 -0.00045058084)
(0.51871816 -0.0014460197 -0.0010795662)
(0.78633355 -0.002976302 -0.0021913574)
(1.0536685 -0.0052880427 -0.0040248613)
(1.2862226 -0.0083080395 -0.0066331486)
(1.4598746 -0.011574984 -0.0095272803)
(1.5720914 -0.014452302 -0.011843994)
(1.6314143 -0.016346876 -0.013183827)
(0.094144147 -0.0002116617 -0.00015886005)
(0.3026738 -0.00085252472 -0.00061511624)
(0.55641482 -0.0020173112 -0.0013612721)
(0.8362983 -0.0038879057 -0.0026370463)
(1.1083969 -0.0065601652 -0.0047153877)
(1.3362973 -0.0098588496 -0.0076046706)
(1.4982578 -0.013194713 -0.010658454)
(1.5971473 -0.015893959 -0.012965286)
(1.6485125 -0.017472283 -0.014011306)
(0.10069397 -0.00024018556 -0.00015523449)
(0.32251283 -0.00097257279 -0.00060301579)
(0.59007032 -0.0022848001 -0.0013328772)
(0.88070994 -0.0043478707 -0.0026230914)
(1.1565552 -0.00721976 -0.004798188)
(1.3796087 -0.010630304 -0.0078458738)
(1.5305739 -0.013905555 -0.011044579)
(1.6174611 -0.016335197 -0.0133868)
(1.6616084 -0.017643415 -0.014422035)
(0.10655097 -0.00025508643 -0.00014223003)
(0.34017011 -0.0010364404 -0.00055323597)
(0.61988586 -0.0024202173 -0.001229019)
(0.91987926 -0.0045682684 -0.0024847806)
(1.198952 -0.0075164911 -0.0047011467)
(1.4179499 -0.010923124 -0.0078480186)
(1.5598076 -0.014063413 -0.011158655)
(1.6366443 -0.016193884 -0.013533379)
(1.6740208 -0.017254416 -0.014584862)
(0.11134334 -0.00024756607 -0.00011777249)
(0.354718 -0.0010241422 -0.00046518241)
(0.64458983 -0.002402297 -0.0010569337)
(0.95248658 -0.0045362773 -0.0022468955)
(1.2344519 -0.007456105 -0.0044755621)
(1.4504332 -0.010816775 -0.0077513538)
(1.5853402 -0.013752429 -0.011121294)
(1.6542968 -0.01558359 -0.013520303)
(1.6857702 -0.016415164 -0.014621447)
(0.11529435 -0.00022536017 -8.8201703e-05)
(0.36669582 -0.00095595015 -0.00035893228)
(0.66489081 -0.0022623166 -0.00085195587)
(0.97921589 -0.0042895596 -0.0019589879)
(1.2635271 -0.0070750131 -0.0041874474)
(1.4772184 -0.010308959 -0.0075945829)
(1.6068866 -0.012982059 -0.010980962)
(1.6699123 -0.014524027 -0.013399493)
(1.6965851 -0.015152528 -0.014563441)
(0.11859367 -0.00019641414 -6.1870943e-05)
(0.37660135 -0.00085469729 -0.0002622983)
(0.68152183 -0.0020421296 -0.00066528346)
(1.0009101 -0.0038949032 -0.0016954852)
(1.2869648 -0.0064857954 -0.0039582264)
(1.498864 -0.009444947 -0.0074185508)
(1.6245598 -0.011786622 -0.010791206)
(1.6832213 -0.013051876 -0.013224135)
(1.7062004 -0.013510055 -0.014453771)
(0.12113381 -0.00016444451 -3.9938162e-05)
(0.38425232 -0.00073166659 -0.00018021847)
(0.69439801 -0.0017634742 -0.00050688639)
(1.0177372 -0.0033846116 -0.001471138)
(1.3052111 -0.0056954979 -0.0037611128)
(1.5158044 -0.0082399275 -0.0071868663)
(1.6385749 -0.010200539 -0.010551968)
(1.6941241 -0.011209941 -0.013010459)
(1.7143938 -0.011536666 -0.014317892)
(0.12298334 -0.00013268954 -2.2356917e-05)
(0.38985951 -0.00059652447 -0.00011132692)
(0.70389458 -0.0014430893 -0.00036895975)
(1.0302267 -0.0027761767 -0.0012650996)
(1.3188548 -0.0046833589 -0.0035174436)
(1.528522 -0.0067153373 -0.006862687)
(1.6492148 -0.0082681761 -0.010242618)
(1.7026199 -0.0090340631 -0.012734708)
(1.720989 -0.0092526808 -0.014119536)
(0.12426246 -9.6769677e-05 -7.6595739e-06)
(0.39377867 -0.00044010401 -5.2277817e-05)
(0.71058367 -0.0010707483 -0.00024611538)
(1.0390708 -0.0020672109 -0.0010745042)
(1.3285454 -0.0034837737 -0.0032554119)
(1.5375806 -0.0049701067 -0.0065573551)
(1.6568287 -0.0060917221 -0.0099546943)
(1.7088255 -0.0066274658 -0.012488558)
(1.7259214 -0.0067654019 -0.013942737)
(0.12530753 -5.8077017e-05 2.2071692e-06)
(0.39678659 -0.0002682676 -1.1853331e-05)
(0.71544725 -0.0006591076 -0.00016028496)
(1.0452129 -0.001285879 -0.00095932696)
(1.3350353 -0.0021522502 -0.0030550846)
(1.5434893 -0.0030546589 -0.0063239894)
(1.6617289 -0.0037282499 -0.0097240493)
(1.7128578 -0.0040458157 -0.01230588)
(1.7291734 -0.004123124 -0.013809713)
(0.12561872 -1.9693566e-05 6.6021008e-06)
(0.39781962 -9.1556011e-05 7.107918e-06)
(0.71731855 -0.00022592694 -0.00011756178)
(1.0478032 -0.00044238588 -0.00090258717)
(1.3379444 -0.00073417481 -0.0029435494)
(1.5462301 -0.0010357462 -0.0061942925)
(1.664068 -0.0012589084 -0.0095994968)
(1.7148148 -0.0013619764 -0.012207812)
(1.7307772 -0.001385813 -0.013737638)
(0.12561872 1.9717039e-05 6.5976178e-06)
(0.39781962 9.1602941e-05 7.1046094e-06)
(0.71731856 0.000225994 -0.00011756296)
(1.0478032 0.00044246103 -0.00090259266)
(1.3379444 0.00073424718 -0.0029435591)