/*--------------------------------*- C++ -*----------------------------------*\
  =========                 |
  \\      /  F ield         | OpenFOAM: The Open Source CFD Toolbox
   \\    /   O peration     | Website:  https://openfoam.org
    \\  /    A nd           | Version:  10
     \\/     M anipulation  |
\*---------------------------------------------------------------------------*/
FoamFile
{
    format      ascii;
    class       volScalarField;
    location    "11";
    object      T_0;
}
// * * * * * * * * * * * * * * * * * * * * * * * * * * * * * * * * * * * * * //

dimensions      [0 0 0 1 0 0 0];

internalField   nonuniform List<scalar> 
10000
(
374.945
361.193
356.453
354.34
353.167
352.405
351.856
351.432
351.088
350.799
350.548
350.327
350.127
349.945
349.777
349.621
349.474
349.336
349.205
349.08
348.961
348.846
348.737
348.631
348.53
348.432
348.337
348.246
348.158
348.072
347.99
347.91
347.833
347.758
347.686
347.617
347.549
347.484
347.421
347.361
347.302
347.246
347.191
347.139
347.089
347.04
346.993
346.948
346.905
346.864
346.824
346.786
346.75
346.715
346.681
346.649
346.619
346.59
346.562
346.536
346.51
346.487
346.464
346.442
346.422
346.402
346.384
346.366
346.35
346.334
346.32
346.306
346.293
346.281
346.269
346.258
346.248
346.239
346.23
346.222
346.215
346.208
346.201
346.195
346.19
346.185
346.181
346.177
346.173
346.17
346.167
346.165
346.163
346.161
346.16
346.159
346.159
346.158
346.158
346.158
388.517
374.581
366.742
362.097
359.105
357.017
355.459
354.232
353.226
352.373
351.632
350.974
350.38
349.838
349.337
348.87
348.432
348.018
347.625
347.251
346.894
346.552
346.223
345.907
345.603
345.309
345.026
344.752
344.487
344.232
343.984
343.745
343.514
343.291
343.074
342.866
342.664
342.469
342.28
342.098
341.923
341.754
341.591
341.433
341.282
341.137
340.996
340.862
340.733
340.608
340.489
340.375
340.266
340.161
340.061
339.965
339.874
339.787
339.703
339.624
339.549
339.477
339.408
339.344
339.282
339.224
339.168
339.116
339.067
339.02
338.976
338.935
338.896
338.859
338.825
338.792
338.762
338.734
338.708
338.684
338.661
338.64
338.621
338.603
338.587
338.572
338.559
338.547
338.536
338.527
338.519
338.512
338.506
338.501
338.497
338.494
338.493
338.492
338.493
338.494
393.072
381.86
373.835
368.196
364.136
361.097
358.727
356.81
355.209
353.835
352.631
351.556
350.582
349.69
348.863
348.091
347.366
346.68
346.029
345.409
344.815
344.247
343.701
343.175
342.669
342.18
341.709
341.254
340.813
340.388
339.976
339.579
339.194
338.821
338.462
338.114
337.778
337.453
337.139
336.836
336.544
336.262
335.991
335.729
335.477
335.235
335.001
334.777
334.562
334.355
334.157
333.967
333.784
333.61
333.443
333.284
333.132
332.986
332.848
332.716
332.59
332.47
332.356
332.248
332.146
332.049
331.957
331.869
331.787
331.709
331.636
331.567
331.502
331.441
331.384
331.33
331.28
331.233
331.19
331.149
331.111
331.077
331.045
331.015
330.988
330.964
330.941
330.921
330.903
330.888
330.874
330.862
330.852
330.844
330.838
330.834
330.831
330.83
330.831
330.833
394.997
385.946
378.543
372.719
368.149
364.51
361.548
359.077
356.969
355.134
353.508
352.045
350.712
349.485
348.344
347.277
346.271
345.319
344.415
343.551
342.725
341.933
341.172
340.439
339.732
339.051
338.392
337.756
337.142
336.547
335.972
335.416
334.878
334.358
333.855
333.369
332.899
332.445
332.006
331.583
331.175
330.781
330.401
330.035
329.682
329.343
329.017
328.703
328.402
328.113
327.836
327.57
327.315
327.071
326.838
326.615
326.402
326.199
326.005
325.82
325.644
325.477
325.318
325.167
325.023
324.887
324.758
324.637
324.521
324.413
324.31
324.214
324.123
324.037
323.957
323.882
323.812
323.747
323.686
323.629
323.576
323.528
323.483
323.441
323.404
323.369
323.338
323.31
323.285
323.263
323.244
323.228
323.214
323.203
323.194
323.188
323.184
323.183
323.184
323.187
395.985
388.381
381.676
375.991
371.237
367.254
363.883
360.989
358.466
356.234
354.233
352.416
350.749
349.206
347.767
346.415
345.139
343.929
342.776
341.675
340.62
339.608
338.634
337.697
336.792
335.92
335.076
334.261
333.473
332.711
331.974
331.261
330.571
329.904
329.258
328.634
328.031
327.449
326.886
326.342
325.818
325.312
324.825
324.355
323.903
323.467
323.048
322.646
322.259
321.888
321.532
321.19
320.863
320.55
320.251
319.964
319.691
319.43
319.181
318.943
318.718
318.503
318.298
318.104
317.92
317.745
317.58
317.424
317.276
317.136
317.004
316.88
316.764
316.654
316.551
316.455
316.365
316.281
316.202
316.129
316.062
315.999
315.942
315.889
315.84
315.796
315.756
315.72
315.688
315.66
315.635
315.614
315.596
315.582
315.571
315.563
315.558
315.556
315.558
315.562
396.562
389.914
383.791
378.337
373.559
369.393
365.749
362.539
359.683
357.116
354.786
352.651
350.678
348.841
347.119
345.497
343.961
342.501
341.108
339.776
338.498
337.269
336.087
334.948
333.849
332.787
331.761
330.769
329.81
328.881
327.983
327.114
326.274
325.46
324.674
323.913
323.178
322.467
321.781
321.118
320.478
319.861
319.267
318.694
318.142
317.611
317.1
316.609
316.137
315.684
315.249
314.833
314.434
314.051
313.686
313.337
313.003
312.684
312.38
312.091
311.815
311.553
311.303
311.066
310.842
310.629
310.427
310.236
310.055
309.885
309.724
309.573
309.43
309.297
309.171
309.053
308.943
308.841
308.745
308.656
308.574
308.497
308.427
308.362
308.303
308.249
308.2
308.157
308.117
308.083
308.053
308.027
308.005
307.988
307.974
307.964
307.958
307.956
307.958
307.963
396.927
390.92
385.24
380.012
375.277
371.018
367.193
363.747
360.624
357.777
355.161
352.742
350.49
348.381
346.395
344.516
342.732
341.032
339.407
337.85
336.354
334.915
333.529
332.192
330.901
329.653
328.447
327.28
326.151
325.059
324.002
322.979
321.988
321.03
320.103
319.207
318.341
317.503
316.694
315.913
315.159
314.432
313.73
313.055
312.404
311.778
311.175
310.596
310.039
309.505
308.993
308.501
308.031
307.58
307.149
306.737
306.343
305.967
305.609
305.267
304.942
304.632
304.338
304.059
303.793
303.542
303.304
303.079
302.866
302.665
302.475
302.297
302.128
301.971
301.822
301.684
301.554
301.433
301.32
301.215
301.117
301.027
300.944
300.868
300.798
300.735
300.677
300.625
300.579
300.538
300.503
300.472
300.447
300.426
300.41
300.398
300.391
300.389
300.391
300.397
397.167
391.597
386.242
381.202
376.526
372.221
368.27
364.644
361.306
358.222
355.359
352.687
350.181
347.821
345.588
343.468
341.449
339.519
337.67
335.895
334.188
332.544
330.959
329.428
327.949
326.518
325.135
323.796
322.5
321.246
320.031
318.856
317.718
316.616
315.551
314.52
313.523
312.56
311.63
310.731
309.863
309.027
308.22
307.442
306.693
305.972
305.279
304.612
303.972
303.357
302.767
302.201
301.659
301.14
300.644
300.169
299.716
299.283
298.871
298.477
298.103
297.747
297.408
297.086
296.781
296.491
296.217
295.958
295.712
295.481
295.263
295.057
294.863
294.681
294.511
294.351
294.202
294.062
293.932
293.811
293.699
293.595
293.5
293.412
293.331
293.258
293.192
293.132
293.079
293.032
292.991
292.955
292.926
292.902
292.883
292.87
292.862
292.859
292.861
292.869
397.329
392.057
386.933
382.036
377.413
373.08
369.037
365.268
361.753
358.467
355.387
352.489
349.753
347.162
344.699
342.352
340.108
337.959
335.895
333.911
331.999
330.156
328.376
326.656
324.993
323.384
321.826
320.318
318.858
317.444
316.074
314.748
313.464
312.221
311.018
309.855
308.729
307.642
306.591
305.575
304.596
303.65
302.738
301.86
301.014
300.199
299.415
298.662
297.938
297.243
296.576
295.937
295.324
294.738
294.176
293.64
293.127
292.638
292.172
291.727
291.304
290.901
290.518
290.154
289.809
289.481
289.171
288.878
288.601
288.339
288.092
287.859
287.64
287.435
287.242
287.061
286.892
286.734
286.587
286.45
286.323
286.206
286.098
285.999
285.908
285.825
285.75
285.682
285.622
285.569
285.522
285.482
285.449
285.422
285.401
285.386
285.377
285.373
285.376
285.384
397.437
392.367
387.402
382.606
378.02
373.664
369.545
365.658
361.991
358.53
355.257
352.156
349.21
346.405
343.728
341.167
338.711
336.352
334.083
331.897
329.787
327.75
325.781
323.877
322.034
320.25
318.521
316.847
315.225
313.654
312.132
310.657
309.229
307.847
306.509
305.214
303.961
302.75
301.58
300.45
299.359
298.306
297.29
296.312
295.369
294.462
293.588
292.749
291.942
291.168
290.425
289.712
289.03
288.376
287.751
287.153
286.582
286.036
285.516
285.021
284.549
284.1
283.673
283.267
282.882
282.517
282.172
281.845
281.536
281.244
280.968
280.709
280.465
280.236
280.021
279.819
279.631
279.455
279.291
279.138
278.997
278.866
278.745
278.634
278.533
278.44
278.357
278.281
278.214
278.155
278.103
278.058
278.021
277.991
277.967
277.951
277.94
277.937
277.939
277.948
397.508
392.57
387.709
382.977
378.409
374.026
369.838
365.846
362.046
358.429
354.984
351.698
348.559
345.556
342.678
339.915
337.258
334.7
332.234
329.853
327.553
325.328
323.176
321.092
319.074
317.118
315.223
313.386
311.605
309.879
308.207
306.587
305.017
303.496
302.025
300.6
299.222
297.89
296.602
295.358
294.157
292.998
291.879
290.802
289.764
288.764
287.803
286.878
285.99
285.136
284.318
283.533
282.781
282.061
281.372
280.713
280.083
279.483
278.91
278.363
277.843
277.348
276.878
276.431
276.007
275.605
275.224
274.863
274.523
274.201
273.897
273.612
273.343
273.09
272.853
272.631
272.423
272.229
272.048
271.88
271.724
271.58
271.447
271.324
271.212
271.11
271.018
270.935
270.861
270.795
270.738
270.689
270.648
270.614
270.589
270.57
270.559
270.554
270.557
270.567
397.552
392.693
387.893
383.195
378.627
374.209
369.953
365.865
361.944
358.185
354.582
351.126
347.808
344.621
341.554
338.601
335.753
333.005
330.349
327.782
325.297
322.892
320.561
318.302
316.113
313.99
311.931
309.935
307.999
306.122
304.302
302.538
300.829
299.173
297.569
296.017
294.516
293.063
291.659
290.303
288.993
287.729
286.509
285.334
284.201
283.111
282.062
281.053
280.083
279.152
278.259
277.402
276.582
275.796
275.044
274.324
273.637
272.982
272.356
271.76
271.192
270.652
270.138
269.65
269.187
268.748
268.332
267.939
267.567
267.215
266.884
266.572
266.278
266.002
265.743
265.5
265.273
265.062
264.864
264.68
264.51
264.353
264.207
264.074
263.951
263.84
263.739
263.648
263.567
263.496
263.433
263.38
263.335
263.298
263.27
263.249
263.237
263.232
263.235
263.246
397.575
392.757
387.985
383.294
378.709
374.247
369.923
365.742
361.706
357.815
354.065
350.451
346.967
343.606
340.362
337.228
334.199
331.269
328.432
325.685
323.022
320.441
317.938
315.51
313.154
310.868
308.65
306.497
304.409
302.383
300.419
298.514
296.667
294.878
293.145
291.468
289.844
288.273
286.755
285.288
283.871
282.503
281.183
279.911
278.685
277.505
276.369
275.277
274.228
273.22
272.253
271.325
270.436
269.585
268.771
267.992
267.248
266.538
265.86
265.215
264.6
264.014
263.458
262.929
262.428
261.952
261.502
261.075
260.672
260.292
259.933
259.595
259.276
258.977
258.697
258.434
258.188
257.958
257.744
257.545
257.361
257.19
257.032
256.888
256.755
256.634
256.525
256.427
256.339
256.261
256.193
256.135
256.086
256.046
256.016
255.993
255.98
255.975
255.978
255.989
397.582
392.775
388.004
383.299
378.682
374.169
369.772
365.498
361.353
357.337
353.449
349.686
346.044
342.52
339.107
335.802
332.6
329.496
326.485
323.565
320.731
317.98
315.309
312.716
310.198
307.754
305.38
303.075
300.838
298.667
296.56
294.517
292.536
290.616
288.756
286.954
285.211
283.524
281.892
280.316
278.793
277.323
275.905
274.538
273.22
271.951
270.73
269.556
268.427
267.343
266.303
265.306
264.35
263.434
262.558
261.72
260.92
260.156
259.427
258.732
258.07
257.441
256.842
256.273
255.734
255.222
254.737
254.278
253.845
253.435
253.049
252.685
252.342
252.021
251.719
251.436
251.171
250.924
250.693
250.479
250.28
250.097
249.927
249.771
249.628
249.498
249.381
249.275
249.18
249.096
249.023
248.96
248.908
248.865
248.832
248.808
248.793
248.787
248.791
248.803
397.577
392.757
387.966
383.231
378.568
373.995
369.521
365.155
360.902
356.765
352.745
348.841
345.05
341.37
337.797
334.329
330.961
327.69
324.512
321.425
318.425
315.51
312.677
309.924
307.249
304.649
302.123
299.67
297.287
294.974
292.728
290.55
288.437
286.388
284.403
282.48
280.619
278.817
277.075
275.391
273.764
272.194
270.678
269.217
267.808
266.452
265.147
263.892
262.685
261.526
260.414
259.347
258.325
257.346
256.409
255.513
254.657
253.84
253.06
252.317
251.609
250.936
250.295
249.687
249.109
248.562
248.043
247.552
247.088
246.65
246.237
245.847
245.481
245.137
244.813
244.51
244.227
243.963
243.716
243.487
243.274
243.077
242.896
242.729
242.576
242.437
242.311
242.197
242.096
242.006
241.928
241.861
241.804
241.758
241.722
241.697
241.681
241.675
241.678
241.691
397.562
392.711
387.884
383.103
378.385
373.743
369.188
364.728
360.369
356.115
351.967
347.927
343.993
340.164
336.438
332.813
329.286
325.855
322.517
319.269
316.109
313.035
310.045
307.136
304.308
301.557
298.884
296.285
293.76
291.308
288.926
286.615
284.373
282.198
280.09
278.048
276.071
274.157
272.306
270.516
268.787
267.117
265.506
263.952
262.454
261.012
259.624
258.289
257.005
255.772
254.589
253.454
252.367
251.325
250.328
249.375
248.464
247.594
246.764
245.973
245.22
244.503
243.821
243.174
242.559
241.976
241.424
240.902
240.408
239.941
239.501
239.087
238.696
238.33
237.986
237.663
237.361
237.08
236.817
236.573
236.346
236.137
235.943
235.766
235.603
235.455
235.32
235.199
235.091
234.996
234.912
234.84
234.78
234.731
234.693
234.665
234.648
234.641
234.645
234.658
397.539
392.643
387.765
382.927
378.144
373.427
368.787
364.231
359.767
355.397
351.126
346.954
342.882
338.91
335.037
331.262
327.582
323.996
320.503
317.1
313.785
310.557
307.415
304.355
301.378
298.481
295.663
292.923
290.259
287.67
285.156
282.715
280.346
278.048
275.82
273.661
271.57
269.546
267.587
265.694
263.864
262.097
260.392
258.747
257.161
255.634
254.164
252.75
251.391
250.086
248.833
247.631
246.478
245.375
244.319
243.309
242.344
241.422
240.543
239.705
238.907
238.147
237.425
236.739
236.087
235.47
234.884
234.331
233.807
233.313
232.846
232.407
231.993
231.604
231.24
230.898
230.578
230.279
230.001
229.742
229.502
229.279
229.074
228.886
228.713
228.556
228.413
228.285
228.17
228.069
227.98
227.904
227.84
227.788
227.747
227.718
227.699
227.692
227.696
227.71
397.511
392.556
387.617
382.713
377.857
373.06
368.33
363.677
359.107
354.623
350.231
345.931
341.726
337.616
333.6
329.68
325.852
322.118
318.474
314.921
311.457
308.08
304.79
301.584
298.462
295.422
292.463
289.585
286.786
284.065
281.421
278.853
276.36
273.941
271.595
269.322
267.119
264.986
262.923
260.927
258.999
257.136
255.338
253.604
251.932
250.322
248.772
247.28
245.847
244.47
243.148
241.879
240.664
239.5
238.385
237.319
236.301
235.329
234.401
233.516
232.674
231.872
231.11
230.385
229.698
229.046
228.428
227.843
227.291
226.769
226.276
225.812
225.375
224.965
224.58
224.219
223.881
223.566
223.272
222.998
222.744
222.51
222.293
222.094
221.911
221.745
221.594
221.459
221.337
221.23
221.136
221.056
220.988
220.933
220.89
220.858
220.839
220.831
220.835
220.849
397.478
392.455
387.446
382.468
377.533
372.65
367.828
363.076
358.399
353.803
349.291
344.867
340.532
336.287
332.134
328.073
324.103
320.224
316.436
312.738
309.129
305.607
302.173
298.825
295.562
292.383
289.288
286.276
283.344
280.494
277.723
275.031
272.417
269.88
267.418
265.033
262.721
260.482
258.315
256.22
254.195
252.238
250.349
248.527
246.771
245.079
243.449
241.882
240.375
238.928
237.538
236.205
234.927
233.702
232.531
231.41
230.339
229.317
228.341
227.411
226.525
225.681
224.879
224.117
223.394
222.708
222.059
221.444
220.862
220.313
219.795
219.307
218.847
218.415
218.01
217.63
217.275
216.943
216.633
216.345
216.078
215.831
215.603
215.394
215.201
215.026
214.868
214.725
214.597
214.484
214.385
214.3
214.229
214.17
214.125
214.092
214.071
214.063
214.066
214.081
397.44
392.343
387.256
382.198
377.178
372.205
367.289
362.436
357.653
352.944
348.315
343.768
339.306
334.931
330.644
326.447
322.339
318.321
314.392
310.553
306.803
303.141
299.568
296.082
292.682
289.368
286.14
282.996
279.936
276.959
274.065
271.252
268.519
265.866
263.292
260.797
258.378
256.035
253.768
251.574
249.454
247.405
245.428
243.519
241.68
239.907
238.2
236.558
234.979
233.463
232.006
230.609
229.27
227.987
226.759
225.584
224.462
223.39
222.367
221.392
220.463
219.579
218.738
217.939
217.181
216.461
215.78
215.135
214.525
213.949
213.406
212.894
212.412
211.959
211.534
211.135
210.763
210.414
210.09
209.788
209.508
209.248
209.009
208.789
208.587
208.404
208.237
208.087
207.953
207.834
207.73
207.641
207.566
207.504
207.456
207.421
207.399
207.39
207.394
207.409
397.4
392.221
387.052
381.908
376.799
371.734
366.72
361.765
356.874
352.054
347.309
342.642
338.056
333.553
329.137
324.807
320.565
316.411
312.346
308.371
304.484
300.686
296.977
293.357
289.824
286.379
283.021
279.75
276.564
273.464
270.449
267.518
264.669
261.904
259.22
256.616
254.093
251.649
249.282
246.993
244.779
242.641
240.576
238.583
236.662
234.81
233.028
231.312
229.663
228.078
226.556
225.096
223.697
222.356
221.073
219.845
218.672
217.551
216.482
215.463
214.492
213.567
212.688
211.853
211.06
210.308
209.596
208.922
208.284
207.682
207.113
206.578
206.074
205.6
205.156
204.739
204.349
203.984
203.645
203.329
203.036
202.764
202.514
202.284
202.073
201.88
201.706
201.549
201.408
201.284
201.175
201.082
201.003
200.938
200.888
200.851
200.828
200.818
200.822
200.838
397.357
392.092
386.835
381.602
376.401
371.24
366.127
361.069
356.071
351.14
346.28
341.494
336.787
332.16
327.616
323.157
318.785
314.5
310.303
306.194
302.175
298.245
294.405
290.653
286.992
283.419
279.935
276.539
273.231
270.011
266.878
263.831
260.87
257.994
255.203
252.494
249.869
247.325
244.862
242.479
240.174
237.947
235.796
233.721
231.72
229.791
227.934
226.147
224.428
222.777
221.191
219.669
218.211
216.813
215.475
214.196
212.973
211.804
210.69
209.627
208.615
207.651
206.734
205.863
205.037
204.252
203.509
202.806
202.141
201.513
200.92
200.362
199.836
199.342
198.878
198.443
198.036
197.656
197.302
196.972
196.666
196.383
196.122
195.881
195.661
195.46
195.278
195.114
194.967
194.837
194.724
194.626
194.543
194.476
194.423
194.384
194.36
194.349
194.353
194.369
397.312
391.957
386.609
381.283
375.987
370.729
365.515
360.353
355.249
350.207
345.233
340.331
335.504
330.755
326.088
321.503
317.004
312.591
308.265
304.028
299.879
295.821
291.853
287.975
284.187
280.49
276.883
273.366
269.94
266.603
263.355
260.195
257.124
254.14
251.244
248.433
245.707
243.066
240.509
238.034
235.64
233.327
231.092
228.936
226.856
224.852
222.922
221.064
219.278
217.561
215.913
214.331
212.814
211.361
209.97
208.639
207.367
206.152
204.993
203.888
202.834
201.832
200.879
199.973
199.113
198.297
197.524
196.792
196.1
195.447
194.83
194.249
193.702
193.187
192.705
192.252
191.829
191.433
191.064
190.721
190.403
190.108
189.836
189.585
189.356
189.147
188.957
188.786
188.633
188.498
188.379
188.277
188.191
188.12
188.065
188.025
187.999
187.988
187.991
188.008
397.266
391.818
386.376
380.955
375.562
370.204
364.889
359.623
354.412
349.26
344.174
339.157
334.212
329.345
324.556
319.849
315.225
310.687
306.237
301.874
297.6
293.417
289.324
285.323
281.413
277.595
273.869
270.234
266.692
263.241
259.881
256.612
253.433
250.345
247.345
244.434
241.611
238.875
236.226
233.661
231.18
228.782
226.466
224.23
222.074
219.996
217.994
216.068
214.215
212.434
210.724
209.083
207.51
206.002
204.559
203.178
201.858
200.597
199.394
198.247
197.154
196.114
195.124
194.184
193.291
192.444
191.642
190.882
190.164
189.486
188.845
188.242
187.674
187.14
186.638
186.169
185.729
185.318
184.935
184.578
184.248
183.941
183.658
183.398
183.16
182.943
182.745
182.568
182.409
182.268
182.144
182.038
181.948
181.875
181.817
181.775
181.748
181.736
181.739
181.756
397.218
391.675
386.138
380.62
375.128
369.671
364.253
358.883
353.565
348.304
343.107
337.976
332.917
327.932
323.024
318.198
313.453
308.794
304.221
299.736
295.341
291.036
286.823
282.701
278.672
274.737
270.894
267.145
263.49
259.928
256.459
253.083
249.8
246.609
243.509
240.501
237.583
234.754
232.014
229.362
226.796
224.316
221.919
219.607
217.375
215.225
213.153
211.159
209.241
207.398
205.628
203.929
202.3
200.739
199.245
197.815
196.448
195.143
193.897
192.709
191.577
190.499
189.474
188.5
187.575
186.698
185.867
185.08
184.336
183.632
182.969
182.344
181.755
181.202
180.682
180.195
179.739
179.314
178.916
178.547
178.204
177.886
177.593
177.324
177.076
176.851
176.646
176.462
176.297
176.15
176.022
175.912
175.819
175.742
175.682
175.638
175.61
175.597
175.599
175.617
397.17
391.53
385.896
380.279
374.689
369.13
363.611
358.136
352.711
347.343
342.036
336.793
331.621
326.521
321.497
316.553
311.691
306.914
302.222
297.618
293.105
288.681
284.35
280.112
275.968
271.917
267.962
264.101
260.336
256.666
253.091
249.611
246.226
242.935
239.738
236.635
233.624
230.705
227.877
225.139
222.49
219.929
217.455
215.066
212.762
210.541
208.401
206.341
204.36
202.455
200.626
198.871
197.187
195.574
194.03
192.552
191.139
189.79
188.502
187.274
186.104
184.99
183.93
182.923
181.967
181.06
180.2
179.386
178.617
177.89
177.204
176.557
175.948
175.376
174.838
174.335
173.863
173.423
173.012
172.629
172.275
171.946
171.642
171.363
171.107
170.874
170.662
170.471
170.3
170.148
170.016
169.901
169.804
169.725
169.662
169.616
169.587
169.573
169.576
169.593
397.121
391.384
385.651
379.936
374.245
368.586
362.964
357.385
351.855
346.38
340.964
335.612
330.328
325.115
319.978
314.92
309.943
305.049
300.242
295.523
290.893
286.355
281.91
277.558
273.301
269.139
265.074
261.105
257.233
253.457
249.779
246.198
242.714
239.326
236.034
232.838
229.737
226.729
223.816
220.994
218.264
215.625
213.075
210.612
208.237
205.946
203.74
201.615
199.572
197.608
195.721
193.911
192.174
190.51
188.916
187.392
185.934
184.542
183.213
181.946
180.738
179.588
178.494
177.455
176.468
175.532
174.645
173.805
173.01
172.26
171.552
170.884
170.255
169.664
169.11
168.589
168.102
167.647
167.223
166.828
166.462
166.122
165.809
165.52
165.256
165.014
164.795
164.598
164.421
164.264
164.127
164.008
163.908
163.825
163.761
163.713
163.682
163.667
163.669
163.687
397.072
391.236
385.405
379.591
373.8
368.04
362.316
356.634
350.999
345.418
339.895
334.434
329.041
323.718
318.47
313.3
308.21
303.204
298.284
293.452
288.71
284.06
279.503
275.041
270.675
266.405
262.232
258.158
254.182
250.304
246.526
242.846
239.265
235.782
232.398
229.112
225.922
222.829
219.832
216.929
214.121
211.405
208.78
206.246
203.8
201.443
199.171
196.984
194.88
192.858
190.915
189.05
187.262
185.548
183.906
182.336
180.834
179.4
178.031
176.725
175.481
174.297
173.17
172.099
171.082
170.117
169.203
168.337
167.519
166.745
166.015
165.327
164.679
164.07
163.498
162.961
162.459
161.99
161.553
161.145
160.767
160.417
160.094
159.796
159.523
159.274
159.048
158.844
158.662
158.5
158.358
158.235
158.131
158.046
157.979
157.929
157.897
157.882
157.883
157.901
397.023
391.089
385.159
379.245
373.355
367.494
361.668
355.884
350.146
344.46
338.832
333.265
327.764
322.333
316.976
311.696
306.497
301.381
296.351
291.409
286.558
281.799
277.133
272.564
268.091
263.716
259.439
255.262
251.185
247.208
243.332
239.556
235.881
232.307
228.833
225.458
222.183
219.007
215.928
212.946
210.06
207.27
204.573
201.968
199.455
197.032
194.697
192.448
190.285
188.206
186.208
184.291
182.452
180.689
179.001
177.386
175.842
174.367
172.958
171.615
170.335
169.117
167.957
166.856
165.809
164.817
163.876
162.985
162.143
161.347
160.595
159.887
159.22
158.593
158.004
157.452
156.936
156.453
156.002
155.583
155.193
154.833
154.5
154.193
153.912
153.656
153.423
153.212
153.024
152.857
152.711
152.584
152.477
152.389
152.319
152.268
152.234
152.218
152.219
152.237
396.974
390.942
384.913
378.901
372.911
366.95
361.024
355.138
349.298
343.509
337.776
332.105
326.498
320.961
315.498
310.111
304.804
299.581
294.444
289.395
284.438
279.573
274.802
270.128
265.552
261.074
256.697
252.42
248.244
244.171
240.199
236.331
232.564
228.901
225.339
221.879
218.52
215.263
212.105
209.046
206.085
203.222
200.454
197.782
195.202
192.715
190.318
188.01
185.79
183.655
181.604
179.635
177.747
175.937
174.203
172.544
170.958
169.443
167.997
166.617
165.302
164.05
162.859
161.727
160.652
159.633
158.666
157.751
156.885
156.067
155.295
154.567
153.882
153.237
152.632
152.064
151.533
151.037
150.573
150.142
149.742
149.371
149.029
148.713
148.424
148.16
147.92
147.704
147.51
147.338
147.187
147.057
146.946
146.855
146.783
146.73
146.695
146.678
146.679
146.697
396.925
390.795
384.669
378.559
372.47
366.41
360.384
354.398
348.457
342.566
336.731
330.957
325.247
319.606
314.038
308.547
303.136
297.808
292.567
287.414
282.352
277.384
272.511
267.736
263.059
258.482
254.006
249.632
245.361
241.194
237.13
233.171
229.316
225.565
221.918
218.375
214.936
211.599
208.364
205.23
202.197
199.263
196.427
193.687
191.044
188.494
186.037
183.671
181.394
179.205
177.102
175.083
173.147
171.291
169.513
167.812
166.185
164.63
163.147
161.731
160.383
159.098
157.877
156.715
155.612
154.566
153.574
152.635
151.746
150.907
150.114
149.367
148.664
148.002
147.381
146.799
146.253
145.744
145.268
144.825
144.414
144.033
143.681
143.357
143.06
142.789
142.543
142.32
142.121
141.944
141.789
141.654
141.541
141.447
141.372
141.317
141.281
141.263
141.263
141.281
396.877
390.65
384.427
378.219
372.033
365.875
359.751
353.665
347.625
341.634
335.699
329.823
324.012
318.27
312.6
307.007
301.494
296.064
290.72
285.466
280.304
275.235
270.263
265.389
260.614
255.94
251.369
246.901
242.537
238.279
234.125
230.078
226.137
222.301
218.572
214.948
211.43
208.016
204.706
201.5
198.396
195.393
192.49
189.686
186.98
184.37
181.854
179.431
177.1
174.859
172.705
170.637
168.654
166.753
164.932
163.189
161.523
159.93
158.41
156.96
155.578
154.262
153.01
151.82
150.69
149.618
148.601
147.639
146.728
145.868
145.056
144.29
143.569
142.891
142.254
141.657
141.097
140.575
140.087
139.633
139.211
138.821
138.46
138.127
137.822
137.544
137.291
137.063
136.858
136.676
136.517
136.379
136.262
136.165
136.088
136.031
135.993
135.974
135.974
135.992
396.829
390.506
384.187
377.883
371.601
365.346
359.124
352.942
346.803
340.715
334.68
328.706
322.795
316.953
311.184
305.491
299.879
294.35
288.907
283.554
278.294
273.127
268.058
263.088
258.218
253.451
248.787
244.227
239.774
235.426
231.186
227.053
223.028
219.111
215.301
211.599
208.004
204.516
201.133
197.856
194.683
191.613
188.646
185.779
183.012
180.343
177.77
175.293
172.909
170.616
168.413
166.298
164.269
162.324
160.461
158.678
156.973
155.343
153.788
152.304
150.89
149.543
148.262
147.044
145.887
144.79
143.749
142.764
141.832
140.951
140.119
139.335
138.597
137.903
137.251
136.639
136.066
135.531
135.031
134.566
134.134
133.734
133.364
133.024
132.711
132.426
132.167
131.932
131.722
131.536
131.372
131.23
131.11
131.01
130.931
130.873
130.833
130.813
130.813
130.831
396.782
390.364
383.95
377.552
371.174
364.824
358.507
352.228
345.994
339.808
333.678
327.606
321.599
315.659
309.793
304.003
298.293
292.667
287.128
281.679
276.323
271.062
265.899
260.836
255.874
251.015
246.261
241.613
237.072
232.639
228.314
224.098
219.992
215.995
212.107
208.329
204.66
201.099
197.646
194.3
191.06
187.926
184.895
181.967
179.141
176.415
173.787
171.256
168.82
166.478
164.227
162.066
159.992
158.005
156.101
154.279
152.536
150.871
149.281
147.764
146.319
144.942
143.632
142.387
141.204
140.082
139.018
138.011
137.058
136.157
135.307
134.505
133.75
133.04
132.372
131.747
131.161
130.613
130.102
129.626
129.184
128.775
128.396
128.048
127.728
127.435
127.17
126.93
126.715
126.524
126.356
126.21
126.087
125.984
125.903
125.842
125.802
125.781
125.78
125.797
396.735
390.224
383.717
377.225
370.754
364.31
357.899
351.526
345.197
338.917
332.692
326.526
320.423
314.389
308.428
302.543
296.739
291.018
285.386
279.843
274.394
269.041
263.787
258.633
253.581
248.634
243.793
239.058
234.433
229.916
225.509
221.213
217.028
212.954
208.991
205.139
201.397
197.766
194.245
190.832
187.527
184.33
181.238
178.251
175.367
172.585
169.904
167.321
164.835
162.445
160.147
157.941
155.825
153.796
151.852
149.992
148.213
146.513
144.889
143.341
141.865
140.459
139.121
137.849
136.642
135.495
134.409
133.38
132.406
131.486
130.618
129.799
129.027
128.301
127.62
126.981
126.382
125.822
125.3
124.814
124.362
123.943
123.556
123.199
122.872
122.573
122.302
122.056
121.836
121.64
121.468
121.319
121.192
121.087
121.004
120.941
120.899
120.877
120.875
120.893
396.689
390.087
383.488
376.904
370.341
363.805
357.302
350.836
344.415
338.043
331.725
325.466
319.27
313.144
307.09
301.113
295.216
289.404
283.68
278.047
272.508
267.065
261.722
256.48
251.342
246.309
241.383
236.565
231.857
227.259
222.773
218.399
214.137
209.988
205.952
202.029
198.217
194.518
190.93
187.453
184.085
180.827
177.676
174.631
171.692
168.856
166.122
163.489
160.955
158.517
156.175
153.925
151.767
149.698
147.716
145.818
144.004
142.269
140.614
139.034
137.528
136.094
134.729
133.432
132.2
131.03
129.922
128.872
127.878
126.939
126.053
125.217
124.43
123.689
122.993
122.341
121.73
121.158
120.625
120.128
119.667
119.239
118.844
118.48
118.145
117.84
117.562
117.311
117.086
116.886
116.71
116.557
116.427
116.32
116.234
116.169
116.126
116.103
116.1
116.117
396.644
389.952
383.263
376.588
369.935
363.309
356.715
350.16
343.648
337.185
330.776
324.427
318.141
311.924
305.78
299.713
293.727
287.826
282.013
276.291
270.665
265.135
259.706
254.379
249.156
244.04
239.032
234.133
229.345
224.669
220.106
215.657
211.321
207.099
202.992
198.999
195.12
191.355
187.703
184.163
180.734
177.416
174.208
171.108
168.114
165.226
162.442
159.76
157.179
154.696
152.309
150.018
147.819
145.711
143.691
141.758
139.909
138.142
136.454
134.844
133.31
131.848
130.457
129.135
127.879
126.687
125.557
124.487
123.474
122.516
121.613
120.76
119.958
119.202
118.493
117.827
117.204
116.621
116.077
115.571
115.1
114.663
114.26
113.888
113.547
113.235
112.952
112.695
112.465
112.261
112.081
111.925
111.792
111.681
111.593
111.527
111.482
111.458
111.455
111.472
396.6
389.819
383.042
376.279
369.538
362.823
356.141
349.497
342.897
336.346
329.849
323.411
317.037
310.732
304.5
298.345
292.272
286.284