/*--------------------------------*- C++ -*----------------------------------*\
  =========                 |
  \\      /  F ield         | OpenFOAM: The Open Source CFD Toolbox
   \\    /   O peration     | Website:  https://openfoam.org
    \\  /    A nd           | Version:  10
     \\/     M anipulation  |
\*---------------------------------------------------------------------------*/
FoamFile
{
    format      ascii;
    class       volScalarField;
    location    "0.2";
    object      T;
}
// * * * * * * * * * * * * * * * * * * * * * * * * * * * * * * * * * * * * * //

dimensions      [0 0 0 1 0 0 0];

internalField   nonuniform List<scalar> 
100
(
1
1
1
1
1
1
1
1
1
0.999999
0.999995
0.999955
0.999654
0.997493
0.982941
0.936677
0.859045
0.755517
0.636204
0.513148
0.397099
0.295519
0.212057
0.147123
0.0989501
0.0646751
0.0411755
0.0255875
0.0155499
0.00925721
0.00540695
0.00310274
0.00175146
0.000973661
0.000533588
0.000288533
0.000154076
8.13128e-05
4.24387e-05
2.1919e-05
1.12094e-05
5.67911e-06
2.85183e-06
1.42006e-06
7.01471e-07
3.43873e-07
1.67351e-07
8.08796e-08
3.88299e-08
1.85239e-08
8.78326e-09
4.14039e-09
1.94085e-09
9.04905e-10
4.19723e-10
1.93711e-10
8.89732e-11
4.06771e-11
1.85139e-11
8.39011e-12
3.78637e-12
1.70186e-12
7.61953e-13
3.3985e-13
1.51026e-13
6.68763e-14
2.95116e-14
1.29795e-14
5.68998e-15
2.48651e-15
1.08326e-15
4.7052e-16
2.03779e-16
8.80053e-17
3.79019e-17
1.62796e-17
6.97414e-18
2.98007e-18
1.27022e-18
5.401e-19
2.29107e-19
9.69601e-20
4.09416e-20
1.72494e-20
7.25173e-21
3.04221e-21
1.27362e-21
5.32116e-22
2.21877e-22
9.23368e-23
3.8354e-23
1.59015e-23
6.58067e-24
2.71848e-24
1.12104e-24
4.61494e-25
1.89662e-25
7.78132e-26
3.19504e-26
1.16128e-26
)
;

boundaryField
{
    top
    {
        type            zeroGradient;
    }
    bottom
    {
        type            zeroGradient;
    }
    in
    {
        type            fixedValue;
        value           uniform 1;
    }
    out
    {
        type            zeroGradient;
    }
    frontAndBack
    {
        type            empty;
    }
}


// ************************************************************************* //
