/*--------------------------------*- C++ -*----------------------------------*\
  =========                 |
  \\      /  F ield         | OpenFOAM: The Open Source CFD Toolbox
   \\    /   O peration     | Website:  https://openfoam.org
    \\  /    A nd           | Version:  10
     \\/     M anipulation  |
\*---------------------------------------------------------------------------*/
FoamFile
{
    format      ascii;
    class       volScalarField;
    location    "25.5";
    object      T;
}
// * * * * * * * * * * * * * * * * * * * * * * * * * * * * * * * * * * * * * //

dimensions      [0 0 -1 0 0 0 0];

internalField   nonuniform List<scalar> 
100
(
1.21233
3.62572
6.00693
8.33482
10.5887
12.7487
14.7954
16.7109
18.478
20.0811
21.506
22.74
23.7721
24.5932
25.1961
25.5753
25.7275
25.6514
25.3475
24.8187
24.0696
23.1068
21.939
20.5764
19.0312
17.3171
15.4492
13.4443
11.32
9.09523
6.78973
4.42397
2.01895
-0.403996
-2.82335
-5.21764
-7.56562
-9.84645
-12.0399
-14.1264
-16.0876
-17.906
-19.5654
-21.0512
-22.3501
-23.4506
-24.343
-25.0193
-25.4735
-25.7017
-25.7017
-25.4735
-25.0193
-24.343
-23.4506
-22.3501
-21.0511
-19.5654
-17.9059
-16.0876
-14.1264
-12.0398
-9.8464
-7.56558
-5.2176
-2.8233
-0.403945
2.019
4.42403
6.78979
9.09528
11.32
13.4443
15.4493
17.3171
19.0313
20.5765
21.9391
23.1069
24.0696
24.8188
25.3476
25.6514
25.7276
25.5753
25.1961
24.5933
23.7721
22.74
21.506
20.0811
18.478
16.7109
14.7955
12.7487
10.5887
8.33483
6.00694
3.62572
1.21233
)
;

boundaryField
{
    xmin
    {
        type            fixedValue;
        value           uniform 0;
    }
    xmax
    {
        type            fixedValue;
        value           uniform 0;
    }
    frontAndBack
    {
        type            empty;
    }
}


// ************************************************************************* //
