/*--------------------------------*- C++ -*----------------------------------*\
| =========                 |                                                 |
| \\      /  F ield         | OpenFOAM: The Open Source CFD Toolbox           |
|  \\    /   O peration     | Version:  2406                                  |
|   \\  /    A nd           | Website:  www.openfoam.com                      |
|    \\/     M anipulation  |                                                 |
\*---------------------------------------------------------------------------*/
FoamFile
{
    version     2.0;
    format      ascii;
    arch        "LSB;label=32;scalar=64";
    class       volScalarField;
    location    "5";
    object      p;
}
// * * * * * * * * * * * * * * * * * * * * * * * * * * * * * * * * * * * * * //

dimensions      [0 2 -2 0 0 0 0];

internalField   nonuniform List<scalar> 
34560
(
39.84889
39.842322
39.834431
39.825434
39.814457
39.803477
39.796181
39.796388
39.802698
39.900871
39.893216
39.883318
39.871033
39.855731
39.84058
39.830261
39.828861
39.835129
39.956919
39.948515
39.937292
39.9225
39.902946
39.882828
39.86812
39.863462
39.867484
40.012344
40.003165
39.990687
39.973783
39.950681
39.925923
39.906383
39.89709
39.896946
40.067748
40.057963
40.044276
40.024977
39.997843
39.967921
39.942913
39.928321
39.923459
40.123716
40.113394
40.098562
40.076893
40.04518
40.009036
39.977655
39.957242
39.947506
40.180997
40.169855
40.153498
40.129175
40.092658
40.049352
40.010638
39.983753
39.968752
40.24065
40.228184
40.209589
40.181658
40.139918
40.088135
40.041096
40.007397
39.987407
40.303305
40.288938
40.267158
40.234537
40.186587
40.125348
40.069111
40.02858
40.004302
40.366223
40.349618
40.323802
40.285301
40.230724
40.160794
40.094853
40.047788
40.02014
40.422881
40.403007
40.372696
40.328894
40.268253
40.191592
40.116622
40.064239
40.03369
40.457865
40.435745
40.402548
40.35554
40.291127
40.20995
40.129947
40.074559
40.041975
40.457865
40.435745
40.402548
40.35554
40.291127
40.20995
40.129947
40.07456
40.041975
40.422881
40.403007
40.372696
40.328895
40.268254
40.191593
40.116623
40.06424
40.03369
40.366225
40.349619
40.323804
40.285302
40.230725
40.160796
40.094854
40.04779
40.020141
40.303308
40.28894
40.26716
40.234539
40.186589
40.12535
40.069113
40.028582
40.004305
40.240653
40.228185
40.209592
40.181661
40.139921
40.088138
40.0411
40.0074
39.987409
40.181001
40.169858
40.153502
40.12918
40.092662
40.049356
40.010642
39.983756
39.968754
40.12372
40.113399
40.098567
40.076898
40.045184
40.00904
39.977658
39.957245
39.947508
40.067753
40.057968
40.044281
40.024982
39.997847
39.967925
39.942916
39.928324
39.923462
40.012351
40.003172
39.990694
39.973789
39.950686
39.925928
39.906386
39.897094
39.896951
39.956926
39.948522
39.937298
39.922506
39.902952
39.882833
39.868125
39.863467
39.867489
39.900878
39.893223
39.883325
39.87104
39.855739
39.840587
39.830267
39.828867
39.835135
39.848898
39.84233
39.834439
39.825443
39.814466
39.803486
39.796191
39.796396
39.802707
36.874477
36.874873
36.875076
36.875043
36.875049
36.874966
36.875482
36.877129
36.880534
36.869669
36.870262
36.870662
36.870887
36.871406
36.872142
36.873934
36.877076
36.881271
36.864448
36.865304
36.865865
36.86607
36.866836
36.868051
36.870658
36.874596
36.87886
36.85992
36.861115
36.861867
36.861943
36.862693
36.86404
36.867048
36.871357
36.875561
36.856555
36.858133
36.859078
36.858898
36.859348
36.860522
36.863588
36.867972
36.872008
36.854656
36.856701
36.857861
36.857224
36.85696
36.857588
36.860407
36.864684
36.868551
36.855474
36.858005
36.859324
36.85791
36.856216
36.855865
36.858119
36.862136
36.865869
36.859783
36.862799
36.864259
36.861963
36.857807
36.856202
36.857688
36.861389
36.865082
36.86796
36.871403
36.872902
36.869415
36.862409
36.859147
36.860042
36.863591
36.867325
36.87967
36.883414
36.884955
36.88032
36.870427
36.864398
36.86539
36.869242
36.873127
36.892024
36.895907
36.897505
36.892028
36.879897
36.870724
36.872548
36.87713
36.88125
36.9007
36.904535
36.906079
36.900099
36.886686
36.876008
36.877991
36.883237
36.887535
36.9007
36.904536
36.906079
36.900099
36.886687
36.876008
36.877992
36.883238
36.887536
36.892026
36.895909
36.897507
36.89203
36.879898
36.870725
36.87255
36.877132
36.881251
36.879674
36.883417
36.884958
36.880323
36.870429
36.8644
36.865392
36.869244
36.87313
36.867963
36.871406
36.872905
36.869418
36.862412
36.859149
36.860045
36.863595
36.867329
36.859786
36.862802
36.864263
36.861966
36.85781
36.856206
36.857692
36.861393
36.865086
36.855477
36.858008
36.859328
36.857914
36.85622
36.855869
36.858123
36.86214
36.865873
36.85466
36.856706
36.857866
36.857229
36.856965
36.857594
36.860412
36.864688
36.868555
36.85656
36.858139
36.859083
36.858904
36.859354
36.860528
36.863593
36.867977
36.872014
36.859927
36.861123
36.861874
36.86195
36.8627
36.864047
36.867054
36.871364
36.875567
36.864458
36.865313
36.865873
36.866079
36.866845
36.868059
36.870666
36.874604
36.878866
36.86968
36.870272
36.870672
36.870897
36.871416
36.872152
36.873944
36.877085
36.881279
36.874489
36.874885
36.875088
36.875055
36.875061
36.874978
36.875493
36.877139
36.880544
35.884063
35.884096
35.884142
35.884121
35.883692
35.883327
35.88323
35.883528
35.883947
35.889492
35.889523
35.889535
35.889397
35.888614
35.887818
35.887219
35.887003
35.887092
35.894411
35.89448
35.894539
35.894425
35.893447
35.892333
35.891296
35.890588
35.890346
35.899216
35.899328
35.899447
35.899384
35.898261
35.896867
35.895419
35.89421
35.89356
35.903882
35.904044
35.904232
35.904239
35.903001
35.901358
35.899493
35.89777
35.896656
35.908259
35.908508
35.908807
35.908918
35.907613
35.905741
35.903459
35.901216
35.899616
35.912385
35.912731
35.913168
35.913405
35.912057
35.909962
35.907272
35.904518
35.902437
35.916216
35.916659
35.917253
35.917652
35.91628
35.913963
35.910883
35.907648
35.905116
35.919789
35.920326
35.921042
35.921569
35.920169
35.917638
35.914214
35.910554
35.907623
35.92294
35.923572
35.924405
35.925037
35.92357
35.920831
35.9171
35.913107
35.909843
35.925389
35.926109
35.927059
35.92779
35.926252
35.923267
35.9193
35.915063
35.91155
35.926786
35.927553
35.928571
35.929364
35.927777
35.924605
35.920488
35.916116
35.912475
35.926787
35.927554
35.928571
35.929364
35.927778
35.924606
35.920489
35.916116
35.912475
35.925391
35.926111
35.927061
35.927792
35.926254
35.923269
35.919301
35.915065
35.911552
35.922943
35.923575
35.924408
35.925039
35.923573
35.920833
35.917103
35.91311
35.909846
35.919793
35.92033
35.921046
35.921573
35.920173
35.917641
35.914217
35.910558
35.907627
35.916221
35.916664
35.917257
35.917657
35.916284
35.913967
35.910887
35.907653
35.905121
35.91239
35.912736
35.913173
35.91341
35.912062
35.909967
35.907277
35.904523
35.902443
35.908265
35.908514
35.908814
35.908924
35.907619
35.905748
35.903466
35.901222
35.899622
35.903889
35.904051
35.90424
35.904247
35.903008
35.901366
35.8995
35.897777
35.896663
35.899225
35.899337
35.899456
35.899393
35.898271
35.896876
35.895427
35.894219
35.893569
35.894422
35.89449
35.89455
35.894436
35.893458
35.892344
35.891306
35.890598
35.890355
35.889504
35.889535
35.889547
35.889409
35.888627
35.88783
35.887231
35.887014
35.887103
35.884076
35.88411
35.884156
35.884134
35.883706
35.883341
35.883244
35.883541
35.88396
33.904601
33.904488
33.904359
33.904266
33.904336
33.904364
33.90427
33.904044
33.903924
33.904942
33.904813
33.904668
33.904561
33.904719
33.904815
33.904782
33.904628
33.904513
33.905307
33.905169
33.905015
33.904903
33.905139
33.905303
33.905315
33.905169
33.904956
33.905776
33.905637
33.90548
33.905361
33.905657
33.90587
33.9059
33.905724
33.905396
33.906307
33.906172
33.906016
33.905893
33.906245
33.9065
33.906539
33.906318
33.905872
33.906831
33.90671
33.906567
33.90645
33.906859
33.907154
33.907194
33.90692
33.90636
33.907374
33.907266
33.907138
33.907029
33.907485
33.907812
33.907845
33.907514
33.906844
33.907901
33.907809
33.907699
33.907606
33.908104
33.908448
33.90847
33.908082
33.907315
33.908401
33.908326
33.908235
33.908157
33.908688
33.909042
33.909047
33.908608
33.907757
33.908844
33.908788
33.908716
33.908655
33.909201
33.909559
33.909549
33.909068
33.908151
33.909182
33.909141
33.909086
33.909042
33.909597
33.909954
33.90993
33.909425
33.908477
33.909383
33.909349
33.909302
33.909263
33.90982
33.910172
33.910141
33.909633
33.908669
33.909384
33.90935
33.909303
33.909264
33.90982
33.910172
33.910142
33.909634
33.90867
33.909183
33.909143
33.909088
33.909043
33.909599
33.909955
33.909931
33.909427
33.908478
33.908847
33.908791
33.908719
33.908658
33.909204
33.909563
33.909552
33.909071
33.908154
33.908405
33.908331
33.908239
33.908161
33.908693
33.909046
33.909052
33.908612
33.907761
33.907906
33.907815
33.907704
33.907612
33.908109
33.908453
33.908475
33.908087
33.90732
33.90738
33.907272
33.907144
33.907036
33.907492
33.907819
33.907852
33.90752
33.90685
33.906839
33.906718
33.906575
33.906458
33.906868
33.907162
33.907202
33.906927
33.906366
33.906317
33.906181
33.906025
33.905902
33.906255
33.90651
33.906548
33.906326
33.90588
33.905787
33.905648
33.905491
33.905372
33.905668
33.905881
33.905911
33.905734
33.905406
33.905319
33.905181
33.905028
33.904916
33.905152
33.905316
33.905327
33.905181
33.904968
33.904956
33.904827
33.904682
33.904575
33.904733
33.90483
33.904797
33.904642
33.904527
33.904617
33.904504
33.904375
33.904282
33.904352
33.90438
33.904286
33.90406
33.903939
32.377206
32.377226
32.377233
32.377196
32.377098
32.376991
32.376932
32.376962
32.377053
32.377841
32.37786
32.377863
32.377818
32.377652
32.377492
32.377394
32.377402
32.377482
32.378296
32.37832
32.378328
32.378285
32.378083
32.377887
32.377759
32.377745
32.37783
32.378678
32.378708
32.378722
32.378683
32.378452
32.378231
32.378082
32.378058
32.378166
32.378996
32.379033
32.379053
32.379022
32.378774
32.378537
32.378377
32.378353
32.37848
32.379253
32.379297
32.379328
32.379308
32.379052
32.378807
32.378642
32.378618
32.37874
32.379464
32.379517
32.379558
32.379549
32.37929
32.379043
32.378874
32.378837
32.378946
32.379628
32.37969
32.37974
32.379737
32.379488
32.379243
32.379066
32.379016
32.379118
32.379755
32.379825
32.379884
32.379892
32.379649
32.379405
32.379222
32.379165
32.379261
32.379846
32.379923
32.379992
32.380009
32.379772
32.37953
32.379345
32.379283
32.379374
32.379906
32.379989
32.380065
32.38009
32.379857
32.379617
32.379431
32.379367
32.379455
32.379938
32.380024
32.380103
32.380132
32.379902
32.379663
32.379476
32.379411
32.379498
32.379938
32.380024
32.380104
32.380133
32.379903
32.379664
32.379477
32.379411
32.379499
32.379908
32.379991
32.380067
32.380092
32.379859
32.379619
32.379433
32.379369
32.379457
32.379849
32.379926
32.379995
32.380013
32.379776
32.379533
32.379348
32.379287
32.379377
32.37976
32.37983
32.379889
32.379897
32.379654
32.37941
32.379227
32.37917
32.379266
32.379635
32.379696
32.379746
32.379744
32.379495
32.37925
32.379073
32.379022
32.379124
32.379472
32.379525
32.379566
32.379558
32.379299
32.379052
32.378882
32.378845
32.378953
32.379262
32.379307
32.379338
32.379318
32.379062
32.378818
32.378652
32.378628
32.378749
32.379008
32.379044
32.379065
32.379034
32.378786
32.378549
32.378389
32.378364
32.37849
32.378692
32.378722
32.378735
32.378697
32.378466
32.378245
32.378095
32.378071
32.378178
32.378312
32.378336
32.378344
32.378301
32.378099
32.377903
32.377775
32.37776
32.377844
32.377858
32.377877
32.377881
32.377836
32.37767
32.377509
32.377411
32.377418
32.377498
32.377225
32.377245
32.377253
32.377215
32.377117
32.37701
32.376951
32.37698
32.37707
30.668292
30.66827
30.66825
30.668243
30.668247
30.668245
30.668217
30.668153
30.66809
30.6685
30.668476
30.668455
30.668448
30.668458
30.668459
30.668429
30.66836
30.668277
30.668692
30.668668
30.668647
30.668641
30.668661
30.668665
30.668628
30.668537
30.66841
30.668893
30.668869
30.668849
30.668842
30.66887
30.668874
30.668823
30.668704
30.668531
30.669094
30.669072
30.669053
30.669047
30.669082
30.669086
30.669025
30.668879
30.668666
30.669278
30.669258
30.669243
30.669241
30.669285
30.669293
30.669226
30.669062
30.668832
30.669449
30.669432
30.66942
30.669424
30.669472
30.669483
30.669413
30.669245
30.669007
30.669605
30.669589
30.669582
30.669596
30.669643
30.669655
30.669587
30.669417
30.669163
30.669734
30.66972
30.669717
30.669738
30.669787
30.669803
30.669738
30.669561
30.669291
30.669834
30.669822
30.669822
30.669847
30.669899
30.66992
30.669855
30.669672
30.66939
30.669901
30.669891
30.669893
30.669922
30.669976
30.669999
30.669935
30.669748
30.669457
30.669938
30.669928
30.66993
30.669961
30.670016
30.67004
30.669976
30.669787
30.669492
30.669939
30.669929
30.669931
30.669962
30.670017
30.670041
30.669976
30.669788
30.669493
30.669904
30.669893
30.669895
30.669925
30.669979
30.670002
30.669937
30.66975
30.669459
30.669838
30.669826
30.669826
30.669852
30.669903
30.669924
30.669859
30.669676
30.669393
30.669739
30.669726
30.669723
30.669744
30.669792
30.669809
30.669743
30.669567
30.669296
30.669612
30.669597
30.66959
30.669604
30.66965
30.669663
30.669594
30.669424
30.669169
30.669458
30.669441
30.66943
30.669433
30.669482
30.669493
30.669422
30.669254
30.669015
30.669289
30.669269
30.669254
30.669253
30.669296
30.669304
30.669237
30.669073
30.668842
30.669107
30.669085
30.669067
30.669061
30.669096
30.6691
30.669038
30.668892
30.668678
30.668909
30.668885
30.668865
30.668858
30.668887
30.66889
30.668839
30.668719
30.668545
30.66871
30.668686
30.668665
30.668659
30.66868
30.668684
30.668646
30.668554
30.668426
30.668521
30.668497
30.668476
30.668469
30.668479
30.66848
30.668449
30.668379
30.668295
30.668315
30.668293
30.668273
30.668266
30.66827
30.668268
30.668239
30.668175
30.668111
29.023253
29.023255
29.023255
29.023246
29.023229
29.023209
29.023194
29.023194
29.023213
29.023323
29.023326
29.023325
29.023313
29.023293
29.02327
29.023257
29.023262
29.023288
29.023351
29.023355
29.023354
29.023344
29.023324
29.023304
29.023295
29.023307
29.023338
29.023363
29.023369
29.023369
29.023359
29.023341
29.023324
29.023321
29.023339
29.023376
29.02336
29.023367
29.023369
29.02336
29.023342
29.023326
29.023324
29.023345
29.023384
29.023345
29.023353
29.023357
29.023348
29.023331
29.023314
29.02331
29.023329
29.023368
29.023327
29.023337
29.023342
29.023335
29.023318
29.0233
29.023294
29.023311
29.023349
29.023308
29.02332
29.023326
29.023321
29.023305
29.023286
29.02328
29.023295
29.023332
29.023291
29.023304
29.023312
29.023307
29.023292
29.023274
29.023267
29.023281
29.023317
29.023276
29.02329
29.023299
29.023296
29.023282
29.023265
29.023257
29.023269
29.023306
29.023265
29.02328
29.023291
29.023289
29.023276
29.023258
29.02325
29.023262
29.023297
29.02326
29.023276
29.023287
29.023285
29.023273
29.023255
29.023246
29.023258
29.023293
29.023261
29.023277
29.023288
29.023286
29.023274
29.023256
29.023247
29.023259
29.023293
29.023268
29.023283
29.023293
29.023291
29.023278
29.023261
29.023252
29.023264
29.023299
29.02328
29.023294
29.023304
29.023301
29.023287
29.023269
29.023261
29.023274
29.023309
29.023297
29.02331
29.023318
29.023314
29.023299
29.023281
29.023273
29.023287
29.023323
29.023316
29.023328
29.023335
29.023329
29.023313
29.023295
29.023288
29.023302
29.023339
29.023337
29.023348
29.023353
29.023346
29.023329
29.023311
29.023305
29.023321
29.023358
29.023357
29.023366
29.02337
29.023361
29.023345
29.023327
29.023322
29.02334
29.023378
29.023375
29.023382
29.023384
29.023375
29.023358
29.023342
29.023339
29.023359
29.023397
29.023381
29.023387
29.023388
29.023378
29.02336
29.023342
29.023338
29.023355
29.023391
29.023372
29.023376
29.023376
29.023365
29.023346
29.023325
29.023315
29.023326
29.023355
29.023347
29.02335
29.023349
29.023337
29.023317
29.023294
29.02328
29.023284
29.023308
29.023279
29.023282
29.023281
29.023272
29.023256
29.023235
29.02322
29.023219
29.023237
27.363441
27.363439
27.363437
27.363436
27.363437
27.363436
27.363432
27.363423
27.363413
27.363485
27.363483
27.363481
27.36348
27.36348
27.363478
27.363474
27.363465
27.363456
27.363528
27.363525
27.363523
27.363524
27.363524
27.363522
27.363516
27.363505
27.363491
27.363573
27.363571
27.36357
27.363571
27.363572
27.36357
27.363562
27.363547
27.363529
27.36362
27.363618
27.363618
27.36362
27.36362
27.363619
27.36361
27.363593
27.363572
27.363664
27.363662
27.363663
27.363668
27.363668
27.363666
27.363657
27.363639
27.363614
27.363701
27.3637
27.363702
27.363706
27.36371
27.36371
27.363702
27.363682
27.363654
27.363736
27.363736
27.363738
27.363743
27.363748
27.36375
27.363743
27.363722
27.363691
27.363765
27.363766
27.363768
27.363774
27.363781
27.363785
27.363778
27.363757
27.363725
27.363789
27.363789
27.363792
27.363799
27.363807
27.363812
27.363807
27.363786
27.363755
27.363805
27.363805
27.363809
27.363816
27.363825
27.363831
27.363827
27.363808
27.363776
27.363814
27.363814
27.363818
27.363826
27.363835
27.363842
27.363838
27.363819
27.363787
27.363814
27.363815
27.363819
27.363827
27.363836
27.363842
27.363839
27.36382
27.363787
27.363807
27.363808
27.363812
27.363819
27.363828
27.363834
27.36383
27.363811
27.363778
27.363793
27.363793
27.363797
27.363804
27.363812
27.363817
27.363811
27.363791
27.363759
27.363772
27.363772
27.363775
27.363781
27.363788
27.363792
27.363785
27.363763
27.363731
27.363744
27.363744
27.363746
27.363752
27.363757
27.363759
27.363751
27.36373
27.363698
27.363712
27.363711
27.363713
27.363717
27.363721
27.363722
27.363713
27.363693
27.363663
27.363676
27.363675
27.363676
27.363682
27.363681
27.36368
27.363671
27.363651
27.363625
27.363636
27.363634
27.363634
27.363636
27.363637
27.363635
27.363626
27.363608
27.363585
27.363592
27.36359
27.363589
27.36359
27.363591
27.363589
27.36358
27.363565
27.363545
27.363549
27.363547
27.363545
27.363546
27.363546
27.363544
27.363537
27.363524
27.363509
27.36351
27.363507
27.363505
27.363505
27.363505
27.363503
27.363497
27.363488
27.363477
27.363468
27.363466
27.363464
27.363463
27.363464
27.363463
27.363458
27.363449
27.363438
25.702763
25.702762
25.702761
25.702759
25.702756
25.702752
25.702748
25.702743
25.702744
25.702785
25.702784
25.702782
25.70278
25.702777
25.702774
25.70277
25.702768
25.702769
25.702797
25.702797
25.702795
25.702793
25.702791
25.702789
25.702787
25.702786
25.702787
25.702807
25.702807
25.702806
25.702804
25.702803
25.702801
25.7028
25.702801
25.702803
25.702815
25.702815
25.702814
25.702812
25.702812
25.702812
25.702812
25.702814
25.702816
25.702819
25.70282
25.702819
25.702817
25.702819
25.70282
25.702822
25.702824
25.702827
25.702824
25.702825
25.702825
25.702825
25.702826
25.702827
25.70283
25.702833
25.702837
25.702827
25.702828
25.702829
25.702829
25.702831
25.702833
25.702836
25.70284
25.702844
25.702829
25.702831
25.702831
25.702832
25.702834
25.702837
25.70284
25.702844
25.702845
25.70283
25.702832
25.702833
25.702834
25.702837
25.70284
25.702843
25.702845
25.702844
25.702831
25.702833
25.702834
25.702836
25.702838
25.702842
25.702844
25.702844
25.702842
25.702832
25.702834
25.702835
25.702837
25.70284
25.702843
25.702845
25.702844
25.702842
25.702832
25.702834
25.702836
25.702838
25.702841
25.702844
25.702846
25.702845
25.702843
25.702833
25.702835
25.702837
25.702839
25.702841
25.702844
25.702847
25.702847
25.702845
25.702835
25.702836
25.702838
25.702839
25.702841
25.702844
25.702847
25.702849
25.702847
25.702835
25.702837
25.702838
25.702839
25.702841
25.702844
25.702847
25.70285
25.702851
25.702836
25.702837
25.702837
25.702838
25.70284
25.702842
25.702845
25.702848
25.702851
25.702835
25.702836
25.702836
25.702836
25.702837
25.702839
25.702841
25.702843
25.702846
25.702832
25.702833
25.702832
25.70283
25.702833
25.702834
25.702835
25.702837
25.702838
25.70283
25.70283
25.70283
25.702828
25.702828
25.702828
25.702828
25.702828
25.702829
25.702825
25.702825
25.702824
25.702823
25.702822
25.70282
25.702819
25.702818
25.702818
25.702818
25.702818
25.702817
25.702815
25.702813
25.70281
25.702808
25.702806
25.702806
25.702809
25.702808
25.702807
25.702804
25.702802
25.702798
25.702794
25.70279
25.70279
25.702789
25.702788
25.702787
25.702785
25.702783
25.702779
25.702774
25.702768
25.702768
24.04653
24.04653
24.04653
24.04653
24.046529
24.046529
24.046529
24.046529
24.046529
24.046537
24.046537
24.046537
24.046537
24.046536
24.046535
24.046535
24.046535
24.046535
24.046542
24.046542
24.046543
24.046543
24.046542
24.046541
24.04654
24.046539
24.046539
24.046548
24.046548
24.046549
24.046549
24.046548
24.046547
24.046546
24.046544
24.046544
24.046553
24.046554
24.046555
24.046555
24.046554
24.046553
24.046551
24.046549
24.046549
24.046558
24.046559
24.04656
24.046561
24.04656
24.046559
24.046557
24.046555
24.046554
24.046563
24.046563
24.046565
24.046566
24.046565
24.046564
24.046562
24.04656
24.046558
24.046567
24.046568
24.046569
24.04657
24.04657
24.046569
24.046568
24.046565
24.046563
24.04657
24.046571
24.046573
24.046574
24.046574
24.046574
24.046572
24.046569
24.046567
24.046573
24.046574
24.046576
24.046577
24.046578
24.046577
24.046576
24.046573
24.046571
24.046575
24.046576
24.046578
24.04658
24.04658
24.04658
24.046579
24.046576
24.046573
24.046577
24.046578
24.04658
24.046581
24.046582
24.046582
24.04658
24.046578
24.046575
24.046578
24.046579
24.046581
24.046582
24.046583
24.046583
24.046581
24.046579
24.046576
24.046578
24.046579
24.046581
24.046582
24.046583
24.046583
24.046581
24.046578
24.046575
24.046577
24.046578
24.04658
24.046582
24.046582
24.046582
24.04658
24.046577
24.046574
24.046576
24.046577
24.046579
24.04658
24.046581
24.04658
24.046578
24.046575
24.046572
24.046574
24.046575
24.046577
24.046578
24.046579
24.046578
24.046576
24.046573
24.04657
24.046572
24.046573
24.046575
24.046576
24.046576
24.046575
24.046573
24.04657
24.046567
24.046571
24.046572
24.046573
24.046574
24.046573
24.046572
24.04657
24.046567
24.046564
24.046568
24.046569
24.04657
24.046571
24.04657
24.046569
24.046566
24.046563
24.046561
24.046565
24.046566
24.046567
24.046567
24.046567
24.046565
24.046563
24.046561
24.046559
24.046563
24.046563
24.046564
24.046564
24.046563
24.046562
24.04656
24.046558
24.046557
24.04656
24.04656
24.046561
24.046561
24.04656
24.046559
24.046558
24.046557
24.046556
24.046556
24.046556
24.046556
24.046556
24.046555
24.046555
24.046554
24.046554
24.046553
22.386389
22.386389
22.386388
22.386388
22.386388
22.386388
22.386387
22.386386
22.386386
22.386395
22.386395
22.386394
22.386394
22.386394
22.386394
22.386393
22.386393
22.386393
22.3864
22.386399
22.386399
22.386399
22.386399
22.386399
22.386398
22.386398
22.386398
22.386404
22.386404
22.386403
22.386403
22.386403
22.386404
22.386404
22.386403
22.386403
22.386409
22.386408
22.386408
22.386408
22.386408
22.386409
22.386409
22.386408
22.386407
22.386412
22.386412
22.386412
22.386411
22.386412
22.386413
22.386414
22.386413
22.386412
22.386416
22.386416
22.386415
22.386415
22.386416
22.386417
22.386418
22.386417
22.386416
22.386419
22.386419
22.386418
22.386419
22.38642
22.386421
22.386422
22.386421
22.386419
22.386421
22.386421
22.386421
22.386422
22.386423
22.386424
22.386425
22.386425
22.386422
22.386423
22.386423
22.386423
22.386424
22.386425
22.386427
22.386428
22.386427
22.386425
22.386425
22.386425
22.386425
22.386426
22.386427
22.386429
22.38643
22.386429
22.386427
22.386426
22.386426
22.386426
22.386427
22.386428
22.38643
22.386431
22.386431
22.386428
22.386426
22.386427
22.386427
22.386428
22.386429
22.386431
22.386432
22.386431
22.386428
22.386427
22.386427
22.386427
22.386428
22.386429
22.386431
22.386432
22.386431
22.386428
22.386427
22.386427
22.386427
22.386428
22.386429
22.386431
22.386432
22.386431
22.386428
22.386426
22.386426
22.386427
22.386427
22.386429
22.38643
22.386431
22.38643
22.386427
22.386426
22.386426
22.386426
22.386426
22.386427
22.386429
22.386429
22.386428
22.386425
22.386425
22.386425
22.386424
22.386425
22.386426
22.386427
22.386427
22.386426
22.386423
22.386423
22.386423
22.386423
22.386423
22.386424
22.386425
22.386425
22.386424
22.386421
22.386422
22.386422
22.386421
22.386421
22.386422
22.386423
22.386422
22.386421
22.386419
22.38642
22.38642
22.38642
22.38642
22.38642
22.38642
22.386419
22.386418
22.386416
22.386419
22.386418
22.386418
22.386418
22.386418
22.386417
22.386417
22.386415
22.386414
22.386417
22.386416
22.386416
22.386415
22.386415
22.386415
22.386414
22.386412
22.386411
22.386413
22.386413
22.386412
22.386412
22.386412
22.386411
22.38641
22.386409
22.386407
20.728936
20.728936
20.728936
20.728936
20.728936
20.728936
20.728936
20.728937
20.728938
20.728937
20.728937
20.728938
20.728937
20.728937
20.728937
20.728937
20.728938
20.728939
20.728938
20.728939
20.728939
20.728939
20.728938
20.728938
20.728938
20.728939
20.72894
20.728939
20.72894
20.72894
20.72894
20.728939
20.728939
20.728939
20.728939
20.72894
20.72894
20.72894
20.728941
20.728941
20.72894
20.72894
20.72894
20.72894
20.728941
20.728941
20.728941
20.728942
20.728942
20.728941
20.728941
20.728941
20.728941
20.728942
20.728941
20.728942
20.728942
20.728942
20.728942
20.728942
20.728942
20.728942
20.728943
20.728942
20.728943
20.728943
20.728943
20.728943
20.728943
20.728942
20.728943
20.728943
20.728943
20.728943
20.728944
20.728944
20.728944
20.728943
20.728943
20.728943
20.728944
20.728943
20.728944
20.728944
20.728945
20.728944
20.728944
20.728944
20.728944
20.728945
20.728944
20.728944
20.728945
20.728945
20.728945
20.728945
20.728945
20.728945
20.728946
20.728945
20.728945
20.728946
20.728946
20.728946
20.728946
20.728945
20.728946
20.728946
20.728945
20.728946
20.728946
20.728946
20.728946
20.728946
20.728946
20.728946
20.728947
20.728946
20.728946
20.728947
20.728947
20.728947
20.728947
20.728947
20.728947
20.728947
20.728946
20.728947
20.728947
20.728948
20.728948
20.728947
20.728947
20.728947
20.728948
20.728947
20.728947
20.728948
20.728948
20.728948
20.728948
20.728948
20.728948
20.728948
20.728948
20.728948
20.728949
20.728949
20.728949
20.728949
20.728948
20.728948
20.728948
20.728949
20.728949
20.72895
20.72895
20.72895
20.72895
20.728949
20.728949
20.728949
20.72895
20.72895
20.728951
20.728951
20.728951
20.72895
20.72895
20.728949
20.728949
20.728951
20.728951
20.728952
20.728952
20.728952
20.728951
20.728951
20.72895
20.72895
20.728952
20.728953
20.728953
20.728953
20.728953
20.728952
20.728952
20.728951
20.728951
20.728953
20.728954
20.728954
20.728954
20.728954
20.728953
20.728953
20.728953
20.728953
20.728954
20.728955
20.728955
20.728955
20.728954
20.728954
20.728954
20.728954
20.728954
20.728955
20.728955
20.728955
20.728955
20.728955
20.728955
20.728955
20.728955
20.728955
19.069865
19.069865
19.069865
19.069865
19.069865
19.069865
19.069864
19.069864
19.069864
19.069867
19.069867
19.069867
19.069867
19.069867
19.069867
19.069867
19.069866
19.069866
19.069869
19.069869
19.069869
19.069869
19.069869
19.069869
19.069869
19.069869
19.069868
19.069871
19.069871
19.069871
19.069871
19.069871
19.069871
19.069871
19.069871
19.06987
19.069873
19.069873
19.069873
19.069873
19.069873
19.069873
19.069873
19.069873
19.069872
19.069875
19.069875
19.069875
19.069875
19.069875
19.069875
19.069875
19.069875
19.069874
19.069877
19.069877
19.069876
19.069876
19.069877
19.069877
19.069877
19.069877
19.069876
19.069878
19.069878
19.069878
19.069878
19.069878
19.069879
19.069879
19.069878
19.069877
19.069879
19.069879
19.069879
19.069879
19.06988
19.06988
19.06988
19.06988
19.069878
19.06988
19.06988
19.06988
19.06988
19.069881
19.069881
19.069881
19.069881
19.069879
19.069881
19.069881
19.069881
19.069881
19.069882
19.069882
19.069882
19.069882
19.06988
19.069882
19.069882
19.069882
19.069882
19.069882
19.069883
19.069883
19.069882
19.069881
19.069882
19.069882
19.069882
19.069882
19.069883
19.069883
19.069883
19.069883
19.069881
19.069882
19.069882
19.069882
19.069883
19.069883
19.069884
19.069884
19.069883
19.069881
19.069883
19.069883
19.069883
19.069883
19.069883
19.069884
19.069884
19.069883
19.069881
19.069883
19.069882
19.069882
19.069883
19.069883
19.069883
19.069883
19.069883
19.069881
19.069882
19.069882
19.069882
19.069882
19.069883
19.069883
19.069883
19.069882
19.069881
19.069882
19.069882
19.069882
19.069882
19.069882
19.069883
19.069882
19.069882
19.06988
19.069882
19.069881
19.069881
19.069881
19.069882
19.069882
19.069882
19.069881
19.06988
19.069881
19.069881
19.069881
19.069881
19.069881
19.069881
19.069881
19.06988
19.069879
19.06988
19.06988
19.06988
19.06988
19.06988
19.06988
19.06988
19.069879
19.069878
19.06988
19.06988
19.06988
19.06988
19.06988
19.06988
19.069879
19.069879
19.069878
19.069879
19.069879
19.069879
19.069879
19.069879
19.069879
19.069879
19.069878
19.069877
19.069879
19.069878
19.069878
19.069878
19.069878
19.069878
19.069878
19.069877
19.069876
17.411702
17.411702
17.411702
17.411702
17.411702
17.411702
17.411703
17.411703
17.411703
17.411703
17.411703
17.411703
17.411703
17.411703
17.411703
17.411703
17.411703
17.411703
17.411703
17.411703
17.411703
17.411703
17.411703
17.411703
17.411703
17.411703
17.411704
17.411703
17.411704
17.411704
17.411704
17.411703
17.411703
17.411703
17.411703
17.411704
17.411704
17.411704
17.411704
17.411704
17.411704
17.411704
17.411704
17.411704
17.411704
17.411704
17.411704
17.411704
17.411704
17.411704
17.411704
17.411704
17.411704
17.411705
17.411704
17.411704
17.411704
17.411704
17.411704
17.411704
17.411704
17.411704
17.411705
17.411704
17.411704
17.411705
17.411705
17.411704
17.411704
17.411704
17.411705
17.411705
17.411705
17.411705
17.411705
17.411705
17.411705
17.411705
17.411705
17.411705
17.411705
17.411705
17.411705
17.411705
17.411705
17.411705
17.411705
17.411705
17.411705
17.411705
17.411705
17.411705
17.411705
17.411705
17.411705
17.411705
17.411705
17.411705
17.411706
17.411705
17.411705
17.411705
17.411706
17.411705
17.411705
17.411705
17.411706
17.411706
17.411705
17.411706
17.411706
17.411706
17.411706
17.411706
17.411706
17.411706
17.411706
17.411706
17.411706
17.411706
17.411706
17.411706
17.411706
17.411706
17.411706
17.411706
17.411706
17.411706
17.411706
17.411707
17.411707
17.411706
17.411706