/*--------------------------------*- C++ -*----------------------------------*\
| =========                 |                                                 |
| \\      /  F ield         | OpenFOAM: The Open Source CFD Toolbox           |
|  \\    /   O peration     | Version:  2406                                  |
|   \\  /    A nd           | Website:  www.openfoam.com                      |
|    \\/     M anipulation  |                                                 |
\*---------------------------------------------------------------------------*/
FoamFile
{
    version     2.0;
    format      ascii;
    arch        "LSB;label=32;scalar=64";
    class       surfaceScalarField;
    location    "5";
    object      phi;
}
// * * * * * * * * * * * * * * * * * * * * * * * * * * * * * * * * * * * * * //

dimensions      [0 3 -1 0 0 0 0];

oriented        oriented;

internalField   nonuniform List<scalar> 
101088
(
-3.2385243e-05
-1.0082476e-06
7.1705574e-06
1.917502e-06
-9.8435695e-05
2.9851864e-06
2.68231e-05
2.2293694e-06
-0.00021388287
2.8047405e-05
5.3045915e-05
-1.1907198e-05
-0.00038488559
0.00010034604
7.2810941e-05
-6.2596069e-05
-0.00058857183
0.00023417034
6.2622935e-05
-0.00016786622
-0.00076374261
0.00039480078
3.2616791e-06
-0.00030901439
-0.00085506851
0.0005186465
-8.5953198e-05
-0.00043238023
-0.0008598555
0.00057273729
-0.00015946335
-0.0004958384
0.00055888443
-0.00018450805
-0.00049887351
-0.00081140906
-3.9051667e-05
-7.6870822e-07
8.9966541e-06
-0.00011735244
6.5643984e-06
3.305357e-05
-0.00025194427
4.248619e-05
6.3554385e-05
-0.00044570867
0.0001372022
8.3020327e-05
-0.00066386647
0.00029835615
6.2534982e-05
-0.00083227332
0.00047428658
-1.6735797e-05
-0.00089849783
0.00059872276
-0.00012629866
-0.00087405332
0.0006511436
-0.00021213028
0.00063881267
-0.00024096543
-0.0008099385
-4.6162556e-05
-1.0578666e-06
1.1074807e-05
-0.000136998
7.7569471e-06
4.028475e-05
-0.00028920906
5.1495783e-05
7.6287442e-05
-0.00049994682
0.00016503132
9.5726672e-05
-0.0007255578
0.00034978107
6.6461648e-05
-0.00088409112
0.00053890554
-3.0524478e-05
-0.00092925471
0.00066816441
-0.00015697409
-0.0008843447
0.00072904183
-0.00025239681
0.00072840557
-0.00028406516
-0.00080576944
-5.3284465e-05
-1.8763454e-06
1.3298433e-05
-0.00015674725
6.2212145e-06
4.8166042e-05
-0.0003258463
5.3072772e-05
9.0639697e-05
-0.00055026714
0.00017829073
0.00011123686
-0.0007778239
0.00037935251
7.4818028e-05
-0.00092541722
0.00058152836
-3.704504e-05
-0.00095526387
0.00072390102
-0.00017722678
-0.00089776879
0.00080377464
-0.00028019947
0.00082077815
-0.0003141641
-0.0008087491
-5.9720205e-05
-3.7779709e-06
1.5668141e-05
-0.00017402705
-1.8014692e-07
5.6809874e-05
-0.00035700267
4.275714e-05
0.00010703064
-0.00059185752
0.00017058107
0.00013072865
-0.00082097581
0.00038195944
8.9037721e-05
-0.00096304888
0.00060035435
-3.4865643e-05
-0.00098687099
0.00076606448
-0.00018651518
-0.0009254232
0.00087384526
-0.00029583138
0.0009108997
-0.00033153544
-0.00083154728
-6.5866952e-05
-6.8747832e-06
1.823574e-05
-0.00019097937
-1.1999496e-05
6.6498396e-05
-0.00038850736
1.920872e-05
0.0001261808
-0.00063613851
0.00014001543
0.000155466
-0.0008727359
0.00035755352
0.00011054301
-0.001017811
0.00059595636
-2.3087735e-05
-0.0010443861
0.00079349777
-0.00018394668
-0.00098444863
0.00093323172
-0.00029789679
0.00098885466
-0.00033506863
-0.00088755196
-7.1825641e-05
-1.1062815e-05
2.1045141e-05
-0.00020868225
-2.8918434e-05
7.7552971e-05
-0.00042418976
-1.6790951e-05
0.00014898279
-0.00069220483
8.7871335e-05
0.00018784756
-0.00094546497
0.00030672115
0.00014229401
-0.0011052388
0.00056814206
2.5198769e-06
-0.0011437243
0.00080151196
-0.00016538452
-0.0010896955
0.00097173199
-0.00028315443
0.0010415264
-0.00032233821
-0.0009908206
-7.8135763e-05
-1.5743276e-05
2.4203749e-05
-0.00023026286
-4.846981e-05
9.0493313e-05
-0.00047364176
-5.9412698e-05
0.00017696159
-0.00078103875
2.1725415e-05
0.00023307756
-0.001067876
0.00023602718
0.00018613659
-0.0012571098
0.00051551585
4.6281303e-05
-0.0013144157
0.00077848953
-0.00012615671
-0.0012657837
0.00096962603
-0.00024707392
0.0010459319
-0.00028942059
-0.0011601629
-8.594626e-05
-1.9121529e-05
2.7725305e-05
-0.00026152286
-6.3566918e-05
0.00010542621
-0.00055163005
-9.4031644e-05
0.00021036639
-0.00092531935
-3.9054483e-05
0.00028736673
-0.0012729229
0.00015710934
0.00024735178
-0.0015064136
0.00043379513
0.00011117049
-0.0015848827
0.00070360378
-6.1624389e-05
-0.0015343826
0.00089527724
-0.00018455631
0.00096746493
-0.00023189672
-0.0014101561
-9.5792451e-05
-1.8586587e-05
3.137663e-05
-0.00030535369
-6.365723e-05
0.00012130468
-0.0006635326
-0.00010112909
0.00024686336
-0.0011326319
-7.0505216e-05
0.0003484039
-0.0015722802
8.4896907e-05
0.00032680192
-0.0018611221
0.00031861871
0.00019360098
-0.0019576855
0.00055154685
2.7281494e-05
-0.0018930468
0.00071219097
-9.579506e-05
0.0007676802
-0.00015017558
-0.0017341898
-0.00010684937
-1.1756215e-05
3.4607401e-05
-0.00035570558
-4.0777041e-05
0.00013555103
-0.00079136342
-6.6868619e-05
0.00028026996
-0.0013692923
-5.4092867e-05
0.00040600077
-0.0019144258
3.3255424e-05
0.00040778991
-0.0022569984
0.00017205508
0.00027448228
-0.0023641876
0.00030871112
0.00012448012
-0.0022756538
0.00040205763
3.5178878e-06
0.00043103725
-5.8949189e-05
-0.00207441
-0.00011450492
-1.4638295e-10
3.6564229e-05
-0.00039108086
-6.6033423e-10
0.00014432439
-0.00088166775
-1.6657885e-09
0.00030122101
-0.0015354183
-3.0443398e-09
0.00044244591
-0.0021519346
-4.2968725e-09
0.0004588139
-0.0025325042
-4.8581697e-09
0.00033584532
-0.0026427604
-4.7986392e-09
0.00019131678
-0.0025342146
-4.6744036e-09
7.3513647e-05
-4.66951e-09
4.9262925e-06
-0.0023040661
-0.0001145047
1.1755864e-05
3.6564217e-05
-0.00039108049
4.0775545e-05
0.00014432435
-0.00088166771
6.6865045e-05
0.0003012209
-0.001535418
5.4086899e-05
0.00044244571
-0.0021519341
-3.3263647e-05
0.00045881365
-0.0025325038
-0.0001720641
0.00033584509
-0.0026427602
-0.00030872006
0.00019131658
-0.0025342144
-0.00040206663
7.3513444e-05
-0.00043104648
4.9260825e-06
-0.0023040658
-0.0001068487
1.8586109e-05
3.4607385e-05
-0.00035570482
6.3655352e-05
0.00013555095
-0.00079136384
0.00010112523
0.00028026977
-0.0013692915
7.0499509e-05
0.00040600043
-0.0019144252
-8.4903931e-05
0.00040778941
-0.0022569979
-0.00031862638
0.00027448179
-0.0023641877
-0.00055155469
0.00012447965
-0.0022756538
-0.00071219954
3.517399e-06
-0.00076768929
-5.8949692e-05
-0.0020744099
-9.5791443e-05
1.9121158e-05
3.1376607e-05
-0.00030535262
6.3565304e-05
0.00012130458
-0.00066353278
9.402849e-05
0.00024686309
-0.0011326306
3.9050017e-05
0.00034840346
-0.0015722798
-0.00015711522
0.00032680122
-0.0018611217
-0.00043380179
0.00019360034
-0.0019576859
-0.00070361073
2.7280884e-05
-0.0018930473
-0.00089528528
-9.5795661e-05
-0.00096747341
-0.00015017619
-0.0017341907
-8.5945596e-05
1.5743106e-05
2.7725289e-05
-0.0002615225
4.8468806e-05
0.00010542613
-0.00055163057
5.9410237e-05
0.00021036616
-0.00092531879
-2.1729674e-05
0.00028736633
-0.0012729239
-0.00023603305
0.00024735118
-0.001506414
-0.00051552163
0.00011116987
-0.0015848837
-0.00077849548
-6.1624975e-05
-0.0015343837
-0.00096963333
-0.00018455691
-0.0010459398
-0.00023189733
-0.0014101578
-7.8136015e-05
1.1062666e-05
2.4203734e-05
-0.00023026433
2.8917681e-05
9.0493238e-05
-0.00047364296
1.6788532e-05
0.00017696139
-0.00078103943
-8.7875764e-05
0.0002330772
-0.0010678779
-0.00030672621
0.00018613615
-0.0012571108
-0.00056814583
4.6280759e-05
-0.0013144173
-0.00080151634
-0.00012615722
-0.0012657853
-0.00097173838
-0.00024707449
-0.0010415346
-0.00028942117
-0.0011601647
-7.1826974e-05
6.8746853e-06
2.1045131e-05
-0.00020868455
1.1999236e-05
7.7552925e-05
-0.00042418986
-1.9209641e-05
0.00014898267
-0.00069220543
-0.00014001772
0.00018784727
-0.00094546617
-0.00035755621
0.00014229363
-0.0011052402
-0.00059595835
2.5193978e-06
-0.0011437263
-0.00079350115
-0.00016538499
-0.0010896974
-0.00093323764
-0.00028315495
-0.0009888641
-0.00032233869
-0.0009908227
-6.5866945e-05
3.777951e-06
1.8235735e-05
-0.0001909788
1.8024139e-07
6.6498367e-05
-0.0003885064
-4.275727e-05
0.00012618072
-0.00063613839
-0.00017058242
0.00015546582
-0.00087273643
-0.00038196094
0.0001105427
-0.0010178126
-0.00060035595
-2.308815e-05
-0.001044388
-0.00076606748
-0.00018394713
-0.00098445047
-0.00087385094
-0.00029789728
-0.00091090969
-0.000335069
-0.00088755469
-5.9720491e-05
1.8762027e-06
1.5668129e-05
-0.00017402818
-6.2216003e-06
5.6809824e-05
-0.00035700363
-5.3073244e-05
0.00010703052
-0.00059185622
-0.00017829151
0.00013072844
-0.00082097663
-0.00037935389
8.9037409e-05
-0.00096304956
-0.00058152902
-3.4866041e-05
-0.00098687184
-0.00072390292
-0.0001865156
-0.00092542429
-0.00080378044
-0.00029583178
-0.00082078809
-0.00033153575
-0.00083154873
-5.3284521e-05
1.0578157e-06
1.3298421e-05
-0.00015674732
-7.7569727e-06
4.816599e-05
-0.00032584588
-5.149548e-05
9.0639573e-05
-0.00055026565
-0.00016503103
0.00011123664
-0.00077782307
-0.00034978158
7.4817706e-05
-0.00092541668
-0.00053890595
-3.7045443e-05
-0.00095526389
-0.00066816618
-0.00017722721
-0.00089776982
-0.00072904747
-0.00028019981
-0.00072841363
-0.00031416436
-0.0008087486
-4.6162337e-05
7.6873462e-07
1.1074793e-05
-0.00013699782
-6.5642723e-06
4.0284696e-05
-0.00028920941
-4.2485992e-05
7.6287314e-05
-0.00049994688
-0.00013720215
9.572648e-05
-0.00072555627
-0.00029835647
6.6461354e-05
-0.00088409077
-0.000474287
-3.0524841e-05
-0.00092925488
-0.00059872317
-0.00015697447
-0.00088434632
-0.00065115022
-0.00025239715
-0.00063882065
-0.00028406545
-0.00080577089
-3.9051679e-05
1.0082295e-06
8.9966424e-06
-0.00011735273
-2.9852191e-06
3.3053522e-05
-0.00025194533
-2.8047533e-05
6.355427e-05
-0.00044570995
-0.00010034635
8.3020147e-05
-0.00066386658
-0.00023417076
6.2534704e-05
-0.0008322727
-0.00039480137
-1.6736137e-05
-0.00089849831
-0.00051864811
-0.00012629898
-0.00087405158
-0.00057273992
-0.00021213056
-0.00055889002
-0.00024096567
-0.00080993732
-3.2385342e-05
7.1705488e-06
1.9174512e-06
-9.8436219e-05
2.6823065e-05
2.2292287e-06
-0.00021388402
5.3045832e-05
-1.1907459e-05
-0.00038488657
7.2810817e-05
-6.2596359e-05
-0.00058857305
6.2622734e-05
-0.00016786613
-0.00076374403
3.2614486e-06
-0.00030901353
-0.00085506705
-8.5953409e-05
-0.00043238044
-0.00085985708
-0.00015946352
-0.00049584414
-0.00018450815
-0.0004988785
-0.00081141098
1.0762146e-06
8.5507721e-08
6.9622969e-06
-9.5347342e-07
4.3119855e-06
-6.6079593e-07
2.7663529e-05
-3.4154259e-06
1.0191883e-05
-5.0799781e-06
5.8008122e-05
-5.7622023e-06
1.8784426e-05
-2.0546282e-05
8.7740287e-05
-2.9758954e-06
3.287702e-05
-5.9282056e-05
9.2591137e-05
1.5220302e-05
5.1550021e-05
-0.00012883698
5.4815586e-05
5.860848e-05
7.6182384e-05
-0.00021595688
-1.6951009e-05
0.00012232161
0.00010587156
-0.00028881884
-8.4722212e-05
0.00018438944
-0.00032496902
-0.00011542257
0.00022545793
0.00013629662
1.7287957e-06
-1.1173468e-06
8.4707625e-06
7.3467826e-06
-6.4425683e-06
3.3217638e-05
1.7865083e-05
-2.0412334e-05
6.8369144e-05
3.2749287e-05
-5.2767933e-05
0.00010035884
5.3140157e-05
-0.00011611993
9.8982807e-05
7.4602396e-05
-0.00021282543
4.5791054e-05
9.7428412e-05
-0.00031994901
-4.5131118e-05
0.00012297785
-0.00039988685
-0.00012661279
-0.00043124367
-0.00016186975
0.00015015585
2.667016e-06
-2.764457e-06
1.005481e-05
1.1577169e-05
-1.4166159e-05
3.9098083e-05
2.8356519e-05
-4.0389007e-05
7.9484518e-05
5.0210759e-05
-9.3362005e-05
0.00011446524
7.6478326e-05
-0.00018397785
0.00010804956
9.8440019e-05
-0.00030675963
4.1448187e-05
0.00011657197
-0.00042928013
-6.5776196e-05
0.0001350778
-0.00051205066
-0.00015873866
-0.00053703667
-0.00019799436
0.00015479859
3.8391801e-06
-4.8737881e-06
1.1568666e-05
1.6953773e-05
-2.3824523e-05
4.4710067e-05
4.1775694e-05
-6.4655595e-05
9.008462e-05
7.2366874e-05
-0.00014077322
0.00012805676
0.00010491469
-0.00025911696
0.00011740994
0.00012643229
-0.00040481115
3.9489521e-05
0.00013842955
-0.00053759209
-8.0911911e-05
0.00014830333
-0.00061942332
-0.00018270066
-0.0006367293
-0.00022506876
0.00015890076
5.1501111e-06
-7.3129176e-06
1.2957338e-05
2.3082338e-05
-3.4808828e-05
4.9862446e-05
5.7234823e-05
-9.1595811e-05
9.9818203e-05
9.8009529e-05
-0.00019144148
0.0001406202
0.00013715317
-0.00033563044
0.00012640831
0.00015797798
-0.00049943296
3.8930787e-05
0.00016358103
-0.00063766618
-9.2044268e-05
0.00016468189
-0.00071600591
-0.00020034908
-0.00072483445
-0.00024481512
0.00016606729
6.7182293e-06
-1.0009006e-05
1.4213615e-05
3.0448881e-05
-4.6564795e-05
5.4523386e-05
7.5809797e-05
-0.0001193854
0.00010860893
0.00012890798
-0.00024104312
0.00015196942
0.00017545316
-0.00040635076
0.0001347186
0.00019547828
-0.00058157591
3.9030937e-05
0.00019461436
-0.00072016105
-0.00010058718
0.00018702336
-0.00079266793
-0.00021364357
-0.00079261823
-0.00025921783
0.00017895714
8.3148717e-06
-1.259828e-05
1.5320061e-05
3.8092955e-05
-5.7428311e-05
5.8638487e-05
9.5171212e-05
-0.00014386716
0.00011638429
0.00016184967
-0.00028191423
0.00016203951
0.0002151194
-0.00045961422
0.00014228803
0.00023419584
-0.00063766646
3.9533838e-05
0.00022775382
-0.00077182495
-0.00010727784
0.00021293094
-0.00083714785
-0.00022385138
-0.00082876704
-0.00026979261
0.00019653548
9.7541069e-06
-1.4467164e-05
1.6318629e-05
4.516463e-05
-6.4750205e-05
6.2405241e-05
0.00011342993
-0.00015877853
0.00012360744
0.0001955179
-0.0003025592
0.00017163428
0.00025283576
-0.00048078724
0.00014999296
0.00027125202
-0.0006508208
4.1019009e-05
0.00026064659
-0.00077524312
-0.00011213234
0.00024058612
-0.00083254887
-0.00023161192
-0.00081750792
-0.00027754627
0.00021745398
1.0826184e-05
-1.4818308e-05
1.7249696e-05
5.0692522e-05
-6.5203298e-05
6.6012932e-05
0.00012840706
-0.00015688882
0.00013076259
0.00022350685
-0.00029166921
0.00018137654
0.00028442616
-0.00045265868
0.00015830536
0.00030163631
-0.00060081525
4.3955024e-05
0.00028890912
-0.00070933628
-0.00011480326
0.00026635028
-0.00075765146
-0.00023689456
-0.00073911205
-0.0002828106
0.00023886886
1.1109129e-05
-1.2661053e-05
1.8109739e-05
5.2662866e-05
-5.490028e-05
6.944815e-05
0.00013482228
-0.00013004067
0.00013785689
0.00023674335
-0.00023665444
0.0001914677
0.00030343096
-0.00035971166
0.00016716788
0.00031947516
-0.00047145539
4.8197126e-05
0.00030808781
-0.00055532046
-0.00011534658
0.00028625396
-0.00059188283
-0.00023972999
-0.00057443654
-0.00028572933
0.00025713199
1.0608587e-05
-7.489656e-06
1.8827321e-05
5.0971754e-05
-3.2079689e-05
7.2367566e-05
0.00013218421
-7.5063471e-05
0.00014408134
0.00023527156
-0.00013443633
0.00020069544
0.00030905942
-0.00020148986
0.0001757803
0.00032312857
-0.00026388196
5.283957e-05
0.00031554779
-0.00030897809
-0.00011428152
0.00029672869
-0.00032917801
-0.00024036829
-0.00031838845
-0.00028652159
0.00026825253
9.8170236e-06
6.5982312e-12
1.925766e-05
4.7888539e-05
8.5791405e-11
7.4173101e-05
0.00012599311
2.4209299e-10
0.00014805312
0.00022719807
5.7744349e-10
0.00020680445
0.00030280019
1.3696274e-09
0.00018172065
0.00031867657
2.4143315e-09
5.6084494e-05
0.0003143006
3.0887629e-09
-0.00011328844
0.00029903218
2.9837049e-09
-0.00024039932
2.1948972e-09
-0.00028667175
0.00027223928
9.8170224e-06
7.4896462e-06
1.9257657e-05
4.7888593e-05
3.2079794e-05
7.4173089e-05
0.00012599309
7.50639e-05
0.00014805309
0.0002271981
0.00013443754
0.0002068044
0.00030280018
0.00020149281
0.00018172061
0.00031867655
0.00026388704
5.608448e-05
0.00031430049
0.00030898448
-0.00011328844
0.000299032
0.00032918399
-0.00024039932
0.00031839278
-0.00028667177
0.00027223912
1.0608804e-05
1.2660982e-05
1.8827319e-05
5.0972065e-05
5.4900189e-05
7.2367556e-05
0.00013218416
0.00013004094
0.00014408132
0.00023527182
0.00023665587
0.00020069539
0.00030905944
0.00035971516
0.00017578024
0.00032312845
0.00047146097
5.2839528e-05
0.00031554736
0.00055532713
-0.00011428156
0.00029672814
0.00059188874
-0.00024036835
0.00057444069
-0.00028652166
0.00026825211
1.1109749e-05
1.4818257e-05
1.8109733e-05
5.266358e-05
6.5203207e-05
6.9448125e-05
0.00013482235
0.00015688915
0.00013785683
0.00023674396
0.00029167096
0.00019146762
0.00030343084
0.00045266238
0.00016716778
0.0003194748
0.00060082074
4.8197046e-05
0.00030808691
0.00070934263
-0.00011534664
0.00028625312
0.00075765699
-0.00023973007
0.00073911586
-0.00028572942
0.00025713151
1.0826832e-05
1.4467221e-05
1.7249694e-05
5.0693165e-05
6.4750375e-05
6.6012916e-05
0.0001284072
0.00015877906
0.00013076254
0.00022350755
0.00030256082
0.00018137647
0.00028442564
0.00048079036
0.00015830525
0.00030163566
0.00065082576
4.3954911e-05
0.00028890786
0.00077524897
-0.00011480337
0.00026634935
0.00083255407
-0.00023689466
0.00081751128
-0.00028281071
0.00023886849
9.7541586e-06
1.2598298e-05
1.6318625e-05
4.516416e-05
5.7428403e-05
6.2405221e-05
0.00011342967
0.00014386735
0.00012360739
0.00019551817
0.00028191511
0.00017163421
0.0002528349
0.00045961668
0.00014999284
0.00027125126
0.00063767138
4.1018875e-05
0.00026064531
0.00077183079
-0.00011213248
0.00024058536
0.00083715287
-0.00023161205
0.00082876935
-0.0002775464
0.00021745373
8.3143346e-06
1.0009034e-05
1.5320057e-05
3.8091965e-05
4.6565059e-05
5.8638471e-05
9.5171434e-05
0.00011938595
0.00011638425
0.00016184999
0.0002410442
0.00016203944
0.00021511895
0.00040635341
0.00014228792
0.00023419523
0.00058158112
3.9533691e-05
0.00022775273
0.00072016691
-0.000107278
0.00021293027
0.0007926724
-0.00022385153
0.00079261875
-0.00026979275
0.00019653491
6.7181611e-06
7.312928e-06
1.4213612e-05
3.0448988e-05
3.4809096e-05
5.4523374e-05
7.58103e-05
9.1596396e-05
0.00010860889
0.0001289086
0.00019144256
0.00015196936
0.0001754533
0.00033563331
0.00013471848
0.00019547784
0.00049943795
3.9030765e-05
0.00019461352
0.00063767153
-0.00010058739
0.00018702275
0.00071600938
-0.00021364377
0.00072483366
-0.00025921796
0.00017895636
5.1499361e-06
4.8737784e-06
1.295733e-05
2.3081794e-05
2.3824679e-05
4.9862413e-05
5.7234398e-05
6.4656254e-05
9.9818132e-05
9.8010544e-05
0.00014077478
0.00014062007
0.00013715301
0.00025911983
0.00012640813
0.00015797769
0.00040481612
3.8930578e-05
0.00016358053
0.00053759701
-9.2044492e-05
0.0001646818
0.00061942547
-0.00020034927
0.00063672813
-0.00024481524
0.00016606744
3.8392126e-06
2.7644044e-06
1.1568656e-05
1.6953882e-05
1.4166204e-05
4.4710026e-05
4.1775906e-05
4.0389532e-05
9.0084527e-05
7.2367516e-05
9.3363255e-05
0.0001280566
0.00010491492
0.00018398019
0.00011740973
0.00012643224
0.00030676397
3.9489269e-05
0.00013842951
0.00042928446
-8.0912152e-05
0.00014830372
0.00051205254
-0.00018270085
0.00053703603
-0.00022506889
0.00015890201
2.6670612e-06
1.1173842e-06
1.00548e-05
1.1577038e-05
6.4428398e-06
3.9098042e-05
2.8355875e-05
2.0413114e-05
7.9484423e-05
5.0210194e-05
5.2769546e-05
0.00011446507
7.6478757e-05
0.0001161229
0.00010804933
9.8439504e-05
0.00021282999
4.1447919e-05
0.00011657137
0.00031995381
-6.5776452e-05
0.00013507745
0.00039988807
-0.00015873887
0.00043124177
-0.00019799452
0.00015479864
1.7287752e-06
-8.5487353e-08
8.4707543e-06
7.3465522e-06
6.6097468e-07
3.3217604e-05
1.7864281e-05
5.0804903e-06
6.8369065e-05
3.274828e-05
2.0547402e-05
0.00010035869
5.3139479e-05
5.9284446e-05
9.8982593e-05
7.4601649e-05
0.0001288409
4.5790808e-05
9.7427171e-05
0.00021596039
-4.5131369e-05
0.00012297858
0.00028882162
-0.000126613
0.00032496776
-0.00016186989
0.00015015727
1.0761459e-06
6.9622919e-06
-9.5346531e-07
4.3116795e-06
2.7663508e-05
-3.4153022e-06
1.0191292e-05
5.8008075e-05
-5.7617714e-06
1.8784188e-05
8.7740201e-05
-2.974781e-06
3.2876676e-05
9.2591009e-05
1.5222689e-05
5.1550028e-05
5.4815428e-05
5.8612504e-05
7.6184108e-05
-1.6951165e-05
0.0001223257
0.00010587246
-8.4722353e-05
0.00018439014
-0.00011542264
0.00022545711
0.00013629818
1.1766534e-07
-1.3281599e-06
6.9250948e-06
1.2476941e-06
1.0802812e-06
-5.5895617e-06
2.6983026e-05
5.3074321e-06
3.3243704e-06
-1.3019165e-05
5.6284127e-05
1.2499012e-05
6.9780864e-06
-2.3601593e-05
8.4610906e-05
2.3077096e-05
8.1943919e-06
-3.5110753e-05
9.0999075e-05
3.5486114e-05
6.9344787e-06
-4.3326345e-05
5.3362613e-05
4.6038607e-05
5.1810409e-06
-4.4961993e-05
-2.1088534e-05
5.0852566e-05
5.8332487e-06
-4.1127272e-05
-9.3671199e-05
4.9424114e-05
-3.6562896e-05
-0.00012774643
4.3767126e-05
1.0952582e-05
1.1542068e-07
-1.4364421e-06
8.4636313e-06
1.1984667e-06
-5.9555137e-06
3.2500575e-05
3.6423513e-06
-1.3603942e-05
6.6510116e-05
7.5151567e-06
-2.3949383e-05
9.683392e-05
7.4450213e-06
-3.4177772e-05
9.8119869e-05
4.0120542e-06
-3.9743037e-05
4.5640508e-05
-1.4029744e-07
-3.810504e-05
-4.7835629e-05
-1.4099796e-06
-3.1907455e-05
-0.00013456338
-2.682952e-05
-0.00017453951
1.526225e-06
1.1482814e-07
-1.5645118e-06
1.0068019e-05
1.3651002e-06
-6.4044103e-06
3.8296621e-05
4.2379691e-06
-1.4378067e-05
7.7385576e-05
9.0175456e-06
-2.4550498e-05
0.00011028619
8.7162328e-06
-3.3374188e-05
0.00010754625
4.1038747e-06
-3.5977399e-05
4.2294612e-05
-1.8781062e-06
-3.0781233e-05
-6.7118782e-05
-5.29393e-06
-2.1871158e-05
-0.00016535926
-1.5382365e-05
-0.00021017541
-4.560544e-06
1.1701591e-07
-1.7002952e-06
1.1587435e-05
1.5675597e-06
-6.9099031e-06
4.3765016e-05
4.9819057e-06
-1.5321383e-05
8.7613541e-05
1.0966681e-05
-2.5433711e-05
0.00012295488
1.1017851e-05
-3.2865164e-05
0.00011684952
5.9439428e-06
-3.2395679e-05
4.0981542e-05
-1.358946e-06
-2.340983e-05
-8.0980632e-05
-6.6297821e-06
-1.1593044e-05
-0.00018770806
-3.543688e-06
-0.00023604774
-7.489523e-06
1.2085675e-07
-1.8275336e-06
1.2963738e-05
1.7953661e-06
-7.4287355e-06
4.8706765e-05
5.8332765e-06
-1.6371885e-05
9.6830509e-05
1.3238765e-05
-2.657352e-05
0.00013435365
1.414007e-05
-3.2800159e-05
0.00012544195
9.082989e-06
-2.9338182e-05
4.0929909e-05
8.3083053e-07
-1.6650773e-05
-9.0551384e-05
-6.027735e-06
-2.0444898e-06
-0.00020303886
7.4284473e-06
-0.00025354191
-8.2729901e-06
1.5358332e-07
-1.9486102e-06
1.4181109e-05
2.1378549e-06
-7.9485486e-06
5.3058834e-05
6.9570183e-06
-1.7486078e-05
0.00010490365
1.5969439e-05
-2.7888303e-05
0.00014427149
1.8026764e-05
-3.3112418e-05
0.00013297349
1.3260335e-05
-2.702495e-05
4.1484415e-05
4.2095933e-06
-1.1161124e-05
-9.7025843e-05
-4.1621807e-06
5.7153558e-06
-0.00021303146
1.6194838e-05
-0.00026443308
-7.713121e-06
2.0380588e-07
-2.0345832e-06
1.5202315e-05
2.5415403e-06
-8.3417326e-06
5.6693895e-05
8.2149834e-06
-1.8393559e-05
0.00011161767
1.8890747e-05
-2.9000648e-05
0.00015247581
2.2323553e-05
-3.3472095e-05
0.00013921497
1.8011454e-05
-2.5480713e-05
4.2301881e-05
8.2141858e-06
-7.4916943e-06
-0.00010114955
-1.6494586e-06
1.0691484e-05
-0.00021896359
2.1559894e-05
-0.00027031923
-6.4874975e-06
2.825857e-07
-2.0481529e-06
1.6049641e-05
3.0592638e-06
-8.4300364e-06
5.9717002e-05
9.6740985e-06
-1.8621174e-05
0.00011722011
2.2065182e-05
-2.9176022e-05
0.00015941862
2.6955429e-05
-3.3058669e-05
0.00014468984
2.3039312e-05
-2.4188307e-05
4.3642944e-05
1.2420144e-05
-5.7139616e-06
-0.00010329037
1.0478716e-06
1.2364594e-05
-0.00022191239
2.2853899e-05
-0.00027272238
-5.0696139e-06
3.6946421e-07
-1.9078061e-06
1.6739752e-05
3.6292703e-06
-7.8779822e-06
6.2201094e-05
1.1332766e-05
-1.7443336e-05
0.00012188139
2.5526958e-05
-2.7328609e-05
0.00016533505
3.1762144e-05
-3.0622101e-05
0.0001496344
2.8030721e-05
-2.2046254e-05
4.5544849e-05
1.6461131e-05
-5.1132695e-06
-0.00010383384
3.649996e-06
1.1038318e-05
-0.00022275688
2.0253064e-05
-0.0002728755
-3.6841125e-06
4.5709073e-07
-1.5297816e-06
1.7274489e-05
4.2123182e-06
-6.3333729e-06
6.4148459e-05
1.3101313e-05
-1.4062423e-05
0.0001255874
2.9182549e-05
-2.2091872e-05
0.00017014987
3.6530281e-05
-2.4671929e-05
0.00015387055
3.2752217e-05
-1.7740468e-05
4.7669816e-05
2.0165723e-05
-4.5198719e-06
-0.00010335314
5.9905093e-06
7.814839e-06
-0.00022233125
1.4743673e-05
-0.00027182004
-2.4094994e-06
5.3325984e-07
-8.7141349e-07
1.7635664e-05
4.7170678e-06
-3.6075009e-06
6.5458084e-05
1.4672548e-05
-8.0146334e-06
0.00012807856
3.2471033e-05
-1.2606828e-05
0.00017341219
4.0820628e-05
-1.4042823e-05
0.00015680198
3.6633098e-05
-1.006206e-05
4.9348947e-05
2.3081971e-05
-2.6959233e-06
-0.00010255418
7.8967784e-06
4.0326844e-06
-0.00022140103
7.6800191e-06
-0.00027039848
-1.1628703e-06
5.612222e-07
-3.762852e-11
1.7825101e-05
4.9581407e-06
-8.1511179e-11
6.6168886e-05
1.5517164e-05
-1.035445e-10
0.0001294799
3.4386087e-05
-1.8544657e-11
0.00017532909
4.3432824e-05
3.5559101e-10
0.00015863113
3.8908715e-05
8.6546412e-10
5.0545935e-05
2.4773144e-05
1.1272952e-09
-0.00010184977
9.0956789e-06
8.0986209e-10
-0.00022069006
2.7918114e-11
-0.00026948419
-4.1200815e-07
5.6123857e-07
8.7133273e-07
1.7825098e-05
4.9581803e-06
3.6073237e-06
6.6168876e-05
1.5517196e-05
8.0144267e-06
0.00012947988
3.4386167e-05
1.2606859e-05
0.00017532907
4.3432868e-05
1.4043705e-05
0.0001586311
3.8908679e-05
1.0064039e-05
5.0545919e-05
2.4772981e-05
2.698426e-06
-0.00010184978
9.0954222e-06
-4.0309248e-06
-0.00022069007
-7.6799193e-06
-0.0002694842
-4.1224184e-07
5.3335206e-07
1.5296936e-06
1.7635663e-05
4.7171962e-06
6.3331714e-06
6.5458081e-05
1.4672609e-05
1.4062233e-05
0.00012807855
3.2471236e-05
2.2092102e-05
0.00017341217
4.082066e-05
2.467323e-05
0.00015680195
3.6632862e-05
1.7742984e-05
4.934891e-05
2.3081361e-05
4.522872e-06
-0.00010255422
7.8959598e-06
-7.812821e-06
-0.00022140107
-1.4743534e-05
-0.00027039851
-1.1635594e-06
4.5729276e-07
1.9077346e-06
1.7274485e-05
4.2125965e-06
7.877814e-06
6.4148441e-05
1.3101528e-05
1.7443236e-05
0.00012558736
2.918297e-05
2.7329079e-05
0.00017014982
3.6530299e-05
3.0623759e-05
0.00015387048
3.2751781e-05
2.2049191e-05
4.7669749e-05
2.0164669e-05
5.1166707e-06
-0.00010335319
5.9892053e-06
-1.1036072e-05
-0.00022233129
-2.02529e-05
-0.00027182007
-2.4105785e-06
3.696603e-07
2.0481161e-06
1.6739749e-05
3.6295611e-06
8.4299585e-06
6.2201081e-05
1.1333095e-05
1.8621183e-05
0.00012188136
2.5527446e-05
2.9176573e-05
0.000165335
3.1761996e-05
3.3060395e-05
0.00014963432
2.8030042e-05
2.4191442e-05
4.5544766e-05
1.6459746e-05
5.7175947e-06
-0.00010383392
3.6483783e-06
-1.2362117e-05
-0.00022275694
-2.2853712e-05
-0.00027287555
-3.6854903e-06
2.8263135e-07
2.0345328e-06
1.6049639e-05
3.0592656e-06
8.3416275e-06
5.9716993e-05
9.6742977e-06
1.8393493e-05
0.00011722009
2.2065472e-05
2.9001079e-05
0.00015941857
2.6955105e-05
3.3473823e-05
0.00014468976
2.3038481e-05
2.5484139e-05
4.3642846e-05
1.2418617e-05
7.4956559e-06
-0.00010329047
1.0461924e-06
-1.068882e-05
-0.00022191248
-2.1559893e-05
-0.00027272244
-5.0711431e-06
2.0370868e-07
1.9485747e-06
1.5202313e-05
2.541351e-06
7.9485246e-06
5.6693889e-05
8.2151687e-06
1.7486166e-05
0.00011161765
1.8890939e-05
2.7888883e-05
0.00015247577
2.232331e-05
3.3114413e-05
0.00013921489
1.8010645e-05
2.7028762e-05
4.2301766e-05
8.2127901e-06
1.1165351e-05
-0.00010114968
-1.651015e-06
-5.7127556e-06
-0.00021896369
-1.6195455e-05
-0.00027031928
-6.4889963e-06
1.535658e-07
1.8274866e-06
1.4181109e-05
2.1378451e-06
7.4287148e-06
5.3058834e-05
6.9571611e-06
1.6372011e-05
0.00010490365
1.5969693e-05
2.6574235e-05
0.00014427146
1.8026694e-05
3.2802486e-05
0.00013297341
1.3259692e-05
2.934222e-05
4.1484278e-05
4.2084628e-06
1.6655107e-05
-9.7026006e-05
-4.1635443e-06
2.046792e-06
-0.00021303158
-7.4298059e-06
-0.00026443313
-7.7143517e-06
1.2080992e-07
1.7002576e-06
1.2963733e-05
1.7952418e-06
6.9099154e-06
4.8706748e-05
5.8331953e-06
1.5321666e-05
9.683047e-05
1.3239053e-05
2.5434779e-05
0.00013435357
1.4139879e-05
3.2867749e-05
0.00012544181
9.082596e-06
3.2400035e-05
4.0929736e-05
8.3007589e-07
2.3414323e-05
-9.0551559e-05
-6.0287399e-06
1.159501e-05
-0.00020303897
3.5417265e-06
-0.00025354194
-8.2736038e-06
1.1702685e-07
1.5644704e-06
1.1587429e-05
1.5675807e-06
6.4044265e-06
4.3764991e-05
4.9818896e-06
1.4378393e-05
8.7613485e-05
1.0966765e-05
2.4551603e-05
0.00012295478
1.1017855e-05
3.3376783e-05
0.00011684936
5.9438323e-06
3.5981752e-05
4.0981345e-05
-1.3592326e-06
3.0785725e-05
-8.0980814e-05
-6.6302969e-06
2.1873225e-05
-0.00018770816
1.5380182e-05
-0.00023604777
-7.4895462e-06
1.1482714e-07
1.4364406e-06
1.0068012e-05
1.3650201e-06
5.9556514e-06
3.8296594e-05
4.2376719e-06
1.360447e-05
7.7385516e-05
9.0171888e-06
2.3950774e-05
0.00011028608
8.7162062e-06
3.4180691e-05
0.00010754609
4.1036656e-06
3.9747487e-05
4.2294418e-05
-1.8782382e-06
3.8109664e-05
-6.7118951e-05
-5.294126e-06
3.1909367e-05
-0.00016535936
2.6827098e-05
-0.00021017545
-4.5608467e-06
1.1538843e-07
1.3281782e-06
8.4636274e-06
1.198315e-06
5.589741e-06
3.250056e-05
3.6419404e-06
1.3019736e-05
6.6510082e-05
7.5146008e-06
2.3602979e-05
9.6833851e-05
7.4445778e-06
3.5113592e-05
9.8119761e-05
4.0115904e-06
4.3330635e-05
4.5640364e-05
-1.4091415e-07
4.4966211e-05
-4.7835772e-05
-1.4101716e-06
4.1129703e-05
-0.00013456349
3.6560943e-05
-0.00017453956
1.5257354e-06
1.1763413e-07
6.9250934e-06
1.2477199e-06
1.0801736e-06
2.6983021e-05
5.3076126e-06
3.3241901e-06
5.6284117e-05
1.2499567e-05
6.9780404e-06
8.4610886e-05
2.3078454e-05
8.1942699e-06
9.0999041e-05
3.5488906e-05
6.9341398e-06
5.3362564e-05
4.6043079e-05
5.1806234e-06
-2.1088589e-05
5.0857523e-05
5.8318061e-06
-9.3671247e-05
4.9426786e-05
-0.00012774644
4.3765575e-05
1.0951121e-05
-1.9371531e-08
-3.0606492e-07
7.1097775e-06
1.4075357e-07
-3.560699e-07
-1.4193412e-06
2.8043789e-05
6.9526855e-07
-1.1750986e-06
-3.7083125e-06
5.8893394e-05
1.9180458e-06
-2.4314123e-06
-7.8155938e-06
8.941647e-05
4.2662725e-06
-2.3581933e-06
-1.431011e-05
9.6996369e-05
8.2394524e-06
-6.043721e-07
-2.2923397e-05
6.063456e-05
1.3897416e-05
2.7508455e-06
-3.2201532e-05
-1.2685502e-05
2.0443075e-05
6.9475632e-06
-3.9717077e-05
-8.4509954e-05
2.6358966e-05
-4.2955123e-05
-0.00011887402
3.021664e-05
1.0813493e-05
-1.8590495e-08
-4.6693959e-07
8.6430945e-06
-4.0563304e-07
-2.1444423e-06
3.3612698e-05
-1.3223142e-06
-5.5255508e-06
6.9243976e-05
-2.9262352e-06
-1.1413202e-05
0.00010203531
-2.615554e-06
-2.028483e-05
0.00010378368
-4.6574253e-07
-3.1493049e-05
5.2060073e-05
3.2049418e-06
-4.2994697e-05
-4.0713411e-05
7.4586372e-06
-5.1731011e-05
-0.00012680345
-5.4724162e-05
-0.00016665497
1.1342968e-05
-1.0195157e-08
-6.171079e-07