/*--------------------------------*- C++ -*----------------------------------*\
| =========                 |                                                 |
| \\      /  F ield         | OpenFOAM: The Open Source CFD Toolbox           |
|  \\    /   O peration     | Version:  2406                                  |
|   \\  /    A nd           | Website:  www.openfoam.com                      |
|    \\/     M anipulation  |                                                 |
\*---------------------------------------------------------------------------*/
FoamFile
{
    version     2.0;
    format      ascii;
    arch        "LSB;label=32;scalar=64";
    class       volVectorField;
    location    "5";
    object      U;
}
// * * * * * * * * * * * * * * * * * * * * * * * * * * * * * * * * * * * * * //

dimensions      [0 1 -1 0 0 0 0];

internalField   nonuniform List<vector> 
34560
(
(0.018079938 -0.002570193 0.00073697914)
(0.040088235 -0.00639835 0.0066899653)
(0.033639612 -0.0092410795 0.022425194)
(-0.028627846 -0.010862778 0.052397001)
(-0.1667529 -0.011643508 0.094722435)
(-0.36638963 -0.013818769 0.1388473)
(-0.58014675 -0.01643687 0.17134473)
(-0.76205062 -0.015182183 0.18565223)
(-0.88886991 -0.0087602684 0.18440004)
(0.020938364 -0.0019889701 0.0019803876)
(0.044416492 -0.0036035366 0.011274199)
(0.031142662 -0.0027249755 0.032254396)
(-0.050782373 0.00048538421 0.068927875)
(-0.21778386 0.0038572783 0.11645506)
(-0.44124593 0.0036710357 0.1608883)
(-0.66234112 0.0017917586 0.18881893)
(-0.8363755 0.004171972 0.19675743)
(-0.95091291 0.012124413 0.18949029)
(0.025439878 -0.0022686865 0.0024567458)
(0.054119475 -0.0032813905 0.013495281)
(0.038278284 -6.7294847e-05 0.037944718)
(-0.059260243 0.0073893595 0.079509106)
(-0.2509483 0.015026965 0.13073694)
(-0.49292974 0.017379347 0.17512219)
(-0.7167806 0.017236492 0.20000883)
(-0.8822078 0.021779811 0.20449162)
(-0.98608925 0.032397525 0.1950148)
(0.03147571 -0.0025161125 0.0029639372)
(0.069116264 -0.0031466953 0.015482183)
(0.055443924 0.0018316167 0.042681618)
(-0.052748506 0.012709447 0.087698803)
(-0.2638758 0.024205479 0.14114123)
(-0.52005711 0.029322364 0.18491973)
(-0.7449344 0.031504942 0.20795608)
(-0.90286715 0.038439684 0.21123761)
(-0.99771834 0.051433779 0.20147667)
(0.039415911 -0.0032675966 0.0031434)
(0.090755311 -0.0045906944 0.016303319)
(0.085267274 0.0010935521 0.045062104)
(-0.02780287 0.014745338 0.092370731)
(-0.25391681 0.029640956 0.14695568)
(-0.5214358 0.038158385 0.19100402)
(-0.7476207 0.043675212 0.21434942)
(-0.89995769 0.053993232 0.21893254)
(-0.98614054 0.069592435 0.21090668)
(0.049692839 -0.0047228899 0.0030603093)
(0.12055373 -0.0082720012 0.016245866)
(0.1306416 -0.0035146095 0.045651508)
(0.019478143 0.011940508 0.094513643)
(-0.21859094 0.030958439 0.15106889)
(-0.49673385 0.044219791 0.19690571)
(-0.72343556 0.054236628 0.22271388)
(-0.86905204 0.067859982 0.23029173)
(-0.94632264 0.084979481 0.22496455)
(0.062903647 -0.0068519919 0.0028947207)
(0.16074188 -0.014174364 0.015940245)
(0.19584186 -0.012123095 0.045843716)
(0.095667109 0.0037390857 0.096564239)
(-0.14971434 0.026732787 0.15635275)
(-0.43670368 0.045773243 0.20597671)
(-0.66342378 0.06122095 0.23643912)
(-0.80225982 0.078339597 0.24850512)
(-0.87063789 0.096735118 0.24665317)
(0.079657208 -0.0095688306 0.002852691)
(0.21349221 -0.022057366 0.016065357)
(0.28503341 -0.024288656 0.047415727)
(0.20714259 -0.009355876 0.10211041)
(-0.039546191 0.017418302 0.16816349)
(-0.3327812 0.042716131 0.22423151)
(-0.55800658 0.063850226 0.26131729)
(-0.68903021 0.084053598 0.27864293)
(-0.74799512 0.10300651 0.27996094)
(0.099793949 -0.012187196 0.0032600009)
(0.27842787 -0.029941727 0.017781115)
(0.39719659 -0.036829633 0.053431061)
(0.35446114 -0.024065477 0.11562331)
(0.11491263 0.005105703 0.19254088)
(-0.17910338 0.035215182 0.25822053)
(-0.3985302 0.060794777 0.3032104)
(-0.51901395 0.082648914 0.32551848)
(-0.56771091 0.10103912 0.3284922)
(0.12152812 -0.013232511 0.0043805883)
(0.34962138 -0.03355849 0.021890724)
(0.52316041 -0.043373966 0.065889529)
(0.52472958 -0.03380996 0.13932607)
(0.30381032 -0.006130479 0.23174505)
(0.017813799 0.024707929 0.31059088)
(-0.18836001 0.051104998 0.36353303)
(-0.29444708 0.071781008 0.3894318)
(-0.33249696 0.087729864 0.39186837)
(0.14113951 -0.010773882 0.0059965061)
(0.41430272 -0.027686343 0.028023508)
(0.63938079 -0.036672812 0.08182389)
(0.68444382 -0.030841575 0.16902874)
(0.48929088 -0.010218204 0.27915358)
(0.22218803 0.014008065 0.37187538)
(0.036126679 0.03457786 0.43144079)
(-0.053527261 0.049979247 0.45867162)
(-0.082418522 0.060495362 0.4594009)
(0.15304841 -0.0041726392 0.0072510211)
(0.45398581 -0.010773252 0.032701748)
(0.71158344 -0.014412816 0.093610217)
(0.78456894 -0.012430891 0.19084678)
(0.60918526 -0.0046865468 0.31316414)
(0.35928706 0.0046554905 0.41518136)
(0.18916292 0.012525918 0.47897822)
(0.11101205 0.0183449 0.50594879)
(0.086590226 0.021945583 0.50515523)
(0.15304837 0.0041724391 0.0072509902)
(0.45398569 0.010772638 0.032701724)
(0.71158317 0.014411701 0.093610225)
(0.78456855 0.012429356 0.19084683)
(0.60918481 0.00468488 0.31316414)
(0.35928665 -0.0046570451 0.41518135)
(0.18916255 -0.012527283 0.47897825)
(0.11101166 -0.018346203 0.50594883)
(0.086589772 -0.021946981 0.50515525)
(0.14113941 0.010773624 0.0059964447)
(0.41430237 0.027685616 0.028023495)
(0.63938008 0.036671607 0.081823958)
(0.68444287 0.030840054 0.16902889)
(0.48928974 0.010216658 0.2791536)
(0.22218698 -0.014009464 0.37187541)
(0.036125732 -0.034579098 0.43144089)
(-0.053528226 -0.049980487 0.45867179)
(-0.082419625 -0.060496728 0.45940104)
(0.12152801 0.013232248 0.0043805716)
(0.34962097 0.033557766 0.021890774)
(0.52315957 0.043372841 0.065889638)
(0.52472846 0.03380864 0.1393263)
(0.30380889 0.0061291509 0.23174518)
(0.017812457 -0.024709124 0.31059105)
(-0.18836121 -0.05110608 0.36353324)
(-0.29444829 -0.071782168 0.38943211)
(-0.33249831 -0.087731137 0.39186874)
(0.099793853 0.012187044 0.0032600344)
(0.2784275 0.029941242 0.017781237)
(0.39719579 0.036828782 0.053431278)
(0.35445999 0.024064396 0.11562372)
(0.11491122 -0.0051068434 0.19254126)
(-0.17910468 -0.03521617 0.25822094)
(-0.39853134 -0.060795687 0.30321075)
(-0.51901514 -0.082649959 0.3255189)
(-0.56771227 -0.10104027 0.32849279)
(0.079657103 0.0095687552 0.0028527697)
(0.21349183 0.022057044 0.016065676)
(0.28503267 0.024287935 0.047416258)
(0.20714153 0.009354908 0.10211104)
(-0.039547419 -0.017419239 0.16816403)
(-0.33278238 -0.042716847 0.224232)
(-0.55800756 -0.063850917 0.2613177)
(-0.68903131 -0.084054502 0.27864341)
(-0.74799638 -0.10300764 0.2799616)
(0.06290356 0.0068519123 0.0028948793)
(0.16074159 0.014174092 0.015940671)
(0.1958413 0.01212251 0.045844169)
(0.095666242 -0.0037398493 0.096564548)
(-0.1497154 -0.026733408 0.15635306)
(-0.43670473 -0.045773671 0.20597708)
(-0.66342463 -0.061221428 0.23643954)
(-0.8022608 -0.078340364 0.24850563)
(-0.87063887 -0.09673636 0.24665385)
(0.049692766 0.0047228375 0.003060302)
(0.12055349 0.0082718495 0.016245799)
(0.13064114 0.0035143069 0.045651427)
(0.019477456 -0.011940917 0.094513642)
(-0.21859175 -0.030958722 0.15106903)
(-0.49673468 -0.044220021 0.19690601)
(-0.72343631 -0.054236942 0.22271426)
(-0.86905288 -0.067860649 0.23029226)
(-0.94632334 -0.084980868 0.22496531)
(0.039415845 0.0032675567 0.0031434396)
(0.090755098 0.004590628 0.016303473)
(0.085266894 -0.0010937119 0.04506233)
(-0.027803408 -0.014745636 0.092370879)
(-0.25391745 -0.029641218 0.14695577)
(-0.52143655 -0.038158512 0.19100421)
(-0.74762137 -0.043675461 0.21434966)
(-0.89995833 -0.053993945 0.21893311)
(-0.98614115 -0.06959387 0.21090742)
(0.031475654 0.0025160356 0.0029639774)
(0.069116086 0.0031465405 0.015482278)
(0.0554436 -0.0018318358 0.042681677)
(-0.052748988 -0.012709723 0.087698785)
(-0.26387645 -0.024205788 0.14114114)
(-0.52005777 -0.029322532 0.18491967)
(-0.74493508 -0.031505185 0.20795633)
(-0.9028677 -0.038440521 0.21123822)
(-0.99771894 -0.051435134 0.20147708)
(0.02543983 0.002268687 0.0024567453)
(0.054119324 0.0032814196 0.013495285)
(0.038278005 6.7364876e-05 0.037944738)
(-0.059260633 -0.007389268 0.079509143)
(-0.25094875 -0.015027017 0.13073683)
(-0.49293023 -0.017379637 0.17512207)
(-0.71678113 -0.01723692 0.20000914)
(-0.88220841 -0.021780517 0.204492)
(-0.98609002 -0.032399054 0.19501543)
(0.020938313 0.0019889653 0.0019804083)
(0.044416335 0.0036035631 0.011274301)
(0.031142385 0.0027249965 0.03225454)
(-0.050782748 -0.00048532193 0.068928059)
(-0.21778429 -0.0038572968 0.11645519)
(-0.44124644 -0.0036714041 0.16088849)
(-0.66234155 -0.0017925303 0.18881915)
(-0.83637603 -0.0041727402 0.19675801)
(-0.95091361 -0.012125788 0.18949136)
(0.018079891 0.0025701799 0.00073700855)
(0.040088093 0.0063983489 0.0066900465)
(0.033639365 0.0092411053 0.022425348)
(-0.028628181 0.010862864 0.052397241)
(-0.16675329 0.01164365 0.094722736)
(-0.36638998 0.013818821 0.13884748)
(-0.58014712 0.016436485 0.17134474)
(-0.76205092 0.015181282 0.18565296)
(-0.8888702 0.0087595159 0.18440133)
(0.054772849 0.00047099859 0.00031463182)
(0.15992955 0.0011279824 0.00053581917)
(0.26051938 0.0013018596 -0.0003156316)
(0.32951359 -0.00020275786 -0.0030266787)
(0.33560974 -0.0047770987 -0.0084474281)
(0.26282539 -0.013176017 -0.016201399)
(0.12892164 -0.024581917 -0.024040464)
(-0.020632711 -0.036668832 -0.02983334)
(-0.14002319 -0.048421465 -0.032828577)
(0.061571461 -0.00022750582 -0.00035446695)
(0.17716439 -0.0012167473 -0.001697911)
(0.28326153 -0.0031513801 -0.0046902809)
(0.34886382 -0.007276016 -0.0099870352)
(0.34125103 -0.01487728 -0.018001427)
(0.24907606 -0.026218871 -0.027477868)
(0.099011138 -0.039739168 -0.035482533)
(-0.057212318 -0.052676459 -0.040177536)
(-0.17704448 -0.063742206 -0.042225247)
(0.068546768 -0.0010668022 -0.00099053021)
(0.19523158 -0.0040292518 -0.0038888764)
(0.3080721 -0.0084316628 -0.009086034)
(0.37249292 -0.01538372 -0.016955074)
(0.35456019 -0.025763695 -0.027169786)
(0.24754471 -0.039105739 -0.037600845)
(0.08600343 -0.053361348 -0.044977521)
(-0.074179389 -0.066016458 -0.048390268)
(-0.19368134 -0.076331351 -0.049141145)
(0.075015679 -0.0022210865 -0.0016788397)
(0.21199283 -0.0077694442 -0.0062378868)
(0.33120086 -0.015210077 -0.013793423)
(0.39509985 -0.025302635 -0.024384841)
(0.36881591 -0.038227807 -0.036667599)
(0.25000828 -0.052804357 -0.047630885)
(0.080050431 -0.066883652 -0.053977366)
(-0.082430112 -0.078714199 -0.055919487)
(-0.2014622 -0.088344278 -0.055451219)
(0.080800665 -0.0036053398 -0.002316766)
(0.22700262 -0.012196722 -0.0084378837)
(0.35195951 -0.023088481 -0.018280249)
(0.41560315 -0.036469309 -0.031542801)
(0.38217636 -0.051597566 -0.045722644)
(0.25333801 -0.066722173 -0.056963709)
(0.076510207 -0.079985975 -0.062184643)
(-0.087551658 -0.090664099 -0.062743024)
(-0.205989 -0.099425132 -0.0611697)
(0.085974345 -0.0051948292 -0.0028207225)
(0.24041525 -0.017178014 -0.010215009)
(0.37046671 -0.031730886 -0.022080828)
(0.43379355 -0.04824389 -0.037739288)
(0.39409841 -0.064993119 -0.053621037)
(0.25610246 -0.079939808 -0.064922907)
(0.072829782 -0.091862609 -0.069062222)
(-0.092871213 -0.10110739 -0.068475056)
(-0.21072658 -0.10879542 -0.066051131)
(0.090607623 -0.0068964347 -0.0031551055)
(0.25249004 -0.022342601 -0.011418174)
(0.38716815 -0.040381081 -0.024834518)
(0.45012245 -0.059427383 -0.042379545)
(0.40495196 -0.076956031 -0.059708436)
(0.25810328 -0.091012766 -0.070805309)
(0.068122678 -0.10124279 -0.07403085)
(-0.099758307 -0.10889987 -0.072660641)
(-0.21724607 -0.11531723 -0.069712445)
(0.094961069 -0.0083900418 -0.0031975516)
(0.26411421 -0.026704715 -0.011663481)
(0.40364265 -0.047330558 -0.025842939)
(0.46662983 -0.067693678 -0.04467378)
(0.41655489 -0.084944808 -0.063066767)
(0.26063496 -0.097396459 -0.073670187)
(0.06317457 -0.10589402 -0.076305858)
(-0.1077432 -0.11200834 -0.074653902)
(-0.22521465 -0.1170308 -0.071590449)
(0.099307384 -0.0092357673 -0.0028866762)
(0.27621983 -0.028934639 -0.010764475)
(0.42169358 -0.050392969 -0.024754305)
(0.48522082 -0.070291808 -0.04389004)
(0.43006292 -0.086115263 -0.062905306)
(0.26515879 -0.096354634 -0.073026915)
(0.059770566 -0.10308284 -0.075264801)
(-0.11490929 -0.10778716 -0.073876301)
(-0.23286302 -0.11140849 -0.071173166)
(0.10363507 -0.0088348732 -0.0022123109)
(0.2888037 -0.027296014 -0.0086616768)
(0.44153125 -0.046830188 -0.02131766)
(0.50697062 -0.063895157 -0.039417944)
(0.4455021 -0.076382934 -0.058034425)
(0.27234362 -0.084004428 -0.068683589)
(0.059116721 -0.089208533 -0.070732752)
(-0.11951474 -0.092643478 -0.070155893)
(-0.23821673 -0.094892697 -0.068275525)
(0.10756426 -0.0066158037 -0.0013714277)
(0.3005221 -0.020185489 -0.0059868414)
(0.46077683 -0.034200515 -0.016612871)
(0.52932741 -0.045770896 -0.032772783)
(0.46270185 -0.053666702 -0.050680686)
(0.28156291 -0.058436121 -0.062370782)
(0.061647727 -0.061731507 -0.064250057)
(-0.12034054 -0.063850884 -0.064688343)
(-0.23980731 -0.064990541 -0.063836443)
(0.11000118 -0.0024793131 -0.00079193971)
(0.30805889 -0.0075104219 -0.0041141947)
(0.47366643 -0.012621732 -0.013169305)
(0.54507823 -0.016711671 -0.027762952)
(0.47571784 -0.019393773 -0.044854545)
(0.28900904 -0.021048965 -0.057152381)
(0.065002329 -0.022167022 -0.05935595)
(-0.11904087 -0.022880524 -0.060455746)
(-0.23906387 -0.023210051 -0.060323812)
(0.11000118 0.002479322 -0.00079194551)
(0.30805888 0.0075105067 -0.0041141994)
(0.47366639 0.012621906 -0.013169319)
(0.54507818 0.016711971 -0.027762966)
(0.47571779 0.019394325 -0.044854567)
(0.28900901 0.021049775 -0.057152403)
(0.065002313 0.022167952 -0.05935596)
(-0.11904091 0.022881385 -0.060455737)
(-0.23906393 0.023210709 -0.060323792)
(0.10756425 0.0066157819 -0.0013714527)
(0.30052205 0.020185516 -0.0059868737)
(0.46077674 0.034200646 -0.016612913)
(0.5293273 0.045771203 -0.032772817)
(0.46270174 0.053667309 -0.050680754)
(0.28156285 0.058436992 -0.06237083)
(0.061647671 0.061732481 -0.064250073)
(-0.12034064 0.063851754 -0.064688307)
(-0.23980745 0.064991191 -0.063836367)
(0.10363506 0.0088348343 -0.0022123479)
(0.28880366 0.027295996 -0.0086617494)
(0.44153115 0.046830285 -0.021317752)
(0.50697055 0.063895489 -0.039418015)
(0.44550198 0.076383587 -0.05803453)
(0.27234352 0.084005323 -0.068683635)
(0.05911662 0.089209505 -0.070732744)
(-0.11951488 0.09264432 -0.070155827)
(-0.23821691 0.094893321 -0.068275395)
(0.099307385 0.0092357719 -0.0028866985)
(0.27621981 0.028934689 -0.010764528)
(0.42169352 0.050393106 -0.024754376)
(0.48522077 0.070292159 -0.043890085)
(0.43006279 0.086115892 -0.06290538)
(0.26515865 0.096355499 -0.073026927)
(0.059770424 0.10308377 -0.075264771)
(-0.11490945 0.10778797 -0.073876244)
(-0.23286323 0.11140908 -0.071173043)
(0.094961053 0.0083900765 -0.0031975343)
(0.26411415 0.026704818 -0.011663389)
(0.40364254 0.047330699 -0.025842827)
(0.46662972 0.067693984 -0.044673718)
(0.41655473 0.084945383 -0.0630668)
(0.26063481 0.097397307 -0.073670206)
(0.063174406 0.10589493 -0.076305865)
(-0.10774338 0.11200912 -0.074653917)
(-0.2252149 0.1170313 -0.071590391)
(0.090607602 0.0068964454 -0.0031550462)
(0.25248999 0.022342671 -0.01141801)
(0.38716806 0.04038119 -0.024834403)
(0.45012234 0.059427644 -0.042379599)
(0.40495181 0.076956592 -0.059708582)
(0.25810313 0.091013636 -0.070805445)
(0.068122498 0.10124372 -0.074030949)
(-0.099758515 0.10890063 -0.072660731)
(-0.21724631 0.11531752 -0.069712399)
(0.085974316 0.005194838 -0.002820731)
(0.24041517 0.0171781 -0.010215046)
(0.37046657 0.031731046 -0.022080939)
(0.4337934 0.048244196 -0.037739499)
(0.39409821 0.064993715 -0.053621308)
(0.25610226 0.079940676 -0.064923164)
(0.072829555 0.091863526 -0.069062417)
(-0.092871465 0.10110804 -0.068475155)
(-0.21072681 0.10879545 -0.066051017)
(0.080800623 0.0036053414 -0.0023167493)
(0.2270025 0.012196807 -0.0084378517)
(0.35195932 0.023088671 -0.018280266)
(0.41560291 0.036469635 -0.031542977)
(0.38217607 0.051598139 -0.045722965)
(0.25333775 0.066723026 -0.056964049)
(0.076509898 0.079986804 -0.062184899)
(-0.087551965 0.09066455 -0.062743064)
(-0.20598923 0.099425012 -0.061169633)
(0.075015637 0.0022210551 -0.0016788321)
(0.2119927 0.0077694581 -0.0062378976)
(0.33120064 0.015210189 -0.013793527)
(0.39509954 0.025302916 -0.024385049)
(0.36881558 0.038228304 -0.036667962)
(0.25000789 0.052805119 -0.047631292)
(0.080050027 0.066884377 -0.053977608)
(-0.082430477 0.078714472 -0.055919586)
(-0.20146246 0.088344167 -0.055451522)
(0.068546724 0.0010668045 -0.00099052673)
(0.19523145 0.0040293481 -0.0038888811)
(0.30807187 0.0084319006 -0.0090860851)
(0.37249256 0.015384152 -0.016955203)
(0.35455976 0.025764265 -0.027170153)
(0.24754422 0.039106388 -0.03760133)
(0.086002917 0.053361961 -0.044977869)
(-0.074179842 0.066016767 -0.048390825)
(-0.19368168 0.076331055 -0.049141611)
(0.061571407 0.00022752128 -0.00035446559)
(0.17716423 0.0012168652 -0.0016979146)
(0.28326124 0.0031516253 -0.0046903521)
(0.34886339 0.0072764738 -0.00998719)
(0.3412505 0.014877889 -0.018001777)
(0.24907551 0.02621941 -0.027478372)
(0.099010595 0.03973951 -0.0354832)
(-0.057212782 0.052676487 -0.040178155)
(-0.17704481 0.063741493 -0.04222539)
(0.0547728 -0.00047097425 0.0003146193)
(0.15992941 -0.0011278576 0.00053575927)
(0.26051913 -0.0013016122 -0.00031576676)
(0.32951325 0.00020316016 -0.0030269093)
(0.33560931 0.0047776482 -0.0084478144)
(0.26282491 0.013176562 -0.016202056)
(0.12892124 0.024582256 -0.02404136)
(-0.020633064 0.036668691 -0.029833946)
(-0.1400234 0.048420997 -0.032828584)
(0.033667044 -0.00084231721 -0.00076949063)
(0.09474376 -0.0025473095 -0.0023388048)
(0.14564898 -0.0043599075 -0.0040643886)
(0.16478273 -0.0060570005 -0.0057130888)
(0.12928421 -0.0074827797 -0.0067343522)
(0.02868623 -0.0086266855 -0.0065190208)
(-0.11982791 -0.0093350191 -0.0051981268)
(-0.27626504 -0.0095057011 -0.0037148187)
(-0.39932025 -0.0094214425 -0.003049253)
(0.03738364 -0.00089387782 -0.00072057381)
(0.10325135 -0.0026395117 -0.0021716923)
(0.15450913 -0.0043835047 -0.0037520892)
(0.16668158 -0.005829406 -0.0052135137)
(0.11661234 -0.0068041379 -0.0059228008)
(-0.0019894173 -0.0073678362 -0.0052369134)
(-0.16417107 -0.0074667766 -0.0035093586)
(-0.32463017 -0.0071822864 -0.0018388039)
(-0.44594829 -0.0068657159 -0.0013484548)
(0.041342245 -0.00094835007 -0.00066238976)
(0.11288397 -0.0027537918 -0.0019938798)
(0.16611609 -0.0044617084 -0.0034640256)
(0.17399121 -0.0056816961 -0.0048486989)
(0.11332569 -0.0062164743 -0.0054460748)
(-0.018115229 -0.0062103829 -0.0045167457)
(-0.18877974 -0.0057528469 -0.0025376125)
(-0.35031366 -0.0050897493 -0.00066334635)
(-0.46891794 -0.0045398934 1.0164757e-05)
(0.044996593 -0.0010206298 -0.00061682052)
(0.12189697 -0.0029287606 -0.001862817)
(0.17735063 -0.0046548985 -0.0032748834)
(0.18219591 -0.0056895962 -0.0046575956)
(0.11356314 -0.005791778 -0.0052481038)
(-0.026981801 -0.0051884718 -0.0041927161)
(-0.20247613 -0.0041485816 -0.0020418317)
(-0.36294943 -0.0030875629 5.0367167e-05)
(-0.47830213 -0.0022811991 0.0009681046)
(0.048250251 -0.001093912 -0.00057105489)
(0.13002189 -0.0031280244 -0.0017449492)
(0.18773417 -0.0049208607 -0.0031351727)
(0.19045097 -0.0058226759 -0.0045809219)
(0.11578366 -0.0055289383 -0.0052600918)
(-0.031265968 -0.0043265152 -0.0041876626)
(-0.20917424 -0.0026932573 -0.0019429022)
(-0.36716607 -0.0012339339 0.00034589208)
(-0.47874 -0.00019012907 0.001541117)
(0.05110661 -0.001169664 -0.00051566994)
(0.13721572 -0.0033533706 -0.0016104265)
(0.19709349 -0.0052552144 -0.0029904198)
(0.19831016 -0.0060783565 -0.0045546094)
(0.11902589 -0.0054431076 -0.0054219924)
(-0.032691112 -0.0036763561 -0.0044499139)
(-0.21145528 -0.0014860972 -0.0021918625)
(-0.36614052 0.00033463947 0.00026435826)
(-0.4735551 0.0015665497 0.0017461004)
(0.05354964 -0.0012377761 -0.00045491026)
(0.14342431 -0.0035685102 -0.0014673489)
(0.20535271 -0.0056020596 -0.0028527878)
(0.20565151 -0.0063898156 -0.0045561977)
(0.12291867 -0.005483347 -0.0056870369)
(-0.032085175 -0.0032495275 -0.0049169417)
(-0.21076739 -0.0006144515 -0.0027193753)
(-0.36187148 0.0014792046 -0.00013150383)
(-0.46507219 0.0028167364 0.0016320953)
(0.055687192 -0.0012775127 -0.00038270381)
(0.14897065 -0.0037051193 -0.0012878825)
(0.21298262 -0.0058410887 -0.0026894796)
(0.21309265 -0.0066250476 -0.0045377811)
(0.1278905 -0.0055422593 -0.0059935492)
(-0.02946695 -0.0030157182 -0.0055135164)
(-0.20773298 -0.00013216303 -0.0034384768)
(-0.35552994 0.0020862231 -0.00075277159)
(-0.45487325 0.0034337924 0.0012734096)
(0.057580843 -0.0012510332 -0.00029501024)
(0.15402575 -0.0036451157 -0.0010593554)
(0.22024548 -0.0057680268 -0.002435987)
(0.22073408 -0.0065513948 -0.0044892687)
(0.1338877 -0.0054225969 -0.0062898955)
(-0.025183516 -0.0028545296 -0.0061485395)
(-0.20301939 5.4132246e-06 -0.0042376857)
(-0.34809659 0.002144576 -0.0014895019)
(-0.4442218 0.0033926236 0.00076434305)
(0.059202682 -0.0011032761 -0.00019172345)
(0.15847102 -0.0032283513 -0.00078053419)
(0.22685556 -0.0051293076 -0.0021053108)
(0.22803096 -0.0058488946 -0.0043738985)
(0.14014782 -0.0048312351 -0.0065373042)
(-0.020162993 -0.0025409753 -0.006742318)
(-0.19763972 -5.3702819e-05 -0.0049961086)
(-0.34066639 0.00176233 -0.0022153555)
(-0.43436112 0.0027878183 0.00021528824)
(0.0604226 -0.00078348277 -9.1067677e-05)
(0.1618232 -0.0022972462 -0.00050376906)
(0.23190145 -0.0036595907 -0.0017628919)
(0.2337328 -0.0041879517 -0.0042158969)
(0.14523935 -0.0034599174 -0.0067204972)
(-0.015836309 -0.0018311969 -0.0072237688)
(-0.19296497 -0.00010589117 -0.0055985562)
(-0.33456182 0.0011292537 -0.0028047441)
(-0.42663833 0.0018021929 -0.0002656741)
(0.061110834 -0.00028821168 -2.8925345e-05)
(0.16378176 -0.00084546951 -0.0003307808)
(0.23495433 -0.0013464994 -0.0015412382)
(0.23730752 -0.0015392159 -0.0041018413)
(0.14853791 -0.0012660636 -0.0068225789)
(-0.012980115 -0.00066735278 -0.0075070034)
(-0.19003291 -4.5644552e-05 -0.0059419899)
(-0.33099497 0.00039133329 -0.0031415364)
(-0.42236275 0.000613918 -0.00057751957)
(0.061110831 0.00028816531 -2.892726e-05)
(0.16378175 0.00084540083 -0.00033077745)
(0.23495431 0.0013464403 -0.001541238)
(0.2373075 0.0015392189 -0.0041018397)
(0.14853788 0.0012662178 -0.0068225813)
(-0.012980137 0.00066765419 -0.0075070002)
(-0.19003293 4.5994882e-05 -0.0059419703)
(-0.330995 -0.00039108845 -0.0031414943)
(-0.42236277 -0.00061390124 -0.00057745839)
(0.060422592 0.00078343105 -9.1073058e-05)
(0.16182317 0.0022971673 -0.00050376589)
(0.2319014 0.0036595284 -0.0017628961)
(0.23373274 0.0041879749 -0.004215899)
(0.14523928 0.0034601191 -0.0067205138)
(-0.015836381 0.0018315596 -0.0072237632)
(-0.19296505 0.00010630001 -0.0055984972)
(-0.33456189 -0.0011289727 -0.0028046191)
(-0.4266384 -0.0018021581 -0.00026548985)
(0.059202674 0.0011032256 -0.00019172593)
(0.15847098 0.003228272 -0.00078053075)
(0.2268555 0.0051292524 -0.0021053257)
(0.22803087 0.0058489541 -0.0043739147)
(0.14014771 0.0048315011 -0.0065373394)
(-0.020163106 0.0025414172 -0.0067423074)
(-0.19763984 5.4188471e-05 -0.0049960103)
(-0.3406665 -0.0017619972 -0.0022151589)
(-0.43436122 -0.002787757 0.00021557964)
(0.057580834 0.0012509998 -0.00029500401)
(0.15402572 0.0036450682 -0.0010593382)
(0.2202454 0.0057680019 -0.0024359968)
(0.22073396 0.0065514913 -0.0044892859)
(0.13388756 0.0054229095 -0.006289934)
(-0.025183667 0.0028550359 -0.0061485222)
(-0.20301953 -4.8604128e-06 -0.0042375649)
(-0.34809673 -0.0021441872 -0.0014892715)
(-0.44422192 -0.0033925356 0.00076468851)
(0.055687175 0.0012774899 -0.00038268837)
(0.1489706 0.0037050998 -0.0012878248)
(0.21298252 0.0058410871 -0.0026894392)
(0.21309251 0.0066251646 -0.0045377691)
(0.12789032 0.0055426037 -0.0059935825)
(-0.029467135 0.0030162841 -0.0055135159)
(-0.20773315 0.00013277895 -0.0034383782)
(-0.3555301 -0.0020857869 -0.00075257088)
(-0.45487341 -0.0034337137 0.0012737423)
(0.053549617 0.0012377507 -0.00045488628)
(0.14342424 0.0035684966 -0.0014672759)
(0.2053526 0.0056020734 -0.0028527396)
(0.20565135 0.0063899554 -0.0045562101)
(0.12291847 0.0054837371 -0.0056871179)
(-0.032085399 0.003250158 -0.0049170098)
(-0.2107676 0.00061512511 -0.0027193489)
(-0.36187167 -0.0014787562 -0.00013138185)
(-0.46507235 -0.0028167509 0.0016323851)
(0.051106586 0.0011696403 -0.00051566254)
(0.13721565 0.0033533773 -0.0016103974)
(0.19709336 0.0052552739 -0.0029904203)
(0.19830998 0.0060785575 -0.0045546724)
(0.11902564 0.0054435681 -0.0054221466)
(-0.032691388 0.0036770432 -0.0044500718)
(-0.21145555 0.0014868094 -0.0021919425)
(-0.36614076 -0.00033423159 0.00026438679)
(-0.47355526 -0.0015667263 0.0017463466)
(0.04825022 0.0010938863 -0.00057104016)
(0.13002179 0.0031280366 -0.0017449125)
(0.18773401 0.0049209457 -0.0031351755)
(0.19045074 0.0058229245 -0.0045810131)
(0.11578336 0.005529449 -0.0052603029)
(-0.031266304 0.0043272509 -0.0041879217)
(-0.20917457 0.0026939707 -0.0019431078)
(-0.36716633 0.0012342454 0.00034583543)
(-0.47874018 0.00018980907 0.0015412678)
(0.044996564 0.0010206015 -0.00061680958)
(0.12189688 0.0029287711 -0.0018628053)
(0.17735046 0.0046549957 -0.0032749274)
(0.18219566 0.0056898797 -0.0046577192)
(0.11356281 0.005792315 -0.0052483767)
(-0.026982193 0.0051892093 -0.0041930909)
(-0.20247651 0.0041492465 -0.0020421397)
(-0.36294972 0.0030877697 5.0174852e-05)
(-0.47830233 0.0022808413 0.00096800419)
(0.041342215 0.00094833622 -0.00066238028)
(0.11288388 0.0027538427 -0.0019938706)
(0.16611592 0.0044618707 -0.0034640708)
(0.17399094 0.0056820608 -0.0048488381)
(0.11332534 0.0062170722 -0.0054464113)
(-0.018115645 0.0062110945 -0.0045172311)
(-0.18878014 0.0057534214 -0.0025380758)
(-0.35031398 0.0050899034 -0.00066386485)
(-0.46891819 0.0045395226 9.8104507e-06)
(0.037383612 0.00089388399 -0.00072057406)
(0.10325126 0.0026396059 -0.0021717165)
(0.15450898 0.0043837293 -0.0037521934)
(0.16668133 0.0058298484 -0.005213739)
(0.11661202 0.0068048098 -0.0059232296)
(-0.0019897964 0.0073685461 -0.0052375117)
(-0.16417145 0.0074671962 -0.0035100493)
(-0.32463052 0.0071821517 -0.0018395045)
(-0.44594853 0.0068651871 -0.0013488773)
(0.033667022 0.0008423397 -0.00076950793)
(0.094743695 0.0025474202 -0.0023388869)
(0.14564887 0.0043601405 -0.0040645728)
(0.16478257 0.0060574023 -0.0057134266)
(0.12928401 0.0074833817 -0.0067348933)
(0.028686005 0.0086273692 -0.0065197478)
(-0.11982814 0.0093354902 -0.0051989802)
(-0.27626527 0.0095055324 -0.0037158807)
(-0.39932041 0.0094210085 -0.0030496114)
(0.04429285 -0.00014498073 -0.00013103541)
(0.12750061 -0.00050792486 -0.00042363524)
(0.20329528 -0.0010652971 -0.00074253927)
(0.24736337 -0.0018775292 -0.0010537556)
(0.23219787 -0.0029260938 -0.0014146757)
(0.14396548 -0.0040848678 -0.0018990094)
(-0.00018649729 -0.0053109637 -0.0024193331)
(-0.15750803 -0.0066003396 -0.0028087619)
(-0.28325917 -0.0079101079 -0.0029377648)
(0.049229171 -0.00025604669 -0.00020621688)
(0.13936109 -0.00085740984 -0.00065131367)
(0.21728509 -0.0017012849 -0.0011204776)
(0.25530388 -0.0028334269 -0.0015484319)
(0.22505424 -0.0041849269 -0.0020072838)
(0.11724899 -0.0055635367 -0.0026056632)
(-0.042378238 -0.0069284799 -0.0032213129)
(-0.20526075 -0.0082594995 -0.0036742799)
(-0.33061632 -0.0094387395 -0.003846982)
(0.054250638 -0.00034477337 -0.00024257066)
(0.15185696 -0.0011435772 -0.00076557518)
(0.23315988 -0.0022282481 -0.0013095707)
(0.26748092 -0.0036211847 -0.0017829215)
(0.22591248 -0.0051938052 -0.002273263)
(0.10366169 -0.0066942522 -0.0029422789)
(-0.066096118 -0.0080869776 -0.0036494191)
(-0.23133163 -0.0093576766 -0.0042155013)
(-0.35504998 -0.010396714 -0.0044895228)
(0.058758488 -0.00043106169 -0.00026504681)
(0.16307552 -0.0014154405 -0.00083438258)
(0.24750747 -0.0027117587 -0.0014179266)
(0.27897379 -0.0043118311 -0.0019012023)
(0.22848133 -0.0060292575 -0.0023914137)
(0.095535873 -0.0075716996 -0.0031103916)
(-0.080510173 -0.0089212471 -0.0039057283)
(-0.24574024 -0.010088854 -0.0045904837)
(-0.36707569 -0.01099733 -0.0049761507)
(0.062608641 -0.00050119426 -0.00026867582)
(0.17263384 -0.0016378398 -0.00084619479)
(0.25969873 -0.0031032336 -0.0014319818)
(0.28878849 -0.0048546801 -0.0018958859)
(0.23110532 -0.006651325 -0.0023701023)
(0.090133869 -0.0081756434 -0.0031350014)
(-0.089616493 -0.0094364368 -0.0040193448)
(-0.25325281 -0.010472777 -0.0048162478)
(-0.37147472 -0.011240946 -0.0053043684)
(0.065819354 -0.00055466293 -0.00025317389)
(0.18052543 -0.0018053146 -0.00079856167)
(0.26960991 -0.0033864193 -0.0013476492)
(0.29653677 -0.005218643 -0.0017631744)
(0.2329126 -0.0070169591 -0.0022074563)
(0.08582761 -0.0084585455 -0.0030144493)
(-0.095925643 -0.0095888453 -0.0039881134)
(-0.25700253 -0.010472832 -0.0048914847)
(-0.371565 -0.011098044 -0.0054781122)
(0.068373817 -0.00058465957 -0.00022448114)
(0.18671444 -0.0018946147 -0.00070777282)
(0.2772012 -0.0035212776 -0.0011875197)
(0.30214573 -0.0053516461 -0.0015288761)
(0.23366236 -0.0070727536 -0.0019298893)
(0.081948272 -0.0083747 -0.002772878)
(-0.10072562 -0.0093388823 -0.0038312497)
(-0.2588364 -0.010052317 -0.0048351269)
(-0.36953196 -0.010534691 -0.0055165247)
(0.070378546 -0.000579508 -0.00018338461)
(0.19154517 -0.0018715019 -0.00057814187)
(0.28306267 -0.0034519805 -0.00096177651)
(0.30634827 -0.0051835481 -0.0012108579)
(0.2339987 -0.0067472427 -0.0015631642)
(0.078732967 -0.0078615763 -0.0024370815)
(-0.10434991 -0.008634302 -0.003572745)
(-0.25963014 -0.0091799064 -0.0046781406)
(-0.36666391 -0.0095339874 -0.0054537474)
(0.071918404 -0.00053108397 -0.00013465578)
(0.1952637 -0.0017098057 -0.00042481962)
(0.28758322 -0.0031326244 -0.00069717206)
(0.30959387 -0.0046530924 -0.00084516147)
(0.23427847 -0.0059725814 -0.0011454293)
(0.076316534 -0.0068623198 -0.0020467028)
(-0.1069648 -0.0074431905 -0.0032586245)
(-0.25985029 -0.0078392373 -0.0044648769)
(-0.36372809 -0.0080818444 -0.0053275579)
(0.073033592 -0.00043295771 -8.4413463e-05)
(0.19796637 -0.0013902585 -0.00026740656)
(0.2908788 -0.0025327502 -0.00042870357)
(0.31196972 -0.0037265268 -0.00048383086)
(0.23449969 -0.0047265375 -0.00074054753)