/*--------------------------------*- C++ -*----------------------------------*\
  =========                 |
  \\      /  F ield         | OpenFOAM: The Open Source CFD Toolbox
   \\    /   O peration     | Website:  https://openfoam.org
    \\  /    A nd           | Version:  10
     \\/     M anipulation  |
\*---------------------------------------------------------------------------*/
FoamFile
{
    format      ascii;
    class       volScalarField;
    location    "8.2";
    object      T_0;
}
// * * * * * * * * * * * * * * * * * * * * * * * * * * * * * * * * * * * * * //

dimensions      [0 0 -1 0 0 0 0];

internalField   nonuniform List<scalar> 
100
(
-0.0363399
-0.107731
-0.175307
-0.236672
-0.289652
-0.332372
-0.363317
-0.381391
-0.385955
-0.376846
-0.354387
-0.319373
-0.273046
-0.217046
-0.153357
-0.0842347
-0.0121288
0.0604068
0.130802
0.196564
0.255363
0.305115
0.344058
0.370813
0.384432
0.384432
0.370813
0.344058
0.305115
0.255362
0.196564
0.130802
0.0604062
-0.0121294
-0.0842353
-0.153357
-0.217046
-0.273046
-0.319374
-0.354387
-0.376846
-0.385955
-0.381391
-0.363317
-0.332372
-0.289652
-0.236671
-0.175306
-0.107731
-0.0363391
0.0363399
0.107732
0.175307
0.236672
0.289652
0.332372
0.363317
0.381392
0.385955
0.376846
0.354387
0.319373
0.273046
0.217046
0.153356
0.0842345
0.0121286
-0.060407
-0.130803
-0.196565
-0.255363
-0.305115
-0.344059
-0.370813
-0.384432
-0.384432
-0.370813
-0.344058
-0.305115
-0.255362
-0.196564
-0.130802
-0.060406
0.0121296
0.0842355
0.153357
0.217046
0.273046
0.319374
0.354387
0.376846
0.385955
0.381391
0.363317
0.332371
0.289652
0.236671
0.175306
0.107731
0.0363391
)
;

boundaryField
{
    inlet
    {
        type            cyclic;
    }
    outlet
    {
        type            cyclic;
    }
    bottom
    {
        type            slip;
    }
    top
    {
        type            slip;
    }
    frontAndBack
    {
        type            empty;
    }
}


// ************************************************************************* //
