/*--------------------------------*- C++ -*----------------------------------*\
  =========                 |
  \\      /  F ield         | OpenFOAM: The Open Source CFD Toolbox
   \\    /   O peration     | Website:  https://openfoam.org
    \\  /    A nd           | Version:  10
     \\/     M anipulation  |
\*---------------------------------------------------------------------------*/
FoamFile
{
    format      ascii;
    class       volScalarField;
    location    "8.4";
    object      T;
}
// * * * * * * * * * * * * * * * * * * * * * * * * * * * * * * * * * * * * * //

dimensions      [0 0 -1 0 0 0 0];

internalField   nonuniform List<scalar> 
100
(
0.0280447
0.08314
0.13529
0.182647
0.223534
0.256502
0.280384
0.294332
0.297854
0.290824
0.273492
0.246471
0.210718
0.167501
0.11835
0.0650065
0.00936002
-0.0466181
-0.100945
-0.151695
-0.197072
-0.235468
-0.265521
-0.286169
-0.296679
-0.296679
-0.286169
-0.265521
-0.235467
-0.197072
-0.151695
-0.100944
-0.0466173
0.00936083
0.0650074
0.118351
0.167502
0.210719
0.246472
0.273492
0.290825
0.297855
0.294333
0.280384
0.256502
0.223534
0.182647
0.13529
0.0831395
0.0280441
-0.0280447
-0.0831401
-0.13529
-0.182648
-0.223534
-0.256503
-0.280384
-0.294333
-0.297855
-0.290825
-0.273492
-0.246471
-0.210719
-0.167501
-0.11835
-0.0650068
-0.00936019
0.046618
0.100945
0.151695
0.197072
0.235468
0.265521
0.286169
0.296679
0.296679
0.286169
0.265521
0.235467
0.197072
0.151695
0.100944
0.0466175
-0.00936062
-0.0650071
-0.118351
-0.167502
-0.210719
-0.246471
-0.273492
-0.290824
-0.297854
-0.294332
-0.280384
-0.256502
-0.223534
-0.182647
-0.135289
-0.0831394
-0.0280441
)
;

boundaryField
{
    inlet
    {
        type            cyclic;
    }
    outlet
    {
        type            cyclic;
    }
    bottom
    {
        type            slip;
    }
    top
    {
        type            slip;
    }
    frontAndBack
    {
        type            empty;
    }
}


// ************************************************************************* //
