/*--------------------------------*- C++ -*----------------------------------*\
| =========                 |                                                 |
| \\      /  F ield         | OpenFOAM: The Open Source CFD Toolbox           |
|  \\    /   O peration     | Version:  2406                                  |
|   \\  /    A nd           | Website:  www.openfoam.com                      |
|    \\/     M anipulation  |                                                 |
\*---------------------------------------------------------------------------*/
FoamFile
{
    version     2.0;
    format      ascii;
    arch        "LSB;label=32;scalar=64";
    class       volVectorField;
    location    "3.5";
    object      U;
}
// * * * * * * * * * * * * * * * * * * * * * * * * * * * * * * * * * * * * * //

dimensions      [0 1 -1 0 0 0 0];

internalField   nonuniform List<vector> 
34560
(
(-0.067902523 0.013531465 0.029696473)
(-0.24348673 0.044729059 0.097924902)
(-0.49704856 0.085687601 0.1798451)
(-0.8298505 0.13200676 0.26506218)
(-1.2094683 0.17767509 0.33500426)
(-1.5747492 0.22041934 0.37452003)
(-1.8674391 0.26409868 0.38186134)
(-2.0609605 0.31164613 0.36644009)
(-2.1576329 0.35695583 0.34206935)
(-0.067908906 0.016392806 0.033396374)
(-0.25047454 0.05386325 0.10973141)
(-0.52157255 0.10174818 0.19953699)
(-0.87972953 0.15336274 0.28931003)
(-1.2804299 0.2011904 0.35779035)
(-1.6490018 0.24399854 0.39099344)
(-1.9247847 0.28769278 0.39068634)
(-2.0901461 0.33487532 0.36932613)
(-2.1622427 0.3807563 0.33963571)
(-0.064057485 0.01708038 0.034695986)
(-0.24647675 0.05718161 0.11479587)
(-0.52869535 0.10902839 0.20896919)
(-0.90673871 0.16415691 0.30173875)
(-1.3225607 0.21344824 0.36956306)
(-1.6885029 0.25630382 0.39882055)
(-1.9444721 0.2997359 0.39372684)
(-2.0857767 0.34862621 0.36876929)
(-2.1358213 0.39447816 0.33665241)
(-0.05682309 0.017559839 0.035825047)
(-0.23244097 0.059342936 0.11879851)
(-0.51930392 0.11329451 0.21572248)
(-0.91144585 0.16963814 0.30972785)
(-1.3375188 0.21851097 0.37596847)
(-1.6974556 0.26059186 0.40216886)
(-1.9349951 0.30468992 0.39478804)
(-2.0501483 0.35298406 0.36838628)
(-2.0797814 0.3982173 0.33658715)
(-0.046011442 0.016876196 0.036225793)
(-0.20762399 0.05817847 0.12058604)
(-0.49234855 0.11227379 0.21901858)
(-0.89351288 0.16828722 0.31344498)
(-1.3265458 0.21600327 0.3787835)
(-1.679597 0.25673717 0.40383158)
(-1.8947714 0.29985356 0.39567247)
(-1.9844834 0.3472455 0.3699205)
(-1.9945229 0.39171205 0.34001185)
(-0.032073148 0.01533673 0.036065672)
(-0.17294777 0.054227899 0.12055858)
(-0.44871537 0.10620801 0.21948823)
(-0.85352665 0.15999581 0.31448509)
(-1.289728 0.20522106 0.37983963)
(-1.6320523 0.2439205 0.40515478)
(-1.8240871 0.28562752 0.39826195)
(-1.8887725 0.33139532 0.37499664)
(-1.8794504 0.37481587 0.3477728)
(-0.015551351 0.013210711 0.035832021)
(-0.1294512 0.048060947 0.12006642)
(-0.38903126 0.09579274 0.21907781)
(-0.79084997 0.14534256 0.31462218)
(-1.2254208 0.18680556 0.38099294)
(-1.5546399 0.22262983 0.4083984)
(-1.7226833 0.26215682 0.40445155)
(-1.7628396 0.30525023 0.38498224)
(-1.7340041 0.34694483 0.36074608)
(0.0029652636 0.010481984 0.035545433)
(-0.078648757 0.039709164 0.11936304)
(-0.31513651 0.081186238 0.21851811)
(-0.7074052 0.12477399 0.31533125)
(-1.1355805 0.16143438 0.38409666)
(-1.449361 0.19349579 0.41528831)
(-1.5927053 0.22930157 0.41587368)
(-1.6081071 0.26901158 0.4006422)
(-1.559775 0.30760816 0.37948034)
(0.022200485 0.0075004933 0.035368512)
(-0.024179458 0.030055271 0.11896946)
(-0.23242899 0.063579775 0.21866312)
(-0.60949465 0.09957145 0.31766097)
(-1.0267613 0.13028261 0.39009335)
(-1.3228777 0.15753789 0.42640985)
(-1.4414224 0.18787658 0.43273289)
(-1.4312586 0.22278643 0.42189336)
(-1.3637298 0.25652607 0.40344562)
(0.040196903 0.0046971017 0.035364278)
(0.028026144 0.020281636 0.11909024)
(-0.15065042 0.044721489 0.21982365)
(-0.50915298 0.071661764 0.32173133)
(-0.91223224 0.095155261 0.39857391)
(-1.1892926 0.11680087 0.44039281)
(-1.2843492 0.1387278 0.45313365)
(-1.2489323 0.16717441 0.44663973)
(-1.1634051 0.19398953 0.4301599)
(0.054388704 0.0024678293 0.035521469)
(0.069931348 0.01148521 0.11966063)
(-0.083381119 0.026274131 0.22167441)
(-0.42403802 0.042920927 0.32653201)
(-0.81254485 0.057732306 0.40750655)
(-1.0716301 0.071863382 0.45426095)
(-1.1483329 0.085171959 0.47227371)
(-1.0903248 0.10395978 0.46992439)
(-0.98973789 0.12146575 0.45460907)
(0.062536858 0.00079055942 0.0356714)
(0.094313825 0.0037878663 0.12019107)
(-0.0435434 0.0087792506 0.2230779)
(-0.37268486 0.014407043 0.32982182)
(-0.75162577 0.0194489 0.41339757)
(-0.99947039 0.024355985 0.46327157)
(-1.0650445 0.028951921 0.48438961)
(-0.99317179 0.035592324 0.48474529)
(-0.88363088 0.041784372 0.46995641)
(0.062536846 -0.00079067479 0.035671412)
(0.09431378 -0.0037882119 0.12019112)
(-0.043543487 -0.0087797917 0.22307795)
(-0.37268498 -0.014407737 0.32982188)
(-0.7516259 -0.019449622 0.41339762)
(-0.99947049 -0.024356598 0.46327157)
(-1.0650445 -0.028952286 0.48438958)
(-0.99317179 -0.035592233 0.48474518)
(-0.8836308 -0.041783878 0.46995623)
(0.054388664 -0.0024679286 0.03552149)
(0.069931208 -0.011485506 0.11966072)
(-0.083381382 -0.026274609 0.2216745)
(-0.42403837 -0.042921571 0.32653213)
(-0.81254526 -0.057733025 0.40750665)
(-1.0716305 -0.071864035 0.45426096)
(-1.1483332 -0.085172405 0.47227362)
(-1.0903249 -0.10395978 0.46992412)
(-0.98973776 -0.12146529 0.45460864)
(0.040196837 -0.0046971762 0.035364283)
(0.02802591 -0.020281843 0.11909028)
(-0.15065087 -0.044721872 0.21982373)
(-0.5091536 -0.071662346 0.32173146)
(-0.91223296 -0.095155977 0.39857405)
(-1.1892932 -0.1168016 0.44039287)
(-1.2843496 -0.13872834 0.45313356)
(-1.2489324 -0.16717454 0.44663936)
(-1.163405 -0.19398915 0.43015935)
(0.022200411 -0.007500542 0.035368536)
(-0.024179717 -0.030055429 0.1189695)
(-0.23242948 -0.063580119 0.21866321)
(-0.60949534 -0.099572 0.31766114)
(-1.0267622 -0.1302833 0.39009357)
(-1.3228786 -0.15753862 0.42641003)
(-1.4414231 -0.18787717 0.43273287)
(-1.431259 -0.22278666 0.42189302)
(-1.3637299 -0.2565258 0.40344509)
(0.0029651998 -0.010482033 0.035545503)
(-0.078648976 -0.039709362 0.11936312)
(-0.31513694 -0.081186631 0.21851825)
(-0.70740584 -0.12477455 0.31533148)
(-1.1355814 -0.16143505 0.38409694)
(-1.4493619 -0.19349649 0.4152886)
(-1.5927062 -0.22930217 0.41587381)
(-1.6081078 -0.2690119 0.40064203)
(-1.5597752 -0.30760802 0.37947996)
(-0.015551403 -0.01321075 0.035832084)
(-0.12945137 -0.048061121 0.12006648)
(-0.3890316 -0.095793101 0.21907794)
(-0.79085047 -0.14534307 0.31462243)
(-1.2254214 -0.18680616 0.38099325)
(-1.5546407 -0.22263046 0.40839875)
(-1.722684 -0.2621574 0.40445182)
(-1.7628403 -0.30525062 0.38498227)
(-1.7340044 -0.3469447 0.36074586)
(-0.032073193 -0.015336759 0.036065706)
(-0.17294792 -0.05422801 0.12055868)
(-0.44871562 -0.10620828 0.21948846)
(-0.85352698 -0.1599962 0.3144854)
(-1.2897284 -0.20522155 0.37983997)
(-1.6320527 -0.24392103 0.40515521)
(-1.8240877 -0.28562802 0.39826237)
(-1.8887732 -0.33139574 0.37499678)
(-1.8794508 -0.37481576 0.34777271)
(-0.046011478 -0.016876214 0.036225871)
(-0.2076241 -0.058178568 0.1205862)
(-0.49234872 -0.11227398 0.21901883)
(-0.89351309 -0.16828748 0.31344526)
(-1.3265461 -0.21600367 0.37878389)
(-1.6795972 -0.25673761 0.40383204)
(-1.8947717 -0.29985394 0.39567298)
(-1.984484 -0.34724572 0.36992069)
(-1.9945233 -0.39171204 0.34001189)
(-0.056823122 -0.017559831 0.035825088)
(-0.23244108 -0.059342973 0.11879854)
(-0.5193041 -0.11329457 0.2157226)
(-0.91144609 -0.16963831 0.30972807)
(-1.337519 -0.21851127 0.37596883)
(-1.6974557 -0.26059223 0.40216928)
(-1.9349952 -0.30469013 0.39478841)
(-2.0501485 -0.35298401 0.36838654)
(-2.0797818 -0.39821721 0.3365874)
(-0.064057506 -0.017080333 0.03469599)
(-0.24647682 -0.057181527 0.11479585)
(-0.52869546 -0.10902827 0.20896927)
(-0.90673883 -0.1641569 0.30173891)
(-1.3225608 -0.2134484 0.36956334)
(-1.688503 -0.25630419 0.39882087)
(-1.944472 -0.29973616 0.39372711)
(-2.0857767 -0.34862617 0.36876967)
(-2.1358216 -0.39447806 0.33665296)
(-0.06790891 -0.016392735 0.03339634)
(-0.25047455 -0.053863111 0.10973131)
(-0.52157256 -0.101748 0.19953689)
(-0.8797295 -0.15336267 0.28930996)
(-1.2804298 -0.2011905 0.35779047)
(-1.6490017 -0.24399876 0.39099363)
(-1.9247846 -0.2876932 0.39068663)
(-2.090146 -0.33487574 0.36932692)
(-2.162243 -0.38075647 0.33963651)
(-0.067902542 -0.013531428 0.029696443)
(-0.24348679 -0.044729021 0.097924808)
(-0.49704865 -0.085687585 0.17984502)
(-0.82985061 -0.13200686 0.26506217)
(-1.2094684 -0.1776753 0.33500434)
(-1.5747493 -0.22041949 0.37452025)
(-1.8674392 -0.26409876 0.38186189)
(-2.0609606 -0.31164639 0.36644062)
(-2.1576333 -0.35695628 0.34206988)
(-0.075253773 -8.2330648e-05 -0.00022479098)
(-0.25303182 -0.0007320767 -0.0013730715)
(-0.4875963 -0.0022862262 -0.0040199963)
(-0.77358277 -0.0058698456 -0.0085229633)
(-1.0874188 -0.012826598 -0.014547455)
(-1.3888168 -0.02360855 -0.020825148)
(-1.6336514 -0.037298926 -0.025999496)
(-1.7970583 -0.052311398 -0.029452122)
(-1.8771759 -0.066820019 -0.030977388)
(-0.081727786 -0.0012678264 -0.0012597257)
(-0.27436198 -0.0043528673 -0.0045816147)
(-0.52701425 -0.0085687469 -0.0097869949)
(-0.83062896 -0.014914981 -0.016759081)
(-1.1552116 -0.024577298 -0.024348946)
(-1.4543931 -0.037724181 -0.03067139)
(-1.6830332 -0.053174036 -0.034543972)
(-1.8226591 -0.069240047 -0.036128195)
(-1.8838158 -0.084036101 -0.036306114)
(-0.086809172 -0.0026597047 -0.0021967684)
(-0.29133625 -0.008525461 -0.0075132737)
(-0.55855095 -0.015640031 -0.015063261)
(-0.87581467 -0.024725678 -0.024147198)
(-1.2071777 -0.036700907 -0.03274411)
(-1.5010897 -0.051506547 -0.038545143)
(-1.7126664 -0.067921713 -0.040823429)
(-1.8309812 -0.08440765 -0.040525646)
(-1.8777831 -0.099232351 -0.039215444)
(-0.09119464 -0.0043053678 -0.0030528492)
(-0.30590002 -0.013332951 -0.010174959)
(-0.58538386 -0.023549031 -0.019837234)
(-0.91366835 -0.035281938 -0.030709839)
(-1.2495646 -0.049166245 -0.03989631)
(-1.5373446 -0.065068314 -0.044830666)
(-1.733099 -0.081964224 -0.045399592)
(-1.8331533 -0.098463951 -0.043320949)
(-1.8682145 -0.11296338 -0.040688507)
(-0.094528787 -0.0059832536 -0.0036832136)
(-0.31724722 -0.018173283 -0.012162204)
(-0.60665094 -0.031376116 -0.023476878)
(-0.94389434 -0.045473312 -0.035696344)
(-1.2832361 -0.060838043 -0.045105175)
(-1.5654343 -0.077381558 -0.04898258)
(-1.7477503 -0.094349531 -0.047924834)
(-1.8327542 -0.11048098 -0.044338671)
(-1.8580896 -0.12418169 -0.040671255)
(-0.097013687 -0.0075513725 -0.0039825484)
(-0.32590375 -0.02262388 -0.013164423)
(-0.62314877 -0.038410747 -0.02551612)
(-0.96754375 -0.054334288 -0.038580529)
(-1.309555 -0.070561923 -0.04788049)
(-1.5870765 -0.087161835 -0.050623471)
(-1.7584362 -0.10368219 -0.048126019)
(-1.8313851 -0.11901959 -0.043378165)
(-1.8487134 -0.13150167 -0.039026972)
(-0.098932352 -0.0087814497 -0.0039573568)
(-0.33259585 -0.026020405 -0.013184061)
(-0.63592787 -0.043598595 -0.025906086)
(-0.98585443 -0.06054242 -0.039265643)
(-1.3298281 -0.076879185 -0.048144874)
(-1.6035001 -0.092879478 -0.049727684)
(-1.7661406 -0.10838023 -0.046003971)
(-1.8296613 -0.12250738 -0.040451742)
(-1.8404967 -0.13347051 -0.035743644)
(-0.10011737 -0.0093577047 -0.0035820648)
(-0.33698166 -0.027503006 -0.012164581)
(-0.64468246 -0.045635483 -0.024587384)
(-0.99879621 -0.062516415 -0.037744848)
(-1.3444054 -0.078092983 -0.045996002)
(-1.615292 -0.092812833 -0.046493196)
(-1.77136 -0.10681052 -0.041861511)
(-1.8277628 -0.11929923 -0.035794891)
(-1.833467 -0.12850191 -0.031016012)
(-0.10066797 -0.0090156224 -0.0029258514)
(-0.33935692 -0.026341109 -0.010307839)
(-0.64991843 -0.043402623 -0.02188063)
(-1.0070661 -0.058888156 -0.034444414)
(-1.3540865 -0.072717112 -0.041957795)
(-1.6231554 -0.085471729 -0.041533969)
(-1.7745236 -0.097343721 -0.036182677)
(-1.8257004 -0.10777743 -0.029889978)
(-1.8274427 -0.11508235 -0.02527602)
(-0.10079956 -0.0075939898 -0.0021274392)
(-0.34035564 -0.022099508 -0.0080209312)
(-0.65264113 -0.036246116 -0.018439874)
(-1.0118535 -0.048866654 -0.030207463)
(-1.3599816 -0.059884643 -0.036992026)
(-1.6279455 -0.069843053 -0.035824987)
(-1.7760813 -0.078966033 -0.029973656)
(-1.8235242 -0.086897088 -0.023647982)
(-1.8223275 -0.092207923 -0.019317421)
(-0.10102218 -0.005128546 -0.0014074117)
(-0.34124169 -0.014869288 -0.0059439779)
(-0.65455128 -0.024298766 -0.015264626)
(-1.0148637 -0.032607188 -0.02626483)
(-1.363453 -0.039743991 -0.032436453)
(-1.6305194 -0.046106279 -0.030754374)
(-1.7764966 -0.051879158 -0.024589748)
(-1.8214206 -0.056876124 -0.018310966)
(-1.8182298 -0.060110377 -0.014271224)
(-0.10084148 -0.001821904 -0.00099635012)
(-0.34096227 -0.005268796 -0.00475132)
(-0.65452713 -0.0085848301 -0.013406152)
(-1.0153891 -0.01149413 -0.02392196)
(-1.3644114 -0.013985939 -0.029726062)
(-1.6312855 -0.016196419 -0.027766943)
(-1.7763697 -0.018187447 -0.021442447)
(-1.8200767 -0.019902846 -0.01520406)
(-1.8158516 -0.020989518 -0.01134457)
(-0.10084148 0.0018219385 -0.00099635463)
(-0.34096227 0.0052688937 -0.0047513153)
(-0.65452714 0.0085849782 -0.013406154)
(-1.0153891 0.011494305 -0.023921956)
(-1.3644114 0.01398612 -0.029726058)
(-1.6312855 0.016196594 -0.02776694)
(-1.7763698 0.018187629 -0.021442448)
(-1.8200767 0.019903072 -0.015204064)
(-1.8158516 0.020989818 -0.011344578)
(-0.10102219 0.0051285732 -0.0014074184)
(-0.34124169 0.014869376 -0.0059439691)
(-0.6545513 0.024298904 -0.015264631)
(-1.0148637 0.032607354 -0.026264824)
(-1.3634531 0.039744168 -0.032436448)
(-1.6305194 0.046106451 -0.030754371)
(-1.7764966 0.051879332 -0.02458975)
(-1.8214207 0.056876339 -0.018310976)
(-1.8182298 0.060110661 -0.014271243)
(-0.10079956 0.0075940105 -0.0021274402)
(-0.34035564 0.022099585 -0.0080209347)
(-0.65264115 0.036246236 -0.018439895)
(-1.0118535 0.048866796 -0.03020748)
(-1.3599817 0.059884796 -0.036992035)
(-1.6279455 0.069843199 -0.035824985)
(-1.7760813 0.078966182 -0.02997366)
(-1.8235242 0.086897286 -0.023647998)
(-1.8223276 0.092208198 -0.019317443)
(-0.10066797 0.0090156368 -0.0029258469)
(-0.33935693 0.026341162 -0.010307852)
(-0.64991846 0.043402702 -0.021880653)
(-1.0070661 0.058888241 -0.034444431)
(-1.3540865 0.072717206 -0.041957793)
(-1.6231555 0.085471823 -0.041533962)
(-1.7745236 0.097343832 -0.036182692)
(-1.8257004 0.10777762 -0.029890016)
(-1.8274428 0.11508263 -0.025276049)
(-0.10011737 0.0093577051 -0.0035820571)
(-0.33698166 0.027503016 -0.012164573)
(-0.64468249 0.045635494 -0.02458737)
(-0.99879624 0.062516421 -0.037744826)
(-1.3444054 0.078092996 -0.045995974)
(-1.615292 0.092812856 -0.046493188)
(-1.7713601 0.10681058 -0.041861546)
(-1.8277629 0.11929938 -0.035794964)
(-1.833467 0.12850218 -0.031016077)
(-0.098932354 0.0087814433 -0.0039573461)
(-0.33259585 0.026020399 -0.013184024)
(-0.6359279 0.043598574 -0.02590603)
(-0.98585444 0.060542379 -0.039265574)
(-1.3298281 0.076879134 -0.048144821)
(-1.6035001 0.092879426 -0.049727676)
(-1.7661406 0.10838021 -0.046004024)
(-1.8296613 0.12250746 -0.04045186)
(-1.8404968 0.13347075 -0.03574378)
(-0.097013694 0.007551363 -0.0039825313)
(-0.32590377 0.022623872 -0.013164347)
(-0.62314878 0.038410719 -0.025516008)
(-0.96754374 0.054334234 -0.038580408)
(-1.3095549 0.070561833 -0.047880407)
(-1.5870764 0.087161723 -0.050623454)
(-1.7584362 0.1036821 -0.048126081)
(-1.8313851 0.11901959 -0.043378334)
(-1.8487135 0.13150184 -0.039027156)
(-0.094528794 0.0059832444 -0.0036832003)
(-0.31724723 0.018173283 -0.012162123)
(-0.60665094 0.031376095 -0.023476765)
(-0.9438943 0.045473263 -0.035696211)
(-1.283236 0.060837941 -0.045105078)
(-1.5654342 0.077381399 -0.048982549)
(-1.7477502 0.094349364 -0.047924906)
(-1.8327541 0.11048091 -0.044338873)
(-1.8580897 0.12418171 -0.040671403)
(-0.091194644 0.0043053625 -0.003052839)
(-0.30590003 0.013332959 -0.010174897)
(-0.58538384 0.023549018 -0.019837146)
(-0.9136683 0.035281893 -0.030709723)
(-1.2495645 0.049166139 -0.039896205)
(-1.5373444 0.065068116 -0.044830617)
(-1.7330988 0.081963983 -0.045399682)
(-1.8331532 0.098463768 -0.043321099)
(-1.8682145 0.11296326 -0.040688544)
(-0.086809175 0.0026597111 -0.0021967668)
(-0.29133625 0.0085254852 -0.0075132567)
(-0.55855093 0.015640046 -0.015063222)
(-0.87581461 0.024725654 -0.024147125)
(-1.2071775 0.03670082 -0.032744016)
(-1.5010895 0.051506348 -0.038545096)
(-1.7126661 0.067921352 -0.040823441)
(-1.830981 0.084407199 -0.040525586)
(-1.8777831 0.099232198 -0.039215446)
(-0.081727789 0.0012678417 -0.0012597378)
(-0.27436198 0.0043529067 -0.0045816433)
(-0.52701423 0.0085687917 -0.0097870113)
(-0.83062889 0.014914979 -0.016759073)
(-1.1552114 0.024577221 -0.024348886)
(-1.4543929 0.037724025 -0.030671242)
(-1.683033 0.053173687 -0.034543742)
(-1.8226589 0.069239434 -0.036128116)
(-1.8838157 0.08403581 -0.036306267)
(-0.075253782 8.2335505e-05 -0.00022480117)
(-0.25303184 0.00073208402 -0.0013731031)
(-0.48759629 0.0022862312 -0.0040200222)
(-0.7735827 0.0058698239 -0.0085229599)
(-1.0874186 0.012826544 -0.014547389)
(-1.3888167 0.02360844 -0.02082496)
(-1.6336512 0.037298748 -0.025999248)
(-1.7970582 0.052311205 -0.029452402)
(-1.8771759 0.066819758 -0.030977793)
(-0.068794879 0.00092556519 0.00085744012)
(-0.23159144 0.0029150425 0.0027203317)
(-0.44815239 0.0051712524 0.0048625125)
(-0.71616635 0.0073063058 0.0069783605)
(-1.0163251 0.0088298625 0.0085830757)
(-1.3111777 0.0093926088 0.0092550974)
(-1.555407 0.0090092017 0.0089022515)
(-1.7202204 0.0079986649 0.0078202721)
(-1.7998166 0.0066354621 0.0063700284)
(-0.073745647 0.00096257912 0.00079319939)
(-0.24813557 0.0029953794 0.0025110653)
(-0.47939734 0.0052275812 0.0044815832)
(-0.76263597 0.0072263699 0.0063962871)
(-1.0731133 0.0084906689 0.0077506794)
(-1.3671411 0.0087071944 0.0081116468)
(-1.5970697 0.0079542502 0.0074036277)
(-1.7391835 0.0066193395 0.0059768506)
(-1.799952 0.0051211666 0.0042164464)
(-0.077562894 0.0009082446 0.00065167393)
(-0.26103535 0.0028247654 0.0020802171)
(-0.50385653 0.0049107123 0.0037541036)
(-0.79855609 0.0067321211 0.0054186143)
(-1.1152584 0.0078030372 0.0065915334)
(-1.4047526 0.0078407882 0.0068039264)
(-1.6184934 0.0069478569 0.0059339398)
(-1.7395195 0.0055338924 0.0043368283)
(-1.7855498 0.0040503532 0.0025487431)
(-0.080767243 0.00081891235 0.00051096682)
(-0.27180857 0.0025455112 0.0016438701)
(-0.52412088 0.0044163223 0.0030043912)
(-0.82780214 0.0060235692 0.004392746)
(-1.1483598 0.0069163736 0.0053589038)
(-1.4319325 0.0068368242 0.0054220659)
(-1.6299505 0.0058871018 0.0044382354)
(-1.7321854 0.0044679317 0.0027806557)
(-1.7657215 0.0030330694 0.0010872593)
(-0.083072695 0.00067919889 0.00036662023)
(-0.27981077 0.0021288377 0.0012001862)
(-0.539508 0.003721889 0.0022469027)
(-0.85017955 0.0050995751 0.0033639521)
(-1.1732993 0.0058486068 0.0041306991)
(-1.4510007 0.0057156476 0.0040572072)
(-1.634963 0.0047793335 0.0029967333)
(-1.7210227 0.0034227833 0.0013547446)
(-1.7437499 0.0020966924 -0.00017477154)
(-0.084729379 0.00051589212 0.00023381643)
(-0.2857022 0.0016445904 0.00079009047)
(-0.55101578 0.0029253499 0.0015440669)
(-0.86694704 0.0040643885 0.0024059302)
(-1.1915847 0.004692062 0.0029836468)
(-1.4637663 0.0045519513 0.0027857326)
(-1.6355746 0.0036859861 0.0016770913)
(-1.708034 0.0024487849 9.7708512e-05)
(-1.7215378 0.0012710712 -0.001235963)
(-0.085952042 0.00034872004 0.00012911658)
(-0.29005859 0.0011475553 0.00046139446)
(-0.55951148 0.0021095119 0.00096712975)
(-0.87916407 0.0030118861 0.0015984107)
(-1.2043894 0.0035328097 0.0019928032)
(-1.4714718 0.0034128241 0.001671864)
(-1.6330437 0.0026541648 0.00052670394)
(-1.6943724 0.0015764884 -0.00096598848)
(-1.7002345 0.00056758278 -0.0021004921)
(-0.086616788 0.00019442612 5.4217104e-05)
(-0.29263953 0.00068708013 0.00022127082)
(-0.56481997 0.0013504368 0.00053237982)
(-0.88693844 0.0020305663 0.0009683368)
(-1.2122325 0.0024550074 0.0011949368)
(-1.4749802 0.0023684674 0.00075798344)
(-1.6283332 0.0017395166 -0.00041633386)
(-1.6809266 0.0008411454 -0.0018207674)
(-1.6806807 1.3663293e-05 -0.0027692833)
(-0.086822647 7.3287963e-05 9.3408773e-06)
(-0.29374956 0.00031834349 7.0641429e-05)
(-0.56748978 0.00072807607 0.00024322278)
(-0.89108322 0.0012077144 0.00052393445)
(-1.2161658 0.0015378444 0.00060471864)
(-1.4754624 0.0014843155 6.4075636e-05)
(-1.6225183 0.00099352806 -0.0011333639)
(-1.6685347 0.00028774948 -0.0024563693)
(-1.6636554 -0.00034512079 -0.0032504784)
(-0.086766435 -1.396389e-06 -1.0838705e-05)
(-0.29398163 7.8130003e-05 -4.9116735e-06)
(-0.56851321 0.00029665177 8.0552797e-05)
(-0.89289869 0.00060358449 0.00024803502)
(-1.2176244 0.00083715563 0.00021168556)
(-1.4742905 0.0008068752 -0.0004149576)
(-1.6167641 0.00045671902 -0.0016304465)
(-1.6580837 -4.8730614e-05 -0.0028907712)
(-1.6498999 -0.00050298771 -0.003572026)
(-0.086872859 -2.762222e-05 -1.5118157e-05)
(-0.29441637 -2.7517386e-05 -2.9475367e-05)
(-0.56942276 6.6055777e-05 1.0614587e-05)
(-0.89408428 0.00023122573 0.00010646975)
(-1.2182265 0.00036920002 -1.2223324e-05)
(-1.472861 0.00035460809 -0.00070272059)
(-1.6121887 0.00014603883 -0.0019332247)
(-1.650444 -0.00015567142 -0.0031586636)
(-1.6401334 -0.00042956337 -0.0037671991)
(-0.08668747 -1.4547637e-05 -1.3831654e-05)
(-0.29405568 -2.3729265e-05 -3.18948e-05)
(-0.56911463 3.4053358e-07 -8.9200817e-06)
(-0.89392173 5.1741674e-05 5.3172456e-05)
(-1.2179159 9.7333662e-05 -0.0001075988)
(-1.4717073 9.2833463e-05 -0.00083128294)
(-1.6095928 2.2810093e-05 -0.0020708954)
(-1.6463923 -7.8089795e-05 -0.0032835486)
(-1.6350458 -0.00016831833 -0.0038581655)
(-0.086687471 1.454314e-05 -1.383095e-05)
(-0.29405568 2.3718702e-05 -3.1889039e-05)
(-0.56911463 -3.6218678e-07 -8.9146885e-06)
(-0.89392173 -5.1771458e-05 5.3179559e-05)
(-1.2179159 -9.7358127e-05 -0.00010759321)
(-1.4717073 -9.2844896e-05 -0.00083128024)
(-1.6095928 -2.2779323e-05 -0.0020708979)
(-1.6463923 7.82196e-05 -0.0032835564)
(-1.6350458 0.00016859654 -0.0038581676)
(-0.086872862 2.7614938e-05 -1.5116496e-05)
(-0.29441638 2.7501858e-05 -2.9464758e-05)
(-0.56942277 -6.6084366e-05 1.0627451e-05)
(-0.89408428 -0.00023126349 0.00010648772)
(-1.2182265 -0.00036923437 -1.220826e-05)
(-1.472861 -0.00035463002 -0.00070271319)
(-1.6121887 -0.00014601833 -0.0019332333)
(-1.6504441 0.00015579608 -0.0031586903)
(-1.6401334 0.00042984339 -0.0037672157)
(-0.086766439 1.3866652e-06 -1.0834036e-05)
(-0.29398164 -7.8150116e-05 -4.8967415e-06)
(-0.56851322 -0.00029668807 8.0573764e-05)
(-0.89289868 -0.000603635 0.0002480626)
(-1.2176243 -0.00083720823 0.00021171092)
(-1.4742905 -0.00080691844 -0.0004149444)
(-1.6167641 -0.00045671781 -0.001630464)
(-1.6580837 4.8842768e-05 -0.002890826)
(-1.6498999 0.00050326138 -0.0035720813)
(-0.086822652 -7.3300273e-05 9.3495629e-06)
(-0.29374957 -0.00031836956 7.0664539e-05)
(-0.56748979 -0.00072812429 0.00024325713)
(-0.89108322 -0.0012077852 0.00052398036)
(-1.2161658 -0.0015379238 0.00060476166)
(-1.4754624 -0.0014843878 6.4094813e-05)
(-1.6225183 -0.00099355305 -0.001133397)
(-1.6685347 -0.00028766194 -0.0024564621)
(-1.6636554 0.00034536232 -0.003250593)
(-0.086616792 -0.00019444322 5.4230771e-05)
(-0.29263954 -0.00068711531 0.00022131274)
(-0.56481998 -0.0013505021 0.00053243831)
(-0.88693844 -0.0020306613 0.00096841272)
(-1.2122325 -0.0024551174 0.0011950014)
(-1.4749802 -0.0023685741 0.00075800539)
(-1.6283332 -0.0017395797 -0.00041638586)
(-1.6809267 -0.00084110373 -0.0018208999)
(-1.6806808 -1.3486141e-05 -0.0027694561)
(-0.085952047 -0.00034874146 0.00012913112)
(-0.2900586 -0.0011475969 0.00046144834)
(-0.55951149 -0.0021095909 0.00096721249)
(-0.87916407 -0.003012 0.00159852)
(-1.2043894 -0.0035329457 0.0019928912)
(-1.4714718 -0.003412968 0.0016718903)
(-1.6330437 -0.0026542807 0.00052663686)
(-1.6943724 -0.0015765177 -0.00096615823)
(-1.7002346 -0.00056747751 -0.0021007015)
(-0.084729387 -0.00051591729 0.00023383039)
(-0.28570222 -0.0016446304 0.0007901647)
(-0.5510158 -0.0029254331 0.0015441727)
(-0.86694705 -0.0040645111 0.0024060613)
(-1.1915847 -0.004692217 0.0029837518)
(-1.4637663 -0.0045521316 0.0027857688)
(-1.6355746 -0.0036861666 0.00167702)
(-1.7080341 -0.002448902 9.7494167e-05)
(-1.7215379 -0.0012710245 -0.001236186)
(-0.083072703 -0.00067922504 0.0003666379)
(-0.27981078 -0.0021288696 0.0012002741)
(-0.53950802 -0.0037219633 0.0022470133)
(-0.85017956 -0.0050996886 0.0033640927)
(-1.1732993 -0.0058487659 0.0041308219)
(-1.4510007 -0.0057158602 0.004057265)
(-1.634963 -0.0047795816 0.0029966652)
(-1.7210227 -0.0034229862 0.0013544674)
(-1.74375 -0.0020966997 -0.0001750234)
(-0.080767253 -0.00081893395 0.00051098192)
(-0.2718086 -0.0025455277 0.0016439454)
(-0.52412092 -0.0044163667 0.0030044931)
(-0.82780218 -0.0060236495 0.0043928854)
(-1.1483598 -0.0069165118 0.0053590388)
(-1.4319325 -0.0068370467 0.0054221423)
(-1.6299506 -0.0058873803 0.0044381428)
(-1.7321854 -0.004468188 0.0027802874)
(-1.7657216 -0.0030331688 0.0010869529)
(-0.077562905 -0.00090825217 0.00065168337)
(-0.26103538 -0.0028247472 0.002080267)
(-0.50385658 -0.0049107036 0.0037541689)
(-0.79855615 -0.0067321397 0.0054187149)
(-1.1152585 -0.0078031155 0.006591644)
(-1.4047526 -0.0078409778 0.0068039655)
(-1.6184935 -0.0069481701 0.0059338064)
(-1.7395195 -0.0055342248 0.0043364541)
(-1.7855499 -0.0040505134 0.0025483804)
(-0.073745658 -0.00096256985 0.00079319449)
(-0.2481356 -0.0029953307 0.002511062)
(-0.47939738 -0.0052275207 0.004481581)
(-0.76263601 -0.0072263316 0.0063963043)
(-1.0731134 -0.0084906871 0.0077507033)
(-1.3671411 -0.0087072926 0.008111624)
(-1.5970697 -0.0079544876 0.0074034442)
(-1.7391836 -0.00661975 0.0059764102)
(-1.7999521 -0.0051215382 0.0042161585)
(-0.068794889 -0.00092554853 0.00085742235)
(-0.23159146 -0.0029149933 0.0027202864)
(-0.44815242 -0.0051711853 0.0048624505)
(-0.71616637 -0.00730625 0.0069782908)
(-1.0163251 -0.0088298539 0.0085829985)
(-1.3111777 -0.0093926889 0.0092549894)
(-1.555407 -0.0090093315 0.0089020678)
(-1.7202205 -0.0079987184 0.0078197744)
(-1.7998168 -0.0066355893 0.0063696603)
(-0.072159686 -0.00013595548 -0.00011365985)
(-0.24270867 -0.000487203 -0.00038162328)
(-0.46861569 -0.0010470479 -0.00071809728)
(-0.74611924 -0.0019384197 -0.0011094455)
(-1.053959 -0.003307762 -0.0015139278)
(-1.3535622 -0.0052523186 -0.001879309)
(-1.6003444 -0.0077160027 -0.0022147734)
(-1.767333 -0.010473163 -0.0026086988)
(-1.8497365 -0.013211949 -0.0031458594)
(-0.07756731 -0.0001871713 -0.00013946393)
(-0.26076293 -0.00064422954 -0.00045241179)
(-0.50255576 -0.001330728 -0.00082739623)
(-0.79627014 -0.0023778213 -0.001245243)
(-1.1149236 -0.0039448208 -0.001660384)
(-1.4137609 -0.0061349601 -0.0020270312)
(-1.6462787 -0.0088809455 -0.0023800684)
(-1.790964 -0.011910514 -0.0028530318)
(-1.8553382 -0.014813181 -0.0035942082)
(-0.081864151 -0.00023446099 -0.00015222959)
(-0.27523288 -0.00078924778 -0.00048808514)
(-0.52978809 -0.001587141 -0.00088248855)
(-0.83595188 -0.0027574745 -0.0013111123)
(-1.1613998 -0.0044600808 -0.0017232571)
(-1.4560431 -0.0067970424 -0.0020755644)
(-1.672848 -0.0096865772 -0.0024165558)
(-1.7971803 -0.01280905 -0.0028908938)
(-1.8478425 -0.015705448 -0.0036110549)
(-0.085664345 -0.00029768772 -0.00016902924)
(-0.28790535 -0.00097338069 -0.00053343795)
(-0.5533572 -0.001891454 -0.0009512297)
(-0.86967044 -0.0031681407 -0.0013906538)
(-1.1997232 -0.0049567474 -0.0017932575)
(-1.4889872 -0.0073595705 -0.0021164324)
(-1.6907515 -0.010290031 -0.0024164418)
(-1.7972044 -0.01340098 -0.002831446)
(-1.83632 -0.016200373 -0.0034611743)
(-0.088669899 -0.000357165 -0.00017592081)
(-0.29811004 -0.0011450195 -0.00055027466)
(-0.5725542 -0.0021681765 -0.00097357727)
(-0.89721619 -0.0035220845 -0.0014088264)
(-1.2307601 -0.0053458489 -0.0017897601)
(-1.5148699 -0.007739431 -0.002071708)
(-1.7034043 -0.010615928 -0.0023134002)
(-1.7945999 -0.013611058 -0.0026439329)
(-1.823727 -0.016208822 -0.0031616682)
(-0.091125471 -0.00040622221 -0.00016863953)
(-0.3064807 -0.0012823908 -0.00052517584)
(-0.58831547 -0.002376698 -0.00092817857)
(-0.91974328 -0.0037595497 -0.0013382174)
(-1.255867 -0.0055516174 -0.0016804423)
(-1.535289 -0.0078490567 -0.0019066841)
(-1.7125672 -0.010568746 -0.0020770944)
(-1.7910327 -0.013344118 -0.0023154688)
(-1.8115748 -0.015658663 -0.0027271578)
(-0.093241083 -0.00043464208 -0.00014925367)
(-0.31355932 -0.0013550902 -0.00046389415)
(-0.60142318 -0.002468142 -0.0008225828)
(-0.93816033 -0.0038185719 -0.0011867188)
(-1.2759987 -0.005506764 -0.0014742893)
(-1.5512021 -0.0076224081 -0.0016330169)
(-1.719123 -0.010089475 -0.0017259798)
(-1.7872344 -0.012555578 -0.0018765178)
(-1.8006059 -0.014532324 -0.0021947567)
(-0.094828361 -0.00043065464 -0.00011816872)
(-0.31892554 -0.0013307898 -0.00036864035)
(-0.61141965 -0.0023928936 -0.00066315985)
(-0.95221506 -0.0036399717 -0.00096662034)
(-1.2912588 -0.0051513372 -0.0011902708)
(-1.5630099 -0.0070068378 -0.0012775754)
(-1.7235347 -0.0091406679 -0.0012942362)
(-1.7835525 -0.011233256 -0.0013672318)
(-1.7911691 -0.012843401 -0.001612359)
(-0.095919018 -0.00038940358 -8.0518627e-05)
(-0.32268742 -0.0011958101 -0.00025450745)
(-0.61853122 -0.0021301963 -0.00047359632)
(-0.96229827 -0.0031998377 -0.00070966749)
(-1.3021986 -0.0044639089 -0.00086865064)
(-1.5713121 -0.0059894588 -0.00088608852)
(-1.7262649 -0.0077236269 -0.00082775208)
(-1.780229 -0.0093847045 -0.00081781112)
(-1.7834703 -0.010503931 -0.0010051461)
(-0.096631997 -0.00031143199 -4.2627602e-05)
(-0.3252136 -0.00095221219 -0.00014047882)
(-0.62338433 -0.0016847933 -0.0002862126)
(-0.96922419 -0.002507358 -0.00045854021)
(-1.3096788 -0.0034611529 -0.00055932354)
(-1.576849 -0.0045973696 -0.00051613776)
(-1.7277968 -0.0058765992 -0.00038860605)
(-1.7774806 -0.0070731862 -0.00030334263)
(-1.777622 -0.0078697196 -0.00046393099)
(-0.097337206 -0.00020254965 -1.2212595e-05)
(-0.32740484 -0.00061667393 -4.933772e-05)
(-0.62718542 -0.0010850469 -0.00013738238)
(-0.97422717 -0.0016034878 -0.00026036147)
(-1.3147454 -0.002196372 -0.00031610226)
(-1.5803683 -0.0028969608 -0.00022543481)