/*--------------------------------*- C++ -*----------------------------------*\
  =========                 |
  \\      /  F ield         | OpenFOAM: The Open Source CFD Toolbox
   \\    /   O peration     | Website:  https://openfoam.org
    \\  /    A nd           | Version:  10
     \\/     M anipulation  |
\*---------------------------------------------------------------------------*/
FoamFile
{
    format      ascii;
    class       volScalarField;
    location    "29.5";
    object      ddt0(T);
}
// * * * * * * * * * * * * * * * * * * * * * * * * * * * * * * * * * * * * * //

dimensions      [0 0 -1 1 0 0 0];

internalField   nonuniform List<scalar> 
10000
(
918.119
137.586
228.584
229.143
228.271
228.33
228.374
228.383
228.384
228.386
228.387
228.389
228.39
228.391
228.392
228.394
228.395
228.396
228.397
228.398
228.399
228.401
228.402
228.403
228.404
228.405
228.406
228.407
228.408
228.409
228.41
228.411
228.412
228.413
228.414
228.414
228.415
228.416
228.417
228.418
228.419
228.42
228.42
228.421
228.422
228.423
228.423
228.424
228.425
228.425
228.426
228.426
228.427
228.428
228.428
228.429
228.429
228.43
228.43
228.431
228.431
228.432
228.432
228.433
228.433
228.433
228.434
228.434
228.434
228.435
228.435
228.435
228.436
228.436
228.436
228.436
228.437
228.437
228.437
228.437
228.437
228.438
228.438
228.438
228.438
228.438
228.438
228.438
228.439
228.439
228.439
228.439
228.439
228.439
228.438
228.449
228.569
228.703
217.637
196.885
184.567
-191.747
-72.4946
-80.779
-83.0932
-82.9995
-82.926
-82.9173
-82.9154
-82.9122
-82.9086
-82.905
-82.9014
-82.8978
-82.8942
-82.8907
-82.8872
-82.8837
-82.8803
-82.8769
-82.8735
-82.8702
-82.8669
-82.8637
-82.8604
-82.8573
-82.8541
-82.8511
-82.848
-82.845
-82.8421
-82.8392
-82.8363
-82.8335
-82.8308
-82.828
-82.8254
-82.8228
-82.8202
-82.8177
-82.8153
-82.8129
-82.8106
-82.8083
-82.8061
-82.8039
-82.8018
-82.7997
-82.7977
-82.7957
-82.7938
-82.792
-82.7902
-82.7884
-82.7867
-82.7851
-82.7835
-82.782
-82.7805
-82.779
-82.7776
-82.7763
-82.775
-82.7737
-82.7725
-82.7714
-82.7703
-82.7692
-82.7682
-82.7672
-82.7663
-82.7654
-82.7645
-82.7637
-82.7629
-82.7622
-82.7615
-82.7608
-82.7602
-82.7596
-82.759
-82.7585
-82.758
-82.7575
-82.7571
-82.7567
-82.7564
-82.756
-82.7557
-82.7555
-82.7552
-82.755
-82.7548
-82.7552
-82.7578
-82.7576
-82.634
-81.9632
-84.7155
-69.3813
260.814
-85.9661
24.3214
13.4135
11.0516
11.2382
11.3345
11.3471
11.3513
11.3569
11.3629
11.369
11.375
11.381
11.387
11.3929
11.3987
11.4045
11.4103
11.4159
11.4216
11.4271
11.4326
11.4381
11.4434
11.4487
11.4539
11.4591
11.4642
11.4692
11.4741
11.4789
11.4837
11.4883
11.4929
11.4975
11.5019
11.5062
11.5105
11.5146
11.5187
11.5227
11.5266
11.5304
11.5341
11.5377
11.5413
11.5447
11.5481
11.5513
11.5545
11.5576
11.5606
11.5635
11.5663
11.5691
11.5717
11.5743
11.5768
11.5792
11.5815
11.5838
11.5859
11.588
11.59
11.5919
11.5938
11.5956
11.5973
11.5989
11.6005
11.602
11.6034
11.6048
11.6061
11.6073
11.6085
11.6096
11.6106
11.6116
11.6125
11.6134
11.6142
11.615
11.6157
11.6164
11.617
11.6175
11.618
11.6185
11.6189
11.6193
11.6196
11.6192
11.6143
11.5967
11.6221
11.9656
9.67955
11.6327
261.612
-92.9083
14.7846
3.65091
1.38717
1.61147
1.71494
1.72987
1.73631
1.74427
1.75276
1.76125
1.76968
1.77804
1.78635
1.79459
1.80277
1.81086
1.81889
1.82683
1.83469
1.84246
1.85015
1.85774
1.86524
1.87264
1.87994
1.88714
1.89423
1.90122
1.9081
1.91487
1.92153
1.92807
1.93449
1.9408
1.94699
1.95305
1.959
1.96482
1.97052
1.97609
1.98154
1.98687
1.99206
1.99714
2.00208
2.0069
2.0116
2.01617
2.02061
2.02494
2.02913
2.03321
2.03716
2.041
2.04471
2.0483
2.05178
2.05514
2.05839
2.06152
2.06455
2.06746
2.07026
2.07296
2.07555
2.07804
2.08043
2.08272
2.08491
2.087
2.089
2.0909
2.09272
2.09444
2.09608
2.09763
2.0991
2.10048
2.10179
2.10301
2.10416
2.10523
2.10622
2.10714
2.10799
2.10877
2.10948
2.11011
2.11069
2.11124
2.11185
2.11248
2.1107
2.09755
2.09765
2.37341
2.21749
1.90222
260.908
-94.9175
12.7046
1.66476
-0.553007
-0.317621
-0.21142
-0.194402
-0.185641
-0.175268
-0.164361
-0.153457
-0.142631
-0.13188
-0.121206
-0.110614
-0.10011
-0.0896994
-0.0793867
-0.0691767
-0.0590735
-0.0490812
-0.0392034
-0.0294438
-0.0198059
-0.010293
-0.000908305
0.00834497
0.0174638
0.0264454
0.0352868
0.0439854
0.0525388
0.0609445
0.0692005
0.0773047
0.0852554
0.0930508
0.10069
0.10817
0.115492
0.122654
0.129655
0.136495
0.143174
0.149691
0.156046
0.16224
0.168272
0.174144
0.179856
0.185408
0.190801
0.196037
0.201117
0.206042
0.210813
0.215431
0.219899
0.224218
0.22839
0.232417
0.2363
0.240042
0.243645
0.24711
0.250441
0.253638
0.256705
0.259644
0.262456
0.265145
0.267712
0.27016
0.272491
0.274707
0.276811
0.278804
0.280689
0.282468
0.284144
0.285717
0.287189
0.288564
0.289842
0.291026
0.292117
0.293116
0.294024
0.294843
0.295573
0.296236
0.296945
0.297935
0.298282
0.29022
0.265844
0.319927
0.37859
0.296513
260.962
-94.8392
12.8645
1.86108
-0.34564
-0.107151
0.0011241
0.0204098
0.0315693
0.0443672
0.0576939
0.0710035
0.0842225
0.0973505
0.110385
0.123319
0.136146
0.14886
0.161455
0.173924
0.186263
0.198467
0.210531
0.222451
0.234222
0.24584
0.257302
0.268603
0.27974
0.290709
0.301507
0.31213
0.322576
0.332842
0.342924
0.352821
0.362531
0.37205
0.381379
0.390514
0.399455
0.408201
0.416751
0.425104
0.43326
0.441218
0.448979
0.456542
0.463909
0.471079
0.478053
0.484833
0.49142
0.497813
0.504016
0.51003
0.515856
0.521496
0.526951
0.532226
0.53732
0.542237
0.546979
0.551548
0.555947
0.560178
0.564245
0.568149
0.571894
0.575483
0.578917
0.5822
0.585334
0.588323
0.591169
0.593875
0.596444
0.598878
0.60118
0.603352
0.605397
0.607318
0.609116
0.610795
0.612356
0.613801
0.615133
0.616352
0.617462
0.618462
0.61935
0.620128
0.620862
0.621847
0.623395
0.622808
0.611345
0.606786
0.610402
0.621709
261
-94.7754
12.949
1.9527
-0.251247
-0.0106732
0.0998496
0.12152
0.135104
0.150326
0.166066
0.181775
0.19738
0.212878
0.228265
0.243535
0.258678
0.273688
0.288557
0.303279
0.317847
0.332256
0.3465
0.360574
0.374472
0.38819
0.401722
0.415066
0.428215
0.441165
0.453914
0.466456
0.478789
0.490909
0.502813
0.514497
0.52596
0.5372
0.548213
0.558998
0.569554
0.579879
0.589973
0.599834
0.609463
0.618858
0.62802
0.636949
0.645645
0.65411
0.662344
0.670348
0.678123
0.685671
0.692994
0.700093
0.70697
0.713628
0.720069
0.726295
0.732309
0.738113
0.743711
0.749105
0.754297
0.759293
0.764093
0.768702
0.773123
0.777358
0.781412
0.785288
0.788988
0.792516
0.795876
0.79907
0.802102
0.804975
0.807692
0.810256
0.81267
0.814938
0.81706
0.819042
0.820884
0.82259
0.824162
0.825602
0.826912
0.828094
0.829145
0.830058
0.830837
0.831622
0.832846
0.834365
0.832905
0.828412
0.818946
0.83656
261.008
-94.7674
12.9609
1.96689
-0.234939
0.00790918
0.120818
0.144912
0.160922
0.178561
0.196705
0.214806
0.232788
0.250649
0.268382
0.285979
0.303431
0.32073
0.337866
0.354833
0.371624
0.38823
0.404647
0.420867
0.436885
0.452696
0.468293
0.483671
0.498826
0.513752
0.528445
0.5429
0.557113
0.571081
0.5848
0.598266
0.611477
0.624429
0.637122
0.649551
0.661716
0.673615
0.685248
0.696612
0.707708
0.718535
0.729094
0.739383
0.749405
0.75916
0.768648
0.777872
0.786832
0.79553
0.803969
0.812149
0.820075
0.827747
0.835169
0.842343
0.849273
0.855962
0.862412
0.868627
0.874611
0.880367
0.885899
0.89121
0.896303
0.901184
0.905855
0.910321
0.914584
0.91865
0.922521
0.926201
0.929695
0.933005
0.936136
0.939091
0.941872
0.944485
0.946931
0.949214
0.951336
0.953302
0.955113
0.956772
0.958282
0.959645
0.960861
0.961925
0.962821
0.963569
0.964365
0.96554
0.966663
0.966025
0.954968
0.973045
261.009
-94.7652
12.9653
1.97362
-0.225878
0.0193701
0.134704
0.161225
0.179653
0.199699
0.22024
0.240724
0.261075
0.281288
0.301358
0.321274
0.341027
0.360605
0.38
0.399204
0.418207
0.437003
0.455584
0.473943
0.492073
0.509968
0.527622
0.545028
0.56218
0.579074
0.595704
0.612064
0.628151
0.64396
0.659487
0.674728
0.689679
0.704339
0.718703
0.73277
0.746538
0.760005
0.77317
0.786031
0.798589
0.810842
0.822792
0.834437
0.845779
0.856818
0.867556
0.877994
0.888134
0.897978
0.907527
0.916785
0.925754
0.934436
0.942835
0.950954
0.958796
0.966365
0.973664
0.980698
0.987469
0.993983
1.00024
1.00625
1.01202
1.01754
1.02282
1.02788
1.0327
1.0373
1.04168
1.04585
1.0498
1.05355
1.05709
1.06043
1.06358
1.06654
1.0693
1.07189
1.07429
1.07651
1.07856
1.08044
1.08215
1.08369
1.08507
1.08628
1.08732
1.08817
1.08886
1.08964
1.09101
1.09233
1.07761
1.10005
261.011
-94.762
12.9709
1.98167
-0.215415
0.0322591
0.150018
0.178956
0.199793
0.222237
0.245163
0.26802
0.29073
0.313287
0.335683
0.357908
0.379951
0.401799
0.423443
0.444874
0.466081
0.487057
0.507793
0.528282
0.548515
0.568485
0.588186
0.607611
0.626752
0.645605
0.664163
0.682421
0.700373
0.718015
0.735342
0.752349
0.769034
0.785393
0.801422
0.81712
0.832483
0.847511
0.862201
0.876553
0.890566
0.904239
0.917573
0.930567
0.943223
0.955541
0.967523
0.97917
0.990484
1.00147
1.01212
1.02245
1.03246
1.04215
1.05152
1.06058
1.06933
1.07777
1.08592
1.09376
1.10132
1.10859
1.11557
1.12228
1.12871
1.13487
1.14077
1.1464
1.15179
1.15692
1.1618
1.16645
1.17086
1.17504
1.17899
1.18272
1.18623
1.18953
1.19262
1.1955
1.19818
1.20066
1.20295
1.20504
1.20695
1.20867
1.21021
1.21156
1.21274
1.21372
1.21447
1.2151
1.21648
1.21937
1.19936
1.2278
261.012
-94.7584
12.977
1.99017
-0.204489
0.0456058
0.16578
0.197124
0.220358
0.245188
0.270489
0.295708
0.320765
0.345654
0.370366
0.394889
0.41921
0.443318
0.4672
0.490847
0.514248
0.537393
0.560274
0.582881
0.605207
0.627243
0.648982
0.670415
0.691537
0.712339
0.732816
0.752962
0.77277
0.792236
0.811354
0.830119
0.848529
0.866578
0.884264
0.901584
0.918535
0.935116
0.951324
0.967159
0.982619
0.997704
1.01242
1.02675
1.04071
1.05431
1.06752
1.08037
1.09286
1.10497
1.11673
1.12813
1.13917
1.14985
1.16019
1.17019
1.17984
1.18916
1.19814
1.2068
1.21513
1.22315
1.23085
1.23825
1.24534
1.25214
1.25865
1.26486
1.2708
1.27646
1.28185
1.28698
1.29184
1.29645
1.30081
1.30493
1.3088
1.31244
1.31584
1.31902
1.32198
1.32472
1.32724
1.32955
1.33165
1.33355
1.33524
1.33674
1.33804
1.33913
1.33998
1.34059
1.34198
1.34647
1.32111
1.35547
261.014
-94.7547
12.9831
1.99868
-0.193572
0.0589322
0.181508
0.215247
0.240865
0.268069
0.295733
0.323301
0.350693
0.377902
0.404917
0.431726
0.458314
0.484669
0.510778
0.536629
0.562211
0.587514
0.612529
0.637244
0.661651
0.685742
0.709507
0.732939
0.756029
0.778771
0.801156
0.82318
0.844834
0.866113
0.887013
0.907527
0.927652
0.947383
0.966716
0.985649
1.00418
1.0223
1.04002
1.05733
1.07423
1.09072
1.1068
1.12247
1.13774
1.15259
1.16704
1.18109
1.19473
1.20797
1.22082
1.23328
1.24535
1.25703
1.26833
1.27925
1.2898
1.29999
1.3098
1.31927
1.32838
1.33714
1.34556
1.35364
1.36139
1.36882
1.37593
1.38273
1.38922
1.39541
1.4013
1.4069
1.41221
1.41725
1.42202
1.42651
1.43075
1.43472
1.43844
1.44192
1.44515
1.44814
1.4509
1.45342
1.45572
1.45779
1.45964
1.46128
1.4627
1.4639
1.46484
1.46545
1.46685
1.47282
1.44281
1.48234
261.015
-94.7511
12.9891
2.00712
-0.182727
0.0721733
0.197138
0.233257
0.261246
0.290811
0.320823
0.350727
0.380441
0.409957
0.439262
0.468343
0.497185
0.525774
0.554096
0.582139
0.60989
0.637339
0.664474
0.691285
0.717761
0.743894
0.769674
0.795093
0.82014
0.84481
0.869093
0.892982
0.916472
0.939555
0.962225
0.984477
1.00631
1.02771
1.04868
1.06922
1.08932
1.10898
1.12819
1.14697
1.1653
1.18318
1.20063
1.21762
1.23418
1.25029
1.26596
1.2812
1.29599
1.31036
1.3243
1.33781
1.35089
1.36356
1.37582
1.38766
1.39911
1.41015
1.4208
1.43106
1.44094
1.45044
1.45957
1.46834
1.47675
1.4848
1.49251
1.49988
1.50692
1.51363
1.52002
1.52609
1.53186
1.53732
1.54249
1.54736
1.55195
1.55626
1.5603
1.56406
1.56757
1.57081
1.5738
1.57654
1.57903
1.58128
1.58328
1.58506
1.5866
1.58791
1.58893
1.58957
1.59095
1.59815
1.56446
1.60814
261.016
-94.7475
12.9951
2.01551
-0.171953
0.0853283
0.212667
0.251152
0.281498
0.313408
0.345755
0.37798
0.410001
0.441809
0.473389
0.504729
0.53581
0.566619
0.59714
0.627361
0.657267
0.686848
0.71609
0.744983
0.773516
0.801679
0.829461
0.856853
0.883845
0.91043
0.936598
0.962343
0.987655
1.01253
1.03696
1.06094
1.08446
1.10752
1.13012
1.15225
1.17391
1.19509
1.2158
1.23603
1.25578
1.27506
1.29385
1.31217
1.33
1.34736
1.36425
1.38066
1.39661
1.41209
1.4271
1.44166
1.45576
1.46941
1.48261
1.49537
1.5077
1.5196
1.53107
1.54213
1.55277
1.56301
1.57284
1.58229
1.59135
1.60003
1.60833
1.61627
1.62385
1.63108
1.63796
1.6445
1.65071
1.6566
1.66216
1.66742
1.67236
1.677
1.68135
1.68541
1.68918
1.69268
1.6959
1.69885
1.70153
1.70395
1.70611
1.70802
1.70968
1.7111
1.7122
1.71287
1.71424
1.72235
1.68601
1.73282
261.017
-94.7439
13.0011
2.02384
-0.161252
0.0983941
0.228091
0.268926
0.301612
0.335853
0.370518
0.405049
0.439362
0.473445
0.507286
0.540868
0.574174
0.607187
0.639893
0.672276
0.704323
0.736021
0.767356
0.798317
0.828893
0.859071
0.888841
0.918193
0.947117
0.975604
1.00364
1.03123
1.05835
1.08501
1.11118
1.13688
1.16208
1.18679
1.21101
1.23472
1.25792
1.28062
1.30281
1.32449
1.34565
1.3663
1.38643
1.40606
1.42517
1.44377
1.46186
1.47944
1.49653
1.51311
1.52919
1.54479
1.55989
1.57452
1.58866
1.60234
1.61554
1.62829
1.64058
1.65242
1.66382
1.67479
1.68532
1.69544
1.70514
1.71444
1.72334
1.73184
1.73996
1.7477
1.75507
1.76208
1.76874
1.77504
1.781
1.78662
1.79192
1.79689
1.80155
1.8059
1.80994
1.81368
1.81713
1.82029
1.82316
1.82576
1.82808
1.83012
1.8319
1.83341
1.83461
1.83532
1.83668
1.84537
1.80734
1.85632
261.018
-94.7404
13.007
2.0321
-0.15063
0.111365
0.243403
0.286571
0.321581
0.358135
0.395101
0.431921
0.468509
0.504852
0.540937
0.576745
0.612259
0.647461
0.682335
0.716865
0.751037
0.784836
0.818249
0.851263
0.883865
0.916044
0.947788
0.979086
1.00993
1.0403
1.0702
1.09961
1.12853
1.15695
1.18486
1.21226
1.23913
1.26548
1.2913
1.31658
1.34132
1.36552
1.38918
1.41229
1.43485
1.45686
1.47833
1.49925
1.51962
1.53945
1.55874
1.57749
1.5957
1.61338
1.63053
1.64715
1.66325
1.67884
1.69392
1.7085
1.72257
1.73616
1.74926
1.76189
1.77404
1.78573
1.79696
1.80774
1.81808
1.82799
1.83748
1.84654
1.85519
1.86345
1.8713
1.87877
1.88586
1.89258
1.89893
1.90493
1.91057
1.91587
1.92084
1.92547
1.92978
1.93377
1.93744
1.94081
1.94387
1.94664
1.94911
1.95129
1.95318
1.9548
1.95608
1.95685
1.9582
1.96721
1.92832
1.97863
261.02
-94.7369
13.0129
2.04031
-0.140091
0.124234
0.258595
0.304078
0.341394
0.380243
0.419493
0.458584
0.497428
0.536014
0.574325
0.612342
0.650046
0.68742
0.724445
0.761105
0.797385
0.833269
0.868744
0.903794
0.938408
0.972572
1.00627
1.0395
1.07224
1.10449
1.13623
1.16746
1.19816
1.22833
1.25797
1.28705
1.31558
1.34355
1.37096
1.39779
1.42406
1.44975
1.47486
1.49939
1.52334
1.54671
1.5695
1.59171
1.61333
1.63438
1.65486
1.67476
1.69409
1.71285
1.73105
1.7487
1.76579
1.78233
1.79834
1.81381
1.82875
1.84317
1.85707
1.87047
1.88337
1.89577
1.90769
1.91914
1.93011
1.94063
1.95069
1.96031
1.9695
1.97825
1.98659
1.99452
2.00204
2.00917
2.01591
2.02227
2.02826
2.03389
2.03916
2.04407
2.04864
2.05287
2.05677
2.06035
2.0636
2.06653
2.06916
2.07147
2.07348
2.07519
2.07656
2.0774
2.07876
2.08784
2.04881
2.09972
261.021
-94.7334
13.0187
2.04844
-0.12964
0.136995
0.27366
0.321439
0.361041
0.402167
0.443682
0.485024
0.526107
0.566916
0.607434
0.647642
0.687519
0.727046
0.766204
0.804977
0.843348
0.8813
0.918818
0.955888
0.992496
1.02863
1.06427
1.09941
1.13404
1.16815
1.20172
1.23474
1.26721
1.29912
1.33045
1.36121
1.39138
1.42096
1.44995
1.47833
1.5061
1.53327
1.55982
1.58576
1.61109
1.6358
1.6599
1.68338
1.70625
1.72851
1.75016
1.7712
1.79164
1.81148
1.83072
1.84938
1.86745
1.88494
1.90187
1.91822
1.93402
1.94926
1.96396
1.97813
1.99176
2.00488
2.01748
2.02958
2.04118
2.0523
2.06294
2.0731
2.08281
2.09207
2.10088
2.10926
2.11722
2.12475
2.13188
2.1386
2.14493
2.15088
2.15645
2.16164
2.16648
2.17095
2.17507
2.17885
2.18229
2.18539
2.18816
2.19061
2.19273
2.19455
2.19599
2.1969
2.19828
2.20725
2.16866
2.21957
261.022
-94.7299
13.0245
2.0565
-0.119283
0.149643
0.288591
0.338645
0.380514
0.423896
0.467656
0.511231
0.554532
0.597545
0.640251
0.68263
0.72466
0.766322
0.807595
0.848461
0.888904
0.928905
0.968449
1.00752
1.04611
1.08419
1.12176
1.15879
1.19529
1.23124
1.26662
1.30143
1.33565
1.36927
1.4023
1.43471
1.46651
1.49769
1.52823
1.55814
1.58741
1.61604
1.64403
1.67136
1.69806
1.7241
1.74949
1.77423
1.79833
1.82179
1.8446
1.86677
1.88831
1.90921
1.92949
1.94915
1.96819
1.98663
2.00446
2.02169
2.03833
2.05439
2.06988
2.08481
2.09917
2.11299
2.12627
2.13901
2.15124
2.16295
2.17415
2.18487
2.19509
2.20485
2.21413
2.22296
2.23134
2.23927
2.24678
2.25386
2.26053
2.2668
2.27266
2.27814
2.28323
2.28794
2.29228
2.29626
2.29988
2.30315
2.30607
2.30865
2.31089
2.3128
2.31433
2.31531
2.31671
2.32543
2.28773
2.33818
261.023
-94.7265
13.0302
2.06448
-0.109024
0.162171
0.303382
0.35569
0.399805
0.445422
0.491406
0.537192
0.582692
0.627888
0.672762
0.717291
0.761455
0.80523
0.848598
0.891539
0.934034
0.976066
1.01762
1.05867
1.09921
1.13923
1.1787
1.21762
1.25597
1.29374
1.33091
1.36748
1.40344
1.43877
1.47347
1.50753
1.54094
1.57369
1.60578
1.6372
1.66796
1.69803
1.72743
1.75616
1.7842
1.81155
1.83823
1.86423
1.88954
1.91418
1.93814
1.96144
1.98406
2.00602
2.02732
2.04797
2.06797
2.08734
2.10606
2.12416
2.14165
2.15852
2.17479
2.19046
2.20555
2.22006
2.234
2.24739
2.26023
2.27253
2.2843
2.29555
2.30629
2.31653
2.32628
2.33555
2.34435
2.35268
2.36057
2.36801
2.37501
2.38159
2.38775
2.3935
2.39884
2.40379
2.40835
2.41253
2.41633
2.41977
2.42283
2.42554
2.42789
2.4299
2.43151
2.43257
2.434
2.44235
2.4059
2.45551
261.024
-94.7231
13.0358
2.07238
-0.0988669
0.174576
0.318026
0.372567
0.418905
0.466735
0.514921
0.562897
0.610573
0.657931
0.704952
0.751611
0.797887
0.843756
0.889198
0.934193
0.97872
1.02276
1.0663
1.10932
1.1518
1.19373
1.23509
1.27586
1.31605
1.35562
1.39457
1.43289
1.47056
1.50758
1.54394
1.57962
1.61462
1.64894
1.68256
1.71548
1.7477
1.77921
1.81001
1.8401
1.86948
1.89814
1.92608
1.95332
1.97984
2.00565
2.03075
2.05515
2.07885
2.10185
2.12417
2.1458
2.16675
2.18703
2.20665
2.22561
2.24392
2.26159
2.27863
2.29504
2.31085
2.32604
2.34065
2.35467
2.36811
2.38099
2.39332
2.4051
2.41635
2.42708
2.43729
2.44699
2.45621
2.46494
2.47319
2.48098
2.48832
2.4952
2.50165
2.50767
2.51327
2.51845
2.52323
2.52761
2.53159
2.53518
2.53839
2.54123
2.5437
2.5458
2.54749
2.54863
2.55008
2.558
2.52303
2.57156
261.025
-94.7198
13.0414
2.0802
-0.0888152
0.186851
0.332519
0.389269
0.437807
0.487828
0.538193
0.588337
0.638167
0.687664
0.736809
0.785576
0.833942
0.881883
0.929378
0.976405
1.02294
1.06897
1.11448
1.15944
1.20384
1.24766
1.29089
1.33351
1.3755
1.41686
1.45757
1.49761
1.53699
1.57567
1.61367
1.65096
1.68754
1.7234
1.75853
1.79294
1.82661
1.85954
1.89173
1.92317
1.95386
1.98381
2.01302
2.04147
2.06918
2.09615
2.12238
2.14788
2.17264
2.19668
2.21999
2.24259
2.26448
2.28567
2.30616
2.32597
2.3451
2.36356
2.38136
2.39851
2.41502
2.4309
2.44616
2.4608
2.47485
2.4883
2.50118
2.51348
2.52523
2.53644
2.5471
2.55724
2.56686
2.57598
2.5846
2.59274
2.6004
2.60759
2.61433
2.62062
2.62646
2.63188
2.63687
2.64144
2.6456
2.64935
2.65271
2.65567
2.65825
2.66044
2.66222
2.66344
2.66492
2.67236
2.63903
2.68629
261.027
-94.7165
13.047
2.08794
-0.0788728
0.198993
0.346854
0.405789
0.456504
0.508692
0.561213
0.613501
0.665461
0.717075
0.768321
0.819173
0.869606
0.919597
0.969122
1.01816
1.06669
1.11469
1.16213
1.20902
1.25531
1.30101
1.34608
1.39052
1.43431
1.47743
1.51988
1.56163
1.60269
1.64302
1.68264
1.72152
1.75966
1.79705
1.83368
1.86955
1.90465
1.93898
1.97254
2.00532
2.03732
2.06855
2.09899
2.12866
2.15754
2.18566
2.213
2.23958
2.26539
2.29045
2.31475
2.33831
2.36112
2.38321
2.40457
2.42522
2.44516
2.4644
2.48295
2.50083
2.51803
2.53458
2.55048
2.56574
2.58038
2.5944
2.60782
2.62065
2.63289
2.64456
2.65568
2.66624
2.67627
2.68577
2.69476
2.70324
2.71122
2.71872
2.72574
2.73229
2.73838
2.74402
2.74922
2.75398
2.75832
2.76223
2.76573
2.76882
2.7715
2.77379
2.77564
2.77695
2.77846
2.78538
2.75379
2.79968
261.028
-94.7132
13.0524
2.09558
-0.0690433
0.210998
0.361026
0.422123
0.47499
0.52932
0.583972
0.638379
0.692446
0.746153
0.799475
0.852389
0.904867
0.956884
1.00842
1.05944
1.10993
1.15988
1.20925
1.25803
1.3062
1.35375
1.40065
1.44688
1.49245
1.53732
1.58148
1.62492
1.66764
1.70961
1.75082
1.79127
1.83095
1.86985
1.90796
1.94528
1.9818
2.01752
2.05243
2.08653
2.11982
2.1523
2.18397
2.21483
2.24489
2.27413
2.30257
2.33022
2.35707
2.38313
2.40841
2.43291
2.45665
2.47962
2.50184
2.52331
2.54405
2.56406
2.58335
2.60194
2.61984
2.63705
2.65358
2.66946
2.68468
2.69926
2.71321
2.72655
2.73928
2.75142
2.76298
2.77396
2.78439
2.79427
2.80361
2.81243
2.82073
2.82852
2.83582
2.84263
2.84897
2.85483
2.86024
2.86519
2.8697
2.87377
2.87741
2.88062
2.88341
2.88579
2.88772
2.88911
2.89066
2.89706
2.86722
2.9117
261.029
-94.7099
13.0578
2.10314
-0.0593301
0.22286
0.375031
0.438263
0.493256
0.549704
0.606462
0.662964
0.719112
0.774886
0.830262
0.885212
0.93971
0.993729
1.04724
1.10023
1.15267
1.20454
1.25581
1.30647
1.35649
1.40586
1.45457
1.50258
1.54989
1.59649
1.64235
1.68746
1.73181
1.77539
1.81819
1.86019
1.9014
1.94179
1.98136
2.02011
2.05803
2.09511
2.13136
2.16676
2.20133
2.23505
2.26793
2.29997
2.33117
2.36153
2.39106
2.41976
2.44764
2.47469
2.50093
2.52637
2.55101
2.57485
2.59792
2.62021
2.64173
2.6625
2.68253
2.70183
2.7204
2.73826
2.75542
2.7719
2.78769
2.80283
2.81731
2.83115
2.84436
2.85696
2.86896
2.88036
2.89118
2.90143
2.91112
2.92027
2.92889
2.93697
2.94455
2.95162
2.95819
2.96428
2.96989
2.97503
2.97971
2.98393
2.9877
2.99104
2.99394
2.9964
2.99842
2.99988
3.00146
3.00736
2.97924
3.02233
261.03
-94.7067
13.0632
2.11061
-0.0497363
0.234576
0.388864
0.454204
0.511298
0.569837
0.628676
0.687245
0.74545
0.803266
0.860669
0.917631
0.974124
1.03012
1.08559
1.14052
1.19488
1.24864
1.30179
1.3543
1.40615
1.45733
1.50782
1.55759
1.60663
1.65492
1.70246
1.74922
1.79519
1.84036
1.88472
1.92826
1.97096
2.01282
2.05384
2.094
2.1333
2.17173
2.2093
2.24599
2.28182
2.31676
2.35084
2.38404
2.41637
2.44784
2.47844
2.50818
2.53706
2.5651
2.59229
2.61864
2.64417
2.66888
2.69278
2.71587
2.73817
2.7597
2.78045
2.80044
2.81968
2.83818
2.85596
2.87303
2.88939
2.90507
2.92007
2.93441
2.9481
2.96115
2.97357
2.98538
2.99659
3.00721
3.01725
3.02673
3.03565
3.04403
3.05187
3.05919
3.066
3.07231
3.07812
3.08344
3.08829
3.09266
3.09658
3.10003
3.10303
3.10559
3.10768
3.10922
3.11084
3.11625
3.08979
3.13153
261.031
-94.7036
13.0684
2.11798
-0.0402654
0.246143
0.402519
0.469942
0.529109
0.589712
0.650604
0.711216
0.77145
0.831282
0.890687
0.949634
1.0081
1.06604
1.12345
1.18029
1.23654
1.29218
1.34718
1.40152
1.45518
1.50814
1.56038
1.61188
1.66263
1.71261
1.7618
1.81018
1.85775
1.90449
1.95039
1.99544
2.03962
2.08294
2.12538
2.16693
2.20759
2.24736
2.28622
2.32419
2.36125
2.39741
2.43266
2.46701
2.50046
2.53301
2.56467
2.59543
2.62531
2.65431
2.68244
2.7097
2.73611
2.76167
2.78638
2.81027
2.83334
2.8556
2.87706
2.89774
2.91764
2.93678
2.95517
2.97282
2.98974
3.00595
3.02147
3.03629
3.05045
3.06394
3.07679
3.089
3.10059
3.11157
3.12196
3.13176
3.14098
3.14964
3.15775
3.16532
3.17237
3.17889
3.18489
3.1904
3.19541
3.19994
3.20398
3.20755
3.21066
3.2133
3.21547
3.21708
3.21874
3.2237
3.19881
3.23928
261.032
-94.7005
13.0736
2.12525
-0.0309202
0.257556
0.415993
0.48547
0.546683
0.609322
0.672241
0.734868
0.797104
0.858925
0.920304
0.981211
1.04162
1.10149
1.16081
1.21954
1.27765
1.33514
1.39196
1.44811
1.50355
1.55827
1.61224
1.66545
1.71788
1.76952
1.82034
1.87033
1.91947
1.96776
2.01518
2.06172
2.10736
2.15211
2.19595
2.23887
2.28088
2.32196
2.36211
2.40132
2.43961
2.47696
2.51337
2.54885
2.5834
2.61702
2.64972
2.68149
2.71235
2.74231
2.77136
2.79951
2.82679
2.85318
2.87871
2.90338
2.9272
2.95019
2.97235
2.9937
3.01425
3.03401
3.053
3.07122
3.0887
3.10544
3.12145
3.13676
3.15138
3.16531
3.17857
3.19118
3.20315
3.21448
3.2252
3.23532
3.24484
3.25378
3.26216
3.26997
3.27724
3.28397
3.29018
3.29586
3.30104
3.30571
3.30988
3.31357
3.31678
3.31951
3.32175
3.32344
3.32513
3.32967
3.30624
3.34553
261.033
-94.6974
13.0788
2.13242
-0.0217038
0.268811
0.429281
0.500784
0.564015
0.628662
0.693579
0.758193
0.822404
0.886186
0.949512
1.01235
1.07467
1.13644
1.19764
1.25823
1.31819
1.3775
1.43613
1.49405
1.55125
1.6077
1.66338
1.71828
1.77237
1.82563
1.87806
1.92963
1.98033
2.03014
2.07906
2.12706
2.17415
2.22031
2.26553
2.30981
2.35314
2.39551
2.43692
2.47737
2.51686
2.55538
2.59294
2.62953
2.66517
2.69984
2.73356
2.76633
2.79816
2.82905
2.85901
2.88805
2.91617
2.94339
2.96971
2.99515
3.01972
3.04342
3.06627
3.08828
3.10947
3.12985
3.14942
3.16821
3.18623
3.20349
3.22
3.23578
3.25085
3.26521
3.27888
3.29188
3.30422
3.3159
3.32695
3.33738
3.3472
3.35642
3.36505
3.37311
3.3806
3.38754
3.39393
3.39979
3.40513
3.40994
3.41425
3.41805
3.42136
3.42418
3.42649
3.42825
3.42998
3.43413
3.41206
3.45026
261.034
-94.6944
13.0838
2.13949
-0.012619
0.279905
0.44238
0.515879
0.581099
0.647725
0.714612
0.781184
0.847341
0.913057
0.978302
1.04304
1.10725
1.1709
1.23395
1.29637
1.35815
1.41925
1.47965
1.53933
1.59826
1.65642
1.71378
1.77034
1.82606
1.88094
1.93495
1.98807
2.0403
2.09162
2.14201
2.19146
2.23997
2.28752
2.3341
2.37971
2.42434
2.46799
2.51064
2.55231
2.59298
2.63266
2.67134
2.70904
2.74574
2.78145
2.81618
2.84993
2.88271
2.91452
2.94537
2.97527
3.00424
3.03226
3.05937
3.08557
3.11086
3.13527
3.1588
3.18146
3.20328
3.22426
3.24441
3.26376
3.28231
3.30008
3.31708
3.33332
3.34883
3.36362
3.37769
3.39107
3.40377
3.4158
3.42718
3.43791
3.44802
3.45751
3.46639
3.47468
3.4824
3.48954
3.49612
3.50215
3.50765
3.51261
3.51704
3.52096
3.52436
3.52726
3.52964
3.53148
3.53324
3.53704
3.51621
3.55343
261.035
-94.6914
13.0888
2.14645
-0.00366869
0.290836
0.455284
0.53075
0.597929
0.666506
0.735333
0.803834
0.871908
0.939528
1.00666
1.07328
1.13935
1.20484
1.26971
1.33395
1.39751
1.46038
1.52253
1.58393
1.64457
1.70441
1.76343
1.82162
1.87896
1.93542
1.99098
2.04564
2.09938
2.15217
2.20402
2.2549
2.3048
2.35372
2.40164
2.44856
2.49447
2.53937
2.58325
2.62611
2.66795
2.70877
2.74856
2.78733
2.82508
2.86181
2.89753
2.93225
2.96596
2.99868
3.03041
3.06117
3.09095
3.11978
3.14765
3.17459
3.2006
3.2257
3.2499
3.27321
3.29564
3.31721
3.33794
3.35783
3.3769
3.39517
3.41265
3.42935
3.4453
3.4605
3.47497
3.48873
3.50178
3.51415
3.52584
3.53688
3.54726
3.55702
3.56615
3.57468
3.58261
3.58995
3.59672
3.60292
3.60857
3.61367
3.61822
3.62225
3.62575
3.62874
3.63119
3.63309
3.63489
3.63838
3.61867
3.65501
261.036
-94.6884
13.0937
2.15331
0.0051446
0.301598
0.46799
0.545393
0.614501
0.684998
0.755735
0.826136
0.896098
0.965592
1.03459
1.10305
1.17095
1.23826
1.30493
1.37094
1.43627
1.50088
1.56475
1.62785
1.69016
1.75166
1.81231
1.87211
1.93103
1.98905
2.04615
2.10232
2.15754
2.21179
2.26506
2.31734
2.36862
2.41888
2.46812
2.51633
2.56351
2.60964
2.65473
2.69876
2.74175
2.78368
2.82456
2.86439
2.90317
2.94091
2.97761
3.01327
3.0479
3.08151
3.11411
3.1457
3.17629
3.2059
3.23454
3.26221
3.28892
3.3147
3.33955
3.36349
3.38653
3.40868
3.42997
3.45039
3.46998
3.48874
3.50669
3.52384
3.54022
3.55583
3.57068
3.58481
3.59821
3.61091
3.62292
3.63425
3.64491
3.65493
3.66431
3.67306
3.6812
3.68874
3.69569
3.70206
3.70786
3.71309
3.71777
3.72191
3.72551
3.72857
3.73109
3.73306
3.73489
3.73812
3.71942
3.75497
261.037
-94.6855
13.0985
2.16006
0.0138184
0.312191
0.480495
0.559804
0.630811
0.703197
0.775814
0.848084
0.919903
0.991243
1.06207
1.13235
1.20205
1.27114
1.33958
1.40735
1.47441
1.54073
1.60629
1.67107
1.73503
1.79815
1.86041
1.92179
1.98227
2.04182
2.10043
2.15809
2.21476
2.27044
2.32512
2.37878
2.43141
2.483
2.53353
2.58301
2.63143
2.67877
2.72504
2.77023
2.81435
2.85738
2.89933
2.9402
2.98
3.01872
3.05638
3.09297
3.12851
3.16299
3.19644
3.22885
3.26024
3.29062
3.31999
3.34838
3.37579
3.40223
3.42773
3.45228
3.47592
3.49864
3.52047
3.54143
3.56152
3.58076
3.59917
3.61677
3.63356
3.64957
3.66481
3.67929
3.69304
3.70606
3.71838
3.73
3.74093
3.75121
3.76082
3.7698
3.77815
3.78588
3.79301
3.79954
3.80549
3.81086
3.81566
3.8199
3.82359
3.82674
3.82933
3.83135
3.83322
3.83621
3.81843
3.85327
261.038
-94.6827
13.1033
2.1667
0.0223502
0.32261
0.492796
0.573979
0.646853
0.721098
0.795564
0.869672
0.943318
1.01647
1.0891
1.16117
1.23264
1.30349
1.37367
1.44315
1.51192
1.57992
1.64715
1.71357
1.77915
1.84388
1.90772
1.97065
2.03266
2.09372
2.15382
2.21293
2.27104
2.32813
2.38419
2.4392
2.49315
2.54604
2.59785
2.64858
2.69821
2.74675
2.79418
2.84051
2.88573
2.92984
2.97284
3.01474
3.05553
3.09523
3.13382
3.17133
3.20775
3.2431
3.27738
3.31059
3.34276
3.3739
3.404
3.43309
3.46118
3.48828
3.5144
3.53957
3.56378
3.58707
3.60944
3.63091
3.65149
3.67121
3.69007
3.7081
3.7253
3.7417
3.75732
3.77216
3.78624
3.79958
3.81219
3.8241
3.8353
3.84582
3.85568
3.86487
3.87343
3.88135
3.88865
3.89534
3.90143
3.90693
3.91185
3.9162
3.91999
3.92321
3.92587
3.92795
3.92985
3.93263
3.91567
3.94989
261.039
-94.6799
13.1079
2.17323
0.0307381
0.332853
0.504888
0.587915
0.662624
0.738696
0.814979
0.890894
0.966337
1.04127
1.11567
1.1895
1.26271
1.33528
1.40717
1.47835
1.54879
1.61845
1.68731
1.75535
1.82253
1.88882
1.95422
2.01868
2.08219
2.14474
2.20629
2.26683
2.32635
2.38482
2.44224
2.49858
2.55384
2.60801
2.66107
2.71302
2.76385
2.81355
2.86213
2.90957
2.95588
3.00105
3.04509
3.08799
3.12976
3.1704
3.20992
3.24832
3.28562
3.32181
3.3569
3.39091
3.42385
3.45572
3.48654
3.51632
3.54508
3.57282
3.59956
3.62532
3.65011
3.67394
3.69684
3.71881
3.73988
3.76006
3.77937
3.79782
3.81542
3.83221
3.84819
3.86337
3.87778
3.89144
3.90435
3.91653
3.92799
3.93876
3.94884
3.95825
3.96701
3.97511
3.98258
3.98943
3.99567
4.0013
4.00634
4.01079
4.01466
4.01796
4.02068
4.02283
4.02476
4.02736
4.01115
4.0448
261.04
-94.6771
13.1125
2.17964
0.0389798
0.342917
0.51677
0.601607
0.67812
0.755987
0.834056
0.911747
0.988953
1.06564
1.14178
1.21733
1.29226
1.36652
1.44009
1.51293
1.58501
1.6563
1.72677
1.79639
1.86514
1.93298
1.9999
2.06586
2.13085
2.19485
2.25784
2.31979
2.38068
2.44051
2.49926
2.55691
2.61345
2.66887
2.72316
2.77631
2.82832
2.87917
2.92887
2.9774
3.02478
3.07099
3.11604
3.15992
3.20265
3.24423
3.28466
3.32394
3.36208
3.3991
3.435
3.46978
3.50347
3.53607
3.56759
3.59805
3.62745
3.65583
3.68317