/*--------------------------------*- C++ -*----------------------------------*\
  =========                 |
  \\      /  F ield         | OpenFOAM: The Open Source CFD Toolbox
   \\    /   O peration     | Website:  https://openfoam.org
    \\  /    A nd           | Version:  10
     \\/     M anipulation  |
\*---------------------------------------------------------------------------*/
FoamFile
{
    format      ascii;
    class       volScalarField;
    location    "29.5";
    object      T;
}
// * * * * * * * * * * * * * * * * * * * * * * * * * * * * * * * * * * * * * //

dimensions      [0 0 0 1 0 0 0];

internalField   nonuniform List<scalar> 
10000
(
374.985
361.287
356.605
354.552
353.437
352.734
352.243
351.876
351.59
351.357
351.162
350.996
350.851
350.723
350.608
350.504
350.409
350.321
350.239
350.162
350.09
350.022
349.958
349.896
349.837
349.781
349.726
349.674
349.624
349.575
349.528
349.482
349.437
349.394
349.352
349.311
349.271
349.232
349.195
349.158
349.121
349.086
349.052
349.018
348.985
348.953
348.922
348.891
348.861
348.832
348.804
348.776
348.749
348.722
348.696
348.671
348.646
348.622
348.599
348.576
348.554
348.533
348.512
348.491
348.472
348.452
348.434
348.416
348.398
348.382
348.365
348.35
348.335
348.32
348.306
348.293
348.28
348.267
348.256
348.245
348.234
348.224
348.214
348.205
348.197
348.189
348.182
348.175
348.169
348.163
348.158
348.153
348.149
348.146
348.143
348.14
348.138
348.137
348.136
348.136
388.611
374.845
367.184
362.715
359.899
357.986
356.602
355.548
354.713
354.03
353.456
352.964
352.534
352.154
351.812
351.501
351.217
350.954
350.71
350.481
350.265
350.062
349.868
349.684
349.508
349.339
349.176
349.019
348.868
348.722
348.581
348.443
348.31
348.18
348.054
347.932
347.812
347.695
347.582
347.471
347.363
347.257
347.154
347.053
346.954
346.858
346.764
346.672
346.583
346.495
346.41
346.326
346.245
346.165
346.087
346.012
345.938
345.866
345.796
345.728
345.661
345.597
345.534
345.473
345.414
345.356
345.3
345.246
345.194
345.144
345.095
345.048
345.003
344.959
344.917
344.877
344.838
344.801
344.766
344.732
344.701
344.67
344.642
344.615
344.59
344.566
344.544
344.524
344.505
344.488
344.472
344.459
344.447
344.436
344.427
344.42
344.414
344.41
344.408
344.407
393.225
382.301
374.572
369.227
365.46
362.712
360.632
359.002
357.686
356.595
355.67
354.872
354.171
353.547
352.986
352.475
352.005
351.571
351.167
350.788
350.431
350.093
349.772
349.466
349.173
348.892
348.622
348.362
348.111
347.867
347.632
347.403
347.182
346.966
346.756
346.552
346.353
346.159
345.969
345.785
345.604
345.428
345.256
345.089
344.925
344.764
344.608
344.455
344.306
344.16
344.017
343.878
343.742
343.61
343.48
343.354
343.231
343.111
342.995
342.881
342.77
342.663
342.558
342.456
342.358
342.262
342.169
342.079
341.992
341.908
341.827
341.748
341.673
341.6
341.53
341.463
341.399
341.337
341.279
341.223
341.17
341.119
341.072
341.027
340.985
340.945
340.909
340.875
340.844
340.815
340.79
340.767
340.746
340.729
340.714
340.702
340.693
340.686
340.682
340.681
395.21
386.565
379.574
374.161
370.001
366.77
364.212
362.143
360.434
358.994
357.759
356.683
355.731
354.88
354.11
353.407
352.76
352.161
351.601
351.075
350.58
350.11
349.663
349.237
348.829
348.438
348.061
347.698
347.347
347.008
346.679
346.36
346.05
345.749
345.455
345.17
344.892
344.62
344.356
344.098
343.846
343.599
343.359
343.124
342.895
342.671
342.452
342.238
342.029
341.825
341.625
341.431
341.241
341.055
340.875
340.698
340.526
340.358
340.195
340.036
339.881
339.731
339.584
339.442
339.304
339.17
339.04
338.914
338.792
338.675
338.561
338.451
338.345
338.244
338.146
338.052
337.962
337.876
337.794
337.716
337.641
337.571
337.504
337.441
337.383
337.327
337.276
337.229
337.185
337.146
337.11
337.077
337.049
337.025
337.004
336.987
336.974
336.964
336.959
336.957
396.256
389.176
383
377.843
373.614
370.155
367.303
364.926
362.915
361.191
359.691
358.37
357.193
356.133
355.17
354.287
353.471
352.712
352.003
351.335
350.705
350.107
349.538
348.994
348.473
347.972
347.49
347.026
346.576
346.142
345.72
345.311
344.914
344.528
344.152
343.786
343.429
343.081
342.741
342.41
342.086
341.77
341.461
341.16
340.865
340.578
340.296
340.022
339.753
339.491
339.235
338.985
338.741
338.503
338.271
338.044
337.823
337.608
337.398
337.193
336.995
336.801
336.613
336.43
336.253
336.081
335.914
335.752
335.596
335.444
335.298
335.157
335.021
334.891
334.765
334.644
334.529
334.418
334.313
334.212
334.117
334.026
333.94
333.86
333.784
333.713
333.648
333.587
333.531
333.48
333.433
333.392
333.356
333.324
333.297
333.276
333.259
333.247
333.239
333.237
396.891
390.884
385.406
380.596
376.46
372.932
369.923
367.343
365.111
363.164
361.446
359.916
358.541
357.293
356.152
355.102
354.127
353.218
352.366
351.562
350.802
350.079
349.39
348.731
348.1
347.492
346.907
346.342
345.796
345.268
344.755
344.257
343.773
343.303
342.844
342.398
341.963
341.539
341.125
340.72
340.326
339.94
339.564
339.196
338.837
338.485
338.142
337.807
337.479
337.16
336.847
336.542
336.244
335.953
335.669
335.393
335.123
334.86
334.604
334.354
334.111
333.875
333.645
333.422
333.205
332.995
332.791
332.594
332.403
332.218
332.04
331.868
331.702
331.542
331.388
331.241
331.1
330.965
330.836
330.713
330.597
330.486
330.381
330.283
330.191
330.104
330.024
329.949
329.881
329.819
329.762
329.712
329.667
329.629
329.596
329.569
329.549
329.534
329.525
329.522
397.314
392.064
387.145
382.677
378.698
375.192
372.116
369.412
367.026
364.909
363.016
361.31
359.763
358.349
357.048
355.844
354.722
353.672
352.684
351.751
350.865
350.023
349.218
348.447
347.708
346.996
346.31
345.647
345.005
344.384
343.781
343.195
342.626
342.072
341.533
341.007
340.494
339.994
339.506
339.03
338.565
338.11
337.666
337.232
336.808
336.394
335.989
335.594
335.207
334.83
334.461
334.101
333.749
333.406
333.071
332.745
332.426
332.116
331.813
331.519
331.232
330.953
330.682
330.419
330.163
329.915
329.674
329.441
329.215
328.997
328.786
328.583
328.387
328.199
328.017
327.843
327.677
327.517
327.365
327.22
327.082
326.952
326.828
326.712
326.603
326.501
326.406
326.318
326.237
326.164
326.097
326.037
325.985
325.939
325.901
325.869
325.845
325.828
325.817
325.814
397.612
392.914
388.435
384.27
380.464
377.026
373.936
371.165
368.676
366.432
364.4
362.55
360.856
359.296
357.851
356.507
355.249
354.068
352.953
351.896
350.892
349.934
349.018
348.139
347.294
346.481
345.696
344.937
344.202
343.489
342.798
342.126
341.472
340.836
340.216
339.612
339.022
338.447
337.886
337.338
336.803
336.28
335.768
335.269
334.781
334.304
333.838
333.383
332.937
332.503
332.078
331.663
331.258
330.863
330.477
330.101
329.734
329.376
329.027
328.688
328.358
328.036
327.724
327.42
327.125
326.839
326.562
326.293
326.033
325.782
325.539
325.305
325.079
324.862
324.653
324.452
324.26
324.076
323.901
323.734
323.575
323.425
323.282
323.148
323.022
322.905
322.795
322.694
322.601
322.516
322.439
322.37
322.31
322.257
322.213
322.177
322.149
322.129
322.117
322.113
397.831
393.545
389.412
385.504
381.864
378.511
375.441
372.639
370.083
367.747
365.606
363.637
361.818
360.131
358.559
357.088
355.706
354.403
353.168
351.995
350.878
349.81
348.787
347.804
346.857
345.945
345.064
344.211
343.384
342.582
341.804
341.047
340.31
339.592
338.893
338.211
337.546
336.897
336.263
335.644
335.039
334.448
333.871
333.306
332.755
332.216
331.689
331.173
330.67
330.178
329.698
329.229
328.771
328.323
327.887
327.461
327.046
326.641
326.247
325.863
325.489
325.125
324.771
324.428
324.094
323.771
323.457
323.153
322.858
322.574
322.299
322.034
321.778
321.532
321.296
321.069
320.851
320.643
320.445
320.255
320.076
319.905
319.744
319.592
319.45
319.317
319.193
319.078
318.973
318.877
318.79
318.712
318.643
318.584
318.534
318.493
318.461
318.438
318.424
318.42
397.996
394.025
390.164
386.47
382.98
379.715
376.681
373.871
371.272
368.869
366.644
364.577
362.653
360.856
359.171
357.587
356.091
354.674
353.329
352.047
350.822
349.649
348.523
347.439
346.395
345.387
344.412
343.468
342.552
341.663
340.798
339.958
339.139
338.342
337.565
336.806
336.066
335.344
334.638
333.949
333.275
332.617
331.973
331.345
330.73
330.129
329.541
328.967
328.406
327.857
327.322
326.798
326.287
325.788
325.302
324.827
324.363
323.912
323.472
323.043
322.626
322.22
321.826
321.442
321.07
320.709
320.359
320.019
319.691
319.373
319.067
318.771
318.485
318.211
317.947
317.693
317.451
317.218
316.997
316.786
316.585
316.395
316.215
316.046
315.886
315.738
315.6
315.472
315.354
315.247
315.149
315.063
314.986
314.92
314.864
314.818
314.782
314.757
314.742
314.737
398.123
394.396
390.752
387.233
383.873
380.692
377.698
374.893
372.27
369.818
367.526
365.38
363.367
361.474
359.689
358.002
356.402
354.882
353.433
352.048
350.722
349.449
348.225
347.045
345.907
344.806
343.74
342.706
341.703
340.729
339.781
338.859
337.96
337.084
336.229
335.396
334.582
333.787
333.01
332.252
331.51
330.785
330.076
329.384
328.706
328.044
327.396
326.763
326.145
325.54
324.95
324.373
323.809
323.259
322.722
322.198
321.687
321.189
320.704
320.231
319.771
319.323
318.888
318.465
318.054
317.655
317.269
316.894
316.532
316.182
315.843
315.516
315.202
314.898
314.607
314.328
314.06
313.803
313.559
313.326
313.104
312.894
312.696
312.509
312.333
312.169
312.017
311.875
311.746
311.627
311.52
311.424
311.34
311.266
311.205
311.154
311.115
311.087
311.07
311.065
398.222
394.686
391.214
387.839
384.589
381.483
378.531
375.737
373.099
370.612
368.267
366.055
363.966
361.99
360.116
358.336
356.642
355.026
353.48
352
350.578
349.21
347.892
346.62
345.391
344.2
343.046
341.926
340.838
339.781
338.751
337.748
336.771
335.818
334.888
333.98
333.093
332.227
331.38
330.553
329.744
328.953
328.18
327.424
326.684
325.961
325.254
324.563
323.888
323.227
322.582
321.952
321.336
320.735
320.148
319.576
319.018
318.473
317.943
317.426
316.923
316.434
315.958
315.495
315.046
314.611
314.188
313.779
313.383
312.999
312.629
312.272
311.928
311.596
311.278
310.972
310.679
310.399
310.132
309.877
309.635
309.405
309.188
308.983
308.792
308.612
308.445
308.291
308.149
308.019
307.902
307.797
307.705
307.625
307.557
307.502
307.459
307.428
307.41
307.404
398.3
394.915
391.579
388.321
385.163
382.122
379.208
376.428
373.783
371.268
368.881
366.613
364.459
362.409
360.456
358.593
356.812
355.107
353.472
351.901
350.389
348.932
347.524
346.164
344.847
343.57
342.331
341.127
339.956
338.817
337.708
336.627
335.572
334.543
333.539
332.558
331.6
330.663
329.747
328.852
327.977
327.121
326.284
325.465
324.665
323.881
323.116
322.367
321.635
320.919
320.22
319.537
318.869
318.218
317.582
316.961
316.355
315.765
315.19
314.63
314.084
313.553
313.037
312.535
312.048
311.576
311.117
310.673
310.243
309.828
309.426
309.039
308.665
308.306
307.96
307.628
307.31
307.006
306.716
306.44
306.177
305.928
305.692
305.47
305.262
305.067
304.886
304.719
304.564
304.424
304.297
304.183
304.083
303.996
303.922
303.862
303.816
303.783
303.763
303.756
398.361
395.095
391.869
388.705
385.622
382.636
379.756
376.99
374.339
371.803
369.379
367.064
364.852
362.738
360.714
358.775
356.915
355.128
353.409
351.754
350.156
348.613
347.121
345.676
344.274
342.914
341.593
340.308
339.057
337.839
336.652
335.494
334.364
333.261
332.183
331.131
330.102
329.096
328.112
327.15
326.21
325.289
324.389
323.509
322.647
321.805
320.98
320.174
319.386
318.616
317.863
317.128
316.409
315.707
315.022
314.354
313.701
313.065
312.446
311.842
311.254
310.682
310.126
309.586
309.061
308.551
308.057
307.579
307.115
306.667
306.235
305.817
305.414
305.027
304.654
304.297
303.954
303.626
303.313
303.015
302.732
302.463
302.21
301.97
301.746
301.536
301.341
301.16
300.994
300.842
300.705
300.582
300.474
300.381
300.302
300.237
300.187
300.151
300.129
300.122
398.41
395.238
392.099
389.01
385.988
383.046
380.195
377.44
374.784
372.23
369.776
367.419
365.156
362.983
360.895
358.887
356.953
355.091
353.294
351.558
349.881
348.257
346.683
345.157
343.674
342.234
340.833
339.469
338.141
336.845
335.582
334.349
333.146
331.97
330.821
329.698
328.599
327.525
326.475
325.447
324.442
323.458
322.496
321.554
320.632
319.731
318.849
317.987
317.143
316.319
315.513
314.725
313.956
313.204
312.471
311.755
311.056
310.375
309.711
309.064
308.434
307.822
307.226
306.647
306.084
305.538
305.009
304.496
304
303.519
303.056
302.608
302.176
301.761
301.362
300.979
300.611
300.26
299.925
299.605
299.301
299.013
298.741
298.485
298.244
298.019
297.81
297.616
297.438
297.275
297.128
296.997
296.881
296.781
296.696
296.626
296.572
296.534
296.511
296.504
398.448
395.35
392.279
389.25
386.276
383.37
380.541
377.794
375.134
372.563
370.081
367.687
365.378
363.152
361.004
358.932
356.931
354.998
353.128
351.317
349.563
347.862
346.211
344.607
343.047
341.529
340.051
338.611
337.207
335.837
334.499
333.193
331.918
330.67
329.451
328.259
327.093
325.952
324.836
323.743
322.674
321.628
320.604
319.602
318.621
317.661
316.723
315.804
314.906
314.028
313.169
312.33
311.51
310.71
309.928
309.165
308.42
307.694
306.986
306.297
305.626
304.972
304.337
303.719
303.12
302.538
301.973
301.426
300.897
300.385
299.89
299.412
298.952
298.509
298.083
297.675
297.283
296.908
296.55
296.209
295.885
295.578
295.288
295.014
294.758
294.518
294.294
294.088
293.898
293.724
293.567
293.427
293.304
293.196
293.106
293.032
292.974
292.933
292.909
292.901
398.477
395.437
392.419
389.436
386.5
383.621
380.808
378.067
375.401
372.813
370.305
367.877
365.525
363.25
361.048
358.917
356.853
354.853
352.913
351.032
349.206
347.431
345.706
344.027
342.393
340.8
339.248
337.734
336.256
334.813
333.404
332.026
330.68
329.363
328.075
326.815
325.582
324.376
323.194
322.038
320.906
319.798
318.714
317.652
316.613
315.596
314.601
313.627
312.675
311.744
310.833
309.943
309.073
308.224
307.394
306.584
305.794
305.024
304.273
303.541
302.828
302.135
301.46
300.805
300.168
299.55
298.951
298.37
297.808
297.264
296.738
296.231
295.743
295.272
294.82
294.386
293.97
293.572
293.192
292.83
292.486
292.159
291.851
291.561
291.288
291.033
290.796
290.576
290.374
290.19
290.023
289.874
289.743
289.629
289.533
289.455
289.393
289.35
289.324
289.315
398.5
395.503
392.525
389.577
386.669
383.811
381.008
378.268
375.595
372.991
370.458
367.996
365.606
363.285
361.032
358.844
356.721
354.658
352.654
350.705
348.81
346.965
345.169
343.419
341.713
340.048
338.424
336.838
335.289
333.775
332.296
330.849
329.433
328.048
326.693
325.367
324.068
322.797
321.552
320.333
319.139
317.971
316.826
315.706
314.609
313.535
312.485
311.456
310.45
309.467
308.505
307.564
306.645
305.747
304.87
304.014
303.179
302.365
301.57
300.797
300.043
299.31
298.597
297.903
297.23
296.576
295.942
295.328
294.733
294.158
293.602
293.066
292.549
292.051
291.573
291.113
290.673
290.252
289.85
289.467
289.103
288.758
288.431
288.124
287.835
287.565
287.314
287.082
286.868
286.674
286.497
286.34
286.201
286.08
285.979
285.895
285.831
285.785
285.757
285.748
398.516
395.552
392.604
389.681
386.793
383.948
381.151
378.409
375.726
373.104
370.547
368.053
365.625
363.261
360.959
358.72
356.54
354.418
352.352
350.339
348.378
346.466
344.602
342.783
341.007
339.274
337.58
335.924
334.306
332.723
331.175
329.66
328.178
326.726
325.305
323.914
322.551
321.216
319.908
318.628
317.373
316.145
314.942
313.763
312.61
311.48
310.374
309.292
308.233
307.198
306.185
305.194
304.226
303.281
302.357
301.455
300.576
299.717
298.881
298.065
297.271
296.498
295.747
295.016
294.306
293.617
292.949
292.301
291.674
291.068
290.482
289.917
289.371
288.847
288.342
287.858
287.394
286.95
286.526
286.122
285.738
285.374
285.03
284.706
284.401
284.117
283.852
283.607
283.382
283.176
282.99
282.824
282.677
282.55
282.443
282.355
282.287
282.239
282.209
282.2
398.528
395.586
392.659
389.754
386.878
384.04
381.244
378.497
375.801
373.161
370.579
368.055
365.59
363.184
360.837
358.547
356.314
354.135
352.01
349.936
347.912
345.936
344.006
342.121
340.278
338.477
336.716
334.994
333.308
331.658
330.043
328.462
326.914
325.397
323.912
322.456
321.03
319.633
318.264
316.923
315.609
314.321
313.06
311.825
310.615
309.43
308.27
307.135
306.024
304.937
303.874
302.834
301.818
300.825
299.855
298.908
297.984
297.083
296.204
295.347
294.513
293.701
292.911
292.143
291.398
290.674
289.971
289.291
288.632
287.995
287.379
286.784
286.211
285.66
285.13
284.62
284.133
283.666
283.22
282.795
282.392
282.009
281.647
281.307
280.987
280.687
280.409
280.151
279.915
279.698
279.503
279.328
279.174
279.041
278.928
278.835
278.764
278.713
278.682
278.672
398.536
395.608
392.694
389.799
386.93
384.093
381.294
378.538
375.829
373.169
370.561
368.006
365.505
363.059
360.668
358.33
356.045
353.813
351.631
349.498
347.414
345.376
343.383
341.434
339.527
337.661
335.835
334.046
332.295
330.581
328.901
327.255
325.642
324.062
322.513
320.995
319.508
318.049
316.62
315.219
313.846
312.501
311.183
309.891
308.626
307.387
306.174
304.986
303.823
302.685
301.573
300.484
299.42
298.381
297.365
296.373
295.406
294.461
293.541
292.643
291.77
290.919
290.091
289.287
288.505
287.746
287.01
286.297
285.607
284.939
284.293
283.67
283.07
282.492
281.936
281.402
280.89
280.401
279.934
279.489
279.066
278.664
278.285
277.928
277.592
277.279
276.987
276.717
276.468
276.242
276.037
275.853
275.692
275.552
275.434
275.337
275.262
275.208
275.176
275.165
398.54
395.62
392.712
389.821
386.953
384.113
381.307
378.539
375.813
373.132
370.498
367.913
365.377
362.892
360.457
358.073
355.739
353.454
351.218
349.029
346.886
344.789
342.735
340.724
338.755
336.826
334.936
333.084
331.27
329.491
327.748
326.039
324.364
322.721
321.111
319.531
317.983
316.465
314.976
313.517
312.086
310.684
309.31
307.963
306.643
305.35
304.084
302.845
301.631
300.444
299.282
298.145
297.034
295.948
294.888
293.852
292.841
291.854
290.892
289.955
289.041
288.152
287.287
286.446
285.63
284.836
284.067
283.322
282.6
281.901
281.227
280.575
279.947
279.343
278.761
278.203
277.668
277.157
276.668
276.203
275.76
275.341
274.944
274.57
274.219
273.891
273.586
273.304
273.044
272.807
272.592
272.401
272.232
272.085
271.962
271.86
271.782
271.726
271.692
271.681
398.541
395.623
392.716
389.823
386.951
384.104
381.288
378.506
375.761
373.057
370.396
367.779
365.209
362.685
360.209
357.78
355.398
353.062
350.773
348.53
346.331
344.176
342.063
339.992
337.962
335.972
334.021
332.108
330.231
328.391
326.586
324.815
323.079
321.375
319.704
318.065
316.457
314.88
313.334
311.817
310.329
308.871
307.441
306.04
304.667
303.321
302.003
300.713
299.449
298.212
297.002
295.818
294.66
293.529
292.423
291.344
290.29
289.262
288.259
287.281
286.329
285.402
284.5
283.623
282.772
281.944
281.142
280.364
279.612
278.883
278.179
277.5
276.845
276.214
275.608
275.025
274.467
273.934
273.424
272.938
272.476
272.039
271.625
271.235
270.869
270.526
270.208
269.913
269.642
269.395
269.171
268.971
268.795
268.642
268.513
268.407
268.325
268.267
268.232
268.22
398.539
395.618
392.707
389.808
386.928
384.071
381.24
378.441
375.676
372.948
370.259
367.611
365.006
362.444
359.926
357.453
355.024
352.64
350.3
348.004
345.75
343.539
341.37
339.241
337.152
335.103
333.091
331.118
329.181
327.281
325.415
323.585
321.788
320.025
318.295
316.597
314.931
313.296
311.693
310.119
308.576
307.063
305.579
304.124
302.698
301.3
299.931
298.59
297.277
295.991
294.733
293.503
292.299
291.123
289.973
288.85
287.754
286.685
285.641
284.625
283.634
282.669
281.731
280.818
279.932
279.071
278.236
277.427
276.643
275.885
275.152
274.445
273.763
273.107
272.475
271.869
271.288
270.732
270.202
269.696
269.215
268.759
268.329
267.923
267.541
267.185
266.853
266.546
266.264
266.006
265.774
265.565
265.382
265.222
265.088
264.978
264.892
264.832
264.795
264.783
398.536
395.607
392.687
389.778
386.886
384.015
381.168
378.349
375.562
372.808
370.091
367.411
364.771
362.171
359.613
357.097
354.622
352.19
349.801
347.453
345.146
342.881
340.656
338.471
336.325
334.218
332.148
330.116
328.121
326.161
324.237
322.348
320.493
318.672
316.883
315.128
313.405
311.714
310.054
308.425
306.827
305.26
303.722
302.215
300.737
299.288
297.868
296.478
295.116
293.782
292.477
291.2
289.951
288.731
287.537
286.372
285.234
284.124
283.041
281.985
280.956
279.955
278.98
278.032
277.112
276.217
275.35
274.509
273.695
272.908
272.146
271.412
270.703
270.021
269.365
268.735
268.132
267.554
267.003
266.477
265.978
265.504
265.056
264.634
264.238
263.868
263.523
263.204
262.911
262.643
262.401
262.184
261.993
261.828
261.688
261.574
261.485
261.422
261.384
261.371
398.53
395.59
392.657
389.735
386.828
383.94
381.074
378.234
375.423
372.642
369.895
367.183
364.508
361.87
359.272
356.713
354.194
351.716
349.277
346.879
344.521
342.203
339.924
337.684
335.483
333.319
331.193
329.104
327.051
325.034
323.053
321.106
319.194
317.315
315.47
313.659
311.88
310.133
308.418
306.735
305.083
303.462
301.872
300.313
298.784
297.285
295.816
294.376
292.966
291.585
290.234
288.911
287.618
286.353
285.117
283.909
282.73
281.58
280.457
279.363
278.297
277.258
276.248
275.266
274.311
273.384
272.485
271.613
270.769
269.952
269.163
268.401
267.666
266.958
266.278
265.625
264.999
264.4
263.828
263.283
262.764
262.273
261.809
261.371
260.96
260.576
260.218
259.887
259.583
259.305
259.054
258.829
258.631
258.46
258.315
258.196
258.104
258.038
257.999
257.986
398.523
395.567
392.62
389.681
386.756
383.849
380.962
378.098
375.261
372.452
369.675
366.93
364.219
361.544
358.906
356.305
353.743
351.218
348.732
346.285
343.877
341.507
339.176
336.882
334.626
332.408
330.226
328.082
325.973
323.9
321.862
319.859
317.891
315.957
314.057
312.19
310.356
308.555
306.786
305.049
303.345
301.672
300.03
298.42
296.84
295.292
293.773
292.286
290.828
289.401
288.004
286.637
285.299
283.991
282.713
281.464
280.244
279.053
277.892
276.76
275.656
274.582
273.536
272.519
271.531
270.572
269.641
268.739
267.865
267.019
266.202
265.413
264.652
263.92
263.215
262.539
261.89
261.27
260.678
260.113
259.577
259.068
258.587
258.133
257.708
257.31
256.939
256.597
256.281
255.994
255.734
255.501
255.296
255.118
254.968
254.845
254.749
254.681
254.641
254.627
398.514
395.541
392.575
389.617
386.672
383.743
380.833
377.944
375.08
372.242
369.433
366.655
363.909
361.196
358.518
355.876
353.27
350.7
348.168
345.673
343.215
340.795
338.412
336.066
333.758
331.486
329.25
327.051
324.888
322.76
320.667
318.61
316.587
314.598
312.643
310.722
308.834
306.98
305.158
303.369
301.613
299.888
298.196
296.535
294.906
293.309
291.743
290.208
288.704
287.231
285.788
284.377
282.996
281.645
280.325
279.035
277.775
276.545
275.345
274.176
273.036
271.926
270.845
269.794
268.773
267.782
266.819
265.887
264.983
264.109
263.264
262.449
261.662
260.905
260.177
259.478
258.807
258.166
257.553
256.97
256.415
255.889
255.391
254.922
254.482
254.071
253.688
253.333
253.007
252.71
252.441
252.2
251.988
251.804
251.649
251.522
251.423
251.353
251.31
251.296
398.504
395.51
392.523
389.545
386.577
383.624
380.689
377.774
374.881
372.013
369.172
366.36
363.578
360.828
358.111
355.427
352.778
350.164
347.586
345.044
342.538
340.069
337.635
335.239
332.878
330.554
328.266
326.013
323.796
321.615
319.469
317.357
315.281
313.238
311.23
309.256
307.316
305.409
303.535
301.695
299.887
298.113
296.37
294.661
292.983
291.338
289.724
288.142
286.593
285.074
283.588
282.133
280.709
279.316
277.954
276.624
275.325
274.056
272.818
271.612
270.436
269.29
268.175
267.091
266.037
265.014
264.021
263.058
262.126
261.224
260.352
259.51
258.698
257.916
257.164
256.442
255.75
255.088
254.456
253.853
253.28
252.737
252.223
251.739
251.285
250.86
250.464
250.098
249.762
249.454
249.177
248.928
248.709
248.519
248.359
248.227
248.125
248.053
248.009
247.995
398.492
395.477
392.467
389.464
386.473
383.494
380.532
377.589
374.667
371.768
368.895
366.048
363.23
360.442
357.686
354.961
352.27
349.612
346.989
344.401
341.847
339.329
336.847
334.4
331.989
329.614
327.274
324.969
322.7
320.466
318.267
316.104
313.974
311.88
309.819
307.793
305.801
303.843
301.918
300.027
298.17
296.346
294.554
292.796
291.071
289.378
287.718
286.091
284.496
282.933
281.403
279.904
278.438
277.004
275.602
274.232
272.893
271.587
270.312
269.068
267.857
266.676
265.528
264.41
263.324
262.27
261.246
260.254
259.293
258.363
257.464
256.596
255.759
254.953
254.178
253.434
252.72
252.037
251.385
250.764
250.173
249.613
249.083
248.584
248.115
247.677
247.269
246.892
246.545
246.228
245.942
245.685
245.459
245.264
245.098
244.963
244.857
244.782
244.737
244.722
398.48
395.44
392.405
389.378
386.36
383.355
380.365
377.392
374.44
371.509
368.602
365.721
362.867
360.041
357.245
354.48
351.747
349.046
346.378
343.744
341.144
338.579
336.048
333.553
331.092
328.666
326.276
323.92
321.6
319.315
317.065
314.849
312.668
310.522
308.411
306.334
304.291
302.283
300.308
298.367
296.461
294.588
292.748
290.943
289.17
287.431
285.725
284.053
282.413
280.807
279.234
277.693
276.185
274.711
273.268
271.859
270.482
269.138
267.826
266.547
265.3
264.085
262.903
261.753
260.635
259.549
258.496
257.474
256.485
255.528
254.602
253.709
252.847
252.017
251.219
250.453
249.718
249.015
248.343
247.703
247.095
246.518
245.973
245.458
244.976
244.524
244.104
243.716
243.358
243.032
242.737
242.473
242.24
242.038
241.868
241.728
241.62
241.543
241.496
241.481
398.467
395.401
392.34
389.285
386.24
383.207
380.188
377.185
374.201
371.238
368.297
365.38
362.49
359.626
356.791
353.986
351.211
348.467
345.755
343.077
340.431
337.819
335.241
332.697
330.188
327.713
325.273
322.868
320.497
318.162
315.861
313.595
311.364
309.168
307.006
304.879
302.787
300.729
298.705
296.716
294.761
292.84
290.953
289.101
287.282
285.498
283.747
282.03
280.347
278.697
277.082
275.499
273.951
272.436
270.954
269.506
268.091
266.71
265.362
264.047
262.765
261.517
260.301
259.119
257.97
256.854
255.771
254.721
253.703
252.719
251.767
250.848
249.962
249.109
248.288
247.5
246.744
246.021
245.33
244.672
244.046
243.453
242.892
242.363
241.866
241.402
240.97
240.57
240.202
239.866
239.563
239.291
239.052
238.844
238.669
238.525
238.414
238.334
238.287
238.271
398.454
395.36
392.271
389.188
386.114
383.051
380.002
376.968
373.952
370.955
367.98
365.028
362.101
359.199
356.325
353.48
350.663
347.877
345.123
342.399
339.709
337.051
334.426
331.835
329.278
326.755
324.266
321.812
319.393
317.008
314.658
312.342
310.062
307.816
305.605
303.429
301.288
299.182
297.11
295.073
293.071
291.103
289.17
287.271
285.407
283.578
281.783
280.022
278.296
276.604
274.947
273.324
271.735
270.18
268.66
267.174
265.722
264.304
262.92
261.57
260.254
258.972
257.725
256.511
255.331
254.184
253.072
251.993
250.948
249.937
248.96
248.016
247.106
246.229
245.386
244.576
243.799
243.056
242.347
241.671
241.028
240.418
239.841
239.298
238.788
238.311
237.867
237.456
237.078
236.733
236.421
236.142
235.896
235.682
235.502
235.355
235.24
235.158
235.109
235.093
398.439
395.317
392.199
389.087
385.983
382.889
379.809
376.743
373.694
370.664
367.654
364.666
361.702
358.762
355.849
352.964
350.106
347.278
344.481
341.714
338.979
336.276
333.605
330.968
328.364
325.794
323.257
320.755
318.288
315.854
313.456
311.092
308.763
306.469
304.21
301.986
299.797
297.643
295.524
293.44
291.391
289.377
287.399
285.455
283.546
281.673
279.834
278.031
276.262
274.529
272.831
271.167
269.539
267.945
266.386
264.863
263.374
261.92
260.501
259.117
257.767
256.452
255.172
253.927
252.717
251.541
250.4
249.293
248.221
247.183
246.18
245.212
244.278
243.378
242.513
241.682
240.885
240.122
239.394
238.7
238.04
237.414
236.823
236.265
235.741
235.251
234.796
234.374
233.986
233.632
233.311
233.025
232.772
232.553
232.368
232.217
232.099
232.015
231.965
231.948
398.424
395.272
392.124
388.981
385.847
382.722
379.61
376.511
373.429
370.364
367.319
364.295
361.294
358.316
355.365
352.439
349.541
346.672
343.832
341.022
338.243
335.495
332.78
330.097
327.447
324.83
322.247
319.698
317.183
314.702
312.256
309.845
307.468
305.127
302.82
300.549
298.313
296.113
293.947
291.817
289.723
287.664
285.64
283.652
281.7
279.783
277.902
276.056
274.246
272.472
270.733
269.03
267.363
265.731
264.134
262.574
261.049
259.559
258.106
256.687
255.305
253.958
252.646
251.37
250.13
248.924
247.755
246.621
245.522
244.458
243.43
242.437
241.48
240.557
239.67
238.818
238.001
237.219
236.473
235.761
235.084
234.443
233.836
233.264
232.727
232.225
231.757
231.325
230.927
230.564
230.235
229.942
229.682
229.458
229.268
229.113
228.992
228.906
228.854
228.837
398.409
395.226
392.047
388.873
385.707
382.55
379.405
376.273
373.157
370.057
366.977
363.917
360.878
357.863
354.873
351.907
348.969
346.059
343.177
340.324
337.502
334.711
331.951
329.223
326.528
323.865
321.236
318.641
316.08
313.552
311.06
308.602
306.179
303.791
301.438
299.12
296.838
294.592
292.381
290.206
288.066
285.963
283.896
281.864
279.869
277.909
275.986
274.099
272.248
270.434
268.655
266.913
265.207
263.538
261.904
260.308
258.747
257.223
255.735
254.283
252.868
251.489
250.146
248.84
247.57
246.336
245.138
243.977
242.851
241.762
240.709
239.693
238.712
237.767
236.858
235.986
235.149
234.348
233.583
232.854
232.161
231.504
230.882
230.296
229.746
229.232
228.753
228.31
227.902
227.53
227.193
226.892
226.627
226.397
226.202
226.043
225.92
225.831
225.779
225.761
398.393
395.178
391.968
388.762
385.563
382.374
379.196
376.03
372.879
369.745
366.629
363.532
360.457
357.404
354.374
351.37
348.392
345.44
342.517
339.622
336.758
333.923
331.119
328.347
325.608
322.9
320.226
317.585
314.979
312.406
309.867
307.364
304.895
302.461
300.063
297.7
295.373
293.081
290.826
288.606
286.423
284.276
282.165
280.091
278.053
276.052
274.088
272.16
270.269
268.415
266.597
264.817
263.073
261.367
259.697
258.064
256.469
254.91
253.389
251.904
250.457
249.046
247.673
246.337
245.038
243.775
242.55
241.362
240.211
239.096
238.019
236.979
235.975
235.008
234.078
233.185
232.329
231.51
230.727
229.981
229.271
228.598
227.962
227.363
226.799
226.273
225.783
225.329
224.912
224.531
224.186
223.878
223.607
223.371
223.172
223.009
222.882
222.792
222.738
222.72
398.377
395.13
391.887
388.649
385.417
382.195
378.983
375.783
372.598
369.428
366.276
363.143
360.03
356.939
353.872
350.828