/*--------------------------------*- C++ -*----------------------------------*\
  =========                 |
  \\      /  F ield         | OpenFOAM: The Open Source CFD Toolbox
   \\    /   O peration     | Website:  https://openfoam.org
    \\  /    A nd           | Version:  10
     \\/     M anipulation  |
\*---------------------------------------------------------------------------*/
FoamFile
{
    format      ascii;
    class       volScalarField;
    location    "29.5";
    object      T_0;
}
// * * * * * * * * * * * * * * * * * * * * * * * * * * * * * * * * * * * * * //

dimensions      [0 0 0 1 0 0 0];

internalField   nonuniform List<scalar> 
10000
(
374.981
361.286
356.604
354.551
353.436
352.732
352.241
351.875
351.588
351.355
351.161
350.994
350.85
350.721
350.607
350.502
350.407
350.319
350.237
350.161
350.089
350.021
349.956
349.895
349.836
349.779
349.725
349.673
349.622
349.573
349.526
349.48
349.436
349.393
349.351
349.31
349.27
349.231
349.193
349.156
349.12
349.085
349.05
349.017
348.984
348.952
348.92
348.89
348.86
348.831
348.802
348.774
348.747
348.72
348.695
348.669
348.645
348.621
348.597
348.575
348.552
348.531
348.51
348.49
348.47
348.451
348.432
348.414
348.397
348.38
348.364
348.348
348.333
348.318
348.304
348.291
348.278
348.266
348.254
348.243
348.232
348.222
348.212
348.204
348.195
348.187
348.18
348.173
348.167
348.161
348.156
348.151
348.147
348.144
348.141
348.138
348.137
348.135
348.134
348.134
388.61
374.846
367.184
362.715
359.9
357.986
356.602
355.548
354.713
354.03
353.456
352.964
352.534
352.153
351.811
351.501
351.217
350.954
350.709
350.48
350.265
350.061
349.868
349.683
349.507
349.338
349.175
349.019
348.868
348.721
348.58
348.443
348.309
348.18
348.053
347.931
347.811
347.695
347.581
347.47
347.362
347.256
347.153
347.052
346.953
346.857
346.763
346.671
346.582
346.494
346.408
346.325
346.243
346.164
346.086
346.01
345.937
345.865
345.795
345.726
345.66
345.595
345.532
345.471
345.412
345.355
345.299
345.245
345.193
345.142
345.093
345.046
345.001
344.957
344.915
344.875
344.837
344.8
344.764
344.731
344.699
344.669
344.64
344.613
344.588
344.564
344.542
344.522
344.503
344.486
344.471
344.457
344.445
344.434
344.426
344.418
344.413
344.409
344.406
344.405
393.223
382.302
374.572
369.227
365.459
362.711
360.631
359.001
357.685
356.594
355.67
354.871
354.17
353.546
352.985
352.474
352.004
351.57
351.166
350.787
350.43
350.092
349.771
349.465
349.172
348.891
348.621
348.36
348.109
347.866
347.63
347.402
347.18
346.964
346.754
346.55
346.351
346.157
345.967
345.783
345.602
345.426
345.254
345.086
344.922
344.762
344.605
344.452
344.303
344.157
344.015
343.875
343.74
343.607
343.478
343.352
343.229
343.109
342.992
342.878
342.768
342.66
342.555
342.454
342.355
342.259
342.166
342.076
341.989
341.905
341.824
341.745
341.67
341.597
341.527
341.46
341.396
341.334
341.276
341.22
341.167
341.116
341.069
341.024
340.982
340.942
340.906
340.872
340.841
340.812
340.787
340.764
340.743
340.726
340.711
340.699
340.689
340.683
340.679
340.677
395.208
386.565
379.574
374.161
370.001
366.769
364.211
362.142
360.434
358.994
357.758
356.682
355.73
354.879
354.109
353.406
352.759
352.159
351.599
351.074
350.578
350.108
349.662
349.235
348.827
348.436
348.059
347.696
347.345
347.005
346.676
346.357
346.047
345.746
345.453
345.167
344.889
344.618
344.353
344.095
343.842
343.596
343.356
343.121
342.892
342.667
342.448
342.234
342.025
341.821
341.622
341.427
341.237
341.052
340.871
340.694
340.522
340.354
340.191
340.032
339.877
339.727
339.58
339.438
339.3
339.166
339.036
338.91
338.788
338.67
338.557
338.447
338.341
338.239
338.142
338.048
337.958
337.872
337.789
337.711
337.637
337.566
337.5
337.437
337.378
337.323
337.272
337.224
337.181
337.141
337.105
337.073
337.045
337.02
336.999
336.982
336.969
336.96
336.954
336.952
396.254
389.176
382.999
377.842
373.614
370.154
367.303
364.925
362.914
361.189
359.69
358.369
357.192
356.132
355.168
354.285
353.469
352.71
352.001
351.333
350.703
350.105
349.535
348.991
348.47
347.969
347.487
347.023
346.573
346.139
345.717
345.308
344.911
344.524
344.148
343.782
343.425
343.077
342.737
342.406
342.082
341.766
341.457
341.156
340.861
340.573
340.292
340.017
339.749
339.487
339.231
338.981
338.737
338.498
338.266
338.039
337.818
337.603
337.393
337.188
336.989
336.796
336.608
336.425
336.248
336.075
335.908
335.747
335.59
335.439
335.293
335.152
335.016
334.885
334.759
334.639
334.523
334.413
334.307
334.206
334.111
334.02
333.935
333.854
333.778
333.708
333.642
333.581
333.525
333.474
333.428
333.386
333.35
333.318
333.292
333.27
333.253
333.241
333.234
333.231
396.89
390.884
385.406
380.596
376.459
372.931
369.922
367.342
365.11
363.162
361.445
359.915
358.539
357.291
356.15
355.1
354.125
353.216
352.363
351.56
350.799
350.076
349.387
348.728
348.096
347.489
346.904
346.339
345.793
345.264
344.751
344.253
343.769
343.298
342.84
342.394
341.959
341.534
341.12
340.716
340.321
339.935
339.559
339.191
338.831
338.48
338.137
337.802
337.474
337.154
336.841
336.536
336.238
335.947
335.664
335.387
335.117
334.854
334.597
334.348
334.105
333.869
333.639
333.416
333.199
332.989
332.785
332.588
332.396
332.212
332.033
331.861
331.695
331.535
331.382
331.234
331.093
330.958
330.829
330.706
330.59
330.479
330.375
330.276
330.184
330.097
330.017
329.942
329.874
329.811
329.755
329.705
329.66
329.622
329.589
329.562
329.542
329.527
329.518
329.515
397.312
392.064
387.145
382.677
378.697
375.192
372.114
369.411
367.025
364.907
363.014
361.309
359.761
358.347
357.046
355.841
354.719
353.669
352.681
351.747
350.862
350.019
349.214
348.444
347.704
346.992
346.306
345.643
345.001
344.379
343.776
343.191
342.621
342.067
341.528
341.002
340.489
339.989
339.501
339.024
338.559
338.104
337.66
337.226
336.802
336.388
335.983
335.587
335.201
334.823
334.454
334.094
333.743
333.399
333.064
332.738
332.419
332.109
331.806
331.511
331.225
330.946
330.675
330.411
330.155
329.907
329.666
329.433
329.208
328.989
328.779
328.575
328.379
328.191
328.009
327.835
327.669
327.509
327.357
327.212
327.074
326.944
326.82
326.704
326.595
326.493
326.398
326.31
326.229
326.155
326.089
326.029
325.977
325.931
325.893
325.861
325.837
325.819
325.809
325.805
397.611
392.914
388.434
384.269
380.463
377.025
373.935
371.164
368.674
366.43
364.398
362.548
360.853
359.293
357.849
356.504
355.246
354.065
352.949
351.893
350.888
349.93
349.014
348.135
347.29
346.476
345.691
344.932
344.197
343.484
342.792
342.12
341.466
340.83
340.21
339.606
339.016
338.441
337.88
337.331
336.796
336.273
335.762
335.262
334.774
334.297
333.831
333.375
332.93
332.495
332.07
331.655
331.25
330.855
330.469
330.092
329.725
329.368
329.019
328.68
328.349
328.028
327.715
327.411
327.117
326.831
326.553
326.285
326.024
325.773
325.53
325.296
325.07
324.853
324.644
324.443
324.251
324.067
323.892
323.725
323.566
323.415
323.273
323.139
323.013
322.895
322.786
322.684
322.591
322.506
322.43
322.361
322.3
322.248
322.203
322.167
322.139
322.119
322.107
322.103
397.83
393.545
389.411
385.503
381.863
378.51
375.44
372.638
370.081
367.745
365.604
363.634
361.816
360.128
358.556
357.085
355.703
354.399
353.164
351.992
350.874
349.806
348.782
347.799
346.853
345.94
345.058
344.205
343.379
342.577
341.798
341.041
340.304
339.586
338.887
338.205
337.539
336.89
336.256
335.637
335.032
334.441
333.863
333.299
332.747
332.207
331.68
331.165
330.662
330.17
329.689
329.22
328.762
328.314
327.878
327.452
327.037
326.632
326.237
325.853
325.479
325.115
324.762
324.418
324.084
323.761
323.447
323.143
322.848
322.564
322.289
322.023
321.768
321.522
321.285
321.058
320.841
320.633
320.434
320.245
320.065
319.894
319.733
319.582
319.439
319.306
319.182
319.067
318.962
318.866
318.779
318.701
318.632
318.573
318.523
318.482
318.45
318.427
318.414
318.409
397.995
394.025
390.164
386.469
382.979
379.714
376.679
373.869
371.27
368.867
366.641
364.575
362.651
360.853
359.168
357.583
356.087
354.67
353.324
352.042
350.817
349.644
348.518
347.434
346.39
345.381
344.406
343.462
342.546
341.656
340.792
339.951
339.132
338.335
337.557
336.799
336.059
335.336
334.63
333.941
333.267
332.608
331.965
331.336
330.721
330.12
329.532
328.958
328.396
327.848
327.312
326.789
326.277
325.778
325.292
324.816
324.353
323.901
323.461
323.033
322.616
322.21
321.815
321.431
321.059
320.698
320.347
320.008
319.68
319.362
319.055
318.759
318.474
318.199
317.935
317.682
317.439
317.207
316.985
316.774
316.573
316.383
316.203
316.034
315.875
315.726
315.588
315.46
315.342
315.234
315.137
315.051
314.974
314.908
314.852
314.806
314.77
314.745
314.73
314.725
398.122
394.396
390.751
387.232
383.872
380.69
377.697
374.891
372.268
369.816
367.524
365.377
363.364
361.471
359.686
357.998
356.398
354.878
353.428
352.043
350.717
349.444
348.219
347.04
345.901
344.799
343.733
342.7
341.696
340.722
339.774
338.851
337.952
337.076
336.221
335.387
334.573
333.778
333.002
332.243
331.501
330.776
330.067
329.374
328.696
328.034
327.386
326.753
326.134
325.53
324.939
324.362
323.798
323.248
322.711
322.187
321.676
321.178
320.692
320.219
319.759
319.311
318.876
318.453
318.042
317.643
317.256
316.882
316.52
316.169
315.83
315.504
315.189
314.886
314.594
314.315
314.047
313.79
313.546
313.313
313.091
312.881
312.683
312.496
312.32
312.156
312.003
311.862
311.732
311.614
311.507
311.411
311.326
311.253
311.191
311.141
311.101
311.073
311.057
311.051
398.221
394.686
391.213
387.838
384.587
381.481
378.529
375.735
373.097
370.61
368.264
366.052
363.963
361.986
360.112
358.332
356.638
355.021
353.475
351.994
350.572
349.204
347.886
346.614
345.384
344.193
343.039
341.919
340.831
339.773
338.743
337.74
336.762
335.809
334.879
333.971
333.084
332.217
331.371
330.543
329.734
328.943
328.169
327.413
326.674
325.95
325.243
324.552
323.876
323.216
322.57
321.94
321.324
320.723
320.136
319.564
319.005
318.461
317.93
317.413
316.91
316.421
315.945
315.482
315.033
314.597
314.175
313.765
313.369
312.986
312.615
312.258
311.914
311.583
311.264
310.958
310.665
310.385
310.117
309.862
309.62
309.391
309.174
308.969
308.777
308.598
308.431
308.276
308.134
308.005
307.887
307.783
307.69
307.61
307.542
307.487
307.444
307.414
307.395
307.389
398.299
394.915
391.579
388.32
385.161
382.12
379.206
376.426
373.78
371.265
368.878
366.61
364.455
362.405
360.452
358.588
356.807
355.102
353.467
351.895
350.383
348.925
347.518
346.157
344.839
343.562
342.323
341.119
339.948
338.809
337.699
336.618
335.563
334.534
333.529
332.548
331.59
330.653
329.737
328.842
327.966
327.11
326.273
325.454
324.653
323.87
323.104
322.355
321.622
320.907
320.207
319.524
318.856
318.205
317.568
316.947
316.342
315.752
315.176
314.616
314.07
313.539
313.023
312.521
312.034
311.561
311.103
310.659
310.229
309.813
309.411
309.024
308.65
308.29
307.945
307.613
307.295
306.991
306.701
306.424
306.161
305.912
305.677
305.455
305.246
305.052
304.87
304.703
304.549
304.408
304.281
304.167
304.067
303.98
303.906
303.846
303.8
303.767
303.747
303.74
398.36
395.095
391.868
388.704
385.621
382.634
379.754
376.987
374.336
371.8
369.376
367.061
364.848
362.733
360.709
358.77
356.909
355.122
353.403
351.747
350.15
348.607
347.114
345.668
344.267
342.906
341.585
340.299
339.048
337.83
336.642
335.484
334.354
333.251
332.173
331.12
330.091
329.085
328.101
327.139
326.198
325.277
324.377
323.496
322.635
321.792
320.967
320.161
319.373
318.603
317.85
317.114
316.395
315.693
315.008
314.339
313.687
313.051
312.431
311.827
311.239
310.667
310.111
309.57
309.045
308.536
308.042
307.563
307.1
306.651
306.218
305.801
305.398
305.011
304.638
304.28
303.938
303.61
303.297
302.999
302.715
302.447
302.193
301.954
301.729
301.519
301.324
301.143
300.977
300.825
300.688
300.565
300.457
300.364
300.284
300.22
300.169
300.134
300.112
300.105
398.408
395.238
392.098
389.009
385.986
383.044
380.192
377.437
374.781
372.227
369.772
367.415
365.152
362.978
360.89
358.881
356.948
355.085
353.287
351.552
349.874
348.249
346.675
345.149
343.666
342.226
340.824
339.46
338.131
336.836
335.572
334.339
333.135
331.959
330.81
329.686
328.588
327.514
326.463
325.435
324.429
323.445
322.483
321.541
320.619
319.717
318.835
317.973
317.129
316.304
315.498
314.71
313.941
313.189
312.455
311.739
311.04
310.359
309.695
309.048
308.418
307.805
307.209
306.63
306.068
305.522
304.992
304.479
303.983
303.502
303.038
302.591
302.159
301.744
301.344
300.961
300.594
300.242
299.907
299.587
299.283
298.995
298.723
298.467
298.226
298.001
297.791
297.598
297.42
297.257
297.11
296.979
296.863
296.762
296.677
296.608
296.554
296.516
296.493
296.485
398.446
395.35
392.278
389.248
386.274
383.368
380.538
377.791
375.131
372.56
370.077
367.683
365.373
363.147
360.999
358.927
356.925
354.991
353.121
351.31
349.556
347.854
346.203
344.598
343.038
341.52
340.042
338.601
337.197
335.826
334.489
333.182
331.906
330.659
329.439
328.247
327.08
325.939
324.823
323.73
322.661
321.614
320.59
319.588
318.607
317.647
316.708
315.789
314.891
314.012
313.154
312.314
311.494
310.693
309.911
309.148
308.403
307.677
306.969
306.28
305.608
304.955
304.319
303.702
303.102
302.52
301.955
301.408
300.878
300.366
299.871
299.394
298.934
298.491
298.065
297.656
297.264
296.889
296.531
296.19
295.866
295.559
295.269
294.995
294.738
294.498
294.275
294.068
293.878
293.705
293.548
293.408
293.284
293.177
293.086
293.012
292.955
292.914
292.889
292.881
398.476
395.436
392.418
389.434
386.498
383.619
380.805
378.064
375.397
372.81
370.301
367.872
365.521
363.245
361.043
358.911
356.846
354.846
352.906
351.025
349.198
347.423
345.697
344.018
342.383
340.791
339.238
337.724
336.245
334.802
333.392
332.015
330.668
329.351
328.063
326.802
325.569
324.362
323.181
322.024
320.892
319.784
318.699
317.637
316.598
315.581
314.585
313.611
312.659
311.727
310.816
309.926
309.056
308.206
307.377
306.567
305.777
305.006
304.255
303.523
302.81
302.116
301.442
300.786
300.149
299.531
298.931
298.351
297.788
297.244
296.719
296.212
295.723
295.252
294.8
294.366
293.95
293.552
293.172
292.81
292.465
292.139
291.831
291.54
291.267
291.012
290.775
290.555
290.353
290.169
290.003
289.854
289.722
289.609
289.512
289.434
289.373
289.329
289.303
289.295
398.498
395.502
392.524
389.576
386.668
383.808
381.006
378.265
375.591
372.987
370.453
367.991
365.6
363.279
361.026
358.838
356.714
354.651
352.646
350.697
348.802
346.957
345.16
343.409
341.703
340.038
338.413
336.827
335.278
333.764
332.284
330.836
329.421
328.035
326.68
325.353
324.054
322.783
321.537
320.318
319.124
317.955
316.811
315.69
314.593
313.519
312.468
311.44
310.433
309.449
308.487
307.546
306.627
305.729
304.852
303.996
303.16
302.346
301.551
300.778
300.024
299.29
298.577
297.883
297.21
296.556
295.922
295.308
294.713
294.137
293.582
293.045
292.528
292.03
291.552
291.092
290.652
290.231
289.829
289.445
289.081
288.736
288.41
288.102
287.814
287.544
287.293
287.06
286.847
286.652
286.475
286.318
286.179
286.058
285.957
285.873
285.809
285.763
285.735
285.726
398.515
395.551
392.603
389.68
386.791
383.945
381.148
378.406
375.722
373.1
370.542
368.048
365.619
363.255
360.953
358.713
356.533
354.41
352.344
350.331
348.369
346.457
344.592
342.773
340.997
339.263
337.568
335.913
334.294
332.711
331.163
329.647
328.164
326.713
325.291
323.899
322.536
321.201
319.893
318.612
317.358
316.129
314.925
313.747
312.593
311.463
310.357
309.274
308.215
307.179
306.166
305.176
304.207
303.262
302.338
301.436
300.556
299.697
298.861
298.045
297.251
296.478
295.726
294.995
294.285
293.596
292.928
292.28
291.653
291.046
290.46
289.895
289.35
288.825
288.32
287.836
287.371
286.927
286.503
286.099
285.715
285.351
285.007
284.683
284.378
284.094
283.829
283.584
283.359
283.153
282.967
282.801
282.654
282.527
282.42
282.332
282.264
282.215
282.186
282.177
398.526
395.586
392.658
389.752
386.876
384.037
381.241
378.493
375.797
373.157
370.574
368.049
365.584
363.178
360.83
358.54
356.306
354.127
352.001
349.927
347.903
345.926
343.996
342.11
340.267
338.466
336.704
334.981
333.295
331.645
330.03
328.449
326.9
325.383
323.897
322.441
321.015
319.617
318.248
316.907
315.592
314.304
313.043
311.807
310.597
309.412
308.252
307.116
306.005
304.918
303.854
302.815
301.798
300.805
299.835
298.888
297.963
297.062
296.183
295.326
294.492
293.68
292.89
292.122
291.376
290.651
289.949
289.268
288.609
287.972
287.356
286.761
286.188
285.637
285.106
284.597
284.109
283.642
283.196
282.772
282.368
281.985
281.623
281.283
280.963
280.663
280.385
280.127
279.89
279.674
279.479
279.304
279.15
279.016
278.903
278.811
278.739
278.688
278.658
278.648
398.534
395.608
392.693
389.797
386.928
384.09
381.291
378.534
375.824
373.164
370.555
368
365.499
363.053
360.661
358.323
356.037
353.804
351.622
349.489
347.404
345.366
343.373
341.423
339.516
337.649
335.822
334.034
332.282
330.567
328.887
327.241
325.628
324.047
322.498
320.98
319.491
318.033
316.603
315.202
313.829
312.483
311.165
309.873
308.607
307.368
306.154
304.966
303.803
302.665
301.552
300.464
299.4
298.36
297.344
296.352
295.384
294.44
293.519
292.621
291.747
290.896
290.068
289.264
288.482
287.723
286.987
286.274
285.583
284.915
284.269
283.646
283.046
282.467
281.911
281.378
280.866
280.376
279.909
279.464
279.041
278.639
278.26
277.903
277.567
277.253
276.962
276.691
276.443
276.216
276.011
275.828
275.666
275.526
275.408
275.311
275.236
275.183
275.151
275.14
398.538
395.62
392.711
389.819
386.95
384.11
381.304
378.536
375.809
373.127
370.493
367.907
365.371
362.885
360.45
358.065
355.731
353.445
351.209
349.019
346.876
344.778
342.724
340.712
338.743
336.813
334.923
333.071
331.256
329.477
327.733
326.024
324.348
322.705
321.095
319.515
317.966
316.448
314.959
313.499
312.068
310.665
309.291
307.944
306.624
305.331
304.064
302.824
301.61
300.423
299.26
298.124
297.013
295.926
294.865
293.829
292.818
291.831
290.869
289.931
289.018
288.129
287.264
286.422
285.605
284.812
284.043
283.297
282.575
281.876
281.202
280.55
279.922
279.317
278.736
278.178
277.643
277.131
276.642
276.177
275.734
275.314
274.918
274.544
274.193
273.865
273.56
273.277
273.017
272.78
272.566
272.374
272.205
272.059
271.935
271.834
271.755
271.699
271.666
271.654
398.539
395.623
392.715
389.821
386.949
384.101
381.284
378.502
375.756
373.052
370.39
367.773
365.202
362.678
360.201
357.771
355.389
353.053
350.764
348.52
346.32
344.165
342.052
339.98
337.95
335.959
334.008
332.094
330.217
328.376
326.571
324.8
323.063
321.359
319.687
318.048
316.44
314.862
313.315
311.798
310.31
308.852
307.422
306.02
304.646
303.301
301.982
300.691
299.427
298.19
296.98
295.795
294.638
293.506
292.4
291.32
290.266
289.238
288.235
287.257
286.305
285.378
284.476
283.598
282.746
281.919
281.117
280.339
279.586
278.857
278.153
277.474
276.818
276.188
275.581
274.999
274.441
273.907
273.397
272.911
272.449
272.011
271.598
271.207
270.841
270.499
270.18
269.886
269.614
269.367
269.143
268.943
268.767
268.614
268.485
268.379
268.297
268.239
268.204
268.192
398.538
395.618
392.705
389.806
386.925
384.068
381.237
378.437
375.671
372.942
370.253
367.605
364.999
362.436
359.918
357.445
355.015
352.631
350.29
347.993
345.739
343.528
341.358
339.228
337.139
335.089
333.077
331.103
329.166
327.265
325.399
323.568
321.772
320.008
318.278
316.579
314.913
313.278
311.674
310.1
308.556
307.043
305.558
304.103
302.677
301.279
299.909
298.568
297.254
295.969
294.71
293.479
292.276
291.099
289.949
288.826
287.73
286.66
285.616
284.599
283.608
282.644
281.705
280.792
279.906
279.045
278.21
277.4
276.616
275.858
275.125
274.418
273.736
273.079
272.448
271.841
271.26
270.705
270.174
269.668
269.187
268.731
268.3
267.894
267.513
267.156
266.825
266.518
266.235
265.978
265.745
265.536
265.353
265.194
265.059
264.949
264.864
264.803
264.766
264.754
398.534
395.607
392.685
389.776
386.884
384.012
381.164
378.345
375.557
372.803
370.085
367.404
364.764
362.163
359.605
357.088
354.613
352.181
349.79
347.442
345.135
342.869
340.643
338.458
336.311
334.204
332.134
330.101
328.105
326.145
324.221
322.331
320.476
318.654
316.865
315.109
313.386
311.694
310.034
308.405
306.807
305.239
303.701
302.193
300.715
299.265
297.846
296.455
295.092
293.759
292.453
291.176
289.927
288.706
287.512
286.347
285.209
284.098
283.015
281.959
280.93
279.928
278.953
278.005
277.084
276.19
275.323
274.482
273.667
272.88
272.118
271.383
270.675
269.993
269.336
268.707
268.103
267.525
266.974
266.448
265.948
265.475
265.027
264.605
264.208
263.838
263.493
263.174
262.881
262.613
262.371
262.154
261.964
261.798
261.658
261.544
261.455
261.392
261.354
261.341
398.528
395.589
392.656
389.733
386.826
383.937
381.071
378.23
375.417
372.636
369.889
367.176
364.5
361.862
359.263
356.704
354.184
351.705
349.266
346.868
344.509
342.19
339.911
337.671
335.468
333.304
331.178
329.088
327.035
325.018
323.036
321.088
319.176
317.297
315.452
313.639
311.86
310.113
308.398
306.714
305.062
303.441
301.85
300.29
298.761
297.262
295.792
294.352
292.942
291.561
290.209
288.886
287.592
286.327
285.091
283.883
282.704
281.553
280.43
279.336
278.269
277.231
276.22
275.238
274.283
273.356
272.456
271.584
270.74
269.923
269.134
268.371
267.636
266.929
266.248
265.595
264.969
264.37
263.798
263.252
262.734
262.243
261.778
261.34
260.929
260.545
260.187
259.856
259.552
259.274
259.023
258.798
258.6
258.429
258.283
258.165
258.073
258.007
257.968
257.955
398.521
395.567
392.618
389.679
386.754
383.845
380.958
378.094
375.256
372.446
369.668
366.923
364.212
361.536
358.897
356.296
353.732
351.207
348.721
346.273
343.865
341.494
339.162
336.868
334.612
332.393
330.211
328.065
325.956
323.883
321.845
319.841
317.873
315.938
314.037
312.17
310.335
308.534
306.765
305.028
303.323
301.649
300.007
298.396
296.817
295.268
293.749
292.261
290.803
289.376
287.978
286.611
285.273
283.965
282.686
281.436
280.216
279.026
277.864
276.732
275.628
274.553
273.508
272.491
271.502
270.543
269.611
268.709
267.835
266.989
266.172
265.382
264.622
263.889
263.184
262.508
261.859
261.239
260.647
260.082
259.545
259.036
258.555
258.102
257.676
257.278
256.907
256.565
256.249
255.962
255.702
255.469
255.264
255.086
254.936
254.813
254.717
254.649
254.608
254.595
398.512
395.54
392.573
389.615
386.669
383.739
380.828
377.939
375.074
372.236
369.426
366.647
363.901
361.188
358.509
355.866
353.259
350.689
348.156
345.661
343.202
340.782
338.398
336.052
333.743
331.47
329.234
327.034
324.87
322.742
320.649
318.591
316.567
314.578
312.623
310.701
308.813
306.958
305.136
303.347
301.59
299.865
298.172
296.511
294.882
293.284
291.718
290.182
288.678
287.205
285.762
284.35
282.969
281.618
280.297
279.007
277.747
276.517
275.317
274.147
273.006
271.896
270.815
269.764
268.743
267.751
266.789
265.856
264.952
264.078
263.233
262.418
261.631
260.873
260.145
259.446
258.775
258.134
257.521
256.937
256.382
255.856
255.359
254.89
254.45
254.038
253.655
253.3
252.974
252.677
252.408
252.167
251.955
251.771
251.616
251.489
251.39
251.319
251.277
251.263
398.502
395.51
392.522
389.542
386.574
383.621
380.685
377.769
374.875
372.007
369.165
366.352
363.57
360.819
358.101
355.417
352.767
350.153
347.574
345.031
342.525
340.055
337.621
335.224
332.863
330.538
328.249
325.996
323.779
321.597
319.45
317.338
315.261
313.218
311.21
309.235
307.294
305.387
303.513
301.672
299.864
298.089
296.346
294.636
292.958
291.312
289.698
288.116
286.566
285.047
283.56
282.105
280.681
279.288
277.926
276.595
275.295
274.027
272.789
271.582
270.405
269.26
268.145
267.06
266.006
264.983
263.989
263.026
262.094
261.192
260.319
259.477
258.665
257.883
257.131
256.409
255.717
255.055
254.422
253.82
253.247
252.703
252.19
251.705
251.251
250.826
250.43
250.064
249.727
249.42
249.142
248.894
248.675
248.485
248.324
248.193
248.091
248.018
247.975
247.96
398.491
395.476
392.465
389.462
386.47
383.491
380.528
377.584
374.661
371.762
368.887
366.04
363.222
360.433
357.676
354.951
352.259
349.6
346.977
344.388
341.834
339.315
336.832
334.385
331.973
329.597
327.257
324.952
322.682
320.447
318.248
316.084
313.954
311.859
309.798
307.771
305.779
303.82
301.895
300.004
298.146
296.321
294.529
292.771
291.045
289.352
287.691
286.064
284.468
282.905
281.374
279.876
278.409
276.975
275.573
274.202
272.863
271.556
270.281
269.038
267.826
266.645
265.496
264.378
263.292
262.237
261.214
260.221
259.26
258.33
257.431
256.563
255.726
254.919
254.144
253.4
252.686
252.003
251.351
250.73
250.139
249.578
249.049
248.549
248.081
247.642
247.234
246.857
246.51
246.193
245.906
245.65
245.424
245.228
245.063
244.927
244.822
244.747
244.702
244.687
398.479
395.44
392.404
389.375
386.357
383.351
380.36
377.387
374.434
371.502
368.595
365.713
362.858
360.032
357.235
354.469
351.735
349.034
346.365
343.731
341.13
338.564
336.033
333.537
331.075
328.649
326.258
323.902
321.581
319.296
317.045
314.829
312.648
310.501
308.389
306.311
304.268
302.259
300.284
298.343
296.436
294.562
292.723
290.916
289.144
287.404
285.698
284.025
282.385
280.778
279.205
277.664
276.156
274.681
273.238
271.828
270.451
269.107
267.794
266.515
265.268
264.053
262.87
261.72
260.602
259.516
258.462
257.441
256.451
255.494
254.568
253.674
252.812
251.982
251.184
250.418
249.683
248.98
248.308
247.668
247.059
246.482
245.937
245.423
244.94
244.489
244.068
243.68
243.322
242.996
242.7
242.437
242.204
242.002
241.831
241.692
241.584
241.506
241.46
241.445
398.466
395.4
392.338
389.283
386.237
383.203
380.183
377.179
374.195
371.231
368.289
365.372
362.481
359.616
356.781
353.975
351.199
348.455
345.742
343.063
340.417
337.804
335.225
332.681
330.171
327.695
325.255
322.849
320.478
318.142
315.841
313.574
311.343
309.146
306.983
304.856
302.763
300.704
298.68
296.691
294.735
292.814
290.927
289.074
287.255
285.47
283.719
282.001
280.318
278.668
277.052
275.469
273.92
272.405
270.923
269.475
268.059
266.678
265.329
264.014
262.732
261.484
260.268
259.086
257.936
256.82
255.737
254.686
253.669
252.684
251.732
250.813
249.927
249.073
248.252
247.464
246.708
245.985
245.294
244.636
244.01
243.416
242.855
242.326
241.829
241.365
240.933
240.533
240.165
239.829
239.526
239.254
239.015
238.807
238.632
238.488
238.377
238.297
238.249
238.233
398.452
395.359
392.269
389.186
386.111
383.047
379.997
376.962
373.946
370.948
367.972
365.02
362.091
359.189
356.315
353.468
350.651
347.865
345.109
342.385
339.694
337.035
334.41
331.818
329.261
326.737
324.248
321.793
319.373
316.987
314.637
312.321
310.04
307.794
305.582
303.406
301.264
299.157
297.085
295.047
293.044
291.076
289.143
287.244
285.379
283.549
281.754
279.993
278.266
276.574
274.916
273.293
271.704
270.149
268.628
267.141
265.689
264.271
262.887
261.537
260.22
258.938
257.69
256.476
255.296
254.149
253.037
251.958
250.913
249.901
248.924
247.98
247.069
246.192
245.349
244.539
243.762
243.019
242.31
241.633
240.99
240.38
239.804
239.26
238.75
238.273
237.829
237.418
237.04
236.695
236.383
236.104
235.857
235.644
235.464
235.316
235.202
235.12
235.071
235.055
398.437
395.316
392.197
389.084
385.979
382.885
379.804
376.737
373.688
370.656
367.646
364.657
361.692
358.752
355.838
352.952
350.094
347.265
344.467
341.7
338.964
336.26
333.589
330.951
328.346
325.775
323.238
320.736
318.267
315.833
313.434
311.07
308.74
306.446
304.186
301.962
299.772
297.617
295.498
293.413
291.364
289.35
287.371
285.427
283.518
281.644
279.805
278.001
276.232
274.498
272.799
271.135
269.507
267.913
266.354
264.83
263.341
261.886
260.467
259.082
257.733
256.418
255.137
253.892
252.681
251.505
250.364
249.257
248.184
247.147
246.144
245.175
244.241
243.341
242.475
241.644
240.847
240.084
239.356
238.662
238.002
237.376
236.784
236.226
235.702
235.213
234.757
234.335
233.947
233.593
233.272
232.986
232.733
232.514
232.329
232.178
232.06
231.976
231.926
231.909
398.422
395.271
392.122
388.979
385.843
382.718
379.604
376.505
373.422
370.357
367.311
364.286
361.284
358.306
355.353
352.427
349.529
346.658
343.818
341.007
338.227
335.479
332.763
330.079
327.429
324.811
322.228
319.678
317.162
314.681
312.234
309.822
307.445
305.103
302.796
300.524
298.288
296.086
293.921
291.79
289.695
287.636
285.612
283.623
281.67
279.753
277.871
276.025
274.215
272.44
270.701
268.998
267.33
265.697
264.101
262.54
261.015
259.525
258.071
256.652
255.269
253.922
252.61
251.334
250.093
248.888
247.718
246.583
245.484
244.421
243.392
242.399
241.441
240.519
239.632
238.779
237.962
237.181
236.434
235.722
235.045
234.403
233.796
233.224
232.687
232.185
231.718
231.285
230.887
230.524
230.195
229.901
229.642
229.418
229.228
229.073
228.952
228.866
228.814
228.797
398.407
395.225
392.045
388.87
385.703
382.546
379.4
376.267
373.15
370.05
366.969
363.908
360.869
357.853
354.861
351.895
348.956
346.045
343.162
340.309
337.486
334.694
331.934
329.205
326.509
323.846
321.216
318.62
316.058
313.53
311.037
308.579
306.155
303.766
301.413
299.095
296.812
294.565
292.354
290.178
288.038
285.934
283.866
281.834
279.838
277.879
275.955
274.067
272.216
270.401
268.622
266.88
265.174
263.504
261.87
260.273
258.712
257.187
255.699
254.247
252.832
251.452
250.109
248.803
247.532
246.298
245.1
243.939
242.813
241.724
240.671
239.654
238.673
237.728
236.819
235.946
235.109
234.308
233.543
232.814
232.121
231.464
230.842
230.256
229.706
229.191
228.712
228.269
227.861
227.489
227.152
226.851
226.586
226.356
226.161
226.002
225.878
225.79
225.737
225.72
398.391
395.177
391.966
388.759
385.56
382.369
379.19
376.024
372.873
369.737
366.62
363.523
360.447
357.393
354.363
351.358
348.378
345.426
342.502
339.607
336.741
333.906
331.102
328.329
325.589
322.881
320.206
317.564
314.957
312.383
309.844
307.34
304.87
302.436
300.037
297.674
295.346
293.054
290.798
288.578
286.394
284.246
282.135
280.061
278.022
276.021
274.056
272.128
270.236
268.382
266.564
264.783
263.039
261.332
259.662
258.029
256.433
254.874
253.352
251.867
250.42
249.009
247.635
246.299
244.999
243.737
242.511
241.323
240.171
239.057
237.979
236.939
235.935
234.968
234.038
233.145
232.289
231.469
230.686
229.94
229.23
228.557
227.921
227.321
226.758
226.231
225.741
225.287
224.87
224.489
224.145
223.836
223.565
223.329
223.13
222.967
222.84
222.75
222.696
222.678
398.375
395.129
391.885
388.646
385.413
382.19
378.977
375.777
372.591
369.42
366.267
363.133
360.02
356.928