/*--------------------------------*- C++ -*----------------------------------*\
  =========                 |
  \\      /  F ield         | OpenFOAM: The Open Source CFD Toolbox
   \\    /   O peration     | Website:  https://openfoam.org
    \\  /    A nd           | Version:  10
     \\/     M anipulation  |
\*---------------------------------------------------------------------------*/
FoamFile
{
    format      ascii;
    class       volScalarField;
    location    "37.5";
    object      T;
}
// * * * * * * * * * * * * * * * * * * * * * * * * * * * * * * * * * * * * * //

dimensions      [0 0 0 1 0 0 0];

internalField   nonuniform List<scalar> 
10000
(
374.988
361.299
356.625
354.58
353.474
352.778
352.295
351.937
351.658
351.433
351.246
351.088
350.951
350.831
350.724
350.628
350.54
350.46
350.385
350.316
350.252
350.191
350.134
350.079
350.028
349.978
349.931
349.886
349.842
349.8
349.76
349.72
349.682
349.645
349.61
349.575
349.541
349.508
349.476
349.445
349.415
349.385
349.356
349.328
349.3
349.273
349.247
349.221
349.196
349.172
349.148
349.124
349.101
349.079
349.057
349.036
349.016
348.995
348.976
348.957
348.938
348.92
348.902
348.885
348.869
348.852
348.837
348.822
348.807
348.793
348.779
348.766
348.753
348.74
348.729
348.717
348.706
348.696
348.686
348.676
348.667
348.659
348.65
348.643
348.636
348.629
348.623
348.617
348.611
348.607
348.602
348.598
348.595
348.592
348.589
348.587
348.585
348.584
348.583
348.583
388.623
374.882
367.245
362.801
360.009
358.12
356.76
355.73
354.919
354.26
353.71
353.242
352.836
352.479
352.16
351.873
351.612
351.372
351.15
350.944
350.751
350.569
350.398
350.235
350.08
349.933
349.791
349.655
349.524
349.399
349.277
349.159
349.045
348.935
348.828
348.724
348.622
348.524
348.428
348.334
348.243
348.154
348.067
347.982
347.899
347.819
347.74
347.663
347.587
347.514
347.442
347.372
347.304
347.237
347.172
347.108
347.046
346.986
346.927
346.87
346.814
346.759
346.707
346.655
346.605
346.557
346.51
346.464
346.42
346.377
346.336
346.296
346.258
346.221
346.185
346.151
346.118
346.087
346.057
346.028
346.001
345.975
345.951
345.928
345.906
345.886
345.867
345.85
345.834
345.819
345.806
345.794
345.784
345.775
345.767
345.761
345.756
345.752
345.75
345.749
393.245
382.363
374.673
369.369
365.642
362.935
360.895
359.306
358.03
356.979
356.094
355.335
354.674
354.089
353.566
353.094
352.663
352.268
351.901
351.56
351.24
350.939
350.654
350.384
350.127
349.882
349.647
349.421
349.204
348.994
348.792
348.596
348.407
348.223
348.045
347.871
347.702
347.538
347.378
347.223
347.071
346.922
346.778
346.637
346.499
346.364
346.233
346.105
345.979
345.857
345.737
345.621
345.507
345.396
345.287
345.181
345.078
344.977
344.879
344.784
344.691
344.6
344.512
344.426
344.343
344.262
344.184
344.108
344.035
343.963
343.895
343.828
343.764
343.703
343.643
343.586
343.532
343.479
343.429
343.382
343.336
343.294
343.253
343.215
343.179
343.145
343.114
343.085
343.058
343.034
343.011
342.992
342.974
342.959
342.946
342.936
342.928
342.922
342.918
342.917
395.238
386.65
379.717
374.36
370.257
367.082
364.581
362.568
360.916
359.532
358.352
357.331
356.435
355.638
354.923
354.275
353.681
353.135
352.628
352.155
351.711
351.293
350.898
350.522
350.165
349.823
349.495
349.18
348.877
348.585
348.302
348.029
347.765
347.508
347.259
347.016
346.781
346.551
346.328
346.11
345.897
345.69
345.488
345.291
345.098
344.91
344.726
344.547
344.371
344.2
344.033
343.87
343.71
343.555
343.403
343.255
343.11
342.97
342.832
342.699
342.568
342.442
342.318
342.199
342.082
341.969
341.86
341.753
341.65
341.551
341.455
341.362
341.272
341.186
341.103
341.023
340.947
340.873
340.803
340.737
340.673
340.613
340.557
340.503
340.453
340.405
340.362
340.321
340.284
340.25
340.219
340.191
340.167
340.145
340.128
340.113
340.101
340.093
340.088
340.086
396.292
389.285
383.182
378.098
373.943
370.556
367.778
365.472
363.534
361.881
360.453
359.203
358.097
357.108
356.215
355.401
354.654
353.964
353.323
352.723
352.159
351.628
351.124
350.645
350.188
349.751
349.332
348.93
348.542
348.168
347.806
347.457
347.117
346.788
346.469
346.158
345.856
345.561
345.275
344.995
344.723
344.457
344.197
343.944
343.696
343.455
343.219
342.988
342.763
342.543
342.329
342.119
341.914
341.715
341.52
341.329
341.144
340.963
340.787
340.615
340.447
340.285
340.126
339.972
339.823
339.678
339.537
339.4
339.268
339.14
339.016
338.897
338.782
338.671
338.564
338.462
338.364
338.27
338.18
338.094
338.013
337.936
337.863
337.794
337.729
337.668
337.612
337.56
337.512
337.468
337.428
337.393
337.362
337.334
337.311
337.292
337.278
337.267
337.261
337.258
396.935
391.018
385.629
380.909
376.861
373.423
370.502
368.01
365.867
364.007
362.377
360.934
359.645
358.483
357.428
356.462
355.572
354.747
353.978
353.257
352.578
351.936
351.328
350.748
350.195
349.665
349.157
348.668
348.197
347.742
347.303
346.877
346.464
346.063
345.674
345.296
344.927
344.569
344.219
343.878
343.546
343.222
342.905
342.596
342.294
341.999
341.711
341.43
341.155
340.887
340.625
340.369
340.119
339.875
339.637
339.405
339.179
338.958
338.742
338.533
338.328
338.13
337.936
337.748
337.566
337.388
337.216
337.05
336.888
336.732
336.581
336.435
336.295
336.159
336.029
335.904
335.784
335.669
335.559
335.455
335.355
335.261
335.172
335.088
335.009
334.935
334.866
334.802
334.743
334.69
334.641
334.598
334.56
334.527
334.498
334.475
334.457
334.444
334.437
334.434
397.366
392.222
387.409
383.046
379.172
375.772
372.799
370.2
367.919
365.905
364.115
362.512
361.067
359.755
358.555
357.45
356.428
355.477
354.587
353.751
352.963
352.216
351.506
350.829
350.182
349.562
348.966
348.393
347.84
347.306
346.789
346.289
345.804
345.332
344.874
344.428
343.995
343.572
343.16
342.759
342.367
341.985
341.611
341.247
340.891
340.543
340.204
339.872
339.548
339.231
338.922
338.62
338.325
338.038
337.757
337.483
337.215
336.955
336.7
336.453
336.212
335.977
335.749
335.527
335.311
335.102
334.899
334.702
334.511
334.327
334.149
333.976
333.81
333.651
333.497
333.349
333.207
333.072
332.942
332.819
332.701
332.59
332.485
332.385
332.292
332.205
332.123
332.048
331.979
331.916
331.858
331.807
331.762
331.723
331.69
331.662
331.641
331.626
331.617
331.613
397.673
393.096
388.739
384.695
381.011
377.693
374.725
372.074
369.704
367.58
365.667
363.935
362.359
360.916
359.588
358.359
357.217
356.149
355.147
354.203
353.309
352.462
351.655
350.884
350.147
349.439
348.758
348.102
347.47
346.858
346.266
345.692
345.134
344.593
344.067
343.555
343.057
342.571
342.098
341.636
341.185
340.746
340.316
339.897
339.487
339.087
338.696
338.314
337.941
337.576
337.22
336.872
336.533
336.201
335.878
335.562
335.254
334.953
334.661
334.375
334.098
333.827
333.564
333.308
333.06
332.819
332.585
332.358
332.138
331.926
331.72
331.522
331.33
331.146
330.969
330.798
330.635
330.479
330.33
330.187
330.052
329.923
329.802
329.687
329.58
329.479
329.386
329.299
329.219
329.146
329.08
329.021
328.969
328.924
328.885
328.854
328.83
328.812
328.801
328.798
397.9
393.752
389.756
385.985
382.483
379.267
376.334
373.668
371.247
369.046
367.04
365.205
363.52
361.965
360.525
359.185
357.933
356.759
355.652
354.607
353.615
352.672
351.772
350.911
350.086
349.294
348.53
347.794
347.084
346.396
345.73
345.083
344.456
343.846
343.253
342.676
342.114
341.566
341.031
340.51
340.001
339.504
339.019
338.545
338.082
337.63
337.188
336.756
336.334
335.922
335.519
335.126
334.742
334.367
334.001
333.643
333.295
332.955
332.624
332.301
331.987
331.681
331.383
331.094
330.812
330.539
330.274
330.018
329.769
329.528
329.296
329.071
328.855
328.646
328.445
328.252
328.068
327.891
327.722
327.561
327.407
327.262
327.125
326.995
326.873
326.759
326.653
326.555
326.465
326.382
326.307
326.241
326.181
326.13
326.087
326.051
326.024
326.004
325.992
325.987
398.073
394.256
390.548
387.007
383.671
380.559
377.677
375.019
372.572
370.32
368.244
366.328
364.553
362.903
361.366
359.927
358.577
357.304
356.101
354.961
353.877
352.843
351.855
350.908
349.999
349.125
348.282
347.468
346.681
345.919
345.181
344.464
343.767
343.09
342.431
341.79
341.165
340.555
339.96
339.38
338.813
338.26
337.72
337.192
336.676
336.172
335.68
335.198
334.728
334.268
333.819
333.381
332.952
332.534
332.126
331.727
331.339
330.96
330.59
330.23
329.879
329.538
329.206
328.883
328.569
328.264
327.969
327.682
327.405
327.136
326.876
326.626
326.384
326.151
325.927
325.712
325.506
325.308
325.12
324.94
324.769
324.606
324.453
324.308
324.172
324.045
323.927
323.817
323.716
323.624
323.541
323.466
323.4
323.343
323.295
323.255
323.224
323.202
323.188
323.184
398.208
394.651
391.175
387.826
384.635
381.623
378.798
376.16
373.704
371.419
369.293
367.312
365.463
363.734
362.111
360.585
359.146
357.784
356.493
355.265
354.094
352.975
351.903
350.874
349.884
348.931
348.011
347.121
346.261
345.427
344.618
343.832
343.068
342.325
341.601
340.896
340.209
339.538
338.884
338.246
337.622
337.013
336.419
335.837
335.269
334.714
334.171
333.641
333.122
332.616
332.121
331.638
331.165
330.704
330.254
329.814
329.386
328.967
328.56
328.163
327.776
327.399
327.033
326.676
326.33
325.994
325.668
325.352
325.045
324.749
324.463
324.186
323.919
323.662
323.415
323.177
322.95
322.732
322.524
322.325
322.136
321.957
321.788
321.628
321.478
321.338
321.207
321.086
320.975
320.873
320.781
320.699
320.626
320.563
320.509
320.466
320.431
320.407
320.392
320.387
398.315
394.965
391.677
388.487
385.422
382.501
379.733
377.123
374.668
372.363
370.199
368.168
366.258
364.46
362.765
361.161
359.642
358.2
356.827
355.517
354.265
353.066
351.914
350.807
349.74
348.711
347.717
346.754
345.822
344.918
344.04
343.187
342.357
341.549
340.762
339.994
339.246
338.516
337.804
337.108
336.428
335.764
335.115
334.481
333.861
333.255
332.663
332.084
331.518
330.965
330.424
329.896
329.38
328.876
328.385
327.904
327.436
326.979
326.533
326.099
325.676
325.265
324.864
324.475
324.096
323.729
323.372
323.027
322.692
322.368
322.055
321.752
321.46
321.179
320.909
320.65
320.401
320.162
319.935
319.717
319.511
319.315
319.13
318.955
318.791
318.638
318.495
318.363
318.241
318.13
318.029
317.939
317.859
317.79
317.732
317.684
317.647
317.62
317.604
317.598
398.4
395.217
392.082
389.025
386.067
383.226
380.513
377.932
375.484
373.168
370.977
368.906
366.946
365.09
363.33
361.658
360.068
358.552
357.104
355.718
354.39
353.115
351.889
350.707
349.566
348.465
347.399
346.366
345.364
344.392
343.447
342.528
341.633
340.762
339.913
339.085
338.276
337.488
336.717
335.965
335.23
334.512
333.809
333.123
332.452
331.796
331.154
330.527
329.914
329.315
328.729
328.157
327.598
327.052
326.518
325.998
325.49
324.995
324.512
324.041
323.582
323.136
322.701
322.279
321.868
321.47
321.083
320.708
320.345
319.993
319.653
319.325
319.009
318.704
318.411
318.129
317.859
317.6
317.353
317.118
316.894
316.681
316.48
316.29
316.112
315.946
315.791
315.647
315.515
315.394
315.285
315.187
315.101
315.026
314.963
314.911
314.87
314.841
314.823
314.817
398.47
395.421
392.412
389.464
386.597
383.827
381.162
378.61
376.173
373.851
371.64
369.536
367.534
365.628
363.812
362.079
360.424
358.841
357.324
355.869
354.47
353.123
351.826
350.573
349.363
348.191
347.056
345.956
344.887
343.848
342.838
341.855
340.898
339.964
339.054
338.166
337.299
336.453
335.626
334.818
334.028
333.256
332.502
331.764
331.042
330.336
329.646
328.972
328.312
327.667
327.036
326.42
325.818
325.23
324.656
324.095
323.548
323.015
322.494
321.987
321.493
321.012
320.544
320.089
319.646
319.217
318.8
318.396
318.005
317.626
317.259
316.906
316.565
316.236
315.92
315.616
315.325
315.046
314.78
314.526
314.284
314.055
313.839
313.634
313.442
313.263
313.096
312.941
312.798
312.668
312.55
312.445
312.352
312.271
312.203
312.147
312.103
312.072
312.053
312.046
398.526
395.587
392.68
389.823
387.033
384.323
381.702
379.177
376.751
374.425
372.199
370.068
368.031
366.081
364.216
362.429
360.715
359.071
357.49
355.969
354.504
353.091
351.726
350.406
349.129
347.891
346.69
345.523
344.39
343.287
342.214
341.169
340.15
339.156
338.186
337.239
336.315
335.412
334.529
333.666
332.823
331.998
331.192
330.403
329.631
328.877
328.139
327.417
326.711
326.021
325.346
324.686
324.042
323.412
322.797
322.197
321.611
321.04
320.482
319.939
319.41
318.894
318.393
317.905
317.431
316.971
316.524
316.091
315.672
315.266
314.873
314.494
314.129
313.776
313.437
313.112
312.8
312.501
312.215
311.943
311.684
311.439
311.206
310.987
310.782
310.589
310.41
310.244
310.091
309.952
309.825
309.712
309.613
309.526
309.453
309.393
309.346
309.312
309.292
309.284
398.571
395.722
392.899
390.117
387.391
384.732
382.149
379.647
377.232
374.905
372.665
370.513
368.444
366.457
364.547
362.711
360.944
359.243
357.604
356.023
354.495
353.019
351.591
350.207
348.865
347.563
346.298
345.069
343.873
342.708
341.574
340.468
339.389
338.336
337.308
336.304
335.323
334.364
333.427
332.51
331.614
330.737
329.88
329.041
328.22
327.417
326.631
325.863
325.111
324.376
323.658
322.955
322.269
321.598
320.943
320.303
319.679
319.07
318.476
317.897
317.333
316.783
316.249
315.729
315.223
314.732
314.256
313.794
313.347
312.914
312.495
312.091
311.701
311.325
310.964
310.617
310.284
309.965
309.661
309.37
309.094
308.832
308.584
308.35
308.131
307.926
307.734
307.557
307.394
307.245
307.111
306.99
306.884
306.791
306.713
306.649
306.599
306.563
306.541
306.534
398.609
395.832
393.077
390.357
387.684
385.068
382.516
380.035
377.629
375.301
373.05
370.878
368.782
366.761
364.811
362.93
361.115
359.362
357.668
356.03
354.444
352.909
351.42
349.975
348.572
347.209
345.883
344.593
343.336
342.112
340.917
339.752
338.615
337.505
336.42
335.36
334.324
333.31
332.319
331.35
330.402
329.474
328.566
327.677
326.808
325.957
325.125
324.311
323.514
322.735
321.973
321.228
320.5
319.788
319.093
318.415
317.752
317.106
316.476
315.861
315.262
314.679
314.111
313.559
313.023
312.502
311.996
311.506
311.031
310.571
310.127
309.697
309.283
308.884
308.5
308.131
307.778
307.439
307.116
306.807
306.514
306.236
305.972
305.724
305.491
305.273
305.07
304.882
304.709
304.55
304.407
304.279
304.166
304.068
303.985
303.917
303.864
303.826
303.803
303.794
398.639
395.921
393.222
390.552
387.922
385.341
382.815
380.351
377.953
375.622
373.362
371.172
369.051
366.999
365.013
363.091
361.231
359.429
357.684
355.993
354.353
352.761
351.215
349.712
348.251
346.829
345.444
344.095
342.78
341.497
340.245
339.023
337.829
336.663
335.522
334.407
333.317
332.25
331.207
330.185
329.186
328.208
327.25
326.313
325.396
324.498
323.62
322.76
321.919
321.096
320.291
319.504
318.735
317.983
317.249
316.532
315.831
315.148
314.482
313.832
313.199
312.582
311.982
311.398
310.831
310.28
309.745
309.226
308.724
308.237
307.767
307.313
306.875
306.453
306.047
305.656
305.282
304.924
304.582
304.256
303.945
303.651
303.372
303.109
302.863
302.632
302.417
302.218
302.035
301.867
301.716
301.58
301.461
301.357
301.269
301.197
301.141
301.1
301.076
301.067
398.663
395.993
393.339
390.71
388.115
385.561
383.056
380.605
378.212
375.879
373.609
371.402
369.258
367.177
365.157
363.197
361.295
359.449
357.656
355.915
354.223
352.577
350.977
349.419
347.902
346.424
344.983
343.577
342.205
340.866
339.558
338.28
337.031
335.81
334.615
333.447
332.303
331.184
330.089
329.017
327.967
326.939
325.933
324.948
323.984
323.04
322.116
321.211
320.326
319.46
318.613
317.785
316.975
316.183
315.41
314.654
313.917
313.197
312.495
311.81
311.143
310.493
309.861
309.246
308.648
308.067
307.503
306.956
306.426
305.914
305.418
304.939
304.477
304.032
303.604
303.193
302.798
302.42
302.059
301.715
301.388
301.077
300.784
300.507
300.246
300.003
299.776
299.566
299.373
299.197
299.037
298.894
298.768
298.658
298.565
298.49
298.43
298.388
298.362
298.353
398.682
396.05
393.432
390.835
388.267
385.736
383.247
380.805
378.415
376.079
373.798
371.575
369.409
367.301
365.25
363.254
361.313
359.424
357.586
355.798
354.056
352.36
350.708
349.097
347.526
345.994
344.499
343.038
341.612
340.218
338.856
337.524
336.221
334.946
333.699
332.478
331.283
330.112
328.966
327.844
326.745
325.669
324.615
323.583
322.572
321.582
320.613
319.665
318.736
317.828
316.939
316.069
315.219
314.388
313.576
312.783
312.008
311.253
310.515
309.796
309.095
308.413
307.748
307.102
306.473
305.863
305.271
304.696
304.139
303.601
303.079
302.576
302.091
301.623
301.173
300.74
300.325
299.928
299.549
299.187
298.843
298.517
298.208
297.916
297.643
297.387
297.149
296.928
296.725
296.539
296.371
296.221
296.088
295.973
295.876
295.796
295.733
295.689
295.661
295.652
398.697
396.095
393.504
390.932
388.386
385.871
383.394
380.959
378.569
376.227
373.936
371.696
369.51
367.376
365.294
363.265
361.286
359.357
357.477
355.643
353.855
352.111
350.409
348.748
347.125
345.541
343.993
342.48
341.001
339.554
338.139
336.754
335.399
334.072
332.773
331.501
330.255
329.035
327.84
326.668
325.521
324.397
323.296
322.217
321.161
320.126
319.113
318.121
317.149
316.199
315.269
314.359
313.469
312.599
311.749
310.918
310.107
309.316
308.543
307.79
307.056
306.341
305.645
304.968
304.309
303.67
303.049
302.447
301.863
301.298
300.752
300.225
299.716
299.225
298.753
298.3
297.865
297.449
297.051
296.672
296.311
295.969
295.645
295.34
295.053
294.784
294.534
294.303
294.09
293.895
293.719
293.562
293.423
293.302
293.2
293.116
293.051
293.004
292.975
292.965
398.709
396.129
393.559
391.006
388.475
385.973
383.503
381.071
378.679
376.33
374.027
371.772
369.564
367.406
365.295
363.234
361.22
359.252
357.331
355.455
353.622
351.831
350.082
348.372
346.7
345.066
343.467
341.903
340.373
338.875
337.409
335.973
334.566
333.189
331.84
330.518
329.222
327.953
326.709
325.489
324.295
323.124
321.976
320.852
319.751
318.672
317.615
316.58
315.566
314.574
313.604
312.654
311.725
310.816
309.929
309.061
308.214
307.387
306.58
305.793
305.026
304.279
303.551
302.843
302.155
301.487
300.838
300.208
299.598
299.008
298.437
297.885
297.353
296.84
296.347
295.873
295.418
294.983
294.567
294.17
293.793
293.435
293.096
292.777
292.477
292.196
291.935
291.693
291.47
291.266
291.082
290.917
290.772
290.646
290.539
290.451
290.383
290.334
290.304
290.293
398.717
396.154
393.599
391.06
388.54
386.045
383.579
381.146
378.75
376.394
374.078
371.806
369.578
367.395
365.257
363.164
361.116
359.112
357.152
355.234
353.358
351.524
349.728
347.972
346.252
344.569
342.922
341.309
339.729
338.181
336.665
335.179
333.723
332.296
330.898
329.527
328.183
326.865
325.574
324.307
323.066
321.849
320.656
319.487
318.342
317.219
316.119
315.042
313.987
312.954
311.943
310.954
309.986
309.04
308.115
307.211
306.328
305.466
304.625
303.805
303.005
302.226
301.468
300.73
300.012
299.315
298.638
297.982
297.345
296.73
296.134
295.559
295.003
294.469
293.954
293.459
292.985
292.531
292.097
291.683
291.289
290.916
290.562
290.229
289.916
289.623
289.35
289.097
288.865
288.653
288.46
288.288
288.136
288.005
287.893
287.802
287.73
287.679
287.648
287.637
398.723
396.171
393.627
391.095
388.582
386.091
383.626
381.19
378.788
376.421
374.093
371.803
369.554
367.347
365.181
363.058
360.977
358.938
356.941
354.984
353.067
351.189
349.35
347.548
345.783
344.053
342.358
340.697
339.069
337.473
335.909
334.375
332.87
331.395
329.949
328.53
327.139
325.774
324.436
323.123
321.836
320.574
319.337
318.124
316.934
315.769
314.627
313.508
312.412
311.339
310.289
309.261
308.255
307.271
306.309
305.369
304.451
303.555
302.68
301.827
300.995
300.184
299.395
298.627
297.88
297.155
296.45
295.767
295.105
294.464
293.844
293.245
292.667
292.11
291.575
291.06
290.566
290.093
289.641
289.21
288.8
288.411
288.043
287.696
287.37
287.065
286.781
286.518
286.276
286.055
285.855
285.675
285.517
285.38
285.264
285.168
285.094
285.041
285.009
284.997
398.726
396.181
393.643
391.116
388.605
386.114
383.647
381.206
378.796
376.418
374.074
371.767
369.497
367.266
365.074
362.921
360.808
358.735
356.701
354.706
352.749
350.83
348.948
347.103
345.293
343.518
341.777
340.07
338.395
336.752
335.141
333.559
332.008
330.486
328.992
327.527
326.089
324.679
323.295
321.937
320.605
319.299
318.018
316.761
315.529
314.322
313.138
311.979
310.842
309.73
308.64
307.574
306.53
305.51
304.512
303.536
302.583
301.653
300.744
299.859
298.995
298.153
297.334
296.536
295.761
295.007
294.275
293.566
292.878
292.212
291.568
290.946
290.345
289.767
289.21
288.675
288.162
287.67
287.201
286.753
286.327
285.922
285.54
285.179
284.841
284.524
284.228
283.955
283.703
283.473
283.265
283.079
282.915
282.772
282.651
282.552
282.475
282.42
282.386
282.374
398.728
396.185
393.649
391.123
388.611
386.118
383.645
381.197
378.777
376.386
374.027
371.701
369.41
367.155
364.936
362.754
360.61
358.503
356.434
354.402
352.407
350.448
348.525
346.637
344.784
342.966
341.18
339.428
337.708
336.019
334.362
332.735
331.137
329.569
328.03
326.519
325.036
323.58
322.152
320.75
319.374
318.024
316.7
315.401
314.127
312.878
311.653
310.453
309.278
308.126
306.998
305.894
304.813
303.756
302.722
301.712
300.725
299.76
298.819
297.901
297.006
296.134
295.284
294.457
293.653
292.872
292.113
291.378
290.664
289.974
289.306
288.66
288.038
287.438
286.86
286.305
285.773
285.263
284.776
284.311
283.869
283.45
283.053
282.679
282.328
281.999
281.692
281.409
281.148
280.909
280.693
280.5
280.33
280.182
280.056
279.954
279.873
279.816
279.781
279.769
398.728
396.184
393.646
391.118
388.602
386.103
383.624
381.167
378.734
376.329
373.953
371.608
369.296
367.016
364.771
362.561
360.386
358.247
356.143
354.075
352.042
350.045
348.082
346.153
344.258
342.397
340.568
338.772
337.008
335.275
333.573
331.901
330.259
328.646
327.062
325.506
323.979
322.479
321.007
319.561
318.142
316.75
315.383
314.043
312.727
311.438
310.173
308.933
307.718
306.528
305.362
304.221
303.104
302.011
300.942
299.897
298.876
297.878
296.905
295.955
295.029
294.126
293.247
292.391
291.559
290.75
289.965
289.203
288.465
287.75
287.058
286.39
285.745
285.124
284.526
283.951
283.4
282.872
282.368
281.887
281.429
280.995
280.584
280.196
279.832
279.492
279.174
278.88
278.61
278.363
278.139
277.939
277.763
277.609
277.479
277.373
277.29
277.231
277.194
277.182
398.726
396.178
393.636
391.103
388.581
386.074
383.585
381.116
378.671
376.25
373.857
371.492
369.157
366.854
364.582
362.344
360.139
357.967
355.83
353.727
351.657
349.622
347.62
345.651
343.716
341.813
339.943
338.104
336.297
334.52
332.774
331.059
329.373
327.716
326.089
324.49
322.919
321.376
319.86
318.372
316.911
315.477
314.069
312.687
311.331
310.002
308.698
307.419
306.166
304.937
303.734
302.556
301.403
300.275
299.171
298.092
297.037
296.007
295.002
294.02
293.063
292.131
291.222
290.338
289.478
288.642
287.831
287.044
286.28
285.541
284.826
284.136
283.469
282.827
282.208
281.614
281.044
280.499
279.977
279.479
279.006
278.557
278.132
277.731
277.355
277.003
276.674
276.371
276.091
275.835
275.604
275.397
275.214
275.056
274.922
274.812
274.726
274.664
274.627
274.613
398.723
396.168
393.619
391.078
388.548
386.031
383.53
381.049
378.588
376.151
373.739
371.354
368.997
366.669
364.371
362.104
359.869
357.667
355.496
353.359
351.254
349.181
347.141
345.134
343.159
341.216
339.304
337.424
335.575
333.756
331.968
330.21
328.481
326.782
325.111
323.47
321.856
320.271
318.714
317.184
315.681
314.206
312.757
311.335
309.94
308.57
307.227
305.91
304.619
303.354
302.114
300.9
299.711
298.548
297.41
296.297
295.21
294.147
293.11
292.098
291.111
290.148
289.211
288.299
287.412
286.549
285.712
284.899
284.111
283.348
282.61
281.897
281.209
280.546
279.908
279.294
278.706
278.142
277.604
277.09
276.601
276.138
275.699
275.285
274.896
274.532
274.193
273.88
273.591
273.327
273.088
272.874
272.686
272.522
272.383
272.27
272.181
272.117
272.079
272.065
398.718
396.155
393.597
391.045
388.504
385.975
383.462
380.966
378.489
376.035
373.603
371.197
368.816
366.464
364.14
361.845
359.581
357.347
355.144
352.973
350.833
348.724
346.648
344.602
342.588
340.606
338.654
336.733
334.843
332.984
331.154
329.354
327.583
325.842
324.13
322.447
320.792
319.165
317.567
315.996
314.453
312.937
311.448
309.987
308.552
307.144
305.763
304.408
303.08
301.778
300.502
299.253
298.029
296.831
295.66
294.514
293.394
292.3
291.231
290.188
289.171
288.18
287.214
286.274
285.359
284.471
283.607
282.77
281.958
281.172
280.411
279.676
278.966
278.283
277.624
276.992
276.385
275.804
275.249
274.719
274.215
273.737
273.284
272.858
272.457
272.081
271.732
271.408
271.11
270.838
270.592
270.372
270.177
270.008
269.865
269.748
269.656
269.591
269.551
269.537
398.713
396.138
393.569
391.006
388.452
385.91
383.381
380.869
378.376
375.902
373.45
371.022
368.619
366.241
363.891
361.569
359.275
357.01
354.776
352.571
350.397
348.253
346.14
344.057
342.006
339.984
337.994
336.034
334.103
332.203
330.333
328.492
326.681
324.899
323.146
321.422
319.726
318.059
316.42
314.809
313.226
311.671
310.143
308.643
307.17
305.724
304.305
302.914
301.549
300.211
298.899
297.615
296.357
295.125
293.92
292.742
291.59
290.464
289.365
288.292
287.245
286.225
285.231
284.264
283.323
282.408
281.519
280.657
279.821
279.011
278.228
277.471
276.741
276.037
275.359
274.708
274.083
273.485
272.913
272.367
271.848
271.356
270.89
270.45
270.037
269.651
269.291
268.957
268.65
268.37
268.116
267.889
267.689
267.515
267.367
267.247
267.153
267.085
267.044
267.029
398.706
396.119
393.536
390.96
388.391
385.834
383.29
380.761
378.249
375.756
373.283
370.832
368.405
366.003
363.626
361.276
358.953
356.658
354.392
352.154
349.946
347.768
345.619
343.501
341.412
339.353
337.324
335.325
333.356
331.417
329.507
327.626
325.775
323.953
322.16
320.396
318.66
316.954
315.275
313.625
312.003
310.409
308.842
307.304
305.793
304.31
302.854
301.426
300.025
298.652
297.306
295.987
294.695
293.43
292.192
290.982
289.798
288.641
287.512
286.409
285.334
284.285
283.264
282.269
281.301
280.361
279.447
278.561
277.701
276.869
276.063
275.285
274.534
273.81
273.113
272.443
271.8
271.185
270.596
270.035
269.501
268.995
268.515
268.063
267.638
267.24
266.87
266.527
266.211
265.923
265.662
265.428
265.222
265.043
264.891
264.767
264.67
264.601
264.559
264.544
398.699
396.098
393.5
390.908
388.324
385.75
383.189
380.641
378.11
375.597
373.102
370.629
368.178
365.75
363.347
360.969
358.617
356.292
353.994
351.725
349.484
347.271
345.088
342.933
340.808
338.713
336.646
334.61
332.602
330.624
328.676
326.756
324.866
323.005
321.173
319.369
317.595
315.849
314.132
312.443
310.782
309.15
307.546
305.97
304.423
302.903
301.411
299.947
298.511
297.102
295.722
294.369
293.044
291.746
290.476
289.234
288.019
286.832
285.673
284.541
283.437
282.36
281.311
280.29
279.297
278.331
277.392
276.482
275.599
274.744
273.917
273.117
272.345
271.602
270.885
270.197
269.537
268.904
268.3
267.723
267.175
266.654
266.161
265.697
265.26
264.852
264.471
264.118
263.794
263.498
263.229
262.989
262.777
262.593
262.437
262.31
262.21
262.139
262.095
262.08
398.691
396.074
393.46
390.852
388.251
385.659
383.079
380.513
377.961
375.426
372.91
370.413
367.938
365.485
363.054
360.649
358.268
355.913
353.585
351.283
349.01
346.764
344.546
342.357
340.196
338.064
335.961
333.888
331.843
329.827
327.84
325.883
323.954
322.055
320.184
318.343
316.53
314.746
312.991
311.264
309.566
307.896
306.255
304.643
303.059
301.503
299.975
298.476
297.005
295.563
294.148
292.762
291.404
290.074
288.773
287.499
286.254
285.037
283.848
282.688
281.555
280.451
279.375
278.328
277.308
276.318
275.355
274.421
273.515
272.638
271.789
270.968
270.176
269.413
268.678
267.972
267.294
266.645
266.024
265.432
264.869
264.335
263.829
263.352
262.904
262.484
262.094
261.732
261.399
261.095
260.819
260.573
260.355
260.166
260.006
259.875
259.773
259.7
259.655
259.639
398.683
396.048
393.417
390.791
388.172
385.562
382.962
380.376
377.803
375.247
372.707
370.187
367.687
365.208
362.751
360.317
357.908
355.524
353.165
350.832
348.526
346.247
343.995
341.772
339.576
337.409
335.27
333.16
331.079
329.026
327.002
325.007
323.041
321.104
319.196
317.317
315.467
313.645
311.853
310.089
308.354
306.648
304.97
303.322
301.702
300.111
298.548
297.015
295.51
294.033
292.586
291.167
289.776
288.415
287.082
285.778
284.503
283.256
282.038
280.849
279.689
278.558
277.456
276.382
275.338
274.322
273.336
272.378
271.45
270.55
269.68
268.839
268.027
267.244
266.491
265.767
265.072
264.406
263.77
263.163
262.586
262.038
261.519
261.03
260.57
260.14
259.739
259.368
259.027
258.715
258.432
258.179
257.956
257.762
257.598
257.464
257.359
257.284
257.238
257.222
398.673
396.021
393.371
390.726
388.088
385.458
382.839
380.231
377.637
375.058
372.496
369.951
367.426
364.921
362.437
359.976
357.538
355.124
352.735
350.371
348.033
345.722
343.437
341.18
338.95
336.748
334.574
332.428
330.311
328.222
326.162
324.13
322.127
320.154
318.209
316.293
314.405
312.547
310.718
308.918
307.147
305.405
303.692
302.008
300.353
298.727
297.131
295.563
294.024
292.515
291.035
289.583
288.161
286.769
285.405
284.071
282.766
281.49
280.244
279.027
277.84
276.682
275.553
274.454
273.385
272.345
271.335
270.354
269.404
268.482
267.591
266.73
265.898
265.097
264.325
263.583
262.871
262.189
261.537
260.916
260.324
259.763
259.231
258.73
258.259
257.818
257.408
257.028
256.678
256.358
256.069
255.809
255.581
255.382
255.214
255.076
254.969
254.892
254.845
254.828
398.664
395.992
393.323
390.658
388
385.35
382.709
380.08
377.464
374.862
372.276
369.707
367.157
364.626
362.115
359.626
357.16
354.716
352.297
349.903
347.533
345.19
342.873
340.582
338.318
336.082
333.873
331.693
329.54
327.416
325.32
323.252
321.214
319.204
317.223
315.27
313.347
311.453
309.588
307.753
305.946
304.169
302.421
300.702
299.013
297.353
295.722
294.121
292.55
291.008
289.495
288.012
286.559
285.136
283.742
282.378
281.044
279.74
278.466
277.221
276.007
274.823
273.668
272.544
271.45
270.387
269.353
268.35
267.377
266.435
265.523
264.641
263.79
262.97
262.18
261.421
260.692
259.995
259.327
258.691
258.086
257.511
256.967
256.454
255.972
255.521
255.1
254.711
254.353
254.025
253.729
253.464
253.23
253.027
252.854
252.713
252.603
252.524
252.477
252.46
398.654
395.961
393.272
390.587
387.908
385.237
382.575
379.923
377.284
374.659
372.049
369.456
366.88
364.322
361.785
359.269