/*--------------------------------*- C++ -*----------------------------------*\
  =========                 |
  \\      /  F ield         | OpenFOAM: The Open Source CFD Toolbox
   \\    /   O peration     | Website:  https://openfoam.org
    \\  /    A nd           | Version:  10
     \\/     M anipulation  |
\*---------------------------------------------------------------------------*/
FoamFile
{
    format      ascii;
    class       volScalarField;
    location    "37.5";
    object      T_0;
}
// * * * * * * * * * * * * * * * * * * * * * * * * * * * * * * * * * * * * * //

dimensions      [0 0 0 1 0 0 0];

internalField   nonuniform List<scalar> 
10000
(
374.986
361.299
356.624
354.579
353.473
352.777
352.295
351.936
351.657
351.432
351.246
351.088
350.951
350.83
350.723
350.627
350.539
350.459
350.385
350.316
350.251
350.19
350.133
350.079
350.027
349.978
349.93
349.885
349.841
349.799
349.759
349.72
349.682
349.645
349.609
349.574
349.54
349.507
349.475
349.444
349.414
349.384
349.355
349.327
349.299
349.272
349.246
349.22
349.195
349.171
349.147
349.123
349.101
349.078
349.057
349.035
349.015
348.995
348.975
348.956
348.937
348.919
348.901
348.884
348.868
348.851
348.836
348.821
348.806
348.792
348.778
348.765
348.752
348.739
348.728
348.716
348.705
348.695
348.685
348.675
348.666
348.658
348.649
348.642
348.635
348.628
348.622
348.616
348.61
348.606
348.601
348.597
348.594
348.591
348.588
348.586
348.584
348.583
348.582
348.582
388.623
374.883
367.245
362.801
360.009
358.12
356.76
355.73
354.919
354.26
353.71
353.242
352.836
352.479
352.16
351.873
351.612
351.372
351.15
350.944
350.751
350.569
350.397
350.235
350.08
349.932
349.791
349.655
349.524
349.398
349.276
349.159
349.045
348.934
348.827
348.723
348.622
348.523
348.427
348.333
348.242
348.153
348.066
347.981
347.899
347.818
347.739
347.662
347.587
347.513
347.441
347.371
347.303
347.236
347.171
347.107
347.045
346.985
346.926
346.869
346.813
346.758
346.706
346.654
346.604
346.556
346.509
346.463
346.419
346.376
346.335
346.295
346.257
346.22
346.184
346.15
346.117
346.086
346.056
346.027
346
345.974
345.95
345.927
345.905
345.885
345.866
345.849
345.833
345.818
345.805
345.793
345.782
345.773
345.766
345.759
345.754
345.751
345.749
345.748
393.244
382.363
374.673
369.369
365.642
362.935
360.895
359.306
358.029
356.978
356.094
355.335
354.673
354.089
353.566
353.093
352.663
352.267
351.9
351.559
351.239
350.938
350.654
350.384
350.126
349.881
349.646
349.42
349.203
348.993
348.791
348.595
348.405
348.222
348.043
347.87
347.701
347.537
347.377
347.221
347.069
346.921
346.776
346.635
346.497
346.363
346.231
346.103
345.978
345.855
345.736
345.619
345.505
345.394
345.285
345.179
345.076
344.975
344.877
344.782
344.689
344.598
344.51
344.424
344.341
344.26
344.182
344.106
344.032
343.961
343.892
343.826
343.762
343.7
343.641
343.584
343.529
343.477
343.427
343.379
343.334
343.291
343.251
343.212
343.176
343.143
343.111
343.082
343.056
343.031
343.009
342.989
342.972
342.957
342.944
342.933
342.925
342.919
342.916
342.915
395.237
386.651
379.716
374.36
370.257
367.082
364.58
362.568
360.915
359.531
358.352
357.33
356.434
355.638
354.922
354.274
353.68
353.134
352.627
352.154
351.71
351.292
350.897
350.521
350.163
349.821
349.493
349.178
348.875
348.583
348.301
348.027
347.763
347.506
347.257
347.014
346.779
346.549
346.326
346.108
345.895
345.688
345.486
345.288
345.096
344.907
344.724
344.544
344.369
344.198
344.03
343.867
343.708
343.552
343.4
343.252
343.108
342.967
342.829
342.696
342.565
342.439
342.315
342.196
342.079
341.966
341.857
341.75
341.647
341.548
341.451
341.359
341.269
341.183
341.1
341.02
340.943
340.87
340.8
340.734
340.67
340.61
340.553
340.5
340.449
340.402
340.358
340.318
340.28
340.246
340.215
340.188
340.163
340.142
340.124
340.109
340.098
340.09
340.085
340.083
396.291
389.286
383.182
378.098
373.943
370.556
367.777
365.472
363.533
361.88
360.452
359.203
358.096
357.107
356.214
355.4
354.653
353.963
353.321
352.721
352.158
351.626
351.122
350.643
350.186
349.75
349.331
348.928
348.54
348.166
347.804
347.454
347.115
346.786
346.466
346.156
345.853
345.559
345.272
344.992
344.72
344.454
344.194
343.941
343.693
343.452
343.216
342.985
342.76
342.54
342.325
342.116
341.911
341.711
341.516
341.326
341.14
340.959
340.783
340.611
340.444
340.281
340.123
339.969
339.819
339.674
339.533
339.396
339.264
339.136
339.012
338.893
338.778
338.667
338.56
338.458
338.36
338.266
338.176
338.09
338.009
337.931
337.858
337.789
337.725
337.664
337.608
337.556
337.508
337.464
337.424
337.389
337.357
337.33
337.307
337.288
337.273
337.263
337.256
337.254
396.935
391.018
385.629
380.908
376.861
373.422
370.502
368.009
365.866
364.006
362.376
360.933
359.644
358.482
357.427
356.461
355.571
354.746
353.976
353.255
352.576
351.935
351.326
350.746
350.193
349.663
349.155
348.666
348.195
347.74
347.3
346.874
346.461
346.061
345.671
345.293
344.924
344.565
344.216
343.875
343.543
343.218
342.901
342.592
342.29
341.996
341.708
341.426
341.152
340.883
340.621
340.365
340.115
339.871
339.633
339.401
339.174
338.953
338.738
338.528
338.324
338.125
337.932
337.744
337.561
337.384
337.212
337.045
336.883
336.727
336.576
336.43
336.29
336.154
336.024
335.899
335.779
335.664
335.554
335.45
335.35
335.256
335.166
335.082
335.003
334.929
334.861
334.797
334.738
334.685
334.636
334.593
334.554
334.521
334.493
334.47
334.452
334.439
334.431
334.428
397.366
392.222
387.409
383.046
379.172
375.771
372.799
370.199
367.918
365.904
364.113
362.511
361.066
359.753
358.553
357.449
356.427
355.475
354.586
353.749
352.961
352.213
351.503
350.827
350.18
349.559
348.964
348.39
347.837
347.303
346.786
346.286
345.8
345.329
344.871
344.425
343.991
343.568
343.156
342.755
342.363
341.981
341.607
341.243
340.887
340.539
340.199
339.868
339.543
339.227
338.918
338.616
338.321
338.033
337.752
337.478
337.21
336.949
336.695
336.448
336.206
335.972
335.743
335.521
335.306
335.096
334.893
334.696
334.506
334.321
334.143
333.971
333.805
333.645
333.491
333.343
333.201
333.066
332.936
332.813
332.695
332.584
332.478
332.379
332.286
332.198
332.117
332.042
331.973
331.909
331.852
331.801
331.756
331.716
331.683
331.656
331.635
331.62
331.61
331.607
397.672
393.096
388.739
384.695
381.01
377.692
374.724
372.073
369.703
367.579
365.665
363.934
362.357
360.914
359.586
358.357
357.215
356.147
355.145
354.2
353.307
352.459
351.652
350.881
350.144
349.436
348.755
348.099
347.466
346.854
346.262
345.688
345.131
344.59
344.063
343.551
343.053
342.567
342.093
341.632
341.181
340.741
340.311
339.892
339.482
339.082
338.691
338.309
337.936
337.571
337.215
336.867
336.527
336.196
335.872
335.556
335.248
334.948
334.655
334.369
334.092
333.821
333.558
333.302
333.054
332.812
332.578
332.351
332.132
331.919
331.713
331.515
331.324
331.139
330.962
330.792
330.628
330.472
330.323
330.18
330.045
329.916
329.795
329.68
329.573
329.472
329.378
329.292
329.212
329.139
329.073
329.014
328.962
328.917
328.878
328.847
328.822
328.805
328.794
328.79
397.899
393.752
389.755
385.985
382.482
379.266
376.333
373.667
371.246
369.045
367.038
365.203
363.518
361.963
360.523
359.183
357.931
356.756
355.65
354.604
353.612
352.669
351.769
350.908
350.083
349.29
348.527
347.791
347.08
346.392
345.725
345.079
344.452
343.842
343.249
342.671
342.109
341.561
341.026
340.505
339.996
339.499
339.014
338.54
338.076
337.624
337.182
336.75
336.328
335.916
335.513
335.12
334.735
334.36
333.994
333.637
333.288
332.948
332.617
332.294
331.98
331.674
331.376
331.086
330.805
330.532
330.267
330.01
329.762
329.521
329.288
329.064
328.847
328.638
328.438
328.245
328.06
327.883
327.714
327.553
327.399
327.254
327.117
326.987
326.865
326.751
326.645
326.547
326.456
326.374
326.299
326.232
326.173
326.122
326.079
326.043
326.015
325.996
325.983
325.979
398.072
394.256
390.548
387.007
383.67
380.558
377.676
375.017
372.57
370.318
368.243
366.326
364.551
362.901
361.364
359.925
358.574
357.301
356.099
354.958
353.874
352.84
351.852
350.905
349.996
349.121
348.278
347.464
346.677
345.915
345.176
344.459
343.763
343.085
342.426
341.785
341.159
340.549
339.955
339.374
338.808
338.254
337.714
337.186
336.67
336.166
335.673
335.192
334.721
334.262
333.813
333.374
332.945
332.527
332.119
331.72
331.331
330.952
330.582
330.222
329.871
329.53
329.198
328.875
328.561
328.256
327.96
327.674
327.396
327.128
326.868
326.617
326.375
326.143
325.919
325.703
325.497
325.299
325.111
324.931
324.76
324.597
324.444
324.299
324.163
324.036
323.918
323.808
323.707
323.615
323.532
323.457
323.391
323.334
323.285
323.246
323.215
323.193
323.179
323.174
398.207
394.651
391.175
387.825
384.634
381.622
378.796
376.159
373.703
371.418
369.291
367.31
365.461
363.731
362.109
360.583
359.143
357.781
356.49
355.262
354.091
352.971
351.899
350.87
349.88
348.927
348.006
347.117
346.256
345.422
344.613
343.827
343.062
342.319
341.595
340.89
340.203
339.532
338.878
338.24
337.616
337.007
336.412
335.83
335.262
334.707
334.164
333.634
333.115
332.608
332.113
331.63
331.157
330.696
330.246
329.806
329.377
328.959
328.551
328.154
327.767
327.39
327.024
326.667
326.321
325.985
325.659
325.343
325.036
324.74
324.453
324.177
323.91
323.653
323.405
323.168
322.94
322.722
322.514
322.315
322.127
321.947
321.778
321.618
321.468
321.328
321.197
321.076
320.965
320.863
320.771
320.689
320.616
320.553
320.499
320.455
320.421
320.397
320.382
320.377
398.314
394.965
391.677
388.487
385.421
382.499
379.732
377.121
374.666
372.361
370.197
368.166
366.256
364.458
362.762
361.158
359.639
358.197
356.824
355.514
354.261
353.062
351.91
350.803
349.736
348.706
347.712
346.749
345.817
344.912
344.034
343.181
342.351
341.543
340.755
339.988
339.24
338.51
337.797
337.101
336.421
335.757
335.108
334.473
333.853
333.247
332.655
332.076
331.51
330.957
330.416
329.888
329.372
328.868
328.376
327.896
327.427
326.97
326.524
326.09
325.667
325.255
324.855
324.465
324.087
323.719
323.363
323.017
322.682
322.358
322.045
321.742
321.45
321.169
320.899
320.639
320.39
320.152
319.924
319.707
319.5
319.304
319.119
318.945
318.78
318.627
318.484
318.352
318.23
318.119
318.018
317.928
317.848
317.779
317.721
317.673
317.636
317.609
317.592
317.587
398.4
395.217
392.082
389.024
386.066
383.225
380.511
377.93
375.483
373.166
370.975
368.903
366.943
365.087
363.327
361.655
360.064
358.548
357.1
355.714
354.386
353.111
351.884
350.702
349.562
348.46
347.393
346.36
345.359
344.386
343.441
342.522
341.627
340.755
339.906
339.078
338.269
337.481
336.71
335.958
335.222
334.504
333.802
333.115
332.444
331.788
331.146
330.519
329.905
329.306
328.72
328.148
327.589
327.042
326.509
325.988
325.48
324.985
324.502
324.031
323.572
323.125
322.691
322.268
321.858
321.459
321.072
320.697
320.334
319.982
319.642
319.314
318.998
318.693
318.399
318.118
317.847
317.589
317.342
317.106
316.882
316.669
316.468
316.279
316.101
315.934
315.779
315.635
315.503
315.382
315.273
315.175
315.089
315.014
314.951
314.899
314.858
314.829
314.811
314.805
398.469
395.421
392.411
389.463
386.596
383.825
381.161
378.609
376.171
373.848
371.637
369.533
367.531
365.625
363.809
362.076
360.421
358.837
357.32
355.864
354.465
353.119
351.821
350.568
349.357
348.186
347.051
345.95
344.881
343.842
342.832
341.849
340.891
339.957
339.047
338.159
337.292
336.445
335.618
334.81
334.02
333.248
332.493
331.755
331.033
330.327
329.637
328.962
328.302
327.657
327.027
326.41
325.808
325.22
324.646
324.085
323.538
323.004
322.484
321.976
321.482
321.001
320.533
320.078
319.635
319.206
318.789
318.384
317.993
317.614
317.248
316.894
316.553
316.224
315.908
315.604
315.313
315.034
314.767
314.513
314.272
314.043
313.826
313.622
313.43
313.25
313.083
312.928
312.785
312.655
312.537
312.432
312.339
312.258
312.19
312.134
312.09
312.059
312.04
312.033
398.525
395.587
392.679
389.822
387.032
384.322
381.7
379.175
376.749
374.423
372.196
370.066
368.028
366.078
364.212
362.425
360.711
359.067
357.486
355.965
354.5
353.086
351.721
350.401
349.123
347.885
346.683
345.517
344.383
343.28
342.207
341.161
340.142
339.148
338.178
337.232
336.307
335.404
334.521
333.658
332.814
331.989
331.183
330.394
329.622
328.867
328.129
327.407
326.701
326.01
325.335
324.676
324.031
323.401
322.786
322.186
321.6
321.028
320.471
319.927
319.398
318.883
318.381
317.893
317.419
316.959
316.512
316.079
315.659
315.253
314.861
314.481
314.116
313.763
313.424
313.099
312.787
312.488
312.202
311.93
311.671
311.425
311.193
310.974
310.768
310.575
310.396
310.23
310.077
309.938
309.812
309.698
309.599
309.512
309.439
309.379
309.332
309.298
309.278
309.271
398.571
395.722
392.898
390.116
387.39
384.731
382.147
379.645
377.23
374.902
372.663
370.51
368.441
366.453
364.543
362.707
360.94
359.239
357.599
356.018
354.49
353.014
351.585
350.201
348.859
347.557
346.292
345.062
343.866
342.701
341.566
340.46
339.381
338.328
337.3
336.296
335.314
334.355
333.418
332.501
331.605
330.728
329.87
329.031
328.21
327.407
326.621
325.852
325.101
324.366
323.647
322.944
322.258
321.587
320.931
320.292
319.667
319.058
318.464
317.884
317.32
316.771
316.236
315.716
315.21
314.719
314.243
313.781
313.334
312.901
312.482
312.077
311.687
311.312
310.95
310.603
310.27
309.951
309.646
309.356
309.08
308.818
308.57
308.336
308.116
307.911
307.72
307.543
307.38
307.231
307.096
306.975
306.869
306.777
306.698
306.634
306.584
306.548
306.527
306.519
398.608
395.832
393.077
390.356
387.683
385.066
382.514
380.033
377.627
375.298
373.047
370.875
368.779
366.757
364.807
362.926
361.11
359.357
357.663
356.025
354.439
352.903
351.414
349.969
348.566
347.202
345.876
344.586
343.329
342.104
340.91
339.744
338.607
337.496
336.411
335.351
334.314
333.301
332.31
331.34
330.392
329.464
328.556
327.667
326.797
325.946
325.114
324.299
323.503
322.723
321.961
321.216
320.488
319.776
319.081
318.402
317.74
317.093
316.463
315.848
315.249
314.666
314.098
313.546
313.009
312.488
311.982
311.492
311.017
310.557
310.112
309.683
309.268
308.869
308.485
308.117
307.763
307.424
307.101
306.792
306.499
306.22
305.957
305.709
305.476
305.257
305.054
304.866
304.693
304.535
304.392
304.264
304.151
304.052
303.969
303.901
303.848
303.81
303.787
303.779
398.638
395.921
393.221
390.551
387.921
385.339
382.813
380.349
377.95
375.62
373.359
371.169
369.048
366.995
365.009
363.086
361.226
359.424
357.679
355.988
354.347
352.755
351.208
349.706
348.244
346.822
345.437
344.088
342.772
341.489
340.237
339.015
337.82
336.654
335.513
334.398
333.307
332.24
331.197
330.175
329.175
328.197
327.239
326.302
325.385
324.487
323.608
322.748
321.907
321.084
320.279
319.492
318.722
317.97
317.236
316.518
315.818
315.134
314.468
313.818
313.185
312.568
311.968
311.384
310.816
310.265
309.73
309.211
308.709
308.222
307.752
307.298
306.859
306.437
306.031
305.641
305.267
304.908
304.566
304.24
303.929
303.635
303.356
303.093
302.846
302.615
302.4
302.201
302.018
301.851
301.699
301.564
301.444
301.34
301.252
301.18
301.124
301.084
301.059
301.05
398.662
395.993
393.338
390.709
388.113
385.56
383.054
380.603
378.209
375.876
373.606
371.399
369.255
367.173
365.153
363.193
361.29
359.444
357.651
355.909
354.217
352.571
350.97
349.412
347.895
346.416
344.975
343.569
342.197
340.858
339.549
338.271
337.022
335.8
334.605
333.437
332.293
331.174
330.078
329.006
327.956
326.928
325.922
324.936
323.972
323.028
322.103
321.199
320.313
319.447
318.6
317.771
316.961
316.169
315.396
314.64
313.902
313.182
312.48
311.795
311.128
310.478
309.846
309.23
308.632
308.051
307.487
306.94
306.411
305.898
305.402
304.923
304.461
304.016
303.587
303.176
302.781
302.404
302.043
301.698
301.371
301.06
300.767
300.489
300.229
299.986
299.759
299.549
299.356
299.179
299.019
298.876
298.75
298.641
298.548
298.472
298.413
298.37
298.344
298.335
398.681
396.05
393.431
390.834
388.266
385.734
383.245
380.803
378.412
376.076
373.795
371.571
369.405
367.297
365.245
363.249
361.308
359.419
357.58
355.792
354.05
352.354
350.701
349.09
347.519
345.986
344.49
343.03
341.603
340.209
338.847
337.514
336.211
334.936
333.688
332.467
331.272
330.101
328.955
327.833
326.734
325.657
324.603
323.571
322.559
321.569
320.6
319.651
318.723
317.814
316.925
316.055
315.205
314.374
313.562
312.768
311.994
311.237
310.5
309.781
309.08
308.397
307.732
307.086
306.457
305.847
305.254
304.68
304.123
303.584
303.063
302.559
302.073
301.606
301.155
300.723
300.308
299.911
299.531
299.169
298.825
298.499
298.19
297.898
297.625
297.369
297.13
296.91
296.706
296.521
296.353
296.202
296.07
295.955
295.857
295.777
295.715
295.67
295.643
295.633
398.696
396.094
393.503
390.931
388.384
385.87
383.392
380.956
378.566
376.224
373.932
371.693
369.506
367.371
365.29
363.26
361.281
359.352
357.471
355.637
353.849
352.104
350.402
348.74
347.118
345.533
343.985
342.471
340.992
339.545
338.13
336.745
335.389
334.062
332.763
331.49
330.244
329.024
327.828
326.656
325.509
324.385
323.283
322.204
321.148
320.113
319.099
318.107
317.135
316.185
315.254
314.344
313.454
312.584
311.734
310.903
310.092
309.3
308.527
307.774
307.04
306.324
305.628
304.951
304.292
303.652
303.032
302.429
301.846
301.281
300.735
300.207
299.698
299.207
298.735
298.282
297.847
297.431
297.033
296.653
296.293
295.95
295.626
295.321
295.034
294.765
294.515
294.284
294.071
293.876
293.7
293.542
293.403
293.283
293.18
293.096
293.031
292.984
292.956
292.946
398.708
396.128
393.558
391.005
388.474
385.971
383.501
381.068
378.676
376.327
374.024
371.768
369.56
367.401
365.29
363.228
361.214
359.246
357.325
355.448
353.615
351.824
350.074
348.364
346.692
345.057
343.458
341.894
340.363
338.865
337.399
335.962
334.556
333.178
331.828
330.506
329.21
327.941
326.696
325.477
324.282
323.111
321.963
320.839
319.737
318.658
317.6
316.565
315.552
314.559
313.588
312.638
311.709
310.801
309.913
309.045
308.198
307.37
306.563
305.776
305.009
304.261
303.534
302.826
302.137
301.469
300.82
300.19
299.58
298.989
298.418
297.867
297.334
296.821
296.328
295.854
295.399
294.964
294.548
294.151
293.773
293.415
293.077
292.757
292.457
292.176
291.915
291.673
291.45
291.246
291.062
290.897
290.752
290.625
290.518
290.431
290.362
290.313
290.284
290.273
398.716
396.153
393.598
391.058
388.538
386.043
383.577
381.144
378.747
376.39
374.074
371.802
369.573
367.39
365.251
363.158
361.11
359.106
357.145
355.227
353.351
351.516
349.72
347.963
346.244
344.561
342.913
341.299
339.719
338.171
336.654
335.168
333.712
332.285
330.886
329.515
328.171
326.853
325.561
324.294
323.053
321.836
320.643
319.473
318.327
317.204
316.104
315.027
313.972
312.939
311.928
310.938
309.97
309.024
308.098
307.194
306.311
305.449
304.608
303.787
302.987
302.208
301.449
300.711
299.994
299.296
298.619
297.963
297.326
296.71
296.115
295.539
294.984
294.449
293.934
293.439
292.965
292.511
292.076
291.662
291.269
290.895
290.542
290.208
289.895
289.602
289.329
289.077
288.844
288.632
288.439
288.267
288.115
287.984
287.872
287.78
287.709
287.658
287.627
287.616
398.722
396.17
393.626
391.094
388.58
386.089
383.623
381.188
378.785
376.418
374.089
371.799
369.549
367.342
365.176
363.053
360.971
358.932
356.934
354.976
353.059
351.181
349.342
347.539
345.774
344.044
342.349
340.687
339.059
337.463
335.898
334.363
332.859
331.383
329.936
328.517
327.126
325.761
324.422
323.11
321.822
320.56
319.322
318.109
316.919
315.754
314.611
313.492
312.396
311.323
310.272
309.244
308.238
307.254
306.292
305.352
304.434
303.537
302.662
301.808
300.976
300.165
299.376
298.608
297.861
297.135
296.431
295.748
295.085
294.444
293.824
293.225
292.647
292.09
291.554
291.039
290.545
290.072
289.62
289.189
288.779
288.39
288.022
287.675
287.349
287.043
286.759
286.496
286.254
286.033
285.833
285.653
285.495
285.358
285.242
285.146
285.072
285.019
284.986
284.975
398.726
396.18
393.642
391.114
388.603
386.112
383.644
381.203
378.793
376.414
374.07
371.762
369.492
367.26
365.068
362.915
360.802
358.728
356.694
354.698
352.741
350.822
348.939
347.094
345.284
343.508
341.767
340.06
338.384
336.741
335.129
333.548
331.996
330.474
328.98
327.514
326.076
324.665
323.281
321.923
320.591
319.284
318.003
316.746
315.514
314.306
313.122
311.962
310.826
309.713
308.623
307.556
306.513
305.492
304.493
303.518
302.565
301.634
300.726
299.839
298.975
298.134
297.314
296.516
295.741
294.987
294.255
293.545
292.857
292.191
291.547
290.924
290.324
289.745
289.188
288.653
288.14
287.648
287.179
286.731
286.305
285.9
285.518
285.157
284.818
284.501
284.206
283.932
283.681
283.451
283.243
283.056
282.892
282.749
282.628
282.529
282.452
282.397
282.363
282.351
398.727
396.184
393.648
391.121
388.609
386.115
383.643
381.194
378.773
376.382
374.023
371.696
369.405
367.149
364.93
362.748
360.604
358.496
356.427
354.394
352.399
350.439
348.516
346.628
344.775
342.956
341.17
339.417
337.697
336.008
334.35
332.722
331.125
329.556
328.017
326.506
325.022
323.566
322.137
320.735
319.359
318.009
316.684
315.385
314.111
312.861
311.637
310.436
309.26
308.108
306.98
305.876
304.795
303.737
302.703
301.693
300.705
299.741
298.8
297.881
296.986
296.113
295.264
294.437
293.632
292.851
292.092
291.356
290.643
289.952
289.284
288.639
288.016
287.415
286.838
286.283
285.75
285.24
284.753
284.289
283.847
283.427
283.03
282.656
282.304
281.975
281.669
281.385
281.124
280.886
280.67
280.477
280.306
280.158
280.032
279.93
279.85
279.792
279.757
279.745
398.727
396.183
393.645
391.116
388.601
386.101
383.621
381.163
378.731
376.325
373.949
371.604
369.29
367.011
364.765
362.555
360.379
358.24
356.135
354.067
352.034
350.036
348.072
346.143
344.248
342.386
340.558
338.761
336.996
335.263
333.56
331.888
330.246
328.632
327.048
325.492
323.965
322.465
320.992
319.546
318.127
316.734
315.367
314.026
312.711
311.421
310.156
308.916
307.701
306.51
305.344
304.202
303.085
301.992
300.922
299.877
298.856
297.858
296.884
295.934
295.008
294.105
293.226
292.37
291.537
290.729
289.943
289.181
288.443
287.728
287.036
286.368
285.723
285.101
284.503
283.928
283.377
282.849
282.344
281.863
281.405
280.971
280.56
280.172
279.808
279.467
279.15
278.856
278.586
278.339
278.115
277.915
277.738
277.585
277.455
277.348
277.265
277.206
277.17
277.157
398.725
396.178
393.635
391.101
388.579
386.072
383.582
381.113
378.667
376.246
373.852
371.487
369.152
366.848
364.576
362.337
360.131
357.96
355.822
353.718
351.649
349.613
347.61
345.641
343.706
341.802
339.931
338.092
336.285
334.508
332.762
331.046
329.36
327.703
326.075
324.475
322.904
321.361
319.845
318.357
316.895
315.46
314.052
312.67
311.314
309.984
308.68
307.401
306.147
304.919
303.715
302.537
301.384
300.255
299.151
298.072
297.017
295.986
294.981
293.999
293.042
292.109
291.2
290.316
289.456
288.62
287.808
287.021
286.257
285.518
284.803
284.112
283.446
282.803
282.185
281.59
281.02
280.474
279.953
279.455
278.982
278.532
278.107
277.707
277.33
276.978
276.649
276.345
276.066
275.81
275.579
275.372
275.189
275.03
274.896
274.786
274.7
274.639
274.601
274.588
398.722
396.168
393.618
391.076
388.545
386.028
383.527
381.045
378.585
376.147
373.734
371.349
368.991
366.663
364.364
362.097
359.862
357.659
355.488
353.35
351.245
349.172
347.132
345.124
343.148
341.205
339.293
337.412
335.562
333.743
331.955
330.196
328.467
326.767
325.097
323.455
321.841
320.255
318.698
317.167
315.664
314.189
312.74
311.317
309.922
308.552
307.209
305.892
304.6
303.335
302.095
300.88
299.691
298.528
297.389
296.276
295.189
294.126
293.088
292.076
291.088
290.126
289.189
288.276
287.388
286.526
285.688
284.875
284.087
283.324
282.586
281.873
281.185
280.521
279.883
279.269
278.681
278.117
277.578
277.065
276.576
276.112
275.673
275.259
274.87
274.506
274.168
273.854
273.565
273.301
273.062
272.848
272.659
272.496
272.357
272.243
272.155
272.091
272.052
272.039
398.717
396.154
393.595
391.044
388.502
385.973
383.459
380.962
378.485
376.03
373.598
371.191
368.811
366.458
364.133
361.838
359.573
357.339
355.136
352.964
350.823
348.715
346.637
344.592
342.577
340.594
338.642
336.721
334.831
332.97
331.14
329.34
327.569
325.828
324.115
322.431
320.776
319.149
317.55
315.979
314.435
312.919
311.43
309.969
308.534
307.126
305.744
304.389
303.06
301.758
300.482
299.232
298.008
296.81
295.638
294.492
293.372
292.277
291.209
290.166
289.148
288.157
287.191
286.25
285.336
284.447
283.583
282.745
281.933
281.147
280.386
279.651
278.941
278.257
277.599
276.966
276.36
275.778
275.223
274.693
274.189
273.711
273.258
272.831
272.43
272.055
271.705
271.381
271.084
270.811
270.565
270.344
270.15
269.981
269.838
269.721
269.629
269.564
269.524
269.51
398.712
396.138
393.568
391.004
388.45
385.907
383.378
380.866
378.372
375.898
373.445
371.017
368.613
366.235
363.884
361.561
359.267
357.002
354.767
352.562
350.387
348.243
346.129
344.046
341.994
339.973
337.982
336.021
334.09
332.19
330.319
328.478
326.667
324.884
323.131
321.406
319.71
318.043
316.403
314.792
313.209
311.653
310.125
308.624
307.151
305.705
304.286
302.894
301.528
300.19
298.878
297.593
296.335
295.103
293.898
292.719
291.567
290.441
289.342
288.269
287.222
286.201
285.207
284.24
283.298
282.383
281.494
280.632
279.796
278.986
278.203
277.446
276.715
276.011
275.333
274.682
274.057
273.458
272.886
272.34
271.821
271.329
270.862
270.423
270.01
269.623
269.263
268.93
268.623
268.342
268.089
267.861
267.661
267.487
267.34
267.219
267.125
267.057
267.016
267.001
398.705
396.119
393.535
390.958
388.389
385.831
383.287
380.757
378.244
375.751
373.278
370.827
368.399
365.996
363.619
361.268
358.945
356.649
354.383
352.145
349.936
347.758
345.608
343.489
341.4
339.341
337.312
335.312
333.343
331.403
329.492
327.612
325.76
323.938
322.144
320.38
318.644
316.936
315.258
313.607
311.984
310.39
308.823
307.285
305.773
304.29
302.834
301.406
300.004
298.631
297.284
295.965
294.673
293.407
292.169
290.959
289.775
288.618
287.488
286.385
285.31
284.261
283.239
282.244
281.276
280.335
279.422
278.535
277.675
276.843
276.037
275.259
274.507
273.783
273.086
272.416
271.773
271.157
270.569
270.008
269.473
268.967
268.487
268.035
267.61
267.212
266.842
266.499
266.183
265.894
265.633
265.4
265.193
265.014
264.863
264.738
264.642
264.572
264.53
264.515
398.698
396.097
393.499
390.906
388.322
385.748
383.186
380.638
378.106
375.592
373.097
370.623
368.172
365.743
363.339
360.961
358.608
356.283
353.985
351.715
349.473
347.26
345.076
342.922
340.796
338.7
336.633
334.596
332.588
330.61
328.661
326.741
324.85
322.989
321.156
319.352
317.578
315.831
314.114
312.424
310.764
309.131
307.527
305.95
304.402
302.882
301.39
299.926
298.489
297.081
295.7
294.346
293.021
291.723
290.453
289.21
287.995
286.808
285.648
284.516
283.412
282.335
281.286
280.265
279.271
278.305
277.366
276.455
275.572
274.717
273.89
273.09
272.318
271.574
270.858
270.169
269.509
268.876
268.272
267.695
267.146
266.625
266.133
265.668
265.231
264.822
264.442
264.089
263.765
263.468
263.2
262.96
262.748
262.564
262.408
262.28
262.181
262.109
262.066
262.05
398.69
396.073
393.459
390.85
388.248
385.656
383.076
380.509
377.957
375.422
372.905
370.407
367.931
365.478
363.047
360.641
358.259
355.904
353.575
351.273
348.999
346.753
344.534
342.345
340.184
338.051
335.948
333.874
331.828
329.812
327.825
325.867
323.938
322.038
320.167
318.325
316.512
314.728
312.972
311.245
309.547
307.877
306.235
304.622
303.038
301.482
299.954
298.454
296.983
295.54
294.126
292.739
291.381
290.051
288.749
287.475
286.229
285.012
283.823
282.662
281.53
280.425
279.349
278.301
277.282
276.291
275.328
274.394
273.488
272.61
271.761
270.94
270.148
269.385
268.649
267.943
267.265
266.616
265.995
265.403
264.84
264.305
263.8
263.323
262.874
262.455
262.064
261.702
261.369
261.065
260.789
260.542
260.325
260.136
259.976
259.845
259.742
259.669
259.625
259.609
398.682
396.047
393.415
390.789
388.169
385.559
382.959
380.371
377.799
375.242
372.702
370.181
367.68
365.201
362.743
360.309
357.899
355.514
353.155
350.822
348.515
346.236
343.984
341.76
339.564
337.396
335.257
333.146
331.064
329.011
326.987
324.991
323.025
321.087
319.179
317.299
315.448
313.627
311.834
310.069
308.334
306.628
304.95
303.301
301.681
300.089
298.526
296.992
295.487
294.01
292.562
291.143
289.752
288.391
287.058
285.753
284.478
283.231
282.013
280.823
279.663
278.532
277.429
276.355
275.31
274.295
273.308
272.35
271.422
270.522
269.652
268.81
267.998
267.215
266.462
265.737
265.042
264.377
263.74
263.133
262.556
262.007
261.489
260.999
260.54
260.109
259.709
259.337
258.996
258.684
258.401
258.148
257.925
257.731
257.567
257.433
257.328
257.252
257.207
257.191
398.673
396.02
393.37
390.724
388.085
385.455
382.835
380.227
377.632
375.053
372.49
369.945
367.419
364.914
362.43
359.968
357.529
355.115
352.725
350.361
348.022
345.71
343.425
341.167
338.937
336.734
334.56
332.414
330.296
328.206
326.146
324.114
322.111
320.136
318.191
316.274
314.387
312.528
310.699
308.898
307.127
305.384
303.671
301.987
300.331
298.705
297.108
295.54
294.001
292.491
291.011
289.559
288.137
286.744
285.38
284.045
282.74
281.464
280.218
279
277.813
276.654
275.526
274.427
273.357
272.317
271.306
270.326
269.375
268.453
267.562
266.7
265.869
265.067
264.295
263.553
262.841
262.159
261.507
260.885
260.293
259.732
259.2
258.699
258.228
257.787
257.376
256.996
256.646
256.326
256.037
255.778
255.549
255.35
255.182
255.044
254.937
254.86
254.813
254.796
398.663
395.991
393.321
390.656
387.997
385.346
382.705
380.076
377.459
374.857
372.27
369.701
367.15
364.618
362.107
359.618
357.151
354.707
352.287
349.892
347.522
345.178
342.86
340.569
338.305
336.068
333.859
331.678
329.525
327.4
325.303
323.236
321.196
319.186
317.204
315.252
313.328
311.434
309.568
307.732
305.925
304.148
302.399
300.68
298.99
297.33
295.699
294.098
292.526
290.984
289.471
287.988
286.534
285.11
283.716
282.352
281.018
279.713
278.439
277.194
275.979
274.795
273.64
272.516
271.422
270.358
269.324
268.321
267.348
266.405
265.493
264.611
263.76
262.939
262.149
261.39
260.661
259.963
259.296
258.66
258.054
257.479
256.935
256.422
255.94
255.488
255.068
254.679
254.32
253.993
253.697
253.431
253.197
252.994
252.822
252.681
252.571
252.492
252.444
252.427
398.653
395.961
393.271
390.585
387.905
385.233
382.571
379.919
377.279
374.654
372.043
369.449
366.872
364.315
361.777
359.26
356.764
354.291