/*--------------------------------*- C++ -*----------------------------------*\
| =========                 |                                                 |
| \\      /  F ield         | OpenFOAM: The Open Source CFD Toolbox           |
|  \\    /   O peration     | Version:  2406                                  |
|   \\  /    A nd           | Website:  www.openfoam.com                      |
|    \\/     M anipulation  |                                                 |
\*---------------------------------------------------------------------------*/
FoamFile
{
    version     2.0;
    format      ascii;
    arch        "LSB;label=32;scalar=64";
    class       surfaceScalarField;
    location    "15.25";
    object      phi;
}
// * * * * * * * * * * * * * * * * * * * * * * * * * * * * * * * * * * * * * //

dimensions      [0 3 -1 0 0 0 0];

oriented        oriented;

internalField   nonuniform List<scalar> 
101088
(
0.0001238112
-2.2165821e-05
1.7206248e-05
1.933043e-05
0.00025517165
-9.4677071e-05
7.3100372e-05
8.3587276e-05
0.00037084251
-0.00022533642
0.00017198703
0.00020068411
0.00044254233
-0.00042040445
0.00031451782
0.00037781227
0.00045447851
-0.00065280036
0.0004722173
0.00059366293
0.00042206338
-0.00085875699
0.00058988307
0.00079089966
0.00038614072
-0.00097765474
0.00062141451
0.00090958211
0.00037745462
-0.0009879834
0.00056579652
0.00092749575
-0.00090507166
0.00045899786
0.00085403133
0.00040186037
0.00015053387
-2.4481363e-05
2.1290236e-05
0.00030631983
-0.00010319423
8.9627444e-05
0.00043616848
-0.00024247326
0.00020907348
0.00050318022
-0.0004460124
0.00037867681
0.00048985653
-0.00068240092
0.00056276836
0.00041992321
-0.00088555456
0.0006974144
0.00034453385
-0.00099649063
0.00073352518
0.00030059589
-0.00099638355
0.00067360916
-0.00090209823
0.0005570101
0.00029162719
0.00017720837
-2.6008763e-05
2.544418e-05
0.00035665649
-0.00010827025
0.00010624096
0.00050022169
-0.00025147263
0.00024585821
0.00056499113
-0.00045635772
0.00044122148
0.00053294929
-0.00068711002
0.00064917609
0.00043425095
-0.00087706704
0.00079768292
0.00032793732
-0.00097165101
0.00083586891
0.00025468386
-0.00095690516
0.0007705221
-0.00085285597
0.00064469691
0.00021963436
0.00020311047
-2.6690729e-05
2.955595e-05
0.00040531728
-0.00010985965
0.0001224908
0.00056199238
-0.00025245701
0.00028140273
0.00062510335
-0.00045221086
0.00050083075
0.00057742904
-0.00066949475
0.00073029643
0.00045546076
-0.00083817532
0.00089047543
0.00032426207
-0.00090936388
0.00092930317
0.00022800445
-0.00087735019
0.00085795785
-0.0007667109
0.00072284764
0.00017385313
0.00022746706
-2.6370395e-05
3.3473397e-05
0.00045074424
-0.00010774028
0.000137891
0.00061941842
-0.0002456452
0.0003149328
0.00068119485
-0.00043497548
0.00055679323
0.00062003761
-0.0006327942
0.00080604306
0.00047797912
-0.00077379587
0.00097658231
0.00032544923
-0.00081613715
0.0010154084
0.00021001658
-0.00076551404
0.0009377592
-0.00065191704
0.0007933833
0.00014063633
0.00025019613
-2.5350244e-05
3.7184174e-05
0.00049335735
-0.00010290781
0.00015243092
0.00067357825
-0.00023290127
0.00034653337
0.00073426755
-0.00040741732
0.0006095117
0.00065998104
-0.0005804863
0.00087738454
0.00049787391
-0.00068811387
0.001057482
0.00032476309
-0.00069801058
0.0010958895
0.00019209258
-0.00062928615
0.0010116729
-0.00051745257
0.00085804209
0.0001104668
0.00027006716
-2.3529888e-05
4.0629343e-05
0.00052968603
-9.5121649e-05
0.0001659403
0.00071771138
-0.0002140545
0.0003759817
0.00077358361
-0.00036997975
0.00065890879
0.00068304084
-0.00051469984
0.0009446161
0.0004995161
-0.00058619861
0.0011337653
0.0003070892
-0.00056370967
0.0011716185
0.00016111636
-0.00048033514
0.0010807735
-0.00037577786
0.0009182097
7.223334e-05
0.00028678377
-2.0854439e-05
4.3768154e-05
0.00055898372
-8.413572e-05
0.00017837503
0.00074997019
-0.00018854828
0.00040341597
0.00079502995
-0.00032207348
0.0007056108
0.00068207467
-0.0004363171
0.0010089961
0.00047378713
-0.00047312316
0.0012071129
0.00026329534
-0.00042366943
0.0012443706
0.00010872105
-0.00033277276
0.0011471777
-0.00024142051
0.00097580575
1.8467008e-05
0.00029997366
-1.7194574e-05
4.6568391e-05
0.00058019037
-6.9364848e-05
0.0001896637
0.00076795839
-0.00015499715
0.0004288447
0.00079425401
-0.00026176969
0.00074970583
0.00065107539
-0.0003450755
0.0010705693
0.00041449705
-0.00035405066
0.0012775231
0.00018871547
-0.00028983598
0.0013141592
3.1907946e-05
-0.00020252738
0.0012113975
-0.00012965569
0.0010314023
-5.3019599e-05
0.00030950815
-1.2468979e-05
4.8938121e-05
0.00059328405
-5.0287146e-05
0.00019941874
0.00077218622
-0.00011202263
0.00045133574
0.00077288847
-0.00018718401
0.00078968664
0.00059347944
-0.00024050766
0.0011269465
0.00032728174
-0.00023364447
0.0013420627
9.0545636e-05
-0.00017302541
0.0013782932
-6.2033315e-05
-0.00010300035
0.0012710735
-5.2748104e-05
0.0010834004
-0.00013587305
0.00031527175
-6.6045963e-06
5.0741703e-05
0.0005987783
-2.661233e-05
0.00020690776
0.00076577244
-5.9172802e-05
0.00046880412
0.00073975318
-9.8206746e-05
0.00082118116
0.00052559854
-0.00012388648
0.001171956
0.00023420126
-0.00011531243
0.0013934215
-8.4258303e-06
-7.8191509e-05
0.0014300711
-0.00015269854
-3.9024784e-05
0.0013201431
-1.3786823e-05
0.0011264812
-0.00021322398
0.00031799924
-6.4284712e-11
5.1672311e-05
0.00060054873
-2.3106262e-10
0.00021089501
0.00075942661
-4.3890981e-10
0.00047838756
0.00071608081
-8.3230222e-10
0.00083894276
0.00048006431
-1.4699504e-09
0.0011977948
0.00017385361
-2.0583426e-09
0.0014233682
-7.1086112e-05
-2.6651156e-09
0.0014610272
-0.00020894022
-3.2758899e-09
0.0013496017
-3.3609938e-09
0.0011519511
-0.00026055194
0.0003179993
6.6044951e-06
5.1672304e-05
0.000600549
2.6611933e-05
0.00021089498
0.00075942672
5.9171935e-05
0.00047838748
0.00071608082
9.8205005e-05
0.00083894263
0.00048006451
0.00012388345
0.0011977946
0.0001738537
0.00011530833
0.0014233679
-7.1086154e-05
7.8186332e-05
0.001461027
-0.00020894015
3.9018478e-05
0.0013496015
1.3780146e-05
0.0011519509
-0.00026055171
0.00031527202
1.2468924e-05
5.0741703e-05
0.00059877909
5.0286828e-05
0.00020690775
0.00076577277
0.00011202173
0.00046880406
0.00073975336
0.00018718213
0.00082118109
0.00052559924
0.00024050455
0.0011719558
0.0002342015
0.00023364056
0.0013934211
-8.4259605e-06
0.00017302068
0.0014300707
-0.00015269849
0.00010299469
0.0013201427
5.2741652e-05
0.0011264809
-0.00021322353
0.00030950835
1.7194476e-05
4.8938108e-05
0.00059328461
6.9364405e-05
0.00019941868
0.00077218634
0.0001549961
0.00045133558
0.00077288867
0.00026176783
0.00078968641
0.00059348039
0.00034507267
0.001126946
0.00032728197
0.00035404718
0.0013420621
9.0545379e-05
0.00028983193
0.0013782925
-6.2033591e-05
0.00020252256
0.0012710729
0.00012964986
0.0010833999
-0.00013587296
0.00029997369
2.0854285e-05
4.6568383e-05
0.00058019057
8.4135201e-05
0.00018966366
0.00076795864
0.00018854723
0.00042884461
0.00079425432
0.00032207181
0.00074970564
0.00065107625
0.00043631463
0.0010705688
0.0004144971
0.00047311995
0.0012775224
0.00018871504
0.00042366585
0.0013141585
3.1906928e-05
0.00033276863
0.0012113969
0.00024141542
0.0010314018
-5.3020339e-05
0.00028678391
2.3529931e-05
4.3768153e-05
0.00055898432
9.5121667e-05
0.00017837502
0.00074997128
0.00021405401
0.00040341593
0.00079503032
0.00036997829
0.00070561064
0.00068207523
0.00051469736
0.0010089958
0.0004737872
0.00058619505
0.0012071123
0.00026329471
0.00056370583
0.0012443699
0.00010871939
0.00048033083
0.0011471771
0.00037577311
0.00097580536
1.8465674e-05
0.00027006697
2.5350143e-05
4.062934e-05
0.00052968623
0.00010290752
0.00016594028
0.00071771256
0.0002329006
0.00037598166
0.00077358403
0.00040741584
0.00065890866
0.00068304136
0.00058048406
0.00094461592
0.00049951656
0.00068811026
0.0011337649
0.00030708856
0.00069800615
0.0011716179
0.00016111449
0.00062928116
0.001080773
0.00051744761
0.00091820934
7.2231584e-05
0.00025019597
2.6370383e-05
3.7184187e-05
0.00049335768
0.00010774026
0.00015243097
0.0006735796
0.00024564522
0.00034653345
0.00073426834
0.00043497516
0.00060951175
0.00065998142
0.00063279316
0.00087738462
0.00049787465
0.00077379345
0.0010574819
0.00032476284
0.00081613316
0.0010958893
0.00019209124
0.00076550972
0.0010116726
0.00065191217
0.00085804176
0.000110464
0.00022746706
2.6690726e-05
3.3473398e-05
0.00045074428
0.00010985962
0.00013789099
0.00061941881
0.00025245684
0.00031493276
0.00068119503
0.00045221004
0.00055679312
0.00062003701
0.00066949266
0.00080604286
0.00047797933
0.00083817261
0.00097658217
0.00032544949
0.00090936052
0.0010154081
0.00021001597
0.00087734745
0.00093775885
0.00076670637
0.00079338296
0.00014063288
0.00020311036
2.6008689e-05
2.9555946e-05
0.00040531693
0.00010827004
0.00012249078
0.00056199195
0.00025147231
0.00028140267
0.00062510304
0.00045635728
0.00050083062
0.00057742893
0.0006871091
0.00073029626
0.00045546121
0.00087706553
0.00089047537
0.00032426326
0.00097164868
0.00092930295
0.00022800404
0.00095690242
0.00085795747
0.00085285402
0.00072284737
0.0001738503
0.00017720837
2.4481359e-05
2.5444176e-05
0.00035665645
0.00010319423
0.00010624094
0.00050022127
0.00024247329
0.00024585817
0.00056499021
0.00044601243
0.00044122139
0.00053294846
0.00068240054
0.00064917594
0.00043425032
0.000885553
0.00079768271
0.00032793781
0.00099648869
0.00083586879
0.00025468313
0.0009963808
0.00077052184
0.00090209873
0.00064469657
0.00021963173
0.00015053391
2.2165823e-05
2.1290236e-05
0.00030631981
9.4677088e-05
8.9627441e-05
0.00043616784
0.00022533641
0.00020907347
0.00050317843
0.00042040437
0.00037867677
0.00048985442
0.00065280019
0.00056276829
0.00041992118
0.00085875628
0.00069741431
0.00034453098
0.00097765332
0.00073352511
0.00030059314
0.00098798255
0.000673609
0.00090507214
0.00055700986
0.00029162276
0.0001238112
1.7206251e-05
1.9330437e-05
0.00025517144
7.3100381e-05
8.3587306e-05
0.00037084153
0.00017198705
0.00020068413
0.00044254007
0.00031451785
0.00037781224
0.00045447559
0.00047221735
0.00059366302
0.00042206026
0.00058988316
0.00079089998
0.00038613755
0.00062141455
0.00090958172
0.00037745141
0.00056579629
0.00092749401
0.00045899775
0.00085402928
0.00040185759
2.0537906e-06
-4.3163264e-06
1.6433572e-05
3.0352229e-06
8.979175e-06
-2.0896079e-05
7.1913008e-05
1.5157969e-05
2.3036806e-05
-5.6919255e-05
0.00017254902
4.2299399e-05
4.6610074e-05
-0.0001235435
0.00032057308
9.391487e-05
7.8468358e-05
-0.00022423241
0.00049019842
0.00017439325
0.0001128491
-0.00034147829
0.00062608643
0.00027089394
0.00014590026
-0.00044129412
0.00067497181
0.00035468465
0.00017929328
-0.000496787
0.00062685611
0.00040233362
-0.00049854841
0.00051466931
0.00040950603
0.00021266401
2.7221541e-06
-5.5089603e-06
1.9760714e-05
1.1851625e-05
-2.6522155e-05
8.6124138e-05
2.9786537e-05
-7.1451701e-05
0.00020567148
5.7848945e-05
-0.0001525887
0.00037966061
9.1923391e-05
-0.00027168797
0.00057615006
0.00012344312
-0.00040623901
0.00073065488
0.00014825675
-0.00051757038
0.00078498748
0.00016989269
-0.00057687415
0.00073206063
-0.00057299144
0.00061015864
0.00019118657
3.6302959e-06
-6.6756748e-06
2.29805e-05
1.5464657e-05
-3.1948754e-05
9.9832929e-05
3.7809149e-05
-8.5334499e-05
0.00023739637
7.0820319e-05
-0.00017988646
0.00043550857
0.00010746738
-0.00031485175
0.0006556932
0.00013658062
-0.00046233165
0.00082466108
0.00015404204
-0.00057973653
0.00088057256
0.00016524559
-0.00063810863
0.00082055221
-0.00062703628
0.00068923444
0.00017475299
4.6987911e-06
-7.8361996e-06
2.6017737e-05
1.9777032e-05
-3.7225499e-05
0.00011268956
4.7379269e-05
-9.8455829e-05
0.00026692218
8.6119661e-05
-0.00020472273
0.00048692703
0.00012582954
-0.0003521227
0.00072785755
0.00015295163
-0.00050734893
0.00090837054
0.00016372645
-0.00062512754
0.00096391868
0.00016558727
-0.00067805729
0.00089604603
-0.00065858346
0.00075536278
0.00016461882
5.7813067e-06
-8.8900834e-06
2.8745903e-05
2.4179508e-05
-4.1987067e-05
0.00012425422
5.7255866e-05
-0.00011006846
0.0002934691
0.00010214334
-0.00022584321
0.00053302695
0.00014549663
-0.00038159226
0.00079215887
0.00017116649
-0.0005386588
0.00098222174
0.00017564007
-0.00065075227
0.0010365591
0.0001687899
-0.00069429819
0.00096085048
-0.00066607898
0.00081110807
0.00015856112
6.9656304e-06
-9.8631914e-06
3.1191739e-05
2.9030212e-05
-4.6237425e-05
0.00013461677
6.8170298e-05
-0.00011990154
0.00031722616
0.0001198672
-0.00024221174
0.00057418386
0.00016724169
-0.00040087699
0.00084929469
0.00019122095
-0.0005524491
0.0010472923
0.00018887935
-0.00065236105
0.0010998398
0.00017315595
-0.00068340612
0.0010165052
-0.00064734118
0.00085818796
0.00015427332
7.9458172e-06
-1.0533508e-05
3.3353689e-05
3.2999083e-05
-4.9110334e-05
0.00014375968
7.7110694e-05
-0.00012619529
0.00033816358
0.00013402903
-0.00025063555
0.00061041466
0.00018354794
-0.0004051971
0.00089941729
0.00020434759
-0.00054335478
0.0011038725
0.00019503853
-0.00062561013
0.0011541777
0.00017177128
-0.00064299516
0.0010636311
-0.00060139257
0.00089756516
0.00014646777
8.6988202e-06
-1.0680814e-05
3.5216676e-05
3.5731525e-05
-4.9460956e-05
0.00015169257
8.2404473e-05
-0.00012592917
0.00035647642
0.00014147168
-0.00024645999
0.00064236869
0.00018956453
-0.00038806151
0.00094376771
0.00020469031
-0.00050496842
0.0011536025
0.00018832737
-0.00056616916
0.0012012939
0.00015955648
-0.00057088767
0.001103842
-0.00052739694
0.0009307579
0.0001306086
9.1309704e-06
-1.0035188e-05
3.6792151e-05
3.6841821e-05
-4.5981176e-05
0.00015847308
8.3156532e-05
-0.00011572319
0.00037232367
0.00013863038
-0.00022263306
0.00067040578
0.00017981588
-0.00034167036
0.00098299289
0.00018631522
-0.00043132145
0.0011973781
0.00016331643
-0.00047122647
0.0012422163
0.00013174349
-0.00046620622
0.0011382893
-0.00042542069
0.00095881284
0.00010235648
8.8902652e-06
-8.0669083e-06
3.8079669e-05
3.4792618e-05
-3.6544993e-05
0.00016407998
7.575666e-05
-9.0944264e-05
0.00038559251
0.00012136546
-0.00017270887
0.00069415413
0.00015109384
-0.0002608828
0.0010164312
0.00014717889
-0.00031992861
0.0012345856
0.00011867442
-0.00034096631
0.0012765381
8.6234433e-05
-0.00032964964
0.0011669569
-0.00029612945
0.00098192768
5.8416126e-05
8.1917199e-06
-4.5908482e-06
3.9073773e-05
3.0799024e-05
-2.0592318e-05
0.00016834755
6.3813859e-05
-5.076179e-05
0.00039560688
9.5703805e-05
-9.5401782e-05
0.00071198437
0.00010790424
-0.00014254697
0.0010414205
9.2215516e-05
-0.00017301303
0.0012621949
5.8979044e-05
-0.00017936485
0.0013017064
3.0740288e-05
-0.0001691819
0.0011879141
-0.00015223981
0.00099872028
1.4612242e-05
7.5233839e-06
1.5285169e-11
3.9557956e-05
2.7315236e-05
8.25027e-11
0.00017051081
5.4098084e-05
2.4073357e-10
0.00040084298
7.6122009e-05
4.7872126e-10
0.00072151641
7.6425225e-05
6.5240328e-10
0.0010549446
4.955687e-05
9.765229e-10
0.0012772223
1.5865661e-05
1.4360571e-09
0.0013153522
-2.9712769e-06
1.6554004e-09
0.0011992553
1.7763581e-09
0.0010078445
-1.1105396e-05
7.52348e-06
4.5908888e-06
3.9557951e-05
2.7315478e-05
2.0592482e-05
0.00017051079
5.4098305e-05
5.0762156e-05
0.00040084293
7.6122039e-05
9.5402466e-05
0.00072151633
7.6425303e-05
0.00014254793
0.0010549444
4.9556906e-05
0.00017301475
0.0012772222
1.5865659e-05
0.00017936765
0.0013153521
-2.9711143e-06
0.00016918516
0.0011992552
0.0001522431
0.0010078444
-1.1105221e-05
8.1918344e-06
8.066961e-06
3.9073773e-05
3.0799491e-05
3.654514e-05
0.00016834755
6.3814457e-05
9.0944406e-05
0.00039560687
9.5703949e-05
0.00017270904
0.00071198436
0.00010790455
0.00026088314
0.0010414204
9.2215624e-05
0.00031992996
0.0012621948
5.8979107e-05
0.00034096897
0.0013017063
3.0740704e-05
0.00032965282
0.001187914
0.00029613212
0.00099872017
1.4612658e-05
8.8901066e-06
1.0035201e-05
3.8079659e-05
3.4792815e-05
4.5981208e-05
0.00016407994
7.5757422e-05
0.00011572312
0.00038559241
0.00012136574
0.00022263293
0.00069415399
0.00015109443
0.00034167047
0.0010164308
0.00014717899
0.00043132273
0.0012345852
0.00011867445
0.00047122898
0.0012765377
8.6234972e-05
0.00046620895
0.0011669566
0.00042542258
0.00098192753
5.8416672e-05
9.1305969e-06
1.0680738e-05
3.6792145e-05
3.6841756e-05
4.9460789e-05
0.00015847305
8.3157375e-05
0.00012592898
0.00037232361
0.00013863078
0.00024645988
0.00067040567
0.00017981678
0.00038806184
0.00098299259
0.00018631531
0.00050496967
0.0011973777
0.00016331619
0.00056617132
0.0012422159
0.00013174317
0.00057088986
0.001138289
0.00052739817
0.00095881271
0.00010235629
8.6986918e-06
1.0533509e-05
3.5216677e-05
3.573185e-05
4.9110366e-05
0.00015169257
8.2405564e-05
0.00012619544
0.0003564764
0.00014147226
0.00025063581
0.0006423686
0.0001895656
0.00040519763
0.00094376749
0.00020469041
0.00054335543
0.0011536021
0.00018832697
0.00062561123
0.0012012935
0.00015955564
0.00064299634
0.0011038416
0.00060139345
0.00093075776
0.00013060817
7.9459601e-06
9.8632525e-06
3.3353688e-05
3.2999606e-05
4.6237622e-05
0.00014375967
7.7111654e-05
0.00011990197
0.00033816355
0.00013402956
0.00024221234
0.00061041458
0.00018354873
0.00040087749
0.00089941723
0.00020434779
0.0005524491
0.0011038723
0.0001950383
0.00065236113
0.0011541774
0.00017177055
0.00068340633
0.0010636308
0.00064734163
0.00089756495
0.00014646758
6.9656107e-06
8.8901057e-06
3.1191746e-05
2.9030315e-05
4.1987168e-05
0.0001346168
6.8170786e-05
0.00011006876
0.00031722621
0.00011986724
0.00022584365
0.00057418391
0.00016724185
0.00038159267
0.00084929481
0.00019122143
0.00053865934
0.0010472924
0.00018887973
0.00065075265
0.0010998397
0.00017315591
0.00069429819
0.001016505
0.00066607834
0.00085818769
0.00015427302
5.7813338e-06
7.836233e-06
2.8745903e-05
2.4179617e-05
3.7225625e-05
0.00012425422
5.7255988e-05
9.8456064e-05
0.00029346907
0.00010214301
0.00020472305
0.00053302688
0.00014549677
0.0003521234
0.00079215877
0.00017116713
0.00050735008
0.00098222168
0.00017564088
0.00062512847
0.0010365589
0.00016879006
0.00067805729
0.00096085014
0.00065858145
0.00081110776
0.00015856022
4.6987592e-06
6.6756381e-06
2.6017732e-05
1.9776925e-05
3.1948706e-05
0.00011268954
4.7379183e-05
8.533457e-05
0.00026692211
8.6119622e-05
0.00017988696
0.00048692689
0.00012582976
0.00031485287
0.00072785737
0.00015295223
0.00046233292
0.00090837044
0.00016372757
0.00057973751
0.00096391844
0.00016558677
0.00063810809
0.00089604565
0.00062703546
0.00075536254
0.00016461762
3.6303641e-06
5.5089894e-06
2.2980496e-05
1.5464968e-05
2.6522296e-05
9.9832911e-05
3.7809579e-05
7.1452044e-05
0.00023739632
7.082018e-05
0.00015258935
0.00043550845
0.00010746677
0.00027168876
0.00065569297
0.00013658068
0.00040623971
0.00082466081
0.00015404277
0.00051757077
0.00088057237
0.00016524567
0.0005768734
0.00082055195
0.00057299213
0.00068923417
0.00017475248
2.722245e-06
4.3163677e-06
1.9760715e-05
1.1851921e-05
2.0896255e-05
8.6124136e-05
2.978673e-05
5.6919643e-05
0.00020567147
5.7848125e-05
0.00012354417
0.00037966056
9.1922006e-05
0.00022423332
0.00057614996
0.00012344247
0.0003414794
0.00073065478
0.00014825661
0.0004412952
0.00078498739
0.00016989215
0.00049678671
0.00073206042
0.00049854878
0.00061015843
0.0001911853
2.0538416e-06
1.6433575e-05
3.0352364e-06
8.9793527e-06
7.1913017e-05
1.5158041e-05
2.3036908e-05
0.00017254903
4.2299554e-05
4.6609401e-05
0.00032057309
9.3915094e-05
7.8467517e-05
0.00049019842
0.00017439372
0.00011284853
0.00062608645
0.00027089524
0.00014589957
0.00067497182
0.00035468667
0.00017929322
0.00062685586
0.00040233611
0.00051466915
0.00040950692
0.00021266275
1.265768e-07
-1.7280455e-06
1.6472532e-05
1.5625188e-06
1.1389842e-06
-8.4865324e-06
7.176472e-05
7.622299e-06
3.7229624e-06
-2.3512197e-05
0.00017264966
2.0827212e-05
7.8469916e-06
-5.2153913e-05
0.00032309649
4.5506007e-05
1.3517494e-05
-9.7538884e-05
0.00049766427
8.4402528e-05
2.1936409e-05
-0.00015382421
0.00063805605
0.00013343618
3.5850128e-05
-0.00020393843
0.00068620017
0.00017879614
5.7347199e-05
-0.00023121539
0.0006313043
0.00020526909
-0.00022961984
0.00051163145
0.00020623959
8.3764956e-05
1.4985858e-07
-1.8365788e-06
1.9719371e-05
1.4563037e-06
-9.2160225e-06
8.5547195e-05
4.6324025e-06
-2.5973171e-05
0.00020495655
8.9911606e-06
-5.8334173e-05
0.00038148277
1.348802e-05
-0.00010958349
0.0005836988
1.8484752e-05
-0.00017169351
0.00074352788
2.669477e-05
-0.00022422426
0.00079706257
4.0893951e-05
-0.00024954384
0.00073619003
-0.00024436688
0.00060522522
6.0573541e-05
2.3514138e-07
-1.9237428e-06
2.2832427e-05
1.9872609e-06
-9.8493816e-06
9.8713823e-05
6.036361e-06
-2.8235794e-05
0.0002356095
1.1199732e-05
-6.4147475e-05
0.00043615887
1.5397454e-05
-0.00012063081
0.00066254365
1.7988762e-05
-0.00018687423
0.00083724933
2.145809e-05
-0.00023914491
0.00089202358
2.9434758e-05
-0.00026002917
0.00082306012
-0.00025012261
0.0006815894
4.2835626e-05
3.7271849e-07
-2.0052351e-06
2.5726526e-05
2.7699052e-06
-1.0440606e-05
0.00011088368
8.0559002e-06
-3.0332823e-05
0.00026373337
1.448968e-05
-6.9431405e-05
0.00048577771
1.889841e-05
-0.00013016393
0.00073298255
1.9697764e-05
-0.00019856868
0.00091926585
1.925837e-05
-0.00024800174
0.00097321446
2.2282571e-05
-0.00026272046
0.00089571354
-0.00024745068
0.00074437489
3.0598027e-05
5.2799662e-07
-2.0622823e-06
2.8274816e-05
3.6439146e-06
-1.0912953e-05
0.00012161044
1.0347692e-05
-3.2076159e-05
0.00028850895
1.8392816e-05
-7.3789858e-05
0.00052934134
2.3483488e-05
-0.00013747739
0.00079438094
2.2952645e-05
-0.00020579471
0.0009899785
1.9298205e-05
-0.00025014014
0.0010423515
1.819891e-05
-0.0002575912
0.00095682066
-0.00023732296
0.00079654836
2.2630811e-05
7.5915661e-07
-2.1314255e-06
3.0501667e-05
4.8011339e-06
-1.1307151e-05
0.00013096894
1.3286298e-05
-3.3404853e-05
0.00031006992
2.3436948e-05
-7.6846142e-05
0.00056709051
2.9664581e-05
-0.00014164319
0.00084723297
2.8116676e-05
-0.00020726785
0.0010503131
2.1428486e-05
-0.00024443102
0.0011008183
1.6501946e-05
-0.00024422611
0.0010080671
-0.00022020105
0.00083985882
1.7709638e-05
1.0220531e-06
-2.1938859e-06
3.2393873e-05
6.0441281e-06
-1.1462171e-05
0.00013889239
1.6133528e-05
-3.3586031e-05
0.00032825566
2.8048976e-05
-7.7133964e-05
0.00059878751
3.5117422e-05
-0.00014064801
0.00089135363
3.2377886e-05
-0.00020095209
0.0011002972
2.2830412e-05
-0.000229612
0.0011489065
1.4876279e-05
-0.00022266606
0.001050026
-0.00019686205
0.00087515681
1.3945977e-05
1.2222177e-06
-2.1349138e-06
3.3935493e-05
7.0970702e-06
-1.100995e-05
0.00014536531
1.8767444e-05
-3.1955674e-05
0.00034317576
3.1724671e-05
-7.261097e-05
0.0006248889
3.8928854e-05
-0.00013184201
0.00092775707
3.4636857e-05
-0.00018448856
0.0011414321
2.2544016e-05
-0.00020446287
0.0011882384
1.243401e-05
-0.00019285718
0.0010841437
-0.00016804603
0.0009037058
1.0670041e-05
1.2825025e-06
-1.7629131e-06
3.5137942e-05
7.5455169e-06
-9.2357999e-06
0.00015043601
2.0071085e-05
-2.7081087e-05
0.00035492351
3.4193314e-05
-6.2035497e-05
0.00064570882
4.1060076e-05
-0.00011281843
0.00095710251
3.4928572e-05
-0.00015567971
0.0011747016
2.072594e-05
-0.00016792102
0.0012198777
9.9516578e-06
-0.00015513884
0.0011113455
-0.00013466062
0.00092624174
9.1371473e-06
1.5121632e-06
-1.2157023e-06
3.6020509e-05
8.7478006e-06
-6.5701663e-06
0.00015417864
2.3249711e-05
-1.9624123e-05
0.00036363325
3.9375377e-05
-4.5190738e-05
0.00066118412
4.5013816e-05
-8.1411942e-05
0.00097938665
3.6403264e-05
-0.00011274319
0.0012002601
2.0873927e-05
-0.00011994796
0.0012440948
1.233709e-05
-0.00011150009
0.001131855
-9.8624324e-05
0.00094286919
1.5359305e-05
1.8320379e-06
-6.205757e-07
3.6646636e-05
1.0263939e-05
-3.421871e-06
0.00015676732
2.7066722e-05
-1.0345771e-05
0.00036952557
4.6346223e-05
-2.3921477e-05
0.00067143575
5.5334872e-05
-4.2753456e-05
0.00099377396
4.5799728e-05
-5.8022509e-05
0.0012170096
3.0880746e-05
-6.3261353e-05
0.001259939
2.3076285e-05
-6.0551589e-05
0.0011447701
-5.2283596e-05
0.00095296057
2.2495632e-05
2.0224603e-06
1.2289735e-11
3.6914825e-05
1.11725e-05
6.8785125e-11
0.0001579389
2.9352449e-05
2.2137923e-10
0.00037231718
5.047399e-05
5.3668708e-10
0.00067647286
6.1698472e-05
9.9993491e-10
0.0010009661
5.5706336e-05
1.4889483e-09
0.0012251905
4.0203888e-05
1.7228996e-09
0.0012675917
2.7803345e-05
1.5325369e-09
0.0011511029
1.1715575e-09
0.00095800702
2.5356572e-05
2.0224735e-06
6.2061233e-07
3.6914821e-05
1.1172531e-05
3.4220212e-06
0.00015793888
2.9352538e-05
1.0346169e-05
0.00037231714
5.047399e-05
2.3922445e-05
0.00067647279
6.1698364e-05
4.275531e-05
0.001000966
5.5706162e-05
5.8025394e-05
0.0012251904
4.0203726e-05
6.3264755e-05
0.0012675916
2.7803317e-05
6.0554661e-05
0.0011511028
5.2285769e-05
0.00095800698
2.5356579e-05
1.831972e-06
1.2157456e-06
3.6646638e-05
1.0263942e-05
6.5703221e-06
0.00015676733
2.7067003e-05
1.9624467e-05
0.00036952558
4.6346259e-05
4.5191562e-05
0.00067143578
5.533467e-05
8.1413565e-05
0.00099377396
4.5799333e-05
0.00011274595
0.0012170096
3.0880252e-05
0.0001199514
0.001259939
2.3076082e-05
0.00011150312
0.0011447701
9.8626001e-05
0.00095296052
2.2495567e-05
1.5119229e-06
1.7629326e-06
3.6020502e-05
8.7476608e-06
9.2359288e-06
0.00015417862
2.3250056e-05
2.7081436e-05
0.00036363318
3.9375364e-05
6.2036297e-05
0.00066118402
4.5013766e-05
0.00011281999
0.00097938646
3.6402869e-05
0.00015568252
0.0012002599
2.087322e-05
0.00016792462
0.0012440945
1.2336319e-05
0.00015514191
0.0011318548
0.0001346616
0.00094286911
1.535878e-05
1.2822167e-06
2.1348834e-06
3.5137938e-05
7.5453186e-06
1.1009975e-05
0.00015043599
2.0071292e-05
3.1955958e-05
0.00035492347
3.419317e-05
7.261179e-05
0.00064570873
4.1060302e-05
0.00013184376
0.00095710233
3.4928191e-05
0.00018449147
0.0011747013
2.0725187e-05
0.00020446629
0.0012198775
9.9507465e-06
0.00019285981
0.0011113453
0.00016804643
0.00092624165
9.1365698e-06
1.2221656e-06
2.193918e-06
3.3935494e-05
7.0972587e-06
1.146235e-05
0.00014536531
1.8767753e-05
3.3586579e-05
0.00034317574
3.1724592e-05
7.7135185e-05
0.00062488884
3.8929222e-05
0.00014065006
0.00092775696
3.4636419e-05
0.00020095467
0.0011414319
2.2543256e-05
0.00022961471
0.0011882382
1.2432945e-05
0.00022266802
0.0010841435
0.00019686222
0.0009037057
1.0669351e-05
1.0222758e-06
2.1315134e-06
3.2393875e-05
6.0446562e-06
1.1307464e-05
0.0001388924
1.6133882e-05
3.3405584e-05
0.00032825565
2.8048844e-05
7.6847582e-05
0.00059878749
3.5117505e-05
0.00014164516
0.00089135364
3.237743e-05
0.00020727003
0.0011002971
2.2829935e-05
0.00024443335
0.0011489064
1.4875448e-05
0.00024422778
0.0010500258
0.00022020109
0.00087515668
1.3945404e-05
7.5928591e-07
2.0623277e-06
3.0501676e-05
4.8014753e-06
1.0913159e-05
0.00013096897
1.3286561e-05
3.2076709e-05
0.00031006999
2.3436417e-05
7.3790985e-05
0.0005670906
2.9664229e-05
0.00013747917
0.00084723314
2.811651e-05
0.00020579736
0.0010503132
2.1428635e-05
0.0002501431
0.0011008184
1.6501699e-05
0.00025759305
0.0010080671
0.00023732234
0.00083985866
1.7709049e-05
5.2810667e-07
2.0052911e-06
2.827482e-05
3.6442087e-06
1.0440821e-05
0.00012161045
1.0347762e-05
3.0333286e-05
0.00028850895
1.8392101e-05
6.9432403e-05
0.00052934131
2.3483508e-05
0.00013016612
0.00079438091
2.2952936e-05
0.00019857171
0.00098997845
1.9298816e-05
0.00024800492
0.0010423514
1.819878e-05
0.00026272217
0.00095682045
0.00024744943
0.0007965482
2.2629572e-05
3.7271889e-07
1.9237427e-06
2.5726524e-05
2.7699806e-06
9.8494679e-06
0.00011088366
8.0561253e-06
2.8236177e-05
0.00026373333
1.4489826e-05
6.4148606e-05
0.00048577762
1.8898585e-05
0.00012063309
0.00073298243
1.9698347e-05
0.00018687703
0.00091926569
1.9259372e-05
0.00023914788
0.00097321426
2.2282117e-05
0.0002600307
0.00089571331
0.00025012275
0.0007443748
3.0596273e-05
2.3518923e-07
1.8366323e-06
2.2832424e-05
1.9875929e-06
9.2162532e-06
9.8713808e-05
6.0370456e-06
2.5973749e-05
0.00023560946
1.1200089e-05
5.8335315e-05
0.00043615874
1.5397074e-05
0.00010958526
0.00066254342
1.7989127e-05
0.00017169587
0.00083724906
2.1458742e-05
0.0002242264
0.00089202338
2.9434852e-05
0.00024954554
0.00082305995
0.00024436833
0.00068158929
4.2835142e-05
1.4992297e-07
1.7281158e-06
1.9719373e-05
1.456556e-06
8.4868124e-06
8.5547198e-05
4.6328082e-06
2.3512832e-05
0.00020495655
8.9911547e-06
5.2155044e-05
0.00038148274
1.3487336e-05
9.7540574e-05
0.00058369873
1.8484401e-05
0.00015382649
0.00074352781
2.6695288e-05
0.00020394096
0.0007970625
4.0894395e-05
0.00023121649
0.00073618991
0.00022962139
0.00060522516
6.0573842e-05
1.265963e-07
1.6472537e-05
1.562569e-06
1.1390575e-06
7.1764734e-05
7.622512e-06
3.7230044e-06
0.00017264968
2.0827715e-05
7.8466218e-06
0.00032309652
4.5506928e-05
1.3516969e-05
0.00049766429
8.4403959e-05
2.1935866e-05
0.00063805605
0.00013343823
3.5849612e-05
0.0006862002
0.00017879841
5.7348803e-05
0.00063130425
0.00020527146
0.00051163141
0.00020624114
8.3767229e-05
1.7746391e-07
-9.8927504e-07
1.6596429e-05
6.8792042e-07
7.620453e-07
-4.6077352e-06
7.2493763e-05
3.2940373e-06
2.3602583e-06
-1.2197447e-05
0.00017432931
8.9193466e-06
6.5296376e-06
-2.6070347e-05
0.00032552211
1.947501e-05
1.4918145e-05
-4.7683183e-05
0.00050054995
3.6408936e-05
2.7443985e-05
-7.4696867e-05
0.0006418803
5.8347131e-05
4.1485111e-05
-9.9043644e-05
0.00069203415
7.9168495e-05
5.3735725e-05
-0.00011169881
0.00063943716
9.1314678e-05
-0.00010924808
0.00052071264
9.1780667e-05
6.2121804e-05
1.7320461e-07
-1.2409687e-06
1.9797846e-05
7.5175326e-07
-5.753557e-06
8.6114451e-05
2.4476088e-06
-1.5108405e-05
0.00020617169
7.0460735e-06
-3.1925939e-05
0.00038274014
1.621325e-05
-5.7568631e-05
0.00058441756
2.92696e-05
-8.8568124e-05
0.00074434298
4.2696238e-05
-0.00011499455
0.00079958624
5.2806887e-05
-0.00012705249
0.00074143329
-0.00012217085
0.00061256561
5.8388784e-05
1.7538407e-07
-1.4311336e-06
2.284715e-05
7.2857283e-07
-6.6271343e-06
9.9034006e-05
2.4546466e-06
-1.7370903e-05
0.00023614568
7.4053842e-06
-3.6566995e-05
0.00043584939
1.7290573e-05
-6.540808e-05
0.00066049844
3.0876374e-05
-9.9176664e-05
0.00083427125
4.3928665e-05
-0.00012628872
0.00089026533
5.2591783e-05
-0.00013689527
0.00082423928
-0.0001298549
0.00068588698
5.597816e-05
1.9005404e-07
-1.559257e-06
2.5664583e-05
7.7696015e-07
-7.2213653e-06
0.00011089097
2.6446944e-06
-1.8929645e-05
0.00026342438
8.0574296e-06
-3.9809926e-05
0.00048360813
1.8708992e-05
-7.0850702e-05