/*--------------------------------*- C++ -*----------------------------------*\
  =========                 |
  \\      /  F ield         | OpenFOAM: The Open Source CFD Toolbox
   \\    /   O peration     | Website:  https://openfoam.org
    \\  /    A nd           | Version:  10
     \\/     M anipulation  |
\*---------------------------------------------------------------------------*/
FoamFile
{
    format      ascii;
    class       volScalarField;
    location    "6";
    object      T;
}
// * * * * * * * * * * * * * * * * * * * * * * * * * * * * * * * * * * * * * //

dimensions      [0 0 -1 0 0 0 0];

internalField   nonuniform List<scalar> 
100
(
-0.0513204
-0.152142
-0.247574
-0.334235
-0.409056
-0.469386
-0.513088
-0.538613
-0.545058
-0.532193
-0.500476
-0.451029
-0.385604
-0.306519
-0.216575
-0.118959
-0.0171284
0.0853086
0.184724
0.277595
0.360632
0.430893
0.48589
0.523674
0.542907
0.542906
0.523674
0.485889
0.430892
0.36063
0.277593
0.184722
0.085307
-0.0171301
-0.11896
-0.216576
-0.30652
-0.385605
-0.45103
-0.500477
-0.532194
-0.545058
-0.538613
-0.513087
-0.469385
-0.409055
-0.334234
-0.247573
-0.152141
-0.0513192
0.0513204
0.152142
0.247574
0.334235
0.409056
0.469386
0.513088
0.538613
0.545058
0.532194
0.500476
0.451029
0.385604
0.306519
0.216575
0.118959
0.017129
-0.085308
-0.184723
-0.277594
-0.360631
-0.430893
-0.48589
-0.523674
-0.542907
-0.542907
-0.523674
-0.48589
-0.430892
-0.360631
-0.277594
-0.184723
-0.0853075
0.0171295
0.11896
0.216576
0.306519
0.385605
0.451029
0.500476
0.532194
0.545058
0.538613
0.513087
0.469385
0.409055
0.334234
0.247573
0.152141
0.0513192
)
;

boundaryField
{
    inlet
    {
        type            cyclic;
    }
    outlet
    {
        type            cyclic;
    }
    bottom
    {
        type            slip;
    }
    top
    {
        type            slip;
    }
    frontAndBack
    {
        type            empty;
    }
}


// ************************************************************************* //
