/*--------------------------------*- C++ -*----------------------------------*\
  =========                 |
  \\      /  F ield         | OpenFOAM: The Open Source CFD Toolbox
   \\    /   O peration     | Website:  https://openfoam.org
    \\  /    A nd           | Version:  10
     \\/     M anipulation  |
\*---------------------------------------------------------------------------*/
FoamFile
{
    format      ascii;
    class       volScalarField;
    location    "6";
    object      T_0;
}
// * * * * * * * * * * * * * * * * * * * * * * * * * * * * * * * * * * * * * //

dimensions      [0 0 -1 0 0 0 0];

internalField   nonuniform List<scalar> 
100
(
-0.0512248
-0.151859
-0.247113
-0.333613
-0.408294
-0.468512
-0.512132
-0.53761
-0.544043
-0.531202
-0.499544
-0.450189
-0.384886
-0.305948
-0.216171
-0.118737
-0.0170965
0.0851498
0.18438
0.277078
0.35996
0.430091
0.484985
0.522699
0.541896
0.541896
0.522699
0.484985
0.43009
0.359959
0.277076
0.184378
0.0851481
-0.0170982
-0.118739
-0.216173
-0.305949
-0.384887
-0.45019
-0.499545
-0.531203
-0.544043
-0.53761
-0.512132
-0.468511
-0.408294
-0.333612
-0.247112
-0.151857
-0.0512236
0.0512248
0.151859
0.247113
0.333613
0.408294
0.468512
0.512132
0.53761
0.544043
0.531203
0.499544
0.450189
0.384886
0.305948
0.216172
0.118738
0.0170971
-0.0851492
-0.184379
-0.277077
-0.35996
-0.43009
-0.484985
-0.522699
-0.541896
-0.541896
-0.522699
-0.484985
-0.43009
-0.359959
-0.277077
-0.184379
-0.0851487
0.0170976
0.118738
0.216172
0.305949
0.384887
0.45019
0.499544
0.531203
0.544043
0.53761
0.512132
0.468511
0.408294
0.333612
0.247112
0.151857
0.0512237
)
;

boundaryField
{
    inlet
    {
        type            cyclic;
    }
    outlet
    {
        type            cyclic;
    }
    bottom
    {
        type            slip;
    }
    top
    {
        type            slip;
    }
    frontAndBack
    {
        type            empty;
    }
}


// ************************************************************************* //
