/*--------------------------------*- C++ -*----------------------------------*\
  =========                 |
  \\      /  F ield         | OpenFOAM: The Open Source CFD Toolbox
   \\    /   O peration     | Website:  https://openfoam.org
    \\  /    A nd           | Version:  10
     \\/     M anipulation  |
\*---------------------------------------------------------------------------*/
FoamFile
{
    format      ascii;
    class       volScalarField;
    location    "22.5";
    object      T_0;
}
// * * * * * * * * * * * * * * * * * * * * * * * * * * * * * * * * * * * * * //

dimensions      [0 0 -1 0 0 0 0];

internalField   nonuniform List<scalar> 
100
(
1.61999
4.84492
8.02685
11.1375
14.1493
17.0356
19.7706
22.3302
24.6915
26.8337
28.7377
30.3866
31.7658
32.8631
33.6686
34.1754
34.3787
34.277
33.871
33.1643
32.1633
30.8768
29.3163
27.4955
25.4307
23.1402
20.6442
17.9651
15.1265
12.1536
9.07281
5.91153
2.69778
-0.539922
-3.77283
-6.97224
-10.1098
-13.1576
-16.0886
-18.8767
-21.4974
-23.9272
-26.1447
-28.13
-29.8657
-31.3364
-32.5288
-33.4325
-34.0395
-34.3444
-34.3444
-34.0395
-33.4325
-32.5288
-31.3363
-29.8657
-28.13
-26.1446
-23.9272
-21.4973
-18.8767
-16.0885
-13.1575
-10.1097
-6.97218
-3.77277
-0.539863
2.69784
5.91159
9.07288
12.1536
15.1265
17.9651
20.6443
23.1402
25.4308
27.4956
29.3163
30.8769
32.1634
33.1644
33.871
34.277
34.3788
34.1754
33.6687
32.8631
31.7658
30.3866
28.7377
26.8337
24.6915
22.3302
19.7706
17.0356
14.1494
11.1375
8.02685
4.84492
1.61999
)
;

boundaryField
{
    xmin
    {
        type            fixedValue;
        value           uniform 0;
    }
    xmax
    {
        type            fixedValue;
        value           uniform 0;
    }
    frontAndBack
    {
        type            empty;
    }
}


// ************************************************************************* //
