/*--------------------------------*- C++ -*----------------------------------*\
  =========                 |
  \\      /  F ield         | OpenFOAM: The Open Source CFD Toolbox
   \\    /   O peration     | Website:  https://openfoam.org
    \\  /    A nd           | Version:  10
     \\/     M anipulation  |
\*---------------------------------------------------------------------------*/
FoamFile
{
    format      ascii;
    class       volScalarField;
    location    "8.5";
    object      ddt0(T);
}
// * * * * * * * * * * * * * * * * * * * * * * * * * * * * * * * * * * * * * //

dimensions      [0 0 -2 0 0 0 0];

internalField   nonuniform List<scalar> 
100
(
-0.600769
-1.79673
-2.97674
-4.13032
-5.24725
-6.31761
-7.33188
-8.28109
-9.15678
-9.95121
-10.6573
-11.2688
-11.7803
-12.1872
-12.486
-12.6739
-12.7493
-12.7116
-12.561
-12.2989
-11.9277
-11.4506
-10.8719
-10.1967
-9.43093
-8.58149
-7.65587
-6.6623
-5.6096
-4.5071
-3.3646
-2.19223
-1.00041
0.2003
1.39923
2.58574
3.74929
4.87957
5.96654
7.00055
7.97242
8.87353
9.69587
10.4322
11.0758
11.6212
12.0635
12.3986
12.6237
12.7368
12.7368
12.6237
12.3986
12.0634
11.6212
11.0758
10.4322
9.69587
8.87352
7.97241
7.00054
5.96653
4.87956
3.74928
2.58573
1.39922
0.200289
-1.00042
-2.19224
-3.36461
-4.50711
-5.60961
-6.66231
-7.65588
-8.58149
-9.43094
-10.1967
-10.8719
-11.4506
-11.9277
-12.2989
-12.561
-12.7116
-12.7493
-12.6739
-12.4859
-12.1872
-11.7803
-11.2688
-10.6573
-9.9512
-9.15678
-8.28108
-7.33188
-6.3176
-5.24725
-4.13032
-2.97673
-1.79672
-0.600768
)
;

boundaryField
{
    xmin
    {
        type            calculated;
        value           uniform 0;
    }
    xmax
    {
        type            calculated;
        value           uniform 0;
    }
    frontAndBack
    {
        type            empty;
    }
}


// ************************************************************************* //
