/*--------------------------------*- C++ -*----------------------------------*\
  =========                 |
  \\      /  F ield         | OpenFOAM: The Open Source CFD Toolbox
   \\    /   O peration     | Website:  https://openfoam.org
    \\  /    A nd           | Version:  10
     \\/     M anipulation  |
\*---------------------------------------------------------------------------*/
FoamFile
{
    format      ascii;
    class       volScalarField;
    location    "8.5";
    object      T_0;
}
// * * * * * * * * * * * * * * * * * * * * * * * * * * * * * * * * * * * * * //

dimensions      [0 0 -1 0 0 0 0];

internalField   nonuniform List<scalar> 
100
(
6.23819
18.6566
30.9095
42.888
54.4858
65.6
76.1319
85.9881
95.0811
103.33
110.662
117.012
122.323
126.548
129.65
131.601
132.384
131.993
130.429
127.708
123.853
118.899
112.89
105.879
97.9275
89.1071
79.4959
69.179
58.2481
46.8002
34.9368
22.7634
10.3879
-2.07973
-14.5289
-26.8492
-38.9311
-50.6675
-61.9542
-72.6909
-82.7824
-92.1392
-100.678
-108.323
-115.007
-120.67
-125.262
-128.742
-131.08
-132.253
-132.253
-131.08
-128.742
-125.262
-120.67
-115.007
-108.323
-100.678
-92.1391
-82.7823
-72.6908
-61.954
-50.6674
-38.931
-26.8491
-14.5288
-2.07959
10.3881
22.7636
34.937
46.8003
58.2482
69.1791
79.496
89.1072
97.9276
105.879
112.89
118.899
123.853
127.708
130.429
131.993
132.384
131.601
129.65
126.548
122.323
117.012
110.662
103.33
95.0811
85.9881
76.1319
65.6
54.4858
42.888
30.9095
18.6566
6.23819
)
;

boundaryField
{
    xmin
    {
        type            fixedValue;
        value           uniform 0;
    }
    xmax
    {
        type            fixedValue;
        value           uniform 0;
    }
    frontAndBack
    {
        type            empty;
    }
}


// ************************************************************************* //
