/*--------------------------------*- C++ -*----------------------------------*\
| =========                 |                                                 |
| \\      /  F ield         | OpenFOAM: The Open Source CFD Toolbox           |
|  \\    /   O peration     | Version:  2406                                  |
|   \\  /    A nd           | Website:  www.openfoam.com                      |
|    \\/     M anipulation  |                                                 |
\*---------------------------------------------------------------------------*/
FoamFile
{
    version     2.0;
    format      ascii;
    arch        "LSB;label=32;scalar=64";
    class       volScalarField;
    location    "4.5";
    object      p;
}
// * * * * * * * * * * * * * * * * * * * * * * * * * * * * * * * * * * * * * //

dimensions      [0 2 -2 0 0 0 0];

internalField   nonuniform List<scalar> 
34560
(
-41.270509
-41.259335
-41.245523
-41.230204
-41.213955
-41.199524
-41.189652
-41.184967
-41.184362
-41.341108
-41.328095
-41.31145
-41.29197
-41.270373
-41.250152
-41.234694
-41.225275
-41.221546
-41.401759
-41.387395
-41.368945
-41.347083
-41.322274
-41.298036
-41.278034
-41.263974
-41.255928
-41.459061
-41.443477
-41.423294
-41.399069
-41.371179
-41.343195
-41.318808
-41.299911
-41.286907
-41.512133
-41.495489
-41.473798
-41.447463
-41.416745
-41.385227
-41.356589
-41.332915
-41.314919
-41.558542
-41.541281
-41.518615
-41.490741
-41.457743
-41.423148
-41.390671
-41.362597
-41.339917
-41.599356
-41.581539
-41.558002
-41.528768
-41.493753
-41.456402
-41.420523
-41.388545
-41.361674
-41.633808
-41.615582
-41.591382
-41.561053
-41.524347
-41.484636
-41.445808
-41.410481
-41.380021
-41.661651
-41.643137
-41.618442
-41.587258
-41.549196
-41.507567
-41.466333
-41.428226
-41.394825
-41.682477
-41.663807
-41.638798
-41.607009
-41.567952
-41.524888
-41.481842
-41.441602
-41.405961
-41.696346
-41.677564
-41.652333
-41.620147
-41.580444
-41.536426
-41.492168
-41.450497
-41.413357
-41.703421
-41.684566
-41.65919
-41.626769
-41.586703
-41.54216
-41.49726
-41.454851
-41.416946
-41.703422
-41.684567
-41.65919
-41.62677
-41.586703
-41.54216
-41.49726
-41.45485
-41.416946
-41.696348
-41.677565
-41.652335
-41.620149
-41.580445
-41.536426
-41.492168
-41.450497
-41.413356
-41.682478
-41.663808
-41.638799
-41.607011
-41.567953
-41.524889
-41.481842
-41.441602
-41.405961
-41.661652
-41.643139
-41.618444
-41.58726
-41.549198
-41.507569
-41.466335
-41.428227
-41.394826
-41.63381
-41.615584
-41.591384
-41.561056
-41.52435
-41.484639
-41.445811
-41.410484
-41.380023
-41.599358
-41.581541
-41.558005
-41.528772
-41.493757
-41.456406
-41.420527
-41.388549
-41.361677
-41.558546
-41.541285
-41.518618
-41.490745
-41.457748
-41.423153
-41.390676
-41.362603
-41.339921
-41.512137
-41.495492
-41.473801
-41.447466
-41.416749
-41.385232
-41.356594
-41.332921
-41.314925
-41.459066
-41.443481
-41.423299
-41.399073
-41.371183
-41.343199
-41.318813
-41.299917
-41.286914
-41.401763
-41.3874
-41.368949
-41.347087
-41.322278
-41.29804
-41.27804
-41.26398
-41.255936
-41.341114
-41.328101
-41.311455
-41.291975
-41.270378
-41.250156
-41.234698
-41.225282
-41.221556
-41.270515
-41.25934
-41.245528
-41.230208
-41.213959
-41.199527
-41.189656
-41.184973
-41.184372
-38.436502
-38.436145
-38.435703
-38.435284
-38.434758
-38.433815
-38.43212
-38.429132
-38.424674
-38.442023
-38.441626
-38.441088
-38.440464
-38.439528
-38.43787
-38.435041
-38.430457
-38.424021
-38.446551
-38.446145
-38.445586
-38.444908
-38.443775
-38.441593
-38.437743
-38.43159
-38.42329
-38.450803
-38.450406
-38.449824
-38.44906
-38.447688
-38.444936
-38.440009
-38.432258
-38.422256
-38.454569
-38.454195
-38.453611
-38.452779
-38.451161
-38.447803
-38.441743
-38.432407
-38.420919
-38.457616
-38.457297
-38.456751
-38.455893
-38.454071
-38.450143
-38.442971
-38.432166
-38.419422
-38.460047
-38.459773
-38.459257
-38.45837
-38.456366
-38.451905
-38.443688
-38.431607
-38.417853
-38.461865
-38.461634
-38.461147
-38.460229
-38.458039
-38.453067
-38.443952
-38.430844
-38.416311
-38.463161
-38.462968
-38.462506
-38.461559
-38.459195
-38.453785
-38.443933
-38.430025
-38.414911
-38.464034
-38.463875
-38.463438
-38.462469
-38.459976
-38.4543
-38.443857
-38.429308
-38.413762
-38.464579
-38.464444
-38.464027
-38.463062
-38.460556
-38.454725
-38.443801
-38.428801
-38.412961
-38.464905
-38.464778
-38.464373
-38.463422
-38.460924
-38.454986
-38.443814
-38.428578
-38.41258
-38.464905
-38.464778
-38.464373
-38.463423
-38.460924
-38.454986
-38.443814
-38.428578
-38.41258
-38.46458
-38.464444
-38.464028
-38.463063
-38.460557
-38.454726
-38.443802
-38.428802
-38.412962
-38.464035
-38.463876
-38.463439
-38.46247
-38.459977
-38.454301
-38.443858
-38.429309
-38.413763
-38.463162
-38.462969
-38.462508
-38.461561
-38.459197
-38.453787
-38.443934
-38.430026
-38.414912
-38.461867
-38.461636
-38.461149
-38.460231
-38.458041
-38.45307
-38.443955
-38.430846
-38.416313
-38.460049
-38.459775
-38.45926
-38.458372
-38.456369
-38.451908
-38.443691
-38.431611
-38.417856
-38.45762
-38.4573
-38.456754
-38.455896
-38.454075
-38.450146
-38.442975
-38.43217
-38.419425
-38.454573
-38.454198
-38.453614
-38.452782
-38.451165
-38.447807
-38.441747
-38.432411
-38.420923
-38.450807
-38.45041
-38.449828
-38.449064
-38.447692
-38.44494
-38.440013
-38.432262
-38.42226
-38.446555
-38.44615
-38.44559
-38.444912
-38.443779
-38.441597
-38.437748
-38.431595
-38.423294
-38.442028
-38.441631
-38.441093
-38.440469
-38.439533
-38.437875
-38.435046
-38.430462
-38.424026
-38.436507
-38.436151
-38.435708
-38.435289
-38.434763
-38.433819
-38.432125
-38.429137
-38.42468
-37.298452
-37.298273
-37.298036
-37.297711
-37.297478
-37.297722
-37.298779
-37.30068
-37.30264
-37.304813
-37.304588
-37.304222
-37.303629
-37.303003
-37.302782
-37.303371
-37.304812
-37.306629
-37.310523
-37.310281
-37.309867
-37.309161
-37.308356
-37.307923
-37.308281
-37.30952
-37.311352
-37.315843
-37.315584
-37.315127
-37.314328
-37.313387
-37.312806
-37.313013
-37.314118
-37.31584
-37.320728
-37.320459
-37.319972
-37.319098
-37.318042
-37.317321
-37.317389
-37.318379
-37.319948
-37.325083
-37.324826
-37.324337
-37.323419
-37.322288
-37.321458
-37.3214
-37.322285
-37.323689
-37.328962
-37.328716
-37.328225
-37.327275
-37.326082
-37.325174
-37.325024
-37.325803
-37.327034
-37.332292
-37.332061
-37.331576
-37.330604
-37.32937
-37.328414
-37.328204
-37.32887
-37.329937
-37.335015
-37.334799
-37.334323
-37.333341
-37.332084
-37.331088
-37.330815
-37.331403
-37.332341
-37.337079
-37.336878
-37.336412
-37.335428
-37.334148
-37.33304
-37.332739
-37.333326
-37.334189
-37.338452
-37.338259
-37.337799
-37.336802
-37.33544
-37.334232
-37.333995
-37.334611
-37.335441
-37.339117
-37.338929
-37.338468
-37.337453
-37.33604
-37.334812
-37.334612
-37.335247
-37.336068
-37.339117
-37.338929
-37.338469
-37.337453
-37.33604
-37.334813
-37.334612
-37.335247
-37.336068
-37.338452
-37.33826
-37.3378
-37.336803
-37.335441
-37.334232
-37.333996
-37.334612
-37.335442
-37.33708
-37.336879
-37.336413
-37.335429
-37.33415
-37.333041
-37.33274
-37.333328
-37.33419
-37.335017
-37.334801
-37.334325
-37.333342
-37.332086
-37.33109
-37.330817
-37.331405
-37.332342
-37.332295
-37.332063
-37.331578
-37.330606
-37.329372
-37.328416
-37.328206
-37.328872
-37.329939
-37.328964
-37.328719
-37.328228
-37.327277
-37.326084
-37.325176
-37.325026
-37.325805
-37.327036
-37.325086
-37.324829
-37.324339
-37.323422
-37.322291
-37.321461
-37.321403
-37.322288
-37.323691
-37.320731
-37.320462
-37.319975
-37.319101
-37.318045
-37.317324
-37.317392
-37.318382
-37.31995
-37.315846
-37.315587
-37.31513
-37.314331
-37.313391
-37.312809
-37.313016
-37.314122
-37.315842
-37.310526
-37.310284
-37.30987
-37.309164
-37.308359
-37.307926
-37.308284
-37.309523
-37.311354
-37.304816
-37.304591
-37.304225
-37.303632
-37.303007
-37.302785
-37.303374
-37.304814
-37.30663
-37.298455
-37.298276
-37.298039
-37.297714
-37.297481
-37.297725
-37.298781
-37.300681
-37.30264
-35.270855
-35.270789
-35.270742
-35.270777
-35.270873
-35.270904
-35.270699
-35.270078
-35.26885
-35.272328
-35.272231
-35.27213
-35.272074
-35.27201
-35.271774
-35.271161
-35.269991
-35.268267
-35.273977
-35.273843
-35.273697
-35.27359
-35.273448
-35.273069
-35.272217
-35.270724
-35.268694
-35.275634
-35.275461
-35.275269
-35.275111
-35.274898
-35.274409
-35.273362
-35.271578
-35.269193
-35.277209
-35.277005
-35.276771
-35.276563
-35.276279
-35.275677
-35.274436
-35.272357
-35.269619
-35.278629
-35.278407
-35.278146
-35.277902
-35.27756
-35.276856
-35.275435
-35.273083
-35.270011
-35.27987
-35.279632
-35.279349
-35.279076
-35.27869
-35.277908
-35.276328
-35.27373
-35.270364
-35.28091
-35.280662
-35.280363
-35.280068
-35.27965
-35.2788
-35.277086
-35.274281
-35.270667
-35.281739
-35.281483
-35.281172
-35.280866
-35.280417
-35.279505
-35.277682
-35.27472
-35.270909
-35.282355
-35.282095
-35.28178
-35.281462
-35.280986
-35.280025
-35.27812
-35.275042
-35.271086
-35.282764
-35.282501
-35.282181
-35.281853
-35.281359
-35.280365
-35.278407
-35.275254
-35.271202
-35.28297
-35.282704
-35.282381
-35.282048
-35.281545
-35.280537
-35.278553
-35.275362
-35.271262
-35.28297
-35.282704
-35.282381
-35.282048
-35.281545
-35.280537
-35.278553
-35.275363
-35.271263
-35.282764
-35.282501
-35.282181
-35.281854
-35.281359
-35.280366
-35.278407
-35.275254
-35.271202
-35.282355
-35.282095
-35.28178
-35.281462
-35.280986
-35.280025
-35.27812
-35.275043
-35.271086
-35.281739
-35.281483
-35.281173
-35.280867
-35.280418
-35.279506
-35.277682
-35.274721
-35.270909
-35.280911
-35.280663
-35.280363
-35.280069
-35.279651
-35.278801
-35.277086
-35.274282
-35.270668
-35.27987
-35.279633
-35.27935
-35.279077
-35.278691
-35.277909
-35.276329
-35.273731
-35.270365
-35.27863
-35.278408
-35.278147
-35.277903
-35.277561
-35.276857
-35.275436
-35.273084
-35.270012
-35.277209
-35.277006
-35.276772
-35.276564
-35.27628
-35.275678
-35.274437
-35.272358
-35.26962
-35.275634
-35.275462
-35.275269
-35.275112
-35.274899
-35.27441
-35.273363
-35.271579
-35.269194
-35.273978
-35.273843
-35.273697
-35.273591
-35.273448
-35.27307
-35.272218
-35.270724
-35.268696
-35.272328
-35.272231
-35.27213
-35.272075
-35.27201
-35.271774
-35.271162
-35.269992
-35.268268
-35.270855
-35.270789
-35.270742
-35.270777
-35.270873
-35.270904
-35.270699
-35.270078
-35.26885
-33.664251
-33.66432
-33.664405
-33.664489
-33.664607
-33.664822
-33.665201
-33.665762
-33.666203
-33.665129
-33.66519
-33.665248
-33.665276
-33.665306
-33.665408
-33.665641
-33.665995
-33.666309
-33.66602
-33.666072
-33.666113
-33.666108
-33.666097
-33.666156
-33.66635
-33.66667
-33.667049
-33.666789
-33.66683
-33.666854
-33.666828
-33.666795
-33.666844
-33.667035
-33.66735
-33.667746
-33.66745
-33.667483
-33.667493
-33.667446
-33.667393
-33.66743
-33.667614
-33.667923
-33.668321
-33.668033
-33.668058
-33.668055
-33.66799
-33.667919
-33.667946
-33.668119
-33.668412
-33.668807
-33.668521
-33.668539
-33.668527
-33.668449
-33.668363
-33.668373
-33.668538
-33.668822
-33.669204
-33.668925
-33.668938
-33.668917
-33.668827
-33.668722
-33.668719
-33.668877
-33.669151
-33.669516
-33.669246
-33.669256
-33.669228
-33.669123
-33.669003
-33.668994
-33.669141
-33.669404
-33.669752
-33.669487
-33.669492
-33.669456
-33.669341
-33.669215
-33.669198
-33.669336
-33.669588
-33.669922
-33.669645
-33.669648
-33.669607
-33.669488
-33.669358
-33.669334
-33.669464
-33.669708
-33.67003
-33.669718
-33.66972
-33.669679
-33.669559
-33.669426
-33.669398
-33.669524
-33.669764
-33.670081
-33.669717
-33.66972
-33.669679
-33.669559
-33.669426
-33.669398
-33.669524
-33.669764
-33.670081
-33.669645
-33.669648
-33.669607
-33.669488
-33.669357
-33.669333
-33.669463
-33.669708
-33.67003
-33.669487
-33.669492
-33.669456
-33.669341
-33.669215
-33.669198
-33.669335
-33.669588
-33.669921
-33.669246
-33.669255
-33.669227
-33.669122
-33.669002
-33.668993
-33.66914
-33.669403
-33.669752
-33.668924
-33.668937
-33.668916
-33.668826
-33.668721
-33.668718
-33.668876
-33.66915
-33.669516
-33.66852
-33.668538
-33.668526
-33.668448
-33.668361
-33.668372
-33.668537
-33.668821
-33.669203
-33.668031
-33.668056
-33.668053
-33.667989
-33.667917
-33.667944
-33.668118
-33.66841
-33.668805
-33.667448
-33.667481
-33.667491
-33.667443
-33.667391
-33.667428
-33.667612
-33.667921
-33.66832
-33.666786
-33.666827
-33.666851
-33.666825
-33.666793
-33.666841
-33.667032
-33.667348
-33.667744
-33.666017
-33.666069
-33.66611
-33.666105
-33.666094
-33.666153
-33.666348
-33.666668
-33.667047
-33.665125
-33.665187
-33.665245
-33.665272
-33.665303
-33.665405
-33.665638
-33.665992
-33.666307
-33.664247
-33.664316
-33.664401
-33.664485
-33.664603
-33.664819
-33.665197
-33.665759
-33.666201
-31.889658
-31.889683
-31.88973
-31.889811
-31.88992
-31.890028
-31.8901
-31.890105
-31.889933
-31.89017
-31.890191
-31.890224
-31.890278
-31.890337
-31.890359
-31.890297
-31.890113
-31.889797
-31.890809
-31.890821
-31.890844
-31.890883
-31.890915
-31.890895
-31.890769
-31.890515
-31.890173
-31.89144
-31.891442
-31.891454
-31.89148
-31.891496
-31.891453
-31.891293
-31.890992
-31.890598
-31.892044
-31.892037
-31.892036
-31.892047
-31.892045
-31.891979
-31.891785
-31.891436
-31.890983
-31.892606
-31.892591
-31.89258
-31.892578
-31.89256
-31.892473
-31.892246
-31.89185
-31.891338
-31.893106
-31.893085
-31.893066
-31.893054
-31.893023
-31.892915
-31.892661
-31.892224
-31.891658
-31.893534
-31.893509
-31.893484
-31.893464
-31.893421
-31.893299
-31.893021
-31.89255
-31.891935
-31.893882
-31.893854
-31.893824
-31.893797
-31.893747
-31.893614
-31.893318
-31.892818
-31.892163
-31.894146
-31.894116
-31.894083
-31.894053
-31.893997
-31.893855
-31.893546
-31.893025
-31.892337
-31.894325
-31.894293
-31.894258
-31.894226
-31.894165
-31.894018
-31.8937
-31.893164
-31.892455
-31.894414
-31.894381
-31.894345
-31.894312
-31.89425
-31.894099
-31.893777
-31.893234
-31.892514
-31.894414
-31.894381
-31.894345
-31.894311
-31.894249
-31.894099
-31.893776
-31.893234
-31.892514
-31.894324
-31.894292
-31.894257
-31.894225
-31.894165
-31.894017
-31.893699
-31.893163
-31.892454
-31.894145
-31.894114
-31.894081
-31.894051
-31.893995
-31.893853
-31.893544
-31.893023
-31.892336
-31.89388
-31.893851
-31.893822
-31.893795
-31.893745
-31.893611
-31.893316
-31.892816
-31.892161
-31.893532
-31.893507
-31.893481
-31.893461
-31.893418
-31.893296
-31.893019
-31.892547
-31.891933
-31.893102
-31.893081
-31.893062
-31.89305
-31.893019
-31.892912
-31.892657
-31.892221
-31.891655
-31.892602
-31.892587
-31.892576
-31.892574
-31.892556
-31.892469
-31.892242
-31.891846
-31.891334
-31.89204
-31.892033
-31.892032
-31.892042
-31.89204
-31.891974
-31.89178
-31.891431
-31.890979
-31.891435
-31.891437
-31.891448
-31.891474
-31.891491
-31.891447
-31.891287
-31.890987
-31.890593
-31.890803
-31.890815
-31.890838
-31.890876
-31.890909
-31.890889
-31.890763
-31.890509
-31.890168
-31.890164
-31.890184
-31.890217
-31.890271
-31.89033
-31.890352
-31.89029
-31.890107
-31.88979
-31.88965
-31.889676
-31.889722
-31.889803
-31.889912
-31.89002
-31.890093
-31.890098
-31.889926
-30.17324
-30.173266
-30.173301
-30.17334
-30.173387
-30.173439
-30.173499
-30.173573
-30.173586
-30.173489
-30.173513
-30.17354
-30.173562
-30.173577
-30.173582
-30.173575
-30.173555
-30.173502
-30.173771
-30.173792
-30.173812
-30.173824
-30.173824
-30.17381
-30.17378
-30.17374
-30.173706
-30.174027
-30.174043
-30.174058
-30.174062
-30.174055
-30.174033
-30.173996
-30.173953
-30.173921
-30.174262
-30.174274
-30.174282
-30.17428
-30.174264
-30.174231
-30.174185
-30.174135
-30.174099
-30.174477
-30.174485
-30.174488
-30.174479
-30.174453
-30.174408
-30.174352
-30.174295
-30.174252
-30.174658
-30.174663
-30.174662
-30.174646
-30.174611
-30.174558
-30.174496
-30.174432
-30.174381
-30.174806
-30.174808
-30.174803
-30.17478
-30.174739
-30.174681
-30.174615
-30.174545
-30.174487
-30.174924
-30.174923
-30.174914
-30.174886
-30.174841
-30.17478
-30.17471
-30.174635
-30.174569
-30.175014
-30.175011
-30.174998
-30.174968
-30.174919
-30.174855
-30.174781
-30.174703
-30.174629
-30.175075
-30.175071
-30.175056
-30.175023
-30.174971
-30.174905
-30.174829
-30.174747
-30.174668
-30.175105
-30.1751
-30.175084
-30.17505
-30.174997
-30.17493
-30.174852
-30.174768
-30.174687
-30.175104
-30.175099
-30.175083
-30.17505
-30.174997
-30.174929
-30.174852
-30.174768
-30.174687
-30.175074
-30.175069
-30.175054
-30.175021
-30.17497
-30.174904
-30.174828
-30.174745
-30.174667
-30.175011
-30.175008
-30.174996
-30.174965
-30.174916
-30.174853
-30.174779
-30.1747
-30.174627
-30.174921
-30.17492
-30.17491
-30.174883
-30.174837
-30.174777
-30.174706
-30.174632
-30.174566
-30.174802
-30.174804
-30.174798
-30.174776
-30.174734
-30.174677
-30.17461
-30.174541
-30.174483
-30.174653
-30.174658
-30.174656
-30.17464
-30.174605
-30.174553
-30.17449
-30.174427
-30.174377
-30.174471
-30.174479
-30.174482
-30.174472
-30.174446
-30.174402
-30.174346
-30.174289
-30.174246
-30.174254
-30.174266
-30.174274
-30.174272
-30.174256
-30.174223
-30.174177
-30.174128
-30.174092
-30.174018
-30.174034
-30.174049
-30.174053
-30.174046
-30.174024
-30.173987
-30.173944
-30.173913
-30.173761
-30.173782
-30.173802
-30.173814
-30.173814
-30.1738
-30.17377
-30.17373
-30.173696
-30.173477
-30.173502
-30.173528
-30.173551
-30.173566
-30.173571
-30.173564
-30.173544
-30.173491
-30.173227
-30.173254
-30.173288
-30.173328
-30.173374
-30.173426
-30.173487
-30.17356
-30.173574
-28.447039
-28.447049
-28.447066
-28.44709
-28.447121
-28.447158
-28.447197
-28.447238
-28.447239
-28.447211
-28.447219
-28.447231
-28.447246
-28.44726
-28.44727
-28.44727
-28.447255
-28.447215
-28.44741
-28.447417
-28.447425
-28.447435
-28.447441
-28.447439
-28.447425
-28.447396
-28.447363
-28.4476
-28.447604
-28.447609
-28.447615
-28.447617
-28.447612
-28.447593
-28.44756
-28.447523
-28.44778
-28.447781
-28.447783
-28.447784
-28.447781
-28.447771
-28.447748
-28.44771
-28.447667
-28.447947
-28.447946
-28.447944
-28.447941
-28.447933
-28.447919
-28.447892
-28.447849
-28.447796
-28.448096
-28.448093
-28.448088
-28.448081
-28.448071
-28.448054
-28.448022
-28.447972
-28.447911
-28.448228
-28.448223
-28.448216
-28.448207
-28.448194
-28.448173
-28.448136
-28.448079
-28.448009
-28.44834
-28.448333
-28.448325
-28.448314
-28.448297
-28.448271
-28.448229
-28.448168
-28.448089
-28.448426
-28.448418
-28.448408
-28.448395
-28.448375
-28.448346
-28.448301
-28.448235
-28.44815
-28.448483
-28.448474
-28.448463
-28.448449
-28.448428
-28.448396
-28.44835
-28.44828
-28.44819
-28.44851
-28.448502
-28.448491
-28.448475
-28.448453
-28.448421
-28.448373
-28.448303
-28.448211
-28.44851
-28.448501
-28.44849
-28.448475
-28.448452
-28.44842
-28.448373
-28.448302
-28.44821
-28.448481
-28.448472
-28.448461
-28.448447
-28.448426
-28.448394
-28.448348
-28.448278
-28.448189
-28.448423
-28.448415
-28.448405
-28.448392
-28.448372
-28.448343
-28.448298
-28.448232
-28.448147
-28.448336
-28.448329
-28.44832
-28.448309
-28.448293
-28.448266
-28.448225
-28.448163
-28.448085
-28.448223
-28.448217
-28.44821
-28.448201
-28.448188
-28.448166
-28.44813
-28.448074
-28.448004
-28.448089
-28.448085
-28.44808
-28.448073
-28.448063
-28.448046
-28.448015
-28.447965
-28.447905
-28.447938
-28.447937
-28.447935
-28.447932
-28.447924
-28.44791
-28.447884
-28.44784
-28.447789
-28.44777
-28.447771
-28.447772
-28.447773
-28.447771
-28.447761
-28.447738
-28.4477
-28.447657
-28.447589
-28.447592
-28.447597
-28.447602
-28.447605
-28.447599
-28.447581
-28.447549
-28.447513
-28.447396
-28.447403
-28.447412
-28.447421
-28.447427
-28.447426
-28.447411
-28.447384
-28.447351
-28.447195
-28.447204
-28.447216
-28.447231
-28.447245
-28.447255
-28.447255
-28.447241
-28.447202
-28.447022
-28.447033
-28.447049
-28.447073
-28.447104
-28.447141
-28.447181
-28.447222
-28.447224
-26.720925
-26.72093
-26.720937
-26.720948
-26.720961
-26.720976
-26.720989
-26.721002
-26.720995
-26.721018
-26.721022
-26.721027
-26.721032
-26.721035
-26.721035
-26.721026
-26.721007
-26.720975
-26.72112
-26.721123
-26.721126
-26.721128
-26.721128
-26.721121
-26.721104
-26.721078
-26.721049
-26.721218
-26.721219
-26.721221
-26.721221
-26.721218
-26.721207
-26.721188
-26.72116
-26.72113
-26.721308
-26.721308
-26.721308
-26.721306
-26.7213
-26.721286
-26.721264
-26.721234
-26.721201
-26.721388
-26.721387
-26.721385
-26.721381
-26.721374
-26.721359
-26.721334
-26.721302
-26.721265
-26.721458
-26.721456
-26.721452
-26.721447
-26.721438
-26.721421
-26.721396
-26.721361
-26.721321
-26.721516
-26.721513
-26.721508
-26.721501
-26.721491
-26.721474
-26.721449
-26.721412
-26.721369
-26.721562
-26.721559
-26.721553
-26.721545
-26.721534
-26.721518
-26.721492
-26.721454
-26.721407
-26.721598
-26.721594
-26.721588
-26.721579
-26.721567
-26.721551
-26.721525
-26.721485
-26.721436
-26.721622
-26.721617
-26.721611
-26.721602
-26.72159
-26.721573
-26.721546
-26.721506
-26.721456
-26.721633
-26.721629
-26.721622
-26.721613
-26.721601
-26.721584
-26.721557
-26.721517
-26.721465
-26.721633
-26.721628
-26.721621
-26.721612
-26.7216
-26.721583
-26.721556
-26.721516
-26.721464
-26.72162
-26.721615
-26.721608
-26.721599
-26.721588
-26.721571
-26.721544
-26.721504
-26.721454
-26.721594
-26.72159
-26.721584
-26.721575
-26.721564
-26.721547
-26.721521
-26.721482
-26.721433
-26.721557
-26.721553
-26.721548
-26.72154
-26.721529
-26.721512
-26.721486
-26.721449
-26.721403
-26.721509
-26.721506
-26.721501
-26.721494
-26.721484
-26.721467
-26.721442
-26.721406
-26.721363
-26.721449
-26.721447
-26.721444
-26.721438
-26.721429
-26.721412
-26.721387
-26.721353
-26.721314
-26.721378
-26.721377
-26.721375
-26.721371
-26.721363
-26.721348
-26.721324
-26.721292
-26.721256
-26.721296
-26.721296
-26.721295
-26.721293
-26.721287
-26.721274
-26.721252
-26.721222
-26.721191
-26.721204
-26.721205
-26.721206
-26.721207
-26.721204
-26.721193
-26.721174
-26.721147
-26.721118
-26.721104
-26.721107
-26.72111
-26.721112
-26.721112
-26.721105
-26.721088
-26.721063
-26.721035
-26.721
-26.721004
-26.721008
-26.721013
-26.721017
-26.721017
-26.721008
-26.72099
-26.720959
-26.720905
-26.72091
-26.720917
-26.720928
-26.720941
-26.720956
-26.72097
-26.720984
-26.720977
-24.997733
-24.997735
-24.997739
-24.997745
-24.997752
-24.997761
-24.997772
-24.997787
-24.997792
-24.997782
-24.997784
-24.997787
-24.99779
-24.997792
-24.997793
-24.997794
-24.997792
-24.997785
-24.997836
-24.997838
-24.997839
-24.99784
-24.99784
-24.997839
-24.997836
-24.997832
-24.997827
-24.997887
-24.997887
-24.997888
-24.997888
-24.997887
-24.997885
-24.997882
-24.997878
-24.997873
-24.997934
-24.997934
-24.997934
-24.997933
-24.997931
-24.997928
-24.997924
-24.997919
-24.997914
-24.997977
-24.997977
-24.997976
-24.997974
-24.99797
-24.997967
-24.997963
-24.997957
-24.99795
-24.998017
-24.998015
-24.998013
-24.99801
-24.998007
-24.998003
-24.997998
-24.99799
-24.997982
-24.998051
-24.998049
-24.998047
-24.998043
-24.998039
-24.998034
-24.998028
-24.998019
-24.998009
-24.998079
-24.998077
-24.998075
-24.99807
-24.998065
-24.998059
-24.998052
-24.998043
-24.998031
-24.998101
-24.998098
-24.998095
-24.998091
-24.998085
-24.998078
-24.998071
-24.998061
-24.998047
-24.998115
-24.998112
-24.998109
-24.998104
-24.998098
-24.998091
-24.998083
-24.998073
-24.998058
-24.998121
-24.998119
-24.998115
-24.99811
-24.998104
-24.998097
-24.998089
-24.998078
-24.998063
-24.998121
-24.998118
-24.998114
-24.998109
-24.998103
-24.998096
-24.998088
-24.998078
-24.998063
-24.998112
-24.99811
-24.998107
-24.998102
-24.998095
-24.998088
-24.998081
-24.998071
-24.998056
-24.998097
-24.998095
-24.998091
-24.998087
-24.99808
-24.998074
-24.998067
-24.998057
-24.998044
-24.998074
-24.998072
-24.998069
-24.998065
-24.998059
-24.998053
-24.998047
-24.998038
-24.998026
-24.998044
-24.998042
-24.99804
-24.998036
-24.998031
-24.998026
-24.99802
-24.998012
-24.998003
-24.998008
-24.998006
-24.998004
-24.998001
-24.997997
-24.997993
-24.997988
-24.997982
-24.997974
-24.997967
-24.997966
-24.997965
-24.997962
-24.997959
-24.997956
-24.997952
-24.997946
-24.99794
-24.997921
-24.997921
-24.997921
-24.997919
-24.997917
-24.997915
-24.997911
-24.997907
-24.997902
-24.997872
-24.997872
-24.997873
-24.997873
-24.997872
-24.99787
-24.997867
-24.997863
-24.99786
-24.997819
-24.99782
-24.997822
-24.997823
-24.997823
-24.997822
-24.997819
-24.997816
-24.997812
-24.997763
-24.997765
-24.997767
-24.99777
-24.997772
-24.997774
-24.997774
-24.997774
-24.997767
-24.997711
-24.997713
-24.997717
-24.997723
-24.99773
-24.997739
-24.997751
-24.997766
-24.997771
-23.272993
-23.272994
-23.272995
-23.272998
-23.273001
-23.273005
-23.273009
-23.273012
-23.27301
-23.273021
-23.273022
-23.273022
-23.273023
-23.273024
-23.273024
-23.273021
-23.273016
-23.273006
-23.273051
-23.273052
-23.273052
-23.273052
-23.273052
-23.27305
-23.273045
-23.273038
-23.273029
-23.27308
-23.27308
-23.27308
-23.27308
-23.273079
-23.273076
-23.273071
-23.273063
-23.273053
-23.273107
-23.273107
-23.273106
-23.273105
-23.273104
-23.2731
-23.273094
-23.273086
-23.273075
-23.273131
-23.27313
-23.273129
-23.273128
-23.273126
-23.273122
-23.273116
-23.273107
-23.273095
-23.273152
-23.273151
-23.27315
-23.273148
-23.273146
-23.273142
-23.273135
-23.273126
-23.273113
-23.27317
-23.273168
-23.273167
-23.273165
-23.273162
-23.273158
-23.273152
-23.273142
-23.273128
-23.273184
-23.273183
-23.273181
-23.273179
-23.273176
-23.273172
-23.273165
-23.273155
-23.27314
-23.273195
-23.273193
-23.273191
-23.273189
-23.273186
-23.273182
-23.273175
-23.273164
-23.273149
-23.273202
-23.2732
-23.273198
-23.273196
-23.273193
-23.273189
-23.273182
-23.273171
-23.273155
-23.273205
-23.273203
-23.273201
-23.273199
-23.273196
-23.273192
-23.273185
-23.273174
-23.273158
-23.273204
-23.273203
-23.273201
-23.273198
-23.273195
-23.273191
-23.273184
-23.273173
-23.273157
-23.2732
-23.273198
-23.273196
-23.273193
-23.27319
-23.273186
-23.27318
-23.273168
-23.273153
-23.273191
-23.273189
-23.273187
-23.273185
-23.273182
-23.273178
-23.273171
-23.273161
-23.273146
-23.273179
-23.273177
-23.273175
-23.273173
-23.27317
-23.273166
-23.27316
-23.273149
-23.273135
-23.273163
-23.273161
-23.27316
-23.273158
-23.273155
-23.273151
-23.273144
-23.273135
-23.273122
-23.273143
-23.273142
-23.273141
-23.273139
-23.273136
-23.273132
-23.273126
-23.273117
-23.273105
-23.27312
-23.27312
-23.273118
-23.273117
-23.273115
-23.273111
-23.273105
-23.273097
-23.273086
-23.273094
-23.273094
-23.273093
-23.273092
-23.27309
-23.273087
-23.273082
-23.273074
-23.273064
-23.273065
-23.273065
-23.273065
-23.273065
-23.273064
-23.273061
-23.273056
-23.273049
-23.27304
-23.273034
-23.273034
-23.273035
-23.273035
-23.273034
-23.273033
-23.273028
-23.273022
-23.273014
-23.273001
-23.273002
-23.273003
-23.273004
-23.273005
-23.273004
-23.273002
-23.272998
-23.272989
-23.272971
-23.272972
-23.272973
-23.272976
-23.272979
-23.272983
-23.272987
-23.272991
-23.27299
-21.549243
-21.549243
-21.549244
-21.549245
-21.549247
-21.549249
-21.549252
-21.549255
-21.549256
-21.549257
-21.549257
-21.549258
-21.549258
-21.549258
-21.549258
-21.549258
-21.549257
-21.549254
-21.549271
-21.549271
-21.549272
-21.549272
-21.549272
-21.549271
-21.54927
-21.549268
-21.549266
-21.549285
-21.549285
-21.549285
-21.549285
-21.549284
-21.549283
-21.549282
-21.549281
-21.549279
-21.549297
-21.549297
-21.549297
-21.549296
-21.549296
-21.549295
-21.549294
-21.549292
-21.54929
-21.549308
-21.549308
-21.549308
-21.549307
-21.549306
-21.549305
-21.549304
-21.549302
-21.5493
-21.549318
-21.549318
-21.549318
-21.549317
-21.549316
-21.549315
-21.549313
-21.549311
-21.549308
-21.549327
-21.549327
-21.549326
-21.549325
-21.549324
-21.549322
-21.549321
-21.549319
-21.549315
-21.549334
-21.549333
-21.549333
-21.549332
-21.54933
-21.549329
-21.549327
-21.549325
-21.549321
-21.549339
-21.549338
-21.549338
-21.549336
-21.549335
-21.549334
-21.549332
-21.549329
-21.549325
-21.549342
-21.549341
-21.549341
-21.549339
-21.549338
-21.549336
-21.549335
-21.549332
-21.549328
-21.549343
-21.549343
-21.549342
-21.54934
-21.549339
-21.549338
-21.549336
-21.549333
-21.549329
-21.549343
-21.549342
-21.549341
-21.54934
-21.549338
-21.549337
-21.549335
-21.549332
-21.549328
-21.54934
-21.549339
-21.549338
-21.549337
-21.549336
-21.549334
-21.549333
-21.54933
-21.549326
-21.549335
-21.549335
-21.549334
-21.549333
-21.549331
-21.54933
-21.549328
-21.549326
-21.549322
-21.549329
-21.549329
-21.549328
-21.549327
-21.549325
-21.549324
-21.549322
-21.54932
-21.549317
-21.549321
-21.54932
-21.54932
-21.549318
-21.549317
-21.549316
-21.549314
-21.549312
-21.54931
-21.549311
-21.54931
-21.54931
-21.549309
-21.549307
-21.549306
-21.549305
-21.549303
-21.549301
-21.549299
-21.549299
-21.549298
-21.549297
-21.549296
-21.549295
-21.549294
-21.549293
-21.549291
-21.549286
-21.549286
-21.549285
-21.549285
-21.549284
-21.549283
-21.549282
-21.549281
-21.54928
-21.549271
-21.549271
-21.549271
-21.549271
-21.549271
-21.54927
-21.549269
-21.549268
-21.549267
-21.549256
-21.549256
-21.549256
-21.549256
-21.549256
-21.549256
-21.549255
-21.549254
-21.549253
-21.54924
-21.54924
-21.54924
-21.549241
-21.549241
-21.549241
-21.549241
-21.549241
-21.549239
-21.549224
-21.549224
-21.549225
-21.549226
-21.549228
-21.54923
-21.549233
-21.549237
-21.549239
-19.825134
-19.825134
-19.825134
-19.825135
-19.825136
-19.825137
-19.825138
-19.825139
-19.825138
-19.825141
-19.825141
-19.825142
-19.825142
-19.825142
-19.825142
-19.825141
-19.82514
-19.825137
-19.825149
-19.825149
-19.825149
-19.825149
-19.825149
-19.825148
-19.825147
-19.825145
-19.825143
-19.825156
-19.825156
-19.825156
-19.825156
-19.825155
-19.825155
-19.825153
-19.825151
-19.825149
-19.825162
-19.825162
-19.825162
-19.825162
-19.825162
-19.825161
-19.825159
-19.825157
-19.825155
-19.825168
-19.825168
-19.825168
-19.825168
-19.825167
-19.825166
-19.825165
-19.825163
-19.82516
-19.825174
-19.825173
-19.825173
-19.825173
-19.825172
-19.825171
-19.82517
-19.825167
-19.825164
-19.825178
-19.825178
-19.825177
-19.825177
-19.825176
-19.825175
-19.825174
-19.825171
-19.825168
-19.825182
-19.825181
-19.825181
-19.82518
-19.82518
-19.825179
-19.825177