/*--------------------------------*- C++ -*----------------------------------*\
| =========                 |                                                 |
| \\      /  F ield         | OpenFOAM: The Open Source CFD Toolbox           |
|  \\    /   O peration     | Version:  2406                                  |
|   \\  /    A nd           | Website:  www.openfoam.com                      |
|    \\/     M anipulation  |                                                 |
\*---------------------------------------------------------------------------*/
FoamFile
{
    version     2.0;
    format      ascii;
    arch        "LSB;label=32;scalar=64";
    class       surfaceScalarField;
    location    "4.5";
    object      phi;
}
// * * * * * * * * * * * * * * * * * * * * * * * * * * * * * * * * * * * * * //

dimensions      [0 3 -1 0 0 0 0];

oriented        oriented;

internalField   nonuniform List<scalar> 
101088
(
-7.7908038e-05
2.3893506e-05
-1.4665198e-05
-2.0786206e-05
-0.00015392633
0.00010379507
-6.203373e-05
-9.0940959e-05
-0.00020921404
0.00025039847
-0.00014516339
-0.00022023003
-0.00022412243
0.00047448989
-0.00026337472
-0.00041868624
-0.0001957603
0.00075733328
-0.00039043871
-0.00067043218
-0.00015393724
0.0010472988
-0.00047792585
-0.00092819517
-0.00014939689
0.0012810965
-0.00048793172
-0.0011327101
-0.00021522506
0.0014062341
-0.00042532217
-0.0012366216
0.0013969198
-0.00032902071
-0.0012231103
-0.00033994629
-9.4568426e-05
2.6381075e-05
-1.7667424e-05
-0.00018393079
0.00011383313
-7.4053621e-05
-0.00024279328
0.00027262111
-0.00017169884
-0.00024500251
0.0005128256
-0.00030810618
-0.00018785264
0.00081472887
-0.00045111838
-0.00010945494
0.0011257133
-0.00054572595
-6.8736853e-05
0.0013795294
-0.00055306504
-9.8897611e-05
0.001516955
-0.00048280391
0.001506543
-0.00037853596
-0.00018673936
-0.00011125586
2.7986088e-05
-2.0567651e-05
-0.00021355697
0.00011999692
-8.5545441e-05
-0.00027620508
0.00028563953
-0.00019667545
-0.00026895794
0.00053377827
-0.00034910539
-0.00018968683
0.00084337057
-0.00050442889
-8.2852762e-05
0.0011624786
-0.00060165352
-1.3373863e-05
0.0014244327
-0.00060281592
-1.4123411e-05
0.0015651955
-0.00052449795
0.0015526594
-0.00041326651
-7.3570301e-05
-0.00012752497
2.854119e-05
-2.3228191e-05
-0.00024249302
0.00012170698
-9.593765e-05
-0.00030918588
0.00028817994
-0.00021884254
-0.00029421928
0.00053550457
-0.00038450053
-0.00019785276
0.0008421836
-0.0005485477
-7.0924766e-05
0.0011580524
-0.00064525295
1.7986402e-05
0.0014172187
-0.00063875926
3.7598677e-05
0.001554024
-0.00055311282
0.001539356
-0.00043641116
-1.4084366e-06
-0.0001428844
2.7813169e-05
-2.5540743e-05
-0.00026983868
0.00011832549
-0.00010487539
-0.0003409391
0.00027936781
-0.0002376113
-0.00032069176
0.00051731263
-0.00041370829
-0.00021235201
0.00081123752
-0.00058343008
-7.2649951e-05
0.0011137847
-0.00067743069
2.8193294e-05
0.0013609437
-0.00066359772
6.0667285e-05
0.0014886374
-0.0005719101
0.0014719798
-0.00045089254
3.5858644e-05
-0.0001575252
2.6129111e-05
-2.7514941e-05
-0.00029688472
0.00011084058
-0.00011240921
-0.00037454318
0.0002608728
-0.00025314514
-0.00035320936
0.00048139066
-0.00043717733
-0.0002385797
0.00075277457
-0.00061000051
-9.2159437e-05
0.0010318829
-0.0006997062
1.5579358e-05
0.0012583284
-0.00067905566
5.6544101e-05
0.0013729
-0.00058253485
0.0013548651
-0.00045889278
4.2803688e-05
-0.00017048724
2.339774e-05
-2.9120268e-05
-0.00032086039
9.9085987e-05
-0.00011844224
-0.00040478133
0.00023274323
-0.00026531915
-0.00038399872
0.00042849111
-0.00045490414
-0.00026675575
0.00066873755
-0.00062876607
-0.00011842122
0.00091540575
-0.00071307406
-8.623237e-06
0.0011143404
-0.00068673885
3.6157367e-05
0.0012132055
-0.00058675809
0.0011950108
-0.00046200818
2.9345966e-05
-0.00018173468
1.9758437e-05
-3.0373217e-05
-0.00034199382
8.3606818e-05
-0.0001230995
-0.00043224925
0.00019618805
-0.00027455155
-0.00041363349
0.00036073064
-0.0004678933
-0.00029662198
0.00056236462
-0.00064152739
-0.00014907843
0.00076915095
-0.00072118567
-4.0239396e-05
0.00093479354
-0.00068934469
5.5127027e-06
0.0010161515
-0.00058689694
0.00099930379
-0.00046202197
2.9021103e-06
-0.00019106326
1.539574e-05
-3.1312164e-05
-0.00035983494
6.5151548e-05
-0.00012655997
-0.00045612553
0.00015284273
-0.00028131189
-0.00044063247
0.00028088184
-0.00047710888
-0.00032558776
0.00043769195
-0.00064988587
-0.00018052147
0.00059842505
-0.0007253911
-7.4016097e-05
0.0007264891
-0.00068952071
-2.8931388e-05
0.00078881874
-0.00058487325
0.0007747702
-0.00046039198
-2.9162567e-05
-0.00019832076
1.0555833e-05
-3.1975936e-05
-0.00037402609
4.4651683e-05
-0.0001289917
-0.00047571434
0.00010466928
-0.00028600784
-0.00046369671
0.00019217204
-0.00048333305
-0.00035143468
0.00029933737
-0.00065509377
-0.00020940042
0.00040914297
-0.00072727685
-0.00010560033
0.0004963152
-0.00068835591
-6.1685175e-05
0.00053847522
-0.00058218025
0.00052843047
-0.00045826055
-6.0518447e-05
-0.0002031743
5.3659539e-06
-3.2408288e-05
-0.00038351666
2.2679283e-05
-0.00013053268
-0.00048895974
5.3142683e-05
-0.00028889468
-0.00047974759
9.7510454e-05
-0.00048698477
-0.00037009075
0.00015186656
-0.00065782152
-0.00023086491
0.00020751063
-0.00072771305
-0.00012954782
0.00025157617
-0.00068678876
-8.6846468e-05
0.00027281134
-0.00057977691
0.00026759558
-0.00045638712
-8.5002991e-05
-0.000205655
9.895922e-11
-3.2598375e-05
-0.00038844868
2.3816537e-10
-0.00013123761
-0.00049594313
3.2080967e-10
-0.00029027218
-0.00048829428
3.5641303e-10
-0.0004888318
-0.00037998484
-2.9079755e-10
-0.00065935603
-0.00024219745
-9.2965551e-10
-0.00072823783
-0.00014224187
-1.601471e-09
-0.00068635698
-0.00010033497
-1.8429647e-09
-0.00057890544
-1.2387637e-09
-0.00045569603
-9.8381184e-05
-0.00020565508
-5.365878e-06
-3.259837e-05
-0.00038844871
-2.2679062e-05
-0.00013123759
-0.00049594306
-5.3142288e-05
-0.00029027215
-0.00048829478
-9.7509938e-05
-0.00048883176
-0.00037998483
-0.00015186709
-0.00065935595
-0.00024219755
-0.00020751224
-0.00072823777
-0.00014224202
-0.00025157896
-0.00068635694
-0.00010033506
-0.00027281456
-0.00057890542
-0.0002675978
-0.00045569606
-9.8381566e-05
-0.00020317415
-1.0555914e-05
-3.2408287e-05
-0.0003835162
-4.4651827e-05
-0.00013053268
-0.00048895954
-0.00010466937
-0.00028889471
-0.00047974915
-0.00019217218
-0.00048698482
-0.00037009082
-0.00029933803
-0.0006578215
-0.00023086523
-0.00040914413
-0.00072771308
-0.00012954826
-0.00049631704
-0.00068678879
-8.6846717e-05
-0.00053847733
-0.00057977692
-0.00052843214
-0.0004563872
-8.500398e-05
-0.00019832011
-1.5395737e-05
-3.1975932e-05
-0.000374025
-6.5151625e-05
-0.00012899168
-0.00047571386
-0.00015284302
-0.00028600783
-0.00046369838
-0.00028088237
-0.000483333
-0.00035143441
-0.00043769231
-0.00065509362
-0.00020940082
-0.00059842545
-0.00072727681
-0.00010560096
-0.00072648979
-0.00068835587
-6.1685593e-05
-0.00078881955
-0.00058218023
-0.00077477135
-0.00045826064
-6.051987e-05
-0.00019106338
-1.9758434e-05
-3.1312166e-05
-0.00035983521
-8.3607028e-05
-0.00012655998
-0.00045612521
-0.00019618854
-0.0002813119
-0.00044063297
-0.00036073103
-0.00047710883
-0.00032558685
-0.00056236424
-0.00064988578
-0.00018052186
-0.00076915078
-0.00072539114
-7.4016751e-05
-0.00093479347
-0.00068952071
-2.893198e-05
-0.0010161513
-0.00058487325
-0.00099930457
-0.00046039205
-2.9164305e-05
-0.00018173556
-2.3397808e-05
-3.037322e-05
-0.00034199478
-9.9086046e-05
-0.00012309951
-0.00043224796
-0.00023274309
-0.00027455156
-0.00041363231
-0.00042849076
-0.00046789333
-0.00029662111
-0.00066873694
-0.00064152744
-0.00014907888
-0.00091540598
-0.00072118576
-4.0239977e-05
-0.0011143405
-0.00068934474
5.5117676e-06
-0.001213205
-0.00058689697
-0.0011950114
-0.00046202202
2.9002252e-06
-0.0001704873
-2.6128919e-05
-2.9120274e-05
-0.00032086024
-0.00011083996
-0.00011844227
-0.00040478015
-0.00026087239
-0.00026531923
-0.00038399828
-0.00048139144
-0.00045490431
-0.00026675603
-0.00075277608
-0.00062876619
-0.00011842132
-0.0010318849
-0.00071307412
-8.6234268e-06
-0.0012583298
-0.00068673892
3.6156159e-05
-0.0013729003
-0.00058675814
-0.0013548655
-0.00046200822
2.9344345e-05
-0.00015752556
-2.7813163e-05
-2.7514952e-05
-0.00029688601
-0.00011832554
-0.00011240925
-0.00037454398
-0.0002793682
-0.00025314524
-0.00035320921
-0.00051731358
-0.00043717747
-0.00023857945
-0.000811239
-0.00061000062
-9.2158267e-05
-0.0011137869
-0.00069970628
1.5579882e-05
-0.0013609464
-0.0006790558
5.654325e-05
-0.0014886388
-0.00058253492
-0.0014719796
-0.00045889282
4.2802087e-05
-0.00014288464
-2.8541078e-05
-2.5540741e-05
-0.00026983864
-0.00012170659
-0.00010487537
-0.00034093787
-0.00028817921
-0.00023761127
-0.00032069041
-0.00053550409
-0.00041370833
-0.00021235151
-0.00084218427
-0.00058343023
-7.2648316e-05
-0.0011580537
-0.00067743078
2.8194794e-05
-0.0014172208
-0.00066359783
6.0668375e-05
-0.0015540251
-0.00057191011
-0.0015393554
-0.00045089257
3.5856793e-05
-0.00012752494
-2.7986133e-05
-2.3228187e-05
-0.00024249278
-0.00011999709
-9.593763e-05
-0.00030918544
-0.00028563991
-0.00021884252
-0.00029421925
-0.00053377919
-0.00038450057
-0.00019785253
-0.00084337248
-0.00054854777
-7.092309e-05
-0.0011624808
-0.00064525295
1.7988136e-05
-0.0014244341
-0.0006387593
3.7601182e-05
-0.0015651964
-0.00055311279
-0.0015526597
-0.00043641115
-1.4096741e-06
-0.00011125576
-2.6381078e-05
-2.0567645e-05
-0.00021355667
-0.0001138332
-8.5545416e-05
-0.00027620475
-0.00027262124
-0.0001966754
-0.00026895815
-0.00051282593
-0.00034910533
-0.00018968616
-0.00081472995
-0.00050442886
-8.285035e-05
-0.0011257154
-0.00060165355
-1.3372385e-05
-0.0013795318
-0.00060281578
-1.4121101e-05
-0.0015169565
-0.00052449782
-0.0015065407
-0.0004132665
-7.3569232e-05
-9.4568343e-05
-2.389356e-05
-1.766742e-05
-0.00018393083
-0.00010379528
-7.4053603e-05
-0.00024279368
-0.00025039886
-0.00017169879
-0.00024500361
-0.00047449048
-0.00030810611
-0.00018785287
-0.00075733421
-0.0004511183
-0.00010945304
-0.0010472999
-0.00054572592
-6.8735541e-05
-0.0012810984
-0.00055306493
-9.8894433e-05
-0.0014062356
-0.00048280375
-0.0013969196
-0.00037853598
-0.00018673872
-7.7908029e-05
-1.4665199e-05
-2.0786238e-05
-0.00015392648
-6.2033733e-05
-9.0941125e-05
-0.00020921429
-0.0001451634
-0.00022023049
-0.00022412288
-0.00026337476
-0.00041868731
-0.00019576003
-0.00039043878
-0.00067043387
-0.00015393518
-0.00047792593
-0.00092819657
-0.00014939556
-0.0004879318
-0.0011327107
-0.00021522311
-0.00042532223
-0.0012366215
-0.00032902069
-0.0012231117
-0.00033994616
-2.1893215e-07
2.5297583e-06
-1.497806e-05
-1.9979644e-06
-1.6460177e-08
1.1222777e-05
-6.4501806e-05
-8.9572272e-06
1.3586148e-06
2.7411122e-05
-0.0001518945
-2.2055231e-05
3.7323729e-06
5.1702645e-05
-0.000275476
-4.1975161e-05
7.2170385e-06
7.9372786e-05
-0.00040820873
-6.5087298e-05
1.2271206e-05
0.00010001013
-0.00050050255
-8.248825e-05
1.8334839e-05
0.00010445471
-0.00051298309
-8.5468095e-05
2.3931663e-05
9.3414902e-05
-0.00045025177
-7.4081389e-05
7.4270315e-05
-0.00035065328
-5.6606808e-05
2.7901193e-05
-2.4651652e-07
2.9408522e-06
-1.7831981e-05
1.9613307e-07
1.2993791e-05
-7.6267036e-05
2.5597484e-06
3.1485662e-05
-0.00017813635
7.0918515e-06
5.8639717e-05
-0.00031957439
1.3976088e-05
8.8702542e-05
-0.00046733192
2.2817422e-05
0.00011035297
-0.00056491078
3.1661229e-05
0.00011487063
-0.00057232429
3.804115e-05
0.00010459221
-0.0005003618
8.6353095e-05
-0.00039286251
4.0284717e-05
-2.5766218e-07
3.1799774e-06
-2.0549145e-05
5.5278431e-07
1.4017024e-05
-8.7379061e-05
4.121683e-06
3.3814398e-05
-0.00020257293
1.0847659e-05
6.2424747e-05
-0.0003596164
2.0660665e-05
9.3239773e-05
-0.00051877968
3.2203119e-05
0.00011454604
-0.00061738944
4.20579e-05
0.00011869471
-0.00061649425
4.672138e-05
0.00010987986
-0.00053444921
9.3770652e-05
-0.00041981236
4.5849619e-05
-2.785144e-07
3.247931e-06
-2.3017509e-05
8.5016739e-07
1.430078e-05
-9.7349629e-05
5.5448907e-06
3.4397593e-05
-0.00022411981
1.4350736e-05
6.3095218e-05
-0.00039397636
2.6783143e-05
9.3367879e-05
-0.00056110819
4.0214093e-05
0.0001136503
-0.00065778801
4.9994323e-05
0.0001176206
-0.00064746579
5.1571221e-05
0.00011047946
-0.00055528978
9.694588e-05
-0.00043558282
4.7567565e-05
-2.9533763e-07
3.1332982e-06
-2.5130667e-05
1.1202308e-06
1.3829764e-05
-0.00010581995
6.8060524e-06
3.327143e-05
-0.00024217173
1.7383979e-05
6.0853596e-05
-0.00042204546
3.1853823e-05
8.9597646e-05
-0.00059412939
4.6541947e-05
0.00010856752
-0.00068703642
5.5549077e-05
0.00011266424
-0.00066764846
5.3791586e-05
0.00010693833
-0.00056661108
9.5884846e-05
-0.00044345238
4.7412994e-05
-3.607518e-07
2.8921743e-06
-2.6912827e-05
1.1498949e-06
1.2791345e-05
-0.00011288082
7.4368008e-06
3.0784452e-05
-0.00025694501
1.9195088e-05
5.6212315e-05
-0.00044429486
3.5069759e-05
8.2552493e-05
-0.0006188297
5.0698184e-05
9.9925619e-05
-0.00070669324
5.857865e-05
0.00010439339
-0.00067866493
5.3936582e-05
9.9757677e-05
-0.00057071122
9.0779154e-05
-0.00044569682
4.5847048e-05
-4.1765891e-07
2.5424289e-06
-2.8352828e-05
1.1518347e-06
1.1274398e-05
-0.00011849508
7.8633079e-06
2.7167071e-05
-0.00026841402
2.0439474e-05
4.9596823e-05
-0.00046086467
3.7249121e-05
7.2791928e-05
-0.00063581407
5.3559732e-05
8.8478079e-05
-0.00071793654
5.9813343e-05
9.3291717e-05
-0.00068189057
5.2706581e-05
8.9381036e-05
-0.00056927411
8.2075329e-05
-0.00044392081
4.3323681e-05
-4.7450925e-07
2.1070821e-06
-2.9463111e-05
1.099445e-06
9.3765737e-06
-0.00012277565
8.0503048e-06
2.2645486e-05
-0.00027698164
2.1109628e-05
4.138355e-05
-0.0004727394
3.8438969e-05
6.0797444e-05
-0.00064686213
5.4859765e-05
7.4190743e-05
-0.00072331821
5.9292489e-05
7.909001e-05
-0.00067957555
5.0328266e-05
7.6020663e-05
-0.00056457214
7.0184547e-05
-0.00043987476
4.00725e-05
-5.3631078e-07
1.6141371e-06
-3.0283044e-05
9.7566748e-07
7.2119726e-06
-0.00012590751
7.9718426e-06
1.7470157e-05
-0.00028313274
2.117516e-05
3.1981991e-05
-0.00048090992
3.8654858e-05
4.7041068e-05
-0.00065360966
5.4908192e-05
5.7574177e-05
-0.00072502717
5.7539028e-05
6.2271988e-05
-0.0006753333
4.7185475e-05
6.0007527e-05
-0.00055850658
5.5540292e-05
-0.00043497256
3.6410936e-05
-6.0161708e-07
1.0936152e-06
-3.0854115e-05
7.9413272e-07
4.8980406e-06
-0.00012807396
7.6813588e-06
1.1889098e-05
-0.00028731386
2.0756425e-05
2.180437e-05
-0.00048622938
3.7991131e-05
3.2100702e-05
-0.00065738849
5.3707241e-05
3.9378691e-05
-0.00072479706
5.5077613e-05
4.3084577e-05
-0.00067053861
4.3804218e-05
4.166639e-05
-0.00055256595
3.8605925e-05
-0.00043030711
3.2785529e-05
-6.3566457e-07
5.5936832e-07
-3.1238391e-05
7.0112193e-07
2.5001154e-06
-0.00012947174
7.5075382e-06
6.0672099e-06
-0.00028987925
2.0416811e-05
1.1136444e-05
-0.00048922554
3.7340404e-05
1.6324308e-05
-0.00065896907
5.2511287e-05
2.0111345e-05
-0.00072361655
5.2844968e-05
2.2175023e-05
-0.00066621278
4.0936468e-05
2.1503587e-05
-0.00054770608
1.9909324e-05
-0.00042658183
2.982781e-05
-6.4484099e-07
4.2943057e-11
-3.139407e-05
6.863217e-07
1.0882751e-10
-0.00013006874
7.4993655e-06
1.4672928e-10
-0.00029101824
2.038125e-05
1.8236198e-10
-0.00049057751
3.6989257e-05
-9.5941511e-11
-0.00065963998
5.1848287e-05
-3.8963697e-10
-0.00072298543
5.1574442e-05
-7.0342523e-10
-0.0006639075
3.931364e-05
-7.0691383e-10
-0.0005451409
-4.0303161e-11
-0.00042462565
2.8152456e-05
-6.4492883e-07
-5.5932891e-07
-3.1394066e-05
6.8624499e-07
-2.5000046e-06
-0.00013006872
7.4994427e-06
-6.0670256e-06
-0.00029101821
2.0381066e-05
-1.1136177e-05
-0.00049057747
3.6989279e-05
-1.6324557e-05
-0.00065963991
5.1848212e-05
-2.0112159e-05
-0.00072298539
5.1574322e-05
-2.2176423e-05
-0.00066390747
3.9313662e-05
-2.1504875e-05
-0.00054514088
-1.9909222e-05
-0.00042462566
2.8152321e-05
-6.3572115e-07
-1.0936272e-06
-3.1238391e-05
7.0122547e-07
-4.8980415e-06
-0.00012947174
7.5079174e-06
-1.1889031e-05
-0.00028987925
2.0416358e-05
-2.1804283e-05
-0.00048922556
3.734053e-05
-3.210106e-05
-0.00065896907
5.2511146e-05
-3.9379576e-05
-0.0007236166
5.2844725e-05
-4.3085934e-05
-0.00066621283
4.0936589e-05
-4.1667347e-05
-0.00054770612
-3.8605426e-05
-0.00042658187
2.9827484e-05
-6.0145316e-07
-1.6141198e-06
-3.0854108e-05
7.9460913e-07
-7.2119299e-06
-0.00012807393
7.6819974e-06
-1.7470108e-05
-0.00028731381
2.0755864e-05
-3.1982058e-05
-0.00048622931
3.7991396e-05
-4.7041443e-05
-0.0006573884
5.3707082e-05
-5.7575061e-05
-0.00072479705
5.5077405e-05
-6.2273199e-05
-0.00067053862
4.3804494e-05
-6.0008063e-05
-0.00055256598
-5.5539497e-05
-0.00043030718
3.2785157e-05
-5.3625898e-07
-2.1070415e-06
-3.028304e-05
9.7589229e-07
-9.3765223e-06
-0.0001259075
7.9724609e-06
-2.2645444e-05
-0.00028313272
2.1174925e-05
-4.1383569e-05
-0.00048090988
3.8655367e-05
-6.0797607e-05
-0.00065360965
5.490812e-05
-7.4191574e-05
-0.00072502722
5.7539028e-05
-7.9091019e-05
-0.00067533338
4.7185875e-05
-7.6020863e-05
-0.00055850667
-7.0183781e-05
-0.00043497265
3.6410568e-05
-4.747529e-07
-2.542405e-06
-2.9463111e-05
1.0992797e-06
-1.1274331e-05
-0.00012277565
8.0510713e-06
-2.7166854e-05
-0.00027698164
2.111007e-05
-4.9596592e-05
-0.00047273942
3.8439538e-05
-7.2792033e-05
-0.00064686222
5.4859833e-05
-8.8479124e-05
-0.00072331833
5.9292751e-05
-9.3292738e-05
-0.00067957571
5.0328605e-05
-8.9381268e-05
-0.00056457229
-8.2074924e-05
-0.00043987487
4.0072097e-05
-4.1775745e-07
-2.8920945e-06
-2.8352833e-05
1.1518615e-06
-1.2791104e-05
-0.0001184951
7.8640447e-06
-3.0784123e-05
-0.00026841406
2.0440051e-05
-5.6212339e-05
-0.00046086476
3.7249364e-05
-8.2553194e-05
-0.00063581424
5.3560078e-05
-9.9927114e-05
-0.00071793672
5.9813827e-05
-0.00010439473
-0.0006818908
5.2706688e-05
-9.975836e-05
-0.00056927429
-9.0779009e-05
-0.0004439209
4.3323192e-05
-3.6093855e-07
-3.1332977e-06
-2.6912838e-05
1.1492958e-06
-1.38298e-05
-0.00011288087
7.436507e-06
-3.327159e-05
-0.0002569451
1.9195416e-05
-6.0853981e-05
-0.00044429501
3.5070008e-05
-8.9598508e-05
-0.00061882994
5.0699002e-05
-0.00010856893
-0.00070669349
5.857923e-05
-0.00011266598
-0.00067866521
5.3936586e-05
-0.00010693955
-0.0005707114
-9.5884466e-05
-0.0004456969
4.5846325e-05
-2.9551293e-07
-3.2478861e-06
-2.513067e-05
1.1198931e-06
-1.4300662e-05
-0.00010581996
6.8061666e-06
-3.4397418e-05
-0.00024217175
1.7384561e-05
-6.3095202e-05
-0.00042204551
3.1854228e-05
-9.3368639e-05
-0.00059412951
4.6542796e-05
-0.0001136516
-0.00068703655
5.5549625e-05
-0.0001176224
-0.00066764858
5.3792026e-05
-0.0001104807
-0.00056661116
-9.6945274e-05
-0.00044345244
4.7411922e-05
-2.7857418e-07
-3.180003e-06
-2.301751e-05
8.4994524e-07
-1.4017154e-05
-9.7349629e-05
5.5446075e-06
-3.3814672e-05
-0.00022411981
1.4350631e-05
-6.2425199e-05
-0.00039397637
2.6783684e-05
-9.3240659e-05
-0.00056110821
4.0214915e-05
-0.00011454741
-0.00065778803
4.9994923e-05
-0.0001186961
-0.00064746583
5.1572178e-05
-0.00010988085
-0.0005552898
-9.3770515e-05
-0.00043558286
4.7567068e-05
-2.5760682e-07
-2.9408659e-06
-2.0549142e-05
5.5285959e-07
-1.2993878e-05
-8.7379047e-05
4.1217091e-06
-3.1485875e-05
-0.0002025729
1.0847565e-05
-5.8640124e-05
-0.00035961634
2.0661108e-05
-8.8703439e-05
-0.00051877962
3.2204075e-05
-0.00011035471
-0.00061738944
4.2058381e-05
-0.00011487255
-0.00061649426
4.6722151e-05
-0.00010459328
-0.00053444922
-8.6351168e-05
-0.00041981233
4.5849685e-05
-2.4647144e-07
-2.5297882e-06
-1.783198e-05
1.9617381e-07
-1.1222919e-05
-7.6267035e-05
2.559654e-06
-2.7411462e-05
-0.00017813635
7.0912636e-06
-5.1703301e-05
-0.00031957439
1.3975713e-05
-7.9373866e-05
-0.00046733192
2.2818318e-05
-0.00010001158
-0.00056491081
3.1662051e-05
-0.00010445653
-0.0005723243
3.8043212e-05
-9.3416603e-05
-0.00050036179
-7.4269436e-05
-0.00039286245
4.028536e-05
-2.1896431e-07
-1.4978063e-05
-1.997988e-06
-1.6574343e-08
-6.4501816e-05
-8.9573392e-06
1.3585203e-06
-0.00015189452
-2.205554e-05
3.7322007e-06
-0.00027547605
-4.1975873e-05
7.2170433e-06
-0.00040820881
-6.5088549e-05
1.2272132e-05
-0.00050050263
-8.2489772e-05
1.8335363e-05
-0.00051298318
-8.546906e-05
2.3933002e-05
-0.00045025188
-7.4082163e-05
-0.00035065328
-5.6607387e-05
2.7901209e-05
9.9595938e-08
1.5526335e-06
-1.507672e-05
-1.5535685e-06
1.8969997e-07
6.4268601e-06
-6.4498685e-05
-6.5200903e-06
7.2092915e-07
1.4458547e-05
-0.00015193434
-1.4949956e-05
3.7273709e-06
2.4244587e-05
-0.00027675582
-2.597126e-05
1.1899813e-05
3.0675616e-05
-0.00041167444
-3.5382376e-05
2.630652e-05
2.6065527e-05
-0.00050493664
-3.6038101e-05
4.4658796e-05
5.9763817e-06
-0.00051473618
-2.2575389e-05
6.1672038e-05
-2.241997e-05
-0.0004460687
1.2237216e-06
-4.3732151e-05
-0.00034134348
2.5234443e-05
7.0859943e-05
1.7819099e-07
1.5484895e-06
-1.8006028e-05
5.7060004e-07
6.2587884e-06
-7.6491345e-05
2.1014062e-06
1.3641541e-05
-0.00017885009
7.7428455e-06
2.1727279e-05
-0.00032269843
2.0675179e-05
2.4840417e-05
-0.00047442892
4.1123163e-05
1.5272618e-05
-0.00057456573
6.4207129e-05
-9.9276731e-06
-0.00057950434
8.257806e-05
-4.1001913e-05
-0.00050015097
-6.0973826e-05
-0.00038513642
9.2093575e-05
2.9399153e-07
1.5133253e-06
-2.080796e-05
1.0785151e-06
5.9687103e-06
-8.7873424e-05
3.6486003e-06
1.2579667e-05
-0.00020408098
1.1712686e-05
1.8892743e-05
-0.00036484572
2.8836654e-05
1.8900068e-05
-0.00052996295
5.4252386e-05
5.333537e-06
-0.00063286566
8.0792624e-05
-2.3209029e-05
-0.00062975301
9.8998363e-05
-5.515922e-05
-0.00053849768
-7.282014e-05
-0.00041452708
0.00010555934
4.2059708e-07
1.43697e-06
-2.3361728e-05
1.6346308e-06
5.5370424e-06
-9.8131927e-05
5.2958824e-06
1.1289548e-05
-0.00022649083
1.5740952e-05
1.593071e-05
-0.0004014592
3.6686751e-05
1.3403858e-05
-0.0005765576
6.6335338e-05
-2.8430608e-06
-0.00067926001
9.5119766e-05
-3.2708008e-05
-0.00066675095
0.00011256035
-6.3509556e-05
-0.00056437988
-7.8592992e-05
-0.00043274916
0.00011549946
5.4424976e-07
1.3190326e-06
-2.555692e-05
2.1688759e-06
4.9824021e-06
-0.00010688976
6.8508775e-06
9.8541039e-06
-0.00024541802
1.9481097e-05
1.3055725e-05
-0.00043180036
4.3876615e-05
8.7723216e-06
-0.00061389297
7.7175207e-05
-8.7809418e-06
-0.00071439678
0.00010740029
-3.8265341e-05
-0.00069231607
0.00012391438
-6.6420752e-05
-0.00058021386
-7.8896896e-05
-0.00044278783
0.00012355358
6.4364209e-07
1.1773708e-06
-2.7414778e-05
2.6035004e-06
4.3646366e-06
-0.00011422283
8.1580811e-06
8.3865633e-06
-0.00026103179
2.2727677e-05
1.0419755e-05
-0.00045622808
5.0281273e-05
5.1133206e-06
-0.00064272402
8.6846046e-05
-1.2446719e-05
-0.00073959162
0.0001182667
-4.0041599e-05
-0.00070830923
0.00013386177
-6.4581566e-05
-0.00058814544
-7.4560442e-05
-0.00044676861
0.00013059696
7.3241628e-07
1.0100754e-06
-2.8917913e-05
2.9885054e-06
3.6855334e-06
-0.00012007192
9.3065845e-06
6.9035229e-06
-0.00027324875
2.5558476e-05
8.0584048e-06
-0.0004747549
5.5794476e-05
2.4646252e-06
-0.00066340132
9.50388e-05
-1.3867302e-05
-0.00075575981
0.00012764412
-3.8439666e-05
-0.00071609766
0.00014244836
-5.886238e-05
-0.00058979743
-6.6582824e-05
-0.00044624747
0.00013679735
8.0205368e-07
8.2497688e-07
-3.0080108e-05
3.2903744e-06
2.9714199e-06
-0.00012454977
1.022229e-05
5.4472684e-06
-0.00028245693
2.784388e-05
6.0119155e-06
-0.00048831414
6.0292347e-05
8.0504387e-07
-0.00067765084
0.0001016261
-1.3276808e-05
-0.00076524212
0.00013559562
-3.3946953e-05
-0.00071803752
0.00014978511
-5.015371e-05
-0.00058747007
-5.5895588e-05
-0.00044302007
0.00014224322
8.5492616e-07
6.2799123e-07
-3.0940998e-05
3.5184545e-06
2.240044e-06
-0.00012783962
1.0925076e-05
4.0376092e-06
-0.00028912948
2.962724e-05
4.2637055e-06
-0.00049786363
6.3815253e-05
4.6965213e-09
-0.00068699698
0.00010667714
-1.0991807e-05
-0.00077017377
0.00014204948
-2.7255084e-05
-0.00071739718
0.00015582707
-3.929267e-05
-0.00058314489
-4.3313722e-05
-0.00043858679
0.00014685953
8.945772e-07
4.2198099e-07
-3.1542616e-05
3.6909516e-06
1.4947581e-06
-0.00013012495
1.1462734e-05
2.6591769e-06
-0.0002937071
3.1012858e-05
2.7079279e-06
-0.00050422362
6.6655161e-05
-2.6918283e-07
-0.0006927565
0.00011084539
-7.7481324e-06
-0.00077223066
0.00014704153
-1.8951049e-05
-0.00071503847
0.00016052793
-2.6942032e-05
-0.00057840267
-2.9485925e-05
-0.00043414316
0.00015053627
9.198796e-07
2.091027e-07
-3.1945341e-05
3.8053167e-06
7.3703369e-07
-0.00013159938
1.1827772e-05
1.2951559e-06
-0.00029653761
3.195578e-05
1.2677785e-06
-0.0005079133
6.8556555e-05
-1.9216215e-07
-0.00069564648
0.00011359775
-4.0047476e-06
-0.00077240082
0.00015039483
-9.7130239e-06
-0.00071224763
0.00016373325
-1.3699988e-05
-0.00057428629
-1.492184e-05
-0.00043050002
0.00015308744
9.2550436e-07
1.4489232e-11
-3.2110493e-05
3.8279305e-06
4.1935107e-11
-0.00013223416
1.1912608e-05
7.3654703e-11
-0.00029780774
3.2228128e-05
4.0591198e-11
-0.00050962511
6.9400998e-05
-1.1866077e-10
-0.00069700457
0.00011483856
-4.5668043e-10
-0.00077242701
0.00015200344
-6.5711794e-10
-0.00071078455
0.0001653235
-3.4278506e-10
-0.00057216041
4.8683617e-10
-0.00042861966
0.00015439525
9.2548186e-07
-2.0907014e-07
-3.211049e-05
3.8278946e-06
-7.3693998e-07
-0.00013223414
1.1912607e-05
-1.2949982e-06
-0.00029780771
3.2228193e-05
-1.2676862e-06
-0.00050962506
6.940101e-05
1.9190244e-07
-0.00069700451
0.00011483858
4.0037814e-06
-0.00077242696
0.00015200347
9.7116483e-06
-0.00071078453
0.00016532353
1.369926e-05
-0.00057216041
1.4922813e-05
-0.00042861968
0.00015439529
9.1982038e-07
-4.2194623e-07
-3.1945343e-05
3.8052297e-06
-1.4946583e-06
-0.00013159938
1.1827774e-05
-2.6590106e-06
-0.00029653762
3.1955956e-05
-2.7078203e-06
-0.00050791333
6.8556604e-05
2.6886628e-07
-0.00069564652
0.00011359783
7.7470335e-06
-0.00077240088
0.00015039495
1.894952e-05
-0.0007122477
0.00016373336
2.6941207e-05
-0.00057428638
2.9486902e-05
-0.00043050007
0.00015308756
8.9453257e-07
-6.279607e-07
-3.1542611e-05
3.6909063e-06
-2.2399542e-06
-0.00013012493
1.1462756e-05
-4.0374446e-06
-0.00029370706
3.1013036e-05
-4.2635994e-06
-0.00050422356
6.6655204e-05
-5.1300805e-09
-0.00069275646
0.00011084552
1.0990507e-05
-0.00077223064
0.00014704174
2.7253339e-05
-0.00071503852
0.00016052811
3.9291719e-05
-0.00057840276
4.3314668e-05
-0.00043414324
0.00015053649
8.5496508e-07
-8.2494366e-07
-3.0940996e-05
3.5185369e-06
-2.9713241e-06
-0.0001278396
1.0925096e-05
-5.4470984e-06
-0.00028912946
2.9627312e-05
-6.0118561e-06
-0.00049786362
6.3815324e-05
-8.0564686e-07
-0.000686997
0.00010667735
1.3275314e-05
-0.00077017382
0.00014204979
3.3945034e-05
-0.0007173973
0.00015582733
5.0152693e-05
-0.00058314505
5.5896481e-05
-0.00043858691
0.00014685978
8.0212254e-07
-1.0100371e-06
-3.008011e-05
3.2904577e-06
-3.6854418e-06
-0.00012454978
1.0222225e-05
-6.9034107e-06
-0.00028245695
2.7843832e-05
-8.0584821e-06
-0.00048831418
6.0292528e-05
-2.4653887e-06
-0.00067765095
0.00010162639
1.3865685e-05
-0.00076524226
0.00013559603
3.8437685e-05
-0.00071803772
0.00014978537
5.886143e-05
-0.00058747027
6.6583706e-05
-0.0004430202
0.00014224336
7.3243319e-07
-1.1773527e-06
-2.8917919e-05
2.9885347e-06
-4.3646046e-06
-0.00012007195
9.3065527e-06
-8.386552e-06
-0.00027324879
2.5558471e-05
-1.0419949e-05
-0.00047475498
5.5794818e-05
-5.1141616e-06
-0.0006634015
9.5039165e-05
1.2444998e-05
-0.00075576005
0.00012764461
4.0039654e-05
-0.00071609795
0.00014244854
6.4580843e-05
-0.00058979767
7.4561456e-05
-0.0004462476
0.00013679727
6.4365786e-07
-1.3190291e-06
-2.741479e-05
2.603565e-06
-4.9824119e-06
-0.00011422288
8.1581184e-06
-9.8541821e-06
-0.00026103188
2.2727742e-05
-1.3056082e-05
-0.00045622825
5.0281672e-05
-8.7733585e-06
-0.00064272432
8.6846451e-05
8.779e-06
-0.00073959199
0.0001182672
3.8263449e-05
-0.0007083096
0.00013386183
6.642034e-05
-0.00058814569
7.8898242e-05
-0.00044676872
0.00013059664
5.4423754e-07
-1.4369878e-06
-2.5556925e-05
2.1688458e-06
-5.5371186e-06
-0.00010688978
6.8508707e-06
-1.1289752e-05
-0.00024541806
1.9481222e-05
-1.593125e-05
-0.00043180043
4.3876936e-05
-1.3405124e-05
-0.0006138931
7.7175606e-05
2.8409883e-06
-0.00071439697
0.00010740066
3.2706196e-05
-0.00069231627
0.00012391423
6.350947e-05
-0.00058021402
7.859479e-05
-0.0004427879
0.00012355297
4.2058682e-07
-1.5133398e-06
-2.3361728e-05
1.6346061e-06
-5.9687798e-06
-9.8131928e-05
5.2958834e-06
-1.257989e-05
-0.00022649083
1.5741031e-05
-1.8893348e-05
-0.00040145919
3.6686934e-05
-1.8901373e-05
-0.00057655761
6.6335605e-05
-5.3355095e-06
-0.00067926007
9.5119811e-05
2.3207265e-05
-0.00066675104
0.00011255997
5.5159377e-05
-0.00056437996
7.2822244e-05
-0.00043274919
0.00011549868
2.9398806e-07
-1.548502e-06
-2.0807957e-05
1.0784876e-06
-6.2588608e-06
-8.7873411e-05
3.648576e-06
-1.3641798e-05
-0.00020408095
1.1712758e-05
-2.1727977e-05
-0.00036484566
2.8836701e-05
-2.4841874e-05
-0.00052996288
5.4252195e-05
-1.5274801e-05
-0.00063286565
8.0792297e-05
9.9258997e-06
-0.00062975306
9.8997827e-05
4.1002101e-05
-0.00053849772
6.0975754e-05
-0.00041452701
0.00010555863
1.7819503e-07
-1.5526451e-06
-1.8006029e-05
5.7059051e-07
-6.426922e-06
-7.6491348e-05
2.10137e-06
-1.4458765e-05
-0.0001788501
7.7427989e-06
-2.4245183e-05
-0.00032269845
2.0674946e-05
-3.0676878e-05
-0.00047442895
4.1122649e-05
-2.6067532e-05
-0.00057456579
6.4206487e-05
-5.9778659e-06
-0.00057950439
8.2577581e-05
2.2420033e-05
-0.00050015098
4.3733613e-05
-0.0003851363
9.2093601e-05
9.9588841e-08
-1.5076724e-05
-1.5535675e-06
1.8965636e-07
-6.4498697e-05
-6.5201084e-06
7.2078514e-07
-0.00015193437
-1.4950069e-05
3.7270503e-06
-0.00027675587
-2.5971649e-05
1.1899123e-05
-0.00041167452
-3.5383305e-05
2.6305114e-05
-0.00050493671
-3.6039681e-05
4.4657166e-05
-0.00051473621
-2.2577127e-05
6.1671184e-05
-0.00044606869
1.2223519e-06
-0.00034134341
2.5234286e-05
7.0860711e-05
-5.8004044e-08
4.4428404e-07
-1.5114481e-05
-3.4851968e-07
-7.441479e-08
1.7842981e-06
-6.4850414e-05
-1.4161465e-06
-2.301181e-08
3.6729892e-06
-0.00015268135
-2.9773528e-06
-9.2345305e-08
4.6996593e-06
-0.00027734893
-4.0371708e-06
2.5599148e-07
1.1919312e-06
-0.00041136371
-1.8509354e-06
3.3216911e-06
-1.2066915e-05
-0.00050363828
7.7030083e-06
1.2364953e-05
-3.7299834e-05
-0.00051344086
2.6961379e-05
2.8535911e-05
-6.8063185e-05
-0.00044614271
5.1966056e-05
-9.1926823e-05
-0.00034295916
7.3761194e-05
4.8317269e-05