/*--------------------------------*- C++ -*----------------------------------*\
| =========                 |                                                 |
| \\      /  F ield         | OpenFOAM: The Open Source CFD Toolbox           |
|  \\    /   O peration     | Version:  2406                                  |
|   \\  /    A nd           | Website:  www.openfoam.com                      |
|    \\/     M anipulation  |                                                 |
\*---------------------------------------------------------------------------*/
FoamFile
{
    version     2.0;
    format      ascii;
    arch        "LSB;label=32;scalar=64";
    class       volVectorField;
    location    "4.5";
    object      U;
}
// * * * * * * * * * * * * * * * * * * * * * * * * * * * * * * * * * * * * * //

dimensions      [0 1 -1 0 0 0 0];

internalField   nonuniform List<vector> 
34560
(
(-0.06257832 0.010792466 0.017821132)
(-0.19437182 0.034213367 0.055067101)
(-0.34292606 0.06467002 0.093516942)
(-0.48886727 0.10228232 0.12531632)
(-0.60479006 0.14500245 0.14310712)
(-0.66643299 0.19005205 0.14321405)
(-0.6686189 0.23379033 0.12966291)
(-0.62960829 0.27177195 0.1112075)
(-0.5781842 0.29981487 0.096698939)
(-0.067886317 0.01227898 0.019153236)
(-0.20845532 0.038124032 0.058648175)
(-0.36257221 0.07066382 0.097797402)
(-0.50721399 0.10954898 0.12766901)
(-0.61319004 0.15248961 0.14120421)
(-0.65792415 0.19677616 0.13632615)
(-0.64213681 0.23883107 0.11917317)
(-0.59023618 0.27426163 0.09955335)
(-0.53278376 0.29902101 0.085315057)
(-0.072720038 0.012959662 0.019459059)
(-0.22133874 0.039927123 0.059413525)
(-0.38049111 0.073393331 0.097794653)
(-0.5235436 0.11254876 0.12514805)
(-0.61943392 0.15483888 0.13487204)
(-0.64756341 0.19757805 0.12614691)
(-0.61528843 0.2371139 0.10667362)
(-0.55280436 0.26912413 0.086584132)
(-0.4910391 0.29044961 0.073055666)
(-0.076813973 0.013428883 0.019600506)
(-0.23209278 0.040978993 0.05959606)
(-0.39499323 0.074537808 0.096704631)
(-0.53572827 0.11289989 0.12112012)
(-0.62182534 0.15338 0.12698752)
(-0.63498407 0.19345251 0.11493784)
(-0.58882214 0.22954543 0.093953417)
(-0.51847729 0.25748146 0.07412489)
(-0.45389664 0.27529534 0.061944224)
(-0.080006543 0.013292762 0.019398959)
(-0.24036773 0.040377649 0.05885403)
(-0.40569887 0.073016782 0.094314004)
(-0.5434884 0.10970215 0.11579264)
(-0.62026209 0.14764884 0.11823553)
(-0.62023367 0.18441059 0.10354612)
(-0.56283361 0.21652391 0.081701966)
(-0.48702105 0.24024786 0.062668517)
(-0.42098197 0.25480593 0.052193535)
(-0.08243671 0.012739767 0.018901037)
(-0.24652747 0.038575273 0.057277469)
(-0.41316056 0.069362183 0.090792888)
(-0.54748845 0.10340521 0.1094672)
(-0.61541106 0.13799565 0.10899826)
(-0.60386314 0.17085312 0.092382756)
(-0.5376379 0.19865579 0.070291305)
(-0.45817874 0.21830014 0.052463378)
(-0.39190087 0.22986744 0.043792047)
(-0.08419109 0.011737878 0.018313064)
(-0.25080536 0.035438123 0.055426254)
(-0.417785 0.063410641 0.086919168)
(-0.54837934 0.093918238 0.10295199)
(-0.60816589 0.12443636 0.099969781)
(-0.58674885 0.15291284 0.081932583)
(-0.51378206 0.17627617 0.06000569)
(-0.43205594 0.19212791 0.043607321)
(-0.3664353 0.2010583 0.036684552)
(-0.085362775 0.01025263 0.017663252)
(-0.25354653 0.030914185 0.053430474)
(-0.42026579 0.05515238 0.083001235)
(-0.54723237 0.081321473 0.096717758)
(-0.59987223 0.10716865 0.091693045)
(-0.57034313 0.13090119 0.0726213)
(-0.49215647 0.14986527 0.05109721)
(-0.40909146 0.16227939 0.036186486)
(-0.34463084 0.16896718 0.030851068)
(-0.08609608 0.0083596926 0.017036015)
(-0.25517743 0.025200841 0.051528412)
(-0.42134307 0.044892126 0.079405416)
(-0.54508774 0.066014119 0.09120805)
(-0.59176478 0.086687321 0.084599726)
(-0.55575628 0.10543416 0.064837601)
(-0.47371197 0.12005745 0.04379705)
(-0.38983163 0.12937271 0.030261015)
(-0.32668252 0.13418274 0.026277487)
(-0.086523731 0.0061825612 0.016496582)
(-0.25606398 0.018639163 0.049905015)
(-0.42160335 0.033161351 0.076420985)
(-0.54272762 0.048660452 0.086764122)
(-0.58476707 0.063734036 0.079016178)
(-0.54388379 0.077274874 0.058836243)
(-0.45909162 0.087646199 0.03827517)
(-0.37477692 0.094103243 0.025882462)
(-0.31284644 0.097322282 0.022951021)
(-0.086782805 0.0038202955 0.016124758)
(-0.25651833 0.011502053 0.048773942)
(-0.42147952 0.020414277 0.074330904)
(-0.54069143 0.029856382 0.083697864)
(-0.57952904 0.039008468 0.07520304)
(-0.5354044 0.047173856 0.054803254)
(-0.44886307 0.053350026 0.034631576)
(-0.36438068 0.057134431 0.023058684)
(-0.30339619 0.05897473 0.020846543)
(-0.08685186 0.0012607984 0.015935708)
(-0.25663365 0.0038004061 0.048210802)
(-0.42130808 0.0067746951 0.07330365)
(-0.53959833 0.0099456197 0.082221968)
(-0.57685184 0.013040271 0.073354863)
(-0.53111594 0.015800902 0.052844913)
(-0.44366207 0.017882154 0.032865738)
(-0.3590895 0.01915206 0.021703975)
(-0.29859258 0.01976766 0.019846232)
(-0.08685185 -0.0012607225 0.015935705)
(-0.25663363 -0.0038002739 0.048210803)
(-0.42130809 -0.0067745553 0.073303661)
(-0.53959836 -0.009945482 0.082222006)
(-0.57685184 -0.01304038 0.073354913)
(-0.53111597 -0.015801178 0.052844931)
(-0.4436621 -0.017882587 0.032865772)
(-0.35908953 -0.019152544 0.021704013)
(-0.29859265 -0.019767992 0.019846301)
(-0.086782792 -0.0038202888 0.016124756)
(-0.25651831 -0.011502033 0.048773874)
(-0.42147958 -0.020414214 0.074330851)
(-0.54069152 -0.029856297 0.083697939)
(-0.57952903 -0.03900854 0.075203168)
(-0.53540447 -0.047174057 0.054803304)
(-0.44886315 -0.053350357 0.034631669)
(-0.36438075 -0.057134805 0.023058784)
(-0.30339638 -0.058975005 0.020846715)
(-0.086523744 -0.0061825736 0.016496587)
(-0.25606404 -0.018639204 0.049904898)
(-0.42160349 -0.033161396 0.076420857)
(-0.54272769 -0.048660486 0.086764187)
(-0.58476701 -0.063734077 0.079016286)
(-0.5438839 -0.077274975 0.058836276)
(-0.45909171 -0.087646376 0.038275285)
(-0.37477699 -0.094103441 0.025882595)
(-0.31284667 -0.097322463 0.022951243)
(-0.086096113 -0.0083596903 0.017036016)
(-0.25517753 -0.025200857 0.051528481)
(-0.42134317 -0.044892242 0.079405415)
(-0.54508773 -0.066014237 0.091208082)
(-0.5917647 -0.086687322 0.084599697)
(-0.5557564 -0.10543419 0.064837581)
(-0.47371204 -0.12005749 0.043797158)
(-0.38983168 -0.12937273 0.030261158)
(-0.32668272 -0.13418282 0.026277742)
(-0.085362782 -0.01025264 0.017663242)
(-0.25354654 -0.030914176 0.053430624)
(-0.4202658 -0.055152448 0.083001245)
(-0.54723243 -0.081321558 0.096717601)
(-0.59987222 -0.10716863 0.091692871)
(-0.57034319 -0.13090123 0.07262127)
(-0.49215647 -0.14986528 0.051097299)
(-0.40909146 -0.16227931 0.036186631)
(-0.34463096 -0.16896717 0.030851347)
(-0.0841911 -0.011737861 0.018313059)
(-0.2508054 -0.035438106 0.055426212)
(-0.41778514 -0.063410668 0.086919052)
(-0.54837957 -0.093918365 0.10295186)
(-0.60816584 -0.12443646 0.09996976)
(-0.58674872 -0.15291302 0.081932646)
(-0.51378198 -0.17627626 0.060005749)
(-0.43205589 -0.19212783 0.043607465)
(-0.36643535 -0.20105822 0.0366848)
(-0.082436714 -0.012739736 0.018901025)
(-0.24652748 -0.038575197 0.057277536)
(-0.41316058 -0.069362163 0.090793008)
(-0.54748846 -0.10340536 0.10946727)
(-0.61541086 -0.13799589 0.10899827)
(-0.6038629 -0.17085347 0.09238273)
(-0.53763783 -0.1986561 0.070291277)
(-0.45817866 -0.21830018 0.052463491)
(-0.39190088 -0.22986728 0.043792211)
(-0.080006512 -0.013292716 0.019398933)
(-0.24036762 -0.040377548 0.058854002)
(-0.40569873 -0.073016731 0.094313922)
(-0.54348848 -0.10970228 0.11579247)
(-0.62026235 -0.14764913 0.1182355)
(-0.62023376 -0.18441099 0.10354609)
(-0.56283374 -0.21652438 0.081701899)
(-0.48702099 -0.24024801 0.062668487)
(-0.42098197 -0.25480574 0.052193623)
(-0.076813956 -0.013428848 0.019600482)
(-0.23209273 -0.040978935 0.059595974)
(-0.39499323 -0.074537738 0.096704571)
(-0.53572845 -0.11289996 0.12112009)
(-0.62182561 -0.15338028 0.12698763)
(-0.6349842 -0.19345288 0.11493784)
(-0.5888223 -0.22954582 0.093953289)
(-0.51847723 -0.25748167 0.074124756)
(-0.45389656 -0.27529536 0.061944347)
(-0.072720034 -0.012959685 0.019459077)
(-0.22133873 -0.039927203 0.059413542)
(-0.38049111 -0.073393427 0.097794708)
(-0.52354371 -0.11254894 0.12514815)
(-0.61943418 -0.15483925 0.1348722)
(-0.64756371 -0.19757864 0.1261469)
(-0.61528831 -0.23711433 0.10667353)
(-0.55280417 -0.26912447 0.086584292)
(-0.49103914 -0.29044959 0.073055566)
(-0.067886293 -0.012279006 0.019153256)
(-0.20845524 -0.038124117 0.058648218)
(-0.36257206 -0.0706639 0.097797516)
(-0.50721383 -0.10954906 0.12766919)
(-0.61318993 -0.15248977 0.14120445)
(-0.65792419 -0.19677662 0.13632628)
(-0.64213671 -0.23883163 0.11917332)
(-0.59023593 -0.274262 0.099553108)
(-0.53278392 -0.29902108 0.085314572)
(-0.062578317 -0.010792483 0.01782115)
(-0.19437182 -0.03421343 0.055067157)
(-0.34292608 -0.064670103 0.093517105)
(-0.48886738 -0.10228247 0.12531662)
(-0.60479022 -0.14500263 0.14310755)
(-0.6664332 -0.19005234 0.14321432)
(-0.66861912 -0.23379074 0.12966291)
(-0.62960837 -0.27177202 0.11120703)
(-0.57818409 -0.29981492 0.09669855)
(-0.099118997 0.0014826025 0.0013720888)
(-0.30917825 0.0047915813 0.0043018571)
(-0.54858373 0.0089554724 0.0073843007)
(-0.78833097 0.013581836 0.0099400258)
(-0.98586543 0.017895794 0.011015416)
(-1.1029788 0.02103977 0.0098313167)
(-1.1303141 0.022666793 0.0064242702)
(-1.0935246 0.023274836 0.0016932448)
(-1.0314589 0.023435976 -0.0033845259)
(-0.10849514 0.0017990724 0.0014795629)
(-0.33478296 0.005723831 0.0045838866)
(-0.58640922 0.01048175 0.0076967912)
(-0.8285634 0.015496536 0.0099957008)
(-1.0145847 0.019837808 0.010461729)
(-1.1082208 0.022641296 0.0084839565)
(-1.1089257 0.023762532 0.0044150009)
(-1.0516888 0.023879342 -0.00046876779)
(-0.97898906 0.02367331 -0.0052340726)
(-0.11704328 0.001944175 0.0013963335)
(-0.35801483 0.006170631 0.0043146864)
(-0.62038235 0.01122625 0.0071243462)
(-0.8639038 0.016398252 0.0089684325)
(-1.038438 0.020642656 0.0088561632)
(-1.1105689 0.023121357 0.0063558194)
(-1.08864 0.023865816 0.0020889685)
(-1.0155018 0.023699164 -0.0022917446)
(-0.93617138 0.02318869 -0.0059609496)
(-0.12456637 0.0020186926 0.001268326)
(-0.37812603 0.0063808652 0.0038944933)
(-0.64909884 0.011526301 0.0062836792)
(-0.89252184 0.016648858 0.0075804235)
(-1.0557456 0.020656477 0.0068772629)
(-1.1089209 0.022779828 0.0039405072)
(-1.0684424 0.023211858 -0.00031044946)
(-0.98348585 0.022829476 -0.003907314)
(-0.90013851 0.022088074 -0.0062445005)
(-0.13074877 0.0019798094 0.0010889359)
(-0.39443672 0.0062622888 0.003328498)
(-0.67183526 0.011285477 0.0052282326)
(-0.91398166 0.016198233 0.0059702478)
(-1.0664855 0.019905108 0.0047395867)
(-1.1032288 0.021711072 0.0015014406)
(-1.047861 0.021922055 -0.0026043672)
(-0.95458353 0.02135981 -0.0053494651)
(-0.86941052 0.020504219 -0.0064391718)
(-0.13579952 0.0018599214 0.00087918704)
(-0.40750071 0.0058962889 0.0026729679)
(-0.68943511 0.010613804 0.0040528753)
(-0.92930858 0.015169253 0.0042711723)
(-1.0716319 0.01852999 0.0026193096)
(-1.0941369 0.020084103 -0.00081133032)
(-1.0268391 0.020195509 -0.0046735193)
(-0.92814787 0.019484187 -0.0066021368)
(-0.84288413 0.018594363 -0.0066221203)
(-0.13985156 0.001676418 0.00067801042)
(-0.41771678 0.0053232976 0.002039263)
(-0.70260529 0.0095747782 0.0029212475)
(-0.93952786 0.013648307 0.0026646169)
(-1.0724388 0.016606936 0.00067200266)
(-1.0827286 0.01798406 -0.0029150512)
(-1.0059989 0.018065095 -0.0064659674)
(-0.90412264 0.017252762 -0.0076365564)
(-0.81994008 0.016383059 -0.0067922294)
(-0.14292027 0.001434421 0.00049263006)
(-0.42529553 0.0045679289 0.0014557449)
(-0.7119623 0.0082218746 0.0018889463)
(-0.94579997 0.011707349 0.0012201614)
(-1.0704919 0.014223089 -0.001050144)
(-1.0706965 0.015418027 -0.0046995393)
(-0.98667988 0.015515308 -0.0079112471)
(-0.88296063 0.014684486 -0.0084073518)
(-0.80042613 0.013886977 -0.0069052802)
(-0.14514578 0.0011474945 0.00033414054)
(-0.43068824 0.003667998 0.00095739684)
(-0.71833221 0.00661453 0.0010165987)
(-0.94932362 0.0094204726 1.9237546e-05)
(-1.0672443 0.011445676 -0.0024548586)
(-1.0594606 0.012432058 -0.006117528)
(-0.96992953 0.012551025 -0.0090105215)
(-0.86520802 0.011804559 -0.0089172562)
(-0.78442872 0.011128291 -0.0069307044)
(-0.14666916 0.00083404003 0.00021012789)
(-0.43432468 0.0026758897 0.00056729923)
(-0.72244514 0.0048366927 0.00034083136)
(-0.95108102 0.0068962292 -0.00089749364)
(-1.0638067 0.0083750776 -0.0035000265)
(-1.0500807 0.0090337989 -0.0070699187)
(-0.95657982 0.0092422893 -0.0097531065)
(-0.85136203 0.0086668605 -0.0091944727)
(-0.7721387 0.008150917 -0.0068712878)
(-0.14776699 0.00051248952 0.00012513571)
(-0.43681835 0.0016438885 0.00029708899)
(-0.72506669 0.002969768 -0.00013322821)
(-0.9518545 0.0042302797 -0.0015405626)
(-1.0609342 0.005098096 -0.0041757489)
(-1.0431979 0.0055482362 -0.0077294743)
(-0.94718708 0.0056880608 -0.010199204)
(-0.8418129 0.0053222249 -0.0093113248)
(-0.76376675 0.0049936433 -0.0067720465)
(-0.14815773 0.00017270979 8.3736706e-05)
(-0.43775178 0.00055303984 0.00016423329)
(-0.72606222 0.00099901897 -0.00037008575)
(-0.95203281 0.0014220364 -0.0018648646)
(-1.0593945 0.0017097563 -0.0045241614)
(-1.0396817 0.0018584582 -0.008046147)
(-0.94244495 0.0019081298 -0.010406071)
(-0.83699445 0.0017879277 -0.009347869)
(-0.75953861 0.0016800328 -0.0067003841)
(-0.14815773 -0.00017267287 8.3735143e-05)
(-0.43775177 -0.0005529715 0.00016424408)
(-0.72606222 -0.00099894752 -0.00037008525)
(-0.95203283 -0.0014219608 -0.0018648598)
(-1.0593945 -0.0017097989 -0.0045241475)
(-1.0396818 -0.0018585883 -0.0080461444)
(-0.94244497 -0.0019083364 -0.010406054)
(-0.83699446 -0.0017881186 -0.0093478585)
(-0.75953863 -0.0016800246 -0.0067003712)
(-0.14776699 -0.00051247897 0.00012513275)
(-0.43681834 -0.0016438623 0.00029708169)
(-0.72506671 -0.0029697275 -0.00013326872)
(-0.95185453 -0.0042302294 -0.0015405706)
(-1.0609342 -0.0050981444 -0.0041757189)
(-1.0431979 -0.0055483709 -0.0077294693)
(-0.94718713 -0.005688262 -0.010199162)
(-0.84181293 -0.0053223848 -0.0093113049)
(-0.76376681 -0.0049935944 -0.0067720257)
(-0.14666916 -0.00083403596 0.00021012526)
(-0.43432469 -0.0026758826 0.00056724548)
(-0.72244518 -0.0048366813 0.00034072918)
(-0.95108105 -0.0068962213 -0.00089752601)
(-1.0638067 -0.0083751338 -0.0035000039)
(-1.0500808 -0.0090339392 -0.0070699218)
(-0.9565799 -0.0092424768 -0.0097530607)
(-0.85136208 -0.0086669713 -0.009194469)
(-0.77213879 -0.0081508192 -0.0068712891)
(-0.14514579 -0.001147475 0.00033413831)
(-0.43068828 -0.0036679692 0.00095736897)
(-0.71833226 -0.0066145261 0.0010165113)
(-0.94932364 -0.0094204989 1.9184516e-05)
(-1.0672443 -0.011445732 -0.0024548829)
(-1.0594608 -0.012432204 -0.0061175509)
(-0.96992964 -0.012551193 -0.0090104945)
(-0.86520811 -0.011804623 -0.0089172838)
(-0.78442883 -0.011128171 -0.0069307294)
(-0.14292028 -0.0014343934 0.00049262349)
(-0.42529555 -0.0045678715 0.001455757)
(-0.71196231 -0.0082218415 0.0018888835)
(-0.94580002 -0.011707373 0.0012200524)
(-1.070492 -0.014223146 -0.001050225)
(-1.0706967 -0.015418198 -0.0046995662)
(-0.98668002 -0.015515474 -0.0079112481)
(-0.88296076 -0.014684532 -0.0084073942)
(-0.80042623 -0.013886874 -0.0069052985)
(-0.13985157 -0.0016763866 0.00067799822)
(-0.41771681 -0.0053232314 0.0020392481)
(-0.70260538 -0.009574719 0.0029211807)
(-0.93952804 -0.01364834 0.0026645111)
(-1.072439 -0.016607041 0.00067195262)
(-1.0827287 -0.017984288 -0.0029150479)
(-1.005999 -0.018065294 -0.0064659905)
(-0.90412278 -0.017252833 -0.007636575)
(-0.81994016 -0.016382975 -0.0067922129)
(-0.13579954 -0.0018599032 0.00087917801)
(-0.40750076 -0.0058962382 0.0026730014)
(-0.68943518 -0.010613755 0.004052929)
(-0.92930867 -0.015169302 0.0042711759)
(-1.071632 -0.018530152 0.0026193011)
(-1.094137 -0.020084373 -0.00081133404)
(-1.0268392 -0.020195767 -0.0046735493)
(-0.92814799 -0.019484305 -0.0066021064)
(-0.84288419 -0.018594245 -0.0066220728)
(-0.13074877 -0.0019797921 0.0010889245)
(-0.39443672 -0.0062622499 0.0033285047)
(-0.67183525 -0.011285449 0.0052282253)
(-0.91398171 -0.016198291 0.0059701816)
(-1.0664857 -0.019905301 0.004739565)
(-1.103229 -0.021711338 0.0015014449)
(-1.0478611 -0.021922345 -0.0026043461)
(-0.95458361 -0.021359959 -0.0053494131)
(-0.86941061 -0.02050405 -0.0064391195)
(-0.12456638 -0.0020186862 0.0012683217)
(-0.37812608 -0.0063808584 0.0038944975)
(-0.64909893 -0.011526293 0.0062837047)
(-0.89252204 -0.016648899 0.0075804682)
(-1.0557459 -0.020656669 0.0068773205)
(-1.1089211 -0.022780105 0.0039405492)
(-1.0684426 -0.023212097 -0.00031037656)
(-0.9834859 -0.022829591 -0.0039072738)
(-0.90013855 -0.022088006 -0.0062444756)
(-0.11704329 -0.0019441895 0.001396342)
(-0.35801486 -0.0061706881 0.0043147036)
(-0.62038241 -0.011226338 0.0071243838)
(-0.8639039 -0.016398371 0.0089685013)
(-1.0384381 -0.020642872 0.0088562592)
(-1.1105692 -0.023121712 0.0063559198)
(-1.0886401 -0.023866065 0.002089096)
(-1.0155018 -0.023699206 -0.0022915828)
(-0.93617134 -0.023188589 -0.005960847)
(-0.10849514 -0.0017990868 0.0014795752)
(-0.33478296 -0.0057238884 0.0045839231)
(-0.58640922 -0.010481854 0.007696863)
(-0.82856342 -0.015496671 0.0099958527)
(-1.0145847 -0.019837986 0.010461978)
(-1.1082208 -0.022641627 0.0084841657)
(-1.1089256 -0.023762876 0.004415189)
(-1.0516886 -0.023879449 -0.00046857165)
(-0.97898889 -0.023673136 -0.0052340388)
(-0.099118997 -0.0014826233 0.0013721073)
(-0.30917825 -0.0047916367 0.0043019252)
(-0.54858374 -0.0089555728 0.0073844262)
(-0.78833102 -0.013581989 0.009940234)
(-0.98586552 -0.017895977 0.011015725)
(-1.1029789 -0.021039975 0.0098316181)
(-1.1303142 -0.022666974 0.0064245052)
(-1.0935248 -0.023274944 0.001693459)
(-1.0314588 -0.023435984 -0.0033844638)
(-0.082489758 0.0010342405 0.00092778116)
(-0.25854048 0.0031175726 0.0027387637)
(-0.46122923 0.0053525338 0.0044221771)
(-0.66646197 0.007383287 0.0053205417)
(-0.83619318 0.00878048 0.0045150951)
(-0.93307393 0.009135599 0.0013230825)
(-0.94439901 0.0082049709 -0.0040349185)
(-0.89247473 0.0061041487 -0.0099699584)
(-0.8166902 0.0035638112 -0.014505928)
(-0.089593775 0.0010158342 0.00079812698)
(-0.27813348 0.0029764443 0.0023025447)
(-0.49047852 0.0049501026 0.0035393762)
(-0.6976266 0.0065443057 0.0037779229)
(-0.85718906 0.0073523881 0.0020184403)
(-0.93210817 0.0070400864 -0.0023578304)
(-0.91676389 0.005489034 -0.008825188)
(-0.84303089 0.0030250388 -0.015331284)
(-0.75520732 0.00061270735 -0.019715383)
(-0.096025349 0.00098465353 0.00066146539)
(-0.29586017 0.0028162998 0.0018590676)
(-0.51681388 0.0045505707 0.0026842233)
(-0.72527683 0.0057811486 0.0023749621)
(-0.87496924 0.0061596655 -0.00011757604)
(-0.92977931 0.0054650893 -0.0053577615)
(-0.89130501 0.0036957925 -0.01259938)
(-0.80012977 0.0012530079 -0.019419136)
(-0.70458791 -0.00091456826 -0.023437434)
(-0.1016102 0.00093940284 0.00053533704)
(-0.31105563 0.0026246892 0.0014548001)
(-0.53896218 0.0041216317 0.0019115402)
(-0.74768392 0.0050274392 0.0011211335)
(-0.88780397 0.0050598173 -0.0019982626)
(-0.92473174 0.0041121726 -0.0079445513)
(-0.8668568 0.0022743395 -0.015738089)
(-0.7623553 -2.0352909e-05 -0.022688729)
(-0.66154668 -0.0019545145 -0.026338596)
(-0.1060714 0.00087069369 0.00041603933)
(-0.32307259 0.0023846691 0.0010859094)
(-0.55611811 0.0036504767 0.0012316289)
(-0.76412995 0.0042854907 5.1310257e-05)
(-0.89519101 0.0040709208 -0.0035758272)
(-0.9165333 0.0029833469 -0.010094746)
(-0.84274938 0.0011753072 -0.018277947)
(-0.72843777 -0.00086558021 -0.025230036)
(-0.62446289 -0.0025271623 -0.028545642)
(-0.10959949 0.00078739778 0.00030332876)
(-0.33238154 0.0021198532 0.00074914013)
(-0.56893047 0.0031699663 0.00063926946)
(-0.77531058 0.0035883279 -0.00083923473)
(-0.89775507 0.0032087903 -0.0048454667)
(-0.90549596 0.0020746589 -0.011832816)
(-0.8188083 0.00038843188 -0.020282731)
(-0.69756049 -0.0013232532 -0.027177258)
(-0.59217763 -0.0027021495 -0.030208565)
(-0.11232531 0.00068981315 0.00020560977)
(-0.33935453 0.0018290646 0.00046337027)
(-0.57801275 0.0026777841 0.00014909904)
(-0.78205732 0.0029245071 -0.0015566127)
(-0.89644822 0.0024584079 -0.0058502945)
(-0.8924468 0.0013709183 -0.013169713)
(-0.79550836 -0.00012166341 -0.021827607)
(-0.66954068 -0.001477803 -0.02866834)
(-0.56405199 -0.0025850169 -0.031462975)
(-0.11428503 0.00057897865 0.00012236563)
(-0.34422376 0.0015159259 0.00022623933)
(-0.58395628 0.0021794316 -0.00024356169)
(-0.78541653 0.0023065043 -0.0021072565)
(-0.8926661 0.0018304405 -0.0065994662)
(-0.87883961 0.0008593007 -0.014141988)
(-0.77387829 -0.00039680302 -0.022969191)
(-0.64478675 -0.0014121473 -0.029801832)
(-0.53997922 -0.0022698458 -0.032408954)
(-0.11561982 0.0004591394 5.4978872e-05)
(-0.34743349 0.0011902887 3.8128275e-05)
(-0.58756102 0.0016863029 -0.00054566433)
(-0.78654347 0.0017404448 -0.0025155154)
(-0.88780429 0.0013162511 -0.0071347513)
(-0.86609072 0.00051297995 -0.014823623)
(-0.755049 -0.00048396629 -0.023771999)
(-0.62391524 -0.0012007663 -0.030642082)
(-0.52013348 -0.0018328407 -0.033113429)
(-0.11647378 0.00033295143 3.31347e-06)
(-0.34941826 0.00085739381 -0.00010424024)
(-0.58956136 0.0012012023 -0.0007694901)
(-0.78642709 0.0012167418 -0.0028072885)
(-0.88300701 0.00089967092 -0.0075132422)
(-0.85532419 0.00039125489 -0.015373146)
(-0.73991586 -0.00041995567 -0.024332084)
(-0.6075388 -0.00090066036 -0.031240421)
(-0.50481559 -0.0013324085 -0.03362067)
(-0.11710617 0.00020063301 -3.1676996e-05)
(-0.35078064 0.0005142923 -0.00019994319)
(-0.59074718 0.00071474692 -0.00091562988)
(-0.78590985 0.00071670914 -0.002991687)
(-0.87910289 0.00055874103 -0.0077954982)
(-0.84738794 0.00020818557 -0.01569148)
(-0.72919336 -0.00028089906 -0.024693181)
(-0.59618847 -0.00055544531 -0.03162634)
(-0.49435066 -0.00080622444 -0.033952295)
(-0.11728197 6.5761496e-05 -4.7811342e-05)
(-0.35117308 0.000167509 -0.00024224892)
(-0.59103453 0.00023046756 -0.00097522698)
(-0.78543382 0.00022668284 -0.0030613674)
(-0.8770396 0.00017454235 -0.0078999846)
(-0.84335743 6.061412e-05 -0.015833135)
(-0.72377602 -0.00010051336 -0.024857964)
(-0.59045388 -0.00018903833 -0.031811086)
(-0.48906569 -0.00026987526 -0.034117119)
(-0.11728197 -6.574114e-05 -4.7811857e-05)
(-0.3511731 -0.00016746722 -0.00024224505)
(-0.59103455 -0.00023041435 -0.00097522651)
(-0.78543383 -0.00022665773 -0.0030613728)
(-0.87703961 -0.00017458922 -0.0078999903)
(-0.84335745 -6.0768067e-05 -0.015833135)
(-0.72377604 0.00010031303 -0.024857966)
(-0.5904539 0.00018893289 -0.031811092)
(-0.48906571 0.00027001514 -0.03411713)
(-0.11710617 -0.00020061326 -3.1678606e-05)
(-0.35078067 -0.00051425054 -0.00019993395)
(-0.59074721 -0.00071469561 -0.0009156284)
(-0.78590989 -0.00071668638 -0.0029917017)
(-0.87910293 -0.00055879924 -0.0077955123)
(-0.847388 -0.00020835672 -0.015691479)
(-0.72919341 0.00028068133 -0.024693186)
(-0.59618854 0.0005553285 -0.031626359)
(-0.49435073 0.00080636393 -0.033952333)
(-0.11647378 -0.00033293215 3.3106787e-06)
(-0.34941827 -0.00085735107 -0.00010424169)
(-0.58956137 -0.001201148 -0.0007694981)
(-0.78642713 -0.0012167187 -0.0028073126)
(-0.88300708 -0.00089974921 -0.007513256)
(-0.85532429 -0.00039145486 -0.015373139)
(-0.73991596 0.00041970873 -0.024332089)
(-0.60753892 0.00090052531 -0.031240451)
(-0.5048157 0.0013325442 -0.033620737)
(-0.11561982 -0.0004591171 5.4975015e-05)
(-0.34743349 -0.0011902439 3.8097124e-05)
(-0.58756101 -0.0016862425 -0.00054569249)
(-0.78654352 -0.0017404242 -0.0025155411)
(-0.8878044 -0.0013163563 -0.0071347531)
(-0.86609084 -0.00051321365 -0.014823609)
(-0.75504917 0.00048368726 -0.023772002)
(-0.62391544 0.0012006139 -0.03064212)
(-0.52013364 0.0018329693 -0.033113519)
(-0.11428503 -0.00057895507 0.00012236144)
(-0.34422377 -0.0015158872 0.00022620074)
(-0.5839563 -0.0021793839 -0.00024358729)
(-0.7854166 -0.0023065057 -0.0021072616)
(-0.89266626 -0.0018305794 -0.0065994534)
(-0.87883978 -0.0008595662 -0.014141969)
(-0.77387854 0.00039649841 -0.022969189)
(-0.644787 0.0014119881 -0.029801868)
(-0.53997939 0.0022699702 -0.032409043)
(-0.11232532 -0.00068979638 0.00020560492)
(-0.33935455 -0.0018290408 0.00046335178)
(-0.57801277 -0.0026777665 0.00014908596)
(-0.78205738 -0.0029245451 -0.0015566078)
(-0.89644843 -0.0024585804 -0.0058502813)
(-0.89244705 -0.0013712149 -0.013169689)
(-0.7955087 0.00012134448 -0.021827591)
(-0.66954096 0.0014776547 -0.028668357)
(-0.56405215 0.0025851489 -0.031463035)
(-0.1095995 -0.00078738949 0.00030332582)
(-0.33238157 -0.0021198505 0.00074912624)
(-0.56893051 -0.0031699814 0.00063925745)
(-0.77531065 -0.0035884055 -0.00083922341)
(-0.89775531 -0.0032089959 -0.0048454384)
(-0.90549627 -0.0020749919 -0.011832765)
(-0.81880865 -0.00038875672 -0.020282689)
(-0.69756076 0.0013231292 -0.02717723)
(-0.59217777 0.0027023062 -0.03020857)
(-0.10607142 -0.00087069776 0.00041604254)
(-0.32307265 -0.0023846896 0.001085923)
(-0.5561182 -0.0036505287 0.0012316464)
(-0.76413005 -0.0042856123 5.1351966e-05)
(-0.8951912 -0.0040711707 -0.0035757607)
(-0.91653353 -0.0029837162 -0.010094649)
(-0.8427496 -0.0011756393 -0.018277863)
(-0.72843797 0.00086546874 -0.025229929)
(-0.62446304 0.0025273517 -0.02854556)
(-0.10161023 -0.00093941683 0.00053534618)
(-0.3110557 -0.0026247308 0.001454833)
(-0.53896229 -0.0041217234 0.0019115761)
(-0.74768402 -0.0050276013 0.0011212087)
(-0.88780406 -0.0050600978 -0.0019981438)
(-0.9247319 -0.0041125495 -0.0079444028)
(-0.86685696 -0.0022746843 -0.015737919)
(-0.76235547 2.0220366e-05 -0.022688502)
(-0.66154681 0.0019546941 -0.026338398)
(-0.096025368 -0.00098466422 0.0006614731)
(-0.29586022 -0.0028163365 0.0018591003)
(-0.51681394 -0.0045506669 0.0026842741)
(-0.72527687 -0.0057813274 0.0023750704)
(-0.87496927 -0.006159965 -0.00011740719)
(-0.92977947 -0.005465467 -0.0053575078)
(-0.89130525 -0.0036961356 -0.012599043)
(-0.80012998 -0.0012531622 -0.019418751)
(-0.70458787 0.00091465519 -0.023437089)
(-0.089593789 -0.0010158431 0.00079813287)
(-0.27813352 -0.0029764771 0.0023025762)
(-0.49047858 -0.0049501929 0.00353944)
(-0.69762669 -0.0065444769 0.0037780584)
(-0.85718915 -0.0073526699 0.002018676)
(-0.9321083 -0.007040436 -0.0023574534)
(-0.91676402 -0.0054893507 -0.0088246721)
(-0.84303101 -0.003025182 -0.015330691)
(-0.75520712 -0.00061268758 -0.019714925)
(-0.08248977 -0.0010342449 0.00092778652)
(-0.25854051 -0.0031175894 0.00273879)
(-0.46122928 -0.0053525861 0.0044222367)
(-0.66646204 -0.0073833886 0.0053206801)
(-0.83619325 -0.0087806552 0.0045153543)
(-0.93307396 -0.0091358049 0.0013235357)
(-0.94439905 -0.0082051604 -0.0040342727)
(-0.89247482 -0.0061042867 -0.0099692013)
(-0.8166901 -0.0035637038 -0.014505563)
(-0.091391806 0.000266804 0.00024600399)
(-0.28557799 0.00078088291 0.00070521716)
(-0.50781194 0.001244049 0.0010414494)
(-0.73129072 0.0013313219 0.0010288095)
(-0.91521672 0.00053882972 0.00038953064)
(-1.0210868 -0.0016193054 -0.0011253619)
(-1.0368636 -0.0052186316 -0.0036090705)
(-0.98672236 -0.0096451358 -0.0067958477)
(-0.91108516 -0.013984838 -0.010227439)
(-0.099527161 0.00031744671 0.00025868217)
(-0.30801368 0.00090387753 0.00072292866)
(-0.54143607 0.0013820975 0.00099931451)
(-0.76778152 0.0013463889 0.00081154759)
(-0.94192198 0.00020853338 -0.00016105404)
(-1.0259325 -0.0025326274 -0.0021676723)
(-1.0150336 -0.0068254545 -0.0052235301)
(-0.94271645 -0.011787011 -0.0089096118)
(-0.85387937 -0.016223132 -0.012693867)
(-0.10694273 0.00035612893 0.00024979172)
(-0.32847218 0.0009913588 0.00067350322)
(-0.57202388 0.0014665645 0.00084109107)
(-0.8007412 0.0013184399 0.00045156432)
(-0.96568749 -8.2399353e-05 -0.00081821629)
(-1.0300882 -0.0032023862 -0.0031914829)
(-0.99634492 -0.0078481956 -0.0066045536)
(-0.90604841 -0.012934174 -0.010465099)
(-0.80810169 -0.017226147 -0.01399717)
(-0.11343484 0.00036190604 0.00021685769)
(-0.34619635 0.00098419216 0.00055431349)
(-0.59815147 0.0014002834 0.00056852311)
(-0.82824362 0.0011142012 -5.2641013e-05)
(-0.98450798 -0.00051124713 -0.0016148066)
(-1.0317516 -0.0038839925 -0.0042902781)
(-0.97894473 -0.0086839737 -0.0079197444)
(-0.87442791 -0.013700506 -0.011718128)
(-0.76978972 -0.01773221 -0.014768699)
(-0.11869964 0.00033930343 0.00017246972)
(-0.36047574 0.00089733494 0.00040640715)
(-0.61892719 0.0012110667 0.00026328615)
(-0.84946049 0.00077741995 -0.00056785171)
(-0.99771121 -0.0010183197 -0.0023659976)
(-1.0302054 -0.0045136603 -0.0052486332)
(-0.96174427 -0.0092831311 -0.0089547689)
(-0.84626073 -0.014048781 -0.012546251)
(-0.73706608 -0.017657342 -0.015045064)
(-0.12294104 0.00029769003 0.00012398716)
(-0.37180764 0.00076003033 0.00025264)
(-0.63501963 0.00095085215 -3.0599017e-05)
(-0.8650599 0.00038541812 -0.0010220391)
(-1.0057687 -0.0014990572 -0.0029647786)
(-1.0255235 -0.0049596887 -0.0059284178)
(-0.94428238 -0.0094996359 -0.0095751338)
(-0.82055333 -0.013851451 -0.012905109)
(-0.70861961 -0.016947932 -0.014893083)
(-0.12629188 0.00024466553 8.0720569e-05)
(-0.38056602 0.0005960698 0.00011975682)
(-0.6470326 0.00066472347 -0.0002719417)
(-0.8758204 8.3373681e-06 -0.0013674677)
(-1.0095135 -0.0018599903 -0.003366446)
(-1.0183485 -0.0051285621 -0.0063113204)
(-0.92672194 -0.0092608832 -0.0098455645)
(-0.79696028 -0.013065834 -0.01286749)
(-0.68374825 -0.0156149 -0.014402608)
(-0.12877606 0.0001895982 4.6214634e-05)
(-0.38695073 0.00043576756 1.8152636e-05)
(-0.65550259 0.00040852532 -0.00044532723)
(-0.88270503 -0.00027533961 -0.0015906673)
(-1.0102303 -0.0020167925 -0.0035790302)
(-1.0099017 -0.0049327037 -0.0064471034)
(-0.9099982 -0.0084916914 -0.0097952947)
(-0.77591048 -0.011676403 -0.012518584)
(-0.66237544 -0.013692602 -0.013697144)
(-0.13053313 0.00013750399 2.0948963e-05)
(-0.39139514 0.00029501612 -5.2521501e-05)
(-0.6611968 0.00021016795 -0.00055571949)
(-0.88680176 -0.0004294075 -0.0017070136)
(-1.0091682 -0.0019286285 -0.0036534713)
(-1.0015166 -0.0043484674 -0.006397517)
(-0.89515664 -0.0072169101 -0.0095388299)
(-0.75803162 -0.0097331599 -0.011992758)
(-0.6447058 -0.011245653 -0.012922602)
(-0.13170745 9.138354e-05 3.9394493e-06)
(-0.39432822 0.00018159269 -9.6911413e-05)