/*--------------------------------*- C++ -*----------------------------------*\
  =========                 |
  \\      /  F ield         | OpenFOAM: The Open Source CFD Toolbox
   \\    /   O peration     | Website:  https://openfoam.org
    \\  /    A nd           | Version:  10
     \\/     M anipulation  |
\*---------------------------------------------------------------------------*/
FoamFile
{
    format      ascii;
    class       volScalarField;
    location    "0.8";
    object      T;
}
// * * * * * * * * * * * * * * * * * * * * * * * * * * * * * * * * * * * * * //

dimensions      [0 0 -1 0 0 0 0];

internalField   nonuniform List<scalar> 
100
(
0.0254044
0.0753127
0.122553
0.165452
0.202489
0.232354
0.253987
0.266622
0.269812
0.263444
0.247744
0.223267
0.19088
0.151732
0.107208
0.0588864
0.00847876
-0.0422292
-0.0914412
-0.137414
-0.178518
-0.213299
-0.240523
-0.259227
-0.268748
-0.268748
-0.259227
-0.240523
-0.213299
-0.178518
-0.137413
-0.0914404
-0.0422283
0.00847965
0.0588872
0.107209
0.151732
0.190881
0.223267
0.247744
0.263444
0.269812
0.266621
0.253986
0.232352
0.202488
0.165451
0.122552
0.0753119
0.0254038
-0.0254043
-0.0753124
-0.122552
-0.165451
-0.202489
-0.232353
-0.253986
-0.266621
-0.269812
-0.263444
-0.247743
-0.223266
-0.19088
-0.151732
-0.107208
-0.0588867
-0.00847911
0.0422289
0.0914409
0.137414
0.178518
0.213299
0.240523
0.259227
0.268748
0.268748
0.259227
0.240523
0.213299
0.178518
0.137413
0.0914406
0.0422286
-0.00847944
-0.058887
-0.107209
-0.151732
-0.190881
-0.223267
-0.247744
-0.263444
-0.269812
-0.266622
-0.253986
-0.232353
-0.202489
-0.165451
-0.122553
-0.0753122
-0.0254039
)
;

boundaryField
{
    inlet
    {
        type            cyclic;
    }
    outlet
    {
        type            cyclic;
    }
    bottom
    {
        type            slip;
    }
    top
    {
        type            slip;
    }
    frontAndBack
    {
        type            empty;
    }
}


// ************************************************************************* //
