/*--------------------------------*- C++ -*----------------------------------*\
  =========                 |
  \\      /  F ield         | OpenFOAM: The Open Source CFD Toolbox
   \\    /   O peration     | Website:  https://openfoam.org
    \\  /    A nd           | Version:  10
     \\/     M anipulation  |
\*---------------------------------------------------------------------------*/
FoamFile
{
    format      ascii;
    class       volScalarField;
    location    "0.8";
    object      T_0;
}
// * * * * * * * * * * * * * * * * * * * * * * * * * * * * * * * * * * * * * //

dimensions      [0 0 -1 0 0 0 0];

internalField   nonuniform List<scalar> 
100
(
0.0242313
0.0718349
0.116894
0.157812
0.193139
0.221624
0.242258
0.25431
0.257353
0.251279
0.236304
0.212957
0.182066
0.144725
0.102257
0.0561671
0.00808722
-0.0402792
-0.0872186
-0.131068
-0.170275
-0.203449
-0.229417
-0.247257
-0.256338
-0.256337
-0.247256
-0.229416
-0.203449
-0.170274
-0.131068
-0.0872179
-0.0402783
0.00808808
0.056168
0.102258
0.144726
0.182066
0.212957
0.236303
0.251279
0.257353
0.254309
0.242257
0.221623
0.193138
0.157811
0.116893
0.0718342
0.0242307
-0.0242312
-0.0718346
-0.116893
-0.157811
-0.193138
-0.221623
-0.242257
-0.254309
-0.257352
-0.251279
-0.236303
-0.212957
-0.182066
-0.144725
-0.102258
-0.0561675
-0.00808756
0.0402789
0.0872184
0.131068
0.170275
0.203449
0.229417
0.247257
0.256337
0.256337
0.247257
0.229416
0.203449
0.170275
0.131068
0.0872181
0.0402785
-0.00808788
-0.0561678
-0.102258
-0.144726
-0.182066
-0.212957
-0.236304
-0.251279
-0.257353
-0.25431
-0.242258
-0.221624
-0.193139
-0.157811
-0.116893
-0.0718345
-0.0242308
)
;

boundaryField
{
    inlet
    {
        type            cyclic;
    }
    outlet
    {
        type            cyclic;
    }
    bottom
    {
        type            slip;
    }
    top
    {
        type            slip;
    }
    frontAndBack
    {
        type            empty;
    }
}


// ************************************************************************* //
