/*--------------------------------*- C++ -*----------------------------------*\
  =========                 |
  \\      /  F ield         | OpenFOAM: The Open Source CFD Toolbox
   \\    /   O peration     | Website:  https://openfoam.org
    \\  /    A nd           | Version:  10
     \\/     M anipulation  |
\*---------------------------------------------------------------------------*/
FoamFile
{
    format      ascii;
    class       volScalarField;
    location    "6.5";
    object      T_0;
}
// * * * * * * * * * * * * * * * * * * * * * * * * * * * * * * * * * * * * * //

dimensions      [0 0 0 1 0 0 0];

internalField   nonuniform List<scalar> 
10000
(
374.909
361.093
356.288
354.111
352.874
352.049
351.438
350.952
350.548
350.199
349.89
349.612
349.357
349.121
348.901
348.694
348.499
348.314
348.138
347.97
347.81
347.657
347.511
347.371
347.236
347.108
346.985
346.868
346.755
346.648
346.545
346.447
346.354
346.265
346.18
346.099
346.022
345.95
345.881
345.815
345.754
345.695
345.64
345.588
345.539
345.493
345.45
345.409
345.371
345.336
345.302
345.271
345.243
345.216
345.191
345.167
345.146
345.126
345.107
345.09
345.075
345.06
345.047
345.035
345.024
345.014
345.004
344.996
344.988
344.981
344.975
344.97
344.965
344.96
344.956
344.953
344.95
344.947
344.945
344.943
344.941
344.94
344.938
344.938
344.937
344.937
344.936
344.936
344.936
344.937
344.937
344.938
344.939
344.94
344.941
344.942
344.943
344.944
344.946
344.946
388.416
374.288
366.257
361.418
358.235
355.958
354.212
352.801
351.614
350.583
349.667
348.839
348.08
347.376
346.719
346.101
345.517
344.963
344.436
343.934
343.454
342.996
342.557
342.137
341.735
341.351
340.982
340.63
340.293
339.971
339.663
339.369
339.089
338.822
338.568
338.326
338.096
337.878
337.671
337.476
337.29
337.115
336.95
336.794
336.647
336.509
336.38
336.258
336.144
336.037
335.937
335.844
335.758
335.677
335.602
335.532
335.467
335.407
335.352
335.301
335.254
335.211
335.171
335.135
335.101
335.071
335.043
335.018
334.995
334.974
334.956
334.939
334.924
334.91
334.899
334.888
334.879
334.871
334.864
334.858
334.853
334.849
334.845
334.843
334.841
334.84
334.839
334.839
334.84
334.84
334.842
334.844
334.846
334.849
334.852
334.855
334.859
334.863
334.867
334.872
392.906
381.374
373.027
367.067
362.689
359.334
356.653
354.429
352.526
350.856
349.362
348.004
346.754
345.593
344.506
343.483
342.515
341.597
340.722
339.888
339.091
338.329
337.6
336.902
336.234
335.594
334.981
334.395
333.834
333.298
332.785
332.297
331.83
331.386
330.963
330.56
330.178
329.815
329.471
329.145
328.836
328.545
328.269
328.01
327.766
327.536
327.32
327.117
326.927
326.75
326.584
326.429
326.284
326.15
326.025
325.909
325.801
325.701
325.609
325.524
325.446
325.374
325.308
325.247
325.192
325.141
325.095
325.053
325.015
324.98
324.949
324.921
324.896
324.874
324.854
324.836
324.821
324.807
324.796
324.786
324.778
324.771
324.765
324.761
324.758
324.756
324.755
324.755
324.755
324.757
324.759
324.762
324.766
324.771
324.776
324.781
324.787
324.794
324.802
324.809
394.768
385.268
377.415
371.142
366.127
362.048
358.65
355.75
353.221
350.972
348.941
347.082
345.363
343.761
342.257
340.839
339.495
338.217
337
335.839
334.728
333.666
332.649
331.675
330.742
329.849
328.993
328.175
327.391
326.642
325.927
325.244
324.593
323.972
323.38
322.818
322.284
321.776
321.295
320.84
320.408
320.001
319.616
319.254
318.912
318.591
318.289
318.006
317.74
317.492
317.26
317.043
316.841
316.653
316.478
316.316
316.166
316.026
315.898
315.779
315.669
315.569
315.476
315.391
315.314
315.243
315.178
315.119
315.066
315.018
314.974
314.935
314.9
314.869
314.841
314.817
314.795
314.776
314.76
314.746
314.735
314.725
314.717
314.711
314.707
314.704
314.703
314.702
314.703
314.706
314.709
314.713
314.718
314.725
314.732
314.739
314.748
314.758
314.768
314.779
395.691
387.511
380.228
373.968
368.644
364.096
360.167
356.723
353.66
350.897
348.376
346.052
343.891
341.867
339.962
338.161
336.45
334.823
333.27
331.787
330.368
329.009
327.708
326.461
325.267
324.122
323.026
321.977
320.974
320.014
319.097
318.221
317.385
316.589
315.831
315.11
314.424
313.774
313.156
312.572
312.019
311.496
311.003
310.537
310.099
309.687
309.3
308.936
308.596
308.277
307.979
307.701
307.442
307.201
306.976
306.768
306.575
306.396
306.231
306.079
305.938
305.809
305.69
305.581
305.482
305.391
305.308
305.232
305.164
305.102
305.046
304.996
304.951
304.911
304.875
304.844
304.816
304.792
304.771
304.753
304.738
304.726
304.716
304.708
304.703
304.699
304.697
304.697
304.698
304.701
304.705
304.71
304.717
304.725
304.734
304.744
304.755
304.767
304.78
304.794
396.205
388.854
382.028
375.873
370.401
365.547
361.223
357.343
353.829
350.615
347.653
344.899
342.324
339.902
337.614
335.443
333.379
331.41
329.53
327.732
326.01
324.361
322.78
321.264
319.812
318.42
317.086
315.809
314.587
313.419
312.302
311.235
310.218
309.248
308.324
307.445
306.61
305.817
305.065
304.352
303.678
303.041
302.439
301.872
301.338
300.835
300.363
299.92
299.505
299.117
298.754
298.415
298.099
297.804
297.531
297.277
297.041
296.824
296.622
296.436
296.265
296.107
295.962
295.83
295.708
295.597
295.496
295.404
295.321
295.245
295.177
295.116
295.061
295.012
294.969
294.93
294.896
294.867
294.841
294.82
294.801
294.786
294.774
294.765
294.758
294.753
294.751
294.75
294.752
294.755
294.76
294.767
294.775
294.784
294.795
294.808
294.821
294.836
294.852
294.869
396.507
389.673
383.165
377.112
371.559
366.491
361.866
357.631
353.733
350.125
346.765
343.618
340.658
337.86
335.207
332.684
330.278
327.98
325.781
323.676
321.658
319.724
317.868
316.089
314.383
312.747
311.179
309.677
308.24
306.865
305.55
304.295
303.097
301.955
300.868
299.833
298.849
297.915
297.03
296.19
295.396
294.646
293.937
293.269
292.64
292.048
291.491
290.969
290.48
290.023
289.595
289.195
288.823
288.476
288.154
287.855
287.577
287.32
287.083
286.864
286.662
286.476
286.305
286.149
286.006
285.875
285.756
285.647
285.549
285.46
285.38
285.308
285.243
285.185
285.134
285.088
285.049
285.014
284.984
284.958
284.936
284.919
284.904
284.893
284.885
284.879
284.876
284.876
284.878
284.881
284.887
284.895
284.904
284.916
284.928
284.943
284.959
284.976
284.994
285.014
396.686
390.164
383.858
377.872
372.256
367.022
362.153
357.621
353.393
349.436
345.717
342.21
338.891
335.74
332.742
329.881
327.147
324.531
322.024
319.621
317.315
315.102
312.978
310.94
308.984
307.108
305.31
303.587
301.938
300.359
298.85
297.408
296.033
294.721
293.471
292.282
291.152
290.079
289.061
288.097
287.184
286.321
285.507
284.738
284.015
283.334
282.695
282.095
281.532
281.006
280.514
280.055
279.626
279.228
278.857
278.513
278.194
277.898
277.625
277.373
277.141
276.927
276.731
276.551
276.386
276.236
276.099
275.974
275.861
275.759
275.666
275.583
275.509
275.442
275.383
275.331
275.285
275.245
275.21
275.181
275.156
275.135
275.119
275.106
275.096
275.09
275.086
275.086
275.087
275.092
275.098
275.107
275.118
275.131
275.145
275.162
275.18
275.199
275.221
275.243
396.787
390.442
384.246
378.283
372.6
367.22
362.141
357.352
352.834
348.563
344.519
340.68
337.027
333.545
330.219
327.037
323.989
321.067
318.262
315.569
312.983
310.499
308.112
305.821
303.621
301.511
299.486
297.546
295.688
293.909
292.208
290.583
289.032
287.553
286.144
284.803
283.528
282.317
281.169
280.081
279.051
278.077
277.158
276.291
275.474
274.706
273.984
273.307
272.672
272.078
271.522
271.004
270.52
270.07
269.652
269.263
268.903
268.57
268.261
267.977
267.714
267.473
267.251
267.048
266.862
266.692
266.538
266.397
266.269
266.153
266.049
265.955
265.871
265.796
265.729
265.67
265.618
265.573
265.534
265.5
265.472
265.448
265.429
265.415
265.404
265.396
265.392
265.391
265.394
265.398
265.406
265.415
265.427
265.442
265.458
265.476
265.497
265.519
265.543
265.568
396.836
390.573
384.417
378.436
372.674
367.154
361.884
356.864
352.083
347.528
343.185
339.038
335.074
331.28
327.644
324.156
320.807
317.59
314.498
311.525
308.667
305.918
303.277
300.739
298.3
295.96
293.714
291.56
289.497
287.522
285.633
283.828
282.104
280.46
278.894
277.403
275.985
274.639
273.362
272.152
271.006
269.923
268.901
267.936
267.028
266.173
265.37
264.617
263.91
263.249
262.631
262.054
261.516
261.015
260.55
260.117
259.716
259.345
259.002
258.685
258.393
258.125
257.878
257.652
257.445
257.256
257.083
256.926
256.784
256.655
256.539
256.435
256.341
256.257
256.183
256.117
256.059
256.008
255.965
255.927
255.896
255.869
255.848
255.832
255.819
255.811
255.807
255.805
255.808
255.813
255.821
255.831
255.845
255.86
255.878
255.898
255.921
255.945
255.972
256
396.848
390.6
384.432
378.399
372.54
366.879
361.428
356.192
351.169
346.351
341.731
337.297
333.041
328.953
325.022
321.242
317.606
314.105
310.736
307.493
304.371
301.366
298.476
295.697
293.026
290.461
287.998
285.636
283.373
281.205
279.131
277.148
275.255
273.45
271.729
270.091
268.533
267.054
265.65
264.319
263.06
261.87
260.745
259.685
258.686
257.746
256.863
256.034
255.258
254.53
253.851
253.216
252.624
252.073
251.561
251.085
250.644
250.236
249.858
249.51
249.189
248.893
248.622
248.373
248.145
247.937
247.747
247.574
247.418
247.276
247.148
247.033
246.93
246.837
246.755
246.683
246.619
246.563
246.515
246.474
246.439
246.41
246.387
246.368
246.355
246.345
246.34
246.339
246.341
246.346
246.355
246.366
246.381
246.398
246.417
246.439
246.464
246.49
246.519
246.55
396.834
390.552
384.33
378.217
372.246
366.439
360.811
355.37
350.118
345.054
340.174
335.471
330.939
326.571
322.361
318.303
314.39
310.618
306.982
303.477
300.1
296.848
293.716
290.703
287.805
285.021
282.347
279.781
277.321
274.964
272.709
270.554
268.495
266.53
264.658
262.875
261.18
259.569
258.041
256.592
255.221
253.925
252.701
251.546
250.458
249.434
248.472
247.57
246.723
245.931
245.191
244.499
243.855
243.254
242.696
242.178
241.697
241.252
240.841
240.461
240.111
239.789
239.493
239.222
238.973
238.746
238.54
238.351
238.181
238.026
237.887
237.761
237.648
237.548
237.458
237.379
237.31
237.249
237.196
237.151
237.113
237.081
237.055
237.035
237.02
237.009
237.004
237.002
237.004
237.01
237.019
237.031
237.046
237.065
237.086
237.109
237.136
237.164
237.196
237.229
396.801
390.448
384.143
377.927
371.828
365.869
360.064
354.425
348.955
343.657
338.53
333.572
328.779
324.146
319.669
315.345
311.168
307.135
303.241
299.485
295.861
292.368
289.002
285.761
282.643
279.645
276.765
274
271.348
268.808
266.376
264.05
261.829
259.708
257.688
255.763
253.933
252.194
250.544
248.979
247.499
246.098
244.776
243.528
242.353
241.247
240.207
239.232
238.318
237.462
236.661
235.914
235.217
234.568
233.965
233.405
232.885
232.404
231.959
231.549
231.17
230.822
230.502
230.209
229.94
229.695
229.471
229.268
229.083
228.916
228.765
228.629
228.507
228.398
228.302
228.216
228.14
228.074
228.017
227.968
227.927
227.892
227.864
227.842
227.826
227.814
227.808
227.805
227.807
227.813
227.823
227.836
227.852
227.872
227.894
227.919
227.947
227.978
228.011
228.047
396.754
390.303
383.891
377.553
371.315
365.198
359.216
353.382
347.701
342.179
336.817
331.615
326.572
321.686
316.955
312.376
307.945
303.661
299.52
295.52
291.658
287.932
284.339
280.878
277.545
274.34
271.259
268.3
265.461
262.741
260.136
257.645
255.264
252.992
250.826
248.763
246.8
244.936
243.166
241.488
239.9
238.398
236.979
235.64
234.379
233.192
232.077
231.03
230.049
229.13
228.271
227.469
226.721
226.025
225.377
224.775
224.218
223.701
223.224
222.783
222.377
222.003
221.659
221.344
221.056
220.792
220.552
220.334
220.135
219.956
219.793
219.647
219.516
219.399
219.295
219.203
219.122
219.051
218.989
218.936
218.891
218.854
218.824
218.8
218.782
218.769
218.762
218.759
218.761
218.767
218.777
218.791
218.808
218.828
218.852
218.879
218.909
218.941
218.977
219.014
396.695
390.126
383.589
377.115
370.729
364.448
358.288
352.261
346.375
340.636
335.048
329.612
324.331
319.203
314.228
309.404
304.73
300.204
295.825
291.59
287.498
283.546
279.734
276.058
272.518
269.11
265.834
262.687
259.667
256.771
253.998
251.345
248.809
246.388
244.08
241.882
239.79
237.802
235.915
234.127
232.433
230.831
229.318
227.89
226.545
225.279
224.09
222.973
221.926
220.946
220.029
219.173
218.375
217.632
216.941
216.299
215.704
215.152
214.643
214.172
213.739
213.34
212.973
212.637
212.329
212.047
211.791
211.557
211.345
211.154
210.98
210.824
210.684
210.559
210.448
210.349
210.262
210.186
210.12
210.064
210.016
209.976
209.943
209.917
209.897
209.884
209.876
209.872
209.874
209.88
209.89
209.905
209.922
209.944
209.969
209.997
210.028
210.063
210.1
210.139
396.629
389.926
383.25
376.63
370.087
363.639
357.299
351.081
344.993
339.044
333.237
327.577
322.066
316.705
311.496
306.437
301.529
296.771
292.162
287.701
283.386
279.217
275.192
271.309
267.566
263.963
260.498
257.167
253.97
250.904
247.966
245.156
242.469
239.903
237.457
235.126
232.908
230.8
228.799
226.902
225.105
223.406
221.801
220.286
218.859
217.515
216.253
215.067
213.956
212.916
211.943
211.035
210.187
209.398
208.665
207.983
207.351
206.766
206.225
205.725
205.265
204.841
204.452
204.094
203.767
203.469
203.196
202.948
202.723
202.519
202.335
202.169
202.02
201.887
201.769
201.664
201.571
201.49
201.42
201.359
201.308
201.265
201.23
201.203
201.181
201.167
201.157
201.154
201.155
201.161
201.172
201.186
201.205
201.227
201.253
201.282
201.315
201.351
201.39
201.432
396.557
389.709
382.884
376.109
369.403
362.784
356.264
349.857
343.571
337.416
331.397
325.52
319.788
314.203
308.768
303.483
298.35
293.368
288.537
283.858
279.328
274.949
270.718
266.634
262.697
258.904
255.254
251.745
248.376
245.145
242.048
239.084
236.25
233.543
230.962
228.502
226.161
223.936
221.824
219.821
217.924
216.129
214.434
212.834
211.327
209.908
208.574
207.322
206.148
205.049
204.021
203.061
202.166
201.332
200.557
199.836
199.169
198.55
197.978
197.45
196.963
196.515
196.103
195.726
195.38
195.064
194.776
194.514
194.276
194.06
193.865
193.689
193.532
193.391
193.266
193.154
193.056
192.97
192.896
192.832
192.777
192.732
192.694
192.664
192.642
192.626
192.616
192.611
192.612
192.618
192.629
192.644
192.663
192.686
192.713
192.743
192.777
192.815
192.855
192.899
396.481
389.479
382.498
375.562
368.689
361.896
355.196
348.601
342.121
335.765
329.54
323.452
317.506
311.705
306.052
300.55
295.199
290.002
284.957
280.067
275.331
270.748
266.318
262.04
257.914
253.937
250.109
246.428
242.892
239.499
236.248
233.134
230.158
227.314
224.601
222.016
219.556
217.217
214.996
212.889
210.894
209.007
207.224
205.541
203.956
202.463
201.06
199.742
198.507
197.351
196.269
195.259
194.317
193.439
192.623
191.865
191.162
190.511
189.909
189.353
188.841
188.369
187.936
187.538
187.174
186.841
186.538
186.261
186.011
185.783
185.578
185.393
185.227
185.078
184.946
184.829
184.725
184.634
184.556
184.488
184.43
184.382
184.342
184.31
184.286
184.269
184.258
184.253
184.253
184.259
184.269
184.285
184.304
184.328
184.356
184.387
184.422
184.461
184.503
184.548
396.402
389.24
382.097
374.996
367.954
360.986
354.105
347.324
340.652
334.1
327.674
321.382
315.229
309.219
303.357
297.644
292.084
286.679
281.429
276.335
271.399
266.619
261.997
257.532
253.222
249.068
245.067
241.219
237.522
233.973
230.571
227.313
224.197
221.221
218.381
215.674
213.097
210.647
208.32
206.114
204.023
202.046
200.177
198.414
196.752
195.187
193.717
192.336
191.041
189.828
188.694
187.635
186.647
185.727
184.872
184.077
183.339
182.657
182.025
181.442
180.905
180.41
179.955
179.538
179.156
178.807
178.488
178.198
177.935
177.696
177.481
177.287
177.112
176.956
176.817
176.693
176.585
176.489
176.406
176.334
176.274
176.222
176.18
176.147
176.121
176.102
176.09
176.084
176.084
176.09
176.1
176.116
176.136
176.16
176.188
176.221
176.257
176.297
176.34
176.386
396.32
388.995
381.687
374.418
367.205
360.061
353.001
346.036
339.176
332.431
325.81
319.319
312.965
306.754
300.688
294.773
289.011
283.405
277.956
272.667
267.537
262.569
257.761
253.114
248.628
244.302
240.134
236.124
232.27
228.57
225.023
221.625
218.374
215.269
212.305
209.479
206.79
204.232
201.803
199.499
197.316
195.251
193.299
191.457
189.721
188.086
186.55
185.107
183.754
182.487
181.302
180.195
179.163
178.201
177.307
176.476
175.706
174.992
174.332
173.722
173.16
172.643
172.167
171.731
171.332
170.967
170.633
170.33
170.055
169.805
169.579
169.376
169.193
169.03
168.884
168.755
168.641
168.54
168.453
168.378
168.314
168.26
168.216
168.18
168.152
168.132
168.119
168.112
168.112
168.117
168.127
168.143
168.163
168.188
168.217
168.25
168.287
168.328
168.372
168.42
396.237
388.747
381.271
373.833
366.448
359.13
351.892
344.745
337.7
330.767
323.955
317.271
310.723
304.315
298.054
291.943
285.986
280.186
274.546
269.067
263.752
258.6
253.613
248.792
244.135
239.643
235.314
231.147
227.142
223.296
219.607
216.074
212.693
209.462
206.378
203.438
200.639
197.977
195.448
193.049
190.777
188.626
186.594
184.676
182.867
181.165
179.565
178.062
176.652
175.332
174.098
172.945
171.869
170.867
169.935
169.069
168.266
167.522
166.834
166.199
165.613
165.074
164.578
164.124
163.707
163.326
162.979
162.662
162.375
162.115
161.879
161.667
161.476
161.306
161.153
161.018
160.899
160.794
160.703
160.624
160.557
160.5
160.453
160.415
160.386
160.365
160.35
160.343
160.342
160.346
160.356
160.372
160.392
160.417
160.446
160.48
160.518
160.56
160.605
160.654
396.154
388.497
380.853
373.246
365.69
358.198
350.783
343.457
336.231
329.114
322.116
315.245
308.507
301.91
295.459
289.159
283.014
277.027
271.202
265.541
260.046
254.719
249.559
244.569
239.747
235.094
230.61
226.292
222.141
218.153
214.328
210.664
207.157
203.805
200.605
197.554
194.648
191.885
189.26
186.77
184.41
182.177
180.066
178.074
176.196
174.428
172.765
171.204
169.74
168.368
167.086
165.888
164.77
163.729
162.76
161.86
161.026
160.253
159.538
158.877
158.268
157.708
157.192
156.719
156.286
155.89
155.529
155.2
154.901
154.63
154.385
154.164
153.966
153.788
153.629
153.488
153.364
153.255
153.159
153.077
153.006
152.947
152.898
152.858
152.827
152.804
152.789
152.78
152.778
152.782
152.792
152.807
152.828
152.853
152.883
152.917
152.955
152.998
153.044
153.094
396.071
388.247
380.436
372.66
364.933
357.27
349.681
342.179
334.775
327.478
320.299
313.245
306.325
299.544
292.91
286.427
280.1
273.934
267.931
262.094
256.426
250.928
245.602
240.449
235.468
230.661
226.026
221.563
217.27
213.146
209.19
205.398
201.769
198.3
194.988
191.83
188.822
185.96
183.242
180.663
178.219
175.906
173.72
171.656
169.71
167.878
166.156
164.538
163.02
161.599
160.27
159.028
157.87
156.79
155.786
154.854
153.988
153.187
152.446
151.761
151.129
150.548
150.014
149.523
149.074
148.663
148.288
147.947
147.637
147.355
147.101
146.872
146.666
146.481
146.316
146.17
146.04
145.926
145.827
145.741
145.667
145.605
145.554
145.512
145.479
145.455
145.438
145.428
145.426
145.429
145.439
145.454
145.474
145.499
145.529
145.564
145.602
145.646
145.693
145.743
395.988
387.998
380.021
372.078
364.183
356.35
348.59
340.915
333.337
325.865
318.51
311.279
304.181
297.223
290.411
283.752
277.25
270.909
264.734
258.728
252.893
247.232
241.746
236.436
231.302
226.346
221.566
216.962
212.533
208.278
204.194
200.281
196.534
192.952
189.531
186.269
183.162
180.206
177.398
174.733
172.208
169.817
167.558
165.425
163.413
161.52
159.739
158.066
156.497
155.028
153.653
152.369
151.171
150.055
149.017
148.052
147.158
146.328
145.562
144.853
144.2
143.599
143.046
142.538
142.073
141.648
141.26
140.907
140.586
140.294
140.031
139.793
139.58
139.388
139.217
139.065
138.931
138.813
138.709
138.62
138.543
138.478
138.424
138.381
138.346
138.32
138.302
138.291
138.288
138.291
138.3
138.314
138.334
138.36
138.39
138.424
138.463
138.507
138.555
138.605
395.906
387.753
379.611
371.503
363.442
355.442
347.514
339.671
331.922
324.28
316.753
309.35
302.08
294.95
287.967
281.137
274.466
267.958
261.618
255.448
249.453
243.634
237.993
232.532
227.251
222.151
217.232
212.493
207.933
203.551
199.345
195.313
191.453
187.762
184.237
180.875
177.672
174.625
171.73
168.982
166.378
163.913
161.583
159.382
157.308
155.355
153.517
151.792
150.173
148.657
147.239
145.914
144.678
143.526
142.455
141.459
140.536
139.68
138.888
138.157
137.483
136.862
136.291
135.767
135.287
134.848
134.447
134.082
133.75
133.449
133.177
132.931
132.711
132.512
132.336
132.178
132.039
131.916
131.809
131.716
131.637
131.569
131.513
131.467
131.43
131.403
131.384
131.372
131.367
131.37
131.378
131.392
131.412
131.437
131.467
131.501
131.541
131.585
131.633
131.684
395.826
387.51
379.207
370.937
362.713
354.549
346.457
338.449
330.535
322.726
315.032
307.463
300.026
292.73
285.582
278.587
271.753
265.084
258.584
252.257
246.108
240.137
234.347
228.741
223.318
218.08
213.027
208.157
203.471
198.967
194.643
190.498
186.529
182.733
179.107
175.649
172.354
169.219
166.239
163.412
160.732
158.195
155.796
153.532
151.396
149.385
147.494
145.717
144.051
142.489
141.029
139.665
138.392
137.205
136.102
135.076
134.125
133.244
132.428
131.675
130.98
130.34
129.752
129.212
128.717
128.265
127.852
127.475
127.133
126.823
126.542
126.288
126.06
125.856
125.673
125.511
125.367
125.24
125.129
125.033
124.95
124.88
124.821
124.773
124.735
124.706
124.685
124.672
124.666
124.668
124.675
124.689
124.708
124.733
124.763
124.798
124.837
124.881
124.929
124.981
395.746
387.272
378.811
370.381
361.998
353.674
345.422
337.252
329.177
321.207
313.351
305.62
298.023
290.566
283.258
276.105
269.114
262.289
255.636
249.158
242.859
236.743
230.811
225.064
219.506
214.135
208.952
203.957
199.15
194.528
190.091
185.837
181.763
177.866
174.143
170.592
167.208
163.988
160.928
158.024
155.271
152.664
150.2
147.873
145.679
143.612
141.669
139.843
138.13
136.526
135.025
133.622
132.313
131.094
129.959
128.905
127.927
127.021
126.182
125.407
124.693
124.035
123.43
122.874
122.365
121.9
121.475
121.087
120.735
120.416
120.127
119.866
119.631
119.42
119.232
119.064
118.915
118.784
118.67
118.57
118.485
118.412
118.35
118.3
118.26
118.229
118.207
118.193
118.187
118.187
118.194
118.207
118.226
118.25
118.28
118.314
118.353
118.397
118.446
118.498
395.669
387.04
378.422
369.837
361.299
352.819
344.41
336.084
327.852
319.725
311.713
303.826
296.073
288.461
280.999
273.693
266.55
259.576
252.775
246.152
239.711
233.454
227.385
221.504
215.815
210.316
205.01
199.895
194.971
190.236
185.691
181.331
177.156
173.162
169.346
165.706
162.237
158.936
155.798
152.82
149.996
147.323
144.796
142.409
140.158
138.038
136.044
134.171
132.413
130.767
129.227
127.787
126.444
125.193
124.029
122.947
121.942
121.012
120.151
119.356
118.623
117.947
117.326
116.755
116.233
115.754
115.318
114.92
114.558
114.23
113.932
113.664
113.423
113.206
113.012
112.839
112.686
112.551
112.433
112.33
112.241
112.166
112.102
112.05
112.008
111.976
111.952
111.937
111.929
111.928
111.934
111.947
111.965
111.989
112.018
112.052
112.091
112.135
112.183
112.235
395.593
386.813
378.044
369.307
360.617
351.985
343.424
334.946
326.563
318.284
310.12
302.082
294.178
286.417
278.807
271.354
264.066
256.947
250.005
243.242
236.664
230.272
224.071
218.062
212.247
206.626
201.2
195.97
190.934
186.092
181.442
176.981
172.709
168.622
164.717
160.991
157.44
154.061
150.848
147.799
144.908
142.171
139.582
137.138
134.833
132.661
130.619
128.7
126.9
125.213
123.635
122.161
120.785
119.503
118.309
117.201
116.172
115.218
114.336
113.521
112.769
112.077
111.44
110.855
110.319
109.829
109.381
108.973
108.602
108.265
107.96
107.684
107.436
107.213
107.014
106.837
106.679
106.54
106.418
106.312
106.221
106.142
106.077
106.022
105.978
105.944
105.919
105.902
105.893
105.892
105.897
105.909
105.926
105.949
105.978
106.012
106.051
106.094
106.142
106.194
395.519
386.592
377.675
368.791
359.954
351.174
342.466
333.841
325.31
316.885
308.575
300.391
292.342
284.437
276.683
269.089
261.661
254.405
247.326
240.429
233.719
227.199
220.871
214.738
208.803
203.065
197.525
192.184
187.041
182.095
177.345
172.788
168.423
164.246
160.256
156.448
152.818
149.364
146.08
142.962
140.006
137.208
134.561
132.061
129.704
127.483
125.394
123.432
121.59
119.865
118.251
116.742
115.335
114.023
112.802
111.667
110.615
109.639
108.736
107.902
107.133
106.424
105.772
105.173
104.624
104.122
103.664
103.246
102.865
102.52
102.208
101.925
101.671
101.443
101.238
101.056
100.894
100.751
100.626
100.517
100.422
100.341
100.273
100.217
100.171
100.135
100.108
100.09
100.08
100.077
100.082
100.092
100.109
100.132
100.16
100.193
100.231
100.275
100.322
100.374
395.448
386.377
377.318
368.291
359.31
350.388
341.537
332.769
324.096
315.529
307.078
298.754
290.565
282.522
274.631
266.901
259.338
251.949
244.739
237.714
230.878
224.234
217.785
211.534
205.483
199.633
193.984
188.537
183.292
178.246
173.4
168.751
164.297
160.035
155.962
152.075
148.37
144.844
141.492
138.309
135.291
132.433
129.73
127.178
124.77
122.502
120.369
118.364
116.483
114.721
113.072
111.531
110.093
108.753
107.505
106.346
105.27
104.273
103.351
102.498
101.712
100.987
100.321
99.7087
99.1477
98.6343
98.1654
97.7378
97.3488
96.9957
96.6758
96.3868
96.1263
95.8924
95.6829
95.4961
95.3302
95.1835
95.0547
94.9422
94.8449
94.7615
94.6911
94.6324
94.5848
94.5472
94.519
94.4996
94.4881
94.4842
94.4874
94.4971
94.513
94.5347
94.5621
94.5947
94.6325
94.6753
94.7228
94.774
395.378
386.169
376.972
367.806
358.687
349.627
340.638
331.733
322.923
314.219
305.632
297.172
288.849
280.672
272.65
264.789
257.097
249.581
242.246
235.098
228.141
221.378
214.814
208.45
202.288
196.331
190.577
185.029
179.685
174.545
169.607
164.869
160.33
155.986
151.835
147.873
144.096
140.501
137.083
133.838
130.76
127.846
125.09
122.486
120.031
117.718
115.541
113.496
111.578
109.78
108.098
106.525
105.058
103.691
102.418
101.235
100.137
99.1197
98.1781
97.308
96.5052
95.7656
95.0853
94.4605
93.8877
93.3634
92.8845
92.4478
92.0504
91.6896
91.3626
91.0672
90.8009
90.5616
90.3472
90.1559
89.9859
89.8356
89.7034
89.5879
89.4878
89.4019
89.3291
89.2683
89.2187
89.1795
89.1497
89.1288
89.116
89.1109
89.1129
89.1216
89.1366
89.1575
89.184
89.216
89.2531
89.2953
89.3422
89.3929
395.312
385.968
376.637
367.338
358.085
348.892
339.77
330.732
321.79
312.954
304.236
295.647
287.195
278.89
270.741
262.755
254.94
247.302
239.847
232.581
225.508
218.632
211.957
205.485
199.218
193.157
187.304
181.659
176.221
170.99
165.965
161.143
156.522
152.1
147.874
143.84
139.994
136.333
132.852
129.547
126.413
123.445
120.637
117.986
115.484
113.127
110.91
108.827
106.872
105.04
103.326
101.724
100.229
98.8352
97.5381
96.3325
95.2136
94.1765
93.2168
92.3298
91.5114
90.7573
90.0636
89.4265
88.8424
88.3077
87.8192
87.3737
86.9682
86.6
86.2663
85.9646
85.6926
85.4481
85.229
85.0334
84.8595
84.7055
84.57
84.4515
84.3487
84.2603
84.1852
84.1224
84.0709
84.0298
83.9985
83.976
83.9619
83.9555
83.9564
83.964
83.9779
83.9979
84.0236
84.0547
84.0911
84.1325
84.1788
84.2289
395.247
385.775
376.314
366.886
357.505
348.183
338.933
329.767
320.698
311.736
302.893
294.178
285.603
277.175
268.905
260.799
252.865
245.111
237.542
230.163
222.98
215.995
209.214
202.639
196.271
190.112
184.164
178.427
172.899
167.582
162.472
157.569
152.871
148.374
144.076
139.974
136.063
132.339
128.798
125.436
122.248
119.228
116.371
113.673
111.128
108.73
106.474
104.354
102.364
100.5
98.7552
97.1245
95.6026
94.184
92.8637
91.6364
90.4973
89.4415
88.4643
87.5611
86.7277
85.9598
85.2534
84.6045
84.0095
83.4648
82.9671
82.5131
82.0999
81.7245
81.3843
81.0766
80.7992
80.5497
80.326
80.1262
79.9484
79.7909
79.6522
79.5308
79.4253
79.3344
79.2571
79.1922
79.1388
79.096
79.0629
79.039
79.0235
79.0158
79.0154
79.0219
79.0347
79.0537
79.0784
79.1086
79.1442
79.1848
79.2303
79.2797
395.185
385.588
376.003
366.451
356.946
347.501
338.128
328.84
319.648
310.565
301.601
292.767
284.073
275.528
267.142
258.921
250.875
243.009
235.33
227.843
220.554
213.467
206.585
199.911
193.447
187.195
181.156
175.33
169.717
164.317
159.128
154.148
149.376
144.808
140.442
136.273
132.3
128.516
124.918
121.502
118.261
115.192
112.289
109.547
106.96
104.522
102.229
100.074
98.0514
96.156
94.3822
92.7243
91.1768
89.7344
88.3918
87.1438
85.9854
84.9117
83.9178
82.9992
82.1515
81.3704
80.6517
79.9916
79.3862
78.8319
78.3253
77.8633
77.4426
77.0603
76.7138
76.4004
76.1177
75.8633
75.6352
75.4314
75.2499
75.089
74.9472
74.8229
74.7147
74.6214
74.5418
74.4749
74.4196
74.375
74.3403
74.3149
74.2979
74.2889
74.2872
74.2924
74.3042
74.3221
74.3457
74.375
74.4096
74.4493
74.4939
74.5425
395.125
385.409
375.705
366.034
356.41
346.846
337.355
327.949
318.641
309.441
300.362
291.414
282.606
273.949
265.451
257.121
248.967
240.994
233.211
225.622
218.232
211.046
204.068
197.3
190.744
184.403
178.277
172.368
166.674
161.195
155.93
150.877
146.034
141.398
136.967
132.736
128.703
124.862
121.21
117.741
114.452
111.336
108.389
105.604
102.977
100.502
98.1731
95.9845
93.9306
92.0057
90.2041
88.5202
86.9484
85.4833
84.1195
82.8517
81.6749
80.584
79.5742
78.6409
77.7796
76.9858
76.2554
75.5845
74.9691
74.4057
73.8907
73.4208
72.993
72.6042
72.2516
71.9327
71.6448
71.3858
71.1535
70.9457
70.7606
70.5964
70.4515
70.3244
70.2137
70.118
70.0362
69.9672
69.91
69.8637
69.8274
69.8003
69.7819
69.7715
69.7685
69.7725
69.783
69.7998
69.8223
69.8505
69.8841
69.9228
69.9665
70.0141
395.068
385.237
375.419
365.633
355.896
346.218
336.614
327.096
317.675
308.365
299.175
290.117
281.201
272.437
263.833
255.398
247.141
239.067
231.184
223.497
216.012
208.732
201.662
194.804
188.162
181.736
175.528
169.538
163.766
158.213
152.875
147.753
142.843
138.143
133.649
129.36
125.269
121.374
117.67
114.153
110.816
107.656
104.666
101.842
99.1767
96.6657
94.3029
92.0825
89.9986
88.0456
86.2176
84.5089
82.9139
81.4272
80.0431
78.7565
77.5621
76.4549
75.43
74.4826
73.6082
72.8024
72.0609
71.3796
70.7547
70.1825
69.6594
69.1821
68.7474
68.3523
67.994
67.6697
67.377
67.1135
66.877
66.6655
66.4769
66.3095
66.1617
66.0318
65.9186
65.8206
65.7366
65.6656
65.6065
65.5583
65.5204
65.4918
65.4718
65.46
65.4557
65.4584
65.4677
65.4832
65.5046
65.5317
65.5641
65.6018
65.6444
65.6911
395.013
385.073
375.145
365.25
355.403
345.617
335.905
326.279
316.752
307.335
298.04
288.877
279.858
270.991
262.287
253.752
245.397
237.226
229.248