/*--------------------------------*- C++ -*----------------------------------*\
  =========                 |
  \\      /  F ield         | OpenFOAM: The Open Source CFD Toolbox
   \\    /   O peration     | Website:  https://openfoam.org
    \\  /    A nd           | Version:  10
     \\/     M anipulation  |
\*---------------------------------------------------------------------------*/
FoamFile
{
    format      ascii;
    class       volScalarField;
    location    "23.5";
    object      T;
}
// * * * * * * * * * * * * * * * * * * * * * * * * * * * * * * * * * * * * * //

dimensions      [0 0 -1 0 0 0 0];

internalField   nonuniform List<scalar> 
100
(
1.46984
4.39586
7.28286
10.1052
12.8379
15.4566
17.9381
20.2604
22.4029
24.3465
26.0741
27.5701
28.8215
29.8171
30.548
31.0077
31.1923
31.0999
30.7316
30.0904
29.1822
28.015
26.599
24.947
23.0736
20.9954
18.7308
16.3
13.7244
11.0271
8.2319
5.36362
2.44775
-0.489857
-3.42311
-6.32598
-9.17269
-11.938
-14.5973
-17.1271
-19.5048
-21.7094
-23.7214
-25.5227
-27.0975
-28.4318
-29.5138
-30.3337
-30.8845
-31.161
-31.161
-30.8845
-30.3337
-29.5138
-28.4318
-27.0975
-25.5227
-23.7213
-21.7094
-19.5048
-17.127
-14.5973
-11.9379
-9.17264
-6.32593
-3.42306
-0.489801
2.4478
5.36368
8.23196
11.0272
13.7245
16.3
18.7309
20.9954
23.0737
24.9471
26.5991
28.015
29.1823
30.0905
30.7316
31.1
31.1923
31.0078
30.548
29.8171
28.8216
27.5702
26.0741
24.3466
22.4029
20.2605
17.9381
15.4566
12.8379
10.1052
7.28287
4.39586
1.46984
)
;

boundaryField
{
    xmin
    {
        type            fixedValue;
        value           uniform 0;
    }
    xmax
    {
        type            fixedValue;
        value           uniform 0;
    }
    frontAndBack
    {
        type            empty;
    }
}


// ************************************************************************* //
