/*--------------------------------*- C++ -*----------------------------------*\
| =========                 |                                                 |
| \\      /  F ield         | OpenFOAM: The Open Source CFD Toolbox           |
|  \\    /   O peration     | Version:  2406                                  |
|   \\  /    A nd           | Website:  www.openfoam.com                      |
|    \\/     M anipulation  |                                                 |
\*---------------------------------------------------------------------------*/
FoamFile
{
    version     2.0;
    format      ascii;
    arch        "LSB;label=32;scalar=64";
    class       volScalarField;
    location    "2";
    object      p;
}
// * * * * * * * * * * * * * * * * * * * * * * * * * * * * * * * * * * * * * //

dimensions      [0 2 -2 0 0 0 0];

internalField   nonuniform List<scalar> 
1176
(
0.78137097
0.78139385
0.78141752
0.78142519
0.78139367
0.78129896
0.78114167
0.78095541
0.78077613
0.78060907
0.78045444
0.78035877
0.78035878
0.78045448
0.78060913
0.78077621
0.78095551
0.78114179
0.78129908
0.7813938
0.78142533
0.78141766
0.78139399
0.78137111
0.75822287
0.75817592
0.75812817
0.75811127
0.75817376
0.7583761
0.75874141
0.7592058
0.75963662
0.75992264
0.76004174
0.76007568
0.76007569
0.76004177
0.75992269
0.75963669
0.75920588
0.75874148
0.75837618
0.75817384
0.75811135
0.75812825
0.758176
0.75822295
0.74113767
0.74115968
0.74117947
0.74117755
0.74111848
0.74095737
0.74068576
0.74035783
0.74005147
0.7398388
0.73972778
0.7396786
0.73967862
0.73972782
0.73983887
0.74005156
0.74035794
0.74068588
0.74095749
0.74111861
0.74117768
0.7411796
0.74115981
0.7411378
0.72446755
0.72447663
0.72448863
0.72450495
0.72452738
0.72454484
0.72451267
0.72437962
0.72414754
0.72387396
0.72364845
0.72352656
0.72352658
0.72364849
0.72387404
0.72414765
0.72437975
0.72451281
0.72454499
0.72452754
0.72450511
0.7244888
0.7244768
0.72446771
0.70804863
0.70805253
0.70805744
0.70806342
0.70807305
0.70809329
0.70812954
0.70817136
0.70819334
0.70816846
0.70810443
0.70804989
0.7080499
0.70810447
0.70816854
0.70819345
0.70817149
0.70812968
0.70809345
0.70807322
0.7080636
0.70805762
0.70805271
0.70804881
0.69158624
0.69158856
0.69159168
0.69159561
0.69160048
0.69160749
0.6916222
0.6916542
0.69170341
0.69175806
0.69179697
0.69181029
0.6918103
0.69179701
0.69175814
0.69170352
0.69165434
0.69162235
0.69160765
0.69160064
0.69159578
0.69159186
0.69158874
0.69158642
0.67517715
0.67517911
0.67518174
0.67518511
0.67518925
0.67519355
0.6751969
0.67519994
0.67520708
0.67522012
0.67522909
0.67523203
0.67523206
0.67522915
0.67522021
0.67520719
0.67520008
0.67519706
0.67519372
0.67518943
0.6751853
0.67518194
0.67517931
0.67517734
0.65878617
0.65878779
0.6587901
0.6587934
0.6587982
0.65880479
0.65881215
0.65881679
0.65881461
0.65880421
0.65878612
0.65877302
0.65877304
0.65878618
0.6588043
0.65881472
0.65881692
0.6588123
0.65880494
0.65879836
0.65879356
0.65879027
0.65878796
0.65878634
0.64239799
0.64239971
0.6424023
0.64240628
0.64241232
0.64242096
0.64243166
0.64244135
0.64244428
0.64243678
0.64242659
0.6424224
0.64242243
0.64242667
0.64243688
0.64244439
0.64244147
0.64243179
0.6424211
0.64241247
0.64240643
0.64240245
0.64239985
0.64239814
0.62598794
0.6259904
0.62599412
0.62599979
0.6260081
0.62601923
0.62603157
0.6260412
0.62604388
0.62604431
0.62605077
0.6260624
0.62606243
0.62605085
0.6260444
0.62604399
0.62604131
0.6260317
0.62601937
0.62600825
0.62599994
0.62599428
0.62599055
0.62598809
0.60955229
0.60955622
0.60956187
0.60956985
0.60958052
0.60959324
0.60960499
0.60961058
0.60961028
0.60961705
0.6096518
0.60969487
0.60969491
0.60965188
0.60961714
0.60961038
0.60961068
0.60960509
0.60959333
0.60958062
0.60956995
0.60956197
0.60955631
0.60955239
0.5931124
0.59311823
0.59312612
0.59313612
0.59314755
0.59315779
0.5931621
0.59315878
0.59315732
0.59318394
0.59326178
0.5933603
0.59336032
0.59326187
0.59318404
0.59315744
0.5931589
0.59316222
0.59315791
0.59314767
0.59313624
0.59312624
0.59311835
0.59311252
0.57673699
0.57674449
0.57675392
0.57676404
0.57677226
0.57677318
0.57676177
0.57674045
0.57673376
0.5767992
0.57695597
0.57710923
0.57710926
0.57695604
0.5767993
0.57673386
0.57674056
0.57676188
0.57677328
0.57677236
0.57676414
0.57675402
0.57674459
0.57673708
0.56054682
0.56055475
0.56056363
0.56057048
0.56057044
0.56055624
0.56052043
0.56046174
0.56044558
0.56055528
0.56081386
0.56105455
0.56105457
0.56081393
0.56055538
0.56044569
0.56046185
0.56052055
0.56055636
0.56057056
0.5605706
0.56056374
0.56055487
0.56054694
0.54469502
0.54470144
0.54470704
0.54470703
0.54469415
0.54465494
0.54457688
0.54447629
0.54443721
0.54458827
0.54495431
0.5452922
0.54529221
0.54495438
0.54458838
0.54443733
0.54447642
0.54457702
0.54465508
0.54469429
0.54470717
0.54470718
0.54470158
0.54469516
0.52934667
0.52934917
0.5293482
0.52933648
0.52930305
0.5292304
0.52910492
0.52894862
0.52887277
0.52905044
0.52950929
0.52993716
0.52993718
0.52950935
0.52905054
0.5288729
0.52894877
0.52910507
0.52923057
0.52930322
0.52933664
0.52934837
0.52934934
0.52934684
0.51464023
0.51463606
0.51462488
0.51459735
0.51453979
0.51443124
0.51425525
0.51403682
0.51390816
0.51408608
0.51460547
0.51510481
0.51510483
0.51460553
0.51408616
0.51390828
0.51403696
0.5142554
0.51443139
0.51453995
0.51459752
0.51462505
0.51463623
0.5146404
0.50067278
0.50065968
0.50063563
0.50058977
0.5005062
0.50036138
0.50013645
0.49985607
0.49966175
0.49980584
0.50033803
0.50087963
0.50087966
0.50033811
0.49980594
0.49966188
0.49985621
0.5001366
0.50036153
0.50050635
0.50058992
0.50063579
0.50065984
0.50067295
0.48746944
0.48744588
0.48740742
0.48734242
0.48723377
0.48705685
0.48679121
0.48645802
0.48619621
0.48626521
0.48674989
0.48729775
0.48729778
0.48674996
0.4862653
0.48619632
0.48645814
0.48679133
0.48705698
0.48723389
0.48734255
0.48740754
0.48744601
0.48746957
0.47496834
0.47493394
0.47488113
0.47479838
0.4746684
0.47446733
0.47417414
0.47380358
0.47348194
0.47343896
0.47382672
0.47433812
0.47433814
0.47382677
0.47343903
0.47348202
0.47380366
0.47417422
0.47446742
0.47466848
0.47479845
0.47488121
0.47493402
0.47496842
0.46302594
0.46298156
0.46291603
0.46281868
0.46267302
0.46245736
0.46215103
0.46175847
0.46138038
0.46122257
0.46149898
0.46191869
0.4619187
0.461499
0.46122261
0.46138043
0.46175852
0.46215108
0.46245741
0.46267306
0.46281872
0.46291607
0.4629816
0.46302598
0.45144602
0.45139348
0.45131799
0.45121033
0.45105557
0.45083542
0.45053086
0.45013474
0.44971142
0.44945868
0.44960668
0.44989331
0.44989331
0.44960667
0.44945867
0.44971142
0.45013474
0.45053085
0.45083541
0.45105555
0.45121031
0.45131797
0.45139346
0.451446
0.44000122
0.43994291
0.43986091
0.43974781
0.43959082
0.43937572
0.43908659
0.43870674
0.43825608
0.43793537
0.4379442
0.43807531
0.4380753
0.43794419
0.43793534
0.43825604
0.43870669
0.43908654
0.43937566
0.43959075
0.43974774
0.43986083
0.43994283
0.44000115
0.42847553
0.42841406
0.42832919
0.42821563
0.42806313
0.42786184
0.42759909
0.42725102
0.42680122
0.42639756
0.42624699
0.42625595
0.42625593
0.42624696
0.42639751
0.42680115
0.42725095
0.42759901
0.42786176
0.42806303
0.42821553
0.42832908
0.42841395
0.42847542
0.41665646
0.41659461
0.41651061
0.41640129
0.41625908
0.41607849
0.41585012
0.41554441
0.41511285
0.41462833
0.41431665
0.41425354
0.41425351
0.41431659
0.41462825
0.41511276
0.41554433
0.41585004
0.4160784
0.41625898
0.4164012
0.41651051
0.41659451
0.41665636
0.40434997
0.40429038
0.40421055
0.40410916
0.403981
0.40382435
0.40363347
0.40337642
0.4029763
0.40245037
0.40200666
0.40185101
0.40185099
0.40200659
0.40245028
0.40297619
0.40337632
0.40363336
0.40382424
0.40398089
0.40410904
0.40421043
0.40429026
0.40434985
0.39142508
0.39136979
0.39129656
0.39120552
0.39109343
0.39096143
0.39080666
0.3905976
0.39024357
0.38969868
0.38916302
0.38890116
0.38890114
0.38916296
0.38969859
0.39024347
0.3905975
0.39080655
0.39096131
0.39109329
0.39120537
0.39129641
0.39136963
0.39142493
0.37781242
0.37776278
0.37769769
0.37761824
0.37752275
0.37741433
0.37729223
0.37712627
0.37682045
0.37628202
0.37570275
0.37537222
0.3753722
0.37570268
0.37628193
0.37682036
0.3771262
0.37729215
0.37741425
0.37752267
0.37761816
0.37769761
0.3777627
0.37781234
0.36349717
0.36345385
0.36339752
0.36332989
0.36325036
0.36316323
0.36306925
0.36294038
0.36268073
0.3621721
0.36159214
0.3612275
0.36122748
0.36159208
0.36217202
0.36268064
0.36294027
0.36306913
0.36316311
0.36325024
0.36332977
0.3633974
0.36345373
0.36349705
0.34850733
0.34847041
0.34842278
0.34836642
0.3483015
0.34823289
0.34816235
0.34806461
0.34784787
0.34739173
0.34683744
0.34646045
0.34646043
0.34683741
0.34739168
0.34784781
0.34806455
0.34816228
0.3482328
0.34830141
0.34836633
0.34842269
0.34847032
0.34850724
0.33289746
0.33286665
0.33282718
0.33278114
0.33272919
0.33267635
0.33262514
0.33255393
0.33237888
0.33198297
0.33146314
0.33109609
0.33109608
0.33146312
0.33198294
0.33237884
0.33255388
0.33262508
0.33267628
0.33272912
0.33278108
0.33282712
0.33286659
0.3328974
0.31673359
0.31670838
0.3166763
0.31663938
0.31659856
0.31655871
0.31652269
0.31647245
0.31633351
0.31599504
0.31552234
0.31518183
0.31518183
0.31552234
0.31599503
0.31633349
0.31647241
0.31652264
0.31655865
0.3165985
0.31663932
0.31667624
0.31670832
0.31673353
0.30008831
0.30006806
0.30004245
0.30001335
0.2999818
0.29995227
0.2999277
0.29989331
0.29978483
0.29950054
0.29908264
0.29877776
0.29877776
0.29908265
0.29950056
0.29978485
0.29989333
0.29992772
0.2999523
0.29998182
0.30001336
0.30004246
0.30006808
0.30008833
0.28303562
0.28301963
0.28299951
0.28297693
0.28295292
0.28293143
0.28291523
0.2828925
0.28280928
0.28257497
0.28221445
0.28194925
0.28194926
0.28221447
0.28257501
0.28280932
0.28289254
0.28291527
0.28293148
0.28295298
0.28297699
0.28299958
0.2830197
0.2830357
0.26564606
0.26563362
0.26561806
0.26560079
0.26558277
0.26556738
0.26555714
0.26554276
0.26547999
0.26529036
0.26498619
0.26476126
0.26476127
0.26498623
0.26529042
0.26548007
0.26554284
0.26555722
0.26556747
0.26558286
0.26560087
0.26561814
0.26563371
0.26564615
0.24798363
0.24797409
0.24796221
0.24794918
0.24793584
0.24792499
0.24791884
0.24791026
0.24786369
0.24771286
0.24746141
0.24727485
0.24727487
0.24746146
0.24771294
0.2478638
0.24791039
0.24791899
0.24792515
0.247936
0.24794935
0.24796239
0.24797426
0.2479838
0.23010415
0.23009693
0.23008799
0.23007828
0.23006852
0.230061
0.23005758
0.23005288
0.23001887
0.22990086
0.22969686
0.22954519
0.2295452
0.2296969
0.22990094
0.23001896
0.23005299
0.23005771
0.23006115
0.23006868
0.23007845
0.23008816
0.23009711
0.23010433
0.21205487
0.21204947
0.21204281
0.21203566
0.21202859
0.21202346
0.21202179
0.21201958
0.21199513
0.21190424
0.21174155
0.21162043
0.21162045
0.21174159
0.21190431
0.21199521
0.21201968
0.2120219
0.21202359
0.21202873
0.21203579
0.21204295
0.21204961
0.212055
0.19387467
0.19387068
0.19386578
0.19386056
0.19385551
0.19385205
0.19385145
0.19385076
0.19383344
0.19376446
0.19363676
0.1935416
0.19354161
0.19363679
0.1937645
0.1938335
0.19385084
0.19385153
0.19385214
0.1938556
0.19386065
0.19386587
0.19387077
0.19387476
0.17559491
0.17559199
0.17558842
0.17558465
0.17558107
0.17557878
0.17557879
0.17557896
0.17556686
0.17551522
0.17541645
0.17534278
0.17534277
0.17541644
0.17551521
0.17556686
0.17557897
0.17557879
0.1755788
0.17558109
0.17558467
0.17558844
0.17559201
0.17559493
0.15724033
0.15723822
0.15723564
0.15723295
0.15723043
0.15722894
0.15722926
0.15722987
0.15722154
0.15718337
0.157108
0.15705174
0.15705173
0.15710797
0.15718332
0.15722148
0.15722981
0.15722919
0.15722887
0.15723036
0.15723287
0.15723556
0.15723814
0.15724025
0.13883021
0.13882869
0.13882685
0.13882494
0.13882319
0.13882223
0.13882267
0.13882345
0.13881779
0.13878992
0.13873313
0.13869071
0.13869069
0.13873308
0.13878984
0.13881769
0.13882334
0.13882255
0.1388221
0.13882305
0.1388248
0.13882671
0.13882855
0.13883007
0.12037927
0.12037819
0.12037688
0.12037554
0.12037433
0.12037373
0.12037419
0.12037499
0.12037119
0.12035107
0.12030879
0.12027717
0.12027715
0.12030873
0.12035096
0.12037105
0.12037482
0.12037401
0.12037354
0.12037414
0.12037534
0.12037668
0.12037798
0.12037906
0.10189863
0.10189787
0.10189695
0.10189602
0.10189519
0.10189482
0.10189525
0.10189598
0.10189348
0.10187911
0.101848
0.10182471
0.10182468
0.10184792
0.10187898
0.10189331
0.10189578
0.10189503
0.10189458
0.10189494
0.10189576
0.1018967
0.10189761
0.10189838
0.083396621
0.083396087
0.083395446
0.083394798
0.083394236
0.083394015
0.08339439
0.083395023
0.08339341
0.083383277
0.083360613
0.083343568
0.083343543
0.083360534
0.083383145
0.083393238
0.083394825
0.083394176
0.083393791
0.083394006
0.083394564
0.08339521
0.08339585
0.083396384
0.064879275
0.064878904
0.06487846
0.064878016
0.06487764
0.064877518
0.064877836
0.064878368
0.064877361
0.064870338
0.06485415
0.064842053
0.064842028
0.064854072
0.064870211
0.06487719
0.064878165
0.06487761
0.064877279
0.064877394
0.064877765
0.064878205
0.064878648
0.064879018
0.046351329
0.046351073
0.046350767
0.046350459
0.046350199
0.046350125
0.046350391
0.046350871
0.046350344
0.046345537
0.046333781
0.046324543
0.046324522
0.046333717
0.046345432
0.046350208
0.046350714
0.046350222
0.046349949
0.04635002
0.046350279
0.046350586
0.046350893
0.046351149
0.027815189
0.027814998
0.027814772
0.027814554
0.027814386
0.027814359
0.027814565
0.027814913
0.02781465
0.027811803
0.027804625
0.027799559
0.027799544
0.027804575
0.027811724
0.027814552
0.027814803
0.02781445
0.027814243
0.027814269
0.027814438
0.027814656
0.027814882
0.027815074
0.0092761621
0.009276047
0.0092759057
0.0092757491
0.009275592
0.0092755019
0.009275603
0.0092759767
0.0092762079
0.009274421
0.0092677162
0.009260176
0.0092601674
0.0092676932
0.0092743888
0.0092761692
0.0092759349
0.0092755597
0.0092754584
0.0092755491
0.0092757069
0.009275864
0.0092760056
0.009276121
)
;

boundaryField
{
    INLET
    {
        type            zeroGradient;
    }
    OUTLET
    {
        type            fixedValue;
        value           uniform 0;
    }
    WALL
    {
        type            zeroGradient;
    }
    frontAndBackPlanes
    {
        type            empty;
    }
}


// ************************************************************************* //
