/*--------------------------------*- C++ -*----------------------------------*\
| =========                 |                                                 |
| \\      /  F ield         | OpenFOAM: The Open Source CFD Toolbox           |
|  \\    /   O peration     | Version:  2406                                  |
|   \\  /    A nd           | Website:  www.openfoam.com                      |
|    \\/     M anipulation  |                                                 |
\*---------------------------------------------------------------------------*/
FoamFile
{
    version     2.0;
    format      ascii;
    arch        "LSB;label=32;scalar=64";
    class       surfaceScalarField;
    location    "2";
    object      phi;
}
// * * * * * * * * * * * * * * * * * * * * * * * * * * * * * * * * * * * * * //

dimensions      [0 3 -1 0 0 0 0];

oriented        oriented;

internalField   nonuniform List<scalar> 
2279
(
2.3626516e-08
1.0148917e-05
2.0514886e-07
4.9823708e-05
6.934834e-07
0.00014252861
1.5788926e-06
0.00034353057
2.6797481e-06
0.00075378042
3.348865e-06
0.0015415567
3.045302e-06
0.0029497094
2.1525752e-06
0.0052491719
1.4312129e-06
0.0085822705
9.8999752e-07
0.012685994
5.1331396e-07
0.016666385
-5.6472645e-11
0.019182021
-5.134278e-07
0.019182021
-9.9012095e-07
0.016666385
-1.4313386e-06
0.012685994
-2.1526853e-06
0.0085822705
-3.0453759e-06
0.0052491719
-3.3489311e-06
0.0029497095
-2.6798088e-06
0.0015415567
-1.5789322e-06
0.00075378043
-6.9350323e-07
0.00034353057
-2.0515664e-07
0.00014252861
-2.3628604e-08
4.9823707e-05
1.0148917e-05
-9.5237366e-08
1.0244155e-05
-5.3787694e-07
5.0266348e-05
-1.62281e-06
0.00014361354
-3.5385371e-06
0.0003454463
-5.9195081e-06
0.00075616141
-7.4047309e-06
0.0015430419
-6.5843076e-06
0.002948889
-3.9362723e-06
0.0052465239
-1.3890987e-06
0.0085797234
-6.5168025e-08
0.01268467
2.4299187e-07
0.016666077
-8.0006436e-11
0.019182264
-2.4315868e-07
0.019182264
6.5006335e-08
0.016666077
1.3889686e-06
0.01268467
3.9361896e-06
0.0085797233
6.5842932e-06
0.0052465238
7.4047449e-06
0.002948889
5.9195034e-06
0.0015430419
3.5385241e-06
0.00075616138
1.6228004e-06
0.00034544629
5.3787233e-07
0.00014361353
9.523586e-08
5.0266345e-05
1.0244154e-05
5.014464e-08
1.0194011e-05
2.6335689e-07
5.0053137e-05
7.4911127e-07
0.00014312779
1.5314146e-06
0.00034466401
2.3365219e-06
0.00075535632
2.5475057e-06
0.001542831
1.8396422e-06
0.0029495969
9.7728047e-07
0.0052473863
6.8024242e-07
0.0085800204
6.800485e-07
0.01268467
4.9178694e-07
0.016666265
-1.0292975e-10
0.019182756
-4.9201699e-07
0.019182756
-6.8030411e-07
0.016666265
-6.8045995e-07
0.01268467
-9.7745239e-07
0.0085800203
-1.839748e-06
0.0052473862
-2.5475595e-06
0.0029495969
-2.3365741e-06
0.0015428309
-1.5314558e-06
0.00075535629
-7.4913324e-07
0.00034466399
-2.6336538e-07
0.00014312778
-5.0146612e-08
5.0053133e-05
1.019401e-05
1.949039e-08
1.017452e-05
1.1129874e-07
4.996133e-05
3.595043e-07
0.00014287959
9.0057451e-07
0.00034412294
1.8622614e-06
0.00075439464
3.0784923e-06
0.0015416147
3.8767736e-06
0.0029487986
3.7084441e-06
0.0052475546
2.9191382e-06
0.0085808097
1.9820836e-06
0.012685607
1.0226655e-06
0.016667225
-9.6345349e-11
0.019183779
-1.0228893e-06
0.019183779
-1.9823434e-06
0.016667225
-2.9193511e-06
0.012685607
-3.7086105e-06
0.0085808096
-3.8768994e-06
0.0052475545
-3.0785674e-06
0.0029487986
-1.8623344e-06
0.0015416147
-9.0063153e-07
0.00075439461
-3.5953385e-07
0.00034412292
-1.1130992e-07
0.00014287958
-1.9493127e-08
4.9961325e-05
1.0174519e-05
7.9573954e-09
1.0166563e-05
4.6434258e-08
4.9922853e-05
1.5275464e-07
0.00014277327
3.9335087e-07
0.00034388235
8.7033371e-07
0.00075391766
1.6885689e-06
0.0015407965
2.7430791e-06
0.0029477441
3.4807306e-06
0.0052468169
3.5272093e-06
0.0085807632
2.8660916e-06
0.012686268
1.5954512e-06
0.016668495
-1.1623335e-10
0.019185374
-1.5956961e-06
0.019185374
-2.8663468e-06
0.016668495
-3.5274001e-06
0.012686268
-3.4808534e-06
0.0085807631
-2.7431863e-06
0.0052468168
-1.6886379e-06
0.002947744
-8.7041199e-07
0.0015407964
-3.9341701e-07
0.00075391762
-1.5278893e-07
0.00034388233
-4.644679e-08
0.00014277326
-7.9601959e-09
4.9922849e-05
1.0166562e-05
4.7215554e-09
1.0161842e-05
2.7530975e-08
4.9900044e-05
9.1623491e-08
0.00014270918
2.4151061e-07
0.00034373246
5.5081583e-07
0.00075360834
1.1078999e-06
0.0015402394
1.9196365e-06
0.0029469324
2.692846e-06
0.0052460437
2.9615607e-06
0.0085804944
2.56964e-06
0.01268666
1.4955911e-06
0.016669569
-1.248803e-10
0.01918687
-1.4958255e-06
0.01918687
-2.5698481e-06
0.016669569
-2.9617016e-06
0.01268666
-2.6929303e-06
0.0085804944
-1.9197356e-06
0.0052460436
-1.1079573e-06
0.0029469323
-5.5087571e-07
0.0015402393
-2.4156744e-07
0.0007536083
-9.1654001e-08
0.00034373243
-2.7541861e-08
0.00014270916
-4.7237146e-09
4.9900039e-05
1.0161841e-05
4.0515957e-09
1.015779e-05
2.3666294e-08
4.9880428e-05
7.8688419e-08
0.00014265415
2.0707983e-07
0.00034360406
4.7282751e-07
0.00075334258
9.573157e-07
0.0015397549
1.6856096e-06
0.002946204
2.4444688e-06
0.0052452848
2.7813326e-06
0.0085801576
2.4424985e-06
0.012686999
1.4365233e-06
0.016670575
-1.5948541e-10
0.019188306
-1.4367754e-06
0.019188306
-2.4426492e-06
0.016670575
-2.781423e-06
0.012686999
-2.4445291e-06
0.0085801575
-1.6857268e-06
0.0052452848
-9.5740057e-07
0.002946204
-4.7289685e-07
0.0015397548
-2.0714321e-07
0.00075334254
-7.8723686e-08
0.00034360404
-2.3679219e-08
0.00014265414
-4.0542732e-09
4.9880425e-05
1.0157789e-05
3.3746709e-09
1.0154415e-05
2.012206e-08
4.986368e-05
6.8475588e-08
0.00014260579
1.8529422e-07
0.00034348723
4.3632736e-07
0.00075309153
9.1098613e-07
0.0015392802
1.6511163e-06
0.0029454639
2.4697719e-06
0.0052444661
2.882697e-06
0.0085797447
2.5606988e-06
0.012687321
1.5098636e-06
0.016671626
-2.2061505e-10
0.019189817
-1.5101828e-06
0.019189816
-2.5608196e-06
0.016671626
-2.8827417e-06
0.012687321
-2.4697669e-06
0.0085797445
-1.6511842e-06
0.0052444661
-9.110458e-07
0.0029454638
-4.363606e-07
0.0015392801
-1.8533334e-07
0.00075309149
-6.8501323e-08
0.00034348721
-2.0132202e-08
0.00014260579
-3.3768684e-09
4.9863677e-05
1.0154415e-05
3.6631939e-09
1.0150752e-05
2.2155768e-08
4.9845185e-05
7.6218829e-08
0.00014255172
2.0776793e-07
0.00034335567
4.8998973e-07
0.00075280929
1.0165151e-06
0.0015387536
1.8198192e-06
0.0029446605
2.6995076e-06
0.0052435864
3.1225111e-06
0.0085793217
2.7140707e-06
0.012687729
1.574415e-06
0.016672766
-2.8906972e-10
0.019191391
-1.5748343e-06
0.019191391
-2.7142178e-06
0.016672765
-3.1225766e-06
0.012687729
-2.699494e-06
0.0085793215
-1.8198551e-06
0.0052435863
-1.0165756e-06
0.0029446605
-4.9001405e-07
0.0015387536
-2.0779379e-07
0.00075280925
-7.6237513e-08
0.00034335566
-2.2163223e-08
0.00014255172
-3.6644995e-09
4.9845184e-05
1.0150751e-05
5.3753499e-09
1.0145376e-05
3.2184265e-08
4.9818375e-05
1.0919797e-07
0.00014247471
2.916145e-07
0.00034317325
6.6775017e-07
0.00075243313
1.3303599e-06
0.001538091
2.2595867e-06
0.0029437313
3.1414541e-06
0.0052427046
3.407932e-06
0.0085790553
2.8051711e-06
0.012688332
1.5521638e-06
0.016674019
-3.4704243e-10
0.019192944
-1.5526915e-06
0.019192943
-2.8053862e-06
0.016674018
-3.4080708e-06
0.012688332
-3.1414967e-06
0.008579055
-2.2596094e-06
0.0052427044
-1.3304271e-06
0.0029437312
-6.6778778e-07
0.001538091
-2.9164258e-07
0.00075243312
-1.0921562e-07
0.00034317324
-3.2191143e-08
0.00014247471
-5.3766623e-09
4.9818375e-05
1.0145376e-05
8.5740211e-09
1.0136802e-05
5.0249663e-08
4.9776698e-05
1.6625775e-07
0.00014235869
4.2964878e-07
0.00034290985
9.4337339e-07
0.00075191939
1.7838077e-06
0.0015372506
2.8360859e-06
0.002942679
3.6085149e-06
0.0052419322
3.5712999e-06
0.0085790925
2.6476624e-06
0.012689256
1.3022102e-06
0.016675364
-3.736404e-10
0.019194246
-1.3028193e-06
0.019194246
-2.6480063e-06
0.016675363
-3.5715264e-06
0.012689255
-3.6086224e-06
0.0085790921
-2.8360946e-06
0.0052419319
-1.7838461e-06
0.0029426789
-9.4339917e-07
0.0015372505
-4.2966948e-07
0.00075191938
-1.6627064e-07
0.00034290984
-5.0254613e-08
0.00014235869
-8.5749733e-09
4.9776698e-05
1.0136802e-05
1.2603626e-08
1.0124198e-05
7.2195992e-08
4.9717104e-05
2.3263777e-07
0.00014219825
5.8081165e-07
0.00034256167
1.2191146e-06
0.00075128108
2.1732489e-06
0.0015362964
3.1966177e-06
0.0029416557
3.7143642e-06
0.0052414145
3.1882246e-06
0.0085796187
1.8783372e-06
0.012690566
6.9331712e-07
0.016676549
-3.8328809e-10
0.01919494
-6.9404545e-07
0.019194939
-1.8788803e-06
0.016676548
-3.1885912e-06
0.012690565
-3.7145905e-06
0.0085796182
-3.1966853e-06
0.0052414141
-2.1733021e-06
0.0029416555
-1.2191471e-06
0.0015362963
-5.80837e-07
0.00075128106
-2.3265344e-07
0.00034256166
-7.2201999e-08
0.00014219825
-1.2604791e-08
4.9717105e-05
1.0124198e-05
1.593968e-08
1.0108258e-05
8.9056954e-08
4.9643986e-05
2.7851964e-07
0.00014200879
6.6717566e-07
0.00034217301
1.3199609e-06
0.0007506283
2.158949e-06
0.0015354574
2.8133841e-06
0.0029410013
2.6576026e-06
0.0052415703
1.3629896e-06
0.0085809133
-2.591612e-07
0.012692188
-7.6989229e-07
0.01667706
-3.7645636e-10
0.01919417
7.6909503e-07
0.01919417
2.5844534e-07
0.016677059
-1.3635096e-06
0.012692187
-2.6579148e-06
0.0085809125
-2.8135128e-06
0.0052415698
-2.1590209e-06
0.002941001
-1.319986e-06
0.0015354573
-6.6718835e-07
0.00075062824
-2.7852863e-07
0.00034217299
-8.9060946e-08
0.00014200878
-1.5940486e-08
4.9643984e-05
1.0108258e-05
1.6682076e-08
1.0091576e-05
9.0045219e-08
4.9570622e-05
2.6931202e-07
0.00014182952
6.0238606e-07
0.00034183993
1.0652829e-06
0.0007501654
1.4189638e-06
0.0015351038
1.1092163e-06
0.002941311
-4.1497597e-07
0.0052430945
-2.816653e-06
0.0085833149
-4.4406332e-06
0.012693812
-3.4192521e-06
0.016676038
-3.5203387e-10
0.019190752
3.4184306e-06
0.019190751
4.4397995e-06
0.016676037
2.8160034e-06
0.01269381
4.1450775e-07
0.008583314
-1.1094858e-06
0.0052430939
-1.419157e-06
0.0029413107
-1.0653844e-06
0.0015351036
-6.0243202e-07
0.00075016531
-2.6933348e-07
0.0003418399
-9.0053708e-08
0.0001418295
-1.6684125e-08
4.9570618e-05
1.0091575e-05
1.3242788e-08
1.0078333e-05
6.6314444e-08
4.9517551e-05
1.7742051e-07
0.00014171841
3.2036107e-07
0.00034169699
3.152997e-07
0.00075017045
-3.2965015e-07
0.0015357487
-2.4032414e-06
0.0029433846
-6.168953e-06
0.0052468602
-1.009731e-05
0.0085872433
-1.1319004e-05
0.012695033
-7.641476e-06
0.016672361
-3.2632035e-10
0.01918311
7.6406532e-06
0.01918311
1.1318082e-05
0.01667236
1.009654e-05
0.012695032
6.1684114e-06
0.0085872421
2.402911e-06
0.0052468594
3.2940447e-07
0.0029433841
-3.1543387e-07
0.0015357484
-3.2041712e-07
0.0007501703
-1.774449e-07
0.00034169693
-6.6324334e-08
0.00014171839
-1.324541e-08
4.9517542e-05
1.0078331e-05
4.4878765e-09
1.0073844e-05
1.175451e-08
4.9510285e-05
-1.5867708e-08
0.00014174604
-2.2426433e-07
0.00034190539
-1.0205181e-06
0.0007509667
-3.2436893e-06
0.0015379719
-7.9225662e-06
0.0029480635
-1.4864496e-05
0.0052538022
-2.0858289e-05
0.008593237
-2.1246446e-05
0.012695421
-1.3630141e-05
0.016664745
-3.4231774e-10
0.019169481
1.3629305e-05
0.019169481
2.1245505e-05
0.016664744
2.085745e-05
0.01269542
1.4863874e-05
0.0085932357
7.9221792e-06
0.0052538011
3.2433994e-06
0.0029480629
1.0203484e-06
0.0015379715
2.2419353e-07
0.0007509665
1.5838548e-08
0.00034190529
-1.1766123e-08
0.000141746
-4.4908062e-09
4.9510271e-05
1.0073841e-05
-9.7196804e-09
1.0083563e-05
-7.3929445e-08
4.9574495e-05
-3.0963682e-07
0.00014198175
-1.0232909e-06
0.00034261904
-2.9084342e-06
0.00075285183
-7.206633e-06
0.0015422701
-1.5234304e-05
0.0029560912
-2.6264625e-05
0.0052648325
-3.4967652e-05
0.00860194
-3.4215168e-05
0.012694669
-2.1404248e-05
0.016651934
-4.2519384e-10
0.019148077
2.1403354e-05
0.019148077
3.4214289e-05
0.016651933
3.4966885e-05
0.012694668
2.626404e-05
0.0086019386
1.5233951e-05
0.0052648313
7.2063916e-06
0.0029560904
2.9082912e-06
0.0015422696
1.0232367e-06
0.00075285158
3.0961812e-07
0.00034261892
7.3922316e-08
0.00014198169
9.7179268e-09
4.9574477e-05
1.008356e-05
-2.8581481e-08
1.0112144e-05
-1.8552901e-07
4.9731443e-05
-6.8468038e-07
0.0001424809
-2.0197537e-06
0.00034395411
-5.2067176e-06
0.00075603878
-1.1933332e-05
0.0015489967
-2.3848151e-05
0.002968006
-3.9711173e-05
0.0052806955
-5.184826e-05
0.008614077
-4.9915752e-05
0.012692736
-3.0809545e-05
0.016632827
-5.5640465e-10
0.019117268
3.080852e-05
0.019117268
4.991488e-05
0.016632826
5.184758e-05
0.012692735
3.9710663e-05
0.0086140755
2.3847824e-05
0.0052806942
1.1933136e-05
0.0029680051
5.2066025e-06
0.0015489961
2.0197078e-06
0.0007560385
6.8466448e-07
0.00034395397
1.8552298e-07
0.00014248084
2.8580025e-08
4.9731422e-05
1.011214e-05
-5.038186e-08
1.0162525e-05
-3.1275792e-07
4.9993821e-05
-1.1062211e-06
0.00014327437
-3.1221087e-06
0.00034597
-7.7069975e-06
0.00076062367
-1.7002555e-05
0.0015582922
-3.302882e-05
0.0029840323
-5.4168032e-05
0.0053018347
-7.047835e-05
0.0086303873
-6.7731096e-05
0.012689989
-4.1514025e-05
0.01660661
-6.5883938e-10
0.019075755
4.1512883e-05
0.019075754
6.7730158e-05
0.016606609
7.0477702e-05
0.012689987
5.41676e-05
0.0086303855
3.3028514e-05
0.0053018333
1.7002404e-05
0.0029840313
7.7069302e-06
0.0015582916
3.1220881e-06
0.00076062334
1.1062161e-06
0.00034596984
3.1275585e-07
0.0001432743
5.0381186e-08
4.9993797e-05
1.016252e-05
-7.2704403e-08
1.0235229e-05
-4.4159502e-07
5.0362713e-05
-1.5282024e-06
0.00014436098
-4.211311e-06
0.00034865311
-1.0144068e-05
0.00076655642
-2.188961e-05
0.0015700377
-4.1857805e-05
0.0030040004
-6.8259249e-05
0.0053282361
-8.9238913e-05
0.0086513669
-8.6421637e-05
0.012687172
-5.2926634e-05
0.016573115
-7.0084316e-10
0.019022829
5.2925437e-05
0.019022828
8.6420635e-05
0.016573114
8.9238238e-05
0.01268717
6.8258842e-05
0.0086513649
4.1857499e-05
0.0053282346
2.188945e-05
0.0030039993
1.0143992e-05
0.001570037
4.2112846e-06
0.00076655605
1.5281959e-06
0.00034865293
4.4159296e-07
0.0001443609
7.2703813e-08
5.0362686e-05
1.0235224e-05
-9.3032464e-08
1.0328261e-05
-5.5771574e-07
5.0827399e-05
-1.9044127e-06
0.00014570768
-5.1703107e-06
0.000351919
-1.2261978e-05
0.00077364807
-2.6094091e-05
0.0015838698
-4.9453144e-05
0.0030273594
-8.0605044e-05
0.0053593881
-0.00010630976
0.0086770716
-0.00010427535
0.012685138
-6.4243489e-05
0.016533083
-6.9961475e-10
0.018958586
6.4242276e-05
0.018958585
0.00010427435
0.016533082
0.00010630907
0.012685135
8.0604607e-05
0.0086770694
4.9452852e-05
0.0053593863
2.6093971e-05
0.0030273582
1.2261933e-05
0.0015838691
5.1703001e-06
0.00077364766
1.904413e-06
0.0003519188
5.5771646e-07
0.00014570759
9.3032613e-08
5.0827367e-05
1.0328255e-05
-1.0943852e-07
1.0437699e-05
-6.5028286e-07
5.1368245e-05
-2.2003909e-06
0.00014725779
-5.9131963e-06
0.00035563181
-1.3875455e-05
0.00078161033
-2.9256645e-05
0.001599251
-5.5179678e-05
0.0030532824
-9.0189611e-05
0.005394398
-0.00012031019
0.0087071922
-0.00011981249
0.01268464
-7.4666155e-05
0.016487937
-6.7549266e-10
0.01888392
7.4664935e-05
0.018883919
0.00011981153
0.016487935
0.00012030953
0.012684637
9.0189143e-05
0.0087071898
5.5179369e-05
0.0053943961
2.9256529e-05
0.0030532811
1.3875414e-05
0.0015992502
5.9131866e-06
0.00078160989
2.2003912e-06
0.00035563159
6.5028372e-07
0.00014725769
1.094387e-07
5.1368211e-05
1.0437692e-05
-1.207786e-07
1.0558478e-05
-7.1296808e-07
5.1960438e-05
-2.3960831e-06
0.00014894091
-6.3896959e-06
0.00035962543
-1.4875056e-05
0.0007900957
-3.1161476e-05
0.0016155374
-5.8642012e-05
0.0030807629
-9.6351789e-05
0.0054321078
-0.00013027207
0.0087411124
-0.00013206355
0.012686431
-8.3583835e-05
0.016439458
-6.268801e-10
0.018800337
8.3582632e-05
0.018800336
0.0001320626
0.016439455
0.00013027147
0.012686428
9.6351352e-05
0.0087411098
5.8641748e-05
0.0054321056
3.1161403e-05
0.0030807614
1.4875046e-05
0.0016155365
6.389703e-06
0.00079009522
2.3960908e-06
0.00035962519
7.129718e-07
0.0001489408
1.2077945e-07
5.1960399e-05
1.055847e-05
-1.2665071e-07
1.0685129e-05
-7.4354644e-07
5.2577336e-05
-2.4847138e-06
0.00015068208
-6.584037e-06
0.00036372476
-1.5228352e-05
0.00079874003
-3.1740351e-05
0.0016320495
-5.9681786e-05
0.0031087043
-9.8768889e-05
0.0054711949
-0.00013574127
0.0087780849
-0.00014055839
0.012691248
-9.0573172e-05
0.016389472
-5.4637416e-10
0.018709764
9.057207e-05
0.018709764
0.00014055746
0.01638947
0.00013574066
0.012691245
9.8768468e-05
0.008778082
5.9681573e-05
0.0054711925
3.1740316e-05
0.0031087027
1.522836e-05
0.0016320485
6.584052e-06
0.00079873951
2.4847248e-06
0.0003637245
7.4355157e-07
0.00015068197
1.2665208e-07
5.2577294e-05
1.068512e-05
-1.2685252e-07
1.0811982e-05
-7.4131031e-07
5.3191797e-05
-2.4657078e-06
0.00015240649
-6.5001554e-06
0.00036775921
-1.4956942e-05
0.00080719682
-3.1055126e-05
0.0016481477
-5.8394279e-05
0.0031360435
-9.7370166e-05
0.0055101708
-0.000136234
0.0088169488
-0.00014432118
0.012699335
-9.4921153e-05
0.016340072
-4.3678652e-10
0.018614844
9.4920257e-05
0.018614843
0.00014432034
0.01634007
0.00013623337
0.012699332
9.7369745e-05
0.0088169456
5.8394087e-05
0.0055101682
3.1055087e-05
0.0031360418
1.495694e-05
0.0016481467
6.5001652e-06
0.00080719629
2.4657168e-06
0.00036775894
7.4131483e-07
0.00015240637
1.268536e-07
5.3191753e-05
1.0811973e-05
-1.2175169e-07
1.0933735e-05
-7.0894263e-07
5.377899e-05
-2.3495839e-06
0.00015404713
-6.1700859e-06
0.00037157971
-1.4144703e-05
0.00081517143
-2.9298028e-05
0.001663301
-5.5147926e-05
0.0031618933
-9.2647699e-05
0.0055476705
-0.00013187954
0.0088561807
-0.00014295803
0.012710414
-9.5973153e-05
0.016293087
-3.4059201e-10
0.018518871
9.5972487e-05
0.01851887
0.00014295738
0.016293085
0.00013187901
0.01271041
9.2647377e-05
0.0088561772
5.5147806e-05
0.0055476677
2.9297999e-05
0.0031618916
1.4144691e-05
0.0016633
6.1700859e-06
0.00081517089
2.3495866e-06
0.00037157944
7.0894444e-07
0.00015404701
1.2175192e-07
5.3778946e-05
1.0933725e-05
-1.1255952e-07
1.1046295e-05
-6.5355079e-07
5.4319984e-05
-2.1599712e-06
0.00015555356
-5.6556072e-06
0.00037507536
-1.2930787e-05
0.00082244662
-2.6747351e-05
0.0016771176
-5.0442933e-05
0.0031855889
-8.5416691e-05
0.0055826442
-0.00012355435
0.0088943184
-0.00013704714
0.012723907
-9.3795039e-05
0.016249835
-2.8345764e-10
0.018425076
9.3794542e-05
0.018425075
0.00013704672
0.016249833
0.00012355404
0.012723903
8.5416567e-05
0.0088943147
5.044299e-05
0.0055826413
2.6747461e-05
0.0031855872
1.293088e-05
0.0016771166
5.6556693e-06
0.00082244606
2.1600016e-06
0.00037507508
6.5356268e-07
0.00015555343
1.1256264e-07
5.4319937e-05
1.1046285e-05
-1.0071991e-07
1.1147015e-05
-5.8346544e-07
5.480273e-05
-1.9241013e-06
0.00015689419
-5.026737e-06
0.000378178
-1.1470907e-05
0.00082889079
-2.3712273e-05
0.001689359
-4.4827934e-05
0.0032067046
-7.652222e-05
0.0056143384
-0.00011243918
0.0089302354
-0.0001275895
0.012739057
-8.9003389e-05
0.016211249
-2.2433137e-10
0.018336073
8.9003027e-05
0.018336072
0.0001275893
0.016211246
0.00011243912
0.012739053
7.6522247e-05
0.0089302317
4.4828019e-05
0.0056143357
2.3712333e-05
0.003206703
1.1470949e-05
0.001689358
5.0267651e-06
0.00082889028
1.9241146e-06
0.00037817774
5.8347046e-07
0.00015689408
1.0072113e-07
5.4802687e-05
1.1147006e-05
-8.763789e-08
1.1234654e-05
-5.067275e-07
5.5221821e-05
-1.6680605e-06
0.00015805553
-4.3500655e-06
0.00038086001
-9.9124388e-06
0.00083445316
-2.0486178e-05
0.0016999327
-3.8833344e-05
0.0032250518
-6.6822071e-05
0.0056423272
-9.9707729e-05
0.0089631211
-0.00011568517
0.012755035
-8.2246784e-05
0.016177811
-1.4871525e-10
0.018253826
8.224656e-05
0.018253825
0.00011568516
0.016177808
9.9707897e-05
0.01275503
6.6822289e-05
0.0089631172
3.8833558e-05
0.0056423243
2.048633e-05
0.0032250501
9.9125457e-06
0.0016999318
4.3501264e-06
0.00083445265
1.6680862e-06
0.00038085976
5.0673576e-07
0.00015805542
8.7639169e-08
5.5221779e-05
1.1234645e-05
-7.4472727e-08
1.1309127e-05
-4.2989965e-07
5.5577251e-05
-1.4129597e-06
0.0001590386
-3.6791454e-06
0.00038312622
-8.3735959e-06
0.00083914763
-1.7305412e-05
0.0017088645
-3.2893904e-05
0.0032406403
-5.7044468e-05
0.0056664777
-8.6388949e-05
0.0089924656
-0.00010235244
0.012770998
-7.4154275e-05
0.016149613
-6.9554309e-11
0.018179672
7.4154198e-05
0.018179671
0.00010235257
0.016149609
8.6389212e-05
0.012770994
5.7044737e-05
0.0089924618
3.2894152e-05
0.005666475
1.7305597e-05
0.0032406387
8.3737272e-06
0.0017088636
3.6792173e-06
0.00083914714
1.4129899e-06
0.00038312597
4.2990994e-07
0.00015903849
7.4475067e-08
5.557721e-05
1.1309118e-05
-6.1988977e-08
1.1371117e-05
-3.5729457e-07
5.5872559e-05
-1.1726734e-06
0.00015985399
-3.049305e-06
0.00038500287
-6.9329565e-06
0.0008430313
-1.4329285e-05
0.0017162609
-2.7310756e-05
0.0032536218
-4.7720834e-05
0.0056868877
-7.3312553e-05
0.0090180574
-8.8577369e-05
0.012786263
-6.5357439e-05
0.016126393
1.2462885e-11
0.018114315
6.5357543e-05
0.018114313
8.857768e-05
0.016126389
7.3312929e-05
0.012786258
4.7721152e-05
0.0090180536
2.7311011e-05
0.0056868852
1.4329443e-05
0.0032536203
6.933052e-06
0.00171626
3.0493533e-06
0.00084303084
1.1726922e-06
0.00038500263
3.5730017e-07
0.00015985388
6.1989824e-08
5.587252e-05
1.1371109e-05
-5.0607622e-08
1.1421725e-05
-2.9129449e-07
5.6113249e-05
-9.5485395e-07
0.00016051756
-2.4799413e-06
0.00038652797
-5.633555e-06
0.00084618493
-1.1645723e-05
0.001722273
-2.2254774e-05
0.0032642308
-3.9167633e-05
0.0057038005
-6.0999566e-05
0.0090398894
-7.5105622e-05
0.012800369
-5.6404596e-05
0.016107692
7.7794217e-11
0.01805791
5.6404856e-05
0.018057908
7.5106083e-05
0.016107688
6.1000038e-05
0.012800365
3.9168004e-05
0.0090398857
2.2255043e-05
0.0057037981
1.1645881e-05
0.0032642294
5.6336609e-06
0.0017222722
2.4800026e-06
0.00084618447
9.5488057e-07
0.00038652774
2.913032e-07
0.00016051745
5.0609224e-08
5.611321e-05
1.1421717e-05
-4.0571745e-08
1.1462298e-05
-2.3324332e-07
5.6305925e-05
-7.6371849e-07
0.00016104804
-1.9814764e-06
0.00038774575
-4.4980053e-06
0.00084870148
-9.3008249e-06
0.0017270758
-1.781971e-05
0.0032727497
-3.1579192e-05
0.00571756
-4.9828227e-05
0.0090581384
-6.248175e-05
0.012813023
-4.7733679e-05
0.016092944
1.483957e-10
0.018010176
4.7734077e-05
0.018010175
6.2482284e-05
0.01609294
4.9828696e-05
0.012813018
3.1579508e-05
0.0090581349
1.7819891e-05
0.0057175577
9.300914e-06
0.0032727484
4.4980787e-06
0.001727075
1.9815239e-06
0.00084870104
7.6373949e-07
0.00038774553
2.3325029e-07
0.00016104794
4.0573158e-08
5.6305887e-05
1.146229e-05
-3.1986724e-08
1.1494286e-05
-1.8368685e-07
5.6457629e-05
-6.0086362e-07
0.00016146523
-1.5575444e-06
0.00038870246
-3.5335663e-06
0.00085067752
-7.3090114e-06
0.0017308513
-1.4038719e-05
0.0032794794
-2.5043264e-05
0.0057285645
-4.0011862e-05
0.0090731069
-5.1063208e-05
0.012824074
-3.9662497e-05
0.016081543
2.3632892e-10
0.017970513
3.9663048e-05
0.017970512
5.1063783e-05
0.016081539
4.0012285e-05
0.01282407
2.5043511e-05
0.0090731036
1.4038825e-05
0.0057285624
7.30905e-06
0.0032794781
3.5336055e-06
0.0017308505
1.5575683e-06
0.00085067709
6.0087256e-07
0.00038870224
1.8368905e-07
0.00016146513
3.1986689e-08
5.6457592e-05
1.1494278e-05
-2.4834506e-08
1.1519121e-05
-1.4247283e-07
5.657527e-05
-4.6563819e-07
0.0001617884
-1.2060579e-06
0.00038944289
-2.7347706e-06
0.00085220624
-5.6587642e-06
0.0017337752
-1.0895184e-05
0.0032847158
-1.9557828e-05
0.0057372272
-3.1621847e-05
0.0090851709
-4.104397e-05
0.012833496
-3.2395895e-05
0.016072895
3.0253799e-10
0.017938117
3.2396527e-05
0.017938116
4.1044529e-05
0.016072891
3.16222e-05
0.012833492
1.9558008e-05
0.0090851678
1.0895249e-05
0.0057372251
5.6588087e-06
0.0032847145
2.7348277e-06
0.0017337744
1.2060952e-06
0.00085220581
4.6565525e-07
0.00038944267
1.4247881e-07
0.0001617883
2.4835768e-08
5.6575234e-05
1.1519114e-05
-1.9011923e-08
1.1538134e-05
-1.089704e-07
5.666523e-05
-3.5586105e-07
0.0001620353
-9.2106804e-07
0.0003900081
-2.0876208e-06
0.00085337279
-4.3212306e-06
0.0017360088
-8.3389129e-06
0.0032887335
-1.5058184e-05
0.0057439465
-2.4623643e-05
0.0090947363
-3.2482605e-05
0.012841355
-2.6038916e-05
0.016066451
3.327311e-10
0.017912078
2.6039556e-05
0.017912076
3.2483098e-05
0.016066448
2.4623899e-05
0.012841351
1.5058256e-05
0.0090947335
8.338874e-06
0.0057439446
4.3211987e-06
0.0032887323
2.0876232e-06
0.0017360081
9.2107497e-07
0.00085337241
3.5586546e-07
0.00039000791
1.0897222e-07
0.00016203521
1.9012357e-08
5.6665198e-05
1.1538127e-05
-1.4367326e-08
1.1552501e-05
-8.2279998e-08
5.6733143e-05
-2.6850403e-07
0.00016222152
-6.9451552e-07
0.00039043412
-1.5735001e-06
0.00085425178
-3.2581222e-06
0.0017376934
-6.3007917e-06
0.0032917761
-1.1441588e-05
0.0057490872
-1.8911392e-05
0.0091022061
-2.5336467e-05
0.01284778
-2.0616117e-05
0.016061731
3.2362526e-10
0.017891461
2.0616703e-05
0.01789146
2.5336854e-05
0.016061727
1.8911548e-05
0.012847776
1.1441601e-05
0.0091022034
6.3007348e-06
0.0057490854
3.2580845e-06
0.0032917749
1.5734907e-06
0.0017376927
6.9451503e-07
0.0008542514
2.6850551e-07
0.00039043393
8.2280721e-08
0.00016222144
1.4367289e-08
5.6733114e-05
1.1552496e-05
-1.0728319e-08
1.156323e-05
-6.1392059e-08
5.6783806e-05
-2.0020632e-07
0.00016236033
-5.175486e-07
0.00039075145
-1.1721218e-06
0.00085490634
-2.4277409e-06
0.001738949
-4.7042218e-06
0.0032940525
-8.5872977e-06
0.0057529703
-1.4338295e-05
0.0091079571
-1.9495264e-05
0.012852937
-1.609281e-05
0.016058328
2.74309e-10
0.017875368
1.6093273e-05
0.017875367
1.9495495e-05
0.016058325
1.4338316e-05
0.012852934
8.5872286e-06
0.0091079545
4.7041325e-06
0.0057529685
2.4276779e-06
0.0032940514
1.1720841e-06
0.0017389483
5.1753057e-07
0.00085490598
2.002004e-07
0.00039075128
6.1390522e-08
0.00016236026
1.0728062e-08
5.678378e-05
1.1563224e-05
-7.9224784e-09
1.1571152e-05
-4.5302935e-08
5.6821185e-05
-1.476458e-07
0.00016246267
-3.8146451e-07
0.00039098527
-8.6361548e-07
0.00085538849
-1.7892089e-06
0.0017398746
-3.4732447e-06
0.0032957366
-6.3713669e-06
0.0057558684
-1.0740602e-05
0.0091123263
-1.4810052e-05
0.012857006
-1.2395215e-05
0.016055913
1.9030283e-10
0.017862973
1.2395493e-05
0.017862972
1.4810108e-05
0.016055911
1.0740506e-05
0.012857003
6.3712516e-06
0.0091123237
3.4731612e-06
0.0057558666
1.7891665e-06
0.0032957354
8.6359443e-07
0.0017398739
3.8145621e-07
0.00085538813
1.4764389e-07
0.00039098509
4.5302933e-08
0.0001624626
7.9228129e-09
5.6821159e-05
1.1571147e-05
-5.7901936e-09
1.1576942e-05
-3.3087196e-08
5.6848481e-05
-1.0777049e-07
0.00016253735
-2.7829545e-07
0.00039115579
-6.2982646e-07
0.00085574002
-1.3051258e-06
0.0017405499
-2.5377331e-06
0.0032969692
-4.6765314e-06
0.0057580073
-7.9548368e-06
0.0091156046
-1.1115964e-05
0.012860168
-9.4274206e-06
0.016054225
7.2044821e-11
0.017853545
9.4274671e-06
0.017853544
1.1115835e-05
0.016054222
7.9546231e-06
0.012860164
4.6763521e-06
0.009115602
2.5376039e-06
0.0057580054
1.3050385e-06
0.003296968
6.2976986e-07
0.0017405492
2.7826645e-07
0.00085573965
1.0775917e-07
0.00039115561
3.3083821e-08
0.00016253728
5.7896587e-09
5.6848456e-05
1.1576937e-05
-4.1907565e-09
1.1581133e-05
-2.3932069e-08
5.6868222e-05
-7.7907842e-08
0.00016259133
-2.0108173e-07
0.00039127896
-4.5492406e-07
0.00085599387
-9.4285017e-07
0.0017410378
-1.8360729e-06
0.0032978624
-3.3978589e-06
0.0057595691
-5.8289099e-06
0.0091180357
-8.2487904e-06
0.012862587
-7.0850813e-06
0.016053061
-6.2918661e-11
0.01784646
7.084866e-06
0.017846459
8.2484561e-06
0.016053059
5.8285801e-06
0.012862584
3.3976284e-06
0.0091180329
1.8359323e-06
0.005759567
9.4276653e-07
0.0032978611
4.5486973e-07
0.0017410371
2.0105075e-07
0.00085599347
7.7893841e-08
0.00039127877
2.3927209e-08
0.00016259125
4.1896993e-09
5.6868193e-05
1.1581127e-05
-3.005276e-09
1.1584138e-05
-1.7151871e-08
5.6882368e-05
-5.580689e-08
0.00016262998
-1.4397083e-07
0.00039136712
-3.2560593e-07
0.00085617551
-6.7491305e-07
0.0017413872
-1.3160966e-06
0.0032985036
-2.4451656e-06
0.0057606982
-4.228065e-06
0.0091198186
-6.0553734e-06
0.012864415
-5.2645803e-06
0.01605227
-1.8997377e-10
0.017841196
5.2641483e-06
0.017841195
6.0548749e-06
0.016052268
4.2276215e-06
0.012864412
2.4448663e-06
0.0091198156
1.3159306e-06
0.005760696
6.7483537e-07
0.0032985022
3.2556614e-07
0.0017413863
1.4395044e-07
0.00085617507
5.5798257e-08
0.00039136691
1.7149472e-08
0.00016262989
3.0052299e-09
5.6882335e-05
1.1584131e-05
-2.1366778e-09
1.1586275e-05
-1.2187368e-08
5.6892418e-05
-3.9634262e-08
0.00016265743
-1.0220243e-07
0.00039142969
-2.310603e-07
0.00085630438
-4.789608e-07
0.0017416351
-9.351071e-07
0.0032989598
-1.7436233e-06
0.0057615067
-3.0375043e-06
0.0091211125
-4.3997958e-06
0.012865777
-3.8699697e-06
0.016051741
-3.1072524e-10
0.017837326
3.8693045e-06
0.017837325
4.3991325e-06
0.016051738
3.0370014e-06
0.012865774
1.7433171e-06
0.0091211093
9.349367e-07
0.0057615043
4.788598e-07
0.0032989583
2.3099094e-07
0.0017416342
1.0216258e-07
0.00085630391
3.9616887e-08
0.00039142946
1.2181741e-08
0.00016265733
2.1356596e-09
5.6892382e-05
1.1586267e-05
-1.5066819e-09
1.1587781e-05
-8.5890635e-09
5.6899499e-05
-2.7918867e-08
0.00016267675
-7.1960649e-08
0.00039147373
-1.6262932e-07
0.00085639505
-3.3710228e-07
0.0017418096
-6.5883483e-07
0.0032992816
-1.2325974e-06
0.0057620805
-2.1623809e-06
0.0091220423
-3.1660117e-06
0.012866781
-2.8158027e-06
0.01605139
-3.7780403e-10
0.017834511
2.8150449e-06
0.01783451
3.1653407e-06
0.016051388
2.1619209e-06
0.012866777
1.2323528e-06
0.0091220389
6.5873231e-07
0.0057620779
3.3706129e-07
0.0032992799
1.6260292e-07
0.0017418086
7.1944305e-08
0.00085639453
2.7911196e-08
0.00039147347
8.5865351e-09
0.00016267664
1.5062913e-09
5.6899459e-05
1.1587773e-05
-1.0539436e-09
1.1588835e-05
-6.0052594e-09
5.6904449e-05
-1.9512879e-08
0.00016269026
-5.0278538e-08
0.00039150449
-1.1360007e-07
0.00085645837
-2.3547278e-07
0.0017419315
-4.6060489e-07
0.0032995067
-8.6421113e-07
0.0057624842
-1.5256592e-06
0.0091227038
-2.2560514e-06
0.012867511
-2.0278801e-06
0.016051162
-4.1095163e-10
0.017832484
2.027074e-06
0.017832482
2.255353e-06
0.016051159
1.525211e-06
0.012867507
8.6399141e-07
0.0091227001
4.6051251e-07
0.0057624814
2.3542837e-07
0.003299505
1.1356995e-07
0.0017419305
5.0260696e-08
0.00085645783
1.9504811e-08
0.00039150423
6.0028063e-09
0.00016269014
1.0537222e-09
5.6904407e-05
1.1588826e-05
-7.331884e-10
1.1589568e-05
-4.1760066e-09
5.6907892e-05
-1.3561465e-08