/*--------------------------------*- C++ -*----------------------------------*\
| =========                 |                                                 |
| \\      /  F ield         | OpenFOAM: The Open Source CFD Toolbox           |
|  \\    /   O peration     | Version:  2406                                  |
|   \\  /    A nd           | Website:  www.openfoam.com                      |
|    \\/     M anipulation  |                                                 |
\*---------------------------------------------------------------------------*/
FoamFile
{
    version     2.0;
    format      ascii;
    arch        "LSB;label=32;scalar=64";
    class       volVectorField;
    location    "2";
    object      U;
}
// * * * * * * * * * * * * * * * * * * * * * * * * * * * * * * * * * * * * * //

dimensions      [0 1 -1 0 0 0 0];

internalField   nonuniform List<vector> 
1176
(
(0.01949376 7.0818052e-07 0)
(0.066677223 8.1717788e-06 0)
(0.13357977 3.9512193e-05 0)
(0.22724674 0.00010876248 0)
(0.35591489 0.00021182459 0)
(0.52771986 0.00030408723 0)
(0.74780353 0.00031834986 0)
(1.0136213 0.00024917401 0)
(1.3093321 0.00016667663 0)
(1.601708 0.00011263711 0)
(1.8421723 7.0267556e-05 0)
(1.9793239 2.3970173e-05 0)
(1.9793239 -2.3980944e-05 0)
(1.8421723 -7.0278882e-05 0)
(1.601708 -0.00011264917 0)
(1.3093321 -0.00016668819 0)
(1.0136213 -0.00024918305 0)
(0.74780353 -0.00031835681 0)
(0.52771986 -0.0003040937 0)
(0.35591489 -0.00021182955 0)
(0.22724674 -0.00010876525 0)
(0.13357976 -3.951341e-05 0)
(0.066677222 -8.1722395e-06 0)
(0.01949376 -7.082368e-07 0)
(0.020187016 -3.7414911e-06 0)
(0.068813527 -2.4635684e-05 0)
(0.13732106 -9.6537209e-05 0)
(0.23247389 -0.00024836566 0)
(0.36204617 -0.00047263436 0)
(0.53373566 -0.00067413866 0)
(0.75267456 -0.00069479854 0)
(1.0170186 -0.00049683518 0)
(1.3116395 -0.0002335092 0)
(1.6034439 -4.9885196e-05 0)
(1.8436587 1.9790382e-05 0)
(1.9807026 1.3449261e-05 0)
(1.9807026 -1.3464625e-05 0)
(1.8436587 -1.980617e-05 0)
(1.6034439 4.9870465e-05 0)
(1.3116395 0.00023349873 0)
(1.0170186 0.00049683069 0)
(0.75267456 0.00069479871 0)
(0.53373566 0.00067413889 0)
(0.36204617 0.0004726333 0)
(0.23247389 0.00024836462 0)
(0.13732105 9.6536644e-05 0)
(0.068813524 2.4635305e-05 0)
(0.020187015 3.7414329e-06 0)
(0.020018352 2.0921886e-06 0)
(0.068327119 1.2722264e-05 0)
(0.13655352 4.6877817e-05 0)
(0.23159468 0.00011389127 0)
(0.36138612 0.00019767319 0)
(0.53366867 0.00023904248 0)
(0.75344251 0.00020567163 0)
(1.018487 0.00011358771 0)
(1.3134626 7.4520315e-05 0)
(1.6053457 8.0203769e-05 0)
(1.8455119 7.1431256e-05 0)
(1.9825253 2.8240508e-05 0)
(1.9825253 -2.8261181e-05 0)
(1.8455119 -7.1455243e-05 0)
(1.6053457 -8.0227681e-05 0)
(1.3134626 -7.4539184e-05 0)
(1.0184869 -0.00011360126 0)
(0.75344249 -0.00020567923 0)
(0.53366865 -0.000239048 0)
(0.36138611 -0.00019767796 0)
(0.23159466 -0.00011389415 0)
(0.13655352 -4.6878966e-05 0)
(0.068327113 -1.2722913e-05 0)
(0.02001835 -2.0922587e-06 0)
(0.019966558 6.9729945e-07 0)
(0.068159297 4.6649192e-06 0)
(0.13624039 1.9258964e-05 0)
(0.2311198 5.6177885e-05 0)
(0.36078165 0.00013378447 0)
(0.53306401 0.00025699006 0)
(0.75295778 0.00035155858 0)
(1.0181129 0.00036715418 0)
(1.3131865 0.00030583939 0)
(1.6051626 0.00022831068 0)
(1.8453992 0.00014658998 0)
(1.9824495 5.0510441e-05 0)
(1.9824495 -5.0530139e-05 0)
(1.8453992 -0.00014661383 0)
(1.6051626 -0.00022833406 0)
(1.3131865 -0.00030585699 0)
(1.0181128 -0.00036716824 0)
(0.75295777 -0.00035156884 0)
(0.53306401 -0.00025699777 0)
(0.36078164 -0.00013379107 0)
(0.23111979 -5.6181885e-05 0)
(0.13624038 -1.926045e-05 0)
(0.068159292 -4.6658257e-06 0)
(0.019966556 -6.9737826e-07 0)
(0.019942472 2.8600014e-07 0)
(0.068079599 1.9570778e-06 0)
(0.13608799 8.1110975e-06 0)
(0.23087963 2.3361618e-05 0)
(0.3604508 5.6168679e-05 0)
(0.53266767 0.00012188677 0)
(0.75256982 0.00022550583 0)
(1.0178045 0.00032283519 0)
(1.3128975 0.00035001434 0)
(1.6049084 0.00031364704 0)
(1.8452042 0.00021670079 0)
(1.9822948 7.6942888e-05 0)
(1.9822948 -7.6966365e-05 0)
(1.8452042 -0.00021672542 0)
(1.6049084 -0.00031366857 0)
(1.3128975 -0.00035002898 0)
(1.0178045 -0.00032284618 0)
(0.75256979 -0.00022551477 0)
(0.53266764 -0.00012189447 0)
(0.36045078 -5.6176066e-05 0)
(0.23087961 -2.3366302e-05 0)
(0.13608798 -8.1127534e-06 0)
(0.068079592 -1.9580901e-06 0)
(0.019942469 -2.860483e-07 0)
(0.01993365 1.6356667e-07 0)
(0.068049437 1.1424389e-06 0)
(0.13602797 4.8586823e-06 0)
(0.2307798 1.443031e-05 0)
(0.36030408 3.5167236e-05 0)
(0.53248305 7.5500051e-05 0)
(0.75239398 0.0001463522 0)
(1.0177156 0.00023947608 0)
(1.3129204 0.00028959332 0)
(1.6049708 0.00028322064 0)
(1.8452896 0.00020432699 0)
(1.9823923 7.4257681e-05 0)
(1.9823923 -7.4281446e-05 0)
(1.8452896 -0.0002043491 0)
(1.6049708 -0.00028323798 0)
(1.3129204 -0.00028960285 0)
(1.0177155 -0.00023948456 0)
(0.75239396 -0.00014636014 0)
(0.53248303 -7.5506132e-05 0)
(0.36030406 -3.5173369e-05 0)
(0.23077978 -1.4434506e-05 0)
(0.13602796 -4.8601343e-06 0)
(0.068049431 -1.1432512e-06 0)
(0.019933649 -1.6357297e-07 0)
(0.019924524 1.4089679e-07 0)
(0.068019047 9.7851174e-07 0)
(0.1359691 4.167554e-06 0)
(0.23068451 1.2427245e-05 0)
(0.36016628 3.0654759e-05 0)
(0.532306 6.6177371e-05 0)
(0.75220855 0.00012607408 0)
(1.0175949 0.00020696909 0)
(1.3129197 0.00027009694 0)
(1.6050837 0.00026677785 0)
(1.8454673 0.00019778977 0)
(1.9825967 7.3017019e-05 0)
(1.9825967 -7.3045687e-05 0)
(1.8454673 -0.00019780994 0)
(1.6050837 -0.00026678915 0)
(1.3129197 -0.0002701035 0)
(1.0175949 -0.00020697716 0)
(0.75220853 -0.00012608439 0)
(0.53230597 -6.6185168e-05 0)
(0.36016626 -3.0661582e-05 0)
(0.2306845 -1.2432105e-05 0)
(0.13596908 -4.1691796e-06 0)
(0.068019041 -9.7953646e-07 0)
(0.019924523 -1.4089219e-07 0)
(0.019917672 1.1347881e-07 0)
(0.067995679 8.0024225e-07 0)
(0.13592251 3.5491621e-06 0)
(0.23060621 1.0844862e-05 0)
(0.36004761 2.7691879e-05 0)
(0.5321441 6.2340315e-05 0)
(0.75202107 0.00012310408 0)
(1.017439 0.00020554997 0)
(1.312865 0.00027474353 0)
(1.6051315 0.00027688473 0)
(1.8456045 0.00020783765 0)
(1.9827863 7.7393712e-05 0)
(1.9827863 -7.7433089e-05 0)
(1.8456045 -0.00020785861 0)
(1.6051315 -0.00027689173 0)
(1.312865 -0.00027474482 0)
(1.017439 -0.0002055522 0)
(0.75202105 -0.00012311051 0)
(0.53214408 -6.2344902e-05 0)
(0.36004759 -2.7695643e-05 0)
(0.2306062 -1.0848339e-05 0)
(0.1359225 -3.5505231e-06 0)
(0.067995674 -8.009146e-07 0)
(0.019917671 -1.1348774e-07 0)
(0.019911327 1.2038155e-07 0)
(0.067973493 8.4723769e-07 0)
(0.13587716 3.9325511e-06 0)
(0.23052809 1.211307e-05 0)
(0.35992682 3.1118285e-05 0)
(0.53197759 6.9869802e-05 0)
(0.75182663 0.00013676052 0)
(1.0172677 0.00022552301 0)
(1.3127845 0.00029934137 0)
(1.6051653 0.00029619241 0)
(1.8457126 0.0002192042 0)
(1.9829305 8.0939583e-05 0)
(1.9829305 -8.0991671e-05 0)
(1.8457125 -0.0002192301 0)
(1.6051652 -0.00029620132 0)
(1.3127845 -0.00029934391 0)
(1.0172677 -0.00022552371 0)
(0.75182661 -0.00013676534 0)
(0.53197757 -6.9873865e-05 0)
(0.35992681 -3.1120664e-05 0)
(0.23052808 -1.2115481e-05 0)
(0.13587716 -3.9334999e-06 0)
(0.06797349 -8.4784258e-07 0)
(0.019911326 -1.2040869e-07 0)
(0.019903212 1.7989349e-07 0)
(0.067944984 1.2340999e-06 0)
(0.13581892 5.719442e-06 0)
(0.23042855 1.7306155e-05 0)
(0.35977588 4.3395607e-05 0)
(0.53177697 9.3922028e-05 0)
(0.75160605 0.00017471678 0)
(1.0170894 0.00027102211 0)
(1.3127218 0.00033522726 0)
(1.6052174 0.00031458513 0)
(1.8458354 0.00022173955 0)
(1.9830866 7.7572362e-05 0)
(1.9830866 -7.7636069e-05 0)
(1.8458353 -0.00022177381 0)
(1.6052174 -0.00031460015 0)
(1.3127217 -0.00033523781 0)
(1.0170894 -0.0002710243 0)
(0.75160604 -0.00017472099 0)
(0.53177696 -9.3927182e-05 0)
(0.35977587 -4.3398776e-05 0)
(0.23042854 -1.7308508e-05 0)
(0.13581892 -5.7204057e-06 0)
(0.067944983 -1.2345673e-06 0)
(0.019903211 -1.7992394e-07 0)
(0.019890133 2.9753586e-07 0)
(0.067900065 1.9932676e-06 0)
(0.13572971 8.9084185e-06 0)
(0.23028186 2.6168527e-05 0)
(0.35956461 6.307881e-05 0)
(0.53151488 0.00012992578 0)
(0.75134546 0.00022735348 0)
(1.0169176 0.00032598931 0)
(1.3126947 0.0003647249 0)
(1.6053065 0.00031383965 0)
(1.8459784 0.00019720644 0)
(1.983241 6.0058277e-05 0)
(1.9832409 -6.012907e-05 0)
(1.8459783 -0.00019725453 0)
(1.6053064 -0.00031386597 0)
(1.3126946 -0.00036474177 0)
(1.0169175 -0.00032599432 0)
(0.75134544 -0.00022735523 0)
(0.53151486 -0.00012992888 0)
(0.35956461 -6.3081067e-05 0)
(0.23028186 -2.6170337e-05 0)
(0.13572971 -8.9090955e-06 0)
(0.067900066 -1.9936364e-06 0)
(0.019890133 -2.9757023e-07 0)
(0.019869374 4.5289933e-07 0)
(0.067830739 2.9858226e-06 0)
(0.13559659 1.2750929e-05 0)
(0.23007253 3.6373016e-05 0)
(0.35928017 8.4030446e-05 0)
(0.53118792 0.00016363516 0)
(0.75105651 0.00026603938 0)
(1.0167763 0.0003511337 0)
(1.3127214 0.00035291221 0)
(1.6054427 0.00024970311 0)
(1.8461259 0.00011567718 0)
(1.9833515 2.809307e-05 0)
(1.9833515 -2.8165759e-05 0)
(1.8461258 -0.00011574108 0)
(1.6054426 -0.00024974695 0)
(1.3127213 -0.00035294111 0)
(1.0167762 -0.00035114716 0)
(0.75105647 -0.00026604455 0)
(0.5311879 -0.00016363911 0)
(0.35928016 -8.4033234e-05 0)
(0.23007253 -3.6375155e-05 0)
(0.13559659 -1.2751852e-05 0)
(0.067830742 -2.9861211e-06 0)
(0.019869375 -4.5291557e-07 0)
(0.019840471 5.9416139e-07 0)
(0.067736917 3.8635283e-06 0)
(0.13542261 1.5666203e-05 0)
(0.22981187 4.3203726e-05 0)
(0.35894958 9.463235e-05 0)
(0.53084716 0.000170455 0)
(0.75081274 0.00025099874 0)
(1.0167055 0.00028126893 0)
(1.3128438 0.00020877336 0)
(1.6056304 4.7696765e-05 0)
(1.8462366 -6.8461913e-05 0)
(1.9833757 -4.4845314e-05 0)
(1.9833757 4.47726e-05 0)
(1.8462365 6.8386572e-05 0)
(1.6056303 -4.7755302e-05 0)
(1.3128437 -0.00020881571 0)
(1.0167054 -0.00028129328 0)
(0.75081269 -0.00025100693 0)
(0.53084713 -0.00017045953 0)
(0.35894956 -9.4634051e-05 0)
(0.22981187 -4.320498e-05 0)
(0.13542261 -1.5666841e-05 0)
(0.067736916 -3.8636082e-06 0)
(0.019840471 -5.9415048e-07 0)
(0.019806713 6.5311327e-07 0)
(0.067630953 4.1567289e-06 0)
(0.13523465 1.5736897e-05 0)
(0.22954909 4.1191902e-05 0)
(0.35865312 8.2295438e-05 0)
(0.53060414 0.00012911066 0)
(0.75071736 0.00013709167 0)
(1.0168276 4.1994387e-05 0)
(1.3131102 -0.00016134056 0)
(1.6058449 -0.00037712541 0)
(1.8462342 -0.00041784153 0)
(1.9831946 -0.00018048217 0)
(1.9831946 0.00018041192 0)
(1.8462341 0.00041775878 0)
(1.6058448 0.00037705164 0)
(1.31311 0.00016128507 0)
(1.0168275 -4.2030956e-05 0)
(0.75071729 -0.00013711621 0)
(0.53060409 -0.00012912516 0)
(0.35865309 -8.2302038e-05 0)
(0.22954908 -4.1195129e-05 0)
(0.13523464 -1.5738242e-05 0)
(0.067630949 -4.1571064e-06 0)
(0.019806712 -6.5311153e-07 0)
(0.019774987 5.6358874e-07 0)
(0.067536731 3.4720934e-06 0)
(0.13508069 1.1374831e-05 0)
(0.2293644 2.6227999e-05 0)
(0.35850697 3.9197467e-05 0)
(0.5306021 1.5687707e-05 0)
(0.75096883 -0.00011590645 0)
(1.017298 -0.00042432312 0)
(1.3135777 -0.00083132035 0)
(1.6060406 -0.0010990305 0)
(1.8460093 -0.00098370556 0)
(1.982667 -0.00039564587 0)
(1.9826669 0.00039557903 0)
(1.8460092 0.00098361817 0)
(1.6060404 0.0010989458 0)
(1.3135775 0.00083125575 0)
(1.0172979 0.00042428102 0)
(0.75096872 0.00011587836 0)
(0.53060202 -1.5706041e-05 0)
(0.35850692 -3.920611e-05 0)
(0.22936437 -2.6231676e-05 0)
(0.13508067 -1.1376305e-05 0)
(0.067536723 -3.4725634e-06 0)
(0.019774985 -5.6354152e-07 0)
(0.019754885 2.867648e-07 0)
(0.067486573 1.5319699e-06 0)
(0.13502357 1.6698293e-06 0)
(0.22935847 -4.566935e-06 0)
(0.35865993 -4.3359119e-05 0)
(0.53105381 -0.000177839 0)
(0.75178398 -0.00051765058 0)
(1.0182963 -0.0011339174 0)
(1.3143198 -0.0018341825 0)
(1.60616 -0.0021591672 0)
(1.8454242 -0.0017945118 0)
(1.9816185 -0.00069966123 0)
(1.9816185 0.000699592 0)
(1.8454241 0.0017944224 0)
(1.6061598 0.0021590787 0)
(1.3143196 0.0018341107 0)
(1.0182961 0.0011338683 0)
(0.75178383 0.00051761776 0)
(0.53105369 0.00017781676 0)
(0.35865985 4.3348275e-05 0)
(0.22935841 4.5623454e-06 0)
(0.13502354 -1.6716983e-06 0)
(0.067486557 -1.5325396e-06 0)
(0.019754881 -2.8679003e-07 0)
(0.019757564 -1.8014579e-07 0)
(0.067517444 -1.7256644e-06 0)
(0.13513441 -1.3554001e-05 0)
(0.22964637 -5.1144285e-05 0)
(0.35927287 -0.00016253014 0)
(0.53214792 -0.00044597564 0)
(0.75337075 -0.0010535892 0)
(1.0200069 -0.0020622652 0)
(1.3154261 -0.0031500194 0)
(1.6061508 -0.0035569437 0)
(1.8443327 -0.0028526939 0)
(1.9798591 -0.0010944303 0)
(1.9798591 0.0010943483 0)
(1.8443327 0.0028526045 0)
(1.6061506 0.003556863 0)
(1.3154259 0.0031499535 0)
(1.0200066 0.0020622191 0)
(0.75337056 0.0010535603 0)
(0.53214777 0.00044595698 0)
(0.35927277 0.00016252135 0)
(0.2296463 5.1141149e-05 0)
(0.13513436 1.3552928e-05 0)
(0.067517422 1.7253182e-06 0)
(0.019757558 1.8019553e-07 0)
(0.019793319 -8.259402e-07 0)
(0.067662575 -6.154889e-06 0)
(0.13547469 -3.3301994e-05 0)
(0.23032028 -0.00011028576 0)
(0.36046923 -0.0003097664 0)
(0.5340372 -0.00076877322 0)
(0.75589997 -0.0016856649 0)
(1.0225962 -0.0031489379 0)
(1.3170029 -0.0047088137 0)
(1.6059864 -0.0052590555 0)
(1.8426008 -0.0041353238 0)
(1.9772072 -0.001574882 0)
(1.9772072 0.0015747783 0)
(1.8426007 0.004135229 0)
(1.6059862 0.0052589799 0)
(1.3170026 0.0047087568 0)
(1.022596 0.0031488972 0)
(0.75589975 0.0016856397 0)
(0.53403702 0.00076875848 0)
(0.3604691 0.00030975892 0)
(0.2303202 0.00011028292 0)
(0.13547464 3.3301182e-05 0)
(0.067662549 6.1546213e-06 0)
(0.019793312 8.2605118e-07 0)
(0.019870045 -1.5876346e-06 0)
(0.067946509 -1.135515e-05 0)
(0.13608799 -5.5745443e-05 0)
(0.2314431 -0.00017654549 0)
(0.36232788 -0.00047163123 0)
(0.53681193 -0.0011169926 0)
(0.75947379 -0.0023581181 0)
(1.026185 -0.0043039355 0)
(1.3191657 -0.0063941738 0)
(1.6056815 -0.0071944005 0)
(1.8401159 -0.005595603 0)
(1.9735054 -0.0021278064 0)
(1.9735054 0.0021276848 0)
(1.8401158 0.0055955013 0)
(1.6056812 0.0071943215 0)
(1.3191655 0.0063941229 0)
(1.0261847 0.0043039007 0)
(0.75947355 0.0023580963 0)
(0.53681174 0.0011169824 0)
(0.36232773 0.00047162722 0)
(0.231443 0.00017654437 0)
(0.13608793 5.574528e-05 0)
(0.067946478 1.135513e-05 0)
(0.019870036 1.587753e-06 0)
(0.019991284 -2.3801087e-06 0)
(0.068379049 -1.6754795e-05 0)
(0.13698905 -7.8410521e-05 0)
(0.23303061 -0.00024270538 0)
(0.36485976 -0.000630757 0)
(0.54047513 -0.0014539778 0)
(0.76409868 -0.0030019463 0)
(1.0308166 -0.0054140785 0)
(1.3220143 -0.0080542926 0)
(1.6053081 -0.0091971677 0)
(1.8368121 -0.0071600906 0)
(1.9686419 -0.0027242893 0)
(1.9686419 0.0027241597 0)
(1.8368119 0.0071599837 0)
(1.6053078 0.0091970842 0)
(1.322014 0.0080542415 0)
(1.0308163 0.0054140454 0)
(0.76409841 0.003001924 0)
(0.54047491 0.0014539666 0)
(0.3648596 0.00063075213 0)
(0.2330305 0.00024270397 0)
(0.13698898 7.8410411e-05 0)
(0.068379015 1.675476e-05 0)
(0.019991274 2.3802366e-06 0)
(0.020155441 -3.1120151e-06 0)
(0.06895307 -2.1738633e-05 0)
(0.13816035 -9.8781255e-05 0)
(0.23504779 -0.00030154415 0)
(0.36800442 -0.00077019007 0)
(0.54493905 -0.0017447977 0)
(0.76967832 -0.0035517385 0)
(1.0364382 -0.00636905 0)
(1.3255949 -0.0095379423 0)
(1.6049808 -0.011047881 0)
(1.832716 -0.0087262526 0)
(1.9625796 -0.0033202793 0)
(1.9625795 0.0033201487 0)
(1.8327158 0.0087261438 0)
(1.6049805 0.011047799 0)
(1.3255946 0.0095378875 0)
(1.0364379 0.0063690161 0)
(0.76967802 0.0035517193 0)
(0.5449388 0.0017447903 0)
(0.36800423 0.00077018744 0)
(0.23504767 0.0003015438 0)
(0.13816027 9.8781397e-05 0)
(0.06895303 2.173888e-05 0)
(0.020155429 3.1121234e-06 0)
(0.020356319 -3.7123258e-06 0)
(0.069646538 -2.5825471e-05 0)
(0.13955653 -0.00011496618 0)
(0.23741646 -0.00034770525 0)
(0.37164175 -0.00087757548 0)
(0.55004035 -0.0019644562 0)
(0.77602835 -0.0039615022 0)
(1.0429067 -0.0070886946 0)
(1.3298852 -0.010723971 0)
(1.6048036 -0.012593078 0)
(1.8279573 -0.010175684 0)
(1.9553724 -0.0038735448 0)
(1.9553723 0.0038734162 0)
(1.8279571 0.010175576 0)
(1.6048032 0.012593002 0)
(1.3298848 0.010723917 0)
(1.0429064 0.0070886579 0)
(0.77602801 0.0039614827 0)
(0.55004008 0.0019644494 0)
(0.37164154 0.00087757305 0)
(0.23741631 0.00034770498 0)
(0.13955644 0.00011496622 0)
(0.069646492 2.5825775e-05 0)
(0.020356306 3.7123759e-06 0)
(0.020584644 -4.1385646e-06 0)
(0.070427716 -2.8722104e-05 0)
(0.1411145 -0.00012586909 0)
(0.24003171 -0.00037804659 0)
(0.3756155 -0.0009456057 0)
(0.55557038 -0.0020981454 0)
(0.78291079 -0.0042039015 0)
(1.0500181 -0.0075232083 0)
(1.3348101 -0.011521285 0)
(1.6048554 -0.013749421 0)
(1.8227227 -0.011404548 0)
(1.9471508 -0.0043603652 0)
(1.9471507 0.0043602431 0)
(1.8227224 0.011404441 0)
(1.604855 0.013749345 0)
(1.3348097 0.011521235 0)
(1.0500177 0.0075231751 0)
(0.78291042 0.0042038865 0)
(0.55557009 0.0020981425 0)
(0.37561528 0.00094560566 0)
(0.24003156 0.00037804747 0)
(0.14111441 0.00012586953 0)
(0.070427667 2.8722498e-05 0)
(0.020584629 4.1385752e-06 0)
(0.020830037 -4.3757192e-06 0)
(0.07126129 -3.0320516e-05 0)
(0.14276438 -0.00013110133 0)
(0.2427777 -0.00039152972 0)
(0.37975345 -0.00097204416 0)
(0.56129804 -0.0021413597 0)
(0.79005635 -0.0042701923 0)
(1.057534 -0.0076531595 0)
(1.3402663 -0.011870088 0)
(1.6052465 -0.014510162 0)
(1.8172071 -0.012325589 0)
(1.9380948 -0.0047707039 0)
(1.9380947 0.0047705961 0)
(1.8172068 0.012325488 0)
(1.6052461 0.014510085 0)
(1.3402659 0.01187004 0)
(1.0575335 0.0076531301 0)
(0.79005596 0.0042701818 0)
(0.56129773 0.0021413593 0)
(0.37975321 0.00097204538 0)
(0.24277753 0.00039153116 0)
(0.14276427 0.00013110194 0)
(0.071261235 3.032093e-05 0)
(0.02083002 4.3757099e-06 0)
(0.021081328 -4.412411e-06 0)
(0.072109632 -3.0547763e-05 0)
(0.14443255 -0.0001305582 0)
(0.24553388 -0.00038813887 0)
(0.38387704 -0.00095782 0)
(0.56698008 -0.0020979705 0)
(0.79716835 -0.0041690865 0)
(1.0651723 -0.0074875145 0)
(1.346112 -0.011759541 0)
(1.6060654 -0.014767156 0)
(1.8116488 -0.012851156 0)
(1.9284319 -0.0050719022 0)
(1.9284318 0.0050718161 0)
(1.8116485 0.012851069 0)
(1.606065 0.014767081 0)
(1.3461115 0.01175949 0)
(1.0651718 0.0074874869 0)
(0.79716793 0.0041690771 0)
(0.56697975 0.0020979693 0)
(0.38387679 0.00095782063 0)
(0.24553371 0.00038814002 0)
(0.14443243 0.00013055859 0)
(0.072109574 3.0548127e-05 0)
(0.02108131 4.4123706e-06 0)
(0.021327321 -4.2566196e-06 0)
(0.072936012 -2.9467384e-05 0)
(0.14604938 -0.00012473785 0)
(0.24819078 -0.00036958095 0)
(0.38783231 -0.00090790289 0)
(0.57241669 -0.0019805861 0)
(0.80400022 -0.0039277301 0)
(1.0726389 -0.0070733978 0)
(1.3521435 -0.011241026 0)
(1.6072833 -0.014479587 0)
(1.806264 -0.012930793 0)
(1.9184617 -0.0052122248 0)
(1.9184616 0.0052121584 0)
(1.8062637 0.012930728 0)
(1.6072829 0.014479526 0)
(1.352143 0.011240985 0)
(1.0726384 0.0070733784 0)
(0.80399978 0.0039277242 0)
(0.57241634 0.0019805847 0)
(0.38783205 0.00090790254 0)
(0.24819059 0.00036958127 0)
(0.14604926 0.00012473783 0)
(0.072935952 2.9467557e-05 0)
(0.021327303 4.2565381e-06 0)
(0.021558613 -3.9505829e-06 0)
(0.073710025 -2.7361918e-05 0)
(0.14755797 -0.00011489847 0)
(0.25065986 -0.00033957452 0)
(0.3914953 -0.00083132781 0)
(0.57744643 -0.001808298 0)
(0.81035328 -0.0035829745 0)
(1.0797056 -0.0064755864 0)
(1.3581035 -0.010406703 0)
(1.608852 -0.013729841 0)
(1.8012312 -0.012586577 0)
(1.9085823 -0.0051729024 0)
(1.9085823 0.0051728474 0)
(1.8012309 0.012586532 0)
(1.6088515 0.013729805 0)
(1.358103 0.010406684 0)
(1.079705 0.0064755847 0)
(0.81035283 0.003582984 0)
(0.57744608 0.0018083088 0)
(0.39149504 0.00083133566 0)
(0.25065968 0.00033957894 0)
(0.14755785 0.00011490008 0)
(0.073709963 2.736268e-05 0)
(0.021558594 3.9505818e-06 0)
(0.021768582 -3.545762e-06 0)
(0.074410516 -2.4576582e-05 0)
(0.14891917 -0.00010250594 0)
(0.252881 -0.00030237703 0)
(0.39478264 -0.00073831403 0)
(0.58196029 -0.0016026274 0)
(0.81608748 -0.0031749309 0)
(1.0861949 -0.0057616306 0)
(1.3638001 -0.0093621796 0)
(1.6106846 -0.012635607 0)
(1.7966776 -0.011897348 0)
(1.8990765 -0.0049776827 0)
(1.8990764 0.0049776386 0)
(1.7966773 0.011897319 0)
(1.6106841 0.012635596 0)
(1.3637996 0.0093621806 0)
(1.0861943 0.0057616371 0)
(0.81608703 0.0031749387 0)
(0.58195994 0.0016026328 0)
(0.39478238 0.00073831768 0)
(0.25288082 0.00030237891 0)
(0.14891905 0.00010250645 0)
(0.074410454 2.4576956e-05 0)
(0.021768564 3.5457097e-06 0)
(0.021953485 -3.0927046e-06 0)
(0.075025849 -2.145479e-05 0)
(0.15011208 -8.8971412e-05 0)
(0.25482309 -0.00026206443 0)
(0.39765236 -0.00063854555 0)
(0.58590316 -0.0013839059 0)
(0.82112641 -0.0027422318 0)
(1.0919932 -0.0049976522 0)
(1.3690858 -0.0082111242 0)
(1.6126769 -0.011319604 0)
(1.7926804 -0.010952586 0)
(1.8901825 -0.0046599111 0)
(1.8901824 0.0046598807 0)
(1.79268 0.010952572 0)
(1.6126764 0.011319615 0)
(1.3690852 0.0082111457 0)
(1.0919927 0.0049976738 0)
(0.82112598 0.0027422499 0)
(0.58590284 0.0013839187 0)
(0.39765212 0.00063855381 0)
(0.25482292 0.00026206846 0)
(0.15011197 8.8972668e-05 0)
(0.075025791 2.145528e-05 0)
(0.021953467 3.092696e-06 0)
(0.022112214 -2.6336503e-06 0)
(0.075552968 -1.8285606e-05 0)
(0.15113195 -7.5441721e-05 0)
(0.25648035 -0.00022193292 0)
(0.40009818 -0.00053979311 0)
(0.58926662 -0.0011683969 0)
(0.8254505 -0.002316072 0)
(1.0970489 -0.0042387606 0)
(1.373859 -0.0070410657 0)
(1.6147237 -0.0098946647 0)
(1.7892693 -0.0098374398 0)
(1.8820739 -0.0042534979 0)
(1.8820737 0.0042534825 0)
(1.789269 0.0098374414 0)
(1.6147232 0.0098946869 0)
(1.3738584 0.0070410939 0)
(1.0970483 0.0042387862 0)
(0.82545009 0.0023160934 0)
(0.5892663 0.0011684124 0)
(0.40009794 0.00053980291 0)
(0.25648018 0.00022193768 0)
(0.15113184 7.5443291e-05 0)
(0.075552912 1.8286217e-05 0)
(0.022112197 2.6336786e-06 0)
(0.022245545 -2.1964101e-06 0)
(0.075994894 -1.5262097e-05 0)
(0.15198546 -6.2669412e-05 0)
(0.25786492 -0.00018415479 0)
(0.4021394 -0.00044719822 0)
(0.59207637 -0.00096693077 0)
(0.82908358 -0.001917633 0)
(1.1013613 -0.0035237181 0)
(1.378065 -0.0059150039 0)
(1.6167138 -0.0084668957 0)
(1.7864323 -0.0086345897 0)
(1.8748543 -0.0037938359 0)
(1.8748542 0.0037938373 0)
(1.7864319 0.0086346101 0)
(1.6167133 0.0084669331 0)
(1.3780644 0.0059150394 0)
(1.1013608 0.0035237454 0)
(0.82908319 0.0019176527 0)
(0.59207607 0.00096694293 0)
(0.40213918 0.00044720522 0)
(0.25786476 0.00018415796 0)
(0.15198536 6.2670232e-05 0)
(0.075994839 1.5262462e-05 0)
(0.022245528 2.1963938e-06 0)
(0.02235533 -1.7962534e-06 0)
(0.076358139 -1.2491731e-05 0)
(0.15268588 -5.1069702e-05 0)
(0.25899947 -0.000149925 0)
(0.40381057 -0.00036357011 0)
(0.5943791 -0.00078540033 0)
(0.83207757 -0.0015584838 0)
(1.1049664 -0.0028747988 0)
(1.3816892 -0.0048736661 0)
(1.6185832 -0.0071012412 0)
(1.7841263 -0.0074192138 0)
(1.8685654 -0.0033128615 0)
(1.8685653 0.0033128768 0)
(1.7841259 0.0074192489 0)
(1.6185826 0.0071012928 0)
(1.3816886 0.0048737084 0)
(1.1049659 0.0028748281 0)
(0.8320772 0.0015585036 0)
(0.59437881 0.00078541324 0)
(0.40381035 0.00036357848 0)
(0.25899931 0.00014992917 0)
(0.15268578 5.1071098e-05 0)
(0.076358085 1.249223e-05 0)
(0.022355313 1.7962996e-06 0)
(0.022444042 -1.4422546e-06 0)
(0.076651195 -1.0038219e-05 0)
(0.15325016 -4.0875037e-05 0)
(0.25991234 -0.00011989934 0)
(0.40515432 -0.00029040868 0)
(0.59623272 -0.00062688948 0)
(0.83450044 -0.0012447319 0)
(1.1079233 -0.0023045682 0)
(1.3847465 -0.0039435465 0)
(1.6202834 -0.0058451112 0)
(1.7822917 -0.0062504197 0)
(1.8631975 -0.0028362447 0)
(1.8631973 0.0028362741 0)
(1.7822913 0.0062504662 0)
(1.6202828 0.005845166 0)
(1.3847459 0.0039435854 0)
(1.1079229 0.0023045902 0)
(0.83450008 0.001244744 0)
(0.59623244 0.00062689753 0)
(0.4051541 0.00029041476 0)
(0.25991219 0.00011990249 0)
(0.15325006 4.0876238e-05 0)
(0.076651143 1.0038523e-05 0)
(0.022444026 1.4422827e-06 0)
(0.022514486 -1.1386293e-06 0)
(0.076883575 -7.931482e-06 0)
(0.15369705 -3.2178048e-05 0)
(0.26063454 -9.4323201e-05 0)
(0.40621684 -0.00022822185 0)
(0.59770008 -0.00049234812 0)
(0.83642817 -0.00097824915 0)
(1.1103061 -0.0018176383 0)
(1.3872753 -0.0031377819 0)
(1.6217863 -0.0047275906 0)
(1.7808618 -0.0051697936 0)
(1.8587015 -0.0023836093 0)
(1.8587014 0.0023836557 0)
(1.7808614 0.0051698531 0)
(1.6217857 0.0047276428 0)
(1.3872748 0.0031378135 0)
(1.1103056 0.0018176528 0)
(0.83642783 0.00097825513 0)
(0.59769981 0.00049235204 0)
(0.40621663 0.0002282251 0)
(0.26063439 9.4324787e-05 0)
(0.15369695 3.2178538e-05 0)
(0.076883523 7.9316029e-06 0)
(0.02251447 1.1386688e-06 0)
(0.022569537 -8.8513928e-07 0)
(0.077064946 -6.170547e-06 0)
(0.15404546 -2.4949441e-05 0)
(0.26119706 -7.3090532e-05 0)
(0.40704411 -0.00017668483 0)
(0.59884385 -0.00038096703 0)
(0.83793804 -0.0007574589 0)
(1.1121947 -0.0014121636 0)
(1.3893292 -0.0024580735 0)
(1.6230815 -0.0037617458 0)
(1.7797689 -0.0042031562 0)
(1.8550021 -0.0019686774 0)
(1.8550019 0.0019687362 0)
(1.7797685 0.0042032189 0)
(1.623081 0.0037617927 0)
(1.3893287 0.0024580973 0)
(1.1121943 0.001412173 0)
(0.8379377 0.00075746366 0)
(0.59884358 0.00038097239 0)
(0.40704391 0.00017668956 0)
(0.26119691 7.3093068e-05 0)
(0.15404537 2.4950638e-05 0)
(0.077064896 6.1707024e-06 0)
(0.022569521 8.8519731e-07 0)
(0.022611933 -6.7839077e-07 0)
(0.077204462 -4.7328198e-06 0)
(0.15431321 -1.9076384e-05 0)
(0.26162899 -5.5856189e-05 0)
(0.40767911 -0.0001349123 0)
(0.59972275 -0.00029076359 0)
(0.83910354 -0.00057849047 0)
(1.1136691 -0.0010819458 0)
(1.3909694 -0.0018979821 0)
(1.6241724 -0.0029479548 0)
(1.7789488 -0.0033627767 0)
(1.8520082 -0.0015996296 0)
(1.852008 0.0015996933 0)
(1.7789484 0.0033628359 0)
(1.6241719 0.0029479923 0)
(1.390969 0.0018979958 0)
(1.1136687 0.0010819454 0)
(0.83910321 0.0005784863 0)
(0.59972249 0.00029076226 0)
(0.40767892 0.00013491293 0)
(0.26162885 5.5856818e-05 0)
(0.15431312 1.9076884e-05 0)
(0.077204418 4.7327355e-06 0)
(0.02261192 6.7842348e-07 0)
(0.022644147 -5.1320572e-07 0)
(0.077310358 -3.5829419e-06 0)
(0.15451625 -1.4399648e-05 0)
(0.2619563 -4.2143105e-05 0)
(0.40816017 -0.00010171414 0)
(0.60038927 -0.0002191222 0)
(0.83999115 -0.00043622134 0)
(1.1148038 -0.00081829326 0)
(1.3922587 -0.0014459713 0)
(1.6250721 -0.0022775793 0)
(1.778344 -0.0026502139 0)
(1.8496226 -0.001279935 0)
(1.8496224 0.0012799966 0)
(1.7783436 0.0026502655 0)
(1.6250716 0.0022776041 0)
(1.3922583 0.0014459775 0)
(1.1148034 0.0008182897 0)
(0.83999085 0.000436216 0)
(0.60038903 0.00021911989 0)
(0.40815999 0.00010171389 0)
(0.26195617 4.2143354e-05 0)
(0.15451617 1.4399949e-05 0)
(0.077310317 3.5828219e-06 0)
(0.022644135 5.132571e-07 0)
(0.022668323 -3.8362107e-07 0)
(0.077389752 -2.6798605e-06 0)
(0.15466835 -1.074118e-05 0)
(0.26220133 -3.1422783e-05 0)
(0.4085202 -7.5787782e-05 0)
(0.60088858 -0.00016320371 0)
(0.84065872 -0.00032507848 0)
(1.1156656 -0.00061149013 0)
(1.3932574 -0.0010879222 0)
(1.6258 -0.0017363896 0)
(1.7779054 -0.0020593234 0)
(1.8477493 -0.001009397 0)
(1.8477491 0.0010094493 0)
(1.777905 0.0020593605 0)
(1.6257996 0.0017363989 0)
(1.393257 0.0010879178 0)
(1.1156652 0.00061148167 0)
(0.84065841 0.00032507084 0)
(0.60088834 0.00016319883 0)
(0.40852003 7.5785231e-05 0)
(0.26220121 3.1421754e-05 0)
(0.15466828 1.0741069e-05 0)
(0.077389715 2.6795579e-06 0)
(0.022668312 3.8362303e-07 0)
(0.02268626 -2.835781e-07 0)
(0.077448602 -1.9820429e-06 0)
(0.15478101 -7.9242232e-06 0)
(0.2623827 -2.3173054e-05 0)
(0.40878664 -5.5854503e-05 0)
(0.6012584 -0.00012023211 0)
(0.84115495 -0.00023960026 0)
(1.1163121 -0.00045184985 0)
(1.3940205 -0.00080902482 0)
(1.6263787 -0.0013073793 0)
(1.7775923 -0.0015790403 0)
(1.8462983 -0.00078522218 0)
(1.8462982 0.00078525821 0)
(1.7775919 0.001579058 0)
(1.6263783 0.0013073744 0)
(1.3940201 0.00080901248 0)
(1.1163117 0.00045183976 0)
(0.84115466 0.00023959425 0)
(0.60125816 0.00012022921 0)
(0.40878647 5.5853213e-05 0)
(0.26238259 2.3172628e-05 0)
(0.15478094 7.9241515e-06 0)
(0.077448568 1.9820588e-06 0)
(0.02268625 2.8357404e-07 0)
(0.022699426 -2.0744936e-07 0)
(0.077491762 -1.4506748e-06 0)
(0.15486358 -5.78611e-06 0)
(0.26251555 -1.6914537e-05 0)
(0.40898174 -4.0744787e-05 0)
(0.60152941 -8.7673257e-05 0)
(0.84151983 -0.00017478778 0)
(1.1167915 -0.00033039225 0)
(1.3945961 -0.00059506669 0)
(1.6268312 -0.00097287859 0)
(1.7773721 -0.0011956744 0)
(1.845189 -0.00060297008 0)
(1.8451889 0.00060298322 0)
(1.7773718 0.0011956706 0)
(1.6268308 0.00097285884 0)
(1.3945957 0.00059504573 0)
(1.1167911 0.00033037719 0)
(0.84151952 0.00017477749 0)
(0.60152917 8.766641e-05 0)
(0.40898157 4.074077e-05 0)
(0.26251543 1.6912721e-05 0)
(0.1548635 5.785499e-06 0)
(0.077491726 1.4505181e-06 0)
(0.022699416 2.0744269e-07 0)
(0.022708994 -1.5028376e-07 0)
(0.077523102 -1.051358e-06 0)
(0.15492349 -4.1841868e-06 0)
(0.2626119 -1.2227637e-05 0)
(0.4091232 -2.9437857e-05 0)
(0.60172604 -6.3319163e-05 0)
(0.84178536 -0.00012627774 0)
(1.1171431 -0.00023920356 0)
(1.395025 -0.00043320058 0)
(1.6271798 -0.0007159907 0)
(1.7772196 -0.00089471297 0)
(1.8443512 -0.0004573709 0)
(1.8443511 0.00045735854 0)
(1.7772193 0.00089468475 0)
(1.6271794 0.0007159546 0)
(1.3950246 0.00043317194 0)
(1.1171427 0.00023918641 0)
(0.84178504 0.0001262676 0)
(0.60172579 6.3312611e-05 0)
(0.40912302 2.943368e-05 0)
(0.26261178 1.2225493e-05 0)
(0.15492342 4.1833993e-06 0)
(0.077523067 1.0510842e-06 0)
(0.022708984 1.5023045e-07 0)
(0.022715882 -1.0787336e-07 0)
(0.077545647 -7.5491419e-07 0)
(0.15496656 -2.9981447e-06 0)
(0.26268113 -8.7589402e-06 0)
(0.40922482 -2.1075511e-05 0)
(0.60186737 -4.5314783e-05 0)
(0.84197675 -9.0396341e-05 0)
(1.1173984 -0.00017156583 0)
(1.395341 -0.00031229832 0)
(1.6274445 -0.00052144095 0)
(1.7771154 -0.00066201266 0)
(1.8437258 -0.00034289487 0)
(1.8437257 0.00034285836 0)
(1.7771151 0.00066196717 0)
(1.6274441 0.00052139036 0)
(1.3953406 0.00031226077 0)
(1.117398 0.00017154425 0)
(0.8419764 9.0385444e-05 0)
(0.6018671 4.5309395e-05 0)
(0.40922463 2.1072621e-05 0)
(0.26268099 8.7576402e-06 0)
(0.15496648 2.9975747e-06 0)
(0.077545605 7.5501834e-07 0)
(0.02271587 1.0786093e-07 0)
(0.022720797 -7.6766449e-08 0)
(0.077561721 -5.3737641e-07 0)
(0.15499725 -2.1299381e-06 0)
(0.26273043 -6.2207019e-06 0)
(0.40929718 -1.4960135e-05 0)