/*--------------------------------*- C++ -*----------------------------------*\
  =========                 |
  \\      /  F ield         | OpenFOAM: The Open Source CFD Toolbox
   \\    /   O peration     | Website:  https://openfoam.org
    \\  /    A nd           | Version:  10
     \\/     M anipulation  |
\*---------------------------------------------------------------------------*/
FoamFile
{
    format      ascii;
    class       volScalarField;
    location    "1.8";
    object      T;
}
// * * * * * * * * * * * * * * * * * * * * * * * * * * * * * * * * * * * * * //

dimensions      [0 0 -1 0 0 0 0];

internalField   nonuniform List<scalar> 
100
(
0.0757082
0.224441
0.365223
0.493067
0.603443
0.692442
0.756911
0.794567
0.804074
0.785096
0.738306
0.665362
0.568846
0.452179
0.319493
0.175489
0.0252679
-0.125848
-0.272506
-0.40951
-0.532007
-0.635657
-0.716789
-0.772529
-0.800901
-0.8009
-0.772528
-0.716788
-0.635656
-0.532005
-0.409508
-0.272504
-0.125846
0.0252701
0.175491
0.319495
0.45218
0.568847
0.665362
0.738307
0.785097
0.804074
0.794566
0.756911
0.692441
0.603442
0.493065
0.365221
0.224439
0.0757066
-0.0757082
-0.224441
-0.365223
-0.493066
-0.603443
-0.692442
-0.756911
-0.794566
-0.804074
-0.785096
-0.738306
-0.665362
-0.568846
-0.452179
-0.319493
-0.175489
-0.0252684
0.125848
0.272505
0.409509
0.532006
0.635657
0.716789
0.772528
0.800901
0.800901
0.772528
0.716789
0.635656
0.532006
0.409509
0.272504
0.125846
-0.0252696
-0.17549
-0.319494
-0.45218
-0.568847
-0.665363
-0.738307
-0.785097
-0.804074
-0.794566
-0.756911
-0.692441
-0.603442
-0.493065
-0.365221
-0.224439
-0.0757065
)
;

boundaryField
{
    inlet
    {
        type            cyclic;
    }
    outlet
    {
        type            cyclic;
    }
    bottom
    {
        type            slip;
    }
    top
    {
        type            slip;
    }
    frontAndBack
    {
        type            empty;
    }
}


// ************************************************************************* //
