/*--------------------------------*- C++ -*----------------------------------*\
  =========                 |
  \\      /  F ield         | OpenFOAM: The Open Source CFD Toolbox
   \\    /   O peration     | Website:  https://openfoam.org
    \\  /    A nd           | Version:  10
     \\/     M anipulation  |
\*---------------------------------------------------------------------------*/
FoamFile
{
    format      ascii;
    class       volScalarField;
    location    "2.6";
    object      T;
}
// * * * * * * * * * * * * * * * * * * * * * * * * * * * * * * * * * * * * * //

dimensions      [0 0 -1 0 0 0 0];

internalField   nonuniform List<scalar> 
100
(
0.0392868
0.116468
0.189522
0.255863
0.31314
0.359324
0.392779
0.412319
0.417252
0.407404
0.383124
0.345271
0.295187
0.234646
0.165792
0.0910655
0.0131126
-0.0653049
-0.141409
-0.212503
-0.27607
-0.329856
-0.371958
-0.400882
-0.415605
-0.415605
-0.400882
-0.371958
-0.329856
-0.27607
-0.212503
-0.141409
-0.0653045
0.0131129
0.0910659
0.165793
0.234646
0.295187
0.345271
0.383124
0.407404
0.417252
0.412318
0.392778
0.359323
0.313139
0.255863
0.189521
0.116467
0.0392858
-0.0392867
-0.116467
-0.189522
-0.255863
-0.31314
-0.359324
-0.392778
-0.412318
-0.417252
-0.407404
-0.383124
-0.345271
-0.295187
-0.234646
-0.165792
-0.0910651
-0.0131121
0.0653053
0.141409
0.212504
0.27607
0.329857
0.371958
0.400882
0.415605
0.415605
0.400882
0.371957
0.329856
0.276069
0.212503
0.141408
0.0653041
-0.0131134
-0.0910663
-0.165793
-0.234647
-0.295188
-0.345272
-0.383124
-0.407404
-0.417252
-0.412318
-0.392778
-0.359324
-0.31314
-0.255863
-0.189522
-0.116467
-0.0392858
)
;

boundaryField
{
    inlet
    {
        type            cyclic;
    }
    outlet
    {
        type            cyclic;
    }
    bottom
    {
        type            slip;
    }
    top
    {
        type            slip;
    }
    frontAndBack
    {
        type            empty;
    }
}


// ************************************************************************* //
