/*--------------------------------*- C++ -*----------------------------------*\
  =========                 |
  \\      /  F ield         | OpenFOAM: The Open Source CFD Toolbox
   \\    /   O peration     | Website:  https://openfoam.org
    \\  /    A nd           | Version:  10
     \\/     M anipulation  |
\*---------------------------------------------------------------------------*/
FoamFile
{
    format      ascii;
    class       volScalarField;
    location    "0.1";
    object      T;
}
// * * * * * * * * * * * * * * * * * * * * * * * * * * * * * * * * * * * * * //

dimensions      [0 0 0 1 0 0 0];

internalField   nonuniform List<scalar> 
100
(
1
1
0.999998
0.999969
0.9996
0.995901
0.964393
0.857742
0.699263
0.525427
0.367082
0.240865
0.149864
0.0891477
0.0510441
0.0282856
0.0152362
0.00800613
0.00411597
0.00207528
0.00102829
0.000501566
0.000241187
0.000114481
5.36963e-05
2.49112e-05
1.14406e-05
5.20501e-06
2.34747e-06
1.05012e-06
4.66189e-07
2.05483e-07
8.99628e-08
3.91375e-08
1.69245e-08
7.27737e-09
3.11239e-09
1.32431e-09
5.60758e-10
2.36344e-10
9.91732e-11
4.14388e-11
1.7245e-11
7.14888e-12
2.95256e-12
1.2151e-12
4.98353e-13
2.03719e-13
8.30133e-14
3.37238e-14
1.36598e-14
5.51719e-15
2.22227e-15
8.92737e-16
3.57712e-16
1.42976e-16
5.70096e-17
2.26787e-17
9.0013e-18
3.56483e-18
1.40879e-18
5.55587e-19
2.18668e-19
8.58951e-20
3.36763e-20
1.31788e-20
5.14804e-21
2.00746e-21
7.81458e-22
3.03697e-22
1.17833e-22
4.56461e-23
1.7655e-23
6.81824e-24
2.62927e-24
1.01244e-24
3.89306e-25
1.4949e-25
5.73256e-26
2.19538e-26
8.39672e-27
3.20745e-27
1.22369e-27
4.6629e-28
1.7747e-28
6.74663e-29
2.56185e-29
9.71704e-30
3.68161e-30
1.39339e-30
5.26806e-31
1.98966e-31
7.50695e-32
2.82954e-32
1.06547e-32
4.00819e-33
1.50642e-33
5.65631e-34
2.12406e-34
7.31921e-35
)
;

boundaryField
{
    top
    {
        type            zeroGradient;
    }
    bottom
    {
        type            zeroGradient;
    }
    in
    {
        type            fixedValue;
        value           uniform 1;
    }
    out
    {
        type            zeroGradient;
    }
    frontAndBack
    {
        type            empty;
    }
}


// ************************************************************************* //
