/*--------------------------------*- C++ -*----------------------------------*\
  =========                 |
  \\      /  F ield         | OpenFOAM: The Open Source CFD Toolbox
   \\    /   O peration     | Website:  https://openfoam.org
    \\  /    A nd           | Version:  10
     \\/     M anipulation  |
\*---------------------------------------------------------------------------*/
FoamFile
{
    format      ascii;
    class       volScalarField;
    location    "34";
    object      ddt0(T);
}
// * * * * * * * * * * * * * * * * * * * * * * * * * * * * * * * * * * * * * //

dimensions      [0 0 -1 1 0 0 0];

internalField   nonuniform List<scalar> 
10000
(
654.921
68.1033
145.13
143.809
143.174
143.254
143.283
143.286
143.287
143.288
143.29
143.291
143.292
143.293
143.293
143.294
143.295
143.296
143.297
143.298
143.299
143.3
143.301
143.302
143.303
143.303
143.304
143.305
143.306
143.307
143.308
143.308
143.309
143.31
143.311
143.311
143.312
143.313
143.314
143.314
143.315
143.316
143.316
143.317
143.318
143.318
143.319
143.32
143.32
143.321
143.321
143.322
143.322
143.323
143.323
143.324
143.324
143.325
143.325
143.326
143.326
143.327
143.327
143.327
143.328
143.328
143.329
143.329
143.329
143.33
143.33
143.33
143.33
143.331
143.331
143.331
143.332
143.332
143.332
143.332
143.332
143.333
143.333
143.333
143.333
143.333
143.333
143.333
143.334
143.334
143.334
143.334
143.334
143.334
143.333
143.338
143.437
143.846
136.498
116.391
99.1025
-130.094
-44.8098
-54.2283
-55.5485
-55.3561
-55.3076
-55.3066
-55.3056
-55.303
-55.3001
-55.2972
-55.2944
-55.2915
-55.2887
-55.2859
-55.2831
-55.2804
-55.2776
-55.2749
-55.2722
-55.2696
-55.2669
-55.2643
-55.2617
-55.2591
-55.2566
-55.254
-55.2516
-55.2491
-55.2467
-55.2443
-55.2419
-55.2396
-55.2373
-55.235
-55.2328
-55.2306
-55.2285
-55.2264
-55.2243
-55.2222
-55.2202
-55.2183
-55.2163
-55.2144
-55.2126
-55.2108
-55.209
-55.2073
-55.2056
-55.2039
-55.2023
-55.2007
-55.1991
-55.1976
-55.1962
-55.1947
-55.1934
-55.192
-55.1907
-55.1894
-55.1882
-55.187
-55.1858
-55.1847
-55.1836
-55.1826
-55.1815
-55.1806
-55.1796
-55.1787
-55.1778
-55.177
-55.1762
-55.1754
-55.1747
-55.174
-55.1734
-55.1727
-55.1721
-55.1716
-55.171
-55.1705
-55.1701
-55.1696
-55.1692
-55.1689
-55.1685
-55.1682
-55.1679
-55.1677
-55.1674
-55.1675
-55.1698
-55.1774
-55.1175
-54.5411
-56.0988
-43.5544
164.965
-54.1856
21.7103
10.7914
9.64388
9.92164
9.98179
9.98422
9.98689
9.99144
9.99628
10.0011
10.0058
10.0106
10.0153
10.02
10.0246
10.0292
10.0338
10.0384
10.0429
10.0473
10.0518
10.0561
10.0605
10.0648
10.069
10.0732
10.0774
10.0814
10.0855
10.0895
10.0934
10.0973
10.1011
10.1049
10.1086
10.1122
10.1158
10.1193
10.1228
10.1262
10.1296
10.1328
10.1361
10.1392
10.1423
10.1453
10.1483
10.1512
10.154
10.1568
10.1595
10.1621
10.1647
10.1672
10.1697
10.172
10.1744
10.1766
10.1788
10.1809
10.183
10.185
10.1869
10.1888
10.1906
10.1924
10.194
10.1957
10.1972
10.1988
10.2002
10.2016
10.2029
10.2042
10.2054
10.2066
10.2077
10.2088
10.2097
10.2107
10.2116
10.2124
10.2132
10.2139
10.2146
10.2152
10.2158
10.2163
10.2168
10.2172
10.2176
10.2178
10.2148
10.1973
10.1848
10.4372
8.83856
9.3206
164.17
-62.2571
12.1253
1.30829
0.275116
0.575642
0.637652
0.641177
0.645587
0.652062
0.658822
0.665533
0.672194
0.678816
0.685399
0.691941
0.698439
0.70489
0.711292
0.717643
0.72394
0.730182
0.736366
0.74249
0.748552
0.754551
0.760484
0.766349
0.772146
0.777871
0.783524
0.789103
0.794606
0.800032
0.80538
0.810647
0.815833
0.820937
0.825958
0.830894
0.835745
0.840509
0.845187
0.849777
0.854279
0.858692
0.863016
0.86725
0.871395
0.875449
0.879412
0.883285
0.887068
0.89076
0.894361
0.897872
0.901292
0.904623
0.907863
0.911014
0.914076
0.917049
0.919934
0.92273
0.92544
0.928062
0.930598
0.933048
0.935413
0.937694
0.93989
0.942003
0.944034
0.945982
0.94785
0.949636
0.951343
0.95297
0.954518
0.955988
0.957381
0.958697
0.959937
0.961101
0.96219
0.963204
0.964145
0.965011
0.965805
0.966525
0.967175
0.967776
0.968438
0.969396
0.969689
0.961473
0.949889
1.1466
1.12338
0.712748
163.657
-63.4188
11.1074
0.401734
-0.601273
-0.297169
-0.234339
-0.229297
-0.22303
-0.214638
-0.205963
-0.197346
-0.188787
-0.180277
-0.171816
-0.163407
-0.155054
-0.146762
-0.138532
-0.130368
-0.122272
-0.114249
-0.1063
-0.0984278
-0.0906353
-0.0829249
-0.075299
-0.0677599
-0.0603099
-0.0529512
-0.0456859
-0.0385162
-0.0314438
-0.0244708
-0.0175988
-0.0108297
-0.00416484
0.00239416
0.00884595
0.0151892
0.0214229
0.0275457
0.0335569
0.0394554
0.0452405
0.0509116
0.0564679
0.061909
0.0672346
0.0724441
0.0775375
0.0825145
0.0873751
0.0921192
0.0967469
0.101258
0.105654
0.109933
0.114097
0.118147
0.122081
0.125901
0.129608
0.133202
0.136683
0.140053
0.143312
0.14646
0.149499
0.15243
0.155252
0.157968
0.160577
0.163081
0.16548
0.167775
0.169968
0.172059
0.174049
0.175938
0.177728
0.179419
0.181012
0.182508
0.183907
0.185211
0.18642
0.187534
0.188554
0.18948
0.190309
0.191044
0.191757
0.192733
0.193927
0.190044
0.169232
0.199258
0.251163
0.201747
163.727
-63.2549
11.3487
0.665486
-0.333852
-0.0289282
0.0352912
0.0421412
0.0503213
0.0606348
0.0712225
0.0817425
0.092195
0.102589
0.112923
0.123194
0.133395
0.143524
0.153576
0.163548
0.173435
0.183235
0.192945
0.20256
0.212078
0.221496
0.23081
0.240019
0.249118
0.258106
0.26698
0.275738
0.284376
0.292893
0.301286
0.309554
0.317694
0.325705
0.333586
0.341333
0.348947
0.356425
0.363767
0.370971
0.378037
0.384964
0.39175
0.398396
0.4049
0.411263
0.417484
0.423563
0.429499
0.435293
0.440946
0.446456
0.451824
0.457051
0.462137
0.467082
0.471888
0.476554
0.481081
0.48547
0.489722
0.493838
0.497818
0.501663
0.505375
0.508954
0.512401
0.515718
0.518904
0.521962
0.524893
0.527697
0.530375
0.532928
0.535358
0.537666
0.539852
0.541917
0.543863
0.54569
0.547399
0.548992
0.550468
0.551829
0.553075
0.554207
0.555221
0.55611
0.556894
0.557787
0.559315
0.560224
0.552788
0.548086
0.548688
0.562483
163.752
-63.2127
11.4019
0.720747
-0.277699
0.028623
0.0946274
0.103385
0.113488
0.125718
0.138213
0.150632
0.162974
0.175247
0.18745
0.199577
0.211623
0.223584
0.235454
0.247229
0.258904
0.270477
0.281942
0.293297
0.304536
0.315657
0.326657
0.337531
0.348276
0.35889
0.369369
0.37971
0.38991
0.399967
0.409879
0.419642
0.429254
0.438714
0.448019
0.457168
0.466158
0.474989
0.483658
0.492165
0.500509
0.508688
0.516701
0.524549
0.532229
0.539743
0.547088
0.554266
0.561276
0.568118
0.574792
0.581299
0.587638
0.59381
0.599815
0.605655
0.611329
0.616838
0.622184
0.627367
0.632388
0.637248
0.641947
0.646488
0.650871
0.655097
0.659167
0.663083
0.666846
0.670457
0.673917
0.677228
0.68039
0.683405
0.686275
0.688999
0.691581
0.694019
0.696317
0.698474
0.700493
0.702373
0.704116
0.705723
0.707195
0.708532
0.709734
0.710791
0.711688
0.712486
0.713553
0.715143
0.714946
0.712856
0.706498
0.717497
163.755
-63.2114
11.4047
0.724732
-0.272177
0.0359549
0.103867
0.114548
0.12657
0.14071
0.155107
0.16942
0.183646
0.197793
0.21186
0.225839
0.239725
0.253512
0.267195
0.280768
0.294227
0.307568
0.320784
0.333873
0.34683
0.35965
0.372329
0.384864
0.397251
0.409486
0.421566
0.433486
0.445245
0.456838
0.468263
0.479517
0.490598
0.501503
0.512229
0.522775
0.533138
0.543318
0.553311
0.563117
0.572735
0.582163
0.5914
0.600446
0.609299
0.61796
0.626428
0.634702
0.642782
0.650669
0.658362
0.665862
0.673169
0.680283
0.687206
0.693937
0.700477
0.706828
0.71299
0.718965
0.724752
0.730354
0.735771
0.741005
0.746057
0.750928
0.75562
0.760134
0.764471
0.768634
0.772622
0.776438
0.780083
0.783559
0.786866
0.790007
0.792982
0.795793
0.798442
0.800929
0.803255
0.805422
0.807432
0.809284
0.81098
0.812522
0.81391
0.81514
0.816196
0.817065
0.81786
0.81889
0.82
0.820549
0.813949
0.823918
163.756
-63.2101
11.4077
0.72945
-0.265601
0.0444453
0.114281
0.12688
0.140814
0.156858
0.173151
0.189351
0.205456
0.221472
0.237396
0.253222
0.268942
0.28455
0.30004
0.315406
0.330644
0.345746
0.360709
0.375527
0.390195
0.404709
0.419063
0.433254
0.447278
0.461129
0.474804
0.488299
0.501611
0.514735
0.52767
0.54041
0.552955
0.565299
0.577442
0.589381
0.601113
0.612637
0.62395
0.635052
0.645939
0.656612
0.66707
0.67731
0.687332
0.697137
0.706722
0.716089
0.725236
0.734164
0.742873
0.751364
0.759635
0.767689
0.775526
0.783146
0.79055
0.797739
0.804715
0.811478
0.81803
0.824371
0.830503
0.836428
0.842147
0.847662
0.852973
0.858083
0.862993
0.867705
0.87222
0.876539
0.880666
0.8846
0.888344
0.8919
0.895268
0.89845
0.901448
0.904263
0.906897
0.90935
0.911625
0.913722
0.915642
0.917387
0.918959
0.920357
0.921576
0.922594
0.923411
0.924155
0.92523
0.926946
0.918078
0.930622
163.757
-63.2074
11.4123
0.735965
-0.257168
0.0547993
0.126552
0.141062
0.1569
0.174841
0.193024
0.211105
0.229082
0.24696
0.264736
0.282401
0.299948
0.317371
0.334662
0.351815
0.368824
0.385683
0.402386
0.418927
0.4353
0.451502
0.467526
0.483367
0.499021
0.514482
0.529747
0.544812
0.559671
0.574322
0.58876
0.602981
0.616984
0.630764
0.644319
0.657645
0.670741
0.683604
0.696233
0.708625
0.720778
0.732692
0.744364
0.755795
0.766982
0.777926
0.788626
0.799081
0.809292
0.819257
0.828979
0.838455
0.847689
0.856678
0.865426
0.873931
0.882196
0.89022
0.898007
0.905556
0.912868
0.919947
0.926792
0.933405
0.939789
0.945944
0.951872
0.957576
0.963056
0.968315
0.973355
0.978177
0.982783
0.987174
0.991353
0.995322
0.999081
1.00263
1.00598
1.00912
1.01206
1.0148
1.01734
1.01968
1.02182
1.02377
1.02552
1.02708
1.02845
1.02962
1.03055
1.03126
1.03227
1.03506
1.02291
1.03899
163.758
-63.2045
11.4171
0.742727
-0.248491
0.06539
0.139051
0.155465
0.173199
0.19303
0.213095
0.23305
0.252891
0.272624
0.292244
0.311742
0.331109
0.35034
0.369425
0.388358
0.407131
0.425739
0.444175
0.462432
0.480505
0.498387
0.516074
0.533559
0.550836
0.567902
0.584751
0.601378
0.617779
0.63395
0.649886
0.665583
0.681038
0.696247
0.711208
0.725917
0.740371
0.754569
0.768507
0.782184
0.795598
0.808747
0.82163
0.834246
0.846594
0.858673
0.870482
0.882021
0.893291
0.90429
0.915019
0.925479
0.935669
0.945591
0.955245
0.964633
0.973754
0.982611
0.991205
0.999536
1.00761
1.01542
1.02297
1.03027
1.03732
1.04411
1.05065
1.05695
1.063
1.0688
1.07436
1.07969
1.08477
1.08962
1.09423
1.09861
1.10276
1.10668
1.11037
1.11384
1.11708
1.12011
1.12291
1.12549
1.12786
1.13001
1.13194
1.13366
1.13517
1.13647
1.13752
1.13826
1.13925
1.14319
1.12778
1.14729
163.759
-63.2017
11.4219
0.749443
-0.239868
0.0759175
0.151479
0.169787
0.189409
0.211122
0.233062
0.254883
0.27658
0.29816
0.319616
0.340938
0.362118
0.383148
0.40402
0.424724
0.445255
0.465605
0.485766
0.505732
0.525497
0.545053
0.564394
0.583516
0.602411
0.621074
0.6395
0.657683
0.675619
0.693302
0.710729
0.727895
0.744797
0.761429
0.777789
0.793875
0.809681
0.825207
0.840449
0.855406
0.870075
0.884454
0.898543
0.912339
0.925842
0.93905
0.951964
0.964583
0.976906
0.988934
1.00067
1.01211
1.02325
1.0341
1.04466
1.05492
1.0649
1.07458
1.08398
1.09309
1.10191
1.11046
1.11872
1.1267
1.1344
1.14183
1.14899
1.15587
1.16248
1.16883
1.17491
1.18073
1.18629
1.19159
1.19663
1.20142
1.20596
1.21025
1.21429
1.21808
1.22163
1.22493
1.228
1.23082
1.23341
1.23576
1.23787
1.23976
1.24141
1.24283
1.24398
1.24477
1.24575
1.25075
1.23252
1.255
163.76
-63.1988
11.4267
0.756113
-0.2313
0.0863815
0.163834
0.184028
0.20553
0.229116
0.252921
0.276599
0.300144
0.323562
0.346845
0.369983
0.392968
0.415789
0.438438
0.460906
0.483185
0.505268
0.527147
0.548814
0.570262
0.591484
0.612473
0.633223
0.653727
0.67398
0.693975
0.713707
0.73317
0.75236
0.771271
0.789899
0.808239
0.826288
0.844041
0.861496
0.878649
0.895496
0.912036
0.928266
0.944184
0.959787
0.975075
0.990046
1.0047
1.01903
1.03304
1.04674
1.06011
1.07316
1.08589
1.0983
1.1104
1.12217
1.13362
1.14476
1.15559
1.1661
1.17629
1.18618
1.19575
1.20502
1.21399
1.22265
1.23101
1.23907
1.24683
1.2543
1.26148
1.26837
1.27496
1.28128
1.28731
1.29306
1.29853
1.30373
1.30865
1.31331
1.31769
1.3218
1.32565
1.32924
1.33256
1.33563
1.33844
1.34099
1.34328
1.34532
1.34712
1.34866
1.34992
1.35076
1.35171
1.3576
1.33713
1.36201
163.761
-63.196
11.4314
0.762745
-0.222777
0.0967898
0.176124
0.198193
0.221566
0.247015
0.272676
0.298201
0.323585
0.348832
0.373933
0.398878
0.423656
0.448259
0.472677
0.4969
0.520919
0.544726
0.568313
0.591672
0.614795
0.637674
0.660302
0.682672
0.704778
0.726612
0.748168
0.76944
0.790423
0.811111
0.831498
0.85158
0.871353
0.89081
0.90995
0.928767
0.947258
0.965421
0.983251
1.00075
1.01791
1.03473
1.05121
1.06735
1.08314
1.0986
1.1137
1.12846
1.14288
1.15695
1.17067
1.18405
1.19709
1.20978
1.22213
1.23414
1.2458
1.25713
1.26812
1.27878
1.28911
1.2991
1.30876
1.3181
1.32711
1.3358
1.34417
1.35222
1.35995
1.36738
1.37449
1.3813
1.3878
1.394
1.3999
1.4055
1.41081
1.41582
1.42055
1.42498
1.42913
1.433
1.43658
1.43989
1.44291
1.44566
1.44814
1.45034
1.45227
1.45393
1.4553
1.45621
1.45714
1.46368
1.4416
1.46828
163.762
-63.1931
11.4361
0.76934
-0.214302
0.107141
0.188345
0.212281
0.237514
0.264816
0.292322
0.319685
0.346897
0.373962
0.40087
0.427612
0.454175
0.48055
0.506726
0.532694
0.558443
0.583965
0.609251
0.634292
0.659081
0.683608
0.707866
0.731847
0.755545
0.778951
0.80206
0.824864
0.847358
0.869535
0.891391
0.912919
0.934114
0.954973
0.97549
0.995662
1.01548
1.03495
1.05407
1.07283
1.09122
1.10925
1.12692
1.14422
1.16115
1.17771
1.19391
1.20973
1.22518
1.24027
1.25498
1.26932
1.28329
1.2969
1.31014
1.32301
1.33551
1.34766
1.35944
1.37086
1.38193
1.39264
1.403
1.41301
1.42267
1.43198
1.44095
1.44958
1.45787
1.46583
1.47346
1.48075
1.48772
1.49437
1.50069
1.5067
1.51239
1.51776
1.52282
1.52758
1.53203
1.53617
1.54001
1.54356
1.5468
1.54975
1.5524
1.55476
1.55683
1.55861
1.56008
1.56106
1.56199
1.56897
1.54585
1.57379
163.763
-63.1903
11.4408
0.775896
-0.205878
0.11743
0.200494
0.226285
0.253366
0.282511
0.311851
0.34104
0.37007
0.398942
0.427647
0.456175
0.484512
0.512648
0.540573
0.568274
0.595743
0.62297
0.649945
0.676658
0.703102
0.729267
0.755145
0.780728
0.806008
0.830978
0.855629
0.879956
0.903952
0.92761
0.950925
0.97389
0.996501
1.01875
1.04064
1.06216
1.0833
1.10407
1.12446
1.14447
1.16409
1.18333
1.20217
1.22063
1.23869
1.25636
1.27363
1.29051
1.30699
1.32308
1.33878
1.35408
1.36898
1.38349
1.39761
1.41134
1.42468
1.43764
1.45021
1.46239
1.47419
1.48562
1.49667
1.50734
1.51765
1.52758
1.53715
1.54635
1.5552
1.56369
1.57182
1.57961
1.58704
1.59413
1.60087
1.60728
1.61335
1.61908
1.62448
1.62955
1.6343
1.63872
1.64282
1.6466
1.65006
1.6532
1.65603
1.65855
1.66076
1.66266
1.66423
1.66528
1.66623
1.67346
1.6498
1.67852
163.764
-63.1875
11.4455
0.782408
-0.197507
0.127653
0.212566
0.240199
0.269117
0.300092
0.331256
0.362259
0.393094
0.423762
0.454254
0.484555
0.514655
0.544542
0.574203
0.603628
0.632805
0.661726
0.690378
0.718754
0.746842
0.774635
0.802122
0.829297
0.856149
0.882671
0.908856
0.934696
0.960184
0.985313
1.01008
1.03447
1.05849
1.08212
1.10537
1.12822
1.15068
1.17275
1.1944
1.21565
1.2365
1.25693
1.27694
1.29654
1.31573
1.3345
1.35284
1.37077
1.38828
1.40537
1.42203
1.43828
1.45411
1.46953
1.48452
1.49911
1.51328
1.52703
1.54038
1.55332
1.56586
1.578
1.58973
1.60107
1.61201
1.62256
1.63272
1.6425
1.6519
1.66091
1.66955
1.67782
1.68571
1.69324
1.7004
1.70721
1.71365
1.71974
1.72548
1.73086
1.7359
1.7406
1.74495
1.74897
1.75264
1.75598
1.75899
1.76166
1.764
1.76603
1.7677
1.76884
1.76982
1.77712
1.75336
1.78245
163.765
-63.1848
11.4501
0.788876
-0.189194
0.137806
0.224554
0.254018
0.284761
0.317554
0.350528
0.383333
0.415962
0.448414
0.480678
0.512743
0.544593
0.576218
0.607604
0.63874
0.669615
0.700217
0.730536
0.760562
0.790284
0.819693
0.848779
0.877534
0.905948
0.934012
0.96172
0.989062
1.01603
1.04262
1.06883
1.09464
1.12005
1.14506
1.16966
1.19384
1.21761
1.24095
1.26386
1.28635
1.3084
1.33002
1.3512
1.37194
1.39224
1.4121
1.43151
1.45048
1.469
1.48708
1.50472
1.52191
1.53866
1.55497
1.57084
1.58627
1.60126
1.61581
1.62994
1.64363
1.6569
1.66973
1.68215
1.69414
1.70572
1.71689
1.72764
1.73798
1.74792
1.75746
1.7666
1.77535
1.7837
1.79166
1.79924
1.80644
1.81326
1.8197
1.82577
1.83147
1.83681
1.84177
1.84638
1.85063
1.85451
1.85805
1.86123
1.86406
1.86654
1.86868
1.87045
1.87167
1.87271
1.87995
1.85643
1.88557
163.766
-63.182
11.4547
0.795297
-0.180941
0.147886
0.236456
0.267737
0.300292
0.334889
0.36966
0.404255
0.438664
0.472887
0.506912
0.540726
0.574314
0.607665
0.640763
0.673599
0.706158
0.73843
0.770404
0.802068
0.833412
0.864426
0.895099
0.925422
0.955386
0.984982
1.0142
1.04303
1.07148
1.09952
1.12715
1.15437
1.18117
1.20754
1.23348
1.25898
1.28404
1.30866
1.33282
1.35653
1.37979
1.40258
1.42492
1.44679
1.46819
1.48913
1.5096
1.52961
1.54914
1.5682
1.5868
1.60493
1.62259
1.63979
1.65652
1.67279
1.6886
1.70395
1.71884
1.73328
1.74726
1.7608
1.77389
1.78654
1.79875
1.81052
1.82186
1.83277
1.84325
1.8533
1.86294
1.87216
1.88097
1.88937
1.89736
1.90495
1.91214
1.91893
1.92533
1.93134
1.93697
1.94221
1.94706
1.95154
1.95564
1.95937
1.96272
1.9657
1.96832
1.97058
1.97245
1.97376
1.97485
1.98193
1.95894
1.98784
163.767
-63.1793
11.4592
0.801668
-0.172752
0.157888
0.248267
0.281351
0.315703
0.352092
0.388647
0.425017
0.461193
0.497173
0.532945
0.568495
0.603808
0.638871
0.673669
0.708191
0.742422
0.776351
0.809967
0.843257
0.87621
0.908816
0.941064
0.972944
1.00445
1.03556
1.06628
1.09659
1.1265
1.15597
1.18503
1.21364
1.24181
1.26954
1.29681
1.32362
1.34997
1.37585
1.40125
1.42618
1.45063
1.47459
1.49807
1.52106
1.54356
1.56558
1.5871
1.60812
1.62866
1.6487
1.66825
1.68731
1.70588
1.72395
1.74154
1.75865
1.77526
1.7914
1.80705
1.82223
1.83693
1.85116
1.86493
1.87822
1.89106
1.90343
1.91535
1.92681
1.93783
1.9484
1.95853
1.96823
1.97749
1.98631
1.99472
2.00269
2.01025
2.01739
2.02412
2.03044
2.03635
2.04186
2.04696
2.05167
2.05598
2.0599
2.06342
2.06656
2.06931
2.07168
2.07365
2.07505
2.07621
2.08305
2.06079
2.08926
163.768
-63.1766
11.4638
0.807988
-0.164629
0.167809
0.259982
0.294855
0.33099
0.369155
0.40748
0.445611
0.48354
0.521263
0.558769
0.596041
0.633065
0.669826
0.70631
0.742504
0.778394
0.813967
0.849211
0.884114
0.918663
0.952849
0.986659
1.02008
1.05311
1.08573
1.11794
1.14972
1.18107
1.21198
1.24243
1.27244
1.30197
1.33104
1.35963
1.38774
1.41536
1.44249
1.46912
1.49526
1.52089
1.54601
1.57063
1.59473
1.61832
1.6414
1.66396
1.686
1.70753
1.72854
1.74904
1.76902
1.78848
1.80743
1.82587
1.8438
1.86122
1.87814
1.89455
1.91046
1.92587
1.94079
1.95522
1.96916
1.98261
1.99558
2.00807
2.02009
2.03164
2.04273
2.05335
2.06351
2.07321
2.08247
2.09127
2.09964
2.10756
2.11505
2.1221
2.12872
2.13492
2.14069
2.14604
2.15098
2.1555
2.15961
2.1633
2.16659
2.16948
2.17196
2.17403
2.17552
2.17674
2.1833
2.16191
2.1898
163.768
-63.1739
11.4682
0.814254
-0.156575
0.177646
0.271598
0.308245
0.346148
0.386074
0.426153
0.466031
0.505698
0.545149
0.584373
0.623353
0.662074
0.700519
0.738675
0.776527
0.814061
0.851264
0.888123
0.924624
0.960757
0.996508
1.03187
1.06682
1.10136
1.13548
1.16916
1.2024
1.23518
1.2675
1.29936
1.33073
1.36162
1.39202
1.42192
1.45131
1.4802
1.50857
1.53642
1.56375
1.59055
1.61683
1.64257
1.66777
1.69244
1.71657
1.74017
1.76322
1.78573
1.8077
1.82913
1.85003
1.87038
1.8902
1.90948
1.92823
1.94644
1.96413
1.98129
1.99793
2.01405
2.02965
2.04473
2.05931
2.07337
2.08694
2.1
2.11257
2.12465
2.13624
2.14734
2.15797
2.16811
2.17779
2.187
2.19575
2.20403
2.21186
2.21923
2.22616
2.23264
2.23867
2.24427
2.24943
2.25416
2.25845
2.26232
2.26576
2.26878
2.27137
2.27354
2.27512
2.27642
2.28265
2.26223
2.28945
163.769
-63.1712
11.4727
0.820464
-0.148592
0.187396
0.28311
0.321515
0.361171
0.402843
0.444661
0.48627
0.527659
0.568824
0.60975
0.650423
0.690825
0.730939
0.770752
0.810247
0.849411
0.88823
0.926688
0.964775
1.00248
1.03978
1.07667
1.11315
1.14919
1.18478
1.21993
1.25461
1.28881
1.32254
1.35577
1.38851
1.42074
1.45245
1.48365
1.51432
1.54445
1.57406
1.60312
1.63163
1.6596
1.68701
1.71386
1.74016
1.7659
1.79108
1.81569
1.83974
1.86323
1.88615
1.90851
1.93031
1.95155
1.97222
1.99234
2.0119
2.0309
2.04935
2.06726
2.08462
2.10143
2.1177
2.13344
2.14865
2.16332
2.17747
2.1911
2.20421
2.21681
2.2289
2.24049
2.25157
2.26216
2.27226
2.28186
2.29099
2.29963
2.3078
2.31549
2.32271
2.32947
2.33577
2.34161
2.347
2.35193
2.35641
2.36044
2.36403
2.36718
2.36989
2.37215
2.37382
2.37519
2.38108
2.36168
2.38818
163.77
-63.1686
11.4771
0.826617
-0.140684
0.197054
0.294515
0.334662
0.376054
0.419456
0.462996
0.50632
0.549415
0.592278
0.634892
0.677241
0.719308
0.761077
0.802531
0.843655
0.884433
0.924851
0.964896
1.00455
1.04381
1.08265
1.12106
1.15904
1.19656
1.23363
1.27022
1.30633
1.34194
1.37706
1.41166
1.44574
1.4793
1.51232
1.5448
1.57673
1.60811
1.63893
1.66919
1.69888
1.72799
1.75653
1.78449
1.81187
1.83867
1.86488
1.89051
1.91555
1.94
1.96387
1.98715
2.00984
2.03195
2.05347
2.07441
2.09478
2.11456
2.13378
2.15241
2.17048
2.18799
2.20493
2.22132
2.23714
2.25242
2.26715
2.28134
2.29499
2.30811
2.32069
2.33276
2.34429
2.35532
2.36583
2.37583
2.38533
2.39432
2.40283
2.41084
2.41836
2.4254
2.43195
2.43803
2.44364
2.44877
2.45344
2.45764
2.46137
2.46465
2.46747
2.46982
2.47158
2.47304
2.47858
2.46021
2.48596
163.771
-63.166
11.4814
0.83271
-0.132853
0.206619
0.30581
0.347682
0.390793
0.435908
0.481154
0.526176
0.570961
0.615504
0.659789
0.703799
0.747516
0.790922
0.834001
0.876737
0.919115
0.961118
1.00273
1.04394
1.08474
1.1251
1.16502
1.20449
1.24348
1.282
1.32002
1.35754
1.39456
1.43104
1.467
1.50242
1.53729
1.57161
1.60536
1.63854
1.67115
1.70317
1.73461
1.76546
1.79572
1.82538
1.85443
1.88288
1.91073
1.93796
1.96459
1.99061
2.01602
2.04082
2.06501
2.08859
2.11156
2.13392
2.15569
2.17684
2.1974
2.21737
2.23673
2.25551
2.2737
2.2913
2.30832
2.32477
2.34065
2.35595
2.37069
2.38488
2.3985
2.41158
2.42411
2.4361
2.44755
2.45847
2.46887
2.47873
2.48808
2.49692
2.50524
2.51306
2.52037
2.52718
2.5335
2.53932
2.54466
2.54951
2.55387
2.55775
2.56116
2.56409
2.56654
2.56839
2.56991
2.57512
2.55777
2.58278
163.772
-63.1634
11.4858
0.838741
-0.125101
0.216088
0.31699
0.36057
0.405382
0.452193
0.499128
0.545831
0.592289
0.638496
0.684435
0.730088
0.775438
0.820465
0.865153
0.909485
0.953445
0.997017
1.04018
1.08293
1.12525
1.16712
1.20853
1.24947
1.28992
1.32988
1.36932
1.40824
1.44663
1.48448
1.52178
1.55852
1.59469
1.63029
1.6653
1.69972
1.73354
1.76676
1.79937
1.83137
1.86276
1.89352
1.92365
1.95317
1.98205
2.0103
2.03792
2.06491
2.09126
2.11698
2.14207
2.16653
2.19036
2.21355
2.23612
2.25807
2.27939
2.3001
2.32018
2.33966
2.35852
2.37678
2.39444
2.4115
2.42796
2.44384
2.45913
2.47384
2.48797
2.50153
2.51453
2.52696
2.53884
2.55017
2.56095
2.57118
2.58088
2.59004
2.59867
2.60678
2.61436
2.62143
2.62798
2.63402
2.63955
2.64458
2.64911
2.65314
2.65667
2.65971
2.66225
2.66419
2.66579
2.67067
2.6543
2.6786
163.773
-63.1608
11.49
0.844709
-0.11743
0.225456
0.328053
0.373322
0.419818
0.468307
0.516913
0.565279
0.613392
0.661245
0.708821
0.756101
0.803065
0.849697
0.895977
0.941888
0.987413
1.03254
1.07724
1.12152
1.16534
1.2087
1.25159
1.29398
1.33587
1.37725
1.4181
1.4584
1.49816
1.53736
1.57599
1.61403
1.65149
1.68835
1.72461
1.76025
1.79528
1.82968
1.86345
1.89658
1.92908
1.96094
1.99214
2.0227
2.05261
2.08187
2.11047
2.13841
2.1657
2.19234
2.21832
2.24364
2.26831
2.29233
2.3157
2.33843
2.36051
2.38195
2.40275
2.42291
2.44244
2.46135
2.47963
2.49729
2.51434
2.53078
2.54661
2.56184
2.57648
2.59052
2.60398
2.61685
2.62915
2.64088
2.65204
2.66263
2.67267
2.68216
2.6911
2.69949
2.70734
2.71466
2.72145
2.7277
2.73343
2.73864
2.74333
2.7475
2.75116
2.75431
2.75694
2.75896
2.76064
2.76521
2.74978
2.7734
163.774
-63.1583
11.4942
0.850612
-0.109844
0.234723
0.338995
0.385934
0.434096
0.484244
0.534503
0.584515
0.634264
0.683745
0.73294
0.781828
0.83039
0.878608
0.926462
0.973935
1.02101
1.06767
1.11389
1.15967
1.20499
1.24982
1.29417
1.338
1.38132
1.4241
1.46634
1.50801
1.54912
1.58965
1.62959
1.66893
1.70766
1.74577
1.78326
1.82011
1.85633
1.8919
1.92681
1.96107
1.99467
2.02761
2.05988
2.09147
2.12239
2.15264
2.18221
2.2111
2.23932
2.26685
2.29371
2.3199
2.3454
2.37024
2.3944
2.4179
2.44072
2.46289
2.48439
2.50524
2.52543
2.54497
2.56387
2.58213
2.59976
2.61675
2.63312
2.64887
2.66399
2.67851
2.69242
2.70574
2.71845
2.73057
2.74211
2.75307
2.76345
2.77325
2.78249
2.79117
2.79929
2.80685
2.81387
2.82034
2.82626
2.83165
2.83649
2.84081
2.84459
2.84785
2.85057
2.85267
2.85442
2.85871
2.84415
2.86716
163.774
-63.1558
11.4984
0.856448
-0.102343
0.243883
0.349812
0.398404
0.448212
0.500001
0.551893
0.603531
0.654899
0.705989
0.756784
0.807263
0.857405
0.90719
0.956601
1.00562
1.05422
1.1024
1.15013
1.19739
1.24418
1.29048
1.33626
1.38152
1.42624
1.47042
1.51403
1.55706
1.5995
1.64135
1.68258
1.7232
1.76319
1.80254
1.84124
1.87929
1.91668
1.9534
1.98945
2.02482
2.05951
2.09352
2.12683
2.15945
2.19137
2.2226
2.25313
2.28296
2.31209
2.34052
2.36824
2.39528
2.42161
2.44725
2.47219
2.49644
2.52001
2.54289
2.56509
2.58661
2.60746
2.62763
2.64715
2.666
2.68419
2.70173
2.71863
2.73488
2.7505
2.76549
2.77985
2.79359
2.80672
2.81923
2.83114
2.84245
2.85316
2.86329
2.87283
2.88179
2.89017
2.89798
2.90522
2.9119
2.91801
2.92357
2.92858
2.93303
2.93694
2.9403
2.94311
2.9453
2.94712
2.95115
2.93739
2.95984
163.775
-63.1533
11.5025
0.862216
-0.0949313
0.252936
0.360502
0.410726
0.462162
0.515571
0.569078
0.622323
0.67529
0.727971
0.780347
0.832397
0.8841
0.935435
0.986384
1.03693
1.08704
1.13672
1.18593
1.23467
1.28291
1.33065
1.37786
1.42453
1.47064
1.51619
1.56115
1.60552
1.64928
1.69243
1.73495
1.77683
1.81806
1.85863
1.89853
1.93776
1.97631
2.01418
2.05135
2.08782
2.12358
2.15864
2.19299
2.22662
2.25953
2.29173
2.3232
2.35396
2.38399
2.4133
2.44188
2.46975
2.4969
2.52333
2.54905
2.57405
2.59835
2.62194
2.64482
2.66701
2.6885
2.7093
2.72942
2.74885
2.76761
2.78569
2.80311
2.81987
2.83597
2.85142
2.86622
2.88039
2.89392
2.90682
2.9191
2.93076
2.94181
2.95224
2.96208
2.97131
2.97995
2.988
2.99547
3.00236
3.00866
3.01439
3.01955
3.02415
3.02818
3.03164
3.03454
3.03681
3.0387
3.0425
3.02947
3.05141
163.776
-63.1509
11.5066
0.867913
-0.0876097
0.261879
0.371062
0.422898
0.475941
0.530951
0.586053
0.640886
0.695432
0.749684
0.803622
0.857224
0.910469
0.963335
1.0158
1.06785
1.11946
1.17062
1.2213
1.27149
1.32117
1.37033
1.41894
1.467
1.51449
1.56139
1.6077
1.65339
1.69845
1.74289
1.78667
1.82979
1.87225
1.91403
1.95512
1.99552
2.03522
2.0742
2.11248
2.15003
2.18686
2.22296
2.25833
2.29296
2.32685
2.36
2.39241
2.42408
2.455
2.48518
2.51461
2.54331
2.57126
2.59848
2.62496
2.6507
2.67572
2.7
2.72357
2.74641
2.76854
2.78996
2.81067
2.83068
2.84999
2.86861
2.88654
2.90379
2.92037
2.93628
2.95152
2.96611
2.98004
2.99332
3.00596
3.01797
3.02934
3.04009
3.05021
3.05972
3.06862
3.07691
3.0846
3.09169
3.09818
3.10408
3.1094
3.11413
3.11827
3.12184
3.12483
3.12718
3.12913
3.13273
3.12036
3.14186
163.777
-63.1485
11.5106
0.873538
-0.0803805
0.270708
0.381488
0.434916
0.489545
0.546137
0.602813
0.659213
0.71532
0.771123
0.826603
0.881737
0.936503
0.990881
1.04485
1.09838
1.15147
1.20409
1.25622
1.30784
1.35894
1.4095
1.45951
1.50894
1.55778
1.60603
1.65365
1.70065
1.747
1.7927
1.83773
1.88209
1.92575
1.96872
2.01099
2.05254
2.09337
2.13346
2.17283
2.21145
2.24933
2.28646
2.32283
2.35845
2.39331
2.4274
2.46073
2.4933
2.5251
2.55614
2.58641
2.61592
2.64467
2.67266
2.69989
2.72637
2.75209
2.77707
2.8013
2.82479
2.84755
2.86957
2.89087
2.91145
2.93131
2.95046
2.9689
2.98664
3.00369
3.02005
3.03572
3.05072
3.06505
3.07871
3.09171
3.10405
3.11575
3.1268
3.13721
3.14699
3.15614
3.16467
3.17257
3.17986
3.18654
3.19261
3.19808
3.20294
3.20721
3.21088
3.21395
3.21638
3.2184
3.22181
3.21005
3.23116
163.778
-63.1461
11.5146
0.87909
-0.0732458
0.279422
0.391777
0.446777
0.502972
0.561125
0.619354
0.677301
0.734947
0.792281
0.849282
0.905929
0.962198
1.01807
1.07351
1.12852
1.18306
1.23712
1.29068
1.34372
1.39622
1.44817
1.49954
1.55033
1.60051
1.65007
1.699
1.74729
1.79491
1.84186
1.88812
1.93369
1.97855
2.0227
2.06612
2.1088
2.15075
2.19194
2.23239
2.27206
2.31098
2.34912
2.38649
2.42308
2.45888
2.49391
2.52815
2.56161
2.59427
2.62616
2.65726
2.68757
2.7171
2.74586
2.77383
2.80103
2.82745
2.85311
2.878
2.90213
2.92551
2.94813
2.97001
2.99115
3.01155
3.03122
3.05016
3.06838
3.0859
3.1027
3.1188
3.13421
3.14892
3.16295
3.17631
3.18899
3.201
3.21235
3.22305
3.23309
3.24249
3.25125
3.25937
3.26686
3.27372
3.27996
3.28558
3.29057
3.29496
3.29873
3.30189
3.30439
3.30647
3.30973
3.29851
3.31928
163.778
-63.1437
11.5185
0.884567
-0.0662074
0.288019
0.401928
0.458477
0.516218
0.575909
0.635672
0.695145
0.754309
0.813153
0.871655
0.929794
0.987544
1.04488
1.10179
1.15824
1.21422
1.26971
1.32467
1.37911
1.43299
1.48631
1.53903
1.59115
1.64266
1.69352
1.74374
1.79329
1.84216
1.89035
1.93783
1.98459
2.03063
2.07594
2.1205
2.16431
2.20735
2.24963
2.29113
2.33185
2.37178
2.41092
2.44927
2.48682
2.52357
2.55951
2.59465
2.62898
2.6625
2.69522
2.72713
2.75824
2.78855
2.81805
2.84676
2.87466
2.90178
2.92811
2.95365
2.97841
3.0024
3.02561
3.04806
3.06975
3.09068
3.11087
3.1303
3.149
3.16697
3.18421
3.20074
3.21654
3.23164
3.24604
3.25974
3.27275
3.28508
3.29673
3.3077
3.31801
3.32766
3.33664
3.34498
3.35266
3.3597
3.3661
3.37187
3.377
3.3815
3.38537
3.38861
3.39119
3.39333
3.39645
3.38572
3.40619
163.779
-63.1414
11.5224
0.889968
-0.0592672
0.296495
0.411937
0.470015
0.529279
0.590488
0.651762
0.71274
0.7734
0.833733
0.893716
0.953325
1.01254
1.07133
1.12967
1.18755
1.24495
1.30183
1.35819
1.414
1.46925
1.52391
1.57797
1.63141
1.68421
1.73636
1.78785
1.83865
1.88876
1.93816
1.98684
2.03478
2.08198
2.12843
2.17412
2.21903
2.26316
2.3065
2.34905
2.39079
2.43173
2.47186
2.51117
2.54967
2.58734
2.62418
2.66021
2.6954
2.72977
2.76331
2.79602
2.82791
2.85898
2.88922
2.91865
2.94726
2.97506
3.00204
3.02823
3.05361
3.0782
3.102
3.12501
3.14724
3.1687
3.18938
3.20931
3.22848
3.2469
3.26457
3.28151
3.29771
3.31319
3.32795
3.34199
3.35533
3.36796
3.3799
3.39116
3.40172
3.41161
3.42082
3.42936
3.43724
3.44446
3.45102
3.45693
3.46219
3.46681
3.47078
3.4741
3.47675
3.47895
3.48195
3.47166
3.49187
163.78
-63.1391
11.5262
0.895291
-0.0524267
0.30485
0.421802
0.481386
0.542152
0.604857
0.66762
0.730081
0.792217
0.854017
0.915459
0.976518
1.03717
1.09739
1.15715
1.21644
1.27523
1.3335
1.39123
1.4484