/*--------------------------------*- C++ -*----------------------------------*\
  =========                 |
  \\      /  F ield         | OpenFOAM: The Open Source CFD Toolbox
   \\    /   O peration     | Website:  https://openfoam.org
    \\  /    A nd           | Version:  10
     \\/     M anipulation  |
\*---------------------------------------------------------------------------*/
FoamFile
{
    format      ascii;
    class       volScalarField;
    location    "34";
    object      T;
}
// * * * * * * * * * * * * * * * * * * * * * * * * * * * * * * * * * * * * * //

dimensions      [0 0 0 1 0 0 0];

internalField   nonuniform List<scalar> 
10000
(
374.987
361.294
356.617
354.569
353.459
352.761
352.275
351.913
351.631
351.403
351.214
351.052
350.912
350.789
350.679
350.579
350.489
350.405
350.328
350.256
350.189
350.125
350.065
350.008
349.953
349.901
349.851
349.803
349.757
349.712
349.669
349.627
349.586
349.547
349.509
349.471
349.435
349.4
349.365
349.332
349.299
349.267
349.236
349.206
349.176
349.147
349.119
349.091
349.064
349.037
349.012
348.986
348.962
348.938
348.914
348.891
348.869
348.847
348.826
348.805
348.785
348.766
348.747
348.728
348.71
348.693
348.676
348.66
348.644
348.628
348.613
348.599
348.585
348.572
348.559
348.547
348.535
348.524
348.513
348.503
348.493
348.484
348.475
348.467
348.459
348.452
348.445
348.439
348.433
348.428
348.423
348.419
348.415
348.412
348.409
348.407
348.405
348.404
348.403
348.403
388.618
374.868
367.221
362.767
359.966
358.068
356.698
355.659
354.839
354.17
353.611
353.134
352.719
352.352
352.024
351.728
351.458
351.209
350.978
350.763
350.561
350.371
350.191
350.02
349.856
349.7
349.55
349.406
349.268
349.134
349.004
348.879
348.757
348.639
348.524
348.413
348.304
348.198
348.095
347.994
347.896
347.801
347.707
347.616
347.527
347.44
347.355
347.271
347.19
347.111
347.034
346.958
346.884
346.812
346.742
346.673
346.606
346.541
346.477
346.416
346.355
346.297
346.24
346.184
346.13
346.078
346.027
345.978
345.93
345.884
345.84
345.797
345.755
345.715
345.677
345.64
345.605
345.571
345.539
345.508
345.479
345.451
345.425
345.4
345.377
345.355
345.335
345.316
345.299
345.283
345.269
345.256
345.245
345.235
345.227
345.22
345.215
345.211
345.209
345.208
393.237
382.339
374.634
369.314
365.571
362.848
360.793
359.188
357.896
356.829
355.929
355.155
354.478
353.878
353.34
352.853
352.407
351.996
351.615
351.259
350.924
350.609
350.31
350.026
349.754
349.495
349.246
349.006
348.776
348.553
348.337
348.129
347.926
347.73
347.539
347.353
347.172
346.996
346.824
346.657
346.493
346.334
346.178
346.026
345.878
345.733
345.591
345.453
345.318
345.186
345.057
344.931
344.808
344.688
344.571
344.456
344.345
344.236
344.13
344.027
343.927
343.829
343.734
343.641
343.552
343.464
343.38
343.298
343.219
343.142
343.068
342.996
342.927
342.861
342.797
342.735
342.676
342.62
342.566
342.515
342.466
342.42
342.376
342.335
342.297
342.26
342.227
342.196
342.167
342.141
342.117
342.096
342.077
342.061
342.047
342.036
342.027
342.021
342.017
342.016
395.227
386.617
379.661
374.283
370.157
366.96
364.437
362.403
360.728
359.322
358.121
357.078
356.161
355.343
354.606
353.936
353.322
352.755
352.227
351.734
351.27
350.831
350.416
350.02
349.643
349.281
348.934
348.6
348.278
347.967
347.666
347.375
347.092
346.818
346.551
346.291
346.038
345.792
345.552
345.318
345.09
344.867
344.649
344.436
344.229
344.026
343.828
343.634
343.445
343.261
343.08
342.904
342.732
342.564
342.4
342.24
342.084
341.932
341.784
341.64
341.499
341.362
341.229
341.1
340.974
340.852
340.734
340.619
340.508
340.401
340.297
340.197
340.101
340.008
339.918
339.832
339.75
339.671
339.596
339.524
339.456
339.391
339.33
339.272
339.218
339.168
339.12
339.077
339.037
339
338.967
338.937
338.911
338.888
338.869
338.853
338.841
338.832
338.827
338.825
396.278
389.243
383.111
377.999
373.815
370.4
367.593
365.259
363.293
361.612
360.156
358.879
357.745
356.728
355.807
354.966
354.193
353.476
352.807
352.181
351.591
351.034
350.504
350
349.517
349.056
348.612
348.185
347.772
347.374
346.989
346.616
346.253
345.901
345.559
345.226
344.902
344.586
344.278
343.978
343.685
343.398
343.119
342.846
342.58
342.319
342.065
341.816
341.573
341.336
341.104
340.878
340.657
340.442
340.231
340.026
339.825
339.63
339.44
339.254
339.073
338.898
338.727
338.561
338.399
338.243
338.091
337.943
337.801
337.663
337.529
337.401
337.277
337.157
337.042
336.932
336.826
336.725
336.628
336.536
336.448
336.365
336.286
336.212
336.143
336.078
336.017
335.961
335.909
335.862
335.82
335.782
335.748
335.719
335.694
335.674
335.658
335.647
335.64
335.638
396.918
390.966
385.543
380.787
376.705
373.232
370.277
367.75
365.573
363.678
362.014
360.537
359.215
358.019
356.931
355.932
355.009
354.151
353.349
352.595
351.884
351.211
350.571
349.96
349.376
348.815
348.277
347.758
347.257
346.773
346.304
345.85
345.409
344.98
344.563
344.158
343.763
343.378
343.002
342.636
342.278
341.929
341.588
341.255
340.93
340.612
340.302
339.998
339.702
339.413
339.13
338.854
338.584
338.32
338.063
337.813
337.568
337.33
337.097
336.871
336.65
336.436
336.227
336.024
335.827
335.636
335.45
335.27
335.096
334.927
334.765
334.607
334.456
334.31
334.169
334.035
333.905
333.782
333.664
333.551
333.444
333.342
333.246
333.156
333.071
332.992
332.918
332.849
332.786
332.728
332.676
332.63
332.589
332.553
332.523
332.498
332.479
332.465
332.457
332.454
397.346
392.16
387.306
382.902
378.988
375.546
372.533
369.893
367.571
365.517
363.686
362.044
360.559
359.207
357.967
356.824
355.763
354.773
353.845
352.97
352.144
351.359
350.612
349.898
349.215
348.558
347.927
347.318
346.73
346.161
345.61
345.076
344.557
344.053
343.562
343.085
342.619
342.165
341.723
341.291
340.87
340.458
340.056
339.664
339.28
338.905
338.539
338.181
337.832
337.49
337.156
336.83
336.512
336.201
335.898
335.602
335.313
335.032
334.757
334.49
334.23
333.976
333.73
333.491
333.258
333.032
332.813
332.601
332.395
332.196
332.004
331.818
331.639
331.467
331.301
331.142
330.989
330.843
330.704
330.571
330.444
330.325
330.211
330.104
330.004
329.91
329.823
329.742
329.667
329.599
329.538
329.483
329.434
329.392
329.357
329.328
329.305
329.289
329.279
329.275
397.649
393.025
388.621
384.529
380.798
377.433
374.418
371.72
369.304
367.133
365.173
363.395
361.773
360.284
358.911
357.637
356.449
355.337
354.29
353.302
352.365
351.474
350.624
349.811
349.031
348.282
347.56
346.863
346.19
345.538
344.906
344.293
343.698
343.119
342.555
342.006
341.471
340.95
340.441
339.944
339.459
338.986
338.524
338.072
337.63
337.199
336.777
336.365
335.962
335.569
335.185
334.809
334.442
334.084
333.735
333.394
333.061
332.737
332.421
332.113
331.813
331.521
331.237
330.961
330.693
330.432
330.18
329.935
329.698
329.469
329.247
329.033
328.827
328.628
328.437
328.254
328.078
327.91
327.749
327.596
327.45
327.312
327.181
327.058
326.942
326.834
326.733
326.64
326.554
326.476
326.405
326.342
326.286
326.237
326.196
326.163
326.136
326.118
326.106
326.102
397.873
393.671
389.622
385.798
382.242
378.973
375.986
373.267
370.793
368.54
366.481
364.594
362.856
361.25
359.759
358.367
357.064
355.839
354.683
353.587
352.546
351.554
350.605
349.696
348.823
347.983
347.174
346.391
345.635
344.902
344.191
343.5
342.829
342.177
341.541
340.922
340.319
339.73
339.155
338.595
338.047
337.512
336.989
336.479
335.98
335.492
335.015
334.549
334.094
333.649
333.214
332.79
332.375
331.97
331.575
331.189
330.813
330.446
330.088
329.739
329.4
329.07
328.748
328.436
328.132
327.838
327.552
327.275
327.007
326.747
326.496
326.254
326.021
325.796
325.579
325.372
325.173
324.982
324.8
324.627
324.462
324.305
324.157
324.018
323.887
323.764
323.65
323.545
323.448
323.359
323.279
323.207
323.144
323.089
323.042
323.004
322.975
322.953
322.941
322.936
398.043
394.166
390.399
386.798
383.402
380.23
377.289
374.571
372.065
369.754
367.62
365.645
363.812
362.105
360.51
359.014
357.607
356.278
355.019
353.823
352.684
351.595
350.553
349.552
348.59
347.662
346.767
345.901
345.063
344.251
343.463
342.696
341.951
341.226
340.52
339.832
339.16
338.505
337.866
337.242
336.632
336.036
335.454
334.885
334.329
333.786
333.254
332.735
332.227
331.731
331.247
330.773
330.31
329.859
329.418
328.987
328.568
328.158
327.759
327.37
326.991
326.623
326.264
325.916
325.577
325.248
324.929
324.62
324.321
324.031
323.751
323.481
323.22
322.969
322.728
322.496
322.274
322.061
321.858
321.664
321.48
321.306
321.141
320.985
320.839
320.702
320.575
320.457
320.348
320.249
320.16
320.08
320.009
319.948
319.896
319.853
319.82
319.797
319.782
319.777
398.175
394.551
391.01
387.595
384.338
381.26
378.369
375.666
373.145
370.795
368.604
366.559
364.646
362.852
361.166
359.577
358.075
356.651
355.298
354.009
352.777
351.597
350.465
349.377
348.328
347.317
346.339
345.392
344.475
343.585
342.721
341.881
341.063
340.267
339.491
338.735
337.996
337.276
336.573
335.886
335.215
334.559
333.918
333.291
332.678
332.079
331.494
330.922
330.362
329.815
329.281
328.759
328.249
327.751
327.264
326.79
326.327
325.875
325.435
325.006
324.588
324.181
323.786
323.401
323.028
322.665
322.313
321.972
321.641
321.322
321.013
320.715
320.427
320.15
319.883
319.628
319.382
319.148
318.923
318.71
318.507
318.314
318.132
317.96
317.798
317.647
317.507
317.377
317.257
317.148
317.049
316.961
316.883
316.815
316.758
316.711
316.674
316.648
316.632
316.627
398.279
394.856
391.497
388.235
385.097
382.104
379.264
376.583
374.057
371.68
369.446
367.344
365.364
363.497
361.731
360.059
358.471
356.961
355.52
354.143
352.824
351.559
350.342
349.169
348.038
346.945
345.888
344.863
343.869
342.904
341.966
341.053
340.164
339.298
338.454
337.63
336.827
336.042
335.275
334.526
333.795
333.079
332.38
331.696
331.028
330.374
329.735
329.11
328.499
327.902
327.318
326.748
326.191
325.646
325.115
324.596
324.09
323.597
323.116
322.647
322.19
321.746
321.313
320.893
320.484
320.088
319.703
319.33
318.969
318.62
318.282
317.956
317.641
317.338
317.047
316.767
316.499
316.242
315.997
315.763
315.541
315.33
315.131
314.943
314.767
314.602
314.448
314.306
314.175
314.056
313.947
313.851
313.765
313.691
313.629
313.577
313.537
313.509
313.492
313.486
398.361
395.099
391.887
388.751
385.715
382.796
380.004
377.346
374.821
372.427
370.16
368.012
365.976
364.044
362.208
360.462
358.797
357.207
355.685
354.227
352.827
351.48
350.182
348.93
347.719
346.548
345.414
344.313
343.245
342.206
341.196
340.212
339.254
338.32
337.408
336.519
335.65
334.802
333.974
333.164
332.372
331.598
330.841
330.101
329.377
328.669
327.977
327.3
326.638
325.991
325.358
324.74
324.136
323.546
322.97
322.408
321.859
321.324
320.802
320.294
319.799
319.317
318.848
318.392
317.948
317.518
317.101
316.696
316.304
315.925
315.559
315.205
314.864
314.535
314.219
313.916
313.625
313.346
313.08
312.826
312.585
312.356
312.14
311.936
311.745
311.566
311.399
311.245
311.103
310.973
310.856
310.751
310.658
310.578
310.51
310.454
310.411
310.38
310.361
310.354
398.427
395.294
392.2
389.168
386.217
383.363
380.614
377.979
375.458
373.052
370.758
368.572
366.488
364.5
362.603
360.789
359.054
357.391
355.795
354.261
352.784
351.36
349.986
348.657
347.371
346.125
344.916
343.743
342.602
341.492
340.411
339.359
338.332
337.331
336.354
335.4
334.468
333.558
332.668
331.797
330.947
330.115
329.301
328.505
327.726
326.965
326.22
325.492
324.779
324.083
323.402
322.736
322.086
321.451
320.83
320.225
319.634
319.057
318.495
317.947
317.414
316.894
316.389
315.898
315.42
314.956
314.507
314.071
313.648
313.24
312.845
312.463
312.095
311.741
311.401
311.073
310.76
310.459
310.173
309.899
309.639
309.393
309.159
308.94
308.733
308.54
308.36
308.194
308.041
307.901
307.774
307.661
307.561
307.475
307.402
307.342
307.295
307.261
307.241
307.234
398.48
395.451
392.453
389.506
386.626
383.825
381.114
378.5
375.984
373.569
371.254
369.035
366.909
364.872
362.919
361.046
359.246
357.516
355.851
354.245
352.697
351.2
349.753
348.352
346.994
345.675
344.395
343.151
341.94
340.761
339.612
338.492
337.399
336.332
335.291
334.274
333.279
332.307
331.357
330.428
329.519
328.63
327.76
326.909
326.076
325.262
324.465
323.686
322.923
322.178
321.449
320.736
320.04
319.36
318.696
318.047
317.414
316.797
316.195
315.608
315.036
314.48
313.938
313.412
312.9
312.403
311.921
311.454
311.001
310.563
310.14
309.731
309.337
308.957
308.592
308.241
307.905
307.583
307.276
306.983
306.704
306.44
306.19
305.954
305.733
305.526
305.333
305.155
304.99
304.841
304.705
304.584
304.477
304.384
304.305
304.241
304.191
304.155
304.133
304.126
398.523
395.577
392.657
389.779
386.956
384.201
381.522
378.925
376.414
373.991
371.657
369.41
367.248
365.167
363.164
361.235
359.377
357.585
355.855
354.183
352.567
351.002
349.486
348.015
346.587
345.2
343.851
342.538
341.259
340.013
338.797
337.612
336.454
335.324
334.219
333.14
332.084
331.052
330.043
329.055
328.089
327.144
326.218
325.313
324.427
323.56
322.712
321.882
321.07
320.277
319.5
318.741
318
317.275
316.567
315.876
315.201
314.543
313.901
313.276
312.666
312.073
311.496
310.934
310.389
309.859
309.345
308.847
308.364
307.897
307.445
307.01
306.589
306.184
305.795
305.42
305.062
304.718
304.39
304.078
303.781
303.499
303.232
302.98
302.744
302.524
302.318
302.128
301.952
301.793
301.648
301.518
301.404
301.305
301.221
301.153
301.099
301.061
301.038
301.03
398.557
395.678
392.821
389.998
387.222
384.504
381.85
379.267
376.76
374.33
371.979
369.707
367.511
365.39
363.342
361.362
359.45
357.6
355.809
354.076
352.395
350.766
349.183
347.646
346.152
344.698
343.283
341.904
340.559
339.248
337.968
336.718
335.498
334.305
333.139
331.998
330.883
329.792
328.724
327.679
326.657
325.656
324.676
323.717
322.779
321.86
320.961
320.082
319.221
318.379
317.556
316.751
315.964
315.196
314.445
313.711
312.995
312.297
311.616
310.952
310.305
309.675
309.062
308.466
307.887
307.325
306.779
306.25
305.737
305.241
304.762
304.299
303.852
303.422
303.009
302.611
302.23
301.866
301.517
301.185
300.869
300.57
300.287
300.02
299.769
299.534
299.316
299.114
298.928
298.758
298.604
298.466
298.345
298.24
298.151
298.078
298.021
297.98
297.956
297.947
398.584
395.758
392.95
390.172
387.434
384.744
382.11
379.538
377.033
374.596
372.229
369.932
367.706
365.548
363.458
361.432
359.468
357.564
355.718
353.925
352.184
350.493
348.848
347.248
345.69
344.172
342.692
341.249
339.841
338.467
337.124
335.812
334.53
333.276
332.05
330.85
329.676
328.527
327.402
326.301
325.223
324.167
323.134
322.122
321.132
320.162
319.213
318.284
317.376
316.486
315.617
314.766
313.935
313.123
312.329
311.554
310.797
310.059
309.339
308.637
307.953
307.287
306.639
306.008
305.396
304.801
304.224
303.664
303.122
302.597
302.09
301.6
301.128
300.673
300.235
299.814
299.411
299.026
298.657
298.306
297.971
297.655
297.355
297.072
296.807
296.559
296.327
296.113
295.917
295.737
295.574
295.429
295.3
295.189
295.095
295.017
294.957
294.914
294.888
294.879
398.606
395.821
393.052
390.309
387.599
384.932
382.313
379.748
377.242
374.796
372.413
370.095
367.839
365.647
363.517
361.448
359.437
357.482
355.582
353.734
351.936
350.185
348.481
346.82
345.2
343.621
342.08
340.575
339.106
337.67
336.266
334.893
333.551
332.238
330.952
329.694
328.463
327.257
326.076
324.92
323.787
322.678
321.592
320.528
319.486
318.467
317.468
316.491
315.534
314.598
313.683
312.787
311.912
311.056
310.22
309.404
308.607
307.829
307.07
306.331
305.61
304.908
304.225
303.561
302.915
302.288
301.679
301.089
300.518
299.965
299.43
298.914
298.416
297.936
297.474
297.031
296.606
296.199
295.81
295.44
295.087
294.753
294.437
294.139
293.859
293.597
293.354
293.128
292.92
292.731
292.559
292.406
292.27
292.153
292.053
291.972
291.909
291.863
291.836
291.826
398.622
395.869
393.13
390.413
387.725
385.074
382.465
379.904
377.395
374.94
372.541
370.2
367.917
365.693
363.525
361.414
359.358
357.356
355.405
353.504
351.651
349.845
348.083
346.364
344.686
343.047
341.446
339.882
338.353
336.857
335.394
333.963
332.562
331.19
329.847
328.532
327.244
325.983
324.747
323.536
322.35
321.188
320.05
318.935
317.843
316.774
315.726
314.701
313.698
312.716
311.755
310.815
309.896
308.998
308.12
307.262
306.425
305.608
304.811
304.034
303.277
302.54
301.822
301.124
300.446
299.787
299.147
298.527
297.927
297.345
296.783
296.24
295.717
295.212
294.727
294.261
293.815
293.387
292.978
292.589
292.218
291.867
291.534
291.221
290.927
290.652
290.395
290.158
289.94
289.74
289.56
289.399
289.256
289.133
289.028
288.943
288.876
288.828
288.799
288.789
398.634
395.905
393.188
390.49
387.818
385.177
382.574
380.014
377.499
375.033
372.617
370.255
367.945
365.689
363.486
361.335
359.237
357.188
355.189
353.238
351.333
349.473
347.657
345.881
344.147
342.451
340.792
339.17
337.583
336.03
334.509
333.02
331.562
330.134
328.735
327.364
326.021
324.704
323.415
322.151
320.912
319.698
318.509
317.344
316.202
315.084
313.988
312.916
311.866
310.838
309.833
308.849
307.887
306.946
306.027
305.13
304.253
303.397
302.562
301.748
300.955
300.183
299.431
298.699
297.988
297.298
296.628
295.978
295.348
294.739
294.15
293.581
293.032
292.503
291.995
291.506
291.038
290.59
290.161
289.753
289.364
288.996
288.648
288.319
288.01
287.722
287.453
287.204
286.975
286.766
286.577
286.408
286.259
286.129
286.02
285.93
285.86
285.81
285.78
285.769
398.643
395.93
393.229
390.543
387.881
385.247
382.646
380.082
377.56
375.081
372.648
370.264
367.928
365.641
363.404
361.215
359.076
356.984
354.939
352.939
350.984
349.072
347.203
345.374
343.585
341.833
340.119
338.441
336.798
335.188
333.611
332.067
330.553
329.069
327.615
326.19
324.793
323.423
322.08
320.764
319.473
318.209
316.969
315.754
314.564
313.397
312.255
311.136
310.04
308.967
307.917
306.89
305.886
304.904
303.944
303.006
302.09
301.196
300.324
299.474
298.645
297.837
297.051
296.287
295.544
294.822
294.121
293.442
292.784
292.147
291.531
290.936
290.362
289.81
289.278
288.767
288.277
287.808
287.36
286.933
286.527
286.142
285.777
285.434
285.111
284.809
284.528
284.268
284.028
283.81
283.612
283.435
283.279
283.143
283.028
282.935
282.861
282.809
282.778
282.766
398.648
395.947
393.254
390.577
387.919
385.287
382.684
380.115
377.582
375.09
372.639
370.232
367.87
365.553
363.282
361.057
358.878
356.744
354.654
352.609
350.606
348.644
346.724
344.843
343.001
341.196
339.428
337.695
335.998
334.333
332.702
331.103
329.535
327.997
326.489
325.01
323.56
322.138
320.744
319.376
318.035
316.72
315.431
314.167
312.929
311.715
310.526
309.361
308.22
307.103
306.009
304.94
303.893
302.87
301.87
300.892
299.938
299.006
298.097
297.21
296.346
295.504
294.685
293.888
293.113
292.36
291.629
290.921
290.234
289.57
288.927
288.307
287.708
287.131
286.576
286.044
285.532
285.043
284.576
284.13
283.706
283.304
282.924
282.565
282.229
281.914
281.62
281.349
281.099
280.871
280.664
280.48
280.317
280.175
280.056
279.958
279.881
279.827
279.794
279.782
398.651
395.955
393.267
390.593
387.936
385.301
382.694
380.116
377.572
375.064
372.594
370.164
367.775
365.429
363.125
360.865
358.647
356.472
354.34
352.249
350.2
348.19
346.221
344.29
342.396
340.54
338.72
336.934
335.183
333.466
331.782
330.129
328.508
326.918
325.357
323.826
322.324
320.851
319.405
317.987
316.597
315.232
313.895
312.583
311.297
310.037
308.802
307.591
306.406
305.245
304.109
302.997
301.909
300.845
299.805
298.789
297.796
296.827
295.881
294.959
294.06
293.184
292.331
291.502
290.695
289.912
289.151
288.414
287.699
287.008
286.339
285.693
285.07
284.469
283.892
283.337
282.805
282.295
281.809
281.345
280.903
280.485
280.089
279.716
279.365
279.037
278.731
278.449
278.188
277.951
277.736
277.543
277.374
277.226
277.102
277
276.92
276.863
276.829
276.817
398.652
395.957
393.269
390.593
387.933
385.294
382.678
380.09
377.532
375.006
372.516
370.063
367.648
365.272
362.936
360.641
358.386
356.172
353.998
351.863
349.769
347.713
345.696
343.716
341.773
339.866
337.995
336.159
334.356
332.587
330.851
329.147
327.474
325.832
324.22
322.638
321.086
319.562
318.066
316.599
315.159
313.747
312.361
311.002
309.67
308.364
307.083
305.829
304.599
303.396
302.217
301.063
299.935
298.83
297.751
296.696
295.666
294.66
293.678
292.72
291.787
290.877
289.992
289.13
288.292
287.479
286.689
285.923
285.18
284.462
283.767
283.096
282.448
281.825
281.224
280.648
280.095
279.566
279.06
278.578
278.119
277.684
277.272
276.885
276.52
276.179
275.862
275.568
275.297
275.05
274.827
274.627
274.451
274.298
274.168
274.062
273.979
273.92
273.884
273.872
398.65
395.952
393.261
390.58
387.914
385.266
382.64
380.039
377.465
374.922
372.41
369.933
367.491
365.086
362.719
360.389
358.097
355.844
353.63
351.453
349.315
347.214
345.15
343.123
341.132
339.177
337.256
335.37
333.517
331.698
329.911
328.156
326.433
324.74
323.078
321.447
319.844
318.271
316.727
315.211
313.723
312.263
310.831
309.426
308.047
306.696
305.371
304.073
302.8
301.554
300.334
299.139
297.97
296.826
295.708
294.615
293.547
292.505
291.487
290.495
289.527
288.584
287.666
286.773
285.905
285.061
284.242
283.448
282.678
281.933
281.212
280.516
279.845
279.198
278.575
277.977
277.404
276.855
276.33
275.83
275.354
274.903
274.476
274.073
273.695
273.341
273.012
272.707
272.426
272.17
271.938
271.731
271.548
271.389
271.255
271.145
271.059
270.998
270.961
270.948
398.647
395.943
393.245
390.556
387.881
385.222
382.583
379.966
377.375
374.812
372.279
369.777
367.308
364.874
362.474
360.111
357.783
355.492
353.238
351.02
348.839
346.695
344.586
342.513
340.475
338.472
336.503
334.569
332.667
330.799
328.962
327.158
325.386
323.644
321.933
320.252
318.601
316.98
315.387
313.824
312.289
310.783
309.304
307.853
306.43
305.034
303.666
302.324
301.009
299.721
298.459
297.224
296.016
294.833
293.676
292.546
291.442
290.363
289.31
288.283
287.282
286.306
285.356
284.432
283.533
282.66
281.812
280.99
280.193
279.421
278.675
277.954
277.259
276.589
275.945
275.325
274.731
274.163
273.619
273.101
272.609
272.141
271.699
271.282
270.891
270.524
270.183
269.867
269.577
269.311
269.071
268.856
268.666
268.502
268.363
268.249
268.16
268.096
268.058
268.045
398.643
395.929
393.221
390.521
387.834
385.162
382.508
379.875
377.265
374.681
372.125
369.598
367.102
364.638
362.207
359.809
357.446
355.118
352.825
350.567
348.345
346.157
344.005
341.887
339.803
337.754
335.739
333.756
331.807
329.891
328.006
326.154
324.333
322.543
320.784
319.055
317.357
315.688
314.049
312.439
310.858
309.305
307.782
306.286
304.819
303.379
301.967
300.583
299.227
297.897
296.595
295.32
294.072
292.851
291.657
290.49
289.349
288.235
287.147
286.086
285.052
284.044
283.062
282.107
281.178
280.275
279.399
278.549
277.725
276.928
276.156
275.411
274.692
274
273.333
272.693
272.079
271.491
270.929
270.394
269.884
269.401
268.943
268.512
268.107
267.728
267.376
267.049
266.748
266.474
266.226
266.003
265.807
265.637
265.493
265.375
265.283
265.218
265.178
265.164
398.637
395.911
393.191
390.478
387.776
385.089
382.418
379.767
377.137
374.531
371.951
369.398
366.874
364.38
361.918
359.487
357.089
354.724
352.393
350.096
347.833
345.603
343.408
341.246
339.118
337.024
334.962
332.934
330.938
328.975
327.044
325.144
323.276
321.439
319.633
317.857
316.112
314.397
312.712
311.056
309.43
307.832
306.264
304.724
303.214
301.731
300.277
298.851
297.453
296.083
294.741
293.427
292.141
290.882
289.65
288.446
287.27
286.12
284.999
283.904
282.837
281.797
280.784
279.798
278.839
277.908
277.004
276.126
275.276
274.453
273.657
272.888
272.145
271.43
270.742
270.081
269.447
268.84
268.26
267.707
267.181
266.682
266.209
265.764
265.346
264.955
264.59
264.253
263.943
263.659
263.403
263.173
262.971
262.795
262.646
262.524
262.43
262.362
262.321
262.306
398.63
395.89
393.154
390.427
387.709
385.004
382.315
379.644
376.992
374.363
371.759
369.179
366.627
364.104
361.61
359.146
356.713
354.312
351.944
349.608
347.305
345.034
342.797
340.592
338.421
336.282
334.176
332.103
330.062
328.052
326.075
324.13
322.215
320.332
318.48
316.659
314.868
313.107
311.377
309.676
308.005
306.364
304.752
303.169
301.615
300.091
298.595
297.128
295.69
294.28
292.898
291.545
290.221
288.925
287.656
286.417
285.205
284.021
282.865
281.738
280.638
279.566
278.523
277.507
276.519
275.559
274.627
273.722
272.846
271.997
271.177
270.384
269.619
268.881
268.172
267.49
266.837
266.211
265.612
265.042
264.499
263.985
263.498
263.039
262.607
262.204
261.828
261.48
261.16
260.868
260.603
260.367
260.158
259.976
259.823
259.697
259.6
259.53
259.487
259.472
398.622
395.865
393.113
390.368
387.633
384.909
382.2
379.507
376.834
374.181
371.55
368.944
366.364
363.81
361.285
358.788
356.321
353.884
351.479
349.105
346.762
344.452
342.173
339.927
337.713
335.531
333.381
331.264
329.178
327.124
325.102
323.111
321.152
319.224
317.326
315.46
313.624
311.819
310.044
308.3
306.585
304.9
303.245
301.62
300.025
298.458
296.922
295.414
293.936
292.487
291.067
289.676
288.314
286.981
285.677
284.401
283.155
281.937
280.748
279.588
278.456
277.353
276.279
275.233
274.217
273.228
272.269
271.338
270.436
269.562
268.717
267.9
267.113
266.354
265.623
264.921
264.248
263.603
262.987
262.4
261.841
261.311
260.809
260.336
259.892
259.477
259.09
258.731
258.401
258.1
257.828
257.584
257.369
257.182
257.024
256.895
256.794
256.722
256.678
256.663
398.613
395.838
393.068
390.304
387.549
384.805
382.074
379.359
376.662
373.985
371.328
368.695
366.085
363.502
360.944
358.415
355.914
353.442
351
348.588
346.207
343.857
341.538
339.251
336.995
334.771
332.579
330.418
328.289
326.191
324.125
322.09
320.086
318.114
316.172
314.262
312.382
310.534
308.715
306.927
305.17
303.443
301.746
300.079
298.442
296.835
295.258
293.711
292.193
290.706
289.248
287.819
286.42
285.051
283.711
282.401
281.12
279.869
278.647
277.454
276.291
275.158
274.053
272.979
271.933
270.917
269.931
268.973
268.046
267.147
266.278
265.438
264.628
263.848
263.096
262.374
261.682
261.019
260.385
259.781
259.206
258.661
258.145
257.658
257.201
256.774
256.375
256.007
255.667
255.358
255.077
254.826
254.605
254.413
254.25
254.117
254.014
253.939
253.894
253.879
398.603
395.808
393.018
390.234
387.458
384.692
381.94
379.201
376.48
373.777
371.093
368.432
365.794
363.179
360.591
358.029
355.494
352.987
350.509
348.06
345.641
343.252
340.894
338.566
336.27
334.004
331.77
329.566
327.394
325.254
323.145
321.066
319.02
317.004
315.019
313.066
311.143
309.251
307.39
305.56
303.76
301.992
300.253
298.545
296.868
295.221
293.604
292.018
290.462
288.936
287.441
285.976
284.54
283.135
281.761
280.416
279.101
277.817
276.563
275.338
274.144
272.98
271.847
270.743
269.669
268.626
267.613
266.629
265.676
264.754
263.861
262.998
262.166
261.364
260.592
259.85
259.139
258.457
257.806
257.186
256.595
256.035
255.504
255.004
254.535
254.095
253.686
253.307
252.959
252.64
252.352
252.094
251.867
251.669
251.502
251.366
251.259
251.183
251.137
251.12
398.592
395.777
392.966
390.16
387.361
384.573
381.797
379.034
376.287
373.558
370.848
368.158
365.49
362.846
360.225
357.63
355.062
352.52
350.007
347.521
345.065
342.638
340.241
337.873
335.537
333.23
330.955
328.71
326.497
324.314
322.162
320.042
317.953
315.894
313.867
311.871
309.907
307.973
306.07
304.198
302.357
300.548
298.769
297.021
295.303
293.617
291.962
290.337
288.743
287.18
285.647
284.146
282.675
281.235
279.826
278.447
277.099
275.782
274.496
273.241
272.016
270.822
269.659
268.527
267.426
266.355
265.315
264.307
263.329
262.382
261.466
260.581
259.727
258.904
258.111
257.35
256.62
255.92
255.252
254.615
254.009
253.433
252.889
252.376
251.894
251.443
251.023
250.634
250.276
249.949
249.653
249.389
249.155
248.952
248.781
248.64
248.531
248.453
248.405
248.389
398.581
395.744
392.91
390.081
387.26
384.448
381.647
378.859
376.087
373.33
370.592
367.874
365.177
362.501
359.849
357.222
354.62
352.044
349.495
346.973
344.48
342.016
339.58
337.174
334.798
332.452
330.136
327.85
325.596
323.372
321.179
319.017
316.886
314.786
312.718
310.68
308.674
306.699
304.755
302.843
300.961
299.111
297.293
295.505
293.749
292.024
290.33
288.667
287.036
285.436
283.868
282.33
280.824
279.35
277.907
276.495
275.114
273.765
272.447
271.161
269.907
268.683
267.492
266.331
265.203
264.105
263.04
262.006
261.004
260.033
259.094
258.187
257.311
256.467
255.655
254.874
254.125
253.408
252.723
252.07
251.448
250.858
250.3
249.774
249.279
248.817
248.386
247.987
247.62
247.285
246.981
246.71
246.47
246.262
246.086
245.942
245.83
245.75
245.701
245.684
398.57
395.709
392.851
389.999
387.153
384.317
381.491
378.678
375.878
373.095
370.329
367.581
364.854
362.148
359.465
356.805
354.169
351.559
348.975
346.418
343.888
341.387
338.913
336.469
334.054
331.669
329.313
326.988
324.693
322.429
320.195
317.993
315.821
313.68
311.571
309.493
307.446
305.431
303.447
301.494
299.573
297.683
295.825
293.999
292.204
290.441
288.71
287.011
285.343
283.707
282.102
280.53
278.99
277.481
276.004
274.56
273.147
271.766
270.418
269.101
267.817
266.565
265.344
264.157
263.001
261.878
260.786
259.728
258.701
257.707
256.745
255.816
254.919
254.055
253.223
252.423
251.656
250.921
250.219
249.55
248.913
248.309
247.737
247.198
246.691
246.217
245.776
245.367
244.991
244.648
244.337
244.059
243.813
243.6
243.42
243.272
243.157
243.075
243.025
243.008
398.558
395.672
392.791
389.914
387.043
384.181
381.33
378.49
375.663
372.852
370.058
367.281
364.524
361.787
359.072
356.38
353.711
351.067
348.448
345.856
343.29
340.752
338.242
335.76
333.307
330.883
328.488
326.124
323.79
321.486
319.212
316.97
314.758
312.578
310.428
308.31
306.223
304.168
302.145
300.153
298.193
296.265
294.368
292.504
290.671
288.871
287.103
285.367
283.663
281.991
280.352
278.745
277.171
275.629
274.119
272.642
271.198
269.786
268.407
267.061
265.747
264.466
263.218
262.003
260.821
259.672
258.556
257.472
256.422
255.405
254.421
253.47
252.552
251.667
250.816
249.998
249.212
248.461
247.742
247.057
246.405
245.786
245.201
244.649
244.131
243.646
243.194
242.775
242.39
242.039
241.72
241.436
241.184
240.966
240.782
240.631
240.513
240.429
240.378
240.36
398.545
395.635
392.728
389.826
386.93
384.042
381.164
378.297
375.443
372.604
369.78
366.974
364.187
361.419
358.673
355.948
353.246
350.569
347.916
345.288
342.687
340.113
337.566
335.047