/*--------------------------------*- C++ -*----------------------------------*\
  =========                 |
  \\      /  F ield         | OpenFOAM: The Open Source CFD Toolbox
   \\    /   O peration     | Website:  https://openfoam.org
    \\  /    A nd           | Version:  10
     \\/     M anipulation  |
\*---------------------------------------------------------------------------*/
FoamFile
{
    format      ascii;
    class       volScalarField;
    location    "2";
    object      ddt0(T);
}
// * * * * * * * * * * * * * * * * * * * * * * * * * * * * * * * * * * * * * //

dimensions      [0 0 -2 0 0 0 0];

internalField   nonuniform List<scalar> 
100
(
-1.12345
-3.35991
-5.56656
-7.72381
-9.81252
-11.8142
-13.7109
-15.4861
-17.1237
-18.6094
-19.9299
-21.0735
-22.0301
-22.7911
-23.3498
-23.7013
-23.8424
-23.7718
-23.4903
-23.0002
-22.306
-21.4138
-20.3315
-19.0687
-17.6368
-16.0482
-14.3172
-12.4592
-10.4905
-8.42873
-6.29214
-4.09971
-1.87089
0.374544
2.61665
4.83553
7.0115
9.12522
11.158
13.0917
14.9091
16.5943
18.1322
19.5091
20.7128
21.7327
22.5598
23.1865
23.6075
23.8189
23.8189
23.6075
23.1865
22.5597
21.7327
20.7128
19.5091
18.1322
16.5943
14.9091
13.0917
11.158
9.12522
7.01149
4.83552
2.61663
0.374519
-1.87092
-4.09975
-6.29219
-8.42877
-10.4905
-12.4592
-14.3173
-16.0482
-17.6368
-19.0688
-20.3315
-21.4138
-22.306
-23.0002
-23.4902
-23.7718
-23.8424
-23.7013
-23.3498
-22.7911
-22.0301
-21.0735
-19.9299
-18.6094
-17.1237
-15.486
-13.7109
-11.8141
-9.81246
-7.72376
-5.56652
-3.35988
-1.12344
)
;

boundaryField
{
    xmin
    {
        type            calculated;
        value           uniform 0;
    }
    xmax
    {
        type            calculated;
        value           uniform 0;
    }
    frontAndBack
    {
        type            empty;
    }
}


// ************************************************************************* //
