/*--------------------------------*- C++ -*----------------------------------*\
  =========                 |
  \\      /  F ield         | OpenFOAM: The Open Source CFD Toolbox
   \\    /   O peration     | Website:  https://openfoam.org
    \\  /    A nd           | Version:  10
     \\/     M anipulation  |
\*---------------------------------------------------------------------------*/
FoamFile
{
    format      ascii;
    class       volScalarField;
    location    "1.7";
    object      T;
}
// * * * * * * * * * * * * * * * * * * * * * * * * * * * * * * * * * * * * * //

dimensions      [0 0 -1 0 0 0 0];

internalField   nonuniform List<scalar> 
100
(
0.0334137
0.0990568
0.161191
0.217614
0.266329
0.305609
0.334062
0.350681
0.354877
0.346501
0.325851
0.293657
0.25106
0.199569
0.141008
0.0774518
0.0111519
-0.0555429
-0.12027
-0.180737
-0.234801
-0.280547
-0.316354
-0.340955
-0.353477
-0.353477
-0.340955
-0.316354
-0.280547
-0.234801
-0.180736
-0.12027
-0.0555423
0.0111528
0.0774527
0.141009
0.19957
0.251061
0.293658
0.325852
0.346502
0.354878
0.350682
0.334063
0.305609
0.266329
0.217614
0.16119
0.0990563
0.0334131
-0.0334138
-0.0990571
-0.161191
-0.217615
-0.26633
-0.305609
-0.334063
-0.350682
-0.354878
-0.346502
-0.325851
-0.293657
-0.25106
-0.199569
-0.141008
-0.077452
-0.011152
0.055543
0.12027
0.180737
0.234801
0.280547
0.316355
0.340955
0.353477
0.353477
0.340955
0.316354
0.280546
0.2348
0.180736
0.120269
0.0555422
-0.0111527
-0.0774525
-0.141008
-0.199569
-0.25106
-0.293657
-0.325851
-0.346502
-0.354877
-0.350681
-0.334062
-0.305608
-0.266328
-0.217614
-0.16119
-0.0990561
-0.033413
)
;

boundaryField
{
    inlet
    {
        type            cyclic;
    }
    outlet
    {
        type            cyclic;
    }
    bottom
    {
        type            slip;
    }
    top
    {
        type            slip;
    }
    frontAndBack
    {
        type            empty;
    }
}


// ************************************************************************* //
