# Field minima and maxima
# Time          	field           	min             	location(min)   	max             	location(max)   
0.05            	U               	(2.11676871e-02 -2.38227056e-04 0.00000000e+00)	(5.10204081e-02 -4.97500000e-01 0.00000000e+00)	(2.11676871e-02 -2.38227056e-04 0.00000000e+00)	(5.10204081e-02 -4.97500000e-01 0.00000000e+00)
0.05            	p               	0.00000000e+00	(5.00000000e+00 -4.97500000e-01 0.00000000e+00)	1.46304253e+02	(5.10204081e-02 4.74498710e-02 0.00000000e+00)
0.1             	U               	(4.52529019e-02 -1.13169314e-03 0.00000000e+00)	(5.10204081e-02 -4.97500000e-01 0.00000000e+00)	(4.52529019e-02 -1.13169314e-03 0.00000000e+00)	(5.10204081e-02 -4.97500000e-01 0.00000000e+00)
0.1             	p               	-3.07725360e+00	(5.10204081e-02 4.52653054e-01 0.00000000e+00)	0.00000000e+00	(5.00000000e+00 -4.97500000e-01 0.00000000e+00)
0.15            	U               	(2.07230151e-02 -1.05256661e-04 0.00000000e+00)	(5.10204081e-02 -4.97500000e-01 0.00000000e+00)	(2.07230151e-02 -1.05256661e-04 0.00000000e+00)	(5.10204081e-02 -4.97500000e-01 0.00000000e+00)
0.15            	p               	0.00000000e+00	(5.00000000e+00 -4.97500000e-01 0.00000000e+00)	2.95737521e+00	(1.53061224e-01 4.97500000e-01 -2.80961505e-18)
0.2             	U               	(1.76294669e-02 -1.55492375e-05 0.00000000e+00)	(5.10204081e-02 -4.97500000e-01 0.00000000e+00)	(1.76294669e-02 -1.55492375e-05 0.00000000e+00)	(5.10204081e-02 -4.97500000e-01 0.00000000e+00)
0.2             	p               	0.00000000e+00	(5.00000000e+00 -4.97500000e-01 0.00000000e+00)	2.02460068e+00	(3.57142857e-01 -4.97500000e-01 1.35662076e-18)
0.25            	U               	(1.68301742e-02 4.02410281e-05 0.00000000e+00)	(5.10204081e-02 -4.97500000e-01 0.00000000e+00)	(1.68301742e-02 4.02410281e-05 0.00000000e+00)	(5.10204081e-02 -4.97500000e-01 0.00000000e+00)
0.25            	p               	0.00000000e+00	(5.00000000e+00 -4.97500000e-01 0.00000000e+00)	1.75101231e+00	(3.57142857e-01 -4.97500000e-01 1.35662076e-18)
0.3             	U               	(1.72965836e-02 4.68276253e-05 0.00000000e+00)	(5.10204081e-02 -4.97500000e-01 0.00000000e+00)	(1.72965836e-02 4.68276253e-05 0.00000000e+00)	(5.10204081e-02 -4.97500000e-01 0.00000000e+00)
0.3             	p               	0.00000000e+00	(5.00000000e+00 -4.97500000e-01 0.00000000e+00)	1.56330242e+00	(4.59183673e-01 4.97500000e-01 -2.90598858e-18)
0.35            	U               	(1.80287021e-02 3.94481995e-05 0.00000000e+00)	(5.10204081e-02 -4.97500000e-01 0.00000000e+00)	(1.80287021e-02 3.94481995e-05 0.00000000e+00)	(5.10204081e-02 -4.97500000e-01 0.00000000e+00)
0.35            	p               	0.00000000e+00	(5.00000000e+00 -4.97500000e-01 0.00000000e+00)	1.42436639e+00	(5.61224490e-01 4.97500000e-01 0.00000000e+00)
0.4             	U               	(1.86796299e-02 2.74379103e-05 0.00000000e+00)	(5.10204081e-02 -4.97500000e-01 0.00000000e+00)	(1.86796299e-02 2.74379103e-05 0.00000000e+00)	(5.10204081e-02 -4.97500000e-01 0.00000000e+00)
0.4             	p               	0.00000000e+00	(5.00000000e+00 -4.97500000e-01 0.00000000e+00)	1.31751780e+00	(5.61224490e-01 4.97500000e-01 0.00000000e+00)
0.45            	U               	(1.91262441e-02 1.70210464e-05 0.00000000e+00)	(5.10204081e-02 -4.97500000e-01 0.00000000e+00)	(1.91262441e-02 1.70210464e-05 0.00000000e+00)	(5.10204081e-02 -4.97500000e-01 0.00000000e+00)
0.45            	p               	0.00000000e+00	(5.00000000e+00 -4.97500000e-01 0.00000000e+00)	1.23095033e+00	(6.63265306e-01 4.97500000e-01 -2.90598858e-18)
0.5             	U               	(1.93804766e-02 9.60817556e-06 0.00000000e+00)	(5.10204081e-02 -4.97500000e-01 0.00000000e+00)	(1.93804766e-02 9.60817556e-06 0.00000000e+00)	(5.10204081e-02 -4.97500000e-01 0.00000000e+00)
0.5             	p               	0.00000000e+00	(5.00000000e+00 -4.97500000e-01 0.00000000e+00)	1.15726576e+00	(6.63265306e-01 -4.97500000e-01 2.80961505e-18)
0.55            	U               	(1.94915187e-02 5.00453439e-06 0.00000000e+00)	(5.10204081e-02 -4.97500000e-01 0.00000000e+00)	(1.94915187e-02 5.00453439e-06 0.00000000e+00)	(5.10204081e-02 -4.97500000e-01 0.00000000e+00)
0.55            	p               	0.00000000e+00	(5.00000000e+00 -4.97500000e-01 0.00000000e+00)	1.09610141e+00	(7.65306122e-01 4.97500000e-01 0.00000000e+00)
0.6             	U               	(1.95287188e-02 2.37781430e-06 0.00000000e+00)	(5.10204081e-02 -4.97500000e-01 0.00000000e+00)	(1.95287188e-02 2.37781430e-06 0.00000000e+00)	(5.10204081e-02 -4.97500000e-01 0.00000000e+00)
0.6             	p               	0.00000000e+00	(5.00000000e+00 -4.97500000e-01 0.00000000e+00)	1.04063989e+00	(7.65306122e-01 -4.97500000e-01 0.00000000e+00)
0.65            	U               	(1.95350852e-02 1.02081120e-06 0.00000000e+00)	(5.10204081e-02 -4.97500000e-01 0.00000000e+00)	(1.95350852e-02 1.02081120e-06 0.00000000e+00)	(5.10204081e-02 -4.97500000e-01 0.00000000e+00)
0.65            	p               	0.00000000e+00	(5.00000000e+00 -4.97500000e-01 0.00000000e+00)	1.00670175e+00	(5.10204081e-02 4.74498710e-02 0.00000000e+00)
0.7             	U               	(1.95297583e-02 4.20896278e-07 0.00000000e+00)	(5.10204081e-02 -4.97500000e-01 0.00000000e+00)	(1.95297583e-02 4.20896278e-07 0.00000000e+00)	(5.10204081e-02 -4.97500000e-01 0.00000000e+00)
0.7             	p               	0.00000000e+00	(5.00000000e+00 -4.97500000e-01 0.00000000e+00)	9.79675277e-01	(5.10204082e-02 4.28211773e-01 0.00000000e+00)
0.75            	U               	(1.95216152e-02 2.32617746e-07 0.00000000e+00)	(5.10204081e-02 -4.97500000e-01 0.00000000e+00)	(1.95216152e-02 2.32617746e-07 0.00000000e+00)	(5.10204081e-02 -4.97500000e-01 0.00000000e+00)
0.75            	p               	0.00000000e+00	(5.00000000e+00 -4.97500000e-01 0.00000000e+00)	9.56695855e-01	(5.10204081e-02 -4.52653054e-01 0.00000000e+00)
0.8             	U               	(1.95149231e-02 2.43302080e-07 0.00000000e+00)	(5.10204081e-02 -4.97500000e-01 0.00000000e+00)	(1.95149231e-02 2.43302080e-07 0.00000000e+00)	(5.10204081e-02 -4.97500000e-01 0.00000000e+00)
0.8             	p               	0.00000000e+00	(5.00000000e+00 -4.97500000e-01 0.00000000e+00)	9.36655566e-01	(5.10204082e-02 4.70214048e-01 0.00000000e+00)
0.85            	U               	(1.95092749e-02 3.29721529e-07 0.00000000e+00)	(5.10204081e-02 -4.97500000e-01 0.00000000e+00)	(1.95092749e-02 3.29721529e-07 0.00000000e+00)	(5.10204081e-02 -4.97500000e-01 0.00000000e+00)
0.85            	p               	0.00000000e+00	(5.00000000e+00 -4.97500000e-01 0.00000000e+00)	9.19056350e-01	(5.10204081e-02 -4.70214048e-01 0.00000000e+00)
0.9             	U               	(1.95048735e-02 4.24432057e-07 0.00000000e+00)	(5.10204081e-02 -4.97500000e-01 0.00000000e+00)	(1.95048735e-02 4.24432057e-07 0.00000000e+00)	(5.10204081e-02 -4.97500000e-01 0.00000000e+00)
0.9             	p               	0.00000000e+00	(5.00000000e+00 -4.97500000e-01 0.00000000e+00)	9.03521127e-01	(5.10204081e-02 -4.70214048e-01 0.00000000e+00)
0.95            	U               	(1.95015694e-02 5.09875028e-07 0.00000000e+00)	(5.10204081e-02 -4.97500000e-01 0.00000000e+00)	(1.95015694e-02 5.09875028e-07 0.00000000e+00)	(5.10204081e-02 -4.97500000e-01 0.00000000e+00)
0.95            	p               	0.00000000e+00	(5.00000000e+00 -4.97500000e-01 0.00000000e+00)	8.89742783e-01	(5.10204081e-02 -4.70214048e-01 0.00000000e+00)
1               	U               	(1.94991685e-02 5.78219367e-07 0.00000000e+00)	(5.10204081e-02 -4.97500000e-01 0.00000000e+00)	(1.94991685e-02 5.78219367e-07 0.00000000e+00)	(5.10204081e-02 -4.97500000e-01 0.00000000e+00)
1               	p               	0.00000000e+00	(5.00000000e+00 -4.97500000e-01 0.00000000e+00)	8.77477169e-01	(5.10204082e-02 4.70214048e-01 0.00000000e+00)
1.05            	U               	(1.94974232e-02 6.28275825e-07 0.00000000e+00)	(5.10204081e-02 -4.97500000e-01 0.00000000e+00)	(1.94974232e-02 6.28275825e-07 0.00000000e+00)	(5.10204081e-02 -4.97500000e-01 0.00000000e+00)
1.05            	p               	0.00000000e+00	(5.00000000e+00 -4.97500000e-01 0.00000000e+00)	8.66518838e-01	(5.10204081e-02 -4.70214048e-01 0.00000000e+00)
1.1             	U               	(1.94962032e-02 6.62976601e-07 0.00000000e+00)	(5.10204081e-02 -4.97500000e-01 0.00000000e+00)	(1.94962032e-02 6.62976601e-07 0.00000000e+00)	(5.10204081e-02 -4.97500000e-01 0.00000000e+00)
1.1             	p               	0.00000000e+00	(5.00000000e+00 -4.97500000e-01 0.00000000e+00)	8.56713530e-01	(5.10204082e-02 4.70214048e-01 0.00000000e+00)
1.15            	U               	(1.94953442e-02 6.86844455e-07 0.00000000e+00)	(5.10204081e-02 -4.97500000e-01 0.00000000e+00)	(1.94953442e-02 6.86844455e-07 0.00000000e+00)	(5.10204081e-02 -4.97500000e-01 0.00000000e+00)
1.15            	p               	0.00000000e+00	(5.00000000e+00 -4.97500000e-01 0.00000000e+00)	8.47917404e-01	(5.10204082e-02 4.70214048e-01 0.00000000e+00)
1.2             	U               	(1.94947575e-02 7.00901782e-07 0.00000000e+00)	(5.10204081e-02 -4.97500000e-01 0.00000000e+00)	(1.94947575e-02 7.00901782e-07 0.00000000e+00)	(5.10204081e-02 -4.97500000e-01 0.00000000e+00)
1.2             	p               	0.00000000e+00	(5.00000000e+00 -4.97500000e-01 0.00000000e+00)	8.40008290e-01	(5.10204082e-02 4.70214048e-01 0.00000000e+00)
1.25            	U               	(1.94943682e-02 7.07296907e-07 0.00000000e+00)	(5.10204081e-02 -4.97500000e-01 0.00000000e+00)	(1.94943682e-02 7.07296907e-07 0.00000000e+00)	(5.10204081e-02 -4.97500000e-01 0.00000000e+00)
1.25            	p               	0.00000000e+00	(5.00000000e+00 -4.97500000e-01 0.00000000e+00)	8.32897809e-01	(5.10204082e-02 4.70214048e-01 0.00000000e+00)
1.3             	U               	(1.94941019e-02 7.09498240e-07 0.00000000e+00)	(5.10204081e-02 -4.97500000e-01 0.00000000e+00)	(1.94941019e-02 7.09498240e-07 0.00000000e+00)	(5.10204081e-02 -4.97500000e-01 0.00000000e+00)
1.3             	p               	0.00000000e+00	(5.00000000e+00 -4.97500000e-01 0.00000000e+00)	8.26487051e-01	(5.10204082e-02 4.70214048e-01 0.00000000e+00)
1.35            	U               	(1.94939238e-02 7.10090220e-07 0.00000000e+00)	(5.10204081e-02 -4.97500000e-01 0.00000000e+00)	(1.94939238e-02 7.10090220e-07 0.00000000e+00)	(5.10204081e-02 -4.97500000e-01 0.00000000e+00)
1.35            	p               	0.00000000e+00	(5.00000000e+00 -4.97500000e-01 0.00000000e+00)	8.20707396e-01	(5.10204081e-02 -4.70214048e-01 0.00000000e+00)
1.4             	U               	(1.94938070e-02 7.10111742e-07 0.00000000e+00)	(5.10204081e-02 -4.97500000e-01 0.00000000e+00)	(1.94938070e-02 7.10111742e-07 0.00000000e+00)	(5.10204081e-02 -4.97500000e-01 0.00000000e+00)
1.4             	p               	0.00000000e+00	(5.00000000e+00 -4.97500000e-01 0.00000000e+00)	8.15490712e-01	(5.10204081e-02 -4.70214048e-01 0.00000000e+00)
1.45            	U               	(1.94937410e-02 7.09867233e-07 0.00000000e+00)	(5.10204081e-02 -4.97500000e-01 0.00000000e+00)	(1.94937410e-02 7.09867233e-07 0.00000000e+00)	(5.10204081e-02 -4.97500000e-01 0.00000000e+00)
1.45            	p               	0.00000000e+00	(5.00000000e+00 -4.97500000e-01 0.00000000e+00)	8.10779955e-01	(5.10204081e-02 -4.70214048e-01 0.00000000e+00)
1.5             	U               	(1.94937096e-02 7.09602240e-07 0.00000000e+00)	(5.10204081e-02 -4.97500000e-01 0.00000000e+00)	(1.94937096e-02 7.09602240e-07 0.00000000e+00)	(5.10204081e-02 -4.97500000e-01 0.00000000e+00)
1.5             	p               	0.00000000e+00	(5.00000000e+00 -4.97500000e-01 0.00000000e+00)	8.06526384e-01	(5.10204081e-02 -4.70214048e-01 0.00000000e+00)
1.55            	U               	(1.94936966e-02 7.09477666e-07 0.00000000e+00)	(5.10204081e-02 -4.97500000e-01 0.00000000e+00)	(1.94936966e-02 7.09477666e-07 0.00000000e+00)	(5.10204081e-02 -4.97500000e-01 0.00000000e+00)
1.55            	p               	0.00000000e+00	(5.00000000e+00 -4.97500000e-01 0.00000000e+00)	8.02684698e-01	(5.10204082e-02 4.70214048e-01 0.00000000e+00)
1.6             	U               	(1.94936948e-02 7.09318239e-07 0.00000000e+00)	(5.10204081e-02 -4.97500000e-01 0.00000000e+00)	(1.94936948e-02 7.09318239e-07 0.00000000e+00)	(5.10204081e-02 -4.97500000e-01 0.00000000e+00)
1.6             	p               	0.00000000e+00	(5.00000000e+00 -4.97500000e-01 0.00000000e+00)	7.99215836e-01	(5.10204082e-02 4.70214048e-01 0.00000000e+00)
1.65            	U               	(1.94936994e-02 7.09150384e-07 0.00000000e+00)	(5.10204081e-02 -4.97500000e-01 0.00000000e+00)	(1.94936994e-02 7.09150384e-07 0.00000000e+00)	(5.10204081e-02 -4.97500000e-01 0.00000000e+00)
1.65            	p               	0.00000000e+00	(5.00000000e+00 -4.97500000e-01 0.00000000e+00)	7.96085580e-01	(5.10204082e-02 4.70214048e-01 0.00000000e+00)
1.7             	U               	(1.94937074e-02 7.08965084e-07 0.00000000e+00)	(5.10204081e-02 -4.97500000e-01 0.00000000e+00)	(1.94937074e-02 7.08965084e-07 0.00000000e+00)	(5.10204081e-02 -4.97500000e-01 0.00000000e+00)
1.7             	p               	0.00000000e+00	(5.00000000e+00 -4.97500000e-01 0.00000000e+00)	7.93262752e-01	(5.10204082e-02 4.70214048e-01 0.00000000e+00)
1.75            	U               	(1.94937172e-02 7.08771439e-07 0.00000000e+00)	(5.10204081e-02 -4.97500000e-01 0.00000000e+00)	(1.94937172e-02 7.08771439e-07 0.00000000e+00)	(5.10204081e-02 -4.97500000e-01 0.00000000e+00)
1.75            	p               	0.00000000e+00	(5.00000000e+00 -4.97500000e-01 0.00000000e+00)	7.90719711e-01	(5.10204082e-02 4.70214048e-01 0.00000000e+00)
1.8             	U               	(1.94937272e-02 7.08602719e-07 0.00000000e+00)	(5.10204081e-02 -4.97500000e-01 0.00000000e+00)	(1.94937272e-02 7.08602719e-07 0.00000000e+00)	(5.10204081e-02 -4.97500000e-01 0.00000000e+00)
1.8             	p               	0.00000000e+00	(5.00000000e+00 -4.97500000e-01 0.00000000e+00)	7.88432073e-01	(5.10204082e-02 4.70214048e-01 0.00000000e+00)
1.85            	U               	(1.94937365e-02 7.08476778e-07 0.00000000e+00)	(5.10204081e-02 -4.97500000e-01 0.00000000e+00)	(1.94937365e-02 7.08476778e-07 0.00000000e+00)	(5.10204081e-02 -4.97500000e-01 0.00000000e+00)
1.85            	p               	0.00000000e+00	(5.00000000e+00 -4.97500000e-01 0.00000000e+00)	7.86377569e-01	(5.10204082e-02 4.70214048e-01 0.00000000e+00)
1.9             	U               	(1.94937452e-02 7.08361512e-07 0.00000000e+00)	(5.10204081e-02 -4.97500000e-01 0.00000000e+00)	(1.94937452e-02 7.08361512e-07 0.00000000e+00)	(5.10204081e-02 -4.97500000e-01 0.00000000e+00)
1.9             	p               	0.00000000e+00	(5.00000000e+00 -4.97500000e-01 0.00000000e+00)	7.84536596e-01	(5.10204082e-02 4.70214048e-01 0.00000000e+00)
1.95            	U               	(1.94937530e-02 7.08261373e-07 0.00000000e+00)	(5.10204081e-02 -4.97500000e-01 0.00000000e+00)	(1.94937530e-02 7.08261373e-07 0.00000000e+00)	(5.10204081e-02 -4.97500000e-01 0.00000000e+00)
1.95            	p               	0.00000000e+00	(5.00000000e+00 -4.97500000e-01 0.00000000e+00)	7.82891265e-01	(5.10204082e-02 4.70214048e-01 0.00000000e+00)
2               	U               	(1.94937599e-02 7.08180518e-07 0.00000000e+00)	(5.10204081e-02 -4.97500000e-01 0.00000000e+00)	(1.94937599e-02 7.08180518e-07 0.00000000e+00)	(5.10204081e-02 -4.97500000e-01 0.00000000e+00)
2               	p               	0.00000000e+00	(5.00000000e+00 -4.97500000e-01 0.00000000e+00)	7.81425326e-01	(5.10204082e-02 4.70214048e-01 0.00000000e+00)
2.05            	U               	(1.94937658e-02 7.08109172e-07 0.00000000e+00)	(5.10204081e-02 -4.97500000e-01 0.00000000e+00)	(1.94937658e-02 7.08109172e-07 0.00000000e+00)	(5.10204081e-02 -4.97500000e-01 0.00000000e+00)
2.05            	p               	0.00000000e+00	(5.00000000e+00 -4.97500000e-01 0.00000000e+00)	7.80124585e-01	(5.10204082e-02 4.70214048e-01 0.00000000e+00)
2.1             	U               	(1.94937707e-02 7.08053475e-07 0.00000000e+00)	(5.10204081e-02 -4.97500000e-01 0.00000000e+00)	(1.94937707e-02 7.08053475e-07 0.00000000e+00)	(5.10204081e-02 -4.97500000e-01 0.00000000e+00)
2.1             	p               	0.00000000e+00	(5.00000000e+00 -4.97500000e-01 0.00000000e+00)	7.78976087e-01	(5.10204082e-02 4.70214048e-01 0.00000000e+00)
2.15            	U               	(1.94937748e-02 7.08008482e-07 0.00000000e+00)	(5.10204081e-02 -4.97500000e-01 0.00000000e+00)	(1.94937748e-02 7.08008482e-07 0.00000000e+00)	(5.10204081e-02 -4.97500000e-01 0.00000000e+00)
2.15            	p               	0.00000000e+00	(5.00000000e+00 -4.97500000e-01 0.00000000e+00)	7.77968053e-01	(5.10204082e-02 4.70214048e-01 0.00000000e+00)
2.2             	U               	(1.94937782e-02 7.07970709e-07 0.00000000e+00)	(5.10204081e-02 -4.97500000e-01 0.00000000e+00)	(1.94937782e-02 7.07970709e-07 0.00000000e+00)	(5.10204081e-02 -4.97500000e-01 0.00000000e+00)
2.2             	p               	0.00000000e+00	(5.00000000e+00 -4.97500000e-01 0.00000000e+00)	7.77091045e-01	(5.10204082e-02 4.70214048e-01 0.00000000e+00)
2.25            	U               	(1.94937809e-02 7.07945884e-07 0.00000000e+00)	(5.10204081e-02 -4.97500000e-01 0.00000000e+00)	(1.94937809e-02 7.07945884e-07 0.00000000e+00)	(5.10204081e-02 -4.97500000e-01 0.00000000e+00)
2.25            	p               	0.00000000e+00	(5.00000000e+00 -4.97500000e-01 0.00000000e+00)	7.76335296e-01	(5.10204082e-02 4.70214048e-01 0.00000000e+00)
2.3             	U               	(1.94937829e-02 7.07926126e-07 0.00000000e+00)	(5.10204081e-02 -4.97500000e-01 0.00000000e+00)	(1.94937829e-02 7.07926126e-07 0.00000000e+00)	(5.10204081e-02 -4.97500000e-01 0.00000000e+00)
2.3             	p               	0.00000000e+00	(5.00000000e+00 -4.97500000e-01 0.00000000e+00)	7.75692890e-01	(5.10204082e-02 4.70214048e-01 0.00000000e+00)
2.35            	U               	(1.94937846e-02 7.07918499e-07 0.00000000e+00)	(5.10204081e-02 -4.97500000e-01 0.00000000e+00)	(1.94937846e-02 7.07918499e-07 0.00000000e+00)	(5.10204081e-02 -4.97500000e-01 0.00000000e+00)
2.35            	p               	0.00000000e+00	(5.00000000e+00 -4.97500000e-01 0.00000000e+00)	7.75156715e-01	(5.10204082e-02 4.70214048e-01 0.00000000e+00)
2.4             	U               	(1.94937857e-02 7.07910164e-07 0.00000000e+00)	(5.10204081e-02 -4.97500000e-01 0.00000000e+00)	(1.94937857e-02 7.07910164e-07 0.00000000e+00)	(5.10204081e-02 -4.97500000e-01 0.00000000e+00)
2.4             	p               	0.00000000e+00	(5.00000000e+00 -4.97500000e-01 0.00000000e+00)	7.74720522e-01	(5.10204082e-02 4.70214048e-01 0.00000000e+00)
2.45            	U               	(1.94937867e-02 7.07897251e-07 0.00000000e+00)	(5.10204081e-02 -4.97500000e-01 0.00000000e+00)	(1.94937867e-02 7.07897251e-07 0.00000000e+00)	(5.10204081e-02 -4.97500000e-01 0.00000000e+00)
2.45            	p               	0.00000000e+00	(5.00000000e+00 -4.97500000e-01 0.00000000e+00)	7.74378928e-01	(5.10204082e-02 4.70214048e-01 0.00000000e+00)
2.5             	U               	(1.94937874e-02 7.07889316e-07 0.00000000e+00)	(5.10204081e-02 -4.97500000e-01 0.00000000e+00)	(1.94937874e-02 7.07889316e-07 0.00000000e+00)	(5.10204081e-02 -4.97500000e-01 0.00000000e+00)
2.5             	p               	0.00000000e+00	(5.00000000e+00 -4.97500000e-01 0.00000000e+00)	7.74127346e-01	(5.10204082e-02 4.70214048e-01 0.00000000e+00)
2.55            	U               	(1.94937880e-02 7.07883200e-07 0.00000000e+00)	(5.10204081e-02 -4.97500000e-01 0.00000000e+00)	(1.94937880e-02 7.07883200e-07 0.00000000e+00)	(5.10204081e-02 -4.97500000e-01 0.00000000e+00)
2.55            	p               	0.00000000e+00	(5.00000000e+00 -4.97500000e-01 0.00000000e+00)	7.73961771e-01	(5.10204082e-02 4.70214048e-01 0.00000000e+00)
2.6             	U               	(1.94937885e-02 7.07869372e-07 0.00000000e+00)	(5.10204081e-02 -4.97500000e-01 0.00000000e+00)	(1.94937885e-02 7.07869372e-07 0.00000000e+00)	(5.10204081e-02 -4.97500000e-01 0.00000000e+00)
2.6             	p               	0.00000000e+00	(5.00000000e+00 -4.97500000e-01 0.00000000e+00)	7.73878416e-01	(5.10204082e-02 4.70214048e-01 0.00000000e+00)
2.65            	U               	(1.94937887e-02 7.07881442e-07 0.00000000e+00)	(5.10204081e-02 -4.97500000e-01 0.00000000e+00)	(1.94937887e-02 7.07881442e-07 0.00000000e+00)	(5.10204081e-02 -4.97500000e-01 0.00000000e+00)
2.65            	p               	0.00000000e+00	(5.00000000e+00 -4.97500000e-01 0.00000000e+00)	7.73874409e-01	(5.10204082e-02 4.70214048e-01 0.00000000e+00)
2.7             	U               	(1.94937888e-02 7.07879272e-07 0.00000000e+00)	(5.10204081e-02 -4.97500000e-01 0.00000000e+00)	(1.94937888e-02 7.07879272e-07 0.00000000e+00)	(5.10204081e-02 -4.97500000e-01 0.00000000e+00)
2.7             	p               	0.00000000e+00	(5.00000000e+00 -4.97500000e-01 0.00000000e+00)	7.73946921e-01	(5.10204082e-02 4.70214048e-01 0.00000000e+00)
2.75            	U               	(1.94937889e-02 7.07878648e-07 0.00000000e+00)	(5.10204081e-02 -4.97500000e-01 0.00000000e+00)	(1.94937889e-02 7.07878648e-07 0.00000000e+00)	(5.10204081e-02 -4.97500000e-01 0.00000000e+00)
2.75            	p               	0.00000000e+00	(5.00000000e+00 -4.97500000e-01 0.00000000e+00)	7.74093248e-01	(5.10204082e-02 4.70214048e-01 0.00000000e+00)
2.8             	U               	(1.94937891e-02 7.07875433e-07 0.00000000e+00)	(5.10204081e-02 -4.97500000e-01 0.00000000e+00)	(1.94937891e-02 7.07875433e-07 0.00000000e+00)	(5.10204081e-02 -4.97500000e-01 0.00000000e+00)
2.8             	p               	0.00000000e+00	(5.00000000e+00 -4.97500000e-01 0.00000000e+00)	7.74310903e-01	(5.10204082e-02 4.70214048e-01 0.00000000e+00)
2.85            	U               	(1.94937892e-02 7.07868473e-07 0.00000000e+00)	(5.10204081e-02 -4.97500000e-01 0.00000000e+00)	(1.94937892e-02 7.07868473e-07 0.00000000e+00)	(5.10204081e-02 -4.97500000e-01 0.00000000e+00)
2.85            	p               	0.00000000e+00	(5.00000000e+00 -4.97500000e-01 0.00000000e+00)	7.74610307e-01	(5.10204081e-02 -4.70214048e-01 0.00000000e+00)
2.9             	U               	(1.94937892e-02 7.07868459e-07 0.00000000e+00)	(5.10204081e-02 -4.97500000e-01 0.00000000e+00)	(1.94937892e-02 7.07868459e-07 0.00000000e+00)	(5.10204081e-02 -4.97500000e-01 0.00000000e+00)
2.9             	p               	0.00000000e+00	(5.00000000e+00 -4.97500000e-01 0.00000000e+00)	7.74954493e-01	(5.10204082e-02 4.70214048e-01 0.00000000e+00)
2.95            	U               	(1.94937891e-02 7.07869719e-07 0.00000000e+00)	(5.10204081e-02 -4.97500000e-01 0.00000000e+00)	(1.94937891e-02 7.07869719e-07 0.00000000e+00)	(5.10204081e-02 -4.97500000e-01 0.00000000e+00)
2.95            	p               	0.00000000e+00	(5.00000000e+00 -4.97500000e-01 0.00000000e+00)	7.75373502e-01	(5.10204081e-02 -4.70214048e-01 0.00000000e+00)
3               	U               	(1.94937892e-02 7.07873250e-07 0.00000000e+00)	(5.10204081e-02 -4.97500000e-01 0.00000000e+00)	(1.94937892e-02 7.07873250e-07 0.00000000e+00)	(5.10204081e-02 -4.97500000e-01 0.00000000e+00)
3               	p               	0.00000000e+00	(5.00000000e+00 -4.97500000e-01 0.00000000e+00)	7.75853388e-01	(5.10204081e-02 -4.70214048e-01 0.00000000e+00)
3.05            	U               	(1.94937892e-02 7.07870464e-07 0.00000000e+00)	(5.10204081e-02 -4.97500000e-01 0.00000000e+00)	(1.94937892e-02 7.07870464e-07 0.00000000e+00)	(5.10204081e-02 -4.97500000e-01 0.00000000e+00)
3.05            	p               	0.00000000e+00	(5.00000000e+00 -4.97500000e-01 0.00000000e+00)	7.76391335e-01	(5.10204082e-02 4.70214048e-01 0.00000000e+00)
3.1             	U               	(1.94937892e-02 7.07869411e-07 0.00000000e+00)	(5.10204081e-02 -4.97500000e-01 0.00000000e+00)	(1.94937892e-02 7.07869411e-07 0.00000000e+00)	(5.10204081e-02 -4.97500000e-01 0.00000000e+00)
3.1             	p               	0.00000000e+00	(5.00000000e+00 -4.97500000e-01 0.00000000e+00)	7.76983641e-01	(5.10204082e-02 4.70214048e-01 0.00000000e+00)
3.15            	U               	(1.94937892e-02 7.07878699e-07 0.00000000e+00)	(5.10204081e-02 -4.97500000e-01 0.00000000e+00)	(1.94937892e-02 7.07878699e-07 0.00000000e+00)	(5.10204081e-02 -4.97500000e-01 0.00000000e+00)
3.15            	p               	0.00000000e+00	(5.00000000e+00 -4.97500000e-01 0.00000000e+00)	7.77626571e-01	(5.10204082e-02 4.70214048e-01 0.00000000e+00)
3.2             	U               	(1.94937891e-02 7.07882344e-07 0.00000000e+00)	(5.10204081e-02 -4.97500000e-01 0.00000000e+00)	(1.94937891e-02 7.07882344e-07 0.00000000e+00)	(5.10204081e-02 -4.97500000e-01 0.00000000e+00)
3.2             	p               	0.00000000e+00	(5.00000000e+00 -4.97500000e-01 0.00000000e+00)	7.78315487e-01	(5.10204082e-02 4.70214048e-01 0.00000000e+00)
3.25            	U               	(1.94937891e-02 7.07881097e-07 0.00000000e+00)	(5.10204081e-02 -4.97500000e-01 0.00000000e+00)	(1.94937891e-02 7.07881097e-07 0.00000000e+00)	(5.10204081e-02 -4.97500000e-01 0.00000000e+00)
3.25            	p               	0.00000000e+00	(5.00000000e+00 -4.97500000e-01 0.00000000e+00)	7.79045586e-01	(5.10204082e-02 4.70214048e-01 0.00000000e+00)
3.3             	U               	(1.94937892e-02 7.07868643e-07 0.00000000e+00)	(5.10204081e-02 -4.97500000e-01 0.00000000e+00)	(1.94937892e-02 7.07868643e-07 0.00000000e+00)	(5.10204081e-02 -4.97500000e-01 0.00000000e+00)
3.3             	p               	0.00000000e+00	(5.00000000e+00 -4.97500000e-01 0.00000000e+00)	7.79811728e-01	(5.10204082e-02 4.70214048e-01 0.00000000e+00)
3.35            	U               	(1.94937893e-02 7.07877803e-07 0.00000000e+00)	(5.10204081e-02 -4.97500000e-01 0.00000000e+00)	(1.94937893e-02 7.07877803e-07 0.00000000e+00)	(5.10204081e-02 -4.97500000e-01 0.00000000e+00)
3.35            	p               	0.00000000e+00	(5.00000000e+00 -4.97500000e-01 0.00000000e+00)	7.80608628e-01	(5.10204082e-02 4.70214048e-01 0.00000000e+00)
3.4             	U               	(1.94937893e-02 7.07885129e-07 0.00000000e+00)	(5.10204081e-02 -4.97500000e-01 0.00000000e+00)	(1.94937893e-02 7.07885129e-07 0.00000000e+00)	(5.10204081e-02 -4.97500000e-01 0.00000000e+00)
3.4             	p               	0.00000000e+00	(5.00000000e+00 -4.97500000e-01 0.00000000e+00)	7.81429375e-01	(5.10204082e-02 4.70214048e-01 0.00000000e+00)
3.45            	U               	(1.94937892e-02 7.07866199e-07 0.00000000e+00)	(5.10204081e-02 -4.97500000e-01 0.00000000e+00)	(1.94937892e-02 7.07866199e-07 0.00000000e+00)	(5.10204081e-02 -4.97500000e-01 0.00000000e+00)
3.45            	p               	0.00000000e+00	(5.00000000e+00 -4.97500000e-01 0.00000000e+00)	7.82269664e-01	(5.10204082e-02 4.70214048e-01 0.00000000e+00)
3.5             	U               	(1.94937895e-02 7.07863012e-07 0.00000000e+00)	(5.10204081e-02 -4.97500000e-01 0.00000000e+00)	(1.94937895e-02 7.07863012e-07 0.00000000e+00)	(5.10204081e-02 -4.97500000e-01 0.00000000e+00)
3.5             	p               	0.00000000e+00	(5.00000000e+00 -4.97500000e-01 0.00000000e+00)	7.83121864e-01	(5.10204082e-02 4.70214048e-01 0.00000000e+00)
3.55            	U               	(1.94937896e-02 7.07857022e-07 0.00000000e+00)	(5.10204081e-02 -4.97500000e-01 0.00000000e+00)	(1.94937896e-02 7.07857022e-07 0.00000000e+00)	(5.10204081e-02 -4.97500000e-01 0.00000000e+00)
3.55            	p               	0.00000000e+00	(5.00000000e+00 -4.97500000e-01 0.00000000e+00)	7.83980260e-01	(5.10204082e-02 4.70214048e-01 0.00000000e+00)
3.6             	U               	(1.94937897e-02 7.07853098e-07 0.00000000e+00)	(5.10204081e-02 -4.97500000e-01 0.00000000e+00)	(1.94937897e-02 7.07853098e-07 0.00000000e+00)	(5.10204081e-02 -4.97500000e-01 0.00000000e+00)
3.6             	p               	0.00000000e+00	(5.00000000e+00 -4.97500000e-01 0.00000000e+00)	7.84838541e-01	(5.10204082e-02 4.70214048e-01 0.00000000e+00)
3.65            	U               	(1.94937898e-02 7.07848470e-07 0.00000000e+00)	(5.10204081e-02 -4.97500000e-01 0.00000000e+00)	(1.94937898e-02 7.07848470e-07 0.00000000e+00)	(5.10204081e-02 -4.97500000e-01 0.00000000e+00)
3.65            	p               	0.00000000e+00	(5.00000000e+00 -4.97500000e-01 0.00000000e+00)	7.85690707e-01	(5.10204082e-02 4.70214048e-01 0.00000000e+00)
3.7             	U               	(1.94937898e-02 7.07843925e-07 0.00000000e+00)	(5.10204081e-02 -4.97500000e-01 0.00000000e+00)	(1.94937898e-02 7.07843925e-07 0.00000000e+00)	(5.10204081e-02 -4.97500000e-01 0.00000000e+00)
3.7             	p               	0.00000000e+00	(5.00000000e+00 -4.97500000e-01 0.00000000e+00)	7.86530919e-01	(5.10204082e-02 4.70214048e-01 0.00000000e+00)
3.75            	U               	(1.94937899e-02 7.07840479e-07 0.00000000e+00)	(5.10204081e-02 -4.97500000e-01 0.00000000e+00)	(1.94937899e-02 7.07840479e-07 0.00000000e+00)	(5.10204081e-02 -4.97500000e-01 0.00000000e+00)
3.75            	p               	0.00000000e+00	(5.00000000e+00 -4.97500000e-01 0.00000000e+00)	7.87353749e-01	(5.10204082e-02 4.70214048e-01 0.00000000e+00)
3.8             	U               	(1.94937899e-02 7.07839766e-07 0.00000000e+00)	(5.10204081e-02 -4.97500000e-01 0.00000000e+00)	(1.94937899e-02 7.07839766e-07 0.00000000e+00)	(5.10204081e-02 -4.97500000e-01 0.00000000e+00)
3.8             	p               	0.00000000e+00	(5.00000000e+00 -4.97500000e-01 0.00000000e+00)	7.88154277e-01	(5.10204081e-02 -4.70214048e-01 0.00000000e+00)
3.85            	U               	(1.94937899e-02 7.07838209e-07 0.00000000e+00)	(5.10204081e-02 -4.97500000e-01 0.00000000e+00)	(1.94937899e-02 7.07838209e-07 0.00000000e+00)	(5.10204081e-02 -4.97500000e-01 0.00000000e+00)
3.85            	p               	0.00000000e+00	(5.00000000e+00 -4.97500000e-01 0.00000000e+00)	7.88927652e-01	(5.10204081e-02 -4.70214048e-01 0.00000000e+00)
3.9             	U               	(1.94937899e-02 7.07837593e-07 0.00000000e+00)	(5.10204081e-02 -4.97500000e-01 0.00000000e+00)	(1.94937899e-02 7.07837593e-07 0.00000000e+00)	(5.10204081e-02 -4.97500000e-01 0.00000000e+00)