/*--------------------------------*- C++ -*----------------------------------*\
  =========                 |
  \\      /  F ield         | OpenFOAM: The Open Source CFD Toolbox
   \\    /   O peration     | Website:  https://openfoam.org
    \\  /    A nd           | Version:  10
     \\/     M anipulation  |
\*---------------------------------------------------------------------------*/
FoamFile
{
    format      ascii;
    class       volScalarField;
    location    "0.04";
    object      T;
}
// * * * * * * * * * * * * * * * * * * * * * * * * * * * * * * * * * * * * * //

dimensions      [0 0 0 1 0 0 0];

internalField   nonuniform List<scalar> 
12225
(
1.00694
1.00397
1.00144
1.00053
1.00001
0.99965
0.999457
0.99937
0.999322
0.999288
0.999255
0.999194
0.999058
0.998716
0.997861
0.995787
0.990428
0.977372
0.994965
0.99447
0.996349
0.997908
0.99867
0.998979
0.999136
0.999239
0.999301
0.99933
0.999331
0.999294
0.999173
0.998851
0.99803
0.996052
0.991157
0.979607
0.999592
0.99992
1
0.999967
0.999819
0.999637
0.999514
0.999448
0.999409
0.999375
0.999338
0.999277
0.999144
0.998829
0.998059
0.996246
0.991985
0.982771
1.00032
1.00007
0.999547
0.99942
0.999421
0.999388
0.999355
0.999341
0.999333
0.999321
0.999299
0.99925
0.999133
0.998848
0.99816
0.996577
0.993062
0.986013
1.00013
0.999833
0.999434
0.999387
0.999436
0.999423
0.999388
0.999364
0.999348
0.999329
0.999301
0.99925
0.999138
0.998878
0.998278
0.996949
0.994164
0.988946
0.999993
0.999846
0.999578
0.999496
0.999494
0.99946
0.999412
0.999376
0.999349
0.999323
0.99929
0.999238
0.999132
0.998904
0.998398
0.997327
0.995202
0.991443
0.999975
0.999925
0.999719
0.999592
0.999547
0.999498
0.999443
0.999398
0.999362
0.999328
0.999289
0.999234
0.999136
0.998939
0.998527
0.997696
0.996131
0.993488
0.999983
0.999963
0.999798
0.999661
0.999596
0.999539
0.999477
0.999423
0.999377
0.999335
0.999291
0.999233
0.999141
0.998971
0.998632
0.997977
0.996793
0.994854
0.999986
0.999973
0.99984
0.999706
0.999627
0.99956
0.999491
0.99943
0.999377
0.999328
0.999279
0.999219
0.999133
0.998984
0.998704
0.998186
0.997281
0.995837
0.999984
0.999963
0.999852
0.999723
0.999631
0.999554
0.999478
0.99941
0.99935
0.999296
0.999241
0.99918
0.999099
0.998972
0.998748
0.998353
0.997689
0.996655
0.99998
0.999942
0.99984
0.999715
0.999612
0.999524
0.999441
0.999365
0.9993
0.99924
0.999181
0.99912
0.999045
0.998937
0.998762
0.998473
0.998005
0.997297
0.999976
0.999921
0.999818
0.999694
0.999583
0.999486
0.999398
0.999317
0.999245
0.99918
0.999119
0.999057
0.998988
0.998898
0.998765
0.99856
0.998245
0.997782
0.999975
0.999912
0.999811
0.99969
0.999577
0.999476
0.999384
0.9993
0.999224
0.999156
0.999095
0.999034
0.998969
0.998894
0.998795
0.998654
0.99845
0.998162
0.999978
0.999919
0.999828
0.999717
0.99961
0.999512
0.999421
0.999338
0.999264
0.999196
0.999136
0.999079
0.99902
0.998958
0.998885
0.99879
0.998663
0.998493
0.999982
0.999936
0.999861
0.999769
0.999677
0.99959
0.999511
0.999438
0.99937
0.999308
0.999254
0.999204
0.999156
0.999107
0.999053
0.998991
0.998915
0.99882
0.999987
0.999957
0.999905
0.99984
0.999774
0.999712
0.999654
0.9996
0.999548
0.999503
0.999461
0.999425
0.999392
0.999358
0.999322
0.999285
0.999243
0.999193
0.999993
0.999986
0.999968
0.999941
0.999912
0.999886
0.999864
0.999841
0.99982
0.999801
0.999783
0.999767
0.999754
0.999742
0.999727
0.999711
0.999694
0.999676
1
1.00003
1.00005
1.00007
1.00009
1.00011
1.00013
1.00015
1.00017
1.00018
1.0002
1.00021
1.00022
1.00023
1.00024
1.00024
1.00025
1.00025
1.00001
1.00006
1.00011
1.00017
1.00022
1.00028
1.00034
1.00039
1.00043
1.00048
1.00051
1.00055
1.00058
1.0006
1.00063
1.00065
1.00067
1.00068
1.00001
1.00006
1.00012
1.00019
1.00026
1.00033
1.00039
1.00046
1.00052
1.00057
1.00062
1.00067
1.00071
1.00075
1.00078
1.00081
1.00084
1.00086
1.00001
1.00006
1.00012
1.00018
1.00025
1.00031
1.00038
1.00045
1.00051
1.00057
1.00062
1.00068
1.00072
1.00077
1.00081
1.00085
1.00088
1.00091
1.00001
1.00006
1.00012
1.00017
1.00023
1.0003
1.00036
1.00043
1.00049
1.00055
1.00061
1.00067
1.00072
1.00077
1.00081
1.00085
1.00089
1.00092
1
1.00008
1.00013
1.00016
1.00021
1.00027
1.00034
1.00041
1.00048
1.00054
1.0006
1.00066
1.00071
1.00076
1.00081
1.00085
1.00089
1.00093
0.999997
1.0001
1.00014
1.00015
1.00019
1.00026
1.00033
1.0004
1.00047
1.00054
1.00061
1.00067
1.00072
1.00077
1.00082
1.00086
1.00091
1.00094
1
1.00009
1.0001
1.00012
1.00019
1.00028
1.00035
1.00042
1.00049
1.00056
1.00063
1.00069
1.00074
1.00079
1.00084
1.00088
1.00093
1.00097
1.00014
1.00014
0.999953
0.999972
1.00014
1.00029
1.00039
1.00047
1.00055
1.00062
1.00068
1.00074
1.0008
1.00084
1.00089
1.00093
1.00097
1.00101
1.0005
1.00058
1.0001
0.999927
1.00003
1.00018
1.00031
1.00042
1.00053
1.00062
1.0007
1.00076
1.00082
1.00088
1.00093
1.00097
1.00102
1.00106
1.00004
1.00088
1.00115
1.00111
1.00099
1.00088
1.00081
1.0008
1.00082
1.00085
1.00088
1.00092
1.00096
1.00099
1.00103
1.00106
1.0011
1.00113
0.994517
0.993822
0.99606
0.998048
0.999185
0.99978
1.00015
1.0004
1.00059
1.00072
1.00083
1.00091
1.00098
1.00104
1.00109
1.00114
1.00118
1.00121
1.00648
1.00454
1.00223
1.0015
1.00119
1.00097
1.00088
1.00087
1.00089
1.00092
1.00096
1.00099
1.00103
1.00107
1.0011
1.00114
1.00117
1.00122
0.406409
0.406358
0.406228
0.406033
0.405783
0.405474
0.405105
0.404678
0.404196
0.403659
0.40307
0.40243
0.40174
0.401003
0.400222
0.399398
0.398535
0.397637
0.396706
0.395747
0.394763
0.393758
0.392736
0.391702
0.390659
0.389612
0.388564
0.387517
0.386475
0.385443
0.384429
0.383452
0.382553
0.381802
0.381072
0.380271
0.379499
0.378735
0.37799
0.377272
0.376567
0.375922
0.375359
0.374817
0.374329
0.373919
0.373554
0.373239
0.372976
0.372762
0.372597
0.372481
0.372412
0.37239
0.372414
0.372482
0.372595
0.37275
0.372947
0.373183
0.373459
0.373772
0.37412
0.374503
0.374919
0.375365
0.375841
0.376345
0.376874
0.377428
0.378004
0.378601
0.379217
0.37985
0.380498
0.38116
0.381834
0.382519
0.383212
0.383913
0.384619
0.385329
0.386041
0.386755
0.387468
0.38818
0.388888
0.389592
0.39029
0.390981
0.391665
0.392339
0.393002
0.393653
0.394291
0.394915
0.395522
0.396111
0.396685
0.397241
0.397778
0.398295
0.39879
0.399263
0.399713
0.400138
0.400538
0.400911
0.401256
0.401573
0.401861
0.402118
0.402344
0.402537
0.402696
0.402821
0.40291
0.402962
0.402976
0.402951
0.402886
0.40278
0.40263
0.402436
0.402197
0.401911
0.401578
0.401196
0.400764
0.40028
0.399744
0.399154
0.398509
0.397807
0.397048
0.396229
0.395349
0.394408
0.393403
0.392333
0.391196
0.389992
0.388718
0.387372
0.385954
0.38446
0.382891
0.381244
0.379517
0.37771
0.375821
0.373847
0.371788
0.369643
0.367409
0.365085
0.36267
0.360163
0.357561
0.354865
0.352072
0.34918
0.346185
0.34308
0.339866
0.336549
0.333129
0.329606
0.325978
0.322244
0.318403
0.314451
0.310389
0.306215
0.301931
0.297542
0.293072
0.288513
0.284077
0.279382
0.407983
0.407922
0.407802
0.407617
0.407372
0.407067
0.406703
0.406279
0.405795
0.405253
0.404655
0.404004
0.403304
0.402556
0.401765
0.400932
0.400062
0.399157
0.398222
0.39726
0.396275
0.395272
0.394255
0.39323
0.392201
0.391175
0.390158
0.389155
0.388173
0.387214
0.386278
0.385359
0.384449
0.383459
0.382434
0.381518
0.380671
0.379889
0.379166
0.378489
0.377869
0.377286
0.376719
0.376215
0.375775
0.375366
0.375002
0.374687
0.374421
0.374204
0.374037
0.373917
0.373846
0.373821
0.373842
0.373908
0.374017
0.37417
0.374363
0.374597
0.37487
0.375179
0.375525
0.375905
0.376318
0.376762
0.377236
0.377737
0.378264
0.378815
0.37939
0.379985
0.380599
0.38123
0.381878
0.382539
0.383212
0.383897
0.38459
0.38529
0.385996
0.386707
0.38742
0.388135
0.388849
0.389562
0.390272
0.390978
0.391678
0.392371
0.393056
0.393732
0.394397
0.395051
0.395692
0.39632
0.396933
0.397531
0.398112
0.398673
0.399215
0.399736
0.400235
0.400713
0.401166
0.401595
0.401999
0.402376
0.402726
0.403047
0.403339
0.4036
0.40383
0.404027
0.40419
0.404319
0.404412
0.404468
0.404486
0.404464
0.404403
0.404299
0.404153
0.403962
0.403725
0.403442
0.403111
0.402732
0.402302
0.40182
0.401286
0.400697
0.400054
0.399353
0.398594
0.397776
0.396897
0.395956
0.39495
0.39388
0.392743
0.391538
0.390262
0.388915
0.387495
0.385999
0.384428
0.382778
0.381049
0.379238
0.377345
0.375368
0.373305
0.371156
0.368917
0.366589
0.364169
0.361656
0.35905
0.356347
0.353548
0.35065
0.347654
0.344559
0.341363
0.338064
0.334661
0.331154
0.32754
0.32382
0.319991
0.316051
0.311999
0.307835
0.30356
0.299179
0.294713
0.290162
0.28569
0.281091
0.411204
0.41111
0.41097
0.410771
0.41051
0.410186
0.4098
0.409353
0.408847
0.408284
0.407666
0.406995
0.406276
0.405509
0.404699
0.403848
0.402961
0.40204
0.401089
0.400113
0.399115
0.398099
0.397071
0.396034
0.394994
0.393953
0.392917
0.391887
0.390868
0.389859
0.388865
0.387891
0.386942
0.386013
0.385106
0.384238
0.383407
0.38262
0.38188
0.38119
0.380554
0.379971
0.379435
0.378946
0.378499
0.378094
0.377734
0.377422
0.377157
0.376941
0.376772
0.37665
0.376576
0.376548
0.376566
0.376628
0.376734
0.376883
0.377073
0.377303
0.377572
0.377879
0.378222
0.378599
0.379009
0.379451
0.379922
0.380422
0.380948
0.381499
0.382073
0.382668
0.383283
0.383916
0.384566
0.38523
0.385907
0.386594
0.387292
0.387998
0.38871
0.389427
0.390147
0.390869
0.391592
0.392313
0.393032
0.393748
0.394458
0.395163
0.39586
0.396548
0.397226
0.397893
0.398548
0.399189
0.399815
0.400425
0.401019
0.401595
0.402152
0.402689
0.403205
0.403699
0.404169
0.404615
0.405036
0.405431
0.405798
0.406137
0.406447
0.406726
0.406973
0.407188
0.407369
0.407516
0.407626
0.4077
0.407735
0.407731
0.407687
0.4076
0.407471
0.407296
0.407076
0.406809
0.406494
0.40613
0.405715
0.405248
0.404728
0.404154
0.403523
0.402836
0.40209
0.401284
0.400416
0.399486
0.398491
0.397431
0.396303
0.395107
0.393839
0.3925
0.391086
0.389597
0.388031
0.386387
0.384662
0.382855
0.380966
0.378991
0.37693
0.374782
0.372544
0.370216
0.367796
0.365282
0.362674
0.35997
0.357169
0.354269
0.351271
0.348176
0.344981
0.341683
0.338281
0.334774
0.33116
0.327439
0.323608
0.319666
0.31561
0.311441
0.30716
0.302769
0.298285
0.293714
0.289186
0.284585
0.416021
0.415895
0.415727
0.415506
0.415221
0.41487
0.414455
0.413979
0.413444
0.412852
0.412205
0.411507
0.41076
0.409968
0.409132
0.408257
0.407346
0.406403
0.405431
0.404435
0.403419
0.402386
0.401341
0.400289
0.399233
0.398177
0.397126
0.396082
0.39505
0.394032
0.393035
0.392061
0.391114
0.390193
0.389301
0.388444
0.387625
0.386846
0.386108
0.385414
0.384767
0.384167
0.383613
0.383108
0.38265
0.382238
0.381874
0.381557
0.381288
0.381066
0.380892
0.380765
0.380684
0.380649
0.38066
0.380715
0.380814
0.380955
0.381138
0.381361
0.381623
0.381923
0.38226
0.382632
0.383037
0.383474
0.383941
0.384437
0.384961
0.38551
0.386083
0.386678
0.387294
0.387928
0.38858
0.389247
0.389928
0.390621
0.391325
0.392038
0.392758
0.393484
0.394214
0.394947
0.395681
0.396416
0.397149
0.397879
0.398605
0.399325
0.400039
0.400745
0.401442
0.402129
0.402803
0.403465
0.404113
0.404746
0.405363
0.405962
0.406543
0.407104
0.407645
0.408163
0.408659
0.409132
0.409579
0.41
0.410394
0.41076
0.411097
0.411403
0.411678
0.411921
0.41213
0.412304
0.412442
0.412543
0.412605
0.412629
0.412611
0.412551
0.412448
0.4123
0.412105
0.411864
0.411574
0.411234
0.410843
0.4104
0.409903
0.409351
0.408743
0.408076
0.407351
0.406564
0.405716
0.404804
0.403827
0.402783
0.401671
0.40049
0.399237
0.39791
0.396509
0.395032
0.393477
0.391842
0.390126
0.388327
0.386444
0.384476
0.382421
0.380276
0.378042
0.375717
0.373298
0.370786
0.368178
0.365473
0.362671
0.35977
0.35677
0.35367
0.35047
0.347166
0.343758
0.340245
0.336624
0.332895
0.329056
0.325105
0.321039
0.316858
0.312562
0.308151
0.303641
0.299033
0.294439
0.289774
0.422434
0.422274
0.422079
0.421834
0.421523
0.421142
0.420695
0.420186
0.419616
0.418989
0.418308
0.417575
0.416794
0.415968
0.4151
0.414193
0.413252
0.412281
0.411282
0.41026
0.409219
0.408164
0.407098
0.406026
0.404952
0.403879
0.402813
0.401756
0.400714
0.399689
0.398685
0.397707
0.396755
0.395831
0.394939
0.394083
0.393264
0.392484
0.391746
0.39105
0.390398
0.389792
0.389231
0.388717
0.388251
0.387831
0.387458
0.387133
0.386855
0.386624
0.38644
0.386303
0.386213
0.386168
0.386168
0.386212
0.386301
0.386431
0.386604
0.386817
0.387069
0.38736
0.387688
0.388051
0.388449
0.388879
0.38934
0.389831
0.390351
0.390896
0.391467
0.39206
0.392676
0.393311
0.393965
0.394635
0.39532
0.396019
0.396729
0.39745
0.398179
0.398915
0.399657
0.400402
0.401151
0.4019
0.402649
0.403396
0.404141
0.404881
0.405615
0.406343
0.407062
0.407772
0.408471
0.409158
0.409832
0.410491
0.411135
0.411763
0.412373
0.412964
0.413535
0.414084
0.414612
0.415116
0.415595
0.416049
0.416477
0.416876
0.417247
0.417587
0.417896
0.418173
0.418416
0.418624
0.418796
0.418931
0.419028
0.419085
0.419101
0.419074
0.419004
0.418888
0.418726
0.418516
0.418257
0.417948
0.417588
0.417174
0.416706
0.416182
0.415601
0.414961
0.414261
0.4135
0.412675
0.411786
0.410831
0.409809
0.408717
0.407554
0.406319
0.40501
0.403624
0.402161
0.40062
0.398997
0.397292
0.395504
0.39363
0.39167
0.389621
0.387483
0.385253
0.382931
0.380515
0.378004
0.375397
0.372692
0.369888
0.366985
0.363981
0.360876
0.357669
0.354359
0.350943
0.347422
0.343792
0.340054
0.336204
0.332241
0.328163
0.323966
0.319652
0.315219
0.310677
0.306027
0.301366
0.296606
0.430465
0.430275
0.430054
0.429784
0.429444
0.429031
0.428549
0.428003
0.427396
0.42673
0.426009
0.425237
0.424416
0.423552
0.422646
0.421704
0.420728
0.419723
0.418692
0.417641
0.416572
0.415491
0.414401
0.413307
0.412213
0.411122
0.41004
0.40897
0.407916
0.406881
0.405869
0.404882
0.403923
0.402994
0.402098
0.401236
0.400413
0.399628
0.398884
0.398183
0.397525
0.396911
0.396343
0.39582
0.395343
0.394913
0.394529
0.394192
0.393902
0.393658
0.393461
0.39331
0.393205
0.393146
0.393132
0.393162
0.393235
0.393351
0.39351
0.393709
0.393948
0.394226
0.394541
0.394892
0.395279
0.395699
0.396151
0.396634
0.397145
0.397685
0.39825
0.39884
0.399453
0.400087
0.400741
0.401413
0.402101
0.402803
0.403519
0.404247
0.404984
0.40573
0.406483
0.407241
0.408003
0.408768
0.409534
0.410299
0.411063
0.411823
0.412579
0.41333
0.414073
0.414808
0.415534
0.416248
0.41695
0.41764
0.418314
0.418973
0.419615
0.420239
0.420844
0.421428
0.42199
0.42253
0.423046
0.423537
0.424001
0.424439
0.424847
0.425226
0.425573
0.425888
0.42617
0.426417
0.426628
0.426802
0.426938
0.427033
0.427087
0.427099
0.427066
0.426988
0.426863
0.426689
0.426466
0.426193
0.425867
0.425487
0.425052
0.42456
0.424011
0.423402
0.422731
0.421999
0.421202
0.42034
0.41941
0.418412
0.417344
0.416203
0.414989
0.413699
0.412332
0.410887
0.409361
0.407753
0.406062
0.404285
0.402423
0.400472
0.398431
0.3963
0.394076
0.391758
0.389345
0.386836
0.384229
0.381524
0.378718
0.375812
0.372805
0.369695
0.366482
0.363164
0.359741
0.35621
0.352571
0.348822
0.344961
0.340985
0.336893
0.33268
0.328346
0.323888
0.319314
0.314621
0.309893
0.305028
0.440153
0.439939
0.439694
0.439397
0.439026
0.438579
0.438061
0.437476
0.436828
0.43612
0.435356
0.434541
0.433679
0.432772
0.431825
0.430843
0.429829
0.428787
0.427722
0.426638
0.425539
0.42443
0.423314
0.422196
0.42108
0.41997
0.418871
0.417785
0.416717
0.415669
0.414645
0.413648
0.412679
0.411741
0.410837
0.409967
0.409135
0.408342
0.407589
0.406878
0.406209
0.405585
0.405004
0.404468
0.403978
0.403533
0.403133
0.40278
0.402473
0.402212
0.401997
0.401828
0.401705
0.401626
0.401593
0.401604
0.401658
0.401755
0.401895
0.402075
0.402296
0.402556
0.402854
0.40319
0.403561
0.403966
0.404404
0.404875
0.405375
0.405904
0.406461
0.407043
0.40765
0.408279
0.408929
0.409599
0.410287
0.410991
0.411709
0.412441
0.413184
0.413937
0.414699
0.415468
0.416242
0.417021
0.417801
0.418583
0.419365
0.420145
0.420922
0.421695
0.422462
0.423222
0.423974
0.424716
0.425447
0.426166
0.426871
0.427562
0.428237
0.428895
0.429535
0.430155
0.430754
0.431331
0.431885
0.432414
0.432918
0.433395
0.433843
0.434262
0.434651
0.435007
0.43533
0.435619
0.435872
0.436087
0.436264
0.436401
0.436497
0.436549
0.436557
0.436519
0.436434
0.4363
0.436116
0.435881
0.435593
0.43525
0.434851
0.434395
0.43388
0.433305
0.432668
0.431967
0.431201
0.430368
0.429467
0.428497
0.427454
0.426338
0.425147
0.42388
0.422534
0.421108
0.4196
0.418009
0.416333
0.41457
0.41272
0.41078
0.408749
0.406626
0.404409
0.402097
0.399688
0.397182
0.394577
0.391871
0.389065
0.386157
0.383146
0.380031
0.376812
0.373488
0.370056
0.366517
0.362869
0.359109
0.355236
0.351248
0.347141
0.342912
0.338558
0.334076
0.32947
0.324734
0.319943
0.314973
0.451557
0.451323
0.451053
0.450728
0.450325
0.449843
0.449287
0.448661
0.44797
0.447218
0.44641
0.44555
0.444643
0.443692
0.442702
0.441677
0.440622
0.439542
0.43844
0.437321
0.436189
0.435049
0.433905
0.432761
0.431622
0.430491
0.429371
0.428267
0.427182
0.426119
0.42508
0.424069
0.423087
0.422136
0.421219
0.420337
0.419492
0.418685
0.417919
0.417193
0.41651
0.415869
0.415272
0.414718
0.414209
0.413745
0.413325
0.412951
0.412622
0.412339
0.412101
0.411908
0.411761
0.411658
0.4116
0.411587
0.411616
0.411689
0.411804
0.41196
0.412157
0.412394
0.41267
0.412983
0.413333
0.413718
0.414137
0.41459
0.415073
0.415587
0.416129
0.416698
0.417293
0.417912
0.418554
0.419216
0.419898
0.420598
0.421315
0.422046
0.42279
0.423547
0.424313
0.425088
0.42587
0.426658
0.42745
0.428245
0.429041
0.429837
0.430632
0.431423
0.432211
0.432993
0.433768
0.434535
0.435293
0.436039
0.436774
0.437495
0.438201
0.438892
0.439565
0.440219
0.440854
0.441467
0.442058
0.442626
0.443168
0.443684
0.444172
0.444632
0.445061
0.445459
0.445824
0.446154
0.446449
0.446707
0.446926
0.447105
0.447243
0.447337
0.447387
0.447391
0.447347
0.447255
0.447111
0.446916
0.446667
0.446363
0.446002
0.445584
0.445105
0.444565
0.443963
0.443295
0.442562
0.441761
0.440891
0.439949
0.438935
0.437846
0.43668
0.435437
0.434114
0.432709
0.431221
0.429649
0.42799
0.426243
0.424407
0.42248
0.420461
0.418347
0.416139
0.413834
0.411431
0.408929
0.406326
0.403623
0.400817
0.397907
0.394894
0.391776
0.388552
0.385222
0.381784
0.378237
0.374579
0.37081
0.366926
0.362926
0.358806
0.354562
0.35019
0.345686
0.341051
0.336275
0.331427
0.326362
0.46475
0.464496
0.464201
0.463846
0.46341
0.462891
0.462295
0.461627
0.460892
0.460095
0.459241
0.458334
0.45738
0.456383
0.455348
0.454279
0.453181
0.45206
0.450919
0.449763
0.448597
0.447424
0.44625
0.445078
0.443912
0.442756
0.441614
0.440488
0.439383
0.4383
0.437243
0.436213
0.435213
0.434245
0.433311
0.432411
0.431549
0.430724
0.429939
0.429194
0.42849
0.427827
0.427208
0.426631
0.426098
0.425609
0.425163
0.424762
0.424406
0.424095
0.423828
0.423606
0.423428
0.423295
0.423206
0.423161
0.42316
0.423201
0.423285
0.423411
0.423577
0.423784
0.42403
0.424315
0.424637
0.424995
0.425388
0.425814
0.426274
0.426764
0.427285
0.427834
0.42841
0.429012
0.429637
0.430286
0.430955
0.431644
0.432351
0.433075
0.433813
0.434565
0.435329
0.436104
0.436887
0.437678
0.438474
0.439276
0.44008
0.440886
0.441692
0.442497
0.4433
0.444099
0.444892
0.445679
0.446457
0.447227
0.447985
0.448732
0.449465
0.450183
0.450886
0.45157
0.452237
0.452883
0.453507
0.454109
0.454687
0.455239
0.455765
0.456262
0.45673
0.457166
0.45757
0.457941
0.458276
0.458574
0.458834
0.459054
0.459233
0.459368
0.459459
0.459504
0.459501
0.459448
0.459345
0.45919
0.45898
0.458715
0.458392
0.458011
0.45757
0.457066
0.456499
0.455866
0.455166
0.454398
0.453559
0.452647
0.451662
0.450601
0.449463
0.448245
0.446946
0.445564
0.444098
0.442546
0.440906
0.439177
0.437357
0.435444
0.433438
0.431337
0.429138
0.426842
0.424447
0.421951
0.419353
0.416653
0.413849
0.410941
0.407928
0.404808
0.401581
0.398247
0.394804
0.391251
0.387587
0.38381
0.379917
0.375908
0.371776
0.36752
0.363133
0.358611
0.353953
0.349143
0.344247
0.339098
0.479814
0.47954
0.479218
0.478831
0.478359
0.477802
0.477164
0.476453
0.475673
0.47483
0.473928
0.472973
0.471971
0.470926
0.469843
0.468729
0.467587
0.466422
0.46524
0.464045
0.462841
0.461633
0.460426
0.459222
0.458027
0.456843
0.455674
0.454523
0.453393
0.452286
0.451206
0.450154
0.449131
0.448141
0.447183
0.446261
0.445375
0.444526
0.443716
0.442946
0.442215
0.441525
0.440877
0.440271
0.439708
0.439187
0.438709
0.438275
0.437885
0.437538
0.437236
0.436977
0.436762
0.436592
0.436465
0.436381
0.436341
0.436344
0.436389
0.436476
0.436604
0.436773
0.436981
0.437228
0.437513
0.437836
0.438194
0.438586
0.439013
0.439471
0.439961
0.44048
0.441028
0.441603
0.442204
0.442828
0.443475
0.444144
0.444832
0.445538
0.446261
0.447
0.447752
0.448516
0.449291
0.450076
0.450868
0.451666
0.45247
0.453277
0.454086
0.454896
0.455704
0.456511
0.457314
0.458112
0.458904
0.459688
0.460463
0.461227
0.46198
0.462719
0.463444
0.464152
0.464843
0.465515
0.466167
0.466798
0.467405
0.467988
0.468545
0.469074
0.469575
0.470046
0.470485
0.47089
0.471261
0.471596
0.471893
0.47215
0.472366
0.472539
0.472668
0.472751
0.472786
0.472771
0.472706
0.472588
0.472416
0.472188
0.471902
0.471558
0.471152
0.470683
0.47015
0.469552
0.468885
0.468149
0.467342
0.466461
0.465505
0.464473
0.463362
0.46217
0.460897
0.459539
0.458095
0.456565
0.454945
0.453235
0.451433
0.449537
0.447546
0.445458
0.443273
0.440988
0.438602
0.436115
0.433525
0.43083
0.428031
0.425127
0.422115
0.418997
0.41577
0.412435
0.40899
0.405434
0.401766
0.397984
0.394087
0.390071
0.385933
0.381668
0.377271
0.372736
0.36806
0.363225
0.358293
0.353074
0.496845
0.496548
0.496198
0.495776
0.495266
0.494668
0.493987
0.493231
0.492403
0.491511
0.490559
0.489554
0.488501
0.487406
0.486274
0.485111
0.483922
0.482712
0.481486
0.480248
0.479004
0.477758
0.476514
0.475275
0.474046
0.47283
0.471629
0.470448
0.469289
0.468154
0.467045
0.465964
0.464913
0.463894
0.462908
0.461957
0.461041
0.460162
0.45932
0.458517
0.457754
0.45703
0.456346
0.455704
0.455102
0.454543
0.454026
0.453551
0.453119
0.452729
0.452383
0.45208
0.45182
0.451604
0.45143
0.4513
0.451213
0.451168
0.451165
0.451204
0.451284
0.451405
0.451565
0.451765
0.452004
0.452279
0.452592
0.45294
0.453322
0.453737
0.454185
0.454664
0.455172
0.455708
0.456272
0.456861
0.457474
0.45811
0.458767
0.459444
0.46014
0.460852
0.46158
0.462323
0.463077
0.463843
0.464619
0.465403
0.466193
0.466989
0.467789
0.468592
0.469396
0.470199
0.471001
0.471799
0.472593
0.473381
0.474162
0.474933
0.475695
0.476445
0.477182
0.477904
0.47861
0.479299
0.479969
0.480619
0.481248
0.481852
0.482433
0.482987
0.483513
0.48401
0.484476
0.48491
0.485311
0.485675
0.486003
0.486291
0.486539
0.486744
0.486906
0.487021
0.48709
0.487109
0.487078
0.486993
0.486855
0.486661
0.486409
0.486097
0.485725
0.485289
0.484789
0.484222
0.483587
0.482882
0.482105
0.481255
0.480328
0.479324
0.47824
0.477075
0.475827
0.474494
0.473074
0.471566
0.469968
0.468278
0.466495
0.464618
0.462644
0.460572
0.458401
0.45613
0.453757
0.451281
0.448701
0.446015
0.443224
0.440326
0.43732
0.434207
0.430984
0.427651
0.424208
0.420653
0.416986
0.413204
0.409305
0.405288
0.401148
0.39688
0.392479
0.387938
0.383254
0.378404
0.373446
0.368175
0.515948
0.515627
0.515245
0.514785
0.514234
0.513591
0.512864
0.512058
0.51118
0.510235
0.50923
0.508171
0.507064
0.505915
0.504731
0.503515
0.502275
0.501016
0.499742
0.498458
0.49717
0.495881
0.494595
0.493316
0.492048
0.490795
0.489558
0.488341
0.487147
0.485977
0.484833
0.483718
0.482632
0.481578
0.480557
0.479569
0.478617
0.4777
0.476819
0.475977
0.475172
0.474406
0.473679
0.472992
0.472345
0.471739
0.471173
0.470649
0.470167
0.469726
0.469327
0.46897
0.468656
0.468384
0.468155
0.467967
0.467822
0.467719
0.467658
0.467638
0.467659
0.467721
0.467822
0.467963
0.468143
0.46836
0.468614
0.468904
0.469229
0.469589
0.469981
0.470405
0.47086
0.471344
0.471856
0.472395
0.47296
0.473549
0.47416
0.474794
0.475447
0.476119
0.476808
0.477513
0.478233
0.478966
0.47971
0.480464
0.481227
0.481998
0.482774
0.483555
0.48434
0.485125
0.485911
0.486696
0.487479
0.488257
0.48903
0.489795
0.490553
0.491301
0.492037
0.492761
0.49347
0.494164
0.494841
0.495499
0.496136
0.496752
0.497345
0.497913
0.498454
0.498968
0.499452
0.499905
0.500325
0.500711
0.50106
0.501372
0.501643
0.501874
0.502061
0.502202
0.502298
0.502344
0.50234
0.502284
0.502175
0.502009
0.501786
0.501504
0.50116
0.500754
0.500283
0.499745
0.499139
0.498462
0.497714
0.496891
0.495992
0.495014
0.493957
0.492818
0.491595
0.490287
0.488891
0.487406
0.48583
0.484163
0.4824
0.480543
0.478588
0.476534
0.47438
0.472125
0.469767
0.467306
0.464739
0.462066
0.459286
0.456399
0.453403
0.450298
0.447083
0.443758
0.440321
0.436772
0.43311
0.429333
0.42544
0.421426
0.41729
0.413026
0.408629
0.404091
0.399408
0.394553
0.389585
0.384278
0.537243
0.536895
0.536476
0.535974
0.535376
0.534684
0.533903
0.533043
0.532107
0.531104
0.53004
0.528922
0.527755
0.526547
0.525304
0.524031
0.522735
0.52142
0.520093
0.518758
0.517419
0.516081
0.514749
0.513424
0.512112
0.510815
0.509535
0.508276
0.50704
0.505828
0.504643
0.503486
0.502358
0.501262
0.500197
0.499165
0.498168
0.497205
0.496277
0.495386
0.494532
0.493715
0.492936
0.492195
0.491494
0.490831
0.490208
0.489625
0.489082
0.48858
0.488118
0.487697
0.487318
0.486979
0.486682
0.486427
0.486212
0.486039
0.485907
0.485816
0.485765
0.485754
0.485783
0.485851
0.485958
0.486102
0.486284
0.486501
0.486755
0.487042
0.487363
0.487717
0.488102
0.488518
0.488962
0.489435
0.489934
0.490459
0.491008
0.49158
0.492174
0.492788
0.493421
0.494072
0.494739
0.495421
0.496116
0.496824
0.497542
0.49827
0.499005
0.499748
0.500495
0.501247
0.502
0.502755
0.503509
0.504262
0.50501
0.505755
0.506492
0.507222
0.507943
0.508653
0.509351
0.510035
0.510704
0.511356
0.511989
0.512603
0.513195
0.513764
0.514309
0.514827
0.515317
0.515777
0.516206
0.516602
0.516963
0.517287
0.517572
0.517818
0.518021
0.51818
0.518293
0.518359
0.518375
0.51834
0.518252
0.518108
0.517908
0.517649
0.517329
0.516946
0.5165
0.515987
0.515406
0.514754
0.514031
0.513233
0.512358
0.511406
0.510374
0.509259
0.508061
0.506776
0.505404
0.503943
0.50239
0.500745
0.499004
0.497168
0.495234
0.4932
0.491066
0.48883
0.48649
0.484046
0.481496
0.47884
0.476076
0.473203
0.470221
0.46713
0.463928
0.460615
0.45719
0.453653
0.450002
0.446236
0.442353
0.438352
0.434227
0.429974
0.425589
0.421063
0.416391
0.411544
0.40658
0.401256
0.560862
0.560483
0.560021
0.559469
0.558816
0.558066
0.557224
0.556299
0.555297
0.554227
0.553094
0.551907
0.550671
0.549395
0.548085
0.546746
0.545386
0.544009
0.542621
0.541226
0.53983
0.538437
0.53705
0.535673
0.534308
0.53296
0.531631
0.530322
0.529036
0.527775
0.52654
0.525333
0.524155
0.523007
0.52189
0.520806
0.519754
0.518736
0.517752
0.516803
0.515889
0.515011
0.51417
0.513365
0.512598
0.511868
0.511176
0.510523
0.509909
0.509333
0.508796
0.5083
0.507842
0.507425
0.507048
0.50671
0.506413
0.506156
0.505939
0.505762
0.505625
0.505526
0.505467
0.505447
0.505464
0.505519
0.505611
0.505739
0.505903
0.506101
0.506334
0.506599
0.506896
0.507224
0.507582
0.50797
0.508384
0.508826
0.509293
0.509785
0.510299
0.510836
0.511393
0.511969
0.512564
0.513175
0.513802
0.514443
0.515096
0.515762
0.516437
0.517121
0.517813
0.518511
0.519213
0.519919
0.520626
0.521334
0.522041
0.522745
0.523445
0.52414
0.524828
0.525507
0.526176
0.526834
0.527478
0.528108
0.528722
0.529318
0.529894
0.53045
0.530982
0.53149
0.531972
0.532427
0.532851
0.533244
0.533604
0.533929
0.534217
0.534466
0.534675
0.53484
0.534962
0.535037
0.535064
0.535041
0.534965
0.534836
0.534651
0.534407
0.534104
0.53374
0.533311
0.532817
0.532256
0.531625
0.530922
0.530146
0.529293
0.528363
0.527353
0.526261
0.525085
0.523823
0.522474
0.521035
0.519506
0.517883
0.516165
0.514351
0.51244
0.510428
0.508316
0.506101
0.503783
0.50136
0.49883
0.496194
0.49345
0.490596
0.487634
0.484561
0.481377
0.478082
0.474675
0.471156
0.467523
0.463775
0.459911
0.455927
0.451822
0.44759
0.443226
0.438721
0.434071
0.429246
0.424301
0.418979
0.586953
0.586536
0.586023
0.58541
0.584691
0.583869
0.582951
0.581947
0.580865
0.579711
0.578495
0.577225
0.575907
0.57455
0.57316
0.571744
0.570308
0.568858
0.567399
0.565936
0.564473
0.563015
0.561565
0.560126
0.558701
0.557294
0.555905
0.554538
0.553193
0.551874
0.55058
0.549313
0.548075
0.546866
0.545688
0.54454
0.543423
0.542339
0.541288
0.540269
0.539285
0.538334
0.537419
0.536538
0.535693
0.534884
0.534111
0.533374
0.532674
0.532012
0.531387
0.5308
0.530251
0.529739
0.529267
0.528833
0.528437
0.52808
0.527762
0.527482
0.527241
0.527038
0.526873
0.526746
0.526657
0.526604
0.526587
0.526607
0.526662
0.526751
0.526875
0.527031
0.52722
0.52744
0.527691
0.527972
0.528281
0.528618
0.528982
0.529371
0.529785
0.530222
0.530681
0.531162
0.531662
0.532181
0.532718
0.53327
0.533838
0.534419
0.535013
0.535618
0.536233
0.536856
0.537486
0.538122
0.538762
0.539405
0.540049
0.540694
0.541337
0.541977
0.542612
0.543242
0.543864
0.544477
0.545079
0.545669
0.546246
0.546807
0.54735
0.547875
0.54838
0.548863
0.549321
0.549754
0.55016
0.550536
0.550881
0.551193
0.55147
0.55171
0.551912
0.552073
0.552191
0.552264
0.552291
0.55227
0.552197
0.552073
0.551893
0.551658
0.551363
0.551009
0.550592
0.550111
0.549563
0.548947
0.548259
0.547499
0.546664
0.545752
0.544761
0.543689
0.542533
0.541292
0.539965
0.538548
0.53704
0.53544
0.533746
0.531955
0.530067
0.528079
0.525991
0.5238
0.521506
0.519107
0.516602
0.51399
0.51127
0.508441
0.505502
0.502453
0.499294
0.496023
0.49264
0.489145
0.485537
0.481815
0.477976
0.47402
0.469942
0.465739
0.461405
0.456933
0.452318
0.447527
0.442617
0.437315
0.615709
0.615243
0.614666
0.613977
0.613172
0.612256
0.611239
0.610131
0.608942
0.607681
0.606357
0.604981
0.603559
0.6021
0.600612
0.599101
0.597573
0.596035
0.594491
0.592946
0.591404
0.589869
0.588345
0.586833
0.585337
0.583859
0.582401
0.580965
0.579551
0.578162
0.576798
0.575461
0.574152
0.57287
0.571617
0.570394
0.5692
0.568037
0.566904
0.565803
0.564734
0.563697
0.562693
0.561722
0.560784
0.55988
0.559011
0.558175
0.557375
0.556609
0.555879
0.555185
0.554526
0.553904
0.553319
0.552769
0.552257
0.551782
0.551344
0.550942
0.550578
0.550251
0.54996
0.549706
0.549489
0.549308
0.549162
0.549051
0.548976
0.548935
0.548927
0.548953
0.549011
0.549101
0.549223
0.549374
0.549555
0.549765
0.550002
0.550267
0.550557
0.550872
0.551211
0.551572
0.551955
0.552359
0.552783
0.553224
0.553683
0.554158
0.554648