/*--------------------------------*- C++ -*----------------------------------*\
| =========                 |                                                 |
| \\      /  F ield         | OpenFOAM: The Open Source CFD Toolbox           |
|  \\    /   O peration     | Version:  2406                                  |
|   \\  /    A nd           | Website:  www.openfoam.com                      |
|    \\/     M anipulation  |                                                 |
\*---------------------------------------------------------------------------*/
FoamFile
{
    version     2.0;
    format      ascii;
    arch        "LSB;label=32;scalar=64";
    class       volScalarField;
    location    "12.25";
    object      p;
}
// * * * * * * * * * * * * * * * * * * * * * * * * * * * * * * * * * * * * * //

dimensions      [0 2 -2 0 0 0 0];

internalField   nonuniform List<scalar> 
34560
(
-10.947382
-10.939642
-10.930754
-10.920253
-10.905797
-10.885468
-10.86096
-10.836773
-10.81845
-10.997299
-10.988862
-10.979038
-10.966198
-10.947109
-10.920298
-10.889467
-10.862548
-10.845015
-11.022767
-11.014464
-11.00548
-10.993777
-10.974854
-10.946448
-10.91361
-10.885139
-10.86629
-11.041081
-11.033262
-11.025378
-11.014957
-10.996768
-10.968075
-10.934049
-10.903645
-10.882901
-11.051712
-11.044624
-11.03831
-11.029777
-11.012945
-10.984472
-10.949495
-10.917844
-10.895213
-11.051051
-11.04534
-11.041532
-11.036167
-11.022088
-10.994999
-10.959924
-10.927529
-10.902933
-11.044025
-11.039761
-11.038512
-11.036459
-11.025539
-11.000333
-10.965445
-10.932615
-10.90596
-11.031457
-11.02877
-11.030232
-11.031705
-11.024243
-11.001055
-10.966569
-10.933556
-10.904803
-11.015579
-11.014479
-11.018571
-11.023453
-11.019362
-10.998083
-10.964719
-10.931418
-10.900582
-10.998969
-10.999371
-11.005841
-11.013734
-11.012599
-10.993289
-10.961473
-10.927424
-10.894715
-10.985059
-10.986734
-10.995094
-11.005265
-11.006341
-10.988702
-10.957936
-10.92303
-10.888864
-10.977532
-10.979799
-10.98906
-11.000342
-11.002533
-10.985797
-10.955427
-10.919927
-10.884889
-10.977532
-10.979798
-10.98906
-11.000342
-11.002533
-10.985797
-10.955427
-10.919927
-10.884888
-10.985058
-10.986733
-10.995093
-11.005264
-11.006341
-10.988702
-10.957935
-10.923029
-10.888862
-10.998969
-10.99937
-11.005841
-11.013734
-11.012599
-10.993288
-10.961471
-10.927422
-10.894712
-11.01558
-11.014479
-11.018571
-11.023453
-11.019362
-10.998082
-10.964717
-10.931416
-10.900579
-11.031458
-11.028771
-11.030233
-11.031705
-11.024243
-11.001054
-10.966568
-10.933554
-10.904801
-11.044025
-11.039761
-11.038512
-11.036459
-11.025539
-11.000332
-10.965443
-10.932613
-10.905958
-11.05105
-11.045339
-11.041531
-11.036165
-11.022087
-10.994998
-10.959922
-10.927527
-10.90293
-11.05171
-11.044622
-11.038308
-11.029775
-11.012944
-10.984471
-10.949493
-10.917842
-10.895211
-11.041077
-11.033259
-11.025375
-11.014955
-10.996767
-10.968074
-10.934048
-10.903644
-10.882899
-11.022764
-11.014461
-11.005478
-10.993775
-10.974853
-10.946448
-10.91361
-10.885139
-10.866291
-10.997297
-10.98886
-10.979037
-10.966197
-10.947109
-10.920299
-10.889469
-10.862551
-10.845018
-10.947381
-10.939641
-10.930754
-10.920253
-10.905799
-10.885471
-10.860964
-10.836778
-10.818456
-10.201051
-10.200673
-10.200647
-10.200947
-10.200943
-10.19994
-10.197963
-10.195821
-10.193661
-10.204515
-10.20399
-10.203924
-10.204263
-10.204125
-10.202553
-10.199501
-10.1957
-10.191322
-10.203253
-10.202625
-10.202656
-10.203251
-10.203219
-10.201299
-10.197444
-10.192462
-10.186586
-10.196683
-10.195949
-10.19613
-10.197122
-10.197403
-10.195369
-10.190948
-10.184942
-10.177801
-10.185027
-10.184177
-10.184517
-10.185956
-10.186644
-10.184592
-10.17959
-10.172629
-10.16429
-10.169407
-10.168318
-10.168687
-10.170472
-10.171465
-10.169266
-10.163596
-10.155695
-10.146303
-10.150222
-10.148859
-10.149191
-10.15123
-10.152433
-10.149999
-10.143579
-10.134752
-10.124529
-10.129008
-10.127318
-10.1275
-10.129634
-10.130871
-10.128047
-10.120815
-10.111066
-10.100239
-10.107659
-10.105613
-10.105547
-10.107609
-10.108689
-10.105319
-10.097276
-10.086612
-10.075385
-10.088566
-10.086154
-10.085762
-10.087606
-10.088374
-10.084377
-10.075556
-10.064056
-10.052599
-10.074069
-10.071348
-10.070647
-10.072231
-10.072657
-10.068101
-10.058624
-10.046477
-10.034911
-10.066023
-10.063171
-10.062328
-10.06378
-10.064021
-10.059157
-10.049308
-10.03681
-10.025205
-10.066023
-10.063171
-10.062328
-10.06378
-10.064021
-10.059157
-10.049308
-10.03681
-10.025205
-10.07407
-10.071348
-10.070647
-10.072231
-10.072657
-10.068101
-10.058624
-10.046477
-10.034911
-10.088567
-10.086154
-10.085762
-10.087606
-10.088374
-10.084377
-10.075556
-10.064056
-10.052599
-10.10766
-10.105613
-10.105547
-10.107609
-10.108689
-10.105319
-10.097276
-10.086612
-10.075385
-10.129008
-10.127318
-10.1275
-10.129633
-10.130871
-10.128047
-10.120815
-10.111066
-10.100239
-10.150221
-10.148858
-10.14919
-10.151229
-10.152432
-10.149998
-10.143579
-10.134752
-10.124529
-10.169405
-10.168316
-10.168685
-10.17047
-10.171464
-10.169265
-10.163596
-10.155695
-10.146304
-10.185025
-10.184175
-10.184515
-10.185954
-10.186642
-10.18459
-10.179589
-10.172629
-10.16429
-10.196681
-10.195947
-10.196127
-10.19712
-10.197401
-10.195367
-10.190947
-10.184942
-10.177802
-10.203251
-10.202622
-10.202653
-10.203249
-10.203217
-10.201297
-10.197443
-10.192462
-10.186587
-10.204513
-10.203987
-10.203922
-10.204261
-10.204124
-10.202552
-10.1995
-10.1957
-10.191323
-10.201049
-10.200671
-10.200645
-10.200945
-10.200942
-10.199939
-10.197963
-10.195822
-10.193664
-9.9294163
-9.9294357
-9.9294509
-9.9294073
-9.9293021
-9.9291529
-9.9289952
-9.9288386
-9.9284064
-9.9333307
-9.9333677
-9.9333546
-9.9331762
-9.9328057
-9.9322611
-9.9315873
-9.9308472
-9.9299606
-9.9363588
-9.9364222
-9.9364373
-9.9362638
-9.9358414
-9.9351475
-9.9342088
-9.933118
-9.9319635
-9.9389794
-9.9390643
-9.9390985
-9.9389264
-9.9384782
-9.9377009
-9.9366014
-9.9352629
-9.9338479
-9.9410867
-9.9411892
-9.9412446
-9.9410869
-9.9406393
-9.9398322
-9.9386284
-9.9371108
-9.9354838
-9.9426337
-9.9427579
-9.9428428
-9.9427171
-9.9422994
-9.9415045
-9.9402574
-9.93863
-9.9368521
-9.9437302
-9.9438651
-9.9439685
-9.9438692
-9.943482
-9.9427232
-9.9414793
-9.9398017
-9.9379285
-9.9444123
-9.944552
-9.9446666
-9.9445867
-9.9442421
-9.9435284
-9.9423167
-9.9406329
-9.9387096
-9.9447696
-9.944909
-9.9450285
-9.9449623
-9.9446521
-9.9439861
-9.9428198
-9.941153
-9.9392077
-9.9449014
-9.9450378
-9.945158
-9.9450994
-9.944814
-9.9441889
-9.9430659
-9.94142
-9.939472
-9.9449159
-9.9450486
-9.9451668
-9.9451092
-9.9448371
-9.9442388
-9.943146
-9.9415168
-9.9395808
-9.9448904
-9.9450208
-9.9451376
-9.9450797
-9.9448137
-9.9442289
-9.9431513
-9.9415322
-9.9396058
-9.9448904
-9.9450207
-9.9451375
-9.9450796
-9.9448136
-9.9442288
-9.9431512
-9.9415322
-9.9396059
-9.9449156
-9.9450483
-9.9451665
-9.9451089
-9.9448368
-9.9442385
-9.9431458
-9.9415167
-9.9395809
-9.9449009
-9.9450373
-9.9451575
-9.9450988
-9.9448134
-9.9441884
-9.9430655
-9.9414198
-9.9394723
-9.9447689
-9.9449083
-9.9450278
-9.9449615
-9.9446512
-9.9439853
-9.9428191
-9.9411527
-9.939208
-9.9444113
-9.944551
-9.9446655
-9.9445855
-9.9442408
-9.9435272
-9.9423157
-9.9406323
-9.9387098
-9.9437288
-9.9438636
-9.9439668
-9.9438675
-9.9434803
-9.9427215
-9.9414778
-9.9398008
-9.9379285
-9.9426317
-9.9427558
-9.9428406
-9.9427148
-9.9422971
-9.9415022
-9.9402554
-9.9386286
-9.9368518
-9.9410842
-9.9411866
-9.9412418
-9.9410841
-9.9406364
-9.9398294
-9.9386258
-9.9371088
-9.9354832
-9.9389764
-9.9390612
-9.9390953
-9.9389231
-9.9384748
-9.9376975
-9.9365982
-9.9352605
-9.9338473
-9.9363555
-9.9364188
-9.9364338
-9.9362602
-9.9358376
-9.9351437
-9.9342054
-9.9331157
-9.9319632
-9.9333272
-9.9333641
-9.9333509
-9.9331724
-9.9328019
-9.9322574
-9.9315842
-9.9308455
-9.929961
-9.9294128
-9.9294321
-9.9294473
-9.9294039
-9.9292989
-9.9291501
-9.9289933
-9.9288381
-9.9284072
-9.2867163
-9.2867828
-9.2868709
-9.2870002
-9.2871389
-9.2871902
-9.2870531
-9.2866924
-9.2861402
-9.2865784
-9.2866424
-9.2867243
-9.286844
-9.2869561
-9.2869426
-9.2866807
-9.2861031
-9.2852746
-9.2864573
-9.286515
-9.2865878
-9.2866977
-9.2867922
-9.286741
-9.2864109
-9.2857379
-9.2848104
-9.2861476
-9.2861975
-9.2862619
-9.2863669
-9.2864544
-9.2863829
-9.2860085
-9.2852708
-9.2842574
-9.2856649
-9.285707
-9.285762
-9.2858601
-9.2859383
-9.285846
-9.2854319
-9.2846384
-9.2835566
-9.2850603
-9.2850894
-9.2851295
-9.2852171
-9.2852844
-9.2851725
-9.2847254
-9.2838916
-9.2827687
-9.2843408
-9.2843562
-9.2843806
-9.2844589
-9.2845196
-9.2843942
-9.2839263
-9.2830746
-9.2819339
-9.2835786
-9.2835794
-9.2835881
-9.2836529
-9.2837043
-9.2835713
-9.2830933
-9.2822437
-9.2811124
-9.28284
-9.2828261
-9.2828183
-9.2828709
-9.2829112
-9.2827733
-9.2822881
-9.281443
-9.2802513
-9.2822034
-9.2821752
-9.2821517
-9.2821921
-9.282223
-9.2820728
-9.2815701
-9.2806811
-9.2794246
-9.2817318
-9.281692
-9.2816569
-9.2816877
-9.2817104
-9.2815504
-9.2810243
-9.2800768
-9.2788307
-9.2814752
-9.2814309
-9.2813909
-9.2814175
-9.2814366
-9.2812711
-9.2807355
-9.279767
-9.2785294
-9.2814751
-9.2814309
-9.2813908
-9.2814174
-9.2814364
-9.281271
-9.2807354
-9.2797669
-9.2785295
-9.2817315
-9.2816917
-9.2816566
-9.2816874
-9.2817101
-9.28155
-9.281024
-9.2800766
-9.2788307
-9.282203
-9.2821747
-9.2821512
-9.2821916
-9.2822224
-9.2820722
-9.2815696
-9.2806808
-9.2794247
-9.2828394
-9.2828255
-9.2828176
-9.2828701
-9.2829103
-9.2827724
-9.2822873
-9.2814425
-9.2802513
-9.2835777
-9.2835784
-9.283587
-9.2836517
-9.2837031
-9.2835701
-9.2830921
-9.2822429
-9.2811121
-9.2843395
-9.2843548
-9.2843791
-9.2844573
-9.2845179
-9.2843925
-9.2839247
-9.2830734
-9.2819332
-9.2850586
-9.2850876
-9.2851275
-9.285215
-9.2852823
-9.2851703
-9.2847233
-9.2838899
-9.2827675
-9.2856626
-9.2857047
-9.2857596
-9.2858576
-9.2859357
-9.2858433
-9.2854293
-9.2846362
-9.2835549
-9.2861449
-9.2861947
-9.2862591
-9.286364
-9.2864513
-9.2863798
-9.2860054
-9.285268
-9.2842551
-9.2864543
-9.2865119
-9.2865847
-9.2866945
-9.2867889
-9.2867377
-9.2864075
-9.2857346
-9.2848075
-9.2865752
-9.2866392
-9.286721
-9.2868407
-9.2869528
-9.2869393
-9.2866773
-9.2860996
-9.2852711
-9.2867131
-9.2867795
-9.2868677
-9.2869971
-9.2871358
-9.2871872
-9.2870501
-9.2866889
-9.2861361
-8.9435376
-8.9435812
-8.9436328
-8.9436707
-8.9437041
-8.9437618
-8.9438713
-8.9440358
-8.9441005
-8.9438112
-8.9438599
-8.9439074
-8.9439194
-8.9439018
-8.9438843
-8.9438984
-8.9439546
-8.943976
-8.9440923
-8.9441417
-8.9441859
-8.9441836
-8.9441397
-8.9440882
-8.9440676
-8.944099
-8.9441602
-8.9443244
-8.9443706
-8.9444089
-8.9443944
-8.9443338
-8.9442665
-8.9442364
-8.9442664
-8.9443457
-8.9445102
-8.9445524
-8.944584
-8.9445568
-8.9444797
-8.9443989
-8.9443632
-8.9443955
-8.9444896
-8.9446605
-8.9446976
-8.9447218
-8.9446827
-8.9445894
-8.9444982
-8.9444611
-8.9444989
-8.9446051
-8.9447701
-8.9448022
-8.9448199
-8.9447691
-8.944665
-8.9445664
-8.9445312
-8.9445717
-8.9446759
-8.9448493
-8.9448768
-8.9448879
-8.9448261
-8.9447131
-8.9446101
-8.9445765
-8.944611
-8.9447075
-8.9449033
-8.9449262
-8.9449308
-8.9448629
-8.9447432
-8.94464
-8.9446111
-8.9446519
-8.9448398
-8.9449404
-8.9449591
-8.9449586
-8.9448858
-8.9447634
-8.9446653
-8.9446585
-8.9447712
-8.9450657
-8.9449661
-8.9449814
-8.9449769
-8.9449005
-8.9447773
-8.9446863
-8.9447094
-8.9449111
-8.9452244
-8.9449758
-8.9449896
-8.9449835
-8.9449058
-8.9447829
-8.9446969
-8.9447353
-8.9449757
-8.9452969
-8.9449758
-8.9449896
-8.9449834
-8.9449057
-8.9447828
-8.9446968
-8.9447353
-8.9449757
-8.9452969
-8.944966
-8.9449813
-8.9449768
-8.9449003
-8.9447771
-8.944686
-8.9447092
-8.944911
-8.9452246
-8.9449403
-8.9449589
-8.9449583
-8.9448855
-8.944763
-8.9446649
-8.9446581
-8.944771
-8.945066
-8.9449031
-8.9449259
-8.9449303
-8.9448623
-8.9447425
-8.9446393
-8.9446105
-8.9446516
-8.94484
-8.9448489
-8.9448763
-8.9448872
-8.9448253
-8.9447121
-8.944609
-8.9445755
-8.9446104
-8.9447074
-8.9447693
-8.9448013
-8.9448189
-8.9447678
-8.9446636
-8.9445649
-8.9445299
-8.9445708
-8.9446754
-8.9446592
-8.9446962
-8.9447203
-8.9446809
-8.9445876
-8.9444963
-8.9444593
-8.9444975
-8.944604
-8.9445083
-8.9445505
-8.9445818
-8.9445545
-8.9444773
-8.9443964
-8.944361
-8.9443936
-8.9444878
-8.9443218
-8.9443679
-8.944406
-8.9443914
-8.9443307
-8.9442635
-8.9442335
-8.9442637
-8.9443428
-8.9440888
-8.9441382
-8.9441823
-8.9441798
-8.9441359
-8.9440845
-8.9440639
-8.9440951
-8.9441558
-8.943807
-8.9438556
-8.9439031
-8.943915
-8.9438973
-8.9438798
-8.9438935
-8.9439488
-8.9439695
-8.9435329
-8.9435764
-8.943628
-8.9436658
-8.943699
-8.9437562
-8.9438647
-8.9440279
-8.9440922
-8.4186796
-8.4186897
-8.4187127
-8.418766
-8.4188431
-8.4189142
-8.418944
-8.4189187
-8.418831
-8.4187729
-8.4187815
-8.4188018
-8.4188507
-8.4189169
-8.4189615
-8.4189393
-8.4188278
-8.4186538
-8.4189154
-8.4189205
-8.418937
-8.418983
-8.4190446
-8.4190786
-8.4190355
-8.4188954
-8.4187022
-8.4190469
-8.4190478
-8.4190598
-8.4191029
-8.4191618
-8.41919
-8.4191349
-8.4189784
-8.418759
-8.4191653
-8.4191623
-8.4191694
-8.4192081
-8.419262
-8.4192824
-8.4192157
-8.4190456
-8.4188073
-8.4192675
-8.4192608
-8.4192634
-8.4192976
-8.419346
-8.4193588
-8.4192836
-8.4191074
-8.418856
-8.4193446
-8.419335
-8.4193338
-8.4193643
-8.4194074
-8.4194133
-8.4193318
-8.4191518
-8.4188462
-8.4193983
-8.4193867
-8.4193824
-8.4194095
-8.4194468
-8.4194439
-8.4193496
-8.4191172
-8.4187356
-8.419431
-8.4194182
-8.4194116
-8.4194345
-8.4194657
-8.4194493
-8.4193248
-8.4190188
-8.4185947
-8.4194479
-8.4194343
-8.4194259
-8.4194449
-8.4194701
-8.419437
-8.419274
-8.4189334
-8.4184825
-8.4194542
-8.4194402
-8.4194307
-8.4194472
-8.4194665
-8.4194199
-8.4192278
-8.4188709
-8.4184047
-8.4194555
-8.4194415
-8.4194316
-8.419447
-8.4194626
-8.4194092
-8.4192047
-8.4188378
-8.4183643
-8.4194556
-8.4194415
-8.4194316
-8.419447
-8.4194626
-8.4194092
-8.4192047
-8.4188379
-8.4183645
-8.4194544
-8.4194403
-8.4194308
-8.4194472
-8.4194665
-8.4194198
-8.4192278
-8.4188711
-8.4184052
-8.4194481
-8.4194344
-8.4194259
-8.4194448
-8.4194699
-8.4194368
-8.4192739
-8.4189336
-8.4184834
-8.4194312
-8.4194182
-8.4194115
-8.4194343
-8.4194653
-8.4194488
-8.4193246
-8.4190191
-8.4185958
-8.4193983
-8.4193865
-8.419382
-8.4194089
-8.419446
-8.4194431
-8.4193492
-8.4191174
-8.4187366
-8.4193441
-8.4193344
-8.419333
-8.4193632
-8.4194061
-8.4194121
-8.4193309
-8.4191518
-8.4188473
-8.4192663
-8.4192595
-8.4192618
-8.4192958
-8.419344
-8.4193569
-8.4192822
-8.419107
-8.4188569
-8.4191633
-8.41916
-8.4191669
-8.4192054
-8.4192591
-8.4192797
-8.4192136
-8.4190447
-8.4188078
-8.4190436
-8.4190443
-8.419056
-8.4190989
-8.4191578
-8.4191862
-8.4191319
-8.4189766
-8.4187589
-8.4189106
-8.4189156
-8.4189319
-8.4189777
-8.4190393
-8.4190735
-8.4190311
-8.4188924
-8.4187011
-8.4187667
-8.4187752
-8.4187954
-8.4188442
-8.4189102
-8.418955
-8.4189333
-8.4188231
-8.4186512
-8.4186726
-8.4186826
-8.4187056
-8.4187587
-8.4188357
-8.4189066
-8.4189365
-8.418912
-8.4188263
-7.9996982
-7.9997147
-7.9997334
-7.999746
-7.9997549
-7.9997672
-7.9997897
-7.9998262
-7.9998307
-7.9996628
-7.9996811
-7.9996995
-7.9997073
-7.9997059
-7.9997026
-7.9997044
-7.9997133
-7.9997072
-7.9996608
-7.9996783
-7.9996946
-7.9996973
-7.9996883
-7.9996775
-7.9996752
-7.9996866
-7.9997047
-7.9996577
-7.9996732
-7.9996865
-7.9996845
-7.9996704
-7.9996565
-7.9996564
-7.9996761
-7.9997095
-7.9996574
-7.9996706
-7.9996803
-7.999673
-7.999653
-7.9996351
-7.999636
-7.9996603
-7.999702
-7.9996653
-7.9996755
-7.999681
-7.9996679
-7.9996416
-7.9996199
-7.9996191
-7.9996422
-7.9996901
-7.999679
-7.999686
-7.9996875
-7.9996691
-7.9996379
-7.9996132
-7.9996111
-7.9996363
-7.9997406
-7.9997014
-7.999705
-7.9997023
-7.9996794
-7.9996449
-7.9996205
-7.9996274
-7.999712
-7.9998982
-7.9997291
-7.9997294
-7.9997229
-7.9996968
-7.9996614
-7.999644
-7.999682
-7.9998491
-8.0000771
-7.9997575
-7.9997549
-7.9997454
-7.9997171
-7.9996831
-7.9996779
-7.9997586
-7.9999637
-8.0002143
-7.9997813
-7.9997765
-7.9997647
-7.9997352
-7.9997032
-7.9997095
-7.9998224
-8.0000433
-8.0003079
-7.9997932
-7.9997874
-7.9997747
-7.9997447
-7.9997139
-7.9997261
-7.9998533
-8.0000839
-8.000356
-7.9997933
-7.9997876
-7.9997748
-7.9997448
-7.999714
-7.9997262
-7.9998534
-8.0000841
-8.0003564
-7.9997817
-7.9997769
-7.9997651
-7.9997355
-7.9997034
-7.9997096
-7.9998227
-8.0000439
-8.000309
-7.9997581
-7.9997555
-7.9997458
-7.9997174
-7.9996833
-7.9996781
-7.999759
-7.9999646
-8.0002159
-7.9997299
-7.99973
-7.9997234
-7.999697
-7.9996614
-7.9996441
-7.9996824
-7.9998503
-8.0000792
-7.999702
-7.9997054
-7.9997025
-7.9996794
-7.9996447
-7.9996204
-7.9996277
-7.9997132
-7.9999008
-7.9996792
-7.999686
-7.9996872
-7.9996685
-7.9996371
-7.9996125
-7.999611
-7.9996375
-7.9997435
-7.9996647
-7.9996746
-7.9996798
-7.9996664
-7.99964
-7.9996185
-7.9996184
-7.9996431
-7.999693
-7.9996557
-7.9996685
-7.9996779
-7.9996703
-7.9996502
-7.9996326
-7.9996344
-7.9996607
-7.9997048
-7.9996544
-7.9996696
-7.9996826
-7.9996803
-7.9996661
-7.9996526
-7.9996536
-7.9996754
-7.9997118
-7.9996557
-7.999673
-7.9996891
-7.9996915
-7.9996824
-7.9996719
-7.9996707
-7.9996845
-7.999706
-7.999656
-7.9996741
-7.9996924
-7.9997
-7.9996985
-7.9996954
-7.9996982
-7.9997092
-7.9997069
-7.9996903
-7.9997068
-7.9997254
-7.999738
-7.9997468
-7.9997593
-7.9997822
-7.99982
-7.9998277
-7.5232371
-7.5232374
-7.5232416
-7.5232556
-7.5232781
-7.5233011
-7.5233154
-7.5233141
-7.5232921
-7.5232964
-7.523296
-7.5232991
-7.5233113
-7.5233295
-7.5233425
-7.5233368
-7.5233045
-7.5232494
-7.5233675
-7.5233661
-7.5233681
-7.523379
-7.5233948
-7.5234026
-7.5233877
-7.5233424
-7.5232756
-7.5234326
-7.52343
-7.5234306
-7.5234404
-7.5234546
-7.5234591
-7.5234381
-7.523384
-7.5233034
-7.5234905
-7.5234867
-7.5234859
-7.5234942
-7.5235063
-7.5235075
-7.5234812
-7.5234198
-7.5233266
-7.5235399
-7.5235352
-7.5235331
-7.5235397
-7.5235499
-7.5235481
-7.5235182
-7.5234512
-7.5233409
-7.5235782
-7.5235728
-7.5235697
-7.5235749
-7.5235828
-7.5235784
-7.5235445
-7.5234604
-7.5233279
-7.5236053
-7.5235995
-7.5235955
-7.5235992
-7.5236044
-7.5235954
-7.5235474
-7.5234404
-7.5232919
-7.5236223
-7.5236163
-7.5236116
-7.5236134
-7.5236146
-7.5235975
-7.5235333
-7.5234132
-7.5232576
-7.5236323
-7.5236261
-7.5236207
-7.5236208
-7.523618
-7.5235924
-7.52352
-7.5233928
-7.5232324
-7.5236377
-7.5236314
-7.5236255
-7.5236244
-7.523619
-7.5235886
-7.5235108
-7.5233797
-7.5232158
-7.5236402
-7.5236337
-7.5236276
-7.523626
-7.5236193
-7.5235868
-7.5235062
-7.5233734
-7.5232077
-7.5236404
-7.523634
-7.5236278
-7.5236261
-7.5236195
-7.523587
-7.5235064
-7.5233737
-7.5232082
-7.5236385
-7.523632
-7.5236261
-7.5236249
-7.5236194
-7.523589
-7.5235114
-7.5233806
-7.5232172
-7.5236334
-7.5236271
-7.5236216
-7.5236215
-7.5236186
-7.523593
-7.5235208
-7.5233942
-7.5232347
-7.5236237
-7.5236175
-7.5236126
-7.5236142
-7.5236153
-7.5235981
-7.5235343
-7.523415
-7.5232607
-7.5236067
-7.5236007
-7.5235965
-7.5235998
-7.5236048
-7.5235958
-7.5235483
-7.5234425
-7.5232955
-7.5235792
-7.5235736
-7.5235702
-7.523575
-7.5235827
-7.5235783
-7.5235451
-7.5234624
-7.5233318
-7.5235402
-7.5235352
-7.5235328
-7.523539
-7.523549
-7.5235474
-7.5235183
-7.5234529
-7.5233448
-7.5234896
-7.5234856
-7.5234843
-7.5234923
-7.5235042
-7.5235057
-7.5234804
-7.5234209
-7.52333
-7.5234301
-7.5234272
-7.5234275
-7.5234369
-7.523451
-7.5234559
-7.523436
-7.5233838
-7.5233057
-7.5233632
-7.5233616
-7.5233632
-7.5233739
-7.5233896
-7.5233977
-7.5233837
-7.5233403
-7.5232761
-7.5232904
-7.5232898
-7.5232927
-7.5233047
-7.5233228
-7.5233358
-7.5233307
-7.5232996
-7.5232473
-7.52323
-7.5232302
-7.5232343
-7.5232482
-7.5232705
-7.5232932
-7.5233072
-7.5233061
-7.5232866
-7.0766368
-7.0766412
-7.076646
-7.0766492
-7.0766513
-7.0766545
-7.0766628
-7.0766796
-7.0766901
-7.0766187
-7.0766236
-7.0766284
-7.0766303
-7.0766299
-7.0766298
-7.0766333
-7.0766418
-7.0766472
-7.0766086
-7.0766133
-7.0766174
-7.0766179
-7.0766155
-7.0766137
-7.0766164
-7.0766255
-7.0766374
-7.0765983
-7.0766024
-7.0766055
-7.0766045
-7.0766006
-7.0765978
-7.0766008
-7.0766116
-7.0766278
-7.0765899
-7.0765932
-7.0765952
-7.0765925
-7.0765866
-7.0765822
-7.0765845
-7.0765954
-7.0766155
-7.0765857
-7.0765881
-7.0765888
-7.0765842
-7.076576
-7.0765698
-7.0765703
-7.0765806
-7.0766101
-7.0765855
-7.076587
-7.0765865
-7.0765802
-7.0765703
-7.0765626
-7.0765631
-7.0765855
-7.076629
-7.07659
-7.0765906
-7.076589
-7.0765815
-7.0765709
-7.0765643
-7.076576
-7.076615
-7.0766645
-7.0765983
-7.0765981
-7.0765955
-7.0765876
-7.0765783
-7.0765771
-7.0766009
-7.0766455
-7.0766935
-7.0766074
-7.0766064
-7.0766033
-7.0765953
-7.0765879
-7.0765928
-7.0766198
-7.0766644
-7.076711
-7.0766145
-7.0766131
-7.0766096
-7.0766016
-7.0765952
-7.0766029
-7.0766312
-7.0766741
-7.0767201
-7.0766181
-7.0766167
-7.076613
-7.0766049
-7.076599
-7.0766078
-7.0766366
-7.0766782
-7.0767241
-7.0766185
-7.076617
-7.0766133
-7.0766052
-7.0765992
-7.076608
-7.0766368
-7.0766786
-7.0767246
-7.0766154
-7.076614
-7.0766104
-7.0766022
-7.0765957
-7.0766034
-7.0766318
-7.0766751
-7.0767217
-7.0766088
-7.0766077
-7.0766044
-7.0765963
-7.0765887
-7.0765935
-7.0766207
-7.0766659
-7.0767135
-7.0766001
-7.0765997
-7.0765969
-7.0765887
-7.0765791
-7.0765779
-7.0766021
-7.0766475
-7.0766968
-7.0765919
-7.0765922
-7.0765903
-7.0765825
-7.0765716
-7.076565
-7.0765771
-7.0766173
-7.0766683
-7.076587
-7.0765883
-7.0765875
-7.0765807
-7.0765706
-7.0765629
-7.076564
-7.0765877
-7.0766332
-7.0765866
-7.0765887
-7.076589
-7.076584
-7.0765756
-7.0765694
-7.0765706
-7.0765825
-7.0766142
-7.0765897
-7.0765927
-7.0765943
-7.0765912
-7.076585
-7.0765808
-7.076584
-7.0765967
-7.0766191
-7.0765967
-7.0766004
-7.0766032
-7.0766019
-7.0765978
-7.0765952
-7.0765992
-7.0766118
-7.0766304
-7.0766053
-7.0766097
-7.0766136
-7.0766138
-7.0766113
-7.0766098
-7.0766133
-7.076624
-7.0766383
-7.0766139
-7.0766187
-7.0766233
-7.076625
-7.0766246
-7.0766246
-7.0766285
-7.0766381
-7.0766458
-7.0766311
-7.0766355
-7.0766403
-7.0766433
-7.0766453
-7.0766483
-7.0766564
-7.0766735
-7.0766859
-6.6158124
-6.6158122
-6.6158131
-6.6158164
-6.615822
-6.6158283
-6.6158317
-6.6158285
-6.6158156
-6.6158202
-6.6158199
-6.6158205
-6.6158233
-6.6158275
-6.6158303
-6.6158275
-6.6158159
-6.6157952
-6.6158319
-6.6158313
-6.6158315
-6.6158339
-6.6158373
-6.6158383
-6.6158328
-6.6158181
-6.6157955
-6.6158433
-6.6158423
-6.6158421
-6.615844
-6.6158468
-6.6158467
-6.6158396
-6.6158226
-6.6157974
-6.6158541
-6.6158526
-6.6158519
-6.6158533
-6.6158553
-6.6158542
-6.6158453
-6.6158261
-6.6157981
-6.6158636
-6.6158618
-6.6158607
-6.6158615
-6.6158627
-6.6158605
-6.6158498
-6.6158282
-6.615798
-6.6158714
-6.6158693
-6.6158677
-6.6158679
-6.6158684
-6.6158648
-6.6158522
-6.6158284
-6.6157964
-6.6158772
-6.6158748
-6.6158729
-6.6158726
-6.6158722
-6.6158672
-6.6158526
-6.615827
-6.6157943
-6.6158813
-6.6158787
-6.6158765
-6.6158758
-6.6158745
-6.6158683
-6.615852
-6.6158256
-6.6157929
-6.6158842
-6.6158815
-6.615879
-6.6158779
-6.615876
-6.6158686
-6.615851
-6.6158245
-6.6157921
-6.6158862
-6.6158834
-6.6158807
-6.6158793
-6.6158768
-6.6158685
-6.6158502
-6.615824
-6.6157919
-6.6158872
-6.6158844
-6.6158816
-6.61588
-6.6158773
-6.6158684
-6.6158498
-6.6158239
-6.6157921
-6.6158876
-6.6158847
-6.6158819
-6.6158803
-6.6158775
-6.6158686
-6.61585
-6.6158242
-6.6157926
-6.6158871
-6.6158843
-6.6158815
-6.6158799
-6.6158774
-6.615869
-6.6158508
-6.6158249
-6.6157934
-6.6158857
-6.6158829
-6.6158802
-6.6158789
-6.6158768
-6.6158693
-6.615852
-6.6158261
-6.6157946
-6.6158831
-6.6158804
-6.6158779
-6.6158769
-6.6158754
-6.6158691
-6.6158531
-6.6158275
-6.6157961
-6.6158791
-6.6158765
-6.6158743
-6.6158736
-6.6158729
-6.6158679
-6.6158538
-6.6158293
-6.6157982
-6.615873
-6.6158706
-6.6158687
-6.6158685
-6.6158687
-6.6158651
-6.6158531
-6.6158307
-6.6158005
-6.6158646
-6.6158625
-6.6158609
-6.6158613
-6.6158623
-6.6158601
-6.6158501
-6.6158302
-6.6158021
-6.615854
-6.6158522
-6.6158511
-6.6158521
-6.6158538
-6.6158529
-6.6158448
-6.6158274
-6.6158019
-6.6158418
-6.6158404
-6.6158399
-6.6158415
-6.6158441
-6.6158442
-6.615838
-6.6158229
-6.6158003
-6.6158287
-6.6158279
-6.6158278
-6.61583
-6.6158332
-6.6158345
-6.6158299
-6.6158169
-6.615797
-6.6158156
-6.6158151
-6.6158156
-6.6158182
-6.6158224
-6.6158253
-6.6158231
-6.6158128
-6.6157946
-6.6158071
-6.6158069
-6.6158077
-6.6158109
-6.6158163
-6.6158226
-6.6158259
-6.6158231
-6.6158123
-6.1612312
-6.1612323
-6.1612335
-6.1612343
-6.1612351
-6.161236
-6.1612376
-6.1612402
-6.1612402
-6.1612257
-6.1612269
-6.1612281
-6.1612287
-6.1612288
-6.1612286
-6.1612285
-6.1612284
-6.1612262
-6.1612214
-6.1612226
-6.1612236
-6.1612238
-6.1612234
-6.1612228
-6.1612227
-6.1612229
-6.1612226
-6.1612166
-6.1612175
-6.1612183
-6.1612182
-6.1612174
-6.1612168
-6.1612171
-6.1612185
-6.1612198
-6.1612118
-6.1612125
-6.1612129
-6.1612124
-6.1612113
-6.1612106
-6.1612113
-6.1612137
-6.1612166
-6.1612077
-6.1612082
-6.1612082
-6.1612072
-6.1612057
-6.1612047
-6.161206
-6.1612094
-6.1612138
-6.1612043
-6.1612045
-6.1612043
-6.1612029
-6.1612008
-6.1611999
-6.1612014
-6.1612057
-6.1612114
-6.1612017
-6.1612018
-6.1612012
-6.1611995
-6.1611971
-6.161196
-6.1611976
-6.1612027
-6.1612096
-6.1612
-6.1611999
-6.1611991
-6.1611969
-6.1611942
-6.1611928
-6.1611947
-6.1612004
-6.1612082
-6.1611987
-6.1611984
-6.1611975
-6.1611951
-6.161192
-6.1611904
-6.1611925
-6.1611987
-6.1612073
-6.161198
-6.1611976
-6.1611964
-6.1611938
-6.1611905
-6.1611889
-6.1611911
-6.1611977
-6.1612068
-6.1611976
-6.1611972
-6.161196
-6.1611932
-6.1611899
-6.1611882
-6.1611905
-6.1611973
-6.1612068
-6.161198
-6.1611975
-6.1611962
-6.1611934
-6.16119
-6.1611884
-6.1611907
-6.1611977
-6.1612073
-6.1611988
-6.1611984
-6.1611971
-6.1611944
-6.161191
-6.1611894
-6.1611917
-6.1611986
-6.1612083
-6.1612001
-6.1611997
-6.1611986
-6.161196
-6.1611928
-6.1611911
-6.1611934
-6.1612002
-6.1612096
-6.1612017
-6.1612014
-6.1612004
-6.161198
-6.1611951
-6.1611936
-6.1611958
-6.1612023
-6.1612113
-6.1612035
-6.1612033
-6.1612025
-6.1612004
-6.1611978
-6.1611966
-6.1611987
-6.1612048
-6.1612132
-6.1612057
-6.1612058
-6.1612052
-6.1612034
-6.1612011
-6.1612002
-6.1612023
-6.1612079
-6.1612154
-6.1612086
-6.1612088
-6.1612085
-6.1612071
-6.1612052
-6.1612044
-6.1612064
-6.1612114
-6.1612178
-6.1612117
-6.1612121
-6.1612121
-6.1612112
-6.1612099
-6.1612093
-6.161211
-6.1612151
-6.1612203
-6.161215
-6.1612157
-6.1612161
-6.1612156
-6.1612147
-6.1612144
-6.1612157
-6.1612188
-6.1612225
-6.1612182
-6.1612191
-6.1612199
-6.1612198
-6.1612193
-6.161219
-6.1612197
-6.1612216
-6.1612238
-6.161221
-6.1612221
-6.1612231
-6.1612235
-6.1612235
-6.1612234
-6.1612238
-6.1612247
-6.1612251
-6.1612256
-6.1612267
-6.1612278
-6.1612286
-6.1612291
-6.1612298
-6.1612312
-6.1612339
-6.1612362
-5.7043145
-5.7043145
-5.7043148
-5.7043155
-5.7043166
-5.7043176
-5.704318
-5.7043177
-5.7043154
-5.7043159
-5.704316
-5.7043163
-5.704317
-5.7043178
-5.7043181
-5.7043174
-5.7043152
-5.704311
-5.7043184
-5.7043184
-5.7043185
-5.7043191
-5.7043197
-5.7043199
-5.7043191
-5.7043166
-5.7043124
-5.7043209
-5.7043208
-5.7043209
-5.7043213
-5.7043218
-5.704322
-5.7043212
-5.7043187
-5.7043142
-5.7043235
-5.7043233
-5.7043233
-5.7043235
-5.704324
-5.704324
-5.7043231
-5.7043204
-5.7043159
-5.704326
-5.7043257
-5.7043255
-5.7043256
-5.7043258
-5.7043258
-5.7043248
-5.7043221
-5.7043176
-5.7043281
-5.7043277
-5.7043273
-5.7043273
-5.7043274
-5.7043272
-5.7043262
-5.7043237
-5.7043193
-5.7043299
-5.7043294
-5.7043289
-5.7043287
-5.7043287
-5.7043285
-5.7043276
-5.7043251
-5.7043208
-5.7043315
-5.7043308
-5.7043303
-5.7043299
-5.7043298
-5.7043296
-5.7043287
-5.7043264
-5.7043222
-5.7043327
-5.704332
-5.7043314
-5.704331
-5.7043308
-5.7043305
-5.7043296
-5.7043274
-5.7043234
-5.7043336
-5.7043329
-5.7043322
-5.7043317
-5.7043315
-5.7043312
-5.7043304
-5.7043282
-5.7043243
-5.7043342
-5.7043335
-5.7043327
-5.7043322
-5.7043319
-5.7043316
-5.7043308
-5.7043287
-5.704325
-5.7043345
-5.7043337
-5.7043329
-5.7043324
-5.7043321
-5.7043318
-5.704331
-5.704329
-5.7043254
-5.7043343
-5.7043335
-5.7043328
-5.7043322
-5.7043319
-5.7043316
-5.7043308
-5.704329
-5.7043255
-5.7043337
-5.704333
-5.7043322
-5.7043317
-5.7043313
-5.7043311
-5.7043304
-5.7043286
-5.7043253
-5.7043327
-5.704332
-5.7043312
-5.7043307
-5.7043304
-5.7043302
-5.7043295
-5.7043279
-5.7043247
-5.7043313
-5.7043305
-5.7043298
-5.7043294
-5.7043292
-5.704329
-5.7043284
-5.7043268
-5.7043238
-5.7043292
-5.7043286
-5.704328
-5.7043276
-5.7043275
-5.7043274
-5.7043269
-5.7043254
-5.7043225
-5.7043266
-5.704326
-5.7043255
-5.7043253
-5.7043253
-5.7043253
-5.704325
-5.7043237
-5.7043209
-5.7043232
-5.7043228
-5.7043224
-5.7043223
-5.7043226
-5.7043228
-5.7043226
-5.7043215
-5.7043188
-5.7043194
-5.704319
-5.7043188
-5.7043189
-5.7043194
-5.7043198
-5.7043198
-5.7043188
-5.7043163
-5.7043154
-5.7043152
-5.7043152
-5.7043155
-5.704316
-5.7043165
-5.7043163
-5.7043153
-5.7043131
-5.7043117
-5.7043116
-5.7043117
-5.7043122
-5.704313
-5.7043134
-5.704313
-5.7043118
-5.7043098
-5.7043094
-5.7043094
-5.7043096
-5.7043103
-5.7043112
-5.704312
-5.7043122
-5.704312
-5.7043119
-5.2481539
-5.2481541
-5.2481543
-5.2481545
-5.2481547
-5.248155
-5.2481554
-5.248156
-5.248155
-5.2481538
-5.248154
-5.2481542
-5.2481544
-5.2481545
-5.2481545
-5.2481544
-5.2481538
-5.248152
-5.2481538
-5.248154
-5.2481542
-5.2481543
-5.2481544
-5.2481543
-5.2481539
-5.2481529
-5.2481514
-5.2481535
-5.2481537
-5.2481538
-5.2481539
-5.2481539
-5.2481537
-5.2481533
-5.2481524
-5.248151
-5.248153
-5.2481531
-5.2481532
-5.2481532
-5.2481531
-5.2481529
-5.2481525
-5.2481518
-5.2481506
-5.2481524
-5.2481525
-5.2481525
-5.2481523
-5.2481522
-5.248152
-5.2481517
-5.2481512
-5.2481504
-5.2481519
-5.2481519
-5.2481518
-5.2481516
-5.2481513
-5.248151
-5.2481509
-5.2481507
-5.2481502
-5.2481516
-5.2481515
-5.2481513
-5.248151
-5.2481506
-5.2481503
-5.2481502
-5.2481503
-5.2481502
-5.2481514
-5.2481513
-5.248151
-5.2481506
-5.2481501
-5.2481498
-5.2481498
-5.2481501