/*--------------------------------*- C++ -*----------------------------------*\
| =========                 |                                                 |
| \\      /  F ield         | OpenFOAM: The Open Source CFD Toolbox           |
|  \\    /   O peration     | Version:  2406                                  |
|   \\  /    A nd           | Website:  www.openfoam.com                      |
|    \\/     M anipulation  |                                                 |
\*---------------------------------------------------------------------------*/
FoamFile
{
    version     2.0;
    format      ascii;
    arch        "LSB;label=32;scalar=64";
    class       surfaceScalarField;
    location    "12.25";
    object      phi;
}
// * * * * * * * * * * * * * * * * * * * * * * * * * * * * * * * * * * * * * //

dimensions      [0 3 -1 0 0 0 0];

oriented        oriented;

internalField   nonuniform List<scalar> 
101088
(
-0.00017477636
3.7909391e-05
-1.4763821e-05
-3.2000448e-05
-0.00038965755
0.00017265719
-6.8235221e-05
-0.00014651303
-0.00062884291
0.00043285015
-0.00017441888
-0.00036875577
-0.00085611745
0.00084111896
-0.00034886734
-0.0007216228
-0.0010235638
0.001352054
-0.00057686589
-0.0011725483
-0.0011088554
0.0018595136
-0.00079681382
-0.0016280568
-0.0011475442
0.002257283
-0.00092457891
-0.0019816192
-0.0012061731
0.0024731598
-0.00091355697
-0.0021609401
0.0024624532
-0.00078500336
-0.0021495279
-0.0013086668
-0.00021215094
4.1957009e-05
-1.7158027e-05
-0.00046651781
0.00019209731
-7.9886436e-05
-0.00073714065
0.00048131682
-0.00020546611
-0.00097144756
0.00092949587
-0.00041231697
-0.0011109576
0.0014823055
-0.00068156562
-0.0011393749
0.0020290405
-0.00093936302
-0.0011074395
0.0024651546
-0.001089377
-0.0010908171
0.0027129758
-0.0010820512
0.0027088725
-0.000943258
-0.0011262274
-0.00025052987
4.4219971e-05
-1.9010162e-05
-0.00054558531
0.00020363155
-8.9388177e-05
-0.00084926577
0.00051117197
-0.00023172351
-0.0010952278
0.00098359699
-0.00046680678
-0.0012147995
0.0015586445
-0.00077062476
-0.0011950793
0.0021262074
-0.001057053
-0.0010999992
0.0025878047
-0.0012202552
-0.0010171646
0.0028619681
-0.0012108958
0.0028733025
-0.0010614245
-0.00099577325
-0.00028837339
4.4615727e-05
-2.0308239e-05
-0.00062427301
0.00020672706
-9.6576535e-05
-0.0009614517
0.00052009243
-0.00025259835
-0.0012199811
0.00099833998
-0.00051115126
-0.0013245977
0.0015754497
-0.00084274058
-0.0012676252
0.0021459084
-0.0011496336
-0.0011259453
0.0026218055
-0.0013190632
-0.00099423385
0.0029157009
-0.0013033959
0.0029461797
-0.0011434637
-0.00092676173
-0.0003242322
4.2590581e-05
-2.0934237e-05
-0.00069896383
0.00019965724
-0.00010097441
-0.0010690646
0.00050558161
-0.00026711019
-0.0013434612
0.00097176684
-0.00054395574
-0.0014419074
0.0015322606
-0.00089701899
-0.0013618952
0.0020894428
-0.0012181061
-0.0011884503
0.0025654699
-0.0013876847
-0.0010224064
0.0028716872
-0.0013634472
0.0029213735
-0.0011938417
-0.00091844082
-0.0003587651
3.9051813e-05
-2.0953472e-05
-0.00077354903
0.00018508629
-0.0001027735
-0.0011811713
0.00047186241
-0.00027560393
-0.0014793942
0.00090865105
-0.00056591974
-0.001582288
0.0014327991
-0.00093440178
-0.0014919365
0.0019585671
-0.0012632115
-0.0012986471
0.0024177241
-0.0014288095
-0.0011076448
0.0027262512
-0.0013947126
0.0027920702
-0.0012165799
-0.00097223699
-0.00038979513
3.3983933e-05
-2.0442355e-05
-0.00084158839
0.00016315763
-0.0001021538
-0.0012856472
0.00041952488
-0.00027816289
-0.00161093
0.00081098767
-0.0005766814
-0.0017277135
0.0012815784
-0.00095440447
-0.0016407218
0.0017589577
-0.0012855995
-0.0014401876
0.0021817441
-0.0014442808
-0.0012350156
0.0024808635
-0.001399988
0.0025573615
-0.0012151929
-0.0010754847
-0.00041711719
2.7749385e-05
-1.9477251e-05
-0.00090316128
0.00013525345
-9.9424058e-05
-0.001383435
0.00035146611
-0.00027546946
-0.0017395345
0.00068338052
-0.00057752688
-0.0018779477
0.001084296
-0.00095922244
-0.0018051571
0.0014971195
-0.0012885643
-0.0016078728
0.0018630091
-0.0014385773
-0.0013958762
0.0021379703
-0.0013842766
0.0022176227
-0.0011947267
-0.001216776
-0.00044023247
2.0828217e-05
-1.8232778e-05
-0.00095701177
0.00010324615
-9.5269461e-05
-0.0014721095
0.00027151471
-0.00026895778
-0.0018610117
0.00053172247
-0.00057081175
-0.0020262293
0.00084812457
-0.00095227884
-0.0019737377
0.0011796164
-0.0012765428
-0.001788948
0.001471578
-0.0014175626
-0.0015748824
0.0017030421
-0.0013536731
0.0017767409
-0.0011611163
-0.0013791879
-0.00045861432
1.3770625e-05
-1.6950416e-05
-0.0010015039
6.9340155e-05
-9.0677882e-05
-0.0015481915
0.00018431911
-0.0002607533
-0.0019692313
0.00036331827
-0.00056002717
-0.0021630816
0.00058235031
-0.00093852646
-0.002131997
0.00081486477
-0.001256066
-0.0019636658
0.0010194568
-0.0013884636
-0.0017506672
0.0011875354
-0.0013161302
0.0012449699
-0.0011219453
-0.0015407682
-0.00047137385
6.890562e-06
-1.5937892e-05
-0.0010332681
3.4929685e-05
-8.6872484e-05
-0.0016039773
9.3308943e-05
-0.00025342945
-0.0020507164
0.00018442784
-0.00054930923
-0.0022687433
0.00029633218
-0.00092376264
-0.0022570202
0.00041614002
-0.0012347384
-0.0021038825
0.0005219744
-0.0013596847
-0.0018936655
0.00061056247
-0.0012808858
0.00064223252
-0.0010860891
-0.0016731724
-0.00047783741
-8.093281e-11
-1.5308182e-05
-0.001049539
-3.1169398e-10
-8.4475594e-05
-0.0016330233
-7.3284671e-10
-0.00024870756
-0.0020941358
-1.3044553e-09
-0.00054224011
-0.0023264905
-1.9478654e-09
-0.00091405684
-0.0023270016
-2.4393075e-09
-0.0012211826
-0.002183192
-2.7212311e-09
-0.001341807
-0.0019753397
-1.6766437e-09
-0.0012594457
9.9877168e-11
-0.0010644376
-0.0017492359
-0.00047783719
-6.8906948e-06
-1.530818e-05
-0.0010495388
-3.4930248e-05
-8.4475585e-05
-0.0016330229
-9.331027e-05
-0.00024870754
-0.0020941355
-0.00018443029
-0.00054224006
-0.0023264903
-0.00029633617
-0.00091405677
-0.0023270015
-0.00041614523
-0.0012211825
-0.0021831917
-0.00052197977
-0.0013418069
-0.0019753392
-0.0006105654
-0.0012594456
-0.00064223211
-0.0010644376
-0.0017492355
-0.00047137371
-1.3770767e-05
-1.5937894e-05
-0.0010332682
-6.9340761e-05
-8.6872496e-05
-0.0016039772
-0.00018432053
-0.00025342948
-0.0020507166
-0.00036332092
-0.00054930927
-0.0022687436
-0.00058235463
-0.00092376272
-0.0022570203
-0.00081487041
-0.0012347384
-0.0021038817
-0.001019462
-0.0013596847
-0.0018936643
-0.0011875379
-0.0012808857
-0.0012449693
-0.0010860891
-0.0016731712
-0.00045861424
-2.0828291e-05
-1.6950417e-05
-0.0010015042
-0.00010324652
-9.0677888e-05
-0.0015481915
-0.00027151589
-0.00026075331
-0.0019692316
-0.00053172513
-0.00056002714
-0.0021630816
-0.00084812879
-0.00093852647
-0.0021319964
-0.0011796218
-0.0012560659
-0.0019636646
-0.0014715832
-0.0013884636
-0.0017506658
-0.0017030448
-0.0013161301
-0.0017767401
-0.0011219454
-0.0015407667
-0.0004402321
-2.7749414e-05
-1.8232782e-05
-0.00095701196
-0.00013525373
-9.526948e-05
-0.0014721099
-0.00035146728
-0.00026895783
-0.0018610121
-0.00068338318
-0.00057081179
-0.0020262293
-0.0010843001
-0.00095227898
-0.001973737
-0.0014971245
-0.0012765429
-0.0017889469
-0.0018630145
-0.0014175629
-0.001574881
-0.0021379737
-0.0013536732
-0.0022176219
-0.0011611164
-0.0013791864
-0.00041711693
-3.3984069e-05
-1.9477256e-05
-0.00090316132
-0.00016315811
-9.9424078e-05
-0.0013834351
-0.00041952604
-0.00027546952
-0.0017395345
-0.00081098997
-0.00057752695
-0.0018779478
-0.001281582
-0.00095922267
-0.0018051571
-0.0017589621
-0.0012885646
-0.0016078726
-0.0021817492
-0.0014385778
-0.0013958753
-0.0024808671
-0.001384277
-0.0025573605
-0.0011947268
-0.001216775
-0.0003897953
-3.9051942e-05
-2.0442361e-05
-0.00084158864
-0.0001850867
-0.00010215382
-0.0012856476
-0.00047186343
-0.00027816297
-0.0016109303
-0.00090865313
-0.00057668151
-0.001727714
-0.0014328025
-0.00095440474
-0.0016407228
-0.0019585712
-0.0012855998
-0.0014401883
-0.0024177288
-0.0014442813
-0.0012350154
-0.0027262548
-0.0013999884
-0.0027920695
-0.0012151931
-0.001075484
-0.00035876525
-4.2590662e-05
-2.095348e-05
-0.00077354921
-0.00019965753
-0.00010277353
-0.0011811718
-0.0005055824
-0.00027560404
-0.0014793952
-0.00097176851
-0.00056591994
-0.0015822893
-0.0015322635
-0.00093440215
-0.0014919384
-0.0020894467
-0.0012632119
-0.001298649
-0.0025654744
-0.00142881
-0.0011076457
-0.0028716909
-0.0013947131
-0.0029213736
-0.0012165801
-0.00097223666
-0.00032423213
-4.4615793e-05
-2.0934237e-05
-0.00069896368
-0.0002067273
-0.0001009744
-0.0010690647
-0.00052009292
-0.0002671102
-0.0013434619
-0.00099834111
-0.00054395579
-0.0014419083
-0.001575452
-0.00089701908
-0.0013618968
-0.0021459116
-0.0012181062
-0.0011884525
-0.0026218092
-0.0013876849
-0.0010224082
-0.0029157043
-0.0013634474
-0.0029461813
-0.0011938419
-0.00091844075
-0.00028837336
-4.4219955e-05
-2.0308237e-05
-0.00062427309
-0.00020363157
-9.6576525e-05
-0.00096145224
-0.00051117215
-0.00025259833
-0.001219982
-0.00098359784
-0.00051115125
-0.0013245989
-0.0015586465
-0.00084274052
-0.0012676269
-0.0021262103
-0.0011496335
-0.0011259482
-0.0025878077
-0.0013190632
-0.00099423663
-0.0028619711
-0.0013033959
-0.0028733068
-0.0011434639
-0.00092676208
-0.00025052976
-4.1956951e-05
-1.9010157e-05
-0.00054558512
-0.00019209717
-8.9388154e-05
-0.00084926566
-0.00048131674
-0.00023172345
-0.0010952278
-0.00092949621
-0.00046680668
-0.0012147999
-0.0014823067
-0.00077062461
-0.0011950804
-0.0020290425
-0.0010570528
-0.0011000014
-0.0024651567
-0.0012202549
-0.0010171676
-0.0027129789
-0.0012108956
-0.0027088785
-0.0010614247
-0.00099577416
-0.00021215091
-3.7909367e-05
-1.7158025e-05
-0.0004665176
-0.00017265716
-7.9886425e-05
-0.00073714014
-0.00043285023
-0.00020546608
-0.00097144699
-0.00084111936
-0.0004123169
-0.0011109576
-0.0013520553
-0.00068156551
-0.0011393756
-0.0018595157
-0.00093936289
-0.0011074409
-0.0022572847
-0.0010893769
-0.0010908178
-0.0024731635
-0.0010820511
-0.0024624597
-0.00094325802
-0.001126228
-0.00017477632
-1.4763824e-05
-3.2000457e-05
-0.00038965724
-6.8235231e-05
-0.00014651308
-0.00062884215
-0.00017441891
-0.00036875592
-0.00085611649
-0.00034886737
-0.00072162312
-0.001023563
-0.00057686593
-0.0011725489
-0.0011088551
-0.00079681391
-0.0016280581
-0.0011475441
-0.00092457898
-0.0019816209
-0.001206174
-0.00091355696
-0.0021609419
-0.00078500346
-0.002149531
-0.0013086701
1.1669493e-06
-1.0294669e-06
-1.4706968e-05
-1.9433561e-07
4.886969e-06
-5.265459e-06
-6.6714652e-05
2.4860972e-08
1.0455828e-05
-1.5415216e-05
-0.00016725659
2.6840698e-06
1.5110869e-05
-3.738229e-05
-0.00032854077
1.2400724e-05
1.731458e-05
-7.844429e-05
-0.00053703132
3.640611e-05
2.0668969e-05
-0.00014054364
-0.0007389186
7.9294128e-05
3.2418319e-05
-0.0002138731
-0.0008580694
0.00013561433
5.7193039e-05
-0.00027927937
-0.00084971103
0.00019065862
-0.00031612638
-0.00073084039
0.00022860438
9.055192e-05
1.9133617e-06
-2.6714602e-06
-1.7429409e-05
8.0668599e-06
-1.2260588e-05
-7.9044864e-05
1.728675e-05
-3.2022573e-05
-0.00019807871
2.4709772e-05
-6.8718714e-05
-0.00038840366
2.6552782e-05
-0.00012880515
-0.00063304787
2.5970671e-05
-0.00021087468
-0.00086845001
3.0971724e-05
-0.00030047582
-0.0010077756
4.6970786e-05
-0.00037442972
-0.0010029001
-0.00041122398
-0.00087575442
7.4564752e-05
2.8601272e-06
-4.6514317e-06
-1.9890332e-05
1.1913302e-05
-2.0505567e-05
-9.0196377e-05
2.5126887e-05
-5.1107851e-05
-0.00022585173
3.4955054e-05
-0.00010362655
-0.000441727
3.5202041e-05
-0.00018293172
-0.00071674503
2.8933108e-05
-0.0002839646
-0.00097769423
2.5363797e-05
-0.00038819164
-0.0011289702
3.1602015e-05
-0.00046911836
-0.0011224454
-0.00050363797
-0.00098695965
4.9550799e-05
3.9173725e-06
-6.7777866e-06
-2.209927e-05
1.6172861e-05
-2.9183469e-05
-0.00010015418
3.3626293e-05
-7.0703573e-05
-0.00025045618
4.5576789e-05
-0.00013839171
-0.0004883367
4.3359337e-05
-0.00023505219
-0.00078840272
3.0479738e-05
-0.00035223831
-0.0010684805
1.7724153e-05
-0.00046847658
-0.0012260227
1.4053175e-05
-0.00055398584
-0.0012148575
-0.00058438541
-0.0010710376
2.2374363e-05
4.9743869e-06
-8.7441857e-06
-2.394222e-05
2.0441061e-05
-3.7107305e-05
-0.00010851729
4.2036278e-05
-8.8238587e-05
-0.00027117044
5.5770223e-05
-0.00016864619
-0.00052743522
5.0561643e-05
-0.00027904542
-0.00084781741
3.0672082e-05
-0.00040831957
-0.0011421354
9.5107566e-06
-0.00053261148
-0.0013023884
-2.6335004e-06
-0.00062003108
-0.0012852579
-0.00064483013
-0.0011335574
-2.4730501e-06
6.1181708e-06
-1.0353653e-05
-2.5462191e-05
2.5073972e-05
-4.34016e-05
-0.00011543519
5.1211873e-05
-0.000101682
-0.00028829846
6.7033969e-05
-0.00019080307
-0.00055958512
5.9120177e-05
-0.00030946493
-0.0008960685
3.2965999e-05
-0.00044468185
-0.0012006949
4.47832e-06
-0.00057161722
-0.001361316
-1.4840961e-05
-0.00065760522
-0.0013378194
-0.0006760283
-0.0011789287
-2.1294107e-05
7.1352467e-06
-1.1250369e-05
-2.6680919e-05
2.9266367e-05
-4.6723976e-05
-0.00012096259
5.9559739e-05
-0.00010823308
-0.00030190521
7.7260384e-05
-0.00020031344
-0.00058487167
6.6956608e-05
-0.00032013508
-0.00093343061
3.560429e-05
-0.00045393243
-0.0012449963
1.4640926e-06
-0.00057721367
-0.0014045441
-2.2915994e-05
-0.00065809123
-0.001375122
-0.00067029625
-0.0012102797
-3.356135e-05
8.0049459e-06
-1.1152028e-05
-2.7580676e-05
3.2934845e-05
-4.5991982e-05
-0.00012508571
6.698977e-05
-0.00010564588
-0.00031211158
8.6548023e-05
-0.00019356836
-0.00060383002
7.4496681e-05
-0.00030609933
-0.00096120673
3.9290176e-05
-0.0004299651
-0.001277325
1.1032486e-06
-0.00054241258
-0.0014351914
-2.6269069e-05
-0.00061432278
-0.0014006727
-0.00062121124
-0.001231129
-3.8951767e-05
8.6880986e-06
-9.8746861e-06
-2.8198313e-05
3.5921603e-05
-4.0528282e-05
-0.00012796649
7.3206113e-05
-9.2560506e-05
-0.00031932766
9.4565649e-05
-0.0001684348
-0.00061730466
8.1520234e-05
-0.00026445611
-0.00098087658
4.3983633e-05
-0.00036911653
-0.0012998547
3.0816278e-06
-0.00046313967
-0.0014559333
-2.5512255e-05
-0.00052208021
-0.0014173217
-0.00052508571
-0.0012442604
-3.8493537e-05
9.1994519e-06
-7.4299655e-06
-2.8594602e-05
3.8242329e-05
-3.0388454e-05
-0.00012986039
7.8198726e-05
-6.9128857e-05
-0.00032414126
0.00010129547
-0.0001252151
-0.00062634333
8.7980407e-05
-0.00019566069
-0.00099400662
4.9340865e-05
-0.00027192858
-0.0013146142
6.8665665e-06
-0.00034007545
-0.0014690534
-2.1816948e-05
-0.00038216359
-0.0014273633
-0.00038292969
-0.001251839
-3.4079311e-05
9.5395665e-06
-4.0217921e-06
-2.8885651e-05
3.9822236e-05
-1.6383592e-05
-0.00013115989
8.1667777e-05
-3.7132554e-05
-0.00032727129
0.00010611413
-6.7019953e-05
-0.00063195054
9.2871201e-05
-0.00010437977
-0.0010018004
5.3811504e-05
-0.00014466026
-0.0013229469
1.0609654e-05
-0.0001805747
-0.0014759836
-1.7647868e-05
-0.00020255331
-0.0014322386
-0.00020252452
-0.0012552618
-2.8880428e-05
9.6337618e-06
2.3632581e-11
-2.8963759e-05
4.0364399e-05
8.3343602e-11
-0.00013158976
8.2980569e-05
1.5532666e-10
-0.00032845637
0.00010800065
2.2139743e-10
-0.0006342802
9.4793647e-05
2.6043177e-10
-0.0010052299
5.5658224e-05
1.5249436e-10
-0.0013267077
1.2372351e-05
-4.7757104e-11
-0.001479096
-1.5266584e-05
-3.2871041e-11
-0.00143436
2.4968479e-10
-0.0012566991
-2.5529689e-05
9.63375e-06
4.0218326e-06
-2.8963755e-05
4.0364364e-05
1.6383745e-05
-0.00013158974
8.298056e-05
3.7132864e-05
-0.00032845634
0.00010800058
6.70204e-05
-0.00063428014
9.47935e-05
0.00010438025
-0.0010052298
5.565803e-05
0.00014466051
-0.0013267076
1.237226e-05
0.00018057469
-0.0014790959
-1.526655e-05
0.00020255339
-0.00143436
0.00020252506
-0.0012566991
-2.5529506e-05
9.5395732e-06
7.4299967e-06
-2.8885652e-05
3.982221e-05
3.0388584e-05
-0.00013115989
8.1667751e-05
6.9129111e-05
-0.00032727131
0.00010611391
0.00012521542
-0.00063195056
9.2870819e-05
0.00019566099
-0.0010018005
5.3811079e-05
0.00027192872
-0.0013229468
1.0609423e-05
0.00034007555
-0.0014759836
-1.7647844e-05
0.00038216392
-0.0014322386
0.00038293036
-0.0012552618
-2.8880116e-05
9.1994763e-06
9.8746985e-06
-2.8594598e-05
3.8242256e-05
4.0528363e-05
-0.00012986038
7.8198575e-05
9.2560613e-05
-0.00032414122
0.0001012951
0.00016843483
-0.00062634322
8.7979975e-05
0.00026445614
-0.0009940065
4.9340537e-05
0.00036911652
-0.001314614
6.86636e-06
0.00046313967
-0.0014690532
-2.1816969e-05
0.00052208058
-0.0014273632
0.00052508655
-0.0012518391
-3.4079276e-05
8.6881882e-06
1.1152034e-05
-2.8198312e-05
3.5921501e-05
4.5992049e-05
-0.00012796649
7.3205927e-05
0.0001056459
-0.00031932764
9.4565329e-05
0.00019356817
-0.00061730459
8.1519925e-05
0.0003060991
-0.00098087654
4.3983458e-05
0.00042996483
-0.0012998546
3.0814755e-06
0.00054241226
-0.0014559334
-2.5512313e-05
0.00061432301
-0.0014173218
0.00062121237
-0.0012442605
-3.8493877e-05
8.0051018e-06
1.1250353e-05
-2.7580676e-05
3.2934755e-05
4.6723966e-05
-0.00012508571
6.6989658e-05
0.00010823298
-0.00031211159
8.6547805e-05
0.00020031301
-0.00060383001
7.4496483e-05
0.00032013446
-0.00096120677
3.9290018e-05
0.00045393168
-0.001277325
1.1031535e-06
0.00057721296
-0.0014351915
-2.6269001e-05
0.00065809125
-0.0014006729
0.00067029771
-0.0012311291
-3.8951942e-05
7.1352927e-06
1.0353623e-05
-2.6680922e-05
2.9266406e-05
4.3401539e-05
-0.0001209626
5.9559748e-05
0.00010168183
-0.00030190524
7.7260265e-05
0.00019080255
-0.0005848717
6.6956524e-05
0.00030946413
-0.0009334307
3.5604128e-05
0.00044468071
-0.0012449964
1.4639946e-06
0.00057161621
-0.0014045443
-2.2915814e-05
0.00065760496
-0.0013751222
0.00067602975
-0.0012102799
-3.3561126e-05
6.1181708e-06
8.7441648e-06
-2.5462198e-05
2.5074078e-05
3.7107247e-05
-0.00011543522
5.1211945e-05
8.8238443e-05
-0.00028829854
6.7033974e-05
0.00016864577
-0.00055958523
5.9120158e-05
0.00027904455
-0.00089606872
3.2965885e-05
0.00040831828
-0.0012006951
4.4781624e-06
0.00053261022
-0.0013613163
-1.484083e-05
0.00062003052
-0.0013378197
0.00064483125
-0.0011789289
-2.1293565e-05
4.9743798e-06
6.7777637e-06
-2.3942221e-05
2.0441089e-05
2.9183394e-05
-0.00010851729
4.2036337e-05
7.0703436e-05
-0.00027117044
5.5770146e-05
0.00013839138
-0.00052743523
5.0561575e-05
0.00023505147
-0.00084781745
3.0671958e-05
0.00035223716
-0.0011421354
9.5105562e-06
0.00046847531
-0.0013023885
-2.6334433e-06
0.00055398504
-0.001285258
0.00058438578
-0.0011335576
-2.4722458e-06
3.9173778e-06
4.6514238e-06
-2.2099268e-05
1.6172887e-05
2.0505536e-05
-0.00010015416
3.3626304e-05
5.1107797e-05
-0.00025045614
4.5576654e-05
0.00010362635
-0.00048833663
4.3359043e-05
0.00018293119
-0.00078840261
3.0479431e-05
0.00028396373
-0.0010684804
1.7723787e-05
0.00038819049
-0.0012260226
1.4053256e-05
0.0004691171
-0.0012148575
0.00050363738
-0.0010710377
2.2375284e-05
2.8601435e-06
2.6714538e-06
-1.9890328e-05
1.1913311e-05
1.2260557e-05
-9.0196358e-05
2.5126776e-05
3.202247e-05
-0.00022585168
3.495483e-05
6.8718481e-05
-0.00044172691
3.5201664e-05
0.00012880474
-0.00071674489
2.8932606e-05
0.00021087395
-0.00097769403
2.5363325e-05
0.00030047475
-0.00112897
3.1601862e-05
0.000374428
-0.0011224453
0.00041122285
-0.00098695968
4.9551476e-05
1.9133733e-06
1.029465e-06
-1.7429409e-05
8.0669144e-06
5.26544e-06
-7.9044861e-05
1.7286882e-05
1.5415139e-05
-0.0001980787
2.4709997e-05
3.7382186e-05
-0.00038840362
2.6552924e-05
7.8444094e-05
-0.00063304779
2.5970606e-05
0.00014054313
-0.0008684499
3.0971562e-05
0.0002138725
-0.0010077755
4.697056e-05
0.000279278
-0.0010029
0.00031612508
-0.0008757544
7.4564453e-05
1.166971e-06
-1.4706971e-05
-1.9435703e-07
4.8870454e-06
-6.6714663e-05
2.4772446e-08
1.0456011e-05
-0.00016725661
2.6838607e-06
1.5111167e-05
-0.00032854079
1.240034e-05
1.7314995e-05
-0.00053703133
3.6405436e-05
2.0669861e-05
-0.00073891862
7.9293143e-05
3.2419571e-05
-0.00085806942
0.00013561316
5.7193454e-05
-0.00084971101
0.00019065817
-0.00073084045
0.00022860456
9.05512e-05
-2.7095999e-07
1.6602572e-06
-1.451557e-05
-1.5806954e-06
-1.6059921e-06
7.2222489e-06
-6.5684647e-05
-6.9172356e-06
-4.6627102e-06
1.7227576e-05
-0.00016483032
-1.659715e-05
-9.2793103e-06
3.1493881e-05
-0.00032475369
-3.0664392e-05
-1.414481e-05
4.6488386e-05
-0.00053244044
-4.6213797e-05
-1.7392517e-05
5.5849066e-05
-0.00073397022
-5.7549812e-05
-1.7932172e-05
5.4663769e-05
-0.00085257301
-5.9620571e-05
-1.6319522e-05
4.392266e-05
-0.00084328073
-5.1965711e-05
2.9252654e-05
-0.00072382542
-3.7947252e-05
-1.4639994e-05
-2.813902e-07
1.6712679e-06
-1.7159035e-05
-1.6903532e-06
7.2207376e-06
-7.7634407e-05
-4.738169e-06
1.704276e-05
-0.00019484607
-8.7267402e-06
3.0641969e-05
-0.00038356318
-1.1826321e-05
4.4121317e-05
-0.00062758128
-1.221283e-05
5.096931e-05
-0.00086318385
-9.4868227e-06
4.6687965e-05
-0.001002526
-4.9727318e-06
3.3369058e-05
-0.00099686075
1.8002765e-05
-0.0008686337
-8.4356054e-07
-2.5393381e-07
1.5931232e-06
-1.9558267e-05
-1.6044483e-06
6.8426508e-06
-8.8467802e-05
-4.4915333e-06
1.6019846e-05
-0.00022194175
-7.9111348e-06
2.8381597e-05
-0.00043604709
-9.652231e-06
3.9827868e-05
-0.0007107106
-7.8538501e-06
4.3975052e-05
-0.00097249852
-2.7171054e-06
3.69875e-05
-0.0011244067
3.5568983e-06
2.1932662e-05
-0.0011172831
6.6990278e-06
-0.00098031944
8.2203116e-06
-2.1379783e-07
1.4340026e-06
-2.1726356e-05
-1.4645727e-06
6.1332847e-06
-9.8194031e-05
-4.1022758e-06
1.4269146e-05
-0.00024606778
-6.8399322e-06
2.4944529e-05
-0.000482162
-7.2330382e-06
3.4091577e-05
-0.00078227339
-3.5923616e-06
3.5729936e-05
-0.0010638762
3.266704e-06
2.6715405e-05
-0.0012226098
1.0323356e-05
1.0957847e-05
-0.0012109394
-3.3168883e-06
-0.0010652081
1.4509669e-05
-1.5630082e-07
1.2069339e-06
-2.3558856e-05
-1.2567261e-06
5.163237e-06
-0.00010644685
-3.5818275e-06
1.1989574e-05
-0.00026656581
-5.6261489e-06
2.0744554e-05
-0.00052119098
-4.8027092e-06
2.7594244e-05
-0.00084214364
3.9358522e-07
2.7109655e-05
-0.0011387115
8.4820374e-06
1.6891155e-05
-0.0013006527
1.5776375e-05
1.3547551e-06
-0.0012829492
-1.1416381e-05
-0.0011288102
1.9128627e-05
-1.0774668e-07
9.5476033e-07
-2.5102268e-05
-1.0813473e-06
4.0915204e-06
-0.0001133899
-3.1307964e-06
9.5044553e-06
-0.00028376388
-4.5470723e-06
1.6292002e-05
-0.00055371634
-2.6097149e-06
2.0991882e-05
-0.00089140354
3.9312797e-06
1.8893241e-05
-0.0011990195
1.29773e-05
8.2777176e-06
-0.0013617486
2.0245983e-05
-6.2627928e-06
-0.0013374707
-1.7184328e-05
-0.001175532
2.2617168e-05
-5.3118725e-08
6.9929598e-07
-2.6372344e-05
-8.8092244e-07
3.0153359e-06
-0.00011905858
-2.6313137e-06
7.0378172e-06
-0.0002976882
-3.4241801e-06
1.1967945e-05
-0.00057975474
-5.0739086e-07
1.4863614e-05
-0.00093021916
7.1439533e-06
1.174956e-05
-0.001245504
1.6865068e-05
1.5149028e-06
-0.0014075024
2.3924897e-05
-1.1407719e-05
-0.001377037
-2.0357428e-05
-0.0012084847
2.530285e-05
-2.2160594e-09
4.6794326e-07
-2.7347146e-05
-6.9426673e-07
2.0423367e-06
-0.00012342055
-2.1731225e-06
4.8180762e-06
-0.00030841298
-2.4303512e-06
8.1447915e-06
-0.00059974958
1.3443426e-06
9.6373575e-06
-0.00095975514
9.9141062e-06
6.1402722e-06
-0.0012802854
2.0129475e-05
-3.0095601e-06
-0.0014408823
2.693877e-05
-1.3842716e-05
-0.0014050471
-2.0829816e-05
-0.0012311402
2.7422348e-05
4.2050198e-08
2.807654e-07
-2.8053213e-05
-5.3323779e-07
1.2499857e-06
-0.00012659878
-1.7784479e-06
3.0011668e-06
-0.0003162655
-1.5777083e-06
5.0488017e-06
-0.00061440932
2.8869527e-06
5.6025983e-06
-0.00098130643
1.2182656e-05
2.319228e-06
-0.0013053293
2.2769661e-05
-5.1475678e-06
-0.0014643823
2.9369595e-05
-1.3556482e-05
-0.0014242079
-1.866237e-05
-0.0012462035
2.9145285e-05
7.6448264e-08
1.4664397e-07
-2.8536935e-05
-4.094853e-07
6.7075731e-07
-0.00012879517
-1.4743662e-06
1.6480831e-06
-0.00032172323
-9.1812907e-07
2.7579638e-06
-0.00062460858
4.0830492e-06
2.8108987e-06
-0.00099621595
1.3933313e-05
2.6261099e-07
-0.0013224078
2.4804912e-05
-5.0266444e-06
-0.0014800458
3.1281654e-05
-1.0777733e-05
-0.0014366187
-1.4097478e-05
-0.0012556696
3.0547423e-05
9.7469332e-08
5.8412072e-08
-2.8894898e-05
-3.3336139e-07
2.7597696e-07
-0.0001303342
-1.2778074e-06
6.9505345e-07
-0.00032537375
-4.7235867e-07
1.1564949e-06
-0.00063115437
4.90438e-06
1.0704534e-06
-0.0010054366
1.5132738e-05
-3.2421929e-07
-0.0013325882
2.6208651e-05
-3.0683801e-06
-0.0014890177
3.2640219e-05
-5.9915774e-06
-0.0014434562
-7.6162878e-06
-0.0012606684
3.1565691e-05
1.0831818e-07
-7.8706922e-12
-2.9013656e-05
-2.9529636e-07
-3.0461179e-11
-0.00013091004
-1.1817178e-06
-8.5039046e-11
-0.00032687472
-2.577992e-07
-1.7043373e-10
-0.00063404729
5.2977907e-06
-2.6807337e-10
-0.0010097146
1.5714843e-05
-3.8325312e-10
-0.0013374484
2.6911521e-05
-4.0781738e-10
-0.0014933606
3.333829e-05
-1.1316217e-10
-0.0014467782
4.0174253e-10
-0.0012630836
3.2106181e-05
1.0832532e-07
-5.8434143e-08
-2.9013652e-05
-2.9529545e-07
-2.7605536e-07
-0.00013091002
-1.1817095e-06
-6.9524599e-07
-0.00032687468
-2.5781004e-07
-1.1568561e-06
-0.00063404722
5.2977606e-06
-1.0710115e-06
-0.0010097145
1.5714819e-05
3.2343019e-07
-0.0013374483
2.691155e-05
3.0675863e-06
-0.0014933604
3.3338346e-05
5.9913825e-06
-0.0014467781
7.6170967e-06
-0.0012630836
3.2106255e-05
9.7485469e-08
-1.4667076e-07
-2.8894898e-05
-3.333583e-07
-6.7084909e-07
-0.0001303342
-1.2778084e-06
-1.6482975e-06
-0.00032537376
-4.7242288e-07
-2.7583608e-06
-0.00063115437
4.9042735e-06
-2.8115101e-06
-0.0010054366
1.5132673e-05
-2.6346137e-07
-0.0013325882
2.6208707e-05
5.0258485e-06
-0.0014890177
3.2640353e-05
1.0777578e-05
-0.0014434562
1.4098304e-05
-0.0012606684
3.1565869e-05
7.6459442e-08
-2.8079287e-07
-2.853693e-05
-4.0950654e-07
-1.250079e-06
-0.00012879514
-1.4744111e-06
-3.0013981e-06
-0.00032172317
-9.1823113e-07
-5.0492529e-06
-0.00062460845
4.0829378e-06
-5.6032949e-06
-0.00099621577
1.3933308e-05
-2.3201795e-06
-0.0013224075
2.480503e-05
5.1466751e-06
-0.0014800456
3.1281873e-05
1.3556289e-05
-0.0014366186
1.8663151e-05
-0.0012556696
3.0547691e-05
4.2082048e-08
-4.6796859e-07
-2.805321e-05
-5.332801e-07
-2.0424208e-06
-0.00012659877
-1.7785086e-06
-4.8183171e-06
-0.00031626547
-1.5777854e-06
-8.1452927e-06
-0.00061440924
2.8868983e-06
-9.638151e-06
-0.00098130633
1.2182715e-05
-6.1413465e-06
-0.0013053292
2.2769839e-05
3.0085034e-06
-0.0014643822
2.9369901e-05
1.3842392e-05
-0.0014242079
2.0830439e-05
-0.0012462035
2.9145735e-05
-2.1607244e-09
-6.9932987e-07
-2.7347146e-05
-6.9431348e-07
-3.0154388e-06
-0.00012342055
-2.1731649e-06
-7.038092e-06
-0.00030841299
-2.4304073e-06
-1.1968535e-05
-0.00059974956
1.3443188e-06
-1.4864556e-05
-0.00095975512
9.9141744e-06
-1.1750817e-05
-0.0012802854
2.0129673e-05
-1.5161498e-06
-0.0014408823
2.6939143e-05
1.1407198e-05
-0.0014050471
2.0357816e-05
-0.0012311403
2.742303e-05
-5.3102067e-08
-9.5480171e-07
-2.6372348e-05
-8.8095352e-07
-4.091635e-06
-0.00011905859
-2.63136e-06
-9.5047547e-06
-0.00029768823
-3.4242436e-06
-1.6292647e-05
-0.00057975477
-5.0740262e-07
-2.0992911e-05
-0.00093021921
7.1439914e-06
-1.8894647e-05
-0.001245504
1.6865223e-05
-8.2791635e-06
-0.0014075025
2.3925308e-05
6.2620106e-06
-0.0013770371
1.7184484e-05
-0.0012084848
2.5303554e-05
-1.0776237e-07
-1.2069694e-06
-2.5102277e-05
-1.081386e-06
-5.1633437e-06
-0.00011338993
-3.1308975e-06
-1.1989869e-05
-0.00028376396
-4.5471768e-06
-2.0745181e-05
-0.00055371647
-2.6098168e-06
-2.7595306e-05
-0.00089140373
3.9312006e-06
-2.7111164e-05
-0.0011990197
1.2977334e-05
-1.6892843e-05
-0.0013617487
2.0246365e-05
-1.3558796e-06
-0.0013374708
1.1416457e-05
-0.0011755321
2.2617641e-05
-1.5630036e-07
-1.4340396e-06
-2.3558857e-05
-1.2567165e-06
-6.1333951e-06
-0.00010644685
-3.5818439e-06
-1.42694e-05
-0.00026656582
-5.6262768e-06
-2.4945063e-05
-0.00052119098
-4.8029488e-06
-3.4092566e-05
-0.00084214363
3.9330848e-07
-3.5731443e-05
-0.0011387114
8.4818852e-06
-2.6717265e-05
-0.0013006526
1.5776622e-05
-1.0959378e-05
-0.0012829492
3.3169255e-06
-0.0011288102
1.9128863e-05
-2.1380797e-07
-1.5931474e-06
-2.1726353e-05
-1.4646284e-06
-6.8427336e-06
-9.8194016e-05
-4.1024338e-06
-1.6020044e-05
-0.00024606774
-6.8402732e-06
-2.8382034e-05
-0.00048216193
-7.2335521e-06
-3.9828724e-05
-0.00078227326
-3.5929487e-06
-4.3976413e-05
-0.001063876
3.2661348e-06
-3.6989374e-05
-0.0012226096
1.032312e-05
-2.1934577e-05
-0.0012109393
-6.699245e-06
-0.0010652081
1.4509699e-05
-2.5393972e-07
-1.6712768e-06
-1.9558262e-05
-1.604504e-06
-7.2207738e-06
-8.8467779e-05
-4.4917507e-06
-1.704286e-05
-0.00022194169
-7.9115734e-06
-3.0642231e-05
-0.00043604698
-9.6529243e-06
-4.4121877e-05
-0.00071071042
-7.8548698e-06
-5.097031e-05
-0.00097249828
-2.7183451e-06
-4.6689598e-05
-0.0011244064
3.5558776e-06
-3.3371225e-05
-0.0011172829
-1.8003487e-05
-0.00098031943
8.2198852e-06
-2.813996e-07
-1.6602584e-06
-1.7159034e-05
-1.6903985e-06
-7.2222592e-06
-7.7634404e-05
-4.7383077e-06
-1.7227618e-05
-0.00019484606
-8.7270546e-06
-3.1493969e-05
-0.00038356315
-1.1826988e-05
-4.6488577e-05
-0.00062758122
-1.2213916e-05
-5.5849619e-05
-0.00086318377
-9.4881776e-06
-5.4665011e-05
-0.0010025259
-4.9742047e-06
-4.3924514e-05
-0.00099686069
-2.9253724e-05
-0.00086863372
-8.447417e-07
-2.7096711e-07
-1.4515573e-05
-1.5806937e-06
-1.6060132e-06
-6.5684657e-05
-6.9172373e-06
-4.6627491e-06
-0.00016483035
-1.6597164e-05
-9.2793844e-06
-0.00032475372
-3.0664451e-05
-1.4144866e-05
-0.00053244048
-4.6214064e-05
-1.7392272e-05
-0.00073397026
-5.7550557e-05
-1.7931752e-05
-0.00085257306
-5.9621972e-05
-1.6319722e-05
-0.00084328076
-5.1966811e-05
-0.00072382546
-3.7947238e-05
-1.4641147e-05
-1.1711345e-07
-1.7853283e-07
-1.4370221e-05
1.5029659e-07
-4.611205e-07
-8.8091898e-07
-6.5212859e-05
7.5312913e-07
-1.1841651e-06
-2.5246331e-06
-0.00016373016
2.1474954e-06
-2.6205149e-06
-6.0676106e-06
-0.00032232099
5.0712333e-06
-4.664833e-06
-1.2920867e-05
-0.0005280623
1.0587006e-05
-5.9747122e-06
-2.4289189e-05
-0.00072795961
1.9588418e-05
-4.0879987e-06
-3.9761853e-05
-0.00084643692
3.1739035e-05
2.9456211e-06
-5.6171571e-05
-0.00083880208
4.465927e-05
-6.8365521e-05
-0.00072158504
5.491746e-05
1.4153261e-05
-1.4719601e-07
-2.1825986e-07
-1.6972116e-05
-5.523066e-07
-1.0666881e-06
-7.7043541e-05
-1.3860738e-06
-3.0386002e-06
-0.00019349835
-3.0973272e-06
-7.2977563e-06
-0.0003806218
-5.6643483e-06
-1.5594853e-05
-0.0006223403
-7.7046058e-06
-2.9421176e-05
-0.00085601164
-6.636651e-06
-4.8181622e-05