/*--------------------------------*- C++ -*----------------------------------*\
| =========                 |                                                 |
| \\      /  F ield         | OpenFOAM: The Open Source CFD Toolbox           |
|  \\    /   O peration     | Version:  2406                                  |
|   \\  /    A nd           | Website:  www.openfoam.com                      |
|    \\/     M anipulation  |                                                 |
\*---------------------------------------------------------------------------*/
FoamFile
{
    version     2.0;
    format      ascii;
    arch        "LSB;label=32;scalar=64";
    class       volVectorField;
    location    "12.25";
    object      U;
}
// * * * * * * * * * * * * * * * * * * * * * * * * * * * * * * * * * * * * * //

dimensions      [0 1 -1 0 0 0 0];

internalField   nonuniform List<vector> 
34560
(
(-0.077316064 0.014342489 0.030680122)
(-0.26969825 0.046922137 0.10005981)
(-0.53599812 0.089537558 0.18129177)
(-0.87070652 0.13846959 0.26314655)
(-1.2367816 0.18860509 0.32786513)
(-1.5743708 0.23799473 0.36207539)
(-1.8311884 0.28897645 0.36550593)
(-1.9885069 0.34173016 0.34838589)
(-2.0565526 0.3902591 0.32428564)
(-0.078535017 0.017070438 0.034229357)
(-0.27921665 0.055375554 0.11121411)
(-0.56200966 0.10410097 0.19940345)
(-0.91739678 0.15756751 0.28469432)
(-1.297294 0.20959401 0.34723234)
(-1.6315318 0.25918916 0.37513247)
(-1.8676945 0.3102581 0.37144886)
(-1.9971874 0.36305838 0.34917537)
(-2.0405996 0.41108417 0.32048431)
(-0.07642017 0.017772807 0.035499335)
(-0.27948052 0.05844947 0.11601844)
(-0.573601 0.1105204 0.20786507)
(-0.94519873 0.16673814 0.29519944)
(-1.3339122 0.21976048 0.35643156)
(-1.6598176 0.26923363 0.38031499)
(-1.8733737 0.3198819 0.37232459)
(-1.9756693 0.3735413 0.34647041)
(-1.9967394 0.42071191 0.31577248)
(-0.071356647 0.018257656 0.036596563)
(-0.27118851 0.060392337 0.11981558)
(-0.57125455 0.11409656 0.21394208)
(-0.95447575 0.17086253 0.3017544)
(-1.3480561 0.22294166 0.36094509)
(-1.6627484 0.27115131 0.38176637)
(-1.8535164 0.3214741 0.37106397)
(-1.9283617 0.37348369 0.34388092)
(-1.928608 0.41935876 0.3134464)
(-0.063144618 0.01767109 0.037022319)
(-0.25362756 0.059284132 0.12161434)
(-0.55383739 0.11271657 0.21677994)
(-0.9439346 0.1685881 0.30460132)
(-1.339864 0.21885259 0.36240167)
(-1.643308 0.26469151 0.38139496)
(-1.8090472 0.31295675 0.36955759)
(-1.8575626 0.36277181 0.34292938)
(-1.8379376 0.40711773 0.31398439)
(-0.052378698 0.016341389 0.036914869)
(-0.22817181 0.055778127 0.12171238)
(-0.52330843 0.10697686 0.2171057)
(-0.91637957 0.16006323 0.30483907)
(-1.3114625 0.20699848 0.36193563)
(-1.6005696 0.2496761 0.3805617)
(-1.7414625 0.29496147 0.36937407)
(-1.7647126 0.34199677 0.34455825)
(-1.7260865 0.38415353 0.31788436)
(-0.03965929 0.014479957 0.036715488)
(-0.1960768 0.050270127 0.1213007)
(-0.48067899 0.097294224 0.21642951)
(-0.87154945 0.14579233 0.3040167)
(-1.2622596 0.18818165 0.36121296)
(-1.5359224 0.22667526 0.38086837)
(-1.6526585 0.26777106 0.37177114)
(-1.6515773 0.31131687 0.3494946)
(-1.5950622 0.35043557 0.32541093)
(-0.025595562 0.012041897 0.036421879)
(-0.1589766 0.042716845 0.12054389)
(-0.42832636 0.083751463 0.21533343)
(-0.812366 0.12608284 0.30318588)
(-1.1955752 0.162884 0.36143605)
(-1.4528624 0.19655529 0.38317083)
(-1.5466406 0.23178268 0.3775389)
(-1.5221537 0.27102329 0.35811566)
(-1.4490384 0.30609671 0.3365372)
(-0.011314413 0.0092583932 0.036158523)
(-0.1200458 0.033696597 0.11983246)
(-0.37108179 0.067146274 0.21445313)
(-0.74467991 0.10183957 0.30307223)
(-1.1178396 0.13204724 0.36315919)
(-1.3579272 0.16024258 0.38762907)
(-1.4314098 0.18807021 0.38642083)
(-1.3843268 0.22168007 0.37002271)
(-1.2961599 0.25149878 0.35053724)
(0.0016566123 0.0064131156 0.035983501)
(-0.083815934 0.024002524 0.11936135)
(-0.31618675 0.048665307 0.21407965)
(-0.67762623 0.074441725 0.30385909)
(-1.0394839 0.096971015 0.36621031)
(-1.262967 0.11829164 0.39388803)
(-1.3188146 0.13873618 0.39675431)
(-1.2515463 0.16460721 0.38360821)
(-1.1503898 0.18767278 0.36562453)
(0.011534837 0.0037631895 0.035937371)
(-0.055682848 0.014366644 0.11922914)
(-0.27247771 0.029464115 0.21422433)
(-0.62266726 0.045309084 0.30519493)
(-0.97404186 0.059211582 0.3696367)
(-1.1837434 0.072504346 0.40025784)
(-1.2251227 0.085191938 0.40634279)
(-1.1420213 0.10150433 0.39602648)
(-1.0309074 0.11622675 0.37897821)
(0.017132367 0.0012603751 0.035943004)
(-0.039537253 0.0048320811 0.11926338)
(-0.24699607 0.0099376533 0.21447256)
(-0.59015251 0.015269099 0.30619256)
(-0.93507051 0.019946809 0.37192832)
(-1.1367141 0.024469708 0.40438957)
(-1.1694895 0.028825807 0.41237757)
(-1.077401 0.034476662 0.40374579)
(-0.96072415 0.039612373 0.38714148)
(0.017132362 -0.001260459 0.035942986)
(-0.039537273 -0.0048323075 0.11926335)
(-0.24699612 -0.0099380412 0.21447254)
(-0.59015257 -0.015269638 0.30619255)
(-0.93507059 -0.019947493 0.37192835)
(-1.1367141 -0.024470461 0.40438962)
(-1.1694895 -0.028826536 0.41237758)
(-1.0774009 -0.034477041 0.40374571)
(-0.96072418 -0.039612249 0.38714137)
(0.011534812 -0.0037632655 0.035937355)
(-0.055682935 -0.014366874 0.11922913)
(-0.27247787 -0.029464544 0.21422438)
(-0.62266747 -0.045309719 0.30519501)
(-0.97404211 -0.059212411 0.36963687)
(-1.1837436 -0.072505251 0.40025796)
(-1.2251227 -0.085192713 0.4063428)
(-1.1420213 -0.1015047 0.39602627)
(-1.0309075 -0.11622664 0.37897792)
(0.0016565679 -0.0064131854 0.035983534)
(-0.083816091 -0.024002783 0.11936141)
(-0.31618704 -0.048665788 0.21407985)
(-0.67762659 -0.074442435 0.30385932)
(-1.0394844 -0.096971918 0.3662106)
(-1.2629675 -0.11829262 0.39388818)
(-1.318815 -0.13873699 0.39675428)
(-1.2515465 -0.16460762 0.38360797)
(-1.15039 -0.18767274 0.36562419)
(-0.011314466 -0.0092584583 0.036158556)
(-0.12004599 -0.033696862 0.11983256)
(-0.37108213 -0.067146743 0.2144534)
(-0.74468034 -0.10184024 0.30307256)
(-1.1178403 -0.13204807 0.36315955)
(-1.3579279 -0.16024349 0.38762925)
(-1.4314107 -0.18807102 0.38642085)
(-1.3843274 -0.22168057 0.37002258)
(-1.2961601 -0.25149879 0.35053695)
(-0.0255956 -0.012041971 0.036421872)
(-0.15897673 -0.042717057 0.12054404)
(-0.42832661 -0.083751845 0.21533368)
(-0.81236633 -0.12608338 0.30318619)
(-1.1955759 -0.16288469 0.36143638)
(-1.4528632 -0.19655606 0.38317104)
(-1.5466416 -0.23178347 0.37753907)
(-1.5221546 -0.27102387 0.35811571)
(-1.4490387 -0.30609669 0.33653699)
(-0.03965932 -0.014480038 0.036715518)
(-0.1960769 -0.050270319 0.12130085)
(-0.4806792 -0.09729454 0.21642974)
(-0.87154976 -0.14579276 0.30401699)
(-1.2622602 -0.18818222 0.3612133)
(-1.535923 -0.2266759 0.3808687)
(-1.6526594 -0.26777178 0.3717715)
(-1.6515782 -0.31131742 0.34949478)
(-1.5950626 -0.35043551 0.32541082)
(-0.052378726 -0.016341456 0.036914894)
(-0.22817191 -0.055778292 0.12171242)
(-0.52330862 -0.10697714 0.21710579)
(-0.91637986 -0.16006363 0.30483927)
(-1.311463 -0.20699899 0.36193597)
(-1.60057 -0.24967668 0.38056214)
(-1.7414631 -0.29496205 0.36937454)
(-1.7647134 -0.34199721 0.34455848)
(-1.7260871 -0.38415356 0.31788441)
(-0.063144625 -0.017671127 0.037022317)
(-0.25362759 -0.059284228 0.12161432)
(-0.55383745 -0.11271676 0.21677996)
(-0.94393476 -0.16858838 0.30460147)
(-1.3398642 -0.21885298 0.36240202)
(-1.6433082 -0.26469197 0.38139542)
(-1.8090476 -0.31295716 0.36955807)
(-1.8575633 -0.3627721 0.34292974)
(-1.8379382 -0.4071179 0.31398463)
(-0.071356675 -0.018257665 0.036596568)
(-0.2711886 -0.060392433 0.11981551)
(-0.57125476 -0.11409671 0.21394211)
(-0.95447612 -0.17086276 0.30175461)
(-1.3480564 -0.22294198 0.36094547)
(-1.6627486 -0.27115168 0.38176681)
(-1.8535167 -0.32147438 0.37106445)
(-1.9283622 -0.37348378 0.34388143)
(-1.9286087 -0.41935877 0.31344657)
(-0.076420184 -0.017772786 0.035499321)
(-0.27948057 -0.058449485 0.11601837)
(-0.57360109 -0.11052045 0.20786505)
(-0.94519887 -0.16673828 0.29519954)
(-1.3339123 -0.21976069 0.35643183)
(-1.6598177 -0.26923388 0.38031533)
(-1.8733737 -0.31988205 0.37232491)
(-1.9756692 -0.37354117 0.34647067)
(-1.9967401 -0.42071177 0.31577265)
(-0.078535016 -0.017070415 0.034229328)
(-0.27921664 -0.055375525 0.11121407)
(-0.56200964 -0.10410101 0.19940339)
(-0.91739673 -0.15756765 0.28469431)
(-1.297294 -0.20959418 0.34723243)
(-1.6315317 -0.25918925 0.37513256)
(-1.8676944 -0.31025818 0.37144902)
(-1.9971872 -0.36305823 0.34917562)
(-2.0405998 -0.41108379 0.32048436)
(-0.077316077 -0.014342487 0.030680109)
(-0.26969829 -0.046922174 0.10005979)
(-0.53599819 -0.089537677 0.18129177)
(-0.8707066 -0.13846982 0.26314654)
(-1.2367817 -0.18860538 0.32786506)
(-1.574371 -0.23799498 0.36207549)
(-1.8311885 -0.28897662 0.36550617)
(-1.9885069 -0.34173037 0.34838589)
(-2.0565528 -0.39025923 0.32428602)
(-0.093035457 -0.0001489507 -0.00024386515)
(-0.30664164 -0.00077862018 -0.0012212747)
(-0.57876927 -0.0021068028 -0.003263152)
(-0.89716025 -0.0050844412 -0.0065766464)
(-1.2298715 -0.010915548 -0.010872733)
(-1.5311552 -0.020085985 -0.015272626)
(-1.7589671 -0.031866099 -0.018915976)
(-1.897562 -0.044866261 -0.021444304)
(-1.9551782 -0.05731591 -0.022855309)
(-0.10143442 -0.0010924815 -0.0010546733)
(-0.33297154 -0.0036193737 -0.0037064234)
(-0.6250327 -0.0070009132 -0.0076731559)
(-0.96055187 -0.012138068 -0.012791451)
(-1.3007512 -0.020155459 -0.018157718)
(-1.5947636 -0.031307733 -0.022467882)
(-1.8016396 -0.044609331 -0.025009555)
(-1.9137305 -0.058571443 -0.026013132)
(-1.9514603 -0.071409812 -0.026357717)
(-0.10839308 -0.0021964265 -0.0017841296)
(-0.35484771 -0.0068838946 -0.0059605141)
(-0.66333417 -0.012489805 -0.011667086)
(-1.0121651 -0.019761962 -0.018279613)
(-1.3562912 -0.029675919 -0.024251502)
(-1.6407201 -0.042303859 -0.028003877)
(-1.8267426 -0.056577869 -0.029154335)
(-1.9155144 -0.070948818 -0.028498136)
(-1.9383701 -0.083736001 -0.027472958)
(-0.11448418 -0.0034631212 -0.0024262423)
(-0.37382698 -0.010545694 -0.0079388372)
(-0.69618405 -0.01848192 -0.015165557)
(-1.0556196 -0.027789491 -0.022982129)
(-1.4016591 -0.039274087 -0.029193915)
(-1.6762097 -0.05292485 -0.03207046)
(-1.8433389 -0.067729276 -0.031689339)
(-1.9123609 -0.082139434 -0.029423114)
(-1.9231607 -0.094492435 -0.027134763)
(-0.11930257 -0.0047144464 -0.0028757536)
(-0.38899109 -0.014122706 -0.0093471087)
(-0.72257671 -0.024237453 -0.017711232)
(-1.0904542 -0.035308323 -0.026364688)
(-1.4375073 -0.047982739 -0.032500964)
(-1.7031636 -0.062242328 -0.03430332)
(-1.8542116 -0.07717463 -0.032412003)
(-1.9070706 -0.091234955 -0.028726835)
(-1.9080275 -0.10276031 -0.025429097)
(-0.12308315 -0.0058324046 -0.0030570266)
(-0.40095077 -0.017270737 -0.0099664789)
(-0.74343204 -0.029186767 -0.018982293)
(-1.1178448 -0.041549864 -0.028068638)
(-1.4652393 -0.054874311 -0.03384611)
(-1.7231762 -0.069202258 -0.034487929)
(-1.8609304 -0.083745138 -0.03120433)
(-1.9008582 -0.097044357 -0.026370623)
(-1.8938502 -0.10739719 -0.022361345)
(-0.12611155 -0.0066462013 -0.0029875133)
(-0.41044529 -0.019499322 -0.0098349522)
(-0.75983356 -0.032560665 -0.01900438)
(-1.1390849 -0.045551219 -0.028115204)
(-1.4862365 -0.058876306 -0.033296794)
(-1.7375433 -0.072665192 -0.03274809)
(-1.8645311 -0.086273765 -0.028244794)
(-1.8942937 -0.098411756 -0.022518386)
(-1.8809842 -0.10734022 -0.018094189)
(-0.12823603 -0.0069384226 -0.0026641295)
(-0.41720214 -0.020222518 -0.0089570447)
(-0.77162615 -0.033476314 -0.017809344)
(-1.1543831 -0.0462419 -0.026600241)
(-1.5011404 -0.058833324 -0.031047972)
(-1.7471438 -0.0714518 -0.029380504)
(-1.8657834 -0.083630827 -0.02384658)
(-1.8877939 -0.09422045 -0.01750748)
(-1.8696076 -0.101583 -0.012934244)
(-0.12957175 -0.0065530836 -0.0021537485)
(-0.42157025 -0.019011862 -0.0075258673)
(-0.77942191 -0.031281808 -0.015703605)
(-1.1646119 -0.042827875 -0.023930019)
(-1.5109995 -0.053884896 -0.027598295)
(-1.752998 -0.064695044 -0.02497419)
(-1.8654524 -0.07492189 -0.018607073)
(-1.8817351 -0.083628926 -0.011894002)
(-1.8598746 -0.089356523 -0.007372793)
(-0.13033183 -0.0054228987 -0.0015655966)
(-0.42418075 -0.015686429 -0.0058579823)
(-0.78423911 -0.025708014 -0.013192944)
(-1.1710276 -0.034985967 -0.020761346)
(-1.5170858 -0.04368116 -0.023711323)
(-1.7562036 -0.052019057 -0.020324518)
(-1.8642744 -0.059801918 -0.013350574)
(-1.8764843 -0.066313057 -0.0064451346)
(-1.8519846 -0.070396297 -0.0020914784)
(-0.13102591 -0.0036111185 -0.0010540476)
(-0.4262662 -0.010414899 -0.0043982748)
(-0.78770913 -0.017013575 -0.010970254)
(-1.1752731 -0.023049327 -0.017956231)
(-1.5207816 -0.02861984 -0.020343301)
(-1.7577732 -0.033889503 -0.016412232)
(-1.8628852 -0.038779297 -0.0090446638)
(-1.87242 -0.042819731 -0.0020669542)
(-1.8462022 -0.045268501 0.002102476)
(-0.13108186 -0.0012726481 -0.00076874344)
(-0.4266227 -0.0036620239 -0.003580267)
(-0.78856659 -0.0059655332 -0.0097048657)
(-1.1765706 -0.0080647602 -0.016342859)
(-1.5220138 -0.009996538 -0.018411049)
(-1.758164 -0.011814206 -0.014186352)
(-1.8619311 -0.013491642 -0.0066177985)
(-1.8701737 -0.014863546 0.00038075706)
(-1.8430863 -0.015677591 0.0044382526)
(-0.13108186 0.0012726777 -0.00076874372)
(-0.4266227 0.0036621007 -0.0035802676)
(-0.78856661 0.0059656417 -0.0097048649)
(-1.1765706 0.0080648767 -0.016342856)
(-1.5220139 0.0099966388 -0.018411032)
(-1.758164 0.011814252 -0.014186323)
(-1.861931 0.013491635 -0.0066177731)
(-1.8701737 0.014863548 0.00038076772)
(-1.8430863 0.015677664 0.0044382456)
(-0.13102591 0.00361114 -0.0010540512)
(-0.42626621 0.010414961 -0.0043982814)
(-0.78770916 0.017013666 -0.010970253)
(-1.1752731 0.023049422 -0.017956212)
(-1.5207817 0.028619913 -0.020343243)
(-1.7577731 0.033889529 -0.016412159)
(-1.8628851 0.038779304 -0.0090446074)
(-1.8724199 0.042819762 -0.0020669283)
(-1.8462023 0.0452686 0.002102467)
(-0.13033183 0.0054229099 -0.0015656028)
(-0.42418077 0.015686469 -0.0058579853)
(-0.78423915 0.025708064 -0.013192924)
(-1.1710276 0.034986012 -0.020761292)
(-1.5170858 0.043681186 -0.023711235)
(-1.7562035 0.052019057 -0.020324438)
(-1.8642744 0.059801925 -0.013350521)
(-1.8764842 0.06631311 -0.0064451062)
(-1.8519847 0.070396429 -0.0020914658)
(-0.12957175 0.0065530847 -0.0021537542)
(-0.42157026 0.019011875 -0.0075258702)
(-0.77942193 0.031281817 -0.015703566)
(-1.1646119 0.042827875 -0.02392995)
(-1.5109995 0.053884883 -0.027598206)
(-1.752998 0.064695018 -0.024974123)
(-1.8654525 0.074921873 -0.018607031)
(-1.8817352 0.083628972 -0.011893979)
(-1.8598748 0.089356687 -0.0073727635)
(-0.12823602 0.0069384122 -0.0026641388)
(-0.41720212 0.020222502 -0.0089570511)
(-0.77162614 0.033476291 -0.017809308)
(-1.154383 0.046241857 -0.026600176)
(-1.5011404 0.058833264 -0.031047884)
(-1.7471438 0.071451727 -0.029380434)
(-1.8657835 0.083630764 -0.023846533)
(-1.8877941 0.094220466 -0.017507474)
(-1.8696078 0.10158319 -0.012934248)
(-0.12611154 0.0066461794 -0.0029875154)
(-0.41044526 0.019499284 -0.0098349306)
(-0.75983353 0.032560604 -0.019004351)
(-1.1390848 0.045551119 -0.02811513)
(-1.4862365 0.058876184 -0.0332967)
(-1.7375433 0.072665048 -0.032748009)
(-1.8645312 0.086273649 -0.028244737)
(-1.8942939 0.098411733 -0.022518411)
(-1.8809844 0.10734041 -0.018094261)
(-0.12308313 0.0058323854 -0.0030570206)
(-0.40095072 0.017270697 -0.0099664539)
(-0.74343196 0.02918669 -0.018982256)
(-1.1178447 0.041549736 -0.02806856)
(-1.4652393 0.054874154 -0.033846016)
(-1.7231761 0.069202061 -0.034487835)
(-1.8609305 0.083744981 -0.031204271)
(-1.9008584 0.097044302 -0.026370679)
(-1.8938505 0.10739734 -0.022361475)
(-0.11930256 0.0047144329 -0.0028757504)
(-0.38899105 0.014122679 -0.0093470816)
(-0.72257666 0.024237393 -0.017711183)
(-1.0904542 0.03530822 -0.026364614)
(-1.4375073 0.047982594 -0.03250086)
(-1.7031635 0.062242127 -0.034303215)
(-1.8542116 0.07717446 -0.032411951)
(-1.9070707 0.091234889 -0.028726903)
(-1.9080278 0.10276035 -0.025429246)
(-0.11448417 0.0034631109 -0.0024262424)
(-0.37382694 0.010545673 -0.0079388205)
(-0.69618399 0.018481874 -0.015165528)
(-1.0556195 0.027789419 -0.022982069)
(-1.401659 0.039273976 -0.02919381)
(-1.6762096 0.05292469 -0.032070362)
(-1.8433388 0.067729108 -0.031689293)
(-1.912361 0.08213937 -0.029423144)
(-1.9231609 0.094492449 -0.027134911)
(-0.10839308 0.0021964191 -0.0017841304)
(-0.3548477 0.0068838703 -0.0059605092)
(-0.66333416 0.012489764 -0.011667057)
(-1.0121651 0.019761907 -0.018279549)
(-1.3562911 0.029675853 -0.024251408)
(-1.64072 0.042303772 -0.028003778)
(-1.8267425 0.056577728 -0.029154269)
(-1.9155143 0.070948693 -0.028498112)
(-1.9383703 0.083736148 -0.027473183)
(-0.10143442 0.0010924786 -0.0010546749)
(-0.33297152 0.0036193573 -0.0037064207)
(-0.62503265 0.0070008728 -0.0076731427)
(-0.96055175 0.012138005 -0.012791432)
(-1.300751 0.020155399 -0.018157678)
(-1.5947633 0.031307705 -0.022467792)
(-1.8016395 0.044609321 -0.025009478)
(-1.9137302 0.058571416 -0.026013326)
(-1.9514602 0.071409942 -0.026358076)
(-0.093035461 0.00014894098 -0.00024385673)
(-0.30664164 0.0007785821 -0.0012212516)
(-0.57876925 0.0021067353 -0.0032631098)
(-0.89716016 0.0050843492 -0.0065765969)
(-1.2298713 0.010915438 -0.010872672)
(-1.5311551 0.020085846 -0.015272547)
(-1.758967 0.031865988 -0.018916005)
(-1.8975618 0.044866345 -0.021444655)
(-1.9551783 0.057315957 -0.022855561)
(-0.081459104 0.0010620211 0.00098126545)
(-0.2697188 0.0033052709 0.0030747212)
(-0.51276719 0.0057967515 0.0054211392)
(-0.80285554 0.0081033318 0.0076162686)
(-1.1135219 0.0097126341 0.0090346178)
(-1.4019857 0.010270752 0.0091790201)
(-1.6242118 0.0097768954 0.008046347)
(-1.7597085 0.0085337766 0.0061817028)
(-1.812892 0.0068501651 0.0042700863)
(-0.087602971 0.0010898643 0.00089456665)
(-0.28929669 0.0033405841 0.0027932678)
(-0.5479616 0.0057416614 0.0049018226)
(-0.8523745 0.0078067821 0.0067979185)
(-1.170147 0.0090179888 0.0078198205)
(-1.452923 0.0090744259 0.0074787667)
(-1.6561921 0.0080680889 0.0058477476)
(-1.7662051 0.0064163309 0.0035925449)
(-1.7994647 0.0046258733 0.0014190995)
(-0.092598801 0.0010351669 0.00073903511)
(-0.3052642 0.0031531221 0.0023183239)
(-0.57658214 0.0053621959 0.0040919742)
(-0.89192877 0.0071627711 0.0056788187)
(-1.2133436 0.0080566384 0.0064221337)
(-1.4876404 0.007798292 0.0058100008)
(-1.6710825 0.0065414031 0.0039105909)
(-1.7579682 0.004753199 0.0014291114)
(-1.7759863 0.0029765287 -0.00075221221)
(-0.09686867 0.00095072758 0.00058930055)
(-0.31880778 0.0028750842 0.0018552505)
(-0.60060745 0.0048386344 0.0032944611)
(-0.92450152 0.00635297 0.0045690671)
(-1.2476019 0.0069586647 0.0050401756)
(-1.5127659 0.0064650927 0.0041936835)
(-1.6776836 0.005063756 0.0021047616)
(-1.7444742 0.0032359414 -0.00047213532)
(-1.7497942 0.0015003882 -0.0025493229)
(-0.10008965 0.00081967959 0.00043878818)
(-0.329189 0.002474139 0.0013962838)
(-0.61921332 0.0041441649 0.0025156631)
(-0.9497087 0.0053741935 0.003505775)
(-1.2735162 0.005744978 0.003742347)
(-1.5301477 0.0050998697 0.002709367)
(-1.6789203 0.0036437455 0.00049692129)
(-1.7287642 0.0018603129 -0.0020868178)
(-1.7233658 0.00023194568 -0.0040048181)
(-0.10253188 0.00066711845 0.00029985227)
(-0.33710878 0.0020156576 0.00097325283)
(-0.6334338 0.0033706706 0.0018035186)
(-0.96879907 0.0043269492 0.0025468927)
(-1.2924998 0.004510026 0.0025922085)
(-1.5413921 0.0037881804 0.0014203161)
(-1.6764432 0.0023640263 -0.00085844615)
(-1.7123296 0.00069816781 -0.0033976784)
(-1.6980201 -0.00076672816 -0.0051243051)
(-0.10442046 0.0005085968 0.00018779114)
(-0.34317028 0.0015419376 0.00062954576)
(-0.64417882 0.0025821912 0.0012193335)
(-0.98288259 0.0032860241 0.0017557112)
(-1.3057626 0.003329942 0.0016433619)
(-1.5477296 0.0025991703 0.00036419644)
(-1.6713498 0.0012806684 -0.0019445085)
(-1.6960435 -0.00020651942 -0.0044055724)
(-1.6745517 -0.0014746483 -0.0059409003)
(-0.105646 0.00035635416 0.00010315211)
(-0.34718907 0.0010899769 0.00036880118)
(-0.65138766 0.0018381512 0.00077290922)
(-0.9922365 0.0023250991 0.0011459618)
(-1.3140083 0.0022797318 0.00091134045)
(-1.550166 0.0015989918 -0.00044275409)
(-1.664655 0.00044599671 -0.0027572476)
(-1.6806624 -0.00081736508 -0.0051312516)
(-1.6536106 -0.0018696972 -0.006496423)
(-0.10631901 0.00022597925 4.608757e-05)
(-0.3495053 0.00070196568 0.00019050893)
(-0.65567105 0.0011996923 0.00046276587)
(-0.99776672 0.0015110886 0.00071679981)
(-1.3184006 0.0014194237 0.00039250309)
(-1.5499442 0.00083738944 -0.0010120489)
(-1.6574524 -0.00010404654 -0.0033188825)
(-1.6669715 -0.0011105092 -0.0056142167)
(-1.6358026 -0.0019309708 -0.0068440369)
(-0.10663201 0.00012678925 1.2414506e-05)
(-0.35069857 0.00040308003 8.2633014e-05)
(-0.65799782 0.00070257152 0.0002702116)
(-1.000742 0.0008816149 0.00044431405)
(-1.3203441 0.00078173159 5.8457879e-05)
(-1.5484006 0.00033514457 -0.001378936)
(-1.6508347 -0.00036238573 -0.0036740639)
(-1.6557576 -0.001092005 -0.0059115948)
(-1.6217001 -0.0016827763 -0.0070458505)
(-0.10700792 5.9278458e-05 -3.8689971e-06)
(-0.3518205 0.00019404602 2.8351933e-05)
(-0.6598244 0.00034635393 0.00016932777)
(-1.0027392 0.00043274631 0.0002958219)
(-1.3213059 0.00035683493 -0.00012897472)
(-1.5467807 7.5786674e-05 -0.0015866885)
(-1.6457741 -0.00035170738 -0.0038720204)
(-1.647725 -0.00079659902 -0.006076818)
(-1.6118448 -0.0011500856 -0.0071503854)
(-0.10695359 1.6337464e-05 -9.5383027e-06)
(-0.35180965 5.5080194e-05 8.4084742e-06)
(-0.66000674 0.0001001969 0.00013046367)
(-1.0030464 0.00012429906 0.00023660823)
(-1.32126 9.5578232e-05 -0.00020528321)
(-1.5456221 -4.8071973e-07 -0.0016717205)
(-1.6430157 -0.00014450868 -0.0039558818)
(-1.6435403 -0.00029322056 -0.0061473834)
(-1.6067732 -0.00041013694 -0.0071923664)
(-0.10695359 -1.6348345e-05 -9.5389061e-06)
(-0.35180965 -5.510826e-05 8.4097472e-06)
(-0.66000675 -0.00010025205 0.00013046705)
(-1.0030464 -0.00012438211 0.00023661466)
(-1.32126 -9.5683623e-05 -0.00020527183)
(-1.5456221 3.5268612e-07 -0.0016717079)
(-1.6430156 0.00014438814 -0.0039558756)
(-1.6435403 0.00029318707 -0.006147388)
(-1.6067732 0.00041025494 -0.0071923729)
(-0.10700792 -5.9293721e-05 -3.8695129e-06)
(-0.35182052 -0.00019408332 2.8353161e-05)
(-0.65982443 -0.00034642043 0.00016933592)
(-1.0027392 -0.0004328424 0.00029584042)
(-1.3213059 -0.00035695428 -0.00012894196)
(-1.5467807 -7.5926366e-05 -0.0015866558)
(-1.645774 0.0003515861 -0.003872007)
(-1.647725 0.00079656921 -0.0060768321)
(-1.6118449 0.0011502061 -0.0071504081)
(-0.10663202 -0.0001268064 1.2417642e-05)
(-0.35069858 -0.00040312328 8.2639346e-05)
(-0.65799785 -0.00070264921 0.00027023374)
(-1.000742 -0.0008817284 0.00044435188)
(-1.3203442 -0.00078187092 5.8511126e-05)
(-1.5484006 -0.00033530114 -0.0013788911)
(-1.6508347 0.00036225536 -0.0036740508)
(-1.6557576 0.0010919726 -0.0059116203)
(-1.6217002 0.0016828923 -0.0070458949)
(-0.10631902 -0.00022599785 4.6092339e-05)
(-0.34950532 -0.0007020134 0.00019052361)
(-0.65567108 -0.0011997789 0.00046280818)
(-0.99776672 -0.0015112158 0.00071685901)
(-1.3184007 -0.0014195811 0.0003925715)
(-1.5499442 -0.00083756448 -0.0010119972)
(-1.6574524 0.00010389704 -0.0033188712)
(-1.6669716 0.0011104597 -0.0056142526)
(-1.6358027 0.0019310649 -0.0068441057)
(-0.10564601 -0.00035637696 0.00010315235)
(-0.34718909 -0.0010900304 0.00036882489)
(-0.65138769 -0.0018382461 0.00077296497)
(-0.99223651 -0.002325239 0.0011460393)
(-1.3140083 -0.0022799082 0.00091142699)
(-1.5501661 -0.0015991897 -0.0004426895)
(-1.6646551 -0.00044617346 -0.0027572313)
(-1.6806625 0.00081728387 -0.0051312928)
(-1.6536107 0.0018697592 -0.0064965115)
(-0.10442047 -0.0005086251 0.00018779501)
(-0.3431703 -0.0015419976 0.00062959098)
(-0.64417885 -0.0025822963 0.0012194077)
(-0.9828826 -0.0032861786 0.0017558169)
(-1.3057626 -0.0033301365 0.0016434726)
(-1.5477297 -0.0025993927 0.00036427821)
(-1.6713499 -0.0012808774 -0.0019444798)
(-1.6960437 0.00020639676 -0.0044056197)
(-1.6745518 0.001474688 -0.005940997)
(-0.10253188 -0.00066714799 0.00029986412)
(-0.33710879 -0.0020157208 0.00097330839)
(-0.63343383 -0.0033707822 0.0018036058)
(-0.96879907 -0.0043271094 0.0025470167)
(-1.2924999 -0.0045102249 0.0025923365)
(-1.5413921 -0.0037884187 0.0014204223)
(-1.6764432 -0.0023642636 -0.00085839595)
(-1.7123297 -0.00069832872 -0.0033977448)
(-1.6980203 0.00076676296 -0.0051244096)
(-0.10008966 -0.00081970621 0.00043879982)
(-0.32918902 -0.0024741911 0.0013963416)
(-0.61921334 -0.0041442637 0.0025157506)
(-0.94970871 -0.0053743367 0.0035058935)
(-1.2735162 -0.0057451634 0.0037424873)
(-1.5301477 -0.0051001054 0.0027095029)
(-1.6789203 -0.0036439927 0.0004969878)
(-1.7287643 -0.0018604904 -0.0020869286)
(-1.723366 -0.00023191089 -0.0040049684)
(-0.09686868 -0.00095074687 0.0005893114)
(-0.3188078 -0.002875119 0.001855299)
(-0.60060749 -0.0048387001 0.0032945383)
(-0.92450157 -0.0063530694 0.0045691838)
(-1.247602 -0.0069588109 0.0050403342)
(-1.5127659 -0.0064652904 0.0041938341)
(-1.6776836 -0.0050639603 0.002104808)
(-1.7444742 -0.0032360665 -0.00047233366)
(-1.7497943 -0.0015003478 -0.0025495837)
(-0.092598813 -0.0010351775 0.00073904065)
(-0.30526423 -0.0031531399 0.0023183516)
(-0.57658219 -0.0053622307 0.0040920276)
(-0.89192884 -0.0071628276 0.0056789181)
(-1.2133436 -0.0080567279 0.0064222664)
(-1.4876404 -0.0077984229 0.0058100962)
(-1.6710825 -0.0065415462 0.0039105507)
(-1.7579682 -0.0047532497 0.0014288269)
(-1.7759864 -0.0029764513 -0.00075255229)
(-0.087602982 -0.0010898636 0.00089456552)
(-0.28929672 -0.0033405778 0.0027932764)
(-0.54796164 -0.0057416659 0.0049018468)
(-0.85237455 -0.0078068106 0.0067979613)
(-1.170147 -0.0090180348 0.0078198631)
(-1.4529229 -0.0090744687 0.0074787483)
(-1.6561921 -0.0080681085 0.0058475429)
(-1.766205 -0.0064162947 0.0035921189)
(-1.7994647 -0.004625817 0.0014188116)
(-0.081459115 -0.001062021 0.00098126285)
(-0.26971884 -0.0033052753 0.0030747208)
(-0.51276724 -0.0057967696 0.0054211444)
(-0.80285559 -0.0081033777 0.0076162634)
(-1.113522 -0.0097127202 0.0090345849)
(-1.4019858 -0.010270889 0.0091789181)
(-1.6242118 -0.0097770227 0.0080461263)
(-1.7597085 -0.0085337388 0.0061814125)
(-1.8128921 -0.0068501161 0.0042699705)
(-0.087277103 -0.00010701606 -8.6880902e-05)
(-0.28827964 -0.00039447589 -0.00029990047)
(-0.54602945 -0.00087835957 -0.00058559838)
(-0.85056634 -0.0017123517 -0.00094360252)
(-1.1727448 -0.0031024653 -0.0013420393)
(-1.46844 -0.0052072935 -0.0017388847)
(-1.6946965 -0.0079891584 -0.0021591014)
(-1.8333471 -0.01116068 -0.0027072092)
(-1.8899825 -0.014321418 -0.003454966)
(-0.094166847 -0.0001342651 -9.6153188e-05)
(-0.31014168 -0.00047961455 -0.00032189868)
(-0.58505788 -0.0010417385 -0.00061755381)
(-0.90504748 -0.0019983086 -0.00098400277)
(-1.2347531 -0.0035854134 -0.001389135)
(-1.5246534 -0.0059732096 -0.0017959635)
(-1.7318595 -0.0090982223 -0.0022515771)
(-1.8453811 -0.012598735 -0.0029017389)
(-1.8828675 -0.01595373 -0.0038940241)
(-0.099887108 -0.00015967109 -9.9012951e-05)
(-0.32831613 -0.00055953081 -0.00032903449)
(-0.61735207 -0.0011910006 -0.00063039765)
(-0.94932695 -0.0022440848 -0.0010029087)
(-1.2831493 -0.0039684978 -0.0014079368)
(-1.5647862 -0.0065335868 -0.0018057489)
(-1.7526135 -0.0098445434 -0.0022509825)
(-1.8437767 -0.013470414 -0.0028884915)
(-1.86703 -0.016823716 -0.0038197221)
(-0.10494523 -0.00020308437 -0.00011051443)
(-0.34423897 -0.0006863672 -0.00036032828)
(-0.64532529 -0.0014047776 -0.00068202993)
(-0.98701514 -0.0025474512 -0.0010698521)
(-1.3231698 -0.0043654407 -0.001472703)
(-1.5961415 -0.0070229416 -0.001843629)
(-1.766178 -0.010400992 -0.0022367988)
(-1.8381454 -0.014023711 -0.0027788184)
(-1.8496151 -0.017265256 -0.0035513182)
(-0.10899565 -0.00024747018 -0.00011700662)
(-0.35712404 -0.00081517119 -0.00037743196)
(-0.66810594 -0.001616147 -0.00070968407)
(-1.0176986 -0.0028278247 -0.0011015485)
(-1.3553982 -0.0046906228 -0.0014874954)
(-1.6205506 -0.0073567322 -0.0018109715)
(-1.7753006 -0.010689324 -0.0021221166)
(-1.8312162 -0.014180896 -0.002529567)
(-1.8327273 -0.017186061 -0.0031152969)
(-0.11230643 -0.00028640026 -0.00011400268)
(-0.36765583 -0.00092506399 -0.00036607398)
(-0.68668428 -0.001786101 -0.00068943733)
(-1.0425514 -0.0030267957 -0.0010646182)
(-1.3811242 -0.0048669365 -0.0014102449)
(-1.6393985 -0.0074423667 -0.0016612741)
(-1.7813472 -0.010605118 -0.0018661512)
(-1.8241138 -0.013842524 -0.0021241907)
(-1.8173004 -0.016519007 -0.002529499)
(-0.11509752 -0.00031088571 -0.00010181301)
(-0.37640672 -0.00098897781 -0.00032685498)
(-0.70189566 -0.0018697318 -0.00062113477)
(-1.0625506 -0.0030856349 -0.00095908342)
(-1.4013547 -0.0048282126 -0.0012430078)
(-1.6536171 -0.0072131499 -0.0014008382)
(-1.7850505 -0.010090849 -0.0014855999)
(-1.8172959 -0.012965902 -0.001592757)
(-1.8037267 -0.015254355 -0.0018423481)
(-0.11719991 -0.00031095952 -8.0381158e-05)
(-0.38303059 -0.00097902106 -0.00026021581)
(-0.71342869 -0.0018233112 -0.00050619413)
(-1.0776532 -0.0029493902 -0.00078914773)
(-1.4164181 -0.0045161715 -0.00099903105)
(-1.6637797 -0.0066166332 -0.0010553761)
(-1.786931 -0.009108806 -0.0010173217)
(-1.8110467 -0.011540435 -0.0009845139)
(-1.7921959 -0.013411485 -0.001106953)
(-0.11867119 -0.00028290088 -5.342446e-05)
(-0.38771286 -0.00088431899 -0.00017735545)
(-0.72164016 -0.0016291597 -0.00036469278)
(-1.0884219 -0.0025962345 -0.00058403145)
(-1.4270488 -0.0039102112 -0.00071501924)
(-1.6706349 -0.0056430115 -0.00067090088)
(-1.7875382 -0.0076665831 -0.00051356359)
(-1.8056211 -0.0095866181 -0.00035088627)
(-1.782853 -0.010947003 -0.00037736514)
(-0.11964963 -0.0002271366 -2.5923933e-05)
(-0.3908767 -0.00070643168 -9.3412843e-05)
(-0.72723909 -0.0012912813 -0.00022271963)
(-1.0957698 -0.0020356141 -0.00038130691)
(-1.4342065 -0.0030288021 -0.00043892224)
(-1.6749994 -0.0043227336 -0.0003040664)
(-1.7874162 -0.0058115007 -3.9804444e-05)
(-1.8012695 -0.0071365124 0.00022076472)
(-1.7757644 -0.0081616765 0.00023790705)
(-0.12053425 -0.00014808304 -3.727519e-06)
(-0.39347896 -0.00045844503 -2.5979264e-05)
(-0.73148829 -0.00083281375 -0.00010913815)
(-1.1009678 -0.0013023415 -0.00021986577)
(-1.4389566 -0.0019206559 -0.00022074916)
(-1.6776505 -0.0027186275 -1.5228507e-05)