/*--------------------------------*- C++ -*----------------------------------*\
| =========                 |                                                 |
| \\      /  F ield         | OpenFOAM: The Open Source CFD Toolbox           |
|  \\    /   O peration     | Version:  2406                                  |
|   \\  /    A nd           | Website:  www.openfoam.com                      |
|    \\/     M anipulation  |                                                 |
\*---------------------------------------------------------------------------*/
FoamFile
{
    version     2.0;
    format      ascii;
    arch        "LSB;label=32;scalar=64";
    class       volScalarField;
    location    "2.5";
    object      p;
}
// * * * * * * * * * * * * * * * * * * * * * * * * * * * * * * * * * * * * * //

dimensions      [0 2 -2 0 0 0 0];

internalField   nonuniform List<scalar> 
34560
(
40.781307
40.774176
40.765678
40.756256
40.744791
40.732807
40.723931
40.721953
40.725973
40.835818
40.827529
40.816974
40.804251
40.788232
40.77163
40.759158
40.755131
40.758902
40.893022
40.88394
40.872076
40.856958
40.836885
40.81528
40.798206
40.790695
40.792083
40.949367
40.939477
40.926387
40.909284
40.885859
40.859652
40.837725
40.825575
40.822768
41.005255
40.994723
40.980467
40.961228
40.934163
40.902894
40.875565
40.858161
40.850612
41.060975
41.049909
41.034522
41.01306
40.982264
40.945067
40.911541
40.88839
40.875948
41.117556
41.105681
41.08886
41.064919
41.030178
40.986169
40.945588
40.916109
40.898412
41.175924
41.162779
41.143857
41.11666
41.076915
41.025442
40.976955
40.940821
40.918122
41.235952
41.221264
41.199417
41.167625
41.122203
41.063035
41.005707
40.962833
40.93578
41.29579
41.278694
41.253021
41.215982
41.164264
41.09849
41.031969
40.982559
40.951997
41.348949
41.328775
41.298908
41.257088
41.199891
41.127651
41.054191
40.999269
40.965658
41.381314
41.359074
41.326609
41.281866
41.221142
41.1447
41.068273
41.009789
40.973958
41.381314
41.359074
41.326609
41.281866
41.221142
41.1447
41.068273
41.009789
40.973958
41.348949
41.328774
41.298908
41.257088
41.199891
41.127652
41.054192
40.999269
40.965659
41.295792
41.278695
41.253021
41.215983
41.164265
41.098491
41.03197
40.98256
40.951998
41.235953
41.221265
41.199418
41.167626
41.122204
41.063037
41.005709
40.962834
40.935782
41.175926
41.16278
41.143858
41.116662
41.076918
41.025445
40.976957
40.940823
40.918123
41.117558
41.105684
41.088863
41.064922
41.030181
40.986172
40.94559
40.916111
40.898413
41.060979
41.049913
41.034526
41.013063
40.982267
40.94507
40.911544
40.888392
40.875949
41.005259
40.994727
40.980471
40.961232
40.934166
40.902897
40.875568
40.858163
40.850614
40.949372
40.939483
40.926392
40.909288
40.885863
40.859655
40.837727
40.825577
40.822771
40.893027
40.883945
40.87208
40.856962
40.836889
40.815283
40.798209
40.790698
40.792086
40.835822
40.827533
40.816979
40.804256
40.788237
40.771634
40.759162
40.755134
40.758906
40.781312
40.774181
40.765683
40.756261
40.744797
40.732814
40.723938
40.721957
40.725978
37.746302
37.746638
37.746802
37.746625
37.746264
37.746374
37.746933
37.748547
37.75203
37.742796
37.743306
37.743635
37.743627
37.743736
37.744653
37.746449
37.749517
37.753749
37.7387
37.739451
37.739923
37.73988
37.740126
37.741535
37.744142
37.747996
37.752291
37.73501
37.736084
37.736736
37.736532
37.736635
37.738254
37.7413
37.745545
37.749792
37.732234
37.733679
37.734523
37.73401
37.733615
37.735183
37.738356
37.74272
37.746817
37.730616
37.732527
37.733657
37.732812
37.731225
37.732377
37.735384
37.739692
37.743641
37.731205
37.733596
37.73494
37.733451
37.729991
37.730354
37.7329
37.737016
37.740868
37.734914
37.737798
37.739279
37.736896
37.731195
37.729957
37.73177
37.735657
37.73953
37.742606
37.745892
37.747477
37.74405
37.73541
37.731511
37.732827
37.736711
37.740733
37.753531
37.757091
37.758759
37.754375
37.743057
37.735042
37.736344
37.740734
37.745068
37.764988
37.768684
37.770425
37.765328
37.751921
37.740957
37.741373
37.746764
37.751591
37.77317
37.776817
37.778528
37.773042
37.758581
37.746052
37.744844
37.751472
37.756766
37.773171
37.776817
37.778529
37.773042
37.758581
37.746053
37.744845
37.751473
37.756766
37.764989
37.768685
37.770426
37.765329
37.751922
37.740958
37.741374
37.746765
37.751592
37.753534
37.757093
37.758761
37.754376
37.743059
37.735044
37.736345
37.740736
37.74507
37.742608
37.745894
37.747479
37.744052
37.735412
37.731513
37.732829
37.736714
37.740735
37.734916
37.7378
37.739281
37.736898
37.731197
37.729959
37.731772
37.73566
37.739533
37.731208
37.733598
37.734943
37.733454
37.729994
37.730357
37.732903
37.737019
37.740871
37.730619
37.73253
37.73366
37.732815
37.731228
37.732381
37.735387
37.739696
37.743645
37.732238
37.733683
37.734527
37.734015
37.733619
37.735187
37.73836
37.742724
37.74682
37.735015
37.736089
37.736741
37.736537
37.73664
37.738259
37.741305
37.745549
37.749797
37.738707
37.739457
37.73993
37.739887
37.740132
37.741541
37.744148
37.748002
37.752295
37.742804
37.743314
37.743642
37.743634
37.743744
37.744661
37.746456
37.749523
37.753754
37.74631
37.746647
37.74681
37.746634
37.746273
37.746383
37.746941
37.748554
37.752038
36.743592
36.74362
36.743638
36.743604
36.743599
36.743126
36.742985
36.743286
36.743706
36.749164
36.749194
36.74918
36.74903
36.748717
36.747805
36.747142
36.746903
36.746964
36.754099
36.754172
36.754211
36.754095
36.753687
36.752483
36.751378
36.750633
36.750351
36.758868
36.758989
36.759091
36.759038
36.758611
36.757154
36.755644
36.7544
36.753703
36.763433
36.763609
36.763786
36.763818
36.763424
36.761739
36.759833
36.758089
36.756924
36.767651
36.767914
36.768205
36.768362
36.768055
36.766165
36.763887
36.761641
36.759993
36.771515
36.771889
36.772343
36.772665
36.772467
36.77038
36.767739
36.765014
36.762897
36.774963
36.775443
36.776088
36.776639
36.776599
36.77432
36.771336
36.768179
36.765628
36.77801
36.77859
36.779373
36.780157
36.780357
36.777883
36.774605
36.771083
36.768156
36.780775
36.781447
36.78235
36.783271
36.783622
36.780928
36.777403
36.7736
36.770376
36.782956
36.783709
36.784717
36.78573
36.786115
36.783224
36.779508
36.775516
36.772089
36.784201
36.784995
36.786061
36.787125
36.787518
36.784481
36.780634
36.776545
36.773016
36.784202
36.784995
36.786061
36.787125
36.787519
36.784482
36.780634
36.776545
36.773016
36.782958
36.783711
36.784719
36.785732
36.786116
36.783226
36.779509
36.775517
36.77209
36.780778
36.78145
36.782353
36.783273
36.783624
36.78093
36.777405
36.773603
36.770378
36.778013
36.778593
36.779376
36.78016
36.78036
36.777886
36.774607
36.771086
36.768159
36.774966
36.775446
36.776092
36.776642
36.776602
36.774324
36.77134
36.768183
36.765632
36.771519
36.771893
36.772348
36.772669
36.772471
36.770385
36.767743
36.765018
36.762902
36.767656
36.767919
36.76821
36.768367
36.76806
36.76617
36.763892
36.761646
36.759998
36.763438
36.763615
36.763793
36.763824
36.76343
36.761745
36.759839
36.758095
36.75693
36.758875
36.758996
36.759098
36.759045
36.758618
36.757161
36.755651
36.754407
36.753709
36.754108
36.754181
36.754219
36.754103
36.753695
36.752491
36.751386
36.750641
36.750359
36.749174
36.749204
36.74919
36.749039
36.748726
36.747815
36.747152
36.746912
36.746973
36.743603
36.74363
36.743649
36.743615
36.74361
36.743137
36.742996
36.743296
36.743716
34.704311
34.704204
34.704092
34.704022
34.703944
34.703979
34.703855
34.703565
34.703378
34.704826
34.7047
34.704575
34.704511
34.704478
34.704528
34.704438
34.7042
34.703996
34.705351
34.705215
34.705084
34.705026
34.70502
34.705109
34.705044
34.704798
34.704482
34.705968
34.705831
34.705698
34.705642
34.705642
34.705757
34.705695
34.705404
34.70496
34.706631
34.706496
34.706367
34.706315
34.70632
34.706455
34.706385
34.706035
34.705462
34.707265
34.707144
34.707031
34.706993
34.707007
34.707161
34.707076
34.706664
34.705967
34.707891
34.707784
34.707688
34.707666
34.707687
34.707852
34.707749
34.707271
34.706461
34.708476
34.708383
34.708306
34.708305
34.708335
34.708507
34.708382
34.707842
34.706931
34.708996
34.70892
34.708861
34.70888
34.708924
34.709103
34.708954
34.708357
34.707359
34.70944
34.70938
34.709341
34.70938
34.709426
34.709609
34.709438
34.708793
34.707726
34.70977
34.709726
34.709704
34.709762
34.709808
34.709988
34.709797
34.709117
34.708004
34.709966
34.709929
34.709915
34.709979
34.710021
34.710196
34.709993
34.709295
34.708168
34.709967
34.70993
34.709915
34.70998
34.710021
34.710196
34.709993
34.709296
34.708169
34.709772
34.709728
34.709705
34.709764
34.70981
34.709989
34.709799
34.709118
34.708006
34.709442
34.709383
34.709343
34.709383
34.709429
34.709611
34.709441
34.708795
34.707728
34.709
34.708923
34.708865
34.708883
34.708928
34.709106
34.708957
34.708361
34.707362
34.70848
34.708388
34.708311
34.70831
34.708339
34.708512
34.708386
34.707846
34.706935
34.707897
34.70779
34.707694
34.707672
34.707693
34.707858
34.707754
34.707276
34.706466
34.707271
34.70715
34.707038
34.707
34.707014
34.707168
34.707083
34.70667
34.705973
34.706639
34.706504
34.706375
34.706323
34.706329
34.706463
34.706392
34.706042
34.705468
34.705978
34.70584
34.705707
34.705651
34.705652
34.705766
34.705704
34.705412
34.704968
34.705362
34.705226
34.705095
34.705037
34.705031
34.705119
34.705055
34.704808
34.704491
34.704838
34.704712
34.704588
34.704524
34.704491
34.704541
34.704451
34.704211
34.704007
34.704325
34.704217
34.704106
34.704036
34.703957
34.703992
34.703869
34.703579
34.703391
33.149668
33.14969
33.149701
33.149673
33.149621
33.149525
33.149495
33.149562
33.149683
33.150223
33.150248
33.150253
33.150201
33.150105
33.14998
33.149917
33.149959
33.150071
33.150608
33.15064
33.15065
33.150594
33.150483
33.150338
33.150252
33.150275
33.15039
33.150918
33.150957
33.150972
33.150916
33.150799
33.150641
33.150542
33.150556
33.150686
33.151166
33.151212
33.151234
33.151181
33.151065
33.150903
33.150797
33.15081
33.150955
33.151357
33.151411
33.151442
33.151397
33.151287
33.151128
33.151022
33.151037
33.151196
33.151512
33.151573
33.151613
33.151577
33.151476
33.151323
33.151221
33.151239
33.151405
33.15163
33.151699
33.151748
33.151722
33.151632
33.151489
33.151391
33.151411
33.151568
33.151715
33.151791
33.151849
33.151835
33.151758
33.151623
33.151529
33.151544
33.151691
33.151774
33.151857
33.151924
33.15192
33.151853
33.151726
33.151632
33.151643
33.151783
33.151813
33.151902
33.151975
33.151978
33.151918
33.151795
33.151703
33.151712
33.151848
33.151835
33.151925
33.152002
33.152009
33.151951
33.151831
33.151739
33.151747
33.151881
33.151835
33.151926
33.152003
33.152009
33.151952
33.151832
33.15174
33.151747
33.151881
33.151815
33.151904
33.151977
33.15198
33.151919
33.151797
33.151705
33.151713
33.151849
33.151777
33.15186
33.151927
33.151923
33.151856
33.151729
33.151636
33.151646
33.151786
33.151719
33.151795
33.151854
33.15184
33.151762
33.151628
33.151533
33.151549
33.151694
33.151635
33.151704
33.151753
33.151728
33.151638
33.151495
33.151397
33.151416
33.151574
33.151519
33.15158
33.15162
33.151584
33.151483
33.151331
33.151228
33.151246
33.151411
33.151366
33.15142
33.151451
33.151406
33.151296
33.151137
33.151031
33.151046
33.151204
33.151177
33.151222
33.151245
33.151192
33.151075
33.150913
33.150808
33.15082
33.150965
33.15093
33.150969
33.150984
33.150928
33.150811
33.150653
33.150553
33.150567
33.150696
33.150621
33.150653
33.150664
33.150608
33.150497
33.150351
33.150265
33.150288
33.150402
33.150238
33.150263
33.150269
33.150217
33.15012
33.149995
33.149932
33.149973
33.150085
33.149685
33.149707
33.149718
33.149689
33.149638
33.149541
33.149511
33.149577
33.149698
31.394649
31.394628
31.394609
31.394605
31.394606
31.394601
31.394565
31.394491
31.394422
31.394912
31.394888
31.394867
31.394862
31.394863
31.394854
31.394811
31.394729
31.39464
31.39517
31.395145
31.395124
31.395121
31.395125
31.395113
31.39506
31.394957
31.394831
31.395437
31.395412
31.395392
31.395392
31.395397
31.395384
31.39532
31.395196
31.395031
31.395696
31.395673
31.395655
31.395658
31.395666
31.395654
31.395584
31.395441
31.395238
31.395929
31.395908
31.395895
31.395902
31.395916
31.395906
31.395832
31.39567
31.39543
31.396137
31.396119
31.396109
31.396122
31.39614
31.396133
31.396053
31.395871
31.395598
31.396315
31.396299
31.396292
31.39631
31.396333
31.396327
31.396242
31.396044
31.395753
31.396461
31.396447
31.396444
31.396465
31.396492
31.396489
31.396401
31.396195
31.395893
31.396572
31.39656
31.39656
31.396585
31.396616
31.396616
31.396527
31.396317
31.396002
31.396648
31.396637
31.396639
31.396667
31.396702
31.396704
31.396616
31.396401
31.396076
31.396689
31.396678
31.39668
31.39671
31.396746
31.396749
31.396661
31.396443
31.396114
31.396689
31.396679
31.396681
31.39671
31.396747
31.39675
31.396662
31.396444
31.396114
31.39665
31.396639
31.396641
31.396669
31.396704
31.396706
31.396618
31.396403
31.396078
31.396576
31.396564
31.396563
31.396589
31.39662
31.396619
31.396531
31.39632
31.396005
31.396466
31.396452
31.396449
31.39647
31.396498
31.396494
31.396406
31.396199
31.395897
31.396321
31.396306
31.396299
31.396317
31.39634
31.396334
31.396249
31.39605
31.395759
31.396145
31.396127
31.396117
31.39613
31.396149
31.396141
31.396061
31.395879
31.395605
31.395939
31.395918
31.395905
31.395913
31.395926
31.395917
31.395842
31.39568
31.395438
31.395708
31.395685
31.395667
31.39567
31.395678
31.395666
31.395596
31.395453
31.395249
31.395451
31.395426
31.395407
31.395406
31.395411
31.395398
31.395334
31.395209
31.395043
31.395186
31.395161
31.39514
31.395138
31.395141
31.39513
31.395075
31.394972
31.394845
31.39493
31.394907
31.394886
31.394881
31.394882
31.394872
31.394828
31.394746
31.394656
31.394669
31.394648
31.39463
31.394625
31.394626
31.394621
31.394584
31.39451
31.39444
29.714115
29.71412
29.714121
29.714114
29.714101
29.714087
29.714082
29.714093
29.714122
29.714177
29.714181
29.714182
29.714173
29.714157
29.714141
29.714137
29.714153
29.714184
29.714196
29.714202
29.714204
29.714195
29.714179
29.714166
29.714166
29.714187
29.714223
29.714198
29.714205
29.714208
29.714199
29.714183
29.71417
29.714172
29.714196
29.714238
29.714187
29.714196
29.714199
29.714191
29.714175
29.714161
29.714161
29.714185
29.71423
29.714168
29.714178
29.714183
29.714176
29.71416
29.714146
29.714145
29.714169
29.714215
29.714148
29.714159
29.714165
29.714159
29.714144
29.714129
29.714128
29.714152
29.7142
29.714129
29.714141
29.714148
29.714142
29.714128
29.714114
29.714113
29.714137
29.714186
29.714112
29.714125
29.714133
29.714128
29.714115
29.714101
29.714101
29.714125
29.714174
29.714098
29.714112
29.714121
29.714117
29.714105
29.714092
29.714091
29.714115
29.714164
29.714089
29.714104
29.714113
29.71411
29.714099
29.714086
29.714085
29.714108
29.714157
29.714085
29.7141
29.71411
29.714107
29.714096
29.714084
29.714082
29.714105
29.714154
29.714085
29.7141
29.714111
29.714108
29.714097
29.714084
29.714083
29.714106
29.714154
29.714091
29.714106
29.714116
29.714113
29.714101
29.714089
29.714088
29.714111
29.714159
29.714102
29.714116
29.714125
29.714121
29.714109
29.714096
29.714095
29.714119
29.714167
29.714117
29.71413
29.714138
29.714134
29.714121
29.714107
29.714106
29.71413
29.714179
29.714136
29.714148
29.714155
29.71415
29.714136
29.714121
29.71412
29.714144
29.714192
29.714157
29.714168
29.714174
29.714168
29.714153
29.714138
29.714137
29.71416
29.714208
29.714179
29.714189
29.714194
29.714187
29.714172
29.714157
29.714156
29.714179
29.714225
29.7142
29.714209
29.714213
29.714205
29.714189
29.714175
29.714174
29.714197
29.714242
29.714214
29.714221
29.714224
29.714215
29.7142
29.714186
29.714187
29.71421
29.714251
29.714215
29.714221
29.714223
29.714214
29.714198
29.714185
29.714184
29.714204
29.714239
29.714198
29.714202
29.714203
29.714194
29.714178
29.714162
29.714158
29.714172
29.714202
29.714139
29.714143
29.714144
29.714137
29.714124
29.714111
29.714105
29.714116
29.714143
28.013003
28.013
28.012998
28.012998
28.013
28.013001
28.012999
28.012991
28.012981
28.013045
28.013043
28.013041
28.013041
28.013042
28.013042
28.013038
28.013028
28.013017
28.01309
28.013087
28.013085
28.013086
28.013088
28.013088
28.013082
28.013069
28.013052
28.013138
28.013135
28.013134
28.013135
28.013137
28.013137
28.013129
28.013112
28.01309
28.013185
28.013182
28.013182
28.013184
28.013187
28.013187
28.013178
28.013158
28.013131
28.013229
28.013227
28.013227
28.01323
28.013234
28.013235
28.013225
28.013203
28.013172
28.013269
28.013268
28.013269
28.013273
28.013278
28.013279
28.013269
28.013245
28.01321
28.013304
28.013303
28.013305
28.01331
28.013317
28.013318
28.013308
28.013282
28.013244
28.013333
28.013333
28.013335
28.013342
28.013349
28.013351
28.013341
28.013314
28.013273
28.013356
28.013356
28.013359
28.013366
28.013374
28.013377
28.013367
28.013339
28.013295
28.013371
28.013371
28.013375
28.013382
28.013391
28.013395
28.013385
28.013356
28.013311
28.01338
28.01338
28.013383
28.013391
28.0134
28.013404
28.013395
28.013365
28.013319
28.01338
28.013381
28.013384
28.013392
28.013401
28.013405
28.013396
28.013366
28.01332
28.013374
28.013374
28.013377
28.013385
28.013393
28.013398
28.013388
28.013359
28.013313
28.01336
28.01336
28.013363
28.01337
28.013378
28.013382
28.013372
28.013343
28.013299
28.013339
28.013339
28.013341
28.013348
28.013355
28.013358
28.013347
28.01332
28.013278
28.013312
28.013311
28.013313
28.013318
28.013325
28.013327
28.013316
28.01329
28.013251
28.013278
28.013277
28.013278
28.013283
28.013288
28.013289
28.013279
28.013254
28.013218
28.01324
28.013239
28.013239
28.013243
28.013247
28.013247
28.013237
28.013214
28.013182
28.013199
28.013197
28.013196
28.013199
28.013202
28.013201
28.013192
28.013171
28.013144
28.013154
28.013152
28.01315
28.013152
28.013154
28.013154
28.013145
28.013128
28.013105
28.013109
28.013106
28.013105
28.013106
28.013108
28.013107
28.0131
28.013086
28.013068
28.013067
28.013064
28.013062
28.013063
28.013064
28.013064
28.013059
28.013049
28.013036
28.013026
28.013024
28.013022
28.013022
28.013024
28.013025
28.013022
28.013014
28.013002
26.313831
26.313831
26.31383
26.313829
26.313826
26.313823
26.313819
26.313817
26.313818
26.313848
26.313848
26.313847
26.313845
26.313843
26.31384
26.313837
26.313835
26.313837
26.313859
26.313859
26.313858
26.313856
26.313854
26.313852
26.31385
26.31385
26.313852
26.313868
26.313868
26.313867
26.313865
26.313863
26.313861
26.31386
26.313861
26.313864
26.313874
26.313875
26.313874
26.313872
26.31387
26.313869
26.313869
26.313871
26.313875
26.313879
26.313879
26.313879
26.313878
26.313876
26.313875
26.313876
26.313879
26.313883
26.313882
26.313883
26.313883
26.313882
26.313881
26.313881
26.313882
26.313886
26.31389
26.313885
26.313886
26.313886
26.313885
26.313884
26.313885
26.313887
26.313892
26.313896
26.313887
26.313888
26.313888
26.313888
26.313887
26.313888
26.313892
26.313896
26.3139
26.313889
26.31389
26.31389
26.31389
26.31389
26.313891
26.313895
26.3139
26.313904
26.31389
26.313891
26.313891
26.313891
26.313892
26.313893
26.313897
26.313902
26.313906
26.313891
26.313892
26.313893
26.313893
26.313893
26.313895
26.313899
26.313904
26.313908
26.313892
26.313893
26.313893
26.313893
26.313894
26.313896
26.3139
26.313905
26.313909
26.313892
26.313893
26.313894
26.313894
26.313894
26.313896
26.3139
26.313904
26.313908
26.313893
26.313894
26.313894
26.313894
26.313894
26.313896
26.313899
26.313904
26.313907
26.313893
26.313894
26.313894
26.313894
26.313894
26.313895
26.313898
26.313902
26.313906
26.313892
26.313893
26.313893
26.313893
26.313892
26.313893
26.313895
26.313899
26.313903
26.313892
26.313893
26.313892
26.313892
26.313891
26.313891
26.313892
26.313895
26.313899
26.31389
26.313891
26.313891
26.31389
26.313888
26.313888
26.313888
26.313891
26.313894
26.313888
26.313889
26.313888
26.313887
26.313885
26.313883
26.313883
26.313885
26.313887
26.313884
26.313884
26.313884
26.313882
26.31388
26.313878
26.313877
26.313877
26.313879
26.313878
26.313878
26.313877
26.313876
26.313873
26.313871
26.313868
26.313867
26.313869
26.31387
26.31387
26.313869
26.313867
26.313864
26.313861
26.313858
26.313855
26.313856
26.313854
26.313854
26.313854
26.313852
26.31385
26.313846
26.313842
26.313839
26.31384
24.617861
24.617861
24.617861
24.617861
24.617861
24.617862
24.617863
24.617864
24.617864
24.617867
24.617868
24.617868
24.617868
24.617868
24.617868
24.617868
24.617868
24.617869
24.617873
24.617873
24.617874
24.617874
24.617874
24.617874
24.617873
24.617873
24.617872
24.617879
24.617879
24.61788
24.61788
24.61788
24.61788
24.617879
24.617877
24.617877
24.617885
24.617885
24.617886
24.617886
24.617886
24.617886
24.617885
24.617883
24.617881
24.61789
24.617891
24.617891
24.617892
24.617892
24.617892
24.61789
24.617888
24.617886
24.617895
24.617896
24.617897
24.617897
24.617898
24.617897
24.617896
24.617893
24.61789
24.6179
24.6179
24.617901
24.617902
24.617903
24.617902
24.6179
24.617897
24.617894
24.617903
24.617904
24.617905
24.617906
24.617907
24.617907
24.617905
24.617901
24.617898
24.617906
24.617907
24.617908
24.61791
24.61791
24.61791
24.617908
24.617905
24.617901
24.617909
24.617909
24.617911
24.617912
24.617913
24.617913
24.617911
24.617907
24.617903
24.61791
24.617911
24.617912
24.617914
24.617915
24.617915
24.617912
24.617909
24.617905
24.617911
24.617912
24.617913
24.617914
24.617916
24.617915
24.617913
24.617909
24.617905
24.617911
24.617912
24.617913
24.617914
24.617915
24.617915
24.617913
24.617909
24.617905
24.61791
24.617911
24.617912
24.617914
24.617914
24.617914
24.617912
24.617908
24.617904
24.617909
24.617909
24.617911
24.617912
24.617913
24.617913
24.61791
24.617907
24.617903
24.617907
24.617907
24.617909
24.61791
24.61791
24.61791
24.617908
24.617904
24.617901
24.617904
24.617905
24.617906
24.617907
24.617907
24.617907
24.617905
24.617902
24.617898
24.617901
24.617902
24.617903
24.617904
24.617904
24.617904
24.617902
24.617898
24.617895
24.617898
24.617899
24.6179
24.6179
24.6179
24.6179
24.617898
24.617895
24.617893
24.617895
24.617895
24.617896
24.617897
24.617897
24.617896
24.617894
24.617892
24.61789
24.617892
24.617892
24.617892
24.617893
24.617893
24.617892
24.617891
24.61789
24.617888
24.617889
24.617889
24.617889
24.617889
24.617889
24.617889
24.617888
24.617888
24.617887
24.617884
24.617884
24.617884
24.617884
24.617885
24.617885
24.617886
24.617886
24.617885
22.918484
22.918484
22.918484
22.918483
22.918483
22.918483
22.918482
22.918481
22.918481
22.918489
22.918488
22.918488
22.918488
22.918487
22.918487
22.918486
22.918486
22.918486
22.918493
22.918492
22.918492
22.918491
22.918491
22.918491
22.91849
22.91849
22.918489
22.918497
22.918496
22.918496
22.918495
22.918495
22.918495
22.918494
22.918494
22.918493
22.9185
22.9185
22.918499
22.918499
22.918499
22.918499
22.918498
22.918497
22.918496
22.918503
22.918503
22.918503
22.918502
22.918502
22.918502
22.918502
22.918501
22.9185
22.918506
22.918506
22.918506
22.918505
22.918505
22.918506
22.918505
22.918505
22.918503
22.918509
22.918509
22.918508
22.918508
22.918508
22.918508
22.918508
22.918508
22.918506
22.918511
22.918511
22.918511
22.91851
22.918511
22.918511
22.918511
22.91851
22.918508
22.918513
22.918513
22.918512
22.918512
22.918513
22.918513
22.918513
22.918512
22.91851
22.918514
22.918514
22.918514
22.918514
22.918514
22.918515
22.918515
22.918514
22.918511
22.918515
22.918515
22.918515
22.918515
22.918515
22.918516
22.918516
22.918515
22.918512
22.918516
22.918516
22.918516
22.918516
22.918516
22.918517
22.918517
22.918516
22.918513
22.918516
22.918516
22.918516
22.918516
22.918516
22.918517
22.918517
22.918516
22.918513
22.918516
22.918516
22.918516
22.918516
22.918516
22.918517
22.918517
22.918516
22.918513
22.918516
22.918516
22.918516
22.918516
22.918516
22.918516
22.918516
22.918515
22.918512
22.918515
22.918515
22.918515
22.918515
22.918515
22.918515
22.918515
22.918514
22.918511
22.918514
22.918514
22.918514
22.918514
22.918514
22.918514
22.918514
22.918512
22.91851
22.918513
22.918513
22.918513
22.918513
22.918513
22.918513
22.918512
22.918511
22.918508
22.918512
22.918512
22.918512
22.918512
22.918512
22.918511
22.91851
22.918509
22.918507
22.918511
22.918511
22.91851
22.91851
22.91851
22.918509
22.918508
22.918507
22.918505
22.91851
22.918509
22.918509
22.918509
22.918508
22.918508
22.918507
22.918505
22.918504
22.918508
22.918508
22.918507
22.918507
22.918507
22.918506
22.918505
22.918504
22.918502
22.918506
22.918505
22.918505
22.918505
22.918504
22.918504
22.918503
22.918502
22.9185
21.221591
21.221591
21.221591
21.221591
21.221591
21.221591
21.221592
21.221593
21.221593
21.221591
21.221591
21.221592
21.221592
21.221591
21.221591
21.221592
21.221593
21.221594
21.221592
21.221592
21.221592
21.221592
21.221592
21.221592
21.221592
21.221593
21.221594
21.221592
21.221593
21.221593
21.221593
21.221593
21.221593
21.221593
21.221593
21.221595
21.221593
21.221593
21.221593
21.221594
21.221593
21.221593
21.221593
21.221594
21.221595
21.221593
21.221594
21.221594
21.221594
21.221594
21.221594
21.221594
21.221594
21.221595
21.221594
21.221594
21.221594
21.221595
21.221594
21.221594
21.221594
21.221595
21.221596
21.221594
21.221595
21.221595
21.221595
21.221595
21.221595
21.221595
21.221595
21.221596
21.221595
21.221595
21.221595
21.221596
21.221596
21.221595
21.221595
21.221596
21.221597
21.221595
21.221596
21.221596
21.221596
21.221596
21.221596
21.221596
21.221596
21.221597
21.221596
21.221596
21.221596
21.221597
21.221597
21.221597
21.221596
21.221597
21.221598
21.221596
21.221597
21.221597
21.221597
21.221597
21.221597
21.221597
21.221597
21.221598
21.221597
21.221597
21.221597
21.221598
21.221598
21.221598
21.221598
21.221598
21.221599
21.221597
21.221598
21.221598
21.221598
21.221598
21.221598
21.221598
21.221598
21.221599
21.221598
21.221598
21.221599
21.221599
21.221599
21.221599
21.221599
21.221599
21.2216
21.221599
21.221599
21.2216
21.2216
21.2216
21.2216
21.2216
21.2216
21.2216
21.2216
21.2216
21.2216
21.221601
21.221601
21.221601
21.2216
21.2216
21.221601
21.2216
21.221601
21.221601
21.221602
21.221602
21.221601
21.221601
21.221601
21.221601
21.221602
21.221602
21.221602
21.221603
21.221603
21.221602
21.221602
21.221602
21.221602
21.221603
21.221603
21.221604
21.221604
21.221604
21.221604
21.221603
21.221603
21.221603
21.221604
21.221605
21.221605
21.221605
21.221605
21.221605
21.221604
21.221604
21.221605
21.221606
21.221606
21.221606
21.221606
21.221606
21.221606
21.221606
21.221606
21.221606
21.221607
21.221607
21.221607
21.221607
21.221607
21.221607
21.221607
21.221607
21.221608
21.221608
21.221608
21.221608
21.221608
21.221608
21.221608
21.221608
21.221609
21.221609
19.523154
19.523154
19.523154
19.523154
19.523154
19.523154
19.523154
19.523153
19.523153
19.523156
19.523156
19.523156
19.523156
19.523156
19.523156
19.523156
19.523155
19.523155
19.523158
19.523158
19.523157
19.523157
19.523157
19.523157
19.523157
19.523157
19.523156
19.52316
19.523159
19.523159
19.523159
19.523159
19.523159
19.523159
19.523159
19.523158
19.523161
19.523161
19.523161
19.523161
19.523161
19.523161
19.523161
19.52316
19.52316
19.523163
19.523163
19.523163
19.523163
19.523163
19.523162
19.523162
19.523162
19.523161
19.523165
19.523164
19.523164
19.523164
19.523164
19.523164
19.523164
19.523163
19.523162
19.523166
19.523166
19.523165
19.523165
19.523165
19.523165
19.523165
19.523165
19.523164
19.523167
19.523167
19.523167
19.523167
19.523167
19.523167
19.523166
19.523166
19.523165
19.523168
19.523168
19.523168
19.523168
19.523168
19.523168
19.523167
19.523167
19.523165
19.523169
19.523168
19.523168
19.523168
19.523168
19.523169
19.523168
19.523168
19.523166
19.523169
19.523169
19.523169
19.523169
19.523169
19.523169
19.523169
19.523168
19.523167
19.52317
19.523169
19.523169
19.523169
19.52317
19.52317
19.523169
19.523169
19.523167
19.52317
19.52317
19.52317
19.52317
19.52317
19.52317
19.52317
19.523169
19.523167
19.52317
19.52317
19.52317
19.52317
19.52317
19.52317
19.52317
19.523169
19.523167
19.52317
19.52317
19.52317
19.52317
19.52317
19.52317
19.52317
19.523169
19.523167
19.52317
19.52317
19.523169
19.523169
19.52317
19.52317
19.523169
19.523168
19.523167
19.523169
19.523169
19.523169
19.523169
19.523169
19.523169
19.523169
19.523168
19.523167
19.523169
19.523169
19.523169
19.523169
19.523169
19.523169
19.523168
19.523168
19.523166
19.523169
19.523168
19.523168
19.523168
19.523168
19.523168
19.523168
19.523167
19.523166
19.523168
19.523168
19.523168
19.523168
19.523168
19.523168
19.523167
19.523166
19.523165
19.523168
19.523168
19.523167
19.523167
19.523167
19.523167
19.523167
19.523166
19.523165
19.523167
19.523167
19.523167
19.523167
19.523167
19.523167
19.523166
19.523166
19.523165
19.523167
19.523167
19.523167
19.523167
19.523167
19.523166
19.523166
19.523165
19.523164
17.8256
17.8256
17.8256
17.8256
17.8256
17.8256
17.825601
17.825601
17.825601
17.8256
17.8256
17.8256
17.8256
17.8256
17.8256
17.825601
17.825601
17.825601
17.8256
17.8256
17.8256
17.8256
17.8256
17.8256
17.8256
17.825601
17.825601
17.8256
17.825601
17.825601
17.825601
17.825601
17.8256
17.825601
17.825601
17.825601
17.825601
17.825601
17.825601
17.825601
17.825601
17.825601
17.825601
17.825601
17.825601
17.825601
17.825601
17.825601
17.825601
17.825601
17.825601
17.825601
17.825601
17.825602
17.825601
17.825601
17.825601
17.825601
17.825601
17.825601
17.825601
17.825601
17.825602
17.825601
17.825601
17.825601
17.825601
17.825601
17.825601
17.825601
17.825601
17.825602
17.825601
17.825601
17.825601
17.825601
17.825601
17.825601
17.825601
17.825601
17.825602
17.825601
17.825601
17.825601
17.825601
17.825601
17.825601
17.825601
17.825601
17.825602
17.825601
17.825601
17.825601
17.825601
17.825601
17.825601
17.825601
17.825602
17.825602
17.825601
17.825601
17.825602
17.825602
17.825602
17.825602
17.825602
17.825602
17.825602
17.825602
17.825602
17.825602
17.825602
17.825602
17.825602
17.825602
17.825602
17.825603
17.825602
17.825602
17.825602
17.825602
17.825602
17.825602
17.825602
17.825602
17.825603
17.825602
17.825602
17.825603
17.825603
17.825603
17.825603
17.825603
17.825603
17.825603
17.825603
17.825603
17.825603
17.825603
17.825603