/*--------------------------------*- C++ -*----------------------------------*\
| =========                 |                                                 |
| \\      /  F ield         | OpenFOAM: The Open Source CFD Toolbox           |
|  \\    /   O peration     | Version:  2406                                  |
|   \\  /    A nd           | Website:  www.openfoam.com                      |
|    \\/     M anipulation  |                                                 |
\*---------------------------------------------------------------------------*/
FoamFile
{
    version     2.0;
    format      ascii;
    arch        "LSB;label=32;scalar=64";
    class       surfaceScalarField;
    location    "2.5";
    object      phi;
}
// * * * * * * * * * * * * * * * * * * * * * * * * * * * * * * * * * * * * * //

dimensions      [0 3 -1 0 0 0 0];

oriented        oriented;

internalField   nonuniform List<scalar> 
101088
(
-2.0817416e-05
-3.4285227e-06
8.133619e-06
3.932778e-06
-7.2484607e-05
-8.1744301e-06
3.1212887e-05
1.1584809e-05
-0.00017166844
-5.0664492e-07
6.4371644e-05
1.2137275e-05
-0.00032582976
4.3715052e-05
9.4614201e-05
-1.4455614e-05
-0.00051575645
0.00014341732
9.8230534e-05
-8.9183844e-05
-0.00068400377
0.00027445194
5.2989022e-05
-0.00020235133
-0.00077316865
0.00038050929
-2.864608e-05
-0.00030830592
-0.00077615819
0.00042909882
-0.00010326639
-0.00036661433
0.00042156539
-0.00013643932
-0.00037534861
-0.00072404515
-2.5024422e-05
-3.4787401e-06
1.0134038e-05
-8.6331658e-05
-6.0019971e-06
3.8255078e-05
-0.00020264288
1.0323116e-05
7.7120212e-05
-0.00037872216
7.3970878e-05
0.00010879856
-0.00058503205
0.00019884656
0.00010506126
-0.00075049384
0.00034458407
4.2384511e-05
-0.0008190483
0.00045095385
-5.823677e-05
-0.00079700995
0.0004973221
-0.00014502248
0.00049113528
-0.00018266393
-0.000732485
-2.9615688e-05
-3.9453309e-06
1.2354725e-05
-0.0001008017
-5.7101147e-06
4.6160651e-05
-0.00023255133
1.6895852e-05
9.1646261e-05
-0.00042501859
9.7287006e-05
0.00012546373
-0.00063993802
0.0002448573
0.00011492671
-0.00079862578
0.00040426355
3.6652104e-05
-0.00084976179
0.00051556086
-7.9966342e-05
-0.00081078226
0.0005698324
-0.00017642663
0.00057468404
-0.00021747662
-0.00073493176
-3.4269946e-05
-4.8100857e-06
1.4687477e-05
-0.00011549191
-7.5395367e-06
5.4572528e-05
-0.00026201291
1.7512213e-05
0.00010737843
-0.00046765862
0.0001086598
0.00014419983
-0.00068558478
0.00027297111
0.00012809305
-0.00083582529
0.0004465487
3.679143e-05
-0.0008742765
0.00057114667
-9.2969332e-05
-0.00082494483
0.00064351924
-0.00019716741
0.00066512276
-0.00024102883
-0.00074088711
-3.8393815e-05
-6.5668817e-06
1.7123287e-05
-0.00012809361
-1.342378e-05
6.3565189e-05
-0.00028662753
8.122698e-06
0.00012469854
-0.00050239366
0.00010235088
0.00016603316
-0.00072240132
0.00027825818
0.000145833
-0.00086880324
0.00046943525
4.4284171e-05
-0.00090286731
0.00061745234
-9.6514483e-05
-0.00085097681
0.00071657415
-0.00020728301
0.000757244
-0.00025343187
-0.00076359744
-4.2335539e-05
-9.3640221e-06
1.9712634e-05
-0.00014038081
-2.409273e-05
7.3419391e-05
-0.00031120767
-1.2949079e-05
0.00014434577
-0.00054040697
7.5841784e-05
0.00019420833
-0.00076675076
0.00026001629
0.00016918977
-0.00091701759
0.00047308929
6.0142544e-05
-0.00095481964
0.00065313465
-8.962655e-05
-0.00090565683
0.0007833256
-0.00020539791
0.00084133584
-0.00025348697
-0.00081654655
-4.6322942e-05
-1.3084891e-05
2.2499448e-05
-0.0001538889
-3.9142977e-05
8.4420961e-05
-0.00034078894
-4.4690695e-05
0.00016726473
-0.00059069914
3.0753573e-05
0.00022869626
-0.00083191228
0.00021992619
0.00020022509
-0.00099703427
0.00045717327
8.8299548e-05
-0.0010469761
0.00067328423
-6.8351711e-05
-0.0010042962
0.00083340912
-0.00018828665
0.00090431666
-0.00023873902
-0.00091412169
-5.0944486e-05
-1.7100112e-05
2.5588946e-05
-0.00017181352
-5.6054823e-05
9.7098991e-05
-0.00038487232
-8.1190763e-05
0.00019491867
-0.00067134646
-2.5031678e-05
0.00027187151
-0.00094725993
0.00016177235
0.00024818089
-0.0011401188
0.00041921542
0.0001328105
-0.0012083001
0.0006661014
-2.8106498e-05
-0.0011711405
0.00084722629
-0.00015147199
0.00092360087
-0.00020529899
-0.0010750202
-5.7145222e-05
-1.9816695e-05
2.8994015e-05
-0.00019935187
-6.8122988e-05
0.00011155692
-0.00045620481
-0.00010900441
0.00022736052
-0.00080512506
-7.4486e-05
0.00032466046
-0.0011431884
9.8330185e-05
0.00031172358
-0.0013779918
0.00035605661
0.00019571601
-0.0014664057
0.00061128948
3.5498891e-05
-0.0014273631
0.00079378809
-9.0036699e-05
0.00086550068
-0.0001488607
-0.0013136758
-6.5589022e-05
-1.8728571e-05
3.2489564e-05
-0.00023900476
-6.5752216e-05
0.00012677397
-0.00055978708
-0.00011013717
0.00026257823
-0.0010009782
-9.384573e-05
0.00038430893
-0.0014333298
4.4207342e-05
0.00039374104
-0.0017187047
0.00026608531
0.00026990515
-0.0018236003
0.00048404569
0.00012122581
-0.0017704212
0.00063753882
-4.2872031e-06
0.0006929022
-6.9904232e-05
-0.0016236808
-7.5408794e-05
-1.1668e-05
3.5570032e-05
-0.00028550426
-4.1342044e-05
0.00014037315
-0.00068022522
-7.0730647e-05
0.00029461781
-0.0012261822
-6.5293155e-05
0.00043947461
-0.0017585291
1.3498813e-05
0.0004683542
-0.0021006452
0.0001444996
0.00035613794
-0.0022128606
0.0002708872
0.0002123529
-0.0021363202
0.00036127143
9.0445778e-05
0.00039076766
1.7348919e-05
-0.0019489228
-8.2258276e-05
-1.5690312e-10
3.7425118e-05
-0.00031814618
-7.0477849e-10
0.00014870801
-0.00076486932
-1.7563114e-09
0.0003146099
-0.0013831501
-3.2207495e-09
0.00047421004
-0.0019821617
-4.4180389e-09
0.00051682298
-0.0023652369
-4.8840642e-09
0.00041894842
-0.0024778011
-4.761733e-09
0.00026937769
-0.0023828892
-4.5525189e-09
0.00015612016
-4.4950645e-09
7.7887554e-05
-0.0021682039
-8.2258058e-05
1.1667653e-05
3.7425105e-05
-0.00031814587
4.134053e-05
0.00014870796
-0.00076486949
7.0727002e-05
0.00031460978
-0.0013831499
6.5286657e-05
0.00047420983
-0.0019821614
-1.3507216e-05
0.00051682268
-0.0023652366
-0.00014450877
0.00041894811
-0.0024778011
-0.00027089615
0.00026937744
-0.0023828892
-0.00036128025
0.00015611992
-0.00039077659
7.7887319e-05
-0.0021682038
-7.540815e-05
1.8728122e-05
3.5570014e-05
-0.00028550355
6.5750394e-05
0.00014037307
-0.00068022573
0.0001101333
0.0002946176
-0.0012261821
9.3839808e-05
0.00043947423
-0.001758529
-4.4214723e-05
0.00046835362
-0.0021006452
-0.00026609334
0.00035613733
-0.002212861
-0.0004840537
0.00021235236
-0.0021363205
-0.00063754724
9.0445222e-05
-0.00069291103
1.7348346e-05
-0.0019489231
-6.5588158e-05
1.9816346e-05
3.248954e-05
-0.00023900387
6.8121433e-05
0.00012677385
-0.00055978741
0.00010900126
0.00026257793
-0.0010009774
7.4481354e-05
0.00038430842
-0.0014333299
-9.83364e-05
0.00039374026
-0.0017187048
-0.00035606354
0.00026990438
-0.0018236009
-0.00061129652
0.00012122512
-0.0017704222
-0.00079379592
-4.2878681e-06
-0.00086550897
-6.9904921e-05
-0.0016236822
-5.7144746e-05
1.7099935e-05
2.8993997e-05
-0.00019935172
5.6053808e-05
0.00011155683
-0.00045620549
8.1188298e-05
0.00022736026
-0.00080512496
2.5027395e-05
0.00032466
-0.0011431897
-0.00016177824
0.00031172279
-0.0013779926
-0.00041922118
0.00019571534
-0.001466407
-0.00066610723
3.5498264e-05
-0.0014273646
-0.00084723333
-9.0037303e-05
-0.00092360855
-0.00014886134
-0.001313678
-5.0944789e-05
1.3084748e-05
2.558893e-05
-0.00017181496
3.9142262e-05
9.7098911e-05
-0.00038487357
4.4688417e-05
0.00019491846
-0.00067134745
-3.0757743e-05
0.00027187112
-0.00094726199
-0.00021993095
0.00024818035
-0.0011401202
-0.00045717676
0.00013280994
-0.001208302
-0.00067328841
-2.8107018e-05
-0.0011711425
-0.00083341534
-0.00015147249
-0.00090432459
-0.00020529952
-0.0010750225
-4.6324204e-05
9.3639295e-06
2.2499437e-05
-0.00015389108
2.4092492e-05
8.4420911e-05
-0.00034078909
1.2948281e-05
0.0001672646
-0.00059069997
-7.5843747e-05
0.00022869598
-0.00083191371
-0.00026001856
0.00020022467
-0.00099703609
-0.00047309093
8.8299089e-05
-0.0010469785
-0.00065313786
-6.8352142e-05
-0.0010042985
-0.00078333141
-0.00018828706
-0.00084134486
-0.00023873941
-0.00091412415
-4.2335526e-05
6.5668817e-06
1.9712629e-05
-0.00014038026
1.3423935e-05
7.341936e-05
-0.00031120677
-8.1226586e-06
0.00014434568
-0.00054040719
-0.0001023519
0.00019420812
-0.00076675169
-0.00027825927
0.00016918947
-0.00091701965
-0.00046943642
6.0142167e-05
-0.00095482195
-0.0006174551
-8.9626924e-05
-0.00090565903
-0.00071657967
-0.00020539826
-0.00075725346
-0.00025348728
-0.00081654949
-3.8394073e-05
4.8099793e-06
1.7123275e-05
-0.00012809469
7.5392605e-06
6.3565136e-05
-0.00028662852
-1.7512475e-05
0.00012469842
-0.00050239274
-0.00010866021
0.00016603295
-0.00072240241
-0.0002729719
0.00014583271
-0.00086880433
-0.00044654885
4.4283834e-05
-0.00090286852
-0.00057114818
-9.6514823e-05
-0.00085097816
-0.00064352478
-0.00020728332
-0.00066513236
-0.00025343215
-0.00076359902
-3.4269994e-05
3.9453072e-06
1.4687465e-05
-0.00011549199
5.7101722e-06
5.4572476e-05
-0.00026201257
-1.6895388e-05
0.00010737831
-0.00046765732
-9.7286424e-05
0.00014419963
-0.00068558418
-0.00024485731
0.00012809279
-0.00083582502
-0.0004042634
3.6791112e-05
-0.00087427684
-0.00051556226
-9.2969674e-05
-0.00082494617
-0.00056983796
-0.00019716773
-0.00057469184
-0.00024102912
-0.00074088688
-2.9615489e-05
3.4787786e-06
1.2354712e-05
-0.00010080155
6.0021713e-06
4.6160598e-05
-0.00023255171
-1.0322787e-05
9.1646139e-05
-0.00042501872
-7.3970555e-05
0.00012546352
-0.0006399367
-0.00019884642
0.00011492644
-0.00079862555
-0.00034458394
3.6651788e-05
-0.00084976203
-0.00045095405
-7.9966676e-05
-0.000810784
-0.0004973287
-0.00017642693
-0.00049114293
-0.00021747692
-0.00073493338
-2.5024442e-05
3.4285182e-06
1.0134027e-05
-8.6331954e-05
8.1744457e-06
3.8255035e-05
-0.00020264389
5.066399e-07
7.712011e-05
-0.00037872334
-4.3715098e-05
0.00010879838
-0.00058503206
-0.0001434173
0.00010506103
-0.0007504931
-0.00027445203
4.2384227e-05
-0.00081904867
-0.00038051053
-5.823706e-05
-0.0007970086
-0.00042910155
-0.00014502279
-0.00042157082
-0.0001826642
-0.00073248438
-2.08175e-05
8.1336113e-06
3.9327353e-06
-7.2485054e-05
3.1212855e-05
1.158469e-05
-0.00017166944
6.4371573e-05
1.2137051e-05
-0.00032583058
9.4614082e-05
-1.4455849e-05
-0.00051575736
9.8230372e-05
-8.9183642e-05
-0.00068400464
5.2988818e-05
-0.00020235025
-0.00077316684
-2.8646277e-05
-0.00030830577
-0.00077616003
-0.00010326659
-0.00036661912
-0.00013643948
-0.00037535302
-0.00072404764
1.0197751e-06
-3.8394516e-08
7.9312934e-06
-7.7906538e-07
4.0273776e-06
-1.0904666e-06
3.2045671e-05
-2.7499409e-06
9.7133643e-06
-5.7946526e-06
6.8913788e-05
-4.4335463e-06
1.807219e-05
-2.1026903e-05
0.00010852211
-1.2400976e-06
2.94466e-05
-5.8532586e-05
0.00012889997
1.6487859e-05
4.7620469e-05
-0.00012591642
0.00010236365
5.8366436e-05
7.2297076e-05
-0.00021106004
3.7478225e-05
0.00012025852
0.00010215015
-0.00028274059
-3.1355768e-05
0.00018097782
-0.00031850369
-6.9803002e-05
0.00022129008
0.00013272697
1.6245185e-06
-1.1514763e-06
9.6226522e-06
6.8260354e-06
-6.4584634e-06
3.8421847e-05
1.6944665e-05
-2.0078769e-05
8.128642e-05
3.1026599e-05
-5.1250356e-05
0.00012494116
4.8283235e-05
-0.00011243313
0.00014170602
6.9544211e-05
-0.00020644179
0.00010164968
9.3120428e-05
-0.00031156023
1.8688699e-05
0.00011955249
-0.00039042453
-6.3771509e-05
-0.00042148645
-0.00010728787
0.00014715822
2.4934597e-06
-2.6644637e-06
1.1374169e-05
1.0735757e-05
-1.3595369e-05
4.5055157e-05
2.6697672e-05
-3.8628654e-05
9.4233988e-05
4.7594356e-05
-8.9102554e-05
0.00014241805
7.0177799e-05
-0.00017662227
0.00015653012
9.2312135e-05
-0.00029636929
0.0001044454
0.00011191667
-0.00041688532
5.7530253e-06
0.00013200912
-0.00049854819
-8.8395181e-05
-0.00052320806
-0.00013639738
0.0001526501
3.5911474e-06
-4.6084198e-06
1.3040375e-05
1.5772826e-05
-2.2553476e-05
5.1349228e-05
3.9308648e-05
-6.1263156e-05
0.00010647737
6.8845352e-05
-0.00013337139
0.0001589319
9.7138146e-05
-0.00024788231
0.00017106106
0.00011929186
-0.00039029491
0.00010856403
0.00013343721
-0.00052094828
-3.0514483e-06
0.00014555021
-0.0006014399
-0.00010638874
-0.0006183489
-0.00015799436
0.00015765663
4.824087e-06
-6.8678187e-06
1.4558769e-05
2.1550788e-05
-3.2802807e-05
5.7088304e-05
5.3966897e-05
-8.6604346e-05
0.00011762349
9.3863579e-05
-0.00018115213
0.00017391537
0.00012806221
-0.00032079197
0.00018454473
0.00014994301
-0.00048098027
0.00011308828
0.0001582224
-0.00061672699
-9.0153135e-06
0.00016211832
-0.000693316
-0.00011930232
-0.00070175883
-0.00017348044
0.00016557732
6.2964616e-06
-9.3762006e-06
1.5924582e-05
2.848863e-05
-4.3819026e-05
6.2243155e-05
7.1458356e-05
-0.00011284197
0.00012761318
0.00012526019
-0.00022804141
0.00018729594
0.0001652458
-0.00038830699
0.00019671966
0.0001865711
-0.00055957645
0.00011741424
0.00018869981
-0.00069511518
-1.3366534e-05
0.00018431912
-0.00076547258
-0.00012886053
-0.00076518254
-0.00018460002
0.00017885659
7.8259155e-06
-1.1823997e-05
1.712184e-05
3.5826024e-05
-5.4165521e-05
6.6767448e-05
9.0159741e-05
-0.00013630877
0.00013639592
0.00015900592
-0.00026726589
0.00019907399
0.00020385248
-0.00044047825
0.00020755008
0.00022439504
-0.0006131301
0.00012131053
0.00022098379
-0.00074328277
-1.6772285e-05
0.0002096314
-0.00080619841
-0.00013620827
-0.00079789598
-0.00019270582
0.00019631279
9.2491492e-06
-1.3670922e-05
1.8186855e-05
4.2779965e-05
-6.1433256e-05
7.0836451e-05
0.00010826788
-0.00015127468
0.00014439644
0.00019129833
-0.00028832079
0.00020989573
0.00024160627
-0.00046057597
0.00021797174
0.00026038178
-0.00062454171
0.00012544618
0.00025251643
-0.00074443658
-1.9086783e-05
0.00023606719
-0.00079942626
-0.00014179451
-0.00078496603
-0.00019862801
0.00021646739
1.0198615e-05
-1.404055e-05
1.9164541e-05
4.7700458e-05
-6.2035253e-05
7.4657077e-05
0.00012155804
-0.00014986471
0.00015209336
0.00021610149
-0.00027850853
0.00022030441
0.00027240184
-0.00043350994
0.00022835849
0.00028889818
-0.00057561659
0.00013029469
0.0002787187
-0.00067891366
-1.9843929e-05
0.00025991177
-0.00072520444
-0.00014545129
-0.00070783424
-0.00020253268
0.00023645246
1.0382106e-05
-1.1992406e-05
2.0058849e-05
4.9100809e-05
-5.2235229e-05
7.8255448e-05
0.00012640692
-0.00012424472
0.0001596531
0.00022739703
-0.00022619272
0.00023100269
0.00029278353
-0.00034467175
0.0002395169
0.00030481925
-0.00045382088
0.00013607387
0.00029534139
-0.00052922781
-1.898181e-05
0.00027735074
-0.00056438159
-0.00014711948
-0.00054871197
-0.00020448585
0.00025280993
9.8830225e-06
-7.1049845e-06
2.0799487e-05
4.730606e-05
-3.0564446e-05
8.1279624e-05
0.00012332799
-7.1838218e-05
0.00016619036
0.00022498253
-0.00012898892
0.0002406164
0.00029361589
-0.00019412696
0.00024917614
0.00030768764
-0.00025348709
0.00014173232
0.00029963213
-0.00029174951
-1.7069847e-05
0.00028521869
-0.00031247285
-0.00014704985
-0.00030342446
-0.00020468763
0.00026196737
9.0847937e-06
1.51913e-11
2.1235425e-05
4.4114147e-05
1.1093476e-10
8.3114124e-05
0.00011660037
2.9811951e-10
0.00017028557
0.00021499199
6.9362016e-10
0.00024682919
0.00028205438
1.5782925e-09
0.00025563222
0.00030192083
2.7294735e-09
0.00014559217
0.00029524815
3.459682e-09
-1.5702519e-05
0.00028563251
3.3069508e-09
-0.00014674062
2.4302008e-09
-0.00020453055
0.00026462354
9.0847985e-06
7.1049937e-06
2.1235421e-05
4.4114193e-05
3.0564603e-05
8.3114109e-05
0.00011660033
7.183875e-05
0.00017028553
0.00021499201
0.00012899033
0.00024682914
0.00028205436
0.00019413026
0.00025563217
0.00030192077
0.00025349271
0.00014559214
0.00029524802
0.00029175653
-1.5702528e-05
0.00028563232
0.00031247941
-0.00014674063
0.00030342922
-0.00020453057
0.00026462336
9.8832294e-06
1.1992355e-05
2.0799485e-05
4.7306338e-05
5.2235191e-05
8.1279611e-05
0.00012332792
0.00012424507
0.00016619032
0.00022498272
0.00022619427
0.00024061634
0.00029361584
0.00034467545
0.00024917606
0.00030768743
0.0004538268
0.00014173227
0.00029963166
0.00052923491
-1.7069891e-05
0.00028521814
0.00056438792
-0.00014704989
0.00054871644
-0.00020468769
0.00026196692
1.0382662e-05
1.4040515e-05
2.0058842e-05
4.9101428e-05
6.2035205e-05
7.8255419e-05
0.00012640694
0.0001498651
0.00015965303
0.00022739744
0.00027851032
0.0002310026
0.0002927832
0.00043351373
0.00023951677
0.00030481872
0.00057562227
0.00013607376
0.00029534045
0.00067892029
-1.8981883e-05
0.0002773499
0.00072521025
-0.00014711954
0.00070783825
-0.00020448592
0.00025280944
1.0199166e-05
1.3670976e-05
1.9164537e-05
4.7700963e-05
6.1433422e-05
7.4657059e-05
0.00012155808
0.00015127521
0.00015209331
0.00021610194
0.00028832239
0.00022030434
0.00027240105
0.00046057914
0.00022835835
0.00028889732
0.00062454686
0.00013029457
0.0002787174
0.00074444269
-1.9844031e-05
0.00025991084
0.00079943164
-0.00014545136
0.00078496946
-0.00020253276
0.00023645211
9.2491453e-06
1.1824015e-05
1.818685e-05
4.2779429e-05
5.4165615e-05
7.083643e-05
0.00010826753
0.00013630898
0.00014439639
0.00019129836
0.00026726684
0.00020989565
0.00024160518
0.00044048085
0.0002179716
0.0002603808
0.00061313524
0.00012544606
0.0002525151
0.00074328887
-1.9086907e-05
0.00023606642
0.00080620356
-0.0001417946
0.00079789832
-0.0001986281
0.0002164672
7.8253862e-06
9.3762285e-06
1.7121836e-05
3.582505e-05
4.3819281e-05
6.6767433e-05
9.0159908e-05
0.00011284254
0.00013639589
0.00015900605
0.0002280426
0.00019907393
0.00020385183
0.00038830983
0.00020754996
0.00022439419
0.00055958189
0.0001213104
0.00022098262
0.00069512127
-1.6772425e-05
0.0002096307
0.00076547719
-0.00013620837
0.00076518318
-0.0001927059
0.00019631234
6.2963962e-06
6.8678303e-06
1.592458e-05
2.8488725e-05
3.2803063e-05
6.2243146e-05
7.1458814e-05
8.6604936e-05
0.00012761316
0.00012526057
0.00018115328
0.0001872959
0.0001652457
0.00032079498
0.00019671954
0.00018657042
0.00048098548
0.00011741409
0.0001886989
0.00061673261
-1.33667e-05
0.00018431855
0.00069331971
-0.00012886065
0.00070175831
-0.0001846001
0.00017885593
4.8239238e-06
4.6084195e-06
1.4558761e-05
2.1550251e-05
2.255364e-05
5.7088272e-05
5.3966428e-05
6.1263826e-05
0.00011762342
9.3864367e-05
0.00013337302
0.00017391526
0.00012806189
0.00024788534
0.00018454453
0.00014994257
0.00039030007
0.0001130881
0.00015822191
0.0005209535
-9.0155009e-06
0.00016211832
0.00060144239
-0.00011930245
0.00061834808
-0.00017348052
0.00016557754
3.5911675e-06
2.6644217e-06
1.3040365e-05
1.5772871e-05
1.3595425e-05
5.1349187e-05
3.9308746e-05
3.862919e-05
0.00010647728
6.8845829e-05
8.9103863e-05
0.00015893175
9.7138233e-05
0.00017662472
0.00017106084
0.00011929182
0.00029637379
0.0001085638
0.00013343732
0.00041688989
-3.0516526e-06
0.00014555077
0.00049855033
-0.00010638888
0.00052320788
-0.00015799446
0.00015765788
2.4934968e-06
1.1515172e-06
1.1374159e-05
1.0735605e-05
6.458735e-06
4.5055115e-05
2.6697021e-05
2.0079552e-05
9.4233893e-05
4.7593773e-05
5.1252009e-05
0.00014241788
7.0178195e-05
0.00011243615
0.00015652988
9.2311769e-05
0.0002064464
0.00010444516
0.00011191637
0.00031156507
5.7527996e-06
0.00013200902
0.00039042593
-8.839535e-05
0.00042148518
-0.00013639751
0.00015265023
1.6244907e-06
3.8419232e-08
9.6226442e-06
6.8257865e-06
1.0906519e-06
3.8421815e-05
1.6943873e-05
5.7951784e-06
8.1286342e-05
3.1025625e-05
2.102807e-05
0.00012494102
4.8282653e-05
5.8535014e-05
0.0001417058
6.9543657e-05
0.00012592028
0.00010164946
9.3119436e-05
0.00021106356
1.8688482e-05
0.00011955322
0.00028274337
-6.3771697e-05
0.00031850293
-0.00010728798
0.00014715954
1.0197138e-06
7.9312885e-06
-7.7905925e-07
4.0271086e-06
3.2045651e-05
-2.7498354e-06
9.7128811e-06
6.8913743e-05
-4.4331709e-06
1.8072106e-05
0.00010852204
-1.2390958e-06
2.9446576e-05
0.00012889985
1.6490064e-05
4.7620965e-05
0.00010236351
5.8370266e-05
7.2299178e-05
3.7478096e-05
0.00012026256
0.00010215123
-3.1355887e-05
0.00018097883
-6.9803066e-05
0.00022128978
0.00013272861
1.2893125e-07
-1.4937805e-06
7.8979577e-06
1.3981826e-06
1.1756343e-06
-6.3434898e-06
3.134916e-05
5.993284e-06
3.6285729e-06
-1.4921777e-05
6.7149779e-05
1.4232797e-05
6.8569597e-06
-2.7433599e-05
0.00010614706
2.6580131e-05
1.1051388e-05
-4.1650398e-05
0.00012480607
4.1549502e-05
1.1356837e-05
-5.2606408e-05
9.9964151e-05
5.469988e-05
1.1002047e-05
-5.5854292e-05
3.2463192e-05
6.1223788e-05
1.281445e-05
-5.2166603e-05
-4.1188472e-05
6.0187029e-05
-4.6720551e-05
-8.2961074e-05
5.3765034e-05
1.8927789e-05
1.2615213e-07
-1.6139115e-06
9.6166421e-06
1.3027356e-06
-6.7674965e-06
3.7669317e-05
3.9609814e-06
-1.565974e-05
7.9366255e-05
7.2192549e-06
-2.8091635e-05
0.00012234108
1.0316434e-05
-4.1122865e-05
0.00013808131
8.4336538e-06
-4.9401261e-05
0.00010032725
5.490406e-06
-4.9202378e-05
1.4980252e-05
5.1431287e-06
-4.2945047e-05
-7.264616e-05
-3.6841845e-05
-0.00012081513
8.7915235e-06
1.223498e-07
-1.7484615e-06
1.1386341e-05
1.4636259e-06
-7.2533397e-06
4.4199645e-05
4.5344626e-06
-1.6547429e-05
9.2050656e-05
8.4195263e-06
-2.8948867e-05
0.00013938964
1.1675379e-05
-4.0604534e-05
0.00015275494
8.6889862e-06
-4.579526e-05
0.00010382555
3.8195983e-06
-4.1827357e-05
3.2467136e-06
1.1371884e-06
-3.2660682e-05
-9.5997186e-05
-2.5027058e-05
-0.00014945083
2.3753667e-06
1.2017405e-07
-1.8844471e-06
1.3056196e-05
1.6567926e-06
-7.7720089e-06
5.0331299e-05
5.2467153e-06
-1.7558703e-05
0.00010389871
9.9915845e-06
-3.0019493e-05
0.00015525741
1.4112635e-05
-4.023163e-05
0.00016656701
1.0762796e-05
-4.2140106e-05
0.00010825864
4.5430573e-06
-3.4165483e-05
-4.4936892e-06
-8.6594211e-08
-2.1931149e-05
-0.00011248868
-1.266494e-05
-0.00016988761
-5.5549301e-07
1.1682832e-07
-2.0031758e-06
1.4560693e-05
1.8632499e-06
-8.2696338e-06
5.583953e-05
6.045387e-06
-1.8618271e-05
0.00011450067
1.1811161e-05
-3.127044e-05
0.00016939972
1.7311151e-05
-4.0119979e-05
0.00017893309
1.4109507e-05
-3.8798034e-05
0.00011294749
7.0248542e-06
-2.6941933e-05
-9.154374e-06
7.8890982e-07
-1.1760494e-05
-0.00012323679
-1.0441791e-06
-0.00018318814
-1.1240371e-06
1.3876637e-07
-2.1039627e-06
1.5886606e-05
2.1743888e-06
-8.7319429e-06
6.0669764e-05
7.1088964e-06
-1.9680797e-05
0.00012374095
1.4106134e-05
-3.2600604e-05
0.00018162868
2.1359423e-05
-4.0227461e-05
0.00018957388
1.8639883e-05
-3.6009301e-05
0.00011734537
1.0806143e-05
-2.0731865e-05
-1.1742619e-05
3.0559383e-06
-3.1886162e-06
-0.00012968201
8.4954592e-06
-0.0001908916
-1.9192423e-07
1.8129316e-07
-2.159653e-06
1.6996339e-05
2.5457373e-06
-9.0201317e-06
6.4691177e-05
8.2833331e-06
-2.0419984e-05
0.00013139688
1.6594115e-05
-3.3527281e-05
0.00019168968
2.580448e-05
-4.015595e-05
0.00019826834
2.3683276e-05
-3.3716439e-05
0.00012113909
1.5202284e-05
-1.6103591e-05
-1.2919152e-05
6.0103946e-06
2.7715356e-06
-0.00013297628
1.475473e-05
-0.00019443532
1.4809945e-06
2.5374646e-07
-2.1363178e-06
1.7909813e-05
3.0353253e-06
-8.9668756e-06
6.8001775e-05
9.6575455e-06
-2.0351712e-05
0.00013770586
1.9281279e-05
-3.3307183e-05
0.00020005196
3.0569545e-05
-3.9067542e-05
0.00020559561
2.8978347e-05
-3.1395683e-05
0.00012471684
1.9776111e-05
-1.3101825e-05
-1.2885834e-05
9.1438677e-06
5.619679e-06
-0.00013401008
1.7072167e-05
-0.0001951586
3.3573909e-06
3.6788249e-07
-1.9849796e-06
1.8645199e-05
3.715588e-06
-8.3428023e-06
7.068534e-05
1.155498e-05
-1.8952434e-05
0.00014285483
2.2516899e-05
-3.0924682e-05
0.00020696012
3.5594268e-05
-3.5650673e-05
0.000211865
3.4195527e-05
-2.7941417e-05
0.00012823957
2.4146013e-05
-1.1015792e-05
-1.1879983e-05
1.2113491e-05
5.7136566e-06
-0.00013351251
1.565411e-05
-0.00019414762
5.1466238e-06
4.5129964e-07
-1.5882291e-06
1.9210673e-05
4.272822e-06
-6.678624e-06
7.2769891e-05
1.3245273e-05
-1.5170143e-05
0.00014689874
2.5538778e-05
-2.4690219e-05
0.00021247487
4.0531832e-05
-2.814424e-05
0.00021701795
3.9022795e-05
-2.1850737e-05
0.00013149259
2.7989686e-05
-8.6161184e-06
-1.0348075e-05
1.4686424e-05
4.0939566e-06
-0.00013219648
1.1493042e-05
-0.00019233035
6.6918755e-06
5.1736455e-07
-9.0156996e-07
1.9595436e-05
4.7249053e-06
-3.7873839e-06
7.4181035e-05
1.4707816e-05
-8.5942925e-06
0.00014963205
2.8386388e-05
-1.3958705e-05
0.00021620658
4.4720379e-05
-1.5835123e-05
0.00022053339
4.2933431e-05
-1.2191219e-05
0.00013385998
3.0968265e-05
-4.7848833e-06
-8.9357744e-06
1.666105e-05
2.1132038e-06
-0.00013076197
6.0474936e-06
-0.00019048133
7.9000992e-06
5.4088691e-07
-3.248855e-11
1.9793036e-05
4.9358463e-06
-6.922923e-11
7.4931968e-05
1.5488447e-05
-7.7795588e-11
0.00015113906
3.0011092e-05
3.8879891e-11
0.00021834816
4.7175104e-05
4.2708166e-10
0.00022263304
4.5179584e-05
9.4903438e-10
0.00013539577
3.262268e-05
1.186432e-09
-7.9315342e-06
1.7799629e-05
7.9917559e-10
-0.00012980525
-4.728117e-11
-0.00018935933
8.6758298e-06
5.4090007e-07
9.0150034e-07
1.9793033e-05
4.9358769e-06
3.7872328e-06
7.4931956e-05
1.5488469e-05
8.5941374e-06
0.00015113904
3.0011154e-05
1.3958852e-05
0.00021834812
4.7175126e-05
1.5836144e-05
0.000222633
4.5179525e-05
1.2193358e-05
0.00013539575
3.2622495e-05
4.7874967e-06
-7.9315467e-06
1.7799347e-05
-2.1114629e-06
-0.00012980525
-6.0475672e-06
-0.00018935934
8.6755954e-06
5.17447e-07
1.5881525e-06
1.9595435e-05
4.7250137e-06
6.6784493e-06
7.4181031e-05
1.4707863e-05
1.5170003e-05
0.00014963203
2.8386555e-05
2.4690556e-05
0.00021620656
4.4720364e-05
2.8145671e-05
0.00022053335
4.2933146e-05
2.1853405e-05
0.00013385994
3.0967608e-05
8.6192247e-06
-8.935813e-06
1.6660187e-05
-4.0919476e-06
-0.000130762
-1.1493109e-05
-0.00019048134
7.8994046e-06
4.5148463e-07
1.984919e-06
1.9210668e-05
4.273066e-06
8.3426616e-06
7.276987e-05
1.324545e-05
1.8952384e-05
0.0001468987
2.5539119e-05
3.0925253e-05
0.0002124748
4.053176e-05
3.5652461e-05
0.00021701786
3.9022266e-05
2.7944518e-05
0.00013149251
2.7988561e-05
1.1019315e-05
-1.0348136e-05
1.4685065e-05
-5.7114013e-06
-0.00013219652
-1.5654161e-05
-0.00019233037
6.6907635e-06
3.6805917e-07
2.1362895e-06
1.8645196e-05
3.7158298e-06
8.9668199e-06
7.0685325e-05
1.1555238e-05
2.0351765e-05
0.0001428548
2.2517272e-05
3.3307834e-05
0.00020696006
3.5593999e-05
3.9069413e-05
0.00021186491
3.4194721e-05
3.1399034e-05
0.00012823947
2.4144511e-05
1.310565e-05
-1.1880063e-05
1.2111785e-05
-5.61717e-06
-0.00013351256
-1.7072182e-05
-0.00019414765
5.1451646e-06
2.5377353e-07
2.1596122e-06
1.7909811e-05
3.0352771e-06
9.0200525e-06
6.8001763e-05
9.6576723e-06
2.0419973e-05
0.00013770583
1.9281461e-05
3.3527836e-05
0.0002000519
3.056909e-05
4.015786e-05
0.00020559551
2.8977362e-05
3.372015e-05
0.00012471672
1.9774465e-05
1.6107795e-05
-1.2885935e-05
9.142072e-06
-2.7687875e-06
-0.00013401015
-1.4754858e-05
-0.00019515863
3.3557213e-06
1.8118131e-07
2.1039374e-06
1.6996337e-05
2.5455138e-06
8.7319473e-06
6.4691169e-05
8.2834698e-06
1.968095e-05
0.00013139686
1.6594213e-05
3.2601327e-05
0.00019168963
2.5804086e-05
4.022966e-05
0.00019826826
2.3682327e-05
3.6013402e-05
0.00012113897
1.5200796e-05
2.0736361e-05
-1.2919277e-05
6.0087213e-06
3.1913941e-06
-0.00013297637
-8.4960502e-06
-0.00019443535
1.4793123e-06
1.3874796e-07
2.0031421e-06
1.5886607e-05
2.1743721e-06
8.269647e-06
6.0669764e-05
7.109007e-06
1.8618466e-05
0.00012374094
1.4106287e-05
3.1271296e-05
0.00018162865
2.1359205e-05
4.0122514e-05
0.0001895738
1.8639053e-05
3.8802411e-05
0.00011734523
1.0804915e-05
2.6946507e-05
-1.1742768e-05
3.0545024e-06
1.1763039e-05
-0.00012968211
1.0430399e-06
-0.00019089163
-1.9332836e-07
1.167817e-07
1.8844237e-06
1.4560688e-05
1.8631092e-06
7.7720568e-06
5.5839511e-05
6.04527e-06
1.7559056e-05
0.00011450063
1.1811411e-05
3.0020696e-05
0.00016939964
1.7310914e-05
4.0234405e-05
0.00017893295
1.4109161e-05
4.2144698e-05
0.0001129473
7.0240834e-06
3.4170316e-05
-9.1545432e-06
7.8792333e-07
2.1933407e-05
-0.00012323688
1.2663381e-05
-0.00018318816
-1.1247449e-06
1.201823e-07
1.7484324e-06
1.3056189e-05
1.6568005e-06
7.2533849e-06
5.0331272e-05
5.246682e-06
1.6547811e-05
0.00010389864
9.9916475e-06
2.8950089e-05
0.0001552573
1.4112561e-05
4.0607296e-05
0.00016656684
1.0762625e-05
4.5799841e-05
0.00010825844
4.5427999e-06
4.1832112e-05
-4.4938637e-06
-8.700303e-08
3.2662996e-05
-0.00011248877
2.5025409e-05
-0.00016988762
-5.5550857e-07
1.2234867e-07
1.6139191e-06
1.1386333e-05
1.463545e-06
6.7676548e-06
4.4199616e-05
4.5341818e-06
1.5660308e-05
9.205059e-05
8.4192344e-06
2.809312e-05
0.00013938953
1.1675407e-05
4.1125951e-05
0.00015275478
8.6888918e-06
4.9405894e-05
0.00010382535
3.8196004e-06
4.9207236e-05
3.2465495e-06
1.1371471e-06
4.294715e-05
-9.599726e-05
3.6839937e-05
-0.00014945084
2.375196e-06
1.2612304e-07
1.4938017e-06
9.6166379e-06
1.3025989e-06
6.3436708e-06
3.7669301e-05
3.9606261e-06
1.4922346e-05
7.9366218e-05
7.2188491e-06
2.7434991e-05
0.00012234101
1.0316272e-05
4.1653236e-05
0.0001380812
8.4334986e-06
5.261081e-05
0.00010032711
5.490098e-06
5.5858716e-05
1.4980125e-05
5.1433278e-06
5.216907e-05
-7.264624e-05
4.6719045e-05
-0.00012081515
8.7914338e-06
1.2890586e-07
7.8979562e-06
1.3982055e-06
1.1755502e-06
3.1349156e-05
5.993448e-06
3.6284557e-06
6.714977e-05
1.4233311e-05
6.8570336e-06
0.00010614704
2.6581422e-05
1.1051466e-05
0.00012480604
4.1552199e-05
1.1356882e-05
9.9964115e-05
5.4704307e-05
1.1002166e-05
3.2463157e-05
6.1228785e-05
1.281348e-05
-4.1188495e-05
6.0189777e-05
-8.296106e-05
5.3763878e-05
1.8926827e-05
3.0437105e-09
-3.2230362e-07
8.0676756e-06
1.4954186e-07
-2.5634593e-07
-1.4818549e-06
3.2362792e-05
7.2760607e-07
-8.9284249e-07
-3.8435341e-06
6.965071e-05
1.9790723e-06
-1.4285483e-06
-8.0221155e-06
0.00011037843
4.3263754e-06
-1.6054605e-06
-1.4400396e-05
0.00013125684
8.1263978e-06
3.6436946e-07
-2.2614001e-05
0.00010712854
1.3479566e-05
3.8013604e-06
-3.1322484e-05
4.0762143e-05
1.9586344e-05
7.8346456e-06
-3.8213836e-05
-3.2035786e-05
2.5027743e-05
-4.0970203e-05
-7.3985508e-05
2.8533554e-05
1.1295597e-05
4.9102126e-09
-4.8497005e-07
9.7743969e-06
-3.0396155e-07
-2.2140162e-06
3.8710335e-05
-1.039035e-06
-5.6744573e-06
8.1932206e-05
-1.6456978e-06
-1.1622835e-05
0.00012654835
-1.5026184e-06
-2.0353799e-05
0.00014389143
8.6479534e-07
-3.1136073e-05
0.00010648167
4.6885096e-06
-4.1958844e-05
2.179269e-05
8.8513174e-06
-4.9927523e-05
-6.5095538e-05
-5.2333622e-05
-0.00011295454
1.2353999e-05
1.5614022e-08
-6.3264748e-07
1.1518398e-05
-3.3095328e-07
-2.8795226e-06
4.5211681e-05
-1.161176e-06