/*--------------------------------*- C++ -*----------------------------------*\
| =========                 |                                                 |
| \\      /  F ield         | OpenFOAM: The Open Source CFD Toolbox           |
|  \\    /   O peration     | Version:  2406                                  |
|   \\  /    A nd           | Website:  www.openfoam.com                      |
|    \\/     M anipulation  |                                                 |
\*---------------------------------------------------------------------------*/
FoamFile
{
    version     2.0;
    format      ascii;
    arch        "LSB;label=32;scalar=64";
    class       volVectorField;
    location    "2.5";
    object      U;
}
// * * * * * * * * * * * * * * * * * * * * * * * * * * * * * * * * * * * * * //

dimensions      [0 1 -1 0 0 0 0];

internalField   nonuniform List<vector> 
34560
(
(0.022861524 -0.0034569639 -0.0012299357)
(0.056265854 -0.009350236 0.0002140141)
(0.065148561 -0.015031529 0.010503278)
(0.02179721 -0.020015144 0.0346975)
(-0.095951244 -0.02395712 0.072307148)
(-0.27721207 -0.02852175 0.11419145)
(-0.47698383 -0.032995998 0.1468863)
(-0.64971506 -0.033518009 0.1626991)
(-0.77187102 -0.02853804 0.16309292)
(0.025966074 -0.0030745369 -0.00023958011)
(0.061564074 -0.0071886318 0.004001047)
(0.064816605 -0.0096482097 0.019004047)
(0.0032928335 -0.010147217 0.049614401)
(-0.14237261 -0.0098648276 0.092701742)
(-0.34742256 -0.012090391 0.13555765)
(-0.55545347 -0.015514838 0.1643142)
(-0.72164318 -0.01476282 0.17406628)
(-0.83257985 -0.0082740096 0.16862222)
(0.030513467 -0.0034154002 0.00014174836)
(0.071642994 -0.0071276556 0.0058725675)
(0.073174376 -0.0075519975 0.024065463)
(-0.0026585793 -0.0040795312 0.059390125)
(-0.17218964 0.00050705643 0.10634824)
(-0.3959263 0.0010940653 0.14953225)
(-0.60764971 -0.00038473689 0.17556961)
(-0.76625941 0.0026656467 0.1820205)
(-0.86704643 0.01187289 0.17442686)
(0.036412235 -0.0037162187 0.00056564411)
(0.086446577 -0.0071951395 0.0075877924)
(0.090626236 -0.0060558461 0.028351038)
(0.0053007904 0.00072318985 0.067098108)
(-0.18312258 0.009299263 0.1165091)
(-0.42124023 0.012930718 0.15937809)
(-0.63473023 0.013949203 0.18372667)
(-0.78657459 0.019541988 0.18896302)
(-0.87862848 0.031160759 0.18096449)
(0.044009812 -0.004435834 0.00071559868)
(0.10725765 -0.0085957109 0.0083220166)
(0.11969919 -0.0068076403 0.030587003)
(0.030640875 0.002686406 0.071624689)
(-0.17234188 0.01486926 0.12248551)
(-0.42193131 0.022161813 0.16574035)
(-0.63725727 0.026617827 0.19039518)
(-0.78401045 0.035548448 0.19674755)
(-0.86787604 0.049883749 0.19031728)
(0.053726019 -0.0057813873 0.00064778091)
(0.13558598 -0.011991114 0.0083289637)
(0.16322197 -0.011011774 0.03127701)
(0.076912691 0.00029482557 0.073973814)
(-0.13731528 0.01672743 0.12699351)
(-0.39749255 0.028979698 0.17192872)
(-0.61393862 0.038017557 0.19890783)
(-0.75467032 0.050317781 0.20807208)
(-0.83003561 0.06623471 0.20414531)
(0.066148897 -0.0077293734 0.0005408807)
(0.17352992 -0.017413862 0.0081055944)
(0.22518679 -0.018855521 0.03169464)
(0.1501377 -0.0069520903 0.076428541)
(-0.07037291 0.013685757 0.1327727)
(-0.33928965 0.031767213 0.18125247)
(-0.55633494 0.046253515 0.21263155)
(-0.69090705 0.062087607 0.22603361)
(-0.75775335 0.079311749 0.22535936)
(0.081903773 -0.010166432 0.00056054266)
(0.22331888 -0.024509577 0.0083962263)
(0.30977745 -0.029733802 0.033605856)
(0.25699485 -0.018390244 0.082291692)
(0.036122362 0.0061452912 0.14485946)
(-0.23913385 0.030287298 0.19964585)
(-0.45533724 0.05049739 0.23720466)
(-0.5826958 0.069480396 0.2555317)
(-0.64047685 0.087320806 0.25781308)
(0.10080791 -0.012445391 0.0010105353)
(0.2844939 -0.031375978 0.010109524)
(0.41625562 -0.04054802 0.039921131)
(0.39838688 -0.031046474 0.095694261)
(0.18614904 -0.0043131394 0.16861717)
(-0.091565235 0.024737882 0.23341024)
(-0.30290385 0.049465236 0.2782297)
(-0.42036018 0.070232787 0.30116845)
(-0.46821483 0.087606759 0.30494141)
(0.12108164 -0.013176074 0.0021256652)
(0.35108515 -0.034015136 0.014310775)
(0.53516564 -0.045538703 0.051857468)
(0.56009511 -0.038644984 0.11879994)
(0.36640832 -0.013042289 0.20726214)
(0.096319189 0.016966926 0.28504314)
(-0.10265092 0.042272595 0.33704602)
(-0.20639998 0.06205764 0.36311998)
(-0.2439519 0.077186249 0.36626548)
(0.13938405 -0.010584952 0.0036941673)
(0.41161627 -0.027618355 0.020241831)
(0.64455462 -0.03761726 0.067277003)
(0.71088251 -0.03350981 0.14761662)
(0.54207176 -0.014256603 0.25323916)
(0.29060335 0.0092798376 0.34428677)
(0.11053503 0.028703728 0.40313479)
(0.022431665 0.043569517 0.42997458)
(-0.0062905454 0.053682702 0.43131622)
(0.15047806 -0.0040683128 0.0048973485)
(0.44869231 -0.010659414 0.024713601)
(0.71235782 -0.014631323 0.078528291)
(0.80501758 -0.013237282 0.16858928)
(0.65511633 -0.0059836239 0.28587363)
(0.42043826 0.0029876404 0.38543406)
(0.25539152 0.010351111 0.44920337)
(0.17809543 0.0160364 0.47522912)
(0.15371805 0.01949376 0.47529102)
(0.15047802 0.0040681011 0.0048973209)
(0.44869217 0.010658758 0.024713582)
(0.71235753 0.014630149 0.078528317)
(0.80501715 0.013235684 0.16858935)
(0.65511581 0.0059819071 0.28587366)
(0.42043776 -0.0029892147 0.38543409)
(0.25539107 -0.010352479 0.44920342)
(0.17809498 -0.016037678 0.4752292)
(0.15371753 -0.019495106 0.47529107)
(0.13938393 0.010584707 0.003694113)
(0.41161588 0.027617636 0.020241816)
(0.64455382 0.037616047 0.067277082)
(0.71088141 0.033508267 0.14761681)
(0.5420704 0.014255012 0.25323928)
(0.29060207 -0.0092812768 0.34428689)
(0.11053389 -0.02870498 0.40313495)
(0.022430524 -0.043570733 0.4299748)
(-0.0062918353 -0.053684021 0.43131643)
(0.12108151 0.013175832 0.0021256563)
(0.35108468 0.034014441 0.014310835)
(0.53516468 0.045537584 0.051857601)
(0.56009377 0.038643626 0.1188002)
(0.36640663 0.013040909 0.20726234)
(0.096317611 -0.016968158 0.28504339)
(-0.1026523 -0.042273683 0.33704631)
(-0.20640134 -0.062058764 0.36312036)
(-0.24395346 -0.077187482 0.36626595)
(0.1008078 0.012445244 0.0010105719)
(0.28449346 0.031375508 0.010109658)
(0.4162547 0.040547179 0.039921367)
(0.39838553 0.031045379 0.095694699)
(0.1861474 0.0043119784 0.16861761)
(-0.091566706 -0.024738876 0.23341071)
(-0.30290509 -0.049466125 0.27823011)
(-0.42036141 -0.070233783 0.30116894)
(-0.46821629 -0.087607876 0.30494209)
(0.081903654 0.010166356 0.00056061273)
(0.22331846 0.02450926 0.0083965184)
(0.30977661 0.029733101 0.033606368)
(0.25699363 0.018389302 0.082292319)
(0.036120977 -0.0061461999 0.14486003)
(-0.23913511 -0.030287978 0.19964637)
(-0.45533825 -0.050498041 0.23720514)
(-0.5826968 -0.069481253 0.25553226)
(-0.64047802 -0.087321891 0.25781383)
(0.066148796 0.0077292981 0.00054102363)
(0.17352959 0.01741361 0.0081059876)
(0.22518616 0.018854986 0.031695066)
(0.15013672 0.0069514033 0.076428838)
(-0.070374065 -0.013686299 0.13277302)
(-0.33929071 -0.031767574 0.18125288)
(-0.55633576 -0.046253946 0.21263205)
(-0.69090784 -0.062088336 0.22603419)
(-0.75775418 -0.079312923 0.22536012)
(0.053725933 0.0057813408 0.00064777073)
(0.1355857 0.01199098 0.0083288843)
(0.16322142 0.011011519 0.031276915)
(0.076911874 -0.0002951538 0.073973808)
(-0.13731622 -0.016727623 0.12699368)
(-0.39749339 -0.028979841 0.17192906)
(-0.61393928 -0.038017816 0.19890827)
(-0.75467096 -0.050318406 0.20807266)
(-0.83003624 -0.066236005 0.20414614)
(0.044009734 0.0044358119 0.0007156258)
(0.1072574 0.0085956847 0.0083221371)
(0.11969874 0.0068075492 0.030587194)
(0.030640236 -0.0026866106 0.071624827)
(-0.17234257 -0.01486941 0.12248562)
(-0.42193197 -0.022161838 0.16574056)
(-0.63725784 -0.026617995 0.19039547)
(-0.78401101 -0.035549096 0.19674816)
(-0.86787668 -0.049885091 0.19031805)
(0.036412176 0.0037161637 0.00056567368)
(0.08644639 0.0071950266 0.0075878529)
(0.090625899 0.0060557036 0.028351066)
(0.0053003126 -0.00072335838 0.067098052)
(-0.18312312 -0.0092994283 0.11650898)
(-0.42124072 -0.012930752 0.15937803)
(-0.63473078 -0.013949339 0.18372692)
(-0.78657518 -0.019542735 0.18896365)
(-0.87862924 -0.031162032 0.18096498)
(0.030513421 0.0034154101 0.00014174017)
(0.071642849 0.007127707 0.0058725477)
(0.073174108 0.007552114 0.024065445)
(-0.002658958 0.0040796957 0.059390122)
(-0.17219005 -0.00050700535 0.10634811)
(-0.3959267 -0.0010942188 0.14953211)
(-0.60765019 0.00038443067 0.17556988)
(-0.76626002 -0.002666248 0.18202089)
(-0.86704734 -0.011874274 0.17442752)
(0.025966029 0.0030745434 -0.00023957124)
(0.061563938 0.0071886912 0.0040011196)
(0.064816366 0.0096482844 0.019004139)
(0.0032925139 0.010147354 0.049614524)
(-0.14237296 0.0098649073 0.092701808)
(-0.34742295 0.012090146 0.13555777)
(-0.5554539 0.015514206 0.16431438)
(-0.72164392 0.014762208 0.17406681)
(-0.83258079 0.0082727936 0.16862321)
(0.022861483 0.0034569545 -0.0012299131)
(0.056265732 0.0093502414 0.00021408009)
(0.065148354 0.015031564 0.010503405)
(0.02179694 0.02001525 0.0346977)
(-0.095951545 0.023957293 0.0723074)
(-0.27721237 0.028521828 0.11419158)
(-0.47698422 0.03299565 0.1468862)
(-0.64971553 0.033517276 0.16269966)
(-0.77187166 0.02853739 0.16309415)
(0.06102861 0.00036281011 0.00022273707)
(0.18051252 0.000829434 0.00030249073)
(0.29931527 0.00086269224 -0.0006216654)
(0.38985767 -0.00064667238 -0.0032431533)
(0.41909515 -0.0051282131 -0.0082759231)
(0.36634648 -0.013388254 -0.015493543)
(0.24642579 -0.024476202 -0.023105641)
(0.10428868 -0.036237979 -0.028866334)
(-0.012820522 -0.047644267 -0.032015091)
(0.068400292 -0.00028767443 -0.00039160829)
(0.19953952 -0.0013546427 -0.0017558349)
(0.32521319 -0.0032922261 -0.004672917)
(0.41364617 -0.0072854708 -0.0097292158)
(0.42980141 -0.014723933 -0.01724755)
(0.3570516 -0.025887756 -0.026198404)
(0.2193127 -0.039081191 -0.03414856)
(0.068551188 -0.051673723 -0.039022935)
(-0.050340505 -0.062370945 -0.041361922)
(0.075851865 -0.0010576836 -0.00096764668)
(0.2191 -0.0039495163 -0.0037542454)
(0.35263393 -0.0081875564 -0.0087152751)
(0.44085105 -0.014844007 -0.01619554)
(0.44727105 -0.02499262 -0.025858034)
(0.35903903 -0.038189213 -0.035797272)
(0.20823373 -0.052146846 -0.043287594)
(0.051817599 -0.064436393 -0.047052579)
(-0.067694991 -0.074325462 -0.048218713)
(0.082740711 -0.0021170623 -0.0015941695)
(0.23716657 -0.007403042 -0.0059093009)
(0.37801442 -0.014475871 -0.01307295)
(0.46636528 -0.024072062 -0.023105389)
(0.46507603 -0.036742992 -0.034839279)
(0.3645172 -0.051251919 -0.045347901)
(0.20387756 -0.0650728 -0.051960788)
(0.043755181 -0.0765162 -0.05439342)
(-0.076057049 -0.085668564 -0.054447503)
(0.08886442 -0.0033928964 -0.0021782486)
(0.25324143 -0.01151186 -0.0079445312)
(0.40062524 -0.021836035 -0.017273368)
(0.48910055 -0.034513799 -0.029825795)
(0.48140822 -0.049386372 -0.043521815)
(0.37042684 -0.064529617 -0.054295269)
(0.20175681 -0.077558691 -0.05988952)
(0.038897807 -0.087820151 -0.061032871)
(-0.080964349 -0.096079258 -0.060063744)
(0.094311724 -0.0048691599 -0.002643172)
(0.2675201 -0.016172876 -0.0095978855)
(0.42064666 -0.029979134 -0.020867028)
(0.50922284 -0.045570565 -0.035769286)
(0.49589611 -0.062070767 -0.051288955)
(0.37544812 -0.077118273 -0.06199302)
(0.19939634 -0.088819614 -0.066544151)
(0.033954684 -0.097632346 -0.066592724)
(-0.085871662 -0.10482784 -0.064825204)
(0.099185503 -0.006461376 -0.0029579098)
(0.28036034 -0.021037635 -0.010735553)
(0.43872725 -0.038177425 -0.023533103)
(0.52758925 -0.056185682 -0.040387031)
(0.50905366 -0.073568011 -0.057414234)
(0.37947876 -0.087659401 -0.067729143)
(0.1959589 -0.097634674 -0.07132919)
(0.027570158 -0.10486479 -0.070605655)
(-0.092344981 -0.11083982 -0.068344544)
(0.103707 -0.0078976075 -0.0030140074)
(0.29253045 -0.025256438 -0.011030969)
(0.45629127 -0.044956806 -0.024616741)
(0.54571724 -0.064321881 -0.042768869)
(0.5223504 -0.081430943 -0.060809923)
(0.38379082 -0.093611875 -0.0706281)
(0.19226179 -0.10183629 -0.073458802)
(0.020226523 -0.10758331 -0.072409268)
(-0.10008288 -0.11224364 -0.070056274)
(0.10816991 -0.0087483084 -0.0027279678)
(0.30503092 -0.027521269 -0.010190985)
(0.47504763 -0.048113146 -0.023571969)
(0.56515704 -0.067046366 -0.041903911)
(0.5358239 -0.082386802 -0.060195754)
(0.38965126 -0.092407325 -0.07013617)
(0.19008953 -0.098832211 -0.072256217)
(0.01383256 -0.10325438 -0.071402713)
(-0.10726767 -0.10663267 -0.069447672)
(0.11260066 -0.0083772718 -0.0020819797)
(0.31799496 -0.025996164 -0.0081651955)
(0.49572293 -0.044790281 -0.020175223)
(0.58830372 -0.061080109 -0.037441002)
(0.5529412 -0.073189639 -0.055557987)
(0.39835953 -0.080714534 -0.066076184)
(0.19067997 -0.085245425 -0.067651045)
(0.01008003 -0.088504927 -0.067434415)
(-0.11203777 -0.090661427 -0.066360364)
(0.11659044 -0.00626968 -0.0012829475)
(0.32993016 -0.019221523 -0.0056096259)
(0.51547096 -0.032724155 -0.015616913)
(0.61172575 -0.043894838 -0.031009011)
(0.57166021 -0.05162758 -0.048211907)
(0.40834875 -0.056245275 -0.059168802)
(0.19417966 -0.058654999 -0.061279656)
(0.0099901151 -0.060786419 -0.061721442)
(-0.11309319 -0.061979609 -0.061735996)
(0.11901904 -0.0023553035 -0.00073096543)
(0.337471 -0.0071671642 -0.0038098411)
(0.5284526 -0.012103818 -0.01225454)
(0.62784044 -0.016075188 -0.026016924)
(0.58534691 -0.018715744 -0.042156273)
(0.41614709 -0.020205657 -0.052932373)
(0.19808639 -0.020919387 -0.056465914)
(0.011736613 -0.02170849 -0.05725288)
(-0.11202128 -0.022097816 -0.058077337)
(0.11901904 0.0023553227 -0.0007309713)
(0.33747098 0.0071672686 -0.003809847)
(0.52845256 0.012104023 -0.012254554)
(0.62784038 0.016075539 -0.026016938)
(0.58534684 0.01871637 -0.042156297)
(0.41614705 0.020206561 -0.052932395)
(0.19808637 0.020920418 -0.056465921)
(0.011736582 0.021709439 -0.05725287)
(-0.11202134 0.022098544 -0.058077317)
(0.11659042 0.00626967 -0.0012829712)
(0.32993012 0.01922157 -0.005609659)
(0.51547085 0.032724315 -0.015616955)
(0.61172562 0.043895187 -0.031009045)
(0.57166007 0.051628244 -0.048211971)
(0.40834866 0.056246222 -0.059168851)
(0.1941796 0.058656053 -0.061279664)
(0.0099900343 0.060787361 -0.061721405)
(-0.11309332 0.061980317 -0.061735925)
(0.11260065 0.0083772448 -0.0020820135)
(0.31799492 0.025996167 -0.0081652648)
(0.49572282 0.044790402 -0.020175308)
(0.58830364 0.061080467 -0.037441067)
(0.55294106 0.073190326 -0.055558074)
(0.39835941 0.08071548 -0.066076208)
(0.19067987 0.085246453 -0.067651023)
(0.010079922 0.08850582 -0.067434348)
(-0.11203794 0.090662091 -0.066360248)
(0.10816991 0.0087483174 -0.0027279869)
(0.30503091 0.027521327 -0.010191029)
(0.47504756 0.048113295 -0.023572029)
(0.56515699 0.06704673 -0.041903945)
(0.53582376 0.082387455 -0.060195802)
(0.38965112 0.092408229 -0.07013615)
(0.1900894 0.098833183 -0.072256172)
(0.013832443 0.10325522 -0.071402653)
(-0.10726786 0.10663328 -0.069447564)
(0.10370699 0.0078976416 -0.0030139903)
(0.2925304 0.02525654 -0.011030879)
(0.45629118 0.044956952 -0.024616631)
(0.54571714 0.0643222 -0.042768801)
(0.52235025 0.081431544 -0.060809928)
(0.38379069 0.093612765 -0.070628093)
(0.19226164 0.10183724 -0.073458793)
(0.020226408 0.10758412 -0.072409273)
(-0.10008305 0.11224415 -0.070056227)
(0.099185484 0.0064613886 -0.0029578553)
(0.28036029 0.021037709 -0.010735401)
(0.43872719 0.038177546 -0.023533)
(0.52758917 0.056185967 -0.040387086)
(0.50905354 0.073568607 -0.057414362)
(0.37947864 0.087660315 -0.067729255)
(0.19595875 0.097635651 -0.07132927)
(0.027570046 0.10486557 -0.070605731)
(-0.092345111 0.11084012 -0.06834451)
(0.0943117 0.0048691696 -0.0026431816)
(0.26752003 0.01617296 -0.009597928)
(0.42064654 0.029979298 -0.020867143)
(0.50922271 0.045570892 -0.03576949)
(0.49589593 0.062071402 -0.051289205)
(0.37544796 0.077119191 -0.061993253)
(0.19939617 0.088820579 -0.066544328)
(0.033954555 0.097633039 -0.066592821)
(-0.085871781 0.10482792 -0.064825118)
(0.088864382 0.0033929008 -0.0021782341)
(0.25324132 0.011511943 -0.0079445044)
(0.40062508 0.021836225 -0.017273387)
(0.48910036 0.034514142 -0.029825965)
(0.48140796 0.049386982 -0.043522121)
(0.37042664 0.064530515 -0.054295594)
(0.2017566 0.077559576 -0.059889775)
(0.038897628 0.087820662 -0.061032938)
(-0.080964486 0.09607921 -0.060063719)
(0.082740673 0.0021170382 -0.0015941631)
(0.23716645 0.0074030613 -0.0059093132)
(0.37801422 0.014475994 -0.013073045)
(0.46636501 0.024072366 -0.02310559)
(0.46507576 0.036743526 -0.034839626)
(0.36451689 0.051252724 -0.045348303)
(0.20387727 0.065073576 -0.051961058)
(0.043754934 0.076516548 -0.05439357)
(-0.076057232 0.085668537 -0.05444783)
(0.075851826 0.0010576904 -0.00096764651)
(0.21909988 0.003949614 -0.0037542577)
(0.35263372 0.0081877998 -0.0087153314)
(0.44085074 0.014844454 -0.016195678)
(0.44727068 0.024993217 -0.025858404)
(0.35903862 0.038189896 -0.035797771)
(0.20823332 0.052147489 -0.043287993)
(0.051817279 0.064436758 -0.047053187)
(-0.067695228 0.074325266 -0.048219208)
(0.068400241 0.00028769329 -0.00039161067)
(0.19953937 0.0013547633 -0.0017558455)
(0.32521292 0.0032924768 -0.0046729933)
(0.41364577 0.0072859395 -0.0097293794)
(0.42980093 0.014724563 -0.017247909)
(0.35705112 0.025888324 -0.026198934)
(0.21931225 0.039081556 -0.03414929)
(0.068550821 0.05167379 -0.039023632)
(-0.050340734 0.062370327 -0.041362128)
(0.061028562 -0.00036278622 0.00022272415)
(0.18051238 -0.00082931651 0.00030243257)
(0.29931503 -0.00086245969 -0.00062179444)
(0.38985735 0.00064705324 -0.0032433781)
(0.41909476 0.0051287382 -0.0082763042)
(0.36634604 0.013388781 -0.015494206)
(0.24642545 0.024476539 -0.023106583)
(0.10428839 0.036237865 -0.028867004)
(-0.0128207 0.047643831 -0.03201519)
(0.039001232 -0.00094550083 -0.00086347371)
(0.11228658 -0.0028815274 -0.0026467212)
(0.17869867 -0.00499483 -0.0046145031)
(0.2158536 -0.0070733712 -0.006502457)
(0.19838208 -0.0088298453 -0.0078874039)
(0.11436777 -0.010081911 -0.0081090432)
(-0.021505289 -0.010851473 -0.0069592335)
(-0.17028532 -0.010984335 -0.0055211724)
(-0.29035903 -0.010793353 -0.0048914358)
(0.043147003 -0.0010066241 -0.00081177447)
(0.12213752 -0.0030027485 -0.0024714354)
(0.18992228 -0.0050666942 -0.0042859541)
(0.2209535 -0.006909275 -0.0059653617)
(0.1891149 -0.008195247 -0.0070171052)
(0.086622243 -0.0088163996 -0.0067831532)
(-0.06412319 -0.0089129649 -0.0052137601)
(-0.21841843 -0.0085330376 -0.0035803478)
(-0.3377482 -0.008076851 -0.0031299417)
(0.047467612 -0.0010630352 -0.00074293683)
(0.13290365 -0.0031263687 -0.0022633871)
(0.20351287 -0.0051666021 -0.0039458101)
(0.23090342 -0.0068016189 -0.0055147139)
(0.18844079 -0.0076328003 -0.0064392119)
(0.072480434 -0.007634608 -0.0060059919)
(-0.087946857 -0.0071236807 -0.0042008858)
(-0.2446029 -0.0063288053 -0.0023695622)
(-0.36187256 -0.005625151 -0.0017431696)
(0.051439185 -0.0011366965 -0.00068741239)
(0.14290287 -0.003309276 -0.0021033157)
(0.21645805 -0.0053810769 -0.0037053224)
(0.24135661 -0.0068512991 -0.0052333761)
(0.19079736 -0.0072274637 -0.0061301456)
(0.065088364 -0.0065792213 -0.0056251683)
(-0.101248 -0.0054433139 -0.0036736368)
(-0.25792333 -0.004224217 -0.0016407236)
(-0.37245331 -0.0032502235 -0.00078429251)
(0.054942578 -0.0012068832 -0.00063003789)
(0.15181324 -0.0035052331 -0.0019515265)
(0.22821524 -0.005654962 -0.0035067538)
(0.25143059 -0.007015751 -0.0050549654)
(0.19466611 -0.0069645373 -0.0060184192)
(0.061885882 -0.0056697144 -0.0055620121)
(-0.1077857 -0.0039092213 -0.0035473949)
(-0.26287276 -0.0022698065 -0.0013428067)
(-0.37403806 -0.0010503545 -0.00022919134)
(0.057996274 -0.0012730507 -0.000560285)
(0.15963042 -0.0037118503 -0.0017731792)
(0.2386669 -0.0059816846 -0.0032919793)
(0.26074416 -0.0072868385 -0.0049146568)
(0.19916743 -0.0068532156 -0.006044052)
(0.061235269 -0.0049579846 -0.0057591246)
(-0.11007359 -0.00261725 -0.0037693055)
(-0.2625748 -0.0006008097 -0.0014313243)
(-0.36992494 0.00080761808 -5.5048627e-05)
(0.060590257 -0.0013266335 -0.00048518301)
(0.16631161 -0.0038950432 -0.0015912791)
(0.24776058 -0.0062985416 -0.0030804718)
(0.26919522 -0.007582496 -0.0047909803)
(0.2039844 -0.0068394489 -0.0061683319)
(0.062341498 -0.0044509345 -0.0061618261)
(-0.10953385 -0.0016462566 -0.0042697292)
(-0.25902715 0.00064712317 -0.0018358781)
(-0.36242775 0.0021526415 -0.00020564002)
(0.062817242 -0.0013437551 -0.00039859647)
(0.17213951 -0.0039733537 -0.0013675879)
(0.25588619 -0.0064593037 -0.0028430268)
(0.27733615 -0.0077417365 -0.0046325775)
(0.20954403 -0.0068011107 -0.0063219528)
(0.065197893 -0.0041022139 -0.006689685)
(-0.10677065 -0.0010433595 -0.0049545795)
(-0.25338521 0.0013626057 -0.0024614779)
(-0.35312547 0.0028625033 -0.0005992222)
(0.064743644 -0.0013028209 -0.00030423525)
(0.17729637 -0.0038680281 -0.0011174885)
(0.26332563 -0.006307537 -0.0025433346)
(0.2852064 -0.0075595129 -0.0045548468)
(0.21581981 -0.0065315922 -0.0064659091)
(0.069510159 -0.003782119 -0.0072561609)
(-0.10240945 -0.00076052539 -0.0057120301)
(-0.24660724 0.0015443931 -0.0031913387)
(-0.34326521 0.0029171662 -0.0011327138)
(0.066373669 -0.0011476051 -0.00019519652)
(0.18177261 -0.0034134883 -0.00081596141)
(0.27000055 -0.0055704522 -0.0021496475)
(0.29261251 -0.0066591919 -0.0042975746)
(0.22222761 -0.0056964452 -0.0065576095)
(0.074466963 -0.0032563103 -0.007781979)
(-0.097394016 -0.00063817825 -0.0064227396)
(-0.23975213 0.001305151 -0.0038970978)
(-0.33405593 0.0024184886 -0.0016854456)
(0.067615066 -0.00081259678 -8.9063823e-05)
(0.18519292 -0.0024180175 -0.00051685587)
(0.27516904 -0.0039461334 -0.0017490833)
(0.29846003 -0.0047081086 -0.0040146682)
(0.2274319 -0.0040016529 -0.0066116566)
(0.078749069 -0.0022852938 -0.0081878963)
(-0.093029313 -0.00047256238 -0.006976593)
(-0.23408714 0.00083899419 -0.0044537142)
(-0.32679331 0.0015670908 -0.0021378611)
(0.068301028 -0.00029832808 -2.413324e-05)
(0.18715869 -0.00088766823 -0.00033236452)
(0.27825917 -0.0014472422 -0.0014962472)
(0.30210144 -0.0017219153 -0.0038296117)
(0.23077973 -0.0014542161 -0.006635818)
(0.081563715 -0.00082522585 -0.0084159004)
(-0.090293673 -0.00017043788 -0.0072874098)
(-0.23076285 0.00029183228 -0.0047621444)
(-0.322717 0.00054198154 -0.0023951225)
(0.068301025 0.00029828824 -2.4134938e-05)
(0.18715868 0.00088761031 -0.00033236151)
(0.27825915 0.0014471992 -0.0014962476)
(0.30210142 0.0017219466 -0.0038296114)
(0.2307797 0.0014543974 -0.0066358209)
(0.081563687 0.00082555377 -0.0084158963)
(-0.090293698 0.00017080457 -0.0072873879)
(-0.23076287 -0.00029159107 -0.0047621006)
(-0.32271701 -0.00054198976 -0.0023950619)
(0.067615056 0.000812552 -8.9068694e-05)
(0.18519289 0.0024179503 -0.00051685336)
(0.27516899 0.0039460879 -0.0017490885)
(0.29845996 0.0047081598 -0.0040146731)
(0.22743182 0.0040018816 -0.0066116731)
(0.078748986 0.0022856835 -0.0081878871)
(-0.093029386 0.0004729877 -0.0069765272)
(-0.2340872 -0.000838715 -0.0044535834)
(-0.32679335 -0.0015670851 -0.0021376775)
(0.066373658 0.001147562 -0.00019519917)
(0.18177257 0.0034134222 -0.00081596017)
(0.27000047 0.0055704154 -0.0021496639)
(0.29261241 0.0066592797 -0.0042975936)
(0.22222749 0.005696739 -0.006557642)
(0.074466839 0.0032567813 -0.0077819612)
(-0.097394122 0.00063868275 -0.0064226307)
(-0.23975222 -0.0013048162 -0.0038968904)
(-0.33405599 -0.0024184577 -0.0016851513)
(0.064743633 0.0013027938 -0.00030423024)
(0.17729633 0.0038679932 -0.0011174744)
(0.26332555 0.0063075304 -0.0025433453)
(0.28520628 0.0075596382 -0.0045548652)
(0.21581964 0.0065319357 -0.0064659424)
(0.069510001 0.0037826602 -0.0072561335)
(-0.10240959 0.00076110538 -0.005711896)
(-0.24660734 -0.0015439969 -0.0031910911)
(-0.34326529 -0.0029171049 -0.0011323576)
(0.062817223 0.0013437382 -0.00039858275)
(0.17213945 0.0039733456 -0.0013675358)
(0.25588608 0.0064593203 -0.0028429901)
(0.277336 0.0077418838 -0.0046325714)
(0.20954384 0.0068014917 -0.006321984)
(0.065197705 0.0041028218 -0.0066896755)
(-0.10677081 0.0010440136 -0.0049544654)
(-0.25338534 -0.0013621526 -0.0024612512)
(-0.35312557 -0.0028624402 -0.00059886925)
(0.060590233 0.0013266148 -0.0004851613)
(0.16631154 0.0038950419 -0.0015912147)
(0.24776046 0.0062985756 -0.0030804318)
(0.26919504 0.0075826699 -0.0047910051)
(0.20398418 0.0068398817 -0.0061684141)
(0.062341268 0.0044516162 -0.0061618879)
(-0.10953405 0.0016469759 -0.0042696862)
(-0.2590273 -0.00064664275 -0.0018357237)
(-0.36242785 -0.0021526504 -0.0002053234)
(0.057996247 0.0012730346 -0.00056028052)
(0.15963034 0.0037118693 -0.0017731623)
(0.23866676 0.0059817641 -0.0032919945)
(0.26074395 0.0072870738 -0.0049147362)
(0.19916717 0.0068537214 -0.0060442119)
(0.061234981 0.0049587322 -0.0057592793)
(-0.11007385 0.002618011 -0.0037693675)
(-0.26257499 0.00060126249 -0.0014312629)
(-0.36992504 -0.00080776472 -5.4775214e-05)
(0.054942546 0.0012068665 -0.00063002693)
(0.15181314 0.0035052584 -0.0019515034)
(0.22821508 0.0056550674 -0.0035067709)
(0.25143035 0.007016031 -0.0050550765)
(0.1946658 0.0069650893 -0.0060186446)
(0.061885548 0.0056705083 -0.0055622668)
(-0.10778601 0.0039099929 -0.0035475831)
(-0.26287298 0.0022701689 -0.0013428361)
(-0.37403818 0.0010500796 -0.00022901706)
(0.051439155 0.0011366769 -0.00068740538)
(0.14290278 0.0033092982 -0.0021033172)
(0.21645788 0.0053811928 -0.0037053797)
(0.24135635 0.0068516113 -0.0052335211)
(0.19079703 0.0072280373 -0.0061304347)
(0.06508799 0.0065800091 -0.0056255428)
(-0.10124835 0.0054440407 -0.003673936)
(-0.25792357 0.0042244754 -0.0016408861)
(-0.37245347 0.0032499105 -0.00078436267)
(0.047467582 0.0010630288 -0.00074293215)
(0.13290356 0.0031264287 -0.0022633918)
(0.20351271 0.0051667788 -0.0039458711)
(0.23090316 0.0068020078 -0.0055148782)
(0.18844046 0.0076334309 -0.0064395687)
(0.072480051 0.0076353648 -0.00600648)
(-0.087947223 0.0071243143 -0.0042013405)
(-0.24460317 0.0063290073 -0.0023700378)
(-0.36187276 0.0056248064 -0.0017434827)
(0.043146976 0.001006634 -0.00081177798)
(0.12213744 0.0030028445 -0.0024714676)
(0.18992212 0.0050669199 -0.0042860683)
(0.22095327 0.0069097211 -0.0059656035)
(0.18911459 0.0081959309 -0.0070175381)
(0.086621901 0.0088171372 -0.0067837422)
(-0.064123536 0.0089134368 -0.0052144329)
(-0.21841873 0.008532987 -0.0035810008)
(-0.3377484 0.0080763639 -0.0031303377)
(0.03900121 0.00094552232 -0.00086349028)
(0.11228652 0.0028816312 -0.0026467995)
(0.17869856 0.0049950513 -0.0046146793)
(0.21585345 0.00707376 -0.006502785)
(0.1983819 0.008830436 -0.0078879255)
(0.11436757 0.010082599 -0.0081097611)
(-0.021505488 0.010851968 -0.0069600887)
(-0.17028552 0.010984232 -0.0055221614)
(-0.29035914 0.010792968 -0.0048917795)
(0.05018807 -0.00015291425 -0.00013998753)
(0.14683209 -0.00052867221 -0.00044942742)
(0.23962223 -0.0010847865 -0.00079773077)
(0.30355112 -0.0018566193 -0.0011639333)
(0.30927468 -0.0028260038 -0.0015389875)
(0.23952977 -0.0039091611 -0.0019845635)
(0.10877194 -0.0050045056 -0.0025075794)
(-0.040935801 -0.0061464998 -0.0029042442)
(-0.16396861 -0.0073182001 -0.0030358904)
(0.055591166 -0.00026700735 -0.0002167669)
(0.16014262 -0.00088728323 -0.00068107226)
(0.25614237 -0.0017362675 -0.0011845031)
(0.31495775 -0.0028238848 -0.0016893677)
(0.3059929 -0.0040820161 -0.0021940139)
(0.21611392 -0.0053721357 -0.0027564625)
(0.068472123 -0.0065915764 -0.0033749549)
(-0.08844479 -0.0077552141 -0.0038400203)
(-0.2121323 -0.008778862 -0.0040144467)
(0.061005573 -0.00035527884 -0.00025168216)
(0.17385859 -0.0011720046 -0.00079084963)
(0.27413059 -0.0022597829 -0.0013694626)
(0.3299744 -0.0035989354 -0.0019380337)
(0.30991943 -0.0050688246 -0.0024988715)
(0.20492461 -0.0064813035 -0.0031343254)
(0.045778961 -0.0077207597 -0.0038511774)
(-0.11490434 -0.0088105598 -0.0044409343)
(-0.23764956 -0.0096849624 -0.0047293738)
(0.06586257 -0.00043848628 -0.00027130472)
(0.18615213 -0.0014349292 -0.00085106061)
(0.29032014 -0.0027287907 -0.0014672804)
(0.34390171 -0.0042666665 -0.0020637372)
(0.3150674 -0.0058783711 -0.0026466548)
(0.19872307 -0.0073340964 -0.0033291985)
(0.032067221 -0.0085240266 -0.004142906)
(-0.12977813 -0.0095033928 -0.0048679447)
(-0.25066403 -0.01024989 -0.0052916094)
(0.069994195 -0.00050329147 -0.00027149696)
(0.19658528 -0.0016422493 -0.00085265984)
(0.30401851 -0.0030970732 -0.0014682686)
(0.35570807 -0.0047793045 -0.0020630574)
(0.31979382 -0.0064721827 -0.0026513215)
(0.19485749 -0.0079139127 -0.0033764164)
(0.023476327 -0.0090146089 -0.0042901165)
(-0.1377078 -0.0098639508 -0.0051475156)
(-0.25588134 -0.010480957 -0.0057008985)
(0.073434474 -0.00054998295 -0.0002528742)
(0.20519028 -0.0017909221 -0.00079602942)
(0.31515571 -0.0033524483 -0.0013732257)
(0.36506511 -0.0051116088 -0.0019383105)
(0.32328066 -0.0068134102 -0.002517887)
(0.19174894 -0.0081814836 -0.0032825978)
(0.017543273 -0.0091568101 -0.0042951877)
(-0.14180299 -0.0098634777 -0.005280558)
(-0.25663147 -0.010353626 -0.0059568735)
(0.076179404 -0.00057329491 -0.00022213087)
(0.2119639 -0.0018620795 -0.00069942408)
(0.32373844 -0.0034613066 -0.0012064687)
(0.37195118 -0.0052171192 -0.0017140949)
(0.32533232 -0.0068485708 -0.0022682212)
(0.18876213 -0.00808633 -0.0030666391)
(0.012997228 -0.0089096751 -0.004175742)
(-0.14392393 -0.0094674888 -0.0052859035)
(-0.25512384 -0.0098386434 -0.0060788978)
(0.07832682 -0.0005626607 -0.00018016588)
(0.21723561 -0.0018245178 -0.00056702731)
(0.33035225 -0.00337199 -0.00097671404)
(0.37712515 -0.0050307597 -0.0014047577)
(0.32664454 -0.0065122166 -0.0019236659)
(0.18620061 -0.0075737594 -0.002755585)
(0.009537708 -0.0082295303 -0.0039605227)
(-0.14495466 -0.0086480052 -0.0051947297)
(-0.25267841 -0.0089114003 -0.0060952959)
(0.079967472 -0.00051179 -0.00013202409)
(0.22127061 -0.0016570478 -0.00041504701)
(0.33542166 -0.0030471703 -0.0007134593)
(0.38109143 -0.0045051332 -0.0010503858)
(0.3276468 -0.005756926 -0.0015282116)
(0.18425932 -0.0066064415 -0.0023942539)
(0.0070296269 -0.0070947151 -0.0036945803)
(-0.14537058 -0.0073857491 -0.0050452082)
(-0.2500786 -0.0075572779 -0.0060396783)
(0.081151872 -0.00041548053 -8.3434724e-05)
(0.22419457 -0.0013430577 -0.00026185828)
(0.33910662 -0.0024590756 -0.00045116773)
(0.38398262 -0.0036066728 -0.00070387734)
(0.32838035 -0.0045564213 -0.0011467707)
(0.1828758 -0.0051711408 -0.0020428322)