/*--------------------------------*- C++ -*----------------------------------*\
  =========                 |
  \\      /  F ield         | OpenFOAM: The Open Source CFD Toolbox
   \\    /   O peration     | Website:  https://openfoam.org
    \\  /    A nd           | Version:  10
     \\/     M anipulation  |
\*---------------------------------------------------------------------------*/
FoamFile
{
    format      ascii;
    class       volScalarField;
    location    "5.5";
    object      T;
}
// * * * * * * * * * * * * * * * * * * * * * * * * * * * * * * * * * * * * * //

dimensions      [0 0 -1 0 0 0 0];

internalField   nonuniform List<scalar> 
100
(
8.31983
24.8822
41.2237
57.1994
72.6673
87.4902
101.537
114.682
126.809
137.811
147.589
156.058
163.141
168.776
172.913
175.516
176.56
176.038
173.953
170.323
165.182
158.575
150.561
141.21
130.605
118.842
106.023
92.2637
77.6852
62.4171
46.5951
30.3594
13.8543
-2.77374
-19.3772
-35.8087
-51.9223
-67.575
-82.628
-96.9476
-110.407
-122.886
-134.274
-144.47
-153.385
-160.937
-167.062
-171.703
-174.82
-176.386
-176.386
-174.82
-171.703
-167.061
-160.937
-153.385
-144.47
-134.274
-122.886
-110.406
-96.9474
-82.6279
-67.5749
-51.9221
-35.8085
-19.377
-2.77357
13.8545
30.3596
46.5953
62.4173
77.6853
92.2638
106.023
118.842
130.605
141.21
150.561
158.575
165.183
170.323
173.953
176.038
176.56
175.516
172.913
168.776
163.141
156.058
147.589
137.811
126.809
114.682
101.537
87.4902
72.6673
57.1994
41.2237
24.8822
8.31983
)
;

boundaryField
{
    xmin
    {
        type            fixedValue;
        value           uniform 0;
    }
    xmax
    {
        type            fixedValue;
        value           uniform 0;
    }
    frontAndBack
    {
        type            empty;
    }
}


// ************************************************************************* //
