/*--------------------------------*- C++ -*----------------------------------*\
  =========                 |
  \\      /  F ield         | OpenFOAM: The Open Source CFD Toolbox
   \\    /   O peration     | Website:  https://openfoam.org
    \\  /    A nd           | Version:  10
     \\/     M anipulation  |
\*---------------------------------------------------------------------------*/
FoamFile
{
    format      ascii;
    class       volScalarField;
    location    "5.5";
    object      T_0;
}
// * * * * * * * * * * * * * * * * * * * * * * * * * * * * * * * * * * * * * //

dimensions      [0 0 -1 0 0 0 0];

internalField   nonuniform List<scalar> 
100
(
8.32785
24.9062
41.2635
57.2545
72.7373
87.5745
101.634
114.792
126.931
137.943
147.731
156.208
163.298
168.939
173.08
175.685
176.73
176.207
174.12
170.487
165.342
158.728
150.706
141.346
130.731
118.956
106.125
92.3525
77.76
62.4773
46.64
30.3887
13.8677
-2.77642
-19.3959
-35.8432
-51.9723
-67.6402
-82.7076
-97.041
-110.513
-123.004
-134.403
-144.61
-153.532
-161.092
-167.223
-171.868
-174.989
-176.556
-176.556
-174.989
-171.868
-167.222
-161.092
-153.532
-144.61
-134.403
-123.004
-110.513
-97.0408
-82.7075
-67.64
-51.9722
-35.843
-19.3957
-2.77624
13.8679
30.3889
46.6401
62.4774
77.7602
92.3527
106.126
118.956
130.731
141.346
150.706
158.728
165.342
170.488
174.12
176.207
176.73
175.685
173.08
168.939
163.298
156.208
147.731
137.943
126.931
114.792
101.634
87.5745
72.7373
57.2545
41.2635
24.9062
8.32785
)
;

boundaryField
{
    xmin
    {
        type            fixedValue;
        value           uniform 0;
    }
    xmax
    {
        type            fixedValue;
        value           uniform 0;
    }
    frontAndBack
    {
        type            empty;
    }
}


// ************************************************************************* //
