/*--------------------------------*- C++ -*----------------------------------*\
| =========                 |                                                 |
| \\      /  F ield         | OpenFOAM: The Open Source CFD Toolbox           |
|  \\    /   O peration     | Version:  2406                                  |
|   \\  /    A nd           | Website:  www.openfoam.com                      |
|    \\/     M anipulation  |                                                 |
\*---------------------------------------------------------------------------*/
FoamFile
{
    version     2.0;
    format      ascii;
    arch        "LSB;label=32;scalar=64";
    class       volScalarField;
    location    "16.5";
    object      p;
}
// * * * * * * * * * * * * * * * * * * * * * * * * * * * * * * * * * * * * * //

dimensions      [0 2 -2 0 0 0 0];

internalField   nonuniform List<scalar> 
34560
(
36.079774
36.066844
36.050389
36.031638
36.011005
35.990446
35.971658
35.95525
35.942902
36.157278
36.141612
36.121165
36.097024
36.069594
36.041393
36.014675
35.99149
35.974026
36.229016
36.210943
36.187239
36.159091
36.126734
36.092818
36.059923
36.030855
36.008387
36.299587
36.279245
36.252375
36.220277
36.183239
36.143924
36.105241
36.070509
36.042673
36.367659
36.345169
36.315286
36.27941
36.237849
36.193277
36.148916
36.108527
36.075239
36.430302
36.406093
36.373695
36.334532
36.288874
36.239438
36.189724
36.14387
36.105285
36.487568
36.461724
36.426948
36.384687
36.335172
36.281189
36.226453
36.175485
36.131976
36.538332
36.510957
36.473971
36.428834
36.375742
36.317567
36.258189
36.202575
36.154715
36.581628
36.552799
36.513758
36.466006
36.409695
36.347798
36.284333
36.224636
36.173137
36.616005
36.585881
36.545062
36.495124
36.436203
36.371252
36.304434
36.241357
36.186983
36.64023
36.609012
36.566801
36.515269
36.454532
36.387491
36.318171
36.25252
36.196115
36.65307
36.621203
36.578194
36.525778
36.464054
36.395887
36.325153
36.258043
36.200595
36.653071
36.621203
36.578194
36.525778
36.464054
36.395887
36.325153
36.258043
36.200595
36.64023
36.609012
36.566801
36.51527
36.454532
36.387491
36.318171
36.25252
36.196115
36.616005
36.585882
36.545062
36.495124
36.436202
36.371251
36.304434
36.241357
36.186983
36.581628
36.5528
36.513758
36.466006
36.409694
36.347797
36.284331
36.224635
36.173136
36.538332
36.510957
36.473971
36.428834
36.375741
36.317566
36.258187
36.202574
36.154714
36.487568
36.461724
36.426948
36.384687
36.335171
36.281188
36.226451
36.175483
36.131975
36.430303
36.406094
36.373696
36.334533
36.288874
36.239438
36.189722
36.143868
36.105283
36.367661
36.345171
36.315288
36.279411
36.237851
36.193278
36.148916
36.108525
36.075238
36.29959
36.279248
36.252378
36.22028
36.183242
36.143927
36.105242
36.070508
36.042672
36.22902
36.210946
36.187243
36.159095
36.126738
36.092822
36.059927
36.030856
36.008386
36.157282
36.141617
36.121171
36.09703
36.0696
36.041398
36.01468
35.991494
35.974025
36.079779
36.066849
36.050394
36.031644
36.011011
35.990453
35.971665
35.955256
35.942905
33.335048
33.335563
33.336322
33.337787
33.340027
33.342167
33.342972
33.341922
33.34076
33.333451
33.334305
33.335573
33.337757
33.340829
33.343619
33.344704
33.343941
33.342902
33.33067
33.331896
33.333722
33.336788
33.341013
33.344896
33.346675
33.346246
33.345152
33.328887
33.330503
33.332871
33.336747
33.342029
33.34693
33.34939
33.34929
33.348107
33.328095
33.330089
33.333003
33.33771
33.344065
33.349961
33.353033
33.35315
33.351749
33.327956
33.330375
33.333899
33.33952
33.347027
33.353931
33.357547
33.357758
33.356017
33.329106
33.331922
33.336048
33.342549
33.351131
33.358925
33.362929
33.36306
33.360833
33.330944
33.334176
33.339109
33.346762
33.356396
33.364874
33.369057
33.368932
33.366089
33.333175
33.336545
33.342057
33.351207
33.3625
33.371492
33.375616
33.37517
33.371692
33.336739
33.340016
33.345682
33.355556
33.368276
33.378151
33.382239
33.381504
33.37747
33.340752
33.343832
33.349583
33.360081
33.373739
33.38408
33.388267
33.387176
33.382137
33.34366
33.346538
33.352273
33.363132
33.377424
33.388302
33.392059
33.390304
33.385089
33.34366
33.346538
33.352273
33.363132
33.377424
33.388302
33.392059
33.390304
33.385088
33.340752
33.343831
33.349583
33.360081
33.373738
33.384079
33.388267
33.387175
33.382136
33.336739
33.340015
33.345681
33.355556
33.368276
33.37815
33.382238
33.381502
33.377469
33.333175
33.336545
33.342057
33.351206
33.362498
33.371491
33.375614
33.375167
33.37169
33.330944
33.334176
33.339109
33.346761
33.356395
33.364872
33.369054
33.368929
33.366086
33.329106
33.331922
33.336047
33.342548
33.35113
33.358923
33.362926
33.363057
33.36083
33.327956
33.330374
33.333899
33.33952
33.347026
33.353929
33.357545
33.357754
33.356013
33.328096
33.33009
33.333003
33.33771
33.344065
33.34996
33.353031
33.353147
33.351745
33.328888
33.330503
33.332872
33.336748
33.342029
33.34693
33.349389
33.349288
33.348103
33.330671
33.331898
33.333724
33.336789
33.341014
33.344896
33.346675
33.346245
33.345148
33.333454
33.334308
33.335576
33.33776
33.340832
33.343622
33.344705
33.34394
33.342899
33.335052
33.335566
33.336325
33.33779
33.34003
33.34217
33.342974
33.341922
33.340758
32.454578
32.454503
32.454301
32.45386
32.453362
32.453191
32.453721
32.454812
32.455718
32.453938
32.45398
32.453887
32.45349
32.45301
32.452882
32.453474
32.454681
32.45591
32.451942
32.452097
32.452121
32.451834
32.451508
32.451617
32.452515
32.454039
32.455664
32.449628
32.449892
32.450013
32.449796
32.449586
32.449925
32.451169
32.453097
32.455168
32.447017
32.447382
32.447593
32.447447
32.447358
32.447937
32.449539
32.45188
32.454408
32.444125
32.444591
32.44489
32.44482
32.44486
32.445684
32.447647
32.450391
32.453378
32.441317
32.44182
32.442127
32.442086
32.442235
32.443268
32.445549
32.448677
32.452118
32.439237
32.439648
32.439657
32.43931
32.439505
32.44075
32.443294
32.446775
32.450692
32.438313
32.438755
32.438551
32.437429
32.436917
32.438263
32.44097
32.444728
32.449126
32.437239
32.437798
32.437687
32.43647
32.435298
32.436098
32.43869
32.442602
32.447477
32.436034
32.436714
32.436671
32.435377
32.433912
32.434346
32.436639
32.440787
32.446632
32.435285
32.436032
32.436013
32.434631
32.432888
32.432861
32.435448
32.440136
32.446125
32.435285
32.436032
32.436013
32.434631
32.432888
32.432861
32.435448
32.440136
32.446125
32.436033
32.436714
32.436671
32.435377
32.433911
32.434346
32.436639
32.440786
32.446631
32.437239
32.437798
32.437686
32.43647
32.435298
32.436097
32.438689
32.442601
32.447475
32.438313
32.438755
32.438551
32.437428
32.436917
32.438261
32.440968
32.444726
32.449125
32.439237
32.439647
32.439656
32.439309
32.439504
32.440749
32.443292
32.446773
32.45069
32.441317
32.441819
32.442126
32.442085
32.442234
32.443267
32.445547
32.448675
32.452116
32.444125
32.44459
32.44489
32.444819
32.444859
32.445683
32.447646
32.450389
32.453376
32.447017
32.447382
32.447593
32.447447
32.447357
32.447937
32.449538
32.451878
32.454406
32.449629
32.449893
32.450013
32.449797
32.449586
32.449925
32.451169
32.453096
32.455166
32.451943
32.452098
32.452122
32.451835
32.451508
32.451617
32.452515
32.454038
32.455662
32.45394
32.453982
32.453888
32.453491
32.453011
32.452883
32.453475
32.454681
32.455908
32.45458
32.454505
32.454303
32.453862
32.453363
32.453192
32.453722
32.454812
32.455717
30.67925
30.679181
30.679134
30.679188
30.679271
30.679161
30.678599
30.67753
30.676437
30.680579
30.680508
30.680479
30.680573
30.680696
30.680559
30.679842
30.678512
30.677015
30.681632
30.681568
30.681569
30.681733
30.681947
30.681853
30.681063
30.67955
30.67776
30.682734
30.682687
30.68272
30.682941
30.683223
30.683154
30.682298
30.680632
30.678607
30.683785
30.68376
30.683832
30.684118
30.684473
30.684438
30.683527
30.681718
30.67948
30.684651
30.684664
30.684795
30.685163
30.68561
30.685629
30.684688
30.682755
30.680326
30.685401
30.685449
30.685634
30.686081
30.686621
30.686698
30.685739
30.683699
30.6811
30.685979
30.686058
30.686292
30.686816
30.687455
30.687607
30.686643
30.684513
30.681767
30.68638
30.686485
30.686761
30.687351
30.688081
30.688325
30.687372
30.685165
30.68229
30.686527
30.686665
30.686985
30.687644
30.688484
30.688836
30.687908
30.685621
30.682623
30.686476
30.686649
30.687007
30.68771
30.688624
30.689101
30.688221
30.685855
30.682769
30.686417
30.686608
30.686983
30.687704
30.688641
30.689153
30.688317
30.685945
30.682806
30.686416
30.686608
30.686983
30.687703
30.688641
30.689153
30.688317
30.685944
30.682805
30.686476
30.686649
30.687007
30.68771
30.688624
30.689101
30.68822
30.685855
30.682768
30.686526
30.686664
30.686984
30.687643
30.688484
30.688835
30.687907
30.68562
30.682621
30.686379
30.686484
30.68676
30.68735
30.68808
30.688324
30.687371
30.685164
30.682288
30.685978
30.686057
30.686291
30.686815
30.687453
30.687605
30.686641
30.684511
30.681765
30.6854
30.685448
30.685632
30.68608
30.686619
30.686697
30.685737
30.683697
30.681098
30.684649
30.684663
30.684793
30.685161
30.685608
30.685627
30.684686
30.682753
30.680324
30.683784
30.683759
30.683831
30.684116
30.684471
30.684436
30.683524
30.681715
30.679478
30.682732
30.682686
30.682718
30.682939
30.683221
30.683152
30.682296
30.680629
30.678604
30.68163
30.681567
30.681567
30.681731
30.681945
30.681851
30.681061
30.679548
30.677758
30.680577
30.680506
30.680477
30.680571
30.680694
30.680557
30.67984
30.67851
30.677012
30.679248
30.679179
30.679132
30.679186
30.679269
30.679158
30.678597
30.677528
30.676434
29.324195
29.324181
29.324138
29.324031
29.323894
29.323844
29.324033
29.324464
29.324879
29.324054
29.324055
29.324025
29.323917
29.323774
29.323743
29.323974
29.324481
29.325032
29.323654
29.323668
29.323651
29.323552
29.323431
29.323448
29.323767
29.324383
29.325068
29.323188
29.323213
29.323205
29.323107
29.323001
29.323071
29.32349
29.324232
29.325061
29.322673
29.322707
29.322705
29.322612
29.322525
29.322651
29.323175
29.324046
29.32501
29.322128
29.322168
29.322173
29.322087
29.322024
29.322211
29.322841
29.323836
29.324919
29.321606
29.321651
29.321659
29.321579
29.321538
29.321784
29.32251
29.323614
29.324801
29.321124
29.321173
29.321184
29.32111
29.32109
29.321388
29.322199
29.323395
29.324669
29.320708
29.320759
29.320772
29.320704
29.3207
29.321044
29.321925
29.323197
29.324539
29.320366
29.32042
29.320437
29.320376
29.320386
29.32077
29.321705
29.323034
29.324426
29.320115
29.320172
29.320193
29.320138
29.320162
29.320577
29.321553
29.322918
29.324342
29.319981
29.320041
29.320064
29.320013
29.320044
29.320473
29.32147
29.322856
29.324296
29.319981
29.320041
29.320063
29.320012
29.320043
29.320473
29.32147
29.322856
29.324295
29.320114
29.320172
29.320192
29.320138
29.320161
29.320577
29.321552
29.322918
29.324341
29.320365
29.320419
29.320436
29.320375
29.320385
29.320769
29.321704
29.323033
29.324425
29.320707
29.320758
29.320771
29.320703
29.320698
29.321043
29.321923
29.323196
29.324537
29.321123
29.321171
29.321182
29.321109
29.321088
29.321386
29.322197
29.323393
29.324667
29.321604
29.321649
29.321657
29.321577
29.321536
29.321781
29.322508
29.323611
29.324798
29.322126
29.322166
29.322171
29.322084
29.322021
29.322209
29.322839
29.323833
29.324916
29.32267
29.322704
29.322703
29.322609
29.322522
29.322648
29.323172
29.324043
29.325006
29.323185
29.32321
29.323202
29.323104
29.322998
29.323067
29.323486
29.324229
29.325057
29.323651
29.323665
29.323648
29.323549
29.323427
29.323445
29.323764
29.324379
29.325064
29.32405
29.324051
29.324021
29.323914
29.323771
29.323739
29.32397
29.324477
29.325027
29.324191
29.324177
29.324134
29.324027
29.32389
29.32384
29.324029
29.32446
29.324874
27.748058
27.748042
27.748034
27.748053
27.748082
27.748055
27.747892
27.747575
27.747246
27.748273
27.748255
27.748251
27.748281
27.748322
27.748288
27.748088
27.747707
27.747281
27.748474
27.748456
27.748455
27.7485
27.748557
27.748526
27.748297
27.747861
27.747354
27.74871
27.748693
27.748698
27.748752
27.748818
27.748782
27.748524
27.74804
27.747466
27.748953
27.748938
27.748948
27.749012
27.749088
27.749048
27.748764
27.748236
27.747605
27.749169
27.749159
27.749177
27.749254
27.749342
27.749303
27.749
27.748436
27.747756
27.749367
27.749363
27.749388
27.749476
27.749574
27.749537
27.74922
27.748627
27.747909
27.749537
27.749537
27.749569
27.749667
27.749775
27.749741
27.749416
27.748801
27.748052
27.749675
27.749678
27.749717
27.749823
27.74994
27.74991
27.74958
27.74895
27.748178
27.749776
27.749783
27.749827
27.74994
27.750065
27.75004
27.749708
27.749067
27.748279
27.74984
27.74985
27.749898
27.750017
27.750147
27.750127
27.749794
27.749147
27.748349
27.749874
27.749885
27.749935
27.750056
27.750189
27.750171
27.749838
27.749189
27.748385
27.749874
27.749885
27.749935
27.750055
27.750189
27.75017
27.749838
27.749188
27.748385
27.749839
27.749849
27.749898
27.750016
27.750146
27.750126
27.749794
27.749147
27.748349
27.749775
27.749782
27.749826
27.749939
27.750063
27.750039
27.749706
27.749066
27.748278
27.749673
27.749677
27.749716
27.749821
27.749938
27.749909
27.749578
27.748948
27.748177
27.749535
27.749535
27.749567
27.749665
27.749773
27.749739
27.749414
27.748799
27.748051
27.749365
27.74936
27.749386
27.749473
27.749572
27.749534
27.749217
27.748624
27.747907
27.749166
27.749156
27.749174
27.749251
27.749339
27.749299
27.748997
27.748433
27.747754
27.748949
27.748934
27.748944
27.749008
27.749084
27.749044
27.74876
27.748233
27.747602
27.748706
27.748689
27.748693
27.748747
27.748813
27.748777
27.74852
27.748036
27.747462
27.748469
27.74845
27.74845
27.748494
27.748552
27.74852
27.748291
27.747856
27.74735
27.748267
27.748249
27.748245
27.748275
27.748316
27.748282
27.748082
27.747701
27.747276
27.748051
27.748035
27.748027
27.748046
27.748076
27.748048
27.747885
27.747568
27.74724
26.283369
26.283372
26.283367
26.283341
26.283301
26.283278
26.283313
26.28342
26.283543
26.283311
26.283318
26.283315
26.283288
26.283247
26.283229
26.283282
26.283418
26.283588
26.28319
26.2832
26.283199
26.283173
26.283134
26.283128
26.283207
26.283379
26.283588
26.283051
26.283064
26.283065
26.283038
26.283
26.283006
26.283112
26.283321
26.283572
26.282903
26.282917
26.282919
26.282892
26.282856
26.282874
26.283007
26.283252
26.283542
26.282753
26.282768
26.28277
26.282743
26.28271
26.282741
26.282899
26.283177
26.283502
26.282613
26.282629
26.282631
26.282603
26.282573
26.282615
26.282795
26.283102
26.283457
26.282488
26.282504
26.282506
26.282478
26.28245
26.282501
26.2827
26.283031
26.28341
26.282382
26.282399
26.282401
26.282372
26.282347
26.282406
26.28262
26.282969
26.283366
26.2823
26.282317
26.282318
26.282289
26.282266
26.282331
26.282556
26.282919
26.283329
26.282244
26.28226
26.282262
26.282233
26.282211
26.28228
26.282512
26.282884
26.283303
26.282215
26.282232
26.282233
26.282204
26.282183
26.282254
26.28249
26.282866
26.283289
26.282215
26.282232
26.282233
26.282204
26.282183
26.282253
26.282489
26.282866
26.283289
26.282243
26.28226
26.282261
26.282232
26.28221
26.282279
26.282511
26.282884
26.283302
26.282299
26.282316
26.282317
26.282288
26.282265
26.28233
26.282555
26.282918
26.283328
26.282381
26.282397
26.282399
26.28237
26.282345
26.282404
26.282618
26.282968
26.283365
26.282486
26.282502
26.282504
26.282475
26.282448
26.282499
26.282698
26.283029
26.283409
26.28261
26.282626
26.282628
26.2826
26.28257
26.282611
26.282792
26.283099
26.283455
26.282749
26.282764
26.282766
26.282739
26.282706
26.282736
26.282895
26.283174
26.2835
26.282898
26.282912
26.282914
26.282886
26.28285
26.282869
26.283002
26.283247
26.283539
26.283045
26.283057
26.283058
26.283031
26.282993
26.282999
26.283105
26.283315
26.283568
26.283182
26.283192
26.283191
26.283165
26.283126
26.28312
26.2832
26.283373
26.283583
26.283302
26.283308
26.283306
26.283279
26.283237
26.283219
26.283273
26.28341
26.283582
26.283358
26.283361
26.283356
26.283331
26.28329
26.283267
26.283303
26.28341
26.283535
24.766446
24.766441
24.766438
24.766443
24.766452
24.76645
24.766419
24.76635
24.766273
24.766481
24.766475
24.766474
24.766482
24.766494
24.766492
24.766452
24.76637
24.766272
24.766515
24.766509
24.766509
24.76652
24.766537
24.766536
24.76649
24.766394
24.766276
24.76656
24.766554
24.766555
24.766569
24.766588
24.766586
24.766533
24.766425
24.766289
24.766608
24.766603
24.766605
24.766621
24.766643
24.76664
24.766581
24.766461
24.766311
24.766653
24.766649
24.766652
24.766671
24.766695
24.766692
24.766629
24.7665
24.766337
24.766694
24.766691
24.766696
24.766718
24.766744
24.766741
24.766674
24.766538
24.766365
24.766731
24.766728
24.766735
24.766759
24.766787
24.766784
24.766714
24.766573
24.766393
24.76676
24.766759
24.766767
24.766792
24.766822
24.76682
24.766748
24.766603
24.766417
24.766782
24.766782
24.766791
24.766817
24.766848
24.766847
24.766775
24.766627
24.766437
24.766797
24.766797
24.766807
24.766834
24.766866
24.766865
24.766793
24.766643
24.76645
24.766805
24.766805
24.766815
24.766843
24.766875
24.766874
24.766802
24.766651
24.766458
24.766805
24.766805
24.766815
24.766842
24.766875
24.766874
24.766801
24.766651
24.766457
24.766796
24.766796
24.766806
24.766833
24.766865
24.766864
24.766792
24.766642
24.76645
24.766781
24.766781
24.76679
24.766816
24.766847
24.766845
24.766773
24.766626
24.766436
24.766759
24.766757
24.766765
24.76679
24.766819
24.766817
24.766746
24.766601
24.766416
24.766728
24.766726
24.766732
24.766756
24.766784
24.766781
24.766712
24.766571
24.766391
24.766691
24.766688
24.766693
24.766714
24.76674
24.766737
24.76667
24.766535
24.766364
24.766648
24.766644
24.766647
24.766666
24.76669
24.766687
24.766624
24.766496
24.766335
24.766602
24.766597
24.766598
24.766615
24.766636
24.766633
24.766575
24.766457
24.766308
24.766552
24.766546
24.766547
24.76656
24.76658
24.766578
24.766526
24.766419
24.766285
24.766505
24.766499
24.766499
24.76651
24.766527
24.766526
24.766481
24.766386
24.76627
24.766469
24.766464
24.766462
24.76647
24.766482
24.76648
24.766441
24.76636
24.766264
24.766434
24.766429
24.766426
24.766431
24.766439
24.766438
24.766406
24.766338
24.766263
23.271124
23.271125
23.271125
23.27112
23.271111
23.271105
23.271108
23.271124
23.271148
23.271105
23.271107
23.271107
23.271103
23.271094
23.271089
23.271097
23.271121
23.271153
23.271072
23.271075
23.271075
23.271071
23.271064
23.271061
23.271075
23.271107
23.271149
23.271035
23.271039
23.27104
23.271036
23.271029
23.271029
23.271048
23.271089
23.27114
23.270997
23.271001
23.271003
23.270998
23.270992
23.270995
23.27102
23.271069
23.271129
23.270959
23.270964
23.270965
23.270961
23.270955
23.270961
23.270992
23.271048
23.271117
23.270924
23.270929
23.27093
23.270926
23.270921
23.270929
23.270965
23.271028
23.271103
23.270893
23.270897
23.270899
23.270895
23.27089
23.2709
23.27094
23.271008
23.271089
23.270866
23.270871
23.270873
23.270868
23.270864
23.270875
23.270919
23.270991
23.271076
23.270845
23.27085
23.270852
23.270847
23.270843
23.270856
23.270902
23.270978
23.271066
23.270831
23.270836
23.270838
23.270833
23.270829
23.270843
23.27089
23.270968
23.271058
23.270824
23.270829
23.27083
23.270826
23.270822
23.270836
23.270884
23.270963
23.271054
23.270824
23.270828
23.27083
23.270825
23.270822
23.270836
23.270884
23.270963
23.271054
23.27083
23.270835
23.270837
23.270832
23.270828
23.270842
23.270889
23.270968
23.271058
23.270844
23.270849
23.270851
23.270846
23.270842
23.270855
23.2709
23.270977
23.271065
23.270864
23.270869
23.270871
23.270866
23.270861
23.270873
23.270917
23.27099
23.271075
23.27089
23.270895
23.270896
23.270892
23.270887
23.270897
23.270937
23.271006
23.271088
23.270921
23.270925
23.270927
23.270922
23.270917
23.270925
23.270961
23.271025
23.271101
23.270955
23.270959
23.27096
23.270956
23.27095
23.270956
23.270987
23.271045
23.271114
23.270991
23.270995
23.270996
23.270992
23.270985
23.270988
23.271014
23.271064
23.271126
23.271028
23.271031
23.271032
23.271027
23.27102
23.271021
23.271041
23.271083
23.271136
23.271062
23.271065
23.271066
23.271061
23.271054
23.271052
23.271066
23.271099
23.271142
23.271094
23.271096
23.271096
23.271091
23.271083
23.271078
23.271086
23.27111
23.271145
23.271111
23.271113
23.271112
23.271107
23.271099
23.271092
23.271095
23.271112
23.271137
21.767957
21.767955
21.767954
21.767955
21.767956
21.767957
21.767953
21.767943
21.767929
21.767964
21.767963
21.767962
21.767963
21.767966
21.767966
21.767961
21.767948
21.767932
21.767972
21.76797
21.76797
21.767972
21.767975
21.767976
21.76797
21.767954
21.767934
21.767982
21.767981
21.767981
21.767983
21.767987
21.767988
21.76798
21.767962
21.767939
21.767996
21.767994
21.767994
21.767997
21.768002
21.768003
21.767995
21.767975
21.767948
21.76801
21.768009
21.768009
21.768013
21.768019
21.768022
21.768013
21.767991
21.767961
21.768025
21.768024
21.768025
21.768029
21.768037
21.76804
21.768031
21.768008
21.767975
21.768039
21.768038
21.76804
21.768045
21.768053
21.768057
21.768048
21.768023
21.767989
21.768051
21.76805
21.768052
21.768058
21.768067
21.768072
21.768063
21.768037
21.768002
21.768061
21.76806
21.768062
21.768068
21.768078
21.768083
21.768074
21.768048
21.768012
21.768067
21.768066
21.768068
21.768075
21.768085
21.768091
21.768082
21.768056
21.768019
21.76807
21.76807
21.768072
21.768079
21.768089
21.768095
21.768086
21.76806
21.768022
21.76807
21.768069
21.768071
21.768078
21.768089
21.768094
21.768086
21.768059
21.768022
21.768066
21.768066
21.768068
21.768074
21.768084
21.76809
21.768081
21.768055
21.768019
21.768059
21.768059
21.76806
21.768067
21.768076
21.768081
21.768073
21.768047
21.768011
21.76805
21.768049
21.76805
21.768056
21.768065
21.768069
21.76806
21.768036
21.768001
21.768037
21.768036
21.768037
21.768042
21.76805
21.768054
21.768045
21.768021
21.767988
21.768022
21.768021
21.768021
21.768025
21.768032
21.768036
21.768028
21.768005
21.767973
21.768006
21.768004
21.768004
21.768008
21.768013
21.768016
21.768008
21.767987
21.767958
21.76799
21.767988
21.767988
21.76799
21.767995
21.767996
21.767989
21.767969
21.767944
21.767975
21.767973
21.767972
21.767975
21.767978
21.767979
21.767972
21.767956
21.767934
21.767962
21.76796
21.76796
21.767961
21.767965
21.767966
21.76796
21.767946
21.767927
21.767953
21.767951
21.76795
21.767951
21.767954
21.767955
21.76795
21.767937
21.767922
21.767944
21.767943
21.767942
21.767942
21.767944
21.767944
21.76794
21.76793
21.767918
20.266857
20.266857
20.266858
20.266857
20.266855
20.266853
20.266851
20.26685
20.266853
20.266862
20.266862
20.266863
20.266862
20.26686
20.266857
20.266856
20.266857
20.26686
20.266862
20.266863
20.266863
20.266863
20.266861
20.26686
20.266859
20.266862
20.266866
20.26686
20.266861
20.266861
20.266861
20.266861
20.266861
20.266862
20.266865
20.26687
20.266855
20.266856
20.266857
20.266857
20.266856
20.266856
20.266858
20.266863
20.26687
20.266847
20.266849
20.266849
20.266849
20.266848
20.266847
20.26685
20.266856
20.266864
20.266839
20.26684
20.266841
20.266841
20.266839
20.266838
20.266841
20.266848
20.266857
20.266831
20.266832
20.266833
20.266832
20.266831
20.26683
20.266833
20.26684
20.266851
20.266824
20.266825
20.266826
20.266825
20.266824
20.266823
20.266826
20.266834
20.266845
20.266819
20.26682
20.266821
20.26682
20.266818
20.266818
20.266821
20.266829
20.266841
20.266815
20.266816
20.266817
20.266816
20.266814
20.266814
20.266817
20.266826
20.266838
20.266813
20.266814
20.266815
20.266814
20.266812
20.266812
20.266815
20.266824
20.266836
20.266813
20.266814
20.266815
20.266814
20.266812
20.266811
20.266815
20.266824
20.266836
20.266814
20.266816
20.266816
20.266815
20.266813
20.266813
20.266817
20.266825
20.266837
20.266818
20.266819
20.266819
20.266819
20.266817
20.266816
20.26682
20.266828
20.26684
20.266822
20.266824
20.266824
20.266823
20.266822
20.266821
20.266824
20.266833
20.266844
20.266829
20.26683
20.26683
20.26683
20.266828
20.266827
20.26683
20.266838
20.266849
20.266836
20.266837
20.266837
20.266837
20.266835
20.266834
20.266837
20.266845
20.266855
20.266843
20.266844
20.266844
20.266844
20.266843
20.266842
20.266845
20.266852
20.266862
20.266849
20.26685
20.26685
20.26685
20.266849
20.26685
20.266852
20.266858
20.266866
20.266853
20.266853
20.266853
20.266853
20.266852
20.266853
20.266854
20.266859
20.266865
20.266853
20.266853
20.266853
20.266853
20.266851
20.26685
20.26685
20.266854
20.26686
20.266851
20.266851
20.266851
20.26685
20.266848
20.266846
20.266845
20.266847
20.266852
20.266845
20.266845
20.266845
20.266844
20.266842
20.26684
20.266838
20.266839
20.266842
18.76586
18.76586
18.76586
18.76586
18.76586
18.76586
18.765861
18.765861
18.765861
18.765858
18.765858
18.765858
18.765858
18.765858
18.765859
18.765859
18.76586
18.76586
18.765856
18.765856
18.765856
18.765856
18.765856
18.765857
18.765858
18.765858
18.765858
18.765855
18.765855
18.765855
18.765855
18.765856
18.765856
18.765856
18.765857
18.765857
18.765856
18.765856
18.765856
18.765856
18.765857
18.765857
18.765858
18.765858
18.765858
18.765857
18.765857
18.765857
18.765858
18.765859
18.76586
18.765861
18.765861
18.765861
18.765858
18.765858
18.765859
18.765859
18.76586
18.765862
18.765863
18.765864
18.765864
18.76586
18.76586
18.76586
18.765861
18.765862
18.765864
18.765866
18.765867
18.765866
18.765861
18.765861
18.765862
18.765862
18.765864
18.765866
18.765868
18.765869
18.765869
18.765862
18.765862
18.765863
18.765863
18.765865
18.765867
18.76587
18.765871
18.76587
18.765863
18.765863
18.765863
18.765864
18.765866
18.765868
18.765871
18.765872
18.765872
18.765863
18.765863
18.765863
18.765864
18.765866
18.765869
18.765871
18.765872
18.765872
18.765863
18.765863
18.765863
18.765864
18.765866
18.765868
18.765871
18.765872
18.765872
18.765862
18.765862
18.765863
18.765863
18.765865
18.765867
18.76587
18.765871
18.765871
18.765861
18.765861
18.765861
18.765862
18.765864
18.765866
18.765868
18.76587
18.76587
18.76586
18.76586
18.76586
18.76586
18.765862
18.765864
18.765866
18.765868
18.765868
18.765858
18.765858
18.765858
18.765858
18.765859
18.765861
18.765863
18.765865
18.765865
18.765855
18.765855
18.765855
18.765856
18.765857
18.765858
18.76586
18.765861
18.765862
18.765853
18.765853
18.765853
18.765853
18.765854
18.765855
18.765856
18.765858
18.765859
18.765851
18.76585
18.76585
18.76585
18.765851
18.765851
18.765852
18.765854
18.765855
18.765849
18.765848
18.765848
18.765848
18.765848
18.765849
18.76585
18.765851
18.765853
18.765848
18.765847
18.765847
18.765847
18.765847
18.765848
18.765849
18.765851
18.765852
18.765848
18.765848
18.765848
18.765848
18.765848
18.765849
18.76585
18.765851
18.765852
18.765849
18.765849
18.765849
18.765849
18.765849
18.765849
18.76585
18.765851
18.765852
17.26435
17.264351
17.264351
17.264351
17.264351
17.26435
17.264349
17.264348
17.264347
17.264349
17.26435
17.26435
17.26435
17.26435
17.264349
17.264348
17.264347
17.264345
17.264348
17.264348
17.264348
17.264348
17.264348
17.264348
17.264347
17.264345
17.264344
17.264346
17.264346
17.264346
17.264347
17.264347
17.264347
17.264346
17.264344
17.264342
17.264344
17.264345
17.264345
17.264345
17.264345
17.264345
17.264344
17.264343
17.264341
17.264343
17.264343
17.264343
17.264344
17.264344
17.264344
17.264343
17.264341
17.26434
17.264341
17.264342
17.264342
17.264342
17.264343
17.264343
17.264342
17.26434
17.264339
17.26434
17.264341
17.264341
17.264341
17.264342
17.264341
17.264341
17.264339
17.264337
17.264339
17.264339
17.26434
17.26434
17.264341
17.26434
17.26434
17.264338
17.264336
17.264338
17.264339
17.264339
17.264339
17.26434
17.26434
17.264339
17.264337
17.264336
17.264338
17.264338
17.264338
17.264339
17.264339
17.264339
17.264338
17.264337
17.264335
17.264337
17.264338
17.264338
17.264338
17.264339
17.264339
17.264338
17.264336
17.264335
17.264337
17.264338
17.264338
17.264338
17.264338
17.264338
17.264338
17.264336
17.264335
17.264337
17.264338
17.264338
17.264338
17.264338
17.264338
17.264338
17.264336
17.264335
17.264338
17.264338
17.264338
17.264338
17.264339
17.264338
17.264338
17.264336
17.264335
17.264338
17.264338
17.264338
17.264339
17.264339
17.264339
17.264338
17.264337
17.264336
17.264338
17.264338
17.264339
17.264339
17.264339
17.264339
17.264338
17.264337
17.264336
17.264339
17.264339
17.264339
17.264339
17.26434
17.26434
17.264339
17.264338
17.264337
17.264339
17.26434
17.26434
17.26434
17.26434
17.26434
17.264339
17.264339
17.264338
17.26434
17.26434
17.26434
17.26434
17.26434
17.26434
17.26434
17.264339
17.264338
17.26434
17.26434
17.26434
17.264341
17.264341
17.264341
17.26434
17.264339
17.264339
17.264341
17.264341
17.264341
17.264341
17.264341
17.264341
17.26434
17.264339
17.264339
17.264341
17.264341
17.264341
17.264341
17.264341
17.264341
17.26434
17.264339
17.264339
17.264341
17.264341
17.264341
17.264341
17.264341
17.264341
17.26434
17.264339
17.264339
15.763271
15.763271
15.763271
15.763271
15.763271
15.763271
15.763271
15.763272
15.763272
15.76327
15.76327
15.76327
15.76327
15.76327
15.76327
15.76327
15.763271
15.763271
15.763269
15.763269
15.763269
15.763269
15.763269
15.763269
15.763269
15.76327
15.763271
15.763267
15.763267
15.763268
15.763268
15.763268
15.763268
15.763268
15.763269
15.76327
15.763266
15.763266
15.763266
15.763266
15.763266
15.763267
15.763267
15.763268
15.76327
15.763265
15.763265
15.763265
15.763265
15.763265
15.763266
15.763267
15.763268
15.763269
15.763264
15.763264
15.763264
15.763264
15.763264
15.763265
15.763266
15.763267
15.763269
15.763263
15.763263
15.763263
15.763263
15.763264
15.763264
15.763265
15.763267
15.763268
15.763263
15.763263
15.763263
15.763263
15.763263
15.763263
15.763265
15.763266
15.763268
15.763262
15.763262
15.763262
15.763262
15.763262
15.763263
15.763264
15.763266
15.763268
15.763262
15.763262
15.763262
15.763262
15.763262
15.763262
15.763264
15.763266
15.763267
15.763261
15.763261
15.763261
15.763261
15.763261
15.763262
15.763263
15.763265
15.763267
15.763261
15.763261
15.763261
15.763261
15.763261
15.763262
15.763263
15.763265
15.763267
15.763261
15.763261
15.763261
15.763261
15.763261
15.763262
15.763263
15.763265
15.763267
15.763261
15.763261
15.763261
15.763261
15.763261
15.763262
15.763263
15.763265
15.763267
15.763261
15.763261