/*--------------------------------*- C++ -*----------------------------------*\
| =========                 |                                                 |
| \\      /  F ield         | OpenFOAM: The Open Source CFD Toolbox           |
|  \\    /   O peration     | Version:  2406                                  |
|   \\  /    A nd           | Website:  www.openfoam.com                      |
|    \\/     M anipulation  |                                                 |
\*---------------------------------------------------------------------------*/
FoamFile
{
    version     2.0;
    format      ascii;
    arch        "LSB;label=32;scalar=64";
    class       surfaceScalarField;
    location    "16.5";
    object      phi;
}
// * * * * * * * * * * * * * * * * * * * * * * * * * * * * * * * * * * * * * //

dimensions      [0 3 -1 0 0 0 0];

oriented        oriented;

internalField   nonuniform List<scalar> 
101088
(
0.00011981721
-2.1872089e-05
1.7052916e-05
1.9094737e-05
0.00024597569
-9.3381972e-05
7.2354983e-05
8.2516882e-05
0.00035535484
-0.0002220539
0.00016998479
0.0001979118
0.0004201967
-0.0004135951
0.00031023784
0.00037197047
0.00042573187
-0.00064057518
0.0004644357
0.00058304097
0.00038861524
-0.00083992416
0.00057783614
0.00077432661
0.00035066771
-0.00095328582
0.00060578928
0.00088755308
0.0003422605
-0.00096133887
0.00054879776
0.00090287347
-0.00087985296
0.00044321647
0.00083004354
0.00036842083
0.00014568727
-2.4149417e-05
2.108235e-05
0.00029530661
-0.00010175192
8.863589e-05
0.00041791819
-0.00023884888
0.00020644463
0.00047737756
-0.00043852833
0.00037312074
0.00045750953
-0.00066902631
0.00055277845
0.00038360524
-0.00086528473
0.00068217299
0.0003073563
-0.00097054888
0.00071389069
0.00026509936
-0.00096850466
0.00065230826
-0.00087609361
0.00053694054
0.00025910923
0.00017151231
-2.56668e-05
2.5178306e-05
0.00034387649
-0.00010680514
0.00010499768
0.00047937631
-0.00024779086
0.00024260783
0.0005360734
-0.00044867854
0.00043443079
0.00049751281
-0.00067325265
0.00063708928
0.00039560298
-0.00085628994
0.0007794512
0.00028933651
-0.00094479512
0.00081258437
0.00021865707
-0.00092821318
0.00074533228
-0.00082617142
0.00062086009
0.00018726481
0.00019659594
-2.6372196e-05
2.9228255e-05
0.00039085848
-0.00010851331
0.00012099061
0.00053873749
-0.00024905341
0.00027754079
0.00059340555
-0.00044493154
0.00049286228
0.00053929197
-0.00065587735
0.00071625464
0.0004144545
-0.00081744112
0.00086949346
0.00028432214
-0.00088247582
0.00090274427
0.0001914847
-0.0008484076
0.00082939273
-0.0007395698
0.00069585141
0.00014153502
0.00022018501
-2.6113551e-05
3.3085227e-05
0.00043472502
-0.00010666588
0.00013614896
0.00059392846
-0.00024286408
0.00031051346
0.00064690059
-0.00042869254
0.00054777782
0.00057947562
-0.00062029458
0.00079029512
0.00043484353
-0.00075366056
0.0009531528
0.00028400039
-0.00078980999
0.00098598801
0.00017254572
-0.00073674745
0.00090631329
-0.00062457338
0.00076374413
0.00010777788
0.00024219607
-2.5185197e-05
3.6740364e-05
0.00047585581
-0.00010222764
0.00015047641
0.00064589949
-0.00023101608
0.00034164306
0.00069729219
-0.00040260516
0.0005996321
0.00061674053
-0.00056988601
0.00086023553
0.00045241449
-0.00066931192
0.0010320045
0.00028126801
-0.00067266486
0.0010641023
0.00015292741
-0.0006010806
0.00097785913
-0.0004902287
0.000826267
7.6238818e-05
0.00026142763
-2.3483829e-05
4.0138757e-05
0.00051084066
-9.4939498e-05
0.00016381929
0.00068797227
-0.00021328804
0.00037074608
0.00073391042
-0.00036700492
0.00064841791
0.00063668343
-0.00050647978
0.0009264579
0.00045094475
-0.00056933256
0.0011067788
0.0002606264
-0.00053984164
0.0011380353
0.00011919744
-0.0004531504
0.0010451775
-0.00034916918
0.00088484276
3.5560762e-05
0.00027757667
-2.0940069e-05
4.3245952e-05
0.00053887358
-8.4490656e-05
0.0001761566
0.00071811454
-0.0001889763
0.00039801161
0.00075226013
-0.00032105661
0.0006948489
0.00063162467
-0.00043057014
0.00099031234
0.00042065271
-0.00045863916
0.0011792732
0.00021228896
-0.00040193016
0.0012096309
6.2590292e-05
-0.00030734083
0.001110313
-0.00021631965
0.0009414959
-2.2028441e-05
0.00029025305
-1.7389443e-05
4.6034562e-05
0.00055879133
-7.0156743e-05
0.00018743649
0.00073366799
-0.00015641568
0.00042348568
0.00074757092
-0.00026246687
0.0007390633
0.00059511763
-0.00034155751
0.0010519295
0.00035511702
-0.00034236171
0.0012494106
0.00013142973
-0.00027109035
0.0012788889
-2.016381e-05
-0.00018012021
0.0011741445
-0.00010743017
0.00099668977
-9.8820205e-05
0.00029932143
-1.2695696e-05
4.8409592e-05
0.00057051739
-5.1198551e-05
0.00019725471
0.00073496388
-0.00011377022
0.00044619643
0.00072110868
-0.00018873375
0.00077949812
0.00053041686
-0.00023882177
0.0011089269
0.00025992687
-0.00022543918
0.0013144363
2.5338668e-05
-0.00015882152
0.0013434468
-0.00012140349
-8.5699479e-05
0.001234297
-3.5613623e-05
0.0010491455
-0.00018804988
0.00030470498
-6.7557353e-06
5.0227971e-05
0.00057475706
-2.7217101e-05
0.00020484287
0.00072564537
-6.035223e-05
0.00046396165
0.00068269744
-9.9386251e-05
0.00081157396
0.00045520317
-0.00012333774
0.0011546365
0.00015875868
-0.00011100056
0.0013662471
-8.1512193e-05
-7.0347899e-05
0.0013961272
-0.0002190665
-2.9423676e-05
0.0012844326
-4.3272176e-06
0.0010931947
-0.00027132975
0.00030721276
-6.9750202e-11
5.1171988e-05
0.00057575453
-2.7631167e-10
0.00020890801
0.00071746703
-6.5382803e-10
0.00047376363
0.00065569675
-1.3544376e-09
0.00082973757
0.0004048227
-2.0112104e-09
0.0011810722
9.3002228e-05
-2.6854323e-09
0.0013968173
-0.00014924976
-3.2300981e-09
0.0014278808
-0.00027967194
-3.6560331e-09
0.0013147563
-3.9098661e-09
0.0011194015
-0.00032224584
0.0003072129
6.7556172e-06
5.1171978e-05
0.00057575454
2.7216608e-05
0.00020890797
0.00071746689
6.0350999e-05
0.00047376354
0.00065569707
9.9383754e-05
0.00082973739
0.00040482285
0.0001233341
0.0011810719
9.3002271e-05
0.00011099567
0.0013968171
-0.00014924978
7.0341975e-05
0.0014278805
-0.00027967204
2.9416805e-05
0.0013147561
4.3197416e-06
0.0011194013
-0.00032224573
0.00030470514
1.2695606e-05
5.0227966e-05
0.00057475686
5.1198146e-05
0.00020484285
0.00072564506
0.00011376916
0.00046396159
0.00068269835
0.0001887318
0.00081157375
0.00045520339
0.00023881902
0.0011546363
0.00015875874
0.00022543526
0.0013662467
-8.1512355e-05
0.00015881685
0.0013961267
-0.00021906689
8.5693703e-05
0.0012844322
3.5607e-05
0.0010931942
-0.00027132951
0.00029932142
1.7389389e-05
4.840958e-05
0.00057051713
7.0156481e-05
0.00019725465
0.00073496371
0.00015641501
0.00044619626
0.00072110972
0.00026246566
0.00077949769
0.00053041669
0.00034155538
0.0011089264
0.00025992664
0.00034235859
0.0013144356
2.5338074e-05
0.00027108676
0.0013434462
-0.00012140437
0.00018011554
0.0012342964
0.00010742455
0.0010491448
-0.00018804976
0.00029025318
2.0940041e-05
4.6034554e-05
0.00055879161
8.4490426e-05
0.00018743645
0.00073366796
0.00018897576
0.00042348555
0.00074757142
0.00032105551
0.000739063
0.00059511695
0.00043056774
0.0010519291
0.00035511652
0.00045863604
0.0012494099
0.00013142859
0.00040192677
0.0012788882
-2.0165258e-05
0.00030733665
0.001174144
0.00021631475
0.0009966891
-9.8820297e-05
0.00027757668
2.3483771e-05
4.3245952e-05
0.00053887375
9.4939212e-05
0.00017615659
0.00071811416
0.00021328746
0.0003980116
0.00075226023
0.00036700392
0.00069484882
0.00063162434
0.00050647754
0.0009903121
0.00042065217
0.00056932963
0.0011792726
0.00021228746
0.00053983794
0.0012096304
6.258852e-05
0.00045314632
0.0011103125
0.00034916472
0.00094149527
-2.2028903e-05
0.00026142784
2.5185145e-05
4.0138765e-05
0.00051084112
0.00010222745
0.00016381933
0.00068797206
0.00023101553
0.00037074615
0.00073391015
0.00040260432
0.00064841793
0.00063668335
0.00056988418
0.00092645764
0.00045094385
0.00066930907
0.0011067784
0.0002606248
0.00067266117
0.0011380349
0.00011919555
0.00060107715
0.001045177
0.00049022452
0.00088484222
3.5559469e-05
0.00024219677
2.6113524e-05
3.6740367e-05
0.00047585728
0.00010666572
0.00015047642
0.00064590029
0.00024286336
0.0003416431
0.00069729175
0.00042869109
0.00059963222
0.00061674059
0.00062029224
0.00086023548
0.00045241356
0.00075365737
0.0010320045
0.00028126683
0.00078980706
0.0010641021
0.00015292523
0.00073674512
0.00097785873
0.0006245694
0.00082626657
7.623657e-05
0.00022018532
2.6372081e-05
3.3085229e-05
0.00043472568
0.00010851289
0.00013614897
0.0005939287
0.00024905253
0.00031051351
0.00064690021
0.00044493044
0.00054777791
0.000579476
0.00065587629
0.00079029506
0.00043484353
0.00081743884
0.00095315275
0.00028399985
0.000882473
0.00098598783
0.0001725433
0.00084840501
0.000906313
0.00073956707
0.00076374375
0.00010777499
0.00019659611
2.5666752e-05
2.9228249e-05
0.00039085925
0.00010680494
0.00012099057
0.00053873862
0.00024779039
0.0002775407
0.00059340611
0.00044867767
0.00049286219
0.00053929159
0.00067325145
0.00071625458
0.00041445447
0.00085628796
0.00086949328
0.00028432131
0.00094479174
0.00090274411
0.00019148262
0.00092821057
0.00082939248
0.00082617053
0.00069585104
0.00014153121
0.00017151227
2.4149397e-05
2.5178294e-05
0.0003438766
0.00010175182
0.00010499763
0.00047937676
0.00023884861
0.0002426077
0.00053607385
0.00043852771
0.0004344306
0.00049751208
0.0006690253
0.00063708914
0.00039560104
0.00086528308
0.00077945101
0.00028933447
0.00097054627
0.00081258406
0.00021865543
0.00096850402
0.000745332
0.00087609263
0.00062085988
0.00018726133
0.00014568717
2.1872085e-05
2.1082349e-05
0.00029530655
9.3381975e-05
8.8635881e-05
0.00041791847
0.00022205393
0.00020644461
0.00047737815
0.00041359504
0.00037312074
0.00045750909
0.00064057494
0.00055277855
0.00038360254
0.00083992357
0.00068217315
0.00030735369
0.00095328445
0.0007138906
0.00026509507
0.00096133847
0.00065230833
0.00087985195
0.00053694024
0.00025910527
0.00011981718
1.7052917e-05
1.9094777e-05
0.00024597573
7.2354983e-05
8.251703e-05
0.00035535495
0.00016998478
0.00019791215
0.00042019667
0.00031023782
0.00037197116
0.00042573098
0.00046443569
0.00058304198
0.00038861281
0.00057783616
0.00077432751
0.00035066459
0.00060578926
0.00088755319
0.00034225519
0.00054879782
0.00090287375
0.00044321614
0.00083004218
0.00036842046
1.9887193e-06
-4.2854457e-06
1.6332949e-05
3.0166904e-06
8.6427804e-06
-2.0616535e-05
7.1368413e-05
1.4949133e-05
2.2099078e-05
-5.5834569e-05
0.00017093081
4.1432484e-05
4.4658611e-05
-0.00012054318
0.00031680767
9.141399e-05
7.5100522e-05
-0.00021785055
0.00048298198
0.00016886218
0.00010786123
-0.00033094159
0.00061464643
0.00026137059
0.00013948916
-0.00042769659
0.00065997648
0.00034188198
0.00017200428
-0.00048283477
0.00061047122
0.00038864665
-0.00048617849
0.00049941164
0.00039711023
0.00020487686
2.6338523e-06
-5.478035e-06
1.96411e-05
1.1403915e-05
-2.6213045e-05
8.5462252e-05
2.8579853e-05
-7.0241454e-05
0.0002036752
5.5465297e-05
-0.00014928848
0.00037497991
8.8073532e-05
-0.0002648527
0.00056717171
0.00011820011
-0.0003953561
0.0007164604
0.00014208095
-0.00050412447
0.00076643684
0.00016358139
-0.00056368793
0.00071166013
-0.00056167948
0.00059088003
0.00018514376
3.5093065e-06
-6.6546049e-06
2.2845607e-05
1.4887321e-05
-3.1662749e-05
9.9069411e-05
3.6338219e-05
-8.4145443e-05
0.0002350611
6.8084935e-05
-0.00017660295
0.00042999896
0.00010331918
-0.00030812798
0.000645131
0.00013131945
-0.00045193518
0.0008080315
0.00014825321
-0.00056744715
0.00085897373
0.00015969361
-0.00062657143
0.00079677558
-0.00061762676
0.00066655169
0.00016994993
4.541892e-06
-7.8359055e-06
2.5867554e-05
1.9065584e-05
-3.7022145e-05
0.00011182601
4.5664574e-05
-9.746216e-05
0.00026425864
8.3132134e-05
-0.00020183848
0.00048063094
0.00012158776
-0.00034615796
0.00071582871
0.00014788826
-0.0004982903
0.00088954768
0.00015838255
-0.00061485083
0.00093965369
0.00016072403
-0.00066893618
0.00086941656
-0.00065160106
0.00072979489
0.00016075616
5.5933467e-06
-8.925437e-06
2.8581248e-05
2.3365566e-05
-4.1941296e-05
0.00012329545
5.5395015e-05
-0.00010947254
0.0002904944
9.9105201e-05
-0.00022376324
0.00052599314
0.00014147557
-0.00037700762
0.00077877531
0.00016656559
-0.00053163368
0.00096140639
0.00017091007
-0.00064314106
0.0010099349
0.00016459776
-0.00068811052
0.00093180067
-0.00066186568
0.00078315032
0.00015545652
6.7566111e-06
-9.9547698e-06
3.1012959e-05
2.814435e-05
-4.641919e-05
0.00013356636
6.6251966e-05
-0.00011989256
0.00031395588
0.00011696112
-0.00024129767
0.00056645743
0.00016370772
-0.00039817034
0.00083465176
0.00018734915
-0.00054791711
0.0010246478
0.00018496003
-0.0006477238
0.0010710757
0.00016968619
-0.00068033109
0.00098535447
-0.00064600434
0.00082822176
0.00015187027
7.7203461e-06
-1.0697855e-05
3.3161359e-05
3.2110364e-05
-4.9613086e-05
0.00014262315
7.5259807e-05
-0.00012691503
0.00033462006
0.00013146049
-0.0002511368
0.00060205675
0.00018071798
-0.00040460162
0.00088363134
0.0002014135
-0.00054140923
0.001079576
0.00019211735
-0.00062385288
0.0011234622
0.00016916191
-0.00064281202
0.0010306153
-0.00060274101
0.00086591735
0.00014482443
8.4442757e-06
-1.0910713e-05
3.5014152e-05
3.4775222e-05
-5.0275547e-05
0.00015048799
8.0592966e-05
-0.00012743094
0.00035271074
0.00013923543
-0.00024841306
0.00063348318
0.0001873772
-0.0003894259
0.00092699577
0.0002026102
-0.00050522588
0.0011278579
0.00018641295
-0.00056684226
0.0011688193
0.0001578461
-0.00057310655
0.0010691758
-0.00053085061
0.00089768038
0.00012977155
8.8465573e-06
-1.0306991e-05
3.6584007e-05
3.5776869e-05
-4.6994189e-05
0.0001572248
8.1181121e-05
-0.00011775599
0.00036840716
0.0001362439
-0.00022555338
0.00066114088
0.00017774184
-0.0003444461
0.00096545305
0.00018465243
-0.00043317223
0.0011704477
0.00016203976
-0.00047355364
0.0012082141
0.00013078476
-0.00046982873
0.0011021225
-0.00043013655
0.00092450822
0.00010225224
8.5485592e-06
-8.3160082e-06
3.7870224e-05
3.3493302e-05
-3.7494427e-05
0.00016281063
7.3247295e-05
-9.2902798e-05
0.00038158977
0.00011815354
-0.00017561564
0.00068465397
0.00014824075
-0.00026398239
0.00099837682
0.00014510528
-0.00032237451
0.001206775
0.00011729366
-0.00034367907
0.0012413841
8.5757071e-05
-0.00033358952
0.0011295945
-0.00030054061
0.00094660208
5.8704255e-05
7.7887694e-06
-4.7419146e-06
3.8865322e-05
2.9238247e-05
-2.1174547e-05
0.00016707376
6.070034e-05
-5.1976966e-05
0.00039157374
9.1505851e-05
-9.7227659e-05
0.00070238032
0.00010362475
-0.00014457163
0.0010231071
8.8485006e-05
-0.00017483932
0.001233852
5.632215e-05
-0.00018124536
0.0012658558
2.8870335e-05
-0.00017150597
0.0011498008
-0.00015488553
0.00096270032
1.3709313e-05
7.0774374e-06
1.1289317e-11
3.9352709e-05
2.5565133e-05
3.5244309e-11
0.00016924577
5.0532449e-05
6.8158738e-11
0.000396819
7.1143089e-05
6.8913873e-11
0.00071189925
7.1096966e-05
1.9365037e-10
0.0010365463
4.4414701e-05
4.7586254e-10
0.00124866
1.1864435e-05
9.2296186e-10
0.0012791842
-5.6788408e-06
1.2397356e-09
0.0011607925
1.0530323e-09
0.00097148541
-1.2649518e-05
7.0774177e-06
4.7419422e-06
3.9352702e-05
2.5565136e-05
2.117464e-05
0.00016924574
5.0532406e-05
5.1977172e-05
0.00039681893
7.1143264e-05
9.7227909e-05
0.00071189912
7.1097039e-05
0.00014457217
0.0010365461
4.4414711e-05
0.00017484052
0.0012486598
1.186447e-05
0.00018124758
0.001279184
-5.6788474e-06
0.00017150867
0.0011607924
0.00015488763
0.00097148532
-1.2649422e-05
7.788723e-06
8.3160309e-06
3.8865319e-05
2.9238196e-05
3.7494535e-05
0.00016707374
6.0700094e-05
9.2903079e-05
0.0003915737
9.1506286e-05
0.00017561604
0.00070238019
0.0001036249
0.0002639832
0.0010231069
8.8484933e-05
0.00032237624
0.0012338518
5.6322168e-05
0.000343682
0.0012658556
2.8870222e-05
0.00033359264
0.0011498006
0.00030054274
0.00096270009
1.3709465e-05
8.5486329e-06
1.0306987e-05
3.7870213e-05
3.349335e-05
4.6994253e-05
0.00016281058
7.3246905e-05
0.0001177562
0.00038158965
0.00011815414
0.00022555377
0.0006846537
0.00014824081
0.000344447
0.00099837648
0.00014510498
0.00043317415
0.0012067745
0.00011729336
0.00047355675
0.0012413837
8.5756763e-05
0.00046983172
0.0011295942
0.00043013867
0.00094660174
5.8704443e-05
8.8470033e-06
1.091073e-05
3.6584001e-05
3.5777571e-05
5.0275676e-05
0.00015722478
8.1181146e-05
0.00012743118
0.00036840709
0.00013624462
0.00024841343
0.00066114069
0.0001777418
0.00038942655
0.00096545285
0.00018465198
0.00050522731
0.0011704473
0.00016203898
0.00056684472
0.0012082137
0.00013078382
0.00057310901
0.0011021222
0.00053085253
0.00092450785
0.0001022522
8.444751e-06
1.0697897e-05
3.5014153e-05
3.4775987e-05
4.9613231e-05
0.00015048799
8.0592879e-05
0.00012691519
0.00035271073
0.00013923557
0.00025113694
0.00063348314
0.00018737701
0.00040460177
0.00092699566
0.0002026098
0.00054141001
0.0011278576
0.00018641201
0.00062385445
0.001168819
0.00015784508
0.00064281378
0.0010691755
0.00060274244
0.00089768001
0.00012977155
7.7205405e-06
9.9547889e-06
3.3161366e-05
3.2110718e-05
4.6419224e-05
0.00014262318
7.5259352e-05
0.0001198925
0.00033462013
0.00013146007
0.00024129758
0.0006020568
0.00018071798
0.00039817047
0.00088363123
0.00020141329
0.00054791781
0.0010795758
0.00019211658
0.00064772498
0.0011234619
0.00016916111
0.00068033227
0.001030615
0.00064600486
0.00086591697
0.00014482402
6.7567692e-06
8.9254113e-06
3.1012964e-05
2.8144813e-05
4.1941232e-05
0.00013356638
6.6252125e-05
0.00010947248
0.00031395593
0.00011696144
0.00022376339
0.00056645753
0.00016370823
0.00037700795
0.00083465176
0.00018734925
0.00053163414
0.0010246478
0.00018495963
0.00064314193
0.0010710755
0.00016968553
0.00068811111
0.00098535418
0.00066186548
0.00082822139
0.00015186931
5.593466e-06
7.8359154e-06
2.8581247e-05
2.3366128e-05
3.7022192e-05
0.00012329544
5.5395782e-05
9.7462308e-05
0.0002904944
9.9105794e-05
0.00020183874
0.00052599316
0.00014147595
0.00034615826
0.00077877524
0.00016656613
0.00049829077
0.00096140634
0.00017091003
0.00061485124
0.0010099347
0.00016459701
0.00066893612
0.00093180038
0.00065160112
0.00078314993
0.00015545552
4.5420516e-06
6.6546076e-06
2.5867547e-05
1.9066264e-05
3.1662807e-05
0.00011182597
4.5665521e-05
8.4145604e-05
0.00026425857
8.3132653e-05
0.00017660326
0.00048063087
0.00012158826
0.00030812859
0.00071582864
0.00014788869
0.00045193587
0.00088954749
0.00015838265
0.00056744744
0.00093965346
0.00016072352
0.00062657134
0.00086941623
0.00061762637
0.00072979452
0.00016075514
3.5093296e-06
5.4780421e-06
2.2845596e-05
1.4887555e-05
2.6213103e-05
9.9069359e-05
3.6338649e-05
7.0241584e-05
0.00023506098
6.8085303e-05
0.00014928866
0.00042999878
0.00010331953
0.00026485286
0.00064513082
0.00013131936
0.0003953563
0.00080803125
0.00014825314
0.00050412497
0.00085897335
0.00015969384
0.00056368912
0.00079677523
0.00056167938
0.00066655144
0.00016994912
2.633856e-06
4.2854729e-06
1.9641098e-05
1.1403975e-05
2.0616664e-05
8.5462239e-05
2.8579934e-05
5.5834887e-05
0.00020367517
5.5465494e-05
0.00012054373
0.00037497987
8.8073838e-05
0.00021785127
0.0005671717
0.00011820004
0.00033094263
0.00071646039
0.00014208053
0.0004276977
0.00076643664
0.00016358007
0.00048283723
0.0007116601
0.00048617908
0.00059087973
0.00018514272
1.9887656e-06
1.6332951e-05
3.0167327e-06
8.6428921e-06
7.1368415e-05
1.4949306e-05
2.2099124e-05
0.00017093081
4.1432899e-05
4.4658886e-05
0.00031680766
9.1414781e-05
7.5100995e-05
0.00048298197
0.00016886333
0.00010786089
0.00061464644
0.0002613718
0.00013948919
0.00065997641
0.00034188292
0.00017200229
0.00061047124
0.00038864825
0.00049941134
0.00039710924
0.00020487585
1.0154561e-07
-1.7555511e-06
1.6390429e-05
1.5965238e-06
1.0291425e-06
-8.570097e-06
7.1274132e-05
7.7368208e-06
3.4289491e-06
-2.3574211e-05
0.00017111589
2.0989462e-05
7.1989493e-06
-5.18575e-05
0.00031940638
4.5488963e-05
1.2295414e-05
-9.6156193e-05
0.00049038598
8.3655768e-05
2.000011e-05
-0.0001505143
0.00062620383
0.00013125223
3.3229624e-05
-0.00019848954
0.00067033265
0.00017490411
5.4239031e-05
-0.00022439622
0.00061370931
0.00020014937
-0.00022260585
0.00049522956
0.00020066834
8.035811e-05
1.1866216e-07
-1.8610397e-06
1.9627924e-05
1.3136196e-06
-9.2764879e-06
8.4973587e-05
4.243706e-06
-2.5943058e-05
0.00020311364
8.1515666e-06
-5.7766403e-05
0.00037698042
1.1997729e-05
-0.00010759461
0.00057476329
1.6338417e-05
-0.00016736367
0.00072896811
2.4127709e-05
-0.00021744635
0.00077760365
3.8141357e-05
-0.00024129986
0.00071454911
-0.00023597933
0.00058476771
5.7627447e-05
1.9118268e-07
-1.9432226e-06
2.2736642e-05
1.7870184e-06
-9.8815784e-06
9.8078774e-05
5.5035241e-06
-2.8108622e-05
0.00023351049
1.0097711e-05
-6.3315832e-05
0.00043095478
1.3555695e-05
-0.0001180849
0.00065216394
1.552954e-05
-0.00018166857
0.00082036408
1.8803391e-05
-0.00023130798
0.00086956222
2.6890495e-05
-0.00025070955
0.00079809817
-0.00024060128
0.00065786593
4.0198625e-05
3.1464117e-07
-2.017384e-06
2.5627016e-05
2.5048921e-06
-1.0438208e-05
0.00011019224
7.3639583e-06
-3.010678e-05
0.00026139795
1.3113382e-05
-6.8364792e-05
0.00047993092
1.6718769e-05
-0.00012716574
0.00072130344
1.6937163e-05
-0.00019268655
0.00090034716
1.6541612e-05
-0.0002394577
0.00094819896
1.9896944e-05
-0.00025266991
0.00086802167
-0.00023729661
0.0007180582
2.8330029e-05
4.5655975e-07
-2.0652845e-06
2.8172545e-05
3.3178915e-06
-1.087347e-05
0.00012086919
9.5077615e-06
-3.1761943e-05
0.00028595975
1.6771128e-05
-7.2546882e-05
0.00052291254
2.1022724e-05
-0.0001341783
0.00078153764
1.9998593e-05
-0.00019953498
0.00096927922
1.6529166e-05
-0.00024121851
0.0010151662
1.6051061e-05
-0.00024728294
0.00092689213
-0.00022699491
0.000768142
2.0757951e-05
6.7083348e-07
-2.1195142e-06
3.0396368e-05
4.4203971e-06
-1.1236676e-05
0.00013018008
1.2317528e-05
-3.3023986e-05
0.00030732109
2.160341e-05
-7.5501861e-05
0.00056012599
2.6981965e-05
-0.00013823956
0.00083333477
2.500719e-05
-0.00020094852
0.0010280368
1.8644722e-05
-0.00023554264
0.0010717635
1.4596022e-05
-0.00023417111
0.00097629181
-0.00021021789
0.00080978196
1.6258888e-05
9.2113257e-07
-2.1633555e-06
3.2283992e-05
5.584312e-06
-1.1331246e-05
0.00013805472
1.5035224e-05
-3.3171287e-05
0.00032531743
2.6044681e-05
-7.5785694e-05
0.00059133144
3.230433e-05
-0.0001373759
0.00087650816
2.9274121e-05
-0.00019497912
0.001076637
2.0260984e-05
-0.00022131387
0.0011182477
1.3323582e-05
-0.00021334944
0.0010167319
-0.00018769435
0.00084374334
1.2974383e-05
1.1223619e-06
-2.0930985e-06
3.3821169e-05
6.6295092e-06
-1.083487e-05
0.00014448436
1.758545e-05
-3.1486937e-05
0.00034007116
2.9588864e-05
-7.1306327e-05
0.00061700056
3.607419e-05
-0.00012894627
0.00091208168
3.1677307e-05
-0.00017929344
0.0011165697
2.0249896e-05
-0.00019727009
0.001156204
1.1331195e-05
-0.00018484506
0.0010495911
-0.00016011774
0.00087123458
1.0200774e-05
1.1821431e-06
-1.7107375e-06
3.5019224e-05
7.0871958e-06
-9.0311079e-06
0.00014951599
1.8904723e-05
-2.6571486e-05
0.00035167484
3.2134698e-05
-6.0849866e-05
0.00063745423
3.8336735e-05
-0.00011042027
0.00094072591
3.2287626e-05
-0.00015161728
0.0011488214
1.8858183e-05
-0.0001623182
0.0011866923
9.3326385e-06
-0.00014895247
0.001075756
-0.00012832001
0.00089292578
9.1175244e-06
1.4344801e-06
-1.1728612e-06
3.5897929e-05
8.3948946e-06
-6.407126e-06
0.00015322643
2.2379129e-05
-1.9232185e-05
0.0003602667
3.7867207e-05
-4.4313382e-05
0.00065262922
4.2976907e-05
-7.95961e-05
0.00096244339
3.4359536e-05
-0.00010978904
0.0011735647
1.9519383e-05
-0.00011610064
0.0012100067
1.1823015e-05
-0.00010712267
0.0010954612
-9.4424373e-05
0.00090892991
1.5599529e-05
1.7701427e-06
-5.9750914e-07
3.6520003e-05
9.9836443e-06
-3.3353956e-06
0.00015578856
2.6395295e-05
-1.0140976e-05
0.00036607079
4.5261824e-05
-2.3466256e-05
0.00066266652
5.4150014e-05
-4.1802597e-05
0.00097642534
4.4886019e-05
-5.6386505e-05
0.0011897136
3.0676602e-05
-6.1262057e-05
0.0012252262
2.4034134e-05
-5.8501608e-05
0.0011078221
-5.0232585e-05
0.00091860117
2.3941404e-05
1.9679606e-06
5.2960272e-12
3.6787333e-05
1.0927196e-05
2.6647097e-11
0.00015695102
2.8778794e-05
1.1417942e-10
0.00036882593
4.9605303e-05
3.3141135e-10
0.00066760614
6.0928188e-05
7.8172552e-10
0.00098341971
5.5612478e-05
1.2849112e-09
0.0011975879
4.1013024e-05
1.5096492e-09
0.0012325197
2.9430131e-05
1.4094389e-09
0.0011138724
8.1952149e-10
0.00092343422
2.7247855e-05
1.9678898e-06
5.9752967e-07
3.6787327e-05
1.0927144e-05
3.335493e-06
0.000156951
2.8778731e-05
1.014131e-05
0.00036882588
4.9605324e-05
2.3467062e-05
0.00066760604
6.0928108e-05
4.1804324e-05
0.00098341958
5.561232e-05
5.6389278e-05
0.0011975877
4.1012947e-05
6.1265302e-05
0.0012325196
2.9430043e-05
5.8504536e-05
0.0011138723
5.0234159e-05
0.00092343416
2.7247798e-05
1.7700222e-06
1.1728933e-06
3.6520003e-05
9.9835397e-06
6.4072936e-06
0.00015578855
2.6395038e-05
1.9232685e-05
0.00036607077
4.5261891e-05
4.4314429e-05
0.00066266647
5.4149832e-05
7.9598138e-05
0.00097642528
4.4885612e-05
0.0001097922
0.0011897135
3.0676253e-05
0.00011610438
0.0012252261
2.4033752e-05
0.00010712573
0.001107822
9.4425762e-05
0.00091860104
2.3941175e-05
1.4345362e-06
1.7107652e-06
3.5897921e-05
8.394947e-06
9.031302e-06
0.0001532264
2.2378718e-05
2.6572048e-05
0.00036026662
3.7867364e-05
6.0851024e-05
0.00065262904
4.2976705e-05
0.00011042242
0.00096244316
3.4358982e-05
0.00015162054
0.0011735644
1.9518661e-05
0.00016232215
0.0012100064
1.1822081e-05
0.00014895558
0.0010954609
0.00012832119
0.00090892971
1.5598956e-05
1.1825106e-06
2.0931493e-06
3.501922e-05
7.087691e-06
1.0835153e-05
0.00014951597
1.8904542e-05
3.1487617e-05
0.00035167479
3.2135026e-05
7.1307547e-05
0.00063745413
3.8336472e-05
0.00012894825
0.00094072576
3.2286958e-05
0.00017929639
0.0011488212
1.8857201e-05
0.00019727367
0.0011866921
9.3316413e-06
0.00018484782
0.0010757558
0.00016011878
0.00089292555
9.1171384e-06
1.1227582e-06
2.163439e-06
3.382117e-05
6.6300587e-06
1.1331603e-05
0.00014448436
1.7585271e-05
3.3171991e-05
0.00034007117
2.9588845e-05
7.578676e-05
0.00061700054
3.6073679e-05
0.00013737755
0.00091208162
3.167668e-05
0.00019498172
0.0011165695
2.0248911e-05
0.00022131707
0.0011562038
1.1330233e-05
0.00021335193
0.0010495909
0.0001876951
0.00087123436
1.0200462e-05
9.2123967e-07
2.1195726e-06
3.2283998e-05
5.5843627e-06
1.1236913e-05
0.00013805474
1.5034549e-05
3.3024392e-05
0.00032531748
2.6044149e-05
7.5502558e-05
0.00059133149
3.2303869e-05
0.00013824114
0.00087650815
2.9273771e-05
0.00020095123
0.0010766369
2.0260249e-05
0.00023554584
0.0011182475
1.3322825e-05
0.00023417335
0.0010167317
0.00021021803
0.00084374315
1.2973703e-05
6.7082114e-07
2.0653126e-06
3.0396379e-05
4.4203603e-06
1.0873631e-05
0.00013018012
1.2317238e-05
3.1762401e-05
0.00030732118
2.1603652e-05
7.2547964e-05
0.00056012613
2.6982088e-05
0.0001341802
0.00083333489
2.5007278e-05
0.00019953759
0.0010280369
1.8644385e-05
0.00024122138
0.0010717634
1.4595467e-05
0.00024728467
0.00097629167
0.00022699469
0.00080978177
1.6257747e-05
4.5657965e-07
2.0174298e-06
2.8172546e-05
3.3181428e-06
1.0438427e-05
0.00012086919
9.5082066e-06
3.0107388e-05
0.00028595975
1.6771615e-05
6.8365877e-05
0.00052291254
2.1022895e-05
0.00012716727
0.00078153761
1.9999149e-05
0.00019268892
0.00096927916
1.6529295e-05
0.00023945995
0.001015166
1.6050761e-05
0.00025267112
0.00092689194
0.00023729702
0.00076814178
2.0756901e-05
3.1473936e-07
1.9432738e-06
2.5627014e-05
2.5052858e-06
9.8818287e-06
0.00011019223
7.3644743e-06
2.8109257e-05
0.00026139791
1.3113713e-05
6.3317018e-05
0.00047993086
1.6719524e-05
0.00011808685
0.00072130332
1.6937838e-05
0.00018167102
0.000900347
1.6542088e-05
0.00023131016
0.00094819875
1.9897116e-05
0.00025071079
0.00086802143
0.00024060156
0.00071805799
2.8329423e-05
1.9122273e-07
1.8610839e-06
2.2736637e-05
1.7872243e-06
9.2766864e-06
9.8078748e-05
5.5038646e-06
2.5943522e-05
0.00023351043
1.0098065e-05
5.7767224e-05
0.00043095467
1.3556409e-05
0.0001075958
0.00065216379
1.5530144e-05
0.00016736521
0.00082036388
1.8803874e-05
0.00021744833
0.00086956195
2.6891185e-05
0.00024130194
0.00079809793
0.00023598025
0.00065786578
4.0198418e-05
1.1868443e-07
1.7556044e-06
1.9627925e-05
1.3137388e-06
8.570321e-06
8.4973587e-05
4.2439152e-06
2.3574752e-05
0.00020311364
8.1519446e-06
5.1858504e-05
0.0003769804
1.1998481e-05
9.6157722e-05
0.00057476325
1.6339299e-05
0.00015051653
0.00072896805
2.4128303e-05
0.00019849179
0.00077760353
3.8141952e-05
0.00022439929
0.00071454906
0.00022260788
0.00058476761
5.7627927e-05
1.0157279e-07
1.6390434e-05
1.5965872e-06
1.0292245e-06
7.1274149e-05
7.7370762e-06
3.4290216e-06
0.00017111593
2.0990084e-05
7.1992152e-06
0.00031940643
4.5490168e-05
1.2295826e-05
0.00049038604
8.3657531e-05
2.0000009e-05
0.00062620391
0.00013125408
3.3230258e-05
0.00067033268
0.00017490563
5.4239236e-05
0.00061370938
0.00020015069
0.00049522953
0.00020066787
8.0358976e-05
1.8314749e-07
-9.8498351e-07
1.6507478e-05
6.8478533e-07
7.7450203e-07
-4.5683653e-06
7.1987333e-05
3.2638249e-06
2.3660876e-06
-1.2038754e-05
0.00017276781
8.7953255e-06
6.4944088e-06
-2.5599627e-05
0.00032177543
1.910239e-05
1.4753969e-05
-4.6544411e-05
0.00049317678
3.5494168e-05
2.6981223e-05
-7.2445107e-05
0.00062991954
5.6502168e-05
4.0538229e-05
-9.5506352e-05
0.000676103
7.6179006e-05
5.2132708e-05
-0.00010725222
0.00062190618
8.7461301e-05
-0.0001045989
0.00050449275
8.7662053e-05
5.9806095e-05
1.8064677e-07
-1.2349432e-06
1.9697235e-05
7.6645802e-07
-5.7010015e-06
8.5520378e-05
2.448636e-06
-1.4903862e-05
0.00020429649
6.9870312e-06
-3.133653e-05
0.00037817881
1.5995797e-05
-5.6180045e-05
0.00057538992
2.8734079e-05
-8.5905096e-05
0.0007296892
4.1729675e-05
-0.00011096659
0.00078006805
5.1321422e-05
-0.00012216881
0.00071987333
-0.00011722994
0.0005923443
5.6375902e-05
1.844078e-07
-1.4228336e-06
2.2740137e-05
7.4632982e-07
-6.5597526e-06
9.8375646e-05
2.4558952e-06
-1.7118553e-05
0.00023401576
7.3367216e-06
-3.5860155e-05
0.00043059781
1.7052172e-05
-6.3784062e-05
0.00065005268
3.0326651e-05
-9.6153143e-05
0.00081733837
4.3012194e-05
-0.00012187076
0.00086778125
5.1266091e-05
-0.00013174124
0.00079941657
-0.00012481694
0.00066244739
5.427182e-05
2.0005996e-07
-1.5481072e-06
2.5552225e-05
7.9524156e-07
-7.1381159e-06
0.00011017546
2.6405891e-06
-1.8630967e-05
0.00026106526
7.9705761e-06
-3.8996836e-05
0.00047773787
1.8440495e-05
-6.9026663e-05