/*--------------------------------*- C++ -*----------------------------------*\
| =========                 |                                                 |
| \\      /  F ield         | OpenFOAM: The Open Source CFD Toolbox           |
|  \\    /   O peration     | Version:  2406                                  |
|   \\  /    A nd           | Website:  www.openfoam.com                      |
|    \\/     M anipulation  |                                                 |
\*---------------------------------------------------------------------------*/
FoamFile
{
    version     2.0;
    format      ascii;
    arch        "LSB;label=32;scalar=64";
    class       volVectorField;
    location    "16.5";
    object      U;
}
// * * * * * * * * * * * * * * * * * * * * * * * * * * * * * * * * * * * * * //

dimensions      [0 1 -1 0 0 0 0];

internalField   nonuniform List<vector> 
34560
(
(0.080713215 -0.0075010757 -0.019071099)
(0.24776848 -0.022858163 -0.05893936)
(0.43323667 -0.04302374 -0.10029132)
(0.61329348 -0.068186044 -0.13540061)
(0.75457899 -0.096123635 -0.15578279)
(0.82876213 -0.12306134 -0.1561929)
(0.83561205 -0.14573878 -0.14031777)
(0.80455473 -0.16146707 -0.11818156)
(0.76612957 -0.16879186 -0.099988149)
(0.091991405 -0.0086428803 -0.021126647)
(0.27822529 -0.025448732 -0.064712364)
(0.47879153 -0.046443507 -0.10821457)
(0.66467024 -0.071403934 -0.14247197)
(0.79875389 -0.097626262 -0.15867716)
(0.85557262 -0.12135151 -0.15308494)
(0.84380752 -0.13996024 -0.13178183)
(0.80212507 -0.15149233 -0.10683539)
(0.76199574 -0.15529711 -0.087054155)
(0.10358402 -0.0091820941 -0.022298463)
(0.30937735 -0.026509333 -0.068096116)
(0.52538136 -0.047527811 -0.11253346)
(0.71783171 -0.071628602 -0.14554334)
(0.8465859 -0.095675641 -0.15846239)
(0.88944579 -0.11620423 -0.14880079)
(0.86365372 -0.13099328 -0.12415603)
(0.81502696 -0.1388314 -0.097363739)
(0.77584195 -0.13972302 -0.076616886)
(0.1153697 -0.009664755 -0.023332653)
(0.34090966 -0.027358992 -0.071038551)
(0.57263976 -0.048059368 -0.11608054)
(0.77256314 -0.070734461 -0.14761552)
(0.89797072 -0.091845845 -0.15737564)
(0.92998118 -0.10859722 -0.14392764)
(0.89315584 -0.11915712 -0.11657941)
(0.83955605 -0.12331498 -0.088270266)
(0.80132226 -0.12148601 -0.066753982)
(0.12699682 -0.0097922285 -0.024057452)
(0.372172 -0.027372917 -0.073191509)
(0.62010057 -0.047392172 -0.1185488)
(0.82902753 -0.068364213 -0.14862429)
(0.95371268 -0.086306748 -0.15550154)
(0.97767764 -0.098810646 -0.13857422)
(0.93216284 -0.10490978 -0.10855515)
(0.87457426 -0.10547934 -0.078601649)
(0.83704951 -0.10146283 -0.056104707)
(0.13847807 -0.0097633742 -0.024479008)
(0.40332153 -0.027099115 -0.074518276)
(0.66823317 -0.046301085 -0.11985858)
(0.88810898 -0.065378059 -0.14840926)
(1.0149001 -0.079949215 -0.15246739)
(1.0334942 -0.087833278 -0.13208835)
(0.98117298 -0.089347316 -0.099184724)
(0.92034491 -0.086549737 -0.067387964)
(0.88336721 -0.08089434 -0.04378358)
(0.1497905 -0.0095312847 -0.024730074)
(0.43448744 -0.026370232 -0.075316567)
(0.71753831 -0.044590246 -0.12025118)
(0.95076942 -0.061682599 -0.14688668)
(1.0827495 -0.072875831 -0.14765578)
(1.098454 -0.076118838 -0.12328388)
(1.0410617 -0.073193555 -0.087101959)
(0.97780972 -0.067441024 -0.053372665)
(0.94134029 -0.060724859 -0.028809679)
(0.16071176 -0.0090123387 -0.024774191)
(0.46531764 -0.024975258 -0.075473923)
(0.76785213 -0.041963265 -0.11946958)
(1.0172117 -0.057000458 -0.14351435)
(1.1576393 -0.064996811 -0.14008035)
(1.1728802 -0.063999749 -0.11082586)
(1.112134 -0.057227975 -0.07099717)
(1.047563 -0.049193914 -0.035515141)
(1.0116495 -0.04205043 -0.010550363)
(0.17096144 -0.0080858459 -0.024615565)
(0.4950883 -0.022526291 -0.074948135)
(0.8180636 -0.037741691 -0.11730348)
(1.085901 -0.050485453 -0.13778464)
(1.2375181 -0.055647093 -0.12890124)
(1.2546859 -0.051458989 -0.093860965)
(1.1922811 -0.042078497 -0.050278989)
(1.1280235 -0.0328882 -0.01366478)
(1.0926591 -0.026030593 0.010723004)
(0.17997293 -0.006618479 -0.024288096)
(0.52198389 -0.018559615 -0.073816011)
(0.86472998 -0.031053973 -0.11389324)
(1.1515183 -0.041011484 -0.12994632)
(1.315691 -0.043848856 -0.1146451)
(1.3366113 -0.038192738 -0.073343918)
(1.2750441 -0.028275881 -0.026399622)
(1.2127258 -0.019527701 0.010424236)
(1.1778987 -0.013770955 0.033235312)
(0.18704121 -0.0044606283 -0.023937748)
(0.54337412 -0.01255388 -0.07252995)
(0.90239382 -0.020948288 -0.1102117)
(1.205195 -0.027375159 -0.1218165)
(1.3808001 -0.028595597 -0.10037931)
(1.4053679 -0.023689195 -0.053407752)
(1.3471031 -0.016005575 -0.0040109177)
(1.2877111 -0.0096452634 0.0323292)
(1.2529039 -0.0058136329 0.053016771)
(0.19077204 -0.0015361056 -0.023689774)
(0.55497074 -0.0043313803 -0.071646657)
(0.92327969 -0.0072591604 -0.10780461)
(1.2354486 -0.0094935093 -0.11661583)
(1.4182061 -0.0098437434 -0.091309616)
(1.4456049 -0.0079395489 -0.040868836)
(1.3902028 -0.0050641737 0.0098164629)
(1.3326628 -0.0027705488 0.045571519)
(1.2974866 -0.0014544555 0.064725145)
(0.19077202 0.0015360243 -0.023689769)
(0.55497068 0.0043311393 -0.071646665)
(0.92327959 0.0072587357 -0.10780459)
(1.2354484 0.0094928516 -0.11661583)
(1.4182059 0.0098429736 -0.091309642)
(1.4456047 0.007938679 -0.040868825)
(1.3902026 0.0050632427 0.0098164878)
(1.3326625 0.002769526 0.045571564)
(1.2974864 0.001453297 0.06472518)
(0.18704117 0.0044605561 -0.023937722)
(0.543374 0.012553657 -0.072529936)
(0.90239356 0.020947906 -0.11021162)
(1.2051944 0.027374601 -0.12181647)
(1.3807996 0.028594953 -0.10037936)
(1.4053672 0.023688458 -0.053407705)
(1.3471025 0.01600478 -0.0040108463)
(1.2877105 0.0096443563 0.032329331)
(1.2529031 0.0058125735 0.053016876)
(0.1799729 0.0066184303 -0.024288073)
(0.52198377 0.018559451 -0.073815997)
(0.86472964 0.031053686 -0.1138932)
(1.1515176 0.041011073 -0.12994635)
(1.3156904 0.043848353 -0.11464515)
(1.3366104 0.038192168 -0.073343795)
(1.2750432 0.028275276 -0.026399465)
(1.212725 0.019526967 0.010424474)
(1.1778975 0.013770052 0.033235489)
(0.17096141 0.0080858297 -0.024615562)
(0.49508817 0.022526206 -0.074948154)
(0.81806329 0.037741491 -0.11730351)
(1.0859005 0.050485112 -0.13778464)
(1.2375175 0.055646608 -0.12890117)
(1.2546849 0.051458487 -0.093860743)
(1.1922801 0.042077993 -0.050278737)
(1.1280225 0.032887592 -0.01366442)
(1.0926578 0.026029826 0.010723235)
(0.16071174 0.0090123294 -0.024774175)
(0.4653176 0.024975209 -0.07547389)
(0.76785205 0.041963123 -0.11946949)
(1.0172114 0.057000171 -0.14351418)
(1.1576387 0.064996334 -0.14008015)
(1.1728791 0.063999273 -0.11082562)
(1.112133 0.057227478 -0.070996836)
(1.047562 0.049193365 -0.035514671)
(1.0116481 0.042049758 -0.010550075)
(0.14979051 0.0095312431 -0.02473009)
(0.43448743 0.026370143 -0.075316541)
(0.71753823 0.044590103 -0.12025108)
(0.95076908 0.061682391 -0.14688648)
(1.0827487 0.072875442 -0.14765555)
(1.0984531 0.076118391 -0.12328362)
(1.0410607 0.073193058 -0.087101541)
(0.97780864 0.067440517 -0.053372145)
(0.94133909 0.06072428 -0.02880928)
(0.13847802 0.0097633264 -0.024479036)
(0.40332136 0.02709899 -0.074518313)
(0.66823295 0.046300884 -0.11985861)
(0.88810879 0.065377834 -0.14840912)
(1.0148995 0.079948864 -0.15246712)
(1.0334936 0.087832818 -0.13208807)
(0.98117212 0.089346851 -0.099184319)
(0.92034391 0.086549288 -0.067387465)
(0.88336618 0.080893818 -0.043783044)
(0.12699683 0.00979217 -0.024057438)
(0.37217202 0.027372791 -0.073191453)
(0.62010066 0.047391985 -0.11854872)
(0.82902759 0.068364003 -0.14862412)
(0.95371239 0.086306457 -0.15550135)
(0.97767733 0.098810168 -0.13857406)
(0.93216229 0.10490926 -0.10855488)
(0.87457358 0.10547887 -0.078601156)
(0.83704862 0.10146232 -0.056104075)
(0.11536967 0.0096646938 -0.02333264)
(0.34090957 0.027358833 -0.071038549)
(0.57263956 0.048059097 -0.11608058)
(0.77256292 0.070734167 -0.14761555)
(0.89797055 0.091845595 -0.15737556)
(0.92998086 0.10859682 -0.14392745)
(0.89315552 0.11915648 -0.11657914)
(0.83955558 0.12331434 -0.088269806)
(0.8013214 0.12148555 -0.066753331)
(0.10358399 0.0091820892 -0.022298457)
(0.30937723 0.026509299 -0.068096123)
(0.52538113 0.047527695 -0.11253347)
(0.71783146 0.071628374 -0.14554333)
(0.8465858 0.095675368 -0.15846233)
(0.88944566 0.11620391 -0.14880055)
(0.86365333 0.13099262 -0.12415568)
(0.81502651 0.13883054 -0.097363408)
(0.7758414 0.13972258 -0.076616543)
(0.091991399 0.0086428791 -0.021126635)
(0.27822526 0.025448732 -0.06471234)
(0.47879148 0.046443475 -0.10821456)
(0.66467023 0.07140381 -0.14247201)
(0.79875409 0.097626068 -0.15867722)
(0.85557288 0.1213513 -0.1530848)
(0.84380733 0.13995983 -0.1317815)
(0.80212494 0.15149166 -0.10683542)
(0.76199496 0.15529619 -0.087053882)
(0.080713203 0.0075010902 -0.019071109)
(0.24776843 0.022858203 -0.058939395)
(0.43323655 0.043023794 -0.10029139)
(0.61329329 0.068186085 -0.13540073)
(0.7545788 0.096123643 -0.15578291)
(0.82876198 0.12306129 -0.15619289)
(0.83561185 0.14573862 -0.14031775)
(0.80455454 0.16146704 -0.11818175)
(0.76612867 0.1687916 -0.099988298)
(0.10880828 -0.002296237 -0.0022368549)
(0.34367665 -0.0079118828 -0.0078770502)
(0.61822942 -0.015725955 -0.01596784)
(0.90357105 -0.025954718 -0.026603006)
(1.1553575 -0.038154085 -0.038344902)
(1.3331348 -0.050933939 -0.048123668)
(1.4238772 -0.062974561 -0.053312077)
(1.4466432 -0.07389292 -0.053767933)
(1.4299532 -0.083328905 -0.051928501)
(0.12064214 -0.0031192926 -0.0027170844)
(0.37788502 -0.010523578 -0.0094335275)
(0.67296914 -0.020393509 -0.018934832)
(0.97052984 -0.032655693 -0.031130446)
(1.2206774 -0.046393553 -0.043990547)
(1.3832653 -0.059832265 -0.053951443)
(1.4522538 -0.071764761 -0.058551211)
(1.4550236 -0.082244679 -0.058331823)
(1.4245809 -0.09059828 -0.055419261)
(0.13162377 -0.0037281198 -0.002875848)
(0.40959884 -0.012538188 -0.010070606)
(0.72352559 -0.024075229 -0.020415468)
(1.0319387 -0.037988969 -0.033694041)
(1.2801593 -0.052889709 -0.047401856)
(1.4291481 -0.066652299 -0.057589967)
(1.4797999 -0.078113955 -0.061892233)
(1.466563 -0.08751573 -0.061215866)
(1.4270949 -0.094426669 -0.057753743)
(0.1418136 -0.0044144476 -0.0030156164)
(0.43886231 -0.014713701 -0.010611527)
(0.76990689 -0.027889485 -0.021696394)
(1.0880225 -0.043254945 -0.035898769)
(1.3346278 -0.058916163 -0.050245589)
(1.4721751 -0.072466785 -0.060463705)
(1.5078396 -0.082909076 -0.064337354)
(1.4816604 -0.09084845 -0.063149838)
(1.4345411 -0.096193828 -0.05926774)
(0.15080797 -0.0050694766 -0.003063203)
(0.46479636 -0.016794107 -0.010871649)
(0.81118356 -0.031520756 -0.022506334)
(1.1382606 -0.048167293 -0.037463192)
(1.3840755 -0.064264595 -0.052327067)
(1.512379 -0.077123049 -0.062471128)
(1.5358559 -0.08607778 -0.065777869)
(1.4989611 -0.092235482 -0.063901578)
(1.4450811 -0.095908001 -0.059455871)
(0.15885794 -0.0057165656 -0.0029899016)
(0.48806727 -0.018820397 -0.010745996)
(0.84838002 -0.034989611 -0.022646905)
(1.1839178 -0.052670421 -0.038083941)
(1.4297194 -0.068759594 -0.053222386)
(1.5504758 -0.080341241 -0.063063442)
(1.5635917 -0.087317565 -0.065584452)
(1.5174512 -0.091452552 -0.062841266)
(1.4576157 -0.093472449 -0.057738295)
(0.1662104 -0.0063027773 -0.0028226097)
(0.50939951 -0.020619391 -0.01028911)
(0.88273214 -0.037984272 -0.022090892)
(1.22666 -0.056308417 -0.037552122)
(1.4732988 -0.071816322 -0.052441119)
(1.5876833 -0.08149013 -0.061463622)
(1.5914042 -0.086079491 -0.062868363)
(1.5367785 -0.088104118 -0.059170432)
(1.4717661 -0.0886104 -0.053494367)
(0.17284965 -0.0066709353 -0.0025051324)
(0.5290038 -0.021742836 -0.0093643771)
(0.91491393 -0.03973659 -0.020555892)
(1.2677664 -0.057956005 -0.035217466)
(1.516349 -0.072178103 -0.049077713)
(1.6252459 -0.079447776 -0.056649288)
(1.6200453 -0.081540083 -0.056666749)
(1.557328 -0.081659965 -0.052120035)
(1.4877189 -0.08088955 -0.046145889)
(0.17890597 -0.0066607925 -0.0020508554)
(0.54735189 -0.021579188 -0.0078791636)
(0.94600396 -0.03923279 -0.017886621)
(1.3084622 -0.056549848 -0.03114957)
(1.5598732 -0.068282277 -0.042331109)
(1.6638448 -0.072850004 -0.047813055)
(1.6499403 -0.072757805 -0.046389109)
(1.579486 -0.071345259 -0.041167224)
(1.5057925 -0.069647548 -0.035331134)
(0.18427959 -0.005948855 -0.0014478085)
(0.56406873 -0.019092288 -0.0058287509)
(0.97523812 -0.034393437 -0.013729066)
(1.3483358 -0.048979861 -0.024165998)
(1.6029427 -0.05839523 -0.032434554)
(1.7021611 -0.060336592 -0.035023021)
(1.6799642 -0.05865827 -0.032326906)
(1.6028653 -0.056326032 -0.026633978)
(1.5257452 -0.054083476 -0.021191729)
(0.18877272 -0.0042478995 -0.00082288551)
(0.57798101 -0.013507365 -0.0036721118)
(0.99964045 -0.024127694 -0.0092731156)
(1.382043 -0.034003912 -0.016592064)
(1.6407017 -0.040037694 -0.021180286)
(1.7356789 -0.040773895 -0.019964146)
(1.7064689 -0.038555101 -0.016794992)
(1.6251592 -0.036109399 -0.0098363954)
(1.5458888 -0.034266087 -0.0064950763)
(0.19104492 -0.001558247 -0.00042913974)
(0.58535392 -0.0049302365 -0.0022977283)
(1.0130919 -0.0087630259 -0.0063613595)
(1.401256 -0.012274571 -0.011579997)
(1.6629243 -0.014351919 -0.013739105)
(1.7566324 -0.014500349 -0.010357759)
(1.7238521 -0.013464746 -0.0047503258)
(1.6396893 -0.01241042 4.3634289e-05)
(1.5586153 -0.01175459 0.0018584617)
(0.19104491 0.0015582649 -0.00042913529)
(0.5853539 0.0049302754 -0.0022977263)
(1.0130919 0.0087630762 -0.0063613605)
(1.4012559 0.012274603 -0.011580011)
(1.6629242 0.01435199 -0.013739134)
(1.7566323 0.01450051 -0.010357771)
(1.7238519 0.013465034 -0.0047503372)
(1.6396892 0.012410792 4.3628895e-05)
(1.5586151 0.011754902 0.0018584499)
(0.18877271 0.0042479177 -0.00082288258)
(0.57798099 0.013507415 -0.0036721059)
(0.9996404 0.024127772 -0.0092731058)
(1.3820427 0.034003984 -0.016592078)
(1.6407014 0.04003781 -0.021180353)
(1.7356785 0.040774121 -0.019964171)
(1.7064685 0.038555489 -0.016795021)
(1.6251589 0.036109817 -0.0098363991)
(1.5458884 0.034266396 -0.0064950943)
(0.18427959 0.0059488529 -0.0014478235)
(0.56406872 0.019092309 -0.0058287562)
(0.97523805 0.034393499 -0.013729059)
(1.3483355 0.048979949 -0.024166003)
(1.6029424 0.058395383 -0.032434634)
(1.7021606 0.060336898 -0.035023042)
(1.6799637 0.058658727 -0.032326912)
(1.602865 0.056326492 -0.026633934)
(1.5257447 0.054083808 -0.021191785)
(0.17890597 0.0066607839 -0.0020508964)
(0.54735188 0.021579199 -0.0078792251)
(0.94600387 0.039232837 -0.017886688)
(1.3084619 0.056549945 -0.031149605)
(1.559873 0.068282435 -0.042331191)
(1.6638444 0.072850285 -0.04781306)
(1.6499399 0.072758231 -0.04638907)
(1.5794857 0.071345679 -0.041167108)
(1.505792 0.069647871 -0.03533108)
(0.17284966 0.0066709527 -0.0025051665)
(0.52900382 0.021742882 -0.0093644573)
(0.91491396 0.039736653 -0.020555958)
(1.2677664 0.057956112 -0.035217456)
(1.5163489 0.072178213 -0.04907772)
(1.6252454 0.079447973 -0.056649262)
(1.620045 0.081540402 -0.056666681)
(1.5573276 0.081660304 -0.052119896)
(1.4877184 0.080889823 -0.046145839)
(0.16621043 0.0063027864 -0.0028226076)
(0.5093996 0.020619394 -0.010289136)
(0.88273228 0.037984275 -0.022090872)
(1.2266601 0.056308466 -0.037552032)
(1.4732986 0.071816383 -0.052441073)
(1.5876828 0.081490265 -0.061463613)
(1.5914039 0.086079716 -0.062868316)
(1.5367781 0.088104366 -0.059170318)
(1.4717655 0.088610564 -0.053494297)
(0.15885792 0.0057165538 -0.0029899056)
(0.48806718 0.018820361 -0.010746029)
(0.84837993 0.034989566 -0.022646941)
(1.1839178 0.052670433 -0.038083982)
(1.429719 0.068759638 -0.053222449)
(1.5504756 0.080341341 -0.063063513)
(1.5635914 0.087317713 -0.065584462)
(1.5174508 0.091452689 -0.062841177)
(1.4576151 0.093472483 -0.057738133)
(0.15080797 0.00506948 -0.0030632074)
(0.46479636 0.01679411 -0.010871705)
(0.81118363 0.03152076 -0.02250645)
(1.1382608 0.048167324 -0.037463326)
(1.3840755 0.064264646 -0.052327176)
(1.5123791 0.077123097 -0.062471249)
(1.5358558 0.086077805 -0.065777931)
(1.4989608 0.092235471 -0.063901514)
(1.4450807 0.095907998 -0.059455708)
(0.14181359 0.0044144425 -0.0030156297)
(0.43886227 0.014713703 -0.010611579)
(0.76990684 0.027889479 -0.021696508)
(1.0880226 0.04325495 -0.035898903)
(1.334628 0.058916211 -0.050245732)
(1.472175 0.072466799 -0.06046384)
(1.5078396 0.082908996 -0.064337458)
(1.4816602 0.090848269 -0.063149918)
(1.4345406 0.096193745 -0.059267701)
(0.13162374 0.0037281265 -0.002875852)
(0.40959874 0.012538225 -0.01007063)
(0.72352543 0.024075273 -0.020415539)
(1.0319385 0.037989004 -0.03369415)
(1.2801594 0.052889745 -0.047401988)
(1.4291481 0.0666523 -0.057590107)
(1.4797996 0.078113836 -0.061892383)
(1.4665627 0.087515606 -0.061216195)
(1.4270946 0.094426493 -0.057753916)
(0.12064215 0.0031193099 -0.002717091)
(0.37788502 0.010523639 -0.0094335593)
(0.67296915 0.020393604 -0.018934907)
(0.97052993 0.03265579 -0.031130568)
(1.2206777 0.046393617 -0.043990757)
(1.3832656 0.059832308 -0.053951751)
(1.4522536 0.07176468 -0.058551703)
(1.4550238 0.082244517 -0.058332341)
(1.4245803 0.090598065 -0.05541949)
(0.10880829 0.0022962625 -0.002236877)
(0.34367663 0.0079119555 -0.0078771277)
(0.61822937 0.015726078 -0.015967981)
(0.90357096 0.025954857 -0.026603233)
(1.1553574 0.038154164 -0.038345258)
(1.3331348 0.050933948 -0.048124131)
(1.4238771 0.062974576 -0.053312593)
(1.4466433 0.07389298 -0.053768739)
(1.4299522 0.083328744 -0.051928975)
(0.089115152 -0.0010849017 -0.00098882117)
(0.28400976 -0.0037808626 -0.0034363966)
(0.51693819 -0.0076708812 -0.0068052771)
(0.76675097 -0.013018114 -0.011021964)
(0.99483171 -0.019895157 -0.015431255)
(1.1573524 -0.027727125 -0.018889099)
(1.2305241 -0.035189767 -0.020487712)
(1.2279636 -0.041022673 -0.020469566)
(1.1837725 -0.044358848 -0.019917556)
(0.097335611 -0.0011864675 -0.00096505909)
(0.30811735 -0.0041506348 -0.0033947641)
(0.55629979 -0.0084268574 -0.0068265692)
(0.81579906 -0.014258077 -0.011187812)
(1.042162 -0.021572924 -0.01564796)
(1.1892484 -0.029463282 -0.018840011)
(1.238462 -0.036385569 -0.019827018)
(1.2130029 -0.041246016 -0.019213177)
(1.1543608 -0.043801608 -0.018224104)
(0.1049464 -0.0011937547 -0.00085287979)
(0.33056863 -0.0042726788 -0.0031040245)
(0.5931271 -0.0088115253 -0.0064556803)
(0.86182912 -0.015041196 -0.010868575)
(1.0867881 -0.022704131 -0.015372331)
(1.2201575 -0.03052462 -0.018375189)
(1.2487978 -0.036769321 -0.018898108)
(1.2048939 -0.040553559 -0.017727201)
(1.1367731 -0.042176187 -0.016370079)
(0.11191769 -0.0012309094 -0.00077577167)
(0.35112026 -0.0044690872 -0.0029012582)
(0.62684823 -0.0092989617 -0.0062147861)
(0.90407797 -0.015919923 -0.010692567)
(1.1281797 -0.023839269 -0.015212287)
(1.2501657 -0.031396246 -0.017975975)
(1.2620478 -0.036741216 -0.017990087)
(1.2036794 -0.039318858 -0.016289947)
(1.1283135 -0.039949525 -0.014612945)
(0.11789518 -0.0012531823 -0.0006975791)
(0.36889866 -0.0046282551 -0.0026923218)
(0.65629252 -0.0097359003 -0.0059627452)
(0.9413931 -0.016728557 -0.010500846)
(1.1654365 -0.024821106 -0.015032789)
(1.2785403 -0.031942902 -0.017552237)
(1.2772685 -0.036218304 -0.017063304)
(1.2077343 -0.037545608 -0.014861185)
(1.1267268 -0.037195688 -0.012885001)
(0.12306603 -0.0012802317 -0.00061743671)
(0.38433812 -0.0047856347 -0.0024641326)
(0.68200106 -0.010140265 -0.005656488)
(0.97425402 -0.017434234 -0.01019947)
(1.198793 -0.025554874 -0.01468746)
(1.3050212 -0.032034384 -0.016927356)
(1.293457 -0.035094651 -0.015937777)
(1.215345 -0.035189084 -0.013271649)
(1.1299501 -0.03401575 -0.011072956)
(0.12758726 -0.0013230457 -0.00054939817)
(0.39785003 -0.0049351792 -0.0022437994)
(0.70458098 -0.010446277 -0.0053144902)
(1.0033625 -0.017873986 -0.0097362914)
(1.2288467 -0.025807042 -0.014033608)
(1.3297545 -0.031451473 -0.01590278)
(1.3099973 -0.033230235 -0.014411793)
(1.2251783 -0.032205858 -0.011358705)
(1.1363716 -0.030409478 -0.0090523347)
(0.13134705 -0.0013294087 -0.00047598786)
(0.40921304 -0.0048860797 -0.0019367617)
(0.72394409 -0.010318277 -0.0047625037)
(1.0289234 -0.017668572 -0.0090125763)
(1.2560567 -0.025137909 -0.012911573)
(1.3530692 -0.02980599 -0.014271814)
(1.3266757 -0.030383665 -0.012328187)
(1.2363688 -0.028493078 -0.0090465266)
(1.1447316 -0.026342422 -0.0068360444)
(0.13431812 -0.0011924584 -0.00036181277)
(0.41828872 -0.0043875221 -0.0015467492)
(0.73963773 -0.009218151 -0.003925425)
(1.0506119 -0.015750548 -0.0075132253)
(1.2802987 -0.022833773 -0.011483564)
(1.3748185 -0.026560381 -0.012177699)
(1.3430473 -0.026215435 -0.0098180296)
(1.248035 -0.02388408 -0.0065787126)
(1.1537903 -0.021753303 -0.0048030293)
(0.13655233 -0.00090038313 -0.00024903647)
(0.42517458 -0.0034216768 -0.0011819803)
(0.75162198 -0.0073479319 -0.0033572894)
(1.0671861 -0.012656735 -0.0067839994)
(1.3001405 -0.017977173 -0.010121165)
(1.3937237 -0.021062211 -0.010450567)
(1.357889 -0.020390017 -0.0076291132)
(1.2587555 -0.018300712 -0.0049027061)
(1.1618265 -0.016725731 -0.0041632656)
(0.13830179 -0.00055160561 -0.00017534988)
(0.43038058 -0.0021601335 -0.00094812705)
(0.76041449 -0.0047225574 -0.0030076091)
(1.0789732 -0.0081969495 -0.0063998157)
(1.3134845 -0.011577987 -0.0098081467)
(1.4072148 -0.0133009 -0.010835869)
(1.3688597 -0.012995772 -0.0071261958)
(1.2658844 -0.011869099 -0.006321908)
(1.1662299 -0.010884106 -0.0053406111)
(0.13903072 -0.00018776251 -0.0001424376)
(0.43271616 -0.00074407668 -0.00084234269)
(0.76460753 -0.0016362629 -0.0028594594)
(1.0848663 -0.0028426876 -0.0062585423)
(1.3202302 -0.0039954681 -0.0097373496)
(1.4134697 -0.0045401029 -0.011018838)
(1.3735134 -0.004496361 -0.008988463)
(1.268963 -0.0041706835 -0.0067101491)
(1.1683187 -0.0037806102 -0.005536146)
(0.13903071 0.00018777169 -0.00014243222)
(0.43271614 0.00074410764 -0.00084233212)
(0.76460749 0.0016363464 -0.0028594551)
(1.0848662 0.0028428538 -0.006258547)
(1.3202301 0.0039957734 -0.0097373607)
(1.4134696 0.0045405323 -0.011018835)
(1.3735133 0.0044968292 -0.008988456)
(1.268963 0.0041710975 -0.0067101412)
(1.1683186 0.0037808479 -0.0055361313)
(0.13830178 0.00055162282 -0.00017534562)
(0.43038054 0.0021601953 -0.0009481138)
(0.7604144 0.0047226928 -0.0030075987)
(1.0789731 0.0081971742 -0.0063998176)
(1.3134844 0.01157835 -0.0098081765)
(1.4072146 0.01330139 -0.010835865)
(1.3688595 0.012996283 -0.0071261694)
(1.2658842 0.011869538 -0.0063218659)
(1.1662297 0.010884336 -0.005340539)
(0.13655232 0.00090039669 -0.000249052)
(0.42517454 0.0034217438 -0.0011820021)
(0.75162189 0.0073480931 -0.0033572977)
(1.0671859 0.012657009 -0.0067840065)
(1.3001403 0.017977585 -0.010121225)
(1.3937235 0.021062733 -0.010450578)
(1.3578887 0.020390592 -0.0076290787)
(1.2587552 0.018301162 -0.0049026174)
(1.1618262 0.016725939 -0.0041630566)
(0.13431811 0.0011924723 -0.00036184738)
(0.4182887 0.0043875908 -0.0015468271)
(0.73963768 0.0092183211 -0.0039254961)
(1.0506118 0.015750845 -0.007513276)
(1.2802986 0.022834173 -0.011483648)
(1.3748182 0.026560895 -0.012177716)
(1.343047 0.026216011 -0.009817986)
(1.2480347 0.023884531 -0.0065785986)
(1.1537899 0.021753513 -0.0048028938)
(0.13134704 0.0013294444 -0.00047601688)
(0.40921302 0.0048861835 -0.0019368558)
(0.72394407 0.010318476 -0.0047625979)
(1.0289233 0.017668873 -0.0090126178)
(1.2560566 0.025138284 -0.012911622)
(1.3530688 0.029806467 -0.014271826)
(1.3266753 0.030384201 -0.012328155)
(1.2363684 0.028493505 -0.0090464265)
(1.1447313 0.026342605 -0.0068359583)
(0.12758727 0.0013230803 -0.00054940173)
(0.39785004 0.0049352657 -0.002243835)
(0.704581 0.010446431 -0.005314499)
(1.0033624 0.017874238 -0.0097362665)
(1.2288465 0.025807394 -0.014033639)
(1.3297541 0.031451937 -0.015902841)
(1.3099969 0.03323075 -0.014411824)
(1.2251778 0.032206255 -0.011358652)
(1.1363712 0.030409583 -0.0090522421)
(0.12306602 0.0012802553 -0.00061744017)
(0.3843381 0.0047857057 -0.002464157)
(0.68200102 0.010140394 -0.0056565339)
(0.97425393 0.017434465 -0.010199574)
(1.1987928 0.025555216 -0.014687637)
(1.3050209 0.032034835 -0.016927533)
(1.2934566 0.035095131 -0.01593789)
(1.2153445 0.035189414 -0.013271615)
(1.1299496 0.034015774 -0.011072788)
(0.11789517 0.0012532139 -0.00069758954)
(0.36889862 0.0046283453 -0.0026923981)
(0.65629246 0.0097360548 -0.0059629059)
(0.94139304 0.016728797 -0.01050107)
(1.1654364 0.024821426 -0.015033018)
(1.2785402 0.031943307 -0.017552476)
(1.2772682 0.036218681 -0.017063467)
(1.2077339 0.037545839 -0.01486118)
(1.1267263 0.037195745 -0.012884867)
(0.11191769 0.0012309419 -0.00077579928)
(0.35112023 0.0044691903 -0.0029013636)
(0.62684819 0.0092991427 -0.0062149654)
(0.90407793 0.015920177 -0.01069279)
(1.1281796 0.023839587 -0.015212564)
(1.2501655 0.031396607 -0.017976293)
(1.2620475 0.036741508 -0.017990322)
(1.2036789 0.039318993 -0.016290109)
(1.128313 0.039949574 -0.014613003)
(0.10494639 0.0011937856 -0.00085290077)
(0.33056859 0.0042727782 -0.0031041012)
(0.59312702 0.0088116958 -0.0064558245)
(0.86182904 0.015041428 -0.010868787)
(1.086788 0.022704424 -0.015372611)
(1.2201573 0.030524931 -0.018375514)
(1.2487974 0.036769591 -0.018898422)
(1.2048935 0.04055374 -0.017727568)
(1.1367727 0.042176148 -0.016370248)
(0.097335611 0.0011865026 -0.00096508292)
(0.30811733 0.0041507413 -0.0033948445)
(0.55629974 0.0084270366 -0.0068267199)
(0.81579899 0.014258305 -0.011188042)
(1.042162 0.021573174 -0.015648306)
(1.1892483 0.029463549 -0.018840494)
(1.2384617 0.03638582 -0.019827596)
(1.2130027 0.041246207 -0.019213647)
(1.1543603 0.043801577 -0.018224266)
(0.089115158 0.0010849445 -0.00098886082)
(0.28400976 0.0037809819 -0.0034365195)
(0.51693818 0.0076710833 -0.0068054925)
(0.76675092 0.013018364 -0.011022304)
(0.99483164 0.019895397 -0.015431751)
(1.1573523 0.027727347 -0.018889691)
(1.230524 0.035189987 -0.020488238)
(1.2279636 0.041022881 -0.02046998)
(1.183772 0.044358963 -0.019917782)
(0.10014115 -0.00054051826 -0.00050282617)
(0.317894 -0.001818908 -0.0016776774)
(0.57562006 -0.0035716062 -0.0032439238)
(0.84846097 -0.0058349596 -0.005272382)
(1.0949066 -0.00846334 -0.0077878667)
(1.2716718 -0.011104595 -0.010532982)
(1.3574715 -0.013286541 -0.01288153)
(1.3669679 -0.014801498 -0.014198859)
(1.3328582 -0.01563923 -0.014511523)
(0.10913388 -0.00073208133 -0.00060081715)
(0.34389964 -0.0024123448 -0.0019702174)
(0.61723609 -0.0046368406 -0.0037401058)
(0.89894308 -0.0073842757 -0.0059886825)
(1.1421886 -0.010407027 -0.0087357613)
(1.3025238 -0.013205234 -0.011664189)
(1.3643079 -0.015221758 -0.014053934)
(1.3514611 -0.016315936 -0.015267895)
(1.3034868 -0.016691178 -0.015206193)
(0.11725025 -0.00084474501 -0.00060238388)
(0.36741792 -0.0027814135 -0.0019809175)
(0.65486039 -0.0053290906 -0.0037669524)
(0.9444106 -0.0084262837 -0.0060725485)
(1.1844871 -0.011731405 -0.0089476016)
(1.3300574 -0.0145979 -0.012035114)
(1.3712826 -0.016390081 -0.014535721)
(1.3405053 -0.017073739 -0.015808356)
(1.2835572 -0.017073555 -0.015743649)
(0.12451647 -0.00093482919 -0.00058009417)
(0.38837939 -0.0030689206 -0.0019104308)
(0.68824968 -0.0058546098 -0.0036465404)
(0.98462656 -0.0092011418 -0.0059414326)
(1.2220009 -0.012684807 -0.0088809737)
(1.3552325 -0.015519366 -0.012078506)
(1.3798369 -0.017017205 -0.014683552)
(1.3351815 -0.017276817 -0.016070725)
(1.2715143 -0.016933768 -0.01610833)
(0.13055599 -0.00097868381 -0.00052770209)
(0.40589166 -0.0032189603 -0.0017490035)
(0.71627765 -0.0061440753 -0.0033750909)
(1.0185781 -0.0096473182 -0.0056106026)
(1.254032 -0.013228474 -0.008582849)
(1.3775547 -0.015960421 -0.011875049)
(1.3892876 -0.017123566 -0.014590155)
(1.3342027 -0.016970709 -0.016118616)
(1.2655149 -0.016331042 -0.016300364)
(0.13559431 -0.00098566247 -0.00045163604)
(0.42048671 -0.0032519357 -0.0015131555)
(0.73962056 -0.0062184052 -0.002979313)
(1.0468762 -0.0097751731 -0.0051118267)
(1.280905 -0.013357932 -0.0080837228)
(1.3968351 -0.015912256 -0.011453438)
(1.3987463 -0.016716558 -0.014285728)
(1.3360009 -0.016193562 -0.01597442)
(1.263718 -0.015312654 -0.016320337)
(0.13979921 -0.00095423722 -0.00036750382)
(0.43259693 -0.0031584948 -0.0012466744)
(0.75889831 -0.0060568012 -0.0025203407)
(1.0701907 -0.0095472807 -0.0045050808)
(1.3031301 -0.013021527 -0.0074276202)
(1.4131455 -0.015327211 -0.010839862)
(1.4075987 -0.015773823 -0.013794957)
(1.3393229 -0.014943641 -0.015661169)
(1.26456 -0.013902638 -0.016188535)
(0.14309485 -0.00086879771 -0.00027566944)
(0.44213027 -0.0028923871 -0.00095269472)
(0.77415906 -0.0055798147 -0.0020049236)
(1.0888121 -0.008854443 -0.0038000824)
(1.3211553 -0.012096199 -0.0066238619)
(1.4267797 -0.014109091 -0.010053559)
(1.4156335 -0.014245565 -0.013139702)
(1.343354 -0.013211478 -0.01521962)
(1.2668891 -0.012098684 -0.015957516)
(0.14556356 -0.00072005566 -0.00018346222)
(0.44932441 -0.002421462 -0.00065502581)
(0.78578638 -0.0047179551 -0.0014726627)
(1.1032141 -0.0075698307 -0.0030453819)
(1.3354201 -0.010436845 -0.0057571884)
(1.4379581 -0.012131501 -0.0091815223)
(1.4226779 -0.012064439 -0.012417648)
(1.3474599 -0.010975035 -0.014755835)
(1.2697852 -0.0099026729 -0.015733637)
(0.14730178 -0.00052342246 -0.00010574707)
(0.45444871 -0.0017883045 -0.00040564511)
(0.79416683 -0.003535267 -0.0010332559)
(1.1137456 -0.0057491954 -0.0024257667)
(1.3461 -0.0079861109 -0.005013966)
(1.4466101 -0.0093160866 -0.0084475438)
(1.4283987 -0.0091900686 -0.01183046)
(1.3510433 -0.0082438681 -0.014462657)
(1.2724883 -0.0073580325 -0.015669658)
(0.14863842 -0.00031388749 -5.4611936e-05)
(0.45821305 -0.0010869187 -0.00024309135)
(0.80008705 -0.0021738128 -0.00075641709)
(1.120947 -0.0035697129 -0.0020480593)
(1.3532324 -0.0049824022 -0.0045854056)
(1.4523985 -0.0058087606 -0.0081176157)
(1.4322968 -0.0057315344 -0.011607949)
(1.3535269 -0.0051245503 -0.01450799)
(1.2744183 -0.0045401881 -0.015781767)
(0.14909493 -0.00010512125 -3.1376886e-05)
(0.45964768 -0.00036633064 -0.00016919045)
(0.80256107 -0.00073621473 -0.00063288602)
(1.1241995 -0.0012128379 -0.0018860851)
(1.3566331 -0.0016911415 -0.004413374)
(1.4552197 -0.0019620294 -0.0080024352)
(1.4342276 -0.001940158 -0.011667518)
(1.3548011 -0.0017382977 -0.014567134)
(1.2754262 -0.0015321057 -0.015848017)
(0.14909493 0.00010515185 -3.1374051e-05)
(0.45964767 0.00036640951 -0.00016918677)
(0.80256106 0.00073635844 -0.0006328871)
(1.1241995 0.0012130698 -0.0018860896)
(1.356633 0.0016914887 -0.0044133757)