/*--------------------------------*- C++ -*----------------------------------*\
  =========                 |
  \\      /  F ield         | OpenFOAM: The Open Source CFD Toolbox
   \\    /   O peration     | Website:  https://openfoam.org
    \\  /    A nd           | Version:  10
     \\/     M anipulation  |
\*---------------------------------------------------------------------------*/
FoamFile
{
    format      ascii;
    class       volScalarField;
    location    "0.2";
    object      T;
}
// * * * * * * * * * * * * * * * * * * * * * * * * * * * * * * * * * * * * * //

dimensions      [0 0 0 1 0 0 0];

internalField   nonuniform List<scalar> 
100
(
1
1
1
1
1
1
1
1
1
1
0.999998
0.999988
0.999936
0.999684
0.998537
0.993541
0.972572
0.905655
0.779968
0.604165
0.407004
0.225884
0.0912897
0.0188323
0.00254645
0.000345271
4.68976e-05
6.37688e-06
8.67597e-07
1.18068e-07
1.60677e-08
2.1863e-09
2.97408e-10
4.04435e-11
5.49782e-12
7.47346e-13
1.01556e-13
1.38438e-14
1.84223e-15
1.28973e-16
-1.69077e-16
-1.87206e-16
-1.11602e-16
-4.15652e-17
-4.43526e-18
6.8321e-18
6.10483e-18
2.79151e-18
5.69381e-19
-2.23484e-19
-2.66398e-19
-1.23691e-19
-2.35914e-20
9.64946e-21
1.00741e-20
4.00012e-21
4.47458e-22
-4.44691e-22
-3.11202e-22
-8.91637e-23
4.11522e-24
1.58485e-23
7.09801e-24
1.05323e-24
-5.27849e-25
-3.90226e-25
-1.03361e-25
6.62587e-27
1.64368e-26
6.16753e-27
5.24716e-28
-5.41524e-28
-2.83058e-28
-4.92711e-29
1.33166e-29
1.07384e-29
2.62016e-30
-1.83633e-31
-3.47878e-31
-1.07909e-31
-3.12517e-33
9.78122e-33
3.74182e-33
3.43809e-34
-2.40214e-34
-1.13395e-34
-1.56375e-35
5.13719e-36
3.06696e-36
5.36123e-37
-9.40193e-38
-7.50414e-38
-1.54871e-38
1.39853e-39
1.67687e-39
3.93592e-40
-1.4009e-41
-3.44653e-41
-9.00097e-42
3.14229e-43
)
;

boundaryField
{
    top
    {
        type            zeroGradient;
    }
    bottom
    {
        type            zeroGradient;
    }
    in
    {
        type            fixedValue;
        value           uniform 1;
    }
    out
    {
        type            zeroGradient;
    }
    frontAndBack
    {
        type            empty;
    }
}


// ************************************************************************* //
