/*--------------------------------*- C++ -*----------------------------------*\
| =========                 |                                                 |
| \\      /  F ield         | OpenFOAM: The Open Source CFD Toolbox           |
|  \\    /   O peration     | Version:  2406                                  |
|   \\  /    A nd           | Website:  www.openfoam.com                      |
|    \\/     M anipulation  |                                                 |
\*---------------------------------------------------------------------------*/
FoamFile
{
    version     2.0;
    format      ascii;
    arch        "LSB;label=32;scalar=64";
    class       volScalarField;
    location    "7.25";
    object      p;
}
// * * * * * * * * * * * * * * * * * * * * * * * * * * * * * * * * * * * * * //

dimensions      [0 2 -2 0 0 0 0];

internalField   nonuniform List<scalar> 
34560
(
-5.3426674
-5.3361641
-5.3289331
-5.320498
-5.3083702
-5.2898264
-5.265586
-5.2395353
-5.2181926
-5.3845133
-5.3775269
-5.369767
-5.3596075
-5.3435272
-5.3189882
-5.2886074
-5.2601216
-5.2399729
-5.4013286
-5.3946436
-5.3880569
-5.3796461
-5.3645195
-5.3391444
-5.3074049
-5.2780808
-5.2572449
-5.411266
-5.4052468
-5.4000689
-5.3934684
-5.3798828
-5.3550773
-5.3230066
-5.292602
-5.2707633
-5.4132092
-5.408125
-5.4050031
-5.4010489
-5.3896789
-5.3660903
-5.3341175
-5.3033097
-5.2806203
-5.4039117
-5.4003611
-5.4000824
-5.4000377
-5.3925206
-5.3714995
-5.3405365
-5.3098862
-5.2863772
-5.3881562
-5.386262
-5.3889636
-5.3930028
-5.3897659
-5.3719125
-5.3424258
-5.3122922
-5.2876475
-5.3668441
-5.3667816
-5.3726781
-5.3810941
-5.3824883
-5.3681319
-5.3401741
-5.3106861
-5.2846352
-5.3425234
-5.3443579
-5.3534169
-5.3661452
-5.3721702
-5.3612292
-5.3348094
-5.3059808
-5.2783404
-5.3182478
-5.3219431
-5.3339282
-5.3505284
-5.3606575
-5.3525874
-5.3284795
-5.2997529
-5.270371
-5.2981415
-5.3034697
-5.3178345
-5.3373699
-5.3504998
-5.3447851
-5.3229783
-5.2935644
-5.2626606
-5.28708
-5.2932191
-5.3087734
-5.329788
-5.344478
-5.3401113
-5.3193141
-5.2893331
-5.2574734
-5.2870795
-5.2932186
-5.3087732
-5.3297879
-5.3444781
-5.3401113
-5.3193141
-5.2893331
-5.2574735
-5.2981405
-5.3034688
-5.3178339
-5.3373695
-5.3504996
-5.344785
-5.3229783
-5.2935645
-5.2626609
-5.3182466
-5.3219417
-5.3339269
-5.3505272
-5.3606566
-5.3525868
-5.3284793
-5.2997529
-5.2703708
-5.3425204
-5.3443549
-5.3534142
-5.3661428
-5.3721683
-5.361228
-5.3348088
-5.3059803
-5.2783393
-5.3668392
-5.3667771
-5.372674
-5.3810906
-5.3824854
-5.36813
-5.3401728
-5.3106849
-5.2846334
-5.3881507
-5.3862568
-5.3889587
-5.3929985
-5.3897623
-5.3719096
-5.3424236
-5.3122902
-5.2876455
-5.4039049
-5.4003547
-5.4000766
-5.4000327
-5.3925162
-5.3714956
-5.3405333
-5.3098836
-5.2863751
-5.413202
-5.4081184
-5.4049974
-5.4010437
-5.3896742
-5.3660858
-5.3341135
-5.3033064
-5.2806177
-5.4112596
-5.4052408
-5.4000635
-5.3934634
-5.3798779
-5.3550725
-5.3230024
-5.2925985
-5.2707603
-5.4013227
-5.3946382
-5.3880519
-5.3796416
-5.364515
-5.3391399
-5.307401
-5.2780779
-5.2572433
-5.3845085
-5.3775222
-5.3697626
-5.3596034
-5.3435232
-5.3189846
-5.2886046
-5.2601207
-5.2399739
-5.3426639
-5.3361605
-5.3289294
-5.3204946
-5.3083675
-5.2898245
-5.2655849
-5.2395359
-5.2181959
-5.0327934
-5.0323007
-5.032194
-5.0324788
-5.0325324
-5.0316147
-5.0297556
-5.0278786
-5.0261786
-5.0381357
-5.0374392
-5.0372473
-5.0375495
-5.0374569
-5.0359414
-5.032962
-5.0294138
-5.0256955
-5.0384444
-5.0375977
-5.0374851
-5.0380778
-5.0381534
-5.0363463
-5.0326096
-5.0280169
-5.023096
-5.0328247
-5.0318257
-5.0318602
-5.032927
-5.0334557
-5.0316947
-5.0275818
-5.0222082
-5.0161755
-5.0213888
-5.020233
-5.0204451
-5.0220751
-5.0231995
-5.0216327
-5.0171697
-5.0110745
-5.0040926
-5.0051817
-5.0037365
-5.0039889
-5.0060857
-5.00773
-5.0062563
-5.0013745
-4.9945993
-4.9867711
-4.9845031
-4.9827351
-4.9829588
-4.9854319
-4.9874975
-4.9860132
-4.9805946
-4.9731356
-4.9646379
-4.9609659
-4.9588189
-4.958886
-4.9615457
-4.9638176
-4.962122
-4.9560133
-4.9477979
-4.9388102
-4.9366856
-4.9341255
-4.9339141
-4.9365477
-4.9387685
-4.9366285
-4.9297073
-4.9206547
-4.9113288
-4.9145017
-4.9115123
-4.9109146
-4.9133174
-4.9152421
-4.9124696
-4.9047291
-4.8948064
-4.8852661
-4.8973789
-4.8940234
-4.893044
-4.8951349
-4.8966711
-4.8932634
-4.8848095
-4.8741349
-4.8644697
-4.8877573
-4.8842473
-4.8830874
-4.8850101
-4.8863173
-4.8825368
-4.8736718
-4.8625602
-4.852838
-4.8877572
-4.8842472
-4.8830873
-4.88501
-4.8863172
-4.8825368
-4.8736717
-4.8625602
-4.8528381
-4.8973785
-4.894023
-4.8930436
-4.8951345
-4.8966708
-4.8932631
-4.8848094
-4.8741349
-4.86447
-4.9145009
-4.9115115
-4.9109138
-4.9133166
-4.9152413
-4.9124689
-4.9047286
-4.8948063
-4.8852665
-4.9366842
-4.9341242
-4.9339127
-4.9365464
-4.9387672
-4.9366273
-4.9297065
-4.9206544
-4.911329
-4.9609638
-4.9588168
-4.958884
-4.9615437
-4.9638158
-4.9621203
-4.956012
-4.9477973
-4.9388103
-4.9845006
-4.9827325
-4.9829563
-4.9854294
-4.9874951
-4.9860111
-4.9805928
-4.9731346
-4.9646378
-5.005179
-5.0037336
-5.003986
-5.0060829
-5.0077272
-5.0062537
-5.0013723
-4.9945979
-4.986771
-5.021386
-5.0202301
-5.0204421
-5.022072
-5.0231963
-5.0216297
-5.0171671
-5.0110728
-5.0040923
-5.0328218
-5.0318227
-5.0318571
-5.0329238
-5.0334524
-5.0316914
-5.0275789
-5.0222061
-5.0161747
-5.0384416
-5.0375948
-5.0374821
-5.0380746
-5.03815
-5.0363428
-5.0326062
-5.0280142
-5.0230948
-5.0381328
-5.0374363
-5.0372442
-5.0375463
-5.0374536
-5.0359378
-5.0329583
-5.0294108
-5.0256947
-5.0327906
-5.0322977
-5.032191
-5.0324757
-5.0325292
-5.0316116
-5.0297525
-5.0278762
-5.0261781
-4.9003221
-4.9003425
-4.9003702
-4.9003725
-4.900336
-4.9002345
-4.9000423
-4.8997356
-4.8990975
-4.9035408
-4.9035817
-4.9035941
-4.903493
-4.9032406
-4.9028019
-4.9021478
-4.9013014
-4.9002457
-4.9059144
-4.9059798
-4.9060245
-4.9059483
-4.9056825
-4.9051471
-4.9042794
-4.9031235
-4.9018091
-4.9079026
-4.9079873
-4.9080543
-4.9079962
-4.9077381
-4.9071723
-4.906194
-4.9048289
-4.9032675
-4.9093936
-4.909493
-4.9095834
-4.9095561
-4.9093342
-4.9087853
-4.9077625
-4.9062599
-4.9045022
-4.910343
-4.9104598
-4.9105789
-4.9105956
-4.9104368
-4.9099498
-4.908944
-4.9073784
-4.9054901
-4.910862
-4.9109844
-4.9111197
-4.9111717
-4.9110783
-4.9106749
-4.9097286
-4.9081597
-4.9062021
-4.9110033
-4.9111246
-4.9112682
-4.911349
-4.9113188
-4.9110073
-4.9101451
-4.9086149
-4.9066348
-4.9108737
-4.9109887
-4.9111332
-4.9112333
-4.9112556
-4.9110301
-4.9102573
-4.9087853
-4.9068066
-4.9105994
-4.9107059
-4.9108464
-4.910957
-4.9110162
-4.9108606
-4.9101651
-4.9087492
-4.906784
-4.9103168
-4.9104156
-4.9105492
-4.9106611
-4.9107445
-4.9106337
-4.9099912
-4.9086142
-4.906674
-4.9101315
-4.9102262
-4.9103561
-4.910468
-4.9105624
-4.9104744
-4.9098591
-4.9085014
-4.9065791
-4.9101313
-4.910226
-4.910356
-4.9104679
-4.9105622
-4.9104742
-4.909859
-4.9085013
-4.9065791
-4.9103163
-4.910415
-4.9105487
-4.9106605
-4.910744
-4.9106332
-4.9099908
-4.9086141
-4.9066741
-4.9105985
-4.910705
-4.9108454
-4.9109561
-4.9110152
-4.9108597
-4.9101644
-4.9087489
-4.9067842
-4.9108724
-4.9109874
-4.9111319
-4.9112319
-4.9112542
-4.9110288
-4.9102562
-4.9087848
-4.9068069
-4.9110016
-4.9111228
-4.9112665
-4.9113471
-4.9113169
-4.9110055
-4.9101437
-4.9086142
-4.906635
-4.9108599
-4.9109822
-4.9111175
-4.9111694
-4.9110759
-4.9106726
-4.9097267
-4.9081586
-4.9062021
-4.9103403
-4.910457
-4.910576
-4.9105926
-4.9104337
-4.9099469
-4.9089414
-4.9073767
-4.9054898
-4.9093902
-4.9094896
-4.9095798
-4.9095524
-4.9093304
-4.9087816
-4.9077592
-4.9062575
-4.9045015
-4.9078985
-4.9079831
-4.90805
-4.9079917
-4.9077335
-4.9071677
-4.9061897
-4.9048258
-4.9032666
-4.9059097
-4.905975
-4.9060196
-4.9059432
-4.9056772
-4.9051417
-4.9042744
-4.90312
-4.9018081
-4.9035355
-4.9035763
-4.9035885
-4.9034873
-4.9032348
-4.9027961
-4.9021425
-4.9012979
-4.9002448
-4.9003166
-4.9003369
-4.9003645
-4.9003668
-4.9003303
-4.9002291
-4.9000375
-4.8997321
-4.899096
-4.5329434
-4.5330198
-4.533115
-4.5332384
-4.5333614
-4.5333996
-4.5332649
-4.5329353
-4.5324469
-4.532739
-4.5328152
-4.5329065
-4.5330224
-4.5331234
-4.5331075
-4.5328701
-4.5323626
-4.5316332
-4.5325172
-4.5325895
-4.5326743
-4.5327822
-4.5328685
-4.5328229
-4.5325352
-4.5319547
-4.5311694
-4.5320759
-4.5321423
-4.532221
-4.5323267
-4.5324105
-4.5323549
-4.5320433
-4.5314256
-4.5305848
-4.531439
-4.5314988
-4.5315697
-4.5316707
-4.5317507
-4.5316866
-4.5313557
-4.5307118
-4.5298347
-4.5306688
-4.5307151
-4.5307709
-4.5308612
-4.530934
-4.5308626
-4.5305196
-4.5298624
-4.5289725
-4.529773
-4.5298048
-4.5298449
-4.5299258
-4.5299939
-4.5299205
-4.5295763
-4.5289257
-4.5280572
-4.5288319
-4.528847
-4.5288686
-4.5289392
-4.5290031
-4.5289295
-4.5285903
-4.5279612
-4.5271429
-4.527927
-4.5279251
-4.5279284
-4.5279836
-4.5280452
-4.5279714
-4.527638
-4.5270193
-4.526173
-4.5271502
-4.5271316
-4.527117
-4.5271595
-4.5272108
-4.5271377
-4.5268071
-4.5261835
-4.5252454
-4.5265762
-4.5265442
-4.5265151
-4.5265472
-4.5265908
-4.5265184
-4.5261833
-4.5255296
-4.5245714
-4.5262636
-4.5262262
-4.5261912
-4.5262189
-4.5262601
-4.5261848
-4.5258411
-4.5251499
-4.5242191
-4.5262635
-4.5262261
-4.5261911
-4.5262188
-4.5262599
-4.5261846
-4.5258409
-4.5251498
-4.5242191
-4.5265758
-4.5265438
-4.5265147
-4.5265467
-4.5265903
-4.5265179
-4.5261828
-4.5255292
-4.5245713
-4.5271496
-4.5271309
-4.5271163
-4.5271587
-4.5272099
-4.5271368
-4.5268063
-4.526183
-4.5252453
-4.527926
-4.5279241
-4.5279273
-4.5279823
-4.5280439
-4.5279701
-4.5276368
-4.5270184
-4.5261727
-4.5288305
-4.5288455
-4.5288671
-4.5289375
-4.5290013
-4.5289276
-4.5285887
-4.5279599
-4.5271422
-4.5297711
-4.5298028
-4.5298428
-4.5299235
-4.5299915
-4.529918
-4.529574
-4.528924
-4.5280561
-4.5306663
-4.5307125
-4.5307681
-4.5308583
-4.530931
-4.5308596
-4.5305167
-4.52986
-4.5289708
-4.5314358
-4.5314956
-4.5315664
-4.5316672
-4.5317471
-4.5316829
-4.5313521
-4.5307087
-4.5298323
-4.5320721
-4.5321385
-4.5322171
-4.5323226
-4.5324064
-4.5323507
-4.5320391
-4.5314218
-4.5305817
-4.532513
-4.5325853
-4.53267
-4.5327778
-4.5328639
-4.5328182
-4.5325305
-4.5319502
-4.5311654
-4.5327344
-4.5328106
-4.5329018
-4.5330177
-4.5331186
-4.5331026
-4.5328652
-4.5323576
-4.5316282
-4.5329386
-4.533015
-4.5331102
-4.5332336
-4.5333565
-4.5333947
-4.5332599
-4.5329297
-4.532441
-4.4050877
-4.4051262
-4.4051739
-4.4052126
-4.405249
-4.4053032
-4.4053932
-4.4055179
-4.4055318
-4.4052785
-4.4053227
-4.4053684
-4.4053861
-4.405378
-4.4053636
-4.4053628
-4.4053817
-4.4053562
-4.4054858
-4.4055312
-4.4055749
-4.4055813
-4.4055503
-4.4055038
-4.4054674
-4.4054584
-4.4054629
-4.405659
-4.4057017
-4.4057407
-4.405737
-4.4056911
-4.4056286
-4.4055796
-4.4055638
-4.40558
-4.405797
-4.4058363
-4.4058696
-4.4058548
-4.4057944
-4.4057182
-4.4056615
-4.4056438
-4.4056687
-4.4059069
-4.4059416
-4.4059683
-4.4059428
-4.4058687
-4.4057822
-4.4057224
-4.4057085
-4.4057405
-4.4059831
-4.4060132
-4.4060342
-4.405999
-4.4059138
-4.4058209
-4.4057633
-4.4057551
-4.4057811
-4.4060331
-4.4060588
-4.4060745
-4.4060295
-4.405937
-4.4058414
-4.4057898
-4.4057839
-4.4057903
-4.4060618
-4.4060835
-4.4060932
-4.4060427
-4.405945
-4.4058509
-4.40581
-4.4058247
-4.405915
-4.4060778
-4.4060957
-4.4061006
-4.4060457
-4.4059455
-4.4058561
-4.4058297
-4.4058882
-4.4061378
-4.4060873
-4.4061022
-4.4061036
-4.4060454
-4.4059442
-4.4058601
-4.4058525
-4.4059813
-4.4062962
-4.4060879
-4.4061018
-4.406102
-4.4060428
-4.4059422
-4.4058627
-4.4058741
-4.4060656
-4.4063757
-4.4060879
-4.4061017
-4.4061019
-4.4060427
-4.405942
-4.4058626
-4.4058739
-4.4060655
-4.4063757
-4.406087
-4.4061019
-4.4061033
-4.406045
-4.4059438
-4.4058597
-4.405852
-4.405981
-4.4062963
-4.4060774
-4.4060952
-4.4061
-4.406045
-4.4059447
-4.4058553
-4.4058289
-4.4058877
-4.4061378
-4.4060611
-4.4060827
-4.4060923
-4.4060416
-4.4059439
-4.4058497
-4.4058089
-4.4058239
-4.4059147
-4.406032
-4.4060576
-4.4060732
-4.406028
-4.4059354
-4.4058397
-4.4057882
-4.4057827
-4.4057897
-4.4059816
-4.4060115
-4.4060323
-4.4059969
-4.4059116
-4.4058186
-4.4057612
-4.4057533
-4.4057799
-4.4059048
-4.4059393
-4.4059659
-4.4059402
-4.4058659
-4.4057793
-4.4057197
-4.4057062
-4.4057385
-4.4057941
-4.4058333
-4.4058665
-4.4058516
-4.4057909
-4.4057147
-4.4056582
-4.4056407
-4.4056657
-4.4056553
-4.405698
-4.4057369
-4.405733
-4.405687
-4.4056245
-4.4055757
-4.4055598
-4.4055755
-4.4054814
-4.4055267
-4.4055704
-4.4055766
-4.4055457
-4.4054991
-4.4054626
-4.405453
-4.4054564
-4.4052733
-4.4053175
-4.4053632
-4.4053809
-4.4053727
-4.4053581
-4.4053568
-4.4053742
-4.4053473
-4.405082
-4.4051205
-4.4051682
-4.4052068
-4.4052428
-4.4052965
-4.4053852
-4.4055081
-4.405521
-4.1201132
-4.1201221
-4.120142
-4.1201885
-4.1202563
-4.1203188
-4.1203433
-4.1203167
-4.1202467
-4.1201555
-4.1201633
-4.1201814
-4.1202257
-4.1202864
-4.1203295
-4.1203143
-4.1202207
-4.1200713
-4.1202459
-4.1202505
-4.1202651
-4.1203068
-4.1203643
-4.1203997
-4.120369
-4.1202525
-4.1200871
-4.1203259
-4.1203266
-4.120337
-4.1203762
-4.1204316
-4.1204627
-4.1204226
-4.1202921
-4.1201034
-4.1203943
-4.1203915
-4.1203976
-4.1204328
-4.1204838
-4.1205083
-4.1204575
-4.1203137
-4.1201079
-4.1204511
-4.1204448
-4.1204465
-4.1204774
-4.1205233
-4.1205406
-4.1204804
-4.1203276
-4.120114
-4.1204893
-4.1204801
-4.1204779
-4.1205053
-4.1205464
-4.1205573
-4.1204901
-4.1203311
-4.1201083
-4.120512
-4.1205005
-4.120495
-4.1205191
-4.1205555
-4.1205599
-4.1204856
-4.1203147
-4.1200253
-4.1205207
-4.1205078
-4.1204999
-4.1205201
-4.1205525
-4.1205491
-4.1204636
-4.1202407
-4.1198733
-4.1205197
-4.1205057
-4.120496
-4.120513
-4.1205402
-4.1205246
-4.1204079
-4.1201312
-4.1197427
-4.1205139
-4.1204992
-4.1204884
-4.1205031
-4.1205243
-4.1204951
-4.1203458
-4.1200507
-4.1196525
-4.1205087
-4.120494
-4.1204827
-4.1204963
-4.1205143
-4.1204783
-4.1203149
-4.1200104
-4.1196064
-4.1205087
-4.120494
-4.1204827
-4.1204962
-4.1205142
-4.1204782
-4.1203148
-4.1200104
-4.1196066
-4.1205139
-4.1204992
-4.1204882
-4.1205029
-4.120524
-4.1204948
-4.1203456
-4.1200507
-4.1196528
-4.1205196
-4.1205056
-4.1204958
-4.1205126
-4.1205397
-4.1205241
-4.1204075
-4.1201311
-4.1197433
-4.1205204
-4.1205074
-4.1204994
-4.1205193
-4.1205516
-4.1205482
-4.1204629
-4.1202405
-4.1198739
-4.1205114
-4.1204997
-4.120494
-4.1205179
-4.1205542
-4.1205585
-4.1204845
-4.1203143
-4.1200258
-4.1204882
-4.1204788
-4.1204764
-4.1205035
-4.1205444
-4.1205553
-4.1204885
-4.1203303
-4.1201086
-4.1204492
-4.1204427
-4.1204441
-4.1204748
-4.1205205
-4.1205378
-4.1204781
-4.1203263
-4.1201139
-4.1203914
-4.1203884
-4.1203942
-4.1204291
-4.1204799
-4.1205046
-4.1204544
-4.1203117
-4.1201072
-4.1203215
-4.1203221
-4.1203323
-4.1203712
-4.1204266
-4.1204579
-4.1204185
-4.120289
-4.1201017
-4.12024
-4.1202445
-4.1202588
-4.1203003
-4.1203579
-4.1203935
-4.1203634
-4.120248
-4.120084
-4.1201481
-4.1201558
-4.1201738
-4.1202179
-4.1202786
-4.1203217
-4.1203069
-4.1202143
-4.1200665
-4.1201047
-4.1201135
-4.1201334
-4.1201799
-4.1202475
-4.1203097
-4.1203341
-4.120308
-4.1202398
-3.9311487
-3.9311636
-3.9311805
-3.931192
-3.9311999
-3.9312115
-3.931234
-3.9312668
-3.9312661
-3.9310993
-3.9311159
-3.9311329
-3.9311403
-3.9311395
-3.931137
-3.9311389
-3.9311453
-3.9311348
-3.9310812
-3.9310973
-3.9311126
-3.9311153
-3.9311072
-3.931097
-3.9310934
-3.9311
-3.9311088
-3.9310619
-3.9310762
-3.9310888
-3.9310874
-3.9310744
-3.9310605
-3.9310576
-3.9310707
-3.9310924
-3.9310452
-3.9310573
-3.9310667
-3.9310603
-3.9310416
-3.9310239
-3.9310221
-3.9310408
-3.9310714
-3.9310363
-3.9310456
-3.9310511
-3.9310394
-3.9310142
-3.9309931
-3.9309919
-3.931014
-3.9310477
-3.9310323
-3.9310386
-3.9310405
-3.9310231
-3.9309935
-3.9309695
-3.9309685
-3.9309939
-3.9310367
-3.9310354
-3.9310388
-3.9310365
-3.9310149
-3.9309812
-3.9309553
-3.9309565
-3.9309954
-3.9311116
-3.9310455
-3.9310458
-3.9310398
-3.9310145
-3.9309782
-3.930953
-3.9309634
-3.9310616
-3.9312549
-3.9310598
-3.9310574
-3.9310483
-3.9310204
-3.9309837
-3.9309658
-3.9310084
-3.9311638
-3.9313732
-3.9310736
-3.9310692
-3.9310579
-3.9310286
-3.9309932
-3.9309861
-3.9310632
-3.9312355
-3.9314523
-3.9310811
-3.9310756
-3.9310633
-3.9310335
-3.9309991
-3.9309976
-3.9310896
-3.93127
-3.9314924
-3.9310812
-3.9310757
-3.9310634
-3.9310335
-3.9309991
-3.9309975
-3.9310896
-3.9312701
-3.9314927
-3.9310738
-3.9310693
-3.931058
-3.9310286
-3.9309931
-3.930986
-3.9310632
-3.9312358
-3.931453
-3.93106
-3.9310575
-3.9310483
-3.9310203
-3.9309834
-3.9309655
-3.9310083
-3.9311642
-3.9313743
-3.9310456
-3.9310458
-3.9310396
-3.9310141
-3.9309776
-3.9309525
-3.9309632
-3.931062
-3.9312564
-3.9310351
-3.9310384
-3.9310358
-3.931014
-3.9309801
-3.9309543
-3.9309559
-3.9309957
-3.9311132
-3.9310314
-3.9310375
-3.9310391
-3.9310215
-3.9309917
-3.9309677
-3.9309674
-3.930994
-3.9310384
-3.9310345
-3.9310435
-3.9310487
-3.9310366
-3.9310113
-3.9309904
-3.93099
-3.9310137
-3.9310493
-3.931042
-3.9310539
-3.9310629
-3.9310562
-3.9310373
-3.93102
-3.9310191
-3.9310397
-3.9310725
-3.931057
-3.931071
-3.9310833
-3.9310816
-3.9310684
-3.9310549
-3.9310531
-3.9310683
-3.9310929
-3.9310742
-3.9310901
-3.9311051
-3.9311076
-3.9310994
-3.9310895
-3.931087
-3.931096
-3.931108
-3.9310904
-3.9311068
-3.9311236
-3.9311309
-3.93113
-3.9311277
-3.9311305
-3.931139
-3.9311321
-3.9311384
-3.9311533
-3.9311702
-3.9311816
-3.9311895
-3.9312012
-3.9312239
-3.931258
-3.9312607
-3.6880706
-3.6880704
-3.6880736
-3.6880859
-3.6881061
-3.6881267
-3.6881381
-3.6881365
-3.6881221
-3.6881126
-3.6881119
-3.6881144
-3.6881256
-3.688143
-3.6881566
-3.6881542
-3.6881294
-3.6880886
-3.6881655
-3.6881638
-3.6881653
-3.6881758
-3.6881921
-3.6882028
-3.6881947
-3.6881617
-3.6881131
-3.6882144
-3.6882116
-3.6882118
-3.6882215
-3.6882369
-3.6882458
-3.6882342
-3.6881958
-3.6881379
-3.6882584
-3.6882545
-3.6882534
-3.6882619
-3.6882757
-3.6882823
-3.6882671
-3.6882244
-3.6881598
-3.688296
-3.6882913
-3.688289
-3.688296
-3.6883082
-3.6883124
-3.6882943
-3.6882493
-3.6881807
-3.688325
-3.6883196
-3.6883165
-3.6883222
-3.6883325
-3.688334
-3.6883126
-3.6882617
-3.6881738
-3.6883453
-3.6883397
-3.6883359
-3.6883404
-3.6883484
-3.6883463
-3.6883194
-3.6882479
-3.6881342
-3.6883579
-3.6883521
-3.6883479
-3.6883512
-3.6883563
-3.6883488
-3.6883097
-3.688217
-3.6880926
-3.6883647
-3.688359
-3.6883543
-3.6883564
-3.6883588
-3.6883454
-3.688292
-3.6881904
-3.6880604
-3.6883677
-3.6883619
-3.688357
-3.688358
-3.6883581
-3.6883397
-3.6882788
-3.688172
-3.6880387
-3.6883685
-3.6883627
-3.6883575
-3.6883579
-3.6883564
-3.6883345
-3.6882715
-3.6881625
-3.6880281
-3.6883686
-3.6883628
-3.6883576
-3.6883579
-3.6883564
-3.6883345
-3.6882716
-3.6881626
-3.6880284
-3.688368
-3.6883622
-3.6883571
-3.688358
-3.6883581
-3.6883397
-3.6882789
-3.6881725
-3.6880397
-3.6883652
-3.6883593
-3.6883545
-3.6883564
-3.6883587
-3.6883453
-3.6882921
-3.6881911
-3.688062
-3.6883582
-3.6883524
-3.688348
-3.688351
-3.688356
-3.6883484
-3.6883097
-3.6882178
-3.6880946
-3.6883454
-3.6883396
-3.6883356
-3.6883398
-3.6883476
-3.6883455
-3.6883191
-3.6882486
-3.6881364
-3.6883245
-3.6883189
-3.6883155
-3.6883208
-3.6883308
-3.6883324
-3.6883118
-3.6882621
-3.6881761
-3.6882945
-3.6882895
-3.6882869
-3.6882935
-3.6883055
-3.6883098
-3.6882926
-3.6882492
-3.6881826
-3.6882555
-3.6882513
-3.6882498
-3.6882579
-3.6882715
-3.6882784
-3.6882642
-3.6882233
-3.688161
-3.6882096
-3.6882064
-3.6882064
-3.6882157
-3.6882309
-3.6882402
-3.6882297
-3.6881933
-3.6881377
-3.6881585
-3.6881566
-3.6881578
-3.688168
-3.6881842
-3.6881952
-3.6881881
-3.6881569
-3.6881108
-3.6881036
-3.6881027
-3.688105
-3.6881161
-3.6881334
-3.688147
-3.6881451
-3.6881216
-3.6880834
-3.6880602
-3.6880599
-3.6880631
-3.6880752
-3.6880953
-3.6881156
-3.6881267
-3.6881253
-3.6881133
-3.4740278
-3.4740318
-3.4740362
-3.4740386
-3.4740398
-3.4740422
-3.4740485
-3.4740608
-3.4740661
-3.4740104
-3.4740149
-3.4740192
-3.4740205
-3.4740195
-3.4740185
-3.4740205
-3.4740263
-3.4740283
-3.4740004
-3.4740047
-3.4740084
-3.4740083
-3.4740053
-3.4740026
-3.474004
-3.4740109
-3.4740192
-3.4739903
-3.473994
-3.4739968
-3.4739954
-3.473991
-3.4739875
-3.4739895
-3.4739986
-3.474011
-3.4739819
-3.473985
-3.4739868
-3.4739839
-3.4739777
-3.4739732
-3.4739753
-3.4739851
-3.4739995
-3.4739773
-3.4739795
-3.4739801
-3.4739755
-3.4739676
-3.473962
-3.4739638
-3.4739729
-3.4739884
-3.4739759
-3.4739773
-3.4739768
-3.4739707
-3.4739615
-3.4739554
-3.4739583
-3.473972
-3.4740047
-3.4739785
-3.4739789
-3.4739772
-3.47397
-3.4739601
-3.473955
-3.473962
-3.4739956
-3.4740511
-3.4739839
-3.4739834
-3.4739807
-3.4739727
-3.4739632
-3.4739615
-3.4739799
-3.4740321
-3.4740966
-3.4739905
-3.4739893
-3.4739858
-3.4739774
-3.4739687
-3.4739712
-3.4740028
-3.4740618
-3.4741303
-3.4739966
-3.4739949
-3.473991
-3.4739825
-3.4739748
-3.4739812
-3.4740188
-3.4740815
-3.4741516
-3.4740001
-3.4739982
-3.4739941
-3.4739857
-3.473979
-3.4739884
-3.4740271
-3.4740914
-3.4741617
-3.4740003
-3.4739983
-3.4739942
-3.4739858
-3.4739791
-3.4739884
-3.4740272
-3.4740916
-3.474162
-3.473997
-3.4739952
-3.4739912
-3.4739826
-3.4739749
-3.4739812
-3.4740189
-3.474082
-3.4741526
-3.4739911
-3.4739897
-3.4739861
-3.4739775
-3.4739686
-3.4739711
-3.474003
-3.4740625
-3.4741319
-3.4739844
-3.4739838
-3.4739809
-3.4739726
-3.4739629
-3.4739611
-3.4739799
-3.4740329
-3.4740986
-3.4739787
-3.4739789
-3.473977
-3.4739694
-3.4739593
-3.4739542
-3.4739616
-3.4739963
-3.4740533
-3.4739755
-3.4739766
-3.4739758
-3.4739694
-3.4739599
-3.4739539
-3.4739573
-3.4739723
-3.4740069
-3.473976
-3.4739779
-3.4739782
-3.4739732
-3.473965
-3.4739594
-3.473962
-3.4739727
-3.4739902
-3.4739792
-3.473982
-3.4739834
-3.4739801
-3.4739737
-3.4739694
-3.4739724
-3.4739838
-3.4740005
-3.4739859
-3.4739893
-3.4739918
-3.47399
-3.4739854
-3.4739822
-3.4739852
-3.4739959
-3.4740106
-3.473994
-3.4739981
-3.4740015
-3.4740011
-3.473998
-3.4739957
-3.4739979
-3.4740062
-3.4740168
-3.4740021
-3.4740065
-3.4740106
-3.4740118
-3.4740107
-3.4740099
-3.4740123
-3.4740191
-3.4740233
-3.4740183
-3.4740223
-3.4740266
-3.474029
-3.47403
-3.4740322
-3.4740383
-3.4740508
-3.474058
-3.2453418
-3.2453415
-3.245342
-3.2453449
-3.2453499
-3.2453553
-3.2453584
-3.2453567
-3.2453472
-3.2453504
-3.2453499
-3.2453503
-3.2453528
-3.2453569
-3.2453596
-3.2453576
-3.2453481
-3.2453304
-3.2453624
-3.2453616
-3.2453615
-3.2453638
-3.2453671
-3.2453685
-3.2453639
-3.2453509
-3.2453302
-3.2453735
-3.2453724
-3.245372
-3.2453738
-3.2453767
-3.2453771
-3.2453708
-3.2453551
-3.2453306
-3.2453836
-3.2453821
-3.2453813
-3.2453826
-3.2453849
-3.2453844
-3.2453766
-3.2453583
-3.2453298
-3.2453922
-3.2453903
-3.2453891
-3.2453901
-3.2453917
-3.2453904
-3.2453813
-3.2453597
-3.2453272
-3.2453986
-3.2453965
-3.245395
-3.2453955
-3.2453965
-3.2453944
-3.2453827
-3.2453576
-3.2453216
-3.2454028
-3.2454006
-3.2453988
-3.2453987
-3.2453989
-3.2453952
-3.2453807
-3.2453527
-3.2453146
-3.2454052
-3.2454029
-3.2454007
-3.2454001
-3.2453995
-3.2453941
-3.2453777
-3.2453477
-3.2453082
-3.2454067
-3.2454042
-3.2454018
-3.2454007
-3.2453993
-3.245393
-3.2453752
-3.2453436
-3.2453031
-3.2454076
-3.245405
-3.2454025
-3.2454011
-3.2453992
-3.2453922
-3.2453733
-3.2453406
-3.2452997
-3.245408
-3.2454053
-3.2454027
-3.2454012
-3.2453992
-3.2453918
-3.2453723
-3.2453391
-3.2452982
-3.2454081
-3.2454055
-3.2454028
-3.2454013
-3.2453993
-3.2453918
-3.2453723
-3.2453392
-3.2452985
-3.245408
-3.2454054
-3.2454027
-3.2454012
-3.2453993
-3.2453922
-3.2453734
-3.245341
-3.2453007
-3.2454072
-3.2454047
-3.2454021
-3.2454008
-3.2453992
-3.2453929
-3.2453752
-3.2453442
-3.2453046
-3.2454057
-3.2454032
-3.2454009
-3.2454
-3.2453991
-3.2453937
-3.2453776
-3.2453484
-3.2453101
-3.245403
-3.2454006
-3.2453985
-3.2453981
-3.2453981
-3.2453944
-3.2453803
-3.2453533
-3.2453167
-3.2453982
-3.2453959
-3.245394
-3.2453941
-3.2453949
-3.2453928
-3.2453817
-3.2453578
-3.2453237
-3.2453908
-3.2453887
-3.2453871
-3.2453877
-3.2453891
-3.2453878
-3.2453795
-3.2453593
-3.2453289
-3.2453808
-3.245379
-3.2453779
-3.2453788
-3.2453809
-3.2453806
-3.2453736
-3.245357
-3.2453308
-3.245369
-3.2453676
-3.2453669
-3.2453684
-3.2453711
-3.2453718
-3.2453664
-3.2453525
-3.2453304
-3.2453559
-3.2453549
-3.2453546
-3.2453566
-3.2453599
-3.2453615
-3.2453578
-3.2453464
-3.2453283
-3.2453423
-3.2453416
-3.2453418
-3.2453442
-3.2453481
-3.245351
-3.2453496
-3.2453413
-3.2453261
-3.2453325
-3.2453321
-3.2453326
-3.2453355
-3.2453404
-3.2453456
-3.2453486
-3.2453473
-3.2453399
-3.0235743
-3.0235753
-3.0235764
-3.0235772
-3.0235776
-3.0235785
-3.0235803
-3.0235834
-3.0235844
-3.0235657
-3.0235669
-3.0235681
-3.0235686
-3.0235686
-3.0235686
-3.0235691
-3.0235701
-3.0235696
-3.0235586
-3.0235598
-3.0235608
-3.023561
-3.0235606
-3.0235602
-3.0235607
-3.023562
-3.0235633
-3.0235514
-3.0235525
-3.0235533
-3.0235531
-3.0235523
-3.0235517
-3.0235524
-3.0235546
-3.0235576
-3.0235448
-3.0235457
-3.0235462
-3.0235456
-3.0235443
-3.0235434
-3.023544
-3.0235471
-3.023552
-3.0235395
-3.0235401
-3.0235403
-3.0235392
-3.0235373
-3.0235359
-3.0235363
-3.0235408
-3.0235476
-3.0235355
-3.0235358
-3.0235357
-3.0235342
-3.0235318
-3.02353
-3.0235315
-3.0235372
-3.023545
-3.023533
-3.0235331
-3.0235327
-3.0235309
-3.0235284
-3.0235268
-3.0235293
-3.0235352
-3.0235433
-3.0235318
-3.0235317
-3.0235311
-3.0235292
-3.0235266
-3.0235254
-3.0235274
-3.0235332
-3.0235417
-3.0235311
-3.0235309
-3.0235301
-3.0235281
-3.0235255
-3.023524
-3.0235255
-3.0235312
-3.0235403
-3.0235307
-3.0235304
-3.0235295
-3.0235273
-3.0235245
-3.0235227
-3.0235239
-3.0235298
-3.0235395
-3.0235306
-3.0235303
-3.0235293
-3.0235269
-3.0235239
-3.0235218
-3.023523
-3.0235291
-3.0235392
-3.0235307
-3.0235304
-3.0235294
-3.023527
-3.0235239
-3.0235219
-3.023523
-3.0235292
-3.0235395
-3.023531
-3.0235307
-3.0235297
-3.0235274
-3.0235245
-3.0235227
-3.023524
-3.0235302
-3.0235404
-3.0235316
-3.0235313
-3.0235304
-3.0235282
-3.0235255
-3.0235239
-3.0235256
-3.0235318
-3.0235418
-3.0235322
-3.023532
-3.0235312
-3.0235291
-3.0235263
-3.0235251
-3.0235274
-3.0235339
-3.0235435
-3.0235331
-3.0235331
-3.0235324
-3.0235304
-3.0235276
-3.0235261
-3.0235289
-3.0235358
-3.0235453
-3.0235351
-3.0235352
-3.0235348
-3.0235329
-3.0235303
-3.0235285
-3.0235306
-3.0235376
-3.023547
-3.0235382
-3.0235385
-3.0235384
-3.023537
-3.0235349
-3.0235335
-3.0235347
-3.0235406
-3.0235493
-3.0235422
-3.0235428
-3.023543
-3.023542
-3.0235405
-3.0235398
-3.0235413
-3.023546
-3.023553
-3.0235472
-3.0235479
-3.0235484
-3.023548
-3.023547
-3.0235467
-3.0235483
-3.0235523
-3.0235575
-3.0235524
-3.0235534
-3.0235542
-3.0235541
-3.0235536
-3.0235535
-3.0235547
-3.0235577
-3.0235613
-3.0235577
-3.0235588
-3.0235598
-3.0235602
-3.0235601
-3.0235602
-3.0235611
-3.0235632
-3.0235651
-3.0235651
-3.0235661
-3.0235672
-3.0235678
-3.0235682
-3.0235687
-3.0235703
-3.0235736
-3.0235769
-2.7989312
-2.7989312
-2.7989313
-2.7989319
-2.7989329
-2.7989338
-2.798934
-2.7989333
-2.7989309
-2.7989315
-2.7989315
-2.7989317
-2.7989323
-2.7989332
-2.7989336
-2.7989329
-2.7989306
-2.7989264
-2.7989328
-2.7989327
-2.7989328
-2.7989334
-2.7989342
-2.7989345
-2.7989337
-2.7989311
-2.7989267
-2.7989341
-2.7989339
-2.7989339
-2.7989344
-2.7989351
-2.7989354
-2.7989346
-2.798932
-2.7989274
-2.7989352
-2.7989349
-2.7989348
-2.7989352
-2.7989358
-2.7989361
-2.7989352
-2.7989325
-2.7989279
-2.7989363
-2.7989359
-2.7989357
-2.7989359
-2.7989364
-2.7989366
-2.7989356
-2.7989329
-2.7989284
-2.7989372
-2.7989367
-2.7989364
-2.7989365
-2.7989368
-2.7989368
-2.7989358
-2.7989332
-2.7989289
-2.7989379
-2.7989374
-2.7989369
-2.7989369
-2.798937
-2.7989368
-2.7989358
-2.7989335
-2.7989295
-2.7989385
-2.7989378
-2.7989373
-2.7989372
-2.7989372
-2.7989368
-2.798936
-2.7989339
-2.7989301
-2.7989389
-2.7989382
-2.7989376
-2.7989374
-2.7989372
-2.7989369
-2.7989361
-2.7989343
-2.7989307
-2.7989392
-2.7989385
-2.7989378
-2.7989375
-2.7989373
-2.7989369
-2.7989363
-2.7989346
-2.7989312
-2.7989393
-2.7989386
-2.7989379
-2.7989376
-2.7989373
-2.798937
-2.7989364
-2.7989348
-2.7989315
-2.7989394
-2.7989387
-2.798938
-2.7989376
-2.7989373
-2.798937
-2.7989364
-2.7989349
-2.7989318
-2.7989394
-2.7989387
-2.7989379
-2.7989375
-2.7989373
-2.7989369
-2.7989363
-2.7989349
-2.7989319
-2.7989392
-2.7989385
-2.7989377
-2.7989373
-2.7989371
-2.7989367
-2.7989362
-2.7989347
-2.7989318
-2.7989387
-2.798938
-2.7989373
-2.798937
-2.7989368
-2.7989365
-2.7989359
-2.7989344
-2.7989316
-2.798938
-2.7989373
-2.7989366
-2.7989363
-2.7989363
-2.7989361
-2.7989355
-2.798934
-2.7989311
-2.7989368
-2.7989361
-2.7989355
-2.7989353
-2.7989355
-2.7989355
-2.7989349
-2.7989334
-2.7989305
-2.7989351
-2.7989345
-2.798934
-2.7989339
-2.7989342
-2.7989345
-2.7989341
-2.7989327
-2.7989298
-2.7989329
-2.7989324
-2.798932
-2.7989321
-2.7989325
-2.798933
-2.7989328
-2.7989316
-2.7989287
-2.7989303
-2.7989299
-2.7989297
-2.7989299
-2.7989305
-2.7989311
-2.7989311
-2.7989299
-2.7989271
-2.7989275
-2.7989272
-2.7989271
-2.7989275
-2.7989282
-2.7989288
-2.7989286
-2.7989273
-2.7989248
-2.7989246
-2.7989245
-2.7989246
-2.7989251
-2.7989259
-2.7989264
-2.798926
-2.7989245
-2.7989224
-2.7989232
-2.7989232
-2.7989233
-2.7989239
-2.7989247
-2.7989254
-2.7989254
-2.7989248
-2.7989244
-2.5753466
-2.5753468
-2.575347
-2.5753472
-2.5753474
-2.5753475
-2.5753478
-2.5753483
-2.5753475
-2.5753455
-2.5753458
-2.575346
-2.5753461
-2.5753461
-2.5753461
-2.575346
-2.5753456
-2.5753443
-2.5753445
-2.5753447
-2.5753449
-2.575345
-2.5753449
-2.5753448
-2.5753445
-2.575344
-2.575343
-2.5753433
-2.5753435
-2.5753436
-2.5753437
-2.5753436
-2.5753435
-2.5753431
-2.5753426
-2.5753419
-2.575342
-2.5753422
-2.5753423
-2.5753422
-2.5753421
-2.5753419
-2.5753417
-2.5753414
-2.5753409
-2.5753408
-2.5753409
-2.5753409
-2.5753407
-2.5753404
-2.5753402
-2.5753401
-2.5753401
-2.57534
-2.5753397
-2.5753397
-2.5753396
-2.5753394
-2.575339
-2.5753387
-2.5753388
-2.575339
-2.5753393
-2.5753388
-2.5753388
-2.5753386
-2.5753383
-2.5753378
-2.5753375
-2.5753376
-2.5753382
-2.5753387
-2.5753382
-2.5753381
-2.5753379
-2.5753374
-2.5753369
-2.5753366
-2.5753368
-2.5753375