/*--------------------------------*- C++ -*----------------------------------*\
| =========                 |                                                 |
| \\      /  F ield         | OpenFOAM: The Open Source CFD Toolbox           |
|  \\    /   O peration     | Version:  2406                                  |
|   \\  /    A nd           | Website:  www.openfoam.com                      |
|    \\/     M anipulation  |                                                 |
\*---------------------------------------------------------------------------*/
FoamFile
{
    version     2.0;
    format      ascii;
    arch        "LSB;label=32;scalar=64";
    class       surfaceScalarField;
    location    "7.25";
    object      phi;
}
// * * * * * * * * * * * * * * * * * * * * * * * * * * * * * * * * * * * * * //

dimensions      [0 3 -1 0 0 0 0];

oriented        oriented;

internalField   nonuniform List<scalar> 
101088
(
-0.00017492722
3.7438942e-05
-1.3387122e-05
-3.1409139e-05
-0.00039403242
0.00017156061
-6.2826356e-05
-0.00014471669
-0.0006441573
0.00043241234
-0.00016290093
-0.00036633313
-0.00089005001
0.00084341544
-0.00033064519
-0.0007201743
-0.0010798069
0.0013566368
-0.00055486612
-0.0011726781
-0.0011824072
0.001861016
-0.00077732359
-0.001626969
-0.0012261595
0.0022497917
-0.00091360484
-0.0019749963
-0.0012774907
0.0024563295
-0.0009126003
-0.0021475241
0.0024408199
-0.00079058456
-0.0021319673
-0.0013661164
-0.00021224437
4.1520772e-05
-1.5446776e-05
-0.00047143427
0.0001915276
-7.3281331e-05
-0.00075459945
0.00048283181
-0.00019174034
-0.0010098308
0.0009358694
-0.00039137559
-0.0011735358
0.0014921599
-0.00065757591
-0.0012200021
0.0020348964
-0.0009198136
-0.0011929093
0.002459964
-0.0010806045
-0.0011685165
0.0026971598
-0.0010847812
0.0026890579
-0.00095336958
-0.0011902638
-0.00025066163
4.3786542e-05
-1.6920969e-05
-0.00055132501
0.00020343676
-8.1420177e-05
-0.00086910656
0.0005142507
-0.00021547849
-0.0011378804
0.00099357088
-0.00044276446
-0.0012828077
0.0015734761
-0.00074427758
-0.0012808512
0.0021367513
-0.0010370824
-0.0011899509
0.0025870354
-0.0012131442
-0.001099637
0.0028521499
-0.0012171932
0.0028606208
-0.0010758403
-0.0010645409
-0.00028853582
4.4114383e-05
-1.7816925e-05
-0.00063077469
0.00020658886
-8.7144779e-05
-0.00098358101
0.00052409787
-0.00023363756
-0.0012663718
0.0010106909
-0.00048373037
-0.0013966795
0.0015937644
-0.00081370856
-0.0013572536
0.0021610614
-0.0011288276
-0.0012198168
0.0026280182
-0.0013134177
-0.0010806438
0.0029158109
-0.0013125862
0.0029456814
-0.0011614326
-0.0010000297
-0.00032445982
4.1952696e-05
-1.8023803e-05
-0.00070631306
0.00019919599
-8.998905e-05
-0.0010934213
0.00050953789
-0.00024527389
-0.0013932641
0.00098479859
-0.00051299389
-0.0015181029
0.0015526187
-0.0008650521
-0.0014559641
0.0021091411
-0.001196018
-0.0012866411
0.0025800168
-0.0013825789
-0.0011129847
0.0028841807
-0.0013743388
0.00293711
-0.0012140969
-0.0009968241
-0.00035908778
3.8192943e-05
-1.7599129e-05
-0.00078190553
0.00018389787
-9.0109795e-05
-0.0012082352
0.00047476516
-0.00025058545
-0.0015339166
0.00092091079
-0.00053088904
-0.0016643602
0.0014534343
-0.00089879218
-0.0015918389
0.0019812733
-0.0012388287
-0.0014036495
0.0024415098
-0.0014228041
-0.0012053948
0.0027523009
-0.0014056265
0.0028257966
-0.0012372854
-0.001058394
-0.00039031009
3.286727e-05
-1.6624038e-05
-0.00085136789
0.00016099568
-8.76922e-05
-0.0013164864
0.00042065219
-0.00024964756
-0.0016719124
0.00082103951
-0.00053699895
-0.0018184544
0.0013007367
-0.00091420407
-0.0017504722
0.001782796
-0.0012574681
-0.0015566403
0.0022140845
-0.0014352815
-0.0013451079
0.002519717
-0.0014085901
0.0026079068
-0.0012338465
-0.0011742794
-0.0004179484
2.6408868e-05
-1.5174438e-05
-0.00091492122
0.00013212425
-8.3030431e-05
-0.0014194813
0.00035052517
-0.00024307328
-0.0018098728
0.00069039263
-0.00053241207
-0.0019822582
0.0011008201
-0.0009131193
-0.0019316059
0.0015201457
-0.0012547766
-0.001742477
0.0019003229
-0.0014239546
-0.0015254304
0.0021861331
-0.0013875244
0.0022801503
-0.0012082094
-0.0013348901
-0.00044153682
1.9411339e-05
-1.3438601e-05
-0.00097145584
9.9573846e-05
-7.6864222e-05
-0.0015151083
0.00026889632
-0.00023238898
-0.0019439888
0.00053562076
-0.00051956888
-0.0021492029
0.00086128111
-0.0008989873
-0.0021251318
0.0012010566
-0.0012352302
-0.0019494069
0.0015066178
-0.0013943125
-0.0017319639
0.0017538978
-0.0013481966
0.0018421662
-0.0011660444
-0.0015239257
-0.00046050653
1.2529801e-05
-1.1694717e-05
-0.0010191016
6.5933918e-05
-7.0344005e-05
-0.0015993502
0.00018109973
-0.00022002947
-0.002066997
0.00036465004
-0.00050242385
-0.0023075639
0.00059118631
-0.00087723534
-0.002312188
0.0008330699
-0.0012054633
-0.0021573692
0.0010466485
-0.0013548389
-0.0019414767
0.0012306389
-0.001299401
0.0013004413
-0.0011157823
-0.0017171983
-0.00047389085
6.1616987e-06
-1.0308405e-05
-0.0010540422
3.2877872e-05
-6.4960124e-05
-0.0016633168
9.1153448e-05
-0.00020921661
-0.002163423
0.0001846143
-0.00048618048
-0.002435221
0.00030080592
-0.00085515799
-0.0024634364
0.00042660019
-0.0011751614
-0.0023294102
0.00053709884
-0.0013160084
-0.0021170377
0.00063557815
-0.0012528698
0.00067447172
-0.0010687523
-0.0018798807
-0.00048074274
-9.9349966e-11
-9.4645475e-06
-0.0010722629
-3.8732585e-10
-6.1640886e-05
-0.00169742
-7.4851748e-10
-0.00020240283
-0.002216185
-1.2173014e-09
-0.00047569024
-0.0025067857
-1.6954473e-09
-0.0008407563
-0.002550353
-2.022243e-09
-0.0011556548
-0.0024291734
-1.9580328e-09
-0.0012914391
-0.0022197668
-5.2847272e-10
-0.0012237955
1.4006088e-09
-0.001039561
-0.0019754437
-0.00048074275
-6.1618436e-06
-9.464547e-06
-0.0010722627
-3.2878485e-05
-6.1640883e-05
-0.0016974198
-9.11547e-05
-0.00020240282
-0.0022161849
-0.00018461658
-0.00047569021
-0.0025067855
-0.00030080934
-0.00084075624
-0.0025503527
-0.00042660436
-0.0011556547
-0.002429173
-0.00053710266
-0.0012914391
-0.0022197663
-0.00063557908
-0.0012237955
-0.00067446906
-0.001039561
-0.0019754431
-0.00047389102
-1.2529882e-05
-1.0308409e-05
-0.0010540423
-6.5934333e-05
-6.4960144e-05
-0.0016633171
-0.00018110076
-0.00020921667
-0.0021634232
-0.00036465235
-0.00048618056
-0.002435221
-0.00059119005
-0.00085515808
-0.0024634361
-0.00083307444
-0.0011751615
-0.0023294095
-0.0010466525
-0.0013160085
-0.0021170366
-0.00123064
-0.0012528699
-0.0013004392
-0.0010687523
-0.0018798791
-0.00046050652
-1.941142e-05
-1.169472e-05
-0.0010191012
-9.9574138e-05
-7.0344018e-05
-0.0015993499
-0.00026889723
-0.0002200295
-0.0020669965
-0.00053562299
-0.00050242386
-0.0023075633
-0.00086128476
-0.00087723533
-0.0023121872
-0.0012010611
-0.0012054633
-0.0021573683
-0.0015066222
-0.0013548389
-0.0019414755
-0.0017538996
-0.001299401
-0.0018421645
-0.0011157822
-0.0017171966
-0.0004415369
-2.6408974e-05
-1.3438605e-05
-0.00097145547
-0.00013212456
-7.686424e-05
-0.001515108
-0.00035052615
-0.00023238903
-0.0019439886
-0.00069039492
-0.00051956893
-0.0021492024
-0.0011008238
-0.00089898735
-0.0021251312
-0.0015201504
-0.0012352303
-0.001949406
-0.0019003276
-0.0013943126
-0.0017319627
-0.0021861353
-0.0013481966
-0.0022801488
-0.0011660444
-0.0015239243
-0.00041794845
-3.2867344e-05
-1.5174442e-05
-0.00091492101
-0.00016099597
-8.3030454e-05
-0.0014194811
-0.00042065322
-0.00024307335
-0.0018098727
-0.00082104177
-0.00053241215
-0.001982258
-0.0013007403
-0.00091311939
-0.0019316058
-0.001782801
-0.0012547767
-0.0017424767
-0.0022140893
-0.0014239546
-0.0015254297
-0.0025197194
-0.0013875245
-0.0026079052
-0.0012082095
-0.0013348896
-0.00039031004
-3.8193056e-05
-1.6624041e-05
-0.00085136785
-0.00018389823
-8.7692221e-05
-0.0013164861
-0.00047476622
-0.00024964763
-0.0016719123
-0.00092091293
-0.00053699903
-0.0018184546
-0.0014534377
-0.00091420419
-0.0017504727
-0.0019812782
-0.0012574683
-0.0015566406
-0.0024415145
-0.0014352816
-0.0013451079
-0.0027523035
-0.0014085902
-0.0028257947
-0.0012338466
-0.0011742794
-0.00035908793
-4.1952759e-05
-1.7599136e-05
-0.00078190588
-0.00019919623
-9.0109834e-05
-0.0012082356
-0.00050953857
-0.00025058556
-0.0015339174
-0.00098480012
-0.00053088923
-0.0016643616
-0.0015526217
-0.00089879245
-0.0015918403
-0.0021091455
-0.0012388291
-0.0014036507
-0.0025800214
-0.0014228045
-0.0012053957
-0.0028841835
-0.0014056267
-0.0029371084
-0.0012372855
-0.0010583941
-0.00032445986
-4.4114393e-05
-1.8023802e-05
-0.00070631318
-0.000206589
-8.9989056e-05
-0.0010934218
-0.00052409822
-0.00024527391
-0.001393265
-0.001010692
-0.00051299393
-0.0015181044
-0.0015937669
-0.00086505214
-0.0014559656
-0.0021610652
-0.0011960181
-0.0012866428
-0.0026280224
-0.001382579
-0.0011129861
-0.0029158136
-0.0013743387
-0.0029456812
-0.0012140969
-0.00099682401
-0.00028853582
-4.3786521e-05
-1.781692e-05
-0.00063077484
-0.00020343672
-8.7144761e-05
-0.00098358157
-0.00051425063
-0.00023363753
-0.0012663729
-0.00099357132
-0.0004837303
-0.001396681
-0.0015734778
-0.00081370845
-0.0013572553
-0.0021367545
-0.0011288275
-0.0012198191
-0.0025870389
-0.0013134177
-0.0010806462
-0.0028521527
-0.0013125862
-0.0028606225
-0.0011614325
-0.00100003
-0.00025066164
-4.1520689e-05
-1.6920961e-05
-0.00055132517
-0.00019152736
-8.1420144e-05
-0.00086910692
-0.00048283153
-0.00021547841
-0.0011378812
-0.00093586964
-0.00044276431
-0.0012828088
-0.0014921614
-0.00074427735
-0.0012808528
-0.0020348991
-0.0010370821
-0.0011899536
-0.0024599664
-0.001213144
-0.0010996399
-0.0026971622
-0.0012171932
-0.0026890616
-0.0010758402
-0.0010645422
-0.00021224437
-3.743886e-05
-1.5446771e-05
-0.00047143432
-0.00017156038
-7.3281312e-05
-0.00075459959
-0.00043241203
-0.0001917403
-0.0010098312
-0.00084341546
-0.0003913755
-0.001173537
-0.0013566379
-0.00065757581
-0.0012200039
-0.0018610179
-0.0009198135
-0.0011929118
-0.0022497934
-0.0010806044
-0.0011685188
-0.002456332
-0.0010847812
-0.0024408246
-0.00095336958
-0.0011902652
-0.00017492721
-1.3387122e-05
-3.1409096e-05
-0.00039403234
-6.2826356e-05
-0.00014471657
-0.00064415713
-0.00016290093
-0.00036633301
-0.0008900498
-0.0003306452
-0.00072017435
-0.0010798075
-0.00055486613
-0.0011726785
-0.0011824089
-0.00077732363
-0.0016269701
-0.0012261617
-0.00091360495
-0.0019749974
-0.0012774936
-0.0009126004
-0.0021475257
-0.00079058455
-0.0021319709
-0.0013661204
1.4229299e-06
-1.1420591e-06
-1.3397201e-05
-2.7079199e-07
5.9881739e-06
-6.0098474e-06
-6.1301544e-05
-8.0184182e-08
1.3179691e-05
-1.7890065e-05
-0.0001552203
3.0179739e-06
2.02718e-05
-4.3693875e-05
-0.00030849417
1.4450816e-05
2.5306707e-05
-9.1607467e-05
-0.00051083446
4.254098e-05
3.1537705e-05
-0.00016312155
-0.000712362
9.1929059e-05
4.6145196e-05
-0.00024619208
-0.00083778047
0.00015576029
7.3924792e-05
-0.00031884815
-0.00083851005
0.00021697829
-0.00035822341
-0.00072677974
0.00025836981
0.00010997361
2.3145579e-06
-3.0460944e-06
-1.5857296e-05
9.8287586e-06
-1.4187869e-05
-7.261752e-05
2.1596372e-05
-3.7404469e-05
-0.00018399361
3.2499422e-05
-8.0538068e-05
-0.00036543458
3.7795988e-05
-0.00015055514
-0.00060392495
3.9931381e-05
-0.00024481161
-0.00084025904
4.7034301e-05
-0.00034599169
-0.00098790791
6.5183232e-05
-0.0004279659
-0.00099381232
-0.00046710153
-0.0008745503
9.5242132e-05
3.4501234e-06
-5.3624873e-06
-1.805468e-05
1.4496205e-05
-2.3900731e-05
-8.2753352e-05
3.1330437e-05
-5.9985435e-05
-0.00020973167
4.5762264e-05
-0.00012183589
-0.00041589828
5.0018356e-05
-0.00021424969
-0.00068483891
4.6215702e-05
-0.00033004207
-0.00094804922
4.4011741e-05
-0.00044730748
-0.0011096244
5.125818e-05
-0.0005369605
-0.001115445
-0.00057426895
-0.00098847595
7.106134e-05
4.7228974e-06
-7.885451e-06
-2.0016871e-05
1.9701655e-05
-3.4255695e-05
-9.1768609e-05
4.1991406e-05
-8.3438435e-05
-0.00023247437
5.9759596e-05
-0.00016338037
-0.00045995418
6.2083188e-05
-0.00027615804
-0.00075412399
5.1419911e-05
-0.00041044264
-0.0010377638
3.9320783e-05
-0.00054123999
-0.001207386
3.6008027e-05
-0.0006363671
-0.0012098668
-0.0006694105
-0.0010750539
4.4770955e-05
5.9977511e-06
-1.0268541e-05
-2.1638462e-05
2.4946115e-05
-4.3901498e-05
-9.9291556e-05
5.2621055e-05
-0.00010483669
-0.0002515505
7.3346249e-05
-0.0002002384
-0.00049686112
7.3172819e-05
-0.00032942168
-0.00081161511
5.5274045e-05
-0.00047780797
-0.0011107539
3.4132282e-05
-0.00061801587
-0.0012846611
2.140248e-05
-0.00071578845
-0.0012821876
-0.00074324582
-0.0011398154
2.0956272e-05
7.3703073e-06
-1.2276556e-05
-2.2961441e-05
3.0614247e-05
-5.1787105e-05
-0.00010546811
6.4168921e-05
-0.00012172187
-0.00026725507
8.8253686e-05
-0.00022804776
-0.0005271646
8.5897614e-05
-0.00036749415
-0.00085836365
6.1550203e-05
-0.00052327797
-0.0011690113
3.2593105e-05
-0.00066719731
-0.0013446655
1.190899e-05
-0.00076414288
-0.001336588
-0.00078505223
-0.0011871827
3.6125913e-06
8.5871083e-06
-1.3476856e-05
-2.4010854e-05
3.5738994e-05
-5.6266422e-05
-0.00011036478
7.4685091e-05
-0.00013064464
-0.00027967095
0.00010181614
-0.00024121694
-0.00055096089
9.75527e-05
-0.00038280666
-0.00089462805
6.790767e-05
-0.00053778763
-0.0012133133
3.3086568e-05
-0.00067860693
-0.0013890508
6.7381468e-06
-0.00077077079
-0.0013756138
-0.00078509315
-0.0012202593
-6.8082933e-06
9.6132557e-06
-1.3497766e-05
-2.476675e-05
4.018038e-05
-5.5909726e-05
-0.00011395437
8.397116e-05
-0.00012863026
-0.00028887841
0.00011400174
-0.00023496348
-0.00056869606
0.0001084519
-0.00036880505
-0.00092157107
7.4976126e-05
-0.00051330308
-0.0012457852
3.6157284e-05
-0.00064294921
-0.0014207936
6.4179609e-06
-0.00072586905
-0.0014026869
-0.00073438372
-0.0012425396
-9.9612995e-06
1.0397745e-05
-1.2069511e-05
-2.5264573e-05
4.3729865e-05
-4.9715176e-05
-0.00011639098
9.1627214e-05
-0.00011365262
-0.00029526397
0.00012434493
-0.00020608972
-0.00058116036
0.00011825961
-0.00032113625
-0.00094057088
8.2462386e-05
-0.00044427316
-0.0012684628
4.1183631e-05
-0.00055353852
-0.0014424444
1.0093045e-05
-0.00062242521
-0.0014205499
-0.00062655556
-0.0012567665
-7.0130897e-06
1.0958795e-05
-9.1567e-06
-2.5566285e-05
4.6397092e-05
-3.7564085e-05
-0.00011793348
9.7633463e-05
-8.5500167e-05
-0.00029941827
0.00013279919
-0.00015428653
-0.00058939278
0.0001268628
-0.0002392817
-0.00095315349
9.0164565e-05
-0.00032973014
-0.001283308
4.7497153e-05
-0.00040949592
-0.001456214
1.6417459e-05
-0.00045930601
-0.0014314404
-0.00046074811
-0.001265081
-9.1408947e-08
1.1310918e-05
-4.9858426e-06
-2.5790163e-05
4.8138437e-05
-2.0364891e-05
-0.00011898692
0.00010168406
-4.6171497e-05
-0.00030209096
0.00013867449
-8.3013644e-05
-0.00059444384
0.00013313154
-0.00012833114
-0.00096056549
9.6314867e-05
-0.00017639916
-0.0012916756
5.301175e-05
-0.00021867041
-0.0014635308
2.2570667e-05
-0.0002449278
-0.001436807
-0.00024519807
-0.001268902
7.1702371e-06
1.1383884e-05
2.8674921e-12
-2.5834264e-05
4.8665764e-05
1.2942871e-11
-0.0001192877
0.000103118
4.2441656e-11
-0.00030302659
0.00014086823
6.1889809e-11
-0.0005964541
0.00013552798
5.8385724e-11
-0.00096374713
9.8869264e-05
-1.8667656e-11
-0.0012953951
5.5548559e-05
-1.1060131e-10
-0.0014667888
2.5957877e-05
5.1238432e-11
-0.0014391328
4.7425674e-10
-0.0012704998
1.1698134e-05
1.1383877e-05
4.9858427e-06
-2.583426e-05
4.8665774e-05
2.0364904e-05
-0.00011928769
0.00010311799
4.6171563e-05
-0.00030302655
0.00014086824
8.3013719e-05
-0.00059645402
0.00013552794
0.00012833115
-0.00096374702
9.8869218e-05
0.00017639902
-0.001295395
5.5548568e-05
0.00021867019
-0.0014667887
2.5957968e-05
0.0002449279
-0.0014391327
0.00024519888
-0.0012704999
1.1698401e-05
1.1310913e-05
9.1567035e-06
-2.5790164e-05
4.8138494e-05
3.756412e-05
-0.00011898693
0.00010168411
8.5500259e-05
-0.00030209096
0.00013867456
0.00015428655
-0.00059444384
0.00013313151
0.00023928154
-0.00096056547
9.6314813e-05
0.00032972981
-0.0012916756
5.3011754e-05
0.00040949557
-0.0014635308
2.2570815e-05
0.00045930601
-0.0014368071
0.00046074865
-0.0012689021
7.1707568e-06
1.0958772e-05
1.206951e-05
-2.556628e-05
4.6397131e-05
4.9715215e-05
-0.00011793346
9.7633488e-05
0.00011365268
-0.00029941823
0.00013279925
0.00020608961
-0.00058939268
0.00012686289
0.00032113594
-0.00095315334
9.0164633e-05
0.00044427263
-0.0012833079
4.7497206e-05
0.00055353787
-0.0014562139
1.6417573e-05
0.00062242503
-0.0014314405
0.00062655607
-0.001265081
-9.1086523e-08
1.0397729e-05
1.3497755e-05
-2.5264572e-05
4.3729901e-05
5.5909746e-05
-0.00011639097
9.1627227e-05
0.00012863025
-0.00029526395
0.00012434495
0.00023496322
-0.00058116032
0.00011825973
0.00036880461
-0.00094057081
8.2462471e-05
0.00051330238
-0.0012684627
4.1183741e-05
0.00064294838
-0.0014424444
1.0093146e-05
0.00072586887
-0.00142055
0.00073438459
-0.0012567666
-7.0131815e-06
9.6132181e-06
1.3476851e-05
-2.4766752e-05
4.0180426e-05
5.6266458e-05
-0.00011395438
8.3971134e-05
0.00013064459
-0.00028887843
0.0001140017
0.00024121656
-0.00056869607
0.00010845196
0.00038280604
-0.00092157107
7.4976175e-05
0.00053778673
-0.0012457852
3.6157478e-05
0.00067860602
-0.0014207936
6.4182052e-06
0.00077077062
-0.001402687
0.00078509443
-0.0012425398
-9.9614045e-06
8.5871054e-06
1.2276551e-05
-2.4010857e-05
3.5739011e-05
5.1787122e-05
-0.00011036479
7.4685138e-05
0.00012172182
-0.00027967099
0.0001018162
0.00022804742
-0.00055096093
9.7552778e-05
0.00036749341
-0.0008946281
6.7907755e-05
0.0005232769
-0.0012133134
3.3086754e-05
0.00066719623
-0.0013890508
6.7384551e-06
0.00076414255
-0.0013756139
0.00078505378
-0.0012202595
-6.8080517e-06
7.3703131e-06
1.0268543e-05
-2.2961449e-05
3.0614236e-05
4.3901514e-05
-0.00010546814
6.4168948e-05
0.00010483667
-0.00026725515
8.8253732e-05
0.00020023812
-0.00052716472
8.5897678e-05
0.00032942084
-0.00085836382
6.1550254e-05
0.00047780671
-0.0011690115
3.2593176e-05
0.00061801451
-0.0013446657
1.1909276e-05
0.00071578786
-0.0013365881
0.00074324723
-0.0011871828
3.6131995e-06
5.9977637e-06
7.8854402e-06
-2.1638462e-05
2.4946116e-05
3.4255658e-05
-9.9291554e-05
5.2620995e-05
8.3438353e-05
-0.00025155049
7.3346207e-05
0.00016338006
-0.00049686111
7.3172805e-05
0.00027615717
-0.00081161507
5.5274036e-05
0.00041044128
-0.0011107539
3.4132237e-05
0.00054123852
-0.0012846612
2.1402675e-05
0.00063636633
-0.0012821876
0.00066941119
-0.0011398154
2.095711e-05
4.7228886e-06
5.3624919e-06
-2.0016868e-05
1.9701597e-05
2.3900746e-05
-9.1768589e-05
4.1991242e-05
5.9985448e-05
-0.00023247432
5.9759351e-05
0.0001218357
-0.00045995409
6.2082923e-05
0.000214249
-0.00075412385
5.1419634e-05
0.00033004073
-0.0010377637
3.9320592e-05
0.00044730583
-0.001207386
3.6008141e-05
0.00053695925
-0.0012098667
0.00057426892
-0.001075054
4.477178e-05
3.4500888e-06
3.046105e-06
-1.8054675e-05
1.4496098e-05
1.4187903e-05
-8.2753323e-05
3.1330252e-05
3.7404486e-05
-0.00020973159
4.5761967e-05
8.0537893e-05
-0.00041589814
5.001791e-05
0.00015055453
-0.00068483871
4.6215206e-05
0.00024481039
-0.00094804901
4.4011227e-05
0.00034599011
-0.0011096242
5.1257942e-05
0.0004279644
-0.001115445
0.00046710106
-0.00098847592
7.1061524e-05
2.3145406e-06
1.1420766e-06
-1.5857294e-05
9.8287365e-06
6.0098951e-06
-7.261751e-05
2.1596393e-05
1.7890089e-05
-0.00018399359
3.2499487e-05
4.3693777e-05
-0.00036543453
3.7795932e-05
9.1607084e-05
-0.00060392489
3.9931102e-05
0.00016312077
-0.000840259
4.7033607e-05
0.00024619103
-0.00098790787
6.51821e-05
0.0003188469
-0.00099381235
0.0003582227
-0.00087455037
9.5241212e-05
1.4229635e-06
-1.3397202e-05
-2.7080398e-07
5.9883249e-06
-6.1301548e-05
-8.0235748e-08
1.3179995e-05
-0.00015522031
3.0178483e-06
2.0272312e-05
-0.00030849418
1.445055e-05
2.5307434e-05
-0.00051083447
4.2540476e-05
3.1538382e-05
-0.00071236202
9.1928203e-05
4.6145575e-05
-0.00083778054
0.00015575944
7.3923758e-05
-0.00083851012
0.00021697838
-0.00072677978
0.00025836969
0.00010997203
-2.7931135e-07
1.5609969e-06
-1.3205571e-05
-1.4733154e-06
-1.6004069e-06
6.837027e-06
-6.032996e-05
-6.4875081e-06
-4.6800784e-06
1.6429081e-05
-0.00015290796
-1.5661724e-05
-9.6449047e-06
3.0328006e-05
-0.00030470887
-2.9148438e-05
-1.5500388e-05
4.5397508e-05
-0.00050602178
-4.4354653e-05
-2.0386738e-05
5.5697897e-05
-0.00070718467
-5.5988815e-05
-2.2780207e-05
5.6342888e-05
-0.00083254714
-5.9182682e-05
-2.2575769e-05
4.7646801e-05
-0.00083319719
-5.3164089e-05
3.4187249e-05
-0.00072153175
-4.0652013e-05
-2.1358988e-05
-2.9227424e-07
1.5734954e-06
-1.5577518e-05
-1.6894753e-06
6.8598211e-06
-7.1243112e-05
-4.800266e-06
1.6352724e-05
-0.00018080648
-9.3141829e-06
2.9805375e-05
-0.00036039806
-1.3768753e-05
4.3792944e-05
-0.00059786583
-1.6261603e-05
5.2201638e-05
-0.00083426992
-1.5764331e-05
5.0369896e-05
-0.0009824322
-1.2818156e-05
3.9439393e-05
-0.0009885511
2.5136389e-05
-0.00086915693
-9.1607154e-06
-2.6715094e-07
1.4905243e-06
-1.7704555e-05
-1.599639e-06
6.4794244e-06
-8.1040458e-05
-4.5587859e-06
1.5379294e-05
-0.00020579907
-8.6117487e-06
2.7776977e-05
-0.00040981686
-1.1961492e-05
4.0117449e-05
-0.00067781358
-1.2614384e-05
4.6382918e-05
-0.00094157755
-9.9724467e-06
4.2355847e-05
-0.0011042522
-5.3365759e-06
2.9932694e-05
-0.0011105742
1.5710071e-05
-0.00098331009
-1.0761359e-06
-2.2946539e-07
1.3224368e-06
-1.9619325e-05
-1.4549707e-06
5.7476698e-06
-8.9811373e-05
-4.1662633e-06
1.3626508e-05
-0.00022801032
-7.6178301e-06
2.4469232e-05
-0.00045319489
-9.8203728e-06
3.4818143e-05
-0.00074662216
-8.8709012e-06
3.8990756e-05
-0.0010313211
-4.6911106e-06
3.3316742e-05
-0.0012025267
7.0924313e-07
2.0319641e-05
-0.001205654
7.017509e-06
-0.0010703052
4.6530741e-06
-1.7266158e-07
1.0839797e-06
-2.1227344e-05
-1.2339059e-06
4.7409155e-06
-9.7223548e-05
-3.6169856e-06
1.1301466e-05
-0.00024684234
-6.4127743e-06
2.0292047e-05
-0.00048988812
-7.5223544e-06
2.8541785e-05
-0.00080422915
-5.2081072e-06
3.0864032e-05
-0.0011049414
6.3489951e-08
2.4162779e-05
-0.0012807787
5.6938242e-06
1.1415444e-05
-0.0012789137
-4.3402859e-07
-0.0011356276
8.9575559e-06
-1.2278259e-07
8.2077824e-07
-2.2575465e-05
-1.0370628e-06
3.629551e-06
-0.00010344247
-3.1161614e-06
8.7522094e-06
-0.00026262674
-5.2962443e-06
1.5790368e-05
-0.00052048284
-5.381679e-06
2.1975384e-05
-0.00085171182
-1.8558877e-06
2.2763097e-05
-0.0011644362
4.257475e-06
1.5630837e-05
-0.0013422469
9.8574509e-06
3.7804117e-06
-0.0013345529
-6.3023376e-06
-0.0011837334
1.2276482e-05
-6.5527895e-08
5.5908666e-07
-2.3683635e-05
-8.1100279e-07
2.5277925e-06
-0.00010851754
-2.552914e-06
6.2353875e-06
-0.0002754122
-4.103993e-06
1.1395277e-05
-0.00054501473
-3.2430154e-06
1.5720478e-05
-0.00088923412
1.3051496e-06
1.5380859e-05
-0.0012104793
8.0081128e-06
8.3925589e-06
-0.0013885155
1.338538e-05
-2.0850213e-06
-0.0013751256
-1.0279095e-05
-0.0012177795
1.4882256e-05
-1.0063208e-08
3.2979116e-07
-2.4527383e-05
-5.9216907e-07
1.5574432e-06
-0.00011240194
-2.0103723e-06
4.0061771e-06
-0.00028523098
-2.9763754e-06
7.505407e-06
-0.00056384021
-1.2732329e-06
1.027575e-05
-0.00091782953
4.1286123e-06
9.2433224e-06
-0.0012450495
1.1255646e-05
2.9139365e-06
-0.001422442
1.6342712e-05
-5.8500443e-06
-0.001404009
-1.2169558e-05
-0.0012412738
1.6967367e-05
3.8610798e-08
1.5714774e-07
-2.5130536e-05
-4.0094331e-07
8.1215509e-07
-0.00011520615
-1.5348963e-06
2.2545948e-06
-0.00029237844
-1.9949151e-06
4.4091993e-06
-0.00057760416
4.1534734e-07
5.9872128e-06
-0.00093869267
6.5007906e-06
4.6965733e-06
-0.0012700015
1.3935853e-05
-5.3172884e-07
-0.0014464338
1.874508e-05
-7.3344467e-06
-0.0014238747
-1.1891897e-05
-0.0012569484
1.8649287e-05
7.689256e-08
5.2015322e-08
-2.5538038e-05
-2.5212222e-07
3.3337264e-07
-0.00011712571
-1.1625725e-06
1.0636811e-06
-0.00029731692
-1.217425e-06
2.2223247e-06
-0.00058715107
1.7441437e-06
2.9885809e-06
-0.00095311646
8.3516939e-06
1.8310131e-06
-0.00128705
1.6013714e-05
-1.9201994e-06
-0.0014624875
2.0608309e-05
-6.5686676e-06
-0.0014368008
-9.5057918e-06
-0.0012668431
1.998434e-05
1.0075893e-07
6.627336e-09
-2.5845525e-05
-1.5833928e-07
9.0836819e-08
-0.00011848532
-9.1811751e-07
3.7186727e-07
-0.00030063938
-6.8970134e-07
8.4959637e-07
-0.00059329956
2.6730948e-06
1.1251919e-06
-0.00096206489
9.6459163e-06
4.4142052e-07
-0.0012972589
1.7463307e-05
-1.523865e-06
-0.0014717445
2.1945283e-05
-3.87979e-06
-0.0014439779
-5.312226e-06
-0.0012721069
2.0956584e-05
1.1246672e-07
-1.0546895e-11
-2.5940085e-05
-1.1232438e-07
-3.6148684e-11
-0.00011897206
-7.9520455e-07
-7.3611858e-11
-0.00030197177
-4.1975909e-07
-1.4781615e-10
-0.0005959798
3.1430211e-06
-2.3049744e-10
-0.00096618447
1.0296736e-05
-2.8783409e-10
-0.0013021071
1.8193761e-05
-1.984411e-10
-0.0014762095
2.2643256e-05
1.7919408e-10
-0.0014474623
7.6969521e-10
-0.0012746462
2.1476558e-05
1.1246518e-07
-6.6508333e-09
-2.5940082e-05
-1.1231272e-07
-9.0915882e-08
-0.00011897204
-7.9518478e-07
-3.7202635e-07
-0.00030197173
-4.1971444e-07
-8.4990433e-07
-0.00059597973
3.14307e-06
-1.1256717e-06
-0.00096618436
1.02968e-05
-4.4200771e-07
-0.001302107
1.819384e-05
1.5234744e-06
-0.0014762094
2.2643331e-05
3.8801533e-06
-0.0014474622
5.3137331e-06
-0.0012746461
2.1476645e-05
1.0075206e-07
-5.2037086e-08
-2.5845525e-05
-1.5832336e-07
-3.3344444e-07
-0.00011848532
-9.1808626e-07
-1.0638289e-06
-0.00030063938
-6.8962314e-07
-2.2226212e-06
-0.00059329955
2.6732003e-06
-2.9890707e-06
-0.00096206488
9.6460618e-06
-1.8316361e-06
-0.0012972588
1.7463484e-05
1.9197576e-06
-0.0014717445
2.1945459e-05
6.5689934e-06
-0.0014439779
9.5072295e-06
-0.0012721069
2.0956789e-05
7.6889834e-08
-1.57171e-07
-2.5538033e-05
-2.520969e-07
-8.1222486e-07
-0.00011712569
-1.1625182e-06
-2.2547392e-06
-0.00029731687
-1.2173131e-06
-4.4095055e-06
-0.00058715097
1.7443462e-06
-5.9877344e-06
-0.0009531163
8.3519613e-06
-4.6972815e-06
-0.0012870498
1.6014017e-05
5.3115095e-07
-0.0014624873
2.0608603e-05
7.3346756e-06
-0.0014368007
1.1893239e-05
-0.0012668432
1.9984677e-05
3.861273e-08
-3.2981771e-07
-2.5130533e-05
-4.0092075e-07
-1.5575133e-06
-0.00011520614
-1.5348444e-06
-4.0063319e-06
-0.00029237841
-1.9947968e-06
-7.5057533e-06
-0.00057760411
4.1559548e-07
-1.0276343e-05
-0.00093869258
6.5011351e-06
-9.244161e-06
-0.0012700014
1.3936279e-05
-2.9146567e-06
-0.0014464337
1.8745528e-05
5.8501498e-06
-0.0014238747
1.2170688e-05
-0.0012569484
1.8649861e-05
-1.0072828e-08
-5.591089e-07
-2.4527384e-05
-5.9216557e-07
-2.5278443e-06
-0.00011240195
-2.0103805e-06
-6.2355474e-06
-0.00028523099
-2.9763012e-06
-1.1395682e-05
-0.00056384021
-1.2730031e-06
-1.5721192e-05
-0.00091782952
4.1289807e-06
-1.5381858e-05
-0.0012450495
1.1256154e-05
-8.3934398e-06
-0.001422442
1.634331e-05
2.0849531e-06
-0.001404009
1.0279864e-05
-0.0012412739
1.6968193e-05
-6.5526406e-08
-8.2080227e-07
-2.3683638e-05
-8.1100151e-07
-3.6296016e-06
-0.00010851756
-2.5529083e-06
-8.7523943e-06
-0.00027541223
-4.1038986e-06
-1.5790831e-05
-0.00054501477
-3.2427879e-06
-2.1976221e-05
-0.00088923418
1.3055156e-06
-2.2764252e-05
-0.0012104793
8.008624e-06
-1.563193e-05
-0.0013885155
1.3386052e-05
-3.7807391e-06
-0.0013751257
6.302798e-06
-0.0012177796
1.4883126e-05
-1.2277662e-07
-1.0840042e-06
-2.2575472e-05
-1.0370549e-06
-4.7409618e-06
-0.0001034425
-3.1161397e-06
-1.1301637e-05
-0.00026262682
-5.2961973e-06
-2.0292513e-05
-0.00052048298
-5.3815474e-06
-2.8542713e-05
-0.000851712
-1.8556502e-06
-3.0865363e-05
-0.0011644364
4.2578864e-06
-2.4164167e-05
-0.0013422471
9.8580994e-06
-1.141612e-05
-0.001334553
4.3443639e-07
-0.0011837335
1.2277092e-05
-1.7265767e-07
-1.3224645e-06
-2.1227344e-05
-1.233885e-06
-5.7477362e-06
-9.7223549e-05
-3.6169814e-06
-1.3626692e-05
-0.00024684235
-6.4128047e-06
-2.4469709e-05
-0.00048988812
-7.5223842e-06
-3.4819109e-05
-0.00080422914
-5.2080843e-06
-3.8992227e-05
-0.0011049414
6.3690161e-08
-3.3318448e-05
-0.0012807787
5.6943283e-06
-2.0320741e-05
-0.0012789137
-7.0169594e-06
-0.0011356276
8.9578106e-06
-2.2947334e-07
-1.4905382e-06
-1.9619321e-05
-1.4549923e-06
-6.4794508e-06
-8.9811355e-05
-4.1663478e-06
-1.537939e-05
-0.00022801028
-7.6180271e-06
-2.7777313e-05
-0.00045319481
-9.8206825e-06
-4.0118263e-05
-0.00074662204
-8.8712824e-06
-4.6384369e-05
-0.001031321
-4.6914366e-06
-4.2357734e-05
-0.0012025266
7.0916528e-07
-2.9934154e-05
-0.001205654
-1.5709419e-05
-0.0010703052
4.6528885e-06
-2.6717296e-07
-1.5734931e-06
-1.7704549e-05
-1.5997169e-06
-6.8598029e-06
-8.1040431e-05
-4.5589808e-06
-1.6352725e-05
-0.000205799
-8.6121386e-06
-2.9805554e-05
-0.00040981674
-1.1962187e-05
-4.3793548e-05
-0.0006778134
-1.2615459e-05
-5.2202826e-05
-0.00094157734
-9.9737616e-06
-5.037164e-05
-0.0011042521
-5.3377121e-06
-3.9441044e-05
-0.0011105742
-2.5136006e-05
-0.00098331011
-1.0769535e-06
-2.9229445e-07
-1.5609763e-06
-1.5577516e-05
-1.6895387e-06
-6.8369512e-06
-7.1243104e-05
-4.8004081e-06
-1.6428955e-05
-0.00018080646
-9.3145471e-06
-3.0327898e-05
-0.00036039802
-1.3769632e-05
-4.5397578e-05
-0.00059786577
-1.6263149e-05
-5.5698414e-05
-0.00083426987
-1.5766338e-05
-5.6344175e-05
-0.00098243216
-1.2820506e-05
-4.7648134e-05
-0.00098855115
-3.4187323e-05
-0.00086915702
-9.1625026e-06
-2.7931253e-07
-1.3205572e-05
-1.4732941e-06
-1.6004074e-06
-6.0329966e-05
-6.487436e-06
-4.6801012e-06
-0.00015290798
-1.5661596e-05
-9.6449856e-06
-0.0003047089
-2.9148311e-05
-1.5500494e-05
-0.00050602181
-4.4354729e-05
-2.0386918e-05
-0.00070718471
-5.598935e-05
-2.278076e-05
-0.00083254722
-5.9183675e-05
-2.2577302e-05
-0.00083319729
-5.3164432e-05
-0.00072153182
-4.0651877e-05
-2.136067e-05
-1.1373531e-07
-2.2172059e-07
-1.3041924e-05
1.7180942e-07
-4.7327813e-07
-1.0692218e-06
-5.9751218e-05
8.500256e-07
-1.2297234e-06
-2.9705238e-06
-0.00015156407
2.383081e-06
-2.647211e-06
-6.8517694e-06
-0.00030193105
5.4914422e-06
-4.5753098e-06
-1.395178e-05
-0.00050126845
1.1126582e-05
-5.7729569e-06
-2.5166665e-05
-0.00070078502
1.9964711e-05
-4.0164578e-06
-3.983983e-05
-0.00082593097
3.1467198e-05
2.4604323e-06
-5.4943314e-05
-0.00082805499
4.3324249e-05
-6.5867274e-05
-0.00071850643
5.2530785e-05
1.2771606e-05
-1.4255627e-07
-2.8379849e-07
-1.5372882e-05
-5.6716397e-07
-1.3485167e-06
-7.0539202e-05
-1.4450964e-06
-3.6952311e-06
-0.00017920382
-3.1435382e-06
-8.4320008e-06
-0.00035711935
-5.5931799e-06
-1.7066519e-05
-0.00059230139
-7.5182578e-06
-3.0698868e-05
-0.00082681259
-6.5769284e-06
-4.8479784e-05
-0.00097473353