/*--------------------------------*- C++ -*----------------------------------*\
| =========                 |                                                 |
| \\      /  F ield         | OpenFOAM: The Open Source CFD Toolbox           |
|  \\    /   O peration     | Version:  2406                                  |
|   \\  /    A nd           | Website:  www.openfoam.com                      |
|    \\/     M anipulation  |                                                 |
\*---------------------------------------------------------------------------*/
FoamFile
{
    version     2.0;
    format      ascii;
    arch        "LSB;label=32;scalar=64";
    class       volVectorField;
    location    "7.25";
    object      U;
}
// * * * * * * * * * * * * * * * * * * * * * * * * * * * * * * * * * * * * * //

dimensions      [0 1 -1 0 0 0 0];

internalField   nonuniform List<vector> 
34560
(
(-0.072421977 0.013992933 0.03033801)
(-0.25652596 0.046035171 0.099551837)
(-0.51749316 0.088008329 0.18173055)
(-0.85360487 0.1357506 0.26601748)
(-1.2300893 0.1835995 0.33406512)
(-1.5859728 0.22945025 0.37146019)
(-1.8651971 0.27657659 0.377135)
(-2.0443916 0.32675007 0.36090312)
(-2.1294215 0.37373156 0.33656898)
(-0.072905729 0.016812654 0.033993169)
(-0.26454475 0.054925537 0.11114288)
(-0.54267719 0.10350448 0.20084722)
(-0.90225807 0.15623156 0.28922474)
(-1.2967872 0.20613823 0.35549797)
(-1.653033 0.2521372 0.38656814)
(-1.913617 0.29933394 0.38480436)
(-2.0647803 0.34917083 0.36298199)
(-2.1250528 0.3964528 0.33360816)
(-0.069716256 0.017510566 0.035286252)
(-0.26222148 0.058159412 0.1161267)
(-0.55159233 0.11045232 0.20991906)
(-0.92955178 0.16636792 0.30089816)
(-1.3365108 0.21753831 0.36624091)
(-1.6876255 0.26352684 0.39334101)
(-1.9270401 0.31038381 0.38698729)
(-2.052642 0.36177119 0.36156911)
(-2.0906703 0.40850567 0.32996127)
(-0.063305127 0.01798763 0.036402674)
(-0.25042796 0.060221824 0.12005543)
(-0.54496208 0.11441274 0.21639356)
(-0.93601793 0.17126295 0.30832824)
(-1.3509094 0.22178269 0.37190329)
(-1.6936549 0.26678384 0.39593696)
(-1.9126635 0.31391514 0.38714352)
(-2.0113408 0.36422131 0.36030403)
(-2.0286647 0.41008423 0.32901328)
(-0.053481455 0.017344309 0.036819775)
(-0.22842866 0.059084382 0.121872)
(-0.5217883 0.11325392 0.21957537)
(-0.92093263 0.16950244 0.31173079)
(-1.3407646 0.21855256 0.37420204)
(-1.6746256 0.2617396 0.3968088)
(-1.869921 0.30736617 0.38709853)
(-1.9425405 0.35629852 0.36082629)
(-1.9399939 0.40109505 0.33126816)
(-0.040768494 0.015893695 0.036684869)
(-0.19740609 0.055316101 0.12190771)
(-0.48343449 0.10729338 0.2199835)
(-0.88595001 0.16104241 0.31245406)
(-1.3071288 0.20720264 0.37464933)
(-1.6285207 0.24783366 0.39726187)
(-1.7996408 0.29147048 0.38848748)
(-1.8469828 0.33805535 0.36457036)
(-1.8249116 0.38146452 0.33745454)
(-0.025749577 0.013881414 0.036468061)
(-0.1585268 0.049431146 0.12146244)
(-0.43077063 0.097177516 0.21948003)
(-0.83063152 0.14649443 0.31221467)
(-1.2489066 0.18849472 0.37503761)
(-1.5559826 0.22561635 0.39929326)
(-1.7026659 0.26611906 0.39311055)
(-1.7253001 0.3097566 0.37243229)
(-1.6841141 0.35082614 0.3481856)
(-0.0090372663 0.011275508 0.036178572)
(-0.11339073 0.041408264 0.1207354)
(-0.36601358 0.082998852 0.21870328)
(-0.75748923 0.12622191 0.31226469)
(-1.1687735 0.1630159 0.376902)
(-1.4598265 0.19573432 0.4042794)
(-1.5822273 0.23164616 0.40210422)
(-1.5802097 0.27149024 0.38507519)
(-1.520491 0.30900288 0.36370292)
(0.0081322008 0.0083779055 0.035963147)
(-0.065507965 0.032007802 0.12018913)
(-0.2944722 0.065787504 0.21840515)
(-0.67284229 0.10134344 0.31348066)
(-1.0735276 0.13184114 0.38097908)
(-1.3470779 0.1594237 0.41247566)
(-1.4458978 0.18882921 0.41547886)
(-1.4192629 0.22356273 0.40224762)
(-1.3418428 0.25598209 0.38334672)
(0.023953632 0.0055483959 0.035879457)
(-0.02031263 0.022231078 0.12002856)
(-0.22469647 0.047004475 0.21884193)
(-0.5874269 0.073517289 0.3160034)
(-0.97507198 0.096591409 0.38692843)
(-1.2300913 0.11824765 0.42274055)
(-1.3087088 0.13900291 0.43150189)
(-1.2581898 0.16691935 0.42203242)
(-1.1646517 0.19242836 0.40490071)
(0.036224276 0.0031095111 0.035939927)
(0.015390543 0.012977432 0.1202632)
(-0.16812152 0.028051142 0.21987068)
(-0.51610898 0.044373756 0.319162)
(-0.89099835 0.058749163 0.39327859)
(-1.1297162 0.072528634 0.43309801)
(-1.1917 0.08544408 0.44619782)
(-1.1212118 0.10338822 0.44039344)
(-1.0146418 0.11989183 0.42432562)
(0.043221021 0.0010255184 0.036020298)
(0.036022062 0.0043332914 0.12055146)
(-0.13486353 0.0094279006 0.22070463)
(-0.47345872 0.0149321 0.32133861)
(-0.84018779 0.019797696 0.39744609)
(-1.0689629 0.02453834 0.43979933)
(-1.12102 0.028977733 0.45548734)
(-1.0386176 0.035264202 0.45194104)
(-0.92448419 0.041071464 0.43636991)
(0.043221008 -0.0010256202 0.036020309)
(0.036022017 -0.0043335876 0.12055148)
(-0.13486361 -0.0094283472 0.22070464)
(-0.47345884 -0.014932689 0.32133864)
(-0.84018791 -0.019798364 0.39744612)
(-1.068963 -0.024538997 0.43979934)
(-1.12102 -0.028978267 0.45548733)
(-1.0386176 -0.035264316 0.45194098)
(-0.92448415 -0.041071061 0.43636981)
(0.036224234 -0.003109587 0.035939944)
(0.015390402 -0.012977657 0.12026325)
(-0.16812179 -0.028051514 0.21987074)
(-0.51610931 -0.04437432 0.31916211)
(-0.89099867 -0.058749864 0.39327869)
(-1.1297164 -0.072529348 0.43309805)
(-1.1917002 -0.085444643 0.4461978)
(-1.1212119 -0.10338836 0.4403933)
(-1.0146416 -0.11989146 0.42432536)
(0.023953579 -0.005548443 0.035879463)
(-0.020312816 -0.022231232 0.12002858)
(-0.22469681 -0.047004779 0.21884202)
(-0.58742732 -0.073517822 0.31600356)
(-0.9750724 -0.096592137 0.38692859)
(-1.2300916 -0.11824843 0.42274064)
(-1.3087091 -0.13900356 0.43150189)
(-1.2581899 -0.16691957 0.42203225)
(-1.1646515 -0.19242806 0.40490037)
(0.0081321436 -0.0083779417 0.035963202)
(-0.065508158 -0.032007944 0.12018921)
(-0.29447255 -0.06578781 0.2184053)
(-0.67284272 -0.10134396 0.31348088)
(-1.073528 -0.13184186 0.38097933)
(-1.3470783 -0.15942451 0.41247585)
(-1.445898 -0.18882991 0.41547892)
(-1.419263 -0.22356305 0.40224748)
(-1.3418426 -0.25598188 0.38334643)
(-0.009037322 -0.011275573 0.036178682)
(-0.11339091 -0.041408478 0.12073558)
(-0.36601391 -0.082999234 0.2187035)
(-0.75748961 -0.12622244 0.31226496)
(-1.1687738 -0.16301659 0.37690228)
(-1.4598269 -0.1957351 0.40427966)
(-1.5822274 -0.23164684 0.40210435)
(-1.5802097 -0.27149062 0.38507514)
(-1.520491 -0.30900276 0.36370279)
(-0.025749625 -0.01388148 0.03646814)
(-0.15852697 -0.049431349 0.12146254)
(-0.43077091 -0.097177878 0.2194802)
(-0.83063184 -0.14649491 0.31221488)
(-1.248907 -0.18849532 0.37503786)
(-1.5559831 -0.22561708 0.3992936)
(-1.7026662 -0.26611974 0.39311083)
(-1.7253002 -0.30975702 0.37243238)
(-1.6841142 -0.35082601 0.34818559)
(-0.040768552 -0.015893737 0.036684913)
(-0.19740628 -0.055316228 0.12190779)
(-0.48343484 -0.10729365 0.21998363)
(-0.88595042 -0.16104281 0.31245422)
(-1.3071292 -0.20720318 0.37464959)
(-1.6285214 -0.24783432 0.39726233)
(-1.7996413 -0.29147111 0.38848793)
(-1.846983 -0.33805577 0.36457052)
(-1.8249117 -0.38146439 0.33745461)
(-0.053481507 -0.017344317 0.03681982)
(-0.22842883 -0.059084467 0.12187203)
(-0.5217886 -0.11325409 0.21957543)
(-0.920933 -0.16950271 0.31173094)
(-1.340765 -0.21855302 0.37420239)
(-1.6746263 -0.26174019 0.39680934)
(-1.8699216 -0.30736666 0.38709909)
(-1.9425406 -0.35629873 0.36082649)
(-1.939994 -0.40109501 0.33126824)
(-0.063305163 -0.017987614 0.036402676)
(-0.25042809 -0.060221869 0.12005535)
(-0.5449623 -0.1144128 0.21639357)
(-0.93601823 -0.17126312 0.30832842)
(-1.3509098 -0.22178303 0.37190367)
(-1.6936554 -0.26678431 0.39593744)
(-1.912664 -0.31391551 0.38714399)
(-2.011341 -0.36422136 0.36030439)
(-2.0286647 -0.4100839 0.32901323)
(-0.069716279 -0.017510523 0.035286248)
(-0.26222156 -0.058159367 0.11612667)
(-0.55159248 -0.11045226 0.20991911)
(-0.92955197 -0.16636798 0.30089832)
(-1.336511 -0.21753849 0.36624124)
(-1.6876257 -0.26352715 0.39334142)
(-1.9270405 -0.31038403 0.38698773)
(-2.0526423 -0.36177109 0.36156934)
(-2.0906701 -0.40850512 0.32996115)
(-0.072905736 -0.016812587 0.033993137)
(-0.26454477 -0.054925417 0.1111428)
(-0.54267723 -0.10350435 0.20084716)
(-0.90225814 -0.15623153 0.28922474)
(-1.2967873 -0.20613832 0.35549814)
(-1.6530331 -0.25213727 0.38656833)
(-1.913617 -0.29933401 0.38480448)
(-2.0647805 -0.34917069 0.36298216)
(-2.1250526 -0.39645227 0.33360812)
(-0.072421986 -0.01399289 0.030337975)
(-0.25652599 -0.046035115 0.099551742)
(-0.51749322 -0.088008282 0.18173048)
(-0.85360497 -0.13575067 0.26601743)
(-1.2300894 -0.18359967 0.33406507)
(-1.5859729 -0.22945033 0.37146026)
(-1.8651973 -0.27657653 0.37713527)
(-2.0443918 -0.32674998 0.36090311)
(-2.1294213 -0.37373173 0.33656918)
(-0.083452433 -0.00013433746 -0.00025575099)
(-0.27792141 -0.00082645126 -0.001381075)
(-0.53029561 -0.0023447205 -0.0038255844)
(-0.83216997 -0.0057375265 -0.0078695904)
(-1.156177 -0.01229212 -0.013180194)
(-1.4593924 -0.022481873 -0.018643623)
(-1.6983168 -0.035472763 -0.023121106)
(-1.8519212 -0.049765333 -0.026112245)
(-1.9227358 -0.063520567 -0.027502157)
(-0.090807214 -0.001229459 -0.0012036769)
(-0.30157327 -0.0041498157 -0.0043047732)
(-0.57296756 -0.0080895756 -0.0090502011)
(-0.89238159 -0.014001903 -0.015283172)
(-1.2257954 -0.023049311 -0.021937875)
(-1.5245877 -0.03544479 -0.027370163)
(-1.7451376 -0.050099336 -0.030609228)
(-1.8736049 -0.065409811 -0.03185787)
(-1.9249466 -0.079510842 -0.031992106)
(-0.096738402 -0.0025101583 -0.0020570555)
(-0.32079454 -0.0079658715 -0.0069602733)
(-0.60766555 -0.014531642 -0.013796991)
(-0.94068198 -0.022935566 -0.021876247)
(-1.2796894 -0.034124831 -0.029355408)
(-1.5713016 -0.04810893 -0.034235131)
(-1.773004 -0.06373742 -0.035950811)
(-1.8791545 -0.079468336 -0.035393706)
(-1.9158318 -0.093571266 -0.034086257)
(-0.10189427 -0.0040036657 -0.0028236339)
(-0.33737702 -0.012307731 -0.0093337144)
(-0.63730102 -0.021653769 -0.018028137)
(-0.98123791 -0.032447353 -0.027638068)
(-1.3236747 -0.045405451 -0.035543514)
(-1.6074747 -0.060461801 -0.039538483)
(-1.7919044 -0.076600298 -0.039605379)
(-1.8790479 -0.092362983 -0.037322896)
(-1.9038012 -0.10610091 -0.034717819)
(-0.10589442 -0.0055037084 -0.0033747016)
(-0.35045911 -0.01661643 -0.011066122)
(-0.6609445 -0.028602244 -0.021184547)
(-1.0136822 -0.041500513 -0.031910364)
(-1.3585296 -0.055815667 -0.039894113)
(-1.6352646 -0.071505278 -0.042807928)
(-1.8050427 -0.087750198 -0.041285646)
(-1.8765257 -0.10316249 -0.037535942)
(-1.891469 -0.11607729 -0.033911481)
(-0.10895843 -0.0068773429 -0.0036178582)
(-0.36061078 -0.020499903 -0.011886989)
(-0.67945355 -0.034722266 -0.02286423)
(-1.0391261 -0.049207109 -0.034242214)
(-1.3856425 -0.064290104 -0.041992164)
(-1.6563305 -0.080042608 -0.043745837)
(-1.8140776 -0.095872568 -0.040794177)
(-1.8730153 -0.11050814 -0.035887541)
(-1.8799542 -0.12223395 -0.03157269)
(-0.11137321 -0.0079200863 -0.0035660579)
(-0.36857196 -0.023366693 -0.011819104)
(-0.69390654 -0.039080816 -0.023057957)
(-1.0588472 -0.054399784 -0.034597908)
(-1.4063649 -0.069536361 -0.041834872)
(-1.671936 -0.084713228 -0.042401226)
(-1.8199991 -0.099565772 -0.038229726)
(-1.8691124 -0.11300597 -0.032468956)
(-1.8696245 -0.12325609 -0.027772656)
(-0.1129769 -0.0083580725 -0.003204833)
(-0.37402826 -0.024475052 -0.010836968)
(-0.70406075 -0.040557104 -0.021753878)
(-1.0729202 -0.05572102 -0.033024649)
(-1.4211825 -0.070096707 -0.039571733)
(-1.6828206 -0.084035898 -0.039021911)
(-1.8234599 -0.097406733 -0.033877366)
(-1.8651312 -0.10923435 -0.027561209)
(-1.8605952 -0.11779661 -0.022758588)
(-0.11387737 -0.0079779071 -0.0026049811)
(-0.37730273 -0.023237458 -0.0091463158)
(-0.71047419 -0.038254715 -0.019278708)
(-1.0821265 -0.052075665 -0.029955193)
(-1.4310142 -0.064778465 -0.035731156)
(-1.6898357 -0.076804721 -0.034227901)
(-1.8250446 -0.088098107 -0.028299837)
(-1.8612426 -0.097929976 -0.021693142)
(-1.8528643 -0.10468775 -0.017007596)
(-0.11429068 -0.0066645593 -0.0018935111)
(-0.37903339 -0.019343569 -0.0071169662)
(-0.71416635 -0.03170762 -0.016224914)
(-1.0876949 -0.042898843 -0.026156068)
(-1.4370479 -0.052965183 -0.031196998)
(-1.6939455 -0.062311674 -0.028936967)
(-1.8253605 -0.070951664 -0.022445794)
(-1.8576623 -0.078390657 -0.015721154)
(-1.8464684 -0.083272347 -0.011274682)
(-0.11472768 -0.0044718642 -0.0012626426)
(-0.38047158 -0.012935784 -0.0053054972)
(-0.71680769 -0.021131454 -0.013461156)
(-1.0913037 -0.028460065 -0.022703106)
(-1.4406628 -0.0349484 -0.027145462)
(-1.6960954 -0.040894176 -0.024351537)
(-1.8249586 -0.046345682 -0.01750183)
(-1.8546655 -0.051009436 -0.010755054)
(-1.8415933 -0.053967346 -0.006557725)
(-0.11465425 -0.0015828457 -0.00090631317)
(-0.38048433 -0.0045675858 -0.0042767891)
(-0.71719578 -0.0074401569 -0.011863541)
(-1.0921998 -0.0099985812 -0.020680644)
(-1.4417676 -0.012257385 -0.024773584)
(-1.6967099 -0.014317073 -0.021692123)
(-1.8244562 -0.016193625 -0.01465897)
(-1.8529098 -0.017788349 -0.0079161139)
(-1.8388746 -0.018778805 -0.0038711937)
(-0.11465425 0.0015828456 -0.00090631514)
(-0.38048432 0.0045675903 -0.0042767829)
(-0.71719576 0.0074401741 -0.011863542)
(-1.0921998 0.0099985968 -0.020680642)
(-1.4417676 0.012257386 -0.02477358)
(-1.6967099 0.014317048 -0.021692113)
(-1.8244562 0.016193583 -0.014658963)
(-1.8529099 0.017788354 -0.0079161163)
(-1.8388747 0.018778922 -0.0038712087)
(-0.11472768 0.0044718669 -0.0012626451)
(-0.38047156 0.012935799 -0.0053054904)
(-0.71680767 0.021131482 -0.013461165)
(-1.0913037 0.028460079 -0.022703105)
(-1.4406628 0.034948382 -0.027145453)
(-1.6960954 0.04089413 -0.024351518)
(-1.8249586 0.046345633 -0.017501816)
(-1.8546656 0.051009438 -0.010755057)
(-1.8415935 0.053967447 -0.006557753)
(-0.11429068 0.0066645622 -0.0018935056)
(-0.37903338 0.019343588 -0.0071169599)
(-0.71416636 0.031707649 -0.016224914)
(-1.0876949 0.042898847 -0.026156053)
(-1.4370479 0.052965141 -0.031196979)
(-1.6939455 0.062311597 -0.028936945)
(-1.8253606 0.070951589 -0.022445778)
(-1.8576624 0.078390645 -0.015721152)
(-1.8464685 0.083272443 -0.011274698)
(-0.11387737 0.0079779059 -0.0026049689)
(-0.37730273 0.023237463 -0.00914631)
(-0.7104742 0.03825472 -0.019278687)
(-1.0821265 0.05207564 -0.029955158)
(-1.4310141 0.064778399 -0.035731114)
(-1.6898357 0.076804617 -0.034227866)
(-1.8250447 0.088098002 -0.028299817)
(-1.8612427 0.09792995 -0.021693147)
(-1.8528644 0.10468787 -0.017007603)
(-0.1129769 0.008358063 -0.0032048155)
(-0.37402826 0.024475028 -0.010836949)
(-0.70406076 0.040557063 -0.021753837)
(-1.0729202 0.05572095 -0.033024591)
(-1.4211825 0.070096611 -0.039571667)
(-1.6828205 0.084035769 -0.039021861)
(-1.8234599 0.097406608 -0.033877345)
(-1.8651313 0.10923432 -0.027561236)
(-1.8605954 0.11779677 -0.022758617)
(-0.11137319 0.0079200763 -0.0035660427)
(-0.36857192 0.023366668 -0.011819073)
(-0.69390649 0.039080764 -0.023057909)
(-1.0588471 0.054399692 -0.03459785)
(-1.4063647 0.069536233 -0.041834805)
(-1.6719359 0.084713067 -0.042401177)
(-1.819999 0.09956562 -0.038229711)
(-1.8691124 0.11300591 -0.032469015)
(-1.8696248 0.12325626 -0.027772744)
(-0.10895841 0.0068773377 -0.0036178503)
(-0.36061072 0.020499891 -0.011886956)
(-0.67945346 0.034722228 -0.022864174)
(-1.0391259 0.049207024 -0.034242145)
(-1.3856424 0.064289953 -0.041992083)
(-1.6563304 0.080042414 -0.043745776)
(-1.8140775 0.095872378 -0.04079416)
(-1.8730153 0.11050804 -0.035887639)
(-1.8799544 0.12223407 -0.031572834)
(-0.10589439 0.0055037048 -0.0033746993)
(-0.35045903 0.016616425 -0.011066088)
(-0.66094437 0.028602214 -0.021184491)
(-1.013682 0.041500437 -0.031910275)
(-1.3585294 0.055815505 -0.03989401)
(-1.6352645 0.071505049 -0.042807852)
(-1.8050426 0.087749972 -0.041285634)
(-1.8765257 0.10316234 -0.037536055)
(-1.8914692 0.11607728 -0.033911623)
(-0.10189424 0.0040036629 -0.0028236326)
(-0.33737694 0.012307727 -0.0093336861)
(-0.63730088 0.021653746 -0.018028081)
(-0.98123771 0.032447288 -0.027637972)
(-1.3236745 0.045405306 -0.035543397)
(-1.6074745 0.060461557 -0.03953839)
(-1.7919044 0.076600031 -0.03960537)
(-1.8790479 0.092362791 -0.037322954)
(-1.9038013 0.10610086 -0.034717942)
(-0.096738375 0.0025101643 -0.0020570553)
(-0.32079445 0.0079658817 -0.0069602619)
(-0.60766538 0.014531641 -0.013796957)
(-0.94068173 0.022935524 -0.021876178)
(-1.2796891 0.034124725 -0.029355299)
(-1.5713014 0.048108733 -0.03423503)
(-1.7730039 0.063737119 -0.035950746)
(-1.8791545 0.079468055 -0.035393711)
(-1.9158318 0.093571323 -0.034086451)
(-0.090807191 0.0012294716 -0.0012036834)
(-0.30157319 0.0041498406 -0.0043047858)
(-0.57296741 0.0080895928 -0.0090502067)
(-0.89238137 0.014001869 -0.01528316)
(-1.2257952 0.02304922 -0.021937817)
(-1.5245875 0.03544468 -0.027370042)
(-1.7451374 0.050099177 -0.030609146)
(-1.8736049 0.065409612 -0.031858106)
(-1.9249467 0.079510882 -0.031992453)
(-0.083452422 0.0001343379 -0.00025575836)
(-0.27792136 0.00082644186 -0.0013810949)
(-0.5302955 0.0023446907 -0.0038255956)
(-0.8321698 0.0057374433 -0.007869586)
(-1.1561768 0.012291979 -0.013180162)
(-1.4593922 0.022481679 -0.018643557)
(-1.6983168 0.035472589 -0.023121112)
(-1.8519212 0.049765347 -0.026112656)
(-1.9227358 0.063520511 -0.027502498)
(-0.074688322 0.00099344653 0.000919653)
(-0.2494877 0.0031104614 0.0029008289)
(-0.47883231 0.005484123 0.00515451)
(-0.75804922 0.0077019771 0.0073307685)
(-1.0646149 0.0092587154 0.0088834209)
(-1.3585327 0.0098013841 0.0093580569)
(-1.5947528 0.0093415107 0.0087003109)
(-1.7479209 0.0081942398 0.0073174033)
(-1.8166262 0.0066591729 0.0057093219)
(-0.080181186 0.0010269469 0.00084517887)
(-0.26743345 0.0031722938 0.002658885)
(-0.51195893 0.005493103 0.0047119874)
(-0.80610038 0.0075276364 0.0066458121)
(-1.1216543 0.0087615714 0.0078877919)
(-1.412629 0.0088850297 0.0079803779)
(-1.6324411 0.0079857388 0.0069128321)
(-1.761585 0.0064717085 0.0051734198)
(-1.810893 0.0048111551 0.0032818678)
(-0.084527375 0.00097180728 0.0006961726)
(-0.28172789 0.0029924133 0.002205035)
(-0.53835181 0.005145706 0.0039435725)
(-0.84379376 0.0069631647 0.0056024435)
(-1.1644879 0.0079472223 0.0066241224)
(-1.4491885 0.0078293739 0.0065211041)
(-1.6511523 0.0067378453 0.0052531971)
(-1.758187 0.0051166216 0.0033246014)
(-1.7924447 0.0034698904 0.0014217529)
(-0.088208446 0.00088377533 0.0005502875)
(-0.29375606 0.0027111942 0.001753595)
(-0.56035531 0.0046343112 0.0031685156)
(-0.87464707 0.0062043076 0.0045366612)
(-1.1982804 0.0069597137 0.0053260185)
(-1.4756273 0.0066704335 0.0050420401)
(-1.6605631 0.0054820701 0.0036352001)
(-1.7481163 0.003840657 0.001638706)
(-1.7697033 0.0022382183 -0.00016149504)
(-0.090920739 0.0007467392 0.00040203891)
(-0.30282899 0.0022982173 0.0013000196)
(-0.57722106 0.0039349856 0.0023973374)
(-0.89837743 0.0052496805 0.0034896128)
(-1.2237885 0.005819583 0.0040679299)
(-1.4940872 0.0054318276 0.0036302906)
(-1.6639522 0.0042265264 0.0021335008)
(-1.7348804 0.0026389036 0.00014607493)
(-1.7456299 0.0011483267 -0.0014858481)
(-0.092925088 0.00058708695 0.0002655735)
(-0.30963008 0.0018222845 0.0008815443)
(-0.58997174 0.0031440075 0.0016868635)
(-0.91625606 0.0042032779 0.0025278523)
(-1.2424927 0.0046217167 0.0029189717)
(-1.5062808 0.0041945294 0.0023554691)
(-1.6632284 0.0030408558 0.00080591977)
(-1.7202837 0.0015763272 -0.0011180216)
(-1.7218821 0.00024179569 -0.0025580127)
(-0.094441965 0.00042296244 0.00015700587)
(-0.31474979 0.0013332978 0.0005444777)
(-0.59949637 0.0023369626 0.0011043703)
(-0.92936863 0.0031520103 0.001725149)
(-1.2555923 0.0034483851 0.0019456383)
(-1.5134515 0.0030283447 0.0012704384)
(-1.6595752 0.0019820609 -0.00030930976)
(-1.7053771 0.00068762037 -0.0021482315)
(-1.6994562 -0.00046059174 -0.0033895991)
(-0.095353315 0.00026896687 7.7313887e-05)
(-0.31797107 0.00087481122 0.00029372294)
(-0.60566748 0.0015819949 0.00066223366)
(-0.93788907 0.0021767067 0.0011024005)
(-1.263681 0.0023798682 0.0011761185)
(-1.516537 0.0020024487 0.00040485627)
(-1.653981 0.0011040088 -0.0011917189)
(-1.6909885 1.1770183e-05 -0.0029416003)
(-1.6791343 -0.00093487531 -0.0040019384)
(-0.095764207 0.00014323505 2.670993e-05)
(-0.319617 0.00049596769 0.00012973889)
(-0.60906688 0.0009498979 0.00036210813)
(-0.94268178 0.0013548009 0.00066350202)
(-1.2678667 0.0014862089 0.00061681564)
(-1.5167419 0.001174314 -0.00023406514)
(-1.6475378 0.00045143216 -0.0018377396)
(-1.6779422 -0.00041709579 -0.003509174)
(-1.6616284 -0.0011458394 -0.004419513)
(-0.095870291 5.730016e-05 3.0932102e-07)
(-0.32027677 0.00022843446 3.904855e-05)
(-0.61068042 0.00048692255 0.00018487197)
(-0.94503871 0.00073705592 0.000388239)
(-1.2695768 0.00081388652 0.00025004198)
(-1.5154291 0.00058048622 -0.00066313527)
(-1.6413852 5.0676728e-05 -0.0022710748)
(-1.6670865 -0.00057930475 -0.0038808866)
(-1.6476179 -0.0011025879 -0.0046817863)
(-0.096097017 1.2301144e-05 -9.5338578e-06)
(-0.32102161 7.5239212e-05 6.8196054e-07)
(-0.6120113 0.00019766801 9.995058e-05)
(-0.94660853 0.00032800161 0.0002410666)
(-1.2703648 0.00036556775 3.9430628e-05)
(-1.5139319 0.00022006187 -0.00091779343)
(-1.6365828 -0.00010378422 -0.0025297017)
(-1.6592272 -0.00048304487 -0.0041029034)
(-1.6377465 -0.0007981015 -0.0048322918)
(-0.095969028 -2.9548235e-07 -1.1475492e-05)
(-0.32081589 1.2977695e-05 -9.9952233e-06)
(-0.61192376 4.7478439e-05 7.079434e-05)
(-0.94666223 8.6831803e-05 0.0001834018)
(-1.2701819 9.7333307e-05 -4.9717868e-05)
(-1.5127815 4.7511613e-05 -0.0010298757)
(-1.6339071 -6.1771097e-05 -0.0026448423)
(-1.6550942 -0.00018873314 -0.0042032884)
(-1.6326347 -0.00029254436 -0.0048996603)
(-0.095969028 2.8166518e-07 -1.1473883e-05)
(-0.32081589 -1.3011062e-05 -9.9900922e-06)
(-0.61192376 -4.7528048e-05 7.0798457e-05)
(-0.94666223 -8.6906413e-05 0.00018340544)
(-1.2701819 -9.742636e-05 -4.9716549e-05)
(-1.5127815 -4.7608266e-05 -0.0010298758)
(-1.6339071 6.1712076e-05 -0.0026448472)
(-1.6550943 0.00018878321 -0.0042033004)
(-1.6326347 0.00029277253 -0.0048996698)
(-0.096097019 -1.2314886e-05 -9.53041e-06)
(-0.32102161 -7.5271473e-05 6.9040949e-07)
(-0.61201132 -0.00019771708 9.9956674e-05)
(-0.94660854 -0.00032807664 0.00024107267)
(-1.2703648 -0.00036566632 3.9432862e-05)
(-1.5139319 -0.00022016608 -0.00091779622)
(-1.6365828 0.00010371816 -0.0025297179)
(-1.6592272 0.00048308941 -0.0041029382)
(-1.6377465 0.00079832176 -0.0048323233)
(-0.095870296 -5.7313632e-05 3.1453728e-07)
(-0.32027678 -0.00022846513 3.9058552e-05)
(-0.61068045 -0.00048697192 0.00018488203)
(-0.94503874 -0.00073713531 0.0003882524)
(-1.2695768 -0.00081399593 0.00025005194)
(-1.5154291 -0.00058060689 -0.00066313655)
(-1.6413851 -5.0762218e-05 -0.0022711014)
(-1.6670866 0.00057933321 -0.0038809454)
(-1.6476179 0.0011027926 -0.0046818519)
(-0.095764215 -0.00014324977 2.6718805e-05)
(-0.31961702 -0.00049600151 0.00012975732)
(-0.60906693 -0.00094995392 0.00036213538)
(-0.94268184 -0.0013548919 0.00066353676)
(-1.2678667 -0.0014863344 0.00061684402)
(-1.5167419 -0.0011744561 -0.00023405797)
(-1.6475378 -0.00045154296 -0.0018377757)
(-1.6779422 0.00041709757 -0.0035092615)
(-1.6616285 0.0011460122 -0.0044196225)
(-0.095353324 -0.00026898421 7.7328193e-05)
(-0.3179711 -0.00087485323 0.00029375614)
(-0.60566753 -0.001582066 0.0006622832)
(-0.93788911 -0.0021768155 0.0011024658)
(-1.263681 -0.0023800138 0.001176173)
(-1.516537 -0.0020026149 0.00040487581)
(-1.653981 -0.0011041466 -0.0011917627)
(-1.6909885 -1.1805896e-05 -0.0029417144)
(-1.6791344 0.0009349952 -0.0040020819)
(-0.094441971 -0.00042298183 0.00015702152)
(-0.3147498 -0.0013333414 0.00054452612)
(-0.5994964 -0.0023370433 0.0011044421)
(-0.92936865 -0.0031521317 0.0017252428)
(-1.2555923 -0.0034485477 0.0019457162)
(-1.5134515 -0.0030285357 0.0012704692)
(-1.6595752 -0.0019822349 -0.00030935589)
(-1.7053772 -0.00068770738 -0.0021483641)
(-1.6994563 0.00046066289 -0.0033897544)
(-0.092925094 -0.00058710761 0.00026558371)
(-0.3096301 -0.0018223223 0.00088159915)
(-0.58997177 -0.0031440881 0.0016869416)
(-0.91625608 -0.0042034027 0.0025279567)
(-1.2424927 -0.0046218918 0.0029190687)
(-1.5062808 -0.0041947453 0.0023555197)
(-1.6632283 -0.0030410751 0.00080588539)
(-1.7202837 -0.0015764745 -0.0011181776)
(-1.7218822 -0.00024174706 -0.0025581674)
(-0.090920743 -0.00074675885 0.00040205247)
(-0.302829 -0.0022982451 0.0013000887)
(-0.57722108 -0.003935055 0.0023974257)
(-0.89837745 -0.005249796 0.0034897343)
(-1.2237886 -0.005819761 0.0040680508)
(-1.4940872 -0.0054320684 0.0036303686)
(-1.6639523 -0.004226792 0.0021334833)
(-1.7348804 -0.0026391022 0.00014587339)
(-1.74563 -0.0011482898 -0.0014860297)
(-0.08820845 -0.00088379095 0.0005502991)
(-0.29375607 -0.0027112096 0.0017536518)
(-0.56035532 -0.0046343542 0.0031685919)
(-0.87464709 -0.0062043936 0.0045367742)
(-1.1982805 -0.0069598694 0.0053261445)
(-1.4756274 -0.0066706737 0.0050421359)
(-1.6605632 -0.0054823406 0.0036351652)
(-1.7481164 -0.0038408558 0.001638417)
(-1.7697035 -0.0022382038 -0.00016175805)
(-0.084527377 -0.00097180976 0.00069617684)
(-0.2817279 -0.0029923969 0.0022050667)
(-0.53835182 -0.0051456997 0.0039436186)
(-0.84379377 -0.0069631934 0.0056025279)
(-1.1644879 -0.0079473211 0.006624231)
(-1.4491886 -0.0078295736 0.0065211642)
(-1.6511525 -0.0067381136 0.0052531015)
(-1.7581872 -0.0051168131 0.0033242529)
(-1.7924449 -0.0034698822 0.0014214212)
(-0.080181189 -0.0010269341 0.00084517207)
(-0.26743345 -0.0031722475 0.002658879)
(-0.51195893 -0.0054930545 0.0047119806)
(-0.80610039 -0.0075276257 0.0066458196)
(-1.1216544 -0.0087616274 0.0078878091)
(-1.4126291 -0.0088851432 0.0079803453)
(-1.6324412 -0.0079859055 0.0069126054)
(-1.7615852 -0.0064718989 0.0051729619)
(-1.8108933 -0.0048113037 0.0032816236)
(-0.074688325 -0.00099343076 0.00091963564)
(-0.24948771 -0.003110422 0.0029007874)
(-0.47883231 -0.0054840786 0.0051544556)
(-0.75804922 -0.0077019639 0.0073307097)
(-1.0646149 -0.0092587732 0.0088833561)
(-1.3585327 -0.0098015331 0.0093579422)
(-1.5947529 -0.0093416712 0.0087000988)
(-1.7479211 -0.0081942312 0.0073170378)
(-1.8166264 -0.0066591973 0.0057090661)
(-0.079127305 -0.00012827854 -0.00010639628)
(-0.26386709 -0.00046295634 -0.00035969492)
(-0.50490328 -0.0010044221 -0.00068396282)
(-0.79576698 -0.0018897195 -0.0010685548)
(-1.1116478 -0.0032913875 -0.0014722992)
(-1.4113266 -0.0053334231 -0.0018428929)
(-1.6506541 -0.0079660211 -0.0021929215)
(-1.8063337 -0.010932016 -0.0026177003)
(-1.8780856 -0.013884274 -0.0032016941)
(-0.085206561 -0.00016993736 -0.000125133)
(-0.2836716 -0.00059109509 -0.00040923969)
(-0.54123965 -0.0012397264 -0.00075836148)
(-0.84807781 -0.0022677776 -0.0011586344)
(-1.1734036 -0.0038682928 -0.0015658241)
(-1.4701175 -0.0061733425 -0.0019333085)
(-1.6930062 -0.0091158655 -0.0022990998)
(-1.8250249 -0.012383746 -0.0028034578)
(-1.878202 -0.015516637 -0.0036004692)
(-0.090142723 -0.00020800342 -0.00013312113)
(-0.29982467 -0.00070851611 -0.00043077871)
(-0.57081459 -0.0014506638 -0.00079111661)
(-0.88996915 -0.0025908118 -0.0011964653)
(-1.2209593 -0.0043284074 -0.0015965069)
(-1.5116759 -0.0067947375 -0.0019445638)
(-1.7171617 -0.0099014678 -0.002290254)
(-1.8278541 -0.01327976 -0.0027831962)
(-1.8670553 -0.016408964 -0.0035344351)
(-0.094507916 -0.00026272949 -0.00014707958)
(-0.31397367 -0.00086779208 -0.00046808153)
(-0.59642058 -0.0017153732 -0.00084812784)
(-0.92559049 -0.0029541419 -0.0012625433)
(-1.2602177 -0.0047807943 -0.0016508216)
(-1.5440857 -0.0073248858 -0.0019635736)
(-1.7332431 -0.010485344 -0.0022551405)
(-1.8253998 -0.013857405 -0.0026642191)
(-1.8529384 -0.016886937 -0.0032910753)
(-0.097981793 -0.00031547412 -0.00015316642)
(-0.32539424 -0.0010200218 -0.00048284975)
(-0.6172745 -0.0019619731 -0.00086818227)
(-0.95464396 -0.0032733948 -0.0012784261)
(-1.2919301 -0.0051384313 -0.0016419339)
(-1.5694468 -0.007680583 -0.0019037807)
(-1.7444012 -0.010790843 -0.0021184455)
(-1.8208877 -0.014042335 -0.0024133656)
(-1.8384425 -0.016854781 -0.0028912565)
(-0.10082062 -0.00035967425 -0.00014701632)
(-0.33474594 -0.0011438579 -0.00046136617)
(-0.6343417 -0.0021507216 -0.00082893391)
(-0.97829929 -0.0034895347 -0.0012143932)
(-1.317433 -0.0053255068 -0.0015338262)
(-1.5892753 -0.0077727708 -0.0017259979)
(-1.752237 -0.01072007 -0.0018461139)
(-1.8157564 -0.013735614 -0.0020164592)
(-1.8248322 -0.016242095 -0.0023517959)
(-0.10324008 -0.00038571048 -0.00013009622)
(-0.3425874 -0.001210589 -0.0004075207)
(-0.64843239 -0.0022348407 -0.00073523216)
(-0.99750016 -0.0035424849 -0.0010750662)
(-1.3377083 -0.0052751312 -0.0013321218)
(-1.6045222 -0.0075348151 -0.001439664)
(-1.7575676 -0.010213067 -0.0014557705)
(-1.8106219 -0.012893642 -0.0015057977)
(-1.8126951 -0.015036026 -0.0017168107)
(-0.10505901 -0.00038263152 -0.00010256393)
(-0.34852766 -0.0011898662 -0.00032276083)
(-0.65914918 -0.0021673002 -0.00059181128)
(-1.0120843 -0.0033750426 -0.000871309)
(-1.3529605 -0.0049281424 -0.0010552132)
(-1.6156661 -0.0069146014 -0.0010719479)
(-1.7608874 -0.0092347736 -0.00098535461)
(-1.805802 -0.011508815 -0.00092745828)
(-1.8023092 -0.013254267 -0.0010425192)
(-0.10632049 -0.00034601454 -6.9053522e-05)
(-0.35270922 -0.0010691331 -0.0002205831)
(-0.66677652 -0.0019286865 -0.00042006079)
(-1.0225186 -0.0029643207 -0.00063243526)
(-1.3638224 -0.0042649611 -0.00074237027)
(-1.6233764 -0.0059006336 -0.00066999561)
(-1.7626999 -0.0077866603 -0.00048381149)
(-1.8015429 -0.0095944022 -0.00031935298)
(-1.7938469 -0.010827024 -0.00036760479)
(-0.10715247 -0.00027664992 -3.5331899e-05)
(-0.35552613 -0.00085101266 -0.00011861504)
(-0.67198065 -0.0015245591 -0.00025030776)
(-1.0296651 -0.0023208788 -0.00039823104)
(-1.3711997 -0.0033033458 -0.00044122641)
(-1.628431 -0.0045214754 -0.00029201772)
(-1.7635148 -0.0059116902 -1.6407466e-05)
(-1.7980744 -0.0072186641 0.00023976015)
(-1.7874308 -0.0080958677 0.00022828117)
(-0.10793948 -0.00017986088 -8.2812961e-06)
(-0.35790827 -0.0005509483 -3.7069291e-05)
(-0.67599787 -0.00098154396 -0.0001153802)
(-1.0347794 -0.0014835025 -0.00021361769)
(-1.3761526 -0.0020945204 -0.00020580913)
(-1.6315909 -0.0028461812 1.8471827e-06)