/*--------------------------------*- C++ -*----------------------------------*\
  =========                 |
  \\      /  F ield         | OpenFOAM: The Open Source CFD Toolbox
   \\    /   O peration     | Website:  https://openfoam.org
    \\  /    A nd           | Version:  10
     \\/     M anipulation  |
\*---------------------------------------------------------------------------*/
FoamFile
{
    format      ascii;
    class       volScalarField;
    location    "2.5";
    object      ddt0(T);
}
// * * * * * * * * * * * * * * * * * * * * * * * * * * * * * * * * * * * * * //

dimensions      [0 0 -2 0 0 0 0];

internalField   nonuniform List<scalar> 
100
(
-1.07064
-3.20199
-5.30492
-7.36077
-9.35129
-11.2588
-13.0664
-14.7581
-16.3187
-17.7346
-18.993
-20.0828
-20.9944
-21.7196
-22.2521
-22.587
-22.7215
-22.6542
-22.3859
-21.9189
-21.2573
-20.4071
-19.3757
-18.1723
-16.8076
-15.2938
-13.6441
-11.8734
-9.99732
-8.03248
-5.99634
-3.90697
-1.78293
0.356939
2.49364
4.60821
6.68187
8.69623
10.6334
12.4762
14.2082
15.8142
17.2797
18.5919
19.7391
20.711
21.4992
22.0965
22.4976
22.6991
22.6991
22.4976
22.0965
21.4992
20.711
19.7391
18.5919
17.2797
15.8142
14.2082
12.4762
10.6334
8.69622
6.68186
4.60819
2.49362
0.356916
-1.78296
-3.907
-5.99637
-8.03251
-9.99735
-11.8735
-13.6442
-15.2938
-16.8076
-18.1723
-19.3757
-20.4071
-21.2573
-21.9189
-22.3859
-22.6542
-22.7215
-22.587
-22.2521
-21.7196
-20.9944
-20.0828
-18.993
-17.7345
-16.3187
-14.758
-13.0664
-11.2588
-9.35125
-7.36073
-5.30489
-3.20197
-1.07064
)
;

boundaryField
{
    xmin
    {
        type            calculated;
        value           uniform 0;
    }
    xmax
    {
        type            calculated;
        value           uniform 0;
    }
    frontAndBack
    {
        type            empty;
    }
}


// ************************************************************************* //
