/*--------------------------------*- C++ -*----------------------------------*\
  =========                 |
  \\      /  F ield         | OpenFOAM: The Open Source CFD Toolbox
   \\    /   O peration     | Website:  https://openfoam.org
    \\  /    A nd           | Version:  10
     \\/     M anipulation  |
\*---------------------------------------------------------------------------*/
FoamFile
{
    format      ascii;
    class       volScalarField;
    location    "34.5";
    object      T;
}
// * * * * * * * * * * * * * * * * * * * * * * * * * * * * * * * * * * * * * //

dimensions      [0 0 0 1 0 0 0];

internalField   nonuniform List<scalar> 
10000
(
374.987
361.295
356.618
354.571
353.462
352.763
352.278
351.917
351.635
351.408
351.219
351.058
350.918
350.795
350.686
350.587
350.496
350.414
350.337
350.265
350.198
350.135
350.075
350.019
349.965
349.913
349.863
349.816
349.77
349.725
349.683
349.641
349.601
349.562
349.524
349.487
349.451
349.416
349.382
349.349
349.317
349.285
349.254
349.224
349.195
349.166
349.138
349.111
349.084
349.058
349.032
349.007
348.983
348.959
348.936
348.913
348.891
348.87
348.849
348.828
348.808
348.789
348.77
348.752
348.734
348.717
348.7
348.684
348.668
348.653
348.638
348.624
348.611
348.597
348.585
348.573
348.561
348.55
348.539
348.529
348.519
348.51
348.502
348.493
348.486
348.479
348.472
348.466
348.46
348.455
348.45
348.446
348.442
348.439
348.436
348.434
348.432
348.431
348.43
348.43
388.619
374.87
367.225
362.773
359.973
358.076
356.708
355.67
354.851
354.184
353.627
353.15
352.737
352.371
352.045
351.75
351.481
351.234
351.005
350.791
350.59
350.401
350.223
350.053
349.891
349.736
349.587
349.444
349.307
349.174
349.046
348.921
348.801
348.684
348.57
348.46
348.352
348.248
348.146
348.046
347.949
347.854
347.762
347.671
347.583
347.497
347.413
347.331
347.251
347.172
347.096
347.021
346.948
346.877
346.807
346.739
346.673
346.608
346.546
346.484
346.425
346.367
346.31
346.255
346.202
346.15
346.1
346.051
346.004
345.959
345.915
345.872
345.831
345.792
345.754
345.717
345.682
345.649
345.617
345.586
345.557
345.53
345.504
345.48
345.457
345.435
345.415
345.397
345.379
345.364
345.35
345.337
345.326
345.316
345.308
345.302
345.296
345.293
345.29
345.29
393.238
382.342
374.64
369.322
365.582
362.861
360.808
359.206
357.916
356.852
355.954
355.182
354.508
353.91
353.375
352.889
352.446
352.037
351.658
351.304
350.972
350.659
350.362
350.08
349.811
349.554
349.307
349.07
348.841
348.62
348.407
348.2
347.999
347.805
347.616
347.432
347.253
347.079
346.909
346.743
346.581
346.423
346.269
346.119
345.972
345.829
345.689
345.552
345.418
345.287
345.16
345.035
344.914
344.795
344.679
344.566
344.456
344.348
344.244
344.142
344.042
343.945
343.851
343.76
343.671
343.585
343.501
343.42
343.342
343.266
343.192
343.122
343.053
342.988
342.924
342.864
342.805
342.75
342.696
342.646
342.597
342.552
342.508
342.468
342.429
342.393
342.36
342.329
342.301
342.275
342.251
342.23
342.212
342.196
342.182
342.171
342.162
342.156
342.152
342.151
395.228
386.622
379.67
374.295
370.172
366.979
364.459
362.428
360.757
359.354
358.156
357.117
356.203
355.388
354.655
353.988
353.377
352.813
352.288
351.798
351.337
350.902
350.489
350.097
349.722
349.364
349.019
348.688
348.369
348.061
347.763
347.474
347.195
346.923
346.659
346.402
346.151
345.908
345.67
345.439
345.212
344.992
344.777
344.566
344.361
344.16
343.964
343.773
343.586
343.403
343.225
343.05
342.88
342.714
342.552
342.394
342.24
342.089
341.943
341.8
341.661
341.526
341.394
341.266
341.142
341.021
340.904
340.791
340.681
340.575
340.472
340.373
340.277
340.185
340.097
340.012
339.93
339.852
339.778
339.707
339.639
339.575
339.515
339.457
339.404
339.354
339.307
339.264
339.224
339.188
339.155
339.126
339.1
339.077
339.058
339.043
339.03
339.022
339.016
339.015
396.28
389.249
383.122
378.014
373.835
370.424
367.621
365.292
363.33
361.653
360.202
358.928
357.799
356.786
355.87
355.033
354.263
353.55
352.886
352.264
351.678
351.124
350.599
350.098
349.62
349.162
348.722
348.298
347.89
347.495
347.114
346.744
346.385
346.036
345.698
345.368
345.047
344.735
344.43
344.133
343.842
343.559
343.283
343.013
342.749
342.492
342.24
341.994
341.754
341.519
341.29
341.066
340.848
340.634
340.426
340.223
340.025
339.832
339.643
339.46
339.281
339.107
338.938
338.774
338.614
338.459
338.309
338.163
338.022
337.886
337.754
337.626
337.504
337.385
337.272
337.162
337.058
336.957
336.862
336.77
336.684
336.601
336.524
336.45
336.381
336.317
336.257
336.201
336.15
336.104
336.062
336.024
335.99
335.962
335.937
335.917
335.901
335.89
335.884
335.881
396.921
390.974
385.556
380.806
376.729
373.261
370.311
367.79
365.618
363.729
362.07
360.598
359.28
358.09
357.007
356.013
355.095
354.242
353.445
352.696
351.99
351.322
350.686
350.08
349.501
348.945
348.411
347.897
347.4
346.921
346.456
346.006
345.569
345.145
344.733
344.331
343.94
343.559
343.187
342.825
342.471
342.126
341.788
341.459
341.137
340.823
340.516
340.216
339.923
339.636
339.357
339.083
338.817
338.556
338.302
338.054
337.812
337.576
337.346
337.122
336.904
336.692
336.485
336.285
336.09
335.9
335.717
335.539
335.366
335.2
335.039
334.883
334.733
334.589
334.45
334.316
334.188
334.066
333.949
333.838
333.732
333.631
333.536
333.447
333.363
333.284
333.211
333.143
333.08
333.023
332.972
332.926
332.885
332.85
332.82
332.795
332.776
332.763
332.754
332.752
397.349
392.17
387.322
382.924
379.016
375.581
372.574
369.94
367.624
365.576
363.752
362.115
360.636
359.29
358.057
356.92
355.864
354.88
353.958
353.09
352.269
351.49
350.748
350.04
349.362
348.711
348.085
347.482
346.899
346.336
345.79
345.261
344.747
344.248
343.762
343.289
342.829
342.38
341.942
341.514
341.097
340.69
340.293
339.904
339.525
339.154
338.792
338.438
338.092
337.754
337.424
337.102
336.787
336.48
336.18
335.887
335.601
335.323
335.051
334.787
334.53
334.279
334.035
333.798
333.568
333.345
333.128
332.918
332.714
332.517
332.327
332.144
331.966
331.796
331.632
331.474
331.323
331.179
331.041
330.909
330.784
330.665
330.553
330.447
330.348
330.255
330.169
330.089
330.015
329.948
329.887
329.832
329.784
329.743
329.707
329.678
329.656
329.64
329.63
329.627
397.653
393.036
388.639
384.555
380.83
377.473
374.465
371.774
369.365
367.201
365.249
363.478
361.862
360.381
359.014
357.747
356.566
355.461
354.421
353.44
352.509
351.625
350.781
349.975
349.201
348.458
347.742
347.052
346.385
345.739
345.113
344.506
343.917
343.343
342.785
342.242
341.713
341.196
340.693
340.202
339.722
339.253
338.796
338.349
337.912
337.485
337.068
336.661
336.262
335.873
335.493
335.122
334.759
334.405
334.06
333.722
333.393
333.072
332.76
332.455
332.158
331.87
331.589
331.316
331.05
330.793
330.543
330.301
330.066
329.84
329.62
329.409
329.205
329.008
328.819
328.637
328.463
328.297
328.138
327.986
327.842
327.705
327.576
327.454
327.339
327.232
327.132
327.04
326.955
326.877
326.807
326.745
326.689
326.641
326.6
326.567
326.541
326.523
326.511
326.507
397.877
393.683
389.642
385.826
382.279
379.018
376.039
373.328
370.863
368.617
366.566
364.687
362.958
361.359
359.876
358.492
357.197
355.98
354.831
353.743
352.709
351.724
350.783
349.882
349.016
348.183
347.38
346.605
345.855
345.129
344.425
343.742
343.077
342.431
341.802
341.189
340.592
340.009
339.441
338.886
338.344
337.815
337.298
336.793
336.299
335.817
335.345
334.884
334.434
333.994
333.564
333.144
332.734
332.333
331.942
331.561
331.188
330.825
330.472
330.127
329.791
329.464
329.146
328.837
328.537
328.246
327.963
327.689
327.423
327.167
326.919
326.679
326.448
326.225
326.011
325.806
325.609
325.42
325.24
325.068
324.905
324.75
324.604
324.466
324.336
324.215
324.102
323.997
323.901
323.814
323.734
323.663
323.6
323.546
323.5
323.462
323.433
323.412
323.399
323.395
398.047
394.18
390.422
386.83
383.443
380.281
377.348
374.64
372.143
369.841
367.716
365.75
363.925
362.227
360.641
359.154
357.755
356.434
355.184
353.997
352.866
351.786
350.751
349.759
348.805
347.885
346.998
346.14
345.31
344.505
343.724
342.966
342.228
341.51
340.811
340.13
339.465
338.817
338.185
337.567
336.964
336.374
335.798
335.236
334.686
334.148
333.622
333.109
332.607
332.116
331.637
331.168
330.711
330.264
329.828
329.402
328.987
328.582
328.187
327.803
327.428
327.064
326.709
326.364
326.029
325.704
325.388
325.082
324.786
324.5
324.223
323.955
323.697
323.449
323.21
322.981
322.761
322.55
322.349
322.157
321.975
321.802
321.639
321.485
321.34
321.205
321.079
320.962
320.855
320.757
320.668
320.589
320.519
320.458
320.407
320.364
320.332
320.308
320.294
320.289
398.18
394.567
391.036
387.63
384.384
381.315
378.435
375.742
373.231
370.891
368.71
366.674
364.771
362.987
361.311
359.731
358.239
356.824
355.481
354.2
352.978
351.807
350.684
349.605
348.566
347.563
346.594
345.656
344.747
343.866
343.01
342.178
341.368
340.58
339.812
339.063
338.333
337.62
336.924
336.245
335.581
334.932
334.298
333.678
333.072
332.479
331.9
331.334
330.781
330.24
329.712
329.195
328.691
328.198
327.717
327.248
326.79
326.343
325.908
325.483
325.07
324.668
324.276
323.896
323.526
323.167
322.819
322.482
322.155
321.839
321.533
321.238
320.953
320.679
320.416
320.162
319.92
319.687
319.465
319.254
319.053
318.862
318.682
318.512
318.352
318.202
318.063
317.935
317.816
317.708
317.61
317.522
317.445
317.378
317.321
317.275
317.239
317.213
317.197
317.192
398.284
394.873
391.524
388.273
385.147
382.165
379.336
376.665
374.15
371.785
369.561
367.47
365.501
363.644
361.889
360.227
358.65
357.15
355.72
354.353
353.044
351.789
350.582
349.419
348.298
347.215
346.167
345.152
344.167
343.211
342.282
341.378
340.498
339.641
338.805
337.99
337.195
336.418
335.66
334.919
334.195
333.487
332.795
332.119
331.458
330.811
330.179
329.561
328.957
328.366
327.789
327.225
326.674
326.136
325.61
325.097
324.597
324.109
323.633
323.169
322.717
322.278
321.85
321.434
321.03
320.638
320.257
319.888
319.531
319.185
318.851
318.528
318.217
317.917
317.629
317.352
317.087
316.833
316.59
316.359
316.139
315.93
315.733
315.547
315.372
315.209
315.057
314.916
314.786
314.668
314.561
314.465
314.38
314.307
314.245
314.194
314.155
314.126
314.109
314.103
398.367
395.117
391.916
388.793
385.769
382.862
380.082
377.435
374.922
372.541
370.285
368.148
366.124
364.204
362.38
360.644
358.991
357.412
355.902
354.455
353.065
351.729
350.442
349.201
348.001
346.841
345.717
344.626
343.568
342.539
341.539
340.565
339.616
338.691
337.789
336.909
336.05
335.211
334.391
333.59
332.806
332.041
331.292
330.56
329.844
329.144
328.459
327.789
327.135
326.495
325.869
325.258
324.661
324.077
323.508
322.951
322.409
321.879
321.363
320.861
320.371
319.894
319.43
318.979
318.54
318.115
317.702
317.302
316.914
316.539
316.176
315.826
315.488
315.163
314.851
314.55
314.262
313.986
313.723
313.472
313.233
313.007
312.793
312.591
312.402
312.224
312.059
311.906
311.766
311.637
311.521
311.417
311.326
311.246
311.179
311.123
311.081
311.05
311.031
311.025
398.434
395.313
392.233
389.213
386.275
383.434
380.698
378.075
375.567
373.174
370.893
368.719
366.648
364.672
362.787
360.986
359.263
357.612
356.028
354.506
353.041
351.629
350.266
348.949
347.675
346.44
345.243
344.08
342.95
341.851
340.781
339.739
338.723
337.732
336.765
335.821
334.899
333.998
333.117
332.257
331.415
330.592
329.787
329
328.23
327.477
326.74
326.019
325.315
324.626
323.953
323.294
322.651
322.023
321.41
320.811
320.226
319.656
319.1
318.558
318.03
317.517
317.017
316.531
316.058
315.6
315.155
314.723
314.305
313.901
313.51
313.133
312.769
312.418
312.081
311.757
311.447
311.15
310.866
310.595
310.338
310.094
309.863
309.646
309.441
309.25
309.072
308.907
308.756
308.617
308.492
308.38
308.281
308.195
308.123
308.063
308.017
307.984
307.964
307.957
398.487
395.472
392.488
389.555
386.688
383.901
381.204
378.603
376.101
373.7
371.398
369.193
367.08
365.057
363.117
361.257
359.47
357.753
356.101
354.509
352.973
351.489
350.054
348.665
347.319
346.013
344.745
343.512
342.313
341.146
340.008
338.899
337.818
336.762
335.731
334.725
333.741
332.78
331.84
330.92
330.021
329.142
328.281
327.44
326.616
325.81
325.022
324.252
323.498
322.76
322.04
321.335
320.646
319.974
319.317
318.675
318.049
317.439
316.843
316.263
315.697
315.147
314.611
314.09
313.584
313.093
312.616
312.153
311.706
311.272
310.854
310.449
310.059
309.683
309.322
308.975
308.642
308.323
308.019
307.729
307.453
307.192
306.944
306.711
306.492
306.287
306.096
305.919
305.757
305.609
305.474
305.354
305.248
305.156
305.078
305.015
304.965
304.929
304.908
304.9
398.531
395.599
392.694
389.831
387.023
384.282
381.617
379.035
376.539
374.131
371.811
369.578
367.43
365.364
363.375
361.461
359.616
357.838
356.122
354.464
352.861
351.31
349.807
348.349
346.934
345.56
344.224
342.923
341.657
340.423
339.22
338.046
336.901
335.782
334.689
333.621
332.577
331.556
330.557
329.58
328.625
327.69
326.775
325.879
325.003
324.146
323.307
322.486
321.683
320.898
320.13
319.38
318.646
317.929
317.229
316.546
315.879
315.228
314.593
313.974
313.372
312.785
312.214
311.658
311.119
310.595
310.086
309.593
309.116
308.653
308.207
307.775
307.359
306.959
306.573
306.203
305.848
305.508
305.183
304.874
304.58
304.301
304.037
303.788
303.554
303.335
303.132
302.943
302.77
302.612
302.469
302.34
302.227
302.129
302.046
301.978
301.925
301.887
301.864
301.856
398.565
395.701
392.86
390.053
387.293
384.59
381.952
379.384
376.893
374.478
372.143
369.885
367.705
365.599
363.566
361.602
359.704
357.869
356.093
354.374
352.708
351.092
349.524
348.002
346.521
345.081
343.679
342.313
340.982
339.684
338.417
337.18
335.972
334.792
333.638
332.51
331.406
330.327
329.271
328.237
327.226
326.236
325.267
324.319
323.39
322.482
321.593
320.723
319.872
319.039
318.225
317.429
316.651
315.891
315.148
314.423
313.715
313.024
312.351
311.694
311.054
310.431
309.825
309.235
308.662
308.106
307.566
307.043
306.536
306.045
305.57
305.112
304.67
304.245
303.835
303.442
303.065
302.704
302.36
302.031
301.718
301.422
301.142
300.877
300.629
300.397
300.18
299.98
299.796
299.628
299.476
299.34
299.219
299.115
299.027
298.955
298.898
298.858
298.834
298.825
398.593
395.783
392.992
390.23
387.508
384.835
382.218
379.663
377.173
374.752
372.402
370.122
367.911
365.77
363.695
361.685
359.737
357.849
356.018
354.241
352.515
350.839
349.209
347.623
346.08
344.577
343.112
341.683
340.289
338.928
337.599
336.301
335.032
333.791
332.578
331.391
330.229
329.093
327.98
326.891
325.825
324.781
323.759
322.758
321.779
320.82
319.882
318.963
318.064
317.185
316.325
315.484
314.662
313.858
313.073
312.307
311.559
310.828
310.116
309.422
308.745
308.087
307.445
306.822
306.216
305.627
305.056
304.503
303.966
303.447
302.945
302.461
301.993
301.543
301.11
300.694
300.295
299.913
299.548
299.201
298.87
298.556
298.259
297.98
297.717
297.471
297.242
297.031
296.836
296.658
296.497
296.352
296.225
296.115
296.022
295.945
295.886
295.843
295.817
295.808
398.614
395.847
393.096
390.37
387.678
385.028
382.426
379.879
377.39
374.961
372.596
370.294
368.056
365.881
363.768
361.715
359.72
357.782
355.898
354.066
352.284
350.55
348.861
347.216
345.612
344.048
342.522
341.032
339.578
338.156
336.767
335.409
334.081
332.781
331.509
330.265
329.047
327.854
326.686
325.542
324.422
323.325
322.251
321.199
320.169
319.16
318.173
317.206
316.261
315.335
314.43
313.544
312.679
311.832
311.006
310.198
309.41
308.641
307.89
307.159
306.446
305.752
305.076
304.419
303.78
303.16
302.558
301.974
301.409
300.861
300.332
299.821
299.328
298.854
298.397
297.958
297.538
297.135
296.75
296.384
296.035
295.704
295.391
295.096
294.819
294.56
294.319
294.095
293.89
293.702
293.532
293.38
293.246
293.13
293.031
292.95
292.888
292.843
292.815
292.806
398.631
395.897
393.176
390.477
387.808
385.175
382.585
380.042
377.55
375.113
372.733
370.41
368.145
365.938
363.788
361.695
359.656
357.671
355.738
353.854
352.018
350.228
348.483
346.781
345.119
343.496
341.911
340.363
338.849
337.369
335.921
334.505
333.118
331.761
330.433
329.132
327.858
326.61
325.388
324.191
323.018
321.868
320.743
319.64
318.56
317.503
316.467
315.454
314.461
313.49
312.54
311.61
310.702
309.813
308.945
308.097
307.27
306.462
305.673
304.905
304.156
303.427
302.717
302.026
301.355
300.703
300.071
299.457
298.863
298.288
297.732
297.195
296.677
296.178
295.697
295.236
294.794
294.371
293.966
293.581
293.214
292.866
292.537
292.227
291.936
291.663
291.41
291.175
290.959
290.761
290.583
290.423
290.282
290.159
290.056
289.971
289.905
289.858
289.829
289.819
398.644
395.934
393.236
390.557
387.904
385.283
382.7
380.158
377.662
375.215
372.819
370.475
368.184
365.946
363.762
361.63
359.549
357.519
355.538
353.605
351.718
349.875
348.076
346.318
344.601
342.922
341.28
339.674
338.103
336.566
335.062
333.588
332.146
330.733
329.349
327.993
326.664
325.363
324.087
322.837
321.612
320.412
319.235
318.083
316.954
315.848
314.765
313.705
312.667
311.65
310.656
309.683
308.732
307.802
306.893
306.005
305.138
304.292
303.466
302.661
301.877
301.113
300.369
299.645
298.942
298.259
297.596
296.953
296.33
295.727
295.144
294.582
294.038
293.515
293.012
292.529
292.065
291.621
291.197
290.793
290.409
290.044
289.699
289.374
289.068
288.783
288.517
288.27
288.044
287.837
287.649
287.482
287.334
287.206
287.097
287.008
286.939
286.889
286.859
286.849
398.653
395.961
393.279
390.614
387.972
385.358
382.777
380.233
377.73
375.272
372.859
370.494
368.177
365.91
363.692
361.523
359.403
357.33
355.303
353.323
351.386
349.493
347.642
345.831
344.059
342.326
340.629
338.968
337.342
335.749
334.189
332.661
331.163
329.696
328.257
326.848
325.466
324.111
322.783
321.481
320.205
318.955
317.729
316.528
315.35
314.197
313.067
311.961
310.877
309.816
308.778
307.763
306.769
305.798
304.849
303.922
303.016
302.132
301.269
300.428
299.608
298.81
298.032
297.276
296.541
295.827
295.134
294.462
293.811
293.181
292.571
291.983
291.415
290.868
290.341
289.836
289.351
288.887
288.444
288.021
287.619
287.238
286.877
286.537
286.217
285.918
285.64
285.382
285.145
284.929
284.733
284.558
284.403
284.269
284.155
284.062
283.99
283.938
283.907
283.896
398.659
395.978
393.307
390.651
388.014
385.403
382.821
380.272
377.761
375.289
372.859
370.472
368.13
365.834
363.583
361.379
359.219
357.105
355.035
353.009
351.025
349.083
347.182
345.32
343.496
341.71
339.96
338.246
336.566
334.919
333.305
331.723
330.172
328.651
327.159
325.697
324.263
322.856
321.477
320.125
318.799
317.498
316.224
314.974
313.749
312.549
311.373
310.221
309.093
307.989
306.908
305.85
304.815
303.803
302.814
301.848
300.904
299.982
299.083
298.206
297.351
296.519
295.708
294.92
294.153
293.408
292.686
291.985
291.306
290.648
290.012
289.398
288.806
288.235
287.686
287.159
286.653
286.169
285.706
285.265
284.846
284.448
284.071
283.717
283.383
283.071
282.781
282.512
282.265
282.039
281.834
281.651
281.49
281.35
281.231
281.134
281.059
281.005
280.972
280.96
398.662
395.988
393.322
390.669
388.034
385.422
382.836
380.28
377.757
375.271
372.822
370.414
368.047
365.722
363.439
361.199
359.003
356.848
354.737
352.666
350.637
348.647
346.697
344.786
342.912
341.075
339.274
337.507
335.775
334.076
332.409
330.775
329.171
327.598
326.055
324.541
323.056
321.599
320.169
318.767
317.392
316.043
314.72
313.423
312.152
310.906
309.684
308.488
307.316
306.168
305.045
303.945
302.869
301.817
300.789
299.783
298.802
297.843
296.908
295.996
295.107
294.24
293.397
292.576
291.779
291.004
290.251
289.522
288.815
288.131
287.469
286.83
286.213
285.619
285.047
284.498
283.972
283.468
282.986
282.527
282.09
281.676
281.284
280.914
280.567
280.242
279.94
279.66
279.402
279.167
278.954
278.764
278.595
278.45
278.326
278.225
278.146
278.09
278.056
278.044
398.663
395.991
393.326
390.673
388.036
385.419
382.826
380.26
377.724
375.222
372.754
370.323
367.93
365.576
363.262
360.989
358.755
356.562
354.41
352.297
350.223
348.188
346.191
344.232
342.309
340.422
338.571
336.754
334.971
333.221
331.503
329.818
328.163
326.539
324.945
323.381
321.846
320.339
318.86
317.409
315.986
314.589
313.219
311.876
310.558
309.267
308.001
306.76
305.545
304.355
303.189
302.048
300.932
299.84
298.773
297.73
296.711
295.716
294.745
293.798
292.874
291.975
291.099
290.247
289.418
288.613
287.832
287.074
286.34
285.629
284.941
284.277
283.637
283.019
282.425
281.855
281.308
280.784
280.283
279.806
279.352
278.921
278.514
278.13
277.769
277.432
277.117
276.826
276.559
276.314
276.093
275.895
275.72
275.569
275.44
275.335
275.253
275.195
275.159
275.147
398.662
395.988
393.32
390.663
388.021
385.396
382.793
380.216
377.665
375.145
372.657
370.203
367.784
365.402
363.057
360.749
358.48
356.25
354.057
351.903
349.786
347.707
345.664
343.658
341.688
339.754
337.853
335.987
334.155
332.355
330.588
328.852
327.148
325.474
323.831
322.217
320.633
319.077
317.55
316.052
314.581
313.137
311.721
310.332
308.969
307.633
306.323
305.039
303.781
302.549
301.342
300.161
299.005
297.874
296.768
295.687
294.632
293.601
292.594
291.613
290.656
289.723
288.815
287.932
287.073
286.238
285.428
284.642
283.881
283.143
282.43
281.742
281.077
280.437
279.821
279.229
278.662
278.118
277.599
277.104
276.633
276.186
275.764
275.365
274.991
274.641
274.315
274.013
273.735
273.481
273.252
273.046
272.865
272.708
272.574
272.465
272.381
272.32
272.283
272.27
398.66
395.98
393.306
390.642
387.991
385.356
382.742
380.149
377.583
375.044
372.534
370.057
367.612
365.201
362.825
360.484
358.18
355.912
353.681
351.486
349.327
347.205
345.118
343.067
341.051
339.07
337.122
335.208
333.328
331.479
329.664
327.879
326.126
324.404
322.712
321.05
319.418
317.815
316.24
314.695
313.177
311.688
310.226
308.792
307.384
306.004
304.651
303.325
302.025
300.751
299.504
298.283
297.087
295.918
294.774
293.657
292.564
291.498
290.457
289.441
288.451
287.486
286.546
285.632
284.743
283.879
283.04
282.227
281.438
280.675
279.937
279.224
278.536
277.873
277.235
276.622
276.034
275.471
274.934
274.421
273.933
273.47
273.033
272.62
272.232
271.87
271.532
271.219
270.932
270.669
270.431
270.218
270.03
269.867
269.73
269.617
269.529
269.466
269.428
269.414
398.655
395.967
393.284
390.61
387.948
385.301
382.672
380.064
377.48
374.921
372.389
369.887
367.415
364.975
362.569
360.196
357.857
355.552
353.283
351.049
348.849
346.685
344.555
342.46
340.399
338.372
336.378
334.418
332.49
330.595
328.731
326.9
325.099
323.329
321.59
319.881
318.201
316.551
314.931
313.339
311.776
310.241
308.735
307.256
305.805
304.382
302.987
301.618
300.277
298.963
297.675
296.414
295.181
293.973
292.792
291.638
290.51
289.408
288.333
287.283
286.26
285.263
284.292
283.347
282.428
281.536
280.669
279.828
279.013
278.224
277.461
276.724
276.012
275.327
274.667
274.034
273.426
272.844
272.288
271.758
271.254
270.775
270.323
269.896
269.495
269.12
268.77
268.447
268.149
267.878
267.632
267.412
267.217
267.049
266.906
266.79
266.699
266.633
266.594
266.58
398.65
395.95
393.256
390.569
387.894
385.233
382.588
379.962
377.358
374.778
372.223
369.696
367.198
364.729
362.292
359.886
357.513
355.173
352.866
350.593
348.354
346.148
343.976
341.838
339.733
337.662
335.623
333.617
331.643
329.702
327.792
325.914
324.067
322.251
320.465
318.71
316.984
315.288
313.622
311.985
310.378
308.798
307.248
305.726
304.232
302.767
301.329
299.92
298.538
297.183
295.856
294.557
293.285
292.04
290.822
289.632
288.468
287.332
286.223
285.14
284.085
283.056
282.054
281.079
280.131
279.209
278.315
277.447
276.606
275.791
275.003
274.242
273.508
272.801
272.12
271.466
270.838
270.237
269.663
269.116
268.595
268.101
267.633
267.193
266.779
266.391
266.031
265.697
265.389
265.109
264.855
264.627
264.427
264.253
264.105
263.985
263.891
263.824
263.783
263.769
398.643
395.93
393.222
390.521
387.83
385.152
382.49
379.845
377.221
374.618
372.04
369.487
366.961
364.463
361.995
359.557
357.15
354.775
352.431
350.12
347.842
345.596
343.383
341.203
339.055
336.94
334.857
332.807
330.789
328.802
326.847
324.923
323.031
321.169
319.338
317.537
315.767
314.026
312.316
310.634
308.983
307.36
305.766
304.202
302.666
301.159
299.68
298.23
296.808
295.414
294.048
292.711
291.401
290.119
288.865
287.639
286.441
285.27
284.128
283.012
281.925
280.865
279.832
278.828
277.85
276.901
275.979
275.084
274.217
273.377
272.565
271.781
271.024
270.294
269.592
268.918
268.271
267.651
267.059
266.495
265.958
265.448
264.966
264.512
264.085
263.685
263.313
262.969
262.652
262.362
262.1
261.866
261.659
261.48
261.328
261.203
261.106
261.037
260.995
260.98
398.636
395.907
393.183
390.465
387.758
385.062
382.38
379.715
377.069
374.443
371.84
369.261
366.707
364.181
361.682
359.211
356.771
354.36
351.981
349.632
347.315
345.03
342.777
340.555
338.366
336.208
334.083
331.989
329.927
327.896
325.897
323.929
321.992
320.085
318.21
316.365
314.55
312.766
311.011
309.287
307.592
305.926
304.29
302.684
301.107
299.558
298.039
296.549
295.088
293.655
292.251
290.876
289.529
288.211
286.921
285.66
284.428
283.223
282.048
280.9
279.781
278.69
277.628
276.594
275.588
274.61
273.661
272.74
271.847
270.983
270.147
269.339
268.56
267.809
267.086
266.391
265.725
265.087
264.477
263.896
263.343
262.818
262.321
261.853
261.413
261.002
260.619
260.264
259.938
259.639
259.37
259.128
258.915
258.73
258.574
258.445
258.346
258.274
258.231
258.216
398.627
395.881
393.139
390.404
387.677
384.962
382.26
379.573
376.904
374.254
371.626
369.02
366.439
363.883
361.353
358.851
356.377
353.932
351.516
349.131
346.776
344.452
342.159
339.898
337.667
335.468
333.3
331.164
329.059
326.985
324.942
322.931
320.95
319
317.081
315.193
313.335
311.507
309.71
307.943
306.205
304.498
302.821
301.173
299.555
297.966
296.407
294.878
293.378
291.907
290.466
289.053
287.67
286.316
284.992
283.696
282.429
281.192
279.984
278.804
277.654
276.533
275.441
274.378
273.344
272.339
271.363
270.416
269.498
268.609
267.749
266.918
266.117
265.344
264.601
263.886
263.201
262.545
261.917
261.319
260.75
260.211
259.7
259.218
258.766
258.342
257.948
257.583
257.247
256.941
256.663
256.415
256.195
256.005
255.844
255.712
255.609
255.536
255.491
255.476
398.618
395.853
393.092
390.337
387.59
384.854
382.13
379.421
376.728
374.054
371.4
368.767
366.157
363.571
361.01
358.476
355.969
353.49
351.039
348.618
346.226
343.864
341.532
339.23
336.96
334.72
332.511
330.333
328.186
326.07
323.985
321.931
319.907
317.915
315.953
314.022
312.122
310.252
308.412
306.603
304.824
303.076
301.358
299.67
298.012
296.383
294.785
293.217
291.679
290.171
288.692
287.244
285.825
284.436
283.076
281.747
280.447
279.177
277.936
276.726
275.545
274.393
273.272
272.18
271.118
270.086
269.084
268.111
267.169
266.255
265.372
264.519
263.695
262.902
262.138
261.404
260.7
260.025
259.381
258.766
258.182
257.627
257.102
256.607
256.142
255.707
255.302
254.927
254.582
254.267
253.981
253.726
253.501
253.305
253.14
253.004
252.899
252.823
252.777
252.761
398.607
395.822
393.041
390.265
387.497
384.739
381.992
379.26
376.542
373.843
371.162
368.502
365.863
363.247
360.656
358.09
355.55
353.037
350.551
348.094
345.665
343.265
340.895
338.555
336.245
333.965
331.716
329.497
327.309
325.151
323.025
320.929
318.864
316.829
314.826
312.853
310.911
309
307.119
305.269
303.449
301.661
299.902
298.174
296.477
294.81
293.174
291.568
289.992
288.447
286.932
285.447
283.993
282.569
281.176
279.813
278.48
277.178
275.906
274.664
273.453
272.272
271.122
270.002
268.913
267.854
266.826
265.828
264.86
263.923
263.017
262.141
261.296
260.482
259.698
258.944
258.222
257.529
256.868
256.237
255.637
255.068
254.529
254.021
253.544
253.097
252.681
252.296
251.942
251.618
251.325
251.063
250.832
250.631
250.461
250.322
250.214
250.136
250.089
250.073
398.597
395.79
392.987
390.189
387.399
384.617
381.847
379.09
376.348
373.622
370.915
368.226
365.559
362.913
360.291
357.693
355.12
352.573
350.053
347.56
345.096
342.659
340.251
337.873
335.524
333.205
330.916
328.657
326.429
324.231
322.063
319.926
317.82
315.745
313.7
311.687
309.704
307.752
305.831
303.94
302.081
300.253
298.455
296.688
294.952
293.247
291.573
289.929
288.317
286.735
285.185
283.665
282.176
280.718
279.291
277.895
276.53
275.196
273.893
272.621
271.38
270.17
268.992
267.844
266.728
265.642
264.588
263.565
262.574
261.613
260.684
259.786
258.92
258.085
257.281
256.509
255.768
255.058
254.38
253.733
253.118
252.534
251.981
251.46
250.971
250.513
250.086
249.691
249.328
248.996
248.696
248.427
248.189
247.984
247.809
247.667
247.555
247.476
247.428
247.411
398.585
395.756
392.931
390.11
387.296
384.491
381.696
378.914
376.146
373.394
370.659
367.942
365.246
362.57
359.917
357.287
354.682
352.102
349.547
347.019
344.519
342.046
339.601
337.185
334.798
332.44
330.112
327.814
325.546
323.308
321.101
318.924
316.778
314.662
312.578
310.524
308.501
306.509
304.548
302.619
300.72
298.852
297.016
295.211
293.437
291.694
289.983
288.303
286.654
285.037
283.451
281.897
280.374
278.882
277.422
275.994
274.597
273.232
271.898
270.596
269.326
268.088
266.881
265.706
264.563
263.452
262.372
261.325
260.309
259.326
258.374
257.455
256.567
255.712
254.889
254.097
253.338
252.611
251.916
251.254
250.623
250.025
249.459
248.925
248.424
247.955
247.518
247.113
246.741
246.401
246.093
245.817
245.574
245.363
245.185
245.038
244.924
244.843
244.793
244.776
398.574
395.721
392.872
390.027
387.189
384.359
381.54
378.732
375.938
373.158
370.395
367.65
364.924
362.219
359.535
356.874
354.236
351.622
349.034
346.471
343.935
341.427
338.945
336.492
334.068
331.673
329.306
326.97
324.663
322.386
320.139
317.923
315.737
313.582
311.458
309.365
307.303
305.272
303.272
301.304
299.367
297.461
295.587
293.744
291.933
290.153
288.406
286.69
285.005
283.353
281.733
280.144
278.587
277.063
275.57
274.11
272.682
271.286
269.922
268.591
267.292
266.025
264.791
263.589
262.42
261.283
260.179
259.107
258.068
257.062
256.088
255.147
254.239
253.363
252.521
251.711
250.934
250.19
249.479
248.801
248.155
247.543
246.964
246.417
245.904
245.424
244.976
244.562
244.181
243.833
243.517
243.235
242.986
242.771
242.588
242.438
242.321
242.238
242.187
242.17
398.562
395.685
392.811
389.942
387.079
384.224
381.378
378.544
375.723
372.917
370.126
367.352
364.597
361.861
359.146
356.453
353.783
351.136
348.514
345.918
343.347