/*--------------------------------*- C++ -*----------------------------------*\
  =========                 |
  \\      /  F ield         | OpenFOAM: The Open Source CFD Toolbox
   \\    /   O peration     | Website:  https://openfoam.org
    \\  /    A nd           | Version:  10
     \\/     M anipulation  |
\*---------------------------------------------------------------------------*/
FoamFile
{
    format      ascii;
    class       volScalarField;
    location    "34.5";
    object      T_0;
}
// * * * * * * * * * * * * * * * * * * * * * * * * * * * * * * * * * * * * * //

dimensions      [0 0 0 1 0 0 0];

internalField   nonuniform List<scalar> 
10000
(
374.984
361.294
356.618
354.57
353.461
352.763
352.277
351.916
351.635
351.407
351.218
351.057
350.917
350.794
350.685
350.586
350.496
350.413
350.336
350.264
350.197
350.134
350.075
350.018
349.964
349.912
349.862
349.815
349.769
349.724
349.682
349.64
349.6
349.561
349.523
349.486
349.45
349.415
349.381
349.348
349.316
349.284
349.253
349.223
349.194
349.165
349.137
349.11
349.083
349.057
349.031
349.006
348.982
348.958
348.935
348.912
348.89
348.869
348.848
348.827
348.807
348.788
348.769
348.751
348.733
348.716
348.699
348.683
348.667
348.652
348.637
348.623
348.609
348.596
348.584
348.571
348.56
348.549
348.538
348.528
348.518
348.509
348.5
348.492
348.484
348.477
348.471
348.464
348.459
348.454
348.449
348.445
348.441
348.438
348.435
348.433
348.431
348.43
348.429
348.429
388.618
374.871
367.225
362.773
359.973
358.076
356.708
355.67
354.851
354.184
353.626
353.15
352.736
352.371
352.045
351.75
351.481
351.234
351.004
350.791
350.59
350.401
350.222
350.052
349.89
349.735
349.587
349.444
349.306
349.173
349.045
348.921
348.8
348.683
348.57
348.459
348.352
348.247
348.145
348.045
347.948
347.853
347.761
347.671
347.582
347.496
347.412
347.33
347.25
347.171
347.095
347.02
346.947
346.876
346.806
346.738
346.672
346.607
346.544
346.483
346.423
346.365
346.309
346.254
346.201
346.149
346.099
346.05
346.003
345.957
345.913
345.871
345.83
345.79
345.752
345.716
345.681
345.648
345.616
345.585
345.556
345.529
345.503
345.478
345.455
345.434
345.414
345.395
345.378
345.363
345.348
345.336
345.325
345.315
345.307
345.3
345.295
345.291
345.289
345.288
393.237
382.343
374.64
369.322
365.582
362.861
360.808
359.205
357.916
356.852
355.954
355.182
354.507
353.91
353.374
352.889
352.445
352.037
351.657
351.304
350.971
350.658
350.361
350.079
349.81
349.553
349.306
349.068
348.84
348.619
348.405
348.199
347.998
347.803
347.614
347.43
347.251
347.077
346.907
346.741
346.579
346.422
346.268
346.117
345.97
345.827
345.687
345.55
345.416
345.285
345.158
345.033
344.912
344.793
344.677
344.564
344.454
344.346
344.241
344.139
344.04
343.943
343.849
343.758
343.669
343.583
343.499
343.418
343.339
343.263
343.19
343.119
343.051
342.985
342.922
342.861
342.803
342.747
342.694
342.643
342.595
342.549
342.506
342.465
342.427
342.391
342.357
342.327
342.298
342.272
342.249
342.228
342.209
342.193
342.18
342.168
342.16
342.153
342.15
342.148
395.227
386.622
379.669
374.294
370.172
366.979
364.459
362.428
360.756
359.354
358.156
357.116
356.202
355.387
354.654
353.987
353.376
352.812
352.287
351.797
351.336
350.9
350.488
350.095
349.721
349.362
349.018
348.687
348.368
348.059
347.761
347.473
347.193
346.921
346.656
346.399
346.149
345.905
345.668
345.436
345.21
344.989
344.774
344.564
344.358
344.158
343.962
343.77
343.583
343.4
343.222
343.048
342.877
342.711
342.549
342.391
342.237
342.086
341.94
341.797
341.658
341.522
341.391
341.263
341.138
341.018
340.901
340.787
340.677
340.571
340.468
340.369
340.274
340.182
340.093
340.008
339.927
339.849
339.774
339.703
339.636
339.571
339.511
339.454
339.4
339.35
339.303
339.26
339.22
339.184
339.151
339.122
339.096
339.073
339.054
339.039
339.027
339.018
339.013
339.011
396.279
389.249
383.122
378.014
373.834
370.423
367.621
365.291
363.329
361.652
360.201
358.927
357.798
356.785
355.868
355.032
354.262
353.549
352.885
352.262
351.676
351.123
350.597
350.096
349.618
349.16
348.72
348.296
347.888
347.493
347.111
346.741
346.382
346.034
345.695
345.365
345.044
344.732
344.427
344.129
343.839
343.556
343.28
343.01
342.746
342.488
342.236
341.991
341.75
341.516
341.286
341.063
340.844
340.631
340.422
340.219
340.021
339.828
339.639
339.456
339.277
339.103
338.934
338.77
338.61
338.455
338.305
338.159
338.018
337.881
337.749
337.622
337.499
337.381
337.267
337.158
337.053
336.953
336.857
336.766
336.679
336.597
336.519
336.446
336.377
336.312
336.252
336.197
336.146
336.099
336.057
336.019
335.986
335.957
335.932
335.912
335.897
335.885
335.879
335.876
396.92
390.974
385.556
380.805
376.729
373.26
370.31
367.789
365.617
363.728
362.068
360.597
359.279
358.089
357.005
356.011
355.093
354.24
353.443
352.694
351.988
351.32
350.684
350.078
349.498
348.943
348.408
347.894
347.398
346.918
346.453
346.003
345.566
345.142
344.729
344.328
343.936
343.555
343.183
342.821
342.467
342.122
341.784
341.455
341.133
340.819
340.512
340.211
339.918
339.632
339.352
339.079
338.812
338.551
338.297
338.049
337.807
337.571
337.341
337.117
336.899
336.687
336.48
336.279
336.084
335.895
335.711
335.533
335.361
335.194
335.033
334.878
334.728
334.583
334.444
334.311
334.183
334.06
333.943
333.832
333.726
333.626
333.53
333.441
333.357
333.278
333.205
333.137
333.075
333.018
332.966
332.92
332.879
332.844
332.814
332.79
332.77
332.757
332.749
332.746
397.348
392.17
387.322
382.924
379.015
375.58
372.573
369.939
367.623
365.575
363.751
362.114
360.635
359.289
358.055
356.918
355.862
354.878
353.956
353.087
352.266
351.487
350.746
350.037
349.359
348.708
348.082
347.479
346.896
346.332
345.787
345.257
344.743
344.244
343.758
343.285
342.824
342.375
341.937
341.51
341.093
340.686
340.288
339.9
339.52
339.149
338.787
338.433
338.087
337.749
337.419
337.096
336.782
336.474
336.174
335.881
335.596
335.317
335.046
334.781
334.524
334.273
334.029
333.792
333.562
333.338
333.122
332.911
332.708
332.511
332.321
332.137
331.96
331.789
331.625
331.468
331.317
331.172
331.034
330.903
330.777
330.659
330.546
330.441
330.341
330.248
330.162
330.082
330.008
329.941
329.88
329.825
329.777
329.736
329.7
329.672
329.649
329.633
329.623
329.62
397.652
393.036
388.638
384.554
380.83
377.472
374.464
371.773
369.364
367.2
365.247
363.476
361.861
360.379
359.012
357.745
356.564
355.458
354.419
353.437
352.506
351.622
350.778
349.972
349.198
348.455
347.739
347.048
346.381
345.735
345.109
344.502
343.912
343.339
342.781
342.237
341.708
341.192
340.688
340.197
339.717
339.248
338.791
338.343
337.907
337.48
337.063
336.655
336.257
335.867
335.487
335.116
334.753
334.399
334.053
333.716
333.387
333.066
332.753
332.448
332.152
331.863
331.582
331.309
331.043
330.786
330.536
330.294
330.059
329.832
329.613
329.401
329.197
329
328.811
328.63
328.456
328.289
328.13
327.978
327.834
327.697
327.568
327.446
327.331
327.224
327.124
327.032
326.947
326.87
326.799
326.737
326.681
326.633
326.592
326.559
326.533
326.515
326.503
326.499
397.876
393.683
389.642
385.826
382.278
379.017
376.038
373.327
370.861
368.616
366.565
364.685
362.956
361.357
359.873
358.49
357.194
355.977
354.828
353.74
352.706
351.721
350.78
349.878
349.012
348.179
347.376
346.601
345.851
345.125
344.421
343.737
343.072
342.426
341.797
341.184
340.586
340.004
339.435
338.88
338.338
337.809
337.292
336.786
336.293
335.81
335.339
334.878
334.427
333.987
333.557
333.137
332.727
332.326
331.935
331.553
331.181
330.818
330.464
330.119
329.783
329.456
329.139
328.829
328.529
328.238
327.955
327.681
327.415
327.158
326.91
326.671
326.439
326.217
326.003
325.797
325.6
325.411
325.231
325.06
324.896
324.741
324.595
324.457
324.327
324.206
324.093
323.989
323.892
323.805
323.725
323.654
323.591
323.537
323.491
323.453
323.424
323.403
323.39
323.386
398.047
394.18
390.421
386.829
383.442
380.28
377.347
374.638
372.141
369.839
367.714
365.748
363.923
362.225
360.638
359.151
357.752
356.431
355.181
353.993
352.862
351.782
350.747
349.755
348.8
347.881
346.993
346.136
345.305
344.5
343.719
342.96
342.223
341.505
340.805
340.124
339.459
338.811
338.178
337.56
336.957
336.368
335.792
335.229
334.678
334.141
333.615
333.101
332.599
332.108
331.629
331.16
330.703
330.256
329.82
329.394
328.979
328.574
328.179
327.794
327.419
327.055
326.7
326.355
326.02
325.695
325.379
325.073
324.777
324.49
324.213
323.946
323.688
323.439
323.2
322.971
322.751
322.54
322.339
322.148
321.965
321.793
321.629
321.475
321.33
321.195
321.069
320.952
320.845
320.747
320.658
320.579
320.509
320.448
320.396
320.354
320.322
320.298
320.284
320.279
398.179
394.567
391.035
387.63
384.383
381.314
378.434
375.74
373.229
370.889
368.707
366.672
364.768
362.984
361.308
359.728
358.236
356.821
355.477
354.197
352.974
351.803
350.68
349.601
348.561
347.558
346.589
345.651
344.742
343.86
343.004
342.172
341.362
340.574
339.806
339.057
338.326
337.613
336.917
336.238
335.573
334.924
334.29
333.67
333.064
332.471
331.892
331.326
330.773
330.232
329.703
329.187
328.682
328.189
327.708
327.239
326.781
326.334
325.898
325.474
325.061
324.658
324.267
323.886
323.516
323.158
322.809
322.472
322.145
321.828
321.523
321.228
320.943
320.669
320.405
320.152
319.909
319.677
319.455
319.243
319.042
318.851
318.671
318.501
318.341
318.191
318.052
317.923
317.805
317.697
317.599
317.511
317.434
317.367
317.31
317.264
317.228
317.202
317.186
317.18
398.283
394.873
391.524
388.272
385.146
382.163
379.335
376.664
374.148
371.783
369.559
367.468
365.498
363.641
361.886
360.224
358.647
357.146
355.716
354.349
353.04
351.784
350.577
349.414
348.293
347.209
346.161
345.146
344.161
343.205
342.276
341.372
340.491
339.634
338.798
337.983
337.187
336.411
335.652
334.911
334.187
333.479
332.787
332.111
331.449
330.803
330.17
329.552
328.948
328.357
327.78
327.215
326.664
326.126
325.6
325.087
324.587
324.099
323.623
323.159
322.707
322.267
321.839
321.423
321.019
320.627
320.246
319.877
319.52
319.174
318.839
318.517
318.205
317.906
317.617
317.34
317.075
316.821
316.578
316.347
316.127
315.918
315.721
315.535
315.36
315.197
315.044
314.904
314.774
314.656
314.549
314.453
314.368
314.295
314.233
314.182
314.142
314.114
314.097
314.091
398.366
395.117
391.916
388.792
385.768
382.86
380.081
377.434
374.92
372.538
370.282
368.146
366.121
364.2
362.376
360.641
358.987
357.408
355.897
354.45
353.06
351.724
350.437
349.195
347.996
346.835
345.711
344.62
343.561
342.533
341.532
340.558
339.609
338.684
337.782
336.902
336.042
335.203
334.383
333.581
332.798
332.032
331.283
330.551
329.835
329.134
328.449
327.78
327.125
326.485
325.859
325.248
324.65
324.067
323.497
322.941
322.398
321.868
321.352
320.849
320.359
319.882
319.418
318.967
318.529
318.103
317.69
317.29
316.902
316.527
316.164
315.814
315.476
315.151
314.838
314.538
314.249
313.974
313.71
313.459
313.221
312.994
312.78
312.578
312.389
312.211
312.046
311.893
311.753
311.624
311.508
311.404
311.312
311.233
311.165
311.11
311.067
311.036
311.018
311.011
398.433
395.313
392.232
389.213
386.274
383.432
380.696
378.073
375.565
373.172
370.89
368.716
366.644
364.669
362.784
360.982
359.259
357.608
356.024
354.501
353.036
351.624
350.261
348.944
347.669
346.434
345.236
344.073
342.943
341.844
340.774
339.731
338.715
337.724
336.757
335.813
334.89
333.989
333.108
332.248
331.406
330.583
329.778
328.99
328.22
327.466
326.73
326.009
325.304
324.615
323.942
323.283
322.64
322.012
321.398
320.799
320.214
319.644
319.088
318.546
318.018
317.504
317.004
316.518
316.046
315.587
315.142
314.71
314.292
313.888
313.497
313.12
312.756
312.405
312.068
311.744
311.433
311.136
310.852
310.582
310.324
310.08
309.849
309.632
309.427
309.236
309.058
308.893
308.742
308.603
308.478
308.366
308.267
308.181
308.108
308.049
308.003
307.969
307.949
307.942
398.486
395.471
392.487
389.554
386.687
383.9
381.202
378.601
376.099
373.697
371.395
369.19
367.077
365.053
363.113
361.253
359.466
357.749
356.096
354.503
352.967
351.483
350.048
348.659
347.313
346.007
344.738
343.505
342.306
341.138
340
338.891
337.809
336.754
335.723
334.716
333.732
332.77
331.83
330.911
330.011
329.132
328.271
327.429
326.605
325.8
325.011
324.24
323.486
322.749
322.028
321.323
320.634
319.962
319.304
318.663
318.037
317.426
316.83
316.25
315.684
315.134
314.598
314.077
313.571
313.079
312.602
312.14
311.692
311.258
310.839
310.435
310.045
309.669
309.307
308.96
308.627
308.309
308.004
307.714
307.438
307.177
306.929
306.696
306.477
306.272
306.081
305.904
305.742
305.593
305.459
305.339
305.233
305.141
305.063
304.999
304.95
304.914
304.892
304.885
398.53
395.599
392.693
389.83
387.022
384.281
381.616
379.033
376.536
374.128
371.808
369.575
367.427
365.36
363.371
361.456
359.611
357.833
356.116
354.458
352.855
351.304
349.8
348.343
346.928
345.553
344.216
342.916
341.649
340.415
339.212
338.038
336.892
335.773
334.68
333.611
332.567
331.546
330.547
329.57
328.614
327.679
326.763
325.868
324.991
324.134
323.295
322.474
321.671
320.886
320.118
319.367
318.633
317.917
317.216
316.533
315.865
315.214
314.579
313.961
313.358
312.771
312.199
311.644
311.104
310.58
310.071
309.578
309.101
308.638
308.192
307.76
307.344
306.943
306.558
306.187
305.832
305.492
305.168
304.858
304.564
304.285
304.021
303.772
303.538
303.319
303.116
302.927
302.754
302.596
302.452
302.324
302.211
302.113
302.03
301.962
301.909
301.871
301.848
301.84
398.564
395.701
392.859
390.052
387.291
384.588
381.95
379.382
376.89
374.475
372.14
369.882
367.701
365.595
363.561
361.597
359.699
357.863
356.087
354.368
352.702
351.086
349.518
347.995
346.514
345.073
343.671
342.305
340.974
339.675
338.408
337.171
335.963
334.782
333.628
332.5
331.396
330.316
329.26
328.226
327.215
326.224
325.255
324.307
323.378
322.47
321.58
320.71
319.859
319.026
318.212
317.416
316.638
315.877
315.134
314.409
313.701
313.01
312.336
311.679
311.039
310.416
309.81
309.22
308.647
308.091
307.55
307.027
306.52
306.029
305.554
305.096
304.654
304.229
303.819
303.426
303.049
302.688
302.343
302.014
301.702
301.405
301.125
300.86
300.612
300.38
300.163
299.963
299.779
299.611
299.458
299.322
299.202
299.098
299.01
298.937
298.881
298.841
298.816
298.808
398.592
395.783
392.991
390.229
387.507
384.833
382.216
379.66
377.17
374.749
372.398
370.118
367.907
365.765
363.69
361.68
359.732
357.843
356.012
354.234
352.509
350.832
349.202
347.616
346.072
344.569
343.103
341.674
340.28
338.919
337.59
336.291
335.022
333.781
332.567
331.38
330.218
329.082
327.969
326.879
325.813
324.769
323.747
322.746
321.766
320.807
319.868
318.95
318.051
317.171
316.311
315.47
314.647
313.844
313.059
312.292
311.543
310.813
310.101
309.406
308.73
308.071
307.429
306.806
306.2
305.611
305.04
304.486
303.95
303.43
302.928
302.444
301.976
301.526
301.093
300.676
300.277
299.895
299.531
299.183
298.852
298.538
298.241
297.962
297.699
297.453
297.224
297.012
296.817
296.639
296.478
296.334
296.207
296.097
296.003
295.927
295.867
295.825
295.799
295.79
398.613
395.847
393.095
390.369
387.676
385.026
382.424
379.876
377.387
374.958
372.592
370.29
368.052
365.876
363.763
361.709
359.715
357.776
355.892
354.06
352.278
350.543
348.854
347.208
345.604
344.04
342.513
341.023
339.568
338.147
336.757
335.399
334.07
332.77
331.498
330.254
329.035
327.842
326.674
325.53
324.409
323.312
322.238
321.186
320.155
319.147
318.159
317.192
316.246
315.32
314.415
313.529
312.663
311.817
310.99
310.182
309.394
308.624
307.874
307.142
306.429
305.735
305.059
304.402
303.763
303.142
302.54
301.957
301.391
300.844
300.314
299.803
299.31
298.835
298.379
297.94
297.519
297.116
296.732
296.365
296.016
295.685
295.372
295.077
294.8
294.541
294.299
294.076
293.87
293.683
293.513
293.361
293.226
293.11
293.012
292.931
292.868
292.823
292.796
292.786
398.63
395.896
393.175
390.476
387.806
385.173
382.582
380.039
377.547
375.11
372.729
370.406
368.141
365.933
363.783
361.689
359.651
357.665
355.731
353.847
352.011
350.221
348.475
346.772
345.11
343.487
341.902
340.353
338.839
337.359
335.911
334.494
333.107
331.75
330.421
329.12
327.846
326.598
325.375
324.178
323.004
321.855
320.729
319.626
318.546
317.488
316.453
315.439
314.446
313.475
312.524
311.595
310.686
309.797
308.929
308.081
307.253
306.445
305.656
304.888
304.139
303.409
302.699
302.008
301.337
300.685
300.052
299.439
298.844
298.269
297.713
297.176
296.658
296.158
295.678
295.217
294.775
294.351
293.947
293.561
293.194
292.847
292.518
292.207
291.916
291.643
291.39
291.155
290.938
290.741
290.562
290.403
290.261
290.139
290.036
289.951
289.885
289.837
289.809
289.799
398.643
395.934
393.235
390.556
387.903
385.281
382.697
380.155
377.659
375.211
372.815
370.47
368.179
365.941
363.756
361.624
359.543
357.513
355.532
353.598
351.71
349.868
348.068
346.31
344.592
342.912
341.27
339.664
338.093
336.556
335.051
333.577
332.134
330.721
329.337
327.98
326.652
325.35
324.074
322.823
321.598
320.397
319.221
318.068
316.939
315.833
314.75
313.689
312.651
311.634
310.64
309.667
308.715
307.785
306.876
305.988
305.12
304.274
303.448
302.643
301.858
301.094
300.35
299.627
298.923
298.24
297.577
296.934
296.311
295.708
295.125
294.562
294.019
293.495
292.992
292.508
292.045
291.601
291.177
290.772
290.388
290.023
289.678
289.353
289.047
288.762
288.496
288.249
288.022
287.815
287.628
287.461
287.313
287.184
287.076
286.987
286.918
286.868
286.838
286.827
398.652
395.96
393.278
390.613
387.97
385.355
382.774
380.23
377.727
375.268
372.855
370.489
368.173
365.905
363.687
361.517
359.396
357.323
355.296
353.315
351.378
349.485
347.633
345.822
344.05
342.316
340.619
338.958
337.331
335.738
334.178
332.649
331.151
329.683
328.245
326.835
325.452
324.097
322.769
321.467
320.191
318.94
317.714
316.512
315.335
314.181
313.051
311.944
310.861
309.8
308.761
307.746
306.752
305.781
304.831
303.903
302.997
302.113
301.25
300.409
299.589
298.79
298.013
297.257
296.521
295.807
295.114
294.442
293.79
293.16
292.55
291.962
291.394
290.847
290.32
289.815
289.33
288.866
288.422
287.999
287.597
287.216
286.855
286.515
286.195
285.896
285.618
285.36
285.123
284.907
284.711
284.536
284.381
284.247
284.133
284.04
283.968
283.916
283.884
283.873
398.658
395.978
393.306
390.649
388.012
385.4
382.818
380.269
377.757
375.285
372.854
370.467
368.125
365.828
363.577
361.372
359.213
357.098
355.028
353.001
351.017
349.074
347.172
345.31
343.486
341.7
339.949
338.235
336.554
334.907
333.293
331.711
330.159
328.638
327.146
325.683
324.249
322.842
321.463
320.11
318.783
317.483
316.208
314.958
313.733
312.533
311.357
310.204
309.076
307.971
306.89
305.832
304.797
303.785
302.795
301.829
300.884
299.963
299.063
298.186
297.331
296.499
295.688
294.899
294.133
293.388
292.665
291.964
291.284
290.627
289.991
289.377
288.784
288.214
287.664
287.137
286.631
286.147
285.684
285.243
284.823
284.425
284.049
283.694
283.36
283.048
282.758
282.489
282.242
282.016
281.811
281.628
281.467
281.327
281.208
281.111
281.035
280.981
280.949
280.937
398.661
395.987
393.321
390.668
388.032
385.42
382.833
380.277
377.754
375.267
372.818
370.409
368.041
365.716
363.433
361.193
358.996
356.841
354.729
352.658
350.628
348.638
346.688
344.776
342.902
341.064
339.263
337.496
335.763
334.064
332.397
330.762
329.158
327.585
326.041
324.527
323.041
321.584
320.154
318.752
317.376
316.027
314.704
313.407
312.135
310.888
309.667
308.47
307.298
306.15
305.026
303.926
302.85
301.798
300.769
299.764
298.782
297.823
296.888
295.975
295.086
294.219
293.376
292.555
291.757
290.982
290.23
289.5
288.793
288.108
287.447
286.807
286.19
285.596
285.025
284.475
283.949
283.444
282.963
282.503
282.066
281.652
281.26
280.89
280.543
280.218
279.916
279.636
279.378
279.143
278.93
278.739
278.571
278.425
278.302
278.201
278.122
278.066
278.032
278.02
398.662
395.99
393.325
390.671
388.034
385.416
382.823
380.257
377.721
375.218
372.749
370.318
367.925
365.57
363.256
360.982
358.748
356.555
354.401
352.288
350.214
348.179
346.181
344.222
342.298
340.411
338.56
336.742
334.959
333.208
331.491
329.804
328.15
326.525
324.931
323.366
321.831
320.323
318.844
317.393
315.969
314.572
313.202
311.858
310.541
309.249
307.983
306.742
305.526
304.336
303.17
302.029
300.912
299.82
298.753
297.709
296.69
295.695
294.724
293.776
292.853
291.953
291.077
290.225
289.396
288.591
287.809
287.051
286.317
285.606
284.918
284.254
283.613
282.996
282.402
281.831
281.284
280.76
280.259
279.782
279.328
278.897
278.489
278.105
277.744
277.407
277.092
276.801
276.534
276.289
276.068
275.87
275.695
275.543
275.415
275.31
275.228
275.169
275.134
275.122
398.661
395.987
393.319
390.662
388.018
385.394
382.79
380.212
377.661
375.141
372.652
370.198
367.778
365.396
363.05
360.742
358.473
356.241
354.049
351.894
349.777
347.697
345.654
343.648
341.677
339.742
337.842
335.975
334.142
332.342
330.574
328.839
327.134
325.46
323.816
322.202
320.617
319.061
317.534
316.035
314.564
313.12
311.703
310.314
308.951
307.614
306.304
305.02
303.762
302.529
301.322
300.141
298.984
297.853
296.747
295.666
294.61
293.579
292.572
291.59
290.633
289.701
288.792
287.909
287.05
286.215
285.405
284.618
283.857
283.119
282.406
281.717
281.053
280.412
279.796
279.204
278.637
278.093
277.574
277.079
276.608
276.161
275.738
275.339
274.965
274.615
274.289
273.987
273.709
273.455
273.226
273.02
272.839
272.681
272.548
272.439
272.354
272.293
272.257
272.244
398.659
395.979
393.305
390.64
387.989
385.354
382.738
380.146
377.579
375.039
372.529
370.051
367.606
365.194
362.818
360.477
358.172
355.904
353.672
351.477
349.318
347.195
345.108
343.056
341.04
339.058
337.11
335.196
333.314
331.466
329.65
327.865
326.112
324.389
322.697
321.034
319.402
317.798
316.223
314.677
313.16
311.67
310.208
308.773
307.366
305.985
304.632
303.305
302.005
300.731
299.483
298.262
297.066
295.896
294.753
293.635
292.542
291.475
290.434
289.418
288.427
287.462
286.523
285.608
284.719
283.855
283.016
282.202
281.413
280.65
279.912
279.198
278.51
277.847
277.209
276.596
276.008
275.445
274.908
274.395
273.907
273.444
273.006
272.594
272.206
271.843
271.505
271.192
270.905
270.642
270.404
270.191
270.003
269.84
269.702
269.59
269.502
269.439
269.4
269.387
398.654
395.966
393.283
390.608
387.946
385.298
382.669
380.061
377.475
374.916
372.384
369.881
367.409
364.969
362.562
360.188
357.849
355.544
353.274
351.039
348.839
346.674
344.544
342.449
340.387
338.36
336.366
334.405
332.477
330.581
328.717
326.885
325.084
323.314
321.574
319.864
318.185
316.534
314.913
313.321
311.758
310.223
308.716
307.237
305.786
304.362
302.966
301.598
300.256
298.941
297.654
296.393
295.159
293.951
292.77
291.615
290.487
289.385
288.309
287.26
286.236
285.239
284.268
283.323
282.404
281.511
280.644
279.803
278.987
278.198
277.435
276.698
275.986
275.301
274.641
274.007
273.399
272.817
272.261
271.731
271.226
270.748
270.295
269.868
269.467
269.092
268.743
268.419
268.122
267.85
267.604
267.384
267.189
267.021
266.878
266.761
266.67
266.605
266.566
266.552
398.649
395.95
393.255
390.568
387.892
385.23
382.584
379.958
377.354
374.773
372.218
369.69
367.191
364.722
362.284
359.878
357.504
355.164
352.857
350.583
348.343
346.137
343.965
341.826
339.721
337.649
335.61
333.603
331.629
329.687
327.777
325.899
324.051
322.235
320.448
318.693
316.967
315.271
313.604
311.967
310.359
308.779
307.229
305.706
304.212
302.746
301.308
299.898
298.516
297.161
295.834
294.535
293.262
292.017
290.799
289.608
288.445
287.308
286.198
285.116
284.06
283.031
282.029
281.054
280.105
279.184
278.289
277.421
276.579
275.765
274.977
274.216
273.481
272.773
272.092
271.438
270.81
270.209
269.635
269.088
268.567
268.073
267.605
267.164
266.75
266.363
266.002
265.668
265.361
265.08
264.826
264.598
264.398
264.224
264.076
263.956
263.862
263.795
263.754
263.74
398.642
395.929
393.221
390.519
387.828
385.149
382.486
379.841
377.216
374.613
372.034
369.481
366.954
364.456
361.988
359.549
357.142
354.766
352.422
350.11
347.831
345.585
343.371
341.191
339.043
336.927
334.844
332.793
330.774
328.787
326.832
324.908
323.015
321.153
319.321
317.52
315.749
314.008
312.297
310.615
308.963
307.34
305.746
304.181
302.645
301.138
299.658
298.208
296.785
295.391
294.025
292.687
291.377
290.095
288.841
287.615
286.416
285.246
284.102
282.987
281.899
280.839
279.806
278.801
277.824
276.874
275.952
275.057
274.19
273.35
272.538
271.753
270.996
270.266
269.564
268.889
268.242
267.623
267.03
266.466
265.929
265.419
264.937
264.482
264.055
263.656
263.284
262.939
262.622
262.333
262.071
261.836
261.629
261.45
261.298
261.173
261.076
261.007
260.965
260.95
398.634
395.906
393.181
390.463
387.755
385.059
382.376
379.711
377.064
374.438
371.834
369.255
366.701
364.173
361.674
359.203
356.762
354.351
351.971
349.622
347.305
345.019
342.765
340.543
338.353
336.195
334.069
331.975
329.912
327.881
325.881
323.913
321.975
320.068
318.192
316.347
314.532
312.747
310.992
309.267
307.572
305.906
304.27
302.663
301.085
299.537
298.017
296.526
295.065
293.632
292.228
290.852
289.505
288.187
286.897
285.635
284.403
283.198
282.022
280.874
279.755
278.664
277.601
276.567
275.561
274.583
273.633
272.712
271.819
270.955
270.119
269.311
268.531
267.78
267.057
266.362
265.695
265.057
264.447
263.866
263.313
262.788
262.291
261.823
261.383
260.972
260.588
260.234
259.907
259.609
259.339
259.097
258.884
258.699
258.543
258.415
258.315
258.243
258.2
258.185
398.626
395.88
393.138
390.402
387.675
384.959
382.256
379.569
376.899
374.249
371.62
369.014
366.432
363.875
361.345
358.842
356.367
353.922
351.506
349.12
346.765
344.441
342.147
339.885
337.654
335.454
333.286
331.149
329.044
326.969
324.926
322.914
320.933
318.983
317.063
315.174
313.316
311.488
309.69
307.923
306.185
304.477
302.799
301.151
299.533
297.944
296.385
294.855
293.354
291.883
290.441
289.029
287.645
286.291
284.966
283.67
282.404
281.166
279.957
278.778
277.627
276.506
275.413
274.35
273.316
272.31
271.334
270.387
269.469
268.58
267.72
266.889
266.087
265.314
264.571
263.856
263.171
262.514
261.887
261.289
260.72
260.18
259.669
259.187
258.735
258.311
257.917
257.552
257.216
256.909
256.632
256.383
256.164
255.973
255.812
255.68
255.578
255.504
255.46
255.444
398.616
395.852
393.09
390.335
387.587
384.851
382.126
379.416
376.723
374.048
371.393
368.76
366.15
363.563
361.002
358.467
355.96
353.48
351.029
348.607
346.214
343.851
341.519
339.217
336.946
334.706
332.496
330.318
328.17
326.054
323.968
321.913
319.89
317.897
315.935
314.003
312.102
310.232
308.392
306.583
304.803
303.055
301.336
299.647
297.989
296.36
294.762
293.194
291.655
290.146
288.667
287.218
285.799
284.41
283.05
281.72
280.42
279.15
277.909
276.698
275.517
274.365
273.244
272.152
271.09
270.057
269.055
268.082
267.139
266.226
265.342
264.489
263.665
262.871
262.107
261.373
260.669
259.994
259.35
258.735
258.15
257.595
257.07
256.576
256.11
255.675
255.27
254.895
254.55
254.234
253.949
253.694
253.468
253.273
253.107
252.972
252.866
252.79
252.745
252.729
398.606
395.822
393.039
390.263
387.494
384.735
381.988
379.255
376.537
373.837
371.156
368.495
365.856
363.24
360.648
358.081
355.54
353.026
350.54
348.082
345.653
343.253
340.882
338.542
336.231
333.951
331.701
329.481
327.293
325.135
323.008
320.911
318.846
316.811
314.807
312.834
310.891
308.979
307.098
305.248
303.428
301.639
299.88
298.152
296.454
294.786
293.15
291.543
289.967
288.422
286.906
285.421
283.967
282.543
281.149
279.786
278.453
277.15
275.878
274.636
273.425
272.244
271.093
269.973
268.883
267.824
266.796
265.798
264.83
263.893
262.986
262.11
261.265
260.45
259.666
258.913
258.19
257.498
256.836
256.205
255.605
255.035
254.497
253.988
253.511
253.064
252.648
252.263
251.909
251.585
251.292
251.03
250.798
250.598
250.428
250.289
250.18
250.103
250.056
250.039
398.596
395.789
392.985
390.187
387.396
384.614
381.843
379.086
376.343
373.617
370.908
368.219
365.551
362.905
360.282
357.684
355.11
352.563
350.042
347.549
345.083
342.646
340.238
337.859
335.51
333.19
330.901
328.641
326.412
324.214
322.046
319.908
317.802
315.726
313.681
311.667
309.684
307.731
305.809
303.919
302.059
300.23
298.432
296.665
294.928
293.223
291.548
289.904
288.291
286.71
285.158
283.638
282.149
280.691
279.264
277.867
276.502
275.168
273.864
272.592
271.351
270.141
268.962
267.814
266.697
265.612
264.557
263.534
262.543
261.582
260.653
259.755
258.888
258.053
257.249
256.476
255.735
255.025
254.347
253.7
253.084
252.5
251.948
251.427
250.937
250.479
250.053
249.658
249.294
248.962
248.662
248.393
248.155
247.949
247.775
247.632
247.521
247.441
247.393
247.376
398.584
395.755
392.929
390.108
387.293
384.487
381.692
378.909
376.141
373.388
370.652
367.935
365.238
362.562
359.908
357.278
354.672
352.091
349.536
347.007
344.506
342.033
339.587
337.171
334.783
332.425
330.097
327.798
325.529
323.291
321.083
318.906
316.759
314.643
312.558
310.503
308.48
306.488
304.526
302.596
300.697
298.829
296.992
295.187
293.413
291.67
289.958
288.278
286.628
285.011
283.425
281.87
280.346
278.855
277.394
275.966
274.568
273.203
271.869
270.567
269.296
268.057
266.85
265.675
264.532
263.42
262.341
261.293
260.277
259.294
258.342
257.422
256.535
255.679
254.855
254.064
253.305
252.578
251.883
251.22
250.589
249.991
249.425
248.891
248.39
247.92
247.483
247.078
246.706
246.366
246.058
245.782
245.539
245.328
245.15
245.003
244.889
244.808
244.758
244.741
398.573
395.72
392.87
390.025
387.186
384.356
381.535
378.727
375.932
373.152
370.389
367.643
364.917
362.21
359.526
356.864
354.225
351.611
349.022
346.459
343.923
341.413
338.932
336.478
334.053
331.657
329.29
326.953
324.645
322.368
320.121
317.904
315.718
313.563
311.438
309.344
307.282
305.25
303.25
301.281
299.343
297.437
295.563
293.719
291.908
290.128
288.38
286.663
284.979
283.326
281.705
280.116
278.559
277.035
275.542
274.081
272.653
271.256
269.892
268.561
267.261
265.994
264.76
263.558
262.388
261.251
260.146
259.074
258.035
257.029
256.055
255.114
254.205
253.33
252.487
251.677
250.9
250.156
249.444
248.766
248.121
247.508
246.929
246.382
245.869
245.388
244.941
244.527
244.145
243.797
243.482
243.2
242.951
242.735
242.552
242.402
242.285
242.202
242.151
242.134
398.561
395.684
392.809
389.939
387.076
384.22
381.374
378.54
375.718
372.91
370.119
367.344
364.588
361.852
359.137
356.443
353.772
351.125
348.503