/*--------------------------------*- C++ -*----------------------------------*\
  =========                 |
  \\      /  F ield         | OpenFOAM: The Open Source CFD Toolbox
   \\    /   O peration     | Website:  https://openfoam.org
    \\  /    A nd           | Version:  10
     \\/     M anipulation  |
\*---------------------------------------------------------------------------*/
FoamFile
{
    format      ascii;
    class       volScalarField;
    location    "2.1";
    object      T_0;
}
// * * * * * * * * * * * * * * * * * * * * * * * * * * * * * * * * * * * * * //

dimensions      [0 0 -1 0 0 0 0];

internalField   nonuniform List<scalar> 
100
(
-0.0164457
-0.048754
-0.0793352
-0.107106
-0.131082
-0.150415
-0.164419
-0.172599
-0.174664
-0.170542
-0.160378
-0.144533
-0.123567
-0.0982241
-0.0694016
-0.0381204
-0.00548883
0.0273372
0.0591948
0.0889554
0.115565
0.13808
0.155704
0.167812
0.173975
0.173975
0.167812
0.155704
0.13808
0.115564
0.0889549
0.0591943
0.0273367
-0.00548936
-0.0381209
-0.069402
-0.0982246
-0.123567
-0.144533
-0.160378
-0.170542
-0.174664
-0.172599
-0.16442
-0.150415
-0.131082
-0.107106
-0.0793351
-0.0487538
-0.0164453
0.0164457
0.0487542
0.0793355
0.107106
0.131083
0.150416
0.16442
0.172599
0.174664
0.170542
0.160378
0.144533
0.123567
0.0982243
0.0694018
0.0381206
0.00548903
-0.027337
-0.0591946
-0.0889552
-0.115565
-0.13808
-0.155704
-0.167812
-0.173975
-0.173975
-0.167812
-0.155704
-0.13808
-0.115564
-0.0889551
-0.0591945
-0.0273369
0.00548914
0.0381207
0.0694018
0.0982244
0.123567
0.144533
0.160378
0.170542
0.174664
0.172599
0.164419
0.150415
0.131082
0.107106
0.0793348
0.0487536
0.0164452
)
;

boundaryField
{
    inlet
    {
        type            cyclic;
    }
    outlet
    {
        type            cyclic;
    }
    bottom
    {
        type            slip;
    }
    top
    {
        type            slip;
    }
    frontAndBack
    {
        type            empty;
    }
}


// ************************************************************************* //
