/*--------------------------------*- C++ -*----------------------------------*\
  =========                 |
  \\      /  F ield         | OpenFOAM: The Open Source CFD Toolbox
   \\    /   O peration     | Website:  https://openfoam.org
    \\  /    A nd           | Version:  10
     \\/     M anipulation  |
\*---------------------------------------------------------------------------*/
FoamFile
{
    format      ascii;
    class       volScalarField;
    location    "4";
    object      T;
}
// * * * * * * * * * * * * * * * * * * * * * * * * * * * * * * * * * * * * * //

dimensions      [0 0 -1 0 0 0 0];

internalField   nonuniform List<scalar> 
100
(
0.0629369
0.18658
0.303613
0.409891
0.501648
0.575634
0.629227
0.660531
0.668434
0.652658
0.613761
0.553122
0.472887
0.375901
0.265598
0.145886
0.0210062
-0.104618
-0.226536
-0.340429
-0.442262
-0.528427
-0.595873
-0.64221
-0.665796
-0.665796
-0.64221
-0.595873
-0.528427
-0.442261
-0.340428
-0.226535
-0.104617
0.0210069
0.145887
0.265599
0.375902
0.472888
0.553122
0.613761
0.652658
0.668434
0.66053
0.629227
0.575633
0.501647
0.40989
0.303612
0.186579
0.0629356
-0.062937
-0.18658
-0.303613
-0.409891
-0.501648
-0.575634
-0.629227
-0.660531
-0.668434
-0.652658
-0.613761
-0.553121
-0.472887
-0.3759
-0.265597
-0.145885
-0.0210055
0.104619
0.226537
0.340429
0.442262
0.528428
0.595874
0.64221
0.665796
0.665796
0.64221
0.595873
0.528427
0.442261
0.340428
0.226535
0.104617
-0.0210076
-0.145888
-0.265599
-0.375902
-0.472888
-0.553122
-0.613762
-0.652658
-0.668434
-0.66053
-0.629227
-0.575633
-0.501647
-0.409889
-0.303612
-0.186578
-0.0629355
)
;

boundaryField
{
    inlet
    {
        type            cyclic;
    }
    outlet
    {
        type            cyclic;
    }
    bottom
    {
        type            slip;
    }
    top
    {
        type            slip;
    }
    frontAndBack
    {
        type            empty;
    }
}


// ************************************************************************* //
