/*--------------------------------*- C++ -*----------------------------------*\
  =========                 |
  \\      /  F ield         | OpenFOAM: The Open Source CFD Toolbox
   \\    /   O peration     | Website:  https://openfoam.org
    \\  /    A nd           | Version:  10
     \\/     M anipulation  |
\*---------------------------------------------------------------------------*/
FoamFile
{
    format      ascii;
    class       volScalarField;
    location    "4";
    object      T_0;
}
// * * * * * * * * * * * * * * * * * * * * * * * * * * * * * * * * * * * * * //

dimensions      [0 0 -1 0 0 0 0];

internalField   nonuniform List<scalar> 
100
(
0.0628591
0.186349
0.303237
0.409383
0.501027
0.574921
0.628449
0.659713
0.667607
0.65185
0.613002
0.552437
0.472302
0.375436
0.265269
0.145706
0.0209802
-0.104488
-0.226256
-0.340008
-0.441715
-0.527774
-0.595136
-0.641415
-0.664972
-0.664972
-0.641415
-0.595136
-0.527773
-0.441714
-0.340007
-0.226255
-0.104488
0.0209809
0.145706
0.26527
0.375436
0.472303
0.552438
0.613002
0.651851
0.667607
0.659713
0.628448
0.574921
0.501026
0.409382
0.303236
0.186348
0.0628577
-0.0628591
-0.186349
-0.303237
-0.409384
-0.501027
-0.574921
-0.628449
-0.659713
-0.667607
-0.65185
-0.613001
-0.552437
-0.472302
-0.375435
-0.265269
-0.145705
-0.0209795
0.104489
0.226256
0.340008
0.441715
0.527774
0.595136
0.641415
0.664972
0.664972
0.641415
0.595135
0.527773
0.441713
0.340006
0.226254
0.104487
-0.0209816
-0.145707
-0.265271
-0.375437
-0.472303
-0.552438
-0.613002
-0.651851
-0.667607
-0.659713
-0.628448
-0.574921
-0.501026
-0.409382
-0.303236
-0.186348
-0.0628576
)
;

boundaryField
{
    inlet
    {
        type            cyclic;
    }
    outlet
    {
        type            cyclic;
    }
    bottom
    {
        type            slip;
    }
    top
    {
        type            slip;
    }
    frontAndBack
    {
        type            empty;
    }
}


// ************************************************************************* //
