/*--------------------------------*- C++ -*----------------------------------*\
  =========                 |
  \\      /  F ield         | OpenFOAM: The Open Source CFD Toolbox
   \\    /   O peration     | Website:  https://openfoam.org
    \\  /    A nd           | Version:  10
     \\/     M anipulation  |
\*---------------------------------------------------------------------------*/
FoamFile
{
    format      ascii;
    class       volScalarField;
    location    "1.5";
    object      ddt0(T);
}
// * * * * * * * * * * * * * * * * * * * * * * * * * * * * * * * * * * * * * //

dimensions      [0 0 -1 1 0 0 0];

internalField   nonuniform List<scalar> 
10000
(
8437.54
4540.22
4405.8
4466.44
4492.94
4501.39
4504.06
4505.06
4505.56
4505.89
4506.15
4506.36
4506.54
4506.68
4506.78
4506.85
4506.9
4506.92
4506.92
4506.9
4506.86
4506.81
4506.76
4506.69
4506.62
4506.55
4506.48
4506.41
4506.34
4506.28
4506.22
4506.16
4506.11
4506.06
4506.02
4505.98
4505.95
4505.92
4505.9
4505.88
4505.86
4505.84
4505.83
4505.82
4505.81
4505.8
4505.8
4505.79
4505.79
4505.79
4505.79
4505.78
4505.78
4505.78
4505.78
4505.78
4505.78
4505.78
4505.78
4505.78
4505.78
4505.78
4505.78
4505.78
4505.78
4505.78
4505.78
4505.78
4505.78
4505.78
4505.78
4505.78
4505.78
4505.78
4505.78
4505.78
4505.78
4505.78
4505.78
4505.78
4505.78
4505.78
4505.78
4505.78
4505.78
4505.78
4505.78
4505.77
4505.77
4505.77
4505.76
4505.76
4505.74
4505.7
4505.56
4505.01
4503.04
4499.5
4544.37
5424.37
5210.01
-600.48
-739.304
-575.482
-503.608
-479.785
-472.012
-469.07
-467.587
-466.597
-465.826
-465.196
-464.682
-464.274
-463.964
-463.746
-463.611
-463.55
-463.555
-463.616
-463.723
-463.868
-464.041
-464.235
-464.442
-464.656
-464.871
-465.082
-465.286
-465.481
-465.663
-465.832
-465.986
-466.125
-466.25
-466.361
-466.458
-466.543
-466.616
-466.678
-466.731
-466.776
-466.814
-466.845
-466.871
-466.892
-466.909
-466.923
-466.934
-466.943
-466.95
-466.956
-466.96
-466.963
-466.966
-466.968
-466.969
-466.97
-466.971
-466.971
-466.972
-466.972
-466.972
-466.971
-466.971
-466.97
-466.97
-466.969
-466.968
-466.967
-466.966
-466.965
-466.964
-466.963
-466.962
-466.961
-466.96
-466.959
-466.958
-466.958
-466.958
-466.958
-466.959
-466.962
-466.965
-466.969
-466.975
-466.982
-466.992
-467.003
-467.018
-467.038
-467.075
-467.169
-467.481
-468.615
-472.597
-484.033
-494.738
-301.818
5072.7
-757.803
-774.916
-540.222
-439.934
-406.027
-394.615
-390.126
-387.776
-386.17
-384.906
-383.869
-383.023
-382.35
-381.841
-381.482
-381.262
-381.164
-381.175
-381.278
-381.458
-381.7
-381.989
-382.312
-382.657
-383.012
-383.37
-383.721
-384.061
-384.384
-384.687
-384.967
-385.223
-385.455
-385.662
-385.846
-386.008
-386.148
-386.27
-386.374
-386.462
-386.537
-386.599
-386.651
-386.694
-386.729
-386.758
-386.781
-386.799
-386.814
-386.826
-386.835
-386.842
-386.848
-386.852
-386.855
-386.858
-386.859
-386.86
-386.861
-386.862
-386.862
-386.862
-386.861
-386.861
-386.86
-386.859
-386.858
-386.856
-386.855
-386.853
-386.851
-386.849
-386.847
-386.845
-386.843
-386.842
-386.84
-386.839
-386.838
-386.838
-386.839
-386.841
-386.844
-386.849
-386.856
-386.866
-386.877
-386.892
-386.911
-386.934
-386.965
-387.015
-387.123
-387.431
-388.437
-391.747
-401.574
-422.84
-419.633
5117.08
-626.397
-576.796
-308.405
-194.058
-154.647
-140.945
-135.299
-132.205
-130.029
-128.299
-126.874
-125.71
-124.787
-124.09
-123.602
-123.304
-123.177
-123.2
-123.35
-123.607
-123.949
-124.355
-124.808
-125.29
-125.788
-126.288
-126.779
-127.253
-127.704
-128.126
-128.517
-128.875
-129.198
-129.487
-129.743
-129.969
-130.165
-130.334
-130.479
-130.602
-130.706
-130.793
-130.865
-130.925
-130.974
-131.014
-131.046
-131.072
-131.092
-131.109
-131.121
-131.132
-131.139
-131.145
-131.15
-131.153
-131.155
-131.157
-131.158
-131.159
-131.159
-131.159
-131.158
-131.157
-131.156
-131.155
-131.153
-131.151
-131.149
-131.147
-131.144
-131.142
-131.139
-131.136
-131.133
-131.131
-131.128
-131.127
-131.125
-131.125
-131.126
-131.129
-131.133
-131.14
-131.149
-131.162
-131.178
-131.198
-131.223
-131.254
-131.293
-131.35
-131.451
-131.684
-132.335
-134.269
-139.718
-152.275
-166.531
5138.15
-566.7
-491.108
-209.162
-88.5899
-46.3569
-31.2278
-24.7053
-20.9664
-18.2682
-16.0993
-14.3087
-12.8468
-11.6899
-10.8188
-10.2125
-9.84787
-9.69951
-9.74043
-9.94296
-10.2795
-10.7232
-11.2486
-11.8323
-12.453
-13.092
-13.7331
-14.3629
-14.9707
-15.548
-16.0888
-16.5889
-17.046
-17.4593
-17.8292
-18.1571
-18.4451
-18.6958
-18.9123
-19.0977
-19.2552
-19.388
-19.4992
-19.5916
-19.6678
-19.7303
-19.7811
-19.8222
-19.8552
-19.8815
-19.9024
-19.9188
-19.9316
-19.9415
-19.949
-19.9548
-19.959
-19.9621
-19.9642
-19.9656
-19.9663
-19.9665
-19.9662
-19.9656
-19.9645
-19.9631
-19.9614
-19.9593
-19.9569
-19.9542
-19.9513
-19.948
-19.9446
-19.941
-19.9373
-19.9337
-19.9303
-19.9273
-19.9249
-19.9233
-19.9228
-19.9238
-19.9267
-19.9319
-19.9399
-19.9511
-19.9662
-19.9857
-20.0103
-20.0407
-20.0782
-20.125
-20.187
-20.2808
-20.4533
-20.8384
-21.8056
-24.2623
-29.7006
-37.5279
5145.1
-546.555
-461.846
-174.689
-51.3521
-7.59104
8.50015
15.7259
20.0334
23.2113
25.787
27.9174
29.6551
31.0268
32.0552
32.7653
33.185
33.3452
33.2784
33.0178
32.5969
32.048
31.4016
30.6861
29.927
29.147
28.3652
27.598
26.8581
26.1558
25.4983
24.8905
24.3351
23.8331
23.3839
22.9858
22.6362
22.3318
22.0691
21.8441
21.653
21.4919
21.357
21.2449
21.1524
21.0767
21.015
20.9651
20.9251
20.8932
20.8679
20.848
20.8325
20.8205
20.8113
20.8044
20.7992
20.7955
20.7929
20.7912
20.7904
20.7901
20.7904
20.7912
20.7924
20.7941
20.7962
20.7987
20.8016
20.8048
20.8084
20.8124
20.8166
20.821
20.8254
20.8299
20.8342
20.838
20.8412
20.8434
20.8444
20.8436
20.8407
20.8351
20.8263
20.8137
20.7966
20.7744
20.7463
20.7115
20.6688
20.6163
20.5499
20.4591
20.3179
20.0655
19.5635
18.5116
16.4304
13.209
5147.39
-539.811
-451.787
-162.458
-37.725
6.99427
23.8118
31.6333
36.4491
40.0646
43.0131
45.4539
47.4419
49.006
50.1723
50.9697
51.431
51.5917
51.4899
51.1645
50.654
49.9962
49.2267
48.3782
47.4805
46.5598
45.6384
44.7351
43.8649
43.0394
42.267
41.5533
40.9014
40.3124
39.7856
39.3187
38.9089
38.5522
38.2443
37.9807
37.7567
37.5679
37.4099
37.2786
37.1703
37.0816
37.0094
36.951
36.9041
36.8668
36.8372
36.8139
36.7957
36.7817
36.7709
36.7628
36.7567
36.7523
36.7493
36.7473
36.7463
36.7459
36.7463
36.7472
36.7486
36.7506
36.753
36.7559
36.7592
36.763
36.7672
36.7718
36.7768
36.7819
36.7873
36.7926
36.7977
36.8025
36.8065
36.8095
36.8111
36.8108
36.8082
36.8026
36.7935
36.7802
36.7619
36.7378
36.7072
36.6692
36.6227
36.5663
36.497
36.4081
36.2841
36.0925
35.7762
35.2492
34.4266
33.2097
5148.29
-537.138
-447.659
-157.208
-31.6046
13.8204
31.2364
39.5787
44.8501
48.8607
52.1453
54.8644
57.0741
58.8058
60.0886
60.9552
61.4427
61.5916
61.4451
61.0471
60.4415
59.6711
58.7759
57.7934
56.7569
55.6961
54.6364
53.5987
52.6
51.6535
50.7684
49.9511
49.2049
48.5309
47.9283
47.3944
46.9259
46.5182
46.1663
45.8651
45.6093
45.3937
45.2132
45.0633
44.9396
44.8383
44.7559
44.6892
44.6357
44.5931
44.5593
44.5327
44.512
44.4959
44.4836
44.4743
44.4674
44.4624
44.4589
44.4567
44.4554
44.455
44.4554
44.4564
44.458
44.4602
44.4629
44.4662
44.4699
44.4742
44.479
44.4843
44.4899
44.4959
44.5021
44.5083
44.5143
44.52
44.525
44.5289
44.5314
44.5319
44.5299
44.5248
44.5159
44.5024
44.4836
44.4587
44.4267
44.3868
44.3379
44.2788
44.2077
44.1202
44.0065
43.8452
43.599
43.2295
42.7837
42.3992
5148.77
-535.708
-445.377
-154.181
-27.925
18.0774
36.0088
44.8104
50.4872
54.8492
58.4312
61.394
63.795
65.6676
67.044
67.9603
68.4579
68.5819
68.3801
67.9017
67.1954
66.3083
65.2853
64.1677
62.9925
61.7926
60.596
59.426
58.3012
57.236
56.2408
55.3223
54.4842
53.7276
53.0513
52.4524
51.9269
51.4698
51.0754
50.7378
50.4511
50.2095
50.0074
49.8395
49.7009
49.5875
49.4952
49.4205
49.3606
49.3129
49.275
49.2453
49.2221
49.2041
49.1903
49.1799
49.1721
49.1665
49.1626
49.1601
49.1586
49.1582
49.1585
49.1596
49.1614
49.1638
49.1668
49.1704
49.1746
49.1793
49.1847
49.1905
49.1969
49.2036
49.2106
49.2177
49.2247
49.2314
49.2374
49.2424
49.2459
49.2475
49.2464
49.2422
49.234
49.2211
49.2027
49.1778
49.1456
49.1051
49.0552
48.9949
48.9229
48.8364
48.7291
48.5846
48.3676
48.0298
47.6345
47.6654
5149.11
-534.706
-443.747
-151.966
-25.1719
21.3243
39.7047
48.9093
54.9416
59.6102
63.4492
66.6198
69.1803
71.1661
72.6121
73.558
74.049
74.1345
73.8671
73.3002
72.4873
71.48
70.3271
69.0736
67.7601
66.4224
65.0908
63.7907
62.5425
61.3615
60.259
59.2422
58.3149
57.4781
56.7305
56.0687
55.4882
54.9834
54.5479
54.1753
53.8589
53.5923
53.3693
53.1841
53.0313
52.9062
52.8044
52.7221
52.656
52.6034
52.5616
52.5288
52.5032
52.4834
52.4682
52.4567
52.4482
52.4419
52.4376
52.4348
52.4332
52.4326
52.433
52.4341
52.436
52.4386
52.4418
52.4458
52.4503
52.4555
52.4614
52.4678
52.4748
52.4822
52.4901
52.4981
52.506
52.5138
52.5209
52.5271
52.5318
52.5346
52.5349
52.532
52.525
52.5134
52.4961
52.4722
52.4409
52.401
52.3516
52.2917
52.2201
52.1351
52.0324
51.8987
51.6976
51.3581
50.9074
51.2097
5149.38
-533.901
-442.426
-150.155
-22.9018
24.0199
42.7886
52.3413
58.679
63.6088
67.6639
71.0055
73.6931
75.7639
77.2554
78.2105
78.6782
78.7119
78.3682
77.7052
76.7803
75.6492
74.3646
72.975
71.524
70.0501
68.5858
67.1584
65.7897
64.496
63.2894
62.1773
61.1638
60.2497
59.4333
58.711
58.0776
57.5269
57.052
56.6458
56.3009
56.0104
55.7674
55.5656
55.3991
55.2628
55.152
55.0624
54.9904
54.9331
54.8877
54.8519
54.8241
54.8025
54.7859
54.7734
54.764
54.7573
54.7525
54.7494
54.7476
54.747
54.7473
54.7485
54.7505
54.7532
54.7567
54.7609
54.7658
54.7714
54.7777
54.7846
54.7922
54.8004
54.809
54.8178
54.8268
54.8356
54.8439
54.8514
54.8575
54.8618
54.8637
54.8624
54.8572
54.8474
54.8319
54.81
54.7805
54.7426
54.6952
54.6372
54.5677
54.4853
54.3871
54.262
54.0732
53.7288
53.2007
53.7117
5149.61
-533.226
-441.316
-148.629
-20.9846
26.2997
45.3984
55.2454
61.8389
66.9845
71.2147
74.6907
77.4731
79.601
81.114
82.0584
82.4863
82.4551
82.0253
81.2588
80.2169
78.9591
77.5416
76.016
74.4288
72.8206
71.2264
69.6748
68.1889
66.786
65.4787
64.2747
63.1782
62.1897
61.3074
60.527
59.843
59.2484
58.7359
58.2975
57.9255
57.6121
57.35
57.1324
56.953
56.8061
56.6865
56.59
56.5125
56.4507
56.4017
56.3632
56.3332
56.3099
56.2921
56.2785
56.2685
56.2611
56.256
56.2526
56.2506
56.2499
56.2502
56.2514
56.2535
56.2563
56.26
56.2644
56.2695
56.2755
56.2822
56.2896
56.2978
56.3066
56.3159
56.3256
56.3356
56.3455
56.355
56.3638
56.3715
56.3774
56.3811
56.3818
56.3789
56.3714
56.3585
56.3392
56.3127
56.2778
56.2336
56.1791
56.1132
56.0351
55.9422
55.8256
55.6487
55.3046
54.7088
55.3856
5149.8
-532.661
-440.385
-147.35
-19.3777
28.2089
47.5812
57.6696
64.4704
69.7873
74.1524
77.7272
80.573
82.7307
84.2423
85.1567
85.5294
85.421
84.8958
84.0191
82.856
81.4692
79.9181
78.2572
76.5353
74.7956
73.0745
71.4022
69.8028
68.2945
66.8902
65.598
64.4218
63.3622
62.4168
61.581
60.8486
60.2123
59.6639
59.195
58.7972
58.4621
58.1819
57.9494
57.7576
57.6006
57.4729
57.3698
57.287
57.221
57.1687
57.1276
57.0955
57.0706
57.0515
57.0371
57.0263
57.0184
57.0129
57.0092
57.0071
57.0062
57.0065
57.0077
57.0098
57.0128
57.0165
57.0211
57.0265
57.0328
57.0398
57.0477
57.0564
57.0657
57.0758
57.0863
57.0972
57.1081
57.1189
57.1291
57.1383
57.1461
57.1518
57.1548
57.1543
57.1496
57.1398
57.124
57.1012
57.0704
57.0306
56.9809
56.9203
56.8479
56.7618
56.6543
56.4901
56.1524
55.5096
56.3138
5149.95
-532.196
-439.62
-146.3
-18.0607
29.7705
49.3619
59.6411
66.6021
72.0477
76.5093
80.1485
83.0278
85.1896
86.678
87.5445
87.8474
87.6507
87.0218
86.0293
84.7414
83.2241
81.5394
79.7444
77.8903
76.0219
74.1775
72.3884
70.6796
69.0699
67.5726
66.1959
64.9437
63.8162
62.8108
61.9224
61.1442
60.4682
59.8859
59.3881
58.9658
58.6103
58.313
58.0663
57.863
57.6965
57.5611
57.4517
57.3639
57.294
57.2385
57.195
57.1609
57.1346
57.1143
57.099
57.0875
57.0792
57.0732
57.0693
57.067
57.066
57.0662
57.0674
57.0695
57.0725
57.0764
57.0812
57.0868
57.0932
57.1006
57.1088
57.1179
57.1278
57.1384
57.1497
57.1615
57.1734
57.1854
57.197
57.2079
57.2175
57.2254
57.2308
57.2332
57.2316
57.2254
57.2135
57.1951
57.1692
57.1349
57.0911
57.037
56.9718
56.894
56.7966
56.6461
56.3207
55.6535
56.5487
5150.08
-531.826
-439.011
-145.465
-17.0168
31.0044
50.7633
61.1852
68.2623
73.7962
78.318
81.9896
84.8745
87.0164
88.4616
89.2638
89.484
89.1891
88.4493
87.3363
85.9213
84.2727
82.4551
80.528
78.5444
76.551
74.5872
72.6854
70.8715
69.1648
67.5787
66.1215
64.797
63.6052
62.5429
61.6047
60.7832
60.0699
59.4555
58.9305
58.4853
58.1104
57.7972
57.5372
57.3229
57.1475
57.0049
56.8897
56.7973
56.7236
56.6652
56.6193
56.5835
56.5557
56.5344
56.5182
56.5061
56.4973
56.491
56.4868
56.4843
56.4832
56.4833
56.4844
56.4866
56.4896
56.4935
56.4984
56.5041
56.5108
56.5183
56.5269
56.5363
56.5467
56.5579
56.5698
56.5823
56.5953
56.6084
56.6214
56.6339
56.6454
56.6555
56.6635
56.6688
56.6706
56.6682
56.6608
56.6473
56.627
56.5988
56.5619
56.5154
56.4586
56.3901
56.304
56.1682
55.8599
55.1895
56.1422
5150.17
-531.544
-438.547
-144.832
-16.2275
31.9327
51.811
62.3309
69.4829
75.0679
79.6165
83.2911
86.1561
88.2565
89.6405
90.3639
90.4902
90.0887
89.2323
87.9954
86.4516
84.6718
82.723
80.6663
78.5567
76.4422
74.3634
72.3536
70.4392
68.64
66.9695
65.436
64.0431
62.7905
61.6746
60.6894
59.8272
59.0788
58.4344
57.8839
57.4171
57.0242
56.6959
56.4236
56.1991
56.0154
55.866
55.7454
55.6486
55.5714
55.5103
55.4623
55.4248
55.3957
55.3733
55.3564
55.3437
55.3344
55.3278
55.3233
55.3206
55.3194
55.3194
55.3205
55.3226
55.3256
55.3296
55.3345
55.3403
55.347
55.3548
55.3635
55.3733
55.384
55.3956
55.4081
55.4214
55.4352
55.4494
55.4637
55.4777
55.4911
55.5034
55.514
55.5223
55.5277
55.5293
55.5265
55.5184
55.504
55.4826
55.4532
55.4151
55.3675
55.3095
55.2354
55.1152
54.8281
54.1725
55.1525
5150.24
-531.342
-438.217
-144.383
-15.6721
32.5803
52.5343
63.1114
70.301
75.9031
80.4484
84.0997
86.9221
88.9619
90.269
90.9012
90.9241
90.4093
89.432
88.069
86.396
84.4863
82.4084
80.2255
77.9939
75.7627
73.5736
71.4607
69.4507
67.5637
65.8133
64.2078
62.7505
61.4407
60.2744
59.2453
58.3449
57.5637
56.8913
56.317
55.8301
55.4205
55.0782
54.7943
54.5604
54.3689
54.2133
54.0876
53.9868
53.9064
53.8428
53.7927
53.7536
53.7233
53.7
53.6824
53.6691
53.6594
53.6524
53.6477
53.6449
53.6435
53.6434
53.6444
53.6464
53.6494
53.6534
53.6583
53.6641
53.6709
53.6788
53.6876
53.6976
53.7085
53.7206
53.7335
53.7474
53.762
53.7771
53.7926
53.8081
53.8232
53.8376
53.8508
53.8621
53.871
53.8768
53.8787
53.876
53.8678
53.8535
53.832
53.8028
53.7651
53.718
53.6566
53.5528
53.2899
52.6636
53.6453
5150.28
-531.213
-438.007
-144.101
-15.3276
32.9751
52.9654
63.5632
70.757
76.3464
80.862
84.4668
87.2269
89.1898
90.4069
90.9377
90.8497
90.2165
89.1156
87.6255
85.8242
83.7864
81.5827
79.2774
76.9282
74.5853
72.291
70.08
67.9795
66.0096
64.1841
62.5109
60.9932
59.6298
58.4166
57.3464
56.4105
55.5988
54.9003
54.3039
53.7984
53.3732
53.018
52.7234
52.4807
52.2821
52.1207
51.9904
51.8858
51.8025
51.7365
51.6846
51.644
51.6126
51.5885
51.5701
51.5563
51.5462
51.5389
51.534
51.5309
51.5294
51.5292
51.5301
51.5321
51.535
51.5389
51.5437
51.5495
51.5564
51.5642
51.5732
51.5832
51.5944
51.6066
51.62
51.6343
51.6495
51.6655
51.682
51.6988
51.7156
51.732
51.7475
51.7617
51.774
51.7838
51.7904
51.7932
51.7913
51.784
51.7706
51.7504
51.7228
51.687
51.6386
51.5516
51.3152
50.7292
51.6912
5150.31
-531.149
-437.904
-143.966
-15.1696
33.1465
53.1385
63.7253
70.8944
76.4452
80.9081
84.4469
87.1282
89.0008
90.1172
90.5386
90.3343
89.5796
88.3536
86.7369
84.8089
82.6461
80.3203
77.8972
75.4355
72.986
70.592
68.2883
66.1025
64.0548
62.1587
60.4223
58.8482
57.435
56.1781
55.0698
54.101
53.261
52.5384
51.9215
51.3989
50.9593
50.5922
50.2878
50.037
49.8319
49.6651
49.5305
49.4225
49.3365
49.2683
49.2147
49.1728
49.1404
49.1154
49.0964
49.0822
49.0716
49.0641
49.0589
49.0557
49.054
49.0536
49.0544
49.0563
49.0591
49.0629
49.0677
49.0734
49.0802
49.088
49.097
49.107
49.1183
49.1307
49.1442
49.1589
49.1746
49.1913
49.2086
49.2266
49.2448
49.2629
49.2807
49.2976
49.3131
49.3267
49.3378
49.3458
49.35
49.3497
49.3443
49.3331
49.3155
49.291
49.2555
49.1853
48.9769
48.439
49.3643
5150.31
-531.141
-437.894
-143.959
-15.1727
33.125
53.0892
63.6377
70.7576
76.248
80.6394
84.096
86.6852
88.4568
89.4645
89.771
89.4468
88.5689
87.2181
85.4763
83.4245
81.1405
78.6972
76.1614
73.5924
71.0421
68.5538
66.163
63.8972
61.7767
59.815
58.0197
56.3933
54.934
53.6366
52.4931
51.4939
50.6279
49.883
49.2474
48.709
48.2562
47.8782
47.5648
47.3066
47.0954
46.9238
46.7853
46.6742
46.5856
46.5155
46.4603
46.4172
46.3838
46.3581
46.3386
46.3239
46.313
46.3052
46.2998
46.2963
46.2945
46.294
46.2947
46.2964
46.2991
46.3028
46.3074
46.3131
46.3197
46.3274
46.3363
46.3463
46.3575
46.3699
46.3836
46.3985
46.4146
46.4317
46.4498
46.4686
46.488
46.5077
46.5274
46.5467
46.5652
46.5823
46.5976
46.6105
46.6205
46.6268
46.629
46.6264
46.6186
46.6049
46.582
46.5282
46.3483
45.8636
46.7394
5150.3
-531.181
-437.961
-144.06
-15.3119
32.941
52.8527
63.3405
70.3912
75.8034
80.1082
83.47
85.9569
87.6197
88.5132
88.7011
88.2554
87.2545
85.7804
83.9164
81.7446
79.3439
76.7882
74.1451
71.4748
68.8294
66.2527
63.7804
61.44
59.2519
57.2292
55.3794
53.7047
52.2028
50.8681
49.6924
48.6653
47.7753
47.0102
46.3574
45.8045
45.3397
44.9517
44.63
44.3651
44.1485
43.9725
43.8304
43.7164
43.6256
43.5536
43.4971
43.4529
43.4186
43.3922
43.3721
43.357
43.3458
43.3377
43.3321
43.3285
43.3265
43.3258
43.3264
43.328
43.3305
43.3341
43.3386
43.344
43.3505
43.3581
43.3668
43.3766
43.3877
43.4001
43.4137
43.4287
43.4449
43.4623
43.4809
43.5005
43.5209
43.5418
43.5632
43.5845
43.6055
43.6258
43.6449
43.6623
43.6775
43.69
43.6992
43.7047
43.706
43.7027
43.6917
43.6535
43.502
43.0728
43.8901
5150.27
-531.259
-438.093
-144.249
-15.5622
32.6242
52.4637
62.8729
69.8383
75.1588
79.3653
82.6229
85.0004
86.5493
87.3253
87.3933
86.8264
85.704
84.1094
82.1269
79.8397
77.3275
74.6652
71.9208
69.1551
66.4206
63.7615
61.2134
58.8039
56.5531
54.4742
52.5743
50.8551
49.3141
47.9454
46.74
45.6875
44.7757
43.992
43.3236
42.7576
42.2819
41.8848
41.5557
41.2847
41.0631
40.883
40.7377
40.6211
40.5282
40.4547
40.3968
40.3516
40.3166
40.2896
40.269
40.2535
40.242
40.2337
40.2279
40.2241
40.2219
40.2211
40.2215
40.2229
40.2253
40.2287
40.233
40.2383
40.2445
40.2519
40.2603
40.27
40.2809
40.2931
40.3066
40.3215
40.3377
40.3553
40.3741
40.3941
40.4152
40.4371
40.4598
40.4828
40.506
40.529
40.5513
40.5727
40.5926
40.6106
40.6262
40.639
40.6487
40.6548
40.6547
40.6312
40.5071
40.1337
40.8869
5150.23
-531.367
-438.275
-144.508
-15.9004
32.2029
51.9549
62.272
69.1403
74.3589
78.4592
81.6064
83.87
85.3022
85.9597
85.9083
85.2219
83.9811
82.2699
80.1737
77.7764
75.1586
72.3956
69.5562
66.7014
63.884
61.1483
58.5301
56.0568
53.7484
51.6179
49.672
47.9122
46.3356
44.9358
43.7035
42.6278
41.6963
40.8958
40.2132
39.6354
39.1497
38.7444
38.4086
38.1321
37.906
37.7223
37.5741
37.4552
37.3604
37.2854
37.2264
37.1803
37.1446
37.117
37.096
37.0802
37.0684
37.0598
37.0538
37.0498
37.0475
37.0466
37.0468
37.048
37.0503
37.0534
37.0575
37.0625
37.0686
37.0756
37.0838
37.0932
37.1038
37.1157
37.1289
37.1436
37.1597
37.1772
37.1961
37.2163
37.2378
37.2605
37.284
37.3084
37.3333
37.3584
37.3835
37.4082
37.4321
37.4549
37.4761
37.4954
37.5124
37.527
37.5367
37.5266
37.4283
37.1094
37.7956
5150.19
-531.499
-438.496
-144.819
-16.3044
31.7035
51.357
61.5721
68.3353
73.4456
77.4345
80.4679
82.6157
83.9309
84.4708
84.302
83.4994
82.1443
80.3214
78.117
75.6156
72.8983
70.0411
67.1131
64.1755
61.2815
58.4752
55.7924
53.2607
50.8996
48.722
46.7342
44.9375
43.3285
41.9005
40.6439
39.5472
38.5978
37.7822
37.0868
36.4983
36.0037
35.5911
35.2492
34.9677
34.7376
34.5507
34.3998
34.2789
34.1825
34.1062
34.0461
33.9992
33.9628
33.9347
33.9133
33.8972
33.8852
33.8764
33.8702
33.866
33.8635
33.8624
33.8625
33.8636
33.8656
33.8685
33.8724
33.8772
33.8829
33.8897
33.8975
33.9065
33.9167
33.9283
33.9412
33.9555
33.9713
33.9886
34.0073
34.0276
34.0492
34.0722
34.0964
34.1216
34.1477
34.1745
34.2018
34.2291
34.2563
34.2831
34.309
34.3338
34.3573
34.3791
34.3974
34.3991
34.3245
34.0573
34.6761
5150.14
-531.648
-438.743
-145.167
-16.7543
31.1498
50.6975
60.8048
67.458
72.4563
76.3317
79.2504
81.2829
82.4826
82.9075
82.625
81.7105
80.2461
78.3173
76.0108
73.4116
70.6016
67.6568
64.6467
61.6328
58.6681
55.7971
53.0554
50.4703
48.0613
45.8408
43.8151
41.985
40.3467
38.8933
37.6148
36.4993
35.5338
34.7046
33.9978
33.3997
32.8971
32.4779
32.1306
31.8447
31.611
31.4212
31.268
31.1452
31.0473
30.9698
30.9089
30.8612
30.8243
30.7958
30.774
30.7576
30.7453
30.7363
30.73
30.7256
30.723
30.7217
30.7216
30.7225
30.7243
30.727
30.7306
30.7351
30.7405
30.7469
30.7544
30.763
30.7728
30.7839
30.7963
30.8102
30.8256
30.8425
30.8609
30.8809
30.9024
30.9254
30.9498
30.9756
31.0025
31.0305
31.0592
31.0886
31.1184
31.1483
31.178
31.2073
31.236
31.2639
31.2894
31.3013
31.2481
31.0288
31.5817
5150.09
-531.806
-439.008
-145.538
-17.2326
30.5631
50.0012
59.9977
66.5391
71.4247
75.1868
77.9921
79.9114
80.9988
81.3128
80.9213
79.9004
78.3327
76.3043
73.9022
71.2121
68.3159
65.2903
62.2046
59.1207
56.0916
53.1616
50.3663
47.7328
45.2804
43.0213
40.9614
39.1011
37.4367
35.9604
34.6622
33.5299
32.5501
31.7087
30.9917
30.385
29.8754
29.4503
29.0982
28.8084
28.5715
28.3791
28.2239
28.0994
28.0002
27.9217
27.8599
27.8116
27.7741
27.7452
27.7232
27.7064
27.694
27.6848
27.6783
27.6738
27.671
27.6696
27.6693
27.67
27.6716
27.6741
27.6774
27.6816
27.6867
27.6927
27.6997
27.7079
27.7172
27.7278
27.7397
27.753
27.7678
27.7841
27.8021
27.8216
27.8428
27.8655
27.8899
27.9157
27.943
27.9716
28.0013
28.0321
28.0637
28.0959
28.1285
28.1613
28.1941
28.2269
28.2582
28.2787
28.2443
28.0683
28.5582
5150.03
-531.97
-439.28
-145.92
-17.7239
29.9618
49.2893
59.1749
65.605
70.3794
74.0305
76.7255
78.5356
79.5152
79.7235
79.2288
78.1077
76.4432
74.3219
71.8311
69.057
66.0816
62.9818
59.8272
56.6795
53.5918
50.6083
47.7646
45.0874
42.596
40.3022
38.2116
36.3245
34.6365
33.1399
31.8242
30.6769
29.6843
28.8321
28.106
27.4918
26.9759
26.5456
26.1892
25.8959
25.6562
25.4616
25.3045
25.1786
25.0782
24.9988
24.9363
24.8874
24.8495
24.8203
24.7979
24.781
24.7683
24.759
24.7523
24.7477
24.7447
24.7431
24.7427
24.7432
24.7446
24.7468
24.7499
24.7537
24.7584
24.7641
24.7707
24.7783
24.7871
24.7971
24.8084
24.8211
24.8352
24.8509
24.8682
24.8871
24.9076
24.9299
24.9539
24.9795
25.0067
25.0354
25.0656
25.0971
25.1298
25.1635
25.1981
25.2334
25.2693
25.3057
25.3415
25.3688
25.3505
25.2131
25.6439
5149.98
-532.134
-439.553
-146.302
-18.2153
29.3613
48.5798
58.3565
64.6782
69.3446
72.8888
75.478
77.184
78.0616
78.1703
77.5788
76.3643
74.6099
72.4027
69.8304
66.9791
63.9314
60.7641
57.5468
54.3414
51.2008
48.1692
45.282
42.5657
40.0393
37.7145
35.5966
33.6855
31.9767
30.462
29.1307
27.9701
26.9663
26.1046
25.3705
24.7495
24.2281
23.7933
23.4331
23.1368
22.8946
22.6979
22.5393
22.4121
22.3107
22.2305
22.1673
22.118
22.0796
22.0501
22.0275
22.0103
21.9975
21.988
21.9812
21.9764
21.9733
21.9716
21.971
21.9713
21.9725
21.9745
21.9772
21.9808
21.9851
21.9903
21.9965
22.0036
22.0118
22.0212
22.0318
22.0438
22.0572
22.0721
22.0886
22.1067
22.1265
22.148
22.1713
22.1963
22.2231
22.2515
22.2816
22.3133
22.3464
22.3809
22.4167
22.4536
22.4915
22.5304
22.5694
22.602
22.597
22.4931
22.8693
5149.92
-532.295
-439.821
-146.676
-18.6962
28.7745
47.8874
57.5592
63.7767
68.3401
71.7826
74.2719
75.8799
76.6619
76.6777
75.9965
74.6955
72.8585
70.5725
67.9257
65.0043
61.891
58.6625
55.3888
52.1314
48.9434
45.8688
42.9426
40.1915
37.6341
35.2817
33.1396
31.2072
29.48
27.9494
26.6044
25.4321
24.4183
23.5482
22.8071
22.1803
21.654
21.2152
20.8517
20.5527
20.3084
20.11
19.9499
19.8216
19.7193
19.6384
19.5747
19.5249
19.4862
19.4564
19.4335
19.4162
19.4032
19.3936
19.3866
19.3817
19.3785
19.3766
19.3758
19.376
19.377
19.3787
19.3812
19.3844
19.3884
19.3932
19.3988
19.4054
19.4131
19.4218
19.4317
19.4429
19.4555
19.4695
19.4851
19.5023
19.5212
19.5418
19.5641
19.5883
19.6143
19.6421
19.6717
19.703
19.736
19.7706
19.8067
19.8443
19.8833
19.9236
19.9646
20.0009
20.0068
19.9314
20.258
5149.87
-532.449
-440.079
-147.036
-19.1581
28.2112
47.2237
56.7958
62.9148
67.3812
70.7283
73.1241
74.641
75.3344
75.2646
74.5008
73.1207
71.2083
68.8508
66.1364
63.1517
59.9792
56.6959
53.3715
50.0678
46.8375
43.7245
40.7639
37.9819
35.3969
33.0203
30.8567
28.9057
27.1622
25.6176
24.2606
23.0781
22.0556
21.1782
20.4309
19.799
19.2685
18.8261
18.4598
18.1585
17.9123
17.7123
17.551
17.4217
17.3187
17.2372
17.173
17.1228
17.0838
17.0538
17.0307
17.0133
17.0001
16.9904
16.9833
16.9783
16.9749
16.9729
16.9719
16.9719
16.9727
16.9742
16.9764
16.9793
16.9829
16.9872
16.9924
16.9985
17.0055
17.0136
17.0228
17.0332
17.0449
17.058
17.0726
17.0888
17.1066
17.1261
17.1474
17.1704
17.1954
17.2222
17.2508
17.2813
17.3136
17.3478
17.3836
17.4211
17.4604
17.5012
17.5431
17.5818
17.5961
17.5445
17.8264
5149.82
-532.596
-440.322
-147.377
-19.5948
27.6792
46.5972
56.0761
62.1032
66.4793
69.738
72.0475
73.4805
74.0927
73.9445
73.1056
71.6537
69.6729
67.2509
64.4758
61.4342
58.2088
54.8766
51.5072
48.1622
44.8945
41.7477
38.7565
35.9473
33.3382
30.9402
28.7579
26.7906
25.0329
23.4761
22.1086
20.9171
19.887
19.0032
18.2506
17.6143
17.0801
16.6347
16.2659
15.9626
15.7147
15.5135
15.3511
15.221
15.1173
15.0352
14.9706
14.9201
14.8809
14.8506
14.8274
14.8097
14.7965
14.7866
14.7794
14.7743
14.7708
14.7687
14.7676
14.7673
14.7679
14.7692
14.7711
14.7737
14.7769
14.7809
14.7856
14.7911
14.7976
14.8049
14.8134
14.823
14.8338
14.8459
14.8595
14.8746
14.8912
14.9095
14.9295
14.9514
14.975
15.0005
15.0279
15.0573
15.0885
15.1216
15.1566
15.1934
15.2321
15.2726
15.3145
15.3543
15.3749
15.3427
15.5848
5149.78
-532.733
-440.55
-147.694
-20.0017
27.1837
46.0142
55.4068
61.3492
65.6423
68.8199
71.0506
72.4071
72.9455
72.7264
71.8195
70.303
68.261
65.7811
62.9518
59.8596
56.5873
53.2117
49.8025
46.4212
43.1204
39.9438
36.926
34.0929
31.4627
29.046
26.8474
24.8658
23.0958
21.5283
20.1518
18.9525
17.9159
17.0266
16.2693
15.6292
15.0918
14.6438
14.2729
13.9678
13.7185
13.5161
13.3529
13.222
13.1178
13.0352
12.9703
12.9195
12.88
12.8495
12.8262
12.8084
12.7951
12.7851
12.7778
12.7726
12.769
12.7667
12.7654
12.7651
12.7654
12.7665
12.7681
12.7704
12.7733
12.7769
12.7811
12.7861
12.792
12.7987
12.8064
12.8152
12.8251
12.8362
12.8487
12.8626
12.8781
12.8951
12.9137
12.9341
12.9563
12.9804
13.0063
13.0341
13.0639
13.0956
13.1292
13.1648
13.2023
13.2417
13.2828
13.3227
13.3478
13.3309
13.538
5149.74
-532.859
-440.759
-147.987
-20.3762
26.728
45.4784
54.7923
60.6574
64.8749
67.979
70.1383
71.4258
71.8977
71.615
70.6473
69.0731
66.9765
64.4453
61.5679
58.431
55.1172
51.7034
48.2592
44.8461
41.5164
38.3138
35.2727
32.4189
29.7702
27.3374
25.1246
23.1307
21.35
19.7734
18.3889
17.183
16.1407
15.2467
14.4855
13.842
13.3019
12.8517
12.4789
12.1723
11.9218
11.7185
11.5545
11.423
11.3182
11.2353
11.17
11.119
11.0793
11.0487
11.0252
11.0074
10.9939
10.9838
10.9764
10.9711
10.9674
10.965
10.9637
10.9631
10.9633
10.9641
10.9655
10.9675
10.9701
10.9733
10.9771
10.9816
10.9868
10.9929
10.9999
11.0078
11.0168
11.027
11.0384
11.0512
11.0653
11.081
11.0982
11.1171
11.1377
11.1601
11.1844
11.2105
11.2385
11.2685
11.3004
11.3342
11.3701
11.4079
11.4475
11.4867
11.5145
11.5096
11.6859
5149.7
-532.973
-440.95
-148.253
-20.7166
26.3139
44.9918
54.2343
60.0297
64.1793
67.2173
69.3125
70.5383
70.951
70.6115
69.59
67.9645
65.8197
63.2432
60.3236
57.1474
53.7973
50.3501
46.8754
43.4345
40.0797
36.8546
33.7932
30.9214
28.2569
25.8101
23.5851
21.5806
19.7907
18.2062
16.815
15.6034
14.5562
13.6581
12.8935
12.2472
11.7048
11.2526
10.8783
10.5705
10.3189
10.1148
9.95007
9.81805
9.71289
9.62962
9.5641
9.51285
9.47302
9.44226
9.41867
9.4007
9.38713
9.377
9.36952
9.36412
9.36034
9.35782
9.35632
9.35565
9.35566
9.35629
9.35747
9.35918
9.36143
9.36422
9.36761
9.37162
9.37631
9.38176
9.38802
9.39518
9.40332
9.41251
9.42286
9.43443
9.44732
9.46162
9.4774
9.49473
9.5137
9.53437
9.5568
9.58104
9.60713
9.6351
9.66499
9.69682
9.73061
9.76639
9.80399
9.84169
9.87094
9.87486
10.0245
5149.66
-533.076
-441.121
-148.492
-21.0228
25.9416
44.5544
53.7332
59.4664
63.5552
66.5344
68.5728
69.7439
70.1041
69.7146
68.6455
66.9751
64.788
62.1719
59.2153
56.0048
52.6231
49.1469
45.6457
42.1808
38.8044
35.5597
32.4809
29.5937
26.9155
24.4567
22.2212
20.2076
18.4099
16.8186
15.4217
14.2052
13.1539
12.2524
11.4848
10.8361
10.2917
9.83794
9.46228
9.15336
8.90097
8.69609
8.53084
8.39837
8.29285
8.2093
8.14356
8.09214
8.05216
8.02129
7.9976
7.97954
7.9659
7.95569
7.94815
7.94267
7.9388
7.93618
7.93457
7.93376
7.93362
7.93405
7.93502
7.93647
7.93842
7.94087
7.94385
7.9474
7.95156
7.95641
7.962
7.9684
7.97568
7.98393
7.99323
8.00366
8.01531
8.02824
8.04255
8.05832
8.07561
8.0945
8.11505
8.13731
8.16134
8.18718
8.21486
8.24441
8.27588
8.30929
8.34452
8.38024
8.40977
8.42001
8.5465
5149.63
-533.168
-441.274
-148.705
-21.2954
25.6103
44.1654
53.2877
58.9657
63.001
65.9282
67.9166
69.0395
69.3538
68.9204
67.8097
66.1001
63.8761
61.2256
58.2369
54.9968
51.5877
48.0865
44.5626
41.0769
37.6819
34.4204
31.3268
28.4263
25.7365
23.2675
21.023
19.0017
17.1973
15.6003
14.1985
12.9778
11.923
11.0185
10.2486
9.59784
9.05174
8.59659
8.21981
7.90998
7.65685
7.45138
7.28565
7.15281
7.04699
6.9632
6.89727
6.8457
6.8056
6.77463
6.75085
6.73273
6.71902
6.70875
6.70114
6.69559
6.69164
6.68894
6.68722
6.68628
6.686
6.68626
6.68702
6.68824
6.68991
6.69204
6.69464
6.69776
6.70143
6.70571
6.71066
6.71633
6.72281
6.73016
6.73846
6.74778
6.75821
6.76982
6.78269
6.7969
6.81252
6.82962
6.84827
6.86852
6.89043
6.91404
6.93941
6.96655
6.99552
7.02634
7.05894
7.0923
7.12124
7.1357
7.24232
5149.61
-533.249
-441.408
-148.893
-21.5357
25.3183
43.8227
52.8953
58.5249
62.5132
65.3951
67.3397
68.4207
68.6949
68.2235
67.0767
65.3332
63.0773
60.397
57.3807
54.115
50.6826
47.1599
43.6164
40.113
36.7021
33.4264
30.32
27.4083
24.7086
22.2309
19.9789
17.951
16.1409
14.5391
13.1331
11.9089
10.8512
9.94426
9.17224
8.51979
7.97228
7.51597
7.13825
6.82765
6.57391
6.36794
6.20182
6.06866
5.96258
5.8786