/*--------------------------------*- C++ -*----------------------------------*\
  =========                 |
  \\      /  F ield         | OpenFOAM: The Open Source CFD Toolbox
   \\    /   O peration     | Website:  https://openfoam.org
    \\  /    A nd           | Version:  10
     \\/     M anipulation  |
\*---------------------------------------------------------------------------*/
FoamFile
{
    format      ascii;
    class       volScalarField;
    location    "1.5";
    object      T;
}
// * * * * * * * * * * * * * * * * * * * * * * * * * * * * * * * * * * * * * //

dimensions      [0 0 0 1 0 0 0];

internalField   nonuniform List<scalar> 
10000
(
374.672
360.316
354.985
352.294
350.555
349.245
348.168
347.239
346.417
345.677
345.005
344.393
343.835
343.326
342.862
342.442
342.062
341.72
341.413
341.139
340.895
340.68
340.491
340.325
340.181
340.056
339.948
339.856
339.778
339.711
339.655
339.607
339.568
339.535
339.508
339.486
339.468
339.453
339.442
339.432
339.424
339.418
339.413
339.41
339.407
339.404
339.402
339.401
339.4
339.399
339.399
339.398
339.398
339.397
339.397
339.397
339.397
339.397
339.397
339.397
339.397
339.397
339.397
339.397
339.397
339.397
339.397
339.398
339.398
339.398
339.399
339.399
339.4
339.4
339.401
339.402
339.403
339.404
339.406
339.407
339.409
339.412
339.414
339.417
339.421
339.425
339.429
339.434
339.44
339.446
339.453
339.46
339.469
339.478
339.488
339.498
339.51
339.522
339.536
339.554
387.642
371.907
362.303
355.926
351.243
347.515
344.379
341.643
339.206
337.005
335.004
333.179
331.512
329.991
328.606
327.35
326.213
325.189
324.27
323.45
322.722
322.077
321.51
321.014
320.582
320.208
319.885
319.609
319.373
319.173
319.005
318.863
318.745
318.647
318.566
318.5
318.445
318.401
318.365
318.337
318.313
318.295
318.281
318.269
318.26
318.253
318.248
318.244
318.24
318.238
318.236
318.235
318.234
318.233
318.232
318.232
318.232
318.231
318.231
318.231
318.231
318.231
318.232
318.232
318.232
318.232
318.233
318.233
318.234
318.235
318.236
318.237
318.239
318.241
318.243
318.246
318.249
318.253
318.257
318.262
318.268
318.275
318.283
318.292
318.302
318.314
318.327
318.342
318.359
318.377
318.397
318.42
318.445
318.472
318.501
318.533
318.568
318.605
318.645
318.688
391.606
377.42
366.468
357.955
351.089
345.33
340.341
335.921
331.945
328.335
325.041
322.029
319.275
316.759
314.467
312.385
310.502
308.804
307.281
305.921
304.712
303.643
302.703
301.879
301.162
300.541
300.006
299.547
299.156
298.824
298.544
298.309
298.113
297.95
297.815
297.705
297.615
297.541
297.482
297.434
297.396
297.365
297.341
297.322
297.307
297.296
297.287
297.28
297.274
297.27
297.267
297.265
297.263
297.262
297.261
297.26
297.26
297.259
297.259
297.259
297.259
297.259
297.26
297.26
297.26
297.261
297.262
297.263
297.264
297.265
297.267
297.269
297.272
297.275
297.279
297.283
297.288
297.294
297.302
297.31
297.32
297.331
297.344
297.359
297.376
297.395
297.417
297.442
297.469
297.499
297.533
297.57
297.611
297.656
297.704
297.757
297.814
297.875
297.94
298.009
392.951
379.771
368.298
358.476
350.003
342.58
335.975
330.023
324.612
319.667
315.135
310.978
307.169
303.685
300.508
297.62
295.005
292.647
290.531
288.641
286.961
285.474
284.166
283.021
282.024
281.159
280.415
279.776
279.232
278.77
278.38
278.053
277.78
277.554
277.366
277.213
277.087
276.985
276.902
276.835
276.782
276.74
276.706
276.68
276.659
276.643
276.63
276.621
276.613
276.607
276.603
276.6
276.597
276.596
276.594
276.593
276.593
276.592
276.592
276.592
276.592
276.592
276.593
276.593
276.594
276.594
276.596
276.597
276.598
276.6
276.603
276.606
276.609
276.614
276.619
276.625
276.632
276.641
276.651
276.662
276.676
276.691
276.709
276.73
276.753
276.779
276.809
276.843
276.881
276.922
276.969
277.02
277.076
277.138
277.205
277.277
277.355
277.439
277.529
277.624
393.371
380.509
368.616
357.834
348.104
339.298
331.283
323.952
317.219
311.024
305.319
300.069
295.247
290.83
286.796
283.126
279.8
276.8
274.107
271.7
269.559
267.666
265.999
264.539
263.268
262.166
261.216
260.402
259.708
259.119
258.622
258.205
257.857
257.568
257.329
257.132
256.972
256.842
256.736
256.651
256.583
256.529
256.486
256.453
256.426
256.406
256.39
256.377
256.368
256.36
256.355
256.351
256.348
256.345
256.344
256.342
256.342
256.341
256.341
256.341
256.341
256.341
256.341
256.342
256.343
256.344
256.345
256.347
256.349
256.351
256.354
256.358
256.362
256.368
256.374
256.382
256.391
256.402
256.414
256.429
256.446
256.465
256.488
256.514
256.543
256.576
256.614
256.656
256.703
256.756
256.814
256.879
256.949
257.027
257.111
257.202
257.3
257.406
257.519
257.638
393.397
380.393
367.996
356.378
345.582
335.583
326.324
317.748
309.802
302.443
295.635
289.351
283.565
278.254
273.398
268.975
264.964
261.344
258.092
255.185
252.599
250.31
248.295
246.53
244.993
243.66
242.512
241.527
240.687
239.974
239.373
238.868
238.446
238.097
237.807
237.57
237.376
237.218
237.09
236.987
236.905
236.84
236.788
236.747
236.715
236.69
236.67
236.655
236.644
236.635
236.628
236.623
236.62
236.617
236.615
236.613
236.612
236.612
236.611
236.611
236.611
236.611
236.612
236.613
236.614
236.615
236.616
236.618
236.621
236.624
236.627
236.632
236.637
236.643
236.651
236.66
236.671
236.684
236.698
236.716
236.736
236.759
236.786
236.817
236.851
236.891
236.936
236.986
237.042
237.105
237.174
237.25
237.334
237.426
237.526
237.634
237.752
237.877
238.012
238.153
393.229
379.808
366.805
354.383
342.624
331.558
321.18
311.473
302.411
293.973
286.134
278.876
272.177
266.018
260.378
255.236
250.57
246.355
242.566
239.177
236.162
233.493
231.142
229.083
227.289
225.734
224.393
223.243
222.262
221.43
220.728
220.138
219.646
219.237
218.899
218.622
218.395
218.211
218.061
217.941
217.845
217.769
217.708
217.66
217.623
217.594
217.571
217.553
217.54
217.53
217.522
217.516
217.511
217.508
217.506
217.504
217.503
217.502
217.502
217.501
217.502
217.502
217.502
217.503
217.504
217.506
217.507
217.51
217.512
217.516
217.52
217.525
217.531
217.538
217.547
217.557
217.57
217.584
217.601
217.621
217.644
217.671
217.701
217.736
217.776
217.821
217.872
217.929
217.994
218.065
218.144
218.231
218.327
218.432
218.547
218.671
218.804
218.948
219.102
219.264
392.959
378.959
365.276
352.054
339.391
327.344
315.943
305.197
295.108
285.668
276.869
268.697
261.139
254.179
247.796
241.972
236.681
231.899
227.598
223.75
220.325
217.291
214.619
212.278
210.237
208.468
206.943
205.635
204.519
203.571
202.772
202.101
201.541
201.076
200.691
200.375
200.117
199.907
199.737
199.6
199.491
199.404
199.335
199.28
199.237
199.204
199.178
199.158
199.143
199.131
199.122
199.116
199.111
199.107
199.104
199.102
199.101
199.1
199.099
199.099
199.099
199.099
199.1
199.101
199.102
199.104
199.106
199.108
199.111
199.115
199.12
199.125
199.132
199.14
199.15
199.161
199.175
199.191
199.21
199.232
199.257
199.287
199.32
199.359
199.403
199.454
199.51
199.574
199.645
199.724
199.812
199.909
200.015
200.131
200.258
200.396
200.544
200.704
200.874
201.053
392.635
377.965
363.556
349.537
336.009
323.046
310.697
298.993
287.953
277.584
267.89
258.865
250.503
242.789
235.708
229.238
223.357
218.038
213.252
208.967
205.152
201.772
198.794
196.184
193.908
191.936
190.234
188.775
187.529
186.473
185.581
184.832
184.207
183.687
183.258
182.905
182.617
182.382
182.193
182.04
181.918
181.82
181.743
181.682
181.635
181.598
181.569
181.546
181.529
181.516
181.506
181.499
181.493
181.489
181.486
181.484
181.482
181.481
181.48
181.48
181.48
181.481
181.481
181.482
181.483
181.485
181.487
181.49
181.493
181.497
181.502
181.508
181.516
181.524
181.535
181.547
181.562
181.579
181.6
181.624
181.651
181.683
181.72
181.762
181.81
181.864
181.925
181.994
182.071
182.157
182.252
182.357
182.472
182.598
182.735
182.884
183.045
183.218
183.403
183.597
392.284
376.9
361.745
346.937
332.578
318.751
305.518
292.924
281.003
269.773
259.247
249.428
240.314
231.896
224.159
217.085
210.649
204.824
199.579
194.883
190.699
186.991
183.724
180.859
178.361
176.195
174.327
172.724
171.356
170.195
169.216
168.393
167.706
167.135
166.663
166.275
165.958
165.701
165.492
165.324
165.19
165.083
164.998
164.931
164.879
164.838
164.806
164.781
164.763
164.748
164.737
164.729
164.723
164.718
164.715
164.712
164.711
164.709
164.709
164.708
164.709
164.709
164.71
164.711
164.712
164.714
164.716
164.719
164.722
164.727
164.732
164.738
164.746
164.755
164.767
164.78
164.795
164.814
164.836
164.861
164.89
164.924
164.963
165.008
165.058
165.116
165.181
165.254
165.336
165.427
165.528
165.639
165.762
165.896
166.042
166.2
166.371
166.555
166.751
166.957
391.923
375.811
359.909
344.33
329.174
314.531
300.47
287.049
274.309
262.28
250.983
240.426
230.614
221.54
213.191
205.551
198.596
192.297
186.624
181.54
177.01
172.995
169.455
166.351
163.644
161.296
159.27
157.532
156.049
154.789
153.726
152.834
152.088
151.469
150.957
150.536
150.192
149.912
149.686
149.504
149.358
149.242
149.15
149.077
149.02
148.976
148.941
148.915
148.894
148.878
148.867
148.858
148.851
148.846
148.842
148.839
148.838
148.836
148.836
148.835
148.835
148.836
148.836
148.837
148.839
148.841
148.843
148.846
148.85
148.854
148.86
148.866
148.874
148.884
148.896
148.91
148.926
148.945
148.968
148.994
149.025
149.06
149.101
149.147
149.201
149.261
149.329
149.405
149.49
149.585
149.691
149.807
149.935
150.075
150.227
150.393
150.571
150.763
150.968
151.184
391.563
374.729
358.095
341.769
325.854
310.44
295.605
281.414
267.915
255.146
243.134
231.895
221.435
211.752
202.836
194.671
187.232
180.492
174.418
168.974
164.121
159.818
156.023
152.695
149.792
147.273
145.1
143.235
141.643
140.292
139.151
138.193
137.392
136.727
136.178
135.726
135.356
135.056
134.813
134.617
134.46
134.336
134.237
134.159
134.097
134.05
134.013
133.984
133.962
133.945
133.932
133.923
133.916
133.91
133.906
133.903
133.901
133.9
133.899
133.899
133.899
133.899
133.9
133.901
133.902
133.904
133.907
133.91
133.913
133.918
133.924
133.931
133.939
133.949
133.961
133.975
133.992
134.012
134.035
134.062
134.094
134.13
134.172
134.22
134.274
134.336
134.406
134.485
134.573
134.67
134.779
134.899
135.03
135.174
135.331
135.501
135.685
135.883
136.094
136.315
391.213
373.677
356.336
339.295
322.659
306.521
290.964
276.057
261.855
248.402
235.731
223.861
212.803
202.558
193.117
184.465
176.579
169.431
162.986
157.207
152.053
147.482
143.451
139.914
136.829
134.151
131.841
129.858
128.165
126.727
125.514
124.494
123.643
122.935
122.35
121.869
121.476
121.156
120.898
120.689
120.522
120.39
120.284
120.201
120.136
120.085
120.046
120.015
119.992
119.974
119.96
119.95
119.942
119.937
119.932
119.929
119.927
119.926
119.925
119.924
119.924
119.925
119.925
119.926
119.928
119.93
119.932
119.935
119.939
119.944
119.95
119.957
119.965
119.975
119.987
120.002
120.019
120.039
120.063
120.09
120.122
120.159
120.202
120.25
120.306
120.368
120.439
120.519
120.608
120.708
120.818
120.939
121.073
121.219
121.379
121.552
121.738
121.939
122.154
122.378
390.877
372.669
354.653
336.936
319.622
302.806
286.577
271.006
256.155
242.072
228.793
216.343
204.736
193.973
184.05
174.95
166.652
159.126
152.339
146.25
140.82
136.002
131.751
128.022
124.767
121.943
119.505
117.412
115.626
114.109
112.828
111.752
110.852
110.105
109.488
108.98
108.565
108.227
107.953
107.733
107.557
107.417
107.305
107.218
107.149
107.095
107.053
107.021
106.996
106.977
106.963
106.952
106.944
106.938
106.933
106.93
106.928
106.926
106.925
106.925
106.925
106.925
106.926
106.927
106.928
106.93
106.933
106.936
106.94
106.944
106.95
106.957
106.966
106.976
106.988
107.002
107.02
107.04
107.064
107.091
107.123
107.16
107.203
107.252
107.307
107.37
107.441
107.521
107.611
107.711
107.821
107.943
108.077
108.224
108.384
108.557
108.745
108.946
109.162
109.387
390.559
371.715
353.063
334.71
316.762
299.317
282.464
266.281
250.833
236.171
222.335
209.353
197.242
186.006
175.639
166.129
157.453
149.582
142.48
136.108
130.423
125.378
120.926
117.019
113.609
110.649
108.094
105.901
104.028
102.437
101.094
99.9652
99.0223
98.2386
97.5907
97.0581
96.6224
96.2679
95.9811
95.7501
95.5652
95.4178
95.301
95.2089
95.1367
95.0803
95.0365
95.0027
94.9766
94.9568
94.9417
94.9302
94.9217
94.9153
94.9106
94.9071
94.9047
94.9031
94.902
94.9015
94.9014
94.9016
94.9023
94.9033
94.9047
94.9066
94.9091
94.9122
94.916
94.9207
94.9264
94.9334
94.9418
94.9519
94.964
94.9784
94.9954
95.0155
95.039
95.0664
95.0982
95.1349
95.1772
95.2256
95.2808
95.3433
95.4139
95.4933
95.5821
95.681
95.7906
95.9117
96.0447
96.1903
96.349
96.5212
96.7073
96.9074
97.1212
97.3448
390.261
370.822
351.576
332.631
314.094
296.066
278.64
261.894
245.898
230.706
216.362
202.895
190.324
178.655
167.885
158.001
148.98
140.793
133.405
126.773
120.855
115.603
110.967
106.897
103.345
100.262
97.5992
95.3132
93.3611
91.7031
90.3026
89.126
88.1428
87.3256
86.65
86.0944
85.64
85.2703
84.9711
84.7302
84.5372
84.3834
84.2616
84.1655
84.0901
84.0312
83.9855
83.9502
83.9231
83.9023
83.8865
83.8746
83.8656
83.859
83.854
83.8505
83.8479
83.8462
83.8451
83.8445
83.8443
83.8445
83.8451
83.8461
83.8475
83.8494
83.8518
83.8548
83.8585
83.8632
83.8688
83.8756
83.8839
83.8939
83.9057
83.9198
83.9366
83.9562
83.9793
84.0062
84.0374
84.0735
84.115
84.1626
84.2167
84.2781
84.3474
84.4254
84.5125
84.6096
84.7173
84.8361
84.9668
85.1098
85.2657
85.4348
85.6176
85.8142
86.0242
86.2437
389.984
369.994
350.197
330.705
311.626
293.063
275.11
257.85
241.354
225.68
210.872
196.964
183.976
171.915
160.779
150.554
141.22
132.747
125.098
118.231
112.102
106.66
101.857
97.6397
93.9581
90.7615
88.0014
85.6312
83.6069
81.8875
80.435
79.2145
78.1945
77.3467
76.6458
76.0694
75.5979
75.2142
74.9037
74.6536
74.4533
74.2937
74.1672
74.0675
73.9892
73.9281
73.8806
73.8439
73.8158
73.7942
73.7778
73.7654
73.7561
73.7492
73.7441
73.7403
73.7377
73.7358
73.7346
73.734
73.7338
73.734
73.7345
73.7355
73.7368
73.7386
73.741
73.7439
73.7475
73.752
73.7575
73.7642
73.7722
73.7819
73.7934
73.8071
73.8234
73.8425
73.8649
73.8911
73.9215
73.9566
73.9969
74.0431
74.0957
74.1554
74.2228
74.2986
74.3834
74.4778
74.5824
74.698
74.8251
74.9642
75.1157
75.2802
75.458
75.6493
75.8536
76.067
389.73
369.231
348.93
328.936
309.36
290.307
271.875
254.147
237.197
221.085
205.859
191.552
178.186
165.77
154.303
143.772
134.155
125.423
117.538
110.459
104.138
98.526
93.571
89.2204
85.4216
82.1228
79.2742
76.8276
74.738
72.9628
71.4631
70.2028
69.1495
68.274
67.55
66.9547
66.4676
66.0713
65.7504
65.4921
65.2852
65.1202
64.9895
64.8864
64.8055
64.7424
64.6933
64.6554
64.6263
64.604
64.587
64.5742
64.5646
64.5574
64.5521
64.5482
64.5455
64.5436
64.5423
64.5416
64.5413
64.5415
64.542
64.5429
64.5442
64.5459
64.5481
64.5509
64.5545
64.5588
64.5641
64.5705
64.5782
64.5875
64.5986
64.6119
64.6275
64.646
64.6676
64.6928
64.722
64.7558
64.7947
64.8392
64.8899
64.9474
65.0123
65.0853
65.1669
65.2579
65.3587
65.4701
65.5925
65.7265
65.8725
66.0311
66.2024
66.3868
66.5837
66.7893
389.498
368.536
347.773
327.322
307.294
287.798
268.931
250.78
233.42
216.913
201.309
186.642
172.937
160.202
148.437
137.631
127.76
118.795
110.698
103.428
96.9348
91.1692
86.0779
81.607
77.7026
74.3119
71.3835
68.8682
66.7196
64.8942
63.3519
62.0558
60.9724
60.0718
59.3271
58.7146
58.2135
57.8057
57.4756
57.2097
56.9968
56.8271
56.6925
56.5864
56.5031
56.4381
56.3876
56.3486
56.3186
56.2957
56.2782
56.265
56.2551
56.2477
56.2422
56.2382
56.2354
56.2334
56.232
56.2313
56.231
56.2311
56.2315
56.2323
56.2336
56.2352
56.2373
56.24
56.2434
56.2475
56.2525
56.2586
56.266
56.2749
56.2856
56.2982
56.3131
56.3307
56.3514
56.3754
56.4033
56.4356
56.4727
56.5152
56.5636
56.6185
56.6805
56.7502
56.8281
56.915
57.0113
57.1176
57.2345
57.3625
57.502
57.6534
57.8171
57.9932
58.1813
58.3776
389.288
367.906
346.725
325.86
305.425
285.528
266.269
247.737
230.008
213.147
197.204
182.216
168.206
155.186
143.155
132.102
122.003
112.83
104.545
97.1028
90.4563
84.5533
79.34
74.7614
70.7626
67.2895
64.2896
61.7127
59.5112
57.6408
56.0603
54.732
53.6217
52.6986
51.9353
51.3074
50.7936
50.3756
50.0371
49.7645
49.5462
49.3721
49.2341
49.1253
49.0399
48.9732
48.9214
48.8814
48.8506
48.8271
48.8092
48.7956
48.7855
48.7779
48.7722
48.7681
48.7652
48.7631
48.7617
48.7609
48.7605
48.7606
48.761
48.7617
48.7629
48.7644
48.7664
48.7689
48.7721
48.776
48.7808
48.7866
48.7936
48.802
48.8121
48.824
48.8382
48.8548
48.8744
48.8971
48.9236
48.9541
48.9893
49.0295
49.0753
49.1273
49.1859
49.2519
49.3257
49.4079
49.4991
49.5998
49.7104
49.8316
49.9637
50.1072
50.2622
50.429
50.6072
50.7931
389.098
367.339
345.783
324.546
303.744
283.487
263.878
245.005
226.947
209.77
193.524
178.249
163.968
150.694
138.426
127.153
116.853
107.494
99.0403
91.4461
84.6626
78.6374
73.3155
68.6411
64.5581
61.0116
57.948
55.3162
53.0677
51.1571
49.5426
48.1856
47.0512
46.108
45.328
44.6864
44.1614
43.7341
43.3882
43.1096
42.8864
42.7085
42.5674
42.4562
42.3689
42.3007
42.2477
42.2068
42.1753
42.1513
42.133
42.1191
42.1087
42.1009
42.0951
42.0909
42.0879
42.0857
42.0843
42.0834
42.083
42.083
42.0833
42.084
42.085
42.0865
42.0883
42.0907
42.0937
42.0974
42.1018
42.1073
42.1139
42.1218
42.1312
42.1424
42.1557
42.1714
42.1897
42.2111
42.2359
42.2646
42.2976
42.3354
42.3784
42.4272
42.4823
42.5442
42.6135
42.6907
42.7763
42.8709
42.9748
43.0886
43.2127
43.3474
43.4931
43.6498
43.8173
43.9918
388.929
366.832
344.94
323.372
302.243
281.666
261.743
242.567
224.217
206.758
190.245
174.715
160.194
146.695
134.217
122.749
112.27
102.748
94.1444
86.4154
79.5108
73.3773
67.9593
63.2
59.0425
55.431
52.311
49.6305
47.3402
45.3941
43.7493
42.3668
41.2111
40.2501
39.4553
38.8015
38.2665
37.831
37.4785
37.1945
36.967
36.7857
36.6419
36.5285
36.4395
36.3699
36.316
36.2742
36.2421
36.2176
36.1989
36.1848
36.1741
36.1662
36.1603
36.156
36.1529
36.1507
36.1492
36.1482
36.1478
36.1477
36.148
36.1486
36.1495
36.1509
36.1526
36.1548
36.1576
36.161
36.1651
36.1702
36.1764
36.1837
36.1925
36.203
36.2154
36.2299
36.247
36.2669
36.2901
36.3168
36.3475
36.3827
36.4228
36.4682
36.5195
36.5772
36.6418
36.7137
36.7935
36.8816
36.9784
37.0845
37.2001
37.3257
37.4614
37.6075
37.7636
37.9262
388.779
366.382
344.192
322.329
300.91
280.049
259.85
240.405
221.796
204.09
187.339
171.585
156.852
143.154
130.492
118.853
108.215
98.549
89.8146
81.9669
74.9556
68.7267
63.224
58.3899
54.1669
50.498
47.3283
44.6049
42.2778
40.3002
38.6289
37.2239
36.0493
35.0726
34.2647
33.6001
33.0563
32.6136
32.2552
31.9665
31.7352
31.5508
31.4046
31.2893
31.1988
31.1281
31.0732
31.0307
30.9981
30.9731
30.9541
30.9397
30.9289
30.9208
30.9148
30.9104
30.9072
30.905
30.9034
30.9025
30.9019
30.9018
30.902
30.9025
30.9034
30.9046
30.9062
30.9082
30.9108
30.9139
30.9178
30.9225
30.9282
30.935
30.9431
30.9528
30.9642
30.9777
30.9935
31.0119
31.0333
31.058
31.0864
31.1189
31.1559
31.198
31.2454
31.2987
31.3584
31.4249
31.4986
31.5801
31.6696
31.7677
31.8747
31.9908
32.1163
32.2515
32.3959
32.5462
388.646
365.984
343.532
321.409
299.735
278.623
258.181
238.5
219.663
201.738
184.78
168.828
153.91
140.039
127.214
115.425
104.649
94.8564
86.007
78.0553
70.9505
64.6382
59.0613
54.1617
49.8811
46.162
42.9487
40.1877
37.8283
35.8232
34.1284
32.7037
31.5126
30.522
29.7027
29.0287
28.4771
28.0281
27.6645
27.3716
27.137
26.9499
26.8016
26.6846
26.5927
26.521
26.4653
26.4222
26.3891
26.3638
26.3445
26.3299
26.3189
26.3107
26.3046
26.3001
26.2968
26.2945
26.2929
26.2919
26.2913
26.2911
26.2913
26.2917
26.2925
26.2936
26.295
26.2969
26.2992
26.3021
26.3057
26.31
26.3152
26.3214
26.3289
26.3378
26.3483
26.3606
26.3751
26.392
26.4116
26.4343
26.4604
26.4902
26.5242
26.5627
26.6063
26.6552
26.7099
26.7709
26.8386
26.9134
26.9955
27.0856
27.1837
27.2903
27.4056
27.5296
27.6622
27.8002
388.53
365.636
342.953
320.602
298.704
277.374
256.718
236.83
217.795
199.679
182.539
166.416
151.335
137.312
124.346
112.426
101.53
91.627
82.6774
74.6351
67.4489
61.0638
55.4223
50.4656
46.1348
42.372
39.1206
36.3268
33.9393
31.9101
30.195
28.7531
27.5475
26.5449
25.7156
25.0332
24.4748
24.0203
23.6522
23.3557
23.1181
22.9287
22.7786
22.6601
22.5671
22.4944
22.438
22.3944
22.3608
22.3351
22.3156
22.3008
22.2897
22.2813
22.2752
22.2706
22.2673
22.2649
22.2633
22.2622
22.2616
22.2614
22.2614
22.2618
22.2625
22.2635
22.2648
22.2665
22.2686
22.2712
22.2744
22.2784
22.2831
22.2888
22.2956
22.3037
22.3133
22.3245
22.3377
22.3531
22.371
22.3916
22.4154
22.4425
22.4735
22.5086
22.5482
22.5928
22.6427
22.6982
22.7599
22.828
22.9029
22.9849
23.0743
23.1714
23.2765
23.3896
23.5104
23.6362
388.429
365.332
342.448
319.899
297.806
276.285
255.443
235.376
216.168
197.886
180.589
164.316
149.095
134.94
121.851
109.817
98.8172
88.8187
79.7822
71.6614
64.4046
57.9564
52.2589
47.2526
42.8784
39.0776
35.7933
32.971
30.5591
28.5091
26.7762
25.3194
24.1012
23.0881
22.2501
21.5606
20.9963
20.537
20.165
19.8653
19.6252
19.4337
19.2819
19.1621
19.0681
18.9947
18.9377
18.8936
18.8596
18.8337
18.8139
18.799
18.7877
18.7793
18.773
18.7684
18.765
18.7626
18.7609
18.7598
18.7592
18.7589
18.7589
18.7592
18.7598
18.7606
18.7618
18.7633
18.7652
18.7676
18.7705
18.7741
18.7784
18.7835
18.7897
18.797
18.8056
18.8158
18.8278
18.8417
18.8578
18.8765
18.898
18.9225
18.9505
18.9823
19.0181
19.0584
19.1035
19.1538
19.2095
19.2711
19.3389
19.4131
19.494
19.5819
19.6769
19.7793
19.8886
20.0024
388.341
365.069
342.011
319.29
297.028
275.341
254.339
234.117
214.759
196.334
178.9
162.498
147.156
132.887
119.693
107.561
96.471
86.3902
77.2788
69.0903
61.7727
55.2701
49.5242
44.4753
40.0635
36.23
32.9173
30.0704
27.6374
25.5694
23.8212
22.3515
21.1225
20.1004
19.2548
18.5591
17.9897
17.5262
17.1508
16.8484
16.6061
16.4129
16.2597
16.1388
16.0439
15.9698
15.9122
15.8677
15.8334
15.8072
15.7873
15.7722
15.7608
15.7523
15.7459
15.7413
15.7379
15.7354
15.7337
15.7325
15.7318
15.7315
15.7314
15.7317
15.7322
15.7329
15.734
15.7353
15.737
15.7392
15.7418
15.745
15.7488
15.7534
15.759
15.7655
15.7733
15.7825
15.7932
15.8057
15.8202
15.837
15.8562
15.8783
15.9034
15.9319
15.9641
16.0003
16.0408
16.086
16.1361
16.1914
16.2522
16.3189
16.3916
16.4706
16.556
16.648
16.7463
16.8485
388.265
364.842
341.634
318.765
296.358
274.529
253.388
233.033
213.546
194.998
177.447
160.935
145.488
131.121
117.836
105.621
94.4533
84.3018
75.1262
66.8796
59.5098
52.9606
47.1732
42.0877
37.6438
33.7821
30.445
27.5771
25.126
23.0425
21.2812
19.8004
18.5621
17.5322
16.6802
15.9792
15.4054
14.9383
14.56
14.2552
14.011
13.8163
13.6618
13.54
13.4443
13.3696
13.3116
13.2667
13.2322
13.2058
13.1857
13.1704
13.159
13.1504
13.144
13.1392
13.1358
13.1333
13.1316
13.1304
13.1296
13.1292
13.1291
13.1293
13.1297
13.1304
13.1313
13.1325
13.134
13.1359
13.1382
13.1411
13.1445
13.1486
13.1536
13.1594
13.1663
13.1745
13.1841
13.1952
13.2082
13.2231
13.2403
13.26
13.2824
13.3078
13.3366
13.3688
13.405
13.4452
13.4899
13.5392
13.5935
13.653
13.7179
13.7883
13.8646
13.9467
14.0344
14.1256
388.201
364.648
341.312
318.316
295.784
273.834
252.575
232.104
212.507
193.855
176.204
159.596
144.061
129.611
116.248
103.961
92.7277
82.5159
73.2855
64.9894
57.575
50.986
45.1632
40.0465
35.5751
31.6895
28.3316
25.4457
22.9791
20.8824
19.1099
17.6196
16.3734
15.3368
14.4793
13.7737
13.1962
12.726
12.3452
12.0384
11.7926
11.5966
11.4411
11.3184
11.2221
11.1469
11.0885
11.0433
11.0085
10.9819
10.9617
10.9463
10.9348
10.9261
10.9197
10.9149
10.9114
10.9089
10.9071
10.9059
10.9051
10.9047
10.9045
10.9046
10.905
10.9055
10.9063
10.9074
10.9087
10.9104
10.9124
10.915
10.918
10.9217
10.926
10.9312
10.9374
10.9446
10.9531
10.963
10.9744
10.9877
11.0029
11.0203
11.0402
11.0627
11.0882
11.1168
11.1488
11.1844
11.224
11.2677
11.3159
11.3686
11.4261
11.4885
11.5561
11.6289
11.7067
11.7875
388.145
364.483
341.037
317.933
295.295
273.241
251.882
231.314
211.624
192.882
175.146
158.458
142.846
128.326
114.897
102.549
91.2601
80.9971
71.7202
63.382
55.9298
49.307
43.4543
38.311
33.8163
29.9104
26.5347
23.6336
21.1539
19.046
17.264
15.7657
14.5126
13.4704
12.6082
11.8987
11.318
10.8452
10.4623
10.1538
9.90657
9.70945
9.55311
9.42974
9.3329
9.25725
9.19847
9.15303
9.11807
9.09131
9.07093
9.0555
9.04386
9.03515
9.02866
9.02386
9.02034
9.01779
9.01598
9.01473
9.01391
9.01343
9.01324
9.01328
9.01353
9.014
9.01468
9.0156
9.01677
9.01824
9.02005
9.02227
9.02494
9.02816
9.03201
9.03658
9.04199
9.04836
9.05581
9.06451
9.0746
9.08626
9.09966
9.115
9.13248
9.1523
9.17469
9.19986
9.22803
9.25943
9.29427
9.33276
9.37511
9.42151
9.47213
9.52714
9.58667
9.65078
9.71931
9.79049
388.099
364.343
340.805
317.609
294.881
272.74
251.295
230.646
210.876
192.059
174.25
157.494
141.819
127.239
113.755
101.355
90.0187
79.7126
70.3964
62.0227
54.5386
47.8873
42.0092
36.8435
32.3292
28.406
25.0155
22.1014
19.6106
17.4933
15.7032
14.1981
12.9394
11.8924
11.0262
10.3134
9.73
9.25499
8.87027
8.56032
8.31192
8.11386
7.95677
7.83281
7.7355
7.65949
7.60042
7.55475
7.51962
7.49273
7.47225
7.45673
7.44504
7.43628
7.42975
7.42491
7.42137
7.41879
7.41696
7.41568
7.41483
7.41431
7.41407
7.41406
7.41425
7.41463
7.41521
7.416
7.41702
7.4183
7.41988
7.42181
7.42415
7.42697
7.43033
7.43433
7.43906
7.44463
7.45115
7.45875
7.46757
7.47777
7.48948
7.50289
7.51818
7.53551
7.55508
7.57709
7.60173
7.62918
7.65965
7.69331
7.73035
7.77093
7.81522
7.86334
7.91543
7.97153
8.03151
8.09377
388.059
364.225
340.609
317.337
294.533
272.318
250.802
230.083
210.247
191.365
173.497
156.684
140.955
126.324
112.793
100.351
88.9746
78.6321
69.283
60.8795
53.3686
46.6933
40.7939
35.6094
31.0786
27.141
23.7379
20.813
18.3129
16.1876
14.3907
12.8799
11.6164
10.5654
9.69584
8.9803
8.3946
7.91773
7.5315
7.22032
6.97093
6.77208
6.61436
6.4899
6.39219
6.31587
6.25657
6.21071
6.17543
6.14842
6.12786
6.11228
6.10053
6.09173
6.08516
6.0803
6.07673
6.07414
6.07228
6.07097
6.07009
6.06955
6.06926
6.0692
6.06933
6.06964
6.07012
6.0708
6.07167
6.07278
6.07415
6.07583
6.07786
6.0803
6.08323
6.0867
6.09081
6.09565
6.10131
6.10792
6.11558
6.12444
6.13462
6.14627
6.15954
6.1746
6.19161
6.21072
6.23213
6.25598
6.28245
6.3117
6.34389
6.37916
6.41766
6.45949
6.50477
6.55355
6.60571
6.65983
388.027
364.126
340.445
317.108
294.242
271.965
250.388
229.611
209.72
190.786
172.866
156.006
140.232
125.559
111.989
99.5106
88.1011
77.7283
68.3516
59.9232
52.3899
45.6946
39.7775
34.5773
30.0326
26.0829
22.6693
19.7354
17.2275
15.0955
13.293
11.7774
10.5098
9.45548
8.58316
7.86531
7.27771
6.79927
6.41178
6.09958
5.84935
5.64985
5.4916
5.36672
5.26868
5.1921
5.13259
5.08657
5.05117
5.02407
5.00343
4.98779
4.976
4.96716
4.96057
4.95569
4.9521
4.94948
4.9476
4.94627
4.94537
4.94479
4.94447
4.94437
4.94444
4.94468
4.94508
4.94565
4.94639
4.94734
4.94852
4.94997
4.95172
4.95383
4.95635
4.95935
4.9629
4.96708
4.97197
4.97767
4.98429
4.99193
5.00072
5.01078
5.02224
5.03523
5.04991
5.06642
5.08489
5.10549
5.12834
5.1536
5.1814
5.21186
5.24511
5.28124
5.32036
5.36251
5.40758
5.45433
387.999
364.044
340.309
316.918
293.999
271.671
250.044
229.219
209.281
190.303
172.342
155.441
139.63
124.922
111.32
98.8114
87.3743
76.9763
67.5767
59.1276
51.5757
44.8638
38.9319
33.7186
29.1625
25.2028
21.7804
18.8389
16.3246
14.1871
12.3799
10.8603
9.58937
8.53221
7.65757
6.93779
6.3486
5.86887
5.48032
5.16726
4.91635
4.71629
4.5576
4.43237
4.33405
4.25726
4.19757
4.15142
4.11592
4.08874
4.06804
4.05235
4.04053
4.03166
4.02504
4.02014
4.01653
4.0139
4.012
4.01065
4.00973
4.00912
4.00877
4.00862
4.00865
4.00882
4.00915
4.00962
4.01025
4.01106
4.01207
4.01331
4.01481
4.01662
4.01878
4.02136
4.0244
4.02798
4.03218
4.03707
4.04275
4.04931
4.05685
4.06547
4.0753
4.08645
4.09905
4.11321
4.12906
4.14673
4.16634
4.18801
4.21186
4.23801
4.26654
4.29757
4.33115
4.36735
4.40605
4.44618
387.977
363.976
340.196
316.761
293.798
271.427
249.76
228.895
208.918
189.903
171.907
154.974
139.132
124.395
110.766
98.2327
86.7729
76.3541
66.9355
58.4693
50.902
44.1764
38.2322
33.0081
28.4425
24.4745
21.045
18.0972
15.5775
13.4354
11.6244
10.1014
8.82778
7.76831
6.89173
6.17036
5.57986
5.09905
4.70962
4.39585
4.14437
3.94385
3.7848
3.65928
3.56073
3.48375
3.42393
3.37767
3.34208
3.31484
3.29408
3.27836
3.2665
3.25761
3.25097
3.24605
3.24243
3.23978
3.23786
3.2365
3.23556
3.23493
3.23455
3.23436
3.23434
3.23446
3.23472
3.23511
3.23564
3.23632
3.23718
3.23823
3.23951
3.24105
3.2429
3.24509
3.24768
3.25074
3.25432
3.25849
3.26333
3.26892
3.27535
3.2827
3.29108
3.30059
3.31133
3.3234
3.33691
3.35198
3.3687
3.38719
3.40753
3.42983
3.45418
3.48064
3.5093
3.54019
3.57322
3.60746
387.958
363.92
340.102
316.631
293.632
271.227
249.525
228.627
208.619
189.574
171.55
154.589
138.722
123.961
110.31
97.7565
86.2779
75.8419
66.4078
57.9275
50.3476
43.6106
37.6564
32.4234
27.85
23.8752
20.4397
17.4869
14.9627
12.8169
11.0026
9.47696
8.20101
7.13963
6.26147
5.53878
4.94719
4.4655
4.07535
3.761
3.50904
3.30814
3.14878
3.02302
2.92429
2.84716
2.78722
2.74087
2.70521
2.67791
2.65712
2.64136
2.62948
2.62056
2.61391
2.60897
2.60534
2.60268
2.60075
2.59937
2.59841
2.59776
2.59735
2.59713
2.59707
2.59715
2.59734
2.59766
2.5981
2.59867
2.59939
2.60028
2.60136
2.60267
2.60423
2.60609
2.60829
2.61088
2.61391
2.61745
2.62155
2.62628
2.63173
2.63796
2.64507
2.65312
2.66222
2.67245
2.6839
2.69667
2.71085
2.72651
2.74376
2.76267
2.78331
2.80575
2.83006
2.85626
2.88428
2.91332
387.943
363.874
340.026
316.525
293.497
271.063
249.333
228.408
208.375
189.305
171.257
154.274
138.386
123.606
109.937
97.3665
85.8726
75.4226
65.9758
57.4839
49.8937
43.1475
37.185
31.9448
27.365
23.3846
19.9443
16.9872
14.4594
12.3105
10.4936
8.96576
7.68794
6.62499
5.74553
5.02176
4.42929
3.94687
3.55613
3.24129
2.98895
2.78774
2.62813
2.50218
2.40329
2.32604
2.266
2.21958
2.18386
2.15651
2.13569
2.1199
2.10799
2.09906
2.0924
2.08745
2.0838
2.08113
2.07919
2.0778
2.07682
2.07615
2.07572
2.07548
2.07538
2.07541
2.07556
2.07581
2.07617
2.07664
2.07724
2.07799
2.0789
2.08
2.08131
2.08288
2.08473
2.08691
2.08947
2.09244
2.0959
2.09989
2.10448
2.10973
2.11571
2.12249
2.13016
2.13877
2.14842
2.15918
2.17112
2.18432
2.19885
2.21479
2.23218
2.2511
2.27159
2.29369
2.31732
2.34179
387.93
363.837
339.964
316.439
293.387
270.929
249.177
228.23
208.175
189.085
171.018
154.018
138.112
123.317
109.633
97.049
85.5426
75.0812
65.624
57.1228
49.5241