/*--------------------------------*- C++ -*----------------------------------*\
  =========                 |
  \\      /  F ield         | OpenFOAM: The Open Source CFD Toolbox
   \\    /   O peration     | Website:  https://openfoam.org
    \\  /    A nd           | Version:  10
     \\/     M anipulation  |
\*---------------------------------------------------------------------------*/
FoamFile
{
    format      ascii;
    class       volScalarField;
    location    "1.5";
    object      T_0;
}
// * * * * * * * * * * * * * * * * * * * * * * * * * * * * * * * * * * * * * //

dimensions      [0 0 0 1 0 0 0];

internalField   nonuniform List<scalar> 
10000
(
374.634
360.283
354.949
352.253
350.51
349.196
348.115
347.183
346.358
345.615
344.941
344.327
343.767
343.256
342.792
342.371
341.991
341.648
341.341
341.067
340.824
340.609
340.421
340.256
340.112
339.988
339.881
339.789
339.711
339.645
339.59
339.543
339.504
339.472
339.446
339.424
339.406
339.391
339.38
339.37
339.363
339.357
339.352
339.349
339.346
339.343
339.342
339.34
339.339
339.339
339.338
339.338
339.337
339.337
339.337
339.337
339.337
339.336
339.336
339.336
339.336
339.336
339.337
339.337
339.337
339.337
339.337
339.337
339.337
339.338
339.338
339.338
339.339
339.34
339.34
339.341
339.342
339.344
339.345
339.347
339.349
339.351
339.354
339.357
339.36
339.364
339.369
339.374
339.379
339.385
339.392
339.4
339.408
339.418
339.427
339.438
339.45
339.462
339.475
339.486
387.605
371.881
362.27
355.878
351.182
347.442
344.294
341.549
339.102
336.893
334.885
333.053
331.381
329.856
328.469
327.21
326.072
325.047
324.129
323.31
322.582
321.939
321.374
320.879
320.449
320.077
319.757
319.483
319.249
319.051
318.884
318.744
318.628
318.531
318.451
318.386
318.332
318.289
318.254
318.226
318.203
318.186
318.171
318.16
318.152
318.145
318.14
318.136
318.132
318.13
318.128
318.127
318.126
318.125
318.125
318.124
318.124
318.124
318.124
318.124
318.124
318.124
318.124
318.124
318.124
318.125
318.125
318.126
318.126
318.127
318.128
318.13
318.131
318.133
318.135
318.138
318.141
318.145
318.149
318.154
318.16
318.167
318.175
318.184
318.195
318.206
318.22
318.234
318.251
318.27
318.29
318.313
318.338
318.365
318.395
318.427
318.462
318.499
318.539
318.581
391.566
377.385
366.417
357.881
350.993
345.213
340.206
335.769
331.778
328.154
324.849
321.826
319.064
316.541
314.244
312.159
310.273
308.575
307.052
305.693
304.486
303.419
302.482
301.661
300.948
300.33
299.798
299.343
298.955
298.626
298.349
298.117
297.924
297.763
297.631
297.522
297.433
297.361
297.303
297.256
297.219
297.189
297.166
297.147
297.133
297.122
297.113
297.106
297.101
297.097
297.094
297.092
297.09
297.089
297.088
297.087
297.087
297.087
297.086
297.086
297.086
297.087
297.087
297.087
297.088
297.088
297.089
297.09
297.091
297.092
297.094
297.096
297.099
297.102
297.106
297.11
297.115
297.121
297.129
297.137
297.147
297.158
297.171
297.186
297.203
297.223
297.244
297.269
297.296
297.327
297.361
297.398
297.44
297.485
297.534
297.587
297.644
297.706
297.771
297.841
392.907
379.723
368.224
358.37
349.868
342.417
335.786
329.81
324.378
319.415
314.866
310.696
306.875
303.382
300.198
297.305
294.687
292.328
290.212
288.323
286.645
285.162
283.858
282.718
281.725
280.866
280.126
279.492
278.952
278.495
278.11
277.787
277.517
277.294
277.109
276.958
276.835
276.734
276.653
276.588
276.536
276.495
276.462
276.437
276.416
276.401
276.389
276.379
276.372
276.367
276.362
276.359
276.357
276.355
276.354
276.353
276.352
276.352
276.352
276.352
276.352
276.352
276.352
276.353
276.353
276.354
276.355
276.356
276.358
276.36
276.362
276.365
276.369
276.373
276.378
276.384
276.392
276.4
276.41
276.422
276.435
276.451
276.469
276.489
276.513
276.539
276.569
276.603
276.641
276.683
276.73
276.781
276.838
276.9
276.967
277.04
277.119
277.204
277.295
277.391
393.323
380.448
368.52
357.698
347.931
339.089
331.042
323.681
316.922
310.702
304.977
299.71
294.873
290.444
286.402
282.725
279.396
276.395
273.702
271.297
269.16
267.27
265.609
264.155
262.89
261.794
260.851
260.043
259.355
258.771
258.28
257.868
257.524
257.239
257.004
256.811
256.653
256.525
256.422
256.339
256.273
256.22
256.178
256.145
256.12
256.1
256.084
256.072
256.063
256.056
256.051
256.047
256.044
256.042
256.04
256.039
256.038
256.038
256.037
256.037
256.037
256.037
256.038
256.038
256.039
256.04
256.042
256.043
256.045
256.048
256.051
256.054
256.059
256.064
256.071
256.078
256.087
256.098
256.11
256.125
256.142
256.161
256.184
256.21
256.239
256.273
256.31
256.353
256.4
256.453
256.512
256.577
256.648
256.726
256.811
256.903
257.002
257.109
257.223
257.343
393.344
380.32
367.879
356.214
345.373
335.331
326.034
317.422
309.444
302.056
295.225
288.919
283.116
277.792
272.925
268.495
264.481
260.859
257.608
254.703
252.121
249.837
247.829
246.071
244.541
243.216
242.075
241.098
240.265
239.56
238.965
238.466
238.05
237.705
237.421
237.187
236.996
236.842
236.717
236.616
236.536
236.472
236.421
236.382
236.35
236.326
236.307
236.293
236.282
236.273
236.267
236.262
236.258
236.256
236.254
236.252
236.251
236.251
236.25
236.25
236.25
236.251
236.251
236.252
236.253
236.254
236.256
236.257
236.26
236.263
236.266
236.271
236.276
236.282
236.29
236.299
236.31
236.322
236.337
236.355
236.375
236.398
236.425
236.455
236.49
236.53
236.575
236.625
236.682
236.745
236.814
236.891
236.976
237.068
237.169
237.278
237.396
237.523
237.659
237.802
393.173
379.723
366.67
354.193
342.382
331.268
320.845
311.096
301.998
293.527
285.66
278.378
271.659
265.484
259.833
254.683
250.012
245.795
242.008
238.622
235.612
232.949
230.606
228.556
226.77
225.224
223.892
222.751
221.779
220.955
220.261
219.678
219.192
218.79
218.457
218.184
217.961
217.781
217.634
217.517
217.423
217.349
217.29
217.243
217.207
217.178
217.156
217.139
217.126
217.117
217.109
217.103
217.099
217.096
217.094
217.092
217.091
217.09
217.09
217.09
217.09
217.09
217.09
217.091
217.092
217.094
217.095
217.098
217.1
217.104
217.108
217.113
217.119
217.126
217.135
217.145
217.157
217.172
217.189
217.209
217.231
217.258
217.289
217.324
217.364
217.409
217.46
217.518
217.582
217.654
217.733
217.821
217.918
218.024
218.139
218.264
218.399
218.544
218.699
218.862
392.899
378.863
365.123
351.84
339.119
327.017
315.566
304.774
294.644
285.167
276.336
268.138
260.558
253.58
247.185
241.352
236.056
231.273
226.973
223.129
219.71
216.684
214.021
211.689
209.659
207.9
206.385
205.087
203.981
203.043
202.253
201.59
201.037
200.579
200.2
199.889
199.636
199.43
199.263
199.13
199.023
198.938
198.871
198.818
198.776
198.744
198.719
198.7
198.685
198.674
198.665
198.659
198.654
198.65
198.648
198.646
198.644
198.644
198.643
198.643
198.643
198.643
198.644
198.645
198.646
198.647
198.649
198.652
198.655
198.659
198.663
198.669
198.675
198.683
198.693
198.704
198.718
198.734
198.753
198.775
198.8
198.83
198.863
198.902
198.947
198.997
199.054
199.117
199.189
199.268
199.357
199.454
199.561
199.678
199.806
199.945
200.094
200.255
200.427
200.608
392.572
377.86
363.388
349.302
335.709
322.686
310.282
298.527
287.442
277.033
267.304
258.251
249.864
242.132
235.037
228.558
222.672
217.352
212.568
208.288
204.479
201.108
198.14
195.541
193.277
191.316
189.627
188.179
186.945
185.899
185.017
184.277
183.66
183.148
182.725
182.379
182.096
181.866
181.68
181.531
181.411
181.316
181.241
181.182
181.136
181.1
181.072
181.05
181.034
181.021
181.012
181.004
180.999
180.995
180.992
180.99
180.988
180.987
180.987
180.987
180.987
180.987
180.988
180.989
180.99
180.992
180.994
180.996
181
181.004
181.009
181.015
181.022
181.03
181.041
181.053
181.068
181.085
181.106
181.129
181.157
181.189
181.226
181.268
181.315
181.37
181.431
181.5
181.578
181.664
181.759
181.865
181.981
182.108
182.246
182.396
182.558
182.733
182.919
183.115
392.218
376.787
361.563
346.682
332.254
318.362
305.069
292.421
280.45
269.177
258.614
248.764
239.625
231.187
223.436
216.352
209.911
204.085
198.843
194.152
189.976
186.278
183.022
180.17
177.685
175.533
173.678
172.088
170.732
169.583
168.614
167.801
167.123
166.561
166.097
165.716
165.404
165.152
164.947
164.783
164.652
164.548
164.465
164.4
164.349
164.31
164.279
164.255
164.237
164.223
164.213
164.205
164.199
164.194
164.191
164.189
164.187
164.186
164.186
164.185
164.185
164.186
164.186
164.187
164.189
164.19
164.193
164.195
164.199
164.203
164.208
164.215
164.222
164.232
164.243
164.256
164.272
164.29
164.311
164.337
164.366
164.4
164.439
164.483
164.534
164.592
164.657
164.731
164.813
164.904
165.005
165.117
165.241
165.375
165.522
165.682
165.854
166.039
166.237
166.445
391.854
375.69
359.714
344.057
328.828
314.116
299.992
286.512
273.72
261.646
250.309
239.72
229.88
220.786
212.423
204.773
197.813
191.514
185.844
180.767
176.246
172.242
168.714
165.624
162.931
160.598
158.587
156.863
155.393
154.147
153.096
152.214
151.479
150.868
150.365
149.951
149.613
149.339
149.117
148.939
148.797
148.684
148.594
148.523
148.468
148.425
148.392
148.366
148.346
148.331
148.32
148.311
148.305
148.3
148.296
148.294
148.292
148.291
148.29
148.29
148.29
148.29
148.291
148.292
148.293
148.295
148.297
148.3
148.304
148.308
148.314
148.321
148.329
148.338
148.35
148.363
148.38
148.399
148.421
148.448
148.478
148.514
148.554
148.601
148.654
148.714
148.782
148.859
148.945
149.04
149.146
149.263
149.391
149.532
149.685
149.852
150.032
150.225
150.432
150.649
391.492
374.602
357.89
341.482
325.489
310.002
295.101
280.848
267.295
254.478
242.425
231.152
220.664
210.96
202.029
193.854
186.411
179.672
173.602
168.165
163.322
159.031
155.251
151.938
149.05
146.548
144.39
142.541
140.964
139.626
138.498
137.552
136.763
136.108
135.567
135.123
134.76
134.466
134.228
134.036
133.883
133.762
133.665
133.589
133.53
133.484
133.448
133.42
133.399
133.383
133.371
133.361
133.354
133.349
133.346
133.343
133.341
133.34
133.339
133.338
133.338
133.339
133.34
133.341
133.342
133.344
133.346
133.349
133.353
133.358
133.363
133.37
133.378
133.388
133.4
133.414
133.431
133.451
133.474
133.501
133.532
133.569
133.61
133.658
133.713
133.775
133.845
133.924
134.012
134.11
134.219
134.339
134.471
134.616
134.774
134.945
135.13
135.329
135.542
135.765
391.14
373.544
356.121
338.996
322.278
306.065
290.438
275.467
261.209
247.707
234.993
223.088
212.002
201.735
192.279
183.618
175.728
168.581
162.141
156.37
151.228
146.671
142.655
139.135
136.066
133.406
131.113
129.146
127.469
126.047
124.847
123.841
123.001
122.304
121.728
121.256
120.87
120.556
120.303
120.099
119.937
119.807
119.705
119.624
119.561
119.511
119.473
119.444
119.421
119.404
119.391
119.381
119.374
119.368
119.364
119.361
119.359
119.358
119.357
119.356
119.356
119.357
119.357
119.359
119.36
119.362
119.364
119.367
119.371
119.376
119.381
119.388
119.397
119.407
119.419
119.433
119.45
119.47
119.494
119.521
119.553
119.59
119.632
119.681
119.736
119.799
119.87
119.95
120.04
120.139
120.25
120.372
120.506
120.653
120.813
120.987
121.175
121.377
121.593
121.82
390.803
372.531
354.431
336.626
319.228
302.335
286.033
270.397
255.488
241.354
228.032
215.546
203.91
193.126
183.187
174.079
165.777
158.254
151.472
145.394
139.976
135.173
130.939
127.227
123.991
121.185
118.766
116.691
114.921
113.42
112.154
111.092
110.205
109.469
108.862
108.363
107.955
107.624
107.357
107.141
106.969
106.833
106.724
106.639
106.572
106.52
106.48
106.449
106.425
106.407
106.393
106.382
106.375
106.369
106.364
106.361
106.359
106.358
106.357
106.356
106.356
106.357
106.357
106.358
106.36
106.362
106.364
106.367
106.371
106.376
106.381
106.388
106.397
106.407
106.419
106.433
106.45
106.47
106.494
106.521
106.553
106.59
106.633
106.682
106.737
106.8
106.872
106.952
107.041
107.141
107.252
107.375
107.509
107.657
107.817
107.992
108.18
108.383
108.6
108.826
390.483
371.574
352.835
334.392
316.358
298.833
281.907
265.657
250.149
235.435
221.555
208.538
196.397
185.14
174.759
165.241
156.563
148.694
141.6
135.239
129.567
124.539
120.105
116.217
112.826
109.886
107.351
105.176
103.321
101.748
100.42
99.306
98.3763
97.6045
96.9672
96.4439
96.0165
95.6692
95.3885
95.1628
94.9823
94.8387
94.7251
94.6356
94.5655
94.5109
94.4685
94.4359
94.4108
94.3917
94.3771
94.3662
94.358
94.3519
94.3474
94.3441
94.3418
94.3402
94.3393
94.3388
94.3387
94.339
94.3396
94.3406
94.342
94.3439
94.3463
94.3493
94.3531
94.3577
94.3634
94.3703
94.3786
94.3886
94.4006
94.4149
94.4318
94.4517
94.475
94.5023
94.534
94.5707
94.6128
94.6612
94.7163
94.7788
94.8494
94.9289
95.0178
95.1169
95.2268
95.3482
95.4817
95.6279
95.7873
95.9603
96.1473
96.3485
96.5635
96.7883
390.184
370.678
351.343
332.306
313.682
295.573
278.072
261.259
245.202
229.958
215.569
202.066
189.466
177.777
166.993
157.102
148.079
139.896
132.516
125.897
119.994
114.759
110.143
106.094
102.562
99.4997
96.858
94.5919
92.6588
91.0187
89.6349
88.4735
87.5042
86.6995
86.035
85.4893
85.0436
84.6813
84.3886
84.1532
83.9649
83.8151
83.6965
83.6031
83.53
83.473
83.4288
83.3947
83.3685
83.3486
83.3334
83.322
83.3134
83.307
83.3023
83.2989
83.2965
83.2948
83.2938
83.2932
83.2931
83.2934
83.294
83.295
83.2963
83.2982
83.3005
83.3035
83.3072
83.3117
83.3173
83.324
83.3322
83.342
83.3538
83.3678
83.3844
83.4039
83.4268
83.4536
83.4847
83.5207
83.5621
83.6095
83.6635
83.7249
83.7942
83.8721
83.9594
84.0566
84.1645
84.2837
84.4147
84.5582
84.7146
84.8844
85.068
85.2656
85.4766
85.6973
389.907
369.847
349.961
330.376
311.208
292.563
274.535
257.207
240.65
224.923
210.071
196.127
183.111
171.029
159.88
149.65
140.315
131.847
124.207
117.354
111.241
105.819
101.036
96.8403
93.1807
90.0063
87.2679
84.9187
82.9144
81.2137
79.7786
78.5741
77.5687
76.734
76.0447
75.4785
75.016
74.6402
74.3364
74.0921
73.8967
73.7412
73.6182
73.5213
73.4453
73.3862
73.3403
73.3049
73.2777
73.257
73.2412
73.2294
73.2204
73.2138
73.2089
73.2054
73.2028
73.2011
73.2
73.1994
73.1992
73.1994
73.2
73.2009
73.2022
73.204
73.2063
73.2092
73.2128
73.2172
73.2226
73.2292
73.2371
73.2467
73.2581
73.2717
73.2878
73.3068
73.3291
73.3551
73.3853
73.4202
73.4604
73.5065
73.559
73.6186
73.686
73.7617
73.8465
73.941
74.0458
74.1616
74.2889
74.4284
74.5804
74.7455
74.924
75.1161
75.3213
75.5357
389.653
369.084
348.691
328.604
308.939
289.804
271.295
253.499
236.489
220.324
205.054
190.711
177.318
164.882
153.403
142.867
133.251
124.525
116.651
109.586
103.283
97.6912
92.758
88.4302
84.6547
81.3792
78.5533
76.1287
74.0599
72.3044
70.8228
69.5792
68.5411
67.6791
66.9673
66.3826
65.9049
65.5167
65.2029
64.9505
64.7487
64.588
64.4609
64.3607
64.2823
64.2211
64.1737
64.1371
64.1091
64.0876
64.0713
64.0591
64.0498
64.043
64.0379
64.0342
64.0316
64.0298
64.0286
64.0279
64.0277
64.0279
64.0284
64.0293
64.0305
64.0322
64.0344
64.0372
64.0407
64.0449
64.0501
64.0564
64.0641
64.0733
64.0843
64.0974
64.1129
64.1312
64.1526
64.1776
64.2067
64.2404
64.2791
64.3234
64.374
64.4314
64.4962
64.5691
64.6507
64.7417
64.8426
64.9541
65.0767
65.211
65.3574
65.5164
65.6883
65.8733
66.0709
66.2773
389.42
368.388
347.534
326.988
306.872
287.292
268.349
250.13
232.71
216.151
200.503
185.802
172.069
159.316
147.54
136.729
126.86
117.903
109.818
102.564
96.0898
90.3456
85.2773
80.8304
76.9505
73.5841
70.6794
68.187
66.0601
64.2551
62.7316
61.4528
60.3852
59.4987
58.7665
58.1651
57.6737
57.2743
56.9514
56.6918
56.4841
56.3188
56.1879
56.0849
56.0041
55.9412
55.8924
55.8547
55.8258
55.8038
55.787
55.7743
55.7648
55.7578
55.7526
55.7487
55.746
55.7441
55.7429
55.7422
55.7419
55.742
55.7425
55.7433
55.7445
55.7461
55.7482
55.7508
55.7541
55.7582
55.7631
55.7692
55.7765
55.7853
55.7958
55.8082
55.823
55.8405
55.861
55.8848
55.9126
55.9447
55.9816
56.0239
56.0722
56.1269
56.1888
56.2583
56.3362
56.423
56.5193
56.6257
56.7427
56.8708
57.0106
57.1623
57.3264
57.503
57.6917
57.8887
389.21
367.758
346.486
325.527
305.002
285.022
265.688
247.088
229.3
212.387
196.401
181.379
167.343
154.306
142.265
131.208
121.113
111.948
103.676
96.2512
89.6249
83.7445
78.5554
74.002
70.0287
66.5808
63.6056
61.0525
58.8736
57.0243
55.4633
54.1529
53.0588
52.1503
51.3999
50.7834
50.2797
49.8703
49.5393
49.2731
49.0601
48.8907
48.7565
48.6508
48.568
48.5035
48.4534
48.4148
48.3851
48.3625
48.3453
48.3323
48.3226
48.3153
48.3099
48.306
48.3032
48.3012
48.2999
48.2992
48.2989
48.2989
48.2993
48.3001
48.3012
48.3027
48.3047
48.3071
48.3103
48.3141
48.3188
48.3245
48.3314
48.3397
48.3496
48.3615
48.3755
48.392
48.4113
48.4339
48.4602
48.4905
48.5255
48.5655
48.6111
48.6629
48.7214
48.7872
48.8609
48.943
49.0341
49.1348
49.2455
49.3668
49.499
49.6426
49.7979
49.9651
50.1438
50.3301
389.021
367.191
345.544
324.213
303.323
282.984
263.299
244.359
226.242
209.014
192.727
177.418
163.113
149.822
137.545
126.27
115.974
106.625
98.1856
90.6098
83.8479
77.8464
72.5498
67.9016
63.8451
60.3249
57.2869
54.6796
52.4544
50.5656
48.9712
47.6326
46.5149
45.5867
44.8201
44.1902
43.6755
43.2571
42.9189
42.6468
42.4292
42.256
42.1188
42.0108
41.9261
41.8602
41.809
41.7695
41.7392
41.716
41.6984
41.6852
41.6752
41.6677
41.6623
41.6582
41.6553
41.6533
41.652
41.6512
41.6508
41.6508
41.6511
41.6518
41.6528
41.6542
41.6561
41.6584
41.6613
41.6649
41.6693
41.6747
41.6812
41.689
41.6983
41.7094
41.7225
41.738
41.7562
41.7774
41.802
41.8305
41.8633
41.9008
41.9436
41.9922
42.0471
42.1088
42.178
42.255
42.3405
42.435
42.5389
42.6527
42.7768
42.9116
43.0574
43.2144
43.3821
43.557
388.852
366.685
344.703
323.041
301.824
281.165
261.169
241.926
223.517
206.009
189.454
173.892
159.348
145.833
133.347
121.879
111.405
101.894
93.3063
85.5969
78.7149
72.6063
67.2146
62.4825
58.3525
54.7681
51.6745
49.0193
46.753
44.8293
43.2052
41.8417
40.7031
39.7575
38.9763
38.3346
37.8101
37.3838
37.0391
36.7619
36.54
36.3635
36.2237
36.1136
36.0273
35.9601
35.9079
35.8676
35.8367
35.8131
35.7952
35.7816
35.7714
35.7639
35.7582
35.7541
35.7512
35.7491
35.7477
35.7468
35.7464
35.7463
35.7466
35.7472
35.7482
35.7494
35.7511
35.7533
35.756
35.7594
35.7635
35.7685
35.7745
35.7818
35.7904
35.8008
35.813
35.8274
35.8443
35.8641
35.887
35.9135
35.944
35.979
36.0188
36.064
36.1151
36.1726
36.2369
36.3087
36.3882
36.4762
36.5729
36.6789
36.7945
36.92
37.0558
37.202
37.3582
37.521
388.702
366.236
343.956
322.001
300.495
279.553
259.28
239.77
221.103
203.348
186.558
170.772
156.017
142.305
129.636
117.997
107.366
97.7122
88.9946
81.1676
74.1801
67.9772
62.5018
57.6959
53.5011
49.8603
46.7177
44.0203
41.7179
39.7633
38.1131
36.7275
35.5705
34.6095
33.8157
33.1634
32.6303
32.197
31.8466
31.5648
31.3393
31.1598
31.0176
30.9057
30.818
30.7496
30.6965
30.6556
30.6241
30.6001
30.5819
30.5681
30.5577
30.55
30.5443
30.5401
30.5371
30.5349
30.5335
30.5326
30.5321
30.532
30.5322
30.5327
30.5336
30.5347
30.5363
30.5383
30.5408
30.5439
30.5477
30.5523
30.5579
30.5646
30.5726
30.5821
30.5934
30.6067
30.6224
30.6406
30.6618
30.6863
30.7144
30.7467
30.7835
30.8253
30.8725
30.9256
30.985
31.0512
31.1248
31.206
31.2954
31.3933
31.5001
31.6161
31.7416
31.8767
32.0211
32.1715
388.57
365.84
343.298
321.084
299.323
278.132
257.617
237.872
218.978
201.006
184.009
168.027
153.087
139.203
126.372
114.585
103.817
94.0377
85.2063
77.2764
70.1964
63.911
58.3624
53.4918
49.2404
45.55
42.3646
39.6303
37.2961
35.3145
33.6414
32.2365
31.0633
30.0888
29.2838
28.6223
28.0817
27.6422
27.2868
27.0009
26.7722
26.5901
26.4459
26.3324
26.2434
26.174
26.1201
26.0786
26.0467
26.0223
26.0038
25.9898
25.9793
25.9715
25.9656
25.9614
25.9583
25.9561
25.9546
25.9536
25.9531
25.9529
25.9531
25.9535
25.9543
25.9554
25.9568
25.9586
25.9609
25.9637
25.9672
25.9714
25.9765
25.9827
25.99
25.9988
26.0092
26.0214
26.0357
26.0524
26.0718
26.0943
26.1201
26.1497
26.1834
26.2217
26.265
26.3136
26.3681
26.4288
26.4963
26.5707
26.6527
26.7425
26.8404
26.9468
27.0619
27.1859
27.3183
27.4563
388.454
365.493
342.722
320.281
298.297
276.888
256.16
236.21
217.119
198.957
181.779
165.626
150.526
136.49
123.52
111.603
100.716
90.8271
81.8966
73.8771
66.7167
60.3594
54.747
49.8202
45.5193
41.7859
38.5631
35.7966
33.4348
31.4296
29.7366
28.3149
27.1275
26.1413
25.3265
24.657
24.1098
23.6649
23.3051
23.0157
22.7841
22.5998
22.4538
22.3388
22.2487
22.1784
22.1239
22.0819
22.0496
22.0249
22.0061
21.9919
21.9813
21.9733
21.9674
21.9631
21.96
21.9577
21.9562
21.9552
21.9546
21.9544
21.9545
21.9549
21.9555
21.9565
21.9578
21.9594
21.9615
21.9641
21.9672
21.9711
21.9757
21.9813
21.988
21.996
22.0054
22.0165
22.0296
22.0448
22.0624
22.0829
22.1064
22.1333
22.164
22.1988
22.2382
22.2825
22.3321
22.3873
22.4487
22.5165
22.5911
22.6728
22.762
22.8589
22.9637
23.0765
23.1972
23.3227
388.353
365.191
342.22
319.581
297.404
275.805
254.893
234.763
215.5
197.174
179.84
163.539
148.299
134.133
121.041
109.011
98.0208
88.0378
79.0214
70.9243
63.6942
57.2747
51.6071
46.6315
42.2879
38.5171
35.262
32.4675
30.0818
28.0562
26.3458
24.9095
23.7099
22.7135
21.8902
21.2137
20.6608
20.2112
19.8476
19.5552
19.3212
19.1349
18.9873
18.8711
18.78
18.709
18.6539
18.6113
18.5787
18.5537
18.5348
18.5204
18.5096
18.5016
18.4956
18.4912
18.488
18.4858
18.4842
18.4831
18.4825
18.4822
18.4823
18.4826
18.4832
18.484
18.4851
18.4866
18.4885
18.4908
18.4937
18.4972
18.5014
18.5064
18.5125
18.5197
18.5282
18.5382
18.55
18.5638
18.5797
18.5982
18.6194
18.6437
18.6715
18.7029
18.7385
18.7785
18.8233
18.8733
18.9287
18.99
19.0574
19.1313
19.2119
19.2994
19.3942
19.4962
19.6053
19.7188
388.266
364.929
341.785
318.976
296.63
274.867
253.796
233.512
214.101
195.632
178.163
161.734
146.374
132.095
118.898
106.772
95.6924
85.628
76.5376
68.3738
61.0836
54.6105
48.8953
43.8777
39.4972
35.6944
32.4113
29.5928
27.1864
25.1432
23.4179
21.969
20.7588
19.7536
18.923
18.2405
17.6825
17.229
16.8621
16.567
16.3308
16.1428
15.994
15.8767
15.7847
15.713
15.6574
15.6145
15.5815
15.5563
15.5372
15.5227
15.5118
15.5037
15.4977
15.4932
15.49
15.4877
15.486
15.485
15.4843
15.484
15.484
15.4842
15.4847
15.4854
15.4864
15.4878
15.4894
15.4915
15.4941
15.4972
15.501
15.5055
15.5109
15.5174
15.5251
15.5341
15.5446
15.557
15.5713
15.5878
15.6069
15.6287
15.6536
15.6818
15.7138
15.7497
15.7898
15.8347
15.8844
15.9394
15.9999
16.0662
16.1385
16.2171
16.3022
16.3938
16.4918
16.5936
388.191
364.704
341.411
318.455
295.965
274.061
252.852
232.436
212.897
194.307
176.721
160.183
144.719
130.344
117.057
104.848
93.692
83.5578
74.4041
66.1829
58.8414
52.3223
46.5664
41.5128
37.1007
33.2703
29.9633
27.1241
24.7
22.6417
20.9036
19.4439
18.2247
17.2119
16.375
15.6873
15.1251
14.6681
14.2984
14.001
13.763
13.5736
13.4235
13.3053
13.2127
13.1404
13.0843
13.0411
13.0078
12.9824
12.9631
12.9486
12.9376
12.9294
12.9233
12.9188
12.9155
12.9132
12.9115
12.9104
12.9097
12.9093
12.9092
12.9094
12.9098
12.9105
12.9114
12.9125
12.914
12.9159
12.9181
12.9209
12.9243
12.9283
12.9332
12.9389
12.9457
12.9538
12.9632
12.9742
12.9869
13.0017
13.0187
13.0381
13.0603
13.0854
13.1139
13.1459
13.1817
13.2216
13.2659
13.3149
13.3689
13.428
13.4924
13.5625
13.6384
13.7201
13.8074
13.8982
388.127
364.511
341.091
318.009
295.396
273.371
252.045
231.516
211.868
193.173
175.489
158.856
143.305
128.847
115.484
103.204
91.983
81.7893
72.5815
64.3116
56.9262
50.368
44.5773
39.4931
35.0541
31.2001
27.8727
25.0159
22.5767
20.5056
18.7565
17.2876
16.0607
15.0414
14.1992
13.507
12.9412
12.4812
12.1091
11.8098
11.5702
11.3795
11.2285
11.1095
11.0162
10.9434
10.887
10.8434
10.81
10.7844
10.765
10.7503
10.7392
10.731
10.7248
10.7203
10.717
10.7146
10.7129
10.7118
10.711
10.7106
10.7105
10.7106
10.7109
10.7115
10.7123
10.7133
10.7146
10.7162
10.7183
10.7207
10.7237
10.7273
10.7315
10.7366
10.7427
10.7498
10.7581
10.7678
10.7791
10.7922
10.8072
10.8244
10.844
10.8663
10.8915
10.9198
10.9515
10.9868
11.0261
11.0694
11.1172
11.1695
11.2266
11.2887
11.3558
11.4282
11.5056
11.586
388.072
364.348
340.819
317.63
294.912
272.785
251.359
230.733
210.993
192.21
174.441
157.729
142.103
127.575
114.147
101.807
90.531
80.287
71.0334
62.7221
55.2995
48.7081
42.888
37.7777
33.3158
29.4419
26.0973
23.2256
20.7735
18.6914
16.9331
15.4564
14.2228
13.1981
12.3513
11.6554
11.0865
10.624
10.2498
9.94885
9.70797
9.51619
9.3643
9.24463
9.15082
9.07766
9.0209
8.97709
8.94344
8.91772
8.89817
8.88339
8.87227
8.86395
8.85776
8.8532
8.84986
8.84745
8.84573
8.84455
8.84379
8.84335
8.84317
8.84322
8.84348
8.84394
8.8446
8.8455
8.84664
8.84808
8.84985
8.85201
8.85462
8.85777
8.86153
8.86602
8.87132
8.87757
8.8849
8.89345
8.90338
8.91485
8.92806
8.94319
8.96044
8.98002
9.00214
9.02702
9.05489
9.08597
9.12047
9.15861
9.20059
9.2466
9.29682
9.35141
9.4105
9.47418
9.54226
9.61298
388.026
364.209
340.589
317.31
294.502
272.289
250.779
230.071
210.253
191.395
173.555
156.777
141.087
126.5
113.018
100.627
89.3043
79.0177
69.7255
61.3793
53.9254
47.306
41.461
36.3288
31.8477
27.957
24.5977
21.7134
19.2506
17.1592
15.3931
13.9097
12.6706
11.6412
10.7906
10.0915
9.52004
9.05535
8.67951
8.37712
8.13511
7.94243
7.78982
7.66958
7.57533
7.50182
7.44479
7.40076
7.36694
7.3411
7.32146
7.3066
7.29542
7.28705
7.28083
7.27624
7.27287
7.27043
7.26869
7.26749
7.26669
7.26622
7.266
7.26599
7.26619
7.26656
7.26713
7.2679
7.26889
7.27014
7.27168
7.27357
7.27585
7.2786
7.28189
7.28581
7.29044
7.2959
7.3023
7.30977
7.31844
7.32846
7.34
7.35321
7.36828
7.38537
7.4047
7.42643
7.45077
7.47792
7.50805
7.54137
7.57805
7.61825
7.66213
7.70984
7.76149
7.81715
7.87667
7.93847
387.987
364.092
340.396
317.04
294.158
271.872
250.291
229.515
209.631
190.71
172.811
155.976
140.233
125.597
112.068
99.6349
88.2736
77.9513
68.6267
60.2512
52.771
46.1282
40.2623
35.1117
30.6144
26.7096
23.3381
20.4432
17.9713
15.8722
14.0995
12.6106
11.3668
10.3335
9.47969
8.77793
8.20425
7.73777
7.36046
7.05689
6.81393
6.6205
6.46729
6.34657
6.25194
6.17813
6.12087
6.07666
6.04271
6.01676
5.99703
5.98211
5.97088
5.96248
5.95623
5.9516
5.94821
5.94575
5.944
5.94277
5.94194
5.94143
5.94117
5.94112
5.94126
5.94156
5.94204
5.94269
5.94355
5.94462
5.94596
5.94759
5.94958
5.95196
5.95482
5.95821
5.96223
5.96697
5.97253
5.97901
5.98653
5.99523
6.00524
6.01671
6.02978
6.04462
6.06138
6.08024
6.10137
6.12493
6.15108
6.18
6.21184
6.24674
6.28484
6.32626
6.37112
6.41946
6.47116
6.52482
387.955
363.995
340.234
316.815
293.87
271.523
249.883
229.05
209.111
190.138
172.189
155.307
139.52
124.843
111.275
98.8063
87.4123
77.0603
67.7086
59.3087
51.8066
45.1442
39.2609
34.0949
29.5841
25.6676
22.2858
19.3821
16.9026
14.7971
13.0188
11.5253
10.2776
9.24109
8.38454
7.68054
7.10503
6.63704
6.25852
5.95397
5.71021
5.51614
5.36242
5.2413
5.14636
5.07231
5.01485
4.97049
4.93642
4.91039
4.89059
4.87561
4.86434
4.8559
4.84962
4.84498
4.84157
4.83909
4.83732
4.83607
4.83522
4.83468
4.83438
4.83429
4.83437
4.83461
4.835
4.83555
4.83628
4.8372
4.83835
4.83976
4.84147
4.84352
4.84599
4.84892
4.85238
4.85647
4.86126
4.86685
4.87334
4.88084
4.88947
4.89935
4.91063
4.92342
4.93788
4.95414
4.97235
4.99267
5.01523
5.04017
5.06763
5.09773
5.13061
5.16635
5.20505
5.24678
5.2914
5.3377
387.928
363.914
340.099
316.627
293.631
271.233
249.544
228.664
208.679
189.662
171.672
154.75
138.927
124.215
110.616
98.1176
86.6966
76.3199
66.9457
58.5256
51.0052
44.3265
38.4288
33.25
28.7281
24.8017
21.4115
18.5005
16.0147
13.9037
12.121
10.6235
9.37267
8.3334
7.47461
6.76876
6.19171
5.72248
5.34294
5.03756
4.79315
4.59855
4.44441
4.32296
4.22775
4.15349
4.09587
4.05139
4.01722
3.99111
3.97125
3.95623
3.94493
3.93646
3.93016
3.9255
3.92207
3.91958
3.91778
3.91651
3.91564
3.91508
3.91475
3.91462
3.91465
3.91482
3.91514
3.9156
3.91622
3.91701
3.91799
3.91919
3.92065
3.92242
3.92452
3.92703
3.93001
3.93351
3.93761
3.9424
3.94796
3.95439
3.96179
3.97026
3.97991
3.99087
4.00326
4.0172
4.03281
4.05022
4.06955
4.09092
4.11446
4.14027
4.16845
4.1991
4.23229
4.26807
4.30635
4.34605
387.905
363.847
339.988
316.472
293.433
270.993
249.263
228.344
208.321
189.269
171.244
154.291
138.437
123.697
110.071
97.5484
86.1051
75.7079
66.3152
57.8783
50.3429
43.6508
37.7412
32.5519
28.0207
24.0862
20.689
17.7719
15.2809
13.1655
11.379
9.87837
8.62481
7.58331
6.72265
6.01526
5.43695
4.96669
4.58631
4.28025
4.03529
3.84025
3.68576
3.56403
3.4686
3.39417
3.33642
3.29183
3.25759
3.23141
3.21151
3.19645
3.18511
3.17663
3.17031
3.16563
3.16219
3.15968
3.15787
3.15658
3.15569
3.15511
3.15475
3.15458
3.15457
3.15469
3.15494
3.15532
3.15584
3.1565
3.15734
3.15836
3.1596
3.1611
3.1629
3.16504
3.16757
3.17055
3.17404
3.17812
3.18286
3.18833
3.19463
3.20184
3.21006
3.2194
3.22995
3.24181
3.25511
3.26993
3.2864
3.30461
3.32466
3.34665
3.37066
3.39677
3.42506
3.45556
3.48819
3.52202
387.887
363.792
339.896
316.345
293.27
270.796
249.033
228.081
208.028
188.945
170.893
153.912
138.034
123.27
109.623
97.0805
85.6188
75.2049
65.797
57.3463
49.7986
43.0954
37.176
31.978
27.4392
23.4981
20.0951
17.1731
14.6778
12.5588
10.7691
9.26588
8.01012
6.96677
6.10458
5.39593
4.81658
4.34546
3.96439
3.65777
3.41236
3.21696
3.06218
2.94022
2.84461
2.77004
2.71218
2.66751
2.63319
2.60696
2.58702
2.57193
2.56057
2.55206
2.54573
2.54104
2.53758
2.53506
2.53324
2.53194
2.53103
2.53043
2.53005
2.52985
2.5298
2.52987
2.53007
2.53037
2.5308
2.53136
2.53206
2.53292
2.53397
2.53524
2.53676
2.53857
2.54071
2.54323
2.54619
2.54964
2.55365
2.55829
2.56361
2.56972
2.57668
2.58458
2.59351
2.60355
2.6148
2.62735
2.64129
2.6567
2.67368
2.6923
2.71263
2.73475
2.75872
2.78456
2.8122
2.84085
387.872
363.747
339.822
316.24
293.137
270.635
248.844
227.866
207.787
188.681
170.605
153.603
137.704
122.922
109.257
96.6979
85.2212
74.7936
65.3733
56.9113
49.3535
42.6413
36.7139
31.5089
26.9639
23.0174
19.6096
16.6835
14.1847
12.0627
10.2705
8.76514
7.50757
6.46272
5.59928
4.88959
4.30939
3.83757
3.45593
3.14885
2.90307
2.70737
2.55236
2.43021
2.33446
2.25977
2.20182
2.15707
2.1227
2.09643
2.07646
2.06134
2.04996
2.04144
2.03509
2.03039
2.02692
2.02439
2.02256
2.02124
2.02032
2.0197
2.0193
2.01907
2.01899
2.01902
2.01916
2.01941
2.01976
2.02022
2.0208
2.02153
2.02241
2.02347
2.02475
2.02627
2.02808
2.0302
2.03269
2.03559
2.03897
2.04286
2.04735
2.05248
2.05834
2.06498
2.07249
2.08094
2.09041
2.10097
2.11269
2.12567
2.13995
2.15562
2.17274
2.19136
2.21154
2.2333
2.25658
2.2807
387.86
363.71
339.761
316.156
293.029
270.503
248.691
227.691
207.592
188.466
170.371
153.352
137.436
122.638
108.959
96.3868
84.8979
74.4591
65.0287
56.5576
48.9916