/*--------------------------------*- C++ -*----------------------------------*\
  =========                 |
  \\      /  F ield         | OpenFOAM: The Open Source CFD Toolbox
   \\    /   O peration     | Website:  https://openfoam.org
    \\  /    A nd           | Version:  10
     \\/     M anipulation  |
\*---------------------------------------------------------------------------*/
FoamFile
{
    format      ascii;
    class       volScalarField;
    location    "29";
    object      T_0;
}
// * * * * * * * * * * * * * * * * * * * * * * * * * * * * * * * * * * * * * //

dimensions      [0 0 0 1 0 0 0];

internalField   nonuniform List<scalar> 
10000
(
374.981
361.285
356.602
354.548
353.433
352.729
352.237
351.87
351.583
351.349
351.154
350.987
350.842
350.713
350.598
350.493
350.397
350.308
350.226
350.149
350.076
350.008
349.942
349.88
349.821
349.764
349.709
349.656
349.605
349.556
349.508
349.462
349.417
349.373
349.331
349.289
349.249
349.21
349.171
349.134
349.097
349.062
349.027
348.993
348.96
348.927
348.896
348.865
348.834
348.805
348.776
348.748
348.72
348.694
348.667
348.642
348.617
348.593
348.569
348.546
348.524
348.502
348.481
348.46
348.44
348.421
348.402
348.384
348.366
348.349
348.333
348.317
348.302
348.287
348.273
348.26
348.247
348.234
348.222
348.211
348.2
348.19
348.18
348.171
348.163
348.155
348.148
348.141
348.135
348.129
348.124
348.119
348.115
348.111
348.108
348.106
348.104
348.103
348.102
348.102
388.609
374.843
367.18
362.709
359.891
357.976
356.59
355.534
354.697
354.012
353.436
352.942
352.511
352.128
351.784
351.472
351.186
350.921
350.675
350.445
350.227
350.022
349.827
349.641
349.463
349.292
349.128
348.97
348.817
348.669
348.526
348.387
348.253
348.122
347.994
347.87
347.749
347.631
347.516
347.404
347.295
347.188
347.083
346.981
346.882
346.784
346.689
346.596
346.506
346.417
346.331
346.246
346.164
346.083
346.005
345.928
345.854
345.781
345.71
345.641
345.574
345.509
345.445
345.383
345.324
345.266
345.209
345.155
345.102
345.051
345.002
344.954
344.908
344.864
344.822
344.781
344.742
344.705
344.67
344.636
344.604
344.573
344.544
344.517
344.492
344.468
344.446
344.425
344.406
344.389
344.374
344.36
344.348
344.337
344.328
344.321
344.315
344.311
344.308
344.308
393.222
382.297
374.564
369.216
365.445
362.694
360.611
358.978
357.658
356.564
355.637
354.835
354.131
353.504
352.94
352.425
351.953
351.516
351.109
350.727
350.367
350.027
349.703
349.394
349.098
348.814
348.542
348.279
348.025
347.779
347.541
347.31
347.086
346.867
346.655
346.449
346.247
346.051
345.86
345.673
345.49
345.312
345.138
344.969
344.803
344.641
344.482
344.328
344.176
344.029
343.885
343.744
343.607
343.473
343.342
343.214
343.09
342.969
342.851
342.736
342.624
342.515
342.41
342.307
342.207
342.11
342.017
341.926
341.838
341.753
341.671
341.592
341.516
341.442
341.372
341.304
341.239
341.177
341.118
341.061
341.008
340.957
340.909
340.864
340.821
340.782
340.745
340.71
340.679
340.65
340.625
340.601
340.581
340.563
340.548
340.536
340.527
340.52
340.516
340.515
395.206
386.559
379.563
374.145
369.981
366.745
364.182
362.109
360.396
358.952
357.712
356.631
355.675
354.82
354.046
353.339
352.688
352.083
351.519
350.99
350.49
350.017
349.566
349.136
348.724
348.329
347.948
347.581
347.227
346.884
346.552
346.229
345.916
345.611
345.314
345.026
344.744
344.47
344.202
343.941
343.686
343.437
343.194
342.956
342.724
342.497
342.276
342.06
341.848
341.642
341.44
341.243
341.051
340.864
340.681
340.502
340.328
340.159
339.994
339.833
339.677
339.524
339.376
339.233
339.093
338.958
338.827
338.699
338.577
338.458
338.343
338.232
338.125
338.023
337.924
337.829
337.738
337.651
337.569
337.49
337.415
337.344
337.276
337.213
337.154
337.098
337.046
336.999
336.955
336.915
336.878
336.846
336.817
336.793
336.772
336.755
336.741
336.732
336.726
336.724
396.251
389.167
382.985
377.822
373.588
370.123
367.266
364.882
362.866
361.136
359.631
358.304
357.122
356.056
355.087
354.199
353.377
352.613
351.898
351.226
350.59
349.987
349.412
348.863
348.337
347.832
347.345
346.876
346.422
345.983
345.557
345.143
344.742
344.351
343.971
343.6
343.239
342.887
342.544
342.208
341.881
341.561
341.249
340.944
340.646
340.355
340.071
339.793
339.521
339.256
338.997
338.744
338.498
338.257
338.022
337.793
337.569
337.351
337.139
336.933
336.732
336.536
336.346
336.161
335.982
335.808
335.64
335.476
335.318
335.166
335.018
334.876
334.738
334.606
334.48
334.358
334.241
334.13
334.023
333.922
333.825
333.734
333.648
333.566
333.49
333.419
333.352
333.291
333.234
333.183
333.136
333.095
333.058
333.026
332.999
332.977
332.96
332.948
332.941
332.939
396.886
390.874
385.388
380.571
376.428
372.893
369.877
367.29
365.052
363.097
361.372
359.835
358.453
357.199
356.051
354.994
354.013
353.097
352.238
351.428
350.661
349.933
349.237
348.572
347.935
347.321
346.73
346.16
345.608
345.073
344.555
344.052
343.563
343.087
342.623
342.172
341.732
341.303
340.884
340.475
340.076
339.686
339.305
338.933
338.569
338.214
337.867
337.527
337.196
336.872
336.556
336.248
335.946
335.652
335.365
335.086
334.813
334.547
334.288
334.036
333.79
333.551
333.319
333.094
332.875
332.663
332.457
332.257
332.064
331.878
331.698
331.524
331.356
331.195
331.04
330.891
330.749
330.613
330.483
330.359
330.241
330.129
330.024
329.925
329.831
329.744
329.663
329.588
329.519
329.456
329.399
329.349
329.304
329.265
329.232
329.205
329.184
329.17
329.161
329.158
397.308
392.052
387.124
382.648
378.66
375.147
372.061
369.349
366.956
364.83
362.928
361.215
359.66
358.238
356.929
355.716
354.587
353.529
352.533
351.592
350.7
349.85
349.038
348.26
347.513
346.794
346.101
345.431
344.783
344.155
343.545
342.953
342.377
341.817
341.272
340.74
340.221
339.716
339.222
338.74
338.269
337.809
337.36
336.921
336.492
336.073
335.664
335.264
334.873
334.491
334.118
333.754
333.398
333.051
332.712
332.382
332.06
331.746
331.44
331.143
330.853
330.571
330.297
330.031
329.773
329.522
329.279
329.043
328.815
328.595
328.382
328.177
327.979
327.789
327.606
327.43
327.262
327.101
326.948
326.802
326.663
326.531
326.406
326.289
326.179
326.076
325.98
325.892
325.81
325.736
325.669
325.609
325.556
325.51
325.471
325.44
325.415
325.397
325.387
325.384
397.606
392.899
388.411
384.236
380.421
376.973
373.874
371.093
368.594
366.341
364.3
362.44
360.737
359.168
357.714
356.36
355.094
353.903
352.779
351.714
350.701
349.734
348.81
347.923
347.07
346.248
345.455
344.688
343.945
343.225
342.526
341.846
341.185
340.542
339.915
339.304
338.708
338.126
337.558
337.004
336.462
335.933
335.416
334.911
334.417
333.934
333.463
333.002
332.552
332.112
331.682
331.263
330.853
330.453
330.063
329.683
329.312
328.95
328.598
328.255
327.921
327.596
327.28
326.974
326.676
326.387
326.107
325.835
325.573
325.319
325.074
324.837
324.609
324.39
324.179
323.976
323.782
323.597
323.42
323.251
323.091
322.939
322.796
322.661
322.534
322.415
322.305
322.203
322.109
322.023
321.946
321.876
321.815
321.763
321.718
321.681
321.653
321.633
321.621
321.617
397.824
393.529
389.384
385.465
381.815
378.451
375.371
372.558
369.99
367.644
365.492
363.513
361.683
359.986
358.404
356.923
355.53
354.216
352.972
351.789
350.662
349.584
348.551
347.559
346.603
345.682
344.791
343.929
343.094
342.283
341.496
340.73
339.985
339.26
338.553
337.863
337.19
336.533
335.892
335.266
334.654
334.056
333.472
332.901
332.343
331.797
331.264
330.743
330.234
329.736
329.25
328.776
328.312
327.86
327.419
326.988
326.568
326.159
325.761
325.372
324.994
324.627
324.27
323.922
323.585
323.258
322.941
322.634
322.337
322.05
321.772
321.504
321.246
320.998
320.759
320.53
320.31
320.101
319.9
319.709
319.528
319.356
319.194
319.04
318.897
318.763
318.638
318.522
318.416
318.319
318.231
318.153
318.084
318.024
317.973
317.932
317.9
317.877
317.863
317.859
397.989
394.007
390.134
386.427
382.925
379.648
376.602
373.78
371.169
368.754
366.517
364.439
362.503
360.694
358.998
357.402
355.894
354.466
353.11
351.817
350.581
349.397
348.26
347.166
346.112
345.093
344.108
343.153
342.228
341.329
340.455
339.605
338.777
337.971
337.184
336.417
335.669
334.938
334.224
333.527
332.845
332.179
331.528
330.892
330.27
329.662
329.067
328.486
327.919
327.364
326.822
326.293
325.776
325.272
324.779
324.299
323.831
323.374
322.929
322.496
322.075
321.664
321.266
320.878
320.502
320.137
319.783
319.441
319.109
318.788
318.479
318.18
317.892
317.614
317.348
317.092
316.847
316.613
316.389
316.176
315.974
315.782
315.601
315.43
315.269
315.12
314.98
314.851
314.732
314.624
314.526
314.439
314.362
314.295
314.239
314.192
314.157
314.131
314.116
314.111
398.115
394.376
390.718
387.186
383.812
380.618
377.611
374.793
372.156
369.691
367.386
365.227
363.201
361.295
359.498
357.798
356.186
354.653
353.191
351.794
350.456
349.171
347.935
346.744
345.594
344.481
343.404
342.36
341.346
340.361
339.402
338.469
337.56
336.674
335.81
334.967
334.143
333.339
332.553
331.786
331.035
330.302
329.585
328.884
328.199
327.529
326.873
326.233
325.607
324.996
324.398
323.815
323.245
322.689
322.146
321.616
321.099
320.596
320.105
319.627
319.162
318.71
318.27
317.842
317.427
317.025
316.634
316.256
315.89
315.536
315.194
314.864
314.547
314.241
313.947
313.664
313.394
313.135
312.889
312.654
312.43
312.218
312.018
311.83
311.653
311.487
311.333
311.191
311.06
310.94
310.832
310.736
310.651
310.577
310.515
310.464
310.424
310.396
310.379
310.374
398.214
394.665
391.177
387.787
384.523
381.402
378.436
375.627
372.975
370.474
368.114
365.888
363.785
361.794
359.907
358.113
356.405
354.775
353.216
351.722
350.287
348.906
347.576
346.291
345.048
343.845
342.679
341.547
340.448
339.378
338.337
337.323
336.334
335.37
334.429
333.511
332.614
331.737
330.881
330.044
329.225
328.425
327.643
326.878
326.129
325.398
324.683
323.984
323.3
322.632
321.98
321.342
320.719
320.112
319.518
318.94
318.375
317.825
317.288
316.766
316.258
315.763
315.282
314.815
314.361
313.921
313.494
313.081
312.681
312.294
311.92
311.559
311.212
310.877
310.556
310.247
309.952
309.669
309.399
309.142
308.898
308.666
308.447
308.241
308.047
307.866
307.698
307.542
307.399
307.268
307.15
307.045
306.952
306.871
306.803
306.747
306.704
306.673
306.655
306.649
398.291
394.891
391.54
388.265
385.091
382.034
379.105
376.309
373.648
371.118
368.715
366.432
364.262
362.197
360.229
358.351
356.555
354.835
353.186
351.6
350.074
348.602
347.181
345.806
344.475
343.185
341.933
340.716
339.532
338.381
337.259
336.165
335.099
334.058
333.042
332.049
331.08
330.132
329.206
328.3
327.414
326.548
325.701
324.873
324.063
323.27
322.496
321.738
320.997
320.274
319.566
318.875
318.2
317.541
316.898
316.271
315.658
315.062
314.48
313.914
313.362
312.826
312.304
311.797
311.305
310.828
310.365
309.916
309.482
309.062
308.657
308.266
307.889
307.526
307.177
306.842
306.521
306.214
305.922
305.643
305.377
305.126
304.889
304.665
304.455
304.258
304.076
303.907
303.751
303.61
303.481
303.367
303.266
303.178
303.104
303.044
302.997
302.964
302.944
302.937
398.351
395.07
391.826
388.645
385.545
382.542
379.645
376.861
374.193
371.641
369.201
366.869
364.64
362.509
360.469
358.514
356.638
354.835
353.101
351.429
349.817
348.258
346.751
345.291
343.875
342.5
341.164
339.865
338.6
337.368
336.168
334.996
333.853
332.737
331.647
330.582
329.541
328.524
327.528
326.555
325.603
324.672
323.761
322.87
321.999
321.146
320.312
319.497
318.7
317.921
317.159
316.415
315.688
314.978
314.286
313.61
312.95
312.307
311.681
311.071
310.477
309.899
309.337
308.79
308.26
307.745
307.246
306.763
306.295
305.843
305.406
304.984
304.578
304.186
303.81
303.449
303.104
302.773
302.457
302.156
301.871
301.6
301.344
301.102
300.876
300.664
300.467
300.285
300.118
299.965
299.827
299.703
299.594
299.5
299.42
299.355
299.304
299.268
299.247
299.24
398.399
395.211
392.053
388.945
385.905
382.945
380.075
377.302
374.629
372.056
369.584
367.21
364.929
362.738
360.632
358.607
356.656
354.777
352.963
351.211
349.516
347.876
346.286
344.744
343.246
341.79
340.374
338.995
337.651
336.341
335.063
333.816
332.599
331.409
330.246
329.11
327.999
326.912
325.849
324.809
323.792
322.797
321.823
320.87
319.938
319.025
318.133
317.261
316.408
315.574
314.758
313.962
313.183
312.423
311.681
310.957
310.251
309.563
308.891
308.238
307.601
306.982
306.38
305.795
305.226
304.675
304.14
303.622
303.121
302.636
302.167
301.715
301.28
300.861
300.457
300.071
299.7
299.346
299.007
298.685
298.378
298.088
297.813
297.555
297.312
297.085
296.874
296.679
296.499
296.335
296.187
296.055
295.938
295.837
295.751
295.681
295.627
295.589
295.566
295.558
398.436
395.321
392.23
389.181
386.188
383.262
380.413
377.647
374.968
372.378
369.877
367.464
365.136
362.891
360.725
358.634
356.615
354.663
352.775
350.947
349.175
347.456
345.788
344.167
342.59
341.056
339.561
338.105
336.685
335.299
333.946
332.625
331.334
330.073
328.839
327.633
326.453
325.298
324.168
323.063
321.981
320.922
319.886
318.872
317.88
316.909
315.959
315.03
314.122
313.233
312.365
311.516
310.687
309.877
309.086
308.315
307.562
306.828
306.113
305.416
304.737
304.077
303.435
302.811
302.205
301.617
301.047
300.494
299.96
299.442
298.943
298.461
297.996
297.549
297.119
296.707
296.311
295.933
295.572
295.228
294.901
294.592
294.299
294.023
293.764
293.522
293.297
293.088
292.897
292.722
292.564
292.423
292.298
292.19
292.099
292.024
291.967
291.925
291.901
291.893
398.465
395.406
392.367
389.363
386.406
383.507
380.673
377.911
375.225
372.617
370.089
367.639
365.268
362.973
360.751
358.6
356.516
354.497
352.539
350.639
348.793
347
345.257
343.56
341.908
340.298
338.728
337.197
335.702
334.242
332.817
331.423
330.061
328.728
327.425
326.15
324.903
323.681
322.486
321.316
320.171
319.05
317.952
316.878
315.826
314.797
313.791
312.805
311.842
310.9
309.979
309.079
308.199
307.34
306.501
305.682
304.883
304.104
303.345
302.605
301.885
301.184
300.503
299.84
299.197
298.573
297.967
297.381
296.813
296.264
295.733
295.221
294.728
294.253
293.797
293.358
292.938
292.537
292.153
291.788
291.441
291.112
290.801
290.508
290.233
289.976
289.737
289.515
289.312
289.126
288.958
288.808
288.676
288.561
288.464
288.385
288.324
288.28
288.254
288.245
398.487
395.47
392.47
389.5
386.57
383.69
380.865
378.104
375.409
372.783
370.228
367.745
365.333
362.991
360.717
358.51
356.365
354.282
352.258
350.289
348.374
346.51
344.694
342.925
341.199
339.516
337.874
336.27
334.703
333.172
331.674
330.21
328.778
327.377
326.006
324.663
323.349
322.063
320.803
319.569
318.361
317.179
316.021
314.887
313.777
312.691
311.628
310.587
309.57
308.574
307.601
306.65
305.72
304.812
303.926
303.06
302.216
301.392
300.589
299.807
299.046
298.305
297.584
296.883
296.203
295.543
294.902
294.282
293.681
293.1
292.539
291.998
291.476
290.973
290.49
290.027
289.583
289.158
288.752
288.365
287.998
287.65
287.321
287.011
286.72
286.448
286.195
285.96
285.745
285.549
285.371
285.212
285.072
284.951
284.848
284.764
284.699
284.653
284.625
284.616
398.503
395.517
392.546
389.6
386.689
383.82
381
378.235
375.529
372.885
370.305
367.789
365.338
362.952
360.628
358.367
356.165
354.022
351.934
349.9
347.918
345.986
344.101
342.262
340.467
338.713
337
335.325
333.688
332.087
330.521
328.988
327.487
326.019
324.581
323.172
321.793
320.442
319.119
317.823
316.553
315.31
314.093
312.9
311.733
310.59
309.471
308.376
307.305
306.257
305.233
304.231
303.252
302.296
301.362
300.45
299.56
298.693
297.847
297.023
296.22
295.439
294.679
293.941
293.224
292.528
291.853
291.199
290.566
289.953
289.362
288.791
288.241
287.711
287.202
286.713
286.244
285.796
285.369
284.961
284.574
284.207
283.86
283.533
283.226
282.939
282.672
282.425
282.198
281.99
281.803
281.636
281.488
281.36
281.252
281.163
281.095
281.046
281.017
281.007
398.514
395.55
392.598
389.668
386.768
383.906
381.086
378.314
375.595
372.931
370.325
367.777
365.288
362.859
360.489
358.176
355.92
353.719
351.571
349.475
347.429
345.431
343.48
341.574
339.71
337.888
336.107
334.364
332.659
330.99
329.356
327.756
326.189
324.654
323.15
321.677
320.234
318.82
317.435
316.077
314.747
313.444
312.168
310.918
309.694
308.495
307.321
306.173
305.049
303.949
302.873
301.822
300.794
299.79
298.809
297.852
296.917
296.006
295.118
294.252
293.409
292.588
291.79
291.014
290.261
289.529
288.82
288.132
287.467
286.824
286.202
285.602
285.023
284.466
283.931
283.417
282.925
282.454
282.004
281.576
281.169
280.783
280.418
280.074
279.752
279.45
279.169
278.909
278.671
278.453
278.256
278.08
277.924
277.79
277.676
277.583
277.511
277.46
277.429
277.419
398.521
395.571
392.63
389.709
386.815
383.953
381.128
378.347
375.612
372.927
370.294
367.715
365.19
362.719
360.303
357.941
355.633
353.377
351.171
349.015
346.908
344.847
342.832
340.861
338.932
337.044
335.196
333.387
331.615
329.88
328.18
326.514
324.882
323.283
321.716
320.179
318.673
317.197
315.751
314.333
312.944
311.582
310.248
308.941
307.661
306.407
305.179
303.977
302.801
301.65
300.524
299.424
298.348
297.296
296.269
295.267
294.288
293.333
292.403
291.496
290.612
289.753
288.916
288.104
287.314
286.547
285.804
285.084
284.386
283.712
283.06
282.431
281.825
281.241
280.68
280.142
279.625
279.132
278.66
278.211
277.784
277.38
276.997
276.637
276.298
275.982
275.688
275.416
275.165
274.937
274.73
274.546
274.383
274.242
274.122
274.025
273.949
273.895
273.863
273.853
398.525
395.581
392.645
389.727
386.833
383.966
381.134
378.34
375.587
372.88
370.22
367.608
365.047
362.536
360.076
357.667
355.308
352.998
350.737
348.524
346.357
344.236
342.159
340.125
338.132
336.181
334.268
332.395
330.559
328.759
326.995
325.265
323.57
321.907
320.277
318.678
317.111
315.575
314.068
312.591
311.143
309.724
308.333
306.97
305.634
304.326
303.045
301.791
300.563
299.362
298.186
297.037
295.913
294.815
293.742
292.695
291.673
290.675
289.703
288.755
287.832
286.934
286.06
285.21
284.385
283.583
282.806
282.053
281.324
280.619
279.938
279.28
278.646
278.036
277.449
276.886
276.346
275.83
275.337
274.868
274.421
273.998
273.598
273.221
272.867
272.536
272.229
271.944
271.682
271.443
271.227
271.034
270.864
270.716
270.591
270.49
270.41
270.354
270.32
270.309
398.525
395.582
392.646
389.726
386.826
383.951
381.107
378.297
375.525
372.794
370.106
367.462
364.865
362.314
359.811
357.356
354.948
352.587
350.272
348.004
345.779
343.599
341.462
339.367
337.314
335.3
333.325
331.389
329.49
327.627
325.8
324.008
322.251
320.526
318.835
317.176
315.548
313.952
312.387
310.851
309.346
307.87
306.423
305.005
303.615
302.253
300.92
299.614
298.335
297.084
295.86
294.662
293.491
292.347
291.229
290.138
289.072
288.032
287.019
286.031
285.068
284.132
283.22
282.334
281.474
280.638
279.828
279.042
278.282
277.546
276.836
276.15
275.488
274.852
274.24
273.652
273.089
272.551
272.036
271.546
271.08
270.639
270.221
269.828
269.459
269.114
268.793
268.496
268.222
267.973
267.748
267.546
267.368
267.214
267.084
266.978
266.895
266.837
266.801
266.79
398.523
395.575
392.634
389.707
386.797
383.911
381.052
378.224
375.431
372.674
369.957
367.281
364.648
362.058
359.513
357.012
354.557
352.146
349.779
347.456
345.176
342.94
340.744
338.591
336.477
334.403
332.367
330.37
328.41
326.486
324.598
322.745
320.927
319.142
317.39
315.672
313.985
312.331
310.707
309.115
307.553
306.021
304.519
303.046
301.603
300.189
298.804
297.447
296.118
294.818
293.545
292.3
291.083
289.893
288.731
287.595
286.487
285.406
284.351
283.323
282.322
281.347
280.399
279.477
278.582
277.712
276.869
276.051
275.26
274.494
273.754
273.04
272.352
271.689
271.052
270.441
269.854
269.294
268.758
268.248
267.763
267.303
266.869
266.459
266.075
265.715
265.381
265.072
264.787
264.528
264.293
264.083
263.898
263.737
263.602
263.491
263.405
263.344
263.307
263.295
398.519
395.562
392.611
389.673
386.751
383.85
380.973
378.124
375.307
372.524
369.777
367.068
364.399
361.77
359.184
356.639
354.137
351.677
349.259
346.884
344.55
342.258
340.007
337.796
335.624
333.491
331.396
329.34
327.32
325.336
323.389
321.476
319.598
317.754
315.944
314.167
312.423
310.711
309.031
307.382
305.764
304.178
302.622
301.096
299.6
298.134
296.698
295.29
293.913
292.564
291.243
289.952
288.689
287.454
286.247
285.069
283.918
282.796
281.701
280.634
279.594
278.582
277.597
276.64
275.709
274.806
273.93
273.081
272.259
271.464
270.695
269.953
269.238
268.55
267.888
267.252
266.643
266.06
265.504
264.974
264.47
263.992
263.54
263.115
262.715
262.342
261.994
261.673
261.377
261.107
260.863
260.645
260.453
260.286
260.145
260.03
259.941
259.877
259.839
259.826
398.513
395.543
392.579
389.626
386.688
383.769
380.872
378.001
375.159
372.347
369.57
366.827
364.122
361.455
358.827
356.239
353.691
351.183
348.716
346.29
343.904
341.557
339.251
336.984
334.756
332.566
330.414
328.299
326.221
324.179
322.173
320.202
318.266
316.364
314.497
312.663
310.862
309.093
307.357
305.654
303.981
302.341
300.732
299.153
297.606
296.089
294.602
293.146
291.719
290.322
288.955
287.617
286.309
285.03
283.78
282.559
281.367
280.203
279.069
277.963
276.885
275.836
274.815
273.822
272.858
271.921
271.013
270.133
269.28
268.455
267.658
266.889
266.148
265.433
264.747
264.088
263.456
262.851
262.274
261.724
261.202
260.706
260.238
259.796
259.382
258.994
258.634
258.3
257.993
257.714
257.46
257.234
257.035
256.862
256.716
256.596
256.503
256.437
256.398
256.385
398.505
395.519
392.539
389.568
386.611
383.671
380.752
377.857
374.988
372.147
369.338
366.562
363.82
361.115
358.446
355.814
353.221
350.667
348.152
345.675
343.238
340.839
338.479
336.158
333.874
331.628
329.42
327.249
325.114
323.015
320.952
318.924
316.931
314.973
313.049
311.159
309.302
307.479
305.688
303.93
302.205
300.511
298.85
297.22
295.621
294.054
292.518
291.013
289.538
288.094
286.681
285.298
283.945
282.622
281.329
280.066
278.833
277.629
276.455
275.311
274.196
273.11
272.053
271.026
270.028
269.059
268.118
267.207
266.324
265.47
264.645
263.849
263.081
262.342
261.631
260.948
260.294
259.668
259.07
258.501
257.96
257.446
256.961
256.504
256.075
255.674
255.3
254.955
254.637
254.347
254.085
253.851
253.644
253.465
253.313
253.19
253.094
253.025
252.984
252.971
398.496
395.491
392.491
389.5
386.522
383.56
380.616
377.694
374.797
371.927
369.085
366.275
363.497
360.752
358.042
355.369
352.731
350.131
347.568
345.042
342.555
340.105
337.693
335.318
332.981
330.68
328.417
326.19
324
321.846
319.727
317.643
315.595
313.581
311.602
309.657
307.746
305.868
304.024
302.213
300.435
298.689
296.976
295.296
293.647
292.03
290.446
288.892
287.371
285.88
284.421
282.993
281.597
280.231
278.895
277.591
276.317
275.074
273.861
272.679
271.527
270.405
269.313
268.251
267.22
266.218
265.246
264.304
263.392
262.51
261.657
260.833
260.039
259.275
258.54
257.834
257.158
256.511
255.893
255.304
254.745
254.214
253.712
253.239
252.796
252.381
251.995
251.637
251.309
251.009
250.738
250.495
250.282
250.096
249.94
249.812
249.713
249.642
249.599
249.585
398.485
395.459
392.437
389.424
386.422
383.435
380.465
377.516
374.59
371.688
368.814
365.968
363.153
360.37
357.62
354.904
352.223
349.577
346.967
344.394
341.857
339.357
336.893
334.466
332.076
329.723
327.406
325.125
322.881
320.672
318.498
316.36
314.258
312.19
310.156
308.158
306.193
304.262
302.365
300.502
298.672
296.876
295.112
293.382
291.684
290.019
288.386
286.786
285.217
283.681
282.177
280.705
279.265
277.857
276.48
275.135
273.821
272.538
271.287
270.068
268.879
267.721
266.595
265.499
264.435
263.401
262.398
261.426
260.484
259.573
258.693
257.843
257.024
256.235
255.476
254.747
254.049
253.381
252.743
252.135
251.557
251.009
250.491
250.003
249.545
249.116
248.718
248.349
248.01
247.7
247.42
247.17
246.949
246.758
246.596
246.464
246.361
246.288
246.244
246.23
398.473
395.424
392.378
389.34
386.313
383.299
380.302
377.324
374.367
371.433
368.525
365.644
362.792
359.97
357.18
354.422
351.697
349.007
346.351
343.73
341.145
338.596
336.082
333.605
331.163
328.758
326.388
324.054
321.757
319.494
317.268
315.076
312.92
310.799
308.713
306.661
304.644
302.662
300.713
298.799
296.918
295.071
293.258
291.479
289.732
288.019
286.34
284.693
283.079
281.498
279.95
278.434
276.951
275.501
274.083
272.698
271.344
270.023
268.735
267.478
266.253
265.06
263.9
262.771
261.674
260.608
259.575
258.573
257.602
256.663
255.756
254.879
254.035
253.221
252.439
251.688
250.968
250.279
249.621
248.994
248.399
247.834
247.299
246.796
246.324
245.882
245.471
245.09
244.74
244.421
244.132
243.874
243.646
243.449
243.282
243.146
243.04
242.965
242.919
242.904
398.461
395.386
392.314
389.25
386.196
383.154
380.128
377.119
374.131
371.164
368.222
365.305
362.416
359.555
356.725
353.925
351.158
348.423
345.722
343.055
340.422
337.824
335.261
332.734
330.242
327.785
325.365
322.979
320.629
318.315
316.036
313.792
311.584
309.411
307.273
305.169
303.101
301.067
299.068
297.103
295.173
293.277
291.415
289.587
287.793
286.033
284.307
282.615
280.956
279.331
277.739
276.181
274.656
273.164
271.706
270.28
268.888
267.529
266.203
264.91
263.65
262.423
261.228
260.066
258.937
257.84
256.776
255.745
254.746
253.779
252.845
251.943
251.073
250.235
249.43
248.656
247.915
247.206
246.528
245.883
245.269
244.687
244.137
243.619
243.132
242.677
242.254
241.862
241.502
241.173
240.875
240.609
240.375
240.172
240
239.86
239.75
239.673
239.626
239.611
398.447
395.345
392.246
389.154
386.071
383.001
379.944
376.904
373.883
370.883
367.906
364.953
362.026
359.127
356.256
353.415
350.605
347.827
345.081
342.368
339.689
337.043
334.432
331.856
329.314
326.808
324.336
321.9
319.5
317.134
314.804
312.509
310.25
308.025
305.836
303.682
301.563
299.48
297.431
295.417
293.437
291.493
289.583
287.708
285.867
284.061
282.289
280.552
278.849
277.18
275.546
273.945
272.379
270.847
269.348
267.884
266.454
265.057
263.694
262.365
261.07
259.809
258.581
257.386
256.225
255.098
254.004
252.943
251.916
250.922
249.961
249.034
248.139
247.278
246.45
245.654
244.892
244.162
243.466
242.802
242.17
241.572
241.006
240.473
239.972
239.504
239.069
238.665
238.295
237.956
237.65
237.377
237.136
236.927
236.75
236.605
236.493
236.413
236.365
236.349
398.433
395.302
392.175
389.053
385.941
382.84
379.752
376.68
373.626
370.592
367.579
364.59
361.625
358.687
355.776
352.894
350.042
347.22
344.43
341.672
338.947
336.255
333.596
330.972
328.382
325.826
323.305
320.819
318.369
315.953
313.573
311.228
308.918
306.644
304.405
302.201
300.033
297.9
295.802
293.739
291.712
289.72
287.763
285.842
283.955
282.103
280.287
278.505
276.759
275.047
273.371
271.729
270.122
268.549
267.012
265.509
264.041
262.607
261.209
259.844
258.514
257.219
255.958
254.732
253.54
252.382
251.259
250.169
249.114
248.093
247.106
246.154
245.235
244.35
243.499
242.682
241.899
241.149
240.433
239.751
239.103
238.488
237.906
237.358
236.844
236.363
235.915
235.501
235.12
234.773
234.458
234.177
233.929
233.714
233.533
233.384
233.269
233.187
233.137
233.121
398.418
395.258
392.1
388.948
385.805
382.672
379.553
376.448
373.36
370.291
367.242
364.216
361.214
358.237
355.286
352.363
349.469
346.605
343.771
340.968
338.198
335.459
332.754
330.083
327.445
324.841
322.272
319.737
317.238
314.773
312.343
309.949
307.59
305.267
302.979
300.726
298.51
296.328
294.183
292.073
289.998
287.96
285.957
283.989
282.057
280.161
278.301
276.476
274.686
272.933
271.214
269.532
267.885
266.273
264.697
263.156
261.651
260.181
258.746
257.347
255.984
254.655
253.362
252.104
250.881
249.693
248.541
247.423
246.341
245.293
244.28
243.303
242.36
241.452
240.579
239.74
238.936
238.167
237.432
236.732
236.067
235.436
234.839
234.276
233.748
233.255
232.795
232.37
231.979
231.622
231.299
231.011
230.756
230.536
230.349
230.197
230.078
229.994
229.943
229.927
398.403
395.211
392.023
388.84
385.665
382.5
379.347
376.209
373.086
369.982
366.898
363.834
360.794
357.778
354.788
351.824
348.889
345.982
343.105
340.258
337.443
334.659
331.908
329.19
326.505
323.854
321.237
318.655
316.107
313.594
311.117
308.674
306.267
303.895
301.559
299.259
296.995
294.766
292.573
290.417
288.296
286.212
284.163
282.151
280.175
278.235
276.331
274.463
272.632
270.837
269.078
267.355
265.668
264.018
262.404
260.826
259.284
257.778
256.309
254.875
253.478
252.117
250.792
249.503
248.249
247.032
245.851
244.705
243.596
242.522
241.484
240.482
239.516
238.585
237.689
236.83
236.006
235.217
234.464
233.746
233.063
232.416
231.804
231.228
230.686
230.18
229.709
229.273
228.872
228.506
228.175
227.879
227.618
227.392
227.2
227.044
226.923
226.836
226.784
226.767
398.387
395.164
391.943
388.728
385.52
382.323
379.136
375.964
372.807
369.667
366.546
363.445
360.367
357.312
354.282
351.278
348.301
345.352
342.433
339.542
336.683
333.855
331.059
328.295
325.564
322.867
320.203
317.574
314.979
312.419
309.894
307.404
304.949
302.53
300.147
297.8
295.489
293.214
290.975
288.773
286.607
284.477
282.384
280.328
278.308
276.325
274.379
272.469
270.596
268.76
266.961
265.199
263.474
261.785
260.134
258.519
256.941
255.4
253.896
252.429
250.999
249.605
248.249
246.929
245.646
244.4
243.19
242.017
240.881
239.781
238.719
237.692
236.702
235.749
234.832
233.951
233.107
232.299
231.528
230.793
230.094
229.431
228.804
228.213
227.658
227.14
226.657
226.21
225.8
225.425
225.085
224.782
224.515
224.283
224.087
223.927
223.802
223.714
223.661
223.643
398.371
395.115
391.862
388.614
385.373
382.141
378.921
375.714
372.521
369.346
366.188
363.051
359.934
356.841
353.771
350.727
347.709
344.718
341.756
338.823
335.92
333.048
330.207
327.399
324.622
321.879
319.17
316.494
313.853
311.247
308.675
306.139
303.638
301.173
298.743
296.35
293.993
291.673
289.389
287.141
284.931
282.757
280.62
278.52
276.458
274.432
272.444
270.494
268.58
266.704
264.866
263.065
261.301
259.575
257.887
256.236
254.623
253.047
251.509
250.009
248.546
247.121
245.734
244.384
243.071
241.796
240.559
239.359
238.197
237.072
235.984
234.934
233.921
232.945
232.007
231.106
230.242
229.415
228.626
227.873
227.158
226.479
225.838
225.233
224.666
224.135
223.641
223.183
222.763
222.379
222.032
221.721
221.448
221.21
221.01
220.846
220.718
220.628
220.573
220.555
398.354
395.065
391.779
388.497
385.223
381.957
378.702
375.46
372.232
369.02
365.826
362.651
359.496
356.364
353.255
350.171
347.112
344.081
341.076
338.101