/*--------------------------------*- C++ -*----------------------------------*\
  =========                 |
  \\      /  F ield         | OpenFOAM: The Open Source CFD Toolbox
   \\    /   O peration     | Website:  https://openfoam.org
    \\  /    A nd           | Version:  10
     \\/     M anipulation  |
\*---------------------------------------------------------------------------*/
FoamFile
{
    format      ascii;
    class       volScalarField;
    location    "27";
    object      T;
}
// * * * * * * * * * * * * * * * * * * * * * * * * * * * * * * * * * * * * * //

dimensions      [0 0 0 1 0 0 0];

internalField   nonuniform List<scalar> 
10000
(
374.983
361.282
356.597
354.54
353.422
352.715
352.221
351.851
351.561
351.325
351.127
350.958
350.809
350.678
350.56
350.453
350.354
350.263
350.178
350.099
350.024
349.953
349.885
349.821
349.759
349.7
349.643
349.588
349.535
349.483
349.433
349.385
349.338
349.292
349.248
349.204
349.162
349.121
349.081
349.042
349.003
348.966
348.93
348.894
348.859
348.825
348.792
348.76
348.728
348.697
348.667
348.638
348.609
348.581
348.554
348.527
348.501
348.476
348.451
348.427
348.404
348.381
348.359
348.338
348.317
348.297
348.277
348.258
348.24
348.223
348.206
348.189
348.173
348.158
348.144
348.129
348.116
348.103
348.091
348.079
348.068
348.058
348.048
348.039
348.03
348.022
348.014
348.007
348.001
347.995
347.989
347.985
347.98
347.977
347.974
347.971
347.969
347.968
347.967
347.967
388.606
374.83
367.159
362.68
359.854
357.931
356.536
355.472
354.627
353.934
353.351
352.849
352.41
352.019
351.668
351.348
351.054
350.782
350.528
350.29
350.066
349.853
349.651
349.458
349.273
349.095
348.924
348.759
348.6
348.446
348.296
348.151
348.011
347.874
347.74
347.61
347.484
347.36
347.24
347.123
347.008
346.896
346.787
346.68
346.576
346.474
346.374
346.277
346.182
346.09
345.999
345.911
345.825
345.741
345.659
345.579
345.501
345.425
345.351
345.279
345.209
345.142
345.075
345.011
344.949
344.889
344.83
344.774
344.719
344.666
344.615
344.566
344.518
344.473
344.429
344.387
344.347
344.308
344.271
344.236
344.203
344.172
344.142
344.114
344.088
344.063
344.04
344.019
344
343.982
343.966
343.952
343.939
343.929
343.919
343.912
343.906
343.902
343.899
343.899
393.217
382.276
374.53
369.168
365.384
362.619
360.522
358.876
357.543
356.436
355.495
354.68
353.963
353.323
352.746
352.219
351.734
351.284
350.864
350.47
350.098
349.745
349.41
349.089
348.782
348.487
348.203
347.929
347.664
347.407
347.159
346.917
346.683
346.455
346.233
346.017
345.806
345.6
345.4
345.204
345.013
344.827
344.645
344.467
344.293
344.124
343.958
343.796
343.638
343.484
343.333
343.186
343.043
342.903
342.766
342.633
342.503
342.377
342.254
342.134
342.018
341.905
341.794
341.688
341.584
341.483
341.386
341.292
341.201
341.112
341.027
340.945
340.866
340.79
340.717
340.647
340.58
340.516
340.455
340.397
340.341
340.289
340.239
340.193
340.149
340.108
340.07
340.035
340.003
339.973
339.946
339.923
339.902
339.884
339.868
339.856
339.846
339.839
339.835
339.834
395.198
386.529
379.515
374.079
369.895
366.64
364.059
361.967
360.235
358.772
357.514
356.414
355.44
354.567
353.774
353.049
352.38
351.759
351.177
350.631
350.114
349.623
349.156
348.71
348.282
347.87
347.474
347.092
346.722
346.364
346.017
345.68
345.352
345.034
344.723
344.421
344.127
343.839
343.559
343.286
343.019
342.758
342.503
342.255
342.012
341.774
341.543
341.316
341.095
340.879
340.668
340.463
340.262
340.066
339.875
339.689
339.508
339.331
339.159
338.991
338.828
338.67
338.516
338.366
338.221
338.08
337.944
337.812
337.685
337.561
337.442
337.327
337.217
337.11
337.008
336.91
336.816
336.727
336.641
336.56
336.482
336.409
336.339
336.274
336.213
336.156
336.103
336.053
336.008
335.967
335.93
335.896
335.867
335.842
335.82
335.803
335.789
335.78
335.774
335.772
396.241
389.13
382.924
377.737
373.478
369.988
367.107
364.699
362.659
360.905
359.376
358.026
356.82
355.731
354.739
353.827
352.983
352.196
351.459
350.764
350.107
349.482
348.886
348.316
347.769
347.243
346.736
346.247
345.773
345.315
344.87
344.438
344.018
343.609
343.211
342.824
342.446
342.077
341.718
341.366
341.024
340.689
340.362
340.043
339.731
339.426
339.128
338.838
338.554
338.276
338.006
337.742
337.484
337.232
336.987
336.748
336.514
336.287
336.066
335.851
335.642
335.438
335.24
335.048
334.862
334.681
334.506
334.336
334.172
334.014
333.861
333.713
333.571
333.435
333.303
333.177
333.057
332.942
332.832
332.727
332.627
332.533
332.444
332.36
332.281
332.208
332.14
332.076
332.018
331.965
331.917
331.875
331.837
331.804
331.777
331.754
331.737
331.725
331.717
331.715
396.873
390.828
385.314
380.467
376.294
372.729
369.683
367.066
364.799
362.815
361.061
359.495
358.084
356.801
355.626
354.54
353.531
352.588
351.701
350.865
350.071
349.316
348.594
347.904
347.24
346.602
345.986
345.391
344.816
344.258
343.716
343.19
342.679
342.181
341.696
341.224
340.763
340.313
339.875
339.447
339.029
338.62
338.221
337.832
337.451
337.079
336.716
336.361
336.014
335.676
335.346
335.023
334.708
334.401
334.102
333.81
333.525
333.248
332.978
332.715
332.459
332.211
331.969
331.735
331.507
331.286
331.072
330.865
330.665
330.472
330.285
330.105
329.931
329.764
329.604
329.45
329.303
329.162
329.028
328.9
328.778
328.663
328.554
328.452
328.356
328.266
328.182
328.105
328.034
327.97
327.911
327.859
327.813
327.773
327.739
327.712
327.691
327.676
327.667
327.664
397.292
391.998
387.036
382.524
378.502
374.953
371.832
369.086
366.657
364.497
362.561
360.813
359.224
357.769
356.426
355.181
354.018
352.928
351.9
350.927
350.003
349.121
348.278
347.47
346.693
345.945
345.222
344.524
343.848
343.192
342.555
341.936
341.334
340.748
340.177
339.62
339.077
338.548
338.031
337.526
337.033
336.552
336.081
335.622
335.173
334.734
334.305
333.887
333.478
333.079
332.689
332.308
331.936
331.574
331.22
330.876
330.54
330.212
329.894
329.584
329.282
328.988
328.703
328.426
328.158
327.897
327.645
327.4
327.164
326.935
326.715
326.502
326.297
326.1
325.911
325.729
325.555
325.389
325.23
325.079
324.936
324.8
324.671
324.55
324.437
324.331
324.232
324.141
324.057
323.981
323.912
323.85
323.796
323.749
323.709
323.677
323.652
323.634
323.623
323.62
397.587
392.838
388.309
384.093
380.238
376.749
373.61
370.789
368.25
365.957
363.876
361.977
360.235
358.627
357.135
355.743
354.438
353.21
352.049
350.947
349.898
348.895
347.935
347.013
346.125
345.27
344.443
343.643
342.867
342.115
341.385
340.674
339.983
339.309
338.653
338.014
337.389
336.78
336.186
335.605
335.038
334.483
333.942
333.413
332.896
332.391
331.898
331.415
330.944
330.484
330.035
329.597
329.169
328.751
328.344
327.947
327.56
327.183
326.815
326.458
326.11
325.772
325.443
325.124
324.815
324.514
324.224
323.942
323.669
323.406
323.152
322.907
322.67
322.443
322.225
322.016
321.815
321.624
321.441
321.267
321.101
320.945
320.797
320.657
320.526
320.404
320.291
320.185
320.089
320.001
319.921
319.85
319.787
319.733
319.687
319.65
319.621
319.601
319.588
319.584
397.803
393.459
389.269
385.304
381.608
378.198
375.072
372.214
369.601
367.209
365.013
362.989
361.115
359.374
357.748
356.224
354.788
353.432
352.146
350.921
349.753
348.634
347.561
346.529
345.535
344.574
343.646
342.746
341.874
341.027
340.205
339.404
338.625
337.865
337.125
336.403
335.698
335.011
334.339
333.683
333.042
332.416
331.804
331.206
330.622
330.05
329.492
328.947
328.415
327.894
327.386
326.89
326.406
325.934
325.473
325.024
324.586
324.159
323.743
323.339
322.945
322.563
322.191
321.83
321.479
321.14
320.81
320.491
320.183
319.885
319.597
319.32
319.052
318.795
318.548
318.311
318.084
317.867
317.66
317.463
317.276
317.099
316.931
316.773
316.625
316.487
316.358
316.239
316.13
316.03
315.94
315.86
315.789
315.727
315.676
315.633
315.6
315.577
315.563
315.559
397.965
393.929
390.005
386.247
382.694
379.366
376.269
373.396
370.735
368.27
365.982
363.854
361.869
360.011
358.266
356.622
355.067
353.591
352.188
350.848
349.566
348.337
347.156
346.017
344.919
343.857
342.83
341.834
340.867
339.927
339.014
338.125
337.259
336.415
335.591
334.788
334.004
333.239
332.491
331.76
331.046
330.349
329.667
329.001
328.349
327.713
327.091
326.483
325.889
325.309
324.742
324.189
323.649
323.122
322.608
322.107
321.618
321.142
320.679
320.227
319.788
319.361
318.946
318.544
318.152
317.773
317.406
317.05
316.706
316.373
316.052
315.742
315.444
315.157
314.881
314.617
314.363
314.121
313.89
313.67
313.461
313.263
313.076
312.9
312.735
312.581
312.437
312.304
312.182
312.071
311.97
311.88
311.801
311.733
311.675
311.628
311.591
311.565
311.55
311.545
398.088
394.291
390.576
386.987
383.557
380.306
377.244
374.369
371.677
369.157
366.796
364.582
362.502
360.542
358.691
356.937
355.272
353.687
352.174
350.726
349.337
348.002
346.716
345.476
344.278
343.118
341.994
340.904
339.844
338.814
337.812
336.836
335.885
334.957
334.053
333.169
332.307
331.464
330.641
329.837
329.051
328.283
327.532
326.798
326.08
325.379
324.693
324.023
323.368
322.729
322.104
321.494
320.899
320.317
319.751
319.198
318.659
318.134
317.622
317.124
316.64
316.169
315.711
315.267
314.835
314.417
314.011
313.619
313.239
312.872
312.517
312.176
311.846
311.53
311.225
310.933
310.654
310.387
310.132
309.889
309.658
309.44
309.233
309.039
308.857
308.686
308.528
308.381
308.246
308.124
308.013
307.913
307.826
307.75
307.686
307.634
307.594
307.565
307.548
307.543
398.184
394.571
391.022
387.57
384.244
381.061
378.034
375.164
372.451
369.889
367.469
365.183
363.02
360.97
359.024
357.173
355.407
353.72
352.104
350.554
349.064
347.628
346.243
344.905
343.61
342.355
341.138
339.956
338.806
337.688
336.599
335.538
334.503
333.493
332.508
331.546
330.606
329.688
328.791
327.914
327.056
326.218
325.398
324.597
323.814
323.048
322.299
321.568
320.853
320.154
319.472
318.805
318.155
317.52
316.9
316.296
315.707
315.134
314.575
314.03
313.501
312.986
312.486
312
311.528
311.071
310.627
310.198
309.783
309.382
308.994
308.62
308.261
307.914
307.582
307.262
306.957
306.665
306.386
306.12
305.868
305.629
305.403
305.191
304.991
304.805
304.632
304.471
304.324
304.19
304.068
303.96
303.864
303.782
303.712
303.655
303.611
303.579
303.561
303.555
398.259
394.79
391.371
388.03
384.789
381.665
378.669
375.807
373.079
370.484
368.015
365.667
363.432
361.303
359.272
357.33
355.472
353.691
351.979
350.333
348.747
347.216
345.736
344.303
342.915
341.569
340.261
338.989
337.752
336.548
335.374
334.229
333.112
332.022
330.958
329.918
328.902
327.909
326.939
325.99
325.062
324.155
323.267
322.4
321.551
320.722
319.91
319.118
318.343
317.586
316.846
316.124
315.419
314.73
314.059
313.404
312.765
312.143
311.537
310.947
310.372
309.814
309.271
308.744
308.233
307.736
307.255
306.79
306.339
305.904
305.484
305.078
304.688
304.312
303.951
303.605
303.273
302.956
302.654
302.366
302.092
301.833
301.588
301.357
301.141
300.938
300.75
300.576
300.417
300.271
300.139
300.021
299.918
299.828
299.752
299.69
299.642
299.608
299.588
299.582
398.317
394.961
391.645
388.391
385.219
382.144
379.175
376.32
373.581
370.957
368.447
366.045
363.747
361.546
359.438
357.415
355.471
353.602
351.801
350.064
348.387
346.765
345.194
343.671
342.194
340.758
339.363
338.005
336.682
335.393
334.136
332.91
331.713
330.544
329.402
328.286
327.195
326.129
325.086
324.066
323.069
322.093
321.139
320.205
319.292
318.4
317.527
316.674
315.84
315.025
314.228
313.451
312.691
311.95
311.227
310.521
309.833
309.163
308.51
307.874
307.255
306.653
306.069
305.501
304.949
304.415
303.896
303.395
302.909
302.44
301.987
301.55
301.129
300.724
300.335
299.962
299.604
299.263
298.936
298.626
298.331
298.051
297.787
297.539
297.305
297.087
296.885
296.697
296.525
296.368
296.226
296.099
295.987
295.89
295.808
295.742
295.69
295.653
295.632
295.625
398.362
395.094
391.858
388.674
385.556
382.519
379.572
376.722
373.973
371.324
368.777
366.327
363.972
361.707
359.528
357.429
355.406
353.455
351.57
349.748
347.985
346.276
344.618
343.009
341.445
339.924
338.444
337.002
335.596
334.225
332.887
331.581
330.306
329.059
327.841
326.65
325.486
324.347
323.233
322.143
321.076
320.033
319.013
318.015
317.038
316.083
315.149
314.236
313.343
312.471
311.619
310.786
309.973
309.179
308.404
307.649
306.912
306.194
305.494
304.813
304.15
303.505
302.879
302.27
301.68
301.107
300.551
300.014
299.493
298.99
298.505
298.037
297.586
297.151
296.734
296.334
295.951
295.585
295.235
294.903
294.586
294.287
294.004
293.737
293.487
293.253
293.036
292.835
292.65
292.482
292.33
292.194
292.074
291.97
291.882
291.811
291.755
291.716
291.693
291.685
398.397
395.196
392.023
388.891
385.816
382.808
379.877
377.029
374.269
371.597
369.016
366.522
364.115
361.791
359.547
357.378
355.282
353.254
351.29
349.387
347.542
345.75
344.009
342.317
340.67
339.066
337.504
335.98
334.494
333.043
331.626
330.242
328.89
327.568
326.275
325.01
323.773
322.563
321.379
320.22
319.086
317.977
316.891
315.829
314.789
313.773
312.778
311.806
310.855
309.926
309.018
308.13
307.264
306.418
305.593
304.787
304.002
303.237
302.491
301.765
301.058
300.371
299.703
299.054
298.424
297.813
297.221
296.648
296.093
295.557
295.039
294.539
294.058
293.595
293.151
292.724
292.315
291.925
291.552
291.197
290.859
290.54
290.238
289.954
289.687
289.437
289.206
288.991
288.794
288.614
288.452
288.307
288.179
288.068
287.975
287.899
287.839
287.797
287.773
287.765
398.423
395.273
392.147
389.055
386.011
383.024
380.104
377.255
374.482
371.788
369.175
366.64
364.185
361.806
359.501
357.267
355.102
353.001
350.963
348.983
347.06
345.189
343.369
341.596
339.87
338.186
336.544
334.941
333.376
331.848
330.354
328.894
327.466
326.07
324.703
323.367
322.058
320.778
319.525
318.298
317.098
315.923
314.773
313.647
312.546
311.468
310.414
309.383
308.375
307.389
306.426
305.485
304.566
303.668
302.793
301.938
301.105
300.292
299.501
298.73
297.98
297.251
296.542
295.853
295.184
294.535
293.907
293.298
292.709
292.139
291.589
291.059
290.548
290.057
289.584
289.131
288.697
288.282
287.886
287.509
287.151
286.812
286.491
286.189
285.906
285.641
285.395
285.167
284.958
284.767
284.594
284.44
284.304
284.187
284.087
284.006
283.943
283.899
283.872
283.864
398.442
395.33
392.238
389.175
386.153
383.179
380.263
377.41
374.623
371.907
369.262
366.689
364.188
361.757
359.395
357.1
354.869
352.701
350.591
348.539
346.541
344.594
342.698
340.848
339.044
337.284
335.564
333.885
332.244
330.639
329.071
327.536
326.035
324.565
323.127
321.72
320.342
318.993
317.672
316.378
315.112
313.872
312.659
311.471
310.308
309.17
308.057
306.968
305.904
304.862
303.845
302.85
301.879
300.931
300.005
299.102
298.221
297.362
296.525
295.71
294.917
294.146
293.396
292.667
291.96
291.274
290.609
289.965
289.342
288.74
288.158
287.597
287.057
286.537
286.037
285.558
285.098
284.659
284.24
283.842
283.463
283.103
282.764
282.445
282.145
281.865
281.604
281.363
281.142
280.94
280.757
280.594
280.45
280.326
280.221
280.135
280.068
280.021
279.993
279.984
398.456
395.37
392.301
389.257
386.249
383.282
380.366
377.504
374.702
371.962
369.286
366.676
364.131
361.651
359.235
356.881
354.589
352.355
350.178
348.056
345.987
343.968
341.998
340.074
338.196
336.36
334.566
332.812
331.097
329.419
327.777
326.17
324.596
323.056
321.548
320.071
318.624
317.207
315.82
314.461
313.13
311.826
310.55
309.301
308.077
306.88
305.709
304.563
303.442
302.346
301.274
300.227
299.204
298.205
297.23
296.279
295.351
294.446
293.564
292.706
291.87
291.057
290.267
289.499
288.753
288.03
287.329
286.651
285.994
285.359
284.746
284.154
283.584
283.036
282.509
282.004
281.52
281.057
280.615
280.195
279.795
279.416
279.059
278.722
278.405
278.11
277.835
277.581
277.347
277.134
276.942
276.77
276.618
276.487
276.376
276.286
276.216
276.166
276.136
276.127
398.464
395.395
392.341
389.308
386.306
383.341
380.419
377.546
374.726
371.961
369.255
366.607
364.02
361.493
359.025
356.616
354.264
351.968
349.726
347.537
345.4
343.311
341.27
339.275
337.324
335.417
333.55
331.724
329.936
328.187
326.473
324.795
323.151
321.541
319.964
318.419
316.905
315.422
313.969
312.545
311.151
309.785
308.447
307.137
305.854
304.598
303.369
302.167
300.991
299.84
298.716
297.616
296.542
295.493
294.469
293.47
292.496
291.545
290.619
289.717
288.839
287.985
287.155
286.348
285.565
284.805
284.069
283.355
282.665
281.998
281.353
280.732
280.133
279.556
279.003
278.472
277.963
277.476
277.012
276.57
276.149
275.751
275.375
275.021
274.689
274.378
274.089
273.822
273.576
273.352
273.15
272.969
272.81
272.672
272.555
272.46
272.386
272.334
272.303
272.293
398.469
395.408
392.361
389.332
386.33
383.361
380.43
377.542
374.702
371.911
369.173
366.49
363.861
361.288
358.77
356.307
353.898
351.542
349.239
346.986
344.782
342.626
340.517
338.453
336.432
334.455
332.518
330.621
328.763
326.943
325.16
323.413
321.701
320.023
318.378
316.766
315.186
313.638
312.12
310.633
309.176
307.748
306.35
304.98
303.639
302.325
301.04
299.781
298.55
297.346
296.169
295.018
293.894
292.796
291.723
290.677
289.656
288.661
287.691
286.746
285.826
284.931
284.061
283.216
282.395
281.599
280.827
280.08
279.356
278.657
277.982
277.33
276.702
276.098
275.518
274.961
274.428
273.918
273.431
272.967
272.527
272.11
271.715
271.344
270.996
270.67
270.367
270.087
269.83
269.595
269.383
269.193
269.026
268.881
268.759
268.659
268.582
268.527
268.494
268.484
398.47
395.411
392.364
389.333
386.326
383.348
380.404
377.499
374.636
371.818
369.048
366.328
363.658
361.04
358.474
355.959
353.495
351.082
348.718
346.403
344.136
341.915
339.74
337.609
335.521
333.475
331.47
329.505
327.579
325.691
323.839
322.024
320.245
318.5
316.789
315.112
313.467
311.855
310.274
308.725
307.206
305.718
304.26
302.831
301.432
300.061
298.72
297.407
296.122
294.865
293.636
292.434
291.26
290.113
288.993
287.9
286.833
285.793
284.78
283.793
282.831
281.896
280.987
280.104
279.246
278.414
277.607
276.825
276.069
275.338
274.632
273.951
273.295
272.663
272.056
271.474
270.916
270.383
269.874
269.389
268.929
268.492
268.08
267.692
267.327
266.987
266.67
266.377
266.108
265.862
265.64
265.442
265.267
265.116
264.988
264.884
264.803
264.746
264.711
264.701
398.468
395.405
392.352
389.315
386.298
383.307
380.346
377.421
374.533
371.687
368.885
366.128
363.417
360.755
358.141
355.575
353.058
350.589
348.167
345.792
343.463
341.18
338.941
336.745
334.591
332.479
330.408
328.376
326.383
324.429
322.511
320.63
318.785
316.975
315.199
313.458
311.75
310.075
308.432
306.821
305.242
303.694
302.177
300.69
299.234
297.808
296.411
295.044
293.706
292.396
291.116
289.864
288.641
287.446
286.279
285.139
284.028
282.944
281.887
280.858
279.856
278.881
277.933
277.012
276.117
275.249
274.408
273.593
272.804
272.042
271.305
270.595
269.91
269.252
268.619
268.011
267.429
266.873
266.342
265.836
265.356
264.901
264.47
264.065
263.685
263.33
262.999
262.694
262.413
262.156
261.925
261.718
261.535
261.378
261.244
261.135
261.051
260.991
260.955
260.944
398.464
395.391
392.329
389.279
386.248
383.241
380.261
377.312
374.399
371.522
368.686
365.892
363.142
360.436
357.775
355.16
352.591
350.067
347.589
345.156
342.767
340.422
338.121
335.862
333.645
331.469
329.333
327.236
325.178
323.159
321.176
319.231
317.321
315.448
313.609
311.804
310.034
308.297
306.593
304.922
303.284
301.677
300.102
298.559
297.046
295.565
294.114
292.693
291.303
289.942
288.611
287.31
286.038
284.795
283.581
282.396
281.24
280.113
279.014
277.943
276.901
275.886
274.9
273.941
273.011
272.107
271.232
270.384
269.563
268.769
268.003
267.263
266.551
265.865
265.206
264.574
263.968
263.389
262.836
262.309
261.809
261.335
260.887
260.465
260.07
259.7
259.356
259.037
258.745
258.478
258.237
258.021
257.831
257.667
257.528
257.415
257.327
257.264
257.227
257.216
398.457
395.371
392.294
389.229
386.181
383.153
380.151
377.177
374.236
371.328
368.458
365.627
362.836
360.086
357.379
354.716
352.095
349.519
346.986
344.496
342.049
339.645
337.283
334.963
332.684
330.445
328.246
326.086
323.965
321.882
319.836
317.828
315.855
313.919
312.018
310.152
308.321
306.523
304.76
303.03
301.333
299.668
298.037
296.437
294.869
293.333
291.829
290.356
288.913
287.502
286.121
284.771
283.451
282.161
280.902
279.672
278.472
277.301
276.16
275.049
273.966
272.913
271.889
270.893
269.926
268.988
268.079
267.198
266.345
265.521
264.725
263.956
263.216
262.504
261.819
261.162
260.533
259.931
259.357
258.81
258.29
257.797
257.332
256.894
256.482
256.098
255.74
255.409
255.105
254.828
254.578
254.354
254.156
253.985
253.841
253.723
253.632
253.567
253.528
253.516
398.449
395.346
392.25
389.166
386.097
383.047
380.02
377.02
374.048
371.108
368.203
365.334
362.502
359.71
356.957
354.245
351.575
348.947
346.36
343.815
341.311
338.849
336.429
334.048
331.709
329.409
327.148
324.927
322.744
320.599
318.492
316.421
314.387
312.39
310.428
308.502
306.611
304.754
302.932
301.144
299.389
297.668
295.981
294.326
292.704
291.114
289.557
288.032
286.539
285.077
283.648
282.249
280.882
279.546
278.241
276.967
275.723
274.51
273.328
272.176
271.054
269.962
268.9
267.868
266.866
265.893
264.951
264.037
263.153
262.298
261.472
260.676
259.908
259.169
258.459
257.778
257.125
256.501
255.905
255.338
254.799
254.288
253.805
253.351
252.924
252.525
252.154
251.811
251.496
251.208
250.948
250.716
250.511
250.334
250.184
250.062
249.967
249.899
249.859
249.847
398.439
395.315
392.199
389.092
386
382.925
379.871
376.841
373.839
370.866
367.924
365.017
362.144
359.309
356.511
353.752
351.033
348.353
345.714
343.115
340.556
338.037
335.559
333.121
330.722
328.362
326.042
323.76
321.517
319.311
317.144
315.013
312.919
310.861
308.84
306.855
304.905
302.99
301.11
299.265
297.454
295.677
293.935
292.226
290.55
288.908
287.299
285.723
284.18
282.669
281.191
279.745
278.331
276.949
275.599
274.281
272.995
271.74
270.517
269.325
268.164
267.034
265.935
264.867
263.83
262.823
261.847
260.902
259.987
259.102
258.247
257.422
256.627
255.863
255.127
254.422
253.746
253.1
252.483
251.895
251.337
250.808
250.308
249.837
249.395
248.982
248.598
248.243
247.916
247.619
247.349
247.109
246.896
246.713
246.558
246.431
246.333
246.263
246.222
246.208
398.427
395.28
392.14
389.009
385.891
382.789
379.706
376.646
373.61
370.603
367.625
364.678
361.765
358.887
356.044
353.239
350.471
347.741
345.05
342.398
339.785
337.211
334.676
332.181
329.725
327.307
324.928
322.587
320.285
318.02
315.793
313.603
311.45
309.334
307.255
305.211
303.204
301.232
299.295
297.394
295.528
293.697
291.9
290.138
288.41
286.715
285.055
283.429
281.836
280.277
278.751
277.258
275.799
274.372
272.978
271.617
270.288
268.992
267.728
266.497
265.297
264.13
262.995
261.891
260.819
259.779
258.77
257.793
256.847
255.932
255.049
254.196
253.375
252.584
251.824
251.095
250.396
249.728
249.09
248.483
247.906
247.359
246.842
246.355
245.898
245.471
245.074
244.706
244.369
244.061
243.782
243.533
243.314
243.124
242.964
242.833
242.731
242.659
242.616
242.602
398.414
395.241
392.075
388.917
385.771
382.64
379.527
376.434
373.366
370.322
367.307
364.321
361.367
358.446
355.559
352.707
349.891
347.112
344.37
341.666
339
336.372
333.782
331.231
328.718
326.244
323.807
321.409
319.049
316.726
314.441
312.194
309.983
307.81
305.673
303.572
301.508
299.481
297.489
295.533
293.612
291.727
289.877
288.062
286.282
284.537
282.827
281.151
279.51
277.903
276.33
274.791
273.286
271.815
270.378
268.974
267.603
266.267
264.963
263.692
262.455
261.251
260.079
258.941
257.835
256.761
255.72
254.712
253.735
252.791
251.879
251
250.151
249.335
248.551
247.798
247.077
246.387
245.729
245.101
244.506
243.941
243.407
242.904
242.433
241.992
241.582
241.202
240.854
240.535
240.248
239.991
239.764
239.568
239.403
239.268
239.163
239.088
239.044
239.03
398.4
395.199
392.005
388.818
385.642
382.48
379.335
376.21
373.106
370.027
366.973
363.948
360.953
357.989
355.057
352.159
349.296
346.468
343.676
340.921
338.203
335.522
332.878
330.272
327.704
325.174
322.682
320.227
317.81
315.431
313.089
310.785
308.518
306.288
304.095
301.939
299.82
297.737
295.691
293.68
291.707
289.769
287.867
286
284.17
282.374
280.615
278.89
277.201
275.547
273.928
272.343
270.794
269.279
267.799
266.353
264.942
263.564
262.222
260.913
259.638
258.397
257.19
256.017
254.877
253.771
252.698
251.658
250.652
249.679
248.739
247.832
246.958
246.117
245.308
244.532
243.788
243.077
242.398
241.752
241.138
240.555
240.005
239.487
239
238.546
238.123
237.732
237.372
237.044
236.747
236.482
236.249
236.047
235.876
235.736
235.628
235.551
235.505
235.491
398.385
395.155
391.93
388.713
385.506
382.312
379.133
375.973
372.834
369.717
366.626
363.561
360.524
357.517
354.541
351.598
348.687
345.811
342.97
340.165
337.395
334.662
331.966
329.306
326.684
324.099
321.552
319.042
316.57
314.135
311.738
309.378
307.056
304.771
302.523
300.312
298.139
296.002
293.902
291.839
289.813
287.823
285.869
283.952
282.072
280.227
278.419
276.647
274.91
273.21
271.545
269.916
268.323
266.765
265.242
263.755
262.303
260.887
259.505
258.158
256.847
255.57
254.328
253.12
251.947
250.808
249.704
248.634
247.599
246.597
245.629
244.696
243.796
242.929
242.097
241.298
240.532
239.8
239.101
238.435
237.803
237.203
236.636
236.103
235.602
235.133
234.698
234.295
233.925
233.587
233.281
233.009
232.768
232.56
232.384
232.24
232.129
232.049
232.002
231.987
398.37
395.108
391.852
388.602
385.363
382.135
378.922
375.727
372.551
369.397
366.266
363.161
360.082
357.033
354.013
351.024
348.067
345.144
342.254
339.399
336.579
333.795
331.046
328.334
325.659
323.021
320.42
317.856
315.329
312.84
310.389
307.975
305.598
303.259
300.957
298.693
296.466
294.276
292.124
290.009
287.931
285.89
283.886
281.92
279.99
278.097
276.241
274.422
272.639
270.893
269.183
267.51
265.874
264.273
262.709
261.181
259.69
258.234
256.814
255.43
254.082
252.77
251.493
250.252
249.046
247.875
246.74
245.64
244.575
243.545
242.55
241.59
240.665
239.774
238.918
238.096
237.309
236.556
235.837
235.152
234.501
233.885
233.302
232.753
232.238
231.756
231.308
230.894
230.513
230.165
229.851
229.57
229.323
229.109
228.928
228.78
228.665
228.584
228.535
228.519
398.353
395.059
391.77
388.487
385.213
381.951
378.703
375.472
372.259
369.066
365.896
362.75
359.63
356.538
353.474
350.44
347.438
344.467
341.529
338.625
335.756
332.921
330.121
327.358
324.631
321.94
319.286
316.669
314.089
311.547
309.042
306.575
304.145
301.752
299.398
297.081
294.802
292.56
290.356
288.19
286.062
283.971
281.918
279.902
277.924
275.984
274.081
272.215
270.387
268.596
266.843
265.126
263.447
261.805
260.2
258.632
257.101
255.607
254.149
252.729
251.345
249.997
248.686
247.412
246.174
244.972
243.806
242.677
241.583
240.525
239.503
238.517
237.567
236.652
235.772
234.928
234.119
233.346
232.607
231.904
231.235
230.602
230.003
229.439
228.909
228.415
227.954
227.528
227.137
226.78
226.457
226.169
225.914
225.694
225.508
225.356
225.238
225.155
225.105
225.089
398.337
395.008
391.685
388.368
385.059
381.762
378.478
375.209
371.958
368.727
365.517
362.331
359.169
356.034
352.926
349.848
346.8
343.782
340.797
337.845
334.926
332.042
329.193
326.378
323.6
320.858
318.152
315.483
312.851
310.257
307.699
305.18
302.697
300.253
297.847
295.478
293.148
290.855
288.601
286.385
284.207
282.067
279.965
277.902
275.876
273.889
271.94
270.029
268.156
266.321
264.524
262.765
261.044
259.361
257.715
256.108
254.538
253.006
251.512
250.055
248.636
247.254
245.909
244.602
243.332
242.099
240.903
239.744
238.622
237.537
236.489
235.477
234.502
233.563
232.66
231.794
230.964
230.17
229.412
228.691
228.005
227.354
226.74
226.161
225.618
225.11
224.637
224.2
223.798
223.432
223.101
222.804
222.543
222.317
222.126
221.97
221.849
221.763
221.712
221.696
398.319
394.956
391.598
388.245
384.901
381.567
378.246
374.94
371.651
368.381
365.131
361.904
358.7
355.522
352.371
349.248
346.155
343.092
340.06
337.06
334.093
331.16
328.261
325.397
322.568
319.776
317.019
314.299
311.616
308.97
306.361
303.79
301.257
298.762
296.304
293.885
291.505
289.162
286.858
284.593
282.366
280.178
278.029
275.918
273.846
271.813
269.818
267.862
265.945
264.067
262.228
260.427
258.665
256.941
255.256
253.61
252.002
250.433
248.902
247.41
245.956
244.54
243.162
241.823
240.521
239.258
238.032
236.845
235.695
234.582
233.508
232.471
231.471
230.509
229.583
228.695
227.845
227.031
226.254
225.514
224.81
224.144
223.514
222.92
222.363
221.842
221.358
220.91
220.498
220.122
219.782
219.478
219.211
218.979
218.783
218.623
218.499
218.411
218.358
218.341
398.301
394.903
391.509
388.12
384.739
381.369
378.01
374.666
371.338
368.029
364.739
361.47
358.225
355.005
351.81
348.643
345.505
342.396
339.318
336.271
333.256
330.275
327.328
324.415
321.537
318.694
315.888
313.118
310.384
307.688
305.029
302.408
299.824
297.279
294.772
292.303
289.873
287.482
285.129
282.816
280.541
278.306
276.109
273.952
271.835
269.756
267.717
265.717
263.757
261.836
259.955
258.113
256.31
254.547
252.823
251.138
249.493
247.887
246.321
244.793
243.305
241.856
240.445
239.074
237.742
236.448
235.194
233.978
232.8
231.661
230.561
229.499
228.475
227.489
226.542
225.633
224.761
223.928
223.132
222.374
221.653
220.971
220.325
219.717
219.147
218.613
218.117
217.658
217.236
216.851
216.503
216.192
215.917
215.68
215.479
215.315
215.188
215.098
215.044
215.026
398.283
394.848
391.417
387.992
384.574
381.166
377.77
374.388
371.021
367.671
364.341
361.032
357.745
354.482
351.245
348.034
344.851
341.697
338.572
335.479
332.418
329.389
326.394
323.433
320.506
317.615
314.76
311.94
309.158
306.412
303.704
301.033
298.4
295.806
293.25
290.733
288.254
285.815
283.414
281.053
278.732
276.45
274.208
272.005
269.843
267.72
265.637
263.594
261.591
259.629
257.706
255.823
253.981
252.179
250.417
248.694
247.012
245.37
243.769
242.207
240.685
239.202
237.76
236.358
234.995
233.672
232.388
231.144
229.94
228.775
227.649
226.562
225.515
224.506
223.537
222.606
221.715
220.862
220.047
219.272
218.535
217.836
217.175
216.553
215.969
215.423
214.915
214.445
214.013
213.619
213.263
212.945
212.664
212.421
212.215
212.047
211.917
211.825
211.769
211.752
398.265
394.793
391.325
387.863
384.407
380.961
377.527
374.106
370.7
367.31
363.94
360.589
357.261
353.956
350.675
347.421
344.194
340.995
337.826
334.687