/*--------------------------------*- C++ -*----------------------------------*\
  =========                 |
  \\      /  F ield         | OpenFOAM: The Open Source CFD Toolbox
   \\    /   O peration     | Website:  https://openfoam.org
    \\  /    A nd           | Version:  10
     \\/     M anipulation  |
\*---------------------------------------------------------------------------*/
FoamFile
{
    format      ascii;
    class       volScalarField;
    location    "4.7";
    object      T_0;
}
// * * * * * * * * * * * * * * * * * * * * * * * * * * * * * * * * * * * * * //

dimensions      [0 0 -1 0 0 0 0];

internalField   nonuniform List<scalar> 
100
(
-0.0552664
-0.16384
-0.26661
-0.359935
-0.440509
-0.505477
-0.552539
-0.580027
-0.586968
-0.573114
-0.538958
-0.485709
-0.415253
-0.330087
-0.233227
-0.128105
-0.0184454
0.0918681
0.198927
0.298939
0.388361
0.464025
0.52325
0.56394
0.584651
0.584651
0.563939
0.52325
0.464024
0.388359
0.298937
0.198925
0.0918663
-0.0184472
-0.128107
-0.233229
-0.330088
-0.415254
-0.48571
-0.538959
-0.573115
-0.586968
-0.580027
-0.552539
-0.505477
-0.440508
-0.359934
-0.266609
-0.163839
-0.0552651
0.0552664
0.16384
0.26661
0.359935
0.440509
0.505477
0.552539
0.580027
0.586968
0.573114
0.538958
0.485709
0.415254
0.330088
0.233228
0.128106
0.0184461
-0.0918674
-0.198926
-0.298938
-0.38836
-0.464024
-0.52325
-0.56394
-0.584651
-0.584651
-0.563939
-0.52325
-0.464024
-0.38836
-0.298938
-0.198926
-0.0918669
0.0184466
0.128107
0.233228
0.330088
0.415254
0.485709
0.538958
0.573114
0.586968
0.580027
0.552539
0.505477
0.440508
0.359934
0.266609
0.163839
0.0552652
)
;

boundaryField
{
    inlet
    {
        type            cyclic;
    }
    outlet
    {
        type            cyclic;
    }
    bottom
    {
        type            slip;
    }
    top
    {
        type            slip;
    }
    frontAndBack
    {
        type            empty;
    }
}


// ************************************************************************* //
