/*--------------------------------*- C++ -*----------------------------------*\
  =========                 |
  \\      /  F ield         | OpenFOAM: The Open Source CFD Toolbox
   \\    /   O peration     | Website:  https://openfoam.org
    \\  /    A nd           | Version:  10
     \\/     M anipulation  |
\*---------------------------------------------------------------------------*/
FoamFile
{
    format      ascii;
    class       volScalarField;
    location    "0.2";
    object      T;
}
// * * * * * * * * * * * * * * * * * * * * * * * * * * * * * * * * * * * * * //

dimensions      [0 0 -1 0 0 0 0];

internalField   nonuniform List<scalar> 
100
(
-0.0876122
-0.259731
-0.422648
-0.570593
-0.698325
-0.801318
-0.875924
-0.9195
-0.930502
-0.90854
-0.854393
-0.769979
-0.658288
-0.523277
-0.369729
-0.203082
-0.0292417
0.145635
0.315352
0.473898
0.615656
0.735604
0.829493
0.893997
0.92683
0.92683
0.893996
0.829492
0.735603
0.615655
0.473897
0.315351
0.145634
-0.0292428
-0.203084
-0.36973
-0.523278
-0.65829
-0.76998
-0.854395
-0.908541
-0.930502
-0.9195
-0.875923
-0.801317
-0.698324
-0.570592
-0.422647
-0.259729
-0.0876103
0.0876123
0.259731
0.422648
0.570594
0.698325
0.801318
0.875924
0.9195
0.930502
0.90854
0.854394
0.769979
0.658288
0.523277
0.369728
0.203082
0.029241
-0.145636
-0.315353
-0.473899
-0.615657
-0.735605
-0.829493
-0.893997
-0.92683
-0.92683
-0.893996
-0.829492
-0.735603
-0.615655
-0.473897
-0.31535
-0.145633
0.0292438
0.203084
0.36973
0.523278
0.658289
0.76998
0.854394
0.908541
0.930502
0.919499
0.875923
0.801317
0.698324
0.570592
0.422647
0.259729
0.0876102
)
;

boundaryField
{
    inlet
    {
        type            cyclic;
    }
    outlet
    {
        type            cyclic;
    }
    bottom
    {
        type            slip;
    }
    top
    {
        type            slip;
    }
    frontAndBack
    {
        type            empty;
    }
}


// ************************************************************************* //
