/*--------------------------------*- C++ -*----------------------------------*\
  =========                 |
  \\      /  F ield         | OpenFOAM: The Open Source CFD Toolbox
   \\    /   O peration     | Website:  https://openfoam.org
    \\  /    A nd           | Version:  10
     \\/     M anipulation  |
\*---------------------------------------------------------------------------*/
FoamFile
{
    format      ascii;
    class       volScalarField;
    location    "0.2";
    object      T_0;
}
// * * * * * * * * * * * * * * * * * * * * * * * * * * * * * * * * * * * * * //

dimensions      [0 0 -1 0 0 0 0];

internalField   nonuniform List<scalar> 
100
(
-0.0872043
-0.258522
-0.420681
-0.567937
-0.695074
-0.797588
-0.871846
-0.915219
-0.92617
-0.904311
-0.850416
-0.766395
-0.655224
-0.520841
-0.368007
-0.202137
-0.0291056
0.144957
0.313884
0.471692
0.61279
0.73218
0.825632
0.889835
0.922515
0.922515
0.889835
0.825631
0.732179
0.612789
0.471691
0.313883
0.144956
-0.0291067
-0.202138
-0.368009
-0.520843
-0.655225
-0.766396
-0.850417
-0.904312
-0.926171
-0.915219
-0.871846
-0.797587
-0.695073
-0.567936
-0.420679
-0.25852
-0.0872024
0.0872044
0.258522
0.420681
0.567938
0.695075
0.797588
0.871847
0.91522
0.92617
0.904311
0.850416
0.766395
0.655224
0.520841
0.368007
0.202137
0.0291049
-0.144958
-0.313885
-0.471693
-0.612791
-0.732181
-0.825632
-0.889835
-0.922515
-0.922515
-0.889834
-0.825631
-0.732179
-0.612789
-0.471691
-0.313882
-0.144955
0.0291077
0.202139
0.368009
0.520843
0.655225
0.766396
0.850417
0.904311
0.92617
0.915219
0.871846
0.797587
0.695073
0.567936
0.420679
0.25852
0.0872024
)
;

boundaryField
{
    inlet
    {
        type            cyclic;
    }
    outlet
    {
        type            cyclic;
    }
    bottom
    {
        type            slip;
    }
    top
    {
        type            slip;
    }
    frontAndBack
    {
        type            empty;
    }
}


// ************************************************************************* //
