/*--------------------------------*- C++ -*----------------------------------*\
  =========                 |
  \\      /  F ield         | OpenFOAM: The Open Source CFD Toolbox
   \\    /   O peration     | Website:  https://openfoam.org
    \\  /    A nd           | Version:  10
     \\/     M anipulation  |
\*---------------------------------------------------------------------------*/
FoamFile
{
    format      ascii;
    class       volScalarField;
    location    "30";
    object      T_0;
}
// * * * * * * * * * * * * * * * * * * * * * * * * * * * * * * * * * * * * * //

dimensions      [0 0 -1 0 0 0 0];

internalField   nonuniform List<scalar> 
100
(
0.786732
2.35289
3.89816
5.40883
6.87149
8.27316
9.6014
10.8444
11.9912
13.0315
13.9562
14.757
15.4268
15.9596
16.3509
16.5969
16.6957
16.6463
16.4491
16.106
15.6198
14.9951
14.2372
13.353
12.3502
11.2379
10.0257
8.72464
7.3461
5.90235
4.40622
2.87098
1.31026
-0.262093
-1.83211
-3.38587
-4.90957
-6.3897
-7.8131
-9.16715
-10.4398
-11.6199
-12.6967
-13.6609
-14.5038
-15.218
-15.7971
-16.236
-16.5308
-16.6788
-16.6788
-16.5308
-16.236
-15.7971
-15.218
-14.5038
-13.6609
-12.6967
-11.6198
-10.4398
-9.16713
-7.81307
-6.38966
-4.90954
-3.38583
-1.83207
-0.262052
1.3103
2.87102
4.40626
5.9024
7.34614
8.72468
10.0258
11.2379
12.3503
13.353
14.2373
14.9951
15.6199
16.106
16.4492
16.6463
16.6958
16.597
16.3509
15.9597
15.4268
14.757
13.9562
13.0315
11.9912
10.8444
9.60142
8.27318
6.87151
5.40884
3.89817
2.35289
0.786733
)
;

boundaryField
{
    xmin
    {
        type            fixedValue;
        value           uniform 0;
    }
    xmax
    {
        type            fixedValue;
        value           uniform 0;
    }
    frontAndBack
    {
        type            empty;
    }
}


// ************************************************************************* //
