/*--------------------------------*- C++ -*----------------------------------*\
  =========                 |
  \\      /  F ield         | OpenFOAM: The Open Source CFD Toolbox
   \\    /   O peration     | Website:  https://openfoam.org
    \\  /    A nd           | Version:  10
     \\/     M anipulation  |
\*---------------------------------------------------------------------------*/
FoamFile
{
    format      ascii;
    class       volScalarField;
    location    "9.9";
    object      T;
}
// * * * * * * * * * * * * * * * * * * * * * * * * * * * * * * * * * * * * * //

dimensions      [0 0 -1 0 0 0 0];

internalField   nonuniform List<scalar> 
100
(
0.00208049
0.00616773
0.0100365
0.0135497
0.0165829
0.0190286
0.0208002
0.021835
0.0220963
0.0215748
0.020289
0.0182844
0.0156321
0.0124261
0.00877979
0.0048225
0.000694363
-0.00345837
-0.00748859
-0.0112535
-0.0146198
-0.0174682
-0.0196977
-0.0212294
-0.0220091
-0.0220091
-0.0212294
-0.0196977
-0.0174681
-0.0146198
-0.0112535
-0.00748858
-0.00345837
0.000694341
0.00482245
0.00877972
0.012426
0.015632
0.0182843
0.0202888
0.0215746
0.0220961
0.0218348
0.0208
0.0190284
0.0165827
0.0135495
0.0100364
0.00616765
0.00208046
-0.00208044
-0.00616763
-0.0100363
-0.0135495
-0.0165826
-0.0190284
-0.0208
-0.0218348
-0.022096
-0.0215745
-0.0202887
-0.0182842
-0.0156319
-0.0124259
-0.00877963
-0.00482236
-0.000694254
0.00345846
0.00748866
0.0112536
0.0146198
0.0174682
0.0196977
0.0212295
0.0220091
0.0220091
0.0212294
0.0196977
0.0174681
0.0146198
0.0112535
0.00748855
0.00345833
-0.000694409
-0.00482254
-0.00877984
-0.0124261
-0.0156322
-0.0182844
-0.020289
-0.0215748
-0.0220963
-0.021835
-0.0208002
-0.0190286
-0.0165828
-0.0135496
-0.0100364
-0.0061677
-0.00208046
)
;

boundaryField
{
    inlet
    {
        type            cyclic;
    }
    outlet
    {
        type            cyclic;
    }
    bottom
    {
        type            slip;
    }
    top
    {
        type            slip;
    }
    frontAndBack
    {
        type            empty;
    }
}


// ************************************************************************* //
