/*--------------------------------*- C++ -*----------------------------------*\
  =========                 |
  \\      /  F ield         | OpenFOAM: The Open Source CFD Toolbox
   \\    /   O peration     | Website:  https://openfoam.org
    \\  /    A nd           | Version:  10
     \\/     M anipulation  |
\*---------------------------------------------------------------------------*/
FoamFile
{
    format      ascii;
    class       volScalarField;
    location    "9.9";
    object      T_0;
}
// * * * * * * * * * * * * * * * * * * * * * * * * * * * * * * * * * * * * * //

dimensions      [0 0 -1 0 0 0 0];

internalField   nonuniform List<scalar> 
100
(
0.00257508
0.00763399
0.0124225
0.0167708
0.0205251
0.0235523
0.0257451
0.0270259
0.0273492
0.0267038
0.0251123
0.0226312
0.0193484
0.0153801
0.010867
0.00596896
0.000859437
-0.00428053
-0.00926885
-0.0139288
-0.0180954
-0.0216209
-0.0243804
-0.0262763
-0.0272413
-0.0272413
-0.0262763
-0.0243804
-0.0216208
-0.0180953
-0.0139288
-0.00926882
-0.00428051
0.000859429
0.00596892
0.010867
0.01538
0.0193482
0.022631
0.0251121
0.0267036
0.027349
0.0270257
0.0257449
0.0235521
0.0205249
0.0167707
0.0124223
0.0076339
0.00257504
-0.00257503
-0.00763389
-0.0124223
-0.0167707
-0.0205249
-0.023552
-0.0257448
-0.0270256
-0.027349
-0.0267035
-0.025112
-0.0226309
-0.0193482
-0.0153799
-0.0108669
-0.00596883
-0.000859332
0.00428061
0.00926892
0.0139289
0.0180954
0.0216209
0.0243805
0.0262763
0.0272414
0.0272414
0.0262763
0.0243804
0.0216208
0.0180953
0.0139288
0.0092688
0.00428047
-0.000859493
-0.00596901
-0.0108671
-0.0153802
-0.0193484
-0.0226312
-0.0251123
-0.0267038
-0.0273493
-0.0270259
-0.0257451
-0.0235523
-0.0205251
-0.0167708
-0.0124224
-0.00763395
-0.00257504
)
;

boundaryField
{
    inlet
    {
        type            cyclic;
    }
    outlet
    {
        type            cyclic;
    }
    bottom
    {
        type            slip;
    }
    top
    {
        type            slip;
    }
    frontAndBack
    {
        type            empty;
    }
}


// ************************************************************************* //
