/*--------------------------------*- C++ -*----------------------------------*\
  =========                 |
  \\      /  F ield         | OpenFOAM: The Open Source CFD Toolbox
   \\    /   O peration     | Website:  https://openfoam.org
    \\  /    A nd           | Version:  10
     \\/     M anipulation  |
\*---------------------------------------------------------------------------*/
FoamFile
{
    format      ascii;
    class       volScalarField;
    location    "32";
    object      ddt0(T);
}
// * * * * * * * * * * * * * * * * * * * * * * * * * * * * * * * * * * * * * //

dimensions      [0 0 -1 1 0 0 0];

internalField   nonuniform List<scalar> 
10000
(
760.656
94.265
177.478
176.853
176.11
176.185
176.22
176.225
176.227
176.228
176.229
176.23
176.231
176.232
176.234
176.235
176.236
176.237
176.238
176.239
176.24
176.241
176.242
176.243
176.244
176.244
176.245
176.246
176.247
176.248
176.249
176.25
176.251
176.251
176.252
176.253
176.254
176.255
176.255
176.256
176.257
176.258
176.258
176.259
176.26
176.26
176.261
176.262
176.262
176.263
176.264
176.264
176.265
176.265
176.266
176.266
176.267
176.267
176.268
176.268
176.269
176.269
176.27
176.27
176.27
176.271
176.271
176.272
176.272
176.272
176.273
176.273
176.273
176.273
176.274
176.274
176.274
176.274
176.275
176.275
176.275
176.275
176.275
176.276
176.276
176.276
176.276
176.276
176.276
176.276
176.276
176.276
176.277
176.276
176.276
176.283
176.393
176.709
167.851
147.037
131.545
-154.919
-55.584
-64.7883
-66.5235
-66.3609
-66.3008
-66.2969
-66.2957
-66.2929
-66.2897
-66.2865
-66.2834
-66.2802
-66.2771
-66.2741
-66.271
-66.268
-66.2649
-66.262
-66.259
-66.2561
-66.2532
-66.2503
-66.2474
-66.2446
-66.2419
-66.2391
-66.2364
-66.2337
-66.2311
-66.2285
-66.2259
-66.2234
-66.2209
-66.2185
-66.2161
-66.2137
-66.2114
-66.2091
-66.2069
-66.2047
-66.2026
-66.2005
-66.1984
-66.1964
-66.1944
-66.1925
-66.1906
-66.1888
-66.187
-66.1853
-66.1836
-66.1819
-66.1803
-66.1787
-66.1772
-66.1757
-66.1743
-66.1729
-66.1715
-66.1702
-66.1689
-66.1677
-66.1665
-66.1654
-66.1643
-66.1632
-66.1622
-66.1612
-66.1602
-66.1593
-66.1584
-66.1576
-66.1568
-66.156
-66.1553
-66.1546
-66.1539
-66.1533
-66.1527
-66.1522
-66.1516
-66.1512
-66.1507
-66.1503
-66.1499
-66.1495
-66.1492
-66.1489
-66.1486
-66.1484
-66.1482
-66.1483
-66.1509
-66.1559
-66.0702
-65.4415
-67.4435
-53.6731
202.095
-66.6221
23.2281
12.0397
10.3998
10.6549
10.7316
10.7377
10.7408
10.7458
10.7511
10.7564
10.7616
10.7669
10.7721
10.7772
10.7823
10.7874
10.7925
10.7975
10.8024
10.8073
10.8122
10.817
10.8217
10.8264
10.831
10.8356
10.8401
10.8446
10.849
10.8533
10.8576
10.8618
10.8659
10.87
10.874
10.8779
10.8818
10.8855
10.8893
10.8929
10.8965
10.9
10.9034
10.9068
10.91
10.9133
10.9164
10.9194
10.9224
10.9253
10.9282
10.9309
10.9336
10.9363
10.9388
10.9413
10.9437
10.946
10.9483
10.9505
10.9526
10.9546
10.9566
10.9585
10.9604
10.9621
10.9639
10.9655
10.9671
10.9686
10.9701
10.9715
10.9728
10.9741
10.9753
10.9765
10.9776
10.9786
10.9796
10.9805
10.9814
10.9822
10.983
10.9837
10.9843
10.9849
10.9855
10.986
10.9865
10.9869
10.9873
10.9872
10.9834
10.9651
10.9663
11.2585
9.38374
10.4224
201.897
-74.4491
13.4203
2.21366
0.688204
0.973222
1.05381
1.06146
1.06648
1.07351
1.08095
1.08836
1.09571
1.10302
1.11028
1.11749
1.12464
1.13174
1.13878
1.14576
1.15268
1.15952
1.1663
1.17301
1.17964
1.1862
1.19268
1.19907
1.20539
1.21162
1.21777
1.22383
1.2298
1.23567
1.24146
1.24715
1.25274
1.25824
1.26364
1.26894
1.27415
1.27925
1.28425
1.28915
1.29394
1.29864
1.30323
1.30771
1.3121
1.31638
1.32055
1.32463
1.3286
1.33247
1.33623
1.33989
1.34345
1.34692
1.35028
1.35354
1.3567
1.35976
1.36272
1.36559
1.36837
1.37104
1.37363
1.37612
1.37852
1.38083
1.38305
1.38517
1.38722
1.38917
1.39104
1.39283
1.39453
1.39615
1.39768
1.39914
1.40052
1.40182
1.40304
1.40418
1.40525
1.40624
1.40716
1.408
1.40878
1.40948
1.41011
1.4107
1.41136
1.41222
1.41174
1.4013
1.39335
1.62262
1.54871
1.15178
201.298
-75.966
11.9709
0.875042
-0.612307
-0.320682
-0.238626
-0.229276
-0.222226
-0.213084
-0.203533
-0.194019
-0.184571
-0.175182
-0.165852
-0.156586
-0.147387
-0.138261
-0.12921
-0.120239
-0.11135
-0.102548
-0.0938352
-0.0852144
-0.0766887
-0.0682611
-0.0599341
-0.0517104
-0.0435928
-0.0355835
-0.027685
-0.0198997
-0.0122295
-0.00467672
0.00275685
0.0100694
0.0172591
0.0243246
0.0312644
0.0380772
0.0447618
0.0513172
0.0577426
0.0640371
0.0702
0.076231
0.0821295
0.0878953
0.0935283
0.0990282
0.104395
0.10963
0.114731
0.119701
0.124539
0.129246
0.133822
0.138269
0.142586
0.146775
0.150837
0.154772
0.158582
0.162268
0.165831
0.169272
0.172592
0.175793
0.178876
0.181842
0.184692
0.187429
0.190052
0.192564
0.194966
0.19726
0.199446
0.201525
0.2035
0.205372
0.207141
0.20881
0.210379
0.211849
0.213221
0.214497
0.215678
0.216764
0.217756
0.218654
0.219457
0.220176
0.220902
0.221917
0.222853
0.21732
0.194675
0.234149
0.289431
0.22282
201.364
-75.8281
12.1916
1.12494
-0.355753
-0.0625183
0.0211401
0.0324643
0.0416159
0.0528764
0.0645394
0.076154
0.0876912
0.0991578
0.110552
0.121869
0.133103
0.144249
0.155303
0.16626
0.177116
0.187867
0.198509
0.209039
0.219452
0.229745
0.239916
0.24996
0.259875
0.269657
0.279304
0.288813
0.29818
0.307405
0.316484
0.325415
0.334196
0.342825
0.351301
0.359621
0.367785
0.375791
0.383639
0.391326
0.398853
0.406218
0.413422
0.420464
0.427343
0.43406
0.440615
0.447008
0.453238
0.459308
0.465216
0.470964
0.476553
0.481983
0.487256
0.492372
0.497332
0.502139
0.506792
0.511293
0.515644
0.519847
0.523902
0.527811
0.531575
0.535198
0.538679
0.54202
0.545224
0.548292
0.551226
0.554026
0.556696
0.559236
0.561648
0.563933
0.566094
0.568132
0.570047
0.571843
0.573519
0.575077
0.576519
0.577846
0.579058
0.580155
0.581136
0.581995
0.582771
0.583719
0.585306
0.585699
0.576626
0.571902
0.573574
0.586342
201.395
-75.7759
12.2591
1.19651
-0.282656
0.0121921
0.0978001
0.111216
0.122487
0.135863
0.149632
0.163342
0.176963
0.190502
0.203955
0.217317
0.230581
0.243742
0.256794
0.269732
0.28255
0.295245
0.307811
0.320244
0.33254
0.344694
0.356703
0.368564
0.380271
0.391821
0.403212
0.41444
0.425501
0.436393
0.447113
0.457659
0.468027
0.478216
0.488223
0.498048
0.507687
0.51714
0.526406
0.535483
0.54437
0.553066
0.561572
0.569886
0.578009
0.58594
0.593679
0.601227
0.608583
0.61575
0.622726
0.629513
0.636111
0.642523
0.648748
0.654789
0.660645
0.66632
0.671814
0.677129
0.682266
0.687227
0.692015
0.69663
0.701075
0.705352
0.709462
0.713407
0.71719
0.720812
0.724275
0.727582
0.730734
0.733733
0.73658
0.739279
0.74183
0.744236
0.746498
0.748617
0.750596
0.752436
0.754138
0.755704
0.757136
0.758433
0.759595
0.760612
0.761476
0.76228
0.763431
0.765041
0.764399
0.761431
0.753788
0.767408
201.399
-75.7721
12.2653
1.20419
-0.273243
0.0235836
0.111284
0.126819
0.140208
0.155693
0.171561
0.18736
0.203059
0.218664
0.23417
0.249571
0.264859
0.280029
0.295073
0.309986
0.324761
0.339394
0.353878
0.368209
0.382382
0.396393
0.410235
0.423906
0.437401
0.450715
0.463844
0.476786
0.489536
0.50209
0.514446
0.526601
0.538552
0.550296
0.561831
0.573155
0.584265
0.595161
0.60584
0.616302
0.626546
0.636569
0.646373
0.655956
0.665318
0.674459
0.683379
0.692079
0.700558
0.708817
0.716858
0.72468
0.732286
0.739675
0.74685
0.753812
0.760563
0.767103
0.773435
0.77956
0.785481
0.7912
0.796717
0.802037
0.80716
0.812089
0.816826
0.821373
0.825733
0.829907
0.833899
0.83771
0.841342
0.844799
0.848081
0.851191
0.854131
0.856904
0.859511
0.861953
0.864234
0.866355
0.868317
0.870122
0.871771
0.873267
0.87461
0.875795
0.876805
0.877639
0.878445
0.87955
0.880704
0.880877
0.872547
0.885557
201.401
-75.7706
12.2687
1.20954
-0.265863
0.0330661
0.122886
0.14054
0.156039
0.173625
0.191586
0.209466
0.227237
0.2449
0.262452
0.279885
0.297192
0.314363
0.331393
0.348274
0.364999
0.381563
0.39796
0.414183
0.430227
0.446087
0.461757
0.477232
0.492507
0.507579
0.522442
0.537091
0.551524
0.565735
0.579722
0.593481
0.607008
0.620302
0.633359
0.646177
0.658754
0.671087
0.683176
0.695018
0.706613
0.717959
0.729056
0.739903
0.7505
0.760847
0.770944
0.780791
0.790389
0.799738
0.808839
0.817693
0.826302
0.834666
0.842787
0.850667
0.858308
0.865711
0.872878
0.879811
0.886513
0.892985
0.899231
0.905251
0.91105
0.916629
0.92199
0.927137
0.932072
0.936797
0.941315
0.945628
0.94974
0.953652
0.957366
0.960887
0.964215
0.967353
0.970303
0.973068
0.97565
0.97805
0.980271
0.982313
0.984181
0.985874
0.987395
0.988744
0.989912
0.990881
0.991661
0.992423
0.993634
0.99528
0.984151
1.00038
201.402
-75.7678
12.2736
1.21663
-0.256658
0.04439
0.136327
0.15609
0.173691
0.19337
0.213415
0.23337
0.253203
0.272918
0.292509
0.311966
0.331282
0.350448
0.369456
0.388297
0.406966
0.425454
0.443755
0.461862
0.47977
0.497472
0.514962
0.532235
0.549285
0.566107
0.582696
0.599047
0.615156
0.631018
0.646629
0.661986
0.677084
0.691922
0.706495
0.720801
0.734838
0.748603
0.762095
0.775312
0.788253
0.800917
0.813302
0.825408
0.837236
0.848784
0.860053
0.871042
0.881754
0.892188
0.902346
0.912228
0.921835
0.93117
0.940234
0.949029
0.957556
0.965817
0.973816
0.981554
0.989033
0.996257
1.00323
1.00995
1.01642
1.02264
1.02863
1.03437
1.03988
1.04515
1.05019
1.05501
1.0596
1.06396
1.06811
1.07204
1.07575
1.07925
1.08254
1.08563
1.08851
1.09119
1.09367
1.09595
1.09803
1.09992
1.10162
1.10312
1.10444
1.10555
1.10643
1.10711
1.10828
1.11119
1.09601
1.11669
201.403
-75.7646
12.2789
1.22408
-0.247099
0.056062
0.150106
0.171969
0.191663
0.213427
0.235547
0.257568
0.279456
0.301213
0.322833
0.344307
0.365624
0.386775
0.407752
0.428546
0.449149
0.469553
0.489751
0.509735
0.529498
0.549035
0.568337
0.5874
0.606217
0.624782
0.64309
0.661135
0.678912
0.696418
0.713646
0.730594
0.747256
0.763631
0.779713
0.795501
0.810992
0.826183
0.841073
0.855658
0.869939
0.883914
0.897582
0.910942
0.923994
0.936738
0.949173
0.961301
0.973122
0.984636
0.995845
1.00675
1.01735
1.02765
1.03766
1.04736
1.05677
1.06589
1.07471
1.08325
1.09151
1.09948
1.10717
1.11458
1.12172
1.12859
1.1352
1.14153
1.14761
1.15343
1.15899
1.16431
1.16937
1.17419
1.17876
1.1831
1.18719
1.19106
1.19469
1.1981
1.20128
1.20423
1.20697
1.20948
1.21178
1.21387
1.21574
1.2174
1.21885
1.22009
1.22108
1.22178
1.22293
1.22718
1.20793
1.23298
201.404
-75.7614
12.2842
1.23149
-0.237576
0.0676873
0.163828
0.187782
0.209559
0.233398
0.257584
0.281661
0.305593
0.329383
0.353024
0.376504
0.399813
0.42294
0.445877
0.468614
0.491143
0.513453
0.535538
0.55739
0.579001
0.600363
0.621469
0.642314
0.662889
0.683189
0.703207
0.722938
0.742377
0.761517
0.780355
0.798886
0.817105
0.835009
0.852594
0.869856
0.886794
0.903404
0.919684
0.935632
0.951247
0.966526
0.98147
0.996078
1.01035
1.02428
1.03788
1.05114
1.06406
1.07665
1.08891
1.10083
1.11242
1.12368
1.13462
1.14523
1.15552
1.16549
1.17514
1.18447
1.19349
1.20221
1.21062
1.21872
1.22653
1.23404
1.24126
1.24819
1.25483
1.2612
1.26728
1.27309
1.27862
1.28389
1.28889
1.29363
1.29811
1.30233
1.30631
1.31003
1.3135
1.31674
1.31973
1.32248
1.32499
1.32727
1.32932
1.33113
1.33272
1.33408
1.33517
1.3359
1.33704
1.34253
1.31975
1.3486
201.405
-75.7582
12.2895
1.23886
-0.228115
0.0792399
0.177467
0.203501
0.22735
0.253254
0.279496
0.305617
0.331584
0.357397
0.383047
0.408523
0.433813
0.458907
0.483794
0.508464
0.532908
0.557115
0.581078
0.604788
0.628236
0.651414
0.674315
0.696931
0.719256
0.741281
0.763001
0.78441
0.805501
0.826268
0.846707
0.866813
0.88658
0.906006
0.925085
0.943814
0.962191
0.980212
0.997875
1.01518
1.03212
1.0487
1.06491
1.08076
1.09624
1.11136
1.12611
1.1405
1.15452
1.16818
1.18147
1.19441
1.20698
1.2192
1.23106
1.24258
1.25374
1.26455
1.27502
1.28515
1.29494
1.30439
1.31351
1.32231
1.33078
1.33892
1.34676
1.35427
1.36148
1.36838
1.37498
1.38128
1.38728
1.393
1.39842
1.40357
1.40843
1.41301
1.41732
1.42136
1.42513
1.42863
1.43188
1.43486
1.43759
1.44006
1.44228
1.44425
1.44597
1.44745
1.44864
1.44941
1.45053
1.45705
1.43148
1.46338
201.406
-75.7551
12.2947
1.24618
-0.21871
0.0907252
0.191027
0.219129
0.24504
0.272997
0.301282
0.329438
0.357428
0.385251
0.4129
0.44036
0.467621
0.49467
0.521496
0.548089
0.574437
0.60053
0.626361
0.651918
0.677193
0.702177
0.726863
0.751241
0.775305
0.799046
0.822458
0.845534
0.868268
0.890653
0.912684
0.934356
0.955663
0.976601
0.997165
1.01735
1.03716
1.05658
1.07562
1.09427
1.11253
1.1304
1.14788
1.16496
1.18165
1.19794
1.21384
1.22934
1.24446
1.25918
1.27351
1.28745
1.301
1.31417
1.32696
1.33936
1.35139
1.36305
1.37433
1.38525
1.3958
1.40599
1.41582
1.4253
1.43442
1.44321
1.45164
1.45975
1.46751
1.47495
1.48206
1.48885
1.49532
1.50148
1.50733
1.51287
1.51811
1.52305
1.52769
1.53204
1.53611
1.53989
1.54338
1.5466
1.54954
1.5522
1.55459
1.55672
1.55857
1.56017
1.56146
1.56228
1.56338
1.57066
1.54308
1.57728
201.407
-75.752
12.3
1.25345
-0.209362
0.102141
0.204506
0.234664
0.262623
0.292621
0.322938
0.353115
0.383116
0.412938
0.442573
0.472006
0.501226
0.530218
0.558971
0.587474
0.615715
0.643684
0.67137
0.698763
0.725854
0.752633
0.779092
0.805222
0.831014
0.856461
0.881555
0.906289
0.930655
0.954648
0.978261
1.00149
1.02433
1.04677
1.06881
1.09045
1.11167
1.13249
1.1529
1.17289
1.19246
1.21161
1.23034
1.24864
1.26653
1.28399
1.30103
1.31765
1.33385
1.34962
1.36498
1.37992
1.39445
1.40856
1.42226
1.43556
1.44845
1.46094
1.47303
1.48473
1.49604
1.50696
1.51749
1.52765
1.53743
1.54684
1.55589
1.56457
1.57289
1.58086
1.58848
1.59576
1.60269
1.60929
1.61556
1.6215
1.62711
1.6324
1.63738
1.64204
1.6464
1.65045
1.65419
1.65764
1.66079
1.66365
1.66621
1.66849
1.67048
1.67218
1.67357
1.67446
1.67556
1.68333
1.65446
1.69026
201.409
-75.7489
12.3051
1.26068
-0.200074
0.113483
0.217897
0.250098
0.280093
0.312118
0.344454
0.376639
0.408638
0.440446
0.472054
0.503447
0.534612
0.565535
0.596203
0.626604
0.656726
0.686557
0.716087
0.745304
0.774199
0.802762
0.830983
0.858852
0.886362
0.913503
0.940268
0.966648
0.992636
1.01823
1.04341
1.06818
1.09254
1.11648
1.13998
1.16306
1.1857
1.20791
1.22967
1.25099
1.27186
1.29228
1.31226
1.33178
1.35085
1.36948
1.38765
1.40537
1.42265
1.43947
1.45585
1.47178
1.48727
1.50233
1.51694
1.53112
1.54487
1.55819
1.57108
1.58356
1.59561
1.60726
1.61849
1.62932
1.63976
1.64979
1.65944
1.66869
1.67757
1.68607
1.6942
1.70195
1.70935
1.71639
1.72307
1.7294
1.73539
1.74103
1.74634
1.75131
1.75596
1.76027
1.76427
1.76794
1.7713
1.77435
1.77708
1.77951
1.78163
1.78345
1.78494
1.7859
1.78701
1.79505
1.76552
1.80231
201.41
-75.7458
12.3103
1.26786
-0.190852
0.124747
0.231195
0.265424
0.297441
0.33148
0.36582
0.4
0.433982
0.467763
0.50133
0.53467
0.567767
0.600607
0.633176
0.665462
0.697451
0.729132
0.760492
0.791522
0.822208
0.852542
0.882512
0.912109
0.941324
0.970148
0.998571
1.02659
1.05419
1.08136
1.10811
1.13441
1.16028
1.1857
1.21066
1.23517
1.25921
1.28279
1.3059
1.32854
1.3507
1.37239
1.3936
1.41433
1.43459
1.45436
1.47366
1.49248
1.51082
1.52869
1.54608
1.563
1.57945
1.59543
1.61095
1.626
1.6406
1.65474
1.66844
1.68168
1.69448
1.70685
1.71878
1.73028
1.74135
1.75201
1.76225
1.77208
1.7815
1.79053
1.79916
1.8074
1.81525
1.82272
1.82981
1.83654
1.84289
1.84888
1.85452
1.8598
1.86473
1.86932
1.87356
1.87746
1.88103
1.88426
1.88717
1.88974
1.892
1.89393
1.89551
1.89655
1.89768
1.90581
1.87615
1.9134
201.411
-75.7428
12.3154
1.27498
-0.181698
0.135926
0.244394
0.280637
0.314661
0.350698
0.387027
0.423187
0.459139
0.494877
0.530389
0.565661
0.600676
0.635419
0.669875
0.704032
0.737875
0.771391
0.804569
0.837396
0.869861
0.901952
0.933659
0.964971
0.995879
1.02637
1.05644
1.08608
1.11528
1.14403
1.17232
1.20015
1.22751
1.2544
1.28081
1.30674
1.33217
1.35711
1.38156
1.40551
1.42896
1.4519
1.47434
1.49627
1.5177
1.53861
1.55903
1.57893
1.59834
1.61724
1.63563
1.65353
1.67093
1.68783
1.70425
1.72017
1.73561
1.75057
1.76506
1.77907
1.79261
1.80569
1.81831
1.83047
1.84218
1.85345
1.86429
1.87468
1.88465
1.8942
1.90332
1.91204
1.92034
1.92824
1.93575
1.94286
1.94958
1.95592
1.96188
1.96747
1.97268
1.97753
1.98202
1.98614
1.98992
1.99334
1.99641
1.99914
2.00152
2.00357
2.00524
2.00636
2.00753
2.01558
1.98624
2.02351
201.412
-75.7397
12.3204
1.28204
-0.172617
0.147016
0.257488
0.29573
0.331744
0.369765
0.408068
0.446192
0.484097
0.521778
0.55922
0.596408
0.633326
0.669957
0.706286
0.742298
0.77798
0.813318
0.848299
0.88291
0.917139
0.950974
0.984403
1.01742
1.05
1.08215
1.11386
1.1451
1.17589
1.2062
1.23603
1.26537
1.29422
1.32257
1.35041
1.37774
1.40456
1.43085
1.45663
1.48187
1.50659
1.53078
1.55443
1.57755
1.60014
1.6222
1.64372
1.6647
1.68515
1.70508
1.72447
1.74334
1.76168
1.7795
1.7968
1.81359
1.82987
1.84564
1.86091
1.87567
1.88995
1.90373
1.91703
1.92986
1.94221
1.95409
1.9655
1.97646
1.98697
1.99703
2.00665
2.01584
2.02459
2.03292
2.04083
2.04832
2.05541
2.06209
2.06837
2.07426
2.07976
2.08487
2.0896
2.09395
2.09793
2.10154
2.10477
2.10765
2.11016
2.11232
2.11409
2.11529
2.11651
2.12436
2.09567
2.13264
201.413
-75.7367
12.3254
1.28905
-0.163611
0.158014
0.270474
0.310697
0.348685
0.388672
0.428933
0.469006
0.508848
0.548454
0.587811
0.6269
0.665704
0.704207
0.742393
0.780247
0.817753
0.854897
0.891666
0.928045
0.964024
0.999588
1.03473
1.06943
1.10368
1.13747
1.17079
1.20364
1.23599
1.26785
1.2992
1.33004
1.36036
1.39016
1.41942
1.44815
1.47633
1.50397
1.53106
1.5576
1.58357
1.609
1.63386
1.65816
1.6819
1.70507
1.72769
1.74975
1.77124
1.79218
1.81256
1.83239
1.85167
1.87039
1.88858
1.90622
1.92333
1.9399
1.95594
1.97146
1.98646
2.00095
2.01493
2.0284
2.04138
2.05386
2.06586
2.07738
2.08842
2.09899
2.1091
2.11875
2.12795
2.1367
2.14502
2.15289
2.16034
2.16736
2.17396
2.18015
2.18593
2.1913
2.19627
2.20084
2.20502
2.20881
2.21221
2.21523
2.21787
2.22014
2.22201
2.2233
2.22456
2.23212
2.20436
2.24075
201.414
-75.7338
12.3304
1.296
-0.154686
0.168916
0.283345
0.325532
0.365478
0.407414
0.449616
0.491619
0.533382
0.574897
0.616151
0.657124
0.697799
0.738158
0.778184
0.817862
0.857176
0.896111
0.934652
0.972785
1.0105
1.04777
1.08461
1.12098
1.15688
1.1923
1.22723
1.26165
1.29557
1.32896
1.36182
1.39415
1.42593
1.45716
1.48783
1.51794
1.54748
1.57645
1.60484
1.63265
1.65988
1.68652
1.71258
1.73805
1.76293
1.78722
1.81092
1.83404
1.85657
1.87851
1.89987
1.92065
1.94085
1.96048
1.97954
1.99803
2.01595
2.03332
2.05013
2.0664
2.08212
2.0973
2.11195
2.12607
2.13967
2.15275
2.16532
2.17739
2.18896
2.20004
2.21063
2.22075
2.23039
2.23956
2.24827
2.25652
2.26432
2.27168
2.2786
2.28508
2.29114
2.29677
2.30197
2.30677
2.31115
2.31512
2.31869
2.32185
2.32462
2.327
2.32895
2.33033
2.33165
2.33887
2.31221
2.34783
201.415
-75.7308
12.3353
1.30288
-0.145842
0.179716
0.296097
0.34023
0.382115
0.425983
0.470107
0.514024
0.55769
0.601097
0.64423
0.68707
0.729598
0.771796
0.813646
0.855132
0.896237
0.936945
0.977242
1.01711
1.05654
1.09552
1.13403
1.17206
1.20959
1.24662
1.28314
1.31914
1.35459
1.38951
1.42386
1.45766
1.49089
1.52354
1.5556
1.58708
1.61797
1.64825
1.67793
1.70701
1.73547
1.76333
1.79057
1.81719
1.8432
1.8686
1.89338
1.91754
1.94109
1.96403
1.98636
2.00809
2.0292
2.04972
2.06964
2.08897
2.10771
2.12586
2.14344
2.16044
2.17687
2.19274
2.20805
2.22281
2.23703
2.2507
2.26385
2.27646
2.28855
2.30014
2.31121
2.32178
2.33185
2.34144
2.35054
2.35917
2.36733
2.37502
2.38225
2.38903
2.39536
2.40124
2.40668
2.41169
2.41627
2.42042
2.42415
2.42746
2.43036
2.43284
2.43489
2.43636
2.43774
2.44456
2.41913
2.45386
201.416
-75.7279
12.3402
1.30969
-0.137085
0.190412
0.308727
0.354787
0.398592
0.444373
0.490401
0.536213
0.581763
0.627044
0.672038
0.716727
0.76109
0.805109
0.848765
0.892041
0.93492
0.977385
1.01942
1.06101
1.10214
1.1428
1.18297
1.22264
1.26179
1.30042
1.33852
1.37606
1.41305
1.44946
1.4853
1.52056
1.55521
1.58927
1.62272
1.65555
1.68777
1.71936
1.75031
1.78064
1.81033
1.83939
1.8678
1.89557
1.9227
1.94918
1.97503
2.00023
2.02479
2.04872
2.07201
2.09467
2.11669
2.13809
2.15887
2.17902
2.19857
2.2175
2.23583
2.25356
2.2707
2.28725
2.30321
2.31861
2.33343
2.34769
2.3614
2.37455
2.38717
2.39924
2.41079
2.42181
2.43232
2.44232
2.45181
2.46081
2.46931
2.47733
2.48487
2.49194
2.49854
2.50468
2.51035
2.51558
2.52035
2.52468
2.52857
2.53203
2.53504
2.53763
2.53977
2.54133
2.54277
2.54918
2.52504
2.5588
201.417
-75.725
12.345
1.31643
-0.128416
0.201
0.321228
0.369196
0.414903
0.462577
0.51049
0.558177
0.605593
0.652728
0.699566
0.746085
0.792265
0.838086
0.88353
0.928578
0.973213
1.01742
1.06117
1.10447
1.14728
1.1896
1.23142
1.27271
1.31347
1.35368
1.39333
1.43241
1.47091
1.50881
1.54612
1.58281
1.61889
1.65434
1.68915
1.72333
1.75686
1.78974
1.82196
1.85352
1.88443
1.91467
1.94424
1.97314
2.00138
2.02895
2.05584
2.08207
2.10764
2.13254
2.15678
2.18036
2.20328
2.22555
2.24717
2.26815
2.28849
2.30819
2.32727
2.34572
2.36355
2.38078
2.39739
2.41341
2.42884
2.44368
2.45794
2.47163
2.48476
2.49732
2.50934
2.52081
2.53174
2.54215
2.55203
2.56139
2.57024
2.57858
2.58643
2.59379
2.60065
2.60704
2.61295
2.61839
2.62336
2.62786
2.63191
2.6355
2.63864
2.64134
2.64357
2.64521
2.64672
2.65271
2.62988
2.66265
201.418
-75.7221
12.3498
1.32311
-0.119838
0.211476
0.333598
0.383454
0.431041
0.480589
0.530368
0.579911
0.629172
0.678142
0.726803
0.775133
0.82311
0.870715
0.917928
0.96473
1.0111
1.05703
1.10249
1.14746
1.19194
1.23591
1.27935
1.32225
1.3646
1.40637
1.44756
1.48816
1.52816
1.56754
1.60629
1.64441
1.68189
1.71871
1.75488
1.79038
1.82521
1.85937
1.89284
1.92563
1.95773
1.98915
2.01986
2.04989
2.07922
2.10785
2.13579
2.16304
2.1896
2.21546
2.24064
2.26513
2.28894
2.31207
2.33453
2.35632
2.37744
2.39791
2.41772
2.43689
2.45541
2.4733
2.49056
2.50719
2.52322
2.53863
2.55344
2.56766
2.58129
2.59434
2.60682
2.61874
2.63009
2.6409
2.65116
2.66088
2.67007
2.67874
2.68689
2.69453
2.70166
2.70829
2.71443
2.72008
2.72524
2.72992
2.73413
2.73786
2.74112
2.74392
2.74624
2.74797
2.74954
2.75512
2.73358
2.76537
201.418
-75.7193
12.3545
1.32971
-0.111354
0.221838
0.345832
0.397555
0.447003
0.498403
0.550027
0.601405
0.652492
0.703277
0.753741
0.803862
0.853617
0.902986
0.951948
1.00048
1.04857
1.0962
1.14334
1.18999
1.23612
1.28171
1.32676
1.37125
1.41516
1.45848
1.5012
1.5433
1.58477
1.62561
1.6658
1.70533
1.74419
1.78238
1.81988
1.85669
1.89281
1.92823
1.96294
1.99694
2.03023
2.0628
2.09465
2.12578
2.15619
2.18588
2.21486
2.24311
2.27064
2.29746
2.32356
2.34895
2.37364
2.39763
2.42091
2.4435
2.4654
2.48662
2.50716
2.52703
2.54624
2.56478
2.58267
2.59992
2.61653
2.63251
2.64787
2.66261
2.67674
2.69027
2.70321
2.71556
2.72733
2.73853
2.74917
2.75925
2.76878
2.77776
2.78621
2.79413
2.80153
2.8084
2.81476
2.82062
2.82597
2.83083
2.83519
2.83906
2.84244
2.84534
2.84775
2.84956
2.8512
2.85638
2.83608
2.86693
201.419
-75.7165
12.3592
1.33623
-0.102968
0.23208
0.357926
0.411495
0.462782
0.516014
0.569461
0.622654
0.675546
0.728125
0.780371
0.832262
0.883775
0.934888
0.985579
1.03583
1.08562
1.13492
1.18373
1.23202
1.27978
1.32699
1.37362
1.41968
1.46514
1.50999
1.55421
1.5978
1.64074
1.68301
1.72462
1.76554
1.80577
1.8453
1.88413
1.92224
1.95963
1.99629
2.03222
2.06742
2.10188
2.1356
2.16857
2.20079
2.23228
2.26301
2.293
2.32224
2.35074
2.3785
2.40552
2.43181
2.45736
2.48218
2.50628
2.52967
2.55234
2.5743
2.59556
2.61612
2.636
2.65519
2.67371
2.69157
2.70876
2.7253
2.74119
2.75644
2.77107
2.78507
2.79846
2.81125
2.82343
2.83502
2.84603
2.85646
2.86632
2.87562
2.88437
2.89256
2.90022
2.90733
2.91392
2.91998
2.92552
2.93054
2.93505
2.93906
2.94256
2.94557
2.94806
2.94996
2.95166
2.95647
2.93734
2.9673
201.42
-75.7137
12.3638
1.34268
-0.0946803
0.242202
0.369877
0.425269
0.478374
0.533416
0.588665
0.643651
0.698326
0.752677
0.806685
0.860325
0.913574
0.96641
1.01881
1.07075
1.12222
1.17319
1.22364
1.27356
1.32292
1.37172
1.41993
1.46754
1.51453
1.56089
1.6066
1.65165
1.69603
1.73973
1.78274
1.82503
1.86662
1.90748
1.94761
1.987
2.02565
2.06354
2.10068
2.13706
2.17267
2.20752
2.2416
2.2749
2.30744
2.3392
2.3702
2.40042
2.42988
2.45856
2.48649
2.51365
2.54006
2.56572
2.59062
2.61479
2.63821
2.66091
2.68288
2.70413
2.72467
2.74451
2.76365
2.78209
2.79986
2.81695
2.83337
2.84913
2.86425
2.87872
2.89255
2.90576
2.91835
2.93033
2.94171
2.95248
2.96268
2.97229
2.98132
2.98979
2.9977
3.00505
3.01186
3.01812
3.02384
3.02904
3.0337
3.03784
3.04146
3.04457
3.04715
3.04913
3.05088
3.05536
3.03733
3.06646
201.421
-75.711
12.3683
1.34905
-0.086495
0.252199
0.381681
0.438874
0.493774
0.550603
0.607632
0.664389
0.720825
0.776927
0.832674
0.888042
0.943006
0.997543
1.05163
1.10525
1.15837
1.21098
1.26305
1.31458
1.36553
1.4159
1.46566
1.5148
1.5633
1.61115
1.65833
1.70484
1.75064
1.79575
1.84013
1.88379
1.92671
1.96888
2.0103
2.05095
2.09084
2.12995
2.16828
2.20582
2.24258
2.27854
2.31371
2.34809
2.38166
2.41445
2.44643
2.47762
2.50802
2.53762
2.56644
2.59447
2.62172
2.6482
2.6739
2.69884
2.72301
2.74643
2.7691
2.79103
2.81223
2.83269
2.85244
2.87148
2.88981
2.90744
2.92439
2.94065
2.95625
2.97118
2.98545
2.99908
3.01207
3.02443
3.03617
3.04729
3.0578
3.06772
3.07704
3.08578
3.09394
3.10153
3.10855
3.11501
3.12092
3.12628
3.13109
3.13536
3.1391
3.14231
3.14497
3.14703
3.14885
3.15301
3.13599
3.16437
201.422
-75.7083
12.3728
1.35534
-0.0784143
0.262068
0.393333
0.452305
0.508977
0.567571
0.626356
0.684861
0.743036
0.800867
0.858331
0.915404
0.972061
1.02828
1.08403
1.1393
1.19406
1.24828
1.30196
1.35507
1.4076
1.45951
1.51081
1.56146
1.61145
1.66077
1.7094
1.75733
1.80455
1.85104
1.89679
1.94178
1.98602
2.02949
2.07218
2.11408
2.15519
2.1955
2.235
2.2737
2.31158
2.34864
2.38489
2.42032
2.45492
2.48871
2.52167
2.55382
2.58514
2.61565
2.64535
2.67424
2.70232
2.7296
2.75609
2.78179
2.8067
2.83083
2.85419
2.87679
2.89863
2.91972
2.94007
2.95969
2.97857
2.99674
3.01421
3.03097
3.04703
3.06242
3.07713
3.09117
3.10456
3.11729
3.12938
3.14084
3.15168
3.1619
3.1715
3.18051
3.18891
3.19673
3.20397
3.21063
3.21671
3.22224
3.2272
3.2316
3.23545
3.23876
3.2415
3.24364
3.24552
3.2494
3.2333
3.26101
201.423
-75.7056
12.3773
1.36154
-0.0704403
0.271807
0.404832
0.465558
0.523978
0.584314
0.644833
0.705063
0.764953
0.824489
0.883648
0.942403
1.00073
1.0586
1.116
1.1729
1.22927
1.2851
1.34036
1.39503
1.4491
1.50255
1.55535
1.60749
1.65896
1.70973
1.75979
1.80913
1.85774
1.90559
1.95269
1.99901
2.04454
2.08929
2.13323
2.17636
2.21868
2.26017
2.30083
2.34066
2.37965
2.41781
2.45512
2.49158
2.5272
2.56197
2.5959
2.62898
2.66123
2.69263
2.72319
2.75293
2.78183
2.80991
2.83717
2.86362
2.88925
2.91409
2.93813
2.96139
2.98387
3.00557
3.02651
3.0467
3.06614
3.08484
3.1028
3.12005
3.13659
3.15242
3.16756
3.18201
3.19578
3.20889
3.22133
3.23312
3.24427
3.25479
3.26467
3.27394
3.28259
3.29064
3.29808
3.30494
3.3112
3.31688
3.32199
3.32652
3.33049
3.33389
3.33672
3.33893
3.34086
3.3445
3.32924
3.35634
201.424
-75.703
12.3816
1.36766
-0.0625754
0.281412
0.416173
0.47863
0.538775
0.600828
0.663056
0.724987
0.786569
0.847787
0.908617
0.969032
1.02901
1.08851
1.14753
1.20603
1.264
1.3214
1.37822
1.43444
1.49003
1.54499
1.59928
1.65289
1.70581
1.75801
1.80949
1.86022
1.91019
1.95939
2.00781
2.05544
2.10225
2.14826
2.19344
2.23778
2.28128
2.32394
2.36575
2.4067
2.44678
2.48601
2.52436
2.56185
2.59847
2.63422
2.66909
2.70311
2.73625
2.76853
2.79995
2.83052
2.86023
2.88909
2.91711
2.9443
2.97065
2.99618
3.0209
3.0448
3.06791
3.09022
3.11174
3.13249
3.15247
3.17169
3.19016
3.20788
3.22488
3.24115
3.25671
3.27156
3.28572
3.29919
3.31198
3.3241
3.33556
3.34636
3.35653
3.36605
3.37494
3.38321
3.39087
3.39791
3.40435
3.41019
3.41544
3.4201
3.42418
3.42768
3.43059
3.43287
3.43486
3.43828
3.42378
3.45034
201.425
-75.7004
12.3859
1.3737
-0.0548218
0.290881
0.427354
0.491517
0.553361
0.617108
0.681022
0.74463
0.80788
0.870755
0.933232
0.995283
1.05688
1.118
1.17861
1.2387
1.29823
1.35719
1.41555
1.47329
1.53039
1.58682
1.64258
1.69765
1.75199
1.80561
1.85847
1.91057
1.96189
2.01243
2.06215
2.11106
2.15914
2.20638
2.25278
2.29832
2.343
2.3868
2.42973
2.47178
2.51295
2.55323
2.59261
2.63111
2.66871
2.70542
2.74123
2.77616
2.81019
2.84334
2.8756
2.90698
2.93749
2.96713
2.9959
3.02381
3.05087
3.07709
3.10246
3.127
3.15072
3.17363
3.19573
3.21703
3.23754
3.25727
3.27624
3.29444
3.31188
3.32859
3.34456
3.35981
3.37434
3.38817
3.4013
3.41375
3.42551
3.43661
3.44704
3.45681
3.46595
3.47444
3.48229
3.48953
3.49614
3.50214
3.50753
3.51231
3.5165
3.52009
3.52308
3.52544
3.52748
3.53071
3.51689
3.54298
201.426
-75.6979
12.3902
1.37964
-0.0471815
0.300212
0.438371
0.504215
0.567735
0.633149
0.698724
0.763984
0.828878
0.893387
0.957487
1.02115
1.08435
1.14705
1.20924
1.27089
1.33197
1.39245
1.45233
1.51156
1.57014
1.62805
1.68525
1.74174
1.7975
1.8525
1.90673
1.96018
2.01284
2.06468
2.11569
2.16586
2.21519
2.26365
2.31125
2.35796
2.40379
2.44873
2.49277
2.53591
2.57813
2.61945
2.65985
2.69934
2.73791
2.77556
2.8123
2.84812
2.88303
2.91703
2.95012
2.98231
3.0136
3.044
3.07351
3.10214
3.12989
3.15678
3.1828
3.20797
3.2323
3.25579
3.27846
3.3003
3.32134
3.34158
3.36102
3.37969
3.39758
3.41471
3.43109
3.44673
3.46163
3.47582
3.48928
3.50204
3.51411
3.52549
3.53618
3.54621
3.55557
3.56428
3.57234
3.57976
3.58654
3.59269
3.59822
3.60313
3.60743
3.61111
3.61418
3.61661
3.6187
3.62176
3.60856
3.63424
201.426
-75.6954
12.3944
1.3855
-0.0396565
0.309403
0.449222
0.516722
0.581891
0.648949
0.716159
0.783047
0.849558
0.915676
0.981374
1.04662
1.1114
1.17567
1.23941
1.30259
1.36519
1.42718
1.48855
1.54926
1.6093
1.66864
1.72727
1.78517
1.84231
1.89868
1.95426
2.00904
2.063
2.11613
2.16841
2.21983
2.27038
2.32004
2.36882
2.4167
2.46366
2.50971
2.55484
2.59905
2.64232
2.68466
2.72606
2.76652
2.80605
2.84463
2.88227
2.91898
2.95475
2.98959
3.0235
3.05648
3.08854
3.11969
3.14992
3.17926
3.20769
3.23524
3.2619
3.28769
3.31262
3.33668
3.3599
3.38229
3.40384
3.42457
3.44449
3.46362
3.48195
3.4995
3.51628
3.5323
3.54757
3.5621
3.57589
3.58897
3.60133
3.61298
3.62394
3.63421
3.64381
3.65273
3.66099
3.66858
3.67553
3.68184
3.6875
3.69253
3.69694
3.70071
3.70386
3.70636
3.7085
3.71142
3.69877
3.72408
201.427
-75.6929
12.3985
1.39126
-0.0322486
0.31845
0.459904
0.529034
0.595827
0.664502
0.733322
0.801812
0.869916
0.937618
1.00489
1.0717
1.13803
1.20383
1.2691
1.33379
1.39789
1.46137
1.5242
1.58636
1.64784
1.7086
1.76863
1.82791
1.88642
1.94414
2.00105
2.05713
2.11238
2.16678
2.2203
2.27295
2.3247
2.37555
2.42549
2.4745
2.52259
2.56973
2.61594
2.66119
2.70549