/*--------------------------------*- C++ -*----------------------------------*\
  =========                 |
  \\      /  F ield         | OpenFOAM: The Open Source CFD Toolbox
   \\    /   O peration     | Website:  https://openfoam.org
    \\  /    A nd           | Version:  10
     \\/     M anipulation  |
\*---------------------------------------------------------------------------*/
FoamFile
{
    format      ascii;
    class       volScalarField;
    location    "32";
    object      T;
}
// * * * * * * * * * * * * * * * * * * * * * * * * * * * * * * * * * * * * * //

dimensions      [0 0 0 1 0 0 0];

internalField   nonuniform List<scalar> 
10000
(
374.986
361.291
356.612
354.562
353.45
352.749
352.261
351.898
351.614
351.384
351.192
351.029
350.887
350.761
350.649
350.548
350.455
350.37
350.291
350.217
350.148
350.082
350.02
349.961
349.905
349.851
349.799
349.749
349.701
349.655
349.61
349.566
349.524
349.483
349.443
349.405
349.367
349.33
349.294
349.259
349.225
349.192
349.159
349.127
349.096
349.066
349.036
349.007
348.979
348.951
348.924
348.898
348.872
348.847
348.823
348.799
348.776
348.753
348.731
348.709
348.688
348.668
348.648
348.628
348.61
348.592
348.574
348.557
348.54
348.524
348.509
348.494
348.479
348.466
348.452
348.439
348.427
348.415
348.404
348.394
348.383
348.374
348.365
348.356
348.348
348.341
348.334
348.327
348.321
348.316
348.311
348.306
348.302
348.299
348.296
348.294
348.292
348.291
348.29
348.29
388.615
374.858
367.206
362.746
359.939
358.034
356.658
355.613
354.787
354.112
353.547
353.063
352.642
352.27
351.936
351.634
351.358
351.103
350.867
350.646
350.438
350.242
350.057
349.88
349.711
349.55
349.395
349.245
349.101
348.962
348.828
348.697
348.571
348.448
348.328
348.212
348.099
347.988
347.881
347.776
347.673
347.573
347.476
347.38
347.287
347.196
347.107
347.021
346.936
346.853
346.772
346.693
346.616
346.541
346.467
346.395
346.325
346.257
346.191
346.126
346.063
346.002
345.942
345.885
345.828
345.774
345.721
345.669
345.62
345.572
345.525
345.481
345.437
345.396
345.356
345.317
345.281
345.246
345.212
345.18
345.149
345.121
345.093
345.068
345.043
345.021
345
344.98
344.962
344.946
344.931
344.918
344.907
344.896
344.888
344.881
344.875
344.872
344.869
344.868
393.232
382.323
374.608
369.278
365.525
362.791
360.726
359.111
357.809
356.732
355.822
355.037
354.35
353.741
353.193
352.696
352.24
351.82
351.429
351.063
350.719
350.394
350.086
349.793
349.513
349.244
348.986
348.738
348.499
348.267
348.043
347.826
347.616
347.411
347.212
347.019
346.83
346.646
346.467
346.293
346.122
345.955
345.793
345.634
345.479
345.328
345.179
345.035
344.894
344.756
344.621
344.489
344.361
344.235
344.113
343.993
343.877
343.763
343.653
343.545
343.44
343.338
343.239
343.142
343.049
342.958
342.869
342.784
342.701
342.621
342.544
342.469
342.397
342.328
342.262
342.198
342.136
342.078
342.022
341.968
341.918
341.87
341.824
341.781
341.741
341.703
341.668
341.636
341.606
341.579
341.554
341.532
341.513
341.496
341.482
341.47
341.461
341.455
341.451
341.449
395.22
386.595
379.625
374.232
370.092
366.881
364.344
362.295
360.606
359.186
357.971
356.914
355.982
355.151
354.4
353.717
353.089
352.508
351.967
351.46
350.983
350.531
350.103
349.695
349.304
348.93
348.571
348.224
347.89
347.567
347.255
346.952
346.658
346.372
346.094
345.823
345.56
345.303
345.053
344.808
344.57
344.337
344.11
343.888
343.671
343.459
343.252
343.049
342.852
342.659
342.47
342.286
342.106
341.931
341.76
341.593
341.43
341.271
341.116
340.965
340.818
340.676
340.537
340.402
340.271
340.143
340.02
339.9
339.785
339.673
339.564
339.46
339.359
339.262
339.169
339.08
338.994
338.912
338.834
338.759
338.688
338.621
338.557
338.497
338.441
338.388
338.339
338.294
338.252
338.214
338.179
338.149
338.121
338.098
338.078
338.062
338.049
338.04
338.034
338.032
396.269
389.215
383.065
377.934
373.732
370.298
367.473
365.121
363.136
361.437
359.963
358.668
357.516
356.481
355.543
354.684
353.893
353.158
352.473
351.83
351.223
350.648
350.102
349.581
349.083
348.605
348.145
347.702
347.274
346.861
346.46
346.072
345.695
345.329
344.972
344.625
344.287
343.958
343.636
343.323
343.017
342.718
342.426
342.141
341.862
341.59
341.324
341.065
340.811
340.563
340.321
340.084
339.853
339.628
339.408
339.193
338.984
338.78
338.581
338.387
338.199
338.015
337.837
337.663
337.495
337.331
337.173
337.019
336.87
336.727
336.588
336.453
336.324
336.199
336.08
335.965
335.855
335.749
335.648
335.552
335.461
335.375
335.293
335.216
335.144
335.076
335.013
334.955
334.901
334.852
334.808
334.768
334.733
334.703
334.677
334.657
334.64
334.629
334.622
334.619
396.907
390.932
385.486
380.708
376.603
373.107
370.13
367.581
365.381
363.465
361.778
360.279
358.935
357.718
356.607
355.587
354.642
353.763
352.94
352.166
351.434
350.74
350.08
349.449
348.845
348.265
347.707
347.169
346.649
346.146
345.659
345.186
344.727
344.281
343.846
343.423
343.011
342.61
342.218
341.836
341.462
341.098
340.742
340.394
340.054
339.722
339.398
339.081
338.771
338.468
338.173
337.884
337.602
337.327
337.058
336.796
336.541
336.291
336.049
335.812
335.582
335.358
335.14
334.928
334.722
334.523
334.329
334.141
333.96
333.784
333.614
333.45
333.292
333.14
332.994
332.854
332.719
332.59
332.467
332.35
332.239
332.133
332.033
331.939
331.851
331.768
331.691
331.62
331.555
331.495
331.441
331.392
331.35
331.313
331.281
331.256
331.236
331.222
331.213
331.21
397.332
392.12
387.24
382.809
378.867
375.399
372.36
369.693
367.345
365.264
363.408
361.739
360.228
358.851
357.585
356.417
355.33
354.315
353.362
352.463
351.612
350.803
350.032
349.295
348.588
347.908
347.254
346.622
346.012
345.421
344.848
344.292
343.752
343.227
342.716
342.218
341.732
341.259
340.797
340.346
339.906
339.477
339.057
338.647
338.246
337.854
337.471
337.097
336.732
336.375
336.026
335.685
335.353
335.028
334.711
334.402
334.1
333.806
333.519
333.24
332.968
332.704
332.447
332.197
331.954
331.718
331.489
331.268
331.053
330.846
330.645
330.452
330.265
330.086
329.913
329.747
329.588
329.436
329.291
329.153
329.021
328.897
328.779
328.667
328.563
328.466
328.375
328.291
328.213
328.143
328.079
328.022
327.971
327.928
327.891
327.861
327.837
327.82
327.81
327.807
397.634
392.979
388.544
384.422
380.659
377.264
374.218
371.49
369.043
366.842
364.852
363.044
361.392
359.874
358.471
357.167
355.951
354.809
353.734
352.717
351.752
350.834
349.956
349.115
348.308
347.532
346.784
346.061
345.362
344.684
344.027
343.39
342.77
342.166
341.579
341.007
340.449
339.905
339.374
338.855
338.349
337.854
337.371
336.899
336.438
335.987
335.546
335.115
334.695
334.283
333.882
333.489
333.106
332.732
332.367
332.01
331.663
331.324
330.994
330.672
330.359
330.054
329.758
329.469
329.19
328.918
328.654
328.399
328.152
327.913
327.682
327.459
327.244
327.037
326.838
326.647
326.463
326.288
326.121
325.961
325.81
325.666
325.53
325.402
325.282
325.169
325.064
324.967
324.878
324.797
324.723
324.657
324.599
324.549
324.506
324.472
324.445
324.425
324.414
324.41
397.855
393.619
389.535
385.676
382.085
378.781
375.76
373.007
370.498
368.21
366.118
364.196
362.425
360.785
359.26
357.836
356.5
355.242
354.053
352.925
351.852
350.828
349.849
348.909
348.005
347.135
346.295
345.483
344.697
343.935
343.196
342.477
341.779
341.099
340.436
339.791
339.161
338.547
337.947
337.362
336.79
336.231
335.685
335.151
334.63
334.12
333.622
333.135
332.659
332.194
331.74
331.296
330.862
330.439
330.026
329.623
329.23
328.846
328.472
328.108
327.754
327.409
327.073
326.747
326.431
326.123
325.825
325.536
325.256
324.986
324.724
324.472
324.228
323.994
323.769
323.552
323.345
323.146
322.957
322.776
322.605
322.442
322.288
322.143
322.007
321.88
321.761
321.651
321.55
321.458
321.375
321.3
321.235
321.178
321.129
321.09
321.059
321.037
321.024
321.02
398.024
394.107
390.301
386.662
383.227
380.017
377.036
374.28
371.736
369.387
367.215
365.202
363.331
361.586
359.954
358.421
356.977
355.611
354.316
353.084
351.909
350.785
349.708
348.673
347.676
346.715
345.786
344.888
344.017
343.172
342.352
341.555
340.779
340.023
339.287
338.569
337.868
337.185
336.517
335.866
335.229
334.606
333.998
333.404
332.822
332.254
331.699
331.156
330.626
330.107
329.6
329.105
328.622
328.15
327.689
327.239
326.801
326.373
325.956
325.55
325.154
324.769
324.395
324.031
323.678
323.334
323.002
322.679
322.367
322.065
321.773
321.491
321.22
320.958
320.707
320.465
320.234
320.012
319.801
319.599
319.408
319.226
319.054
318.892
318.74
318.598
318.466
318.343
318.231
318.128
318.035
317.952
317.878
317.815
317.761
317.717
317.682
317.658
317.643
317.638
398.153
394.487
390.903
387.445
384.145
381.024
378.091
375.345
372.782
370.39
368.157
366.069
364.115
362.28
360.553
358.923
357.38
355.916
354.523
353.193
351.922
350.704
349.533
348.406
347.32
346.271
345.256
344.274
343.32
342.395
341.496
340.621
339.769
338.939
338.13
337.341
336.571
335.819
335.084
334.367
333.666
332.981
332.311
331.656
331.016
330.39
329.777
329.179
328.594
328.023
327.464
326.918
326.385
325.865
325.356
324.86
324.376
323.905
323.445
322.997
322.56
322.136
321.723
321.321
320.931
320.553
320.185
319.83
319.485
319.152
318.83
318.519
318.219
317.93
317.653
317.386
317.131
316.886
316.653
316.43
316.219
316.018
315.829
315.65
315.482
315.325
315.179
315.044
314.92
314.806
314.704
314.612
314.531
314.461
314.401
314.353
314.315
314.288
314.272
314.266
398.255
394.786
391.379
388.07
384.886
381.846
378.96
376.231
373.659
371.237
368.957
366.809
364.784
362.871
361.06
359.343
357.711
356.156
354.672
353.252
351.89
350.582
349.322
348.108
346.936
345.802
344.704
343.64
342.606
341.602
340.626
339.675
338.749
337.846
336.966
336.106
335.267
334.448
333.648
332.866
332.101
331.353
330.623
329.908
329.209
328.526
327.858
327.204
326.566
325.941
325.331
324.735
324.153
323.584
323.029
322.487
321.958
321.442
320.94
320.45
319.973
319.509
319.057
318.618
318.192
317.778
317.377
316.988
316.611
316.247
315.894
315.554
315.227
314.911
314.608
314.316
314.037
313.77
313.514
313.271
313.04
312.821
312.613
312.418
312.234
312.063
311.903
311.755
311.619
311.495
311.383
311.282
311.194
311.117
311.052
310.999
310.957
310.928
310.91
310.904
398.336
395.023
391.759
388.572
385.486
382.516
379.674
376.965
374.39
371.946
369.628
367.431
365.345
363.364
361.48
359.685
357.972
356.334
354.765
353.26
351.813
350.419
349.076
347.778
346.523
345.308
344.13
342.986
341.875
340.794
339.742
338.717
337.718
336.744
335.793
334.865
333.959
333.073
332.208
331.361
330.534
329.725
328.934
328.16
327.404
326.664
325.94
325.232
324.54
323.864
323.202
322.556
321.925
321.308
320.706
320.119
319.545
318.986
318.441
317.91
317.393
316.889
316.4
315.923
315.461
315.012
314.577
314.154
313.746
313.35
312.968
312.6
312.244
311.901
311.572
311.256
310.953
310.663
310.386
310.122
309.871
309.633
309.408
309.196
308.997
308.811
308.637
308.477
308.329
308.195
308.073
307.964
307.868
307.784
307.714
307.656
307.611
307.579
307.56
307.553
398.4
395.212
392.063
388.976
385.97
383.061
380.258
377.568
374.993
372.533
370.185
367.946
365.808
363.768
361.818
359.952
358.165
356.45
354.803
353.218
351.691
350.217
348.793
347.416
346.082
344.788
343.532
342.311
341.124
339.969
338.844
337.747
336.677
335.632
334.613
333.617
332.644
331.693
330.764
329.855
328.966
328.096
327.246
326.413
325.599
324.803
324.024
323.263
322.518
321.79
321.078
320.382
319.702
319.038
318.39
317.757
317.139
316.537
315.95
315.377
314.82
314.278
313.75
313.237
312.739
312.255
311.786
311.331
310.89
310.464
310.052
309.655
309.271
308.902
308.547
308.206
307.88
307.567
307.268
306.984
306.713
306.457
306.214
305.986
305.771
305.57
305.383
305.21
305.051
304.906
304.775
304.657
304.554
304.464
304.388
304.325
304.277
304.242
304.222
304.215
398.451
395.362
392.306
389.3
386.361
383.502
380.732
378.059
375.486
373.013
370.64
368.363
366.181
364.087
362.078
360.148
358.293
356.507
354.787
353.128
351.525
349.975
348.475
347.022
345.611
344.242
342.911
341.617
340.356
339.128
337.931
336.764
335.624
334.511
333.425
332.363
331.324
330.309
329.316
328.345
327.396
326.466
325.557
324.667
323.797
322.945
322.112
321.297
320.499
319.72
318.958
318.213
317.485
316.774
316.08
315.402
314.74
314.095
313.466
312.853
312.256
311.675
311.109
310.56
310.026
309.507
309.004
308.517
308.045
307.588
307.147
306.721
306.31
305.914
305.534
305.168
304.818
304.483
304.163
303.858
303.568
303.293
303.033
302.788
302.558
302.342
302.142
301.957
301.786
301.63
301.49
301.364
301.252
301.156
301.075
301.008
300.956
300.919
300.897
300.889
398.492
395.482
392.5
389.559
386.674
383.856
381.114
378.455
375.882
373.398
371.002
368.694
366.471
364.329
362.266
360.278
358.36
356.509
354.72
352.991
351.317
349.695
348.122
346.596
345.113
343.671
342.268
340.901
339.57
338.271
337.005
335.768
334.561
333.381
332.228
331.101
329.999
328.921
327.866
326.834
325.824
324.836
323.868
322.922
321.995
321.089
320.202
319.334
318.485
317.655
316.843
316.049
315.274
314.516
313.776
313.054
312.349
311.661
310.991
310.337
309.701
309.081
308.478
307.892
307.323
306.77
306.234
305.714
305.21
304.723
304.253
303.798
303.36
302.938
302.532
302.143
301.769
301.411
301.07
300.745
300.435
300.142
299.865
299.603
299.358
299.128
298.914
298.716
298.534
298.368
298.218
298.084
297.965
297.862
297.775
297.704
297.649
297.609
297.586
297.577
398.524
395.578
392.654
389.764
386.922
384.137
381.417
378.768
376.195
373.7
371.284
368.946
366.686
364.5
362.388
360.345
358.369
356.457
354.605
352.809
351.068
349.378
347.735
346.139
344.586
343.074
341.601
340.166
338.765
337.398
336.064
334.761
333.487
332.242
331.024
329.833
328.668
327.528
326.412
325.32
324.251
323.205
322.18
321.177
320.196
319.235
318.295
317.375
316.475
315.595
314.734
313.892
313.07
312.266
311.481
310.714
309.966
309.236
308.525
307.831
307.155
306.498
305.858
305.236
304.631
304.044
303.475
302.923
302.388
301.871
301.371
300.888
300.423
299.975
299.544
299.13
298.733
298.353
297.991
297.645
297.317
297.005
296.71
296.433
296.172
295.928
295.701
295.491
295.297
295.121
294.961
294.819
294.693
294.583
294.491
294.416
294.357
294.315
294.289
294.281
398.549
395.652
392.774
389.925
387.116
384.356
381.652
379.011
376.435
373.929
371.493
369.127
366.833
364.607
362.449
360.356
358.325
356.355
354.443
352.585
350.78
349.024
347.316
345.653
344.033
342.454
340.913
339.41
337.943
336.51
335.11
333.741
332.402
331.093
329.812
328.559
327.332
326.131
324.956
323.804
322.677
321.574
320.493
319.435
318.399
317.385
316.392
315.421
314.47
313.54
312.631
311.741
310.872
310.023
309.193
308.383
307.592
306.82
306.068
305.335
304.62
303.925
303.248
302.59
301.951
301.33
300.727
300.143
299.578
299.031
298.502
297.991
297.499
297.025
296.569
296.131
295.711
295.31
294.926
294.56
294.213
293.883
293.571
293.277
293.001
292.743
292.503
292.28
292.076
291.889
291.72
291.569
291.436
291.32
291.223
291.143
291.08
291.036
291.009
291
398.568
395.709
392.866
390.048
387.264
384.523
381.83
379.192
376.612
374.093
371.637
369.246
366.919
364.655
362.453
360.313
358.231
356.207
354.237
352.321
350.455
348.637
346.865
345.138
343.453
341.809
340.204
338.636
337.104
335.606
334.142
332.709
331.308
329.936
328.593
327.279
325.992
324.731
323.496
322.287
321.103
319.943
318.807
317.694
316.605
315.538
314.493
313.471
312.471
311.492
310.534
309.598
308.682
307.788
306.914
306.06
305.227
304.414
303.622
302.849
302.096
301.363
300.65
299.956
299.282
298.628
297.993
297.377
296.781
296.205
295.647
295.109
294.59
294.09
293.609
293.147
292.705
292.281
291.876
291.491
291.124
290.776
290.447
290.138
289.847
289.574
289.321
289.086
288.871
288.674
288.496
288.336
288.196
288.074
287.971
287.886
287.821
287.774
287.746
287.736
398.583
395.751
392.934
390.139
387.373
384.644
381.958
379.319
376.732
374.2
371.725
369.308
366.949
364.649
362.407
360.221
358.091
356.015
353.992
352.019
350.094
348.217
346.385
344.596
342.849
341.142
339.474
337.843
336.248
334.688
333.161
331.666
330.203
328.771
327.367
325.993
324.646
323.327
322.035
320.769
319.528
318.313
317.122
315.956
314.814
313.695
312.599
311.527
310.477
309.45
308.445
307.462
306.501
305.562
304.644
303.748
302.873
302.019
301.186
300.374
299.583
298.813
298.064
297.335
296.627
295.939
295.272
294.625
293.999
293.392
292.806
292.241
291.695
291.17
290.664
290.179
289.713
289.268
288.843
288.437
288.052
287.686
287.341
287.015
286.709
286.423
286.156
285.91
285.683
285.476
285.288
285.121
284.973
284.845
284.736
284.648
284.579
284.529
284.5
284.49
398.593
395.782
392.983
390.203
387.448
384.727
382.042
379.4
376.804
374.258
371.762
369.319
366.93
364.595
362.313
360.085
357.909
355.783
353.708
351.681
349.701
347.767
345.876
344.028
342.221
340.454
338.725
337.033
335.377
333.756
332.168
330.613
329.09
327.597
326.135
324.702
323.297
321.921
320.572
319.25
317.954
316.684
315.44
314.221
313.026
311.856
310.71
309.588
308.49
307.415
306.363
305.334
304.328
303.345
302.384
301.445
300.529
299.634
298.762
297.912
297.083
296.276
295.491
294.727
293.985
293.265
292.565
291.888
291.231
290.595
289.981
289.388
288.816
288.265
287.736
287.227
286.739
286.272
285.826
285.401
284.997
284.614
284.251
283.91
283.589
283.289
283.009
282.751
282.513
282.296
282.099
281.924
281.769
281.634
281.521
281.428
281.355
281.304
281.272
281.262
398.6
395.801
393.014
390.243
387.495
384.775
382.089
379.441
376.833
374.27
371.754
369.286
366.866
364.497
362.177
359.908
357.687
355.514
353.389
351.311
349.277
347.288
345.341
343.436
341.571
339.745
337.957
336.206
334.491
332.81
331.164
329.55
327.968
326.417
324.897
323.406
321.945
320.512
319.108
317.73
316.38
315.057
313.76
312.489
311.243
310.022
308.827
307.656
306.51
305.387
304.289
303.215
302.164
301.137
300.134
299.153
298.196
297.262
296.35
295.462
294.596
293.752
292.932
292.134
291.358
290.605
289.874
289.165
288.479
287.814
287.172
286.552
285.954
285.378
284.824
284.292
283.782
283.294
282.827
282.383
281.96
281.559
281.18
280.823
280.487
280.173
279.881
279.611
279.362
279.135
278.93
278.746
278.584
278.443
278.324
278.227
278.151
278.097
278.065
278.053
398.604
395.812
393.03
390.263
387.517
384.795
382.103
379.446
376.825
374.244
371.706
369.212
366.763
364.36
362.003
359.693
357.429
355.211
353.038
350.91
348.825
346.782
344.781
342.821
340.9
339.017
337.172
335.364
333.591
331.853
330.148
328.477
326.837
325.23
323.653
322.106
320.589
319.101
317.642
316.211
314.808
313.432
312.083
310.76
309.464
308.194
306.949
305.73
304.537
303.368
302.224
301.105
300.011
298.94
297.894
296.873
295.875
294.901
293.951
293.025
292.122
291.243
290.387
289.555
288.746
287.96
287.198
286.459
285.742
285.05
284.38
283.733
283.109
282.508
281.93
281.375
280.843
280.333
279.847
279.383
278.942
278.524
278.128
277.755
277.405
277.078
276.773
276.491
276.231
275.994
275.78
275.588
275.419
275.272
275.148
275.047
274.968
274.911
274.877
274.865
398.605
395.815
393.034
390.266
387.517
384.79
382.089
379.419
376.783
374.183
371.622
369.102
366.623
364.186
361.794
359.444
357.139
354.877
352.657
350.481
348.346
346.252
344.199
342.185
340.209
338.272
336.371
334.507
332.678
330.883
329.123
327.395
325.7
324.037
322.404
320.803
319.231
317.689
316.177
314.693
313.237
311.809
310.409
309.036
307.69
306.371
305.078
303.812
302.572
301.357
300.168
299.005
297.867
296.754
295.667
294.604
293.566
292.553
291.565
290.601
289.662
288.747
287.857
286.991
286.149
285.332
284.538
283.769
283.023
282.302
281.605
280.931
280.282
279.656
279.055
278.477
277.923
277.392
276.886
276.403
275.944
275.508
275.096
274.708
274.344
274.002
273.685
273.391
273.121
272.874
272.651
272.451
272.275
272.122
271.993
271.887
271.805
271.746
271.711
271.699
398.603
395.811
393.027
390.254
387.498
384.762
382.05
379.366
376.712
374.092
371.507
368.959
366.45
363.981
361.553
359.165
356.819
354.513
352.249
350.026
347.842
345.699
343.594
341.529
339.501
337.51
335.555
333.637
331.753
329.904
328.088
326.306
324.556
322.838
321.152
319.497
317.872
316.277
314.712
313.175
311.668
310.19
308.739
307.317
305.922
304.555
303.215
301.902
300.615
299.356
298.122
296.915
295.735
294.58
293.451
292.348
291.271
290.219
289.193
288.193
287.217
286.267
285.343
284.443
283.569
282.72
281.895
281.096
280.322
279.573
278.848
278.149
277.474
276.824
276.199
275.598
275.022
274.471
273.945
273.443
272.966
272.513
272.085
271.682
271.303
270.948
270.619
270.313
270.032
269.776
269.544
269.336
269.153
268.994
268.86
268.75
268.664
268.603
268.566
268.554
398.6
395.801
393.01
390.229
387.462
384.715
381.989
379.288
376.615
373.973
371.363
368.788
366.249
363.747
361.283
358.858
356.471
354.124
351.816
349.547
347.317
345.125
342.971
340.854
338.775
336.732
334.725
332.754
330.817
328.914
327.045
325.21
323.406
321.635
319.896
318.188
316.511
314.864
313.247
311.66
310.103
308.574
307.074
305.603
304.16
302.746
301.359
300
298.668
297.364
296.087
294.837
293.614
292.418
291.248
290.106
288.989
287.9
286.836
285.799
284.788
283.803
282.845
281.912
281.006
280.125
279.271
278.442
277.639
276.862
276.111
275.385
274.685
274.011
273.363
272.74
272.143
271.571
271.025
270.504
270.009
269.54
269.096
268.677
268.284
267.916
267.574
267.257
266.966
266.7
266.459
266.243
266.053
265.889
265.749
265.635
265.547
265.483
265.445
265.432
398.595
395.787
392.985
390.192
387.413
384.65
381.908
379.189
376.495
373.83
371.195
368.592
366.022
363.487
360.988
358.525
356.1
353.711
351.36
349.047
346.77
344.531
342.329
340.164
338.035
335.941
333.883
331.86
329.871
327.916
325.995
324.107
322.252
320.429
318.638
316.878
315.149
313.452
311.784
310.147
308.54
306.963
305.414
303.895
302.405
300.944
299.511
298.107
296.73
295.382
294.062
292.77
291.505
290.268
289.059
287.877
286.722
285.594
284.494
283.421
282.375
281.356
280.364
279.399
278.461
277.549
276.664
275.806
274.975
274.171
273.393
272.642
271.917
271.219
270.548
269.903
269.284
268.692
268.127
267.588
267.075
266.589
266.129
265.695
265.288
264.907
264.553
264.224
263.923
263.647
263.398
263.174
262.978
262.807
262.663
262.544
262.452
262.387
262.347
262.334
398.589
395.767
392.952
390.145
387.35
384.571
381.811
379.071
376.355
373.666
371.004
368.372
365.772
363.204
360.67
358.17
355.706
353.277
350.884
348.527
346.206
343.921
341.671
339.458
337.28
335.137
333.029
330.956
328.916
326.911
324.939
323
321.093
319.219
317.377
315.567
313.788
312.041
310.324
308.638
306.982
305.356
303.76
302.194
300.658
299.15
297.672
296.223
294.803
293.412
292.049
290.715
289.409
288.132
286.883
285.662
284.47
283.305
282.168
281.06
279.979
278.926
277.901
276.903
275.934
274.992
274.077
273.191
272.331
271.5
270.696
269.919
269.17
268.448
267.754
267.087
266.448
265.836
265.251
264.693
264.163
263.66
263.185
262.736
262.315
261.922
261.555
261.216
260.903
260.618
260.36
260.13
259.926
259.75
259.6
259.478
259.383
259.315
259.274
259.26
398.581
395.744
392.913
390.089
387.277
384.479
381.698
378.937
376.197
373.482
370.793
368.132
365.501
362.9
360.331
357.795
355.292
352.823
350.389
347.989
345.624
343.294
340.999
338.739
336.513
334.322
332.165
330.043
327.954
325.899
323.877
321.888
319.931
318.008
316.116
314.256
312.428
310.632
308.866
307.132
305.428
303.755
302.112
300.5
298.918
297.365
295.843
294.35
292.887
291.453
290.048
288.673
287.327
286.01
284.722
283.463
282.233
281.031
279.859
278.715
277.6
276.514
275.456
274.427
273.426
272.454
271.51
270.595
269.708
268.85
268.019
267.218
266.444
265.699
264.983
264.294
263.634
263.002
262.398
261.823
261.275
260.756
260.265
259.802
259.367
258.96
258.582
258.231
257.909
257.614
257.348
257.11
256.9
256.717
256.563
256.437
256.339
256.268
256.226
256.212
398.573
395.718
392.868
390.026
387.194
384.375
381.573
378.788
376.024
373.282
370.565
367.875
365.212
362.578
359.974
357.401
354.861
352.352
349.877
347.436
345.028
342.654
340.313
338.007
335.735
333.497
331.293
329.122
326.985
324.881
322.81
320.772
318.767
316.795
314.854
312.946
311.07
309.225
307.412
305.63
303.88
302.16
300.472
298.814
297.187
295.59
294.024
292.487
290.982
289.506
288.06
286.644
285.258
283.902
282.576
281.279
280.012
278.775
277.567
276.388
275.239
274.12
273.03
271.969
270.938
269.936
268.963
268.02
267.106
266.221
265.365
264.539
263.741
262.973
262.234
261.524
260.844
260.192
259.569
258.976
258.411
257.876
257.37
256.892
256.444
256.024
255.634
255.272
254.94
254.636
254.362
254.116
253.899
253.711
253.552
253.422
253.32
253.248
253.204
253.19
398.563
395.688
392.819
389.956
387.103
384.262
381.435
378.626
375.836
373.068
370.322
367.601
364.906
362.239
359.6
356.992
354.413
351.866
349.351
346.868
344.418
342
339.616
337.265
334.947
332.663
330.412
328.194
326.01
323.858
321.74
319.654
317.601
315.581
313.593
311.637
309.714
307.822
305.962
304.134
302.337
300.572
298.839
297.136
295.465
293.824
292.215
290.636
289.089
287.572
286.085
284.63
283.204
281.81
280.445
279.112
277.808
276.535
275.292
274.08
272.898
271.746
270.624
269.532
268.471
267.439
266.438
265.467
264.526
263.615
262.734
261.883
261.062
260.271
259.51
258.779
258.078
257.407
256.766
256.154
255.573
255.021
254.5
254.008
253.546
253.114
252.712
252.34
251.997
251.685
251.402
251.148
250.925
250.731
250.568
250.434
250.329
250.255
250.21
250.194
398.552
395.656
392.765
389.88
387.004
384.139
381.288
378.453
375.637
372.84
370.065
367.313
364.586
361.886
359.212
356.568
353.952
351.366
348.812
346.288
343.796
341.336
338.909
336.514
334.151
331.822
329.525
327.261
325.031
322.832
320.667
318.535
316.435
314.368
312.333
310.331
308.361
306.423
304.517
302.643
300.802
298.992
297.214
295.467
293.753
292.069
290.418
288.797
287.208
285.651
284.125
282.63
281.166
279.733
278.332
276.961
275.622
274.314
273.036
271.79
270.575
269.391
268.238
267.115
266.024
264.964
263.934
262.936
261.968
261.031
260.125
259.25
258.406
257.592
256.81
256.058
255.337
254.646
253.987
253.358
252.76
252.193
251.656
251.151
250.675
250.231
249.817
249.434
249.082
248.76
248.469
248.209
247.979
247.779
247.611
247.473
247.366
247.289
247.243
247.227
398.541
395.621
392.707
389.798
386.898
384.009
381.132
378.27
375.426
372.6
369.795
367.013
364.254
361.52
358.812
356.131
353.478
350.855
348.261
345.697
343.164
340.662
338.192
335.754
333.348
330.974
328.633
326.324
324.048
321.804
319.593
317.415
315.269
313.156
311.075
309.027
307.012
305.029
303.078
301.159
299.273
297.42
295.598
293.808
292.051
290.326
288.632
286.971
285.341
283.744
282.178
280.645
279.143
277.673
276.235
274.828
273.454
272.111
270.8
269.52
268.273
267.057
265.873
264.72
263.6
262.511
261.453
260.428
259.434
258.471
257.541
256.642
255.774
254.939
254.135
253.362
252.621
251.912
251.235
250.589
249.974
249.391
248.84
248.32
247.832
247.375
246.95
246.556
246.194
245.864
245.564
245.297
245.06
244.856
244.682
244.541
244.43
244.351
244.304
244.288
398.528
395.585
392.646
389.712
386.787
383.871
380.968
378.079
375.206
372.351
369.516
366.702
363.91
361.142
358.4
355.683
352.994
350.332
347.7
345.096
342.523
339.98
337.468
334.988
332.539
330.121
327.736
325.383
323.062
320.774
318.518
316.294
314.104
311.946
309.82
307.727
305.667
303.64
301.645
299.683
297.753
295.856
293.992
292.16
290.36
288.594
286.859
285.158
283.488
281.852
280.247
278.676
277.136
275.63
274.155
272.713
271.304
269.927
268.583
267.271
265.991
264.744
263.529
262.347
261.198
260.08
258.996
257.943
256.923
255.936
254.981
254.058
253.168
252.311
251.486
250.693
249.932
249.205
248.509
247.846
247.215
246.617
246.051
245.517
245.016
244.547
244.111
243.707
243.335
242.996
242.689
242.414
242.171
241.961
241.783
241.638
241.524
241.443
241.394
241.378
398.516
395.547
392.582
389.623
386.671
383.728
380.797
377.88
374.978
372.093
369.227
366.381
363.557
360.755
357.978
355.226
352.5
349.801
347.13
344.488
341.875
339.291
336.738
334.216
331.724
329.264
326.836
324.44
322.075
319.743
317.443
315.175
312.941
310.738
308.569
306.432
304.328
302.257
300.219
298.214
296.241
294.302
292.396
290.522
288.682
286.874
285.1
283.358
281.65
279.975
278.332
276.723
275.147
273.604
272.094
270.617
269.174
267.763
266.386
265.042
263.731
262.453
261.208
259.997
258.818
257.673
256.562
255.483
254.438
253.425
252.446
251.501
250.588
249.709
248.863
248.05
247.271
246.524
245.811
245.131
244.484
243.871
243.29
242.743
242.229
241.749
241.301
240.887
240.505
240.157
239.842
239.56
239.312
239.096
238.914
238.764
238.648
238.565
238.515
238.498
398.503
395.507
392.516
389.529
386.55
383.58
380.621
377.675
374.743
371.828
368.93
366.052
363.195
360.36
357.548
354.76
351.998
349.262
346.553
343.872
341.22
338.596
336.003
333.439
330.907
328.405
325.934
323.495
321.087
318.712
316.369
314.058
311.78
309.535
307.322
305.142
302.995
300.882
298.801
296.753
294.739
292.758
290.81
288.896
287.015
285.168
283.354
281.573
279.827
278.113
276.434
274.788
273.175
271.597
270.052
268.541
267.063
265.62
264.21
262.834
261.492
260.184
258.91
257.67
256.463
255.291
254.152
253.048
251.977
250.941
249.938
248.969
248.035
247.134
246.268
245.435
244.636
243.872
243.141
242.445
241.782
241.154
240.559
239.999
239.472
238.979
238.521
238.096
237.705
237.349
237.026
236.737
236.482
236.262
236.075
235.922
235.803
235.717
235.666
235.648
398.489
395.466
392.447
389.433
386.426
383.427
380.439
377.464
374.502
371.556
368.627
365.716
362.826
359.957
357.111
354.288
351.489
348.717
345.97
343.251
340.56
337.897
335.264
332.66
330.086
327.543
325.031
322.55
320.1
317.683
315.297
312.944
310.624
308.336
306.081
303.859
301.67
299.514
297.391
295.302
293.247
291.225
289.237
287.283
285.362
283.475
281.622
279.804
278.019
276.268
274.552
272.87
271.222
269.608
268.029
266.484
264.974
263.498
262.056
260.649
259.276
257.938
256.635
255.366
254.132
252.933
251.768
250.638
249.542
248.482
247.456
246.465
245.508
244.587
243.7
242.848
242.031
241.248
240.5
239.787
239.109
238.466
237.857
237.284
236.745
236.24
235.771
235.336
234.936
234.571
234.241
233.945
233.684
233.458
233.267
233.11
232.988
232.901
232.849
232.83
398.475
395.424
392.377
389.335
386.299
383.271
380.253
377.248
374.255
371.278
368.317
365.375
362.451
359.548
356.667
353.809
350.975
348.166
345.382
342.625
339.896