/*--------------------------------*- C++ -*----------------------------------*\
  =========                 |
  \\      /  F ield         | OpenFOAM: The Open Source CFD Toolbox
   \\    /   O peration     | Website:  https://openfoam.org
    \\  /    A nd           | Version:  10
     \\/     M anipulation  |
\*---------------------------------------------------------------------------*/
FoamFile
{
    format      ascii;
    class       volScalarField;
    location    "31";
    object      T_0;
}
// * * * * * * * * * * * * * * * * * * * * * * * * * * * * * * * * * * * * * //

dimensions      [0 0 -1 0 0 0 0];

internalField   nonuniform List<scalar> 
100
(
0.7145
2.13686
3.54026
4.91223
6.2406
7.51358
8.71987
9.84876
10.8902
11.8351
12.6748
13.4021
14.0104
14.4943
14.8496
15.0731
15.1628
15.118
14.9389
14.6272
14.1857
13.6183
12.9301
12.127
11.2163
10.2061
9.10526
7.92362
6.67164
5.36045
4.00169
2.6074
1.18998
-0.238009
-1.66388
-3.07498
-4.45879
-5.80302
-7.09573
-8.32547
-9.4813
-10.553
-11.531
-12.4066
-13.1722
-13.8208
-14.3467
-14.7453
-15.013
-15.1475
-15.1475
-15.013
-14.7453
-14.3467
-13.8208
-13.1721
-12.4066
-11.531
-10.553
-9.48127
-8.32544
-7.0957
-5.80298
-4.45875
-3.07495
-1.66384
-0.23797
1.19002
2.60744
4.00173
5.3605
6.67169
7.92366
9.10531
10.2061
11.2164
12.1271
12.9301
13.6184
14.1858
14.6273
14.9389
15.118
15.1629
15.0732
14.8497
14.4944
14.0104
13.4021
12.6748
11.8351
10.8903
9.84878
8.71989
7.5136
6.24061
4.91224
3.54026
2.13687
0.714501
)
;

boundaryField
{
    xmin
    {
        type            fixedValue;
        value           uniform 0;
    }
    xmax
    {
        type            fixedValue;
        value           uniform 0;
    }
    frontAndBack
    {
        type            empty;
    }
}


// ************************************************************************* //
