/*--------------------------------*- C++ -*----------------------------------*\
  =========                 |
  \\      /  F ield         | OpenFOAM: The Open Source CFD Toolbox
   \\    /   O peration     | Website:  https://openfoam.org
    \\  /    A nd           | Version:  10
     \\/     M anipulation  |
\*---------------------------------------------------------------------------*/
FoamFile
{
    format      ascii;
    class       volScalarField;
    location    "6.2";
    object      T;
}
// * * * * * * * * * * * * * * * * * * * * * * * * * * * * * * * * * * * * * //

dimensions      [0 0 -1 0 0 0 0];

internalField   nonuniform List<scalar> 
100
(
0.0456991
0.135478
0.220457
0.297626
0.364251
0.417973
0.456888
0.479618
0.485357
0.473901
0.445658
0.401627
0.343368
0.272945
0.192853
0.105929
0.0152523
-0.0759647
-0.164491
-0.247189
-0.321131
-0.383697
-0.43267
-0.466315
-0.483441
-0.483441
-0.466315
-0.432669
-0.383696
-0.32113
-0.247188
-0.164489
-0.0759633
0.0152536
0.10593
0.192854
0.272946
0.343369
0.401627
0.445658
0.473902
0.485357
0.479618
0.456888
0.417973
0.364251
0.297625
0.220456
0.135477
0.0456981
-0.0456991
-0.135477
-0.220456
-0.297626
-0.364251
-0.417973
-0.456888
-0.479618
-0.485356
-0.473901
-0.445658
-0.401627
-0.343368
-0.272945
-0.192853
-0.105929
-0.0152526
0.0759644
0.16449
0.247189
0.321131
0.383697
0.43267
0.466315
0.483441
0.483441
0.466315
0.432669
0.383696
0.32113
0.247188
0.16449
0.0759637
-0.0152533
-0.10593
-0.192854
-0.272946
-0.343369
-0.401627
-0.445658
-0.473902
-0.485357
-0.479618
-0.456888
-0.417973
-0.364251
-0.297625
-0.220456
-0.135477
-0.0456982
)
;

boundaryField
{
    inlet
    {
        type            cyclic;
    }
    outlet
    {
        type            cyclic;
    }
    bottom
    {
        type            slip;
    }
    top
    {
        type            slip;
    }
    frontAndBack
    {
        type            empty;
    }
}


// ************************************************************************* //
