/*--------------------------------*- C++ -*----------------------------------*\
  =========                 |
  \\      /  F ield         | OpenFOAM: The Open Source CFD Toolbox
   \\    /   O peration     | Website:  https://openfoam.org
    \\  /    A nd           | Version:  10
     \\/     M anipulation  |
\*---------------------------------------------------------------------------*/
FoamFile
{
    format      ascii;
    class       volScalarField;
    location    "6.2";
    object      T_0;
}
// * * * * * * * * * * * * * * * * * * * * * * * * * * * * * * * * * * * * * //

dimensions      [0 0 -1 0 0 0 0];

internalField   nonuniform List<scalar> 
100
(
0.0453878
0.134554
0.218955
0.295598
0.36177
0.415126
0.453775
0.47635
0.48205
0.470673
0.442622
0.39889
0.341028
0.271085
0.191539
0.105207
0.0151483
-0.0754471
-0.16337
-0.245505
-0.318943
-0.381083
-0.429722
-0.463138
-0.480147
-0.480147
-0.463138
-0.429721
-0.381082
-0.318942
-0.245504
-0.163369
-0.0754458
0.0151497
0.105208
0.19154
0.271086
0.341029
0.398891
0.442622
0.470673
0.48205
0.47635
0.453775
0.415125
0.361769
0.295597
0.218954
0.134553
0.0453868
-0.0453877
-0.134554
-0.218954
-0.295598
-0.36177
-0.415125
-0.453775
-0.47635
-0.48205
-0.470672
-0.442622
-0.398891
-0.341029
-0.271086
-0.191539
-0.105207
-0.0151486
0.0754468
0.16337
0.245505
0.318943
0.381082
0.429722
0.463138
0.480147
0.480147
0.463138
0.429721
0.381082
0.318942
0.245504
0.163369
0.0754461
-0.0151493
-0.105208
-0.19154
-0.271086
-0.341029
-0.398891
-0.442622
-0.470673
-0.48205
-0.47635
-0.453775
-0.415125
-0.361769
-0.295597
-0.218954
-0.134554
-0.0453868
)
;

boundaryField
{
    inlet
    {
        type            cyclic;
    }
    outlet
    {
        type            cyclic;
    }
    bottom
    {
        type            slip;
    }
    top
    {
        type            slip;
    }
    frontAndBack
    {
        type            empty;
    }
}


// ************************************************************************* //
