/*--------------------------------*- C++ -*----------------------------------*\
| =========                 |                                                 |
| \\      /  F ield         | OpenFOAM: The Open Source CFD Toolbox           |
|  \\    /   O peration     | Version:  2406                                  |
|   \\  /    A nd           | Website:  www.openfoam.com                      |
|    \\/     M anipulation  |                                                 |
\*---------------------------------------------------------------------------*/
FoamFile
{
    version     2.0;
    format      ascii;
    arch        "LSB;label=32;scalar=64";
    class       volScalarField;
    location    "27";
    object      p;
}
// * * * * * * * * * * * * * * * * * * * * * * * * * * * * * * * * * * * * * //

dimensions      [0 2 -2 0 0 0 0];

internalField   nonuniform List<scalar> 
1176
(
0.79699975
0.79702262
0.79704629
0.79705395
0.79702242
0.79692773
0.7967705
0.79658433
0.79640513
0.79623797
0.79608335
0.79598774
0.79598774
0.79608335
0.79623797
0.79640513
0.79658434
0.79677052
0.79692778
0.7970225
0.79705406
0.79704642
0.79702277
0.7969999
0.77385132
0.77380436
0.7737566
0.77373971
0.77380221
0.77400456
0.77436988
0.77483429
0.77526515
0.77555125
0.77567065
0.7757049
0.7757049
0.77567064
0.77555124
0.77526513
0.77483427
0.77436985
0.77400452
0.77380215
0.77373964
0.77375653
0.77380428
0.77385124
0.75676656
0.75678858
0.75680837
0.75680646
0.7567474
0.75658622
0.75631446
0.75598651
0.7556803
0.75546751
0.7553567
0.75530789
0.75530789
0.7553567
0.75546751
0.7556803
0.75598652
0.75631447
0.75658624
0.75674742
0.75680648
0.75680839
0.7567886
0.75676658
0.74009467
0.7401038
0.74011586
0.74013226
0.7401548
0.74017237
0.74014014
0.74000673
0.73977462
0.73950205
0.73927785
0.73915735
0.73915734
0.73927784
0.73950204
0.73977461
0.74000672
0.74014013
0.74017236
0.74015479
0.74013224
0.74011584
0.74010379
0.74009466
0.72367562
0.72367958
0.72368457
0.72369063
0.72370033
0.72372061
0.72375679
0.7237983
0.72381997
0.7237961
0.72373398
0.72368135
0.72368135
0.72373398
0.7237961
0.72381997
0.7237983
0.72375679
0.7237206
0.72370033
0.72369062
0.72368456
0.72367957
0.72367561
0.70721397
0.70721638
0.70721963
0.70722367
0.70722858
0.70723541
0.70724958
0.70728089
0.70733088
0.70738813
0.70743084
0.7074475
0.7074475
0.70743084
0.70738814
0.70733089
0.7072809
0.70724958
0.70723541
0.70722858
0.70722367
0.70721963
0.70721638
0.70721397
0.69080816
0.6908103
0.69081311
0.69081653
0.69082043
0.69082394
0.69082601
0.69082819
0.69083674
0.69085397
0.69087187
0.69088358
0.69088358
0.69087187
0.69085397
0.69083674
0.69082819
0.69082601
0.69082395
0.69082043
0.69081653
0.69081311
0.6908103
0.69080816
0.67442829
0.67443005
0.67443238
0.6744353
0.67443897
0.67444334
0.67444779
0.67445095
0.67445219
0.6744538
0.67445085
0.67444834
0.67444834
0.67445085
0.67445381
0.67445219
0.67445095
0.6744478
0.67444334
0.67443897
0.6744353
0.67443238
0.67443005
0.67442829
0.65807401
0.65807546
0.65807739
0.6580798
0.65808282
0.65808661
0.65809165
0.6580987
0.65810738
0.65811741
0.65812518
0.65812877
0.65812877
0.65812518
0.65811741
0.65810738
0.6580987
0.65809165
0.65808661
0.65808282
0.6580798
0.65807739
0.65807546
0.65807401
0.64173632
0.64173752
0.64173913
0.64174116
0.64174373
0.64174691
0.64175107
0.64175746
0.64176762
0.64178075
0.64179508
0.64180438
0.64180438
0.64179508
0.64178075
0.64176762
0.64175746
0.64175107
0.64174691
0.64174373
0.64174116
0.64173912
0.64173752
0.64173631
0.62541194
0.62541296
0.62541434
0.62541608
0.6254183
0.62542102
0.62542442
0.62542926
0.62543713
0.62544779
0.62546035
0.62546949
0.62546949
0.62546035
0.62544779
0.62543713
0.62542927
0.62542442
0.62542102
0.6254183
0.62541608
0.62541433
0.62541296
0.62541193
0.60909846
0.60909936
0.60910055
0.60910208
0.60910402
0.60910642
0.60910938
0.60911339
0.60911961
0.60912827
0.60913883
0.60914628
0.60914628
0.60913883
0.60912827
0.60911961
0.60911339
0.60910938
0.60910642
0.60910402
0.60910207
0.60910055
0.60909935
0.60909846
0.59279427
0.59279506
0.59279611
0.59279746
0.59279918
0.59280131
0.59280395
0.59280748
0.59281289
0.59282063
0.59283032
0.592837
0.592837
0.59283032
0.59282064
0.59281289
0.59280749
0.59280395
0.59280131
0.59279918
0.59279745
0.59279611
0.59279505
0.59279426
0.57649805
0.57649875
0.57649969
0.57650089
0.57650243
0.57650434
0.57650668
0.57650982
0.57651459
0.57652156
0.57653023
0.57653632
0.57653632
0.57653023
0.57652157
0.57651459
0.57650982
0.57650668
0.57650433
0.57650242
0.57650089
0.57649968
0.57649874
0.57649804
0.56020878
0.56020941
0.56021025
0.56021134
0.56021272
0.56021444
0.56021654
0.5602193
0.56022346
0.56022959
0.56023711
0.56024252
0.56024252
0.56023712
0.56022959
0.56022346
0.5602193
0.56021654
0.56021443
0.56021271
0.56021133
0.56021025
0.5602094
0.56020877
0.54392566
0.54392623
0.54392699
0.54392797
0.54392923
0.54393078
0.54393268
0.54393513
0.54393877
0.54394414
0.54395068
0.54395547
0.54395547
0.54395068
0.54394415
0.54393877
0.54393513
0.54393268
0.54393078
0.54392922
0.54392796
0.54392698
0.54392622
0.54392565
0.52764803
0.52764855
0.52764925
0.52765014
0.52765128
0.5276527
0.52765442
0.52765662
0.52765984
0.52766461
0.52767033
0.52767462
0.52767462
0.52767033
0.52766461
0.52765985
0.52765663
0.52765442
0.5276527
0.52765128
0.52765013
0.52764924
0.52764854
0.52764802
0.51137536
0.51137583
0.51137647
0.51137728
0.51137833
0.51137963
0.5113812
0.51138319
0.51138606
0.51139031
0.51139536
0.51139923
0.51139923
0.51139536
0.51139031
0.51138607
0.51138319
0.5113812
0.51137962
0.51137832
0.51137727
0.51137645
0.51137582
0.51137534
0.49510716
0.4951076
0.49510818
0.49510893
0.49510989
0.49511108
0.49511252
0.49511433
0.49511691
0.49512071
0.49512521
0.4951287
0.4951287
0.49512521
0.49512072
0.49511691
0.49511433
0.49511252
0.49511108
0.49510988
0.49510892
0.49510817
0.49510758
0.49510715
0.47884305
0.47884345
0.47884399
0.47884468
0.47884557
0.47884667
0.47884799
0.47884964
0.47885196
0.47885539
0.47885942
0.47886258
0.47886258
0.47885942
0.47885539
0.47885197
0.47884964
0.47884799
0.47884666
0.47884556
0.47884467
0.47884398
0.47884344
0.47884304
0.46258268
0.46258305
0.46258355
0.46258419
0.46258501
0.46258603
0.46258725
0.46258876
0.46259086
0.46259396
0.46259761
0.46260047
0.46260047
0.46259761
0.46259396
0.46259087
0.46258876
0.46258725
0.46258602
0.462585
0.46258418
0.46258354
0.46258304
0.46258267
0.44632575
0.44632609
0.44632655
0.44632714
0.44632791
0.44632885
0.44632998
0.44633137
0.44633329
0.4463361
0.44633942
0.44634203
0.44634203
0.44633942
0.44633611
0.44633329
0.44633137
0.44632998
0.44632885
0.4463279
0.44632713
0.44632654
0.44632608
0.44632573
0.43007198
0.4300723
0.43007273
0.43007328
0.43007399
0.43007487
0.43007592
0.4300772
0.43007895
0.43008152
0.43008455
0.43008694
0.43008694
0.43008456
0.43008152
0.43007895
0.4300772
0.43007592
0.43007486
0.43007398
0.43007327
0.43007272
0.43007229
0.43007197
0.41382115
0.41382144
0.41382184
0.41382236
0.41382302
0.41382384
0.41382481
0.413826
0.41382761
0.41382996
0.41383275
0.41383493
0.41383493
0.41383275
0.41382996
0.41382761
0.413826
0.41382481
0.41382383
0.41382301
0.41382235
0.41382183
0.41382143
0.41382113
0.39757303
0.39757331
0.39757368
0.39757416
0.39757478
0.39757554
0.39757645
0.39757755
0.39757903
0.3975812
0.39758377
0.39758577
0.39758577
0.39758377
0.3975812
0.39757904
0.39757755
0.39757645
0.39757553
0.39757477
0.39757415
0.39757367
0.3975733
0.39757302
0.38132744
0.3813277
0.38132805
0.38132849
0.38132907
0.38132978
0.38133063
0.38133166
0.38133303
0.38133502
0.3813374
0.38133925
0.38133925
0.3813374
0.38133502
0.38133303
0.38133166
0.38133063
0.38132978
0.38132906
0.38132848
0.38132803
0.38132769
0.38132743
0.3650842
0.36508444
0.36508476
0.36508518
0.36508572
0.36508639
0.36508719
0.36508814
0.36508941
0.36509125
0.36509346
0.36509517
0.36509517
0.36509346
0.36509125
0.36508941
0.36508814
0.36508719
0.36508639
0.36508572
0.36508517
0.36508476
0.36508443
0.36508419
0.34884315
0.34884337
0.34884368
0.34884407
0.34884458
0.3488452
0.34884595
0.34884684
0.34884802
0.34884972
0.34885178
0.34885336
0.34885336
0.34885178
0.34884972
0.34884802
0.34884684
0.34884595
0.3488452
0.34884457
0.34884406
0.34884367
0.34884337
0.34884314
0.33260414
0.33260436
0.33260464
0.33260501
0.33260548
0.33260607
0.33260677
0.33260761
0.3326087
0.33261029
0.3326122
0.33261366
0.33261366
0.3326122
0.33261029
0.3326087
0.33260761
0.33260677
0.33260607
0.33260548
0.332605
0.33260464
0.33260435
0.33260414
0.31636705
0.31636725
0.31636752
0.31636787
0.31636831
0.31636887
0.31636952
0.3163703
0.31637132
0.3163728
0.31637458
0.31637594
0.31637594
0.31637458
0.3163728
0.31637132
0.3163703
0.31636952
0.31636886
0.31636831
0.31636787
0.31636752
0.31636725
0.31636705
0.30013176
0.30013195
0.3001322
0.30013252
0.30013294
0.30013346
0.30013408
0.30013481
0.30013576
0.30013714
0.30013881
0.30014007
0.30014007
0.3001388
0.30013713
0.30013576
0.30013481
0.30013407
0.30013346
0.30013294
0.30013252
0.3001322
0.30013195
0.30013176
0.28389814
0.28389832
0.28389856
0.28389886
0.28389926
0.28389974
0.28390032
0.28390101
0.2839019
0.28390318
0.28390474
0.28390593
0.28390592
0.28390474
0.28390318
0.2839019
0.28390101
0.28390032
0.28389974
0.28389926
0.28389887
0.28389856
0.28389832
0.28389815
0.2676661
0.26766627
0.26766649
0.26766678
0.26766715
0.26766761
0.26766816
0.2676688
0.26766964
0.26767083
0.2676723
0.2676734
0.2676734
0.2676723
0.26767083
0.26766963
0.2676688
0.26766815
0.26766761
0.26766716
0.26766679
0.2676665
0.26766628
0.26766612
0.25143555
0.2514357
0.25143591
0.25143618
0.25143653
0.25143697
0.25143748
0.25143809
0.25143887
0.25143999
0.25144136
0.25144239
0.25144239
0.25144135
0.25143998
0.25143886
0.25143808
0.25143748
0.25143697
0.25143654
0.2514362
0.25143593
0.25143572
0.25143557
0.23520638
0.23520653
0.23520673
0.23520698
0.23520731
0.23520772
0.2352082
0.23520877
0.23520951
0.23521056
0.23521185
0.23521281
0.23521281
0.23521184
0.23521054
0.23520949
0.23520876
0.2352082
0.23520772
0.23520732
0.235207
0.23520675
0.23520655
0.23520641
0.21897853
0.21897866
0.21897885
0.21897909
0.2189794
0.21897979
0.21898024
0.21898078
0.21898147
0.21898245
0.21898366
0.21898456
0.21898456
0.21898365
0.21898244
0.21898145
0.21898077
0.21898024
0.21897979
0.21897942
0.21897912
0.21897888
0.2189787
0.21897856
0.2027519
0.20275203
0.20275221
0.20275244
0.20275273
0.20275309
0.20275352
0.20275403
0.20275468
0.2027556
0.20275674
0.20275759
0.20275759
0.20275673
0.20275558
0.20275466
0.20275401
0.20275352
0.2027531
0.20275275
0.20275247
0.20275225
0.20275208
0.20275195
0.18652644
0.18652657
0.18652673
0.18652695
0.18652722
0.18652756
0.18652797
0.18652845
0.18652906
0.18652992
0.18653099
0.18653178
0.18653178
0.18653097
0.1865299
0.18652903
0.18652843
0.18652797
0.18652758
0.18652726
0.18652699
0.18652678
0.18652662
0.18652651
0.17030207
0.17030219
0.17030235
0.17030255
0.17030281
0.17030313
0.17030352
0.17030397
0.17030454
0.17030535
0.17030636
0.17030711
0.17030711
0.17030635
0.17030533
0.17030451
0.17030395
0.17030351
0.17030315
0.17030285
0.17030261
0.17030241
0.17030226
0.17030215
0.15407874
0.15407885
0.154079
0.15407919
0.15407944
0.15407974
0.15408011
0.15408053
0.15408107
0.15408182
0.15408277
0.15408346
0.15408346
0.15408275
0.15408179
0.15408103
0.15408051
0.1540801
0.15407977
0.15407949
0.15407926
0.15407908
0.15407894
0.15407884
0.13785638
0.13785648
0.13785662
0.1378568
0.13785703
0.13785732
0.13785766
0.13785806
0.13785857
0.13785928
0.13786018
0.13786083
0.13786083
0.13786016
0.13785925
0.13785853
0.13785804
0.13785766
0.13785736
0.1378571
0.13785689
0.13785672
0.13785659
0.13785649
0.12163495
0.12163504
0.12163518
0.12163535
0.12163557
0.12163584
0.12163616
0.12163654
0.12163701
0.12163767
0.12163848
0.12163908
0.12163908
0.12163846
0.12163763
0.12163697
0.12163651
0.12163617
0.12163588
0.12163564
0.12163545
0.12163529
0.12163517
0.12163508
0.10541436
0.10541446
0.10541458
0.10541474
0.10541495
0.10541521
0.10541551
0.10541587
0.10541631
0.10541692
0.10541769
0.10541825
0.10541824
0.10541767
0.10541688
0.10541626
0.10541584
0.10541552
0.10541526
0.10541504
0.10541486
0.10541471
0.1054146
0.10541451
0.089194647
0.089194735
0.089194854
0.089195008
0.089195205
0.089195448
0.089195735
0.089196065
0.089196467
0.089197008
0.089197664
0.089198133
0.089198125
0.08919764
0.089196966
0.089196419
0.089196034
0.089195744
0.089195506
0.089195307
0.089195141
0.089195003
0.089194898
0.089194818
0.072975641
0.072975724
0.072975836
0.072975981
0.072976169
0.072976402
0.072976677
0.072976991
0.072977367
0.072977864
0.072978451
0.07297885
0.072978843
0.072978426
0.072977819
0.072977316
0.07297696
0.07297669
0.072976468
0.072976282
0.072976127
0.072975999
0.072975901
0.072975827
0.05675752
0.056757601
0.056757709
0.056757847
0.056758023
0.056758238
0.05675849
0.056758773
0.056759093
0.056759469
0.05675985
0.056760067
0.05676006
0.056759825
0.056759424
0.05675904
0.056758741
0.056758504
0.056758309
0.056758142
0.056758
0.056757878
0.056757784
0.056757711
0.040539732
0.040539803
0.040539901
0.040540031
0.040540207
0.040540431
0.040540695
0.040540985
0.04054131
0.040541717
0.040542189
0.0405425
0.040542494
0.040542166
0.040541673
0.040541258
0.040540954
0.040540711
0.040540502
0.040540326
0.040540182
0.040540066
0.040539981
0.040539916
0.024323463
0.024323545
0.024323653
0.024323781
0.024323928
0.024324089
0.024324261
0.024324442
0.024324607
0.024324685
0.024324602
0.024324375
0.024324369
0.024324582
0.024324646
0.024324562
0.024324418
0.02432428
0.024324156
0.024324034
0.024323911
0.024323793
0.024323693
0.024323613
0.0081053677
0.0081054379
0.0081055307
0.008105652
0.0081058127
0.008106012
0.0081062321
0.0081064704
0.0081068474
0.0081076833
0.0081091641
0.0081105348
0.0081105318
0.0081091524
0.0081076599
0.0081068206
0.0081064578
0.0081062478
0.0081060578
0.008105881
0.0081057326
0.0081056146
0.0081055242
0.0081054544
)
;

boundaryField
{
    INLET
    {
        type            zeroGradient;
    }
    OUTLET
    {
        type            fixedValue;
        value           uniform 0;
    }
    WALL
    {
        type            zeroGradient;
    }
    frontAndBackPlanes
    {
        type            empty;
    }
}


// ************************************************************************* //
