/*--------------------------------*- C++ -*----------------------------------*\
| =========                 |                                                 |
| \\      /  F ield         | OpenFOAM: The Open Source CFD Toolbox           |
|  \\    /   O peration     | Version:  2406                                  |
|   \\  /    A nd           | Website:  www.openfoam.com                      |
|    \\/     M anipulation  |                                                 |
\*---------------------------------------------------------------------------*/
FoamFile
{
    version     2.0;
    format      ascii;
    arch        "LSB;label=32;scalar=64";
    class       surfaceScalarField;
    location    "27";
    object      phi;
}
// * * * * * * * * * * * * * * * * * * * * * * * * * * * * * * * * * * * * * //

dimensions      [0 3 -1 0 0 0 0];

oriented        oriented;

internalField   nonuniform List<scalar> 
2279
(
2.3617501e-08
1.0148926e-05
2.0509767e-07
4.982375e-05
6.9331765e-07
0.00014252872
1.5784716e-06
0.00034353082
2.6788476e-06
0.00075378089
3.347291e-06
0.0015415573
3.0435193e-06
0.0029497096
2.1516831e-06
0.005249171
1.4318027e-06
0.008582269
9.8959138e-07
0.012685995
5.1266783e-07
0.016666385
1.6181176e-12
0.01918202
-5.1266658e-07
0.01918202
-9.8960011e-07
0.016666385
-1.4318385e-06
0.012685995
-2.1517772e-06
0.0085822691
-3.0436877e-06
0.0052491711
-3.3475098e-06
0.0029497098
-2.6790546e-06
0.0015415574
-1.5786188e-06
0.00075378093
-6.9339845e-07
0.00034353082
-2.0513168e-07
0.00014252871
-2.3627177e-08
4.9823745e-05
1.0148925e-05
-9.5248472e-08
1.0244175e-05
-5.379401e-07
5.0266441e-05
-1.6230013e-06
0.00014361378
-3.5389526e-06
0.00034544677
-5.9201872e-06
0.00075616213
-7.4055037e-06
0.0015430426
-6.5847295e-06
0.0029488888
-3.9361627e-06
0.0052465224
-1.3883922e-06
0.0085797213
-6.5121387e-08
0.012684671
2.4240715e-07
0.016666078
6.7687691e-12
0.019182263
-2.4238498e-07
0.019182263
6.5169204e-08
0.016666078
1.3884783e-06
0.012684671
3.9363014e-06
0.0085797212
6.5849241e-06
0.0052465223
7.4057256e-06
0.0029488887
5.9203772e-06
0.0015430426
3.5390741e-06
0.00075616208
1.6230598e-06
0.00034544675
5.3796e-07
0.00014361377
9.5250826e-08
5.0266438e-05
1.0244174e-05
5.0139833e-08
1.0194035e-05
2.6334495e-07
5.0053236e-05
7.4910705e-07
0.00014312802
1.531458e-06
0.00034466442
2.3366549e-06
0.00075535693
2.5476603e-06
0.0015428316
1.8390932e-06
0.0029495974
9.7567038e-07
0.0052473858
6.7695268e-07
0.00858002
6.7177925e-07
0.012684677
4.8415411e-07
0.016666266
-1.5343988e-11
0.019182747
-4.8419125e-07
0.019182747
-6.7183297e-07
0.016666266
-6.7702578e-07
0.012684677
-9.7575185e-07
0.00858002
-1.8391628e-06
0.0052473859
-2.5477066e-06
0.0029495974
-2.3366768e-06
0.0015428316
-1.531461e-06
0.00075535694
-7.4910298e-07
0.00034466443
-2.6334113e-07
0.00014312802
-5.013763e-08
5.0053239e-05
1.0194036e-05
1.9586704e-08
1.0174448e-05
1.118492e-07
4.9960974e-05
3.6128416e-07
0.00014287858
9.0504744e-07
0.00034412066
1.8716591e-06
0.00075439032
3.0948219e-06
0.0015416085
3.8987211e-06
0.0029487935
3.7285507e-06
0.005247556
2.9242052e-06
0.0085808243
1.9733695e-06
0.012685627
1.0127684e-06
0.016667226
3.6962378e-12
0.01918376
-1.0127584e-06
0.01918376
-1.9733523e-06
0.016667226
-2.9241781e-06
0.012685627
-3.7285182e-06
0.0085808243
-3.8986973e-06
0.005247556
-3.0948128e-06
0.0029487935
-1.8716606e-06
0.0015416085
-9.0505289e-07
0.00075439032
-3.6128868e-07
0.00034412066
-1.1185164e-07
0.00014287859
-1.9587661e-08
4.9960974e-05
1.0174448e-05
8.0839081e-09
1.0166364e-05
4.7141391e-08
4.9921916e-05
1.5494671e-07
0.00014277078
3.9846277e-07
0.00034387714
8.797938e-07
0.00075390899
1.7015146e-06
0.0015407867
2.7512719e-06
0.0029477437
3.4623563e-06
0.0052468449
3.470855e-06
0.0085808158
2.8006793e-06
0.012686298
1.5505087e-06
0.016668476
-4.135e-12
0.01918531
-1.5505177e-06
0.01918531
-2.8006901e-06
0.016668476
-3.4708676e-06
0.012686298
-3.4623623e-06
0.0085808158
-2.7512715e-06
0.0052468449
-1.7015109e-06
0.0029477437
-8.7978887e-07
0.0015407867
-3.9845939e-07
0.00075390899
-1.5494533e-07
0.00034387714
-4.7141103e-08
0.00014277078
-8.0840487e-09
4.9921916e-05
1.0166364e-05
4.9358533e-09
1.0161429e-05
2.86988e-08
4.9898153e-05
9.5121316e-08
0.00014270436
2.4921405e-07
0.00034372305
5.6360869e-07
0.00075359459
1.1213734e-06
0.001540229
1.9184546e-06
0.0029469467
2.6588158e-06
0.0052461046
2.8930527e-06
0.0085805816
2.4787596e-06
0.012686712
1.4344196e-06
0.016669521
-5.7357123e-12
0.019186745
-1.4344325e-06
0.019186745
-2.4787752e-06
0.016669521
-2.893069e-06
0.012686712
-2.6588309e-06
0.0085805816
-1.9184659e-06
0.0052461046
-1.1213796e-06
0.0029469467
-5.6361052e-07
0.001540229
-2.4921379e-07
0.00075359459
-9.5120697e-08
0.00034372305
-2.8698437e-08
0.00014270436
-4.9357436e-09
4.9898153e-05
1.0161429e-05
4.4123435e-09
1.0157016e-05
2.5525631e-08
4.987704e-05
8.3830012e-08
0.00014264605
2.1689388e-07
0.00034358999
4.8450052e-07
0.00075332698
9.5635952e-07
0.0015397571
1.6413713e-06
0.0029462616
2.3245785e-06
0.0052454214
2.5939482e-06
0.0085803122
2.2393572e-06
0.012687066
1.306668e-06
0.016670453
-4.7287984e-12
0.019188051
-1.3066779e-06
0.019188051
-2.2393672e-06
0.016670453
-2.593956e-06
0.012687066
-2.3245841e-06
0.0085803122
-1.6413745e-06
0.0052454214
-9.5636071e-07
0.0029462616
-4.8450048e-07
0.0015397571
-2.1689344e-07
0.00075332698
-8.3829638e-08
0.00034358998
-2.5525448e-08
0.00014264605
-4.4123113e-09
4.987704e-05
1.0157016e-05
3.6255307e-09
1.0153391e-05
2.1036559e-08
4.9859629e-05
6.9438025e-08
0.00014259765
1.8114125e-07
0.00034347828
4.0971385e-07
0.00075309841
8.2390289e-07
0.0015393429
1.4539908e-06
0.0029456316
2.1430731e-06
0.0052447323
2.4674699e-06
0.0085799878
2.1883898e-06
0.012687346
1.2866392e-06
0.016671355
-2.8105436e-12
0.019189338
-1.2866451e-06
0.019189338
-2.1883956e-06
0.016671355
-2.4674745e-06
0.012687346
-2.1430759e-06
0.0085799878
-1.4539919e-06
0.0052447323
-8.2390191e-07
0.0029456316
-4.0971174e-07
0.0015393429
-1.8113927e-07
0.00075309841
-6.94368e-08
0.00034347828
-2.103604e-08
0.00014259765
-3.6254265e-09
4.9859629e-05
1.0153391e-05
2.9831302e-09
1.0150408e-05
1.7346981e-08
4.9845265e-05
5.7377218e-08
0.00014255762
1.5007365e-07
0.00034338559
3.4097077e-07
0.00075290751
6.9193117e-07
0.001538992
1.2441079e-06
0.0029450794
1.9041849e-06
0.0052440722
2.3015993e-06
0.0085795904
2.0975066e-06
0.01268755
1.2520089e-06
0.016672201
-1.3613694e-12
0.01919059
-1.2520117e-06
0.01919059
-2.0975093e-06
0.016672201
-2.3016015e-06
0.01268755
-1.9041869e-06
0.0085795904
-1.2441084e-06
0.0052440722
-6.9192946e-07
0.0029450794
-3.4096783e-07
0.001538992
-1.5007095e-07
0.00075290751
-5.7375566e-08
0.00034338558
-1.7346295e-08
0.00014255762
-2.9829981e-09
4.9845265e-05
1.0150408e-05
2.4654259e-09
1.0147942e-05
1.4363107e-08
4.9833367e-05
4.762644e-08
0.00014252436
1.2502858e-07
0.00034330818
2.8558873e-07
0.00075274695
5.8417914e-07
0.0015386934
1.0641841e-06
0.0029445994
1.6641578e-06
0.0052434722
2.0898746e-06
0.0085791647
1.9528945e-06
0.012687687
1.1802446e-06
0.016672973
-2.3899096e-13
0.01919177
-1.1802451e-06
0.01919177
-1.9528951e-06
0.016672973
-2.0898753e-06
0.012687687
-1.6641585e-06
0.0085791647
-1.0641832e-06
0.0052434722
-5.8417603e-07
0.0029445994
-2.8558463e-07
0.0015386934
-1.2502513e-07
0.00075274695
-4.7624425e-08
0.00034330818
-1.4362307e-08
0.00014252436
-2.4652947e-09
4.9833367e-05
1.0147942e-05
2.1024505e-09
1.014584e-05
1.2258064e-08
4.9823212e-05
4.0688259e-08
0.00014249593
1.0699018e-07
0.00034324188
2.450784e-07
0.00075260886
5.0385292e-07
0.0015384346
9.2623487e-07
0.002944177
1.4715117e-06
0.0052429269
1.8909092e-06
0.0085787453
1.8050234e-06
0.012687772
1.1036906e-06
0.016673675
1.9929255e-13
0.019192874
-1.1036903e-06
0.019192874
-1.8050234e-06
0.016673675
-1.8909094e-06
0.012687772
-1.4715116e-06
0.0085787453
-9.2623274e-07
0.0052429269
-5.0384847e-07
0.002944177
-2.4507311e-07
0.0015384346
-1.0698592e-07
0.00075260886
-4.068584e-08
0.00034324188
-1.2257129e-08
0.00014249593
-2.1023102e-09
4.9823212e-05
1.014584e-05
1.8282372e-09
1.0144011e-05
1.0665506e-08
4.9814374e-05
3.5430318e-08
0.00014247116
9.328302e-08
0.00034318403
2.1413916e-07
0.00075248801
4.4192761e-07
0.0015382068
8.181138e-07
0.0029438008
1.3163813e-06
0.0052424287
1.724495e-06
0.0085783372
1.678044e-06
0.012687819
1.0378055e-06
0.016674315
4.1744982e-13
0.019193912
-1.0378049e-06
0.019193912
-1.678044e-06
0.016674315
-1.7244954e-06
0.012687819
-1.3163809e-06
0.0085783372
-8.1811095e-07
0.0052424287
-4.4192218e-07
0.0029438008
-2.1413293e-07
0.0015382068
-9.3278092e-08
0.00075248801
-3.542755e-08
0.00034318403
-1.0664447e-08
0.00014247116
-1.8280849e-09
4.9814374e-05
1.0144011e-05
1.6104941e-09
1.0142401e-05
9.3996848e-09
4.9806585e-05
3.124445e-08
0.00014244932
8.2340444e-08
0.00034313293
1.8932074e-07
0.00075238103
3.9182316e-07
0.0015380043
7.292419e-07
0.0029434634
1.1851465e-06
0.0052419728
1.5781767e-06
0.0085779441
1.5623408e-06
0.012687835
9.7669933e-07
0.0166749
5.4883631e-13
0.019194888
-9.766986e-07
0.019194888
-1.5623409e-06
0.0166749
-1.5781771e-06
0.012687835
-1.185146e-06
0.0085779441
-7.2923856e-07
0.0052419728
-3.9181696e-07
0.0029434634
-1.893137e-07
0.0015380043
-8.2334924e-08
0.00075238103
-3.1241368e-08
0.00034313293
-9.3985129e-09
0.00014244932
-1.6103299e-09
4.9806585e-05
1.0142401e-05
1.4323236e-09
1.0140969e-05
8.3630526e-09
4.9799654e-05
2.7812682e-08
0.00014242987
7.3352888e-08
0.00034308739
1.6886895e-07
0.00075228551
3.5026833e-07
0.0015378229
6.545837e-07
0.0029431591
1.0720604e-06
0.0052415553
1.446435e-06
0.0085775698
1.4548778e-06
0.012687826
9.1881077e-07
0.016675437
5.8326985e-13
0.019195807
-9.1881009e-07
0.019195807
-1.4548782e-06
0.016675437
-1.4464358e-06
0.012687826
-1.0720599e-06
0.0085775698
-6.5458002e-07
0.0052415553
-3.5026147e-07
0.0029431591
-1.6886118e-07
0.0015378229
-7.3346819e-08
0.00075228551
-2.7809305e-08
0.00034308739
-8.3617728e-09
0.00014242987
-1.4321471e-09
4.9799654e-05
1.0140969e-05
1.2850168e-09
1.0139684e-05
7.505129e-09
4.9793434e-05
2.4968942e-08
0.0001424124
6.589128e-08
0.00034304647
1.5183832e-07
0.00075219957
3.1548586e-07
0.0015376593
5.9149754e-07
0.0029428831
9.7478835e-07
0.005241172
1.3297064e-06
0.0085772149
1.3567888e-06
0.012687799
8.6525334e-07
0.016675928
5.4172623e-13
0.019196672
-8.6525284e-07
0.019196672
-1.3567895e-06
0.016675928
-1.3297076e-06
0.012687799
-9.7478803e-07
0.0085772149
-5.9149362e-07
0.005241172
-3.1547841e-07
0.0029428831
-1.5182989e-07
0.0015376593
-6.5884702e-08
0.00075219956
-2.496529e-08
0.00034304647
-7.5037498e-09
0.0001424124
-1.2848295e-09
4.9793434e-05
1.0139684e-05
1.1615045e-09
1.0138522e-05
6.7852575e-09
4.9787811e-05
2.258056e-08
0.00014239661
5.961556e-08
0.00034300943
1.3748136e-07
0.0007521217
2.8604717e-07
0.0015375107
5.3771196e-07
0.0029426314
8.9070745e-07
0.005240819
1.2263994e-06
0.0085768792
1.2674913e-06
0.012687758
8.1592802e-07
0.01667638
4.3646534e-13
0.019197488
-8.1592781e-07
0.019197488
-1.2674925e-06
0.01667638
-1.226401e-06
0.012687758
-8.9070731e-07
0.0085768792
-5.3770781e-07
0.005240819
-2.8603917e-07
0.0029426314
-1.3747231e-07
0.0015375107
-5.9608518e-08
0.0007521217
-2.2576662e-08
0.00034300943
-6.7837907e-09
0.00014239661
-1.1613087e-09
4.9787811e-05
1.0138522e-05
1.0561645e-09
1.0137466e-05
6.1710287e-09
4.9782696e-05
2.0541426e-08
0.00014238224
5.4252226e-08
0.00034297572
1.2519093e-07
0.00075205076
2.6076831e-07
0.0015373751
4.9125244e-07
0.0029424009
8.1722631e-07
0.005240493
1.134185e-06
0.0085765622
1.1857921e-06
0.012687707
7.7021595e-07
0.016676795
2.7965157e-13
0.019198259
-7.7021612e-07
0.019198259
-1.1857937e-06
0.016676795
-1.1341871e-06
0.012687707
-8.1722635e-07
0.0085765622
-4.9124808e-07
0.005240493
-2.6075983e-07
0.0029424009
-1.2518134e-07
0.0015373751
-5.4244781e-08
0.00075205076
-2.0537318e-08
0.00034297572
-6.169489e-09
0.00014238224
-1.0559629e-09
4.9782696e-05
1.0137466e-05
9.6516214e-10
1.0136501e-05
5.6402044e-09
4.9778021e-05
1.8778314e-08
0.0001423691
4.9611267e-08
0.00034294489
1.1454164e-07
0.00075198583
2.3881103e-07
0.0015372509
4.507043e-07
0.002942189
7.5248349e-07
0.0052401913
1.0515008e-06
0.0085762632
1.1108327e-06
0.012687647
7.2768956e-07
0.016677178
8.9661136e-14
0.019198986
-7.2769016e-07
0.019198986
-1.1108348e-06
0.016677178
-1.0515034e-06
0.012687647
-7.5248372e-07
0.0085762632
-4.5069979e-07
0.0052401913
-2.3880214e-07
0.002942189
-1.145316e-07
0.0015372508
-4.9603496e-08
0.00075198583
-1.8774041e-08
0.00034294489
-5.6386092e-09
0.0001423691
-9.6495771e-10
4.9778021e-05
1.0136501e-05
8.8581795e-10
1.0135615e-05
5.1772216e-09
4.9773729e-05
1.7239843e-08
0.00014235704
4.5558816e-08
0.00034291657
1.0523203e-07
0.00075192616
2.1957622e-07
0.0015371365
4.1504211e-07
0.0029419936
6.9508929e-07
0.0052399112
9.7709464e-07
0.0085759812
1.041868e-06
0.012687582
6.8800564e-07
0.016677532
-9.5338508e-14
0.019199674
-6.880067e-07
0.019199674
-1.0418707e-06
0.016677532
-9.7709764e-07
0.012687582
-6.9508975e-07
0.0085759812
-4.1503753e-07
0.0052399112
-2.1956704e-07
0.0029419935
-1.0522166e-07
0.0015371365
-4.5550812e-08
0.00075192616
-1.7235454e-08
0.00034291657
-5.1755902e-09
0.00014235704
-8.8561374e-10
4.9773729e-05
1.0135615e-05
8.1603548e-10
1.0134799e-05
4.769917e-09
4.9769775e-05
1.5885889e-08
0.00014234592
4.1990353e-08
0.00034289047
9.7026407e-08
0.00075187112
2.02593e-07
0.0015370309
3.834483e-07
0.0029418127
6.4389525e-07
0.0052396508
9.0984269e-07
0.0085757152
9.7823618e-07
0.012687514
6.5086655e-07
0.01667786
-3.3238078e-13
0.019200325
-6.508681e-07
0.019200325
-9.7823936e-07
0.01667786
-9.0984616e-07
0.012687514
-6.4389598e-07
0.0085757152
-3.8344372e-07
0.0052396508
-2.0258367e-07
0.0029418127
-9.7015848e-08
0.0015370309
-4.1982216e-08
0.00075187112
-1.588144e-08
0.00034289047
-4.7682706e-09
0.00014234592
-8.1583468e-10
4.9769775e-05
1.0134799e-05
7.5416364e-10
1.0134045e-05
4.4087022e-09
4.9766121e-05
1.4684786e-08
0.00014233564
3.8823263e-08
0.00034286633
8.9737966e-08
0.00075182021
1.8748614e-07
0.0015369332
3.5526443e-07
0.0029416449
5.9795747e-07
0.0052394081
8.4878789e-07
0.0085754644
9.1936662e-07
0.012687443
6.1601045e-07
0.016678163
-5.8280572e-13
0.019200941
-6.1601253e-07
0.019200941
-9.1937033e-07
0.016678163
-8.4879183e-07
0.012687443
-5.9795848e-07
0.0085754644
-3.5525993e-07
0.0052394081
-1.8747676e-07
0.0029416449
-8.9727351e-08
0.0015369332
-3.88151e-08
0.0007518202
-1.4680337e-08
0.00034286633
-4.407064e-09
0.00014233564
-7.5396977e-10
4.9766121e-05
1.0134045e-05
6.989133e-10
1.0133346e-05
4.0860815e-09
4.9762734e-05
1.3611743e-08
0.00014232612
3.5992715e-08
0.00034284395
8.3219588e-08
0.00075177298
1.7395848e-07
0.0015368425
3.2996396e-07
0.0029414889
5.5650614e-07
0.0052391815
7.9311986e-07
0.0085752278
8.6476787e-07
0.012687372
5.8323135e-07
0.016678444
-8.5037108e-13
0.019201524
-5.8323397e-07
0.019201524
-8.647721e-07
0.016678444
-7.9312423e-07
0.012687372
-5.5650741e-07
0.0085752278
-3.2995959e-07
0.0052391815
-1.7394917e-07
0.0029414889
-8.3209058e-08
0.0015368425
-3.5984641e-08
0.00075177298
-1.3607361e-08
0.00034284395
-4.0844778e-09
0.00014232612
-6.9873043e-10
4.9762734e-05
1.0133346e-05
6.4926822e-10
1.0132697e-05
3.7961414e-09
4.9759587e-05
1.264718e-08
0.00014231727
3.3447437e-08
0.00034282315
7.735468e-08
0.00075172907
1.6177366e-07
0.001536758
3.0712531e-07
0.0029413436
5.1891804e-07
0.0052389697
7.4217176e-07
0.0085750045
8.1401343e-07
0.0126873
5.5234217e-07
0.016678706
-1.1210288e-12
0.019202077
-5.5234528e-07
0.019202077
-8.1401809e-07
0.016678706
-7.4217646e-07
0.0126873
-5.189195e-07
0.0085750045
-3.0712106e-07
0.0052389697
-1.6176453e-07
0.0029413436
-7.7344386e-08
0.001536758
-3.3439585e-08
0.00075172907
-1.2642943e-08
0.00034282315
-3.7946031e-09
0.00014231727
-6.4910121e-10
4.9759587e-05
1.0132697e-05
6.0441441e-10
1.0132092e-05
3.534143e-09
4.9756657e-05
1.1775398e-08
0.00014230903
3.1146272e-08
0.00034280378
7.2049463e-08
0.00075168817
1.5074093e-07
0.0015366793
2.8640605e-07
0.0029412079
4.8467999e-07
0.0052387715
6.9537956e-07
0.0085747938
7.6674332e-07
0.012687229
5.2320419e-07
0.01667895
-1.3223743e-12
0.0192026
-5.2320766e-07
0.0192026
-7.6674828e-07
0.01667895
-6.9538442e-07
0.012687229
-4.8468151e-07
0.0085747938
-2.8640191e-07
0.0052387715
-1.5073209e-07
0.0029412079
-7.2039579e-08
0.0015366793
-3.1138796e-08
0.00075168817
-1.1771398e-08
0.00034280378
-3.5327072e-09
0.00014230903
-6.042692e-10
4.9756657e-05
1.0132092e-05
5.6369327e-10
1.0131528e-05
3.2962508e-09
4.9753924e-05
1.0983685e-08
0.00014230134
2.9055869e-08
0.0003427857
6.7227863e-08
0.00075165
1.4070523e-07
0.0015366059
2.6752675e-07
0.0029410811
4.5337053e-07
0.0052385856
6.5227436e-07
0.0085745949
7.2263565e-07
0.012687158
4.9567385e-07
0.016679177
-1.4416613e-12
0.019203096
-4.9567751e-07
0.019203096
-7.2264069e-07
0.016679177
-6.5227915e-07
0.012687158
-4.5337192e-07
0.0085745949
-2.6752268e-07
0.0052385856
-1.406968e-07
0.0029410811
-6.7218602e-08
0.0015366059
-2.9048958e-08
0.00075164999
-1.0980034e-08
0.0003427857
-3.2949629e-09
0.00014230134
-5.6357718e-10
4.9753925e-05
1.0131528e-05
5.2656556e-10
1.0131002e-05
3.0793234e-09
4.9751372e-05
1.0261623e-08
0.00014229416
2.7148877e-08
0.00034276882
6.2827404e-08
0.00075161432
1.3153887e-07
0.0015365372
2.5025604e-07
0.0029409624
4.2463606e-07
0.0052384112
6.12452e-07
0.0085744071
6.8142261e-07
0.012687089
4.6965719e-07
0.016679388
-1.4520771e-12
0.019203565
-4.6966083e-07
0.019203565
-6.8142746e-07
0.016679388
-6.1245644e-07
0.012687089
-4.2463714e-07
0.0085744071
-2.5025204e-07
0.0052384112
-1.3153103e-07
0.0029409624
-6.2819032e-08
0.0015365372
-2.7142765e-08
0.00075161432
-1.0258461e-08
0.00034276882
-3.0782391e-09
0.00014229416
-5.2648753e-10
4.9751372e-05
1.0131002e-05
4.9258668e-10
1.0130509e-05
2.8807699e-09
4.9748983e-05
9.6006178e-09
0.00014228744
2.5402729e-08
0.00034275301
5.8796516e-08
0.00075158092
1.2313637e-07
0.0015364728
2.344025e-07
0.0029408511
3.9818363e-07
0.0052382475
5.7557598e-07
0.0085742297
6.4285202e-07
0.012687022
4.4503288e-07
0.016679586
-1.3445916e-12
0.01920401
-4.4503624e-07
0.01920401
-6.4285638e-07
0.016679586
-5.7557975e-07
0.012687022
-3.9818418e-07
0.0085742297
-2.3439856e-07
0.0052382475
-1.2312935e-07
0.0029408511
-5.8789368e-08
0.0015364728
-2.5397705e-08
0.00075158092
-9.5981161e-09
0.00034275301
-2.8799568e-09
0.00014228744
-4.9255745e-10
4.9748984e-05
1.0130509e-05
4.6138503e-10
1.0130048e-05
2.698425e-09
4.9746746e-05
8.9934865e-09
0.00014228114
2.3798543e-08
0.00034273821
5.509198e-08
0.00075154963
1.154091e-07
0.0015364125
2.1980436e-07
0.0029407467
3.7376188e-07
0.0052380935
5.4134879e-07
0.0085740621
6.0672367e-07
0.012686957
4.2174137e-07
0.016679771
-1.1126008e-12
0.019204432
-4.2174417e-07
0.019204432
-6.0672721e-07
0.016679771
-5.4135156e-07
0.012686957
-3.7376169e-07
0.0085740621
-2.1980052e-07
0.0052380935
-1.1540321e-07
0.0029407467
-5.5086475e-08
0.0015364125
-2.3794959e-08
0.00075154963
-8.9918499e-09
0.00034273821
-2.6979642e-09
0.00014228114
-4.6141731e-10
4.9746746e-05
1.0130048e-05
4.3264819e-10
1.0129615e-05
2.5304671e-09
4.9744648e-05
8.4341839e-09
0.00014227524
2.2320437e-08
0.00034272432
5.1677484e-08
0.00075152027
1.0828262e-07
0.0015363559
2.0632585e-07
0.0029406486
3.5116077e-07
0.0052379487
5.0952232e-07
0.0085739038
5.7282979e-07
0.012686893
3.9966812e-07
0.016679944
-7.6567776e-13
0.019204832
-3.9967008e-07
0.019204832
-5.7283215e-07
0.016679944
-5.0952373e-07
0.012686893
-3.5115961e-07
0.0085739038
-2.0632221e-07
0.0052379487
-1.0827824e-07
0.0029406486
-5.1674128e-08
0.0015363559
-2.2318717e-08
0.00075152027
-8.4336555e-09
0.00034272432
-2.5304537e-09
0.00014227524
-4.3275662e-10
4.9744649e-05
1.0129615e-05
4.0611088e-10
1.0129209e-05
2.3753507e-09
4.9742679e-05
7.9175807e-09
0.00014226969
2.0954914e-08
0.00034271128
4.8522066e-08
0.0007514927
1.0169322e-07
0.0015363027
1.9384996e-07
0.0029405565
3.301957e-07
0.0052378123
4.7987153e-07
0.0085737541
5.4102376e-07
0.012686832
3.7878533e-07
0.016680107
-3.0677203e-13
0.01920521
-3.7878614e-07
0.01920521
-5.4102458e-07
0.016680107
-4.798712e-07
0.012686832
-3.3019339e-07
0.0085737541
-1.9384665e-07
0.0052378123
-1.0169082e-07
0.0029405565
-4.852146e-08
0.0015363027
-2.0955549e-08
0.00075149271
-7.9184427e-09
0.00034271129
-2.3758944e-09
0.0001422697
-4.0631191e-10
4.9742679e-05
1.0129209e-05
3.8154547e-10
1.0128828e-05
2.231747e-09
4.9740829e-05
7.4392662e-09
0.00014226449
1.9690393e-08
0.00034269903
4.5599254e-08
0.00075146679
9.558661e-08
0.0015362527
1.8227727e-07
0.0029404698
3.1071152e-07
0.0052376839
4.5220799e-07
0.0085736126
5.1112239e-07
0.012686773
3.5897177e-07
0.016680259
3.0275568e-13
0.019205569
-3.5897114e-07
0.019205569
-5.1112127e-07
0.016680259
-4.5220553e-07
0.012686773
-3.1070785e-07
0.0085736126
-1.8227446e-07
0.0052376839
-9.5586748e-08
0.0029404698
-4.5602097e-08
0.0015362527
-1.9693949e-08
0.0007514668
-7.4418397e-09
0.00034269903
-2.2329716e-09
0.00014226449
-3.8185728e-10
4.9740829e-05
1.0128828e-05
3.5875786e-10
1.0128469e-05
2.0985271e-09
4.9739089e-05
6.9954914e-09
0.00014225959
1.8516981e-08
0.00034268751
4.2886274e-08
0.00075144242
8.9915705e-08
0.0015362057
1.7152078e-07
0.0029403882
2.9256926e-07
0.0052375628
4.2635888e-07
0.0085734788
4.8302788e-07
0.012686717
3.4023535e-07
0.016680402
1.0216635e-12
0.01920591
-3.40233e-07
0.01920591
-4.8302444e-07
0.016680402
-4.2635389e-07
0.012686717
-2.9256404e-07
0.0085734788
-1.7151872e-07
0.0052375628
-8.9919023e-08
0.0029403882
-4.2893353e-08
0.0015362057
-1.8524093e-08
0.00075144243
-7.0001339e-09
0.00034268751
-2.1005697e-09
0.00014225959
-3.5919997e-10
4.9739089e-05
1.0128469e-05
3.3757599e-10
1.0128131e-05
1.9746828e-09
4.9737452e-05
6.5829096e-09
0.00014225498
1.7425917e-08
0.00034267667
4.0363169e-08
0.00075141949
8.4639631e-08
0.0015361614
1.6150542e-07
0.0029403113
2.7565055e-07
0.0052374487
4.0217511e-07
0.0085733523
4.5656301e-07
0.012686662
3.2243347e-07
0.016680536
1.8350656e-12
0.019206232
-3.2242913e-07
0.019206232
-4.5655682e-07
0.016680536
-4.0216715e-07
0.012686662
-2.7564356e-07
0.0085733523
-1.6150437e-07
0.0052374487
-8.4646849e-08
0.0029403113
-4.0375356e-08
0.0015361614
-1.743728e-08
0.00075141949
-6.5900122e-09
0.00034267667
-1.977692e-09
0.00014225498
-3.3816892e-10
4.9737452e-05
1.0128131e-05
3.17857e-10
1.0127813e-05
1.8593885e-09
4.973591e-05
6.1987765e-09
0.00014225064
1.6409907e-08
0.00034266646
3.8012984e-08
0.00075139788
7.9723045e-08
0.0015361197
1.5216553e-07
0.0029402389
2.598499e-07
0.005237341
3.7952604e-07
0.0085732326
4.3168308e-07
0.01268661
3.0562073e-07
0.016680662
2.7796014e-12
0.019206538
-3.0561406e-07
0.019206538
-4.3167369e-07
0.016680662
-3.7951462e-07
0.01268661
-2.5984093e-07
0.0085732326
-1.5216578e-07
0.005237341
-7.9734946e-08
0.0029402389
-3.8031226e-08
0.0015361197
-1.6426275e-08
0.00075139789
-6.2087593e-09
0.00034266646
-1.8635233e-09
0.00014225064
-3.1862205e-10
4.973591e-05
1.0127813e-05
2.9946386e-10
1.0127514e-05
1.7518328e-09
4.9734458e-05
5.8404e-09
0.00014224655
1.5461966e-08
0.00034265684
3.5820004e-08
0.00075137753
7.513402e-08
0.0015360804
1.4344222e-07
0.0029401706
2.4507247e-07
0.0052372394
3.5828398e-07
0.0085731194
4.0819445e-07
0.01268656
2.8961377e-07
0.01668078
3.8677796e-12
0.019206827
-2.8960441e-07
0.019206827
-4.0818135e-07
0.01668078
-3.5826857e-07
0.01268656
-2.4506127e-07
0.0085731194
-1.4344408e-07
0.0052372394
-7.5151442e-08
0.0029401706
-3.5845305e-08
0.0015360804
-1.5484133e-08
0.00075137753
-5.8537047e-09
0.00034265684
-1.7572588e-09
0.00014224655
-3.0042233e-10
4.9734458e-05
1.0127514e-05
2.8229676e-10
1.0127232e-05
1.6514521e-09
4.9733089e-05
5.5059008e-09
0.0001422427
1.4576982e-08
0.00034264776
3.3771971e-08
0.00075135833
7.0846401e-08
0.0015360433
1.3528672e-07
0.0029401061
2.3124132e-07
0.0052371434
3.3836086e-07
0.0085730123
3.8612166e-07
0.012686512
2.7453397e-07
0.016680892
5.1121073e-12
0.019207102
-2.7452153e-07
0.019207102
-3.8610431e-07
0.016680892
-3.3834089e-07
0.012686512
-2.3122764e-07
0.0085730123
-1.3529055e-07
0.0052371434
-7.0870231e-08
0.0029401062
-3.3805389e-08
0.0015360433
-1.460578e-08
0.00075135834
-5.5229869e-09
0.00034264777
-1.6583407e-09
0.0001422427
-2.8347001e-10
4.9733089e-05
1.0127232e-05
2.6623461e-10
1.0126965e-05
1.5575107e-09
4.9731798e-05
5.1928438e-09
0.00014223906
1.3748785e-08
0.00034263921
3.1855478e-08
0.00075134022
6.6833644e-08
0.0015360083
1.2764967e-07
0.0029400453
2.1827253e-07
0.0052370528
3.196287e-07
0.0085729109
3.6522232e-07
0.012686467
2.6012894e-07
0.016680997
6.5066365e-12
0.019207362
-2.6011304e-07
0.019207362
-3.6520014e-07
0.016680997
-3.196036e-07
0.012686467
-2.1825612e-07
0.0085729109
-1.2765583e-07
0.0052370528
-6.6864799e-08
0.0029400453
-3.1898093e-08
0.0015360084
-1.3785058e-08
0.00075134023
-5.2141758e-09
0.00034263921
-1.5660337e-09
0.00014223906
-2.6764305e-10
4.9731798e-05
1.0126965e-05
2.5122747e-10
1.0126714e-05
1.469762e-09
4.9730579e-05
4.9003893e-09
0.00014223563
1.2974762e-08
0.00034263113
3.0063259e-08
0.00075132314
6.3078726e-08
0.0015359753
1.2049933e-07
0.0029399879
2.0612171e-07
0.0052369672
3.0205781e-07
0.008572815
3.4562514e-07
0.012686423
2.466206e-07
0.016681096
8.0513615e-12
0.019207609
-2.4660087e-07
0.019207609
-3.4559761e-07
0.016681096
-3.0202702e-07
0.012686423
-2.0610237e-07
0.008572815
-1.2050823e-07
0.0052369672
-6.3118165e-08
0.0029399879
-3.0116169e-08
0.0015359753
-1.3019354e-08
0.00075132314
-4.9264224e-09
0.00034263114
-1.4800837e-09
0.00014223563
-2.5288808e-10
4.9730579e-05
1.0126714e-05
2.3714167e-10
1.0126477e-05
1.3873557e-09
4.9729429e-05
4.6257393e-09
0.00014223239
1.2248153e-08
0.00034262351
2.8381686e-08
0.000751307
5.9556371e-08
0.0015359442
1.1378811e-07
0.0029399337
1.9469849e-07
0.0052368863
2.8548522e-07
0.0085727242
3.2698746e-07
0.012686382
2.336451e-07
0.016681189
9.6835883e-12
0.019207842
-2.3362127e-07
0.019207842
-3.2695411e-07
0.016681189
-2.8544828e-07
0.012686382
-1.9467611e-07
0.0085727242
-1.1380026e-07
0.0052368863
-5.960512e-08
0.0029399337
-2.8446026e-08
0.0015359442
-1.2301919e-08
0.00075130701
-4.6569302e-09
0.00034262351
-1.3996398e-09
0.0001422324
-2.3907153e-10
4.9729429e-05
1.0126477e-05
2.2401828e-10
1.0126253e-05
1.3106384e-09
4.9728342e-05
4.369985e-09
0.00014222934
1.1570799e-08
0.00034261631
2.6811756e-08
0.00075129176
5.6263445e-08
0.0015359147
1.0750985e-07
0.0029398824
1.8401192e-07
0.0052368098
2.6998486e-07
0.0085726382
3.0961027e-07
0.012686342
2.2158067e-07
0.016681277
1.115687e-11
0.019208064
-2.2155268e-07
0.019208064
-3.0957082e-07
0.016681277
-2.6994147e-07
0.012686342
-1.8398656e-07
0.0085726382
-1.0752588e-07
0.0052368098
-5.632253e-08
0.0029398825
-2.6888589e-08
0.0015359147
-1.1634511e-08
0.00075129177
-4.4067365e-09
0.00034261631
-1.325026e-09
0.00014222934
-2.2623023e-10
4.9728342e-05
1.0126253e-05
2.1163827e-10
1.0126041e-05
1.2381623e-09
4.9727316e-05
4.1284099e-09
0.00014222645
1.0931912e-08
0.00034260951
2.5333785e-08
0.00075127736
5.3167319e-08
0.0015358869
1.0160376e-07
0.002939834
1.7393196e-07
0.0052367374
2.5529447e-07
0.0085725569
2.9296738e-07
0.012686304
2.0988942e-07
0.01668136
1.2762749e-11
0.019208274
-2.0985722e-07
0.019208274
-2.9292172e-07
0.01668136
-2.5524459e-07
0.012686304
-1.7390389e-07
0.0085725569
-1.0162439e-07
0.0052367375
-5.323775e-08
0.002939834
-2.5424044e-08
0.0015358869
-1.1006189e-08
0.00075127737
-4.1710119e-09
0.00034260951
-1.2547384e-09
0.00014222645
-2.141291e-10
4.9727315e-05
1.0126041e-05
2.0028345e-10
1.0125841e-05
1.1718311e-09
4.9726344e-05
3.9071223e-09
0.00014222371
1.0344701e-08
0.00034260307
2.3969146e-08
0.00075126374
5.0297212e-08
0.0015358605
9.6120039e-08
0.0029397882
1.645818e-07
0.005236669
2.4169832e-07
0.0085724798
2.7766139e-07
0.012686268
1.9920043e-07
0.016681439
1.4138507e-11
0.019208473
-1.9916436e-07
0.019208473
-2.7760979e-07
0.016681439
-2.4164233e-07
0.012686268
-1.645517e-07
0.0085724797
-9.6146293e-08
0.005236669
-5.0380108e-08
0.0029397882
-2.4073721e-08
0.0015358606
-1.0430045e-08
0.00075126375
-3.9557636e-09
0.00034260307
-1.1906267e-09
0.00014222371
-2.0303478e-10
4.9726344e-05
1.0125841e-05
1.8935184e-10
1.0125652e-05
1.1077235e-09
4.9725426e-05
3.6935365e-09
0.00014222112
9.7810919e-09
0.00034259698
2.266915e-08
0.00075125085
4.7579774e-08
0.0015358356
9.0935315e-08
0.0029397448
1.5570832e-07
0.0052366042
2.2870864e-07
0.0085724068
2.6285934e-07
0.012686234
1.8871993e-07
0.016681513
1.5186778e-11
0.019208662
-1.8868055e-07
0.019208662
-2.6280237e-07
0.016681513
-2.2864737e-07
0.012686234
-1.5567738e-07
0.0085724067
-9.0968561e-08
0.0052366042
-4.7676344e-08
0.0029397449
-2.278881e-08
0.0015358357
-9.8778217e-09
0.00075125086
-3.7482723e-09
0.00034259699
-1.1287141e-09
0.00014222112
-1.9234166e-10
4.9725425e-05
1.0125652e-05
1.7997972e-10
1.0125472e-05
1.0530927e-09
4.9724553e-05
3.5107116e-09
0.00014221867
9.2922157e-09
0.0003425912
2.152171e-08
0.00075123862
4.5144326e-08
0.001535812
8.6255628e-08
0.0029397037
1.4770957e-07
0.0052365428
2.170577e-07
0.0085723374
2.4971271e-07
0.012686202
1.7949833e-07
0.016681583
1.5721877e-11
0.019208841
-1.7945662e-07
0.019208841
-2.4965128e-07
0.016681583
-2.169925e-07
0.012686202
-1.4767973e-07
0.0085723374
-8.6297707e-08
0.0052365428
-4.5255551e-08
0.0029397038
-2.1656455e-08
0.0015358121
-9.3998098e-09
0.00075123864
-3.5710227e-09
0.00034259121
-1.0759933e-09
0.00014221867
-1.8312889e-10
4.9724552e-05
1.0125472e-05
1.688775e-10
1.0125303e-05
9.8819744e-10
4.9723734e-05
3.297396e-09
0.00014221636
8.7428982e-09
0.00034258576
2.0294975e-08
0.00075122707
4.2664564e-08
0.0015357896
8.1644523e-08
0.0029396647
1.3992831e-07
0.0052364845
2.057231e-07
0.0085722716
2.367658e-07
0.012686171
1.7031948e-07
0.01668165
1.5495235e-11
0.019209011
-1.702768e-07
0.019209011
-2.3670097e-07
0.01668165
-2.0565532e-07
0.012686171
-1.3990165e-07
0.0085722716
-8.1697126e-08
0.0052364845
-4.2790277e-08
0.0029396648
-2.0442733e-08
0.0015357897
-8.8586823e-09
0.00075122708
-3.3612629e-09
0.00034258576
-1.0119898e-09
0.00014221636
-1.7189176e-10
4.9723733e-05
1.0125303e-05
1.6408608e-10
1.0125139e-05
9.6032399e-10
4.9722938e-05