/*--------------------------------*- C++ -*----------------------------------*\
| =========                 |                                                 |
| \\      /  F ield         | OpenFOAM: The Open Source CFD Toolbox           |
|  \\    /   O peration     | Version:  2406                                  |
|   \\  /    A nd           | Website:  www.openfoam.com                      |
|    \\/     M anipulation  |                                                 |
\*---------------------------------------------------------------------------*/
FoamFile
{
    version     2.0;
    format      ascii;
    arch        "LSB;label=32;scalar=64";
    class       volVectorField;
    location    "27";
    object      U;
}
// * * * * * * * * * * * * * * * * * * * * * * * * * * * * * * * * * * * * * //

dimensions      [0 1 -1 0 0 0 0];

internalField   nonuniform List<vector> 
1176
(
(0.019493789 7.0786412e-07 0)
(0.066677318 8.1696579e-06 0)
(0.13357994 3.9503165e-05 0)
(0.22724701 0.00010873576 0)
(0.35591522 0.00021176025 0)
(0.52772023 0.00030396283 0)
(0.74780387 0.00031818013 0)
(1.0136216 0.00024904578 0)
(1.3093323 0.00016666982 0)
(1.6017081 0.00011264666 0)
(1.8421723 7.0214012e-05 0)
(1.9793239 2.3940825e-05 0)
(1.9793239 -2.3940591e-05 0)
(1.8421723 -7.0214376e-05 0)
(1.6017081 -0.00011264883 0)
(1.3093323 -0.00016667642 0)
(1.0136216 -0.00024905985 0)
(0.74780387 -0.00031820161 0)
(0.52772022 -0.00030398651 0)
(0.3559152 -0.00021177817 0)
(0.22724698 -0.00010874656 0)
(0.13357992 -3.950639e-05 0)
(0.066677304 -8.1726784e-06 0)
(0.019493785 -7.0769099e-07 0)
(0.020187017 -3.7419176e-06 0)
(0.068813532 -2.4638641e-05 0)
(0.13732107 -9.6548557e-05 0)
(0.23247391 -0.00024839462 0)
(0.36204617 -0.00047268786 0)
(0.53373556 -0.00067421194 0)
(0.75267407 -0.00069486963 0)
(1.0170176 -0.00049687398 0)
(1.3116385 -0.00023345956 0)
(1.6034438 -4.9824798e-05 0)
(1.8436588 1.9764501e-05 0)
(1.9807026 1.3427954e-05 0)
(1.9807026 -1.3426532e-05 0)
(1.8436588 -1.9761604e-05 0)
(1.6034438 4.9831048e-05 0)
(1.3116385 0.0002334707 0)
(1.0170177 0.00049689101 0)
(0.7526741 0.00069489168 0)
(0.53373559 0.00067423362 0)
(0.36204618 0.00047270294 0)
(0.23247391 0.00024840271 0)
(0.13732106 9.6551483e-05 0)
(0.068813526 2.4639753e-05 0)
(0.020187015 3.7420281e-06 0)
(0.020018442 2.0918374e-06 0)
(0.068327405 1.2720771e-05 0)
(0.13655404 4.6877253e-05 0)
(0.23159544 0.00011389737 0)
(0.36138709 0.00019769263 0)
(0.53366969 0.00023903223 0)
(0.75344344 0.00020559789 0)
(1.0184881 0.00011361072 0)
(1.3134639 7.4312973e-05 0)
(1.6053464 7.95321e-05 0)
(1.8455118 7.0515575e-05 0)
(1.9825245 2.7824435e-05 0)
(1.9825245 -2.7827442e-05 0)
(1.8455118 -7.0519839e-05 0)
(1.6053464 -7.9538428e-05 0)
(1.3134639 -7.4321111e-05 0)
(1.0184881 -0.00011361897 0)
(0.75344341 -0.0002056028 0)
(0.53366967 -0.00023903574 0)
(0.36138707 -0.00019769331 0)
(0.23159544 -0.00011389698 0)
(0.13655405 -4.6876912e-05 0)
(0.068327407 -1.2720503e-05 0)
(0.020018443 -2.0918042e-06 0)
(0.019966547 7.0076529e-07 0)
(0.068159232 4.6870448e-06 0)
(0.13624021 1.9355436e-05 0)
(0.2311194 5.6456148e-05 0)
(0.36078093 0.0001344456 0)
(0.53306293 0.00025829303 0)
(0.75295637 0.00035344713 0)
(1.0181104 0.00036911957 0)
(1.313184 0.00030758815 0)
(1.6051633 0.00022777181 0)
(1.8453995 0.00014555902 0)
(1.9824491 4.9997267e-05 0)
(1.9824491 -4.9996532e-05 0)
(1.8453995 -0.00014555786 0)
(1.6051633 -0.00022777003 0)
(1.313184 -0.00030758493 0)
(1.0181104 -0.00036911629 0)
(0.75295637 -0.00035344624 0)
(0.53306294 -0.00025829251 0)
(0.36078093 -0.00013444614 0)
(0.2311194 -5.6456704e-05 0)
(0.13624021 -1.9355541e-05 0)
(0.068159234 -4.6873608e-06 0)
(0.019966548 -7.0071608e-07 0)
(0.019942203 2.9076961e-07 0)
(0.068078703 1.9871996e-06 0)
(0.13608628 8.2361124e-06 0)
(0.23087699 2.3699303e-05 0)
(0.36044744 5.6881566e-05 0)
(0.53266448 0.00012306871 0)
(0.75256878 0.00022681787 0)
(1.017808 0.00032272168 0)
(1.3129044 0.00034572391 0)
(1.604912 0.00030729901 0)
(1.8452029 0.00021095242 0)
(1.9822898 7.4614024e-05 0)
(1.9822898 -7.4614868e-05 0)
(1.8452029 -0.00021095337 0)
(1.604912 -0.00030730009 0)
(1.3129044 -0.00034572496 0)
(1.017808 -0.00032272173 0)
(0.75256878 -0.0002268177 0)
(0.53266448 -0.00012306817 0)
(0.36044744 -5.6881198e-05 0)
(0.23087699 -2.3699129e-05 0)
(0.13608628 -8.2360098e-06 0)
(0.068078702 -1.9872362e-06 0)
(0.019942203 -2.9074539e-07 0)
(0.019933132 1.718159e-07 0)
(0.068047755 1.1940724e-06 0)
(0.13602489 5.0651953e-06 0)
(0.23077535 1.4968842e-05 0)
(0.36029899 3.6219496e-05 0)
(0.5324792 7.6944122e-05 0)
(0.75239427 0.00014713746 0)
(1.0177222 0.00023748984 0)
(1.3129292 0.00028525535 0)
(1.6049746 0.00027441423 0)
(1.8452865 0.00019644557 0)
(1.9823834 7.1176438e-05 0)
(1.9823834 -7.1177567e-05 0)
(1.8452865 -0.0001964469 0)
(1.6049746 -0.00027441579 0)
(1.3129292 -0.00028525701 0)
(1.0177222 -0.00023749106 0)
(0.75239427 -0.00014713838 0)
(0.5324792 -7.6944502e-05 0)
(0.36029898 -3.6219536e-05 0)
(0.23077535 -1.4968782e-05 0)
(0.13602489 -5.0651242e-06 0)
(0.068047755 -1.1940722e-06 0)
(0.019933132 -1.718031e-07 0)
(0.0199234 1.5587614e-07 0)
(0.068015507 1.0700732e-06 0)
(0.13596286 4.4934606e-06 0)
(0.23067607 1.3195447e-05 0)
(0.36015773 3.1857085e-05 0)
(0.53230178 6.6958137e-05 0)
(0.75221429 0.00012411868 0)
(1.0176105 0.00019917019 0)
(1.3129358 0.00025490801 0)
(1.6050904 0.00024595123 0)
(1.8454579 0.0001812785 0)
(1.9825798 6.6548092e-05 0)
(1.9825798 -6.6549018e-05 0)
(1.8454579 -0.00018127946 0)
(1.6050904 -0.00024595209 0)
(1.3129358 -0.00025490865 0)
(1.0176105 -0.00019917061 0)
(0.75221429 -0.00012411893 0)
(0.53230178 -6.6958199e-05 0)
(0.36015773 -3.1857054e-05 0)
(0.23067607 -1.3195406e-05 0)
(0.13596286 -4.4933965e-06 0)
(0.068015507 -1.0700974e-06 0)
(0.0199234 -1.5586119e-07 0)
(0.019915697 1.2758635e-07 0)
(0.067989792 8.780155e-07 0)
(0.13591293 3.6959962e-06 0)
(0.23059503 1.0901588e-05 0)
(0.36003987 2.6613309e-05 0)
(0.53214753 5.7237034e-05 0)
(0.75204133 0.00010911033 0)
(1.0174723 0.00017936605 0)
(1.3128926 0.0002380245 0)
(1.6051414 0.00023746726 0)
(1.8455877 0.00017750652 0)
(1.9827514 6.553917e-05 0)
(1.9827514 -6.5539727e-05 0)
(1.8455877 -0.0001775071 0)
(1.6051414 -0.00023746776 0)
(1.3128926 -0.00023802482 0)
(1.0174723 -0.00017936626 0)
(0.75204133 -0.00010911034 0)
(0.53214753 -5.7236859e-05 0)
(0.36003987 -2.6613098e-05 0)
(0.23059503 -1.0901439e-05 0)
(0.13591293 -3.6958713e-06 0)
(0.067989792 -8.7803664e-07 0)
(0.019915697 -1.2756252e-07 0)
(0.019909217 1.0465815e-07 0)
(0.067968141 7.2313612e-07 0)
(0.13587084 3.0521004e-06 0)
(0.23052654 9.0118194e-06 0)
(0.35993984 2.1999849e-05 0)
(0.53201542 4.7473372e-05 0)
(0.75188901 9.2013956e-05 0)
(1.0173341 0.00015618175 0)
(1.3128278 0.00021699662 0)
(1.6051595 0.00022709614 0)
(1.8456699 0.00017232621 0)
(1.982868 6.4147603e-05 0)
(1.982868 -6.4147871e-05 0)
(1.8456699 -0.00017232648 0)
(1.6051595 -0.00022709636 0)
(1.3128278 -0.00021699679 0)
(1.0173341 -0.0001561819 0)
(0.75188901 -9.2013895e-05 0)
(0.53201542 -4.7473111e-05 0)
(0.35993984 -2.1999555e-05 0)
(0.23052654 -9.0116145e-06 0)
(0.13587084 -3.05193e-06 0)
(0.067968141 -7.2316947e-07 0)
(0.019909217 -1.0462413e-07 0)
(0.019903971 8.6126958e-08 0)
(0.067950552 5.9696285e-07 0)
(0.13583649 2.5273767e-06 0)
(0.2304703 7.4916101e-06 0)
(0.35985692 1.8376286e-05 0)
(0.53190436 3.9835661e-05 0)
(0.75175836 7.7712117e-05 0)
(1.0172122 0.00013432432 0)
(1.3127613 0.00019323369 0)
(1.6051772 0.0002105835 0)
(1.8457533 0.00016272975 0)
(1.9829863 6.1084263e-05 0)
(1.9829863 -6.1084314e-05 0)
(1.8457533 -0.0001627298 0)
(1.6051772 -0.00021058353 0)
(1.3127613 -0.00019323375 0)
(1.0172122 -0.00013432433 0)
(0.75175836 -7.7711912e-05 0)
(0.53190436 -3.9835272e-05 0)
(0.35985692 -1.83759e-05 0)
(0.2304703 -7.4913546e-06 0)
(0.13583649 -2.527166e-06 0)
(0.067950552 -5.9701131e-07 0)
(0.019903971 -8.6083431e-08 0)
(0.019899543 7.3357158e-08 0)
(0.067935688 5.0896211e-07 0)
(0.13580742 2.1568891e-06 0)
(0.23042259 6.4027658e-06 0)
(0.35978626 1.5747594e-05 0)
(0.5318089 3.4277826e-05 0)
(0.75164409 6.7204612e-05 0)
(1.0171021 0.00011722997 0)
(1.3126976 0.00017262472 0)
(1.6051928 0.00019308915 0)
(1.8458371 0.00015219877 0)
(1.9831061 5.7544852e-05 0)
(1.9831061 -5.7544818e-05 0)
(1.8458371 -0.00015219875 0)
(1.6051928 -0.00019308914 0)
(1.3126976 -0.00017262473 0)
(1.017102 -0.00011722989 0)
(0.75164409 -6.7204281e-05 0)
(0.5318089 -3.427731e-05 0)
(0.35978626 -1.5747109e-05 0)
(0.23042259 -6.4024549e-06 0)
(0.13580742 -2.1566386e-06 0)
(0.067935688 -5.0902085e-07 0)
(0.019899543 -7.3305382e-08 0)
(0.019895721 6.3727748e-08 0)
(0.06792285 4.4252107e-07 0)
(0.13578228 1.8767403e-06 0)
(0.23038125 5.5765342e-06 0)
(0.35972483 1.3738696e-05 0)
(0.53172535 2.9998029e-05 0)
(0.75154264 5.91116e-05 0)
(1.0170011 0.00010388827 0)
(1.3126344 0.00015540293 0)
(1.6052015 0.00017849543 0)
(1.8459125 0.0001427157 0)
(1.9832185 5.4330698e-05 0)
(1.9832185 -5.4330622e-05 0)
(1.8459125 -0.00014271565 0)
(1.6052015 -0.00017849542 0)
(1.3126344 -0.00015540293 0)
(1.0170011 -0.00010388813 0)
(0.75154264 -5.9111187e-05 0)
(0.53172535 -2.9997417e-05 0)
(0.35972483 -1.3738131e-05 0)
(0.23038125 -5.5761761e-06 0)
(0.13578228 -1.8764547e-06 0)
(0.06792285 -4.4258848e-07 0)
(0.019895721 -6.3668797e-08 0)
(0.019892371 5.6090681e-08 0)
(0.067911586 3.8977768e-07 0)
(0.13576021 1.6541281e-06 0)
(0.2303449 4.9187745e-06 0)
(0.35967069 1.2132032e-05 0)
(0.53165136 2.6542473e-05 0)
(0.7514519 5.2498834e-05 0)
(1.0169086 9.287579e-05 0)
(1.3125728 0.00014061504 0)
(1.605205 0.00016529637 0)
(1.8459798 0.00013398946 0)
(1.9833221 5.1387552e-05 0)
(1.9833221 -5.1387452e-05 0)
(1.8459798 -0.00013398941 0)
(1.605205 -0.00016529637 0)
(1.3125728 -0.00014061504 0)
(1.0169086 -9.287562e-05 0)
(0.7514519 -5.2498359e-05 0)
(0.53165136 -2.654178e-05 0)
(0.35967069 -1.2131397e-05 0)
(0.2303449 -4.9183746e-06 0)
(0.13576021 -1.6538105e-06 0)
(0.067911586 -3.8985296e-07 0)
(0.019892371 -5.6025215e-08 0)
(0.019889403 4.9849419e-08 0)
(0.067901607 3.4661763e-07 0)
(0.13574064 1.4717676e-06 0)
(0.23031264 4.3794001e-06 0)
(0.35962253 1.0812332e-05 0)
(0.53158531 2.3691447e-05 0)
(0.75137029 4.6984204e-05 0)
(1.016824 8.3546408e-05 0)
(1.3125139 0.00012773762 0)
(1.6052051 0.00015293367 0)
(1.8460415 0.00012582056 0)
(1.9834196 4.8616612e-05 0)
(1.9834196 -4.8616506e-05 0)
(1.8460415 -0.00012582053 0)
(1.6052051 -0.0001529337 0)
(1.3125139 -0.00012773764 0)
(1.016824 -8.3546228e-05 0)
(0.75137029 -4.698368e-05 0)
(0.53158531 -2.3690681e-05 0)
(0.35962253 -1.0811633e-05 0)
(0.23031264 -4.3789612e-06 0)
(0.13574064 -1.47142e-06 0)
(0.067901607 -3.4670005e-07 0)
(0.019889403 -4.9777882e-08 0)
(0.019886752 4.4699072e-08 0)
(0.067892685 3.1094451e-07 0)
(0.13572313 1.320821e-06 0)
(0.23028375 3.9322161e-06 0)
(0.35957935 9.7159019e-06 0)
(0.53152592 2.1315633e-05 0)
(0.75129648 4.2360331e-05 0)
(1.0167465 7.562001e-05 0)
(1.3124581 0.00011654251 0)
(1.6052027 0.00014169893 0)
(1.8460982 0.0001182712 0)
(1.9835117 4.6031675e-05 0)
(1.9835117 -4.6031578e-05 0)
(1.8460982 -0.00011827118 0)
(1.6052027 -0.000141699 0)
(1.3124581 -0.00011654256 0)
(1.0167465 -7.5619829e-05 0)
(0.75129648 -4.2359766e-05 0)
(0.53152592 -2.1314801e-05 0)
(0.35957935 -9.715144e-06 0)
(0.23028375 -3.9317409e-06 0)
(0.13572313 -1.3204457e-06 0)
(0.067892685 -3.1103356e-07 0)
(0.019886752 -4.4621896e-08 0)
(0.019884362 4.0386355e-08 0)
(0.067884644 2.8104063e-07 0)
(0.13570735 1.1941581e-06 0)
(0.23025769 3.5564951e-06 0)
(0.35954035 8.7929132e-06 0)
(0.53147216 1.9310071e-05 0)
(0.75122934 3.8440236e-05 0)
(1.0166753 6.8839064e-05 0)
(1.3124053 0.00010678371 0)
(1.6051983 0.00013155249 0)
(1.8461504 0.00011132819 0)
(1.9835985 4.3631246e-05 0)
(1.9835985 -4.3631172e-05 0)
(1.8461504 -0.00011132821 0)
(1.6051983 -0.0001315526 0)
(1.3124053 -0.00010678379 0)
(1.0166753 -6.8838883e-05 0)
(0.75122934 -3.8439631e-05 0)
(0.53147216 -1.9309178e-05 0)
(0.35954035 -8.7921007e-06 0)
(0.23025769 -3.555987e-06 0)
(0.13570735 -1.1937581e-06 0)
(0.067884644 -2.8113575e-07 0)
(0.019884362 -4.0304089e-08 0)
(0.019882195 3.6711129e-08 0)
(0.067877349 2.5554013e-07 0)
(0.13569303 1.0860797e-06 0)
(0.23023403 3.235635e-06 0)
(0.3595049 8.0035957e-06 0)
(0.5314232 1.7590959e-05 0)
(0.75116796 3.5067284e-05 0)
(1.0166096 6.2964247e-05 0)
(1.3123553 9.8203363e-05 0)
(1.6051923 0.0001223338 0)
(1.8461982 0.00010491331 0)
(1.9836803 4.1390535e-05 0)
(1.9836803 -4.1390493e-05 0)
(1.8461982 -0.00010491337 0)
(1.6051923 -0.00012233395 0)
(1.3123553 -9.8203478e-05 0)
(1.0166096 -6.2964066e-05 0)
(0.75116796 -3.5066644e-05 0)
(0.5314232 -1.7590012e-05 0)
(0.3595049 -8.0027353e-06 0)
(0.23023403 -3.2350985e-06 0)
(0.13569303 -1.0856586e-06 0)
(0.067877349 -2.5564061e-07 0)
(0.019882195 -3.6624485e-08 0)
(0.019880219 3.3538248e-08 0)
(0.067870695 2.3351243e-07 0)
(0.13567996 9.9267273e-07 0)
(0.23021243 2.9581552e-06 0)
(0.35947252 7.3202994e-06 0)
(0.53137842 1.6100149e-05 0)
(0.75111164 3.2133037e-05 0)
(1.0165488 5.7823461e-05 0)
(1.3123082 9.0602588e-05 0)
(1.6051852 0.00011395356 0)
(1.8462423 9.8956093e-05 0)
(1.9837576 3.9288999e-05 0)
(1.9837576 -3.9288997e-05 0)
(1.8462423 -9.8956195e-05 0)
(1.6051852 -0.00011395377 0)
(1.3123082 -9.0602737e-05 0)
(1.0165488 -5.7823284e-05 0)
(0.75111164 -3.2132368e-05 0)
(0.53137842 -1.6099157e-05 0)
(0.35947252 -7.3194003e-06 0)
(0.23021243 -2.9575959e-06 0)
(0.13567996 -9.9223497e-07 0)
(0.067870695 -2.3361743e-07 0)
(0.019880219 -3.3448097e-08 0)
(0.019878409 3.0773585e-08 0)
(0.0678646 2.1430841e-07 0)
(0.13566798 9.1120052e-07 0)
(0.23019263 2.7159874e-06 0)
(0.35944282 6.7234246e-06 0)
(0.53133728 1.479601e-05 0)
(0.75105976 2.9559691e-05 0)
(1.0164925 5.3292569e-05 0)
(1.3122638 8.3831653e-05 0)
(1.6051772 0.00010632416 0)
(1.846283 9.3403326e-05 0)
(1.9838307 3.7312437e-05 0)
(1.9838307 -3.7312481e-05 0)
(1.846283 -9.3403473e-05 0)
(1.6051772 -0.00010632441 0)
(1.3122638 -8.3831837e-05 0)
(1.0164925 -5.3292401e-05 0)
(0.75105976 -2.9559004e-05 0)
(0.53133728 -1.4794986e-05 0)
(0.35944282 -6.7224975e-06 0)
(0.23019263 -2.715412e-06 0)
(0.13566798 -9.1075112e-07 0)
(0.0678646 -2.1441692e-07 0)
(0.019878409 -3.0680925e-08 0)
(0.019876745 2.8343319e-08 0)
(0.067858993 1.9742003e-07 0)
(0.13565697 8.3952421e-07 0)
(0.23017441 2.5028316e-06 0)
(0.35941547 6.1976486e-06 0)
(0.53129936 1.3645788e-05 0)
(0.75101183 2.7285299e-05 0)
(1.0164401 4.9271732e-05 0)
(1.3122219 7.7767751e-05 0)
(1.6051688 9.9356203e-05 0)
(1.8463207 8.8213618e-05 0)
(1.9838998 3.5449478e-05 0)
(1.9838998 -3.5449571e-05 0)
(1.8463207 -8.8213813e-05 0)
(1.6051688 -9.9356503e-05 0)
(1.3122219 -7.7767973e-05 0)
(1.0164401 -4.9271578e-05 0)
(0.75101183 -2.7284604e-05 0)
(0.53129936 -1.3644746e-05 0)
(0.35941547 -6.1967051e-06 0)
(0.23017441 -2.5022474e-06 0)
(0.13565697 -8.390687e-07 0)
(0.067858993 -1.9753089e-07 0)
(0.019876745 -2.8249265e-08 0)
(0.019875208 2.6189404e-08 0)
(0.067853818 1.8244712e-07 0)
(0.1356468 7.7595716e-07 0)
(0.23015758 2.3137162e-06 0)
(0.3593902 5.7308717e-06 0)
(0.5312643 1.2623554e-05 0)
(0.75096742 2.526033e-05 0)
(1.0163914 4.5679538e-05 0)
(1.3121824 7.2308091e-05 0)
(1.6051599 9.2973441e-05 0)
(1.8463555 8.3350361e-05 0)
(1.9839652 3.3689468e-05 0)
(1.9839652 -3.3689612e-05 0)
(1.8463555 -8.3350606e-05 0)
(1.6051599 -9.297379e-05 0)
(1.3121824 -7.2308351e-05 0)
(1.0163914 -4.5679402e-05 0)
(0.75096742 -2.5259637e-05 0)
(0.53126429 -1.2622506e-05 0)
(0.3593902 -5.7299241e-06 0)
(0.23015758 -2.313131e-06 0)
(0.1356468 -7.7550172e-07 0)
(0.067853818 -1.8255896e-07 0)
(0.019875208 -2.6095203e-08 0)
(0.019873786 2.4266637e-08 0)
(0.067849027 1.6907734e-07 0)
(0.13563738 7.1918069e-07 0)
(0.230142 2.144746e-06 0)
(0.35936679 5.3135907e-06 0)
(0.53123178 1.1708882e-05 0)
(0.75092616 2.344556e-05 0)
(1.016346 4.2450533e-05 0)
(1.3121452 6.736764e-05 0)
(1.6051509 8.7107592e-05 0)
(1.8463878 7.8785216e-05 0)
(1.9840271 3.202383e-05 0)
(1.9840271 -3.2024024e-05 0)
(1.8463878 -7.8785512e-05 0)
(1.6051509 -8.7107989e-05 0)
(1.3121452 -6.7367934e-05 0)
(1.016346 -4.2450416e-05 0)
(0.75092616 -2.3444876e-05 0)
(0.53123178 -1.1707842e-05 0)
(0.35936679 -5.3126521e-06 0)
(0.230142 -2.1441683e-06 0)
(0.13563738 -7.1873233e-07 0)
(0.067849027 -1.6918856e-07 0)
(0.019873787 -2.4173726e-08 0)
(0.019872467 2.2539446e-08 0)
(0.067844581 1.5706453e-07 0)
(0.13562864 6.6815446e-07 0)
(0.23012754 1.992844e-06 0)
(0.35934505 4.938283e-06 0)
(0.53120156 1.0885564e-05 0)
(0.75088776 2.1809765e-05 0)
(1.0163035 3.95322e-05 0)
(1.31211 6.2876529e-05 0)
(1.6051418 8.1702154e-05 0)
(1.8464178 7.4491951e-05 0)
(1.9840857 3.0444422e-05 0)
(1.9840857 -3.0444659e-05 0)
(1.8464178 -7.4492292e-05 0)
(1.6051418 -8.1702589e-05 0)
(1.31211 -6.287685e-05 0)
(1.0163035 -3.9532097e-05 0)
(0.75088776 -2.1809095e-05 0)
(0.53120156 -1.0884546e-05 0)
(0.35934505 -4.9373678e-06 0)
(0.23012754 -1.9922836e-06 0)
(0.13562864 -6.6772142e-07 0)
(0.067844581 -1.5717319e-07 0)
(0.019872467 -2.2449523e-08 0)
(0.01987124 2.0979361e-08 0)
(0.067840446 1.4621157e-07 0)
(0.13562051 6.2204485e-07 0)
(0.23011408 1.8555421e-06 0)
(0.35932481 4.5989045e-06 0)
(0.53117342 1.0140539e-05 0)
(0.75085195 2.032769e-05 0)
(1.0162638 3.688184e-05 0)
(1.3120768 5.8777045e-05 0)
(1.6051327 7.670685e-05 0)
(1.8464458 7.045145e-05 0)
(1.9841412 2.8945201e-05 0)
(1.9841412 -2.8945473e-05 0)
(1.8464458 -7.0451826e-05 0)
(1.6051327 -7.670731e-05 0)
(1.3120768 -5.8777377e-05 0)
(1.0162638 -3.6881744e-05 0)
(0.75085194 -2.0327039e-05 0)
(0.53117342 -1.0139558e-05 0)
(0.35932481 -4.5980294e-06 0)
(0.23011408 -1.8550105e-06 0)
(0.13562051 -6.2163706e-07 0)
(0.067840446 -1.4631529e-07 0)
(0.01987124 -2.0894484e-08 0)
(0.019870096 1.9563363e-08 0)
(0.067836592 1.3635893e-07 0)
(0.13561293 5.8017702e-07 0)
(0.23010153 1.7308413e-06 0)
(0.35930594 4.2905565e-06 0)
(0.53114716 9.4632065e-06 0)
(0.75081849 1.8978776e-05 0)
(1.0162266 3.4464462e-05 0)
(1.3120455 5.5021054e-05 0)
(1.6051237 7.2080892e-05 0)
(1.8464718 6.6642941e-05 0)
(1.9841938 2.7519736e-05 0)
(1.9841938 -2.7520029e-05 0)
(1.8464718 -6.6643333e-05 0)
(1.6051237 -7.2081355e-05 0)
(1.3120455 -5.5021377e-05 0)
(1.0162266 -3.4464362e-05 0)
(0.75081849 -1.897815e-05 0)
(0.53114716 -9.4622813e-06 0)
(0.35930594 -4.2897422e-06 0)
(0.23010153 -1.7303526e-06 0)
(0.13561293 -5.7980661e-07 0)
(0.067836592 -1.3645483e-07 0)
(0.019870096 -1.9486052e-08 0)
(0.019869029 1.8272613e-08 0)
(0.067832994 1.2737606e-07 0)
(0.13560586 5.4199835e-07 0)
(0.23008981 1.6171034e-06 0)
(0.35928831 4.0092189e-06 0)
(0.53112262 8.8448512e-06 0)
(0.75078719 1.7746073e-05 0)
(1.0161917 3.2251123e-05 0)
(1.3120159 5.1568354e-05 0)
(1.6051149 6.7786438e-05 0)
(1.846496 6.3053203e-05 0)
(1.9842436 2.6163996e-05 0)
(1.9842436 -2.6164291e-05 0)
(1.846496 -6.3053588e-05 0)
(1.6051149 -6.7786879e-05 0)
(1.3120159 -5.1568645e-05 0)
(1.0161917 -3.2251007e-05 0)
(0.75078719 -1.7745478e-05 0)
(0.53112262 -8.8440053e-06 0)
(0.35928831 -4.0084911e-06 0)
(0.23008981 -1.6166752e-06 0)
(0.13560586 -5.4168018e-07 0)
(0.067832994 -1.2746061e-07 0)
(0.019869029 -1.8205953e-08 0)
(0.019868031 1.7091584e-08 0)
(0.067829631 1.1915528e-07 0)
(0.13559924 5.0705292e-07 0)
(0.23007886 1.5129768e-06 0)
(0.35927183 3.751575e-06 0)
(0.53109965 8.2782794e-06 0)
(0.75075787 1.6615568e-05 0)
(1.0161589 3.0217734e-05 0)
(1.311988 4.8384917e-05 0)
(1.6051063 6.3793875e-05 0)
(1.8465187 5.9664037e-05 0)
(1.9842909 2.4872624e-05 0)
(1.9842909 -2.4872897e-05 0)
(1.8465187 -5.966439e-05 0)
(1.6051063 -6.3794263e-05 0)
(1.311988 -4.8385148e-05 0)
(1.0161589 -3.0217591e-05 0)
(0.75075787 -1.6615018e-05 0)
(0.53109965 -8.2775434e-06 0)
(0.35927183 -3.7509656e-06 0)
(0.23007886 -1.5126305e-06 0)
(0.13559924 -5.0680504e-07 0)
(0.067829631 -1.1922422e-07 0)
(0.019868031 -1.7039315e-08 0)
(0.019867097 1.60073e-08 0)
(0.067826482 1.1160665e-07 0)
(0.13559305 4.7495987e-07 0)
(0.2300686 1.4173314e-06 0)
(0.35925639 3.5148467e-06 0)
(0.53107814 7.7574511e-06 0)
(0.75073038 1.5575472e-05 0)
(1.0161281 2.834404e-05 0)
(1.3119617 4.5442086e-05 0)
(1.6050979 6.0073688e-05 0)
(1.8465398 5.6467e-05 0)
(1.9843356 2.3643303e-05 0)
(1.9843356 -2.3643528e-05 0)
(1.8465398 -5.6467293e-05 0)
(1.6050979 -6.0073993e-05 0)
(1.3119617 -4.5442231e-05 0)
(1.0161281 -2.834386e-05 0)
(0.75073038 -1.5574984e-05 0)
(0.53107814 -7.7568636e-06 0)
(0.35925639 -3.514395e-06 0)
(0.2300686 -1.417093e-06 0)
(0.13559305 -4.7480392e-07 0)
(0.067826482 -1.1165493e-07 0)
(0.019867097 -1.5973897e-08 0)
(0.019866221 1.5008856e-08 0)
(0.06782353 1.046545e-07 0)
(0.13558724 4.4539855e-07 0)
(0.23005898 1.3292163e-06 0)
(0.35924191 3.2966997e-06 0)
(0.53105795 7.2772984e-06 0)
(0.75070457 1.4615879e-05 0)
(1.0160992 2.6612854e-05 0)
(1.3119367 4.2715024e-05 0)
(1.6050897 5.6604207e-05 0)
(1.8465596 5.3444513e-05 0)
(1.984378 2.2471052e-05 0)
(1.984378 -2.2471206e-05 0)
(1.8465596 -5.3444717e-05 0)
(1.6050897 -5.6604394e-05 0)
(1.3119367 -4.2715053e-05 0)
(1.0160992 -2.6612629e-05 0)
(0.75070457 -1.4615476e-05 0)
(0.53105795 -7.2769069e-06 0)
(0.35924191 -3.2964531e-06 0)
(0.23005898 -1.3291169e-06 0)
(0.13558724 -4.4535999e-07 0)
(0.067823531 -1.0467615e-07 0)
(0.019866221 -1.4999578e-08 0)
(0.019865399 1.4086993e-08 0)
(0.067820761 9.8234665e-08 0)
(0.1355818 4.1809721e-07 0)
(0.23004995 1.2478243e-06 0)
(0.35922832 3.0951457e-06 0)
(0.531039 6.8334851e-06 0)
(0.75068032 1.3728297e-05 0)
(1.0160719 2.5009543e-05 0)
(1.3119132 4.0182838e-05 0)
(1.6050818 5.3361503e-05 0)
(1.8465781 5.0592763e-05 0)
(1.9844182 2.1355117e-05 0)
(1.9844182 -2.1355176e-05 0)
(1.8465781 -5.0592847e-05 0)
(1.6050818 -5.3361536e-05 0)
(1.3119132 -4.0182723e-05 0)
(1.0160719 -2.5009269e-05 0)
(0.75068032 -1.372801e-05 0)
(0.531039 -6.8333468e-06 0)
(0.35922832 -3.0951597e-06 0)
(0.23004995 -1.2479001e-06 0)
(0.1355818 -4.1820548e-07 0)
(0.067820761 -9.8222803e-08 0)
(0.0198654 -1.4107915e-08 0)
(0.019864628 1.3233771e-08 0)
(0.067818161 9.2291932e-08 0)
(0.13557668 3.9282184e-07 0)
(0.23004148 1.1724617e-06 0)
(0.35921555 2.9084834e-06 0)
(0.5310212 6.4223198e-06 0)
(0.75065752 1.2905488e-05 0)
(1.0160463 2.3521407e-05 0)
(1.3118909 3.7826711e-05 0)
(1.6050743 5.0329752e-05 0)
(1.8465955 4.7893012e-05 0)
(1.9844563 2.0290187e-05 0)
(1.9844563 -2.0290131e-05 0)
(1.8465955 -4.7892944e-05 0)
(1.6050743 -5.0329595e-05 0)
(1.3118909 -3.7826423e-05 0)
(1.0160463 -2.3521081e-05 0)
(0.75065752 -1.2905355e-05 0)
(0.5310212 -6.4225014e-06 0)
(0.35921555 -2.9088224e-06 0)
(0.23004148 -1.172754e-06 0)
(0.13557668 -3.9311029e-07 0)
(0.067818161 -9.2238727e-08 0)
(0.019864628 -1.3291778e-08 0)
(0.019863903 1.2442424e-08 0)
(0.067815716 8.6779479e-08 0)
(0.13557187 3.6937411e-07 0)
(0.23003351 1.1025381e-06 0)
(0.35920355 2.7352525e-06 0)
(0.53100445 6.0406019e-06 0)
(0.75063606 1.2141166e-05 0)
(1.0160221 2.2137641e-05 0)
(1.3118699 3.5631263e-05 0)
(1.6050669 4.7488913e-05 0)
(1.8466118 4.5346776e-05 0)
(1.9844924 1.9277217e-05 0)
(1.9844924 -1.9277026e-05 0)
(1.8466118 -4.5346524e-05 0)
(1.6050669 -4.7488528e-05 0)
(1.3118699 -3.5630771e-05 0)
(1.0160221 -2.2137262e-05 0)
(0.75063606 -1.2141232e-05 0)
(0.53100445 -6.0411791e-06 0)
(0.35920355 -2.7359886e-06 0)
(0.23003351 -1.1030931e-06 0)
(0.13557187 -3.6987984e-07 0)
(0.067815716 -8.6676134e-08 0)
(0.019863903 -1.2545178e-08 0)
(0.019863221 1.1706956e-08 0)
(0.067813416 8.1655379e-08 0)
(0.13556735 3.4757615e-07 0)
(0.23002601 1.0375275e-06 0)
(0.35919225 2.5741692e-06 0)
(0.53098868 5.6855564e-06 0)
(0.75061585 1.1429877e-05 0)
(1.0159993 2.08485e-05 0)
(1.31185 3.3581541e-05 0)
(1.6050599 4.4827462e-05 0)
(1.8466272 4.2932146e-05 0)
(1.9845266 1.830978e-05 0)
(1.9845266 -1.8309429e-05 0)
(1.8466272 -4.2931679e-05 0)
(1.6050599 -4.482681e-05 0)
(1.31185 -3.3580811e-05 0)
(1.0159993 -2.0848068e-05 0)
(0.75061585 -1.143019e-05 0)
(0.53098868 -5.6866136e-06 0)
(0.35919226 -2.5753821e-06 0)
(0.23002601 -1.0383958e-06 0)
(0.13556735 -3.4833967e-07 0)
(0.067813416 -8.1492178e-08 0)
(0.019863221 -1.1862839e-08 0)
(0.019862579 1.1022397e-08 0)
(0.067811252 7.6885463e-08 0)
(0.13556309 3.2728345e-07 0)
(0.23001895 9.7699705e-07 0)
(0.35918162 2.4241505e-06 0)
(0.53097384 5.3547841e-06 0)
(0.75059681 1.0766893e-05 0)
(1.0159778 1.9645972e-05 0)
(1.3118312 3.1666469e-05 0)
(1.6050532 4.2328421e-05 0)
(1.8466415 4.0657546e-05 0)
(1.984559 1.7391057e-05 0)
(1.984559 -1.7390522e-05 0)
(1.8466415 -4.0656828e-05 0)
(1.6050532 -4.2327458e-05 0)
(1.3118312 -3.1665467e-05 0)
(1.0159778 -1.9645488e-05 0)
(0.75059681 -1.0767508e-05 0)
(0.53097384 -5.3564126e-06 0)
(0.35918162 -2.4259262e-06 0)
(0.23001895 -9.7823319e-07 0)
(0.13556309 -3.2834823e-07 0)
(0.067811252 -7.6651882e-08 0)
(0.019862579 -1.1240416e-08 0)
(0.019861974 1.0383978e-08 0)
(0.067809213 7.2435902e-08 0)
(0.13555907 3.0835216e-07 0)
(0.2300123 9.2052449e-07 0)
(0.3591716 2.2841811e-06 0)
(0.53095985 5.0461193e-06 0)
(0.75057886 1.0147948e-05 0)
(1.0159575 1.8522188e-05 0)
(1.3118134 2.9873241e-05 0)
(1.6050467 3.9983023e-05 0)
(1.8466551 3.8495262e-05 0)
(1.9845898 1.6512489e-05 0)
(1.9845898 -1.6511741e-05 0)
(1.8466551 -3.8494255e-05 0)
(1.6050467 -3.99817e-05 0)
(1.3118134 -2.9871925e-05 0)
(1.0159575 -1.8521652e-05 0)
(0.75057886 -1.0148923e-05 0)
(0.53095985 -5.0484166e-06 0)
(0.3591716 -2.286611e-06 0)
(0.2300123 -9.22186e-07 0)
(0.13555907 -3.0976395e-07 0)
(0.067809213 -7.2120653e-08 0)
(0.019861974 -1.0673643e-08 0)
(0.019861404 9.7882446e-09 0)
(0.067807291 6.8283513e-08 0)
(0.13555529 2.9068474e-07 0)
(0.23000603 8.6781152e-07 0)
(0.35916216 2.1534876e-06 0)
(0.53094666 4.7577922e-06 0)
(0.75056193 9.569535e-06 0)
(1.0159384 1.7471463e-05 0)
(1.3117965 2.8194806e-05 0)
(1.6050405 3.7777587e-05 0)
(1.8466677 3.6463333e-05 0)
(1.9846188 1.5680496e-05 0)
(1.9846188 -1.5679505e-05 0)
(1.8466677 -3.6461995e-05 0)
(1.6050405 -3.7775851e-05 0)
(1.3117965 -2.8193135e-05 0)
(1.0159384 -1.7470875e-05 0)
(0.75056194 -9.5709318e-06 0)
(0.53094666 -4.7608611e-06 0)
(0.35916216 -2.1566672e-06 0)
(0.23000603 -8.699584e-07 0)
(0.13555529 -2.9249102e-07 0)
(0.067807291 -6.7874838e-08 0)
(0.019861404 -1.0159411e-08 0)
(0.019860867 9.2309817e-09 0)
(0.067805479 6.439744e-08 0)
(0.13555173 2.7414933e-07 0)
(0.23000012 8.1847877e-07 0)
(0.35915325 2.0311917e-06 0)
(0.53093421 4.4879997e-06 0)
(0.75054596 9.0281101e-06 0)
(1.0159203 1.6486856e-05 0)
(1.3117806 2.6618695e-05 0)
(1.6050346 3.5703874e-05 0)
(1.8466798 3.4524494e-05 0)
(1.9846465 1.4882926e-05 0)
(1.9846465 -1.4881662e-05 0)
(1.8466798 -3.4522782e-05 0)
(1.6050346 -3.5701671e-05 0)
(1.3117806 -2.6616627e-05 0)
(1.0159203 -1.6486218e-05 0)
(0.75054596 -9.0299935e-06 0)
(0.53093422 -4.4919456e-06 0)
(0.35915325 -2.0352187e-06 0)
(0.23000012 -8.2117185e-07 0)
(0.13555173 -2.7639816e-07 0)
(0.067805479 -6.388316e-08 0)
(0.019860867 -9.6936771e-09 0)
(0.01986036 8.7105031e-09 0)
(0.06780377 6.0767959e-08 0)
(0.13554837 2.5870633e-07 0)
(0.22999455 7.7238777e-07 0)
(0.35914485 1.9168612e-06 0)
(0.53092248 4.2356086e-06 0)
(0.75053089 8.5213696e-06 0)
(1.0159032 1.556518e-05 0)
(1.3117655 2.5142816e-05 0)
(1.605029 3.3753529e-05 0)
(1.846691 3.2710771e-05 0)
(1.9846726 1.4131192e-05 0)
(1.9846726 -1.4129622e-05 0)
(1.846691 -3.2708643e-05 0)
(1.605029 -3.3750807e-05 0)
(1.3117655 -2.514031e-05 0)
(1.0159032 -1.5564501e-05 0)
(0.75053089 -8.5238091e-06 0)
(0.53092248 -4.2405397e-06 0)
(0.35914485 -1.9218336e-06 0)
(0.22999455 -7.7568721e-07 0)
(0.13554837 -2.6144494e-07 0)
(0.06780377 -6.0135491e-08 0)
(0.01986036 -9.2747039e-09 0)
(0.019859881 8.2221245e-09 0)
(0.067802156 5.7358955e-08 0)
(0.13554519 2.442003e-07 0)
(0.22998928 7.2910785e-07 0)
(0.35913691 1.8095726e-06 0)
(0.53091139 3.9988803e-06 0)
(0.75051664 8.045962e-06 0)
(1.0158871 1.4699231e-05 0)
(1.3117512 2.3752424e-05 0)
(1.6050236 3.1914828e-05 0)
(1.8467017 3.0969891e-05 0)
(1.9846975 1.3407334e-05 0)
(1.9846975 -1.3405433e-05 0)
(1.8467017 -3.0967316e-05 0)
(1.6050236 -3.1911543e-05 0)
(1.3117512 -2.3749451e-05 0)
(1.0158871 -1.4698526e-05 0)
(0.75051664 -8.0490354e-06 0)
(0.53091139 -4.0049107e-06 0)
(0.35913691 -1.8155911e-06 0)
(0.22998928 -7.3307457e-07 0)
(0.13554519 -2.4747432e-07 0)
(0.067802156 -5.6597102e-08 0)
(0.019859881 -8.8972006e-09 0)
(0.01985943 7.7674252e-09 0)
(0.067800634 5.4186282e-08 0)
(0.13554219 2.307015e-07 0)
(0.22998431 6.8879499e-07 0)
(0.35912943 1.7094828e-06 0)
(0.53090093 3.7776858e-06 0)
(0.7505032 7.6013857e-06 0)
(1.0158719 1.3889701e-05 0)
(1.3117377 2.2453576e-05 0)
(1.6050185 3.0190209e-05 0)
(1.8467117 2.9354853e-05 0)
(1.9847208 1.2730682e-05 0)
(1.9847208 -1.272843e-05 0)
(1.8467117 -2.9351818e-05 0)
(1.6050185 -3.0186333e-05 0)
(1.3117377 -2.245012e-05 0)
(1.0158719 -1.3888999e-05 0)
(0.75050321 -7.6051751e-06 0)
(0.53090094 -3.7849243e-06 0)
(0.35912943 -1.7166398e-06 0)
(0.22998432 -6.9348343e-07 0)
(0.13554219 -2.3455167e-07 0)
(0.067800634 -5.3284509e-08 0)
(0.01985943 -8.5617535e-09 0)
(0.019859002 7.3385931e-09 0)
(0.067799192 5.1187411e-08 0)
(0.13553936 2.1794055e-07 0)
(0.22997961 6.5073207e-07 0)
(0.35912233 1.6151837e-06 0)
(0.53089102 3.569687e-06 0)
(0.75049046 7.1834154e-06 0)
(1.0158574 1.3126851e-05 0)
(1.3117249 2.1224482e-05 0)
(1.6050136 2.8556936e-05 0)
(1.8467212 2.7790575e-05 0)
(1.9847433 1.207416e-05 0)
(1.9847433 -1.2071569e-05 0)
(1.8467212 -2.7787074e-05 0)
(1.6050136 -2.8552461e-05 0)
(1.3117249 -2.122055e-05 0)
(1.0158574 -1.3126198e-05 0)
(0.75049047 -7.1880078e-06 0)
(0.53089103 -3.5782332e-06 0)
(0.35912234 -1.6235561e-06 0)
(0.22997961 -6.5618371e-07 0)
(0.13553936 -2.2239743e-07 0)
(0.067799192 -5.0134813e-08 0)
(0.019859002 -8.2592476e-09 0)
(0.0198586 6.945977e-09 0)
(0.067797836 4.8446034e-08 0)
(0.13553669 2.0627605e-07 0)
(0.22997518 6.1583825e-07 0)
(0.35911566 1.5283252e-06 0)
(0.5308817 3.3771921e-06 0)
(0.75047849 6.7956438e-06 0)
(1.0158438 1.2419617e-05 0)
(1.3117128 2.0087513e-05 0)
(1.605009 2.7040489e-05 0)
(1.84673 2.6362459e-05 0)
(1.9847642 1.1469976e-05 0)
(1.9847642 -1.1467085e-05 0)
(1.84673 -2.6358524e-05 0)
(1.6050089 -2.7035445e-05 0)
(1.3117128 -2.0083155e-05 0)
(1.0158438 -1.2419096e-05 0)
(0.7504785 -6.801148e-06 0)