/*--------------------------------*- C++ -*----------------------------------*\
  =========                 |
  \\      /  F ield         | OpenFOAM: The Open Source CFD Toolbox
   \\    /   O peration     | Website:  https://openfoam.org
    \\  /    A nd           | Version:  10
     \\/     M anipulation  |
\*---------------------------------------------------------------------------*/
FoamFile
{
    format      ascii;
    class       volScalarField;
    location    "47";
    object      T;
}
// * * * * * * * * * * * * * * * * * * * * * * * * * * * * * * * * * * * * * //

dimensions      [0 0 0 1 0 0 0];

internalField   nonuniform List<scalar> 
10000
(
374.991
361.309
356.641
354.603
353.503
352.814
352.338
351.986
351.714
351.496
351.316
351.164
351.033
350.919
350.819
350.729
350.648
350.574
350.506
350.443
350.385
350.33
350.279
350.231
350.185
350.142
350.1
350.061
350.023
349.987
349.952
349.918
349.886
349.855
349.824
349.795
349.766
349.739
349.712
349.686
349.661
349.636
349.612
349.588
349.566
349.543
349.522
349.5
349.48
349.46
349.44
349.421
349.402
349.384
349.366
349.349
349.332
349.316
349.3
349.284
349.269
349.254
349.24
349.226
349.212
349.199
349.187
349.174
349.162
349.151
349.14
349.129
349.118
349.108
349.099
349.089
349.081
349.072
349.064
349.056
349.049
349.042
349.035
349.029
349.023
349.018
349.013
349.008
349.004
349
348.996
348.993
348.99
348.988
348.986
348.984
348.982
348.982
348.981
348.981
388.633
374.912
367.295
362.87
360.099
358.23
356.889
355.879
355.088
354.448
353.918
353.47
353.083
352.745
352.446
352.178
351.936
351.715
351.512
351.324
351.15
350.987
350.834
350.689
350.552
350.423
350.299
350.181
350.067
349.959
349.854
349.754
349.657
349.563
349.472
349.384
349.299
349.216
349.135
349.057
348.981
348.907
348.835
348.765
348.696
348.629
348.564
348.501
348.439
348.379
348.32
348.262
348.206
348.152
348.099
348.047
347.996
347.947
347.899
347.852
347.807
347.762
347.719
347.678
347.637
347.598
347.56
347.523
347.487
347.452
347.419
347.386
347.355
347.325
347.296
347.268
347.242
347.216
347.192
347.169
347.147
347.126
347.106
347.087
347.07
347.054
347.038
347.024
347.011
346.999
346.989
346.979
346.97
346.963
346.957
346.952
346.948
346.945
346.943
346.942
393.261
382.412
374.756
369.485
365.792
363.117
361.11
359.554
358.311
357.292
356.44
355.714
355.085
354.533
354.042
353.602
353.203
352.838
352.503
352.193
351.905
351.634
351.381
351.141
350.914
350.698
350.493
350.297
350.108
349.928
349.754
349.587
349.425
349.269
349.118
348.971
348.829
348.691
348.558
348.427
348.301
348.177
348.057
347.94
347.826
347.715
347.607
347.501
347.398
347.298
347.2
347.104
347.011
346.92
346.831
346.745
346.661
346.578
346.499
346.421
346.345
346.271
346.2
346.13
346.062
345.997
345.933
345.872
345.812
345.754
345.698
345.644
345.592
345.542
345.494
345.448
345.404
345.361
345.321
345.282
345.246
345.211
345.178
345.147
345.117
345.09
345.065
345.041
345.019
345
344.982
344.966
344.952
344.939
344.929
344.92
344.913
344.909
344.906
344.905
395.261
386.72
379.833
374.523
370.466
367.337
364.882
362.916
361.309
359.971
358.837
357.861
357.01
356.259
355.589
354.985
354.436
353.934
353.471
353.042
352.642
352.267
351.914
351.581
351.266
350.965
350.679
350.405
350.143
349.891
349.649
349.415
349.19
348.972
348.761
348.556
348.358
348.165
347.978
347.796
347.619
347.447
347.279
347.115
346.956
346.8
346.649
346.501
346.357
346.217
346.079
345.946
345.815
345.688
345.564
345.443
345.325
345.21
345.099
344.99
344.884
344.781
344.68
344.583
344.488
344.397
344.308
344.221
344.138
344.057
343.979
343.903
343.831
343.761
343.693
343.629
343.567
343.507
343.451
343.397
343.345
343.297
343.25
343.207
343.166
343.128
343.092
343.059
343.029
343.001
342.976
342.954
342.934
342.917
342.902
342.89
342.881
342.874
342.87
342.868
396.322
389.375
383.332
378.307
374.211
370.884
368.165
365.918
364.039
362.445
361.076
359.885
358.837
357.906
357.07
356.314
355.624
354.991
354.406
353.862
353.355
352.879
352.43
352.006
351.603
351.22
350.855
350.505
350.169
349.847
349.537
349.238
348.949
348.67
348.399
348.137
347.883
347.636
347.396
347.162
346.935
346.714
346.499
346.289
346.084
345.885
345.69
345.5
345.315
345.135
344.959
344.787
344.62
344.456
344.297
344.142
343.99
343.843
343.699
343.559
343.423
343.291
343.162
343.037
342.915
342.797
342.683
342.572
342.465
342.361
342.261
342.164
342.07
341.98
341.894
341.811
341.731
341.655
341.582
341.513
341.447
341.384
341.325
341.269
341.216
341.167
341.121
341.079
341.04
341.004
340.972
340.943
340.918
340.896
340.877
340.861
340.849
340.841
340.835
340.833
396.972
391.127
385.812
381.164
377.189
373.823
370.975
368.555
366.484
364.696
363.137
361.766
360.548
359.458
358.473
357.578
356.757
356.002
355.301
354.649
354.038
353.465
352.923
352.411
351.924
351.46
351.016
350.592
350.185
349.794
349.417
349.053
348.701
348.361
348.032
347.713
347.403
347.102
346.81
346.525
346.249
345.979
345.716
345.46
345.211
344.968
344.73
344.499
344.273
344.053
343.838
343.628
343.424
343.225
343.03
342.84
342.656
342.476
342.3
342.13
341.963
341.802
341.644
341.492
341.343
341.199
341.06
340.924
340.793
340.666
340.544
340.426
340.311
340.202
340.096
339.995
339.897
339.804
339.715
339.63
339.55
339.473
339.401
339.333
339.268
339.208
339.153
339.101
339.053
339.01
338.97
338.935
338.904
338.877
338.854
338.835
338.82
338.81
338.803
338.801
397.409
392.351
387.624
383.347
379.559
376.244
373.358
370.844
368.647
366.718
365.013
363.495
362.134
360.905
359.789
358.767
357.828
356.959
356.151
355.396
354.688
354.021
353.39
352.792
352.223
351.681
351.162
350.665
350.188
349.729
349.286
348.859
348.446
348.046
347.659
347.283
346.919
346.565
346.22
345.885
345.559
345.241
344.932
344.63
344.336
344.049
343.769
343.496
343.23
342.97
342.717
342.47
342.228
341.993
341.764
341.54
341.322
341.109
340.902
340.701
340.505
340.314
340.128
339.948
339.773
339.603
339.438
339.278
339.123
338.974
338.829
338.689
338.555
338.425
338.3
338.18
338.066
337.956
337.851
337.75
337.655
337.565
337.479
337.399
337.323
337.252
337.186
337.125
337.069
337.018
336.971
336.93
336.893
336.861
336.834
336.812
336.794
336.782
336.774
336.771
397.722
393.245
388.987
385.042
381.457
378.238
375.368
372.816
370.545
368.518
366.703
365.068
363.589
362.243
361.011
359.878
358.83
357.857
356.949
356.098
355.298
354.543
353.827
353.148
352.5
351.882
351.29
350.722
350.176
349.651
349.144
348.655
348.181
347.723
347.278
346.847
346.428
346.022
345.626
345.241
344.866
344.5
344.144
343.797
343.459
343.129
342.807
342.493
342.186
341.887
341.595
341.311
341.033
340.762
340.498
340.24
339.989
339.744
339.505
339.273
339.047
338.827
338.614
338.406
338.204
338.008
337.818
337.634
337.456
337.283
337.116
336.955
336.8
336.651
336.507
336.369
336.237
336.11
335.989
335.873
335.764
335.659
335.561
335.468
335.381
335.299
335.223
335.153
335.088
335.029
334.975
334.927
334.885
334.848
334.817
334.791
334.771
334.757
334.748
334.744
397.956
393.92
390.037
386.378
382.988
379.884
377.062
374.508
372.199
370.109
368.213
366.488
364.913
363.468
362.136
360.905
359.76
358.693
357.693
356.753
355.867
355.028
354.232
353.474
352.751
352.06
351.397
350.761
350.149
349.559
348.989
348.439
347.906
347.39
346.889
346.404
345.932
345.473
345.026
344.592
344.168
343.756
343.354
342.962
342.58
342.207
341.843
341.488
341.141
340.803
340.473
340.151
339.837
339.531
339.232
338.941
338.656
338.38
338.11
337.847
337.591
337.343
337.101
336.866
336.637
336.415
336.2
335.992
335.79
335.595
335.406
335.224
335.049
334.879
334.717
334.56
334.411
334.267
334.13
333.999
333.875
333.757
333.646
333.541
333.442
333.349
333.263
333.184
333.11
333.043
332.983
332.928
332.88
332.839
332.803
332.774
332.752
332.735
332.725
332.721
398.135
394.444
390.862
387.446
384.235
381.248
378.491
375.957
373.634
371.506
369.554
367.761
366.108
364.581
363.165
361.847
360.617
359.464
358.38
357.358
356.391
355.474
354.602
353.77
352.975
352.214
351.483
350.78
350.103
349.451
348.82
348.21
347.619
347.047
346.491
345.952
345.427
344.917
344.421
343.938
343.467
343.008
342.56
342.124
341.698
341.283
340.877
340.482
340.096
339.719
339.351
338.992
338.642
338.3
337.967
337.642
337.325
337.016
336.716
336.423
336.137
335.86
335.59
335.328
335.073
334.825
334.585
334.353
334.128
333.91
333.699
333.496
333.3
333.111
332.93
332.755
332.588
332.428
332.275
332.129
331.99
331.859
331.734
331.617
331.507
331.404
331.307
331.218
331.137
331.062
330.994
330.933
330.88
330.833
330.794
330.761
330.736
330.718
330.707
330.703
398.277
394.858
391.522
388.311
385.258
382.383
379.696
377.196
374.877
372.729
370.739
368.894
367.181
365.586
364.097
362.705
361.399
360.169
359.009
357.911
356.87
355.88
354.936
354.034
353.17
352.341
351.545
350.779
350.039
349.326
348.636
347.968
347.321
346.693
346.083
345.491
344.915
344.355
343.809
343.278
342.76
342.255
341.763
341.282
340.814
340.356
339.91
339.474
339.049
338.634
338.228
337.833
337.447
337.07
336.703
336.345
335.995
335.655
335.323
335
334.685
334.379
334.081
333.792
333.511
333.238
332.973
332.717
332.468
332.228
331.996
331.771
331.555
331.347
331.146
330.954
330.769
330.592
330.424
330.263
330.11
329.964
329.827
329.698
329.576
329.462
329.356
329.258
329.167
329.085
329.01
328.943
328.884
328.833
328.789
328.753
328.725
328.705
328.693
328.688
398.39
395.192
392.056
389.018
386.104
383.333
380.716
378.256
375.951
373.796
371.781
369.899
368.137
366.487
364.937
363.48
362.107
360.809
359.579
358.412
357.302
356.244
355.232
354.264
353.335
352.442
351.583
350.755
349.956
349.183
348.436
347.711
347.009
346.327
345.665
345.021
344.395
343.785
343.191
342.612
342.048
341.498
340.961
340.438
339.927
339.428
338.941
338.465
338.001
337.548
337.105
336.674
336.252
335.841
335.44
335.048
334.666
334.294
333.932
333.579
333.235
332.901
332.575
332.259
331.952
331.653
331.364
331.084
330.812
330.549
330.295
330.05
329.814
329.586
329.367
329.156
328.955
328.761
328.577
328.401
328.233
328.075
327.924
327.783
327.65
327.525
327.409
327.302
327.203
327.113
327.031
326.958
326.893
326.837
326.789
326.75
326.72
326.698
326.684
326.679
398.482
395.464
392.494
389.601
386.807
384.13
381.58
379.162
376.878
374.723
372.695
370.784
368.985
367.289
365.689
364.175
362.743
361.383
360.091
358.861
357.687
356.565
355.49
354.459
353.468
352.515
351.596
350.709
349.852
349.022
348.219
347.44
346.684
345.95
345.236
344.541
343.866
343.207
342.566
341.941
341.331
340.736
340.156
339.59
339.037
338.497
337.969
337.455
336.952
336.461
335.982
335.514
335.058
334.612
334.177
333.753
333.339
332.936
332.543
332.16
331.787
331.425
331.072
330.729
330.396
330.072
329.759
329.454
329.16
328.875
328.599
328.333
328.077
327.83
327.592
327.364
327.145
326.935
326.735
326.544
326.362
326.19
326.027
325.873
325.729
325.594
325.468
325.351
325.244
325.146
325.057
324.978
324.908
324.847
324.795
324.753
324.72
324.696
324.681
324.676
398.558
395.687
392.855
390.085
387.395
384.801
382.313
379.937
377.676
375.528
373.492
371.562
369.733
368
366.356
364.794
363.309
361.895
360.547
359.258
358.025
356.844
355.71
354.62
353.571
352.559
351.583
350.639
349.727
348.842
347.985
347.153
346.345
345.559
344.795
344.052
343.327
342.622
341.934
341.263
340.608
339.97
339.346
338.738
338.143
337.563
336.996
336.443
335.902
335.374
334.859
334.355
333.864
333.384
332.916
332.459
332.014
331.58
331.156
330.744
330.343
329.952
329.572
329.202
328.843
328.495
328.157
327.829
327.512
327.204
326.908
326.621
326.344
326.078
325.822
325.576
325.34
325.114
324.898
324.692
324.496
324.311
324.135
323.969
323.814
323.668
323.532
323.407
323.291
323.185
323.09
323.004
322.929
322.863
322.807
322.761
322.726
322.7
322.684
322.678
398.621
395.872
393.156
390.489
387.889
385.368
382.936
380.6
378.363
376.225
374.185
372.241
370.39
368.625
366.944
365.34
363.809
362.346
360.946
359.605
358.318
357.081
355.892
354.747
353.642
352.575
351.544
350.547
349.58
348.643
347.733
346.85
345.991
345.156
344.343
343.551
342.78
342.028
341.294
340.578
339.88
339.198
338.532
337.882
337.247
336.627
336.021
335.429
334.851
334.286
333.735
333.196
332.67
332.157
331.656
331.167
330.69
330.225
329.772
329.33
328.901
328.482
328.075
327.679
327.295
326.921
326.559
326.208
325.868
325.539
325.221
324.913
324.617
324.332
324.057
323.793
323.54
323.298
323.067
322.846
322.636
322.437
322.249
322.071
321.905
321.748
321.603
321.468
321.344
321.231
321.129
321.037
320.956
320.885
320.826
320.777
320.738
320.711
320.694
320.687
398.673
396.027
393.407
390.828
388.304
385.847
383.466
381.166
378.952
376.825
374.786
372.832
370.962
369.172
367.459
365.818
364.247
362.739
361.292
359.902
358.565
357.278
356.037
354.839
353.682
352.563
351.48
350.43
349.412
348.424
347.464
346.531
345.623
344.74
343.879
343.04
342.223
341.425
340.647
339.887
339.146
338.422
337.714
337.023
336.348
335.689
335.044
334.415
333.799
333.198
332.611
332.038
331.478
330.931
330.397
329.877
329.369
328.873
328.39
327.92
327.462
327.016
326.582
326.16
325.75
325.352
324.966
324.591
324.229
323.878
323.539
323.211
322.895
322.591
322.298
322.017
321.747
321.488
321.242
321.006
320.783
320.57
320.369
320.18
320.002
319.835
319.68
319.537
319.404
319.284
319.174
319.076
318.99
318.915
318.851
318.799
318.758
318.728
318.71
318.704
398.716
396.156
393.617
391.112
388.654
386.253
383.916
381.649
379.457
377.341
375.303
373.343
371.458
369.646
367.905
366.232
364.624
363.077
361.588
360.153
358.769
357.434
356.145
354.898
353.691
352.522
351.389
350.29
349.223
348.186
347.177
346.196
345.241
344.31
343.403
342.519
341.656
340.814
339.992
339.189
338.406
337.64
336.892
336.16
335.446
334.748
334.065
333.398
332.747
332.11
331.488
330.88
330.286
329.706
329.14
328.588
328.049
327.524
327.012
326.512
326.026
325.553
325.092
324.645
324.21
323.787
323.377
322.98
322.595
322.222
321.862
321.514
321.179
320.856
320.545
320.246
319.959
319.685
319.423
319.173
318.936
318.71
318.497
318.295
318.106
317.93
317.765
317.612
317.472
317.343
317.227
317.123
317.031
316.952
316.884
316.828
316.785
316.754
316.735
316.727
398.753
396.264
393.793
391.352
388.95
386.596
384.297
382.06
379.888
377.783
375.747
373.781
371.884
370.054
368.289
366.587
364.946
363.362
361.834
360.358
358.932
357.552
356.217
354.924
353.67
352.454
351.274
350.127
349.012
347.928
346.873
345.845
344.844
343.867
342.915
341.986
341.079
340.194
339.33
338.485
337.66
336.853
336.065
335.294
334.541
333.804
333.085
332.381
331.693
331.021
330.364
329.722
329.095
328.483
327.885
327.302
326.733
326.177
325.636
325.108
324.595
324.094
323.607
323.134
322.674
322.227
321.794
321.374
320.966
320.572
320.192
319.824
319.469
319.127
318.798
318.482
318.179
317.889
317.611
317.347
317.096
316.857
316.631
316.418
316.218
316.031
315.857
315.695
315.547
315.411
315.288
315.178
315.081
314.996
314.925
314.866
314.82
314.787
314.767
314.759
398.783
396.355
393.941
391.553
389.198
386.885
384.62
382.408
380.254
378.159
376.126
374.155
372.247
370.4
368.614
366.886
365.215
363.599
362.035
360.521
359.054
357.633
356.255
354.918
353.62
352.359
351.133
349.941
348.781
347.651
346.551
345.478
344.432
343.412
342.416
341.443
340.494
339.566
338.659
337.774
336.908
336.061
335.233
334.424
333.633
332.859
332.102
331.363
330.639
329.932
329.241
328.566
327.906
327.262
326.632
326.018
325.419
324.834
324.264
323.708
323.167
322.64
322.127
321.628
321.143
320.673
320.216
319.773
319.344
318.929
318.527
318.139
317.765
317.405
317.058
316.725
316.405
316.099
315.807
315.528
315.263
315.012
314.774
314.549
314.338
314.141
313.957
313.787
313.63
313.487
313.357
313.241
313.138
313.049
312.974
312.912
312.864
312.829
312.807
312.799
398.809
396.43
394.065
391.722
389.407
387.129
384.892
382.702
380.563
378.476
376.446
374.471
372.553
370.692
368.886
367.135
365.436
363.789
362.192
360.642
359.138
357.678
356.26
354.881
353.541
352.238
350.969
349.733
348.529
347.356
346.212
345.096
344.006
342.943
341.904
340.89
339.898
338.929
337.982
337.056
336.15
335.264
334.398
333.551
332.722
331.911
331.119
330.343
329.585
328.844
328.119
327.41
326.718
326.042
325.382
324.737
324.108
323.494
322.895
322.312
321.743
321.19
320.651
320.127
319.618
319.124
318.644
318.178
317.728
317.291
316.869
316.462
316.069
315.69
315.325
314.975
314.639
314.318
314.01
313.717
313.439
313.174
312.924
312.688
312.466
312.259
312.066
311.887
311.722
311.571
311.435
311.313
311.205
311.111
311.032
310.967
310.916
310.879
310.857
310.849
398.83
396.494
394.169
391.863
389.582
387.333
385.12
382.948
380.822
378.742
376.713
374.735
372.808
370.933
369.109
367.336
365.612
363.937
362.309
360.726
359.187
357.69
356.233
354.816
353.435
352.091
350.781
349.503
348.257
347.042
345.856
344.698
343.566
342.461
341.381
340.326
339.294
338.284
337.297
336.332
335.387
334.463
333.559
332.674
331.809
330.962
330.133
329.323
328.53
327.755
326.997
326.256
325.532
324.825
324.134
323.459
322.8
322.158
321.531
320.92
320.325
319.745
319.181
318.632
318.099
317.581
317.078
316.59
316.118
315.661
315.218
314.791
314.379
313.982
313.6
313.233
312.881
312.544
312.222
311.915
311.623
311.346
311.083
310.836
310.603
310.386
310.183
309.996
309.823
309.665
309.522
309.394
309.281
309.183
309.1
309.031
308.978
308.94
308.916
308.907
398.848
396.546
394.255
391.98
389.727
387.502
385.309
383.153
381.036
378.963
376.934
374.951
373.016
371.127
369.287
367.493
365.746
364.045
362.387
360.773
359.201
357.669
356.177
354.722
353.303
351.92
350.57
349.253
347.966
346.711
345.484
344.285
343.113
341.968
340.847
339.752
338.68
337.632
336.606
335.601
334.619
333.657
332.716
331.795
330.893
330.011
329.147
328.302
327.476
326.667
325.877
325.104
324.348
323.61
322.888
322.184
321.496
320.825
320.171
319.533
318.911
318.305
317.716
317.142
316.585
316.044
315.518
315.009
314.515
314.037
313.575
313.128
312.698
312.283
311.883
311.5
311.131
310.779
310.442
310.121
309.816
309.526
309.251
308.993
308.75
308.522
308.31
308.114
307.933
307.768
307.619
307.485
307.367
307.264
307.177
307.106
307.05
307.01
306.985
306.976
398.862
396.59
394.326
392.077
389.847
387.641
385.464
383.32
381.212
379.142
377.113
375.125
373.181
371.281
369.424
367.611
365.842
364.115
362.431
360.787
359.183
357.619
356.092
354.601
353.146
351.725
350.338
348.982
347.657
346.362
345.096
343.858
342.647
341.462
340.303
339.168
338.058
336.971
335.907
334.865
333.845
332.847
331.869
330.912
329.975
329.058
328.16
327.281
326.421
325.58
324.757
323.953
323.166
322.397
321.646
320.912
320.196
319.497
318.815
318.15
317.502
316.871
316.256
315.659
315.078
314.513
313.966
313.434
312.919
312.421
311.939
311.473
311.024
310.591
310.175
309.774
309.391
309.023
308.672
308.337
308.018
307.715
307.429
307.159
306.906
306.668
306.447
306.242
306.054
305.882
305.726
305.586
305.463
305.356
305.265
305.19
305.132
305.09
305.064
305.055
398.874
396.625
394.384
392.155
389.944
387.754
385.59
383.455
381.353
379.285
377.254
375.261
373.308
371.396
369.524
367.692
365.902
364.151
362.441
360.769
359.136
357.54
355.98
354.456
352.966
351.509
350.085
348.692
347.33
345.997
344.693
343.417
342.167
340.945
339.747
338.575
337.427
336.303
335.202
334.123
333.067
332.033
331.019
330.027
329.055
328.104
327.172
326.26
325.368
324.494
323.64
322.804
321.987
321.188
320.407
319.645
318.9
318.173
317.464
316.773
316.099
315.442
314.803
314.182
313.577
312.99
312.42
311.867
311.332
310.813
310.311
309.827
309.359
308.909
308.475
308.058
307.659
307.276
306.91
306.562
306.23
305.915
305.617
305.336
305.072
304.825
304.594
304.381
304.185
304.006
303.843
303.698
303.569
303.458
303.363
303.286
303.225
303.181
303.155
303.145
398.884
396.653
394.43
392.218
390.021
387.844
385.69
383.562
381.463
379.396
377.362
375.363
373.401
371.476
369.589
367.74
365.929
364.156
362.42
360.722
359.06
357.434
355.843
354.286
352.762
351.271
349.812
348.384
346.985
345.616
344.275
342.962
341.676
340.416
339.182
337.973
336.789
335.628
334.491
333.376
332.284
331.215
330.167
329.14
328.134
327.149
326.184
325.239
324.315
323.409
322.524
321.657
320.81
319.982
319.172
318.381
317.608
316.854
316.119
315.401
314.702
314.02
313.357
312.711
312.084
311.474
310.882
310.308
309.752
309.213
308.692
308.189
307.703
307.235
306.785
306.352
305.937
305.539
305.159
304.797
304.452
304.125
303.815
303.523
303.249
302.992
302.753
302.531
302.327
302.141
301.972
301.821
301.687
301.571
301.473
301.392
301.329
301.284
301.256
301.246
398.891
396.675
394.466
392.267
390.081
387.913
385.766
383.642
381.546
379.477
377.44
375.434
373.463
371.525
369.623
367.757
365.926
364.131
362.372
360.648
358.958
357.303
355.682
354.094
352.538
351.014
349.521
348.058
346.625
345.22
343.844
342.495
341.173
339.878
338.608
337.363
336.142
334.946
333.774
332.624
331.498
330.393
329.311
328.25
327.211
326.193
325.196
324.219
323.263
322.326
321.41
320.513
319.636
318.779
317.941
317.122
316.322
315.541
314.779
314.035
313.311
312.605
311.917
311.248
310.598
309.966
309.352
308.757
308.18
307.622
307.082
306.56
306.056
305.571
305.104
304.655
304.224
303.812
303.418
303.042
302.684
302.345
302.024
301.721
301.436
301.17
300.922
300.692
300.48
300.287
300.112
299.955
299.817
299.696
299.594
299.511
299.445
299.398
299.37
299.359
398.897
396.692
394.493
392.303
390.126
387.964
385.822
383.701
381.604
379.533
377.49
375.478
373.496
371.546
369.629
367.745
365.895
364.079
362.297
360.548
358.832
357.149
355.499
353.881
352.294
350.738
349.212
347.716
346.249
344.811
343.4
342.017
340.66
339.329
338.024
336.744
335.489
334.258
333.051
331.868
330.707
329.569
328.453
327.359
326.287
325.237
324.208
323.2
322.212
321.245
320.299
319.372
318.466
317.58
316.714
315.867
315.04
314.232
313.444
312.676
311.926
311.196
310.485
309.793
309.12
308.466
307.831
307.215
306.618
306.04
305.481
304.941
304.419
303.917
303.433
302.969
302.523
302.096
301.688
301.299
300.928
300.577
300.244
299.931
299.636
299.36
299.103
298.865
298.646
298.445
298.264
298.102
297.958
297.834
297.728
297.642
297.574
297.525
297.495
297.484
398.901
396.704
394.512
392.329
390.157
387.999
385.859
383.738
381.64
379.565
377.517
375.496
373.503
371.541
369.609
367.708
365.839
364.002
362.197
360.424
358.683
356.974
355.295
353.648
352.031
350.444
348.887
347.359
345.859
344.388
342.944
341.526
340.136
338.771
337.432
336.119
334.83
333.565
332.324
331.107
329.913
328.742
327.593
326.467
325.363
324.281
323.22
322.181
321.163
320.166
319.19
318.235
317.3
316.385
315.491
314.618
313.764
312.93
312.116
311.322
310.548
309.794
309.06
308.345
307.65
306.974
306.318
305.682
305.065
304.467
303.89
303.331
302.792
302.273
301.773
301.293
300.832
300.391
299.969
299.566
299.183
298.82
298.476
298.152
297.847
297.562
297.296
297.05
296.823
296.616
296.429
296.261
296.112
295.984
295.874
295.785
295.715
295.664
295.634
295.622
398.904
396.712
394.525
392.345
390.176
388.02
385.88
383.758
381.656
379.577
377.521
375.491
373.488
371.512
369.565
367.648
365.76
363.903
362.076
360.279
358.514
356.778
355.073
353.397
351.751
350.135
348.547
346.987
345.456
343.952
342.476
341.026
339.602
338.205
336.833
335.486
334.164
332.866
331.592
330.342
329.116
327.912
326.732
325.574
324.439
323.325
322.234
321.164
320.116
319.09
318.085
317.101
316.138
315.195
314.274
313.373
312.493
311.634
310.795
309.976
309.178
308.4
307.643
306.905
306.188
305.491
304.814
304.158
303.521
302.905
302.308
301.732
301.176
300.64
300.124
299.628
299.152
298.697
298.261
297.846
297.451
297.075
296.72
296.385
296.071
295.776
295.502
295.248
295.014
294.8
294.606
294.433
294.28
294.147
294.034
293.941
293.869
293.817
293.785
293.773
398.905
396.716
394.531
392.353
390.185
388.029
385.887
383.762
381.655
379.569
377.506
375.466
373.451
371.462
369.5
367.566
365.66
363.782
361.934
360.115
358.325
356.564
354.832
353.129
351.455
349.809
348.192
346.602
345.04
343.505
341.997
340.516
339.06
337.63
336.226
334.847
333.492
332.162
330.856
329.575
328.316
327.081
325.869
324.68
323.514
322.37
321.249
320.149
319.072
318.017
316.983
315.97
314.98
314.01
313.062
312.135
311.229
310.344
309.48
308.638
307.816
307.014
306.234
305.474
304.736
304.017
303.32
302.643
301.988
301.352
300.738
300.144
299.571
299.018
298.486
297.975
297.485
297.015
296.566
296.138
295.73
295.343
294.977
294.632
294.307
294.004
293.721
293.459
293.217
292.997
292.797
292.618
292.46
292.323
292.207
292.112
292.037
291.983
291.95
291.938
398.905
396.717
394.532
392.354
390.184
388.026
385.881
383.751
381.639
379.545
377.473
375.422
373.395
371.393
369.415
367.464
365.54
363.643
361.773
359.932
358.118
356.332
354.575
352.845
351.144
349.47
347.824
346.205
344.613
343.047
341.509
339.996
338.509
337.048
335.613
334.202
332.816
331.454
330.117
328.804
327.515
326.249
325.006
323.787
322.59
321.417
320.265
319.137
318.031
316.947
315.885
314.845
313.827
312.83
311.856
310.903
309.971
309.062
308.173
307.306
306.461
305.637
304.834
304.052
303.292
302.553
301.836
301.139
300.464
299.81
299.178
298.566
297.976
297.408
296.86
296.334
295.829
295.345
294.883
294.442
294.022
293.624
293.247
292.891
292.557
292.244
291.953
291.683
291.435
291.207
291.002
290.818
290.655
290.514
290.394
290.296
290.219
290.164
290.13
290.117
398.904
396.714
394.528
392.347
390.175
388.013
385.863
383.727
381.608
379.506
377.424
375.362
373.322
371.306
369.313
367.345
365.402
363.486
361.595
359.732
357.895
356.085
354.303
352.547
350.819
349.118
347.443
345.796
344.175
342.58
341.011
339.468
337.951
336.46
334.993
333.552
332.135
330.743
329.375
328.031
326.711
325.415
324.143
322.893
321.667
320.464
319.284
318.127
316.992
315.88
314.791
313.723
312.679
311.656
310.655
309.677
308.721
307.786
306.874
305.983
305.115
304.268
303.443
302.64
301.859
301.099
300.362
299.646
298.952
298.28
297.629
297.001
296.394
295.809
295.246
294.705
294.186
293.688
293.213
292.759
292.328
291.918
291.53
291.164
290.821
290.499
290.199
289.922
289.666
289.432
289.221
289.031
288.864
288.719
288.596
288.494
288.415
288.359
288.324
288.311
398.903
396.709
394.52
392.335
390.158
387.99
385.834
383.692
381.564
379.453
377.36
375.287
373.234
371.203
369.194
367.209
365.249
363.312
361.402
359.516
357.657
355.824
354.017
352.236
350.482
348.754
347.052
345.376
343.727
342.103
340.505
338.933
337.387
335.865
334.369
332.897
331.451
330.028
328.63
327.257
325.907
324.581
323.279
322.001
320.746
319.514
318.305
317.12
315.957
314.818
313.701
312.607
311.536
310.488
309.461
308.458
307.477
306.518
305.582
304.669
303.777
302.908
302.062
301.237
300.435
299.656
298.898
298.163
297.451
296.76
296.093
295.447
294.824
294.223
293.645
293.089
292.556
292.045
291.556
291.09
290.647
290.226
289.827
289.452
289.098
288.768
288.46
288.175
287.912
287.672
287.455
287.26
287.088
286.939
286.812
286.708
286.627
286.568
286.533
286.52
398.901
396.702
394.507
392.317
390.134
387.96
385.797
383.646
381.509
379.388
377.284
375.198
373.131
371.086
369.061
367.059
365.08
363.125
361.194
359.287
357.405
355.549
353.718
351.912
350.133
348.378
346.65
344.947
343.27
341.618
339.992
338.391
336.816
335.265
333.74
332.239
330.763
329.311
327.884
326.481
325.102
323.747
322.416
321.109
319.826
318.566
317.329
316.116
314.927
313.76
312.617
311.497
310.4
309.326
308.274
307.246
306.241
305.259
304.299
303.363
302.449
301.558
300.69
299.845
299.022
298.223
297.446
296.692
295.961
295.253
294.568
293.906
293.266
292.65
292.056
291.486
290.939
290.414
289.913
289.435
288.98
288.548
288.139
287.753
287.391
287.051
286.735
286.442
286.173
285.926
285.703
285.504
285.327
285.174
285.044
284.937
284.854
284.794
284.757
284.744
398.897
396.693
394.492
392.295
390.105
387.923
385.751
383.591
381.444
379.312
377.196
375.097
373.016
370.956
368.915
366.896
364.899
362.924
360.973
359.045
357.142
355.262
353.408
351.578
349.773
347.993
346.239
344.509
342.805
341.126
339.472
337.843
336.239
334.66
333.106
331.577
330.072
328.592
327.136
325.704
324.297
322.914
321.555
320.22
318.908
317.621
316.357
315.117
313.9
312.707
311.538
310.392
309.27
308.17
307.095
306.042
305.013
304.007
303.025
302.066
301.13
300.218
299.328
298.463
297.62
296.801
296.005
295.233
294.483
293.758
293.056
292.377
291.722
291.09
290.482
289.897
289.336
288.798
288.284
287.794
287.327
286.884
286.465
286.07
285.698
285.35
285.026
284.726
284.449
284.197
283.968
283.763
283.582
283.425
283.291
283.182
283.097
283.035
282.998
282.984
398.894
396.682
394.473
392.268
390.07
387.879
385.698
383.527
381.37
379.226
377.097
374.985
372.89
370.814
368.757
366.721
364.705
362.712
360.74
358.792
356.866
354.965
353.087
351.233
349.404
347.599
345.819
344.064
342.333
340.627
338.946
337.29
335.659
334.052
332.47
330.912
329.379
327.871
326.387
324.928
323.492
322.081
320.695
319.332
317.993
316.679
315.388
314.122
312.879
311.66
310.465
309.294
308.146
307.022
305.922
304.846
303.794
302.765
301.76
300.779
299.821
298.887
297.978
297.091
296.229
295.391
294.576
293.785
293.018
292.275
291.556
290.861
290.19
289.543
288.92
288.322
287.747
287.196
286.67
286.168
285.69
285.236
284.807
284.402
284.021
283.665
283.333
283.025
282.742
282.483
282.248
282.038
281.853
281.692
281.555
281.443
281.356
281.293
281.254
281.24
398.889
396.669
394.451
392.238
390.03
387.829
385.638
383.457
381.287
379.131
376.989
374.863
372.754
370.662
368.588
366.535
364.501
362.488
360.497
358.528
356.581
354.657
352.757
350.88
349.026
347.197
345.392
343.611
341.855
340.123
338.415
336.732
335.074
333.44
331.83
330.246
328.685
327.149
325.638
324.151
322.689
321.25
319.837
318.447
317.082
315.741
314.424
313.131
311.863
310.618
309.398
308.202
307.03
305.882
304.758
303.659
302.583
301.532
300.505
299.502
298.523
297.568
296.638
295.732
294.85
293.992
293.159
292.35
291.566
290.806
290.07
289.359
288.673
288.011
287.374
286.761
286.173
285.609
285.071
284.557
284.068
283.603
283.164
282.749
282.36
281.995
281.655
281.34
281.05
280.785
280.545
280.33
280.141
279.976
279.836
279.721
279.632
279.567
279.528
279.513
398.885
396.655
394.427
392.204
389.986
387.775
385.572
383.379
381.197
379.028
376.873
374.732
372.608
370.5
368.41
366.339
364.287
362.255