/*--------------------------------*- C++ -*----------------------------------*\
  =========                 |
  \\      /  F ield         | OpenFOAM: The Open Source CFD Toolbox
   \\    /   O peration     | Website:  https://openfoam.org
    \\  /    A nd           | Version:  10
     \\/     M anipulation  |
\*---------------------------------------------------------------------------*/
FoamFile
{
    format      ascii;
    class       volScalarField;
    location    "47";
    object      T_0;
}
// * * * * * * * * * * * * * * * * * * * * * * * * * * * * * * * * * * * * * //

dimensions      [0 0 0 1 0 0 0];

internalField   nonuniform List<scalar> 
10000
(
374.99
361.309
356.641
354.603
353.503
352.814
352.338
351.986
351.714
351.495
351.315
351.163
351.033
350.919
350.819
350.729
350.647
350.573
350.505
350.443
350.384
350.33
350.279
350.23
350.185
350.141
350.1
350.06
350.023
349.986
349.951
349.918
349.885
349.854
349.824
349.794
349.766
349.738
349.712
349.685
349.66
349.635
349.611
349.588
349.565
349.543
349.521
349.5
349.479
349.459
349.44
349.42
349.402
349.384
349.366
349.348
349.332
349.315
349.299
349.284
349.268
349.254
349.239
349.225
349.212
349.199
349.186
349.174
349.162
349.15
349.139
349.128
349.118
349.108
349.098
349.089
349.08
349.072
349.063
349.056
349.048
349.041
349.035
349.029
349.023
349.017
349.012
349.007
349.003
348.999
348.996
348.992
348.99
348.987
348.985
348.983
348.982
348.981
348.98
348.98
388.633
374.912
367.295
362.87
360.099
358.23
356.889
355.879
355.088
354.448
353.918
353.469
353.083
352.745
352.446
352.178
351.935
351.714
351.512
351.324
351.15
350.987
350.833
350.689
350.552
350.422
350.299
350.18
350.067
349.958
349.854
349.753
349.656
349.562
349.471
349.383
349.298
349.215
349.135
349.056
348.98
348.906
348.834
348.764
348.696
348.629
348.564
348.5
348.438
348.378
348.319
348.262
348.206
348.151
348.098
348.046
347.995
347.946
347.898
347.851
347.806
347.762
347.719
347.677
347.636
347.597
347.559
347.522
347.486
347.451
347.418
347.385
347.354
347.324
347.295
347.267
347.241
347.215
347.191
347.168
347.146
347.125
347.105
347.087
347.069
347.053
347.037
347.023
347.01
346.998
346.988
346.978
346.969
346.962
346.956
346.951
346.947
346.944
346.942
346.941
393.261
382.412
374.756
369.485
365.791
363.117
361.11
359.554
358.31
357.292
356.44
355.713
355.084
354.532
354.042
353.601
353.202
352.838
352.503
352.193
351.904
351.634
351.38
351.14
350.913
350.698
350.492
350.296
350.108
349.927
349.753
349.586
349.424
349.268
349.117
348.97
348.828
348.69
348.556
348.426
348.3
348.176
348.056
347.939
347.825
347.714
347.606
347.5
347.397
347.296
347.198
347.103
347.01
346.919
346.83
346.743
346.659
346.577
346.497
346.419
346.343
346.27
346.198
346.128
346.061
345.995
345.932
345.87
345.81
345.752
345.697
345.643
345.591
345.541
345.493
345.446
345.402
345.36
345.319
345.281
345.244
345.209
345.176
345.145
345.116
345.088
345.063
345.039
345.018
344.998
344.98
344.964
344.95
344.937
344.927
344.918
344.912
344.907
344.904
344.903
395.26
386.72
379.832
374.522
370.465
367.337
364.881
362.915
361.308
359.97
358.836
357.861
357.01
356.259
355.588
354.984
354.435
353.933
353.47
353.041
352.641
352.266
351.913
351.58
351.265
350.964
350.678
350.404
350.142
349.89
349.648
349.414
349.188
348.97
348.759
348.555
348.356
348.164
347.976
347.794
347.617
347.445
347.277
347.114
346.954
346.799
346.647
346.499
346.355
346.215
346.078
345.944
345.813
345.686
345.562
345.441
345.323
345.208
345.096
344.988
344.882
344.778
344.678
344.581
344.486
344.394
344.305
344.219
344.135
344.055
343.977
343.901
343.828
343.758
343.691
343.626
343.564
343.505
343.448
343.394
343.343
343.294
343.248
343.204
343.164
343.125
343.09
343.057
343.026
342.999
342.974
342.951
342.931
342.914
342.899
342.887
342.878
342.871
342.867
342.866
396.321
389.375
383.331
378.307
374.211
370.884
368.164
365.918
364.038
362.445
361.075
359.884
358.836
357.905
357.069
356.313
355.623
354.99
354.405
353.861
353.354
352.877
352.429
352.005
351.602
351.219
350.853
350.503
350.168
349.846
349.535
349.236
348.947
348.668
348.397
348.135
347.881
347.634
347.394
347.16
346.933
346.712
346.496
346.287
346.082
345.882
345.688
345.498
345.313
345.133
344.957
344.785
344.617
344.454
344.294
344.139
343.988
343.84
343.696
343.557
343.42
343.288
343.159
343.034
342.912
342.794
342.68
342.569
342.462
342.358
342.258
342.161
342.067
341.977
341.891
341.808
341.728
341.652
341.579
341.509
341.443
341.381
341.321
341.266
341.213
341.164
341.118
341.076
341.037
341.001
340.969
340.94
340.915
340.892
340.874
340.858
340.846
340.838
340.832
340.83
396.971
391.127
385.811
381.163
377.189
373.822
370.974
368.555
366.484
364.695
363.137
361.765
360.548
359.457
358.472
357.577
356.756
356.001
355.3
354.648
354.037
353.463
352.922
352.409
351.922
351.458
351.015
350.59
350.183
349.792
349.415
349.051
348.699
348.359
348.03
347.711
347.401
347.1
346.808
346.523
346.246
345.977
345.714
345.458
345.208
344.965
344.728
344.496
344.27
344.05
343.835
343.625
343.421
343.222
343.027
342.837
342.653
342.473
342.297
342.126
341.96
341.798
341.641
341.488
341.34
341.196
341.056
340.921
340.79
340.663
340.54
340.422
340.308
340.198
340.092
339.991
339.894
339.8
339.711
339.627
339.546
339.469
339.397
339.329
339.265
339.205
339.149
339.097
339.049
339.006
338.966
338.931
338.9
338.873
338.85
338.831
338.817
338.806
338.799
338.797
397.409
392.351
387.624
383.347
379.559
376.244
373.357
370.843
368.647
366.718
365.012
363.494
362.133
360.904
359.788
358.766
357.827
356.957
356.149
355.394
354.686
354.019
353.388
352.79
352.222
351.679
351.16
350.663
350.186
349.727
349.284
348.857
348.444
348.044
347.657
347.281
346.916
346.562
346.217
345.882
345.556
345.238
344.929
344.627
344.333
344.046
343.766
343.493
343.227
342.967
342.713
342.466
342.225
341.99
341.76
341.536
341.318
341.106
340.899
340.697
340.501
340.31
340.124
339.944
339.769
339.599
339.434
339.274
339.119
338.969
338.825
338.685
338.55
338.421
338.296
338.176
338.061
337.951
337.846
337.746
337.651
337.56
337.475
337.394
337.319
337.248
337.182
337.121
337.064
337.013
336.967
336.925
336.888
336.856
336.829
336.807
336.789
336.777
336.769
336.766
397.722
393.245
388.987
385.042
381.456
378.238
375.368
372.815
370.544
368.517
366.702
365.067
363.588
362.241
361.01
359.876
358.829
357.856
356.948
356.097
355.296
354.541
353.825
353.146
352.498
351.88
351.288
350.72
350.174
349.648
349.141
348.652
348.178
347.72
347.275
346.844
346.426
346.019
345.623
345.237
344.862
344.497
344.141
343.794
343.455
343.125
342.803
342.489
342.182
341.883
341.591
341.307
341.029
340.758
340.493
340.236
339.984
339.74
339.501
339.269
339.043
338.823
338.609
338.401
338.199
338.003
337.813
337.629
337.451
337.278
337.112
336.951
336.795
336.646
336.502
336.364
336.232
336.105
335.984
335.868
335.758
335.654
335.556
335.463
335.376
335.294
335.218
335.147
335.083
335.023
334.97
334.922
334.879
334.843
334.811
334.786
334.766
334.751
334.742
334.739
397.955
393.92
390.036
386.378
382.988
379.883
377.062
374.507
372.198
370.108
368.212
366.487
364.911
363.466
362.135
360.903
359.759
358.691
357.691
356.751
355.865
355.026
354.23
353.472
352.749
352.058
351.395
350.758
350.146
349.556
348.986
348.436
347.903
347.387
346.886
346.4
345.928
345.469
345.023
344.588
344.165
343.752
343.35
342.958
342.576
342.203
341.839
341.484
341.137
340.799
340.469
340.147
339.833
339.526
339.227
338.936
338.652
338.375
338.105
337.842
337.586
337.338
337.096
336.86
336.632
336.41
336.195
335.987
335.785
335.59
335.401
335.219
335.043
334.874
334.711
334.555
334.405
334.261
334.124
333.994
333.869
333.751
333.64
333.535
333.436
333.343
333.257
333.178
333.104
333.037
332.977
332.922
332.874
332.832
332.797
332.768
332.745
332.729
332.719
332.715
398.135
394.444
390.862
387.446
384.234
381.247
378.49
375.956
373.633
371.505
369.553
367.759
366.107
364.579
363.163
361.845
360.615
359.462
358.378
357.356
356.389
355.472
354.6
353.768
352.973
352.211
351.48
350.777
350.1
349.447
348.817
348.207
347.616
347.043
346.488
345.948
345.424
344.913
344.417
343.933
343.462
343.003
342.556
342.119
341.694
341.278
340.873
340.477
340.091
339.714
339.346
338.987
338.637
338.295
337.962
337.637
337.32
337.011
336.71
336.417
336.132
335.854
335.584
335.322
335.067
334.819
334.579
334.347
334.122
333.904
333.693
333.49
333.294
333.105
332.923
332.749
332.582
332.421
332.268
332.123
331.984
331.852
331.728
331.61
331.5
331.397
331.301
331.212
331.13
331.055
330.987
330.927
330.873
330.826
330.787
330.755
330.729
330.711
330.7
330.696
398.277
394.858
391.521
388.31
385.257
382.383
379.695
377.195
374.876
372.728
370.738
368.893
367.179
365.584
364.096
362.703
361.397
360.167
359.007
357.909
356.868
355.877
354.933
354.031
353.167
352.338
351.542
350.775
350.036
349.322
348.632
347.964
347.317
346.689
346.079
345.487
344.911
344.351
343.805
343.273
342.755
342.25
341.758
341.278
340.809
340.351
339.905
339.469
339.044
338.628
338.223
337.827
337.441
337.065
336.697
336.339
335.989
335.649
335.317
334.994
334.679
334.373
334.075
333.785
333.504
333.231
332.967
332.71
332.462
332.221
331.989
331.764
331.548
331.34
331.139
330.947
330.762
330.585
330.417
330.256
330.102
329.957
329.82
329.69
329.569
329.455
329.349
329.25
329.16
329.077
329.003
328.936
328.876
328.825
328.782
328.746
328.718
328.698
328.685
328.681
398.39
395.192
392.056
389.017
386.103
383.332
380.715
378.255
375.95
373.794
371.78
369.897
368.135
366.485
364.935
363.478
362.104
360.806
359.577
358.41
357.299
356.241
355.229
354.261
353.331
352.439
351.58
350.751
349.952
349.179
348.432
347.707
347.005
346.323
345.661
345.017
344.39
343.78
343.186
342.608
342.043
341.493
340.956
340.432
339.921
339.422
338.935
338.46
337.995
337.542
337.099
336.668
336.246
335.835
335.433
335.042
334.66
334.288
333.925
333.572
333.228
332.894
332.568
332.252
331.945
331.646
331.357
331.077
330.805
330.542
330.288
330.043
329.806
329.578
329.359
329.149
328.947
328.754
328.569
328.393
328.226
328.067
327.917
327.775
327.642
327.517
327.401
327.294
327.195
327.105
327.023
326.95
326.885
326.829
326.781
326.742
326.712
326.69
326.676
326.671
398.482
395.464
392.493
389.6
386.806
384.129
381.579
379.161
376.876
374.722
372.693
370.783
368.983
367.287
365.687
364.173
362.74
361.381
360.089
358.858
357.684
356.562
355.487
354.456
353.465
352.511
351.592
350.705
349.848
349.018
348.215
347.436
346.679
345.945
345.231
344.537
343.861
343.202
342.561
341.936
341.326
340.731
340.15
339.584
339.031
338.491
337.963
337.449
336.946
336.455
335.976
335.508
335.051
334.605
334.17
333.746
333.332
332.929
332.536
332.153
331.78
331.417
331.064
330.721
330.388
330.065
329.751
329.447
329.152
328.867
328.591
328.325
328.069
327.821
327.584
327.355
327.136
326.927
326.726
326.535
326.354
326.181
326.018
325.865
325.72
325.585
325.459
325.343
325.235
325.137
325.049
324.969
324.899
324.838
324.786
324.744
324.711
324.687
324.672
324.667
398.558
395.687
392.855
390.084
387.394
384.8
382.312
379.936
377.675
375.527
373.49
371.56
369.731
367.998
366.354
364.792
363.307
361.893
360.544
359.255
358.022
356.841
355.707
354.617
353.567
352.556
351.579
350.635
349.722
348.838
347.98
347.148
346.34
345.554
344.79
344.046
343.322
342.616
341.928
341.257
340.603
339.964
339.34
338.732
338.137
337.557
336.99
336.436
335.895
335.367
334.852
334.348
333.857
333.377
332.908
332.452
332.006
331.572
331.149
330.736
330.335
329.944
329.564
329.194
328.835
328.487
328.148
327.821
327.503
327.196
326.899
326.612
326.336
326.069
325.813
325.567
325.331
325.105
324.889
324.683
324.487
324.301
324.126
323.96
323.804
323.659
323.523
323.397
323.282
323.176
323.08
322.995
322.919
322.853
322.798
322.752
322.716
322.69
322.675
322.669
398.62
395.872
393.155
390.488
387.888
385.367
382.935
380.599
378.361
376.223
374.183
372.239
370.388
368.623
366.942
365.338
363.807
362.343
360.943
359.602
358.314
357.078
355.888
354.743
353.638
352.571
351.54
350.542
349.575
348.638
347.729
346.845
345.986
345.151
344.338
343.546
342.774
342.022
341.288
340.572
339.874
339.192
338.526
337.876
337.241
336.62
336.014
335.422
334.844
334.279
333.727
333.189
332.663
332.149
331.648
331.159
330.682
330.217
329.764
329.322
328.892
328.473
328.066
327.67
327.286
326.912
326.55
326.199
325.859
325.529
325.211
324.904
324.608
324.322
324.047
323.784
323.531
323.288
323.057
322.836
322.626
322.427
322.239
322.061
321.895
321.738
321.593
321.458
321.334
321.221
321.118
321.027
320.945
320.875
320.815
320.766
320.728
320.7
320.683
320.677
398.672
396.027
393.406
390.827
388.303
385.846
383.465
381.165
378.95
376.823
374.784
372.83
370.96
369.17
367.456
365.816
364.244
362.736
361.289
359.899
358.562
357.274
356.033
354.835
353.678
352.559
351.475
350.425
349.407
348.419
347.459
346.526
345.618
344.734
343.873
343.034
342.216
341.419
340.64
339.881
339.139
338.415
337.707
337.016
336.341
335.681
335.037
334.407
333.792
333.19
332.603
332.03
331.47
330.923
330.389
329.868
329.36
328.864
328.381
327.911
327.453
327.006
326.572
326.151
325.741
325.342
324.956
324.582
324.219
323.868
323.529
323.201
322.885
322.58
322.288
322.006
321.736
321.478
321.231
320.996
320.772
320.56
320.359
320.169
319.991
319.825
319.67
319.526
319.394
319.273
319.163
319.065
318.979
318.904
318.84
318.788
318.747
318.717
318.699
318.693
398.716
396.156
393.616
391.112
388.654
386.252
383.915
381.648
379.455
377.339
375.301
373.34
371.455
369.643
367.903
366.23
364.621
363.074
361.584
360.149
358.766
357.43
356.14
354.893
353.687
352.518
351.385
350.285
349.218
348.18
347.172
346.19
345.235
344.304
343.397
342.512
341.649
340.807
339.985
339.182
338.398
337.632
336.884
336.153
335.438
334.74
334.057
333.39
332.738
332.101
331.479
330.871
330.277
329.698
329.131
328.579
328.04
327.515
327.002
326.503
326.017
325.543
325.083
324.635
324.2
323.777
323.367
322.97
322.584
322.212
321.852
321.504
321.168
320.845
320.534
320.235
319.948
319.674
319.412
319.162
318.924
318.699
318.485
318.284
318.095
317.918
317.753
317.601
317.46
317.332
317.216
317.112
317.02
316.94
316.872
316.817
316.773
316.742
316.723
316.716
398.752
396.264
393.793
391.351
388.949
386.595
384.296
382.058
379.886
377.781
375.745
373.779
371.881
370.051
368.286
366.584
364.943
363.359
361.831
360.354
358.928
357.548
356.212
354.919
353.665
352.449
351.269
350.122
349.007
347.922
346.867
345.839
344.837
343.861
342.909
341.98
341.073
340.187
339.322
338.477
337.652
336.845
336.057
335.286
334.533
333.796
333.076
332.372
331.685
331.012
330.355
329.713
329.086
328.474
327.876
327.292
326.723
326.168
325.626
325.098
324.584
324.084
323.597
323.124
322.663
322.217
321.783
321.363
320.955
320.561
320.18
319.812
319.457
319.115
318.786
318.47
318.167
317.877
317.6
317.335
317.084
316.845
316.619
316.406
316.206
316.019
315.845
315.683
315.535
315.399
315.276
315.166
315.068
314.984
314.912
314.854
314.808
314.775
314.754
314.747
398.783
396.354
393.941
391.552
389.198
386.884
384.619
382.407
380.252
378.157
376.124
374.153
372.244
370.397
368.611
366.883
365.212
363.595
362.031
360.517
359.05
357.628
356.25
354.913
353.615
352.354
351.128
349.936
348.775
347.645
346.545
345.472
344.426
343.405
342.409
341.436
340.486
339.558
338.652
337.766
336.9
336.053
335.225
334.416
333.624
332.85
332.093
331.353
330.63
329.923
329.232
328.556
327.896
327.252
326.622
326.008
325.408
324.824
324.253
323.697
323.156
322.629
322.116
321.617
321.132
320.661
320.204
319.761
319.332
318.917
318.515
318.127
317.753
317.393
317.046
316.713
316.393
316.087
315.795
315.516
315.251
314.999
314.761
314.536
314.325
314.128
313.944
313.774
313.617
313.474
313.344
313.228
313.125
313.036
312.961
312.899
312.851
312.816
312.794
312.786
398.808
396.43
394.065
391.721
389.406
387.128
384.891
382.7
380.561
378.474
376.443
374.468
372.55
370.689
368.883
367.131
365.433
363.786
362.188
360.638
359.134
357.674
356.255
354.876
353.536
352.232
350.963
349.727
348.523
347.35
346.205
345.089
343.999
342.936
341.897
340.882
339.891
338.921
337.974
337.048
336.142
335.256
334.389
333.542
332.713
331.902
331.109
330.334
329.575
328.834
328.109
327.4
326.708
326.032
325.371
324.726
324.097
323.483
322.884
322.301
321.732
321.178
320.64
320.116
319.606
319.112
318.632
318.166
317.715
317.279
316.857
316.449
316.056
315.677
315.312
314.962
314.626
314.305
313.997
313.704
313.426
313.161
312.911
312.675
312.453
312.245
312.052
311.873
311.708
311.558
311.421
311.299
311.191
311.098
311.018
310.953
310.902
310.866
310.843
310.835
398.83
396.494
394.169
391.862
389.581
387.331
385.118
382.947
380.82
378.74
376.711
374.732
372.805
370.929
369.105
367.332
365.608
363.933
362.305
360.721
359.182
357.685
356.228
354.81
353.43
352.085
350.775
349.497
348.251
347.035
345.849
344.691
343.559
342.454
341.374
340.318
339.286
338.276
337.289
336.323
335.378
334.454
333.55
332.665
331.799
330.952
330.124
329.313
328.52
327.745
326.987
326.246
325.521
324.814
324.123
323.448
322.789
322.146
321.519
320.908
320.313
319.733
319.169
318.62
318.086
317.568
317.065
316.577
316.105
315.648
315.205
314.778
314.366
313.969
313.587
313.22
312.868
312.531
312.208
311.901
311.609
311.332
311.069
310.822
310.589
310.372
310.169
309.981
309.809
309.651
309.508
309.38
309.267
309.168
309.085
309.017
308.964
308.925
308.902
308.893
398.847
396.546
394.255
391.979
389.726
387.501
385.307
383.151
381.034
378.96
376.931
374.948
373.012
371.124
369.283
367.49
365.742
364.04
362.383
360.769
359.196
357.664
356.171
354.716
353.297
351.914
350.564
349.246
347.96
346.704
345.476
344.277
343.105
341.96
340.839
339.744
338.672
337.623
336.597
335.592
334.61
333.648
332.706
331.785
330.883
330
329.137
328.292
327.465
326.656
325.866
325.093
324.337
323.598
322.877
322.172
321.484
320.813
320.158
319.52
318.898
318.293
317.703
317.129
316.572
316.031
315.505
314.995
314.501
314.023
313.561
313.115
312.684
312.269
311.869
311.485
311.117
310.765
310.428
310.107
309.801
309.511
309.237
308.978
308.735
308.507
308.295
308.099
307.918
307.753
307.604
307.47
307.352
307.249
307.162
307.091
307.035
306.994
306.97
306.961
398.862
396.589
394.325
392.076
389.845
387.64
385.463
383.318
381.21
379.14
377.11
375.122
373.178
371.277
369.42
367.607
365.838
364.111
362.426
360.782
359.178
357.613
356.086
354.595
353.14
351.719
350.331
348.975
347.65
346.355
345.088
343.85
342.639
341.454
340.294
339.16
338.049
336.962
335.898
334.856
333.836
332.837
331.859
330.902
329.965
329.047
328.149
327.27
326.41
325.569
324.746
323.941
323.154
322.385
321.634
320.9
320.184
319.484
318.802
318.137
317.489
316.858
316.243
315.645
315.064
314.5
313.952
313.42
312.905
312.407
311.925
311.459
311.01
310.577
310.16
309.76
309.376
309.008
308.657
308.321
308.003
307.7
307.414
307.144
306.89
306.653
306.432
306.227
306.038
305.866
305.71
305.57
305.447
305.34
305.249
305.174
305.116
305.074
305.049
305.039
398.874
396.625
394.383
392.154
389.942
387.753
385.588
383.453
381.351
379.283
377.251
375.258
373.305
371.392
369.52
367.688
365.897
364.147
362.436
360.764
359.13
357.534
355.974
354.449
352.959
351.502
350.078
348.685
347.322
345.989
344.685
343.409
342.159
340.936
339.739
338.566
337.418
336.294
335.192
334.114
333.057
332.022
331.009
330.016
329.044
328.093
327.161
326.249
325.356
324.482
323.628
322.792
321.974
321.175
320.395
319.632
318.887
318.16
317.451
316.759
316.085
315.429
314.79
314.168
313.563
312.976
312.406
311.853
311.317
310.798
310.296
309.812
309.344
308.893
308.46
308.043
307.643
307.261
306.895
306.546
306.214
305.899
305.601
305.32
305.056
304.809
304.578
304.365
304.169
303.989
303.827
303.681
303.553
303.441
303.347
303.269
303.209
303.165
303.138
303.128
398.883
396.653
394.429
392.217
390.02
387.842
385.688
383.56
381.461
379.393
377.359
375.36
373.398
371.472
369.585
367.736
365.924
364.151
362.415
360.717
359.055
357.428
355.837
354.28
352.756
351.265
349.805
348.376
346.978
345.608
344.267
342.954
341.668
340.408
339.173
337.964
336.779
335.618
334.481
333.366
332.274
331.204
330.156
329.129
328.123
327.137
326.172
325.227
324.303
323.397
322.511
321.645
320.797
319.969
319.159
318.368
317.595
316.841
316.105
315.387
314.687
314.006
313.342
312.697
312.069
311.459
310.867
310.293
309.737
309.198
308.677
308.173
307.687
307.219
306.769
306.336
305.921
305.523
305.143
304.78
304.435
304.108
303.798
303.506
303.232
302.975
302.736
302.514
302.31
302.124
301.955
301.804
301.67
301.554
301.456
301.375
301.312
301.267
301.239
301.229
398.891
396.675
394.465
392.266
390.08
387.911
385.764
383.64
381.543
379.475
377.437
375.431
373.459
371.521
369.619
367.752
365.921
364.126
362.366
360.642
358.952
357.297
355.676
354.087
352.531
351.007
349.514
348.05
346.617
345.212
343.836
342.487
341.164
339.869
338.598
337.353
336.133
334.936
333.763
332.614
331.487
330.382
329.3
328.239
327.199
326.181
325.184
324.207
323.25
322.314
321.397
320.5
319.623
318.765
317.927
317.108
316.308
315.526
314.764
314.021
313.296
312.59
311.902
311.233
310.583
309.951
309.337
308.742
308.165
307.606
307.066
306.544
306.04
305.555
305.087
304.638
304.208
303.795
303.401
303.025
302.667
302.328
302.007
301.704
301.419
301.153
300.904
300.675
300.463
300.269
300.094
299.938
299.799
299.679
299.577
299.493
299.428
299.381
299.352
299.341
398.896
396.692
394.492
392.302
390.124
387.963
385.82
383.698
381.601
379.53
377.487
375.474
373.492
371.542
369.625
367.741
365.89
364.074
362.291
360.542
358.826
357.143
355.492
353.874
352.287
350.731
349.205
347.708
346.241
344.802
343.391
342.008
340.651
339.32
338.014
336.734
335.479
334.248
333.041
331.857
330.696
329.557
328.441
327.348
326.275
325.225
324.195
323.187
322.199
321.232
320.285
319.359
318.453
317.566
316.7
315.853
315.025
314.218
313.429
312.66
311.911
311.18
310.469
309.777
309.104
308.45
307.815
307.199
306.602
306.023
305.464
304.924
304.402
303.9
303.416
302.951
302.505
302.078
301.67
301.281
300.911
300.559
300.226
299.913
299.618
299.342
299.085
298.847
298.627
298.427
298.246
298.083
297.94
297.815
297.71
297.623
297.555
297.507
297.477
297.466
398.901
396.704
394.512
392.328
390.156
387.998
385.857
383.736
381.637
379.562
377.513
375.492
373.499
371.537
369.604
367.704
365.834
363.997
362.192
360.418
358.677
356.967
355.289
353.641
352.024
350.437
348.879
347.351
345.851
344.379
342.935
341.517
340.126
338.761
337.422
336.108
334.819
333.554
332.313
331.095
329.901
328.73
327.581
326.455
325.351
324.268
323.207
322.168
321.15
320.153
319.176
318.221
317.286
316.371
315.477
314.603
313.749
312.915
312.101
311.307
310.533
309.778
309.044
308.329
307.633
306.958
306.301
305.665
305.048
304.45
303.872
303.314
302.775
302.255
301.755
301.275
300.814
300.373
299.951
299.548
299.165
298.802
298.458
298.133
297.828
297.543
297.277
297.031
296.804
296.597
296.41
296.242
296.093
295.965
295.855
295.766
295.696
295.645
295.614
295.603
398.903
396.711
394.524
392.344
390.175
388.019
385.878
383.756
381.654
379.574
377.518
375.487
373.484
371.508
369.561
367.643
365.755
363.897
362.07
360.273
358.507
356.771
355.066
353.39
351.744
350.127
348.538
346.979
345.447
343.943
342.466
341.016
339.592
338.195
336.822
335.475
334.153
332.855
331.581
330.331
329.104
327.9
326.719
325.561
324.426
323.312
322.221
321.151
320.103
319.076
318.07
317.086
316.123
315.18
314.259
313.358
312.478
311.618
310.779
309.96
309.162
308.384
307.626
306.889
306.171
305.474
304.797
304.14
303.504
302.887
302.291
301.714
301.158
300.622
300.106
299.61
299.134
298.678
298.242
297.827
297.432
297.056
296.701
296.366
296.052
295.757
295.483
295.228
294.994
294.78
294.587
294.413
294.26
294.127
294.014
293.922
293.849
293.797
293.765
293.754
398.905
396.715
394.53
392.352
390.184
388.027
385.885
383.759
381.652
379.566
377.502
375.462
373.447
371.458
369.495
367.561
365.654
363.777
361.928
360.108
358.318
356.557
354.825
353.122
351.447
349.801
348.183
346.593
345.031
343.496
341.987
340.506
339.05
337.62
336.215
334.836
333.481
332.151
330.845
329.562
328.304
327.069
325.856
324.667
323.501
322.357
321.235
320.135
319.058
318.002
316.968
315.955
314.964
313.995
313.046
312.119
311.213
310.328
309.464
308.621
307.799
306.997
306.217
305.457
304.718
304
303.302
302.626
301.969
301.334
300.719
300.125
299.552
298.999
298.467
297.956
297.465
296.996
296.546
296.118
295.71
295.324
294.957
294.612
294.287
293.984
293.701
293.439
293.197
292.977
292.777
292.598
292.44
292.303
292.187
292.091
292.017
291.963
291.93
291.918
398.905
396.716
394.531
392.352
390.183
388.024
385.878
383.748
381.636
379.542
377.469
375.418
373.391
371.388
369.41
367.459
365.534
363.637
361.767
359.925
358.111
356.325
354.567
352.838
351.136
349.462
347.815
346.196
344.603
343.038
341.499
339.986
338.499
337.038
335.601
334.19
332.804
331.443
330.105
328.792
327.502
326.236
324.993
323.773
322.576
321.402
320.251
319.122
318.016
316.932
315.869
314.829
313.811
312.814
311.84
310.886
309.955
309.045
308.156
307.289
306.444
305.619
304.816
304.035
303.274
302.535
301.817
301.121
300.446
299.792
299.159
298.547
297.957
297.388
296.841
296.314
295.809
295.325
294.863
294.422
294.002
293.604
293.227
292.871
292.537
292.224
291.932
291.662
291.414
291.187
290.981
290.797
290.634
290.493
290.373
290.275
290.198
290.143
290.109
290.096
398.904
396.714
394.527
392.346
390.173
388.011
385.86
383.724
381.605
379.503
377.42
375.358
373.318
371.301
369.308
367.339
365.397
363.479
361.589
359.725
357.888
356.078
354.295
352.539
350.811
349.109
347.434
345.786
344.165
342.57
341.001
339.458
337.941
336.449
334.982
333.54
332.123
330.731
329.362
328.018
326.698
325.402
324.129
322.879
321.653
320.45
319.269
318.112
316.977
315.865
314.775
313.708
312.662
311.639
310.639
309.66
308.704
307.769
306.856
305.966
305.097
304.25
303.425
302.622
301.84
301.081
300.343
299.627
298.933
298.26
297.61
296.981
296.374
295.789
295.226
294.685
294.165
293.668
293.192
292.739
292.307
291.897
291.509
291.143
290.8
290.478
290.178
289.9
289.645
289.411
289.199
289.01
288.842
288.697
288.574
288.473
288.394
288.337
288.302
288.289
398.902
396.709
394.519
392.334
390.156
387.988
385.832
383.689
381.561
379.45
377.356
375.283
373.229
371.198
369.189
367.204
365.243
363.306
361.395
359.509
357.65
355.816
354.009
352.228
350.473
348.745
347.043
345.367
343.717
342.093
340.495
338.922
337.375
335.854
334.357
332.885
331.438
330.016
328.617
327.243
325.894
324.567
323.265
321.986
320.731
319.499
318.29
317.105
315.942
314.802
313.685
312.591
311.52
310.471
309.444
308.441
307.459
306.501
305.564
304.65
303.759
302.89
302.043
301.218
300.416
299.636
298.879
298.144
297.431
296.74
296.072
295.427
294.803
294.203
293.624
293.068
292.535
292.024
291.535
291.069
290.625
290.204
289.806
289.43
289.077
288.746
288.438
288.153
287.89
287.65
287.432
287.238
287.066
286.916
286.79
286.686
286.605
286.546
286.511
286.497
398.9
396.702
394.506
392.316
390.133
387.958
385.794
383.643
381.506
379.384
377.28
375.194
373.127
371.081
369.056
367.054
365.074
363.119
361.187
359.28
357.398
355.541
353.71
351.904
350.124
348.369
346.64
344.937
343.26
341.608
339.981
338.38
336.804
335.253
333.727
332.226
330.75
329.298
327.871
326.467
325.088
323.733
322.402
321.095
319.811
318.551
317.314
316.101
314.911
313.744
312.6
311.48
310.383
309.308
308.257
307.229
306.223
305.24
304.281
303.344
302.43
301.539
300.671
299.825
299.003
298.203
297.426
296.672
295.941
295.233
294.547
293.885
293.245
292.629
292.035
291.465
290.917
290.393
289.891
289.413
288.958
288.526
288.117
287.731
287.369
287.029
286.713
286.42
286.15
285.904
285.681
285.481
285.304
285.151
285.021
284.914
284.831
284.771
284.734
284.721
398.897
396.693
394.491
392.294
390.103
387.921
385.749
383.588
381.441
379.308
377.192
375.092
373.012
370.95
368.91
366.89
364.893
362.918
360.966
359.038
357.134
355.254
353.399
351.569
349.764
347.984
346.229
344.499
342.795
341.115
339.461
337.832
336.228
334.648
333.094
331.564
330.059
328.578
327.122
325.69
324.283
322.899
321.54
320.204
318.893
317.605
316.341
315.101
313.884
312.691
311.521
310.375
309.252
308.153
307.077
306.024
304.995
303.989
303.006
302.047
301.111
300.198
299.309
298.443
297.6
296.78
295.984
295.212
294.463
293.737
293.034
292.356
291.7
291.068
290.46
289.875
289.314
288.776
288.262
287.772
287.305
286.862
286.443
286.047
285.675
285.327
285.003
284.703
284.426
284.173
283.945
283.74
283.559
283.401
283.268
283.159
283.073
283.012
282.974
282.96
398.893
396.681
394.472
392.267
390.068
387.877
385.695
383.525
381.366
379.222
377.093
374.98
372.885
370.809
368.751
366.715
364.699
362.705
360.733
358.784
356.859
354.956
353.078
351.224
349.395
347.59
345.809
344.053
342.322
340.616
338.935
337.278
335.646
334.039
332.457
330.899
329.366
327.857
326.373
324.913
323.478
322.066
320.679
319.316
317.978
316.663
315.372
314.105
312.862
311.643
310.447
309.276
308.128
307.004
305.904
304.827
303.775
302.746
301.741
300.759
299.801
298.867
297.957
297.071
296.208
295.37
294.555
293.764
292.997
292.254
291.535
290.839
290.168
289.521
288.898
288.299
287.724
287.174
286.647
286.145
285.667
285.213
284.784
284.378
283.998
283.641
283.309
283.001
282.718
282.459
282.225
282.015
281.829
281.668
281.531
281.419
281.332
281.269
281.23
281.216
398.889
396.668
394.45
392.236
390.028
387.827
385.635
383.454
381.284
379.127
376.985
374.858
372.749
370.656
368.583
366.528
364.494
362.481
360.49
358.52
356.573
354.649
352.748
350.871
349.017
347.187
345.382
343.601
341.844
340.111
338.403
336.72
335.061
333.427
331.817
330.232
328.672
327.135
325.624
324.137
322.674
321.235
319.821
318.431
317.066
315.724
314.407
313.114
311.845
310.601
309.38
308.184
307.011
305.863
304.739
303.639
302.564
301.512
300.485
299.481
298.502
297.548
296.617
295.711
294.829
293.971
293.138
292.329
291.544
290.784
290.048
289.337
288.65
287.988
287.351
286.738
286.15
285.586
285.047
284.533
284.044
283.58
283.14
282.726
282.336
281.971
281.631
281.316
281.026
280.761
280.521
280.306
280.116
279.951
279.812
279.697
279.607
279.543
279.503
279.489
398.884
396.654
394.426
392.202
389.984
387.772
385.569
383.376
381.194
379.024
376.869
374.728
372.603
370.495