/*--------------------------------*- C++ -*----------------------------------*\
| =========                 |                                                 |
| \\      /  F ield         | OpenFOAM: The Open Source CFD Toolbox           |
|  \\    /   O peration     | Version:  2406                                  |
|   \\  /    A nd           | Website:  www.openfoam.com                      |
|    \\/     M anipulation  |                                                 |
\*---------------------------------------------------------------------------*/
FoamFile
{
    version     2.0;
    format      ascii;
    arch        "LSB;label=32;scalar=64";
    class       volScalarField;
    location    "17";
    object      p;
}
// * * * * * * * * * * * * * * * * * * * * * * * * * * * * * * * * * * * * * //

dimensions      [0 2 -2 0 0 0 0];

internalField   nonuniform List<scalar> 
34560
(
-42.573684
-42.564621
-42.553809
-42.542933
-42.532881
-42.52604
-42.52386
-42.524532
-42.527625
-42.638293
-42.627691
-42.61461
-42.600674
-42.586895
-42.576056
-42.569383
-42.565847
-42.566389
-42.696865
-42.685137
-42.670596
-42.654892
-42.638908
-42.62536
-42.614601
-42.607028
-42.604201
-42.753011
-42.740264
-42.724373
-42.707038
-42.689044
-42.67282
-42.658129
-42.646837
-42.640177
-42.805843
-42.792235
-42.775188
-42.756438
-42.736647
-42.717758
-42.699532
-42.684536
-42.673865
-42.853307
-42.839201
-42.821421
-42.801706
-42.780585
-42.75926
-42.737874
-42.719343
-42.704783
-42.895747
-42.881189
-42.862772
-42.842253
-42.820009
-42.796367
-42.772283
-42.750527
-42.732365
-42.932132
-42.917247
-42.898356
-42.877178
-42.853829
-42.828226
-42.802027
-42.777473
-42.756128
-42.961926
-42.946825
-42.927599
-42.905924
-42.881666
-42.854527
-42.826546
-42.799664
-42.77565
-42.984553
-42.96934
-42.949914
-42.927905
-42.902973
-42.874698
-42.845323
-42.816649
-42.790567
-42.999864
-42.984549
-42.964975
-42.94275
-42.917365
-42.888327
-42.858003
-42.828119
-42.800631
-43.007627
-42.992269
-42.972619
-42.950269
-42.924632
-42.895182
-42.864356
-42.83385
-42.80564
-43.007628
-42.992269
-42.972619
-42.95027
-42.924632
-42.895183
-42.864356
-42.833851
-42.80564
-42.999865
-42.98455
-42.964976
-42.942751
-42.917366
-42.888328
-42.858004
-42.828121
-42.800632
-42.984555
-42.969341
-42.949914
-42.927906
-42.902975
-42.874699
-42.845325
-42.816651
-42.790569
-42.961926
-42.946826
-42.9276
-42.905925
-42.881668
-42.854529
-42.826548
-42.799666
-42.775651
-42.932133
-42.917249
-42.898357
-42.87718
-42.85383
-42.828227
-42.802028
-42.777475
-42.756129
-42.895748
-42.88119
-42.862773
-42.842253
-42.820009
-42.796367
-42.772284
-42.750528
-42.732367
-42.853306
-42.839201
-42.821421
-42.801707
-42.780586
-42.759261
-42.737875
-42.719343
-42.704783
-42.805846
-42.792238
-42.77519
-42.756439
-42.736647
-42.717759
-42.699533
-42.684537
-42.673865
-42.753011
-42.740264
-42.724373
-42.707038
-42.689044
-42.672821
-42.65813
-42.646838
-42.640177
-42.696864
-42.685136
-42.670595
-42.654892
-42.638908
-42.625361
-42.614603
-42.607029
-42.6042
-42.638293
-42.627691
-42.61461
-42.600674
-42.586897
-42.576058
-42.569385
-42.565848
-42.566386
-42.573683
-42.564619
-42.553807
-42.542932
-42.532881
-42.526041
-42.52386
-42.524531
-42.527622
-39.771592
-39.770798
-39.769869
-39.769063
-39.768335
-39.767385
-39.765743
-39.763976
-39.761202
-39.777697
-39.776805
-39.775693
-39.774549
-39.773231
-39.771334
-39.768676
-39.76602
-39.762109
-39.783405
-39.782427
-39.781197
-39.779887
-39.778211
-39.775505
-39.772227
-39.768758
-39.763288
-39.789223
-39.788169
-39.78681
-39.785302
-39.783224
-39.779899
-39.77632
-39.771213
-39.76402
-39.794772
-39.793672
-39.792211
-39.790494
-39.78796
-39.784066
-39.779927
-39.773249
-39.764536
-39.799647
-39.798554
-39.797048
-39.79515
-39.792105
-39.787625
-39.782984
-39.774968
-39.764971
-39.804034
-39.802941
-39.801382
-39.799291
-39.795764
-39.791002
-39.785608
-39.776416
-39.765362
-39.807858
-39.806775
-39.80518
-39.802953
-39.799196
-39.794304
-39.787849
-39.777621
-39.765715
-39.811004
-39.809934
-39.808315
-39.805976
-39.802063
-39.797095
-39.789668
-39.778597
-39.766027
-39.813363
-39.812316
-39.810687
-39.808262
-39.804223
-39.799127
-39.791031
-39.77934
-39.766284
-39.814924
-39.813892
-39.812258
-39.809772
-39.805651
-39.800455
-39.79194
-39.779846
-39.766473
-39.815742
-39.814716
-39.813076
-39.810554
-39.806385
-39.801136
-39.79242
-39.780125
-39.766592
-39.815742
-39.814716
-39.813076
-39.810554
-39.806386
-39.801136
-39.792421
-39.780126
-39.766592
-39.814924
-39.813892
-39.812258
-39.809772
-39.805652
-39.800456
-39.791941
-39.779847
-39.766474
-39.813364
-39.812317
-39.810688
-39.808262
-39.804224
-39.799128
-39.791032
-39.779341
-39.766285
-39.811005
-39.809935
-39.808316
-39.805977
-39.802064
-39.797097
-39.78967
-39.778599
-39.766029
-39.80786
-39.806776
-39.805182
-39.802955
-39.799198
-39.794306
-39.78785
-39.777623
-39.765717
-39.804036
-39.802943
-39.801384
-39.799293
-39.795766
-39.791004
-39.78561
-39.776418
-39.765364
-39.79965
-39.798557
-39.797051
-39.795153
-39.792108
-39.787628
-39.782986
-39.77497
-39.764974
-39.794775
-39.793675
-39.792215
-39.790497
-39.787963
-39.784069
-39.779929
-39.773252
-39.764539
-39.789226
-39.788171
-39.786813
-39.785305
-39.783228
-39.779902
-39.776323
-39.771216
-39.764023
-39.783408
-39.78243
-39.7812
-39.77989
-39.778215
-39.775508
-39.772231
-39.768761
-39.763292
-39.7777
-39.776808
-39.775696
-39.774552
-39.773235
-39.771338
-39.76868
-39.766023
-39.762113
-39.771595
-39.7708
-39.769872
-39.769066
-39.768338
-39.767388
-39.765746
-39.763979
-39.761206
-38.47035
-38.470197
-38.469963
-38.469593
-38.469244
-38.469166
-38.469545
-38.47025
-38.470198
-38.475934
-38.475722
-38.475345
-38.474689
-38.473916
-38.473308
-38.473039
-38.472623
-38.47188
-38.480938
-38.48069
-38.480235
-38.479425
-38.478412
-38.477485
-38.47683
-38.475478
-38.474219
-38.48541
-38.485122
-38.484592
-38.483646
-38.482435
-38.481196
-38.479865
-38.477931
-38.476131
-38.48941
-38.489091
-38.488494
-38.487419
-38.48602
-38.484499
-38.482408
-38.479948
-38.477671
-38.492935
-38.492601
-38.491957
-38.490771
-38.489217
-38.487554
-38.484634
-38.481607
-38.478916
-38.495947
-38.495602
-38.494915
-38.49363
-38.491902
-38.489969
-38.486445
-38.48291
-38.479886
-38.498404
-38.498053
-38.497332
-38.495961
-38.494045
-38.491703
-38.487825
-38.483879
-38.480608
-38.500321
-38.499967
-38.499222
-38.497778
-38.495686
-38.492893
-38.488819
-38.484565
-38.481122
-38.501738
-38.501385
-38.500623
-38.499124
-38.496907
-38.49383
-38.489515
-38.485024
-38.481463
-38.502677
-38.502324
-38.501548
-38.500008
-38.49771
-38.494469
-38.489947
-38.485294
-38.481663
-38.503138
-38.502786
-38.502004
-38.500443
-38.498099
-38.494744
-38.490144
-38.485415
-38.481752
-38.503138
-38.502785
-38.502004
-38.500443
-38.498099
-38.494744
-38.490144
-38.485415
-38.481752
-38.502677
-38.502324
-38.501548
-38.500008
-38.49771
-38.494469
-38.489948
-38.485295
-38.481664
-38.501738
-38.501385
-38.500624
-38.499124
-38.496907
-38.493831
-38.489516
-38.485025
-38.481464
-38.500322
-38.499969
-38.499224
-38.49778
-38.495687
-38.492895
-38.488821
-38.484566
-38.481124
-38.498406
-38.498055
-38.497335
-38.495963
-38.494047
-38.491705
-38.487828
-38.483881
-38.480611
-38.49595
-38.495605
-38.494918
-38.493633
-38.491905
-38.489971
-38.486448
-38.482913
-38.479889
-38.492939
-38.492605
-38.49196
-38.490775
-38.489221
-38.487557
-38.484637
-38.48161
-38.47892
-38.489414
-38.489095
-38.488498
-38.487423
-38.486024
-38.484503
-38.482412
-38.479952
-38.477675
-38.485414
-38.485127
-38.484597
-38.48365
-38.48244
-38.481201
-38.479869
-38.477936
-38.476136
-38.480943
-38.480695
-38.48024
-38.47943
-38.478417
-38.47749
-38.476834
-38.475483
-38.474224
-38.475939
-38.475728
-38.47535
-38.474695
-38.473921
-38.473313
-38.473044
-38.472628
-38.471886
-38.470356
-38.470203
-38.469969
-38.469598
-38.46925
-38.469172
-38.46955
-38.470255
-38.470204
-36.497398
-36.497279
-36.497191
-36.497223
-36.497398
-36.497652
-36.497904
-36.498016
-36.497694
-36.499817
-36.499657
-36.499496
-36.499409
-36.499393
-36.499384
-36.499262
-36.498934
-36.498284
-36.502449
-36.502244
-36.502031
-36.501888
-36.501802
-36.501688
-36.501393
-36.500897
-36.500079
-36.505066
-36.504813
-36.504547
-36.504356
-36.504227
-36.504054
-36.503652
-36.503022
-36.501914
-36.507584
-36.507292
-36.50698
-36.506746
-36.506569
-36.50634
-36.505886
-36.505067
-36.50364
-36.509885
-36.509569
-36.509229
-36.508967
-36.508763
-36.5085
-36.507994
-36.507016
-36.505273
-36.511916
-36.511583
-36.511224
-36.510948
-36.510738
-36.510459
-36.509919
-36.508819
-36.506772
-36.513653
-36.513309
-36.51294
-36.512661
-36.512454
-36.512172
-36.511618
-36.510422
-36.508092
-36.515063
-36.514714
-36.514341
-36.514065
-36.513865
-36.513579
-36.513038
-36.511763
-36.50919
-36.516129
-36.515777
-36.515404
-36.515133
-36.514936
-36.51462
-36.514129
-36.512797
-36.510037
-36.516844
-36.516491
-36.516118
-36.515852
-36.515656
-36.515302
-36.514866
-36.513498
-36.510614
-36.517205
-36.516851
-36.516479
-36.516215
-36.516025
-36.515685
-36.515245
-36.513854
-36.510908
-36.517205
-36.516851
-36.516479
-36.516215
-36.516025
-36.515686
-36.515245
-36.513855
-36.510908
-36.516845
-36.516492
-36.516119
-36.515852
-36.515656
-36.515303
-36.514867
-36.513499
-36.510615
-36.51613
-36.515778
-36.515406
-36.515134
-36.514938
-36.514621
-36.51413
-36.512798
-36.510039
-36.515065
-36.514716
-36.514343
-36.514067
-36.513867
-36.513581
-36.51304
-36.511765
-36.509192
-36.513656
-36.513311
-36.512943
-36.512664
-36.512456
-36.512175
-36.51162
-36.510425
-36.508095
-36.51192
-36.511586
-36.511227
-36.510952
-36.510741
-36.510462
-36.509922
-36.508822
-36.506775
-36.509889
-36.509573
-36.509233
-36.50897
-36.508767
-36.508503
-36.507998
-36.507019
-36.505276
-36.507589
-36.507297
-36.506985
-36.50675
-36.506573
-36.506344
-36.505891
-36.505071
-36.503644
-36.505071
-36.504818
-36.504552
-36.504361
-36.504232
-36.504059
-36.503656
-36.503027
-36.501918
-36.502455
-36.502249
-36.502036
-36.501893
-36.501808
-36.501694
-36.501398
-36.500902
-36.500084
-36.499824
-36.499663
-36.499502
-36.499415
-36.499399
-36.49939
-36.499268
-36.49894
-36.498289
-36.497405
-36.497286
-36.497197
-36.49723
-36.497405
-36.497658
-36.49791
-36.498022
-36.497699
-34.74906
-34.749128
-34.749215
-34.749313
-34.749432
-34.749581
-34.749753
-34.749896
-34.749717
-34.750051
-34.750105
-34.750156
-34.750182
-34.750183
-34.750158
-34.750084
-34.749878
-34.749438
-34.75111
-34.751148
-34.751173
-34.751155
-34.751091
-34.750974
-34.75078
-34.750435
-34.749962
-34.752035
-34.752057
-34.752058
-34.752009
-34.751907
-34.75174
-34.751463
-34.751016
-34.750467
-34.752814
-34.752825
-34.752809
-34.752732
-34.752597
-34.752382
-34.752017
-34.751454
-34.75082
-34.753491
-34.753495
-34.753465
-34.753369
-34.753201
-34.752925
-34.752467
-34.751795
-34.751083
-34.754064
-34.75406
-34.754019
-34.753903
-34.7537
-34.753371
-34.752828
-34.752067
-34.751287
-34.754529
-34.75452
-34.754468
-34.754334
-34.754102
-34.753727
-34.753112
-34.75228
-34.75144
-34.754891
-34.754877
-34.754816
-34.754667
-34.754414
-34.754002
-34.753327
-34.752439
-34.751548
-34.755162
-34.755143
-34.755075
-34.754916
-34.754646
-34.754202
-34.753481
-34.752552
-34.75162
-34.755345
-34.755323
-34.75525
-34.755082
-34.754799
-34.754333
-34.75358
-34.752623
-34.751661
-34.75543
-34.755408
-34.755333
-34.755163
-34.754873
-34.754396
-34.753627
-34.752657
-34.751679
-34.755431
-34.755408
-34.755333
-34.755163
-34.754873
-34.754397
-34.753628
-34.752657
-34.75168
-34.755346
-34.755324
-34.755251
-34.755083
-34.7548
-34.754335
-34.753581
-34.752624
-34.751662
-34.755163
-34.755145
-34.755077
-34.754918
-34.754647
-34.754204
-34.753482
-34.752554
-34.751622
-34.754893
-34.754879
-34.754818
-34.75467
-34.754417
-34.754004
-34.753329
-34.752442
-34.751551
-34.754533
-34.754523
-34.754471
-34.754337
-34.754106
-34.75373
-34.753115
-34.752283
-34.751444
-34.754068
-34.754064
-34.754023
-34.753907
-34.753704
-34.753374
-34.752832
-34.752071
-34.751291
-34.753496
-34.753499
-34.75347
-34.753374
-34.753205
-34.75293
-34.752472
-34.7518
-34.751087
-34.752819
-34.75283
-34.752814
-34.752737
-34.752602
-34.752387
-34.752022
-34.751459
-34.750826
-34.752041
-34.752063
-34.752064
-34.752015
-34.751913
-34.751746
-34.751469
-34.751022
-34.750474
-34.751117
-34.751155
-34.751179
-34.751161
-34.751097
-34.750981
-34.750786
-34.750441
-34.749969
-34.750058
-34.750112
-34.750163
-34.750188
-34.75019
-34.750164
-34.75009
-34.749885
-34.749446
-34.749068
-34.749136
-34.749223
-34.749321
-34.74944
-34.749588
-34.749761
-34.749904
-34.749726
-32.954281
-32.954322
-32.954386
-32.95448
-32.954608
-32.954763
-32.954939
-32.955119
-32.955156
-32.955002
-32.955037
-32.955085
-32.955146
-32.955217
-32.955281
-32.955317
-32.9553
-32.955191
-32.95583
-32.955859
-32.955896
-32.955939
-32.955978
-32.955995
-32.955966
-32.955878
-32.955763
-32.956619
-32.956637
-32.956663
-32.956692
-32.956714
-32.95671
-32.956652
-32.956522
-32.956371
-32.957359
-32.957367
-32.957378
-32.957391
-32.957396
-32.957371
-32.957285
-32.957121
-32.956929
-32.958045
-32.958043
-32.958042
-32.95804
-32.958028
-32.957984
-32.957871
-32.957675
-32.957438
-32.958651
-32.958642
-32.958631
-32.958617
-32.958592
-32.95853
-32.958392
-32.958163
-32.957879
-32.959175
-32.95916
-32.959142
-32.95912
-32.959082
-32.959001
-32.958839
-32.958578
-32.958248
-32.959605
-32.959587
-32.959565
-32.959535
-32.959485
-32.959388
-32.959205
-32.958917
-32.958546
-32.959931
-32.959911
-32.959886
-32.95985
-32.959791
-32.959682
-32.959485
-32.959174
-32.95877
-32.96015
-32.960129
-32.960101
-32.960061
-32.959997
-32.95988
-32.959674
-32.959347
-32.958919
-32.960258
-32.960236
-32.960207
-32.960166
-32.960099
-32.959979
-32.959768
-32.959434
-32.958994
-32.960258
-32.960236
-32.960207
-32.960166
-32.960099
-32.959979
-32.959768
-32.959434
-32.958995
-32.960151
-32.96013
-32.960102
-32.960063
-32.959998
-32.959881
-32.959675
-32.959348
-32.958921
-32.959933
-32.959913
-32.959888
-32.959852
-32.959793
-32.959684
-32.959487
-32.959176
-32.958772
-32.959608
-32.95959
-32.959568
-32.959538
-32.959488
-32.95939
-32.959208
-32.95892
-32.958549
-32.959178
-32.959164
-32.959146
-32.959123
-32.959086
-32.959005
-32.958843
-32.958582
-32.958252
-32.958656
-32.958647
-32.958636
-32.958622
-32.958597
-32.958535
-32.958396
-32.958168
-32.957884
-32.95805
-32.958048
-32.958048
-32.958046
-32.958034
-32.95799
-32.957876
-32.957681
-32.957444
-32.957365
-32.957373
-32.957384
-32.957397
-32.957402
-32.957378
-32.957291
-32.957128
-32.956936
-32.956626
-32.956644
-32.956669
-32.956699
-32.956721
-32.956717
-32.956659
-32.956529
-32.956379
-32.955838
-32.955866
-32.955904
-32.955947
-32.955986
-32.956003
-32.955973
-32.955886
-32.955772
-32.95501
-32.955045
-32.955093
-32.955155
-32.955225
-32.955289
-32.955325
-32.955309
-32.955201
-32.95429
-32.954331
-32.954395
-32.95449
-32.954618
-32.954773
-32.954949
-32.955128
-32.955166
-31.16516
-31.165183
-31.165216
-31.165259
-31.165312
-31.165369
-31.165425
-31.165475
-31.165447
-31.165533
-31.165551
-31.165573
-31.165593
-31.165608
-31.165604
-31.165573
-31.165509
-31.165404
-31.165953
-31.165966
-31.16598
-31.165988
-31.165983
-31.165951
-31.165883
-31.165791
-31.1657
-31.166343
-31.166351
-31.166357
-31.166357
-31.166342
-31.166297
-31.166214
-31.16611
-31.16601
-31.166701
-31.166704
-31.166704
-31.166695
-31.166668
-31.166609
-31.16651
-31.166387
-31.166265
-31.167022
-31.167022
-31.167017
-31.167
-31.166963
-31.166891
-31.166776
-31.16663
-31.166484
-31.167297
-31.167294
-31.167285
-31.167263
-31.167218
-31.167136
-31.167007
-31.166842
-31.166673
-31.16753
-31.167524
-31.167511
-31.167484
-31.167433
-31.167344
-31.167203
-31.167022
-31.166832
-31.167717
-31.167709
-31.167692
-31.167662
-31.167607
-31.167512
-31.167362
-31.167168
-31.166959
-31.167859
-31.167849
-31.16783
-31.167797
-31.167739
-31.16764
-31.167483
-31.167278
-31.167054
-31.167956
-31.167944
-31.167924
-31.167888
-31.167828
-31.167725
-31.167564
-31.167352
-31.167118
-31.168003
-31.167991
-31.16797
-31.167933
-31.167872
-31.167768
-31.167605
-31.167389
-31.16715
-31.168004
-31.167992
-31.16797
-31.167934
-31.167873
-31.167769
-31.167605
-31.16739
-31.16715
-31.167957
-31.167946
-31.167925
-31.167889
-31.167829
-31.167727
-31.167566
-31.167354
-31.167119
-31.167861
-31.167851
-31.167833
-31.167799
-31.167741
-31.167642
-31.167485
-31.167281
-31.167057
-31.16772
-31.167712
-31.167696
-31.167665
-31.16761
-31.167515
-31.167366
-31.167171
-31.166962
-31.167534
-31.167528
-31.167515
-31.167488
-31.167437
-31.167348
-31.167208
-31.167026
-31.166836
-31.167302
-31.167299
-31.16729
-31.167268
-31.167223
-31.167142
-31.167013
-31.166847
-31.166679
-31.167029
-31.167028
-31.167023
-31.167007
-31.166969
-31.166898
-31.166782
-31.166636
-31.166491
-31.166708
-31.166712
-31.166712
-31.166703
-31.166675
-31.166616
-31.166518
-31.166394
-31.166273
-31.166352
-31.166359
-31.166366
-31.166366
-31.16635
-31.166305
-31.166222
-31.166118
-31.166018
-31.165963
-31.165976
-31.16599
-31.165998
-31.165992
-31.16596
-31.165893
-31.1658
-31.165709
-31.165544
-31.165562
-31.165583
-31.165604
-31.165618
-31.165615
-31.165584
-31.165519
-31.165414
-31.165172
-31.165195
-31.165227
-31.165271
-31.165324
-31.165381
-31.165436
-31.165486
-31.165458
-29.385916
-29.38593
-29.385951
-29.385978
-29.386012
-29.386055
-29.386106
-29.386165
-29.386179
-29.386133
-29.386145
-29.38616
-29.386175
-29.38619
-29.386201
-29.386205
-29.386197
-29.38616
-29.386376
-29.386386
-29.386397
-29.386406
-29.38641
-29.386406
-29.38639
-29.38636
-29.386328
-29.386605
-29.386612
-29.38662
-29.386625
-29.386624
-29.386613
-29.386588
-29.386549
-29.386513
-29.386819
-29.386824
-29.386828
-29.386828
-29.386821
-29.386804
-29.386772
-29.386725
-29.386683
-29.387019
-29.387021
-29.387021
-29.387017
-29.387005
-29.386982
-29.386944
-29.386891
-29.386841
-29.387197
-29.387196
-29.387193
-29.387185
-29.387169
-29.387142
-29.387099
-29.387041
-29.386983
-29.387353
-29.387349
-29.387343
-29.387332
-29.387313
-29.387282
-29.387234
-29.387171
-29.387105
-29.387483
-29.387478
-29.387469
-29.387455
-29.387432
-29.387398
-29.387347
-29.387279
-29.387204
-29.387583
-29.387577
-29.387567
-29.38755
-29.387525
-29.387488
-29.387434
-29.387362
-29.38728
-29.387652
-29.387645
-29.387633
-29.387615
-29.387588
-29.387549
-29.387493
-29.387418
-29.387331
-29.387686
-29.387678
-29.387667
-29.387648
-29.38762
-29.38758
-29.387523
-29.387447
-29.387357
-29.387687
-29.387679
-29.387667
-29.387648
-29.38762
-29.38758
-29.387524
-29.387447
-29.387357
-29.387653
-29.387646
-29.387635
-29.387617
-29.38759
-29.387551
-29.387495
-29.38742
-29.387332
-29.387586
-29.38758
-29.38757
-29.387553
-29.387528
-29.38749
-29.387436
-29.387364
-29.387282
-29.387487
-29.387482
-29.387473
-29.387459
-29.387436
-29.387402
-29.38735
-29.387283
-29.387208
-29.387358
-29.387354
-29.387348
-29.387337
-29.387318
-29.387287
-29.387239
-29.387176
-29.38711
-29.387203
-29.387202
-29.387199
-29.387191
-29.387175
-29.387148
-29.387105
-29.387047
-29.386989
-29.387026
-29.387028
-29.387028
-29.387024
-29.387012
-29.38699
-29.386951
-29.386898
-29.386849
-29.386828
-29.386833
-29.386837
-29.386837
-29.38683
-29.386813
-29.38678
-29.386734
-29.386692
-29.386615
-29.386622
-29.38663
-29.386635
-29.386634
-29.386623
-29.386598
-29.386559
-29.386523
-29.386387
-29.386397
-29.386409
-29.386418
-29.386422
-29.386417
-29.386401
-29.386371
-29.386339
-29.386145
-29.386157
-29.386172
-29.386187
-29.386202
-29.386213
-29.386218
-29.386209
-29.386172
-29.38593
-29.385944
-29.385965
-29.385991
-29.386026
-29.386069
-29.38612
-29.386178
-29.386193
-27.602234
-27.602238
-27.602246
-27.602257
-27.602273
-27.602293
-27.602315
-27.60234
-27.602346
-27.602363
-27.602366
-27.60237
-27.602375
-27.602379
-27.602381
-27.602378
-27.602369
-27.602349
-27.602504
-27.602506
-27.602508
-27.602509
-27.602508
-27.602502
-27.602489
-27.602473
-27.602458
-27.602636
-27.602637
-27.602636
-27.602636
-27.602632
-27.602623
-27.602607
-27.602589
-27.602573
-27.602759
-27.602758
-27.602756
-27.602753
-27.602746
-27.602734
-27.602716
-27.602694
-27.602672
-27.60287
-27.602868
-27.602865
-27.60286
-27.602851
-27.602836
-27.602814
-27.602787
-27.602758
-27.602967
-27.602964
-27.602959
-27.602953
-27.602943
-27.602927
-27.602901
-27.602869
-27.602833
-27.603049
-27.603046
-27.60304
-27.603033
-27.603022
-27.603004
-27.602976
-27.602939
-27.602895
-27.603116
-27.603112
-27.603106
-27.603098
-27.603086
-27.603067
-27.603038
-27.602996
-27.602946
-27.603168
-27.603163
-27.603157
-27.603148
-27.603136
-27.603116
-27.603085
-27.603039
-27.602984
-27.603203
-27.603198
-27.603191
-27.603182
-27.603169
-27.603149
-27.603117
-27.603069
-27.60301
-27.603221
-27.603215
-27.603208
-27.603199
-27.603186
-27.603166
-27.603133
-27.603084
-27.603023
-27.603221
-27.603216
-27.603209
-27.6032
-27.603187
-27.603167
-27.603134
-27.603085
-27.603024
-27.603205
-27.6032
-27.603193
-27.603184
-27.603171
-27.603151
-27.603118
-27.603071
-27.603011
-27.603171
-27.603166
-27.603159
-27.603151
-27.603139
-27.603119
-27.603088
-27.603042
-27.602987
-27.603121
-27.603116
-27.60311
-27.603102
-27.60309
-27.603072
-27.603042
-27.603
-27.60295
-27.603055
-27.603051
-27.603046
-27.603038
-27.603027
-27.603009
-27.602982
-27.602944
-27.602901
-27.602973
-27.60297
-27.602966
-27.60296
-27.60295
-27.602933
-27.602908
-27.602875
-27.60284
-27.602878
-27.602876
-27.602872
-27.602867
-27.602859
-27.602844
-27.602822
-27.602795
-27.602766
-27.602768
-27.602767
-27.602765
-27.602762
-27.602755
-27.602743
-27.602725
-27.602703
-27.602681
-27.602647
-27.602647
-27.602647
-27.602646
-27.602642
-27.602633
-27.602618
-27.6026
-27.602584
-27.602516
-27.602517
-27.602519
-27.602521
-27.60252
-27.602513
-27.6025
-27.602484
-27.60247
-27.602376
-27.602379
-27.602383
-27.602388
-27.602392
-27.602394
-27.60239
-27.602381
-27.602362
-27.602248
-27.602252
-27.60226
-27.602272
-27.602288
-27.602307
-27.602329
-27.602354
-27.60236
-25.82192
-25.821923
-25.821927
-25.821934
-25.821942
-25.821953
-25.821967
-25.821983
-25.821987
-25.821988
-25.82199
-25.821993
-25.821996
-25.821998
-25.822
-25.822
-25.821996
-25.821984
-25.822062
-25.822063
-25.822065
-25.822066
-25.822066
-25.822063
-25.822057
-25.822048
-25.822037
-25.822131
-25.822132
-25.822133
-25.822132
-25.822131
-25.822126
-25.822119
-25.822107
-25.822096
-25.822196
-25.822196
-25.822196
-25.822194
-25.822191
-25.822185
-25.822176
-25.822162
-25.82215
-25.822256
-25.822255
-25.822254
-25.822251
-25.822247
-25.82224
-25.822229
-25.822214
-25.822199
-25.822309
-25.822308
-25.822306
-25.822302
-25.822297
-25.822289
-25.822277
-25.822261
-25.822243
-25.822355
-25.822354
-25.822351
-25.822347
-25.822341
-25.822332
-25.822319
-25.822301
-25.82228
-25.822394
-25.822392
-25.822388
-25.822384
-25.822377
-25.822367
-25.822354
-25.822334
-25.822311
-25.822423
-25.822421
-25.822417
-25.822412
-25.822405
-25.822395
-25.822381
-25.82236
-25.822335
-25.822443
-25.822441
-25.822437
-25.822431
-25.822424
-25.822414
-25.822399
-25.822378
-25.822352
-25.822454
-25.822451
-25.822447
-25.822441
-25.822434
-25.822424
-25.822409
-25.822387
-25.82236
-25.822454
-25.822451
-25.822448
-25.822442
-25.822434
-25.822424
-25.822409
-25.822388
-25.822361
-25.822445
-25.822442
-25.822439
-25.822433
-25.822426
-25.822416
-25.822401
-25.82238
-25.822353
-25.822426
-25.822424
-25.82242
-25.822415
-25.822408
-25.822398
-25.822384
-25.822363
-25.822338
-25.822398
-25.822396
-25.822393
-25.822388
-25.822381
-25.822372
-25.822358
-25.822339
-25.822316
-25.822361
-25.822359
-25.822356
-25.822352
-25.822346
-25.822337
-25.822324
-25.822306
-25.822286
-25.822316
-25.822314
-25.822312
-25.822309
-25.822304
-25.822296
-25.822284
-25.822267
-25.822249
-25.822264
-25.822263
-25.822262
-25.822259
-25.822255
-25.822248
-25.822237
-25.822222
-25.822207
-25.822205
-25.822205
-25.822205
-25.822203
-25.8222
-25.822194
-25.822185
-25.822172
-25.822159
-25.822142
-25.822142
-25.822143
-25.822143
-25.822141
-25.822137
-25.822129
-25.822117
-25.822106
-25.822073
-25.822075
-25.822077
-25.822078
-25.822077
-25.822075
-25.822069
-25.822059
-25.822049
-25.822001
-25.822003
-25.822006
-25.822009
-25.822011
-25.822013
-25.822013
-25.822009
-25.821996
-25.821934
-25.821937
-25.821941
-25.821948
-25.821956
-25.821967
-25.821981
-25.821997
-25.822001
-24.040506
-24.040507
-24.040509
-24.040512
-24.040516
-24.040522
-24.040528
-24.040537
-24.040539
-24.040547
-24.040547
-24.040548
-24.040549
-24.04055
-24.04055
-24.040549
-24.040548
-24.040542
-24.040589
-24.040589
-24.040589
-24.040589
-24.040589
-24.040587
-24.040584
-24.040579
-24.040575
-24.040629
-24.040629
-24.040629
-24.040628
-24.040626
-24.040624
-24.04062
-24.040615
-24.04061
-24.040666
-24.040666
-24.040665
-24.040663
-24.040661
-24.040658
-24.040653
-24.040647
-24.04064
-24.0407
-24.040699
-24.040698
-24.040696
-24.040693
-24.040689
-24.040683
-24.040676
-24.040667
-24.04073
-24.040728
-24.040727
-24.040725
-24.040722
-24.040717
-24.04071
-24.040701
-24.040691
-24.040755
-24.040754
-24.040752
-24.040749
-24.040746
-24.040741
-24.040734
-24.040723
-24.040711
-24.040776
-24.040774
-24.040772
-24.04077
-24.040766
-24.040761
-24.040753
-24.040741
-24.040727
-24.040792
-24.04079
-24.040788
-24.040785
-24.040782
-24.040776
-24.040768
-24.040755
-24.04074
-24.040803
-24.040801
-24.040799
-24.040796
-24.040792
-24.040787
-24.040778
-24.040765
-24.040748
-24.040809
-24.040807
-24.040805
-24.040802
-24.040798
-24.040792
-24.040784
-24.04077
-24.040753
-24.040809
-24.040807
-24.040805
-24.040802
-24.040798
-24.040793
-24.040784
-24.040771
-24.040754
-24.040805
-24.040803
-24.040801
-24.040798
-24.040794
-24.040789
-24.04078
-24.040767
-24.04075
-24.040795
-24.040793
-24.040791
-24.040788
-24.040784
-24.040779
-24.040771
-24.040758
-24.040743
-24.04078
-24.040778
-24.040776
-24.040774
-24.04077
-24.040765
-24.040757
-24.040745
-24.040731
-24.04076
-24.040759
-24.040757
-24.040754
-24.040751
-24.040746
-24.040739
-24.040728
-24.040716
-24.040736
-24.040735
-24.040733
-24.040731
-24.040728
-24.040723
-24.040717
-24.040707
-24.040697
-24.040707
-24.040707
-24.040705
-24.040703
-24.040701
-24.040697
-24.040691
-24.040683
-24.040675
-24.040675
-24.040674
-24.040673
-24.040672
-24.04067
-24.040667
-24.040661
-24.040655
-24.040649
-24.040639
-24.040639
-24.040638
-24.040638
-24.040636
-24.040634
-24.040629
-24.040624
-24.040619
-24.0406
-24.0406
-24.040601
-24.0406
-24.0406
-24.040598
-24.040594
-24.04059
-24.040586
-24.040559
-24.04056
-24.04056
-24.040561
-24.040562
-24.040562
-24.040562
-24.040559
-24.040554
-24.04052
-24.040521
-24.040523
-24.040525
-24.04053
-24.040535
-24.040542
-24.04055
-24.040552
-22.259817
-22.259817
-22.259818
-22.25982
-22.259822
-22.259825
-22.259829
-22.259833
-22.259834
-22.259838
-22.259838
-22.259839
-22.259839
-22.25984
-22.25984
-22.25984
-22.259839
-22.259835
-22.25986
-22.25986
-22.259861
-22.259861
-22.25986
-22.259859
-22.259858
-22.259855
-22.259852
-22.259881
-22.259881
-22.259881
-22.259881
-22.25988
-22.259878
-22.259876
-22.259873
-22.25987
-22.2599
-22.2599
-22.2599
-22.259899
-22.259898
-22.259896
-22.259894
-22.25989
-22.259886
-22.259918
-22.259917
-22.259917
-22.259916
-22.259915
-22.259913
-22.25991
-22.259906
-22.259901
-22.259933
-22.259933
-22.259932
-22.259931
-22.25993
-22.259928
-22.259924
-22.25992
-22.259914
-22.259947
-22.259946
-22.259946
-22.259944
-22.259943
-22.25994
-22.259937
-22.259932
-22.259926
-22.259958
-22.259957
-22.259957
-22.259955
-22.259953
-22.259951
-22.259947
-22.259942
-22.259935
-22.259967
-22.259966
-22.259965
-22.259964
-22.259962
-22.259959
-22.259955
-22.25995
-22.259942
-22.259972
-22.259972
-22.259971
-22.259969
-22.259968
-22.259965
-22.259961
-22.259955
-22.259947
-22.259976
-22.259975
-22.259974
-22.259973
-22.259971
-22.259968
-22.259964
-22.259958
-22.25995
-22.259976
-22.259976
-22.259975
-22.259973
-22.259971
-22.259969
-22.259965
-22.259958
-22.25995
-22.259974
-22.259973
-22.259972
-22.259971
-22.259969
-22.259967
-22.259963
-22.259956
-22.259948
-22.259969
-22.259968
-22.259967
-22.259966
-22.259964
-22.259962
-22.259958
-22.259952
-22.259944
-22.259961
-22.259961
-22.25996
-22.259959
-22.259957
-22.259954
-22.259951
-22.259945
-22.259938
-22.259951
-22.259951
-22.25995
-22.259949
-22.259947
-22.259945
-22.259941
-22.259936
-22.25993
-22.259939
-22.259938
-22.259938
-22.259937
-22.259935
-22.259933
-22.25993
-22.259925
-22.25992
-22.259924
-22.259924
-22.259923
-22.259923
-22.259921
-22.259919
-22.259916
-22.259912
-22.259907
-22.259908
-22.259907
-22.259907
-22.259907
-22.259905
-22.259904
-22.259901
-22.259897
-22.259894
-22.259889
-22.259889
-22.259889
-22.259889
-22.259888
-22.259887
-22.259885
-22.259881
-22.259878
-22.25987
-22.25987
-22.25987
-22.25987
-22.25987
-22.259869
-22.259867
-22.259864
-22.259861
-22.259849
-22.259849
-22.259849
-22.25985
-22.25985
-22.25985
-22.25985
-22.259849
-22.259846
-22.259828
-22.259829
-22.25983
-22.259831
-22.259834
-22.259836
-22.25984
-22.259845
-22.259846
-20.478922
-20.478923
-20.478923
-20.478924
-20.478925
-20.478926
-20.478928
-20.47893
-20.478931
-20.478934
-20.478934
-20.478935
-20.478935
-20.478935
-20.478935
-20.478935
-20.478934
-20.478932
-20.478947
-20.478947
-20.478947
-20.478946
-20.478946
-20.478946
-20.478945
-20.478943
-20.478942
-20.478958
-20.478958
-20.478958
-20.478958
-20.478957
-20.478956
-20.478955
-20.478954
-20.478952
-20.478969
-20.478969
-20.478968
-20.478968
-20.478967
-20.478966
-20.478965
-20.478963
-20.478961
-20.478979
-20.478978
-20.478978
-20.478977
-20.478977
-20.478976
-20.478974
-20.478972
-20.478969
-20.478987
-20.478987
-20.478987
-20.478986
-20.478985
-20.478984
-20.478982
-20.478979
-20.478976
-20.478995
-20.478995
-20.478994
-20.478993
-20.478992
-20.478991
-20.478989
-20.478986
-20.478982
-20.479001
-20.479001
-20.479
-20.478999
-20.478998
-20.478997
-20.478995
-20.478992
-20.478988
-20.479006