/*--------------------------------*- C++ -*----------------------------------*\
| =========                 |                                                 |
| \\      /  F ield         | OpenFOAM: The Open Source CFD Toolbox           |
|  \\    /   O peration     | Version:  2406                                  |
|   \\  /    A nd           | Website:  www.openfoam.com                      |
|    \\/     M anipulation  |                                                 |
\*---------------------------------------------------------------------------*/
FoamFile
{
    version     2.0;
    format      ascii;
    arch        "LSB;label=32;scalar=64";
    class       surfaceScalarField;
    location    "17";
    object      phi;
}
// * * * * * * * * * * * * * * * * * * * * * * * * * * * * * * * * * * * * * //

dimensions      [0 3 -1 0 0 0 0];

oriented        oriented;

internalField   nonuniform List<scalar> 
101088
(
-2.3698389e-05
1.658662e-05
-1.0687205e-05
-1.4535956e-05
-3.3667469e-05
7.0387856e-05
-4.3534352e-05
-6.2133968e-05
-1.6498993e-05
0.00016609747
-9.768047e-05
-0.00014713023
3.6107863e-05
0.00030842456
-0.00016784291
-0.00027359928
0.00011378109
0.00048313725
-0.00023110466
-0.00042916215
0.00018049172
0.00065651913
-0.00025511734
-0.0005826829
0.00019166203
0.00078873129
-0.00022411363
-0.00069686684
0.00013492561
0.00085191444
-0.0001649855
-0.00074640628
0.00084532383
-0.00010460455
-0.0007296869
2.2717918e-05
-2.8553277e-05
1.8348697e-05
-1.287416e-05
-3.8999352e-05
7.7071937e-05
-5.1672214e-05
-1.423912e-05
0.00018015487
-0.00011411552
5.6213232e-05
0.00033205654
-0.00019238233
0.00015805904
0.00051815809
-0.00025850793
0.0002461035
0.00070463944
-0.0002767234
0.00027293915
0.00084833026
-0.00023603231
0.00022988245
0.00092007666
-0.00017048159
0.00091550433
-0.00010503626
0.00013579805
-3.3269704e-05
1.9561905e-05
-1.5007388e-05
-4.378576e-05
8.1376621e-05
-5.9453388e-05
-1.1865457e-05
0.00018860851
-0.00012939515
7.3224679e-05
0.00034506149
-0.00021407832
0.00019303874
0.00053558934
-0.00028055533
0.00029434735
0.00072661738
-0.00028883957
0.0003329523
0.00087378048
-0.00024058374
0.0003012854
0.00094897577
-0.00016963387
0.00094296364
-0.0001009411
0.00022058395
-3.782536e-05
2.0054037e-05
-1.6951472e-05
-4.8447107e-05
8.2741244e-05
-6.6350934e-05
-1.0087249e-05
0.00019042803
-0.00014246125
8.7289229e-05
0.00034620909
-0.00023146013
0.00022001037
0.00053487323
-0.0002958632
0.00032909723
0.000723461
-0.000294863
0.0003749232
0.00086841965
-0.00024179944
0.00034904417
0.00094177947
-0.0001637788
0.00093316941
-9.3606442e-05
0.00027580991
-4.2102539e-05
1.9664521e-05
-1.8643501e-05
-5.2897786e-05
8.0725834e-05
-7.2197658e-05
-9.0886794e-06
0.00018497712
-0.00015311352
9.7988665e-05
0.00033488131
-0.00024452853
0.00023893952
0.00051576253
-0.00030473757
0.00035214722
0.00069539914
-0.00029549038
0.00040034971
0.00083308708
-0.00023660305
0.00037645005
0.00090156934
-0.00015448731
0.00089027044
-8.4410191e-05
0.00030747763
-4.6316828e-05
1.8582731e-05
-2.0088755e-05
-5.8132154e-05
7.5882412e-05
-7.704363e-05
-1.0965018e-05
0.00017309059
-0.00016152531
0.00010241384
0.0003120388
-0.00025381246
0.00024684505
0.00047895633
-0.00030779063
0.00036101503
0.00064308435
-0.00029142197
0.00040864827
0.00076931944
-0.00022744103
0.00038490117
0.00083080614
-0.00014305839
0.00081751697
-7.4302733e-05
0.00031880779
-5.0011252e-05
1.6716025e-05
-2.1251474e-05
-6.2738168e-05
6.8012236e-05
-8.0806055e-05
-1.3003781e-05
0.00015463424
-0.0001676674
0.00010468462
0.000277878
-0.00025955166
0.00024946796
0.0004251154
-0.00030619436
0.00036264447
0.00056909537
-0.00028539591
0.00040690481
0.00068041624
-0.00021591753
0.00038124155
0.00073348962
-0.00013062216
0.0007194592
-6.4039234e-05
0.00031612126
-5.3272083e-05
1.4172866e-05
-2.2161357e-05
-6.7128237e-05
5.7526305e-05
-8.3663947e-05
-1.6040528e-05
0.00013052327
-0.00017203483
0.00010366593
0.0002340891
-0.00026278579
0.00024772706
0.0003575116
-0.00030447527
0.00035881272
0.00047765883
-0.00027983933
0.00039808692
0.00057031183
-0.00020386959
0.00036945133
0.00061378682
-0.0001184631
0.0006004311
-5.4386301e-05
0.00030420428
-5.6010951e-05
1.1085837e-05
-2.2850466e-05
-7.1062291e-05
4.4935745e-05
-8.5768687e-05
-1.945673e-05
0.00010184276
-0.00017506621
0.00010087538
0.00018245654
-0.00026439685
0.00024344932
0.00027835953
-0.00030178276
0.00035138331
0.0003713777
-0.00027310128
0.00038555066
0.0004429227
-0.00019277816
0.00035367009
0.00047605666
-0.00010764263
0.00046472057
-4.5988665e-05
0.00028773831
-5.8184405e-05
7.6299778e-06
-2.3341816e-05
-7.4420459e-05
3.0872068e-05
-8.7232482e-05
-2.2917216e-05
6.9860237e-05
-0.00017705593
9.7140059e-05
0.00012498731
-0.00026499548
0.00023785625
0.00019044591
-0.00029899641
0.00034246337
0.00025379542
-0.00026695553
0.0003721891
0.00030242844
-0.00018369224
0.00033744606
0.00032474308
-9.896215e-05
0.00031653588
-3.9353445e-05
0.00027074751
-5.9621186e-05
3.8783252e-06
-2.3646941e-05
-7.6630581e-05
1.5681225e-05
-8.8097127e-05
-2.5286403e-05
3.5476066e-05
-0.00017810623
9.4205966e-05
6.3456951e-05
-0.0002648535
0.00023313113
9.6629957e-05
-0.00029652588
0.00033491377
0.00012868968
-0.00026224282
0.00036128865
0.00015325322
-0.00017725595
0.00032441454
0.00016445523
-9.2963971e-05
0.00016015275
-3.4845007e-05
0.00025708899
-6.0377511e-05
4.5596178e-11
-2.3794103e-05
-7.7863526e-05
1.0791628e-10
-8.8527619e-05
-2.6693777e-05
4.7291616e-11
-0.00017866198
9.2470439e-05
-1.213808e-10
-0.00026485872
0.00023048313
-2.1010893e-11
-0.00029543022
0.00033080667
-2.3033044e-10
-0.0002600335
0.0003554132
-2.2294948e-10
-0.00017421758
0.00031731572
-1.2569158e-11
-9.0129792e-05
1.2638784e-10
-3.2725683e-05
0.00024948627
-6.0377679e-05
-3.8782158e-06
-2.3794101e-05
-7.7863978e-05
-1.5680992e-05
-8.8527609e-05
-2.669374e-05
-3.5475995e-05
-0.00017866196
9.2471159e-05
-6.3457204e-05
-0.00026485869
0.00023048323
-9.6630106e-05
-0.00029543019
0.00033080683
-0.00012869042
-0.00026003348
0.00035541335
-0.00015325403
-0.00017421758
0.00031731557
-0.00016445565
-9.0129803e-05
-0.00016015285
-3.2725693e-05
0.00024948648
-5.9621911e-05
-7.6299569e-06
-2.3646945e-05
-7.6632102e-05
-3.0872047e-05
-8.8097133e-05
-2.5286362e-05
-6.9860363e-05
-0.00017810623
9.4207809e-05
-0.0001249876
-0.0002648535
0.00023313127
-0.00019044639
-0.00029652589
0.00033491427
-0.00025379694
-0.00026224285
0.00036128913
-0.00030243026
-0.00017725599
0.00032441412
-0.0003247446
-9.2964016e-05
-0.00031653683
-3.4845033e-05
0.00025708941
-5.8185341e-05
-1.1085949e-05
-2.3341814e-05
-7.4421946e-05
-4.493593e-05
-8.7232471e-05
-2.2916658e-05
-0.00010184287
-0.00017705591
9.7142148e-05
-0.00018245673
-0.00026499544
0.00023785585
-0.00027836056
-0.00029899638
0.00034246405
-0.00037138024
-0.00026695553
0.00037218981
-0.00044292582
-0.00018369227
0.00033744548
-0.00047605958
-9.8962196e-05
-0.00046472244
-3.9353473e-05
0.00027074785
-5.6010789e-05
-1.4172809e-05
-2.2850461e-05
-7.1061587e-05
-5.7526084e-05
-8.5768672e-05
-1.9455533e-05
-0.00013052294
-0.00017506619
0.00010087642
-0.00023408941
-0.00026439683
0.00024344823
-0.00035751351
-0.00030178278
0.00035138423
-0.00047766204
-0.00027310128
0.00038555159
-0.00057031584
-0.00019277818
0.00035366968
-0.00061379077
-0.00010764266
-0.00060043353
-4.5988688e-05
0.00028773844
-5.327151e-05
-1.6716102e-05
-2.2161357e-05
-6.7127639e-05
-6.8012691e-05
-8.3663949e-05
-1.6041364e-05
-0.00015463511
-0.00017203484
0.00010366538
-0.00027787928
-0.00026278582
0.00024772629
-0.00042511739
-0.00030447533
0.00035881377
-0.00056909762
-0.0002798393
0.00039808784
-0.00068041986
-0.00020386959
0.00036945137
-0.00073349348
-0.00011846311
-0.00071946166
-5.4386315e-05
0.0003042043
-5.001139e-05
-1.8582947e-05
-2.1251476e-05
-6.2738891e-05
-7.5883075e-05
-8.0806068e-05
-1.3005144e-05
-0.00017309109
-0.00016766743
0.00010468484
-0.00031203839
-0.00025955169
0.00024946854
-0.00047895623
-0.00030619438
0.00036264491
-0.00064308476
-0.00028539587
0.00040690541
-0.00076932186
-0.00021591753
0.00038124199
-0.00083080881
-0.00013062215
-0.00081751936
-6.4039236e-05
0.00031612148
-4.6316386e-05
-1.9664265e-05
-2.0088757e-05
-5.8131217e-05
-8.0725172e-05
-7.7043644e-05
-1.0964953e-05
-0.00018497647
-0.00016152534
0.00010241325
-0.00033488143
-0.00025381246
0.00024684535
-0.00051576432
-0.00030779069
0.00036101419
-0.0006954012
-0.00029142203
0.00040864844
-0.00083308927
-0.00022744108
0.00038490097
-0.00090157069
-0.00014305838
-0.00089027287
-7.4302714e-05
0.00031880815
-4.2102352e-05
-2.0054118e-05
-1.86435e-05
-5.2898498e-05
-8.2741617e-05
-7.2197656e-05
-9.0915532e-06
-0.00019042921
-0.00015311351
9.798661e-05
-0.00034621068
-0.00024452851
0.0002389415
-0.00053487418
-0.0003047376
0.00035214718
-0.00072346297
-0.00029549039
0.00040034967
-0.00086842127
-0.00023660305
0.00037644811
-0.00094178009
-0.00015448728
-0.0009331706
-8.4410138e-05
0.00030747734
-3.782564e-05
-1.9561911e-05
-1.6951466e-05
-4.844772e-05
-8.1376647e-05
-6.6350911e-05
-1.0087521e-05
-0.00018860871
-0.0001424612
8.7290342e-05
-0.00034506182
-0.00023146005
0.00022001186
-0.00053558968
-0.00029586308
0.00032909716
-0.00072661927
-0.00029486294
0.0003749229
-0.00087378166
-0.0002417994
0.00034904185
-0.00094897553
-0.00016377875
-0.00094296349
-9.3606358e-05
0.00027580848
-3.3269698e-05
-1.8348657e-05
-1.500738e-05
-4.3785597e-05
-7.7071817e-05
-5.9453361e-05
-1.1864714e-05
-0.00018015467
-0.0001293951
7.3225982e-05
-0.00033205618
-0.00021407824
0.00019303953
-0.00051815743
-0.00028055523
0.00029434877
-0.00070463935
-0.00028883953
0.00033295253
-0.00084833202
-0.00024058371
0.00030128363
-0.0009200763
-0.00016963381
-0.00091550711
-0.00010094099
0.00022058371
-2.8553187e-05
-1.6586664e-05
-1.2874155e-05
-3.899898e-05
-7.0388048e-05
-5.1672196e-05
-1.4238097e-05
-0.00016609802
-0.00011411548
5.6214986e-05
-0.00030842583
-0.00019238228
0.00015805963
-0.00048313935
-0.00025850787
0.00024610311
-0.00065652161
-0.00027672335
0.00027293929
-0.00078873386
-0.00023603228
0.00022987755
-0.00085191633
-0.00017048152
-0.00084532416
-0.00010503611
0.00013579938
-2.3698436e-05
-1.0687202e-05
-1.4535992e-05
-3.3667363e-05
-4.353434e-05
-6.2134071e-05
-1.6498176e-05
-9.7680446e-05
-0.00014713034
3.610981e-05
-0.00016784287
-0.00027359933
0.00011378291
-0.00023110463
-0.00042916247
0.00018049249
-0.00025511737
-0.00058268404
0.00019166269
-0.00022411362
-0.00069686839
0.00013492536
-0.00016498546
-0.00074640515
-0.00010460447
-0.0007296854
2.2721585e-05
2.7997674e-07
3.1251686e-06
-1.1615013e-05
-2.4773315e-06
2.7065858e-06
1.3665912e-05
-4.8687365e-05
-1.093951e-05
9.4988356e-06
3.2687304e-05
-0.0001108133
-2.634675e-05
2.1966464e-05
5.975684e-05
-0.00019154091
-4.8526532e-05
4.0139849e-05
8.7442697e-05
-0.00026504592
-7.1674508e-05
6.1559561e-05
0.00010228962
-0.00029468151
-8.4144177e-05
8.2409548e-05
9.7103752e-05
-0.00026422454
-7.7842947e-05
9.2077388e-05
8.1931755e-05
-0.00019592744
-6.0659238e-05
6.259094e-05
-0.00012573891
-4.2193205e-05
9.2813848e-05
3.720534e-07
3.7000151e-06
-1.3821071e-05
3.6444869e-06
1.6049183e-05
-5.7328044e-05
1.300802e-05
3.7979376e-05
-0.00012877143
3.0494761e-05
6.841634e-05
-0.00021852896
5.5895882e-05
9.8454449e-05
-0.00029492068
8.5308994e-05
0.00011368727
-0.00031753353
0.00011055424
0.00010992714
-0.00027410087
0.00011861844
9.6138062e-05
-0.00019275132
7.8355329e-05
-0.00011794787
0.00011576457
5.2144398e-07
4.1132637e-06
-1.5942056e-05
4.9191329e-06
1.7738804e-05
-6.5540655e-05
1.7316915e-05
4.1680163e-05
-0.00014549345
4.0102686e-05
7.4251832e-05
-0.00024269857
7.2256364e-05
0.00010543014
-0.00031968329
0.0001091168
0.00012105552
-0.00033306903
0.00013564398
0.00012001573
-0.00027719973
0.00013884608
0.00010620941
-0.00018290787
9.0649527e-05
-0.00010441307
0.00013002354
6.8847404e-07
4.321826e-06
-1.7848562e-05
6.2920143e-06
1.8571011e-05
-7.2786984e-05
2.1910934e-05
4.342813e-05
-0.00015982879
5.033547e-05
7.6732129e-05
-0.00026236546
8.9601303e-05
0.00010797403
-0.00033767227
0.00013281272
0.00012370405
-0.00034072239
0.00015619535
0.00012385363
-0.00026902015
0.00015461931
0.00011185858
-0.00016785168
9.8758102e-05
-8.7426141e-05
0.00014033009
8.4063899e-07
4.3036541e-06
-1.9466009e-05
7.5630411e-06
1.8480847e-05
-7.8829507e-05
2.6174138e-05
4.3122344e-05
-0.0001714175
5.9848089e-05
7.5865215e-05
-0.00027733418
0.00010595184
0.00010617957
-0.00034904743
0.0001537194
0.00012206797
-0.00034162166
0.00017356664
0.00012350903
-0.00025610617
0.00016706789
0.00011325831
-0.00014938871
0.00010213975
-6.8894956e-05
0.00014817071
9.1053674e-07
4.1143788e-06
-2.0810273e-05
8.4429633e-06
1.7642195e-05
-8.3737912e-05
2.9409791e-05
4.1085318e-05
-0.00018045495
6.7254433e-05
7.2084391e-05
-0.00028787486
0.00011952068
0.00010085137
-0.00035472841
0.00017110725
0.00011781062
-0.00033875107
0.00018744972
0.00011920004
-0.00023947518
0.00017647508
0.00011014581
-0.00012897178
0.00010050063
-5.0014443e-05
0.00015382597
9.8749081e-07
3.741761e-06
-2.1866326e-05
9.2673514e-06
1.6034767e-05
-8.7478364e-05
3.2320465e-05
3.7331084e-05
-0.00018696606
7.3710322e-05
6.5510908e-05
-0.00029436797
0.00013170289
9.2275166e-05
-0.00035561163
0.00018438597
0.00010938654
-0.00032965517
0.00019791986
0.00011026933
-0.00022052099
0.00018313914
0.00010224468
-0.00010794045
9.3838386e-05
-3.1689023e-05
0.00015745142
1.0495188e-06
3.1948657e-06
-2.2664065e-05
9.9500517e-06
1.3694098e-05
-9.0223704e-05
3.4798363e-05
3.1905657e-05
-0.00019145712
7.948075e-05
5.6048666e-05
-0.00029800533
0.00014157049
7.9255916e-05
-0.00035354641
0.000193081
9.4938663e-05
-0.00031690228
0.00020483783
9.6016774e-05
-0.00020137374
0.00018710325
8.9379872e-05
-8.7863554e-05
8.2301576e-05
-1.4839704e-05
0.00015909362
1.0800861e-06
2.5087279e-06
-2.3244285e-05
1.0405469e-05
1.0765683e-05
-9.2165666e-05
3.6565879e-05
2.5105214e-05
-0.00019442644
8.3804578e-05
4.4142541e-05
-0.00029972925
0.0001487822
6.258684e-05
-0.00035009149
0.00019843792
7.5318263e-05
-0.00030313681
0.00020876627
7.6779655e-05
-0.00018386908
0.00018876524
7.1844071e-05
-7.0105504e-05
6.6311422e-05
-2.83593e-07
0.00015905033
1.0797957e-06
1.7289166e-06
-2.3641474e-05
1.0650265e-05
7.4223262e-06
-9.3459373e-05
3.7647786e-05
1.7310182e-05
-0.00019625901
8.661827e-05
3.044426e-05
-0.00030026802
0.00015331433
4.3267281e-05
-0.00034637288
0.00020159781
5.2257088e-05
-0.00029217789
0.00021050944
5.3591518e-05
-0.00016941544
0.00018878092
5.0379381e-05
-5.5768587e-05
4.658174e-05
1.1282677e-05
0.00015787442
1.0882467e-06
8.8421048e-07
-2.3890401e-05
1.0836937e-05
3.792657e-06
-9.4216068e-05
3.83696e-05
8.8430757e-06
-0.00019717213
8.8410246e-05
1.5555096e-05
-0.00030000517
0.00015601108
2.214595e-05
-0.00034300514
0.00020326429
2.6797827e-05
-0.00028403661
0.00021098898
2.7599323e-05
-0.00015898825
0.00018804872
2.6030697e-05
-4.5674692e-05
2.4091487e-05
1.9304121e-05
0.00015638979
1.0875573e-06
-3.0823596e-12
-2.3997563e-05
1.0907287e-05
-2.2003589e-12
-9.4554759e-05
3.8678024e-05
-1.0000131e-11
-0.00019758964
8.9229487e-05
-8.6952464e-11
-0.00029985476
0.00015726481
-2.4332856e-10
-0.00034131901
0.00020398605
-5.4027207e-10
-0.00027995606
0.00021104362
-6.1287851e-10
-0.00015367516
0.00018745611
-3.1711173e-10
-4.0511041e-05
2.870934e-10
2.3413664e-05
0.00015540787
1.0875655e-06
-8.8417766e-07
-2.399756e-05
1.0907268e-05
-3.7925638e-06
-9.4554746e-05
3.8678087e-05
-8.8429792e-06
-0.00019758961
8.9229695e-05
-1.5555182e-05
-0.00029985472
0.0001572649
-2.2146428e-05
-0.00034131898
0.00020398619
-2.6798956e-05
-0.00027995605
0.00021104372
-2.7600645e-05
-0.00015367517
0.00018745612
-2.6031457e-05
-4.0511061e-05
-2.4091048e-05
2.3413648e-05
0.00015540792
1.0881542e-06
-1.7288389e-06
-2.3890401e-05
1.0836733e-05
-7.4221092e-06
-9.4216067e-05
3.836973e-05
-1.7309885e-05
-0.00019717213
8.8410782e-05
-3.0444122e-05
-0.00030000516
0.00015601135
-4.3267717e-05
-0.00034300516
0.00020326469
-5.2258326e-05
-0.00028403665
0.00021098927
-5.3593102e-05
-0.0001589883
0.00018804876
-5.0380447e-05
-4.5674748e-05
-4.6581545e-05
1.9304081e-05
0.00015638988
1.0795448e-06
-2.5086646e-06
-2.364147e-05
1.0649875e-05
-1.0765467e-05
-9.3459357e-05
3.7647939e-05
-2.5104806e-05
-0.00019625898
8.6618849e-05
-4.4142194e-05
-0.00030026798
0.00015331466
-6.2587227e-05
-0.00034637286
0.00020159835
-7.5319639e-05
-0.00029217791
0.00021050986
-7.6781598e-05
-0.00016941551
0.00018878098
-7.184549e-05
-5.5768666e-05
-6.6311263e-05
1.128262e-05
0.00015787444
1.0799964e-06
-3.1948049e-06
-2.3244282e-05
1.0405418e-05
-1.3693872e-05
-9.2165659e-05
3.6566057e-05
-3.190522e-05
-0.00019442643
8.3804759e-05
-5.6048334e-05
-0.00029972924
0.00014878242
-7.9256417e-05
-0.00035009152
0.00019843851
-9.4940243e-05
-0.00030313686
0.00020876682
-9.6019068e-05
-0.00018386917
0.00018876548
-8.9381512e-05
-7.0105589e-05
-8.2301092e-05
-2.8365462e-07
0.00015905045
1.0496389e-06
-3.7417276e-06
-2.2664065e-05
9.9501988e-06
-1.6034686e-05
-9.0223707e-05
3.4798152e-05
-3.7330973e-05
-0.00019145714
7.9480276e-05
-6.5510925e-05
-0.00029800536
0.00014157056
-9.2275844e-05
-0.00035354648
0.0001930815
-0.00010938825
-0.00031690234
0.0002048385
-0.00011027174
-0.00020137383
0.00018710388
-0.00010224624
-8.7863635e-05
-9.3837441e-05
-1.4839768e-05
0.00015909412
9.8749997e-07
-4.1143797e-06
-2.1866329e-05
9.2673271e-06
-1.7642217e-05
-8.7478379e-05
3.2320179e-05
-4.1085244e-05
-0.0001869661
7.3709752e-05
-7.2084209e-05
-0.00029436802
0.00013170293
-0.00010085181
-0.00035561171
0.00018438635
-0.0001178122
-0.00032965523
0.0001979207
-0.00011920216
-0.00022052108
0.00018314028
-0.00011014702
-0.00010794053
-0.0001004996
-3.168909e-05
0.00015745228
9.1071388e-07
-4.3035918e-06
-2.0810277e-05
8.4434607e-06
-1.8480681e-05
-8.3737932e-05
2.9410017e-05
-4.3122119e-05
-0.000180455
6.7253721e-05
-7.5865275e-05
-0.00028787494
0.00011952052
-0.0001061804
-0.00035472853
0.00017110754
-0.00012206948
-0.00033875119
0.00018745068
-0.00012351059
-0.00023947531
0.00017647635
-0.00011325912
-0.00012897186
-0.00010213922
-5.00145e-05
0.0001538268
8.407426e-07
-4.3218475e-06
-1.9466007e-05
7.563063e-06
-1.857115e-05
-7.8829504e-05
2.6173595e-05
-4.3428584e-05
-0.0001714175
5.9847174e-05
-7.6732952e-05
-0.0002773342
0.00010595198
-0.00010797495
-0.00034904749
0.00015371973
-0.00012370561
-0.00034162173
0.00017356732
-0.00012385514
-0.00025610627
0.00016706839
-0.00011185934
-0.00014938878
-9.8757833e-05
-6.8894985e-05
0.00014817101
6.8847173e-07
-4.1132235e-06
-1.7848556e-05
6.2921648e-06
-1.7738693e-05
-7.278696e-05
2.1911491e-05
-4.1680042e-05
-0.00015982875
5.033625e-05
-7.4251888e-05
-0.0002623654
8.9601593e-05
-0.00010543086
-0.00033767223
0.00013281278
-0.00012105748
-0.0003407224
0.00015619553
-0.00012001766
-0.0002690202
0.00015461911
-0.00010621068
-0.00016785171
-9.0648989e-05
-8.7426141e-05
0.0001403299
5.2147133e-07
-3.7000201e-06
-1.5942049e-05
4.9193461e-06
-1.6049232e-05
-6.5540631e-05
1.731743e-05
-3.7979557e-05
-0.0001454934
4.0103095e-05
-6.841687e-05
-0.00024269852
7.2255988e-05
-9.845558e-05
-0.00031968324
0.00010911689
-0.00011368891
-0.00033306903
0.00013564412
-0.00010992917
-0.00027719975
0.00013884664
-9.6139589e-05
-0.00018290785
-7.835546e-05
-0.00010441303
0.00013002437
3.7209657e-07
-3.125177e-06
-1.3821065e-05
3.6446835e-06
-1.366597e-05
-5.7328024e-05
1.3008518e-05
-3.26875e-05
-0.00012877139
3.0495519e-05
-5.9757436e-05
-0.00021852891
5.5896193e-05
-8.7444149e-05
-0.00029492064
8.5308786e-05
-0.00010229209
-0.00031753351
0.00011055384
-9.7106424e-05
-0.00027410085
0.00011861788
-8.193387e-05
-0.00019275126
-6.2591529e-05
-0.00011794779
0.00011576464
2.7999401e-07
-1.161501e-05
-2.4773339e-06
2.7066814e-06
-4.8687354e-05
-1.093954e-05
9.4991021e-06
-0.00011081328
-2.6346874e-05
2.1966997e-05
-0.00019154088
-4.8526986e-05
4.0140445e-05
-0.00026504591
-7.1675738e-05
6.1559525e-05
-0.00029468153
-8.4146249e-05
8.2408265e-05
-0.00026422452
-7.7844782e-05
9.2076658e-05
-0.0001959274
-6.0658804e-05
-0.00012573886
-4.2192652e-05
9.2812788e-05
1.7495153e-07
9.1605818e-07
-1.1683187e-05
-1.0228367e-06
7.4243516e-07
3.6154624e-06
-4.8709514e-05
-4.1608042e-06
2.5692584e-06
7.5284194e-06
-0.00011106029
-9.1082866e-06
8.1054923e-06
1.0556704e-05
-0.00019325054
-1.4383299e-05
2.0429346e-05
6.9627221e-06
-0.00026923021
-1.5102106e-05
4.1335822e-05
-1.1304412e-05
-0.00030048061
-3.8026476e-06
6.8094592e-05
-4.6832411e-05
-0.00026800093
2.3849977e-05
9.3834574e-05
-8.742685e-05
-0.00019402537
5.978451e-05
-0.00011156637
-0.0001200155
8.7630889e-05
0.00011204696
2.6120668e-07
8.2173746e-07
-1.3987965e-05
1.2247789e-06
3.0591849e-06
-5.7735337e-05
4.3128411e-06
5.7910575e-06
-0.00013012217
1.2923424e-05
6.3048813e-06
-0.00022288783
3.0598815e-05
-1.673161e-06
-0.00030396031
5.7641942e-05
-2.6089383e-05
-0.0003297917
8.7639522e-05
-6.7311082e-05
-0.0002836198
0.00011328865
-0.00010953508
-0.00019629284
-0.00013090024
-0.00011418564
0.00012885986
3.8212223e-07
7.2402429e-07
-1.6226485e-05
1.820659e-06
2.5071672e-06
-6.6427157e-05
6.2151825e-06
4.1167119e-06
-0.00014821346
1.7756617e-05
2.3328315e-06
-0.00025026741
4.0244931e-05
-9.3960086e-06
-0.00033444793
7.2519085e-05
-3.8582435e-05
-0.00035285015
0.00010383609
-8.3766002e-05
-0.00029206243
0.0001277751
-0.0001242881
-0.00019209397
-0.00014174955
-0.00010337687
0.00013758832
5.1906714e-07
6.1576575e-07
-1.8259433e-05
2.4948392e-06
1.9547472e-06
-7.421045e-05
8.2932664e-06
2.5797874e-06
-0.00016409041
2.2753076e-05
-1.0059702e-06
-0.00027348625
4.9673123e-05
-1.5331133e-05
-0.00035865659
8.5762167e-05
-4.7034373e-05
-0.00036835969
0.00011896309
-9.2702273e-05
-0.00029328498
0.00013990982
-0.00013052214
-0.00018256443
-0.00014424862
-8.9067933e-05
0.00014405041
6.4461954e-07
5.0750424e-07
-2.0002406e-05
3.1195146e-06
1.4528141e-06
-8.0802592e-05
1.0245708e-05
1.307978e-06
-0.00017727199
2.7451275e-05
-3.5135242e-06
-0.0002920319
5.8573135e-05
-1.912742e-05
-0.00037637271
9.7590161e-05
-5.0977076e-05
-0.0003766963
0.00013260306
-9.4690603e-05
-0.00028913077
0.00015065636
-0.00012885975
-0.00016910433
-0.00013954648
-7.2855706e-05
0.00014991506
7.6022469e-07
4.0183774e-07
-2.1464793e-05
3.703817e-06
1.0111078e-06
-8.6239691e-05
1.2106976e-05
3.0432533e-07
-0.00018785414
3.2065956e-05
-5.1946048e-06
-0.00030615206
6.7434966e-05
-2.1080113e-05
-0.000388145
0.00010850981
-5.1975805e-05
-0.00037882772
0.00014528466
-9.1194414e-05
-0.00027974642
0.00016095192
-0.00012058142
-0.00015291698
-0.00012880885
-5.5809687e-05
0.00015600998
8.5749383e-07
3.0213861e-07
-2.2624176e-05
4.2023916e-06
6.424307e-07
-9.0454772e-05
1.3719124e-05
-4.1016768e-07
-0.0001957684
3.6100641e-05
-6.0112947e-06
-0.00031593229
7.4991297e-05
-2.1116989e-05
-0.00039446564
0.00011861208
-4.9484324e-05
-0.00037576705
0.00015658806
-8.2930554e-05
-0.00026676077
0.00017037783
-0.0001070933
-0.00013521798
-0.00011333021
-3.8832482e-05
0.00016204302
9.3084955e-07
2.150573e-07
-2.3507769e-05
4.5900812e-06
3.6303329e-07
-9.3603519e-05
1.4998309e-05
-8.0661926e-07
-0.00020146894
3.9306491e-05
-5.9721086e-06
-0.0003223525
8.0880108e-05
-1.9254306e-05
-0.00039698321
0.00012770875
-4.3531225e-05
-0.00036968338
0.00016639691
-7.0662003e-05
-0.00025233029
0.0001787494
-8.9678209e-05
-0.00011763102
-9.4271151e-05
-2.2918156e-05
0.00016776894
9.8168178e-07
1.4445343e-07
-2.4155268e-05
4.8686283e-06
1.788363e-07
-9.5868308e-05
1.5946286e-05
-8.9111704e-07
-0.00020541953
4.1728115e-05
-5.1517422e-06
-0.00032633136
8.5254035e-05
-1.570237e-05
-0.00039716992
0.00013532142
-3.4372762e-05
-0.00036236235
0.00017440392
-5.5241432e-05
-0.0002383721
0.00018570251
-6.9443568e-05
-0.00010163885
-7.2665811e-05
-8.9740376e-06
0.00017278759
1.0172259e-06
8.8010892e-08
-2.4602293e-05
5.0686836e-06
7.2892819e-08
-9.7405023e-05
1.6651012e-05
-7.3485509e-07
-0.00020799771
4.3580459e-05
-3.759959e-06
-0.00032858932
8.8732563e-05
-1.1057307e-05
-0.00039617047
0.00014087429
-2.3686363e-05
-0.00035500609
0.00018047675
-3.7826815e-05
-0.0002264326
0.00019103968
-4.7289344e-05
-8.848597e-05
-4.9332159e-05
2.2123783e-06
0.00017677625
1.0436835e-06
3.9718055e-08
-2.4885853e-05
5.2166022e-06
1.5911136e-08
-9.8332188e-05
1.7160213e-05
-4.225467e-07
-0.00020942825
4.4903237e-05
-1.9967753e-06
-0.00032951157
9.1202255e-05
-5.7449376e-06
-0.00039461676
0.00014449514
-1.2217461e-05
-0.00034879871
0.000184508
-1.9243148e-05
-0.00021758495
0.00019459414
-2.3941062e-05
-7.9109353e-05
-2.4924658e-05
1.0010479e-05
0.00017948022
1.0505016e-06
1.3286304e-11
-2.5008372e-05
5.2604663e-06
4.8318586e-11
-9.8748935e-05
1.7341652e-05
8.4417782e-11
-0.00021009361
4.5436117e-05
1.6847946e-12
-0.00032994626
9.2215347e-05
-3.4765257e-10
-0.00039384291
0.0001462359
-8.0315834e-10
-0.00034619363
0.00018642323
-9.7725911e-10
-0.00021310484
0.00019631902
-5.7988842e-10
-7.43475e-05
3.9312503e-10
1.3973157e-05
0.00018083443
1.0505172e-06
-3.9675359e-08
-2.5008368e-05
5.2605178e-06
-1.5768488e-08
-9.874892e-05
1.7341705e-05
4.2278564e-07
-0.00021009358
4.5436133e-05
1.9968546e-06
-0.00032994621
9.2215402e-05
5.7443072e-06
-0.00039384287
0.00014623597
1.2215944e-05
-0.00034619361
0.00018642329
1.9241253e-05
-0.00021310484
0.00019631912
2.3939944e-05
-7.4347515e-05
2.4925472e-05
1.397314e-05
0.00018083451
1.0437212e-06
-8.7931246e-08
-2.4885852e-05
5.2167473e-06
-7.2648396e-08
-9.8332184e-05
1.7160386e-05
7.3525968e-07
-0.00020942824
4.4903324e-05
3.7602451e-06
-0.00032951156
9.1202481e-05
1.1056881e-05
-0.00039461676
0.00014449537
2.368508e-05
-0.00034879873
0.0001845082
3.7825072e-05
-0.000217585
0.00019459444
4.7288355e-05
-7.910941e-05
4.9333116e-05
1.0010429e-05
0.00017948043
1.0172381e-06
-1.4434962e-07
-2.4602286e-05
5.0687974e-06
-1.7853088e-07
-9.7404998e-05
1.6651176e-05
8.9164733e-07
-0.00020799766
4.3580537e-05
5.1522388e-06
-0.00032858925
8.8732952e-05
1.5702181e-05
-0.00039617043
0.00014087458
3.4371681e-05
-0.00035500609
0.00018047703
5.5239779e-05
-0.00022643266
0.00019104013
6.9442707e-05
-8.8486054e-05
7.2667045e-05
2.2122991e-06
0.00017677663
9.8161961e-07
-2.1497785e-07
-2.4155264e-05
4.8685619e-06
-3.6279067e-07
-9.5868296e-05
1.5946292e-05
8.0709632e-07
-0.00020541951
4.1728102e-05
5.972629e-06
-0.00032633133
8.5254549e-05
1.9254187e-05
-0.00039716992
0.0001353217
4.3530071e-05
-0.0003623624
0.00017440428
7.0660225e-05
-0.0002383722
0.00018570313
8.9677406e-05
-0.00010163897
9.4272741e-05
-8.9741417e-06
0.00017278827
9.3080932e-07
-3.0206446e-07
-2.3507769e-05
4.5900494e-06
-6.4219222e-07
-9.360352e-05
1.4998361e-05
4.1061451e-07
-0.00020146895
3.930639e-05
6.0117204e-06
-0.00032235252
8.0880537e-05
2.1116653e-05
-0.00039698326
0.00012770895
4.9482671e-05
-0.00036968348
0.00016639739
8.2928397e-05
-0.00025233043
0.00017875023
0.00010709244
-0.00011763117
0.00011333205
-2.2918279e-05
0.00016776996
8.5754445e-07
-4.0175136e-07
-2.2624178e-05
4.2025704e-06
-1.0108482e-06
-9.0454782e-05
1.3719303e-05
-3.0391265e-07
-0.00019576843
3.6100323e-05
5.1947917e-06
-0.00031593235
7.4991375e-05
2.1079306e-05
-0.00039446574
0.00011861231
5.1973524e-05
-0.00037576719
0.00015658877
9.1191882e-05
-0.00026676094
0.00017037889
0.0001205804
-0.00013521814
0.00012881063
-3.8832615e-05
0.00016204413
7.6022364e-07
-5.0747325e-07
-2.1464799e-05
3.7038204e-06
-1.4527414e-06
-8.6239717e-05
1.2106832e-05
-1.3078829e-06
-0.0001878542
3.2065358e-05
3.5133064e-06
-0.00030615218
6.7434793e-05
1.9126377e-05
-0.00038814517
0.00010851029
5.0974841e-05
-0.00037882791
0.00014528563
9.4688132e-05
-0.00027974662
0.00016095309
0.00012885854
-0.00015291715
0.00013954779
-5.5809815e-05
0.00015601077
6.4462422e-07
-6.1573988e-07
-2.0002406e-05
3.1195785e-06
-1.9546857e-06
-8.0802594e-05
1.0245828e-05
-2.5797269e-06
-0.000177272
2.7451152e-05
1.0056926e-06
-0.00029203193
5.8572971e-05
1.5330019e-05
-0.00037637277
9.7590635e-05
4.7032215e-05
-0.00037669642
0.00013260389
9.269982e-05
-0.00028913092
0.00015065724
0.00013052072
-0.00016910447
0.00014424951
-7.2855801e-05
0.00014991528
5.1909911e-07
-7.2399132e-07
-1.8259429e-05
2.4949813e-06
-2.5070928e-06
-7.4210434e-05
8.2935679e-06
-4.1166517e-06
-0.00016409038
2.2753257e-05
-2.3331196e-06
-0.00027348623
4.9672975e-05
9.3947451e-06
-0.0003586566
8.5762406e-05
3.8580087e-05
-0.00036835975
0.00011896344
8.3763276e-05
-0.00029328509
0.00013991007
0.00012428615
-0.00018256452
0.00014175051
-8.9067984e-05
0.0001440503
3.8215605e-07
-8.2171561e-07
-1.6226479e-05
1.8208166e-06
-3.0591563e-06
-6.6427133e-05
6.2154708e-06
-5.7911159e-06
-0.00014821342
1.7756768e-05
-6.3053901e-06
-0.00025026735
4.0244677e-05
1.6716199e-06
-0.00033444791
7.2518874e-05
2.6086884e-05
-0.00035285017
0.00010383593
6.7308387e-05
-0.00029206248
0.00012777542
0.00010953291
-0.000192094
0.00013090156
-0.00010337687
0.00013758825
2.612341e-07
-9.1605248e-07
-1.3987962e-05
1.2248655e-06
-3.6154754e-06
-5.7735326e-05
4.3129674e-06
-7.5285323e-06
-0.00013012215
1.2923457e-05
-1.0557197e-05
-0.00022288781
3.0598644e-05
-6.964091e-06
-0.00030396031
5.7641524e-05
1.1302075e-05
-0.00032979174
8.7638604e-05
4.6829954e-05
-0.00028361984
0.00011328898
8.7425217e-05
-0.00019629284
0.00011156656
-0.00011418562
0.00012885954
1.7496901e-07
-1.1683185e-05
-1.0228275e-06
7.4247977e-07
-4.8709508e-05
-4.1608063e-06
2.5693029e-06
-0.00011106028
-9.1083932e-06
8.1055025e-06
-0.00019325053
-1.4383794e-05
2.0429423e-05
-0.00026923022
-1.5103423e-05
4.1335615e-05
-0.00030048063
-3.8046547e-06
6.8093277e-05
-0.00026800094
2.3848192e-05
9.3833358e-05
-0.00019402535
5.9784203e-05
-0.00012001546
8.7631047e-05
0.00011204474
-4.309257e-09
5.9797129e-07
-1.174744e-05
-5.2940955e-07
1.0515356e-07
2.3523707e-06
-4.9055682e-05
-2.1156496e-06
4.5003528e-07
4.7176692e-06
-0.00011172948
-4.3932968e-06
1.2800598e-06
5.7232151e-06
-0.00019383851
-5.9651397e-06
3.7730493e-06
4.2258087e-07
-0.00026912158
-3.0241002e-06
1.0942671e-05
-1.800581e-05
-0.00029936394
9.719383e-06
2.573561e-05
-5.1958527e-05
-0.00026627295
3.5437494e-05
4.7699343e-05
-9.144567e-05
-0.00019245999
6.7916765e-05
-0.00011905611
-0.00011886556
9.4653675e-05
7.0951811e-05
1.7492468e-08
6.656651e-07
-1.4073147e-05
3.1053802e-07
2.5292779e-06
-5.8205271e-05