/*--------------------------------*- C++ -*----------------------------------*\
| =========                 |                                                 |
| \\      /  F ield         | OpenFOAM: The Open Source CFD Toolbox           |
|  \\    /   O peration     | Version:  2406                                  |
|   \\  /    A nd           | Website:  www.openfoam.com                      |
|    \\/     M anipulation  |                                                 |
\*---------------------------------------------------------------------------*/
FoamFile
{
    version     2.0;
    format      ascii;
    arch        "LSB;label=32;scalar=64";
    class       volVectorField;
    location    "17";
    object      U;
}
// * * * * * * * * * * * * * * * * * * * * * * * * * * * * * * * * * * * * * //

dimensions      [0 1 -1 0 0 0 0];

internalField   nonuniform List<vector> 
34560
(
(-0.039220233 0.0090291596 0.010716741)
(-0.11489222 0.028416789 0.031753232)
(-0.18919021 0.053073915 0.0511032)
(-0.24590877 0.08340145 0.063027297)
(-0.26746405 0.11736301 0.0637732)
(-0.24503714 0.15203883 0.052767898)
(-0.18742261 0.18319894 0.035148464)
(-0.11817663 0.20727813 0.018150914)
(-0.057114155 0.22347946 0.0088387363)
(-0.042404535 0.010125593 0.011022457)
(-0.12144914 0.031175555 0.032115885)
(-0.19458159 0.057089763 0.050115896)
(-0.24375012 0.088106224 0.058768524)
(-0.25195627 0.12184816 0.055115179)
(-0.21455555 0.15527613 0.040339335)
(-0.14619276 0.18408516 0.021203124)
(-0.073175352 0.20538464 0.005392307)
(-0.012332682 0.21946096 -0.0011782634)
(-0.045408154 0.010745775 0.010708808)
(-0.12751907 0.032690114 0.030802786)
(-0.19931031 0.059148386 0.046640737)
(-0.24110124 0.09011106 0.051803778)
(-0.23687099 0.12293356 0.0443181)
(-0.18640164 0.15442226 0.026883826)
(-0.11047759 0.18022267 0.0071746926)
(-0.035512217 0.19861085 -0.0073110024)
(0.023800174 0.2098979 -0.011970374)
(-0.047934058 0.01115063 0.01026058)
(-0.1322261 0.03351821 0.029087981)
(-0.2020082 0.05990456 0.042539941)
(-0.23641799 0.09004907 0.044171922)
(-0.22087485 0.12115714 0.033144387)
(-0.15951809 0.15002937 0.013589433)
(-0.078531131 0.17258668 -0.0061750072)
(-0.0032168226 0.18804137 -0.019151912)
(0.053848646 0.19665814 -0.021625199)
(-0.049971779 0.011090331 0.0095975778)
(-0.13564648 0.033088072 0.026840231)
(-0.20292941 0.058671539 0.037789583)
(-0.23014831 0.087341718 0.036093038)
(-0.20443015 0.11622783 0.022027947)
(-0.13430137 0.14211547 0.00089792803)
(-0.049787101 0.16149275 -0.018503655)
(0.024868649 0.1740957 -0.029813457)
(0.079183552 0.18035067 -0.030234117)
(-0.05158921 0.010683112 0.008757243)
(-0.13800729 0.031683899 0.024137434)
(-0.20247585 0.055770752 0.032521991)
(-0.22285794 0.082256275 0.027749132)
(-0.18812634 0.10833034 0.011174495)
(-0.11128138 0.13082911 -0.01098051)
(-0.024044224 0.14717996 -0.029659751)
(0.049407834 0.15719013 -0.039171227)
(0.10070196 0.16151085 -0.037713041)
(-0.052772334 0.0098777068 0.007882261)
(-0.13935014 0.029146396 0.021371421)
(-0.2008555 0.050977228 0.027285782)
(-0.21494784 0.074604254 0.019721466)
(-0.17243906 0.097358503 0.0010683598)
(-0.090344878 0.11635609 -0.021733071)
(-0.0012742413 0.12986561 -0.039521249)
(0.070674226 0.13761571 -0.047196274)
(0.11892131 0.14043141 -0.04407032)
(-0.053634965 0.0086584876 0.0070148928)
(-0.1400662 0.025465271 0.018690465)
(-0.19878226 0.04433837 0.022383995)
(-0.20737007 0.064507046 0.012461669)
(-0.15831575 0.083590573 -0.0078660464)
(-0.07209197 0.09913019 -0.031101944)
(0.018209934 0.10993683 -0.047961844)
(0.088634683 0.11573969 -0.05386642)
(0.13405653 0.11745386 -0.049301985)
(-0.054261562 0.0070878322 0.0062283479)
(-0.14043635 0.020806517 0.016289462)
(-0.19676584 0.036124949 0.01808772)
(-0.20082155 0.052351308 0.006253321)
(-0.14649701 0.067512049 -0.015361228)
(-0.057065978 0.079606359 -0.038826793)
(0.03409922 0.087808196 -0.054796627)
(0.10317583 0.09196078 -0.059150183)
(0.14617521 0.092923102 -0.053410901)
(-0.05469087 0.0052645884 0.0055789193)
(-0.14058577 0.015430644 0.014323681)
(-0.19503404 0.026726701 0.014631921)
(-0.19563717 0.038608949 0.0013449364)
(-0.1374193 0.049601177 -0.02119835)
(-0.045576226 0.058233191 -0.044741713)
(0.046190555 0.063962426 -0.05993522)
(0.1141885 0.066723748 -0.063044104)
(0.15527894 0.067206829 -0.056407361)
(-0.054922014 0.0032581259 0.0051252072)
(-0.14051268 0.009529393 0.012952535)
(-0.19360755 0.016459462 0.0122268)
(-0.19189298 0.02369814 -0.0020474559)
(-0.13125447 0.030336789 -0.025185459)
(-0.037765558 0.035499949 -0.048715083)
(0.054348713 0.038873742 -0.063325818)
(0.12156888 0.040440514 -0.065560235)
(0.16133054 0.040644804 -0.058312539)
(-0.05505358 0.0010758343 0.0048968341)
(-0.14053974 0.0031528177 0.012267849)
(-0.19300988 0.0054677134 0.011039292)
(-0.19016675 0.0079083963 -0.0037148093)
(-0.12831635 0.010149237 -0.027144165)
(-0.033960846 0.011888333 -0.050665464)
(0.058368018 0.013018176 -0.064984135)
(0.12522196 0.013536528 -0.066777702)
(0.16432297 0.013598536 -0.059223669)
(-0.055053583 -0.0010757741 0.0048968291)
(-0.14053975 -0.0031527177 0.012267906)
(-0.19300988 -0.0054676812 0.011039344)
(-0.19016675 -0.0079084534 -0.0037148458)
(-0.12831636 -0.01014926 -0.02714422)
(-0.03396085 -0.011888449 -0.050665484)
(0.05836801 -0.013018296 -0.064984161)
(0.12522195 -0.013536583 -0.066777697)
(0.16432297 -0.013598543 -0.059223655)
(-0.054922022 -0.0032580831 0.0051251962)
(-0.14051269 -0.0095293131 0.012952691)
(-0.19360758 -0.016459439 0.012226946)
(-0.191893 -0.023698194 -0.0020475721)
(-0.13125448 -0.030336854 -0.0251856)
(-0.037765571 -0.035500149 -0.048715122)
(0.054348689 -0.038873964 -0.063325883)
(0.12156885 -0.040440674 -0.065560218)
(0.16133054 -0.040644887 -0.058312499)
(-0.054690878 -0.0052646176 0.0055789202)
(-0.14058579 -0.015430682 0.014323829)
(-0.19503408 -0.026726736 0.014632018)
(-0.19563718 -0.038609022 0.0013447158)
(-0.13741931 -0.049601332 -0.021198491)
(-0.045576245 -0.05823353 -0.044741718)
(0.046190522 -0.063962814 -0.059935295)
(0.11418847 -0.06672407 -0.063044068)
(0.15527894 -0.067207016 -0.056407305)
(-0.054261556 -0.0070878639 0.0062283559)
(-0.14043634 -0.02080659 0.016289382)
(-0.19676583 -0.036124978 0.018087561)
(-0.20082153 -0.052351413 0.0062530725)
(-0.14649704 -0.067512341 -0.015361226)
(-0.057065981 -0.079606818 -0.038826715)
(0.0340992 -0.087808734 -0.054796683)
(0.10317581 -0.091961255 -0.059150128)
(0.1461752 -0.09292338 -0.053410852)
(-0.053634964 -0.0086584949 0.007014896)
(-0.14006621 -0.025465319 0.018690372)
(-0.19878228 -0.044338409 0.022383973)
(-0.20737012 -0.06450724 0.012461762)
(-0.15831579 -0.083590972 -0.0078658597)
(-0.072091934 -0.099130626 -0.031101856)
(0.018209931 -0.1099374 -0.047961871)
(0.088634671 -0.11574024 -0.053866343)
(0.13405652 -0.11745419 -0.049301953)
(-0.052772333 -0.0098777666 0.0078822827)
(-0.13935014 -0.029146491 0.021371539)
(-0.2008555 -0.0509773 0.027286003)
(-0.21494783 -0.074604363 0.019721679)
(-0.17243902 -0.097358754 0.0010684184)
(-0.090344825 -0.11635632 -0.021733058)
(-0.0012742488 -0.12986609 -0.039521193)
(0.070674222 -0.13761623 -0.047196161)
(0.1189213 -0.14043174 -0.044070281)
(-0.051589202 -0.010683099 0.0087572537)
(-0.13800727 -0.031683891 0.024137413)
(-0.20247579 -0.05577072 0.032521957)
(-0.22285781 -0.08225622 0.027749236)
(-0.18812631 -0.10833054 0.011174615)
(-0.11128139 -0.13082932 -0.010980346)
(-0.024044253 -0.14718036 -0.029659534)
(0.049407836 -0.15719052 -0.03917106)
(0.10070196 -0.16151115 -0.037712937)
(-0.049971771 -0.01109028 0.0095975506)
(-0.13564646 -0.033087961 0.026840219)
(-0.20292938 -0.058671399 0.037789799)
(-0.23014831 -0.087341645 0.036093486)
(-0.20443023 -0.1162281 0.022028097)
(-0.13430142 -0.14211587 0.0008979523)
(-0.049787132 -0.16149311 -0.018503483)
(0.024868642 -0.17409591 -0.02981323)
(0.079183582 -0.18035091 -0.030233827)
(-0.047934054 -0.011150631 0.010260574)
(-0.1322261 -0.033518185 0.02908803)
(-0.20200819 -0.059904604 0.04254003)
(-0.23641795 -0.090049192 0.04417194)
(-0.22087478 -0.12115732 0.033144234)
(-0.15951811 -0.15002978 0.013589498)
(-0.078531157 -0.17258697 -0.0061748673)
(-0.0032168366 -0.18804154 -0.019151611)
(0.053848716 -0.19665831 -0.021624721)
(-0.04540815 -0.010745776 0.010708804)
(-0.12751907 -0.032690133 0.030802761)
(-0.19931032 -0.059148445 0.046640683)
(-0.24110125 -0.090111183 0.05180364)
(-0.23687098 -0.12293369 0.044318)
(-0.18640169 -0.15442256 0.026883815)
(-0.11047766 -0.18022306 0.007174714)
(-0.035512254 -0.19861108 -0.0073106614)
(0.023800225 -0.20989828 -0.011969798)
(-0.042404528 -0.010125603 0.011022462)
(-0.12144913 -0.031175622 0.032115853)
(-0.19458157 -0.057089882 0.050115857)
(-0.24375011 -0.088106478 0.058768436)
(-0.25195624 -0.12184846 0.055115154)
(-0.21455554 -0.15527631 0.040339473)
(-0.14619282 -0.18408556 0.021203369)
(-0.073175359 -0.20538519 0.0053932274)
(-0.012332572 -0.21946147 -0.0011776377)
(-0.039220224 -0.0090291756 0.01071675)
(-0.1148922 -0.028416832 0.031753257)
(-0.18919018 -0.053074024 0.051103204)
(-0.24590872 -0.083401715 0.06302721)
(-0.26746401 -0.11736345 0.063773058)
(-0.24503717 -0.1520393 0.052767974)
(-0.18742264 -0.18319935 0.03514901)
(-0.11817666 -0.20727868 0.018151511)
(-0.057114112 -0.22347981 0.0088384377)
(-0.076361639 0.0018574391 0.0016749224)
(-0.2318745 0.0059902158 0.0051000241)
(-0.39809479 0.011206173 0.0082924633)
(-0.54669717 0.017085266 0.010064725)
(-0.64136961 0.022660965 0.0090474571)
(-0.65671922 0.026859105 0.004366427)
(-0.59795831 0.029390392 -0.0032774249)
(-0.49935401 0.031131531 -0.010999117)
(-0.40376807 0.032088658 -0.017452674)
(-0.083384246 0.0022503001 0.001799015)
(-0.2495255 0.0071206198 0.0053781411)
(-0.42082129 0.013028321 0.008429538)
(-0.56418842 0.01934112 0.0095237556)
(-0.64146786 0.024894808 0.0072069832)
(-0.63185199 0.028699355 0.00082612195)
(-0.55022687 0.030887377 -0.0080223462)
(-0.43828846 0.032225389 -0.015827918)
(-0.33942612 0.032468479 -0.021282986)
(-0.089861091 0.0025075461 0.001738245)
(-0.26568247 0.0078756334 0.0051252234)
(-0.44129007 0.01426268 0.0077121637)
(-0.57924222 0.02085559 0.0079502123)
(-0.64031048 0.026367936 0.0044094183)
(-0.60884719 0.030003078 -0.003335768)
(-0.5086827 0.032244017 -0.012746575)
(-0.38858146 0.03294398 -0.019924739)
(-0.289261 0.032663191 -0.023759901)
(-0.095410402 0.0026752909 0.001605062)
(-0.27909729 0.0083478913 0.0046447207)
(-0.45731987 0.014994211 0.0065958383)
(-0.5889888 0.021659775 0.0058377987)
(-0.63471198 0.027076994 0.00095898146)
(-0.58429524 0.030536097 -0.0080106413)
(-0.46954701 0.03259531 -0.017536853)
(-0.34537507 0.032541122 -0.023629063)
(-0.24764457 0.03183519 -0.025868613)
(-0.099869847 0.002705128 0.0014016919)
(-0.28948505 0.0084219662 0.0039687171)
(-0.46873202 0.015063088 0.0051975761)
(-0.59350888 0.021601673 0.0034236701)
(-0.62478164 0.026797595 -0.0027263606)
(-0.55784587 0.030086893 -0.012755174)
(-0.43220097 0.031815886 -0.022228057)
(-0.30685259 0.031261559 -0.027077621)
(-0.21227569 0.03032441 -0.027822977)
(-0.10340731 0.0026314514 0.0011479729)
(-0.29731867 0.008180261 0.0031529126)
(-0.47630273 0.014573243 0.003619473)
(-0.59379844 0.020781481 0.000912879)
(-0.61158008 0.025678297 -0.0063596505)
(-0.53002364 0.028921803 -0.017240303)
(-0.39673673 0.030204225 -0.026583538)
(-0.2721422 0.029286726 -0.030244094)
(-0.18170857 0.028192859 -0.029692286)
(-0.10609785 0.0024562929 0.00088780425)
(-0.30287818 0.0076230049 0.0023176018)
(-0.48062099 0.013545117 0.0020306888)
(-0.59088038 0.019250615 -0.0015587879)
(-0.59652001 0.02380851 -0.0098400026)
(-0.50254978 0.026946366 -0.021323644)
(-0.3638855 0.027713292 -0.030371716)
(-0.24111905 0.026561038 -0.033025468)
(-0.15521193 0.02540278 -0.0314139)
(-0.10805584 0.0021695526 0.00063113401)
(-0.30662641 0.0067318576 0.0014997566)
(-0.48264456 0.011956762 0.00049504289)
(-0.58628106 0.016986307 -0.0039287231)
(-0.58142799 0.021058231 -0.013075322)
(-0.47709057 0.023868707 -0.024885646)
(-0.33477054 0.02424248 -0.033469645)
(-0.21419785 0.023049441 -0.035329042)
(-0.13264407 0.02193669 -0.03289066)
(-0.10943395 0.0017847385 0.00039830844)
(-0.30905815 0.0055405092 0.00076418545)
(-0.48328629 0.0098413054 -0.00086222504)
(-0.58127262 0.013984145 -0.0060038599)
(-0.56781772 0.017357105 -0.015866784)
(-0.45524971 0.019664856 -0.027858075)
(-0.31040449 0.019849128 -0.035919864)
(-0.19190512 0.01879246 -0.03712391)
(-0.11414686 0.017828768 -0.034047815)
(-0.11034492 0.0013272768 0.00020727495)
(-0.31052179 0.00412417 0.00016295911)
(-0.48315463 0.0073254178 -0.0019596588)
(-0.57666566 0.010407238 -0.0076496956)
(-0.55657212 0.012924176 -0.018036239)
(-0.43797399 0.014620883 -0.03014322)
(-0.29148899 0.014726297 -0.037751841)
(-0.17471716 0.013913812 -0.038411705)
(-0.099970881 0.013174744 -0.034857618)
(-0.11092869 0.00082344627 7.1273506e-05)
(-0.31131705 0.0025565675 -0.00026593937)
(-0.48262782 0.0045342759 -0.0027412037)
(-0.572887 0.0064344186 -0.0088105195)
(-0.54815478 0.0079927206 -0.019531233)
(-0.42580263 0.0090242845 -0.031695703)
(-0.27847845 0.0090770915 -0.038962147)
(-0.16300599 0.0085642585 -0.039220053)
(-0.090367164 0.0080977009 -0.035344822)
(-0.11115445 0.00027517127 4.9979645e-06)
(-0.31161731 0.00085446096 -0.00047416845)
(-0.48232052 0.0015184995 -0.0031194632)
(-0.57103092 0.0021580426 -0.0093745089)
(-0.54400392 0.0026848738 -0.020264885)
(-0.41976891 0.003030846 -0.032461681)
(-0.27199228 0.0030489931 -0.039555757)
(-0.15713732 0.002879784 -0.039604486)
(-0.085542 0.0027275917 -0.035568448)
(-0.11115445 -0.00027516387 4.9993704e-06)
(-0.31161731 -0.00085444384 -0.00047416912)
(-0.4823205 -0.0015184919 -0.0031194656)
(-0.5710309 -0.0021580787 -0.0093745277)
(-0.54400392 -0.0026849685 -0.020264908)
(-0.41976892 -0.0030310291 -0.032461696)
(-0.2719923 -0.003049186 -0.039555774)
(-0.15713734 -0.0028798914 -0.039604496)
(-0.085542015 -0.0027275225 -0.035568456)
(-0.11092869 -0.00082341232 7.127585e-05)
(-0.31131705 -0.0025565021 -0.00026592065)
(-0.4826278 -0.0045342162 -0.0027411943)
(-0.57288697 -0.0064344149 -0.0088105658)
(-0.54815478 -0.0079928127 -0.019531291)
(-0.42580266 -0.0090244831 -0.031695745)
(-0.27847851 -0.0090773139 -0.038962194)
(-0.16300605 -0.0085643969 -0.039220079)
(-0.090367203 -0.0080976573 -0.035344844)
(-0.11034492 -0.0013272338 0.00020727586)
(-0.3105218 -0.0041240775 0.00016299761)
(-0.48315465 -0.0073253078 -0.0019596428)
(-0.57666566 -0.010407183 -0.0076497595)
(-0.55657216 -0.012924266 -0.018036309)
(-0.43797406 -0.014621108 -0.030143274)
(-0.29148907 -0.014726571 -0.037751902)
(-0.17471724 -0.013913998 -0.038411738)
(-0.099970928 -0.01317472 -0.034857652)
(-0.10943394 -0.001784702 0.00039830165)
(-0.30905815 -0.0055404225 0.00076416883)
(-0.48328632 -0.0098411729 -0.00086226565)
(-0.58127264 -0.01398406 -0.0060039262)
(-0.5678178 -0.0173572 -0.015866818)
(-0.45524978 -0.01966511 -0.027858111)
(-0.31040458 -0.019849457 -0.035919918)
(-0.19190519 -0.018792691 -0.03712395)
(-0.11414691 -0.017828734 -0.034047883)
(-0.10805584 -0.0021695218 0.00063112194)
(-0.30662643 -0.0067317949 0.0014996997)
(-0.48264461 -0.011956659 0.00049499305)
(-0.58628113 -0.016986243 -0.0039287203)
(-0.58142811 -0.021058338 -0.013075288)
(-0.4770906 -0.023868981 -0.024885645)
(-0.33477059 -0.024242847 -0.033469674)
(-0.21419789 -0.023049698 -0.035329098)
(-0.13264412 -0.021936622 -0.032890798)
(-0.10609786 -0.0024562832 0.00088780132)
(-0.30287822 -0.0076229844 0.0023175952)
(-0.48062107 -0.013545075 0.0020306761)
(-0.59088046 -0.019250579 -0.0015587527)
(-0.59652008 -0.023808614 -0.0098399459)
(-0.50254976 -0.026946641 -0.021323607)
(-0.36388553 -0.027713661 -0.030371719)
(-0.24111908 -0.026561291 -0.033025556)
(-0.15521198 -0.025402683 -0.031414107)
(-0.10340729 -0.0026314321 0.0011479642)
(-0.29731866 -0.0081802314 0.003152856)
(-0.47630272 -0.014573207 0.0036193884)
(-0.59379839 -0.020781459 0.00091290066)
(-0.61158012 -0.025678405 -0.0063595385)
(-0.53002368 -0.028922067 -0.017240218)
(-0.39673681 -0.030204562 -0.026583526)
(-0.27214224 -0.029286943 -0.030244206)
(-0.18170859 -0.028192774 -0.029692483)
(-0.09986984 -0.00270511 0.001401684)
(-0.28948504 -0.0084219403 0.0039686933)
(-0.46873202 -0.015063077 0.0051976079)
(-0.59350889 -0.021601714 0.0034238143)
(-0.62478171 -0.026797743 -0.0027262285)
(-0.55784593 -0.030087182 -0.012755099)
(-0.43220106 -0.031816207 -0.022228027)
(-0.30685262 -0.031261717 -0.027077689)
(-0.21227567 -0.03032435 -0.027823029)
(-0.095410384 -0.0026752805 0.0016050542)
(-0.27909725 -0.0083478874 0.0046447025)
(-0.45731981 -0.01499426 0.0065958082)
(-0.58898874 -0.021659918 0.0058377432)
(-0.63471192 -0.02707721 0.0009589754)
(-0.58429529 -0.030536449 -0.0080105233)
(-0.46954708 -0.032595661 -0.017536776)
(-0.34537506 -0.03254129 -0.023629001)
(-0.24764451 -0.031835149 -0.025868464)
(-0.089861079 -0.0025075361 0.0017382373)
(-0.26568245 -0.0078756319 0.005125195)
(-0.44129006 -0.014262715 0.0077121205)
(-0.57924224 -0.020855716 0.0079501886)
(-0.64031053 -0.026368148 0.0044095388)
(-0.6088473 -0.030003403 -0.0033355708)
(-0.50868278 -0.032244411 -0.012746416)
(-0.38858139 -0.032944246 -0.019924475)
(-0.28926084 -0.032663095 -0.023759834)
(-0.083384222 -0.0022503072 0.001799018)
(-0.24952543 -0.0071206633 0.0053781381)
(-0.4208212 -0.013028415 0.0084295448)
(-0.56418832 -0.019341334 0.0095237873)
(-0.6414678 -0.024895138 0.0072071282)
(-0.63185195 -0.028699678 0.00082641613)
(-0.55022682 -0.030887719 -0.0080219579)
(-0.43828829 -0.032225715 -0.015827635)
(-0.33942581 -0.032468391 -0.021283101)
(-0.076361612 -0.0018574425 0.001674925)
(-0.23187443 -0.005990241 0.005100037)
(-0.39809467 -0.01120624 0.0082924956)
(-0.54669705 -0.017085428 0.010064813)
(-0.64136955 -0.022661281 0.0090476587)
(-0.65671927 -0.026859521 0.0043667922)
(-0.59795827 -0.029390753 -0.0032769791)
(-0.49935389 -0.031131637 -0.010999209)
(-0.40376787 -0.032088628 -0.017453061)
(-0.064832532 0.00065364485 0.00057728686)
(-0.19786789 0.0019065346 0.0016345821)
(-0.3412985 0.0031817673 0.0023936826)
(-0.47028295 0.0041370906 0.0022530937)
(-0.55113012 0.0043324771 0.00025587723)
(-0.55737609 0.0032596979 -0.0043556305)
(-0.4906071 0.00066310121 -0.011288045)
(-0.38434867 -0.0031235014 -0.018568515)
(-0.28125848 -0.0066284579 -0.024111936)
(-0.0705927 0.0005673932 0.00043213475)
(-0.21270352 0.0015686388 0.0011549337)
(-0.36104382 0.0024619146 0.0014239156)
(-0.48637714 0.0028897694 0.00055657241)
(-0.55221758 0.0024480448 -0.0025039589)
(-0.53459908 0.00069488892 -0.0084315419)
(-0.44362524 -0.0025061138 -0.016475191)
(-0.32209669 -0.0064372554 -0.024234951)
(-0.2126653 -0.0096347727 -0.029416005)
(-0.075952474 0.00050437516 0.00032055938)
(-0.22655595 0.00131275 0.00078324091)
(-0.3795334 0.0019055568 0.00066385126)
(-0.50157138 0.0019299399 -0.00077171952)
(-0.55385324 0.0010628915 -0.0046439994)
(-0.51532285 -0.0010386033 -0.011551503)
(-0.40453115 -0.0043879509 -0.020311202)
(-0.27195502 -0.0078925117 -0.028095366)
(-0.15928075 -0.01055256 -0.032631474)
(-0.080559036 0.00043274343 0.00022243997)
(-0.23824269 0.0010520533 0.00046515366)
(-0.39462773 0.0013816506 1.855383e-05)
(-0.51287855 0.0010898491 -0.0018951271)
(-0.55252747 -7.2948138e-05 -0.0064324811)
(-0.49571534 -0.0023591554 -0.014081997)
(-0.36916718 -0.0056322246 -0.023390016)
(-0.2287391 -0.0086521209 -0.031104128)
(-0.11475721 -0.010924699 -0.034972913)
(-0.084220087 0.00036201882 0.00014370189)
(-0.247319 0.00081326226 0.00021934124)
(-0.40576568 0.00093155579 -0.00047453423)
(-0.519735 0.00041581121 -0.0027574319)
(-0.54761163 -0.00090406663 -0.0078439911)
(-0.47482589 -0.003191809 -0.016041334)
(-0.3357829 -0.0062023818 -0.02571749)
(-0.19021487 -0.0087571007 -0.033378539)
(-0.076652076 -0.010695436 -0.03662597)
(-0.087065877 0.00029411924 8.0191441e-05)
(-0.2541024 0.00060480495 2.9561347e-05)
(-0.41337801 0.00056988466 -0.00084480085)
(-0.5226022 -8.2335977e-05 -0.0034191405)
(-0.5394312 -0.0014401312 -0.0089631473)
(-0.45267364 -0.0036374661 -0.017571013)
(-0.30373549 -0.0062379496 -0.0274397)
(-0.15521665 -0.0083112371 -0.035059267)
(-0.043439815 -0.0099594289 -0.037799617)
(-0.089173103 0.00022879482 3.2141711e-05)
(-0.25882983 0.0004224149 -0.00010721723)
(-0.41790382 0.00027508937 -0.001107633)
(-0.52212647 -0.00043910103 -0.0038873203)
(-0.52880994 -0.0017696463 -0.0097817488)
(-0.43006252 -0.0038113101 -0.018755907)
(-0.27334544 -0.0058798656 -0.028773576)
(-0.12347587 -0.0074690333 -0.036309376)
(-0.014358868 -0.0088513517 -0.03863392)
(-0.090640513 0.00016920052 -2.4945215e-06)
(-0.2618889 0.00027293236 -0.000198406)
(-0.4201443 6.2134121e-05 -0.0012733394)
(-0.51956838 -0.00064037545 -0.0041712482)
(-0.51735529 -0.0018617009 -0.010285663)
(-0.40872594 -0.0036291653 -0.019574608)
(-0.24574816 -0.0051848329 -0.029790941)
(-0.095473918 -0.006359399 -0.037217958)
(0.010680844 -0.0074846309 -0.039215924)
(-0.091612978 0.0001180234 -2.555436e-05)
(-0.26373625 0.00016014241 -0.00025308981)
(-0.42091309 -6.332084e-05 -0.0013628693)
(-0.51609317 -0.00068393824 -0.0043147536)
(-0.50645604 -0.0017044427 -0.01054918)
(-0.38984946 -0.0030923029 -0.020086141)
(-0.22207683 -0.0042280312 -0.03052022)
(-0.071903852 -0.0050868455 -0.037832447)
(0.031428752 -0.0059514673 -0.039596)
(-0.092212459 7.6940989e-05 -3.9624944e-05)
(-0.26474144 8.558335e-05 -0.00028218891)
(-0.42084047 -0.00010593155 -0.0014044883)
(-0.51257384 -0.00058640806 -0.0043838376)
(-0.4971614 -0.0013393535 -0.01069744)
(-0.37451913 -0.0023086071 -0.020385184)
(-0.20328551 -0.0031051625 -0.030975642)
(-0.053458014 -0.0037025141 -0.038213294)
(0.04748813 -0.0043166653 -0.03981058)
(-0.092601596 4.2543e-05 -4.7786897e-05)
(-0.26527359 3.8453494e-05 -0.00029734351)
(-0.42041616 -8.9718137e-05 -0.0014250999)
(-0.5095786 -0.00039243829 -0.0044221834)
(-0.49013497 -0.00085452478 -0.010791058)
(-0.36348235 -0.0014307929 -0.020563571)
(-0.19010963 -0.0018974992 -0.031237071)
(-0.040729962 -0.0022485575 -0.038425731)
(0.058455432 -0.0026170768 -0.039911534)
(-0.092720426 1.2538915e-05 -5.0882519e-05)
(-0.26540696 6.9017596e-06 -0.00030099822)
(-0.42010121 -4.0600364e-05 -0.0014257488)
(-0.50805759 -0.00014657182 -0.0044229117)
(-0.48664607 -0.00030480765 -0.010809976)
(-0.35798635 -0.0004988199 -0.02063219)
(-0.18349112 -0.0006472348 -0.031355153)
(-0.034314318 -0.00075897991 -0.038518658)
(0.063991837 -0.00087860853 -0.039949178)
(-0.092720424 -1.2517227e-05 -5.0883223e-05)
(-0.26540696 -6.8488226e-06 -0.00030100897)
(-0.42010121 4.066733e-05 -0.0014257624)
(-0.50805758 0.0001465858 -0.0044229223)
(-0.48664608 0.00030468448 -0.010809983)
(-0.35798637 0.0004985713 -0.020632199)
(-0.18349114 0.0006469561 -0.031355163)
(-0.034314344 0.00075881804 -0.038518675)
(0.063991812 0.00087872594 -0.039949205)
(-0.092601594 -4.2504592e-05 -4.7789793e-05)
(-0.26527359 -3.8370024e-05 -0.00029736538)
(-0.42041616 8.9819994e-05 -0.0014251346)
(-0.5095786 0.00039248486 -0.004422213)
(-0.490135 0.00085442528 -0.01079108)
(-0.36348239 0.0014305655 -0.020563596)
(-0.1901097 0.0018972303 -0.031237096)
(-0.040730038 0.0022484029 -0.038425777)
(0.058455359 0.0026172037 -0.039911611)
(-0.092212458 -7.6883658e-05 -3.9632471e-05)
(-0.26474144 -8.5460246e-05 -0.00028221133)
(-0.42084047 0.00010608235 -0.0014045297)
(-0.51257384 0.00058650318 -0.0043838762)
(-0.49716145 0.0013392879 -0.010697477)
(-0.37451921 0.002308404 -0.020385223)
(-0.20328563 0.0031049023 -0.030975674)
(-0.053458133 0.0037023691 -0.038213363)
(0.047488018 0.004316815 -0.039810702)
(-0.091612977 -0.00011796406 -2.5566191e-05)
(-0.26373626 -0.00016000969 -0.00025311527)
(-0.4209131 6.349403e-05 -0.0013629036)
(-0.5160932 0.00068406571 -0.0043147867)
(-0.50645611 0.0017044012 -0.010549221)
(-0.38984957 0.003092101 -0.020086181)
(-0.22207698 0.0042277601 -0.030520246)
(-0.071903999 0.0050867031 -0.037832537)
(0.031428614 0.0059516496 -0.039596174)
(-0.090640513 -0.00016915031 -2.5084243e-06)
(-0.26188891 -0.00027282492 -0.00019845338)
(-0.42014433 -6.1983026e-05 -0.0012733928)
(-0.51956843 0.00064049451 -0.0041712914)
(-0.51735538 0.0018616499 -0.010285692)
(-0.40872606 0.0036289166 -0.019574616)
(-0.24574833 0.0051845205 -0.029790949)
(-0.095474082 0.0063592463 -0.03721807)
(0.010680688 0.0074848453 -0.039216157)
(-0.0891731 -0.00022874869 3.2127319e-05)
(-0.25882983 -0.00042232743 -0.00010727677)
(-0.41790384 -0.00027497386 -0.0011077149)
(-0.52212652 0.00043917431 -0.003887365)
(-0.52881003 0.0017695408 -0.009781721)
(-0.43006264 0.003810975 -0.018755848)
(-0.27334561 0.0058794926 -0.028773569)
(-0.12347604 0.0074688586 -0.036309511)
(-0.01435903 0.0088515874 -0.038634194)
(-0.087065868 -0.00029408491 8.0179429e-05)
(-0.25410239 -0.00060474608 2.9512664e-05)
(-0.41337802 -0.00056981654 -0.00084484846)
(-0.52260224 8.2339608e-05 -0.0034191182)
(-0.5394313 0.0014399718 -0.0089630378)
(-0.45267377 0.0036370823 -0.01757091)
(-0.30373567 0.0062375368 -0.027439698)
(-0.15521682 0.0083110404 -0.035059407)
(-0.043439963 0.0099596709 -0.037799861)
(-0.084220079 -0.00036199764 0.00014369161)
(-0.24731898 -0.00081323293 0.00021930613)
(-0.40576568 -0.00093154173 -0.00047456454)
(-0.51973503 -0.00041588738 -0.0027574164)
(-0.5476117 0.00090385514 -0.0078438867)
(-0.47482602 0.0031914213 -0.016041206)
(-0.33578307 0.0062019676 -0.025717445)
(-0.19021502 0.0087569201 -0.03337862)
(-0.076652184 0.010695696 -0.036626104)
(-0.080559024 -0.00043272385 0.00022242832)
(-0.23824266 -0.0010520312 0.00046512163)
(-0.3946277 -0.001381655 1.851862e-05)
(-0.51287856 -0.0010899594 -0.0018951319)
(-0.55252753 7.2688377e-05 -0.0064323659)
(-0.49571546 0.0023587506 -0.014081807)
(-0.36916733 0.005631815 -0.023389881)
(-0.22873922 0.0086519851 -0.031104084)
(-0.11475726 0.010925014 -0.034972896)
(-0.075952461 -0.00050435818 0.00032054851)
(-0.22655592 -0.0013127396 0.0007832127)
(-0.37953337 -0.0019055823 0.00066382714)
(-0.50157138 -0.0019300777 -0.00077168628)
(-0.5538533 -0.0010631945 -0.0046438165)
(-0.51532296 0.0010381825 -0.011551219)
(-0.40453127 0.0043875753 -0.020310939)
(-0.27195508 0.0078924368 -0.028095152)
(-0.15928073 0.010552985 -0.032631368)
(-0.070592682 -0.00056738412 0.00043212735)
(-0.21270348 -0.0015686406 0.0011549256)
(-0.36104376 -0.0024619589 0.0014239297)
(-0.48637709 -0.0028899223 0.00055666371)
(-0.55221759 -0.0024483566 -0.0025037197)
(-0.53459914 -0.00069528732 -0.0084311866)
(-0.44362529 0.0025058246 -0.016474803)
(-0.32209668 0.0064373101 -0.02423466)
(-0.21266522 0.0096353415 -0.029415954)
(-0.064832508 -0.00065364135 0.00057728388)
(-0.19786783 -0.0019065435 0.0016345855)
(-0.3412984 -0.0031818089 0.0023937179)
(-0.47028285 -0.0041372112 0.0022532264)
(-0.55113006 -0.0043327304 0.00025617037)
(-0.55737608 -0.0032600324 -0.0043552144)
(-0.49060708 -0.00066331989 -0.011287607)
(-0.3843486 0.0031236576 -0.018568268)
(-0.28125835 0.0066287358 -0.024111762)
(-0.070192335 0.00038211851 0.00034532587)
(-0.21367627 0.0011053443 0.00096554646)
(-0.36786139 0.0017316319 0.0013955634)
(-0.50639524 0.0018678514 0.0012769719)
(-0.59401692 0.000899038 0.00018376747)
(-0.60337797 -0.0017415863 -0.002292367)
(-0.53636037 -0.0061247583 -0.0062075993)
(-0.4267521 -0.011459645 -0.010866399)
(-0.31877207 -0.016522896 -0.015222137)
(-0.07668038 0.00041184702 0.00032676447)
(-0.23049331 0.0011491056 0.00088069963)
(-0.39070113 0.0017050886 0.001155496)
(-0.52649611 0.0015980027 0.0007269066)
(-0.59992844 0.00012118976 -0.00089692087)
(-0.5862642 -0.0033027093 -0.004127469)
(-0.49559223 -0.0085488615 -0.0088653135)
(-0.3696526 -0.014432002 -0.014103165)
(-0.25379356 -0.019437155 -0.018676177)
(-0.082762403 0.00044315123 0.00029988108)
(-0.2463493 0.0011982708 0.00076844665)
(-0.41240751 0.0016978697 0.00086695369)
(-0.54603411 0.0013959439 0.00013730509)
(-0.60703513 -0.00045380985 -0.0019310851)
(-0.57362041 -0.0043782411 -0.0057324385)
(-0.463624 -0.010032343 -0.011024101)
(-0.32511367 -0.015970443 -0.016504839)
(-0.2043108 -0.020666434 -0.02070206)
(-0.0880349 0.00043839307 0.00024916501)
(-0.25990557 0.0011479129 0.00059000878)
(-0.43056867 0.0015412429 0.00047386352)
(-0.56163356 0.0010367249 -0.00057391238)
(-0.61130038 -0.0011138149 -0.0030555042)
(-0.56084142 -0.0053603595 -0.0073176671)
(-0.4350159 -0.011167598 -0.012953286)
(-0.28716266 -0.016959985 -0.018401792)
(-0.16335961 -0.021233298 -0.02201952)
(-0.09229074 0.00040328651 0.00018907573)
(-0.2706764 0.0010153852 0.00039097693)
(-0.44455099 0.0012639686 6.6411688e-05)
(-0.57259983 0.00056252592 -0.0012628502)
(-0.61186443 -0.0018067132 -0.0040877945)
(-0.54659875 -0.0062009624 -0.0086743169)
(-0.40776024 -0.011952414 -0.014431708)
(-0.25325051 -0.01740553 -0.019637126)
(-0.12825681 -0.021080695 -0.022623058)
(-0.09566427 0.00034729427 0.00012671299)
(-0.27898076 0.00083082698 0.00019441349)
(-0.45476111 0.0009191381 -0.00030873761)
(-0.57928043 5.0216598e-05 -0.0018485271)
(-0.6088688 -0.0024311525 -0.0048794028)
(-0.53068998 -0.0067654643 -0.0096140911)
(-0.38117993 -0.01223567 -0.01532642)
(-0.22214579 -0.017173608 -0.020153608)
(-0.097468593 -0.020175569 -0.022546869)
(-0.098227579 0.00027790479 7.2024916e-05)
(-0.2850409 0.0006170412 2.8327038e-05)
(-0.46160326 0.00055093967 -0.00060798579)
(-0.58227344 -0.00042855718 -0.0022772151)
(-0.60300342 -0.0028820942 -0.0053940692)
(-0.51367817 -0.0069488101 -0.010132045)
(-0.35552349 -0.011910711 -0.015668828)
(-0.19360225 -0.016203901 -0.020060794)
(-0.070326858 -0.018546404 -0.021952612)
(-0.10007895 0.00020740201 2.9425899e-05)
(-0.28924011 0.00041477032 -9.4093659e-05)
(-0.46585611 0.00023380175 -0.00081124733)
(-0.58277249 -0.00077033925 -0.0025325734)
(-0.59573004 -0.0030503438 -0.0056375882)
(-0.49699533 -0.0066603448 -0.010280712)
(-0.33189258 -0.010922912 -0.015575216)
(-0.16818441 -0.014482683 -0.019549552)
(-0.046858871 -0.01623678 -0.021054796)
(-0.1013629 0.00014347655 -3.860052e-07)
(-0.29202712 0.00024808889 -0.00017327589)
(-0.46830946 1.0531076e-05 -0.00092640717)
(-0.58188907 -0.00091794585 -0.00264072)
(-0.5883753 -0.0028811713 -0.0056683544)
(-0.48199389 -0.0058747647 -0.01017254)