/*--------------------------------*- C++ -*----------------------------------*\
  =========                 |
  \\      /  F ield         | OpenFOAM: The Open Source CFD Toolbox
   \\    /   O peration     | Website:  https://openfoam.org
    \\  /    A nd           | Version:  10
     \\/     M anipulation  |
\*---------------------------------------------------------------------------*/
FoamFile
{
    format      ascii;
    class       volScalarField;
    location    "14";
    object      T;
}
// * * * * * * * * * * * * * * * * * * * * * * * * * * * * * * * * * * * * * //

dimensions      [0 0 -1 0 0 0 0];

internalField   nonuniform List<scalar> 
100
(
3.66948
10.9744
18.1818
25.2279
32.0501
38.5877
44.7829
50.5806
55.9293
60.7816
65.0944
68.8295
71.9535
74.439
76.2637
77.4115
77.8722
77.6416
76.722
75.1213
72.8539
69.9398
66.405
62.2807
57.6036
52.4153
46.7617
40.693
34.2631
27.5292
20.5508
13.3901
6.11053
-1.22328
-8.54624
-15.7933
-22.9002
-29.8039
-36.443
-42.7586
-48.6947
-54.1986
-59.2214
-63.7186
-67.6502
-70.9813
-73.6824
-75.7294
-77.1043
-77.7949
-77.7948
-77.1043
-75.7294
-73.6823
-70.9813
-67.6501
-63.7185
-59.2214
-54.1986
-48.6947
-42.7586
-36.4429
-29.8038
-22.9002
-15.7932
-8.54614
-1.22319
6.11063
13.3902
20.5509
27.5293
34.2632
40.6931
46.7618
52.4154
57.6037
62.2808
66.4051
69.9399
72.854
75.1214
76.7221
77.6417
77.8722
77.4115
76.2637
74.439
71.9536
68.8295
65.0945
60.7817
55.9294
50.5806
44.7829
38.5878
32.0501
25.2279
18.1818
10.9744
3.66948
)
;

boundaryField
{
    xmin
    {
        type            fixedValue;
        value           uniform 0;
    }
    xmax
    {
        type            fixedValue;
        value           uniform 0;
    }
    frontAndBack
    {
        type            empty;
    }
}


// ************************************************************************* //
