/*--------------------------------*- C++ -*----------------------------------*\
  =========                 |
  \\      /  F ield         | OpenFOAM: The Open Source CFD Toolbox
   \\    /   O peration     | Website:  https://openfoam.org
    \\  /    A nd           | Version:  10
     \\/     M anipulation  |
\*---------------------------------------------------------------------------*/
FoamFile
{
    format      ascii;
    class       volScalarField;
    location    "14";
    object      T_0;
}
// * * * * * * * * * * * * * * * * * * * * * * * * * * * * * * * * * * * * * //

dimensions      [0 0 -1 0 0 0 0];

internalField   nonuniform List<scalar> 
100
(
3.67302
10.9849
18.1993
25.2522
32.0809
38.6249
44.8261
50.6293
55.9832
60.8402
65.1572
68.8958
72.0229
74.5107
76.3372
77.4861
77.9472
77.7165
76.7959
75.1937
72.9241
70.0072
66.469
62.3407
57.6591
52.4658
46.8067
40.7322
34.2962
27.5557
20.5706
13.403
6.11642
-1.22446
-8.55447
-15.8085
-22.9223
-29.8326
-36.4781
-42.7998
-48.7416
-54.2508
-59.2785
-63.78
-67.7154
-71.0497
-73.7534
-75.8024
-77.1786
-77.8698
-77.8698
-77.1786
-75.8024
-73.7533
-71.0496
-67.7153
-63.7799
-59.2784
-54.2508
-48.7416
-42.7998
-36.478
-29.8325
-22.9222
-15.8085
-8.55438
-1.22436
6.11652
13.4031
20.5707
27.5558
34.2962
40.7323
46.8068
52.4659
57.6592
62.3408
66.4691
70.0073
72.9242
75.1938
76.796
77.7165
77.9473
77.4861
76.3372
74.5107
72.0229
68.8958
65.1572
60.8402
55.9833
50.6294
44.8261
38.6249
32.081
25.2522
18.1993
10.9849
3.67302
)
;

boundaryField
{
    xmin
    {
        type            fixedValue;
        value           uniform 0;
    }
    xmax
    {
        type            fixedValue;
        value           uniform 0;
    }
    frontAndBack
    {
        type            empty;
    }
}


// ************************************************************************* //
