/*--------------------------------*- C++ -*----------------------------------*\
  =========                 |
  \\      /  F ield         | OpenFOAM: The Open Source CFD Toolbox
   \\    /   O peration     | Website:  https://openfoam.org
    \\  /    A nd           | Version:  10
     \\/     M anipulation  |
\*---------------------------------------------------------------------------*/
FoamFile
{
    format      ascii;
    class       volScalarField;
    location    "4.5";
    object      ddt0(T);
}
// * * * * * * * * * * * * * * * * * * * * * * * * * * * * * * * * * * * * * //

dimensions      [0 0 -2 0 0 0 0];

internalField   nonuniform List<scalar> 
100
(
-0.883086
-2.64106
-4.37559
-6.07128
-7.71308
-9.28643
-10.7774
-12.1726
-13.4598
-14.6276
-15.6655
-16.5644
-17.3163
-17.9144
-18.3536
-18.6298
-18.7407
-18.6852
-18.4639
-18.0787
-17.5331
-16.8318
-15.9811
-14.9885
-13.8629
-12.6143
-11.2537
-9.79322
-8.2458
-6.6252
-4.94579
-3.22247
-1.47056
0.294411
2.05677
3.80087
5.51123
7.17268
8.77046
10.2904
11.719
13.0436
14.2524
15.3347
16.2808
17.0825
17.7326
18.2252
18.5561
18.7223
18.7223
18.5561
18.2252
17.7326
17.0825
16.2808
15.3347
14.2524
13.0436
11.719
10.2904
8.77045
7.17266
5.51122
3.80085
2.05675
0.294394
-1.47058
-3.22249
-4.94581
-6.62522
-8.24582
-9.79324
-11.2537
-12.6143
-13.863
-14.9885
-15.9811
-16.8318
-17.5331
-18.0787
-18.4639
-18.6852
-18.7407
-18.6298
-18.3536
-17.9144
-17.3162
-16.5644
-15.6655
-14.6276
-13.4598
-12.1726
-10.7773
-9.28641
-7.71307
-6.07127
-4.37558
-2.64105
-0.883084
)
;

boundaryField
{
    xmin
    {
        type            calculated;
        value           uniform 0;
    }
    xmax
    {
        type            calculated;
        value           uniform 0;
    }
    frontAndBack
    {
        type            empty;
    }
}


// ************************************************************************* //
