/*--------------------------------*- C++ -*----------------------------------*\
  =========                 |
  \\      /  F ield         | OpenFOAM: The Open Source CFD Toolbox
   \\    /   O peration     | Website:  https://openfoam.org
    \\  /    A nd           | Version:  10
     \\/     M anipulation  |
\*---------------------------------------------------------------------------*/
FoamFile
{
    format      ascii;
    class       volScalarField;
    location    "4.5";
    object      T;
}
// * * * * * * * * * * * * * * * * * * * * * * * * * * * * * * * * * * * * * //

dimensions      [0 0 -1 0 0 0 0];

internalField   nonuniform List<scalar> 
100
(
9.16092
27.3977
45.3912
62.9819
80.0136
96.335
111.801
126.275
139.629
151.743
162.51
171.834
179.634
185.839
190.394
193.259
194.41
193.834
191.538
187.542
181.882
174.607
165.782
155.485
143.809
130.856
116.742
101.591
85.5388
68.7272
51.3056
33.4286
15.2549
-3.05415
-21.3361
-39.4288
-57.1714
-74.4066
-90.9813
-106.749
-121.568
-135.309
-147.848
-159.076
-168.891
-177.207
-183.951
-189.061
-192.494
-194.218
-194.218
-192.494
-189.061
-183.951
-177.207
-168.891
-159.076
-147.848
-135.309
-121.568
-106.748
-90.9812
-74.4064
-57.1712
-39.4286
-21.336
-3.05396
15.2551
33.4288
51.3058
68.7274
85.539
101.591
116.742
130.856
143.809
155.486
165.782
174.607
181.882
187.542
191.538
193.834
194.41
193.26
190.394
185.839
179.634
171.834
162.51
151.743
139.629
126.275
111.801
96.335
80.0135
62.9819
45.3912
27.3977
9.16092
)
;

boundaryField
{
    xmin
    {
        type            fixedValue;
        value           uniform 0;
    }
    xmax
    {
        type            fixedValue;
        value           uniform 0;
    }
    frontAndBack
    {
        type            empty;
    }
}


// ************************************************************************* //
