/*--------------------------------*- C++ -*----------------------------------*\
| =========                 |                                                 |
| \\      /  F ield         | OpenFOAM: The Open Source CFD Toolbox           |
|  \\    /   O peration     | Version:  2406                                  |
|   \\  /    A nd           | Website:  www.openfoam.com                      |
|    \\/     M anipulation  |                                                 |
\*---------------------------------------------------------------------------*/
FoamFile
{
    version     2.0;
    format      ascii;
    arch        "LSB;label=32;scalar=64";
    class       volScalarField;
    location    "14.5";
    object      p;
}
// * * * * * * * * * * * * * * * * * * * * * * * * * * * * * * * * * * * * * //

dimensions      [0 2 -2 0 0 0 0];

internalField   nonuniform List<scalar> 
34560
(
-42.687504
-42.677868
-42.666271
-42.654313
-42.642869
-42.63446
-42.630905
-42.631416
-42.633365
-42.75416
-42.742881
-42.728836
-42.713541
-42.698025
-42.685246
-42.677214
-42.67312
-42.671586
-42.814101
-42.8016
-42.785966
-42.768725
-42.750729
-42.734909
-42.723257
-42.714311
-42.708669
-42.871503
-42.857893
-42.840779
-42.8217
-42.801432
-42.782799
-42.76728
-42.753569
-42.743779
-42.925462
-42.910898
-42.892495
-42.8718
-42.849495
-42.828288
-42.808837
-42.790616
-42.776624
-42.973753
-42.958621
-42.939388
-42.917553
-42.893673
-42.870374
-42.847179
-42.824787
-42.806748
-43.016816
-43.00117
-42.981208
-42.95839
-42.933104
-42.907689
-42.881358
-42.85535
-42.833595
-43.053701
-43.037678
-43.017159
-42.993559
-42.967095
-42.939725
-42.910528
-42.881688
-42.856698
-43.083904
-43.067616
-43.046686
-43.022475
-42.995071
-42.966049
-42.934537
-42.903353
-42.87566
-43.10682
-43.090384
-43.069193
-43.044561
-43.016487
-42.986191
-42.952927
-42.91992
-42.890136
-43.122289
-43.105735
-43.084357
-43.059448
-43.03095
-42.999792
-42.965341
-42.931094
-42.89989
-43.130141
-43.113533
-43.092054
-43.066984
-43.03825
-43.006626
-42.971556
-42.936666
-42.904732
-43.13014
-43.113532
-43.092054
-43.066984
-43.03825
-43.006627
-42.971556
-42.936666
-42.904732
-43.122288
-43.105735
-43.084358
-43.059448
-43.030951
-42.999793
-42.965342
-42.931095
-42.899892
-43.106821
-43.090386
-43.069195
-43.044562
-43.016488
-42.986192
-42.952928
-42.919922
-42.890138
-43.083908
-43.06762
-43.046689
-43.022477
-42.995072
-42.966051
-42.934539
-42.903355
-42.875663
-43.053703
-43.03768
-43.017161
-42.99356
-42.967096
-42.939726
-42.910529
-42.881689
-42.8567
-43.016818
-43.001173
-42.98121
-42.958392
-42.933105
-42.90769
-42.881358
-42.85535
-42.833595
-42.973754
-42.958622
-42.93939
-42.917555
-42.893673
-42.870374
-42.847179
-42.824787
-42.806748
-42.92546
-42.910897
-42.892495
-42.871801
-42.849496
-42.828289
-42.808838
-42.790616
-42.776623
-42.871501
-42.857892
-42.840779
-42.821702
-42.801434
-42.782801
-42.767281
-42.753569
-42.743777
-42.8141
-42.8016
-42.785967
-42.768727
-42.750731
-42.734911
-42.723258
-42.714311
-42.708668
-42.754159
-42.74288
-42.728835
-42.713541
-42.698026
-42.685247
-42.677215
-42.673119
-42.671585
-42.687504
-42.677869
-42.666272
-42.654314
-42.642871
-42.634462
-42.630906
-42.631415
-42.633362
-39.84013
-39.839434
-39.838606
-39.83786
-39.837099
-39.835991
-39.834038
-39.830873
-39.827682
-39.845567
-39.844798
-39.843811
-39.842749
-39.841407
-39.839353
-39.836048
-39.831828
-39.828293
-39.850516
-39.84969
-39.848612
-39.847399
-39.845723
-39.842933
-39.838379
-39.833671
-39.829173
-39.855499
-39.854624
-39.853438
-39.85202
-39.849949
-39.846405
-39.840925
-39.835745
-39.829655
-39.86019
-39.859282
-39.858003
-39.856384
-39.853895
-39.849471
-39.843104
-39.837378
-39.829851
-39.864302
-39.863409
-39.862098
-39.860369
-39.85746
-39.852041
-39.845195
-39.838694
-39.829939
-39.868049
-39.867166
-39.865824
-39.863956
-39.860642
-39.854573
-39.847398
-39.839788
-39.829981
-39.871222
-39.870362
-39.869005
-39.867004
-39.863312
-39.85674
-39.849433
-39.840672
-39.830003
-39.873712
-39.872886
-39.871527
-39.869421
-39.865384
-39.85834
-39.850947
-39.841336
-39.830017
-39.875522
-39.874728
-39.87337
-39.871182
-39.866844
-39.859357
-39.851988
-39.841811
-39.830033
-39.876693
-39.875918
-39.874564
-39.872322
-39.867788
-39.86013
-39.852669
-39.842125
-39.830057
-39.877311
-39.876544
-39.875189
-39.872916
-39.86828
-39.860551
-39.853029
-39.842307
-39.830094
-39.877311
-39.876544
-39.875189
-39.872917
-39.86828
-39.860551
-39.853029
-39.842307
-39.830095
-39.876693
-39.875919
-39.874565
-39.872322
-39.867789
-39.86013
-39.852669
-39.842126
-39.830058
-39.875522
-39.874729
-39.873371
-39.871182
-39.866845
-39.859358
-39.851989
-39.841812
-39.830034
-39.873713
-39.872888
-39.871528
-39.869422
-39.865385
-39.858341
-39.850948
-39.841338
-39.830019
-39.871223
-39.870363
-39.869007
-39.867005
-39.863313
-39.856741
-39.849435
-39.840673
-39.830004
-39.86805
-39.867167
-39.865825
-39.863958
-39.860644
-39.854574
-39.8474
-39.839789
-39.829982
-39.864305
-39.863411
-39.8621
-39.860371
-39.857462
-39.852043
-39.845196
-39.838696
-39.82994
-39.860192
-39.859284
-39.858006
-39.856386
-39.853897
-39.849473
-39.843106
-39.83738
-39.829853
-39.855502
-39.854627
-39.853441
-39.852023
-39.849952
-39.846408
-39.840927
-39.835747
-39.829656
-39.850519
-39.849693
-39.848615
-39.847402
-39.845726
-39.842936
-39.838381
-39.833672
-39.829173
-39.84557
-39.844801
-39.843814
-39.842752
-39.84141
-39.839356
-39.836051
-39.831829
-39.828293
-39.840133
-39.839437
-39.838609
-39.837863
-39.837101
-39.835994
-39.83404
-39.830875
-39.827683
-38.57511
-38.574962
-38.574744
-38.574406
-38.574131
-38.574237
-38.574971
-38.576375
-38.577483
-38.581296
-38.581087
-38.580724
-38.58011
-38.579442
-38.579084
-38.579299
-38.580078
-38.580122
-38.586816
-38.58657
-38.586133
-38.585376
-38.584499
-38.583869
-38.583717
-38.583812
-38.583204
-38.591845
-38.591564
-38.59106
-38.590183
-38.589127
-38.588262
-38.587792
-38.586904
-38.585755
-38.596381
-38.596082
-38.59553
-38.59454
-38.593299
-38.592196
-38.591509
-38.589581
-38.587882
-38.600329
-38.600027
-38.599445
-38.598351
-38.596944
-38.5956
-38.594482
-38.591812
-38.589645
-38.603708
-38.603401
-38.602783
-38.601599
-38.600058
-38.598473
-38.596683
-38.593593
-38.591064
-38.606508
-38.606197
-38.605551
-38.604308
-38.602668
-38.600882
-38.598313
-38.594966
-38.592164
-38.60876
-38.608445
-38.607781
-38.606489
-38.604787
-38.602922
-38.599659
-38.595999
-38.592976
-38.610457
-38.610146
-38.609474
-38.608148
-38.606407
-38.604572
-38.600685
-38.596724
-38.593534
-38.611597
-38.611289
-38.61061
-38.609255
-38.607459
-38.605521
-38.601332
-38.597171
-38.593872
-38.612165
-38.61186
-38.611178
-38.609808
-38.607978
-38.605969
-38.601643
-38.597378
-38.594026
-38.612165
-38.61186
-38.611178
-38.609808
-38.607978
-38.605969
-38.601643
-38.597378
-38.594026
-38.611598
-38.61129
-38.61061
-38.609255
-38.607459
-38.605521
-38.601332
-38.597171
-38.593873
-38.610458
-38.610147
-38.609475
-38.608149
-38.606408
-38.604573
-38.600686
-38.596725
-38.593535
-38.60876
-38.608446
-38.607781
-38.60649
-38.604788
-38.602923
-38.599659
-38.596
-38.592977
-38.606509
-38.606198
-38.605552
-38.604308
-38.602669
-38.600883
-38.598314
-38.594967
-38.592165
-38.60371
-38.603402
-38.602785
-38.6016
-38.60006
-38.598474
-38.596685
-38.593595
-38.591066
-38.600331
-38.600028
-38.599446
-38.598352
-38.596946
-38.595602
-38.594484
-38.591814
-38.589647
-38.596384
-38.596084
-38.595533
-38.594542
-38.593301
-38.592198
-38.591511
-38.589583
-38.587885
-38.591849
-38.591567
-38.591063
-38.590186
-38.589129
-38.588265
-38.587794
-38.586906
-38.585757
-38.58682
-38.586574
-38.586136
-38.585379
-38.584501
-38.583871
-38.583719
-38.583814
-38.583206
-38.581299
-38.58109
-38.580728
-38.580113
-38.579445
-38.579086
-38.579301
-38.580081
-38.580124
-38.575114
-38.574966
-38.574747
-38.574409
-38.574134
-38.57424
-38.574974
-38.576378
-38.577485
-36.569934
-36.569817
-36.569722
-36.569736
-36.569864
-36.570032
-36.570116
-36.569971
-36.569376
-36.572143
-36.571984
-36.57182
-36.571717
-36.571655
-36.571545
-36.571235
-36.570615
-36.569753
-36.574569
-36.574366
-36.574149
-36.57399
-36.573855
-36.573633
-36.573146
-36.57231
-36.571331
-36.576998
-36.576749
-36.576479
-36.576269
-36.576087
-36.575804
-36.575217
-36.574258
-36.572987
-36.579339
-36.579051
-36.578736
-36.578483
-36.578253
-36.5779
-36.577206
-36.576112
-36.574547
-36.581486
-36.581176
-36.580832
-36.580546
-36.580282
-36.579878
-36.579068
-36.577873
-36.576032
-36.583386
-36.583056
-36.58269
-36.582386
-36.582108
-36.581668
-36.580713
-36.579502
-36.577408
-36.585018
-36.584677
-36.584299
-36.583987
-36.583707
-36.583272
-36.582377
-36.580984
-36.578634
-36.586354
-36.586006
-36.585621
-36.585308
-36.585032
-36.584607
-36.583744
-36.582237
-36.579673
-36.587369
-36.587017
-36.58663
-36.58632
-36.586053
-36.585635
-36.584788
-36.583218
-36.580489
-36.588053
-36.587698
-36.58731
-36.587003
-36.586743
-36.586332
-36.585497
-36.583893
-36.581052
-36.588397
-36.588041
-36.587652
-36.587347
-36.58709
-36.586684
-36.585856
-36.584239
-36.581341
-36.588397
-36.588042
-36.587652
-36.587347
-36.587091
-36.586684
-36.585856
-36.584239
-36.581341
-36.588054
-36.587699
-36.58731
-36.587004
-36.586744
-36.586332
-36.585497
-36.583893
-36.581052
-36.58737
-36.587018
-36.586631
-36.586321
-36.586053
-36.585635
-36.584789
-36.583218
-36.58049
-36.586355
-36.586007
-36.585622
-36.585309
-36.585033
-36.584608
-36.583745
-36.582238
-36.579674
-36.585019
-36.584678
-36.5843
-36.583988
-36.583708
-36.583273
-36.582378
-36.580985
-36.578635
-36.583387
-36.583057
-36.582692
-36.582387
-36.582109
-36.581669
-36.580715
-36.579503
-36.57741
-36.581488
-36.581177
-36.580834
-36.580548
-36.580283
-36.57988
-36.57907
-36.577875
-36.576034
-36.579341
-36.579053
-36.578738
-36.578485
-36.578255
-36.577902
-36.577207
-36.576114
-36.57455
-36.577
-36.576751
-36.576481
-36.576271
-36.576089
-36.575806
-36.575219
-36.57426
-36.572989
-36.574572
-36.574368
-36.574152
-36.573992
-36.573857
-36.573635
-36.573149
-36.572313
-36.571334
-36.572146
-36.571987
-36.571823
-36.571719
-36.571657
-36.571548
-36.571238
-36.570618
-36.569756
-36.569937
-36.569819
-36.569725
-36.569739
-36.569867
-36.570035
-36.570119
-36.569974
-36.569379
-34.834057
-34.834128
-34.834218
-34.834316
-34.834439
-34.834604
-34.83482
-34.835054
-34.835003
-34.834998
-34.835056
-34.835112
-34.835143
-34.835155
-34.835159
-34.835149
-34.835067
-34.834768
-34.835993
-34.836037
-34.836069
-34.836059
-34.836011
-34.835933
-34.835817
-34.835613
-34.835277
-34.836859
-34.836888
-34.836899
-34.83686
-34.836775
-34.836652
-34.83647
-34.83617
-34.835751
-34.837586
-34.837605
-34.837599
-34.837532
-34.837415
-34.837254
-34.836999
-34.836588
-34.836074
-34.838212
-34.838223
-34.838203
-34.838119
-34.837976
-34.837764
-34.83743
-34.836908
-34.836303
-34.838739
-34.838743
-34.838714
-34.838611
-34.838437
-34.838178
-34.837771
-34.837151
-34.836466
-34.839164
-34.839163
-34.839123
-34.839004
-34.838803
-34.838505
-34.838032
-34.837329
-34.83658
-34.83949
-34.839485
-34.839436
-34.839303
-34.839084
-34.838753
-34.838224
-34.837455
-34.836653
-34.839734
-34.839724
-34.839669
-34.839525
-34.83929
-34.838932
-34.838354
-34.837539
-34.836696
-34.839899
-34.839886
-34.839825
-34.839674
-34.839427
-34.839047
-34.838435
-34.837589
-34.836718
-34.839976
-34.839962
-34.839899
-34.839745
-34.839492
-34.839101
-34.838471
-34.837611
-34.836726
-34.839976
-34.839962
-34.8399
-34.839745
-34.839492
-34.839101
-34.838471
-34.837611
-34.836726
-34.8399
-34.839887
-34.839826
-34.839674
-34.839427
-34.839047
-34.838435
-34.83759
-34.836718
-34.839735
-34.839725
-34.83967
-34.839526
-34.839291
-34.838933
-34.838355
-34.83754
-34.836697
-34.839491
-34.839486
-34.839437
-34.839304
-34.839085
-34.838754
-34.838225
-34.837457
-34.836654
-34.839165
-34.839164
-34.839124
-34.839005
-34.838804
-34.838507
-34.838034
-34.837331
-34.836582
-34.838741
-34.838745
-34.838715
-34.838613
-34.838439
-34.83818
-34.837773
-34.837153
-34.836469
-34.838214
-34.838225
-34.838205
-34.838121
-34.837978
-34.837766
-34.837432
-34.836911
-34.836306
-34.837589
-34.837608
-34.837601
-34.837535
-34.837417
-34.837256
-34.837001
-34.836591
-34.836077
-34.836861
-34.83689
-34.836901
-34.836862
-34.836777
-34.836655
-34.836472
-34.836173
-34.835755
-34.835996
-34.83604
-34.836072
-34.836062
-34.836013
-34.835935
-34.83582
-34.835616
-34.835282
-34.835001
-34.835059
-34.835115
-34.835146
-34.835158
-34.835162
-34.835153
-34.835071
-34.834773
-34.834061
-34.834131
-34.834221
-34.83432
-34.834442
-34.834607
-34.834824
-34.835058
-34.835007
-33.029223
-33.02926
-33.029321
-33.029414
-33.02954
-33.029692
-33.029857
-33.030019
-33.03004
-33.02992
-33.029952
-33.029996
-33.030057
-33.030127
-33.030189
-33.030219
-33.030192
-33.030078
-33.030726
-33.03075
-33.030784
-33.030827
-33.030868
-33.030885
-33.030853
-33.030763
-33.030646
-33.031497
-33.031511
-33.031533
-33.031562
-33.031587
-33.031584
-33.031524
-33.031398
-33.031249
-33.032222
-33.032225
-33.032234
-33.032246
-33.032253
-33.032231
-33.032145
-33.031985
-33.031796
-33.032892
-33.032887
-33.032883
-33.032882
-33.032872
-33.032831
-33.032719
-33.032525
-33.032294
-33.033486
-33.033474
-33.033461
-33.033448
-33.033426
-33.033368
-33.03323
-33.033004
-33.032729
-33.034003
-33.033985
-33.033965
-33.033943
-33.03391
-33.033833
-33.033671
-33.033414
-33.033097
-33.034427
-33.034407
-33.034383
-33.034354
-33.034308
-33.034215
-33.034033
-33.03375
-33.033396
-33.03475
-33.034727
-33.0347
-33.034666
-33.034611
-33.034507
-33.034311
-33.034008
-33.033622
-33.034966
-33.034942
-33.034913
-33.034876
-33.034816
-33.034704
-33.0345
-33.034181
-33.033773
-33.035073
-33.035049
-33.035019
-33.03498
-33.034917
-33.034803
-33.034595
-33.034269
-33.033849
-33.035073
-33.035049
-33.035019
-33.03498
-33.034918
-33.034803
-33.034595
-33.034269
-33.033849
-33.034967
-33.034943
-33.034914
-33.034876
-33.034816
-33.034705
-33.0345
-33.034182
-33.033774
-33.034751
-33.034728
-33.034701
-33.034667
-33.034612
-33.034508
-33.034312
-33.034009
-33.033623
-33.034429
-33.034408
-33.034384
-33.034356
-33.034309
-33.034216
-33.034034
-33.033752
-33.033397
-33.034004
-33.033987
-33.033967
-33.033945
-33.033911
-33.033834
-33.033673
-33.033416
-33.033099
-33.033488
-33.033476
-33.033463
-33.03345
-33.033428
-33.03337
-33.033232
-33.033006
-33.032731
-33.032894
-33.032889
-33.032886
-33.032884
-33.032874
-33.032833
-33.032722
-33.032527
-33.032297
-33.032224
-33.032228
-33.032236
-33.032249
-33.032256
-33.032233
-33.032148
-33.031988
-33.0318
-33.0315
-33.031514
-33.031536
-33.031565
-33.03159
-33.031587
-33.031527
-33.031401
-33.031253
-33.030729
-33.030754
-33.030788
-33.03083
-33.030871
-33.030889
-33.030857
-33.030766
-33.03065
-33.029924
-33.029955
-33.03
-33.030061
-33.030131
-33.030193
-33.030222
-33.030196
-33.030082
-33.029227
-33.029264
-33.029325
-33.029418
-33.029544
-33.029696
-33.029861
-33.030023
-33.030045
-31.238006
-31.238029
-31.238063
-31.238106
-31.238158
-31.238214
-31.238268
-31.238313
-31.238276
-31.238351
-31.238371
-31.238394
-31.238415
-31.23843
-31.238427
-31.238395
-31.238326
-31.238211
-31.238743
-31.238758
-31.238774
-31.238783
-31.238778
-31.238747
-31.23868
-31.23858
-31.238478
-31.239108
-31.239118
-31.239126
-31.239127
-31.239113
-31.239069
-31.238986
-31.238873
-31.238764
-31.239444
-31.239449
-31.239451
-31.239444
-31.239418
-31.239359
-31.239261
-31.239132
-31.239004
-31.239746
-31.239748
-31.239744
-31.239729
-31.239693
-31.239622
-31.239509
-31.239361
-31.239211
-31.240003
-31.240002
-31.239994
-31.239974
-31.23993
-31.23985
-31.239725
-31.23956
-31.23939
-31.240221
-31.240217
-31.240205
-31.24018
-31.24013
-31.240044
-31.239908
-31.239729
-31.239539
-31.240396
-31.24039
-31.240375
-31.240345
-31.240291
-31.2402
-31.240057
-31.239865
-31.239659
-31.240529
-31.240521
-31.240503
-31.240471
-31.240414
-31.240319
-31.240169
-31.239968
-31.239748
-31.240619
-31.240609
-31.24059
-31.240555
-31.240496
-31.240399
-31.240245
-31.240037
-31.239807
-31.240663
-31.240653
-31.240633
-31.240597
-31.240537
-31.240438
-31.240282
-31.240071
-31.239837
-31.240663
-31.240653
-31.240633
-31.240597
-31.240537
-31.240438
-31.240282
-31.240072
-31.239837
-31.24062
-31.24061
-31.240591
-31.240556
-31.240497
-31.240399
-31.240245
-31.240038
-31.239808
-31.24053
-31.240522
-31.240504
-31.240472
-31.240415
-31.24032
-31.24017
-31.239969
-31.239749
-31.240397
-31.240391
-31.240376
-31.240347
-31.240293
-31.240202
-31.240058
-31.239867
-31.23966
-31.240223
-31.240219
-31.240207
-31.240182
-31.240132
-31.240046
-31.23991
-31.239731
-31.239541
-31.240005
-31.240004
-31.239997
-31.239976
-31.239932
-31.239853
-31.239727
-31.239562
-31.239392
-31.239749
-31.23975
-31.239747
-31.239732
-31.239695
-31.239625
-31.239512
-31.239363
-31.239214
-31.239447
-31.239453
-31.239455
-31.239447
-31.239421
-31.239363
-31.239264
-31.239135
-31.239007
-31.239112
-31.239122
-31.23913
-31.239131
-31.239117
-31.239073
-31.23899
-31.238877
-31.238768
-31.238747
-31.238763
-31.238778
-31.238787
-31.238783
-31.238752
-31.238684
-31.238584
-31.238482
-31.238356
-31.238376
-31.238399
-31.23842
-31.238435
-31.238432
-31.2384
-31.238331
-31.238215
-31.238011
-31.238035
-31.238068
-31.238111
-31.238164
-31.238219
-31.238273
-31.238318
-31.238281
-29.454441
-29.454455
-29.454475
-29.454501
-29.454536
-29.454578
-29.454629
-29.454689
-29.454709
-29.45465
-29.454661
-29.454676
-29.454692
-29.454707
-29.454719
-29.454726
-29.454724
-29.454695
-29.454884
-29.454894
-29.454905
-29.454915
-29.45492
-29.454918
-29.454907
-29.454886
-29.454862
-29.455105
-29.455112
-29.45512
-29.455125
-29.455126
-29.455119
-29.4551
-29.455072
-29.455044
-29.455311
-29.455315
-29.455319
-29.45532
-29.455316
-29.455303
-29.455278
-29.455242
-29.455208
-29.455503
-29.455504
-29.455504
-29.455501
-29.455491
-29.455474
-29.455443
-29.455401
-29.455359
-29.455673
-29.455672
-29.455669
-29.455661
-29.455648
-29.455626
-29.455591
-29.455543
-29.455493
-29.455822
-29.455818
-29.455813
-29.455802
-29.455785
-29.455759
-29.455719
-29.455665
-29.455607
-29.455946
-29.455941
-29.455933
-29.45592
-29.4559
-29.455869
-29.455825
-29.455766
-29.4557
-29.456043
-29.456036
-29.456027
-29.456011
-29.455988
-29.455954
-29.455907
-29.455843
-29.45577
-29.456108
-29.456101
-29.45609
-29.456073
-29.456047
-29.456012
-29.455963
-29.455895
-29.455817
-29.456141
-29.456133
-29.456122
-29.456104
-29.456077
-29.456041
-29.455991
-29.455922
-29.455841
-29.456141
-29.456133
-29.456122
-29.456104
-29.456078
-29.456042
-29.455991
-29.455922
-29.455842
-29.456109
-29.456101
-29.456091
-29.456074
-29.456048
-29.456013
-29.455964
-29.455896
-29.455818
-29.456044
-29.456038
-29.456028
-29.456013
-29.455989
-29.455956
-29.455908
-29.455844
-29.455771
-29.455948
-29.455943
-29.455935
-29.455922
-29.455901
-29.455871
-29.455827
-29.455768
-29.455702
-29.455824
-29.455821
-29.455815
-29.455804
-29.455787
-29.455761
-29.455721
-29.455667
-29.45561
-29.455676
-29.455675
-29.455672
-29.455664
-29.455651
-29.455629
-29.455594
-29.455545
-29.455496
-29.455506
-29.455507
-29.455508
-29.455504
-29.455495
-29.455477
-29.455446
-29.455404
-29.455363
-29.455315
-29.455319
-29.455323
-29.455324
-29.45532
-29.455307
-29.455282
-29.455246
-29.455213
-29.455109
-29.455116
-29.455124
-29.45513
-29.45513
-29.455123
-29.455104
-29.455076
-29.455049
-29.454889
-29.454899
-29.45491
-29.45492
-29.454925
-29.454923
-29.454912
-29.454891
-29.454868
-29.454655
-29.454667
-29.454681
-29.454697
-29.454712
-29.454725
-29.454732
-29.45473
-29.454701
-29.454447
-29.454461
-29.454481
-29.454507
-29.454542
-29.454584
-29.454635
-29.454695
-29.454716
-27.666523
-27.666528
-27.666535
-27.666547
-27.666563
-27.666581
-27.6666
-27.666621
-27.66662
-27.666644
-27.666647
-27.666652
-27.666657
-27.666661
-27.666661
-27.666655
-27.666641
-27.666616
-27.666777
-27.666779
-27.666781
-27.666783
-27.666782
-27.666774
-27.666759
-27.666737
-27.666717
-27.666903
-27.666903
-27.666903
-27.666903
-27.666899
-27.666889
-27.66687
-27.666847
-27.666826
-27.66702
-27.667019
-27.667017
-27.667014
-27.667007
-27.666994
-27.666973
-27.666946
-27.66692
-27.667125
-27.667123
-27.66712
-27.667116
-27.667107
-27.667091
-27.667067
-27.667035
-27.667003
-27.667218
-27.667215
-27.667211
-27.667204
-27.667194
-27.667177
-27.66715
-27.667115
-27.667076
-27.667296
-27.667292
-27.667287
-27.66728
-27.667269
-27.667251
-27.667222
-27.667182
-27.667137
-27.66736
-27.667356
-27.66735
-27.667342
-27.66733
-27.667311
-27.667281
-27.667238
-27.667186
-27.667409
-27.667404
-27.667398
-27.667389
-27.667377
-27.667357
-27.667326
-27.66728
-27.667224
-27.667442
-27.667437
-27.66743
-27.667421
-27.667408
-27.667389
-27.667356
-27.667308
-27.667249
-27.667459
-27.667453
-27.667446
-27.667437
-27.667424
-27.667405
-27.667372
-27.667323
-27.667262
-27.667459
-27.667454
-27.667447
-27.667437
-27.667425
-27.667405
-27.667372
-27.667323
-27.667262
-27.667443
-27.667438
-27.667431
-27.667422
-27.667409
-27.66739
-27.667357
-27.667309
-27.66725
-27.66741
-27.667406
-27.667399
-27.66739
-27.667378
-27.667359
-27.667327
-27.667281
-27.667225
-27.667362
-27.667358
-27.667352
-27.667344
-27.667332
-27.667313
-27.667283
-27.66724
-27.667188
-27.667299
-27.667295
-27.66729
-27.667283
-27.667271
-27.667253
-27.667224
-27.667185
-27.667139
-27.667221
-27.667218
-27.667214
-27.667208
-27.667197
-27.66718
-27.667153
-27.667118
-27.667079
-27.667129
-27.667127
-27.667124
-27.667119
-27.66711
-27.667095
-27.667071
-27.667039
-27.667007
-27.667024
-27.667023
-27.667021
-27.667018
-27.667011
-27.666998
-27.666977
-27.66695
-27.666925
-27.666908
-27.666908
-27.666908
-27.666907
-27.666904
-27.666893
-27.666875
-27.666852
-27.666831
-27.666782
-27.666784
-27.666786
-27.666788
-27.666787
-27.66678
-27.666764
-27.666742
-27.666723
-27.66665
-27.666653
-27.666657
-27.666662
-27.666666
-27.666667
-27.666661
-27.666647
-27.666622
-27.666529
-27.666534
-27.666541
-27.666553
-27.666569
-27.666587
-27.666606
-27.666627
-27.666627
-25.882145
-25.882148
-25.882152
-25.882158
-25.882167
-25.882178
-25.882192
-25.882209
-25.882213
-25.882209
-25.882212
-25.882215
-25.882217
-25.88222
-25.882222
-25.882223
-25.88222
-25.88221
-25.882279
-25.882281
-25.882283
-25.882284
-25.882284
-25.882282
-25.882277
-25.88227
-25.882261
-25.882345
-25.882346
-25.882347
-25.882347
-25.882345
-25.882342
-25.882336
-25.882326
-25.882317
-25.882406
-25.882407
-25.882406
-25.882405
-25.882402
-25.882397
-25.88239
-25.882379
-25.882368
-25.882463
-25.882462
-25.882461
-25.882459
-25.882455
-25.882449
-25.88244
-25.882427
-25.882414
-25.882513
-25.882512
-25.88251
-25.882507
-25.882502
-25.882495
-25.882485
-25.882471
-25.882455
-25.882557
-25.882555
-25.882553
-25.882549
-25.882543
-25.882535
-25.882524
-25.882508
-25.88249
-25.882593
-25.882591
-25.882588
-25.882583
-25.882577
-25.882568
-25.882556
-25.882539
-25.882519
-25.882621
-25.882618
-25.882615
-25.88261
-25.882603
-25.882594
-25.882581
-25.882563
-25.882541
-25.882639
-25.882637
-25.882633
-25.882628
-25.882621
-25.882611
-25.882598
-25.882579
-25.882556
-25.882649
-25.882646
-25.882643
-25.882637
-25.88263
-25.88262
-25.882607
-25.882588
-25.882563
-25.882649
-25.882647
-25.882643
-25.882637
-25.88263
-25.882621
-25.882607
-25.882588
-25.882564
-25.88264
-25.882638
-25.882634
-25.882629
-25.882622
-25.882612
-25.882599
-25.88258
-25.882557
-25.882622
-25.88262
-25.882616
-25.882611
-25.882604
-25.882595
-25.882583
-25.882565
-25.882542
-25.882595
-25.882593
-25.88259
-25.882585
-25.882579
-25.88257
-25.882558
-25.882541
-25.882521
-25.88256
-25.882558
-25.882555
-25.882551
-25.882546
-25.882538
-25.882527
-25.882511
-25.882493
-25.882516
-25.882515
-25.882513
-25.88251
-25.882505
-25.882498
-25.882488
-25.882474
-25.882459
-25.882467
-25.882466
-25.882465
-25.882462
-25.882459
-25.882453
-25.882444
-25.882431
-25.882419
-25.882411
-25.882411
-25.882411
-25.882409
-25.882406
-25.882402
-25.882394
-25.882383
-25.882373
-25.88235
-25.882351
-25.882352
-25.882352
-25.88235
-25.882347
-25.88234
-25.882331
-25.882323
-25.882285
-25.882286
-25.882288
-25.882289
-25.882289
-25.882287
-25.882282
-25.882275
-25.882267
-25.882215
-25.882218
-25.88222
-25.882223
-25.882226
-25.882228
-25.882228
-25.882226
-25.882216
-25.882151
-25.882154
-25.882158
-25.882165
-25.882173
-25.882184
-25.882198
-25.882215
-25.88222
-24.096544
-24.096545
-24.096547
-24.09655
-24.096554
-24.096559
-24.096565
-24.096572
-24.096574
-24.096582
-24.096583
-24.096583
-24.096584
-24.096585
-24.096585
-24.096584
-24.096581
-24.096575
-24.096622
-24.096622
-24.096623
-24.096623
-24.096622
-24.09662
-24.096616
-24.096611
-24.096606
-24.09666
-24.09666
-24.09666
-24.096659
-24.096658
-24.096655
-24.09665
-24.096644
-24.096639
-24.096696
-24.096695
-24.096694
-24.096693
-24.096691
-24.096687
-24.096682
-24.096675
-24.096668
-24.096727
-24.096727
-24.096725
-24.096724
-24.096721
-24.096717
-24.096711
-24.096703
-24.096694
-24.096756
-24.096754
-24.096753
-24.096751
-24.096748
-24.096743
-24.096736
-24.096727
-24.096716
-24.09678
-24.096778
-24.096776
-24.096774
-24.096771
-24.096766
-24.096759
-24.096748
-24.096736
-24.096799
-24.096798
-24.096796
-24.096793
-24.09679
-24.096785
-24.096777
-24.096766
-24.096752
-24.096814
-24.096813
-24.096811
-24.096808
-24.096804
-24.096799
-24.096791
-24.096779
-24.096764
-24.096825
-24.096823
-24.096821
-24.096818
-24.096814
-24.096809
-24.096801
-24.096788
-24.096772
-24.09683
-24.096828
-24.096826
-24.096823
-24.096819
-24.096814
-24.096806
-24.096793
-24.096776
-24.09683
-24.096828
-24.096826
-24.096823
-24.09682
-24.096814
-24.096806
-24.096793
-24.096776
-24.096825
-24.096824
-24.096822
-24.096819
-24.096815
-24.09681
-24.096802
-24.096789
-24.096773
-24.096816
-24.096814
-24.096812
-24.096809
-24.096806
-24.096801
-24.096793
-24.09678
-24.096765
-24.096801
-24.0968
-24.096798
-24.096795
-24.096792
-24.096787
-24.096779
-24.096768
-24.096754
-24.096782
-24.096781
-24.096779
-24.096777
-24.096773
-24.096769
-24.096761
-24.096751
-24.096739
-24.096759
-24.096757
-24.096756
-24.096754
-24.096751
-24.096746
-24.096739
-24.09673
-24.09672
-24.096731
-24.09673
-24.096729
-24.096727
-24.096725
-24.09672
-24.096714
-24.096706
-24.096698
-24.0967
-24.096699
-24.096698
-24.096697
-24.096695
-24.096691
-24.096686
-24.096679
-24.096672
-24.096665
-24.096665
-24.096664
-24.096664
-24.096662
-24.096659
-24.096655
-24.096649
-24.096644
-24.096627
-24.096628
-24.096628
-24.096628
-24.096627
-24.096625
-24.096621
-24.096616
-24.096611
-24.096588
-24.096588
-24.096589
-24.09659
-24.096591
-24.096591
-24.09659
-24.096587
-24.09658
-24.09655
-24.096551
-24.096553
-24.096556
-24.09656
-24.096565
-24.096571
-24.096578
-24.09658
-22.311724
-22.311724
-22.311726
-22.311727
-22.311729
-22.311732
-22.311735
-22.31174
-22.311741
-22.311744
-22.311744
-22.311745
-22.311745
-22.311746
-22.311746
-22.311746
-22.311745
-22.311742
-22.311765
-22.311765
-22.311765
-22.311765
-22.311765
-22.311764
-22.311762
-22.31176
-22.311757
-22.311784
-22.311784
-22.311784
-22.311784
-22.311783
-22.311782
-22.31178
-22.311777
-22.311774
-22.311802
-22.311802
-22.311802
-22.311801
-22.3118
-22.311799
-22.311796
-22.311793
-22.31179
-22.311819
-22.311818
-22.311818
-22.311817
-22.311816
-22.311814
-22.311811
-22.311808
-22.311804
-22.311833
-22.311833
-22.311832
-22.311831
-22.31183
-22.311828
-22.311825
-22.311821
-22.311816
-22.311846
-22.311845
-22.311845
-22.311843
-22.311842
-22.31184
-22.311837
-22.311832
-22.311826
-22.311856
-22.311856
-22.311855
-22.311853
-22.311852
-22.311849
-22.311846
-22.311841
-22.311835
-22.311864
-22.311863
-22.311862
-22.311861
-22.311859
-22.311857
-22.311854
-22.311848
-22.311841
-22.311869
-22.311869
-22.311868
-22.311866
-22.311865
-22.311862
-22.311859
-22.311853
-22.311846
-22.311872
-22.311872
-22.311871
-22.311869
-22.311867
-22.311865
-22.311861
-22.311856
-22.311848
-22.311872
-22.311872
-22.311871
-22.311869
-22.311868
-22.311865
-22.311862
-22.311856
-22.311849
-22.31187
-22.311869
-22.311868
-22.311867
-22.311865
-22.311863
-22.311859
-22.311854
-22.311847
-22.311865
-22.311865
-22.311864
-22.311862
-22.311861
-22.311858
-22.311855
-22.31185
-22.311843
-22.311858
-22.311857
-22.311856
-22.311855
-22.311853
-22.311851
-22.311848
-22.311843
-22.311837
-22.311848
-22.311847
-22.311847
-22.311846
-22.311844
-22.311842
-22.311839
-22.311834
-22.311829
-22.311836
-22.311835
-22.311835
-22.311834
-22.311832
-22.31183
-22.311827
-22.311824
-22.311819
-22.311822
-22.311821
-22.311821
-22.31182
-22.311819
-22.311817
-22.311814
-22.311811
-22.311807
-22.311806
-22.311806
-22.311805
-22.311805
-22.311804
-22.311802
-22.3118
-22.311797
-22.311794
-22.311788
-22.311788
-22.311788
-22.311788
-22.311787
-22.311786
-22.311784
-22.311781
-22.311779
-22.311769
-22.311769
-22.311769
-22.311769
-22.311769
-22.311768
-22.311767
-22.311765
-22.311762
-22.311749
-22.311749
-22.31175
-22.31175
-22.31175
-22.311751
-22.311751
-22.31175
-22.311747
-22.311729
-22.31173
-22.311731
-22.311732
-22.311734
-22.311737
-22.311741
-22.311745
-22.311746
-20.526668
-20.526668
-20.526669
-20.526669
-20.52667
-20.526672
-20.526673
-20.526675
-20.526676
-20.526679
-20.526679
-20.526679
-20.52668
-20.52668
-20.52668
-20.526679
-20.526678
-20.526676
-20.526691
-20.526691
-20.526691
-20.526691
-20.52669
-20.52669
-20.526689
-20.526687
-20.526685
-20.526702
-20.526701
-20.526701
-20.526701
-20.526701
-20.5267
-20.526698
-20.526697
-20.526695
-20.526712
-20.526711
-20.526711
-20.526711
-20.52671
-20.526709
-20.526708
-20.526706
-20.526704
-20.526721
-20.526721
-20.52672
-20.52672
-20.526719
-20.526718
-20.526716
-20.526714
-20.526711
-20.526729
-20.526729
-20.526728
-20.526727
-20.526727
-20.526725
-20.526724
-20.526721
-20.526718
-20.526736
-20.526736
-20.526735
-20.526734
-20.526733
-20.526732
-20.52673
-20.526727
-20.526724
-20.526742
-20.526741
-20.526741
-20.52674
-20.526739
-20.526738
-20.526735
-20.526732
-20.526728