/*--------------------------------*- C++ -*----------------------------------*\
| =========                 |                                                 |
| \\      /  F ield         | OpenFOAM: The Open Source CFD Toolbox           |
|  \\    /   O peration     | Version:  2406                                  |
|   \\  /    A nd           | Website:  www.openfoam.com                      |
|    \\/     M anipulation  |                                                 |
\*---------------------------------------------------------------------------*/
FoamFile
{
    version     2.0;
    format      ascii;
    arch        "LSB;label=32;scalar=64";
    class       surfaceScalarField;
    location    "14.5";
    object      phi;
}
// * * * * * * * * * * * * * * * * * * * * * * * * * * * * * * * * * * * * * //

dimensions      [0 3 -1 0 0 0 0];

oriented        oriented;

internalField   nonuniform List<scalar> 
101088
(
-3.4904892e-05
1.813329e-05
-1.161938e-05
-1.5862051e-05
-5.8260636e-05
7.7387417e-05
-4.7773707e-05
-6.8185253e-05
-5.5395622e-05
0.00018364387
-0.00010835904
-0.00016237739
-1.560419e-05
0.00034270809
-0.00018892492
-0.00030362037
5.3108145e-05
0.00053956799
-0.00026535759
-0.00047903432
0.00011614461
0.00073667256
-0.00030253612
-0.00065397114
0.00012797608
0.00088995047
-0.00028108809
-0.00078639599
6.7009854e-05
0.00096696014
-0.00021687165
-0.00084816659
0.00095805853
-0.00014978804
-0.00083112576
-4.8601371e-05
-4.2195872e-05
2.0057093e-05
-1.4013502e-05
-6.8609728e-05
8.4787651e-05
-5.6853455e-05
-6.0268286e-05
0.00019941371
-0.00012716521
-3.5343787e-06
0.00036934672
-0.00021790643
9.0719636e-05
0.00057897903
-0.00030014799
0.00017910296
0.00079054352
-0.00033462424
0.00020979511
0.00095829454
-0.00030377433
0.00016602374
0.0010434236
-0.00023165797
0.001035103
-0.00016036191
7.2876485e-05
-4.937006e-05
2.1365634e-05
-1.6349236e-05
-7.8397435e-05
8.9508283e-05
-6.5559978e-05
-6.4892311e-05
0.00020882749
-0.00014474979
5.6538295e-06
0.00038403648
-0.00024396568
0.0001190923
0.00059868856
-0.0003292751
0.00022551761
0.00081580456
-0.00035825215
0.00026856229
0.00098825279
-0.00031460279
0.00023978142
0.0010744483
-0.00023818756
0.0010645228
-0.00016433209
0.00016368376
-5.632246e-05
2.1882848e-05
-1.8488688e-05
-8.7912313e-05
9.097214e-05
-7.3350714e-05
-6.9856091e-05
0.00021077556
-0.00015998347
1.2441126e-05
0.00038528624
-0.00026547484
0.00014031579
0.00059789083
-0.00035132638
0.00025734006
0.00081300481
-0.00037279688
0.00030770672
0.00098274505
-0.00032039893
0.00028861319
0.0010651882
-0.00024106089
0.0010523247
-0.00016349198
0.00022256244
-6.2856969e-05
2.1428333e-05
-2.0357987e-05
-9.6907252e-05
8.868621e-05
-8.0008701e-05
-7.5179577e-05
0.00020457431
-0.00017258541
1.649723e-05
0.00037245395
-0.00028245943
0.0001544987
0.00057629454
-0.00036670394
0.00027603655
0.00078251183
-0.0003789181
0.00032962923
0.00094281079
-0.00031984953
0.00031553745
0.0010187682
-0.00023865673
0.0010031266
-0.00015953333
0.00025564152
-6.9195021e-05
2.0224578e-05
-2.1961513e-05
-0.00010647233
8.3307552e-05
-8.5580068e-05
-8.3189022e-05
0.00019129054
-0.00018277367
1.4206748e-05
0.00034684671
-0.00029524499
0.00015805625
0.00053488081
-0.00037638353
0.00027931513
0.00072398331
-0.00037691834
0.00033349464
0.00086980458
-0.00031452506
0.00032195372
0.00093783815
-0.0002326584
0.00092050598
-0.00015362177
0.00026648497
-7.4778922e-05
1.8182012e-05
-2.3262573e-05
-0.0001149319
7.4652814e-05
-8.9971819e-05
-9.0703717e-05
0.0001708703
-0.00019046626
1.0336868e-05
0.00030894166
-0.00030402999
0.00015635268
0.00047530063
-0.00038102211
0.00027563649
0.00064169816
-0.00037395384
0.00032748519
0.0007678842
-0.00030652677
0.00031562176
0.0008270767
-0.00022444807
0.00080961789
-0.00014663298
0.00026217827
-7.9655858e-05
1.5407653e-05
-2.428615e-05
-0.00012260895
6.3127072e-05
-9.3337437e-05
-9.8334075e-05
0.00014419579
-0.00019612857
4.4295734e-06
0.00026027799
-0.00030984531
0.00015009092
0.00039988666
-0.00038230787
0.00026582833
0.00053895503
-0.00036908059
0.00031502968
0.0006433136
-0.00030058045
0.00030090272
0.00069160377
-0.00021554039
0.00067537325
-0.00013949751
0.00024801738
-8.3725704e-05
1.204605e-05
-2.5064334e-05
-0.00012925817
4.9301745e-05
-9.585082e-05
-0.00010553347
0.00011249612
-0.00020024037
-2.3830426e-06
0.00020286997
-0.00031357232
0.00014146578
0.0003114716
-0.00038165345
0.0002532403
0.00041923265
-0.00036354792
0.0002991133
0.00049953868
-0.00029351291
0.00028224845
0.00053618493
-0.00020716261
0.00052257517
-0.00013298518
0.00022912907
-8.6925146e-05
8.2858285e-06
-2.5621294e-05
-0.00013471924
3.3861867e-05
-9.7619182e-05
-0.00011194722
7.7158454e-05
-0.00020303
-9.2338854e-06
0.0001389682
-0.00031582191
0.00013219789
0.00021319632
-0.00038009549
0.00024019907
0.00028656088
-0.00035843618
0.00028278998
0.00034108174
-0.00028712718
0.00026345774
0.00036567395
-0.00020023079
0.00035588453
-0.0001276938
0.00020989991
-8.904793e-05
4.2118218e-06
-2.5973342e-05
-0.00013832996
1.7200943e-05
-9.8695623e-05
-0.00011627437
3.918768e-05
-0.00020462413
-1.4175292e-05
7.0563027e-05
-0.00031684064
0.00012494713
0.00010821819
-0.00037822882
0.00022980204
0.00014531743
-0.00035443168
0.00026973765
0.00017284615
-0.00028234954
0.00024852541
0.0001851626
-0.000195339
0.00018004684
-0.00012403215
0.00019454521
-9.0151306e-05
-5.8244875e-11
-2.6139935e-05
-0.00014027871
-1.3287207e-10
-9.922045e-05
-0.00011869033
-5.3787043e-11
-0.00020543501
-1.693509e-05
-6.2501014e-12
-0.00031743356
0.00012098824
-2.372183e-10
-0.00037738817
0.00022422227
-4.1576294e-10
-0.00035261531
0.00026271432
-6.4066887e-10
-0.00028013675
0.0002404093
-4.7955549e-10
-0.00019309213
7.1641936e-10
-0.00012236823
0.0001860252
-9.0150795e-05
-4.2118488e-06
-2.613993e-05
-0.00014027768
-1.7200981e-05
-9.9220432e-05
-0.00011868986
-3.9187562e-05
-0.00020543498
-1.6935106e-05
-7.0562982e-05
-0.00031743352
0.00012098846
-0.00010821875
-0.00037738813
0.00022422233
-0.00014531842
-0.00035261528
0.0002627144
-0.00017284771
-0.00028013674
0.00024040978
-0.00018516395
-0.00019309214
-0.00018004612
-0.00012236826
0.00018602537
-8.9046855e-05
-8.2856454e-06
-2.597334e-05
-0.00013832803
-3.3861382e-05
-9.8695619e-05
-0.00011627402
-7.7157946e-05
-0.00020462413
-1.4175675e-05
-0.00013896824
-0.00031684065
0.00012494774
-0.00021319714
-0.00037822882
0.0002298022
-0.00028656226
-0.00035443171
0.00026973785
-0.0003410839
-0.00028234957
0.00024852667
-0.00036567619
-0.00019533905
-0.00035588545
-0.00012403221
0.00019454552
-8.6924603e-05
-1.2045834e-05
-2.5621291e-05
-0.00013471878
-4.9301246e-05
-9.7619172e-05
-0.00011194839
-0.00011249599
-0.00020302999
-9.2347431e-06
-0.0002028705
-0.00031582188
0.00013219879
-0.00031147262
-0.00038009545
0.00024019915
-0.00041923443
-0.00035843618
0.00028279018
-0.00049954149
-0.00028712719
0.00026345928
-0.000536188
-0.00020023082
-0.0005225777
-0.00012769387
0.00020990001
-8.3726269e-05
-1.5407816e-05
-2.5064335e-05
-0.00012925952
-6.312756e-05
-9.5850821e-05
-0.00010553508
-0.0001441966
-0.00020024037
-2.3836614e-06
-0.00026027847
-0.0003135723
0.00014146675
-0.00039988743
-0.00038165345
0.00025324026
-0.00053895737
-0.00036354794
0.00029911352
-0.00064331707
-0.00029351291
0.00028224988
-0.00069160735
-0.00020716263
-0.00067537671
-0.00013298523
0.00022912894
-7.96562e-05
-1.8182112e-05
-2.4286153e-05
-0.00012260918
-7.4653139e-05
-9.3337446e-05
-9.8334029e-05
-0.00017087038
-0.0001961286
4.4287664e-06
-0.00030894127
-0.00030984536
0.00015009108
-0.00047530161
-0.00038230794
0.00026582814
-0.00064170137
-0.0003690806
0.00031502989
-0.00076788808
-0.00030058042
0.00030090378
-0.00082708041
-0.00021554038
-0.00080962143
-0.00013949754
0.0002480172
-7.4778708e-05
-2.0224643e-05
-2.3262578e-05
-0.00011493147
-8.3307921e-05
-8.9971843e-05
-9.0703917e-05
-0.00019129123
-0.00019046632
1.033452e-05
-0.0003468478
-0.00030403008
0.00015635198
-0.00053488248
-0.00038102217
0.00027563665
-0.000723986
-0.00037395382
0.00032748541
-0.00086980744
-0.00030652672
0.0003156225
-0.00093784122
-0.00022444804
-0.00092050882
-0.000146633
0.00026217809
-6.9195144e-05
-2.1428508e-05
-2.1961519e-05
-0.00010647263
-8.8686818e-05
-8.5580094e-05
-8.3189467e-05
-0.00020457545
-0.00018277372
1.4205036e-05
-0.00037245466
-0.00029524503
0.00015805577
-0.00057629373
-0.00037638361
0.00027931576
-0.0007825116
-0.00037691839
0.0003334944
-0.00094281142
-0.00031452509
0.00032195377
-0.0010187697
-0.00023265839
-0.0010031288
-0.00015362176
0.00026648421
-6.285674e-05
-2.1882774e-05
-2.0357983e-05
-9.6905806e-05
-9.0971915e-05
-8.0008689e-05
-7.5176847e-05
-0.00021077529
-0.00017258539
1.649824e-05
-0.00038528596
-0.00028245944
0.00015449749
-0.00059789085
-0.00036670402
0.00027603633
-0.00081300562
-0.00037891813
0.00032962773
-0.00098274647
-0.00031984955
0.00031553649
-0.0010651892
-0.00023865669
-0.0010523269
-0.0001595333
0.00025564001
-5.6321716e-05
-2.1365546e-05
-1.8488679e-05
-8.7910105e-05
-8.9508086e-05
-7.3350685e-05
-6.9853496e-05
-0.00020882746
-0.00015998342
1.2441767e-05
-0.00038403691
-0.00026547478
0.00014031446
-0.00059868908
-0.0003513263
0.0002573394
-0.00081580512
-0.00037279686
0.0003077047
-0.00098825596
-0.00032039891
0.00028861208
-0.0010744496
-0.00024106083
-0.0010645225
-0.00016349193
0.00022256115
-4.9369754e-05
-2.0057132e-05
-1.6349228e-05
-7.839635e-05
-8.4787844e-05
-6.5559953e-05
-6.4890618e-05
-0.00019941431
-0.00014474975
5.6551965e-06
-0.00036934804
-0.00024396563
0.00011909208
-0.00057898105
-0.00032927505
0.00022551502
-0.00079054585
-0.00035825214
0.00026856153
-0.00095829587
-0.00031460275
0.00023978219
-0.0010434236
-0.00023818748
-0.0010351027
-0.00016433201
0.00016368201
-4.2195851e-05
-1.813325e-05
-1.4013496e-05
-6.8609159e-05
-7.7387282e-05
-5.6853436e-05
-6.0266926e-05
-0.00018364357
-0.00012716518
-3.5328095e-06
-0.00034270761
-0.00021790638
9.0720708e-05
-0.00053956764
-0.00030014793
0.00017910158
-0.00073667288
-0.00033462419
0.000209794
-0.00088995011
-0.0003037743
0.00016602475
-0.00096695789
-0.00023165788
-0.00095806075
-0.00016036183
7.2873195e-05
-3.4904751e-05
-1.1619378e-05
-1.5862079e-05
-5.8260006e-05
-4.7773701e-05
-6.8185372e-05
-5.5394771e-05
-0.00010835904
-0.00016237768
-1.5603942e-05
-0.00018892491
-0.00030362103
5.3108297e-05
-0.0002653576
-0.00047903564
0.00011614498
-0.00030253618
-0.00065397386
0.00012797653
-0.00028108811
-0.00078639988
6.7010982e-05
-0.00021687164
-0.00084816827
-0.000149788
-0.00083112459
-4.8601771e-05
1.3894602e-07
3.0198119e-06
-1.2390859e-05
-2.3872882e-06
1.9881438e-06
1.3272178e-05
-5.2296917e-05
-1.059819e-05
7.4378001e-06
3.1952983e-05
-0.00012006808
-2.5693652e-05
1.7469435e-05
5.8979616e-05
-0.00021016163
-4.7774644e-05
3.2250342e-05
8.7772209e-05
-0.00029623494
-7.1676184e-05
4.9678408e-05
0.00010554137
-0.00033892988
-8.6576238e-05
6.5650379e-05
0.00010308577
-0.00031685361
-8.3291726e-05
7.6705631e-05
8.712453e-05
-0.00024893109
-6.6120168e-05
7.0108635e-05
-0.00017335998
-4.8700876e-05
7.8869612e-05
1.852155e-07
3.567285e-06
-1.4746204e-05
2.6829018e-06
1.5566757e-05
-6.1645764e-05
1.0234347e-05
3.710342e-05
-0.00013986721
2.4628452e-05
6.754713e-05
-0.00024086822
4.5655028e-05
9.8964487e-05
-0.00033236709
6.9440224e-05
0.00011749678
-0.00037036485
9.0244644e-05
0.00011490424
-0.00033639834
0.00010243107
0.00010222648
-0.0002589483
8.647114e-05
-0.00017509607
0.00010080192
2.7471215e-07
3.9491512e-06
-1.7005878e-05
3.6535108e-06
1.7148825e-05
-7.0520926e-05
1.3717419e-05
4.0604807e-05
-0.00015831519
3.2642043e-05
7.3162027e-05
-0.00026850547
5.9545071e-05
0.00010571108
-0.00036292493
8.8333824e-05
0.00012400143
-0.00039354471
0.00011307579
0.00012227645
-0.00034671736
0.00012174176
0.00011330593
-0.00025793289
9.9352414e-05
-0.00016962675
0.00011415508
3.6774213e-07
4.1348904e-06
-1.904229e-05
4.6542253e-06
1.7897952e-05
-7.8386406e-05
1.7340875e-05
4.2189546e-05
-0.00017425453
4.0908352e-05
7.5476363e-05
-0.00029135576
7.3458537e-05
0.00010802144
-0.00038618611
0.00010699036
0.00012554799
-0.00040787576
0.00013341228
0.00012483277
-0.00034937704
0.00013594192
0.00011878463
-0.00024906981
0.00010764043
-0.00015916256
0.00012332379
4.4996291e-07
4.1011399e-06
-2.0774241e-05
5.5709316e-06
1.77476e-05
-8.4979645e-05
2.0681166e-05
4.1768871e-05
-0.00018727565
4.8358377e-05
7.4427156e-05
-0.00030908775
8.5623135e-05
0.0001060206
-0.00040196698
0.00012373425
0.00012281174
-0.00041429256
0.00015060736
0.00012510409
-0.00034699368
0.00014690709
0.00012015806
-0.00023633029
0.00011087341
-0.00014587297
0.0001300132
4.6009084e-07
3.8995267e-06
-2.2219837e-05
6.1508313e-06
1.6854053e-05
-9.0376946e-05
2.3147646e-05
3.9584609e-05
-0.00019758601
5.4168858e-05
7.0352331e-05
-0.00032219143
9.5309936e-05
0.00010018553
-0.00041169019
0.00013835977
0.00011715885
-0.00041431605
0.00016357147
0.00012205925
-0.00033669178
0.00015478284
0.00011695621
-0.00022066779
0.00010873923
-0.00013117137
0.00013446634
4.8587651e-07
3.5152575e-06
-2.3364188e-05
6.716875e-06
1.519192e-05
-9.4540727e-05
2.5381992e-05
3.5646018e-05
-0.00020519281
5.9285423e-05
6.3348217e-05
-0.0003309288
0.00010417195
9.0261575e-05
-0.0004159843
0.00015055636
0.00010627694
-0.00040945676
0.00017238157
0.00011309711
-0.00031938987
0.00015989656
0.00010843433
-0.00020344099
0.00010120038
-0.00011610983
0.00013691205
4.8825275e-07
2.974697e-06
-2.4233683e-05
7.104254e-06
1.2870758e-05
-9.7632243e-05
2.6972116e-05
3.0232328e-05
-0.00021058326
6.3123636e-05
5.3737905e-05
-0.00033638707
0.00011112867
7.659925e-05
-0.00041665031
0.00016003865
9.0525553e-05
-0.00040223916
0.00017767242
9.7620769e-05
-0.00030273814
0.00016250957
9.4406202e-05
-0.0001863495
8.8465373e-05
-0.00010177521
0.00013752208
4.5922177e-07
2.3200769e-06
-2.4868771e-05
7.2679074e-06
1.0053667e-05
-9.9842109e-05
2.785669e-05
2.3656666e-05
-0.00021425347
6.5550141e-05
4.2094307e-05
-0.00033962293
0.00011575932
6.0004236e-05
-0.00041526789
0.00016661098
7.1102567e-05
-0.00039497649
0.00018064997
7.7554555e-05
-0.00028748604
0.00016316529
7.5579012e-05
-0.00017085108
7.1076914e-05
-8.910243e-05
0.00013667085
4.1181921e-07
1.5925145e-06
-2.5305738e-05
7.2711071e-06
6.9072778e-06
-0.00010133218
2.8237471e-05
1.626294e-05
-0.00021660238
6.673693e-05
2.895554e-05
-0.00034118294
0.00011829137
4.1377231e-05
-0.00041302329
0.00017082119
4.971475e-05
-0.0003895781
0.00018190161
5.4064653e-05
-0.0002747179
0.00016250912
5.2865634e-05
-0.00015812532
4.9837256e-05
-7.8868245e-05
0.00013492316
3.9034386e-07
8.1392206e-07
-2.5585303e-05
7.3069358e-06
3.5271476e-06
-0.00010223229
2.8520551e-05
8.3033108e-06
-0.00021787789
6.7465008e-05
1.4791027e-05
-0.00034162062
0.00012007175
2.1166174e-05
-0.00041062464
0.00017287527
2.559542e-05
-0.00038311582
0.00018210519
2.785128e-05
-0.00026536603
0.00016136831
2.7290094e-05
-0.00014902693
2.5754866e-05
-7.1663601e-05
0.00013308217
3.77732e-07
-4.7213144e-12
-2.5703742e-05
7.3143238e-06
-1.9398309e-12
-0.00010262985
2.8638279e-05
4.1723032e-11
-0.00021845554
6.7760664e-05
6.658586e-12
-0.00034176494
0.00012092952
-2.935798e-10
-0.00040939047
0.00017373116
-6.518805e-10
-0.0003798209
0.00018203632
-9.575672e-10
-0.00026058945
0.00016058963
-7.7500114e-10
-0.00014435481
6.3652199e-11
-6.7958099e-05
0.00013193431
3.7783769e-07
-8.139148e-07
-2.5703738e-05
7.3145318e-06
-3.5271056e-06
-0.00010262984
2.8638324e-05
-8.3031894e-06
-0.00021845551
6.7760588e-05
-1.4791032e-05
-0.0003417649
0.0001209296
-2.1166787e-05
-0.00040939043
0.00017373118
-2.5596764e-05
-0.00037982089
0.00018203636
-2.7853225e-05
-0.00026058945
0.00016058977
-2.7291651e-05
-0.00014435483
-2.5754795e-05
-6.7958116e-05
0.00013193441
3.9060699e-07
-1.5924567e-06
-2.5585302e-05
7.307411e-06
-6.9071037e-06
-0.00010223229
2.8520579e-05
-1.6262714e-05
-0.00021787789
6.7464816e-05
-2.8955585e-05
-0.00034162062
0.00012007198
-4.137789e-05
-0.00041062466
0.00017287533
-4.9716184e-05
-0.00038311587
0.00018210532
-5.406666e-05
-0.0002653661
0.00016136871
-5.2867187e-05
-0.00014902699
-4.9837288e-05
-7.1663648e-05
0.00013308239
4.1201567e-07
-2.3199881e-06
-2.5305733e-05
7.2713594e-06
-1.0053425e-05
-0.00010133217
2.8237263e-05
-2.3656447e-05
-0.00021660235
6.6736781e-05
-4.2094413e-05
-0.00034118289
0.00011829174
-6.0004849e-05
-0.00041302327
0.00017082127
-7.1104053e-05
-0.00038957813
0.00018190184
-7.7556583e-05
-0.00027471798
0.00016250967
-7.5580523e-05
-0.0001581254
-7.1077003e-05
-7.8868307e-05
0.00013492339
4.5912285e-07
-2.9746734e-06
-2.486877e-05
7.2676274e-06
-1.2870685e-05
-9.9842105e-05
2.7856376e-05
-3.0232273e-05
-0.00021425347
6.5550275e-05
-5.3737946e-05
-0.00033962293
0.00011575973
-7.6599718e-05
-0.00041526793
0.00016661114
-9.0527121e-05
-0.00039497657
0.00018065034
-9.7622843e-05
-0.00028748615
0.0001631659
-9.4407715e-05
-0.00017085118
-8.8465498e-05
-8.91025e-05
0.00013667115
4.8809746e-07
-3.5152462e-06
-2.4233685e-05
7.1040488e-06
-1.5191873e-05
-9.7632253e-05
2.6972236e-05
-3.5645854e-05
-0.00021058329
6.3123958e-05
-6.3348044e-05
-0.00033638713
0.00011112886
-9.0262126e-05
-0.00041665042
0.0001600389
-0.00010627876
-0.00040223927
0.00017767288
-0.00011309937
-0.00030273826
0.00016251013
-0.00010843601
-0.00018634959
-0.00010120054
-0.00010177529
0.00013752264
4.8586011e-07
-3.8994938e-06
-2.3364193e-05
6.716883e-06
-1.6854013e-05
-9.4540748e-05
2.5382127e-05
-3.9584578e-05
-0.00020519287
5.9285364e-05
-7.0352546e-05
-0.0003309289
0.00010417186
-0.0001001865
-0.00041598443
0.00015055675
-0.00011716082
-0.00040945687
0.00017238204
-0.00012206165
-0.00031939
0.00015989704
-0.00011695805
-0.00020344109
-0.00010873916
-0.0001161099
0.00013691282
4.6001311e-07
-4.1011729e-06
-2.2219844e-05
6.150619e-06
-1.7747738e-05
-9.0376978e-05
2.3147504e-05
-4.1769111e-05
-0.00019758609
5.4168814e-05
-7.4427452e-05
-0.00032219155
9.5309996e-05
-0.00010602118
-0.00041169036
0.00013836021
-0.00012281332
-0.00041431622
0.00016357181
-0.00012510637
-0.00033669195
0.00015478322
-0.00012015979
-0.0002206679
-0.00011087292
-0.00013117142
0.00013446692
4.4993432e-07
-4.1348422e-06
-2.0774241e-05
5.5709925e-06
-1.7897831e-05
-8.4979648e-05
2.0681542e-05
-4.2189392e-05
-0.00018727567
4.8358797e-05
-7.5476362e-05
-0.00030908779
8.5622913e-05
-0.00010802224
-0.00040196707
0.00012373423
-0.00012554987
-0.00041429266
0.0001506073
-0.00012483492
-0.00034699381
0.00014690717
-0.00011878602
-0.00023633036
-0.00010764005
-0.00014587299
0.00013001339
3.6791139e-07
-3.9491504e-06
-1.9042285e-05
4.6546066e-06
-1.7148867e-05
-7.8386387e-05
1.7341159e-05
-4.0605047e-05
-0.0001742545
4.0908218e-05
-7.3162722e-05
-0.00029135574
7.345798e-05
-0.00010571244
-0.00038618611
0.00010699005
-0.00012400323
-0.00040787581
0.00013341182
-0.00012227871
-0.00034937712
0.00013594163
-0.00011330723
-0.00024906984
-9.9352297e-05
-0.00015916254
0.00012332394
2.7477542e-07
-3.567281e-06
-1.7005872e-05
3.6536633e-06
-1.5566785e-05
-7.0520904e-05
1.3717509e-05
-3.7103586e-05
-0.00015831515
3.2642063e-05
-6.7547662e-05
-0.00026850543
5.9545046e-05
-9.896576e-05
-0.00036292492
8.8333036e-05
-0.0001174991
-0.00039354475
0.00011307552
-0.00011490677
-0.00034671739
0.0001217419
-0.00010222815
-0.00025793287
-8.6471338e-05
-0.00016962669
0.00011415533
1.8521069e-07
-3.0198221e-06
-1.47462e-05
2.682939e-06
-1.3272233e-05
-6.1645751e-05
1.0234366e-05
-3.1953144e-05
-0.00013986718
2.4628372e-05
-5.8980041e-05
-0.00024086819
4.5654971e-05
-8.7773201e-05
-0.00033236708
6.9439663e-05
-0.00010554324
-0.00037036486
9.0244234e-05
-0.00010308731
-0.00033639833
0.00010243078
-8.7124548e-05
-0.00025894826
-7.0108298e-05
-0.00017509599
0.00010080184
1.389611e-07
-1.2390856e-05
-2.387307e-06
1.9882067e-06
-5.2296909e-05
-1.0598277e-05
7.4378275e-06
-0.00012006807
-2.5693906e-05
1.7469292e-05
-0.00021016162
-4.7775307e-05
3.2250196e-05
-0.00029623496
-7.1677568e-05
4.9678375e-05
-0.00033892993
-8.6578548e-05
6.565043e-05
-0.00031685363
-8.329424e-05
7.6704535e-05
-0.00024893107
-6.6121893e-05
-0.00017335994
-4.8701264e-05
7.8868747e-05
1.6029259e-07
1.0463087e-06
-1.24708e-05
-1.1266594e-06
6.2310499e-07
4.1845309e-06
-5.2323592e-05
-4.6206129e-06
2.1640379e-06
8.9483094e-06
-0.00012028763
-1.0269536e-05
7.1525379e-06
1.3446418e-05
-0.00021181907
-1.6777296e-05
1.8671985e-05
1.2147908e-05
-0.00030039799
-1.9504409e-05
3.8170115e-05
-3.0366011e-06
-0.00034449185
-1.0900108e-05
6.3242946e-05
-3.5032009e-05
-0.00032030764
1.3412879e-05
8.7527286e-05
-7.2992539e-05
-0.00024678132
4.655844e-05
-9.7871051e-05
-0.00016576147
7.4500449e-05
0.0001032992
2.4995831e-07
9.7309949e-07
-1.4922932e-05
1.1028735e-06
3.7176086e-06
-6.2031685e-05
3.8773632e-06
7.420789e-06
-0.000141114
1.1907963e-05
9.5858519e-06
-0.00024503809
2.8710939e-05
4.1298716e-06
-0.0003411521
5.4538104e-05
-1.6917599e-05
-0.00038231128
8.3970291e-05
-5.4721226e-05
-0.00034614177
0.000106869
-9.5358325e-05
-0.00025948164
-0.00011709781
-0.00017007093
0.0001210706
3.7445059e-07
8.8900362e-07
-1.7296171e-05
1.6979947e-06
3.2214782e-06
-7.1348216e-05
5.7441855e-06
5.8799207e-06
-0.00016082057
1.6629005e-05
5.8724002e-06
-0.00027567763
3.8046776e-05
-3.1865728e-06
-0.00037702747
6.9054114e-05
-2.8656846e-05
-0.00041281285
0.00010069105
-6.9705605e-05
-0.0003633694
0.0001216486
-0.00011054064
-0.00026370832
-0.00012829652
-0.00016747904
0.00013069945
5.1448595e-07
7.861012e-07
-1.9453782e-05
2.3652132e-06
2.6909209e-06
-7.9706367e-05
7.7730774e-06
4.3925272e-06
-0.00017817495
2.1519542e-05
2.6196339e-06
-0.00030185007
4.7275856e-05
-9.0797691e-06
-0.00040605001
8.2706442e-05
-3.7128631e-05
-0.00043483466
0.00011456003
-7.8757785e-05
-0.00037217889
0.00013388705
-0.00011717229
-0.00026176551
-0.00013148457
-0.0001598421
0.00013775476
6.4023066e-07
6.7684204e-07
-2.1305115e-05
2.9676649e-06
2.1848219e-06
-8.680082e-05
9.6326487e-06
3.1035988e-06
-0.00019265188
2.60526e-05
9.6872878e-08
-0.00032298565
5.6048559e-05
-1.3064808e-05
-0.00042797808
9.5486279e-05
-4.2038602e-05
-0.00044882065
0.00012652091
-8.3042102e-05
-0.00037374457
0.00014427732
-0.00011685926
-0.00025439989
-0.00012784595
-0.00014903972
0.00014380558
7.4781789e-07
5.7111085e-07
-2.2861864e-05
3.491409e-06
1.7397533e-06
-9.2675484e-05
1.1273249e-05
2.0980933e-06
-0.000204363
3.0177531e-05
-1.6465477e-06
-0.00033935353
6.3987879e-05
-1.5190264e-05
-0.0004433749
0.00010670722
-4.3264009e-05
-0.00045580997
0.00013806204
-8.1765815e-05
-0.00036932238
0.0001540551
-0.00011028405
-0.00024323597
-0.00011843393
-0.00013634899
0.00014982058
8.4236136e-07
4.6678347e-07
-2.4102131e-05
3.9565255e-06
1.3477936e-06
-9.7262809e-05
1.2738705e-05
1.350476e-06
-0.00021322768
3.3792317e-05
-2.607992e-06
-0.00035102166
7.0831932e-05
-1.5412473e-05
-0.00045280137
0.00011572882
-4.0827363e-05
-0.00045679072
0.0001487121
-7.4931089e-05
-0.00035920738
0.00016295564
-9.839178e-05
-0.00022957671
-0.0001044361
-0.00012279842
0.00015564613
9.1610957e-07
3.6795606e-07
-2.5050934e-05
4.3304044e-06
1.0138744e-06
-0.00010071258
1.3988068e-05
8.0697733e-07
-0.00021969762
3.6852677e-05
-2.8857502e-06
-0.00035897412
7.6619378e-05
-1.40264e-05
-0.00045780271
0.00012277271
-3.5279433e-05
-0.00045394105
0.00015799918
-6.3301647e-05
-0.00034959402
0.00017079969
-8.2370017e-05
-0.00021517175
-8.6972075e-05
-0.00010953577
0.00016109595
9.776644e-07
2.6972633e-07
-2.5748307e-05
4.6451772e-06
7.1274484e-07
-0.00010320873
1.502574e-05
4.1665377e-07
-0.00022424408
3.9342179e-05
-2.680913e-06
-0.00036414434
8.1470482e-05
-1.149795e-05
-0.00045992451
0.00012819202
-2.7749792e-05
-0.00044922815
0.00016523771
-4.9210847e-05
-0.00033862285
0.00017727302
-6.364371e-05
-0.00020161278
-6.706375e-05
-9.759114e-05
0.00016585315
1.0212998e-06
1.7413513e-07
-2.6231494e-05
4.8763227e-06
4.3980333e-07
-0.00010491441
1.5787756e-05
1.6231933e-07
-0.00022725976
4.128189e-05
-2.0781e-06
-0.00036728003
8.5387741e-05
-8.2786101e-06
-0.00046034873
0.00013199847
-1.9742719e-05
-0.00044419622
0.00017054307
-3.3742955e-05
-0.00032873094
0.00018224252
-4.3254469e-05
-0.00019021422
-4.5535098e-05
-8.7831204e-05
0.0001696766
1.0478776e-06
8.344599e-08
-2.6542482e-05
5.0177312e-06
2.0164048e-07
-0.00010596401
1.6266823e-05
3.0661335e-08
-0.00022899551
4.251575e-05
-1.1559656e-06
-0.00036879191
8.7700391e-05
-4.3579822e-06
-0.00045973052
0.00013483537
-1.0220368e-05
-0.00043977345
0.00017406469
-1.7173014e-05
-0.00032116596
0.00018559
-2.1874329e-05
-0.0001819327
-2.3010829e-05
-8.0916849e-05
0.00017231882
1.0548526e-06
3.0898394e-11
-2.6675187e-05
5.0571112e-06
9.3821565e-11
-0.00010643065
1.6426676e-05
1.4518885e-10
-0.00022979482
4.3010988e-05
6.1330884e-11
-0.00036950562
8.8671643e-05
-3.3286868e-10
-0.00045940957
0.00013617069
-8.6792685e-10
-0.00043753981
0.00017573531
-1.23112e-09
-0.00031732651
0.0001872275
-8.5914123e-10
-0.00017772081
1.0363056e-10
-7.7398545e-05
0.000173657
1.0548133e-06
-8.3393184e-08
-2.6675183e-05
5.056997e-06
-2.0147626e-07
-0.00010643064
1.6426552e-05
-3.0415173e-08
-0.00022979479
4.30109e-05
1.1560202e-06
-0.00036950558
8.8671631e-05
4.3572806e-06
-0.00045940953
0.00013617066
1.0218599e-05
-0.00043753978
0.00017573537
1.7170593e-05
-0.0003173265
0.00018722758
2.1872685e-05
-0.00017772082
2.3011135e-05
-7.7398561e-05
0.00017365712
1.0478129e-06
-1.7410428e-07
-2.6542482e-05
5.0175601e-06
-4.3970058e-07
-0.00010596401
1.6266683e-05
-1.621668e-07
-0.00022899551
4.2515656e-05
2.0780574e-06
-0.00036879191
8.7700413e-05
8.2778781e-06
-0.00045973053
0.00013483538
1.9740905e-05
-0.00043977348
0.00017406493
3.374065e-05
-0.00032116601
0.00018559024
4.3253009e-05
-0.00018193275
4.5535663e-05
-8.09169e-05
0.00017231913
1.0212915e-06
-2.6970003e-07
-2.6231488e-05
4.876341e-06
-7.1265988e-07
-0.00010491439
1.57879e-05
-4.1649959e-07
-0.00022725971
4.1282008e-05
2.6808962e-06
-0.00036727997
8.5387802e-05
1.1497264e-05
-0.00046034868
0.00013199861
2.7747969e-05
-0.00044419621
0.00017054346
4.9208677e-05
-0.00032873099
0.0001822429
6.3642409e-05
-0.0001902143
6.7064555e-05
-8.7831283e-05
0.00016967706
9.7770557e-07
-3.6789275e-07
-2.5748304e-05
4.6453261e-06
-1.0136899e-06
-0.00010320872
1.5026085e-05
-8.0668366e-07
-0.00022424405
3.9342537e-05
2.885819e-06
-0.00036414432
8.1470583e-05
1.4025747e-05
-0.00045992452
0.00012819239
3.5277662e-05
-0.0004492282
0.00016523821
6.3299566e-05
-0.00033862296
0.00017727347
8.2368746e-05
-0.0002016129
8.697298e-05
-9.7591242e-05
0.00016585376
9.1608648e-07
-4.6672141e-07
-2.5050934e-05
4.3303748e-06
-1.3476085e-06
-0.00010071259
1.3988293e-05
-1.3502372e-06
-0.00021969763
3.6853189e-05
2.6079264e-06
-0.00035897415
7.6619514e-05
1.5411703e-05
-0.00045780279
0.00012277328
4.0825593e-05
-0.00045394117
0.00015799968
7.4928862e-05
-0.00034959418
0.00017080012
9.8390335e-05
-0.0002151719
0.000104437
-0.00010953589
0.00016109674
8.4230785e-07
-5.7107176e-07
-2.4102134e-05
3.9564264e-06
-1.7396384e-06
-9.7262821e-05
1.2738902e-05
-2.097945e-06
-0.00021322771
3.3793019e-05
1.6464174e-06
-0.00035102172
7.0832137e-05
1.5189305e-05
-0.00045280149
0.00011572941
4.3261916e-05
-0.0004567909
0.00014871248
8.1762998e-05
-0.00035920759
0.00016295604
0.00011028228
-0.00022957688
0.00011843496
-0.00012279854
0.00015564712
7.477381e-07
-6.7678082e-07
-2.2861871e-05
3.4912186e-06
-2.1846567e-06
-9.2675513e-05
1.1273312e-05
-3.1033228e-06
-0.00020436308
3.0178233e-05
-9.6919733e-08
-0.00033935366
6.3988125e-05
1.3063438e-05
-0.0004433751
0.0001067076
4.2035738e-05
-0.00045581021
0.00013806234
8.3038513e-05
-0.00036932262
0.00015405558
0.00011685723
-0.00024323615
0.00012784721
-0.0001363491
0.00014982168
6.4013906e-07
-7.8606894e-07
-2.1305116e-05
2.9673458e-06
-2.6908496e-06
-8.6800826e-05
9.6323237e-06
-4.3924749e-06
-0.00019265189
2.605276e-05
-2.6200668e-06
-0.0003229857
5.6048645e-05
9.0779564e-06
-0.00042797816
9.5486396e-05
3.7125585e-05
-0.00044882078
0.00012652125
7.8754472e-05
-0.00037374473
0.00014427784
0.00011717047
-0.00025440001
0.00013148576
-0.0001490398
0.00014380637
5.1437904e-07
-8.8899917e-07
-1.9453779e-05
2.3647792e-06
-3.2215016e-06
-7.9706356e-05
7.7724003e-06
-5.8800779e-06
-0.00017817493
2.1519251e-05
-5.8730548e-06
-0.00030185005
4.7276042e-05
3.1848166e-06
-0.00040605003
8.2706466e-05
2.8654114e-05
-0.00043483473
0.00011456015
6.9702999e-05
-0.00037217899
0.00013388714
0.00011053915
-0.00026176559
0.00012829693
-0.00015984213
0.00013775499
3.7436722e-07
-9.7309894e-07
-1.7296166e-05
1.6976253e-06
-3.717638e-06
-7.1348196e-05
5.743569e-06
-7.4209181e-06
-0.00016082053
1.6628712e-05
-9.5863147e-06
-0.00027567758
3.8047059e-05
-4.1311662e-06
-0.00037702744
6.9054171e-05
1.6915077e-05
-0.00041281286
0.00010069087
5.47183e-05
-0.00036336944
0.00012164793
9.5356395e-05
-0.00026370834
0.00011709826
-0.00016747902
0.00013069959
2.4993967e-07
-1.0463054e-06
-1.492293e-05
1.1027376e-06
-4.1845513e-06
-6.2031677e-05
3.87706e-06
-8.9484372e-06
-0.00014111399
1.1907608e-05
-1.3446894e-05
-0.00024503808
2.8710631e-05
-1.2149172e-05
-0.00034115212
5.4537752e-05
3.034256e-06
-0.00038231134
8.3969737e-05
3.5029528e-05
-0.00034614182
0.00010686757
7.2990953e-05
-0.00025948165
9.7872046e-05
-0.00017007089
0.00012107119
1.6029567e-07
-1.24708e-05
-1.1266719e-06
6.2305035e-07
-5.232359e-05
-4.6206856e-06
2.1638766e-06
-0.00012028763
-1.0269763e-05
7.1522765e-06
-0.00021181907
-1.6777888e-05
1.8671607e-05
-0.00030039802
-1.9505639e-05
3.8169752e-05
-0.0003444919
-1.0901855e-05
6.3242015e-05
-0.00032030767
1.3411478e-05
8.752447e-05
-0.00024678132
4.6557503e-05
-0.00016576144
7.4500033e-05
0.00010329781
-1.1618059e-08
5.8718269e-07
-1.2536681e-05
-5.0968333e-07
8.9601874e-08
2.3298777e-06
-5.2702847e-05
-2.0518541e-06
4.106839e-07
4.7381013e-06
-0.00012104535
-4.3015041e-06
1.0988978e-06
5.9821887e-06
-0.0002125292
-5.9603249e-06
3.1925883e-06
1.3996843e-06
-0.00030041296
-3.4784119e-06
9.4694675e-06
-1.5527381e-05
-0.00034353055
8.2892247e-06
2.2938243e-05
-4.7250816e-05
-0.00031886144
3.2335618e-05
4.3533251e-05
-8.4688176e-05
-0.00024573989
6.3051624e-05
-0.00011141532
-0.00016549996
8.8657916e-05
6.6029294e-05
6.2043846e-09
6.6175771e-07
-1.5003711e-05
2.7806734e-07
2.5432943e-06
-6.2516945e-05
1.1172083e-06
4.9058101e-06