/*--------------------------------*- C++ -*----------------------------------*\
  =========                 |
  \\      /  F ield         | OpenFOAM: The Open Source CFD Toolbox
   \\    /   O peration     | Website:  https://openfoam.org
    \\  /    A nd           | Version:  10
     \\/     M anipulation  |
\*---------------------------------------------------------------------------*/
FoamFile
{
    format      ascii;
    class       volScalarField;
    location    "33";
    object      ddt0(T);
}
// * * * * * * * * * * * * * * * * * * * * * * * * * * * * * * * * * * * * * //

dimensions      [0 0 -1 1 0 0 0];

internalField   nonuniform List<scalar> 
10000
(
705.747
80.3627
160.469
159.471
158.782
158.86
158.892
158.896
158.898
158.899
158.9
158.901
158.902
158.903
158.904
158.905
158.906
158.907
158.908
158.909
158.91
158.911
158.912
158.913
158.914
158.915
158.915
158.916
158.917
158.918
158.919
158.92
158.92
158.921
158.922
158.923
158.924
158.924
158.925
158.926
158.927
158.927
158.928
158.929
158.929
158.93
158.931
158.931
158.932
158.932
158.933
158.934
158.934
158.935
158.935
158.936
158.936
158.937
158.937
158.938
158.938
158.938
158.939
158.939
158.94
158.94
158.94
158.941
158.941
158.941
158.942
158.942
158.942
158.943
158.943
158.943
158.943
158.944
158.944
158.944
158.944
158.944
158.945
158.945
158.945
158.945
158.945
158.945
158.945
158.946
158.946
158.946
158.946
158.946
158.945
158.951
159.056
159.423
151.348
130.823
114.355
-142.026
-49.9228
-59.2823
-60.8038
-60.6238
-60.5695
-60.5672
-60.5661
-60.5634
-60.5603
-60.5573
-60.5543
-60.5514
-60.5484
-60.5455
-60.5425
-60.5397
-60.5368
-60.5339
-60.5311
-60.5283
-60.5255
-60.5228
-60.5201
-60.5174
-60.5147
-60.5121
-60.5095
-60.507
-60.5044
-60.5019
-60.4995
-60.4971
-60.4947
-60.4923
-60.49
-60.4878
-60.4855
-60.4833
-60.4812
-60.4791
-60.477
-60.475
-60.473
-60.471
-60.4691
-60.4672
-60.4654
-60.4636
-60.4619
-60.4602
-60.4585
-60.4569
-60.4553
-60.4538
-60.4523
-60.4508
-60.4494
-60.448
-60.4467
-60.4454
-60.4441
-60.4429
-60.4417
-60.4406
-60.4395
-60.4384
-60.4374
-60.4364
-60.4355
-60.4346
-60.4337
-60.4329
-60.4321
-60.4313
-60.4306
-60.4299
-60.4292
-60.4286
-60.428
-60.4274
-60.4269
-60.4264
-60.4259
-60.4255
-60.4251
-60.4247
-60.4244
-60.4241
-60.4238
-60.4236
-60.4233
-60.4234
-60.4259
-60.4323
-60.3601
-59.7562
-61.521
-48.3677
182.567
-60.0999
22.5199
11.423
10.0394
10.3088
10.3772
10.3814
10.3842
10.3889
10.394
10.399
10.404
10.409
10.4139
10.4189
10.4237
10.4286
10.4334
10.4381
10.4429
10.4475
10.4522
10.4567
10.4613
10.4657
10.4702
10.4746
10.4789
10.4831
10.4874
10.4915
10.4956
10.4996
10.5036
10.5075
10.5114
10.5152
10.5189
10.5225
10.5261
10.5296
10.5331
10.5365
10.5398
10.5431
10.5462
10.5494
10.5524
10.5554
10.5583
10.5611
10.5639
10.5666
10.5692
10.5718
10.5743
10.5767
10.5791
10.5814
10.5836
10.5858
10.5879
10.5899
10.5918
10.5937
10.5956
10.5973
10.5991
10.6007
10.6023
10.6038
10.6053
10.6066
10.608
10.6093
10.6105
10.6116
10.6128
10.6138
10.6148
10.6157
10.6166
10.6174
10.6182
10.6189
10.6196
10.6202
10.6208
10.6213
10.6218
10.6222
10.6226
10.6227
10.6193
10.6013
10.595
10.867
9.13561
9.87816
182.051
-68.0921
12.785
1.73473
0.466641
0.762477
0.833678
0.839084
0.843752
0.85049
0.857574
0.864619
0.871611
0.87856
0.885466
0.892327
0.899139
0.9059
0.912608
0.919259
0.925852
0.932383
0.938852
0.945255
0.951591
0.957857
0.964052
0.970174
0.97622
0.98219
0.98808
0.99389
0.999617
1.00526
1.01082
1.01629
1.02168
1.02697
1.03218
1.03729
1.04231
1.04724
1.05208
1.05682
1.06146
1.06601
1.07047
1.07483
1.07909
1.08326
1.08733
1.0913
1.09518
1.09896
1.10264
1.10623
1.10972
1.11312
1.11642
1.11963
1.12274
1.12576
1.12869
1.13153
1.13427
1.13693
1.13949
1.14196
1.14435
1.14665
1.14886
1.15099
1.15303
1.15498
1.15685
1.15864
1.16035
1.16198
1.16353
1.16499
1.16638
1.16769
1.16893
1.17008
1.17117
1.17217
1.1731
1.17396
1.17475
1.17546
1.1761
1.1767
1.17737
1.17829
1.17822
1.1689
1.15887
1.37135
1.32433
0.916026
181.495
-69.4263
11.56
0.621969
-0.611892
-0.31104
-0.238732
-0.231728
-0.225122
-0.216375
-0.207281
-0.198235
-0.189252
-0.180322
-0.171446
-0.162628
-0.153871
-0.14518
-0.136557
-0.128007
-0.119532
-0.111136
-0.102821
-0.0945897
-0.0864455
-0.0783908
-0.0704282
-0.0625602
-0.0547891
-0.0471173
-0.0395471
-0.0320806
-0.0247199
-0.0174669
-0.0103235
-0.00329138
0.00362773
0.0104324
0.0171211
0.0236927
0.0301459
0.0364798
0.0426933
0.0487856
0.054756
0.0606038
0.0663287
0.0719301
0.0774077
0.0827614
0.0879911
0.0930966
0.0980781
0.102936
0.10767
0.11228
0.116768
0.121133
0.125377
0.129499
0.1335
0.137382
0.141144
0.144788
0.148314
0.151724
0.155018
0.158197
0.161263
0.164216
0.167058
0.169789
0.172411
0.174924
0.17733
0.179629
0.181824
0.183914
0.185902
0.187787
0.189572
0.191256
0.192842
0.194329
0.19572
0.197014
0.198212
0.199316
0.200326
0.201241
0.20206
0.20279
0.203511
0.204511
0.205596
0.20093
0.179169
0.213693
0.26737
0.209138
181.564
-69.2733
11.7936
0.881487
-0.347287
-0.0452624
0.0285258
0.0374157
0.0460252
0.0567875
0.0678891
0.0789318
0.0899021
0.100808
0.111649
0.122419
0.133114
0.143729
0.15426
0.164704
0.175055
0.18531
0.195466
0.20552
0.215467
0.225305
0.235031
0.244641
0.254133
0.263503
0.272749
0.281869
0.290859
0.299717
0.308442
0.317031
0.325482
0.333793
0.341962
0.349988
0.35787
0.365606
0.373194
0.380635
0.387927
0.395069
0.402061
0.408902
0.415592
0.422131
0.428518
0.434754
0.440838
0.44677
0.452552
0.458183
0.463664
0.468995
0.474178
0.479212
0.484099
0.488839
0.493434
0.497885
0.502191
0.506356
0.510379
0.514262
0.518006
0.521613
0.525083
0.528419
0.531621
0.53469
0.537628
0.540437
0.543117
0.54567
0.548097
0.5504
0.552579
0.554637
0.556573
0.55839
0.560088
0.561668
0.563132
0.56448
0.565714
0.566833
0.567834
0.568711
0.569493
0.570415
0.57198
0.572657
0.564432
0.559705
0.560807
0.57415
181.591
-69.2261
11.854
0.944815
-0.282782
0.0207334
0.0963825
0.107267
0.117894
0.130668
0.143772
0.156807
0.16976
0.182637
0.195437
0.208154
0.220782
0.233317
0.245752
0.258083
0.270306
0.282416
0.294409
0.30628
0.318026
0.329644
0.341128
0.352476
0.363684
0.374748
0.385667
0.396435
0.407051
0.417511
0.427813
0.437955
0.447933
0.457747
0.467393
0.47687
0.486177
0.495311
0.504272
0.513058
0.521668
0.530101
0.538357
0.546435
0.554335
0.562055
0.569597
0.57696
0.584143
0.591148
0.597975
0.604624
0.611096
0.617391
0.62351
0.629454
0.635225
0.640822
0.646247
0.651502
0.656587
0.661504
0.666254
0.670839
0.67526
0.679519
0.683617
0.687555
0.691335
0.694959
0.698429
0.701745
0.704909
0.707924
0.71079
0.713509
0.716082
0.718511
0.720798
0.722943
0.724948
0.726814
0.728542
0.730134
0.73159
0.732913
0.734099
0.735139
0.736023
0.736826
0.737937
0.739544
0.739144
0.736647
0.72967
0.741927
181.595
-69.2236
11.8583
0.950491
-0.275484
0.0299192
0.107564
0.120466
0.133106
0.147885
0.162985
0.178007
0.192937
0.20778
0.222534
0.237192
0.251749
0.266197
0.280531
0.294745
0.308834
0.322793
0.336618
0.350302
0.363842
0.377234
0.390472
0.403553
0.416472
0.429227
0.441812
0.454225
0.466461
0.478519
0.490394
0.502084
0.513586
0.524898
0.536017
0.546941
0.557669
0.568197
0.578526
0.588653
0.598578
0.608299
0.617815
0.627126
0.636231
0.64513
0.653823
0.66231
0.67059
0.678665
0.686533
0.694197
0.701657
0.708913
0.715966
0.722817
0.729468
0.73592
0.742173
0.74823
0.754091
0.759759
0.765234
0.770519
0.775614
0.780523
0.785246
0.789785
0.794142
0.798319
0.802318
0.806141
0.809788
0.813263
0.816566
0.8197
0.822666
0.825466
0.828101
0.830573
0.832884
0.835035
0.837027
0.838862
0.840541
0.842065
0.843436
0.844648
0.845685
0.846539
0.847341
0.84841
0.849547
0.849932
0.842513
0.853907
181.596
-69.2223
11.8614
0.95548
-0.268554
0.038853
0.118515
0.133431
0.148077
0.164855
0.181944
0.198947
0.215847
0.23265
0.249351
0.265945
0.282423
0.298779
0.315005
0.331096
0.347046
0.362849
0.378499
0.39399
0.409318
0.424478
0.439465
0.454273
0.468898
0.483337
0.497584
0.511636
0.525488
0.539138
0.552581
0.565814
0.578835
0.59164
0.604227
0.616594
0.628737
0.640656
0.652348
0.663812
0.675047
0.686051
0.696823
0.707363
0.71767
0.727744
0.737584
0.747191
0.756564
0.765704
0.774611
0.783287
0.791731
0.799944
0.807928
0.815684
0.823213
0.830515
0.837594
0.84445
0.851085
0.8575
0.863698
0.86968
0.875448
0.881004
0.88635
0.891488
0.89642
0.901149
0.905675
0.910002
0.914131
0.918064
0.921803
0.92535
0.928707
0.931877
0.93486
0.937658
0.940274
0.942709
0.944964
0.947041
0.948941
0.950666
0.952218
0.953597
0.954796
0.955793
0.956595
0.957349
0.958491
0.960187
0.95025
0.964513
181.597
-69.2195
11.8662
0.962268
-0.259756
0.0496671
0.131341
0.148263
0.164908
0.183676
0.202748
0.221724
0.240587
0.259343
0.277985
0.296507
0.3149
0.333156
0.351268
0.369229
0.387033
0.404672
0.422141
0.439433
0.456542
0.473464
0.490192
0.506722
0.523047
0.539164
0.555066
0.570751
0.586213
0.601449
0.616454
0.631225
0.645759
0.660052
0.674101
0.687904
0.701459
0.714762
0.727813
0.740609
0.753148
0.765431
0.777454
0.789219
0.800723
0.811967
0.82295
0.833673
0.844135
0.854336
0.864278
0.873961
0.883386
0.892553
0.901464
0.910121
0.918524
0.926675
0.934575
0.942227
0.949632
0.956793
0.96371
0.970387
0.976825
0.983026
0.988993
0.994727
1.00023
1.00551
1.01056
1.01539
1.02
1.02439
1.02856
1.03252
1.03627
1.03981
1.04313
1.04626
1.04918
1.05189
1.05441
1.05673
1.05885
1.06078
1.06251
1.06405
1.06539
1.06654
1.06745
1.06814
1.06923
1.07209
1.05851
1.07674
181.598
-69.2165
11.8713
0.969357
-0.250658
0.0607745
0.144452
0.163371
0.182006
0.202757
0.223804
0.244745
0.265564
0.286264
0.306839
0.327281
0.34758
0.367729
0.387719
0.407543
0.427192
0.446661
0.465941
0.485026
0.50391
0.522587
0.541049
0.559293
0.577311
0.595098
0.61265
0.629961
0.647026
0.663842
0.680402
0.696705
0.712745
0.72852
0.744025
0.759259
0.774219
0.788901
0.803304
0.817426
0.831266
0.844821
0.858091
0.871074
0.883771
0.89618
0.908301
0.920135
0.931681
0.94294
0.953912
0.964598
0.974999
0.985116
0.994951
1.0045
1.01378
1.02277
1.03149
1.03994
1.04811
1.05601
1.06364
1.07101
1.07812
1.08496
1.09155
1.09787
1.10395
1.10977
1.11535
1.12068
1.12576
1.13061
1.13521
1.13958
1.14372
1.14762
1.1513
1.15474
1.15796
1.16096
1.16374
1.1663
1.16864
1.17076
1.17267
1.17437
1.17586
1.17713
1.17816
1.17888
1.17995
1.18405
1.16682
1.18893
181.599
-69.2135
11.8763
0.976408
-0.241605
0.0718261
0.157498
0.178405
0.199022
0.221747
0.244759
0.267657
0.290422
0.313058
0.335557
0.35791
0.380108
0.402141
0.424001
0.445678
0.467166
0.488455
0.509538
0.530408
0.551059
0.571482
0.591671
0.611621
0.631324
0.650775
0.669968
0.688898
0.707559
0.725947
0.744056
0.761883
0.779423
0.796672
0.813628
0.830286
0.846643
0.862698
0.878448
0.89389
0.909023
0.923845
0.938355
0.952552
0.966436
0.980005
0.993259
1.0062
1.01882
1.03113
1.04313
1.05482
1.06619
1.07725
1.088
1.09845
1.10859
1.11843
1.12796
1.13719
1.14613
1.15477
1.16312
1.17117
1.17894
1.18642
1.19362
1.20054
1.20719
1.21355
1.21965
1.22548
1.23104
1.23633
1.24137
1.24615
1.25067
1.25494
1.25895
1.26272
1.26624
1.26952
1.27256
1.27536
1.27792
1.28024
1.28233
1.28418
1.28581
1.28721
1.28834
1.2891
1.29015
1.29541
1.27502
1.30048
181.6
-69.2105
11.8813
0.98341
-0.232611
0.0828097
0.170466
0.193351
0.21594
0.240629
0.265598
0.290443
0.315145
0.339707
0.36412
0.388376
0.412463
0.436371
0.460091
0.483613
0.506929
0.530029
0.552907
0.575554
0.597961
0.620123
0.642031
0.663678
0.685058
0.706164
0.72699
0.747531
0.76778
0.787732
0.807382
0.826725
0.845757
0.864474
0.882872
0.900947
0.918696
0.936116
0.953206
0.969961
0.986381
1.00246
1.01821
1.03361
1.04868
1.0634
1.07778
1.09182
1.10552
1.11888
1.13189
1.14457
1.15691
1.16891
1.18058
1.19191
1.20292
1.21359
1.22393
1.23395
1.24364
1.25302
1.26208
1.27082
1.27924
1.28736
1.29517
1.30268
1.30989
1.3168
1.32341
1.32973
1.33577
1.34151
1.34698
1.35216
1.35707
1.3617
1.36606
1.37014
1.37397
1.37752
1.38082
1.38385
1.38663
1.38915
1.39142
1.39343
1.3952
1.39671
1.39794
1.39875
1.39978
1.40599
1.38311
1.41127
181.602
-69.2075
11.8863
0.99037
-0.223667
0.0937321
0.183362
0.208215
0.232765
0.259409
0.286323
0.313105
0.339734
0.366211
0.392529
0.418676
0.444642
0.470415
0.495985
0.521342
0.546476
0.571379
0.596042
0.620455
0.644611
0.668501
0.692117
0.715453
0.738501
0.761253
0.783704
0.805846
0.827674
0.849182
0.870365
0.891216
0.911733
0.931909
0.951741
0.971225
0.990358
1.00914
1.02756
1.04562
1.06332
1.08066
1.09763
1.11423
1.13047
1.14634
1.16184
1.17698
1.19174
1.20614
1.22017
1.23384
1.24714
1.26008
1.27265
1.28487
1.29673
1.30823
1.31938
1.33018
1.34063
1.35073
1.36049
1.36991
1.379
1.38775
1.39617
1.40426
1.41203
1.41948
1.42661
1.43342
1.43992
1.44612
1.45201
1.45759
1.46288
1.46787
1.47257
1.47698
1.4811
1.48493
1.48848
1.49175
1.49475
1.49746
1.49991
1.50208
1.50398
1.50561
1.50695
1.50782
1.50883
1.51574
1.49106
1.52126
181.603
-69.2045
11.8912
0.99729
-0.214775
0.104592
0.196184
0.222994
0.249494
0.27808
0.306929
0.335636
0.36418
0.392563
0.420774
0.448802
0.476635
0.504262
0.531672
0.558853
0.585796
0.61249
0.638927
0.665096
0.69099
0.716599
0.741914
0.766929
0.791634
0.816023
0.840089
0.863824
0.887222
0.910277
0.932982
0.955333
0.977325
0.998952
1.02021
1.04109
1.0616
1.08173
1.10148
1.12084
1.13981
1.15839
1.17658
1.19438
1.21179
1.2288
1.24541
1.26163
1.27746
1.29289
1.30793
1.32258
1.33684
1.3507
1.36418
1.37728
1.38999
1.40232
1.41427
1.42584
1.43704
1.44787
1.45833
1.46843
1.47817
1.48755
1.49657
1.50524
1.51357
1.52155
1.52919
1.53649
1.54346
1.5501
1.55641
1.5624
1.56807
1.57342
1.57845
1.58318
1.58759
1.5917
1.59551
1.59902
1.60223
1.60514
1.60776
1.61008
1.61212
1.61387
1.61531
1.61625
1.61726
1.62464
1.59879
1.63041
181.604
-69.2016
11.8961
1.00417
-0.205938
0.115384
0.208926
0.237681
0.266119
0.296636
0.327408
0.358028
0.388476
0.418751
0.448843
0.478741
0.50843
0.5379
0.567137
0.596131
0.624871
0.653346
0.681545
0.70946
0.737081
0.764397
0.791401
0.818084
0.844437
0.870452
0.896123
0.92144
0.946398
0.97099
0.995209
1.01905
1.04251
1.06558
1.08825
1.11053
1.1324
1.15387
1.17493
1.19558
1.21582
1.23564
1.25504
1.27403
1.29259
1.31073
1.32846
1.34576
1.36264
1.3791
1.39514
1.41076
1.42597
1.44076
1.45514
1.4691
1.48266
1.49581
1.50855
1.5209
1.53284
1.54439
1.55555
1.56632
1.57671
1.58671
1.59633
1.60558
1.61446
1.62298
1.63113
1.63891
1.64635
1.65343
1.66016
1.66654
1.67259
1.67829
1.68367
1.6887
1.69341
1.6978
1.70186
1.7056
1.70902
1.71213
1.71492
1.7174
1.71957
1.72144
1.72298
1.72399
1.72502
1.73265
1.70622
1.73871
181.605
-69.1986
11.901
1.011
-0.19716
0.126104
0.221583
0.25227
0.282634
0.315068
0.34775
0.380271
0.412609
0.444764
0.476726
0.50848
0.540013
0.571313
0.602366
0.633161
0.663685
0.693929
0.72388
0.753529
0.782864
0.811877
0.840558
0.868898
0.896888
0.924518
0.951782
0.978672
1.00518
1.0313
1.05702
1.08234
1.10725
1.13175
1.15584
1.1795
1.20273
1.22553
1.2479
1.26983
1.29132
1.31237
1.33298
1.35314
1.37285
1.39212
1.41094
1.42932
1.44725
1.46473
1.48176
1.49835
1.5145
1.53021
1.54548
1.56031
1.5747
1.58867
1.6022
1.61531
1.628
1.64026
1.65211
1.66355
1.67458
1.6852
1.69542
1.70525
1.71468
1.72371
1.73237
1.74064
1.74853
1.75605
1.7632
1.76998
1.7764
1.78246
1.78816
1.79351
1.79851
1.80317
1.80748
1.81145
1.81509
1.81839
1.82135
1.82399
1.8263
1.82828
1.82992
1.83101
1.83206
1.83978
1.81323
1.84614
181.606
-69.1957
11.9059
1.01778
-0.188445
0.136747
0.234151
0.266755
0.299031
0.33337
0.367947
0.402355
0.436571
0.470594
0.504411
0.538008
0.571373
0.604489
0.637345
0.669928
0.702225
0.734224
0.765914
0.797284
0.828323
0.859021
0.889367
0.919351
0.948966
0.9782
1.00705
1.0355
1.06354
1.09118
1.11839
1.14518
1.17154
1.19746
1.22294
1.24797
1.27255
1.29668
1.32034
1.34355
1.36628
1.38855
1.41036
1.43169
1.45254
1.47293
1.49284
1.51228
1.53125
1.54974
1.56776
1.58532
1.6024
1.61902
1.63517
1.65086
1.66609
1.68086
1.69518
1.70905
1.72247
1.73545
1.74798
1.76008
1.77175
1.78298
1.7938
1.80419
1.81416
1.82373
1.83288
1.84163
1.84998
1.85793
1.8655
1.87267
1.87946
1.88587
1.8919
1.89756
1.90285
1.90778
1.91234
1.91654
1.92039
1.92388
1.92701
1.9298
1.93225
1.93435
1.93608
1.93725
1.93835
1.946
1.91973
1.95267
181.607
-69.1929
11.9107
1.02451
-0.179797
0.14731
0.246623
0.281131
0.315304
0.351533
0.387992
0.424273
0.460353
0.496228
0.531887
0.567314
0.602495
0.637415
0.672061
0.706418
0.740474
0.774216
0.807632
0.84071
0.873439
0.905808
0.937807
0.969424
1.00065
1.03148
1.06189
1.09189
1.12147
1.1506
1.1793
1.20755
1.23534
1.26267
1.28954
1.31593
1.34185
1.36729
1.39224
1.4167
1.44068
1.46416
1.48715
1.50964
1.53163
1.55312
1.57412
1.59461
1.61461
1.63411
1.65311
1.67161
1.68963
1.70715
1.72418
1.74072
1.75678
1.77235
1.78745
1.80207
1.81622
1.8299
1.84311
1.85587
1.86817
1.88002
1.89142
1.90237
1.91289
1.92297
1.93262
1.94184
1.95065
1.95903
1.96701
1.97457
1.98173
1.98848
1.99485
2.00081
2.00639
2.01158
2.01639
2.02082
2.02488
2.02856
2.03187
2.03481
2.03738
2.0396
2.04143
2.04269
2.04384
2.05131
2.02562
2.0583
181.607
-69.19
11.9155
1.03118
-0.171217
0.157789
0.258995
0.295392
0.331447
0.369551
0.407877
0.446017
0.483945
0.521658
0.559144
0.596387
0.63337
0.670079
0.7065
0.742617
0.778418
0.813889
0.849017
0.88379
0.918196
0.952223
0.985861
1.0191
1.05192
1.08433
1.1163
1.14784
1.17893
1.20956
1.23972
1.26942
1.29863
1.32736
1.3556
1.38335
1.41059
1.43733
1.46356
1.48927
1.51447
1.53916
1.56332
1.58696
1.61008
1.63267
1.65474
1.67628
1.6973
1.71779
1.73777
1.75722
1.77615
1.79457
1.81247
1.82985
1.84673
1.8631
1.87897
1.89434
1.90921
1.92359
1.93748
1.95088
1.96381
1.97626
1.98825
1.99976
2.01081
2.02141
2.03155
2.04125
2.0505
2.05931
2.06769
2.07564
2.08316
2.09027
2.09695
2.10322
2.10909
2.11454
2.1196
2.12426
2.12852
2.13239
2.13586
2.13895
2.14166
2.14399
2.14591
2.14727
2.14848
2.15568
2.13082
2.16299
181.608
-69.1872
11.9202
1.0378
-0.16271
0.168179
0.271264
0.309533
0.347455
0.387418
0.427595
0.467578
0.507339
0.546875
0.586172
0.625215
0.663986
0.702469
0.74065
0.778513
0.816044
0.853229
0.890054
0.926508
0.962577
0.998248
1.03351
1.06835
1.10277
1.13674
1.17026
1.20331
1.2359
1.26801
1.29963
1.33076
1.36139
1.39151
1.42111
1.45019
1.47875
1.50678
1.53428
1.56123
1.58765
1.61352
1.63885
1.66363
1.68786
1.71154
1.73468
1.75726
1.77929
1.80077
1.82171
1.8421
1.86194
1.88124
1.90001
1.91823
1.93592
1.95308
1.96971
1.98582
2.00141
2.01648
2.03104
2.04509
2.05864
2.07169
2.08425
2.09632
2.1079
2.11901
2.12964
2.1398
2.1495
2.15873
2.16752
2.17585
2.18373
2.19118
2.19818
2.20476
2.2109
2.21662
2.22192
2.2268
2.23127
2.23532
2.23897
2.24221
2.24505
2.24749
2.24951
2.25095
2.25222
2.25911
2.23523
2.26674
181.609
-69.1843
11.9249
1.04436
-0.154278
0.178477
0.283424
0.323549
0.363321
0.405127
0.44714
0.488948
0.530526
0.571869
0.612962
0.653789
0.694331
0.734573
0.774499
0.814092
0.853337
0.892222
0.93073
0.968849
1.00657
1.04387
1.08074
1.11718
1.15316
1.18868
1.22373
1.2583
1.29238
1.32595
1.35902
1.39157
1.42359
1.45508
1.48604
1.51645
1.54631
1.57562
1.60436
1.63255
1.66017
1.68723
1.71371
1.73962
1.76495
1.78972
1.8139
1.83751
1.86055
1.88301
1.9049
1.92622
1.94697
1.96715
1.98676
2.00582
2.02431
2.04225
2.05964
2.07648
2.09278
2.10853
2.12376
2.13845
2.15261
2.16626
2.17939
2.192
2.20412
2.21573
2.22684
2.23747
2.2476
2.25726
2.26644
2.27515
2.2834
2.29118
2.29851
2.30538
2.3118
2.31778
2.32332
2.32843
2.3331
2.33734
2.34115
2.34454
2.3475
2.35005
2.35217
2.3537
2.35504
2.36157
2.33878
2.36951
181.61
-69.1816
11.9295
1.05086
-0.145924
0.18868
0.295471
0.337436
0.37904
0.422672
0.466503
0.510121
0.553499
0.596632
0.639505
0.682099
0.724396
0.766381
0.808034
0.849341
0.890286
0.930854
0.971029
1.0108
1.05015
1.08906
1.12753
1.16554
1.20309
1.24014
1.27671
1.31277
1.34832
1.38335
1.41785
1.4518
1.48521
1.51807
1.55036
1.58209
1.61324
1.64381
1.6738
1.70321
1.73202
1.76024
1.78787
1.8149
1.84133
1.86716
1.89239
1.91702
1.94105
1.96448
1.98731
2.00955
2.03119
2.05224
2.07271
2.09258
2.11187
2.13059
2.14873
2.16629
2.18329
2.19973
2.2156
2.23093
2.2457
2.25994
2.27363
2.28679
2.29943
2.31154
2.32313
2.33421
2.34478
2.35486
2.36443
2.37352
2.38212
2.39024
2.39788
2.40505
2.41175
2.41799
2.42377
2.42909
2.43396
2.43838
2.44236
2.44589
2.44899
2.45165
2.45386
2.45548
2.45689
2.46305
2.4414
2.4713
181.611
-69.1788
11.9341
1.05729
-0.137652
0.198784
0.307401
0.351188
0.394607
0.440048
0.485679
0.531089
0.57625
0.621155
0.66579
0.710135
0.754171
0.79788
0.841245
0.88425
0.926877
0.969112
1.01094
1.05234
1.09331
1.13382
1.17387
1.21344
1.25253
1.29111
1.32918
1.36672
1.40373
1.4402
1.47611
1.51146
1.54624
1.58044
1.61406
1.64708
1.67951
1.71134
1.74256
1.77317
1.80317
1.83255
1.8613
1.88944
1.91695
1.94384
1.97011
1.99574
2.02076
2.04515
2.06892
2.09207
2.11459
2.13651
2.15781
2.17849
2.19858
2.21806
2.23694
2.25522
2.27291
2.29002
2.30655
2.3225
2.33788
2.35269
2.36695
2.38064
2.39379
2.4064
2.41847
2.43
2.44101
2.45149
2.46146
2.47091
2.47987
2.48831
2.49627
2.50373
2.51071
2.5172
2.52321
2.52875
2.53383
2.53843
2.54257
2.54625
2.54947
2.55224
2.55454
2.55625
2.55773
2.56351
2.54302
2.57206
181.612
-69.1761
11.9387
1.06367
-0.129463
0.208786
0.319212
0.364801
0.410017
0.457248
0.504661
0.551845
0.598771
0.645431
0.69181
0.737887
0.783644
0.829061
0.874121
0.918806
0.963099
1.00698
1.05044
1.09346
1.13603
1.17813
1.21974
1.26086
1.30147
1.34156
1.38111
1.42012
1.45857
1.49646
1.53378
1.57051
1.60664
1.64218
1.67711
1.71142
1.74512
1.77818
1.81062
1.84242
1.87359
1.90411
1.93399
1.96322
1.99181
2.01974
2.04703
2.07367
2.09965
2.12499
2.14969
2.17374
2.19714
2.21991
2.24203
2.26353
2.28439
2.30463
2.32424
2.34323
2.36161
2.37939
2.39656
2.41313
2.4291
2.44449
2.4593
2.47353
2.48719
2.50028
2.51282
2.5248
2.53623
2.54713
2.55748
2.5673
2.5766
2.58538
2.59364
2.60139
2.60864
2.61539
2.62163
2.62739
2.63266
2.63744
2.64174
2.64557
2.64891
2.65179
2.65418
2.65598
2.65753
2.66293
2.6436
2.67178
181.613
-69.1734
11.9432
1.06997
-0.12136
0.218682
0.330897
0.378271
0.425265
0.474266
0.523444
0.572383
0.621054
0.669451
0.717556
0.765347
0.812807
0.859914
0.90665
0.952997
0.998938
1.04446
1.08953
1.13415
1.1783
1.22197
1.26513
1.30777
1.34989
1.39147
1.4325
1.47295
1.51284
1.55213
1.59083
1.62893
1.66641
1.70326
1.73949
1.77508
1.81002
1.84432
1.87796
1.91094
1.94326
1.97492
2.0059
2.03622
2.06587
2.09484
2.12313
2.15076
2.17771
2.20399
2.22959
2.25453
2.27881
2.30241
2.32536
2.34765
2.36928
2.39027
2.41061
2.4303
2.44937
2.46779
2.4856
2.50278
2.51935
2.53531
2.55066
2.56542
2.57958
2.59316
2.60616
2.61858
2.63044
2.64173
2.65247
2.66265
2.6723
2.6814
2.68997
2.698
2.70552
2.71251
2.71899
2.72496
2.73043
2.73539
2.73985
2.74381
2.74728
2.75027
2.75275
2.75464
2.75626
2.7613
2.74307
2.77043
181.614
-69.1707
11.9477
1.07621
-0.113345
0.228471
0.342455
0.391593
0.440345
0.491099
0.54202
0.592695
0.643094
0.693208
0.743019
0.792507
0.84165
0.890428
0.938822
0.986814
1.03438
1.08152
1.12819
1.1744
1.22011
1.26532
1.31001
1.35417
1.39778
1.44084
1.48331
1.52521
1.5665
1.60719
1.64726
1.68671
1.72551
1.76367
1.80118
1.83803
1.87421
1.90972
1.94455
1.9787
2.01216
2.04494
2.07702
2.10841
2.1391
2.1691
2.19839
2.22699
2.2549
2.2821
2.30861
2.33443
2.35956
2.384
2.40776
2.43083
2.45323
2.47496
2.49601
2.5164
2.53614
2.55521
2.57365
2.59143
2.60858
2.6251
2.641
2.65627
2.67094
2.68499
2.69845
2.71131
2.72358
2.73528
2.74639
2.75694
2.76692
2.77634
2.78521
2.79353
2.80131
2.80855
2.81526
2.82144
2.82709
2.83223
2.83685
2.84095
2.84455
2.84764
2.85021
2.85218
2.85387
2.85858
2.84139
2.86798
181.615
-69.168
11.9521
1.08237
-0.105422
0.238147
0.353881
0.404763
0.455254
0.50774
0.560385
0.612777
0.664883
0.716694
0.768193
0.819356
0.870164
0.920594
0.970628
1.02024
1.06943
1.11815
1.16641
1.21418
1.26144
1.30818
1.35439
1.40004
1.44513
1.48964
1.53355
1.57686
1.61956
1.66162
1.70305
1.74382
1.78394
1.82339
1.86216
1.90026
1.93766
1.97437
2.01038
2.04568
2.08027
2.11415
2.14732
2.17977
2.21149
2.2425
2.27278
2.30235
2.33119
2.35931
2.38672
2.41341
2.43938
2.46465
2.4892
2.51305
2.53621
2.55866
2.58042
2.6015
2.6219
2.64162
2.66067
2.67906
2.69678
2.71386
2.73029
2.74608
2.76123
2.77576
2.78967
2.80296
2.81565
2.82773
2.83922
2.85012
2.86043
2.87017
2.87934
2.88794
2.89598
2.90347
2.9104
2.91679
2.92264
2.92794
2.93272
2.93696
2.94068
2.94388
2.94654
2.94859
2.95035
2.95474
2.93853
2.96441
181.616
-69.1654
11.9564
1.08846
-0.097593
0.24771
0.365173
0.417778
0.469987
0.524184
0.578533
0.63262
0.686413
0.739903
0.793068
0.845888
0.898341
0.950404
1.00206
1.05328
1.10405
1.15436
1.20417
1.25349
1.30228
1.35053
1.39823
1.44536
1.49191
1.53786
1.58319
1.6279
1.67198
1.7154
1.75816
1.80026
1.84167
1.88239
1.92242
1.96174
2.00036
2.03825
2.07542
2.11186
2.14757
2.18254
2.21678
2.25027
2.28302
2.31502
2.34628
2.3768
2.40657
2.4356
2.46389
2.49143
2.51824
2.54432
2.56967
2.59429
2.61818
2.64136
2.66382
2.68558
2.70663
2.72698
2.74664
2.76562
2.78392
2.80154
2.81849
2.83479
2.85043
2.86543
2.87978
2.8935
2.90659
2.91906
2.93092
2.94217
2.95282
2.96287
2.97233
2.98121
2.98951
2.99723
3.00439
3.01098
3.01702
3.0225
3.02743
3.03181
3.03564
3.03894
3.04169
3.04382
3.04565
3.04976
3.03445
3.05968
181.617
-69.1629
11.9607
1.09448
-0.0898594
0.257155
0.376325
0.430634
0.484539
0.540426
0.596459
0.652221
0.70768
0.762826
0.817639
0.872095
0.926171
0.979847
1.0331
1.08591
1.13825
1.19012
1.24148
1.29232
1.34262
1.39237
1.44154
1.49013
1.53812
1.58548
1.63222
1.67831
1.72375
1.76852
1.8126
1.85599
1.89869
1.94067
1.98193
2.02247
2.06227
2.10134
2.13965
2.17722
2.21403
2.25008
2.28537
2.31989
2.35365
2.38665
2.41887
2.45032
2.48101
2.51094
2.54009
2.56849
2.59612
2.623
2.64913
2.6745
2.69913
2.72302
2.74618
2.7686
2.7903
2.81128
2.83154
2.8511
2.86996
2.88812
2.9056
2.92239
2.93851
2.95397
2.96876
2.9829
2.9964
3.00925
3.02147
3.03307
3.04404
3.0544
3.06415
3.0733
3.08185
3.08982
3.09719
3.10399
3.11021
3.11586
3.12094
3.12546
3.12941
3.13281
3.13565
3.13786
3.13975
3.14361
3.12911
3.15376
181.617
-69.1603
11.965
1.10042
-0.082224
0.266481
0.387337
0.443326
0.498907
0.556462
0.614156
0.671572
0.728677
0.785458
0.841897
0.897968
0.953648
1.00892
1.06375
1.11812
1.17202
1.22542
1.2783
1.33065
1.38244
1.43366
1.4843
1.53432
1.58373
1.6325
1.68062
1.72808
1.77486
1.82095
1.86634
1.91102
1.95498
1.9982
2.04068
2.08242
2.1234
2.16361
2.20306
2.24174
2.27964
2.31675
2.35308
2.38863
2.42338
2.45735
2.49052
2.5229
2.5545
2.5853
2.61532
2.64455
2.673
2.70067
2.72756
2.75368
2.77904
2.80363
2.82746
2.85055
2.87288
2.89448
2.91534
2.93547
2.95488
2.97358
2.99157
3.00886
3.02545
3.04136
3.05659
3.07114
3.08503
3.09826
3.11084
3.12278
3.13407
3.14474
3.15478
3.16419
3.173
3.1812
3.18879
3.19579
3.20219
3.20801
3.21324
3.21789
3.22196
3.22546
3.22838
3.23067
3.23262
3.23625
3.22251
3.24664
181.618
-69.1578
11.9692
1.10629
-0.0746888
0.275684
0.398203
0.455851
0.513085
0.572287
0.631621
0.690669
0.749397
0.807793
0.865835
0.9235
0.980763
1.0376
1.09399
1.14991
1.20534
1.26026
1.31464
1.36847
1.42174
1.47441
1.52649
1.57793
1.62874
1.6789
1.72839
1.77719
1.8253
1.87269
1.91937
1.96532
2.01052
2.05497
2.09865
2.14157
2.18371
2.22506
2.26563
2.3054
2.34437
2.38253
2.41989
2.45644
2.49218
2.5271
2.56121
2.59451
2.627
2.65867
2.68953
2.71959
2.74884
2.77729
2.80494
2.8318
2.85787
2.88316
2.90766
2.93139
2.95436
2.97656
2.99801
3.01871
3.03867
3.05789
3.07639
3.09416
3.11122
3.12758
3.14323
3.1582
3.17248
3.18608
3.19901
3.21128
3.2229
3.23386
3.24418
3.25386
3.26292
3.27134
3.27915
3.28635
3.29293
3.29891
3.30429
3.30907
3.31326
3.31686
3.31986
3.32223
3.32424
3.32767
3.3146
3.33828
181.619
-69.1553
11.9733
1.11207
-0.0672559
0.284762
0.408922
0.468206
0.527071
0.587898
0.648849
0.709506
0.769835
0.829823
0.889448
0.948685
1.00751
1.0659
1.12382
1.18127
1.23821
1.29462
1.35049
1.40579
1.4605
1.51461
1.5681
1.62095
1.67314
1.72466
1.77549
1.82563
1.87504
1.92373
1.97167
2.01887
2.0653
2.11095
2.15583
2.19991
2.24319
2.28567
2.32734
2.36819
2.40821
2.44741
2.48579
2.52332
2.56003
2.5959
2.63094
2.66513
2.6985
2.73103
2.76273
2.7936
2.82364
2.85286
2.88126
2.90884
2.93561
2.96158
2.98675
3.01112
3.03471
3.05751
3.07953
3.10079
3.12129
3.14103
3.16002
3.17828
3.1958
3.21259
3.22867
3.24404
3.2587
3.27267
3.28595
3.29855
3.31048
3.32174
3.33234
3.34228
3.35158
3.36023
3.36825
3.37564
3.3824
3.38854
3.39407
3.39898
3.40329
3.40698
3.41007
3.41251
3.41458
3.41784
3.40538
3.42865
181.62
-69.1529
11.9774
1.11777
-0.0599273
0.293712
0.419491
0.480388
0.54086
0.603289
0.665834
0.728079
0.789986
0.851544
0.912729
0.973516
1.03388
1.09379
1.15323
1.21218
1.27061
1.3285
1.38582
1.44257
1.49872
1.55424
1.60913
1.66336
1.71691
1.76978
1.82194
1.87338
1.92408
1.97404
2.02324
2.07166
2.1193
2.16615
2.21219
2.25742
2.30183
2.34542
2.38817
2.43008
2.47115
2.51137
2.55074
2.58926
2.62692
2.66372
2.69966
2.73475
2.76898
2.80236
2.83488
2.86655
2.89737
2.92734
2.95648
2.98478
3.01225
3.03889
3.0647
3.08971
3.1139
3.13729
3.15989
3.1817
3.20272
3.22298
3.24246
3.26118
3.27916
3.29639
3.31288
3.32864
3.34369
3.35802
3.37164
3.38457
3.3968
3.40835
3.41923
3.42943
3.43896
3.44784
3.45607
3.46365
3.47059
3.47689
3.48256
3.4876
3.49201
3.49581
3.49898
3.50149
3.50362
3.50673
3.49481
3.51773
181.621
-69.1504
11.9814
1.12339
-0.0527049
0.302533
0.429906
0.492393
0.55445
0.618456
0.682574
0.746382
0.809845
0.87295
0.935673
0.997986
1.05987
1.12128
1.18222
1.24265
1.30254
1.36188
1.42065
1.47882
1.53637
1.59329
1.64956
1.70515
1.76005
1.81424
1.86771
1.92043
1.97241
2.02362
2.07405
2.12369
2.17252
2.22054
2.26773
2.3141
2.35962
2.40429
2.44811
2.49107
2.53316
2.57439
2.61474
2.65422
2.69282
2.73054
2.76738
2.80334
2.83843
2.87263
2.90596
2.93842
2.97001
3.00073
3.03059
3.0596
3.08775
3.11505
3.14151
3.16713
3.19193
3.2159
3.23906
3.26141
3.28295
3.30371
3.32367
3.34286
3.36128
3.37894
3.39584
3.412
3.42741
3.4421
3.45606
3.46931
3.48184
3.49368
3.50482
3.51528
3.52505
3.53415
3.54258
3.55035
3.55746
3.56392
3.56973
3.5749
3.57942
3.58332
3.58656
3.58915
3.59133
3.59431
3.58289
3.6055
181.621
-69.1481
11.9854
1.12893
-0.0455903
0.311223
0.440166
0.504219
0.567836
0.633397
0.699062
0.764411
0.829407
0.894036
0.958272
1.02209
1.08546
1.14836
1.21077
1.27266
1.334
1.39477
1.45495
1.51453
1.57347
1.63176
1.68938
1.74631
1.80253
1.85803
1.91278
1.96678
2.02001
2.07245
2.12409