/*--------------------------------*- C++ -*----------------------------------*\
  =========                 |
  \\      /  F ield         | OpenFOAM: The Open Source CFD Toolbox
   \\    /   O peration     | Website:  https://openfoam.org
    \\  /    A nd           | Version:  10
     \\/     M anipulation  |
\*---------------------------------------------------------------------------*/
FoamFile
{
    format      ascii;
    class       volScalarField;
    location    "33";
    object      T_0;
}
// * * * * * * * * * * * * * * * * * * * * * * * * * * * * * * * * * * * * * //

dimensions      [0 0 0 1 0 0 0];

internalField   nonuniform List<scalar> 
10000
(
374.984
361.292
356.614
354.565
353.454
352.754
352.267
351.905
351.622
351.393
351.202
351.04
350.899
350.774
350.663
350.563
350.471
350.387
350.309
350.236
350.168
350.103
350.042
349.984
349.929
349.876
349.825
349.776
349.729
349.683
349.639
349.596
349.555
349.515
349.476
349.438
349.401
349.365
349.329
349.295
349.262
349.229
349.197
349.166
349.136
349.106
349.077
349.049
349.021
348.994
348.968
348.942
348.917
348.892
348.868
348.845
348.822
348.8
348.778
348.757
348.736
348.716
348.697
348.678
348.66
348.642
348.625
348.608
348.592
348.576
348.561
348.546
348.532
348.518
348.505
348.493
348.481
348.469
348.458
348.448
348.438
348.428
348.42
348.411
348.403
348.396
348.389
348.383
348.377
348.371
348.367
348.362
348.358
348.355
348.352
348.35
348.348
348.347
348.346
348.346
388.616
374.864
367.214
362.757
359.953
358.052
356.679
355.637
354.813
354.142
353.58
353.099
352.681
352.312
351.981
351.682
351.409
351.157
350.924
350.706
350.501
350.308
350.125
349.951
349.785
349.626
349.474
349.327
349.186
349.049
348.917
348.789
348.665
348.545
348.428
348.314
348.203
348.095
347.989
347.887
347.786
347.689
347.593
347.5
347.409
347.32
347.233
347.148
347.065
346.984
346.905
346.827
346.752
346.678
346.606
346.536
346.468
346.401
346.336
346.273
346.211
346.151
346.093
346.036
345.981
345.928
345.876
345.825
345.777
345.73
345.684
345.64
345.598
345.557
345.518
345.481
345.445
345.41
345.377
345.346
345.316
345.288
345.261
345.236
345.212
345.19
345.169
345.15
345.132
345.116
345.102
345.089
345.077
345.068
345.059
345.052
345.047
345.043
345.041
345.04
393.234
382.331
374.621
369.296
365.548
362.82
360.76
359.15
357.853
356.781
355.876
355.097
354.415
353.81
353.268
352.775
352.325
351.909
351.523
351.162
350.823
350.503
350.2
349.911
349.635
349.371
349.118
348.874
348.639
348.412
348.192
347.98
347.773
347.573
347.378
347.188
347.003
346.824
346.648
346.477
346.31
346.147
345.988
345.833
345.681
345.533
345.388
345.246
345.108
344.973
344.841
344.713
344.587
344.464
344.344
344.227
344.113
344.002
343.894
343.789
343.686
343.586
343.489
343.394
343.303
343.214
343.127
343.043
342.962
342.884
342.808
342.735
342.665
342.597
342.532
342.469
342.409
342.351
342.296
342.244
342.194
342.147
342.103
342.061
342.021
341.984
341.95
341.918
341.889
341.862
341.838
341.816
341.797
341.781
341.767
341.755
341.746
341.74
341.736
341.735
395.222
386.607
379.643
374.258
370.125
366.921
364.391
362.35
360.668
359.255
358.047
356.998
356.073
355.248
354.505
353.828
353.207
352.633
352.099
351.599
351.128
350.684
350.262
349.86
349.476
349.108
348.755
348.415
348.087
347.77
347.463
347.166
346.878
346.598
346.325
346.06
345.802
345.551
345.306
345.066
344.833
344.605
344.383
344.165
343.953
343.746
343.543
343.345
343.152
342.963
342.779
342.599
342.423
342.251
342.083
341.92
341.761
341.605
341.454
341.306
341.162
341.023
340.887
340.754
340.626
340.501
340.381
340.263
340.15
340.04
339.934
339.832
339.733
339.638
339.547
339.459
339.375
339.295
339.218
339.145
339.075
339.009
338.947
338.888
338.833
338.781
338.733
338.688
338.647
338.61
338.576
338.546
338.519
338.496
338.477
338.461
338.448
338.439
338.434
338.432
396.272
389.229
383.088
377.967
373.774
370.35
367.534
365.191
363.216
361.526
360.061
358.775
357.632
356.607
355.677
354.827
354.045
353.319
352.643
352.008
351.41
350.844
350.306
349.793
349.303
348.833
348.382
347.947
347.527
347.121
346.728
346.348
345.978
345.619
345.27
344.93
344.599
344.276
343.961
343.655
343.355
343.062
342.777
342.498
342.225
341.959
341.699
341.445
341.197
340.954
340.717
340.486
340.26
340.039
339.824
339.614
339.409
339.21
339.015
338.825
338.641
338.461
338.286
338.117
337.952
337.792
337.636
337.486
337.34
337.199
337.063
336.931
336.805
336.683
336.565
336.453
336.345
336.241
336.142
336.048
335.959
335.874
335.794
335.718
335.647
335.581
335.519
335.462
335.409
335.361
335.318
335.279
335.245
335.215
335.19
335.169
335.153
335.142
335.135
335.132
396.912
390.949
385.515
380.748
376.655
373.17
370.204
367.667
365.478
363.573
361.898
360.41
359.077
357.871
356.772
355.762
354.828
353.96
353.147
352.384
351.663
350.979
350.329
349.708
349.114
348.544
347.996
347.467
346.957
346.464
345.986
345.522
345.072
344.635
344.21
343.796
343.392
342.999
342.615
342.241
341.875
341.519
341.17
340.83
340.497
340.173
339.855
339.545
339.242
338.946
338.657
338.374
338.099
337.829
337.567
337.31
337.06
336.816
336.579
336.347
336.122
335.902
335.689
335.482
335.28
335.085
334.895
334.711
334.533
334.361
334.195
334.034
333.88
333.73
333.587
333.449
333.318
333.191
333.071
332.956
332.847
332.743
332.645
332.553
332.466
332.385
332.309
332.24
332.175
332.117
332.064
332.016
331.974
331.938
331.907
331.882
331.862
331.848
331.84
331.837
397.338
392.141
387.273
382.856
378.928
375.474
372.448
369.795
367.46
365.392
363.549
361.894
360.396
359.031
357.779
356.623
355.55
354.547
353.607
352.72
351.882
351.085
350.326
349.601
348.906
348.238
347.595
346.975
346.376
345.796
345.234
344.689
344.16
343.645
343.145
342.657
342.182
341.718
341.266
340.825
340.394
339.974
339.563
339.162
338.769
338.386
338.012
337.646
337.288
336.939
336.598
336.265
335.939
335.621
335.311
335.009
334.713
334.426
334.145
333.872
333.606
333.347
333.095
332.85
332.612
332.382
332.158
331.941
331.731
331.527
331.331
331.141
330.959
330.783
330.613
330.451
330.295
330.146
330.004
329.868
329.739
329.617
329.501
329.392
329.289
329.194
329.105
329.022
328.946
328.877
328.814
328.758
328.709
328.666
328.63
328.6
328.577
328.56
328.55
328.547
397.64
393.003
388.583
384.476
380.73
377.35
374.319
371.607
369.175
366.989
365.015
363.222
361.585
360.082
358.694
357.406
356.204
355.077
354.016
353.014
352.063
351.159
350.295
349.468
348.675
347.912
347.177
346.468
345.781
345.117
344.473
343.848
343.24
342.649
342.074
341.513
340.967
340.434
339.914
339.407
338.911
338.427
337.955
337.493
337.041
336.6
336.169
335.748
335.336
334.934
334.541
334.157
333.782
333.416
333.059
332.71
332.37
332.038
331.715
331.4
331.094
330.795
330.505
330.223
329.949
329.683
329.425
329.175
328.933
328.698
328.472
328.253
328.043
327.84
327.645
327.457
327.278
327.106
326.942
326.786
326.637
326.496
326.362
326.237
326.119
326.008
325.906
325.811
325.723
325.643
325.571
325.506
325.449
325.4
325.358
325.324
325.297
325.278
325.267
325.263
397.863
393.646
389.579
385.737
382.165
378.878
375.875
373.139
370.648
368.378
366.302
364.398
362.644
361.021
359.513
358.106
356.786
355.545
354.372
353.261
352.204
351.196
350.232
349.308
348.42
347.565
346.741
345.944
345.172
344.425
343.7
342.996
342.311
341.645
340.996
340.364
339.747
339.146
338.559
337.986
337.426
336.88
336.345
335.823
335.313
334.814
334.327
333.851
333.385
332.93
332.486
332.051
331.627
331.213
330.809
330.415
330.03
329.655
329.289
328.933
328.586
328.248
327.919
327.6
327.29
326.989
326.697
326.414
326.14
325.875
325.618
325.371
325.133
324.903
324.682
324.47
324.267
324.072
323.887
323.709
323.541
323.382
323.231
323.088
322.955
322.83
322.713
322.606
322.507
322.416
322.334
322.261
322.197
322.141
322.093
322.055
322.024
322.003
321.99
321.985
398.032
394.137
390.351
386.731
383.316
380.125
377.164
374.428
371.903
369.573
367.421
365.427
363.575
361.85
360.236
358.722
357.296
355.949
354.673
353.459
352.302
351.196
350.136
349.119
348.139
347.195
346.284
345.402
344.548
343.719
342.915
342.133
341.373
340.633
339.912
339.209
338.523
337.854
337.201
336.563
335.939
335.33
334.735
334.154
333.585
333.029
332.486
331.955
331.436
330.929
330.433
329.949
329.476
329.014
328.563
328.123
327.694
327.275
326.867
326.47
326.082
325.706
325.339
324.983
324.637
324.301
323.975
323.659
323.353
323.057
322.771
322.495
322.229
321.973
321.726
321.49
321.263
321.046
320.838
320.641
320.453
320.275
320.106
319.947
319.798
319.659
319.529
319.409
319.298
319.197
319.106
319.024
318.952
318.889
318.837
318.793
318.76
318.736
318.721
318.716
398.163
394.52
390.957
387.521
384.243
381.144
378.232
375.508
372.966
370.595
368.384
366.318
364.384
362.57
360.864
359.255
357.733
356.289
354.916
353.607
352.356
351.157
350.006
348.899
347.831
346.801
345.805
344.841
343.906
342.998
342.117
341.259
340.425
339.612
338.82
338.047
337.293
336.557
335.838
335.136
334.45
333.78
333.124
332.484
331.857
331.245
330.646
330.061
329.489
328.93
328.383
327.849
327.328
326.818
326.321
325.836
325.362
324.901
324.45
324.012
323.585
323.169
322.765
322.372
321.99
321.619
321.259
320.911
320.573
320.247
319.931
319.627
319.333
319.05
318.778
318.517
318.266
318.027
317.798
317.58
317.372
317.176
316.99
316.814
316.65
316.496
316.353
316.22
316.098
315.986
315.886
315.795
315.716
315.647
315.589
315.541
315.504
315.477
315.461
315.455
398.266
394.822
391.439
388.154
384.993
381.977
379.114
376.41
373.861
371.462
369.205
367.081
365.078
363.188
361.401
359.706
358.097
356.564
355.102
353.704
352.364
351.077
349.839
348.647
347.495
346.382
345.304
344.26
343.247
342.262
341.305
340.373
339.466
338.582
337.72
336.878
336.057
335.255
334.472
333.707
332.959
332.227
331.512
330.813
330.13
329.461
328.808
328.168
327.544
326.933
326.336
325.753
325.183
324.627
324.083
323.553
323.036
322.531
322.039
321.56
321.093
320.639
320.197
319.767
319.35
318.944
318.551
318.17
317.801
317.444
317.099
316.766
316.445
316.136
315.838
315.553
315.279
315.017
314.766
314.528
314.301
314.086
313.883
313.691
313.511
313.342
313.186
313.041
312.907
312.785
312.675
312.576
312.489
312.414
312.35
312.298
312.257
312.228
312.211
312.205
398.348
395.062
391.824
388.663
385.602
382.658
379.842
377.158
374.609
372.19
369.898
367.726
365.665
363.709
361.85
360.079
358.39
356.777
355.232
353.75
352.327
350.957
349.637
348.362
347.13
345.937
344.781
343.659
342.569
341.51
340.479
339.475
338.496
337.542
336.612
335.703
334.816
333.949
333.102
332.274
331.465
330.673
329.899
329.143
328.402
327.679
326.971
326.278
325.601
324.94
324.293
323.661
323.043
322.44
321.851
321.276
320.715
320.168
319.634
319.114
318.608
318.115
317.636
317.17
316.717
316.277
315.851
315.438
315.037
314.65
314.276
313.914
313.566
313.23
312.907
312.597
312.3
312.016
311.744
311.486
311.239
311.006
310.785
310.577
310.382
310.199
310.029
309.872
309.727
309.595
309.475
309.368
309.274
309.192
309.122
309.066
309.022
308.99
308.971
308.964
398.413
395.254
392.133
389.074
386.096
383.214
380.439
377.776
375.229
372.797
370.476
368.263
366.153
364.139
362.216
360.377
358.616
356.927
355.306
353.747
352.245
350.797
349.398
348.045
346.736
345.466
344.234
343.037
341.873
340.741
339.638
338.564
337.516
336.493
335.495
334.52
333.568
332.638
331.728
330.838
329.969
329.118
328.286
327.472
326.676
325.897
325.135
324.39
323.662
322.949
322.253
321.572
320.907
320.258
319.623
319.004
318.4
317.811
317.236
316.676
316.13
315.599
315.083
314.581
314.093
313.619
313.159
312.714
312.282
311.865
311.461
311.072
310.696
310.334
309.986
309.652
309.332
309.026
308.733
308.454
308.188
307.937
307.699
307.475
307.264
307.067
306.884
306.714
306.558
306.415
306.286
306.171
306.069
305.981
305.906
305.845
305.797
305.763
305.743
305.736
398.465
395.408
392.381
389.405
386.495
383.666
380.926
378.283
375.739
373.295
370.951
368.704
366.55
364.485
362.505
360.603
358.776
357.019
355.327
353.695
352.119
350.597
349.123
347.696
346.312
344.969
343.664
342.394
341.159
339.956
338.783
337.639
336.523
335.434
334.37
333.331
332.315
331.321
330.35
329.4
328.471
327.562
326.672
325.802
324.95
324.117
323.302
322.505
321.726
320.963
320.218
319.489
318.777
318.081
317.402
316.739
316.092
315.46
314.845
314.245
313.66
313.092
312.538
312
311.477
310.969
310.477
309.999
309.537
309.09
308.657
308.24
307.837
307.449
307.076
306.718
306.375
306.046
305.732
305.433
305.149
304.879
304.624
304.384
304.158
303.947
303.75
303.568
303.401
303.248
303.11
302.986
302.877
302.782
302.702
302.637
302.585
302.549
302.527
302.519
398.507
395.531
392.58
389.671
386.817
384.031
381.321
378.693
376.152
373.699
371.335
369.057
366.865
364.754
362.722
360.763
358.876
357.054
355.296
353.596
351.951
350.358
348.814
347.315
345.86
344.446
343.07
341.731
340.426
339.154
337.913
336.702
335.52
334.365
333.237
332.134
331.055
330
328.968
327.959
326.971
326.004
325.058
324.132
323.226
322.339
321.472
320.623
319.793
318.981
318.187
317.411
316.652
315.911
315.187
314.48
313.79
313.118
312.461
311.822
311.199
310.592
310.002
309.428
308.871
308.33
307.804
307.295
306.802
306.325
305.864
305.418
304.989
304.575
304.178
303.796
303.429
303.079
302.744
302.425
302.122
301.834
301.562
301.305
301.064
300.839
300.629
300.435
300.257
300.094
299.946
299.814
299.698
299.597
299.511
299.441
299.387
299.348
299.325
299.316
398.54
395.629
392.738
389.883
387.075
384.323
381.637
379.021
376.482
374.02
371.637
369.332
367.104
364.952
362.872
360.861
358.917
357.037
355.216
353.452
351.741
350.081
348.47
346.903
345.38
343.898
342.454
341.047
339.674
338.336
337.029
335.753
334.506
333.287
332.095
330.93
329.79
328.674
327.583
326.515
325.469
324.446
323.444
322.463
321.503
320.563
319.644
318.744
317.864
317.003
316.161
315.338
314.533
313.747
312.979
312.229
311.497
310.783
310.086
309.408
308.746
308.102
307.476
306.867
306.275
305.7
305.142
304.602
304.078
303.572
303.082
302.609
302.153
301.714
301.291
300.885
300.497
300.124
299.769
299.43
299.108
298.802
298.513
298.24
297.984
297.745
297.522
297.316
297.126
296.953
296.797
296.656
296.533
296.425
296.335
296.26
296.202
296.161
296.136
296.128
398.566
395.706
392.863
390.05
387.277
384.553
381.885
379.278
376.738
374.267
371.866
369.536
367.276
365.085
362.961
360.902
358.905
356.969
355.089
353.265
351.492
349.769
348.093
346.462
344.873
343.325
341.815
340.342
338.905
337.502
336.13
334.79
333.48
332.199
330.946
329.719
328.519
327.344
326.194
325.068
323.966
322.887
321.83
320.795
319.782
318.79
317.819
316.869
315.94
315.03
314.141
313.271
312.421
311.59
310.778
309.985
309.212
308.457
307.72
307.003
306.303
305.623
304.96
304.316
303.69
303.082
302.492
301.92
301.366
300.83
300.312
299.812
299.329
298.865
298.418
297.989
297.577
297.183
296.807
296.448
296.107
295.784
295.478
295.19
294.919
294.666
294.43
294.212
294.011
293.828
293.662
293.513
293.382
293.269
293.173
293.094
293.033
292.989
292.963
292.954
398.586
395.766
392.96
390.18
387.434
384.73
382.075
379.474
376.931
374.45
372.031
369.676
367.386
365.158
362.993
360.888
358.843
356.854
354.919
353.037
351.206
349.422
347.684
345.991
344.339
342.728
341.155
339.619
338.118
336.652
335.218
333.816
332.444
331.102
329.788
328.502
327.243
326.01
324.802
323.62
322.462
321.327
320.216
319.128
318.063
317.02
315.998
314.999
314.02
313.063
312.126
311.21
310.315
309.44
308.585
307.75
306.935
306.14
305.364
304.608
303.871
303.153
302.455
301.776
301.116
300.475
299.854
299.251
298.667
298.102
297.555
297.028
296.519
296.029
295.558
295.106
294.672
294.256
293.859
293.481
293.122
292.781
292.458
292.154
291.868
291.601
291.353
291.123
290.911
290.718
290.543
290.386
290.248
290.128
290.027
289.944
289.88
289.833
289.806
289.796
398.602
395.811
393.034
390.278
387.552
384.862
382.215
379.616
377.068
374.575
372.139
369.76
367.44
365.178
362.974
360.826
358.734
356.695
354.708
352.772
350.884
349.042
347.246
345.492
343.78
342.108
340.474
338.876
337.315
335.787
334.292
332.83
331.398
329.996
328.623
327.279
325.962
324.672
323.408
322.17
320.957
319.768
318.604
317.463
316.346
315.252
314.181
313.132
312.106
311.101
310.118
309.157
308.217
307.298
306.4
305.524
304.668
303.832
303.017
302.223
301.449
300.695
299.961
299.248
298.555
297.881
297.228
296.594
295.981
295.387
294.813
294.258
293.723
293.208
292.713
292.237
291.781
291.344
290.927
290.53
290.152
289.793
289.454
289.134
288.834
288.553
288.292
288.05
287.827
287.624
287.44
287.275
287.13
287.004
286.898
286.811
286.743
286.694
286.665
286.655
398.613
395.845
393.087
390.348
387.636
384.955
382.312
379.711
377.157
374.651
372.196
369.794
367.445
365.15
362.908
360.719
358.582
356.496
354.459
352.471
350.529
348.632
346.779
344.968
343.197
341.466
339.773
338.116
336.495
334.908
333.354
331.832
330.342
328.882
327.452
326.05
324.676
323.33
322.011
320.718
319.451
318.21
316.993
315.801
314.633
313.489
312.368
311.271
310.197
309.146
308.117
307.111
306.127
305.165
304.225
303.307
302.41
301.535
300.682
299.849
299.038
298.249
297.48
296.733
296.006
295.3
294.615
293.951
293.308
292.686
292.084
291.503
290.942
290.403
289.883
289.384
288.906
288.448
288.011
287.594
287.198
286.822
286.466
286.131
285.817
285.522
285.248
284.994
284.761
284.548
284.355
284.182
284.03
283.898
283.786
283.695
283.624
283.573
283.542
283.532
398.621
395.867
393.123
390.395
387.691
385.014
382.371
379.766
377.202
374.682
372.208
369.782
367.405
365.077
362.799
360.571
358.391
356.259
354.175
352.136
350.143
348.193
346.285
344.418
342.592
340.804
339.053
337.339
335.66
334.015
332.404
330.825
329.277
327.76
326.273
324.816
323.387
321.986
320.612
319.266
317.946
316.652
315.384
314.141
312.923
311.729
310.561
309.416
308.295
307.197
306.123
305.073
304.045
303.041
302.059
301.1
300.163
299.249
298.357
297.488
296.64
295.815
295.012
294.23
293.471
292.733
292.017
291.323
290.651
290
289.371
288.763
288.177
287.613
287.07
286.548
286.048
285.569
285.112
284.676
284.261
283.868
283.496
283.146
282.817
282.509
282.222
281.957
281.712
281.489
281.288
281.107
280.948
280.81
280.693
280.598
280.523
280.47
280.438
280.427
398.625
395.881
393.144
390.422
387.721
385.045
382.398
379.785
377.209
374.673
372.179
369.729
367.324
364.965
362.652
360.385
358.164
355.988
353.858
351.771
349.728
347.726
345.766
343.846
341.965
340.122
338.315
336.545
334.81
333.109
331.442
329.807
328.204
326.631
325.089
323.577
322.094
320.639
319.212
317.813
316.441
315.096
313.777
312.484
311.217
309.975
308.758
307.566
306.399
305.256
304.138
303.043
301.973
300.926
299.903
298.903
297.927
296.974
296.045
295.138
294.255
293.394
292.556
291.742
290.95
290.18
289.434
288.71
288.008
287.329
286.673
286.039
285.428
284.839
284.273
283.728
283.207
282.707
282.23
281.775
281.343
280.932
280.544
280.179
279.835
279.514
279.215
278.938
278.683
278.45
278.24
278.051
277.885
277.741
277.619
277.519
277.442
277.386
277.353
277.341
398.627
395.886
393.152
390.432
387.729
385.049
382.396
379.773
377.183
374.63
372.115
369.64
367.207
364.817
362.469
360.165
357.904
355.686
353.51
351.377
349.286
347.235
345.224
343.251
341.318
339.421
337.561
335.737
333.947
332.192
330.47
328.78
327.122
325.496
323.9
322.334
320.797
319.29
317.811
316.36
314.937
313.541
312.173
310.83
309.515
308.225
306.961
305.723
304.51
303.323
302.16
301.023
299.91
298.821
297.758
296.718
295.703
294.712
293.745
292.802
291.882
290.987
290.115
289.268
288.443
287.643
286.866
286.112
285.382
284.675
283.992
283.333
282.696
282.083
281.493
280.927
280.383
279.863
279.367
278.893
278.443
278.016
277.612
277.231
276.873
276.538
276.227
275.938
275.673
275.431
275.211
275.015
274.842
274.692
274.565
274.461
274.38
274.323
274.288
274.276
398.627
395.885
393.15
390.426
387.719
385.032
382.368
379.733
377.128
374.556
372.019
369.519
367.058
364.636
362.254
359.913
357.613
355.354
353.136
350.957
348.819
346.72
344.659
342.637
340.652
338.704
336.792
334.914
333.072
331.263
329.488
327.745
326.034
324.354
322.705
321.087
319.499
317.94
316.409
314.908
313.435
311.989
310.572
309.181
307.818
306.481
305.171
303.887
302.63
301.398
300.192
299.012
297.857
296.728
295.624
294.545
293.491
292.462
291.458
290.479
289.524
288.594
287.689
286.809
285.952
285.121
284.314
283.531
282.773
282.038
281.329
280.643
279.982
279.345
278.732
278.143
277.579
277.039
276.522
276.03
275.562
275.118
274.698
274.302
273.931
273.583
273.259
272.959
272.684
272.432
272.204
272
271.82
271.664
271.532
271.424
271.34
271.28
271.244
271.231
398.625
395.878
393.137
390.407
387.692
384.994
382.319
379.669
377.046
374.454
371.894
369.369
366.879
364.426
362.011
359.634
357.296
354.996
352.735
350.513
348.329
346.184
344.075
342.004
339.97
337.971
336.008
334.079
332.185
330.324
328.497
326.702
324.939
323.208
321.507
319.838
318.198
316.588
315.008
313.457
311.935
310.44
308.975
307.537
306.126
304.743
303.388
302.059
300.757
299.482
298.233
297.011
295.815
294.645
293.501
292.383
291.291
290.225
289.185
288.17
287.18
286.217
285.278
284.365
283.478
282.616
281.779
280.967
280.18
279.419
278.683
277.972
277.286
276.626
275.99
275.379
274.794
274.233
273.698
273.187
272.702
272.241
271.806
271.395
271.009
270.648
270.312
270.001
269.715
269.454
269.218
269.006
268.82
268.658
268.521
268.409
268.321
268.259
268.221
268.208
398.621
395.866
393.117
390.377
387.65
384.94
382.25
379.583
376.942
374.328
371.745
369.193
366.674
364.19
361.742
359.329
356.953
354.614
352.312
350.047
347.819
345.628
343.473
341.354
339.271
337.223
335.211
333.232
331.287
329.376
327.498
325.652
323.839
322.057
320.306
318.586
316.897
315.237
313.608
312.008
310.437
308.895
307.382
305.897
304.441
303.012
301.612
300.239
298.893
297.575
296.284
295.021
293.784
292.574
291.391
290.235
289.105
288.002
286.926
285.876
284.852
283.854
282.883
281.938
281.02
280.127
279.261
278.421
277.606
276.818
276.056
275.32
274.61
273.926
273.268
272.635
272.029
271.449
270.894
270.365
269.862
269.385
268.934
268.509
268.109
267.736
267.388
267.066
266.769
266.499
266.254
266.035
265.841
265.674
265.532
265.416
265.325
265.261
265.222
265.208
398.615
395.85
393.088
390.336
387.596
384.871
382.164
379.479
376.817
374.181
371.572
368.994
366.446
363.931
361.449
359.001
356.588
354.21
351.868
349.561
347.29
345.054
342.854
340.689
338.559
336.463
334.402
332.374
330.381
328.42
326.492
324.597
322.734
320.902
319.102
317.333
315.594
313.887
312.209
310.561
308.943
307.354
305.794
304.264
302.762
301.288
299.844
298.427
297.039
295.679
294.346
293.042
291.765
290.516
289.294
288.1
286.933
285.794
284.682
283.597
282.539
281.509
280.505
279.529
278.579
277.657
276.761
275.893
275.051
274.237
273.449
272.688
271.954
271.246
270.566
269.912
269.285
268.685
268.111
267.565
267.045
266.552
266.085
265.645
265.232
264.845
264.486
264.152
263.846
263.566
263.313
263.086
262.886
262.713
262.566
262.446
262.353
262.286
262.245
262.232
398.609
395.829
393.054
390.286
387.53
384.788
382.063
379.358
376.674
374.014
371.38
368.774
366.197
363.65
361.135
358.653
356.203
353.787
351.405
349.057
346.743
344.464
342.22
340.009
337.833
335.691
333.582
331.507
329.465
327.457
325.48
323.536
321.625
319.745
317.896
316.079
314.293
312.537
310.812
309.117
307.452
305.817
304.212
302.636
301.09
299.573
298.084
296.625
295.195
293.793
292.42
291.075
289.759
288.471
287.211
285.979
284.776
283.601
282.453
281.334
280.243
279.18
278.144
277.137
276.157
275.205
274.281
273.384
272.515
271.675
270.861
270.076
269.318
268.588
267.885
267.21
266.563
265.943
265.351
264.786
264.25
263.74
263.258
262.804
262.378
261.978
261.607
261.263
260.946
260.657
260.396
260.162
259.955
259.776
259.625
259.501
259.404
259.335
259.293
259.279
398.601
395.805
393.013
390.229
387.455
384.694
381.949
379.222
376.515
373.83
371.17
368.536
365.929
363.351
360.803
358.286
355.8
353.346
350.925
348.536
346.181
343.86
341.572
339.317
337.096
334.908
332.753
330.632
328.543
326.487
324.463
322.472
320.513
318.585
316.689
314.825
312.992
311.189
309.418
307.677
305.966
304.286
302.636
301.016
299.426
297.865
296.334
294.833
293.361
291.918
290.505
289.12
287.765
286.439
285.142
283.873
282.634
281.423
280.241
279.088
277.964
276.868
275.801
274.763
273.753
272.772
271.819
270.895
270
269.133
268.295
267.485
266.703
265.95
265.226
264.53
263.863
263.224
262.613
262.031
261.477
260.952
260.455
259.987
259.547
259.135
258.752
258.397
258.071
257.773
257.503
257.262
257.049
256.864
256.708
256.58
256.48
256.409
256.366
256.351
398.592
395.778
392.968
390.165
387.371
384.59
381.823
379.073
376.342
373.632
370.945
368.282
365.645
363.035
360.454
357.902
355.38
352.889
350.429
348.001
345.606
343.242
340.912
338.614
336.348
334.116
331.916
329.749
327.614
325.512
323.442
321.404
319.399
317.425
315.482
313.572
311.692
309.844
308.027
306.241
304.486
302.761
301.067
299.403
297.77
296.167
294.594
293.051
291.538
290.055
288.602
287.179
285.785
284.421
283.087
281.782
280.507
279.262
278.046
276.859
275.702
274.575
273.477
272.408
271.369
270.359
269.378
268.427
267.505
266.612
265.749
264.915
264.111
263.336
262.59
261.873
261.186
260.528
259.899
259.3
258.729
258.188
257.677
257.194
256.741
256.317
255.922
255.557
255.221
254.914
254.636
254.387
254.168
253.978
253.817
253.685
253.582
253.509
253.464
253.449
398.582
395.749
392.918
390.095
387.28
384.476
381.687
378.913
376.156
373.42
370.705
368.013
365.346
362.705
360.09
357.504
354.946
352.418
349.92
347.453
345.018
342.613
340.241
337.9
335.592
333.316
331.072
328.86
326.68
324.533
322.418
320.334
318.283
316.264
314.276
312.32
310.395
308.502
306.641
304.81
303.011
301.243
299.505
297.799
296.123
294.478
292.864
291.28
289.727
288.205
286.712
285.251
283.819
282.418
281.048
279.707
278.397
277.117
275.868
274.648
273.459
272.3
271.171
270.073
269.004
267.966
266.958
265.98
265.032
264.114
263.226
262.369
261.541
260.744
259.977
259.24
258.533
257.856
257.209
256.592
256.006
255.449
254.923
254.427
253.96
253.524
253.118
252.742
252.396
252.08
251.794
251.539
251.313
251.117
250.952
250.816
250.71
250.635
250.589
250.573
398.571
395.717
392.865
390.019
387.182
384.355
381.541
378.742
375.96
373.197
370.453
367.732
365.034
362.361
359.713
357.092
354.499
351.935
349.4
346.894
344.419
341.974
339.561
337.178
334.828
332.508
330.221
327.966
325.742
323.55
321.391
319.263
317.167
315.103
313.071
311.07
309.102
307.165
305.259
303.385
301.543
299.731
297.952
296.203
294.486
292.8
291.145
289.521
287.929
286.367
284.837
283.337
281.869
280.431
279.025
277.649
276.304
274.991
273.708
272.456
271.235
270.045
268.886
267.758
266.66
265.594
264.559
263.554
262.58
261.638
260.726
259.845
258.995
258.176
257.387
256.63
255.904
255.208
254.544
253.91
253.307
252.736
252.195
251.685
251.206
250.757
250.34
249.954
249.598
249.274
248.98
248.717
248.485
248.284
248.114
247.974
247.866
247.788
247.741
247.725
398.56
395.683
392.808
389.939
387.078
384.227
381.388
378.563
375.754
372.963
370.191
367.44
364.711
362.005
359.325
356.67
354.042
351.441
348.868
346.325
343.811
341.326
338.872
336.449
334.057
331.696
329.366
327.068
324.801
322.566
320.363
318.191
316.052
313.944
311.868
309.824
307.812
305.831
303.883
301.966
300.081
298.228
296.407
294.617
292.859
291.132
289.438
287.774
286.143
284.543
282.975
281.438
279.933
278.46
277.018
275.608
274.229
272.882
271.566
270.283
269.03
267.81
266.621
265.464
264.338
263.244
262.181
261.151
260.152
259.184
258.249
257.345
256.472
255.632
254.823
254.046
253.3
252.586
251.904
251.254
250.635
250.048
249.493
248.969
248.478
248.018
247.589
247.192
246.827
246.494
246.193
245.923
245.685
245.478
245.303
245.16
245.049
244.969
244.921
244.904
398.548
395.647
392.748
389.855
386.969
384.093
381.228
378.376
375.54
372.72
369.919
367.138
364.377
361.64
358.926
356.237
353.574
350.937
348.328
345.747
343.194
340.671
338.177
335.714
333.281
330.878
328.507
326.166
323.857
321.58
319.334
317.12
314.937
312.787
310.668
308.581
306.526
304.504
302.513
300.554
298.628
296.733
294.871
293.041
291.242
289.476
287.742
286.04
284.371
282.733
281.128
279.555
278.014
276.505
275.028
273.584
272.172
270.792
269.444
268.129
266.846
265.595
264.377
263.191
262.037
260.916
259.827
258.771
257.747
256.755
255.796
254.869
253.975
253.113
252.283
251.487
250.722
249.99
249.291
248.624
247.99
247.388
246.818
246.281
245.777
245.305
244.866
244.459
244.085
243.743
243.434
243.157
242.913
242.701
242.522
242.375
242.261
242.179
242.129
242.112
398.536
395.61
392.686
389.767
386.856
383.953
381.062
378.183
375.318
372.47
369.639
366.827
364.036
361.266
358.519
355.796
353.098
350.426
347.78
345.162
342.571
340.009
337.477
334.973
332.5
330.057
327.645
325.263
322.913
320.593
318.306
316.049
313.825
311.632
309.472
307.343
305.247
303.182
301.15
299.15
297.183
295.248
293.345
291.475
289.638
287.832
286.06
284.32
282.613
280.938
279.296
277.687
276.111
274.567
273.056
271.578
270.133
268.721
267.342
265.995
264.682
263.402
262.154
260.94
259.759
258.611
257.496
256.414
255.365
254.35
253.367
252.418
251.502
250.619
249.77
248.954
248.171
247.421
246.704
246.021
245.371
244.755
244.171
243.621
243.105
242.621
242.171
241.754
241.371
241.02
240.703
240.42
240.17
239.953
239.769
239.619
239.501
239.418
239.367
239.35
398.523
395.571
392.621
389.677
386.739
383.809
380.89
377.984
375.09
372.213
369.352
366.509
363.686
360.884
358.104
355.347
352.615
349.907
347.225
344.57
341.943
339.343
336.771
334.229
331.716
329.234
326.781
324.359
321.968
319.607
317.278
314.981
312.715
310.482
308.28
306.11
303.973
301.867
299.795
297.755
295.747
293.772
291.83
289.921
288.045
286.201
284.391
282.614
280.869
279.158
277.481
275.836
274.225
272.647
271.103
269.592
268.114
266.67
265.26
263.883
262.54
261.23
259.954
258.712
257.504
256.329
255.189
254.082
253.009
251.97
250.964
249.993
249.056
248.152
247.283
246.448
245.646
244.879
244.146
243.446
242.781
242.15
241.553
240.99
240.461
239.966
239.505
239.078
238.686
238.327
238.003
237.713
237.456
237.234
237.046
236.892
236.772
236.686
236.635
236.617
398.51
395.531
392.555
389.584
386.618
383.662
380.715
377.779
374.857
371.95
369.059
366.185
363.33
360.496
357.683
354.893