/*--------------------------------*- C++ -*----------------------------------*\
  =========                 |
  \\      /  F ield         | OpenFOAM: The Open Source CFD Toolbox
   \\    /   O peration     | Website:  https://openfoam.org
    \\  /    A nd           | Version:  10
     \\/     M anipulation  |
\*---------------------------------------------------------------------------*/
FoamFile
{
    format      ascii;
    class       volScalarField;
    location    "25";
    object      ddt0(T);
}
// * * * * * * * * * * * * * * * * * * * * * * * * * * * * * * * * * * * * * //

dimensions      [0 0 -1 1 0 0 0];

internalField   nonuniform List<scalar> 
10000
(
1292.36
257.854
361.995
365.86
364.827
364.835
364.895
364.912
364.916
364.918
364.92
364.922
364.924
364.926
364.927
364.929
364.93
364.932
364.934
364.935
364.937
364.938
364.939
364.941
364.942
364.944
364.945
364.946
364.947
364.949
364.95
364.951
364.952
364.953
364.955
364.956
364.957
364.958
364.959
364.96
364.961
364.962
364.963
364.964
364.964
364.965
364.966
364.967
364.968
364.968
364.969
364.97
364.97
364.971
364.972
364.972
364.973
364.973
364.974
364.974
364.975
364.975
364.975
364.976
364.976
364.977
364.977
364.977
364.977
364.978
364.978
364.978
364.979
364.979
364.979
364.979
364.979
364.979
364.98
364.98
364.98
364.98
364.98
364.98
364.98
364.98
364.98
364.981
364.981
364.981
364.981
364.981
364.981
364.98
364.981
364.998
365.111
364.663
348.701
332.975
329.241
-276.986
-115.564
-119.381
-122.766
-122.909
-122.825
-122.804
-122.799
-122.794
-122.79
-122.785
-122.78
-122.775
-122.77
-122.766
-122.761
-122.756
-122.752
-122.747
-122.743
-122.739
-122.734
-122.73
-122.726
-122.722
-122.718
-122.714
-122.71
-122.706
-122.703
-122.699
-122.695
-122.692
-122.688
-122.685
-122.682
-122.679
-122.676
-122.673
-122.67
-122.667
-122.664
-122.661
-122.659
-122.656
-122.654
-122.652
-122.649
-122.647
-122.645
-122.643
-122.641
-122.639
-122.637
-122.636
-122.634
-122.633
-122.631
-122.63
-122.628
-122.627
-122.626
-122.624
-122.623
-122.622
-122.621
-122.62
-122.619
-122.619
-122.618
-122.617
-122.616
-122.616
-122.615
-122.615
-122.614
-122.614
-122.613
-122.613
-122.612
-122.612
-122.612
-122.611
-122.611
-122.611
-122.611
-122.61
-122.61
-122.61
-122.61
-122.61
-122.61
-122.61
-122.612
-122.595
-122.396
-121.791
-126.666
-108.527
414.298
-134.527
21.6643
14.2129
10.3863
10.2963
10.4113
10.4402
10.4489
10.4565
10.4645
10.4727
10.4807
10.4887
10.4967
10.5045
10.5123
10.52
10.5276
10.5351
10.5424
10.5497
10.5569
10.5639
10.5709
10.5777
10.5844
10.591
10.5974
10.6038
10.61
10.6161
10.622
10.6278
10.6335
10.6391
10.6445
10.6498
10.6549
10.6599
10.6648
10.6695
10.6741
10.6785
10.6828
10.687
10.6911
10.6949
10.6987
10.7023
10.7058
10.7092
10.7124
10.7156
10.7185
10.7214
10.7241
10.7268
10.7293
10.7317
10.7339
10.7361
10.7382
10.7401
10.742
10.7438
10.7455
10.747
10.7485
10.7499
10.7513
10.7525
10.7537
10.7548
10.7558
10.7567
10.7576
10.7585
10.7592
10.7599
10.7606
10.7612
10.7617
10.7622
10.7627
10.7631
10.7635
10.7638
10.7641
10.7644
10.7646
10.7648
10.7648
10.7636
10.7575
10.7486
10.8412
11.2575
7.98339
12.3187
417.797
-137.415
15.2291
7.02226
3.19573
3.14602
3.27466
3.30834
3.32027
3.33115
3.34246
3.35381
3.36509
3.37626
3.38733
3.39829
3.40913
3.41985
3.43043
3.44088
3.45119
3.46135
3.47136
3.48121
3.49091
3.50045
3.50983
3.51904
3.52807
3.53694
3.54562
3.55413
3.56245
3.57059
3.57855
3.58631
3.59388
3.60127
3.60845
3.61545
3.62225
3.62886
3.63527
3.64149
3.64751
3.65334
3.65898
3.66444
3.6697
3.67477
3.67966
3.68437
3.6889
3.69325
3.69742
3.70142
3.70526
3.70892
3.71243
3.71577
3.71897
3.722
3.7249
3.72764
3.73025
3.73272
3.73506
3.73727
3.73936
3.74132
3.74318
3.74491
3.74655
3.74807
3.7495
3.75084
3.75208
3.75323
3.7543
3.75529
3.7562
3.75704
3.75781
3.75851
3.75915
3.75972
3.76024
3.7607
3.76111
3.76147
3.76179
3.76211
3.76242
3.76211
3.75727
3.74124
3.77023
4.14435
3.77808
3.91397
416.963
-140.321
11.8782
3.66787
-0.114684
-0.145668
-0.0108038
0.0263601
0.0414844
0.0555927
0.0701397
0.0847188
0.0991935
0.113544
0.127763
0.141842
0.155771
0.169541
0.183145
0.196573
0.209821
0.222882
0.23575
0.248421
0.26089
0.273152
0.285202
0.297037
0.308651
0.320041
0.331204
0.342135
0.352831
0.363289
0.373507
0.383482
0.393212
0.402695
0.41193
0.420917
0.429653
0.43814
0.446377
0.454364
0.462103
0.469595
0.47684
0.483841
0.4906
0.497118
0.503399
0.509445
0.51526
0.520846
0.526208
0.531349
0.536272
0.540982
0.545484
0.549782
0.55388
0.557783
0.561496
0.565024
0.568372
0.571545
0.574548
0.577387
0.580067
0.582593
0.58497
0.587203
0.589299
0.591261
0.593096
0.594808
0.596402
0.597883
0.599256
0.600526
0.601697
0.602773
0.603759
0.604659
0.605477
0.606217
0.606882
0.607475
0.608
0.608459
0.608862
0.609248
0.609734
0.610277
0.608553
0.594847
0.570855
0.661219
0.726465
0.67417
416.975
-140.445
11.796
3.62366
-0.140422
-0.164336
-0.0257451
0.014635
0.0329824
0.0503325
0.0681135
0.0859076
0.103574
0.121091
0.138449
0.155637
0.172643
0.189457
0.206067
0.222465
0.238642
0.254592
0.270308
0.285782
0.30101
0.315984
0.3307
0.345152
0.359335
0.373244
0.386875
0.400222
0.413283
0.426052
0.438528
0.450707
0.462587
0.474165
0.48544
0.496411
0.507078
0.517439
0.527495
0.537246
0.546694
0.55584
0.564685
0.573231
0.581482
0.589439
0.597107
0.604488
0.611586
0.618405
0.624949
0.631224
0.637234
0.642984
0.648479
0.653724
0.658726
0.66349
0.668022
0.672328
0.676414
0.680286
0.683952
0.687416
0.690687
0.693769
0.69667
0.699395
0.701952
0.704347
0.706586
0.708674
0.710619
0.712427
0.714102
0.715651
0.717079
0.718392
0.719596
0.720694
0.721692
0.722594
0.723405
0.724129
0.724769
0.725328
0.725807
0.72623
0.726709
0.727534
0.728423
0.724791
0.708111
0.704986
0.716774
0.733485
417.027
-140.372
11.8965
3.73733
-0.0205712
-0.0407578
0.101062
0.144659
0.166249
0.186839
0.207845
0.228844
0.249691
0.270363
0.290848
0.311133
0.331204
0.351048
0.370654
0.390009
0.409105
0.427933
0.446484
0.464751
0.482727
0.500404
0.517775
0.534835
0.551577
0.567996
0.584085
0.59984
0.615256
0.630328
0.645054
0.659428
0.67345
0.687115
0.700423
0.713371
0.725959
0.738187
0.750055
0.761564
0.772713
0.783507
0.793945
0.804031
0.813767
0.823158
0.832206
0.840916
0.849292
0.857338
0.865061
0.872465
0.879556
0.886341
0.892824
0.899013
0.904915
0.910536
0.915882
0.920963
0.925783
0.930352
0.934676
0.938764
0.942621
0.946257
0.949679
0.952894
0.95591
0.958735
0.961375
0.963839
0.966133
0.968264
0.97024
0.972066
0.973751
0.975299
0.976718
0.978013
0.979189
0.980253
0.981209
0.982063
0.982818
0.983477
0.98404
0.984508
0.984924
0.985504
0.98662
0.987362
0.983284
0.974384
0.961927
0.991006
417.041
-140.353
11.9228
3.76825
0.0138387
-0.00312694
0.141912
0.18875
0.213583
0.237404
0.261623
0.285813
0.309828
0.333641
0.35724
0.380609
0.403733
0.426595
0.449183
0.471483
0.493486
0.515179
0.536555
0.557603
0.578315
0.598683
0.618699
0.638355
0.657646
0.676563
0.695101
0.713253
0.731014
0.748379
0.765344
0.781905
0.798059
0.813802
0.829132
0.844049
0.858551
0.872638
0.886309
0.899566
0.91241
0.924843
0.936867
0.948485
0.9597
0.970517
0.980939
0.990971
1.00062
1.00989
1.01878
1.02731
1.03548
1.04329
1.05076
1.05788
1.06468
1.07115
1.07731
1.08316
1.08871
1.09397
1.09895
1.10366
1.1081
1.11229
1.11623
1.11993
1.1234
1.12665
1.12969
1.13253
1.13517
1.13762
1.13989
1.142
1.14394
1.14572
1.14735
1.14884
1.15019
1.15142
1.15252
1.1535
1.15437
1.15513
1.15578
1.15632
1.15675
1.15714
1.15776
1.15886
1.15938
1.15567
1.13792
1.17058
417.045
-140.348
11.9313
3.78015
0.0289516
0.0152125
0.163495
0.213577
0.241643
0.268681
0.296098
0.323464
0.350632
0.377573
0.404271
0.430709
0.45687
0.482736
0.508291
0.533523
0.558417
0.582963
0.607149
0.630964
0.6544
0.677446
0.700094
0.722335
0.744161
0.765564
0.786538
0.807076
0.827171
0.846817
0.866011
0.884747
0.903021
0.920832
0.938175
0.95505
0.971455
0.987391
1.00286
1.01785
1.03238
1.04645
1.06005
1.07319
1.08587
1.09811
1.1099
1.12124
1.13216
1.14264
1.1527
1.16234
1.17158
1.18042
1.18886
1.19692
1.20461
1.21193
1.21889
1.2255
1.23178
1.23773
1.24336
1.24868
1.2537
1.25843
1.26289
1.26707
1.271
1.27467
1.27811
1.28131
1.2843
1.28707
1.28964
1.29202
1.29421
1.29622
1.29807
1.29975
1.30128
1.30266
1.3039
1.30501
1.306
1.30685
1.3076
1.30822
1.30872
1.30908
1.30943
1.31012
1.31159
1.3111
1.28706
1.32764
417.047
-140.343
11.9391
3.79113
0.043165
0.0326704
0.184195
0.237511
0.268794
0.299034
0.329632
0.360157
0.390462
0.420513
0.450293
0.479784
0.508965
0.537818
0.566326
0.594472
0.622243
0.649625
0.676606
0.703174
0.729318
0.755027
0.780292
0.805103
0.829451
0.853327
0.876724
0.899633
0.922048
0.943963
0.965373
0.986271
1.00665
1.02652
1.04586
1.06469
1.08298
1.10076
1.11801
1.13473
1.15094
1.16662
1.18179
1.19644
1.21059
1.22424
1.23738
1.25003
1.2622
1.27389
1.28511
1.29586
1.30616
1.31601
1.32543
1.33442
1.34298
1.35114
1.35891
1.36628
1.37328
1.37991
1.38618
1.39211
1.39771
1.40299
1.40795
1.41261
1.41699
1.42108
1.42491
1.42848
1.43181
1.4349
1.43776
1.44041
1.44285
1.44509
1.44715
1.44902
1.45072
1.45227
1.45365
1.45488
1.45598
1.45693
1.45776
1.45846
1.45903
1.45946
1.45975
1.46017
1.46187
1.46365
1.4311
1.48206
417.049
-140.339
11.9471
3.80248
0.0577548
0.0504977
0.205251
0.261782
0.296265
0.329687
0.363448
0.397115
0.430536
0.463679
0.496523
0.529048
0.561232
0.593054
0.624495
0.655539
0.686168
0.716369
0.746128
0.775431
0.804267
0.832623
0.860489
0.887854
0.914708
0.941042
0.966846
0.992112
1.01683
1.041
1.06461
1.08766
1.11014
1.13205
1.15338
1.17413
1.19431
1.21391
1.23293
1.25137
1.26924
1.28654
1.30326
1.31942
1.33502
1.35006
1.36455
1.3785
1.39192
1.40481
1.41717
1.42903
1.44038
1.45124
1.46162
1.47153
1.48097
1.48996
1.49852
1.50665
1.51436
1.52166
1.52858
1.53511
1.54128
1.54709
1.55256
1.5577
1.56252
1.56703
1.57125
1.57518
1.57885
1.58225
1.5854
1.58832
1.59101
1.59348
1.59574
1.5978
1.59968
1.60137
1.6029
1.60426
1.60546
1.60651
1.60742
1.6082
1.60883
1.60932
1.60962
1.60993
1.61176
1.6157
1.57445
1.63575
417.051
-140.334
11.9553
3.81387
0.0723655
0.0683283
0.226291
0.286017
0.32368
0.360263
0.397167
0.433954
0.470473
0.506686
0.542574
0.578112
0.613278
0.648049
0.682404
0.716325
0.749794
0.782795
0.815313
0.847333
0.878842
0.909828
0.940277
0.970179
0.999521
1.0283
1.05649
1.0841
1.11111
1.13752
1.16331
1.18849
1.21305
1.23699
1.26029
1.28297
1.30501
1.32642
1.3472
1.36735
1.38687
1.40576
1.42403
1.44168
1.45872
1.47515
1.49098
1.50622
1.52087
1.53494
1.54845
1.56139
1.57379
1.58565
1.59699
1.6078
1.61812
1.62794
1.63728
1.64615
1.65457
1.66255
1.6701
1.67723
1.68396
1.69031
1.69628
1.70188
1.70714
1.71207
1.71667
1.72096
1.72496
1.72867
1.73211
1.73529
1.73822
1.74092
1.74339
1.74564
1.74768
1.74953
1.75119
1.75268
1.75399
1.75514
1.75613
1.75697
1.75767
1.75821
1.75854
1.75877
1.7607
1.76662
1.71776
1.78812
417.053
-140.329
11.9634
3.82517
0.0868775
0.0860384
0.247188
0.310086
0.350907
0.39063
0.430654
0.470539
0.510132
0.549394
0.588303
0.626833
0.664959
0.702657
0.739905
0.776682
0.812969
0.848749
0.884006
0.918723
0.952886
0.986481
1.01949
1.05191
1.08373
1.11492
1.14549
1.17542
1.2047
1.23333
1.2613
1.28859
1.31522
1.34116
1.36643
1.39101
1.4149
1.43811
1.46063
1.48247
1.50362
1.5241
1.5439
1.56303
1.5815
1.59931
1.61646
1.63297
1.64885
1.6641
1.67874
1.69277
1.7062
1.71905
1.73133
1.74305
1.75422
1.76486
1.77498
1.78459
1.79371
1.80235
1.81053
1.81826
1.82555
1.83242
1.83888
1.84495
1.85065
1.85598
1.86096
1.86561
1.86994
1.87395
1.87768
1.88112
1.88429
1.88721
1.88988
1.89232
1.89453
1.89653
1.89833
1.89993
1.90135
1.90259
1.90367
1.90458
1.90533
1.90592
1.90628
1.90647
1.90843
1.91599
1.86112
1.93878
417.054
-140.324
11.9714
3.83638
0.101272
0.103608
0.267919
0.333967
0.37792
0.420759
0.463878
0.506837
0.54948
0.591767
0.633673
0.67517
0.716233
0.756834
0.796952
0.836562
0.875645
0.914182
0.952155
0.989547
1.02634
1.06253
1.09808
1.133
1.16726
1.20086
1.23378
1.26601
1.29755
1.32838
1.3585
1.38789
1.41656
1.4445
1.47171
1.49817
1.5239
1.54889
1.57314
1.59666
1.61944
1.64148
1.6628
1.6834
1.70328
1.72245
1.74092
1.75869
1.77578
1.7922
1.80795
1.82306
1.83751
1.85135
1.86456
1.87717
1.8892
1.90065
1.91153
1.92188
1.93169
1.94099
1.94978
1.9581
1.96594
1.97333
1.98028
1.98681
1.99294
1.99867
2.00403
2.00902
2.01368
2.018
2.022
2.0257
2.02911
2.03225
2.03512
2.03774
2.04011
2.04226
2.0442
2.04592
2.04744
2.04878
2.04993
2.05091
2.05172
2.05236
2.05275
2.05291
2.05486
2.06363
2.00443
2.08759
417.056
-140.319
11.9793
3.8475
0.115543
0.121027
0.288475
0.357645
0.404705
0.450633
0.496821
0.542828
0.588495
0.633781
0.678657
0.723097
0.76707
0.810551
0.853512
0.895931
0.937786
0.979056
1.01972
1.05977
1.09917
1.13792
1.176
1.21339
1.25008
1.28606
1.32131
1.35582
1.38959
1.42261
1.45486
1.48633
1.51703
1.54694
1.57607
1.60441
1.63196
1.65871
1.68467
1.70985
1.73423
1.75783
1.78065
1.8027
1.82398
1.8445
1.86427
1.8833
1.90159
1.91916
1.93602
1.95218
1.96765
1.98245
1.9966
2.01009
2.02296
2.03521
2.04685
2.05792
2.06842
2.07836
2.08777
2.09666
2.10505
2.11295
2.12039
2.12737
2.13392
2.14005
2.14578
2.15112
2.15609
2.16071
2.16499
2.16894
2.17259
2.17594
2.17901
2.1818
2.18435
2.18664
2.18871
2.19055
2.19218
2.1936
2.19483
2.19587
2.19674
2.19742
2.19785
2.198
2.19992
2.20946
2.14754
2.23449
417.058
-140.314
11.9872
3.85851
0.129682
0.138286
0.308842
0.381106
0.431245
0.480234
0.529463
0.57849
0.627153
0.675409
0.72323
0.770584
0.817442
0.863774
0.909554
0.954755
0.999356
1.04333
1.08667
1.12934
1.17133
1.21262
1.25319
1.29303
1.33213
1.37047
1.40803
1.4448
1.48078
1.51596
1.55032
1.58385
1.61656
1.64843
1.67946
1.70965
1.739
1.7675
1.79515
1.82197
1.84794
1.87308
1.89739
1.92087
1.94354
1.96539
1.98645
2.00671
2.02619
2.0449
2.06286
2.08006
2.09654
2.1123
2.12735
2.14172
2.15542
2.16846
2.18086
2.19264
2.20381
2.21439
2.22441
2.23387
2.2428
2.2512
2.25912
2.26655
2.27351
2.28003
2.28613
2.29181
2.2971
2.30201
2.30656
2.31076
2.31464
2.3182
2.32146
2.32443
2.32713
2.32957
2.33177
2.33372
2.33545
2.33697
2.33828
2.33939
2.34031
2.34103
2.3415
2.34165
2.34353
2.35346
2.2902
2.37943
417.059
-140.31
11.995
3.8694
0.14368
0.155374
0.329008
0.404336
0.457523
0.509543
0.561784
0.6138
0.66543
0.716628
0.767363
0.817603
0.867317
0.916472
0.965042
1.013
1.06032
1.10698
1.15295
1.19822
1.24277
1.28657
1.32962
1.37189
1.41337
1.45404
1.49388
1.5329
1.57107
1.60838
1.64483
1.6804
1.71509
1.7489
1.78181
1.81383
1.84496
1.87519
1.90452
1.93296
1.9605
1.98716
2.01294
2.03784
2.06188
2.08505
2.10738
2.12886
2.14952
2.16935
2.18839
2.20663
2.2241
2.2408
2.25676
2.27199
2.28651
2.30033
2.31347
2.32595
2.33779
2.349
2.35961
2.36964
2.37909
2.388
2.39638
2.40425
2.41163
2.41853
2.42498
2.431
2.4366
2.4418
2.44661
2.45106
2.45517
2.45893
2.46238
2.46553
2.46839
2.47097
2.47329
2.47536
2.47719
2.4788
2.48018
2.48135
2.48233
2.4831
2.48359
2.48376
2.48559
2.4956
2.43218
2.5224
417.061
-140.305
12.0028
3.88018
0.157528
0.17228
0.348959
0.42732
0.483524
0.538543
0.593763
0.648739
0.703304
0.757412
0.811031
0.864127
0.916666
0.968615
1.01995
1.07063
1.12064
1.16995
1.21853
1.26638
1.31346
1.35975
1.40524
1.44991
1.49374
1.53672
1.57883
1.62006
1.66039
1.69982
1.73833
1.77592
1.81257
1.84829
1.88307
1.9169
1.94978
1.98172
2.01271
2.04275
2.07185
2.10001
2.12724
2.15355
2.17893
2.20341
2.22699
2.24968
2.27149
2.29244
2.31254
2.33181
2.35025
2.36789
2.38474
2.40082
2.41614
2.43073
2.4446
2.45778
2.47027
2.48211
2.4933
2.50388
2.51386
2.52326
2.5321
2.5404
2.54818
2.55547
2.56227
2.56861
2.57452
2.58
2.58508
2.58977
2.59409
2.59807
2.6017
2.60502
2.60803
2.61075
2.6132
2.61538
2.61731
2.61899
2.62045
2.62169
2.62271
2.62353
2.62406
2.62425
2.62602
2.63586
2.57324
2.66338
417.063
-140.301
12.0104
3.89083
0.171218
0.188994
0.368685
0.450044
0.509232
0.567216
0.625383
0.683285
0.740753
0.797739
0.85421
0.910129
0.965462
1.02017
1.07423
1.12761
1.18028
1.23221
1.28338
1.33377
1.38335
1.4321
1.48001
1.52706
1.57321
1.61847
1.66282
1.70623
1.7487
1.79022
1.83077
1.87035
1.90895
1.94655
1.98317
2.01879
2.05341
2.08703
2.11966
2.15128
2.18192
2.21156
2.24023
2.26792
2.29464
2.3204
2.34522
2.3691
2.39205
2.4141
2.43525
2.45552
2.47493
2.49349
2.51121
2.52813
2.54425
2.5596
2.57419
2.58804
2.60118
2.61363
2.62541
2.63653
2.64702
2.6569
2.66619
2.67492
2.6831
2.69076
2.69791
2.70457
2.71078
2.71653
2.72187
2.7268
2.73134
2.73551
2.73933
2.74281
2.74597
2.74883
2.7514
2.75369
2.75571
2.75748
2.75901
2.76031
2.76139
2.76224
2.76281
2.76303
2.76474
2.77421
2.71316
2.80236
417.064
-140.296
12.0179
3.90136
0.184744
0.205508
0.388176
0.472498
0.534634
0.595549
0.656628
0.717421
0.777758
0.837588
0.896877
0.955587
1.01368
1.07112
1.12788
1.18392
1.23921
1.29374
1.34746
1.40036
1.45241
1.5036
1.5539
1.60328
1.65174
1.69925
1.7458
1.79138
1.83596
1.87954
1.92211
1.96365
2.00416
2.04364
2.08207
2.11945
2.15579
2.19107
2.22531
2.2585
2.29065
2.32176
2.35184
2.38089
2.40893
2.43596
2.46199
2.48705
2.51113
2.53426
2.55644
2.57771
2.59806
2.61753
2.63612
2.65386
2.67076
2.68685
2.70215
2.71668
2.73046
2.74351
2.75585
2.7675
2.7785
2.78885
2.79859
2.80774
2.81631
2.82432
2.83181
2.8388
2.84529
2.85132
2.85691
2.86207
2.86682
2.87119
2.87519
2.87883
2.88214
2.88513
2.88782
2.89021
2.89233
2.89418
2.89578
2.89714
2.89827
2.89916
2.89977
2.90003
2.90167
2.91062
2.85171
2.93932
417.066
-140.292
12.0254
3.91175
0.198098
0.221814
0.407421
0.49467
0.559717
0.623527
0.687483
0.75113
0.8143
0.87694
0.939011
1.00048
1.0613
1.12143
1.18085
1.23952
1.29741
1.35449
1.41074
1.46612
1.52061
1.5742
1.62685
1.67855
1.72928
1.77902
1.82775
1.87545
1.92212
1.96774
2.01229
2.05577
2.09817
2.13949
2.17971
2.21884
2.25686
2.29379
2.32962
2.36435
2.39799
2.43054
2.46201
2.49241
2.52174
2.55002
2.57726
2.60347
2.62866
2.65285
2.67606
2.6983
2.71959
2.73994
2.75939
2.77793
2.79561
2.81244
2.82843
2.84362
2.85802
2.87166
2.88456
2.89674
2.90823
2.91905
2.92922
2.93877
2.94773
2.9561
2.96392
2.97122
2.978
2.9843
2.99013
2.99551
3.00047
3.00503
3.0092
3.01301
3.01646
3.01958
3.02238
3.02488
3.02709
3.02902
3.03069
3.0321
3.03328
3.03421
3.03486
3.03515
3.03673
3.04506
2.9887
3.07423
417.067
-140.287
12.0327
3.922
0.211276
0.237905
0.426413
0.51655
0.584471
0.651138
0.717932
0.784398
0.850363
0.915775
0.980593
1.04478
1.10829
1.17109
1.23313
1.2944
1.35485
1.41445
1.47318
1.53101
1.58792
1.64387
1.69885
1.75283
1.8058
1.85773
1.9086
1.95841
2.00714
2.05476
2.10128
2.14667
2.19093
2.23406
2.27605
2.31689
2.35658
2.39513
2.43252
2.46877
2.50388
2.53786
2.5707
2.60242
2.63303
2.66254
2.69096
2.71831
2.74459
2.76983
2.79404
2.81724
2.83944
2.86068
2.88095
2.9003
2.91873
2.93628
2.95296
2.96879
2.9838
2.99802
3.01147
3.02416
3.03614
3.04741
3.05802
3.06797
3.07729
3.08602
3.09417
3.10176
3.10882
3.11538
3.12145
3.12706
3.13222
3.13697
3.14131
3.14526
3.14886
3.1521
3.15502
3.15761
3.15991
3.16192
3.16366
3.16513
3.16635
3.16733
3.168
3.16834
3.16985
3.17751
3.12394
3.20709
417.068
-140.283
12.0399
3.93212
0.224271
0.253773
0.445143
0.53813
0.608884
0.678369
0.747963
0.817208
0.885931
0.954077
1.0216
1.08847
1.15463
1.22006
1.2847
1.34852
1.4115
1.47359
1.53477
1.59501
1.65429
1.71258
1.76985
1.82608
1.88125
1.93535
1.98834
2.04022
2.09097
2.14057
2.18902
2.2363
2.2824
2.32731
2.37104
2.41357
2.4549
2.49504
2.53398
2.57173
2.60828
2.64365
2.67785
2.71087
2.74274
2.77346
2.80304
2.8315
2.85886
2.88513
2.91033
2.93447
2.95757
2.97967
3.00076
3.02089
3.04007
3.05832
3.07567
3.09214
3.10775
3.12254
3.13652
3.14972
3.16217
3.17389
3.18491
3.19525
3.20494
3.21401
3.22248
3.23037
3.2377
3.24451
3.25082
3.25664
3.262
3.26692
3.27143
3.27554
3.27927
3.28263
3.28566
3.28835
3.29074
3.29282
3.29462
3.29615
3.29742
3.29843
3.29914
3.29952
3.30096
3.30791
3.25728
3.33785
417.07
-140.279
12.0471
3.94208
0.23708
0.269414
0.463604
0.559399
0.632947
0.70521
0.777563
0.849548
0.920989
0.99183
1.06203
1.13154
1.20032
1.26832
1.33552
1.40186
1.46733
1.53187
1.59547
1.65809
1.71971
1.7803
1.83982
1.89827
1.95562
2.01184
2.06692
2.12084
2.17359
2.22514
2.27549
2.32462
2.37253
2.4192
2.46464
2.50883
2.55178
2.59348
2.63394
2.67316
2.71113
2.74788
2.7834
2.81771
2.85081
2.88272
2.91344
2.94301
2.97142
2.9987
3.02486
3.04993
3.07392
3.09686
3.11876
3.13965
3.15956
3.1785
3.19651
3.2136
3.2298
3.24514
3.25965
3.27334
3.28625
3.29841
3.30984
3.32057
3.33062
3.34001
3.34879
3.35697
3.36457
3.37163
3.37816
3.38419
3.38975
3.39484
3.39951
3.40376
3.40762
3.41111
3.41424
3.41703
3.4195
3.42166
3.42352
3.4251
3.42642
3.42746
3.42821
3.42862
3.43
3.43624
3.38858
3.4665
417.071
-140.274
12.0541
3.9519
0.249696
0.28482
0.481789
0.58035
0.65665
0.731649
0.80672
0.881403
0.955522
1.02902
1.10184
1.17396
1.24531
1.31587
1.38558
1.45441
1.52232
1.58928
1.65526
1.72022
1.78414
1.84699
1.90874
1.96938
2.02886
2.08718
2.14431
2.20024
2.25495
2.30842
2.36064
2.41159
2.46128
2.50968
2.5568
2.60263
2.64717
2.69041
2.73236
2.77302
2.8124
2.85049
2.88732
2.92288
2.9572
2.99027
3.02212
3.05276
3.08221
3.11048
3.13759
3.16357
3.18843
3.21219
3.23488
3.25653
3.27715
3.29677
3.31542
3.33312
3.34989
3.36578
3.3808
3.39497
3.40834
3.42092
3.43275
3.44385
3.45425
3.46397
3.47305
3.48151
3.48937
3.49667
3.50342
3.50966
3.5154
3.52067
3.52549
3.52988
3.53387
3.53747
3.54071
3.54359
3.54614
3.54837
3.55029
3.55192
3.55328
3.55436
3.55514
3.55559
3.55691
3.56245
3.51771
3.59299
417.073
-140.27
12.061
3.96156
0.262117
0.299986
0.499691
0.600974
0.679984
0.757676
0.835422
0.912762
0.989517
1.06562
1.14104
1.21572
1.28961
1.36267
1.43485
1.50613
1.57645
1.64579
1.71411
1.78138
1.84756
1.91264
1.97658
2.03936
2.10095
2.16133
2.22048
2.27838
2.33502
2.39037
2.44443
2.49718
2.54861
2.59872
2.64749
2.69493
2.74102
2.78578
2.8292
2.87128
2.91202
2.95145
2.98955
3.02635
3.06186
3.09608
3.12903
3.16073
3.19119
3.22043
3.24847
3.27534
3.30105
3.32562
3.34909
3.37147
3.39279
3.41307
3.43235
3.45064
3.46798
3.4844
3.49992
3.51456
3.52837
3.54137
3.55359
3.56505
3.57579
3.58583
3.5952
3.60393
3.61205
3.61957
3.62654
3.63298
3.6389
3.64433
3.64931
3.65384
3.65795
3.66166
3.66499
3.66796
3.67059
3.67289
3.67487
3.67656
3.67795
3.67907
3.67987
3.68037
3.68163
3.6865
3.64457
3.71729
417.074
-140.266
12.0678
3.97107
0.274336
0.314907
0.517302
0.621265
0.70294
0.783281
0.86366
0.943613
1.02296
1.10164
1.1796
1.2568
1.33318
1.40871
1.48333
1.55701
1.6297
1.70138
1.772
1.84153
1.90994
1.97721
2.0433
2.10819
2.17185
2.23426
2.29539
2.35524
2.41377
2.47097
2.52684
2.58135
2.6345
2.68627
2.73667
2.78568
2.83331
2.87955
2.92441
2.96788
3.00998
3.0507
3.09006
3.12808
3.16475
3.20009
3.23412
3.26685
3.29831
3.3285
3.35746
3.38519
3.41174
3.4371
3.46133
3.48442
3.50642
3.52736
3.54725
3.56612
3.58401
3.60095
3.61695
3.63206
3.6463
3.6597
3.6723
3.68411
3.69518
3.70553
3.71519
3.72418
3.73254
3.7403
3.74747
3.7541
3.7602
3.76579
3.77091
3.77557
3.7798
3.78362
3.78705
3.79011
3.79281
3.79517
3.79721
3.79894
3.80038
3.80153
3.80237
3.80289
3.80411
3.80835
3.76908
3.83936
417.075
-140.262
12.0745
3.98042
0.28635
0.329577
0.534618
0.641214
0.725509
0.808456
0.891422
0.973944
1.05584
1.13704
1.21751
1.29718
1.37602
1.45397
1.53098
1.60702
1.68205
1.75602
1.8289
1.90066
1.97127
2.04068
2.10889
2.17585
2.24154
2.30594
2.36902
2.43077
2.49116
2.55019
2.60783
2.66407
2.7189
2.77231
2.8243
2.87487
2.924
2.97169
3.01796
3.0628
3.10622
3.14822
3.18881
3.22801
3.26582
3.30226
3.33735
3.3711
3.40353
3.43465
3.4645
3.49309
3.52044
3.54659
3.57155
3.59535
3.61802
3.63958
3.66007
3.67951
3.69794
3.71538
3.73186
3.74741
3.76207
3.77587
3.78883
3.80099
3.81238
3.82303
3.83296
3.84221
3.85081
3.85878
3.86616
3.87297
3.87924
3.88499
3.89025
3.89504
3.89939
3.90331
3.90683
3.90997
3.91274
3.91517
3.91726
3.91904
3.92051
3.92169
3.92256
3.92312
3.92429
3.92794
3.89115
3.95916
417.077
-140.258
12.081
3.98961
0.298155
0.343992
0.551632
0.660816
0.747685
0.83319
0.918699
1.00375
1.08814
1.17183
1.25475
1.33686
1.4181
1.49843
1.5778
1.65616
1.73347
1.8097
1.8848
1.95875
2.0315
2.10303
2.17331
2.2423
2.30999
2.37634
2.44134
2.50496
2.56718
2.62799
2.68737
2.7453
2.80179
2.85681
2.91036
2.96244
3.01304
3.06217
3.10982
3.15599
3.2007
3.24395
3.28575
3.32611
3.36504
3.40256
3.43868
3.47342
3.5068
3.53884
3.56956
3.59898
3.62713
3.65403
3.67971
3.7042
3.72752
3.7497
3.77077
3.79077
3.80971
3.82764
3.84459
3.86058
3.87565
3.88983
3.90315
3.91564
3.92734
3.93827
3.94848
3.95798
3.9668
3.97499
3.98256
3.98955
3.99598
4.00188
4.00728
4.01219
4.01665
4.02067
4.02428
4.0275
4.03034
4.03282
4.03497
4.03679
4.0383
4.03951
4.04041
4.041
4.04212
4.04525
4.01075
4.07664
417.078
-140.254
12.0875
3.99863
0.309747
0.358146
0.568338
0.680062
0.769458
0.857476
0.945481
1.033
1.11986
1.20598
1.29132
1.37582
1.45942
1.54209
1.62376
1.7044
1.78396
1.8624
1.93968
2.01577
2.09063
2.16424
2.23655
2.30754
2.37718
2.44545
2.51232
2.57777
2.64178
2.70434
2.76543
2.82502
2.88313
2.93972
2.99481
3.04837
3.10042
3.15094
3.19994
3.24743
3.2934
3.33788
3.38086
3.42235
3.46238
3.50095
3.53808
3.57379
3.6081
3.64103
3.6726
3.70283
3.73176
3.7594
3.78578
3.81093
3.83489
3.85767
3.87931
3.89984
3.9193
3.93771
3.9551
3.97152
3.98698
4.00153
4.0152
4.02801
4.04001
4.05123
4.06169
4.07143
4.08048
4.08887
4.09663
4.10379
4.11038
4.11642
4.12195
4.12698
4.13154
4.13566
4.13935
4.14265
4.14556
4.1481
4.1503
4.15216
4.15371
4.15494
4.15586
4.15649
4.15757
4.16022
4.12781
4.19177
417.079
-140.251
12.0938
4.00748
0.321122
0.372034
0.58473
0.698947
0.790823
0.881306
0.97176
1.06171
1.15098
1.2395
1.3272
1.41404
1.49996
1.58492
1.66885
1.75172
1.83349
1.9141
1.99352
2.07171
2.14864
2.22427
2.29858
2.37153
2.44308
2.51323
2.58194
2.64919
2.71495
2.77922
2.84198
2.90321
2.96289
3.02103
3.07761
3.13263
3.18609
3.23798
3.28831
3.33708
3.38429
3.42996
3.47409
3.5167
3.55779
3.59739
3.63551
3.67216
3.70738
3.74118
3.77358
3.80461
3.83429
3.86265
3.88971
3.91552
3.94009
3.96346
3.98565
4.00671
4.02666
4.04553
4.06336
4.08018
4.09603
4.11094
4.12494
4.13808
4.15037
4.16185
4.17256
4.18254
4.1918
4.20039
4.20833
4.21566
4.2224
4.22858
4.23423
4.23937
4.24403
4.24824
4.25202
4.25538
4.25836
4.26095
4.2632
4.2651
4.26668
4.26795
4.26889
4.26954
4.27059
4.27281
4.24229
4.30451
417.08
-140.247
12.1
4.01616
0.332276
0.385654
0.600805
0.717466
0.811773
0.904673
0.997527
1.08986
1.1815
1.27235
1.36238
1.45152
1.53971
1.62691
1.71306
1.79812
1.88204
1.96478
2.0463
2.12655
2.2055
2.28313
2.35939
2.43425
2.50768
2.57967
2.65018
2.71918
2.78667
2.85261
2.917
2.97982
3.04106
3.10071
3.15876
3.2152
3.27003
3.32326
3.37489
3.42491
3.47333
3.52017
3.56542
3.60911
3.65125
3.69185
3.73094
3.76852
3.80462
3.83926
3.87247
3.90427
3.93469
3.96375
3.99148
4.01792
4.04309
4.06703
4.08976
4.11132
4.13175
4.15107
4.16933
4.18655
4.20277
4.21803
4.23235
4.24579
4.25836
4.27011
4.28106
4.29126
4.30073
4.3095
4.31762
4.3251
4.33199
4.3383
4.34407
4.34932
4.35408
4.35838
4.36223
4.36567
4.3687
4.37135
4.37364
4.37558
4.37719
4.37848
4.37945
4.38013
4.38114
4.38299
4.35418
4.4148
417.082
-140.243
12.1061
4.02467
0.343207
0.398999
0.616556
0.735611
0.832301
0.927568
1.02277
1.11745
1.21139
1.30455
1.39684
1.48823
1.57865
1.66805
1.75638
1.84358
1.92961
2.01443
2.098
2.18027
2.26121
2.34078
2.41895
2.49568
2.57096
2.64474
2.71701
2.78774
2.8569
2.92449
2.99048
3.05486
3.11761
3.17873
3.23821
3.29604
3.35223
3.40676
3.45965
3.51089
3.5605
3.60847
3.65483
3.69958
3.74273
3.78431
3.82433
3.86282
3.89978
3.93525
3.96924
4.00179
4.03293
4.06267
4.09105
4.11811
4.14386
4.16835
4.1916
4.21366
4.23455
4.25431
4.27297
4.29058
4.30716
4.32275
4.33739
4.35112
4.36396
4.37596
4.38715
4.39756
4.40723
4.41619
4.42447
4.4321
4.43913
4.44557
4.45145
4.4568
4.46166
4.46604
4.46996
4.47346
4.47655
4.47925
4.48159
4.48357
4.48521
4.48652
4.48751
4.48821
4.4892
4.49072
4.46345
4.52263
417.083
-140.24
12.1121
4.033
0.353911
0.412068
0.63198
0.75338
0.852401
0.949987
1.0475
1.14445
1.24067
1.33607
1.43059
1.52418
1.61678
1.70833
1.79878
1.88808
1.97618
2.06304
2.14861
2.23286
2.31573
2.39721
2.47725
2.55582
2.63289
2.70843
2.78242
2.85483
2.92564
2.99483
3.06238
3.12828
3.19251
3.25507
3.31595
3.37514
3.43264
3.48845
3.54258
3.59501
3.64577
3.69486
3.74228
3.78806
3.83221
3.87474
3.91568
3.95504
3.99284
4.02911
4.06387
4.09715
4.12898
4.15939
4.1884
4.21605
4.24237
4.26739
4.29115
4.31369
4.33503
4.35521
4.37427
4.39225
4.40917
4.42509
4.44004
4.45404
4.46715
4.47939
4.4908
4.50141
4.51127
4.5204
4.52885
4.53663
4.54378
4.55034
4.55633
4.56179
4.56673
4.57119
4.57518
4.57874
4.58189
4.58464
4.58701
4.58902
4.59069
4.59203
4.59304
4.59376
4.59472
4.59596
4.57007
4.62795
417.084
-140.236
12.1179
4.04115
0.364385
0.424855
0.647072
0.770766
0.87207
0.971923
1.07168
1.17088
1.26931
1.36691
1.46361
1.55935
1.65408
1.74774
1.84027
1.93162
2.02174
2.11059
2.19812
2.2843
2.36907
2.45241
2.53428
2.61464
2.69347
2.77073
2.8464
2.92045
2.99286
3.06361
3.13269
3.20008
3.26576
3.32972
3.39197
3.45248
3.51127
3.56832
3.62364
3.67724
3.72912
3.77929
3.82776
3.87455
3.91966
3.96312
4.00495
4.04516
4.08377
4.12082
4.15633
4.19032
4.22283
4.25388
4.2835
4.31173
4.3386
4.36414
4.38839
4.41138
4.43316
4.45375
4.47319
4.49152
4.50879
4.52502
4.54025
4.55453
4.56788
4.58036
4.59198
4.60279
4.61283
4.62213
4.63073
4.63865
4.64593
4.6526
4.6587
4.66424
4.66927
4.6738
4.67786
4.68148
4.68468
4.68747
4.68988
4.69193
4.69363
4.69499
4.69601
4.69676
4.69769
4.69868
4.67404
4.73074
417.085
-140.233
12.1236
4.04912
0.374627
0.43736
0.66183
0.787767
0.891301
0.993372
1.09534
1.19672
1.29732
1.39706
1.49589
1.59374
1.69055
1.78626
1.88083
1.97418
2.06628
2.15708
2.24652
2.33458
2.42121
2.50637
2.59002
2.67213
2.75267
2.83161
2.90892
2.98457
3.05855
3.13083
3.2014
3.27023
3.33732
3.40266
3.46623
3.52804
3.58808
3.64634
3.70284
3.75757
3.81054
3.86176
3.91125
3.95901
4.00507
4.04943
4.09212
4.13316
4.17257
4.21037
4.2466
4.28128
4.31445
4.34612
4.37633
4.40512
4.43252
4.45856
4.48328
4.50672
4.52892
4.5499
4.56971
4.58839
4.60598
4.62251
4.63802
4.65256
4.66615
4.67885
4.69068
4.70168
4.71189
4.72135
4.73009
4.73814
4.74555
4.75233
4.75852
4.76415
4.76926
4.77386
4.77799
4.78166
4.7849
4.78774
4.79018
4.79226
4.79398
4.79537
4.79641
4.79717
4.79809
4.79885
4.77535
4.83096
417.086
-140.229
12.1292
4.05691
0.384635
0.449578
0.676249