/*--------------------------------*- C++ -*----------------------------------*\
| =========                 |                                                 |
| \\      /  F ield         | OpenFOAM: The Open Source CFD Toolbox           |
|  \\    /   O peration     | Version:  2406                                  |
|   \\  /    A nd           | Website:  www.openfoam.com                      |
|    \\/     M anipulation  |                                                 |
\*---------------------------------------------------------------------------*/
FoamFile
{
    version     2.0;
    format      ascii;
    arch        "LSB;label=32;scalar=64";
    class       surfaceScalarField;
    location    "0.08";
    object      phi;
}
// * * * * * * * * * * * * * * * * * * * * * * * * * * * * * * * * * * * * * //

dimensions      [0 3 -1 0 0 0 0];

oriented        oriented;

internalField   nonuniform List<scalar> 
24170
(
3.05864e-06
-5.64601e-07
2.9957e-06
-3.54136e-07
2.92637e-06
-1.47155e-07
2.85602e-06
-3.89965e-08
2.79185e-06
1.10245e-08
2.73569e-06
3.10043e-08
2.68735e-06
3.68496e-08
2.64609e-06
3.67947e-08
2.611e-06
3.4475e-08
2.58112e-06
3.13744e-08
2.5554e-06
2.81654e-08
2.53309e-06
2.53854e-08
2.51347e-06
2.28453e-08
2.49602e-06
2.07504e-08
2.48057e-06
1.87624e-08
2.46513e-06
1.77543e-08
2.45566e-06
1.70417e-08
1.5673e-08
2.42931e-06
3.48703e-06
2.3251e-07
3.49804e-06
3.01013e-07
3.49179e-06
2.2357e-07
3.47861e-06
1.5893e-07
3.46324e-06
1.20949e-07
3.44603e-06
9.70154e-08
3.42676e-06
8.06026e-08
3.40601e-06
6.87261e-08
3.38461e-06
5.97423e-08
3.3632e-06
5.2609e-08
3.34228e-06
4.6788e-08
3.32207e-06
4.19252e-08
3.30283e-06
3.7817e-08
3.28452e-06
3.43856e-08
3.26742e-06
3.13312e-08
3.25104e-06
2.92412e-08
3.23678e-06
2.61362e-08
2.92157e-08
3.22338e-06
3.81874e-06
5.64002e-08
3.82876e-06
6.38615e-08
3.83636e-06
5.1613e-08
3.84032e-06
5.61804e-08
3.84172e-06
6.4106e-08
3.84086e-06
6.72085e-08
3.83771e-06
6.64457e-08
3.83268e-06
6.39524e-08
3.82627e-06
6.07556e-08
3.81884e-06
5.72812e-08
3.81072e-06
5.37617e-08
3.80212e-06
5.03834e-08
3.79324e-06
4.71823e-08
3.78423e-06
4.42601e-08
3.77527e-06
4.1479e-08
3.76647e-06
3.92869e-08
3.75794e-06
3.68663e-08
3.57981e-08
3.75077e-06
4.20646e-06
1.45929e-08
4.21433e-06
4.40764e-08
4.22303e-06
5.88879e-08
4.22919e-06
6.85586e-08
4.23359e-06
7.33666e-08
4.23677e-06
7.32749e-08
4.23865e-06
7.06132e-08
4.23933e-06
6.71544e-08
4.23909e-06
6.35347e-08
4.23814e-06
5.99251e-08
4.2366e-06
5.64019e-08
4.23458e-06
5.30754e-08
4.2322e-06
4.99334e-08
4.22953e-06
4.70452e-08
4.22669e-06
4.43106e-08
4.22383e-06
4.19747e-08
4.22093e-06
3.95973e-08
3.76723e-08
4.2186e-06
4.63929e-06
1.28821e-08
4.64586e-06
4.77462e-08
4.65344e-06
6.19998e-08
4.65929e-06
6.68869e-08
4.66418e-06
6.91384e-08
4.66856e-06
6.89e-08
4.67217e-06
6.6896e-08
4.67492e-06
6.41614e-08
4.677e-06
6.11836e-08
4.67855e-06
5.8125e-08
4.67966e-06
5.50723e-08
4.68039e-06
5.21259e-08
4.68083e-06
4.93035e-08
4.68106e-06
4.66553e-08
4.68113e-06
4.41338e-08
4.68113e-06
4.18478e-08
4.68111e-06
3.95816e-08
3.74424e-08
4.68131e-06
5.11684e-06
1.43495e-08
5.1226e-06
4.44061e-08
5.12941e-06
5.65741e-08
5.13513e-06
6.08886e-08
5.14019e-06
6.3589e-08
5.14497e-06
6.42539e-08
5.14924e-06
6.30586e-08
5.15286e-06
6.09343e-08
5.15595e-06
5.84396e-08
5.15863e-06
5.57792e-08
5.16096e-06
5.30607e-08
5.16297e-06
5.03811e-08
5.16476e-06
4.77794e-08
5.16634e-06
4.52931e-08
5.1678e-06
4.29042e-08
5.16921e-06
4.06516e-08
5.17056e-06
3.84278e-08
3.62066e-08
5.17198e-06
5.64319e-06
1.32404e-08
5.64847e-06
3.79859e-08
5.65498e-06
5.00907e-08
5.66075e-06
5.53561e-08
5.66596e-06
5.85208e-08
5.67095e-06
5.9622e-08
5.67555e-06
5.88946e-08
5.67963e-06
5.71898e-08
5.68329e-06
5.50598e-08
5.68659e-06
5.27178e-08
5.68958e-06
5.0277e-08
5.69234e-06
4.78282e-08
5.69488e-06
4.54209e-08
5.69724e-06
4.30846e-08
5.6995e-06
4.08158e-08
5.70164e-06
3.86204e-08
5.70376e-06
3.64418e-08
3.42304e-08
5.70586e-06
4.40755e-06
1.18273e-08
4.41103e-06
3.34429e-08
4.4155e-06
4.55244e-08
4.4197e-06
5.12361e-08
4.42351e-06
5.44574e-08
4.42717e-06
5.5716e-08
4.43062e-06
5.52883e-08
4.43377e-06
5.3887e-08
4.43663e-06
5.20218e-08
4.43927e-06
4.99117e-08
4.44171e-06
4.7674e-08
4.44401e-06
4.53972e-08
4.44616e-06
4.31349e-08
4.44819e-06
4.09144e-08
4.45015e-06
3.87385e-08
4.45206e-06
3.66036e-08
4.45391e-06
3.44743e-08
3.23123e-08
4.4557e-06
5.1413e-06
1.04049e-08
5.14473e-06
2.92253e-08
5.14931e-06
4.08028e-08
5.1538e-06
4.66669e-08
5.15799e-06
4.98861e-08
5.16202e-06
5.12889e-08
5.16585e-06
5.11617e-08
5.16939e-06
5.00686e-08
5.17268e-06
4.84707e-08
5.17576e-06
4.65954e-08
5.17864e-06
4.45645e-08
5.18136e-06
4.24653e-08
5.18396e-06
4.03533e-08
5.18642e-06
3.82566e-08
5.18879e-06
3.61826e-08
5.19107e-06
3.41271e-08
5.19331e-06
3.20687e-08
2.99885e-08
5.19544e-06
5.99723e-06
9.14071e-09
6.0006e-06
2.55037e-08
6.00529e-06
3.62569e-08
6.01011e-06
4.20964e-08
6.0147e-06
4.53168e-08
6.01913e-06
4.68296e-08
6.02339e-06
4.69458e-08
6.02737e-06
4.61199e-08
6.03108e-06
4.47628e-08
6.03459e-06
4.31032e-08
6.03792e-06
4.12658e-08
6.04109e-06
3.93358e-08
6.04412e-06
3.73694e-08
6.047e-06
3.53969e-08
6.04978e-06
3.34296e-08
6.05245e-06
3.14674e-08
6.05503e-06
2.94988e-08
2.75219e-08
6.05751e-06
6.99569e-06
8.00618e-09
6.99907e-06
2.225e-08
7.00383e-06
3.20846e-08
7.00894e-06
3.77689e-08
7.0139e-06
4.09545e-08
7.01876e-06
4.25238e-08
7.02348e-06
4.28159e-08
7.02799e-06
4.22087e-08
7.03222e-06
4.1061e-08
7.0362e-06
3.95946e-08
7.04001e-06
3.79342e-08
7.04365e-06
3.61627e-08
7.04711e-06
3.43363e-08
7.05043e-06
3.24875e-08
7.05364e-06
3.06314e-08
7.05672e-06
2.87726e-08
7.05969e-06
2.69075e-08
2.50466e-08
7.06247e-06
8.16047e-06
6.98924e-09
8.16387e-06
1.94183e-08
8.16878e-06
2.83193e-08
8.17421e-06
3.37319e-08
8.17967e-06
3.68328e-08
8.18506e-06
3.84137e-08
8.19028e-06
3.88262e-08
8.19529e-06
3.83935e-08
8.20006e-06
3.74256e-08
8.20463e-06
3.61309e-08
8.20899e-06
3.46319e-08
8.21315e-06
3.30093e-08
8.21711e-06
3.13183e-08
8.2209e-06
2.95931e-08
8.22457e-06
2.78522e-08
8.22807e-06
2.61047e-08
8.23142e-06
2.43526e-08
2.26152e-08
8.23458e-06
9.51923e-06
6.00044e-09
9.52267e-06
1.66782e-08
9.52773e-06
2.45473e-08
9.53354e-06
2.95501e-08
9.53949e-06
3.24955e-08
9.54539e-06
3.40435e-08
9.55119e-06
3.45362e-08
9.55681e-06
3.4252e-08
9.56223e-06
3.34531e-08
9.56741e-06
3.23278e-08
9.57231e-06
3.09936e-08
9.57702e-06
2.95278e-08
9.58159e-06
2.79842e-08
9.58592e-06
2.63978e-08
9.59006e-06
2.47899e-08
9.59405e-06
2.31736e-08
9.59786e-06
2.15552e-08
1.99602e-08
9.60144e-06
1.11042e-05
4.97659e-09
1.11076e-05
1.38314e-08
1.11128e-05
2.05173e-08
1.11189e-05
2.49427e-08
1.11253e-05
2.76256e-08
1.11317e-05
2.90758e-08
1.11382e-05
2.96023e-08
1.11445e-05
2.94406e-08
1.11505e-05
2.88032e-08
1.11563e-05
2.78527e-08
1.11619e-05
2.66968e-08
1.11672e-05
2.54078e-08
1.11724e-05
2.40361e-08
1.11773e-05
2.26165e-08
1.1182e-05
2.11724e-08
1.11865e-05
1.97198e-08
1.11907e-05
1.82682e-08
1.68463e-08
1.11947e-05
1.29531e-05
3.91379e-09
1.29565e-05
1.08782e-08
1.29618e-05
1.62434e-08
1.29681e-05
1.99171e-08
1.29749e-05
2.22068e-08
1.29819e-05
2.34738e-08
1.29889e-05
2.39722e-08
1.29958e-05
2.38919e-08
1.30025e-05
2.33976e-08
1.30091e-05
2.26208e-08
1.30153e-05
2.16539e-08
1.30214e-05
2.05611e-08
1.30271e-05
1.93877e-08
1.30326e-05
1.81665e-08
1.30379e-05
1.6921e-08
1.3043e-05
1.56686e-08
1.30478e-05
1.44203e-08
1.32054e-08
1.30522e-05
1.51099e-05
2.80942e-09
1.51133e-05
7.8108e-09
1.51187e-05
1.17219e-08
1.51253e-05
1.44667e-08
1.51325e-05
1.62133e-08
1.514e-05
1.71918e-08
1.51475e-05
1.75851e-08
1.51551e-05
1.75328e-08
1.51625e-05
1.71528e-08
1.51698e-05
1.65417e-08
1.51768e-05
1.57715e-08
1.51835e-05
1.48938e-08
1.51899e-05
1.39463e-08
1.51961e-05
1.29574e-08
1.52021e-05
1.19479e-08
1.52078e-05
1.09347e-08
1.52131e-05
9.9281e-09
8.95568e-09
1.52182e-05
1.7626e-05
1.60653e-09
1.76294e-05
4.46313e-09
1.76348e-05
6.71337e-09
1.76416e-05
8.30586e-09
1.76493e-05
9.31917e-09
1.76573e-05
9.87066e-09
1.76655e-05
1.00619e-08
1.76738e-05
9.97382e-09
1.7682e-05
9.67521e-09
1.769e-05
9.22357e-09
1.76978e-05
8.66399e-09
1.77054e-05
8.03022e-09
1.77126e-05
7.34824e-09
1.77195e-05
6.63804e-09
1.77261e-05
5.91541e-09
1.77325e-05
5.19334e-09
1.77384e-05
4.48004e-09
3.7986e-09
1.7744e-05
1.78275e-05
2.97831e-10
1.78306e-05
8.13389e-10
1.78355e-05
1.20205e-09
1.78419e-05
1.44209e-09
1.7849e-05
1.55187e-09
1.78566e-05
1.54984e-09
1.78644e-05
1.45041e-09
1.78724e-05
1.26873e-09
1.78803e-05
1.02125e-09
1.7888e-05
7.22965e-10
1.78955e-05
3.86717e-10
1.79027e-05
2.34494e-11
1.79098e-05
-3.57101e-10
1.79166e-05
-7.46485e-10
1.7923e-05
-1.13722e-09
1.7929e-05
-1.5225e-09
1.79348e-05
-1.89829e-09
-2.24753e-09
1.79403e-05
1.58824e-05
-1.00695e-09
1.5885e-05
-2.83296e-09
1.58892e-05
-4.32371e-09
1.58947e-05
-5.45624e-09
1.59009e-05
-6.26164e-09
1.59074e-05
-6.82269e-09
1.59142e-05
-7.21508e-09
1.5921e-05
-7.48897e-09
1.59278e-05
-7.68069e-09
1.59344e-05
-7.81924e-09
1.5941e-05
-7.92522e-09
1.59472e-05
-8.01112e-09
1.59533e-05
-8.08395e-09
1.59591e-05
-8.14744e-09
1.59645e-05
-8.20326e-09
1.59698e-05
-8.2511e-09
1.59748e-05
-8.29147e-09
-8.31341e-09
1.59795e-05
1.41497e-05
-2.19118e-09
1.41522e-05
-6.16798e-09
1.41563e-05
-9.38381e-09
1.41613e-05
-1.17191e-08
1.4167e-05
-1.32747e-08
1.4173e-05
-1.42709e-08
1.41791e-05
-1.4872e-08
1.41853e-05
-1.51789e-08
1.41914e-05
-1.52756e-08
1.41973e-05
-1.52348e-08
1.42031e-05
-1.51085e-08
1.42086e-05
-1.49289e-08
1.42139e-05
-1.47168e-08
1.4219e-05
-1.44857e-08
1.42238e-05
-1.42443e-08
1.42284e-05
-1.39971e-08
1.42327e-05
-1.37476e-08
-1.34893e-08
1.42369e-05
1.26061e-05
-3.26325e-09
1.26086e-05
-9.27025e-09
1.26126e-05
-1.41201e-08
1.26176e-05
-1.74691e-08
1.2623e-05
-1.95563e-08
1.26287e-05
-2.08191e-08
1.26344e-05
-2.15117e-08
1.26401e-05
-2.17717e-08
1.26456e-05
-2.17257e-08
1.2651e-05
-2.14849e-08
1.26561e-05
-2.11247e-08
1.26611e-05
-2.06922e-08
1.26659e-05
-2.02186e-08
1.26704e-05
-1.97249e-08
1.26746e-05
-1.92244e-08
1.26787e-05
-1.87245e-08
1.26826e-05
-1.82304e-08
-1.77378e-08
1.26863e-05
1.12308e-05
-4.27384e-09
1.12334e-05
-1.23762e-08
1.12375e-05
-1.88722e-08
1.12426e-05
-2.31026e-08
1.12479e-05
-2.55972e-08
1.12533e-05
-2.70204e-08
1.12587e-05
-2.76823e-08
1.1264e-05
-2.77837e-08
1.12692e-05
-2.7524e-08
1.12742e-05
-2.70495e-08
1.12788e-05
-2.64448e-08
1.12832e-05
-2.57623e-08
1.12875e-05
-2.50394e-08
1.12915e-05
-2.43021e-08
1.12954e-05
-2.35659e-08
1.1299e-05
-2.28396e-08
1.13024e-05
-2.21283e-08
-2.14293e-08
1.13056e-05
1.00056e-05
-5.19156e-09
1.00083e-05
-1.58185e-08
1.00126e-05
-2.37661e-08
1.00179e-05
-2.84286e-08
1.00232e-05
-3.12221e-08
1.00284e-05
-3.28587e-08
1.00335e-05
-3.34781e-08
1.00385e-05
-3.33524e-08
1.00432e-05
-3.28121e-08
1.00477e-05
-3.20576e-08
1.0052e-05
-3.11806e-08
1.0056e-05
-3.02357e-08
1.00598e-05
-2.92639e-08
1.00634e-05
-2.82924e-08
1.00668e-05
-2.73363e-08
1.00701e-05
-2.6403e-08
1.00731e-05
-2.54964e-08
-2.46133e-08
1.0076e-05
8.91396e-06
-5.47091e-09
8.9167e-06
-2.03178e-08
8.9214e-06
-2.98551e-08
8.92679e-06
-3.39762e-08
8.932e-06
-3.64097e-08
8.93704e-06
-3.80429e-08
8.94194e-06
-3.86147e-08
8.94661e-06
-3.83293e-08
8.95098e-06
-3.75774e-08
8.95508e-06
-3.65874e-08
8.95895e-06
-3.54615e-08
8.9626e-06
-3.42666e-08
8.96608e-06
-3.3053e-08
8.96933e-06
-3.18522e-08
8.97236e-06
-3.06803e-08
8.97521e-06
-2.95449e-08
8.97788e-06
-2.84488e-08
-2.73885e-08
8.98043e-06
7.94128e-06
-2.85997e-09
7.94425e-06
-2.3394e-08
7.94926e-06
-3.68044e-08
7.95454e-06
-4.1407e-08
7.95954e-06
-4.30879e-08
7.9645e-06
-4.37367e-08
7.96934e-06
-4.34927e-08
7.97382e-06
-4.26636e-08
7.97795e-06
-4.15507e-08
7.98176e-06
-4.02774e-08
7.98529e-06
-3.89e-08
7.98854e-06
-3.74734e-08
7.99156e-06
-3.60441e-08
7.99437e-06
-3.46408e-08
7.99699e-06
-3.32797e-08
7.99941e-06
-3.19677e-08
8.00163e-06
-3.07068e-08
-2.94935e-08
8.00368e-06
7.07351e-06
8.17021e-10
7.07672e-06
-1.77958e-08
7.08292e-06
-3.45712e-08
7.08864e-06
-4.53676e-08
7.09359e-06
-5.08977e-08
7.0985e-06
-5.21996e-08
7.10328e-06
-5.11551e-08
7.10759e-06
-4.92856e-08
7.1114e-06
-4.72253e-08
7.11483e-06
-4.51236e-08
7.11787e-06
-4.3036e-08
7.12055e-06
-4.10103e-08
7.12292e-06
-3.90774e-08
7.125e-06
-3.72466e-08
7.12684e-06
-3.55233e-08
7.12843e-06
-3.39025e-08
7.12984e-06
-3.23781e-08
-3.09324e-08
7.13109e-06
6.29864e-06
-2.45892e-08
6.30224e-06
-2.41828e-08
6.31086e-06
-1.60331e-08
6.31859e-06
-2.27275e-08
6.32456e-06
-3.39517e-08
6.32963e-06
-4.11555e-08
6.33394e-06
-4.42132e-08
6.3374e-06
-4.50285e-08
6.34013e-06
-4.46567e-08
6.34227e-06
-4.35504e-08
6.34387e-06
-4.2011e-08
6.345e-06
-4.02622e-08
6.34572e-06
-3.8447e-08
6.3461e-06
-3.66417e-08
6.34612e-06
-3.48982e-08
6.34593e-06
-3.32387e-08
6.34555e-06
-3.16864e-08
-3.02112e-08
6.34497e-06
5.61324e-06
-1.75777e-07
5.61891e-06
-2.4808e-07
5.62765e-06
-1.92969e-07
5.63569e-06
-1.39425e-07
5.6421e-06
-1.07164e-07
5.64658e-06
-8.66208e-08
5.64894e-06
-7.22319e-08
5.64951e-06
-6.19895e-08
5.64872e-06
-5.45022e-08
5.64688e-06
-4.86936e-08
5.64426e-06
-4.39694e-08
5.641e-06
-4.00157e-08
5.63723e-06
-3.66498e-08
5.63313e-06
-3.37417e-08
5.62878e-06
-3.12068e-08
5.62426e-06
-2.90054e-08
5.61968e-06
-2.71147e-08
-2.5617e-08
5.61505e-06
5.02847e-06
4.40723e-07
5.04323e-06
2.83478e-07
5.04348e-06
1.23362e-07
5.03827e-06
3.79722e-08
5.03226e-06
-4.07592e-09
5.02478e-06
-2.2692e-08
5.01495e-06
-2.94609e-08
5.00314e-06
-3.09189e-08
4.99007e-06
-3.01428e-08
4.9763e-06
-2.84376e-08
4.96221e-06
-2.63933e-08
4.94808e-06
-2.43301e-08
4.93409e-06
-2.23742e-08
4.92041e-06
-2.05859e-08
4.90711e-06
-1.90041e-08
4.89429e-06
-1.75897e-08
4.88201e-06
-1.63876e-08
-1.57032e-08
4.87096e-06
4.41265e-06
4.37433e-06
4.32025e-06
4.25815e-06
4.19816e-06
4.14402e-06
4.09593e-06
4.05336e-06
4.01582e-06
3.98268e-06
3.95327e-06
3.92703e-06
3.90347e-06
3.8822e-06
3.86288e-06
3.84516e-06
3.82878e-06
3.81276e-06
1.17579e-08
-1.14489e-08
2.42016e-08
-1.3551e-08
3.38428e-08
-9.79587e-09
3.89436e-08
-4.65843e-09
3.87894e-08
6.6355e-10
3.38303e-08
5.4822e-09
2.51595e-08
9.4313e-09
1.36698e-08
1.24566e-08
6.19834e-11
1.46982e-08
-1.51743e-08
1.63662e-08
-3.17165e-08
1.76736e-08
-4.9386e-08
1.87818e-08
-6.80933e-08
1.97944e-08
-8.77849e-08
2.07614e-08
-1.08426e-07
2.17076e-08
-1.2999e-07
2.26372e-08
-1.52445e-07
2.35532e-08
-1.75756e-07
2.44497e-08
-1.99878e-07
2.53248e-08
-2.24767e-07
2.61706e-08
-2.50363e-07
2.69831e-08
-2.76597e-07
2.77575e-08
-3.03387e-07
2.84896e-08
-3.30638e-07
2.91877e-08
-3.58261e-07
2.98629e-08
-3.86194e-07
3.05588e-08
-4.14413e-07
3.13372e-08
-4.42901e-07
3.23143e-08
-4.71708e-07
3.36452e-08
-5.01053e-07
3.56744e-08
-5.31363e-07
3.85716e-08
-5.62986e-07
4.25589e-08
-5.97287e-07
4.81853e-08
-6.34496e-07
4.19193e-08
-6.69552e-07
3.08258e-08
-7.04955e-07
3.34587e-08
-7.45586e-07
3.63215e-08
-7.89224e-07
3.9418e-08
-8.35208e-07
4.22186e-08
-8.8267e-07
4.37321e-08
-9.29359e-07
4.61671e-08
-9.7457e-07
4.66669e-08
-1.01779e-06
4.20989e-08
-1.05881e-06
4.18155e-08
-1.10133e-06
4.5205e-08
-1.14569e-06
4.57037e-08
-1.18987e-06
4.5845e-08
-1.23406e-06
4.58394e-08
-1.27822e-06
4.57744e-08
-1.3223e-06
4.56442e-08
-1.36625e-06
4.54677e-08
-1.41e-06
4.52523e-08
-1.45354e-06
4.50095e-08
-1.49682e-06
4.47437e-08
-1.53984e-06
4.44593e-08
-1.58257e-06
4.41572e-08
-1.62499e-06
4.38382e-08
-1.66709e-06
4.35011e-08
-1.70884e-06
4.3145e-08
-1.75024e-06
4.27677e-08
-1.79124e-06
4.23677e-08
-1.83183e-06
4.19426e-08
-1.87199e-06
4.14904e-08
-1.91168e-06
4.10086e-08
-1.95087e-06
4.04954e-08
-1.98955e-06
3.99485e-08
-2.02766e-06
3.93664e-08
-2.06517e-06
3.87469e-08
-2.10205e-06
3.80889e-08
-2.13825e-06
3.73907e-08
-2.17375e-06
3.66513e-08
-2.2085e-06
3.58694e-08
-2.24245e-06
3.50443e-08
-2.27557e-06
3.41751e-08
-2.30782e-06
3.32615e-08
-2.33915e-06
3.23027e-08
-2.36951e-06
3.12991e-08
-2.39888e-06
3.02502e-08
-2.4272e-06
2.91564e-08
-2.45442e-06
2.80174e-08
-2.48052e-06
2.68338e-08
-2.50545e-06
2.56057e-08
-2.52916e-06
2.43335e-08
-2.55163e-06
2.30171e-08
-2.5728e-06
2.16571e-08
-2.59264e-06
2.02533e-08
-2.6111e-06
1.88057e-08
-2.62815e-06
1.73132e-08
-2.64375e-06
1.57743e-08
-2.65785e-06
1.41857e-08
-2.67041e-06
1.25428e-08
-2.68138e-06
1.08401e-08
-2.69069e-06
9.07129e-09
-2.69828e-06
7.22784e-09
-2.70407e-06
5.30147e-09
-2.70798e-06
3.29727e-09
-2.70992e-06
1.25691e-09
-2.70977e-06
-7.27654e-10
-2.70779e-06
-2.56089e-09
-2.70423e-06
-4.2895e-09
-2.69906e-06
-6.00459e-09
-2.69232e-06
-7.72012e-09
-2.684e-06
-9.44491e-09
-2.67409e-06
-1.11796e-08
-2.66259e-06
-1.29233e-08
-2.64951e-06
-1.46747e-08
-2.63483e-06
-1.64314e-08
-2.61856e-06
-1.81925e-08
-2.60071e-06
-1.99555e-08
-2.58127e-06
-2.17195e-08
-2.56026e-06
-2.3482e-08
-2.53768e-06
-2.52423e-08
-2.51354e-06
-2.69975e-08
-2.48786e-06
-2.87472e-08
-2.46064e-06
-3.04883e-08
-2.43191e-06
-3.22204e-08
-2.40168e-06
-3.39403e-08
-2.36998e-06
-3.56473e-08
-2.33681e-06
-3.73388e-08
-2.30221e-06
-3.90146e-08
-2.26621e-06
-4.06728e-08
-2.22882e-06
-4.23126e-08
-2.19009e-06
-4.39303e-08
-2.15002e-06
-4.55246e-08
-2.10866e-06
-4.70916e-08
-2.06604e-06
-4.86321e-08
-2.02219e-06
-5.0144e-08
-1.97715e-06
-5.16295e-08
-1.93095e-06
-5.30845e-08
-1.88363e-06
-5.45106e-08
-1.83522e-06
-5.59051e-08
-1.78577e-06
-5.72654e-08
-1.73533e-06
-5.8585e-08
-1.68394e-06
-5.98714e-08
-1.63163e-06
-6.11228e-08
-1.57847e-06
-6.23374e-08
-1.52448e-06
-6.35112e-08
-1.46973e-06
-6.46458e-08
-1.41425e-06
-6.57402e-08
-1.3581e-06
-6.67956e-08
-1.30134e-06
-6.78118e-08
-1.24401e-06
-6.87894e-08
-1.18616e-06
-6.97292e-08
-1.12784e-06
-7.06309e-08
-1.06909e-06
-7.14953e-08
-1.00997e-06
-7.23226e-08
-9.50518e-07
-7.31138e-08
-8.90789e-07
-7.38695e-08
-8.30825e-07
-7.45913e-08
-7.70673e-07
-7.52802e-08
-7.10377e-07
-7.59383e-08
-6.4998e-07
-7.65667e-08
-5.89525e-07
-7.71679e-08
-5.29053e-07
-7.77438e-08
-4.68604e-07
-7.82961e-08
-4.08216e-07
-7.88271e-08
-3.47928e-07
-7.93383e-08
-2.87776e-07
-7.98295e-08
-2.27797e-07
-8.03032e-08
-1.68028e-07
-8.07663e-08
-1.08507e-07
-8.12309e-08
-4.92831e-08
-8.16691e-08
9.58359e-09
-8.18682e-08
6.80904e-08
-8.13242e-08
1.26237e-07
-8.02041e-08
1.83974e-07
-7.90346e-08
2.41277e-07
-7.79126e-08
2.98144e-07
-7.68405e-08
3.54577e-07
-7.58067e-08
4.10565e-07
-7.47937e-08
4.66081e-07
-7.37778e-08
5.21073e-07
-7.27252e-08
5.75438e-07
-7.15807e-08
6.29013e-07
-7.02515e-08
6.81405e-07
-6.85583e-08
7.32176e-07
-6.61621e-08
7.7888e-07
-6.22115e-08
8.21963e-07
-5.49764e-08
8.39295e-07
-3.91808e-08
4.17522e-09
8.5936e-07
8.86325e-09
-1.96316e-08
1.25315e-08
-1.66829e-08
1.1199e-08
-8.50308e-09
6.83579e-09
-2.83591e-10
-1.08904e-10
7.4264e-09
-9.44459e-09
1.43549e-08
-2.11163e-08
2.03298e-08
-3.49986e-08
2.5317e-08
-5.09042e-08
2.94118e-08
-6.85879e-08
3.27868e-08
-8.78171e-08
3.56362e-08
-1.08415e-07
3.81285e-08
-1.30255e-07
4.03912e-08
-1.53244e-07
4.25063e-08
-1.77321e-07
4.45254e-08
-2.02445e-07
4.64746e-08
-2.2859e-07
4.83705e-08
-2.55738e-07
5.02187e-08
-2.83877e-07
5.20247e-08
-3.13007e-07
5.37892e-08
-3.43135e-07
5.5515e-08
-3.74283e-07
5.72053e-08
-4.06488e-07
5.88639e-08
-4.39817e-07
6.05019e-08
-4.74371e-07
6.21304e-08
-5.10292e-07
6.37724e-08
-5.47753e-07
6.54471e-08
-5.86959e-07
6.71824e-08
-6.28107e-07
6.89889e-08
-6.71264e-07
7.08837e-08
-7.16094e-07
7.28532e-08
-7.61325e-07
7.48889e-08
-8.07823e-07
7.70093e-08
-8.55914e-07
7.87846e-08
-9.04072e-07
8.03873e-08
-9.5086e-07
8.25683e-08
-9.95254e-07
8.4423e-08
-1.0381e-06
8.58238e-08
-1.0801e-06
8.66717e-08
-1.1213e-06
8.68684e-08
-1.16236e-06
8.66655e-08
-1.20463e-06
8.62037e-08
-1.24819e-06
8.54611e-08
-1.2919e-06
8.50407e-08
-1.33444e-06
8.49524e-08
-1.37573e-06
8.47448e-08
-1.4164e-06
8.44352e-08
-1.45655e-06
8.4054e-08
-1.49621e-06
8.36155e-08
-1.53543e-06
8.31291e-08
-1.57424e-06
8.26015e-08
-1.61264e-06
8.20386e-08
-1.65066e-06
8.14449e-08
-1.68827e-06
8.0823e-08
-1.72549e-06
8.01742e-08
-1.7623e-06
7.94974e-08
-1.79869e-06
7.87906e-08
-1.83465e-06
7.80517e-08
-1.87017e-06
7.72772e-08
-1.90521e-06
7.64637e-08
-1.93976e-06
7.56074e-08
-1.9738e-06
7.4705e-08
-2.00731e-06
7.37525e-08
-2.04026e-06
7.27465e-08
-2.07263e-06
7.16828e-08
-2.10439e-06
7.0559e-08
-2.1355e-06
6.93722e-08
-2.16594e-06
6.81192e-08
-2.19568e-06
6.6798e-08
-2.22468e-06
6.54062e-08
-2.25291e-06
6.39424e-08
-2.28034e-06
6.24049e-08
-2.30694e-06
6.07924e-08
-2.33268e-06
5.91041e-08
-2.35751e-06
5.73394e-08
-2.38142e-06
5.54978e-08
-2.40435e-06
5.35794e-08
-2.42628e-06
5.15843e-08
-2.44718e-06
4.9513e-08
-2.46701e-06
4.73659e-08
-2.48575e-06
4.51439e-08
-2.50336e-06
4.28478e-08
-2.5198e-06
4.04787e-08
-2.53505e-06
3.80373e-08
-2.54908e-06
3.55252e-08
-2.56186e-06
3.29432e-08
-2.57336e-06
3.0293e-08
-2.58356e-06
2.75754e-08
-2.59242e-06
2.47913e-08
-2.59992e-06
2.19411e-08
-2.60605e-06
1.90246e-08
-2.6108e-06
1.60428e-08
-2.61416e-06
1.29983e-08
-2.61614e-06
9.89349e-09
-2.61678e-06
6.73122e-09
-2.61611e-06
3.52012e-09
-2.61425e-06
2.85697e-10
-2.61129e-06
-2.92606e-09
-2.60709e-06
-6.08138e-09
-2.60141e-06
-9.20695e-09
-2.59422e-06
-1.23389e-08
-2.58549e-06
-1.5482e-08
-2.5752e-06
-1.86396e-08
-2.56337e-06
-2.181e-08
-2.54998e-06
-2.49902e-08
-2.53501e-06
-2.81768e-08
-2.51849e-06
-3.13659e-08
-2.5004e-06
-3.45539e-08
-2.48074e-06
-3.77374e-08
-2.45953e-06
-4.09129e-08
-2.43678e-06
-4.40767e-08
-2.41248e-06
-4.72256e-08
-2.38665e-06
-5.03557e-08
-2.3593e-06
-5.3464e-08
-2.33044e-06
-5.65464e-08
-2.3001e-06
-5.95998e-08
-2.26828e-06
-6.26203e-08
-2.23501e-06
-6.5604e-08
-2.2003e-06
-6.85475e-08
-2.16419e-06
-7.14486e-08
-2.12669e-06
-7.43044e-08
-2.08783e-06
-7.71118e-08
-2.04764e-06
-7.98655e-08
-2.00615e-06
-8.25615e-08
-1.96338e-06
-8.51943e-08
-1.91937e-06
-8.77624e-08
-1.87416e-06
-9.02626e-08
-1.82777e-06
-9.26953e-08
-1.78024e-06
-9.50576e-08
-1.73162e-06
-9.73501e-08
-1.68194e-06
-9.95691e-08
-1.63123e-06
-1.01708e-07
-1.57955e-06
-1.03756e-07
-1.52694e-06
-1.0572e-07
-1.47343e-06
-1.07603e-07
-1.41908e-06
-1.094e-07
-1.36392e-06
-1.11103e-07
-1.30802e-06
-1.12713e-07
-1.25141e-06
-1.1423e-07
-1.19415e-06
-1.15654e-07
-1.13628e-06
-1.16984e-07
-1.07785e-06
-1.18221e-07
-1.01893e-06
-1.19365e-07
-9.59551e-07
-1.20416e-07
-8.99759e-07
-1.21374e-07
-8.39607e-07
-1.22241e-07
-7.7914e-07
-1.23015e-07
-7.18408e-07
-1.237e-07
-6.57456e-07
-1.24295e-07
-5.96329e-07
-1.24804e-07
-5.35073e-07
-1.25228e-07
-4.73731e-07
-1.2557e-07
-4.12346e-07
-1.25831e-07
-3.5096e-07
-1.26016e-07
-2.89611e-07
-1.26125e-07
-2.28339e-07
-1.26163e-07
-1.67181e-07
-1.2613e-07
-1.06174e-07
-1.2603e-07
-4.5352e-08
-1.25864e-07
1.52576e-08
-1.25633e-07
7.56327e-08
-1.25328e-07
1.35756e-07
-1.2495e-07
1.9559e-07
-1.24455e-07
2.55055e-07
-1.23724e-07
3.14107e-07
-1.22781e-07
3.72756e-07
-1.21778e-07
4.31011e-07
-1.20776e-07
4.88864e-07
-1.19786e-07
5.46307e-07
-1.18797e-07
6.03322e-07
-1.17788e-07
6.59877e-07
-1.16726e-07
7.15914e-07
-1.1556e-07
7.71335e-07
-1.14202e-07
8.25973e-07
-1.125e-07
8.79486e-07
-1.10167e-07
9.31439e-07
-1.06661e-07
9.80263e-07
-1.00735e-07
1.02604e-06
-9.00141e-08
1.06002e-06
-6.76801e-08
-1.63685e-08
1.1008e-06
-7.10344e-10
-1.99718e-08
-5.22379e-09
-1.10317e-08
-1.31198e-08
-1.91129e-10
-2.29551e-08
9.71225e-09
-3.43113e-08
1.87549e-08
-4.7002e-08
2.69613e-08
-6.10673e-08
3.43012e-08
-7.66021e-08
4.07594e-08
-9.36632e-08
4.63829e-08
-1.12242e-07
5.12791e-08
-1.32275e-07
5.55895e-08
-1.53678e-07
5.94565e-08
-1.76363e-07
6.30062e-08
-2.00255e-07
6.63336e-08
-2.25297e-07
6.95086e-08
-2.51451e-07
7.25761e-08
-2.78691e-07
7.55672e-08
-3.07008e-07
7.85e-08
-3.36397e-07
8.13889e-08
-3.66865e-07
8.42432e-08
-3.98426e-07
8.70721e-08
-4.31101e-07
8.9886e-08
-4.64918e-07
9.26962e-08
-4.99912e-07
9.55188e-08
-5.36121e-07
9.83702e-08
-5.73573e-07
1.0127e-07
-6.1226e-07
1.04233e-07
-6.52096e-07
1.07266e-07
-6.92883e-07
1.10352e-07
-7.34268e-07
1.13455e-07
-7.75766e-07
1.16476e-07
-8.16938e-07
1.19244e-07
-8.57955e-07
1.21472e-07
-8.99234e-07
1.22688e-07
-9.40574e-07
1.2326e-07
-9.81283e-07
1.24102e-07
-1.0209e-06
1.24972e-07
-1.05944e-06
1.25651e-07
-1.09709e-06
1.25956e-07
-1.13407e-06
1.25822e-07
-1.17065e-06
1.25353e-07
-1.2073e-06
1.24458e-07
-1.24432e-06
1.23175e-07
-1.28136e-06
1.22118e-07
-1.31784e-06
1.21345e-07
-1.35371e-06
1.20561e-07
-1.38917e-06
1.19771e-07
-1.42429e-06
1.18978e-07
-1.45909e-06
1.18176e-07
-1.49359e-06
1.17358e-07
-1.5278e-06
1.16519e-07
-1.56172e-06
1.15655e-07
-1.59537e-06
1.14763e-07
-1.62872e-06
1.1384e-07
-1.6618e-06
1.12884e-07
-1.69456e-06
1.11888e-07
-1.72701e-06
1.10851e-07
-1.75913e-06
1.09766e-07
-1.7909e-06
1.08627e-07
-1.8223e-06
1.07431e-07
-1.8533e-06
1.06171e-07
-1.88389e-06
1.04842e-07
-1.91405e-06
1.03438e-07
-1.94375e-06
1.01956e-07
-1.97295e-06
1.0039e-07
-2.00163e-06
9.87359e-08
-2.02976e-06
9.69895e-08
-2.05731e-06
9.51475e-08
-2.08426e-06
9.32068e-08
-2.11056e-06
9.11642e-08
-2.13619e-06
8.90177e-08
-2.16111e-06
8.67656e-08
-2.18529e-06
8.44058e-08
-2.20869e-06
8.19369e-08
-2.23128e-06
7.93591e-08
-2.25304e-06
7.66715e-08
-2.27391e-06
7.3874e-08
-2.29388e-06
7.09671e-08
-2.3129e-06
6.79516e-08
-2.33093e-06
6.48282e-08
-2.34797e-06
6.15984e-08
-2.36396e-06
5.82635e-08
-2.37887e-06
5.48253e-08
-2.39268e-06
5.12857e-08
-2.40536e-06
4.7647e-08
-2.41687e-06
4.39113e-08
-2.42719e-06
4.00815e-08
-2.4363e-06
3.61602e-08
-2.44417e-06
3.21503e-08
-2.45077e-06
2.80551e-08
-2.45611e-06
2.3878e-08
-2.46016e-06
1.96244e-08
-2.46292e-06
1.5302e-08
-2.46439e-06
1.09206e-08
-2.46456e-06
6.49385e-09
-2.46345e-06
2.03979e-09
-2.46104e-06
-2.42134e-09
-2.45729e-06
-6.88264e-09
-2.45213e-06
-1.13696e-08
-2.44552e-06
-1.58999e-08
-2.43745e-06
-2.04653e-08
-2.42788e-06
-2.50598e-08
-2.41681e-06
-2.96788e-08
-2.40425e-06
-3.43168e-08
-2.39018e-06
-3.89686e-08
-2.37458e-06
-4.3628e-08
-2.35747e-06
-4.82897e-08
-2.33885e-06
-5.29479e-08
-2.31871e-06
-5.75976e-08
-2.29706e-06
-6.22333e-08
-2.27392e-06
-6.68499e-08
-2.24927e-06
-7.14417e-08
-2.22314e-06
-7.6004e-08
-2.19554e-06
-8.05311e-08
-2.16648e-06
-8.50181e-08
-2.13597e-06
-8.94594e-08
-2.10403e-06
-9.38498e-08
-2.07067e-06
-9.81836e-08
-2.03593e-06
-1.02456e-07
-1.99982e-06
-1.06663e-07
-1.96236e-06
-1.108e-07
-1.92359e-06
-1.14862e-07
-1.88352e-06
-1.18842e-07
-1.84218e-06
-1.22734e-07
-1.79961e-06
-1.26531e-07
-1.75583e-06
-1.30229e-07
-1.71088e-06
-1.33825e-07
-1.66479e-06
-1.37316e-07
-1.61759e-06
-1.40701e-07
-1.56933e-06
-1.43977e-07
-1.52004e-06
-1.4714e-07
-1.46976e-06
-1.50183e-07
-1.41853e-06
-1.53093e-07
-1.36639e-06
-1.55875e-07
-1.31338e-06
-1.5853e-07
-1.25956e-06
-1.61052e-07
-1.20495e-06
-1.63434e-07
-1.14962e-06
-1.65674e-07
-1.09361e-06
-1.67773e-07
-1.03696e-06
-1.69729e-07
-9.79729e-07
-1.71542e-07
-9.21963e-07
-1.73211e-07
-8.63708e-07
-1.74738e-07
-8.05012e-07
-1.76122e-07
-7.45921e-07
-1.77363e-07
-6.86485e-07
-1.78462e-07
-6.26748e-07
-1.79419e-07
-5.66757e-07
-1.80236e-07
-5.0656e-07
-1.80916e-07
-4.46199e-07
-1.8146e-07
-3.85721e-07
-1.81871e-07
-3.25166e-07
-1.82153e-07
-2.64578e-07
-1.82308e-07
-2.03997e-07
-1.82341e-07
-1.43462e-07
-1.82256e-07
-8.30102e-08
-1.82055e-07
-2.26767e-08
-1.81742e-07
3.75055e-08
-1.81326e-07
9.75023e-08
-1.80808e-07
1.57279e-07
-1.80188e-07
2.16806e-07
-1.79469e-07
2.76062e-07
-1.78652e-07
3.35035e-07
-1.77741e-07
3.937e-07
-1.76738e-07
4.52031e-07
-1.75647e-07
5.10016e-07
-1.74494e-07
5.67639e-07
-1.73317e-07
6.24886e-07
-1.72126e-07
6.81738e-07
-1.70911e-07
7.38174e-07
-1.69646e-07
7.94161e-07
-1.68289e-07
8.49641e-07
-1.66767e-07
9.04522e-07
-1.6496e-07
9.58649e-07
-1.62655e-07
1.01174e-06
-1.59471e-07
1.06344e-06
-1.54703e-07
1.11272e-06
-1.46912e-07
1.16007e-06
-1.33407e-07
1.20117e-06
-1.08171e-07
-5.7205e-08
1.2507e-06
-9.57945e-09
-1.28552e-08
-1.95765e-08
3.66321e-10
-3.17206e-08
1.26061e-08
-4.53144e-08
2.33703e-08
-5.98418e-08
3.31703e-08
-7.51363e-08
4.21685e-08
-9.12943e-08
5.04009e-08
-1.08458e-07
5.78751e-08
-1.26744e-07
6.46217e-08
-1.46223e-07
7.07076e-08
-1.6692e-07
7.62297e-08
-1.88824e-07
8.12958e-08
-2.11904e-07
8.60115e-08
-2.3612e-07
9.04645e-08
-2.61432e-07
9.47262e-08
-2.87812e-07
9.88479e-08
-3.15232e-07
1.02867e-07
-3.43674e-07
1.06807e-07
-3.73123e-07
1.10685e-07
-4.03561e-07
1.14512e-07
-4.34973e-07
1.18295e-07
-4.67333e-07
1.22038e-07
-5.00608e-07
1.25742e-07
-5.34748e-07
1.2941e-07
-5.69679e-07
1.33036e-07
-6.05297e-07
1.36613e-07
-6.41458e-07
1.40119e-07
-6.77965e-07
1.43524e-07
-7.14575e-07
1.46771e-07
-7.51028e-07
1.49786e-07
-7.87104e-07
1.52458e-07
-8.22716e-07
1.54659e-07
-8.57977e-07
1.56264e-07
-8.93084e-07
1.57211e-07
-9.28063e-07
1.5768e-07
-9.62727e-07
1.57992e-07
-9.9689e-07
1.58197e-07
-1.03052e-06
1.58252e-07
-1.06369e-06
1.58099e-07
-1.0965e-06
1.57714e-07
-1.12904e-06
1.57117e-07
-1.16146e-06
1.56291e-07
-1.19386e-06
1.55275e-07
-1.22616e-06
1.5425e-07
-1.25823e-06
1.53277e-07
-1.29006e-06
1.523e-07
-1.3217e-06
1.51315e-07
-1.35315e-06
1.50326e-07
-1.38441e-06
1.49328e-07
-1.41549e-06
1.48318e-07
-1.44638e-06
1.47288e-07
-1.47709e-06
1.46232e-07
-1.5076e-06
1.45145e-07
-1.5379e-06
1.44018e-07
-1.56798e-06
1.42848e-07
-1.59784e-06
1.41625e-07
-1.62744e-06
1.40344e-07
-1.65679e-06
1.38999e-07
-1.68585e-06
1.37581e-07
-1.7146e-06
1.36083e-07
-1.74303e-06
1.345e-07
-1.77111e-06
1.32824e-07
-1.79881e-06
1.31048e-07
-1.8261e-06
1.29166e-07
-1.85297e-06
1.27173e-07
-1.87937e-06
1.25063e-07
-1.90528e-06
1.2283e-07
-1.93067e-06
1.20472e-07
-1.95551e-06
1.17983e-07
-1.97976e-06
1.1536e-07
-2.00339e-06
1.12601e-07
-2.02637e-06
1.09702e-07
-2.04866e-06
1.06662e-07
-2.07024e-06
1.0348e-07
-2.09106e-06
1.00154e-07
-2.11109e-06
9.66847e-08
-2.1303e-06
9.30711e-08
-2.14866e-06
8.93144e-08
-2.16613e-06
8.54149e-08
-2.18267e-06
8.1375e-08
-2.19826e-06
7.71957e-08
-2.21287e-06
7.28794e-08
-2.22645e-06
6.84285e-08
-2.23899e-06
6.38459e-08
-2.25044e-06
5.91348e-08
-2.2608e-06
5.42989e-08
-2.27002e-06
4.93421e-08
-2.27807e-06
4.42688e-08
-2.28495e-06
3.90839e-08
-2.29063e-06
3.37927e-08
-2.29509e-06
2.84011e-08
-2.29832e-06
2.29164e-08
-2.3003e-06
1.73475e-08
-2.30101e-06
1.17046e-08
-2.30045e-06
5.99936e-09
-2.29859e-06
2.45086e-10
-2.29541e-06
-5.54663e-09
-2.29086e-06
-1.13745e-08
-2.28492e-06
-1.72511e-08
-2.27758e-06
-2.31841e-08
-2.26881e-06
-2.91672e-08
-2.2586e-06
-3.51926e-08
-2.24695e-06
-4.12525e-08
-2.23384e-06
-4.73389e-08
-2.21928e-06
-5.34442e-08
-2.20326e-06
-5.95604e-08
-2.18578e-06
-6.56803e-08