/*--------------------------------*- C++ -*----------------------------------*\
| =========                 |                                                 |
| \\      /  F ield         | OpenFOAM: The Open Source CFD Toolbox           |
|  \\    /   O peration     | Version:  2406                                  |
|   \\  /    A nd           | Website:  www.openfoam.com                      |
|    \\/     M anipulation  |                                                 |
\*---------------------------------------------------------------------------*/
FoamFile
{
    version     2.0;
    format      ascii;
    arch        "LSB;label=32;scalar=64";
    class       volScalarField;
    location    "0.08";
    object      T;
}
// * * * * * * * * * * * * * * * * * * * * * * * * * * * * * * * * * * * * * //

dimensions      [0 0 0 1 0 0 0];

internalField   nonuniform List<scalar> 
12225
(
1.00694
1.00397
1.00144
1.00053
1.00001
0.99965
0.999458
0.99937
0.999324
0.999292
0.999268
0.999232
0.999159
0.99898
0.998533
0.997468
0.994626
0.988153
0.994965
0.99447
0.996349
0.997908
0.99867
0.998979
0.999136
0.99924
0.999303
0.999335
0.999344
0.999331
0.999272
0.999106
0.998677
0.997659
0.995095
0.989184
0.999592
0.99992
1
0.999967
0.999819
0.999637
0.999514
0.999449
0.99941
0.99938
0.999351
0.999312
0.999238
0.99907
0.998665
0.997724
0.995494
0.990765
1.00032
1.00007
0.999547
0.99942
0.999421
0.999388
0.999355
0.999341
0.999335
0.999326
0.999311
0.999284
0.99922
0.999071
0.99871
0.997887
0.996055
0.992415
1.00013
0.999833
0.999434
0.999387
0.999436
0.999423
0.999388
0.999365
0.999349
0.999333
0.999312
0.999281
0.999218
0.999079
0.998762
0.998068
0.996617
0.993912
0.999993
0.999846
0.999578
0.999496
0.999494
0.99946
0.999412
0.999376
0.999351
0.999327
0.999301
0.999265
0.999203
0.999078
0.998809
0.998247
0.997139
0.995186
0.999975
0.999925
0.999719
0.999592
0.999547
0.999499
0.999444
0.999399
0.999363
0.999331
0.999299
0.999258
0.999197
0.999086
0.998863
0.998425
0.997606
0.99623
0.999983
0.999963
0.999798
0.999661
0.999596
0.999539
0.999477
0.999423
0.999379
0.999338
0.999299
0.999254
0.999194
0.999094
0.998907
0.998558
0.997936
0.996924
0.999986
0.999973
0.99984
0.999706
0.999627
0.99956
0.999491
0.99943
0.999378
0.999331
0.999286
0.999238
0.999177
0.999086
0.998929
0.99865
0.998171
0.997415
0.999984
0.999963
0.999852
0.999723
0.999631
0.999554
0.999478
0.99941
0.999351
0.999298
0.999247
0.999195
0.999136
0.999054
0.998924
0.998707
0.998352
0.997807
0.99998
0.999942
0.99984
0.999715
0.999612
0.999524
0.999441
0.999366
0.9993
0.999242
0.999186
0.999132
0.999073
0.999
0.998893
0.998729
0.998475
0.998099
0.999976
0.999921
0.999818
0.999694
0.999583
0.999486
0.999398
0.999317
0.999246
0.999181
0.999122
0.999066
0.999009
0.998943
0.998856
0.998735
0.998559
0.998309
0.999975
0.999912
0.999811
0.99969
0.999577
0.999476
0.999384
0.9993
0.999224
0.999157
0.999097
0.99904
0.998983
0.998924
0.998855
0.998765
0.998646
0.998487
0.999978
0.999919
0.999828
0.999717
0.99961
0.999512
0.999421
0.999338
0.999264
0.999197
0.999138
0.999083
0.999029
0.998977
0.998921
0.998856
0.998777
0.998679
0.999982
0.999936
0.999861
0.999769
0.999677
0.99959
0.999511
0.999438
0.99937
0.999309
0.999255
0.999206
0.999161
0.999118
0.999073
0.999027
0.998975
0.998917
0.999987
0.999957
0.999905
0.99984
0.999774
0.999712
0.999654
0.9996
0.999548
0.999503
0.999462
0.999427
0.999395
0.999364
0.999332
0.999302
0.999272
0.99924
0.999993
0.999986
0.999968
0.999941
0.999912
0.999886
0.999864
0.999841
0.99982
0.999801
0.999783
0.999768
0.999755
0.999744
0.999732
0.999719
0.999707
0.999695
1
1.00003
1.00005
1.00007
1.00009
1.00011
1.00013
1.00015
1.00017
1.00018
1.0002
1.00021
1.00022
1.00023
1.00024
1.00025
1.00025
1.00025
1.00001
1.00006
1.00011
1.00017
1.00022
1.00028
1.00034
1.00039
1.00043
1.00048
1.00051
1.00055
1.00058
1.0006
1.00063
1.00065
1.00067
1.00068
1.00001
1.00006
1.00012
1.00019
1.00026
1.00033
1.00039
1.00046
1.00052
1.00057
1.00062
1.00067
1.00071
1.00075
1.00078
1.00081
1.00084
1.00086
1.00001
1.00006
1.00012
1.00018
1.00025
1.00031
1.00038
1.00045
1.00051
1.00057
1.00062
1.00068
1.00072
1.00077
1.00081
1.00085
1.00088
1.00091
1.00001
1.00006
1.00012
1.00017
1.00023
1.0003
1.00036
1.00043
1.00049
1.00055
1.00061
1.00067
1.00072
1.00077
1.00081
1.00085
1.00089
1.00092
1
1.00008
1.00013
1.00016
1.00021
1.00027
1.00034
1.00041
1.00048
1.00054
1.0006
1.00066
1.00071
1.00076
1.00081
1.00085
1.00089
1.00093
0.999997
1.0001
1.00014
1.00015
1.00019
1.00026
1.00033
1.0004
1.00047
1.00054
1.00061
1.00067
1.00072
1.00077
1.00082
1.00086
1.00091
1.00094
1
1.00009
1.0001
1.00012
1.00019
1.00028
1.00035
1.00042
1.00049
1.00056
1.00063
1.00069
1.00074
1.00079
1.00084
1.00088
1.00093
1.00097
1.00014
1.00014
0.999953
0.999972
1.00014
1.00029
1.00039
1.00047
1.00055
1.00062
1.00068
1.00074
1.0008
1.00084
1.00089
1.00093
1.00097
1.00101
1.0005
1.00058
1.0001
0.999927
1.00003
1.00018
1.00031
1.00042
1.00053
1.00062
1.0007
1.00076
1.00082
1.00088
1.00093
1.00097
1.00102
1.00106
1.00004
1.00088
1.00115
1.00111
1.00099
1.00088
1.00081
1.0008
1.00082
1.00085
1.00088
1.00092
1.00096
1.00099
1.00103
1.00106
1.0011
1.00113
0.994517
0.993822
0.99606
0.998048
0.999185
0.99978
1.00015
1.0004
1.00059
1.00072
1.00083
1.00091
1.00098
1.00104
1.00109
1.00114
1.00118
1.00121
1.00648
1.00454
1.00223
1.0015
1.00119
1.00097
1.00088
1.00087
1.00089
1.00092
1.00096
1.00099
1.00103
1.00107
1.0011
1.00114
1.00117
1.00122
0.712491
0.712492
0.71245
0.71239
0.712327
0.712257
0.712175
0.712086
0.711991
0.711891
0.711787
0.71168
0.711568
0.711454
0.711338
0.71122
0.711103
0.710987
0.710875
0.710767
0.710666
0.710573
0.71049
0.710418
0.71036
0.710317
0.710288
0.710274
0.710273
0.710288
0.710331
0.710428
0.710652
0.711126
0.711613
0.711934
0.712271
0.712579
0.712876
0.713172
0.713439
0.713761
0.714176
0.714569
0.715
0.715513
0.716044
0.716603
0.717188
0.717799
0.718432
0.719087
0.719761
0.720455
0.721165
0.721891
0.722633
0.723388
0.724157
0.724936
0.725726
0.726525
0.727332
0.728147
0.728968
0.729794
0.730623
0.731456
0.732291
0.733128
0.733966
0.734803
0.735639
0.736473
0.737306
0.738135
0.738961
0.739783
0.7406
0.741412
0.742218
0.743019
0.743813
0.7446
0.745381
0.746154
0.74692
0.747678
0.748428
0.749171
0.749905
0.750631
0.751347
0.752055
0.752754
0.753442
0.754118
0.754781
0.755437
0.756086
0.756725
0.757355
0.757973
0.758582
0.759179
0.759766
0.760342
0.760906
0.76146
0.762003
0.762534
0.763053
0.763561
0.764058
0.764542
0.765015
0.765476
0.765924
0.76636
0.766783
0.767194
0.767591
0.767974
0.768343
0.768698
0.769039
0.769365
0.769678
0.769976
0.770259
0.770528
0.770783
0.771023
0.771248
0.771458
0.771653
0.771833
0.771998
0.772147
0.772282
0.772401
0.772504
0.772591
0.772661
0.772713
0.772748
0.772766
0.772765
0.772747
0.77271
0.772655
0.772581
0.772489
0.772378
0.772248
0.772099
0.771932
0.771745
0.771539
0.771313
0.771068
0.770801
0.770505
0.770167
0.769792
0.769394
0.768977
0.768545
0.768096
0.76763
0.767146
0.766644
0.766124
0.765582
0.76502
0.764429
0.76383
0.763105
0.762623
0.760896
0.713239
0.713229
0.713211
0.713177
0.713135
0.713084
0.713024
0.712953
0.712868
0.712773
0.712667
0.712554
0.712436
0.712316
0.712194
0.712073
0.711954
0.711838
0.711728
0.711625
0.711532
0.711451
0.711385
0.711337
0.711312
0.711314
0.711348
0.711419
0.711531
0.711685
0.711875
0.712083
0.712288
0.712317
0.712253
0.712356
0.712548
0.712818
0.713149
0.713516
0.713936
0.71437
0.714773
0.715232
0.715748
0.716259
0.716789
0.717341
0.717918
0.718519
0.719144
0.71979
0.720456
0.721141
0.721843
0.722562
0.723297
0.724045
0.724805
0.725578
0.72636
0.727152
0.727953
0.72876
0.729574
0.730393
0.731216
0.732042
0.73287
0.7337
0.734531
0.735361
0.736191
0.737019
0.737845
0.738668
0.739487
0.740302
0.741113
0.741918
0.742719
0.743513
0.7443
0.745082
0.745856
0.746623
0.747382
0.748133
0.748877
0.749612
0.750338
0.751056
0.751765
0.752465
0.753156
0.753839
0.754513
0.75518
0.755836
0.756479
0.757112
0.757734
0.758345
0.758945
0.759535
0.760113
0.760681
0.761237
0.761782
0.762316
0.762839
0.763349
0.763848
0.764335
0.76481
0.765274
0.765724
0.766163
0.766588
0.767001
0.767401
0.767788
0.76816
0.768519
0.768862
0.769192
0.769507
0.769808
0.770094
0.770365
0.770622
0.770865
0.771092
0.771304
0.771501
0.771684
0.77185
0.772002
0.772138
0.772258
0.772363
0.772451
0.772523
0.772578
0.772615
0.772634
0.772636
0.772619
0.772584
0.772531
0.772458
0.772367
0.772257
0.772128
0.771979
0.771812
0.771625
0.771418
0.771192
0.770946
0.770679
0.770392
0.770084
0.769761
0.769419
0.769056
0.768673
0.768271
0.767851
0.767412
0.766954
0.766478
0.765981
0.765464
0.764926
0.764361
0.763786
0.763113
0.762592
0.76129
0.714834
0.714778
0.71474
0.7147
0.714651
0.714589
0.714513
0.714426
0.714328
0.71422
0.714103
0.71398
0.713852
0.713721
0.713589
0.713458
0.713328
0.713203
0.713084
0.712972
0.712871
0.712782
0.712708
0.712651
0.712613
0.712597
0.712602
0.712629
0.712676
0.71274
0.712821
0.712923
0.713051
0.713189
0.713336
0.71352
0.713734
0.713985
0.714277
0.71461
0.71499
0.715414
0.715868
0.716347
0.716844
0.717354
0.717885
0.718438
0.719013
0.719609
0.720227
0.720866
0.721525
0.722202
0.722896
0.723607
0.724333
0.725073
0.725826
0.72659
0.727365
0.72815
0.728943
0.729743
0.73055
0.731362
0.732179
0.732999
0.733822
0.734647
0.735472
0.736298
0.737123
0.737947
0.738769
0.739588
0.740404
0.741216
0.742024
0.742828
0.743626
0.744418
0.745204
0.745984
0.746758
0.747523
0.748282
0.749033
0.749776
0.750512
0.751239
0.751958
0.752667
0.753368
0.75406
0.754742
0.755415
0.756078
0.756732
0.757376
0.758009
0.758632
0.759245
0.759847
0.760438
0.761018
0.761586
0.762144
0.762691
0.763226
0.76375
0.764262
0.764762
0.765251
0.765727
0.766192
0.766644
0.767083
0.76751
0.767924
0.768324
0.768711
0.769084
0.769443
0.769787
0.770116
0.770431
0.770732
0.771018
0.771289
0.771545
0.771786
0.772012
0.772223
0.772419
0.772599
0.772764
0.772913
0.773046
0.773164
0.773265
0.77335
0.773418
0.773468
0.773501
0.773516
0.773512
0.77349
0.773449
0.77339
0.773312
0.773214
0.773097
0.772961
0.772805
0.77263
0.772435
0.772221
0.771987
0.771733
0.771459
0.771165
0.770853
0.770528
0.770189
0.76983
0.769452
0.769055
0.768639
0.768203
0.767749
0.767275
0.766782
0.766267
0.765731
0.765167
0.764587
0.763923
0.763366
0.76231
0.717211
0.71711
0.717045
0.716989
0.716923
0.716843
0.716749
0.716644
0.716528
0.716403
0.716271
0.716133
0.71599
0.715844
0.715698
0.715552
0.715409
0.715271
0.715139
0.715015
0.714901
0.714799
0.714712
0.714641
0.714587
0.714552
0.714537
0.714541
0.714567
0.714614
0.714685
0.714784
0.714909
0.715053
0.715218
0.715414
0.715639
0.715894
0.716179
0.716496
0.716845
0.717226
0.717636
0.718077
0.718545
0.719036
0.719552
0.72009
0.720652
0.721235
0.721839
0.722464
0.723109
0.723771
0.724452
0.725148
0.72586
0.726586
0.727325
0.728076
0.728838
0.72961
0.730391
0.73118
0.731976
0.732777
0.733583
0.734394
0.735207
0.736023
0.73684
0.737658
0.738476
0.739294
0.740109
0.740923
0.741735
0.742542
0.743347
0.744147
0.744942
0.745732
0.746517
0.747295
0.748067
0.748833
0.749592
0.750343
0.751088
0.751824
0.752553
0.753274
0.753987
0.75469
0.755385
0.756071
0.756748
0.757416
0.758074
0.758722
0.759359
0.759987
0.760605
0.761211
0.761808
0.762393
0.762968
0.763531
0.764083
0.764624
0.765154
0.765672
0.766178
0.766673
0.767155
0.767625
0.768083
0.768529
0.768961
0.76938
0.769787
0.770179
0.770557
0.770921
0.77127
0.771604
0.771924
0.772229
0.77252
0.772795
0.773055
0.7733
0.773529
0.773743
0.773942
0.774124
0.774291
0.774442
0.774577
0.774696
0.774799
0.774884
0.774952
0.775002
0.775034
0.775048
0.775043
0.77502
0.774977
0.774915
0.774834
0.774734
0.774614
0.774474
0.774315
0.774136
0.773937
0.773719
0.77348
0.773222
0.772944
0.772647
0.772332
0.772001
0.771654
0.771288
0.770904
0.7705
0.770078
0.769637
0.769177
0.768698
0.768198
0.767677
0.767134
0.766562
0.765968
0.765298
0.764711
0.763763
0.720334
0.720191
0.720101
0.720031
0.71995
0.719853
0.71974
0.719615
0.719479
0.719334
0.719182
0.719023
0.71886
0.718695
0.718529
0.718363
0.718201
0.718043
0.717892
0.717749
0.717616
0.717495
0.717388
0.717296
0.717222
0.717166
0.71713
0.717115
0.717122
0.717154
0.717211
0.717294
0.717402
0.717534
0.71769
0.717875
0.718089
0.718332
0.718604
0.718906
0.719237
0.719598
0.719986
0.720402
0.720846
0.721315
0.72181
0.722328
0.72287
0.723433
0.724019
0.724624
0.72525
0.725893
0.726555
0.727233
0.727926
0.728634
0.729355
0.730089
0.730834
0.73159
0.732355
0.733128
0.733909
0.734696
0.735489
0.736286
0.737087
0.737892
0.738698
0.739506
0.740314
0.741123
0.74193
0.742737
0.743541
0.744343
0.745142
0.745937
0.746728
0.747515
0.748297
0.749073
0.749844
0.750608
0.751367
0.752118
0.752863
0.753601
0.754331
0.755054
0.755769
0.756475
0.757173
0.757863
0.758544
0.759215
0.759877
0.76053
0.761173
0.761806
0.762429
0.763042
0.763645
0.764236
0.764817
0.765387
0.765946
0.766494
0.767031
0.767556
0.768069
0.768571
0.76906
0.769537
0.770002
0.770454
0.770894
0.77132
0.771733
0.772131
0.772516
0.772886
0.773241
0.773581
0.773906
0.774217
0.774512
0.774792
0.775057
0.775306
0.77554
0.775757
0.775959
0.776145
0.776314
0.776467
0.776604
0.776724
0.776828
0.776913
0.776981
0.777031
0.777062
0.777075
0.777069
0.777043
0.776998
0.776934
0.77685
0.776746
0.776622
0.776479
0.776315
0.776132
0.775928
0.775704
0.77546
0.775197
0.774913
0.774611
0.774289
0.773951
0.773595
0.773221
0.772829
0.772417
0.771988
0.771539
0.771071
0.770584
0.770077
0.769548
0.768996
0.768414
0.767808
0.76713
0.766526
0.765605
0.724208
0.724035
0.723925
0.723841
0.723746
0.72363
0.723498
0.723352
0.723194
0.723027
0.722851
0.722669
0.722482
0.722293
0.722102
0.721913
0.721727
0.721546
0.721371
0.721205
0.721049
0.720905
0.720775
0.72066
0.720563
0.720484
0.720426
0.72039
0.720377
0.720389
0.720425
0.720488
0.720576
0.720689
0.720828
0.720994
0.72119
0.721413
0.721666
0.721947
0.722258
0.722596
0.722962
0.723356
0.723775
0.72422
0.72469
0.725184
0.725701
0.72624
0.726801
0.727382
0.727983
0.728603
0.729241
0.729895
0.730565
0.73125
0.731949
0.732661
0.733384
0.734119
0.734864
0.735617
0.736379
0.737148
0.737923
0.738704
0.739489
0.740278
0.74107
0.741864
0.74266
0.743456
0.744253
0.745049
0.745844
0.746637
0.747428
0.748216
0.749001
0.749782
0.750559
0.751331
0.752098
0.75286
0.753617
0.754367
0.755111
0.755848
0.756579
0.757302
0.758019
0.758727
0.759427
0.760119
0.760803
0.761479
0.762145
0.762802
0.76345
0.764088
0.764717
0.765335
0.765943
0.766541
0.767129
0.767705
0.768271
0.768826
0.76937
0.769902
0.770422
0.770931
0.771427
0.771912
0.772384
0.772843
0.773289
0.773722
0.774142
0.774547
0.774938
0.775314
0.775675
0.776021
0.776353
0.776668
0.776969
0.777254
0.777523
0.777776
0.778013
0.778234
0.778439
0.778627
0.778799
0.778954
0.779092
0.779213
0.779316
0.779402
0.779469
0.779518
0.779547
0.779558
0.779549
0.77952
0.779472
0.779404
0.779315
0.779207
0.779078
0.77893
0.77876
0.778571
0.778361
0.77813
0.77788
0.777609
0.777318
0.777008
0.776679
0.776332
0.775967
0.775584
0.775183
0.774763
0.774324
0.773867
0.773391
0.772895
0.77238
0.771842
0.77128
0.770689
0.770071
0.769384
0.768766
0.767832
0.728854
0.728663
0.728539
0.728441
0.728329
0.728194
0.728042
0.727874
0.727693
0.7275
0.727299
0.727091
0.726878
0.726662
0.726445
0.726229
0.726016
0.725808
0.725607
0.725414
0.725232
0.725062
0.724907
0.724767
0.724645
0.724542
0.72446
0.7244
0.724364
0.724351
0.724364
0.724403
0.724467
0.724557
0.724673
0.724817
0.724989
0.725188
0.725416
0.725672
0.725956
0.726268
0.726607
0.726973
0.727364
0.727781
0.728221
0.728686
0.729173
0.729683
0.730214
0.730766
0.731338
0.731929
0.732537
0.733163
0.733805
0.734462
0.735133
0.735818
0.736515
0.737224
0.737944
0.738673
0.739412
0.740158
0.740911
0.741671
0.742436
0.743205
0.743979
0.744755
0.745534
0.746315
0.747097
0.747879
0.748661
0.749443
0.750222
0.751
0.751776
0.752548
0.753318
0.754083
0.754844
0.755601
0.756353
0.757099
0.75784
0.758575
0.759305
0.760027
0.760743
0.761452
0.762153
0.762846
0.763532
0.76421
0.764879
0.765539
0.766191
0.766833
0.767466
0.768089
0.768703
0.769306
0.769899
0.770481
0.771053
0.771614
0.772164
0.772703
0.77323
0.773745
0.774249
0.77474
0.775218
0.775685
0.776138
0.776577
0.777003
0.777414
0.777811
0.778194
0.778561
0.778912
0.779249
0.77957
0.779875
0.780164
0.780437
0.780694
0.780935
0.781158
0.781365
0.781556
0.781729
0.781885
0.782024
0.782145
0.782248
0.782332
0.782398
0.782445
0.782472
0.782479
0.782467
0.782435
0.782382
0.782309
0.782215
0.782101
0.781966
0.781811
0.781635
0.781438
0.78122
0.780982
0.780723
0.780444
0.780144
0.779826
0.779487
0.779131
0.778756
0.778363
0.777951
0.777521
0.777073
0.776606
0.77612
0.775615
0.77509
0.774543
0.773972
0.773371
0.772742
0.772045
0.771411
0.770446
0.734306
0.734106
0.733969
0.733856
0.733726
0.733573
0.733399
0.733208
0.733002
0.732784
0.732556
0.73232
0.732079
0.731834
0.731588
0.731343
0.731101
0.730864
0.730634
0.730413
0.730202
0.730005
0.729822
0.729655
0.729506
0.729376
0.729267
0.72918
0.729117
0.729078
0.729063
0.729074
0.729111
0.729173
0.729262
0.729378
0.729521
0.729692
0.729891
0.730117
0.73037
0.73065
0.730957
0.73129
0.731648
0.732031
0.732438
0.732868
0.733321
0.733796
0.734293
0.73481
0.735347
0.735903
0.736477
0.737069
0.737677
0.738301
0.73894
0.739592
0.740258
0.740936
0.741626
0.742326
0.743035
0.743754
0.74448
0.745214
0.745954
0.746699
0.74745
0.748204
0.748962
0.749723
0.750486
0.75125
0.752015
0.75278
0.753544
0.754308
0.75507
0.755831
0.756589
0.757344
0.758096
0.758844
0.759588
0.760328
0.761063
0.761793
0.762518
0.763236
0.763949
0.764655
0.765355
0.766047
0.766733
0.76741
0.76808
0.768742
0.769395
0.77004
0.770675
0.771301
0.771918
0.772525
0.773122
0.773709
0.774285
0.774851
0.775406
0.77595
0.776483
0.777004
0.777512
0.778009
0.778494
0.778966
0.779424
0.779869
0.780301
0.780717
0.78112
0.781507
0.781879
0.782235
0.782576
0.782901
0.783211
0.783503
0.78378
0.78404
0.784282
0.784508
0.784717
0.784909
0.785083
0.785239
0.785378
0.785498
0.7856
0.785682
0.785746
0.78579
0.785814
0.785817
0.7858
0.785763
0.785705
0.785626
0.785526
0.785406
0.785264
0.785101
0.784916
0.784711
0.784485
0.784237
0.783969
0.78368
0.783371
0.783042
0.782694
0.782327
0.781941
0.781536
0.781113
0.780672
0.780213
0.779735
0.779239
0.778724
0.778188
0.777631
0.77705
0.776439
0.7758
0.775092
0.774442
0.773441
0.740604
0.740397
0.740249
0.74012
0.739972
0.739799
0.739602
0.739387
0.739156
0.738911
0.738655
0.73839
0.738119
0.737844
0.737568
0.737292
0.73702
0.736752
0.736491
0.736239
0.735999
0.735771
0.735558
0.735362
0.735183
0.735024
0.734885
0.734769
0.734675
0.734606
0.734561
0.73454
0.734546
0.734577
0.734634
0.734717
0.734828
0.734965
0.735129
0.73532
0.735537
0.735781
0.736051
0.736346
0.736665
0.737009
0.737377
0.737768
0.738181
0.738616
0.739073
0.739549
0.740046
0.740562
0.741097
0.741649
0.742217
0.742802
0.743403
0.744018
0.744646
0.745288
0.745941
0.746606
0.747282
0.747967
0.748661
0.749363
0.750072
0.750788
0.75151
0.752237
0.752969
0.753704
0.754442
0.755183
0.755926
0.75667
0.757415
0.75816
0.758904
0.759648
0.76039
0.761131
0.761869
0.762604
0.763336
0.764065
0.76479
0.765511
0.766227
0.766938
0.767644
0.768345
0.769039
0.769727
0.770409
0.771083
0.771751
0.772411
0.773062
0.773706
0.774342
0.774968
0.775585
0.776194
0.776792
0.777381
0.77796
0.778528
0.779086
0.779633
0.780169
0.780693
0.781206
0.781706
0.782195
0.78267
0.783133
0.783582
0.784017
0.784437
0.784843
0.785234
0.785609
0.785969
0.786313
0.786641
0.786953
0.787248
0.787527
0.787788
0.788032
0.788259
0.788468
0.78866
0.788833
0.788989
0.789126
0.789245
0.789344
0.789424
0.789484
0.789524
0.789544
0.789542
0.78952
0.789477
0.789413
0.789327
0.78922
0.789091
0.788941
0.78877
0.788576
0.788362
0.788126
0.787868
0.78759
0.78729
0.78697
0.78663
0.786271
0.785892
0.785494
0.785077
0.784643
0.78419
0.783718
0.783229
0.782721
0.782195
0.78165
0.781082
0.780491
0.77987
0.779221
0.778502
0.777838
0.7768
0.747791
0.747579
0.747419
0.747274
0.747106
0.746911
0.746692
0.746452
0.746194
0.745921
0.745636
0.745342
0.74504
0.744734
0.744426
0.744118
0.743813
0.743513
0.743219
0.742936
0.742663
0.742403
0.742158
0.741929
0.741718
0.741527
0.741356
0.741207
0.74108
0.740977
0.740897
0.740842
0.740813
0.740808
0.740829
0.740875
0.740948
0.741047
0.741172
0.741322
0.741499
0.741701
0.741928
0.74218
0.742456
0.742756
0.743079
0.743424
0.743792
0.744181
0.744592
0.745023
0.745473
0.745943
0.746432
0.746938
0.747462
0.748002
0.748558
0.749128
0.749714
0.750312
0.750924
0.751547
0.752182
0.752828
0.753483
0.754147
0.75482
0.7555
0.756187
0.756881
0.75758
0.758284
0.758992
0.759704
0.760418
0.761135
0.761854
0.762575
0.763296
0.764017
0.764738
0.765458
0.766177
0.766894
0.767609
0.768322
0.769032
0.769739
0.770442
0.771141
0.771835
0.772525
0.77321
0.773889
0.774562
0.775229
0.77589
0.776544
0.777191
0.77783
0.778461
0.779084
0.779699
0.780304
0.780901
0.781488
0.782066
0.782634
0.783191
0.783738
0.784274
0.784799
0.785313
0.785814
0.786304
0.786781
0.787244
0.787695
0.788131
0.788553
0.78896
0.789353
0.78973
0.790091
0.790436
0.790765
0.791077
0.791373
0.791651
0.791913
0.792156
0.792383
0.792591
0.792781
0.792953
0.793106
0.793241
0.793356
0.793452
0.793527
0.793583
0.793618
0.793632
0.793624
0.793596
0.793545
0.793474
0.79338
0.793265
0.793127
0.792968
0.792787
0.792584
0.792359
0.792112
0.791844
0.791554
0.791243
0.790912
0.79056
0.790188
0.789797
0.789386
0.788957
0.78851
0.788044
0.787561
0.787059
0.78654
0.786002
0.785446
0.784868
0.784267
0.783637
0.782979
0.78225
0.781572
0.7805
0.755913
0.755697
0.755525
0.755361
0.755173
0.754956
0.754712
0.754446
0.754161
0.753859
0.753544
0.753218
0.752884
0.752546
0.752204
0.751863
0.751524
0.75119
0.750863
0.750544
0.750237
0.749943
0.749664
0.749401
0.749155
0.748928
0.748722
0.748537
0.748373
0.748233
0.748116
0.748023
0.747953
0.747909
0.747889
0.747894
0.747924
0.74798
0.74806
0.748166
0.748296
0.748451
0.74863
0.748833
0.74906
0.74931
0.749582
0.749877
0.750193
0.750531
0.750889
0.751268
0.751666
0.752084
0.75252
0.752975
0.753446
0.753935
0.754439
0.75496
0.755495
0.756044
0.756606
0.757182
0.757769
0.758368
0.758978
0.759597
0.760226
0.760864
0.761509
0.762162
0.762822
0.763487
0.764158
0.764834
0.765514
0.766197
0.766883
0.767572
0.768263
0.768955
0.769648
0.770341
0.771035
0.771728
0.772419
0.77311
0.773798
0.774485
0.775168
0.775849
0.776527
0.7772
0.77787
0.778534
0.779194
0.779849
0.780497
0.78114
0.781776
0.782406
0.783028
0.783643
0.78425
0.784849
0.785439
0.786021
0.786593
0.787156
0.787709
0.788252
0.788785
0.789306
0.789817
0.790316
0.790803
0.791278
0.79174
0.792188
0.792623
0.793043
0.793449
0.79384
0.794215
0.794575
0.794918
0.795246
0.795556
0.79585
0.796127
0.796386
0.796627
0.79685
0.797055
0.797242
0.79741
0.797559
0.797689
0.7978
0.79789
0.79796
0.79801
0.798038
0.798045
0.79803
0.797994
0.797935
0.797855
0.797753
0.797628
0.797481
0.797312
0.79712
0.796906
0.79667
0.796412
0.796132
0.79583
0.795507
0.795163
0.794799
0.794414
0.79401
0.793586
0.793144
0.792684
0.792205
0.791709
0.791195
0.790664
0.790115
0.789548
0.78896
0.78835
0.787712
0.787046
0.786309
0.785619
0.784519
0.765022
0.764803
0.764617
0.764433
0.764223
0.763981
0.763712
0.763418
0.763104
0.762772
0.762425
0.762066
0.761699
0.761326
0.760949
0.760573
0.760198
0.759828
0.759465
0.759111
0.758767
0.758437
0.75812
0.75782
0.757536
0.757272
0.757027
0.756802
0.756599
0.756417
0.756259
0.756123
0.75601
0.755921
0.755856
0.755815
0.755798
0.755805
0.755836
0.755891
0.755969
0.756072
0.756197
0.756346
0.756517
0.756711
0.756927
0.757164
0.757423
0.757703
0.758003
0.758323
0.758662
0.759021
0.759398
0.759793
0.760206
0.760636
0.761082
0.761544
0.762022
0.762514
0.76302
0.76354
0.764073
0.764617
0.765174
0.765741
0.766318
0.766905
0.767502
0.768106
0.768718
0.769337
0.769963
0.770595
0.771232
0.771874
0.77252
0.773169
0.773822
0.774478
0.775135
0.775794
0.776454
0.777115
0.777776
0.778437
0.779097
0.779756
0.780413
0.781069
0.781722
0.782373
0.78302
0.783664
0.784304
0.784939
0.78557
0.786195
0.786815
0.787429
0.788037
0.788638
0.789231
0.789818
0.790396
0.790967
0.791529
0.792082
0.792625
0.79316
0.793684
0.794197
0.7947
0.795192
0.795673
0.796141
0.796597
0.79704
0.797469
0.797884
0.798284
0.79867
0.799041
0.799395
0.799734
0.800057
0.800363
0.800652
0.800923
0.801177
0.801413
0.801631
0.801831
0.802012
0.802174
0.802317
0.802441
0.802544
0.802627
0.80269
0.802731
0.802752
0.80275
0.802727
0.802681
0.802613
0.802523
0.802411
0.802275
0.802118
0.801937
0.801734
0.801508
0.80126
0.80099
0.800698
0.800384
0.800048
0.799691
0.799314
0.798916
0.798498
0.798061
0.797606
0.797132
0.796641
0.796132
0.795606
0.795063
0.794503
0.793925
0.793328
0.79271
0.792064
0.791392
0.790648
0.78995
0.788827
0.775177
0.774953
0.774751
0.774546
0.774311
0.774043
0.773745
0.773421
0.773075
0.77271
0.772329
0.771935
0.771531
0.771122
0.770708
0.770294
0.769881
0.769473
0.769071
0.768678
0.768296
0.767926
0.767569
0.767229
0.766905
0.766599
0.766312
0.766044
0.765797
0.765571
0.765367
0.765184
0.765024
0.764886
0.764771
0.764678
0.764609
0.764562
0.764538
0.764536
0.764558
0.764601
0.764667
0.764756
0.764866
0.764997
0.76515
0.765323
0.765518
0.765732
0.765967
0.766221
0.766495
0.766787
0.767098
0.767426
0.767773
0.768136
0.768517
0.768913
0.769325
0.769752
0.770194
0.77065
0.771119
0.771602
0.772096
0.772603
0.77312
0.773648
0.774186
0.774733
0.775289
0.775854
0.776426
0.777005
0.77759
0.778182
0.778779
0.77938
0.779987
0.780597
0.78121
0.781826
0.782445
0.783065
0.783687
0.78431
0.784933
0.785557
0.78618
0.786802
0.787424
0.788043
0.788661
0.789276
0.789888
0.790497
0.791103
0.791704
0.7923
0.792892
0.793478
0.794058
0.794632
0.795199
0.79576
0.796313
0.796858
0.797395
0.797924
0.798443
0.798954
0.799454
0.799944
0.800424
0.800893
0.80135
0.801795
0.802227
0.802646
0.803051
0.803442
0.803818
0.80418
0.804526
0.804857
0.805171
0.805468
0.805749
0.806012
0.806258
0.806486
0.806695
0.806886
0.807059
0.807213
0.807347
0.807462
0.807556
0.80763
0.807683
0.807715
0.807725
0.807713
0.807679
0.807623
0.807544
0.807443
0.807319
0.807172
0.807003
0.80681
0.806595
0.806357
0.806096
0.805813
0.805508
0.805181
0.804832
0.804462
0.804071
0.80366
0.803229
0.802779
0.80231
0.801823
0.801319
0.800798
0.80026
0.799705
0.799135
0.798547
0.797941
0.797315
0.796664
0.795988
0.79524
0.794536
0.793397
0.786442
0.78621
0.78599
0.785759
0.785496
0.785198
0.784868
0.78451
0.784128
0.783726
0.783306
0.782873
0.78243
0.78198
0.781526
0.78107
0.780617
0.780167
0.779724
0.779289
0.778864
0.778452
0.778053
0.777669
0.777301
0.77695
0.776617
0.776303
0.776009
0.775734
0.775479
0.775246
0.775033
0.774841
0.77467
0.774521
0.774393
0.774287
0.774202
0.774138
0.774096
0.774075
0.774075
0.774096
0.774138
0.7742
0.774283
0.774385
0.774508
0.77465
0.774812
0.774993
0.775192
0.775411
0.775647
0.775901
0.776173
0.776462
0.776768
0.77709
0.777428
0.777782
0.77815
0.778534
0.778931
0.779341
0.779765
0.780201
0.780649
0.781109
0.781579
0.78206
0.782551
0.783051
0.783559
0.784076
0.7846
0.785132
0.78567
0.786215
0.786765
0.78732
0.787879
0.788443
0.789011
0.789582
0.790155
0.790731
0.791308
0.791887
0.792467
0.793048
0.793628
0.794208
0.794788
0.795366
0.795942
0.796517
0.797088
0.797657
0.798222
0.798783
0.79934
0.799892
0.800439
0.80098
0.801516
0.802044
0.802566
0.803081
0.803587
0.804086
0.804576
0.805057
0.805528
0.80599
0.806441
0.806881
0.807309
0.807726
0.808129
0.808519
0.808896
0.809259
0.809607
0.80994
0.810257
0.810559
0.810844
0.811112
0.811363
0.811597
0.811813
0.812011
0.812191
0.812352
0.812494
0.812617
0.81272
0.812803
0.812865
0.812906
0.812926
0.812924
0.8129
0.812854
0.812786
0.812695
0.812581
0.812444
0.812285
0.812102
0.811897
0.811668
0.811417
0.811143
0.810847
0.810528
0.810187
0.809825
0.809441
0.809037
0.808612
0.808168
0.807705
0.807223
0.806723
0.806207
0.805673
0.805124
0.804558
0.803978
0.803381
0.802768
0.802136
0.80148
0.800801
0.800052
0.799347
0.798199
0.798887
0.798643
0.798401
0.798141
0.797844
0.79751
0.797141
0.796743
0.796319
0.795873
0.795409
0.794931
0.794443
0.793947
0.793447
0.792946
0.792446
0.791951
0.791462
0.790982
0.790511
0.790053
0.789607
0.789176
0.78876
0.788361
0.787978
0.787614
0.787267
0.786939
0.786629
0.786339
0.786068
0.785817
0.785586
0.785374
0.785182
0.78501
0.784857
0.784725
0.784612
0.784519
0.784446
0.784393
0.784359
0.784344
0.784349
0.784373
0.784416
0.784478
0.784559
0.784658
0.784776
0.784912
0.785065
0.785236
0.785425
0.785631
0.785853
0.786092
0.786347
0.786617
0.786903
0.787204
0.78752
0.787849
0.788192
0.788548
0.788917
0.789298
0.789691
0.790095
0.79051
0.790935
0.79137
0.791814
0.792268
0.792729
0.793198
0.793675
0.794158
0.794648
0.795144
0.795646
0.796152
0.796663
0.797178
0.797697
0.798218
0.798743
0.79927
0.799799
0.800329
0.80086
0.801392
0.801924
0.802456
0.802986
0.803515
0.804043
0.804568
0.80509
0.80561
0.806125
0.806637
0.807144
0.807646
0.808143
0.808634
0.809119
0.809596
0.810067
0.81053
0.810984
0.81143
0.811867
0.812294
0.812711
0.813117
0.813511
0.813894
0.814264
0.814621
0.814964
0.815293
0.815608
0.815908
0.816192
0.81646
0.816712
0.816947
0.817165
0.817365
0.817548
0.817712
0.817859
0.817986
0.818094
0.818183
0.818251
0.818299
0.818326
0.818331
0.818315
0.818277
0.818217
0.818135
0.81803
0.817902
0.817751
0.817578
0.817381
0.817162
0.816919
0.816654
0.816366
0.816056
0.815724
0.815369
0.814993
0.814596
0.814178
0.81374
0.813282
0.812806
0.812311
0.8118
0.811271
0.810726
0.810166
0.809591
0.809001
0.808396
0.807776
0.80714
0.806482
0.805803
0.805056
0.804353
0.803204
0.812626
0.812365
0.812093
0.811796
0.811456
0.811075
0.810656
0.810204
0.809725
0.809223
0.808703
0.808168
0.807623
0.807071
0.806517
0.805962
0.805409
0.804861
0.80432
0.803788
0.803267
0.802757
0.80226
0.801776
0.801308
0.800855
0.800417
0.799997
0.799592
0.799205
0.798836
0.798483
0.798148
0.797831
0.797532
0.797251
0.796987
0.796742
0.796514
0.796305
0.796114
0.795941
0.795786
0.79565
0.795531
0.795432
0.79535
0.795286
0.795241
0.795213
0.795204
0.795212
0.795238
0.795282
0.795342
0.795421
0.795516
0.795628
0.795757
0.795902
0.796064
0.796241
0.796434