/*--------------------------------*- C++ -*----------------------------------*\
| =========                 |                                                 |
| \\      /  F ield         | OpenFOAM: The Open Source CFD Toolbox           |
|  \\    /   O peration     | Version:  2406                                  |
|   \\  /    A nd           | Website:  www.openfoam.com                      |
|    \\/     M anipulation  |                                                 |
\*---------------------------------------------------------------------------*/
FoamFile
{
    version     2.0;
    format      ascii;
    arch        "LSB;label=32;scalar=64";
    class       volScalarField;
    location    "9.5";
    object      p;
}
// * * * * * * * * * * * * * * * * * * * * * * * * * * * * * * * * * * * * * //

dimensions      [0 2 -2 0 0 0 0];

internalField   nonuniform List<scalar> 
34560
(
-42.357713
-42.347154
-42.334251
-42.320414
-42.306469
-42.295066
-42.288642
-42.287474
-42.290031
-42.427119
-42.414772
-42.399161
-42.381504
-42.362819
-42.346408
-42.335146
-42.329764
-42.329306
-42.488228
-42.474544
-42.457164
-42.437269
-42.415707
-42.395797
-42.380607
-42.371003
-42.366356
-42.546418
-42.531509
-42.512442
-42.4904
-42.466135
-42.442986
-42.423986
-42.409913
-42.400407
-42.600789
-42.584819
-42.56428
-42.540326
-42.513596
-42.487416
-42.464668
-42.446149
-42.431522
-42.648995
-42.632382
-42.610869
-42.58552
-42.556832
-42.528024
-42.501855
-42.479231
-42.4596
-42.691755
-42.674557
-42.652178
-42.62561
-42.595215
-42.564089
-42.534874
-42.508514
-42.484364
-42.728185
-42.710544
-42.68749
-42.659937
-42.62812
-42.595012
-42.563164
-42.53332
-42.505522
-42.757874
-42.739922
-42.716367
-42.688047
-42.655088
-42.620333
-42.586342
-42.553545
-42.522837
-42.780296
-42.762169
-42.738296
-42.709438
-42.675631
-42.639621
-42.604028
-42.568929
-42.536024
-42.795358
-42.777098
-42.753004
-42.723791
-42.689421
-42.652576
-42.615935
-42.579255
-42.544881
-42.803019
-42.784689
-42.760469
-42.731046
-42.696352
-42.659053
-42.621873
-42.584369
-42.549246
-42.80302
-42.784689
-42.760469
-42.731046
-42.696352
-42.659053
-42.621873
-42.58437
-42.549246
-42.795359
-42.777098
-42.753005
-42.723791
-42.689422
-42.652577
-42.615936
-42.579256
-42.544881
-42.780297
-42.76217
-42.738296
-42.709438
-42.675633
-42.639623
-42.60403
-42.568931
-42.536024
-42.757874
-42.739922
-42.716368
-42.688048
-42.65509
-42.620334
-42.586344
-42.553547
-42.522838
-42.728187
-42.710546
-42.687492
-42.659939
-42.628121
-42.595013
-42.563166
-42.533322
-42.505524
-42.691759
-42.67456
-42.652181
-42.625612
-42.595217
-42.564091
-42.534876
-42.508516
-42.484367
-42.648997
-42.632384
-42.610871
-42.585523
-42.556835
-42.528027
-42.501858
-42.479233
-42.459603
-42.600794
-42.584824
-42.564284
-42.540329
-42.513598
-42.487419
-42.464671
-42.446153
-42.431525
-42.54642
-42.531512
-42.512445
-42.490403
-42.466138
-42.442989
-42.42399
-42.409918
-42.40041
-42.488232
-42.474548
-42.457167
-42.437273
-42.415711
-42.395801
-42.380612
-42.371008
-42.366361
-42.427123
-42.414776
-42.399165
-42.381508
-42.362824
-42.346414
-42.335151
-42.32977
-42.32931
-42.357717
-42.347158
-42.334255
-42.320418
-42.306473
-42.29507
-42.288648
-42.28748
-42.290037
-39.464985
-39.464477
-39.463843
-39.463222
-39.462432
-39.461095
-39.458584
-39.454064
-39.447722
-39.469877
-39.469325
-39.468578
-39.467697
-39.466362
-39.464032
-39.459948
-39.453555
-39.445427
-39.474114
-39.473539
-39.472746
-39.471758
-39.470099
-39.466983
-39.461493
-39.453369
-39.443556
-39.478274
-39.477697
-39.476853
-39.475709
-39.47368
-39.469736
-39.462852
-39.453059
-39.441679
-39.482087
-39.481516
-39.480625
-39.479311
-39.47686
-39.472059
-39.463844
-39.45241
-39.439884
-39.485294
-39.484764
-39.483862
-39.482405
-39.479567
-39.473988
-39.46449
-39.451443
-39.43846
-39.488086
-39.487593
-39.486678
-39.48509
-39.481936
-39.47561
-39.464816
-39.450283
-39.437347
-39.490425
-39.489975
-39.489069
-39.487415
-39.483967
-39.476886
-39.464941
-39.449578
-39.436457
-39.492304
-39.491893
-39.491001
-39.489286
-39.485531
-39.477804
-39.464888
-39.449047
-39.435634
-39.49364
-39.493265
-39.492388
-39.49062
-39.486645
-39.478409
-39.464686
-39.448594
-39.434941
-39.494484
-39.494129
-39.49326
-39.491461
-39.487342
-39.478757
-39.464439
-39.448279
-39.434459
-39.494937
-39.494589
-39.493722
-39.491907
-39.487719
-39.478954
-39.464316
-39.448199
-39.434241
-39.494937
-39.49459
-39.493723
-39.491907
-39.487719
-39.478955
-39.464317
-39.4482
-39.434241
-39.494485
-39.49413
-39.493261
-39.491461
-39.487343
-39.478758
-39.46444
-39.44828
-39.434459
-39.493641
-39.493266
-39.492388
-39.490621
-39.486646
-39.47841
-39.464687
-39.448595
-39.434942
-39.492305
-39.491894
-39.491002
-39.489287
-39.485533
-39.477805
-39.464889
-39.449048
-39.435635
-39.490426
-39.489977
-39.48907
-39.487416
-39.483969
-39.476887
-39.464942
-39.44958
-39.436458
-39.488088
-39.487595
-39.48668
-39.485091
-39.481937
-39.475611
-39.464817
-39.450285
-39.437348
-39.485295
-39.484765
-39.483863
-39.482407
-39.479569
-39.47399
-39.464492
-39.451445
-39.438461
-39.48209
-39.481519
-39.480627
-39.479314
-39.476862
-39.472061
-39.463846
-39.452412
-39.439886
-39.478276
-39.4777
-39.476856
-39.475711
-39.473682
-39.469738
-39.462854
-39.453061
-39.441681
-39.474116
-39.473542
-39.472749
-39.471761
-39.470101
-39.466985
-39.461496
-39.453371
-39.443559
-39.469879
-39.469327
-39.46858
-39.467699
-39.466364
-39.464035
-39.459951
-39.453559
-39.44543
-39.464988
-39.464479
-39.463846
-39.463225
-39.462435
-39.461098
-39.458588
-39.454069
-39.447727
-38.276566
-38.276411
-38.276207
-38.275929
-38.27579
-38.276209
-38.277527
-38.279955
-38.282678
-38.283501
-38.283287
-38.282943
-38.282396
-38.281887
-38.281911
-38.282899
-38.284963
-38.287486
-38.289733
-38.289491
-38.289087
-38.28842
-38.28775
-38.287606
-38.288448
-38.290327
-38.292758
-38.295503
-38.295234
-38.294776
-38.29401
-38.293221
-38.292959
-38.293676
-38.295357
-38.297562
-38.300813
-38.300528
-38.300034
-38.299199
-38.298321
-38.297928
-38.298463
-38.299951
-38.301879
-38.305554
-38.305277
-38.304784
-38.303924
-38.302974
-38.302422
-38.302768
-38.304111
-38.305447
-38.309685
-38.309418
-38.308928
-38.308042
-38.306973
-38.306274
-38.30654
-38.307834
-38.308104
-38.313099
-38.312844
-38.312354
-38.311407
-38.31024
-38.309491
-38.309705
-38.310793
-38.310214
-38.315765
-38.315522
-38.315027
-38.314038
-38.312844
-38.312078
-38.312243
-38.31312
-38.311914
-38.317764
-38.31753
-38.317033
-38.316022
-38.314797
-38.314021
-38.314183
-38.314933
-38.313196
-38.319106
-38.31888
-38.318385
-38.317359
-38.316112
-38.315323
-38.315493
-38.316041
-38.31403
-38.319781
-38.31956
-38.319067
-38.318032
-38.316771
-38.315973
-38.316145
-38.316516
-38.31443
-38.319781
-38.31956
-38.319067
-38.318032
-38.316771
-38.315973
-38.316145
-38.316516
-38.31443
-38.319106
-38.31888
-38.318386
-38.317359
-38.316112
-38.315324
-38.315493
-38.316041
-38.31403
-38.317765
-38.31753
-38.317034
-38.316022
-38.314798
-38.314022
-38.314183
-38.314933
-38.313196
-38.315766
-38.315523
-38.315028
-38.314039
-38.312845
-38.312079
-38.312244
-38.31312
-38.311914
-38.3131
-38.312845
-38.312355
-38.311408
-38.310241
-38.309492
-38.309706
-38.310793
-38.310214
-38.309686
-38.309419
-38.308929
-38.308043
-38.306974
-38.306275
-38.306541
-38.307834
-38.308105
-38.305555
-38.305279
-38.304786
-38.303925
-38.302975
-38.302423
-38.302769
-38.304112
-38.305448
-38.300814
-38.300529
-38.300036
-38.2992
-38.298322
-38.297929
-38.298465
-38.299952
-38.30188
-38.295504
-38.295235
-38.294777
-38.294011
-38.293223
-38.292961
-38.293678
-38.295359
-38.297564
-38.289734
-38.289493
-38.289089
-38.288422
-38.287752
-38.287608
-38.28845
-38.290328
-38.292761
-38.283503
-38.283289
-38.282945
-38.282398
-38.28189
-38.281913
-38.282901
-38.284965
-38.28749
-38.276568
-38.276413
-38.276209
-38.275931
-38.275793
-38.276212
-38.27753
-38.279958
-38.282682
-36.233949
-36.233849
-36.233763
-36.233762
-36.233828
-36.233841
-36.233629
-36.232996
-36.231734
-36.235662
-36.235525
-36.235376
-36.235267
-36.235143
-36.234859
-36.234201
-36.233005
-36.231314
-36.237589
-36.237411
-36.237213
-36.237046
-36.236836
-36.2364
-36.235499
-36.233998
-36.232065
-36.239535
-36.239315
-36.239065
-36.238844
-36.238566
-36.238025
-36.236945
-36.235189
-36.232947
-36.241401
-36.241146
-36.240851
-36.240579
-36.240235
-36.239595
-36.238345
-36.236338
-36.233783
-36.243097
-36.242821
-36.242498
-36.242191
-36.241796
-36.241071
-36.239674
-36.237446
-36.234608
-36.244588
-36.244294
-36.243948
-36.243613
-36.243177
-36.242389
-36.240878
-36.238488
-36.235596
-36.245847
-36.245541
-36.245178
-36.24482
-36.244355
-36.243519
-36.241916
-36.239381
-36.236435
-36.246862
-36.246548
-36.246173
-36.2458
-36.245314
-36.244441
-36.242758
-36.240063
-36.237111
-36.247628
-36.247309
-36.246926
-36.246544
-36.246043
-36.245143
-36.243392
-36.2405
-36.237622
-36.248141
-36.247819
-36.247431
-36.247043
-36.246535
-36.245618
-36.24383
-36.240872
-36.237979
-36.2484
-36.248075
-36.247685
-36.247294
-36.246783
-36.245859
-36.244056
-36.241076
-36.238164
-36.2484
-36.248075
-36.247685
-36.247294
-36.246782
-36.245859
-36.244056
-36.241076
-36.238164
-36.248141
-36.247819
-36.247431
-36.247043
-36.246535
-36.245618
-36.24383
-36.240872
-36.237979
-36.247628
-36.247309
-36.246926
-36.246544
-36.246043
-36.245143
-36.243392
-36.2405
-36.237622
-36.246862
-36.246548
-36.246172
-36.2458
-36.245314
-36.244441
-36.242758
-36.240063
-36.23711
-36.245847
-36.245541
-36.245177
-36.24482
-36.244355
-36.243519
-36.241916
-36.23938
-36.236435
-36.244588
-36.244294
-36.243948
-36.243613
-36.243178
-36.242389
-36.240878
-36.238488
-36.235595
-36.243097
-36.242821
-36.242498
-36.242192
-36.241796
-36.241071
-36.239675
-36.237446
-36.234608
-36.241401
-36.241146
-36.240852
-36.24058
-36.240235
-36.239596
-36.238346
-36.236338
-36.233783
-36.239535
-36.239315
-36.239065
-36.238845
-36.238567
-36.238026
-36.236945
-36.235189
-36.232947
-36.23759
-36.237412
-36.237214
-36.237047
-36.236837
-36.236401
-36.235499
-36.233998
-36.232065
-36.235663
-36.235526
-36.235377
-36.235268
-36.235144
-36.23486
-36.234201
-36.233005
-36.231315
-36.23395
-36.23385
-36.233764
-36.233764
-36.23383
-36.233842
-36.23363
-36.232997
-36.231734
-34.549114
-34.549187
-34.549277
-34.549373
-34.549502
-34.549706
-34.550028
-34.550468
-34.550727
-34.550003
-34.550066
-34.550128
-34.550164
-34.550198
-34.550273
-34.550418
-34.550605
-34.550689
-34.550926
-34.550978
-34.55102
-34.551021
-34.551007
-34.551026
-34.551104
-34.551218
-34.551323
-34.551724
-34.551763
-34.551787
-34.551764
-34.551724
-34.551719
-34.551767
-34.551837
-34.551907
-34.552408
-34.552438
-34.552446
-34.552401
-34.552335
-34.552301
-34.552312
-34.552332
-34.552344
-34.553007
-34.553029
-34.553024
-34.552959
-34.552867
-34.552802
-34.552772
-34.552734
-34.552682
-34.553503
-34.553518
-34.553503
-34.553422
-34.553307
-34.553215
-34.553148
-34.553051
-34.552918
-34.553906
-34.553916
-34.553891
-34.553796
-34.553662
-34.553549
-34.553447
-34.553295
-34.553078
-34.554222
-34.554227
-34.554196
-34.554089
-34.553943
-34.55381
-34.553676
-34.553475
-34.553185
-34.554462
-34.554464
-34.554426
-34.554312
-34.554154
-34.554005
-34.553844
-34.5536
-34.553252
-34.554625
-34.554624
-34.554583
-34.554462
-34.554297
-34.554135
-34.553953
-34.553679
-34.553288
-34.554701
-34.5547
-34.554657
-34.554535
-34.554365
-34.554197
-34.554004
-34.553714
-34.553303
-34.554701
-34.5547
-34.554657
-34.554535
-34.554365
-34.554197
-34.554004
-34.553714
-34.553303
-34.554624
-34.554624
-34.554582
-34.554462
-34.554296
-34.554135
-34.553952
-34.553678
-34.553288
-34.554461
-34.554463
-34.554425
-34.554311
-34.554153
-34.554004
-34.553843
-34.553599
-34.553251
-34.554221
-34.554226
-34.554194
-34.554088
-34.553941
-34.553809
-34.553675
-34.553473
-34.553184
-34.553904
-34.553914
-34.55389
-34.553794
-34.553661
-34.553547
-34.553445
-34.553293
-34.553077
-34.553501
-34.553516
-34.553501
-34.55342
-34.553305
-34.553214
-34.553146
-34.553049
-34.552916
-34.553005
-34.553027
-34.553022
-34.552957
-34.552865
-34.5528
-34.55277
-34.552731
-34.55268
-34.552406
-34.552436
-34.552444
-34.552399
-34.552333
-34.552299
-34.55231
-34.552329
-34.552342
-34.551722
-34.551761
-34.551785
-34.551762
-34.551722
-34.551716
-34.551765
-34.551835
-34.551903
-34.550924
-34.550976
-34.551018
-34.551019
-34.551005
-34.551024
-34.551102
-34.551215
-34.551319
-34.550001
-34.550064
-34.550126
-34.550162
-34.550196
-34.55027
-34.550416
-34.550602
-34.550685
-34.549112
-34.549185
-34.549275
-34.549371
-34.5495
-34.549704
-34.550025
-34.550464
-34.550722
-32.744796
-32.744827
-32.74488
-32.744966
-32.745083
-32.745213
-32.745332
-32.745416
-32.745339
-32.745408
-32.745433
-32.745471
-32.745527
-32.74559
-32.745632
-32.745615
-32.745513
-32.745302
-32.74614
-32.746158
-32.746185
-32.746224
-32.746259
-32.746257
-32.74618
-32.746013
-32.745791
-32.746853
-32.74686
-32.746875
-32.7469
-32.746919
-32.746896
-32.74679
-32.746584
-32.746324
-32.747528
-32.747526
-32.747528
-32.747537
-32.747538
-32.747495
-32.74736
-32.747113
-32.746805
-32.748155
-32.748145
-32.748135
-32.748131
-32.748117
-32.748054
-32.74789
-32.747602
-32.747245
-32.748715
-32.748698
-32.748681
-32.748667
-32.748639
-32.748557
-32.748365
-32.748041
-32.747638
-32.749202
-32.74918
-32.749157
-32.749135
-32.749094
-32.748993
-32.748776
-32.74842
-32.747977
-32.749597
-32.749573
-32.749545
-32.749516
-32.749463
-32.749347
-32.749113
-32.748731
-32.748254
-32.749893
-32.749866
-32.749836
-32.749801
-32.749741
-32.749615
-32.749368
-32.748969
-32.748467
-32.750091
-32.750063
-32.750029
-32.749991
-32.749925
-32.749793
-32.749539
-32.749129
-32.74861
-32.750188
-32.750159
-32.750125
-32.750085
-32.750016
-32.749881
-32.749624
-32.749209
-32.748682
-32.750187
-32.750158
-32.750124
-32.750084
-32.750016
-32.749881
-32.749624
-32.749209
-32.748682
-32.75009
-32.750062
-32.750029
-32.74999
-32.749924
-32.749792
-32.749538
-32.749128
-32.74861
-32.749892
-32.749865
-32.749834
-32.7498
-32.749739
-32.749613
-32.749367
-32.748968
-32.748466
-32.749595
-32.74957
-32.749543
-32.749514
-32.749461
-32.749345
-32.74911
-32.748729
-32.748253
-32.749199
-32.749177
-32.749154
-32.749132
-32.749091
-32.74899
-32.748773
-32.748417
-32.747974
-32.748712
-32.748695
-32.748677
-32.748663
-32.748635
-32.748553
-32.748362
-32.748038
-32.747635
-32.748151
-32.748141
-32.748131
-32.748127
-32.748112
-32.74805
-32.747886
-32.747598
-32.747242
-32.747524
-32.747521
-32.747523
-32.747532
-32.747533
-32.74749
-32.747355
-32.747109
-32.746801
-32.746847
-32.746854
-32.746869
-32.746895
-32.746913
-32.746891
-32.746785
-32.746579
-32.746319
-32.746134
-32.746152
-32.746179
-32.746217
-32.746252
-32.746251
-32.746174
-32.746007
-32.745786
-32.745401
-32.745426
-32.745464
-32.74552
-32.745583
-32.745625
-32.745609
-32.745507
-32.745295
-32.744788
-32.744819
-32.744872
-32.744958
-32.745075
-32.745205
-32.745324
-32.745409
-32.745333
-30.974615
-30.974641
-30.974675
-30.974718
-30.974768
-30.974824
-30.974881
-30.974938
-30.974921
-30.974908
-30.97493
-30.974956
-30.974979
-30.974995
-30.974997
-30.974976
-30.974927
-30.974835
-30.975242
-30.97526
-30.975279
-30.975291
-30.97529
-30.975268
-30.975217
-30.97514
-30.97506
-30.975551
-30.975565
-30.975577
-30.975581
-30.975572
-30.975539
-30.975475
-30.975389
-30.975304
-30.975836
-30.975845
-30.975852
-30.975848
-30.975828
-30.975781
-30.975705
-30.975608
-30.975511
-30.976094
-30.976099
-30.9761
-30.976089
-30.976058
-30.976
-30.975912
-30.975802
-30.975691
-30.976311
-30.976313
-30.976309
-30.976292
-30.976253
-30.976188
-30.976092
-30.975971
-30.975845
-30.976492
-30.976492
-30.976484
-30.976461
-30.976416
-30.976345
-30.976243
-30.976112
-30.975972
-30.976638
-30.976635
-30.976623
-30.976595
-30.976547
-30.976472
-30.976364
-30.976225
-30.976072
-30.976749
-30.976744
-30.976729
-30.976698
-30.976647
-30.976569
-30.976457
-30.97631
-30.976146
-30.976825
-30.976818
-30.976801
-30.976768
-30.976715
-30.976634
-30.976518
-30.976367
-30.976194
-30.976862
-30.976854
-30.976837
-30.976803
-30.976748
-30.976666
-30.976548
-30.976394
-30.976218
-30.976862
-30.976854
-30.976836
-30.976802
-30.976748
-30.976666
-30.976548
-30.976394
-30.976218
-30.976824
-30.976817
-30.9768
-30.976767
-30.976713
-30.976633
-30.976517
-30.976365
-30.976193
-30.976747
-30.976742
-30.976727
-30.976696
-30.976645
-30.976567
-30.976454
-30.976308
-30.976144
-30.976635
-30.976632
-30.97662
-30.976592
-30.976544
-30.976469
-30.976361
-30.976223
-30.97607
-30.976488
-30.976488
-30.97648
-30.976457
-30.976412
-30.976341
-30.976239
-30.976109
-30.975969
-30.976306
-30.976308
-30.976304
-30.976287
-30.976248
-30.976183
-30.976087
-30.975966
-30.975842
-30.976088
-30.976093
-30.976094
-30.976083
-30.976052
-30.975994
-30.975907
-30.975797
-30.975687
-30.975829
-30.975838
-30.975844
-30.975841
-30.975821
-30.975774
-30.975698
-30.975601
-30.975505
-30.975543
-30.975556
-30.975568
-30.975572
-30.975563
-30.97553
-30.975467
-30.975382
-30.975297
-30.975232
-30.975251
-30.975269
-30.975281
-30.97528
-30.975258
-30.975207
-30.975132
-30.975053
-30.974897
-30.974919
-30.974944
-30.974967
-30.974984
-30.974986
-30.974965
-30.974917
-30.974826
-30.974603
-30.974628
-30.974663
-30.974705
-30.974756
-30.974811
-30.974869
-30.974927
-30.974911
-29.2049
-29.204912
-29.20493
-29.204956
-29.204989
-29.20503
-29.205078
-29.205133
-29.205151
-29.20509
-29.205101
-29.205115
-29.20513
-29.205145
-29.205158
-29.205164
-29.205161
-29.205137
-29.205308
-29.205316
-29.205327
-29.205336
-29.205343
-29.205343
-29.205334
-29.205316
-29.2053
-29.205513
-29.205519
-29.205526
-29.205531
-29.205533
-29.205529
-29.205515
-29.205493
-29.205474
-29.205705
-29.205708
-29.205711
-29.205712
-29.205709
-29.2057
-29.205681
-29.205654
-29.205628
-29.205882
-29.205882
-29.205882
-29.205879
-29.205871
-29.205858
-29.205834
-29.2058
-29.205765
-29.206041
-29.206038
-29.206035
-29.206027
-29.206016
-29.205999
-29.20597
-29.20593
-29.205885
-29.206179
-29.206175
-29.206169
-29.206159
-29.206144
-29.206123
-29.206089
-29.206041
-29.205987
-29.206296
-29.20629
-29.206282
-29.20627
-29.206251
-29.206225
-29.206186
-29.206133
-29.206069
-29.206385
-29.206378
-29.206369
-29.206355
-29.206333
-29.206303
-29.206261
-29.206202
-29.206131
-29.206445
-29.206438
-29.206427
-29.206411
-29.206388
-29.206356
-29.206312
-29.206249
-29.206173
-29.206475
-29.206467
-29.206456
-29.206439
-29.206415
-29.206382
-29.206337
-29.206273
-29.206193
-29.206475
-29.206466
-29.206455
-29.206439
-29.206414
-29.206381
-29.206336
-29.206272
-29.206193
-29.206444
-29.206436
-29.206426
-29.20641
-29.206386
-29.206354
-29.20631
-29.206248
-29.206171
-29.206383
-29.206376
-29.206366
-29.206352
-29.20633
-29.2063
-29.206258
-29.2062
-29.206129
-29.206292
-29.206286
-29.206278
-29.206266
-29.206247
-29.206221
-29.206182
-29.206129
-29.206066
-29.206174
-29.20617
-29.206163
-29.206153
-29.206139
-29.206117
-29.206084
-29.206036
-29.205982
-29.206034
-29.206032
-29.206028
-29.206021
-29.20601
-29.205992
-29.205964
-29.205924
-29.20588
-29.205875
-29.205875
-29.205874
-29.205871
-29.205863
-29.20585
-29.205826
-29.205793
-29.205759
-29.205696
-29.205699
-29.205701
-29.205702
-29.2057
-29.205691
-29.205672
-29.205645
-29.20562
-29.205502
-29.205508
-29.205515
-29.20552
-29.205522
-29.205518
-29.205504
-29.205483
-29.205465
-29.205296
-29.205304
-29.205314
-29.205324
-29.20533
-29.205331
-29.205322
-29.205305
-29.205289
-29.205077
-29.205087
-29.205101
-29.205116
-29.205131
-29.205144
-29.205151
-29.205148
-29.205124
-29.204884
-29.204896
-29.204915
-29.204941
-29.204974
-29.205015
-29.205063
-29.205118
-29.205137
-27.432225
-27.432229
-27.432237
-27.432248
-27.432263
-27.432279
-27.432295
-27.43231
-27.432301
-27.432331
-27.432334
-27.432339
-27.432344
-27.432348
-27.432347
-27.432338
-27.432318
-27.432284
-27.432449
-27.432451
-27.432454
-27.432456
-27.432455
-27.432446
-27.432428
-27.4324
-27.432369
-27.432561
-27.432562
-27.432562
-27.432562
-27.432558
-27.432547
-27.432525
-27.432495
-27.432463
-27.432666
-27.432665
-27.432664
-27.432661
-27.432654
-27.43264
-27.432615
-27.432582
-27.432546
-27.43276
-27.432758
-27.432756
-27.432751
-27.432742
-27.432725
-27.432698
-27.432662
-27.432621
-27.432842
-27.432839
-27.432835
-27.432829
-27.432819
-27.432801
-27.432772
-27.432732
-27.432687
-27.432911
-27.432908
-27.432903
-27.432895
-27.432884
-27.432865
-27.432835
-27.432793
-27.432743
-27.432967
-27.432963
-27.432957
-27.432949
-27.432937
-27.432918
-27.432887
-27.432843
-27.432788
-27.43301
-27.433005
-27.432999
-27.43299
-27.432977
-27.432958
-27.432927
-27.43288
-27.432823
-27.433039
-27.433034
-27.433027
-27.433017
-27.433005
-27.432985
-27.432953
-27.432905
-27.432845
-27.433053
-27.433048
-27.43304
-27.433031
-27.433018
-27.432998
-27.432966
-27.432918
-27.432857
-27.433052
-27.433047
-27.43304
-27.43303
-27.433017
-27.432998
-27.432965
-27.432917
-27.432856
-27.433037
-27.433032
-27.433025
-27.433015
-27.433002
-27.432983
-27.432951
-27.432904
-27.432844
-27.433007
-27.433002
-27.432995
-27.432986
-27.432974
-27.432955
-27.432923
-27.432877
-27.43282
-27.432962
-27.432958
-27.432952
-27.432944
-27.432932
-27.432913
-27.432882
-27.432838
-27.432784
-27.432905
-27.432902
-27.432896
-27.432889
-27.432877
-27.432859
-27.432829
-27.432787
-27.432738
-27.432834
-27.432832
-27.432828
-27.432822
-27.432811
-27.432793
-27.432764
-27.432725
-27.432681
-27.432751
-27.432749
-27.432746
-27.432742
-27.432733
-27.432716
-27.432689
-27.432653
-27.432613
-27.432655
-27.432654
-27.432653
-27.43265
-27.432643
-27.432629
-27.432605
-27.432572
-27.432537
-27.432549
-27.43255
-27.43255
-27.43255
-27.432546
-27.432534
-27.432513
-27.432483
-27.432452
-27.432435
-27.432437
-27.43244
-27.432442
-27.432441
-27.432432
-27.432414
-27.432386
-27.432356
-27.432315
-27.432319
-27.432323
-27.432328
-27.432332
-27.432332
-27.432323
-27.432303
-27.432269
-27.432207
-27.432212
-27.43222
-27.432231
-27.432246
-27.432262
-27.432278
-27.432293
-27.432285
-25.663101
-25.663104
-25.663108
-25.663114
-25.663122
-25.663133
-25.663146
-25.663162
-25.663169
-25.663159
-25.663161
-25.663164
-25.663167
-25.663169
-25.663172
-25.663173
-25.663172
-25.663166
-25.663221
-25.663223
-25.663225
-25.663226
-25.663226
-25.663225
-25.663223
-25.663219
-25.663215
-25.66328
-25.663281
-25.663282
-25.663282
-25.663281
-25.663279
-25.663276
-25.663271
-25.663268
-25.663335
-25.663335
-25.663335
-25.663334
-25.663331
-25.663328
-25.663324
-25.663318
-25.663314
-25.663385
-25.663384
-25.663383
-25.663381
-25.663378
-25.663374
-25.663368
-25.663361
-25.663354
-25.663429
-25.663428
-25.663426
-25.663423
-25.663419
-25.663414
-25.663408
-25.663399
-25.66339
-25.663468
-25.663466
-25.663464
-25.66346
-25.663455
-25.663449
-25.663441
-25.663431
-25.663419
-25.6635
-25.663498
-25.663495
-25.66349
-25.663484
-25.663477
-25.663469
-25.663457
-25.663443
-25.663523
-25.663521
-25.663518
-25.663513
-25.663507
-25.663499
-25.66349
-25.663477
-25.663461
-25.663539
-25.663537
-25.663533
-25.663528
-25.663521
-25.663514
-25.663504
-25.66349
-25.663473
-25.663547
-25.663544
-25.66354
-25.663535
-25.663528
-25.66352
-25.663511
-25.663497
-25.663478
-25.663546
-25.663543
-25.66354
-25.663534
-25.663527
-25.66352
-25.66351
-25.663496
-25.663478
-25.663537
-25.663535
-25.663531
-25.663526
-25.663519
-25.663511
-25.663502
-25.663488
-25.663471
-25.66352
-25.663518
-25.663514
-25.663509
-25.663503
-25.663495
-25.663486
-25.663474
-25.663458
-25.663495
-25.663493
-25.66349
-25.663485
-25.663479
-25.663472
-25.663464
-25.663452
-25.663439
-25.663462
-25.66346
-25.663457
-25.663453
-25.663448
-25.663442
-25.663435
-25.663425
-25.663413
-25.663421
-25.66342
-25.663418
-25.663415
-25.66341
-25.663405
-25.663399
-25.663391
-25.663382
-25.663375
-25.663374
-25.663373
-25.663371
-25.663367
-25.663363
-25.663358
-25.663352
-25.663345
-25.663324
-25.663323
-25.663323
-25.663322
-25.66332
-25.663316
-25.663312
-25.663307
-25.663303
-25.663267
-25.663268
-25.663268
-25.663268
-25.663267
-25.663266
-25.663262
-25.663258
-25.663256
-25.663206
-25.663208
-25.66321
-25.663211
-25.663211
-25.66321
-25.663208
-25.663204
-25.663202
-25.663142
-25.663144
-25.663147
-25.66315
-25.663152
-25.663155
-25.663156
-25.663156
-25.663151
-25.663082
-25.663085
-25.663089
-25.663095
-25.663104
-25.663114
-25.663128
-25.663145
-25.663153
-23.892536
-23.892536
-23.892538
-23.892541
-23.892545
-23.892549
-23.892554
-23.892558
-23.892557
-23.892569
-23.892569
-23.89257
-23.892571
-23.892572
-23.892571
-23.892569
-23.892564
-23.892555
-23.892604
-23.892605
-23.892605
-23.892605
-23.892604
-23.892602
-23.892597
-23.89259
-23.892582
-23.892638
-23.892638
-23.892638
-23.892637
-23.892636
-23.892633
-23.892628
-23.89262
-23.892611
-23.89267
-23.892669
-23.892668
-23.892667
-23.892665
-23.892661
-23.892655
-23.892647
-23.892638
-23.892698
-23.892697
-23.892696
-23.892694
-23.892692
-23.892688
-23.892681
-23.892672
-23.892661
-23.892723
-23.892722
-23.89272
-23.892718
-23.892715
-23.892711
-23.892704
-23.892694
-23.892682
-23.892744
-23.892742
-23.892741
-23.892738
-23.892735
-23.892731
-23.892723
-23.892712
-23.892699
-23.892761
-23.892759
-23.892757
-23.892755
-23.892751
-23.892747
-23.892739
-23.892728
-23.892713
-23.892774
-23.892772
-23.89277
-23.892767
-23.892764
-23.892759
-23.892751
-23.892739
-23.892723
-23.892782
-23.89278
-23.892778
-23.892775
-23.892772
-23.892767
-23.892759
-23.892747
-23.89273
-23.892786
-23.892784
-23.892782
-23.892779
-23.892775
-23.892771
-23.892763
-23.89275
-23.892733
-23.892785
-23.892783
-23.892781
-23.892778
-23.892775
-23.89277
-23.892762
-23.892749
-23.892732
-23.89278
-23.892778
-23.892776
-23.892773
-23.89277
-23.892765
-23.892757
-23.892745
-23.892728
-23.89277
-23.892768
-23.892766
-23.892764
-23.89276
-23.892755
-23.892747
-23.892736
-23.89272
-23.892756
-23.892754
-23.892752
-23.89275
-23.892746
-23.892741
-23.892734
-23.892723
-23.892708
-23.892737
-23.892736
-23.892734
-23.892732
-23.892728
-23.892724
-23.892717
-23.892706
-23.892693
-23.892715
-23.892714
-23.892712
-23.89271
-23.892707
-23.892702
-23.892696
-23.892686
-23.892675
-23.892688
-23.892688
-23.892686
-23.892684
-23.892682
-23.892678
-23.892671
-23.892663
-23.892653
-23.892658
-23.892658
-23.892657
-23.892655
-23.892653
-23.89265
-23.892644
-23.892636
-23.892628
-23.892625
-23.892625
-23.892624
-23.892624
-23.892622
-23.892619
-23.892614
-23.892607
-23.8926
-23.892589
-23.892589
-23.89259
-23.89259
-23.892589
-23.892587
-23.892582
-23.892576
-23.892569
-23.892552
-23.892552
-23.892553
-23.892554
-23.892555
-23.892554
-23.892552
-23.892548
-23.89254
-23.892517
-23.892518
-23.892519
-23.892522
-23.892526
-23.89253
-23.892535
-23.892541
-23.892541
-22.12285
-22.122851
-22.122852
-22.122853
-22.122855
-22.122857
-22.122861
-22.122865
-22.122866
-22.122867
-22.122867
-22.122868
-22.122868
-22.122869
-22.122869
-22.122869
-22.122868
-22.122865
-22.122884
-22.122885
-22.122885
-22.122885
-22.122885
-22.122884
-22.122883
-22.122881
-22.122879
-22.122901
-22.122901
-22.122901
-22.122901
-22.1229
-22.1229
-22.122898
-22.122896
-22.122894
-22.122916
-22.122916
-22.122916
-22.122915
-22.122915
-22.122913
-22.122912
-22.12291
-22.122907
-22.12293
-22.12293
-22.122929
-22.122929
-22.122928
-22.122926
-22.122924
-22.122922
-22.122919
-22.122942
-22.122942
-22.122941
-22.12294
-22.122939
-22.122938
-22.122935
-22.122933
-22.122929
-22.122953
-22.122952
-22.122951
-22.12295
-22.122949
-22.122947
-22.122945
-22.122942
-22.122937
-22.122961
-22.12296
-22.12296
-22.122958
-22.122957
-22.122955
-22.122953
-22.122949
-22.122944
-22.122967
-22.122966
-22.122966
-22.122964
-22.122963
-22.122961
-22.122958
-22.122954
-22.122949
-22.122971
-22.12297
-22.122969
-22.122968
-22.122966
-22.122964
-22.122962
-22.122958
-22.122952
-22.122973
-22.122972
-22.122971
-22.12297
-22.122968
-22.122966
-22.122963
-22.122959
-22.122953
-22.122972
-22.122971
-22.12297
-22.122969
-22.122967
-22.122965
-22.122963
-22.122959
-22.122953
-22.122969
-22.122969
-22.122968
-22.122966
-22.122964
-22.122963
-22.12296
-22.122956
-22.12295
-22.122964
-22.122963
-22.122963
-22.122961
-22.122959
-22.122958
-22.122955
-22.122951
-22.122946
-22.122957
-22.122956
-22.122955
-22.122954
-22.122952
-22.12295
-22.122948
-22.122945
-22.12294
-22.122947
-22.122947
-22.122946
-22.122945
-22.122943
-22.122941
-22.122939
-22.122936
-22.122933
-22.122935
-22.122935
-22.122934
-22.122933
-22.122932
-22.12293
-22.122928
-22.122926
-22.122923
-22.122922
-22.122921
-22.122921
-22.12292
-22.122919
-22.122917
-22.122916
-22.122914
-22.122912
-22.122906
-22.122906
-22.122906
-22.122905
-22.122904
-22.122903
-22.122902
-22.1229
-22.122899
-22.122889
-22.122889
-22.122889
-22.122889
-22.122888
-22.122888
-22.122887
-22.122885
-22.122884
-22.122871
-22.122871
-22.122871
-22.122871
-22.122871
-22.122871
-22.12287
-22.122869
-22.122867
-22.122852
-22.122852
-22.122852
-22.122853
-22.122853
-22.122854
-22.122854
-22.122853
-22.122852
-22.122833
-22.122833
-22.122834
-22.122836
-22.122838
-22.12284
-22.122844
-22.122848
-22.122851
-20.352875
-20.352876
-20.352876
-20.352877
-20.352878
-20.352879
-20.35288
-20.352882
-20.352882
-20.352885
-20.352885
-20.352885
-20.352885
-20.352885
-20.352885
-20.352885
-20.352883
-20.352881
-20.352894
-20.352894
-20.352894
-20.352894
-20.352894
-20.352893
-20.352892
-20.35289
-20.352888
-20.352903
-20.352903
-20.352903
-20.352903
-20.352902
-20.352902
-20.3529
-20.352898
-20.352895
-20.352911
-20.352911
-20.352911
-20.352911
-20.35291
-20.352909
-20.352908
-20.352905
-20.352903
-20.352919
-20.352919
-20.352918
-20.352918
-20.352917
-20.352916
-20.352915
-20.352912
-20.352909
-20.352926
-20.352925
-20.352925
-20.352924
-20.352924
-20.352923
-20.352921
-20.352918
-20.352915
-20.352931
-20.352931
-20.352931
-20.35293
-20.352929
-20.352928
-20.352926
-20.352923
-20.352919
-20.352936
-20.352936
-20.352935
-20.352934
-20.352933
-20.352932
-20.35293
-20.352927