/*--------------------------------*- C++ -*----------------------------------*\
| =========                 |                                                 |
| \\      /  F ield         | OpenFOAM: The Open Source CFD Toolbox           |
|  \\    /   O peration     | Version:  2406                                  |
|   \\  /    A nd           | Website:  www.openfoam.com                      |
|    \\/     M anipulation  |                                                 |
\*---------------------------------------------------------------------------*/
FoamFile
{
    version     2.0;
    format      ascii;
    arch        "LSB;label=32;scalar=64";
    class       volVectorField;
    location    "9.5";
    object      U;
}
// * * * * * * * * * * * * * * * * * * * * * * * * * * * * * * * * * * * * * //

dimensions      [0 1 -1 0 0 0 0];

internalField   nonuniform List<vector> 
34560
(
(-0.054250915 0.010137219 0.015090082)
(-0.16531027 0.03203241 0.046040099)
(-0.28555692 0.060323925 0.076976532)
(-0.39649152 0.09530558 0.10084767)
(-0.47375861 0.13478203 0.11166574)
(-0.49957595 0.17621029 0.10711058)
(-0.47521679 0.21535323 0.091505823)
(-0.42182564 0.24813428 0.073058158)
(-0.36519843 0.27170173 0.060290362)
(-0.059002773 0.011474786 0.016020307)
(-0.17711678 0.035489287 0.048348902)
(-0.30054137 0.065549202 0.079146008)
(-0.40774008 0.1015896 0.10050538)
(-0.47338474 0.14114794 0.10691754)
(-0.48272996 0.18161678 0.097708858)
(-0.44361141 0.21871379 0.079071514)
(-0.38109472 0.24889647 0.060260344)
(-0.32068858 0.26967451 0.048827202)
(-0.063428667 0.012142491 0.016086357)
(-0.1880793 0.03719479 0.048293243)
(-0.31430758 0.068043349 0.07773365)
(-0.41761052 0.1042311 0.096099084)
(-0.47187658 0.14305223 0.098581905)
(-0.46591709 0.18174894 0.085807413)
(-0.41394449 0.21620181 0.065337923)
(-0.34443372 0.24318611 0.046774993)
(-0.28196762 0.26077168 0.036750186)
(-0.067239934 0.012594795 0.015995846)
(-0.1972622 0.0381716 0.047716086)
(-0.32525969 0.06905591 0.075397141)
(-0.42422263 0.10442045 0.090497871)
(-0.46777763 0.14153688 0.089132188)
(-0.4486303 0.17750332 0.073313841)
(-0.38624587 0.20863538 0.051749327)
(-0.31189976 0.2319727 0.034034151)
(-0.24867575 0.24618861 0.025925708)
(-0.070323373 0.012493402 0.015609864)
(-0.20445985 0.037644322 0.046363341)
(-0.33323577 0.067650195 0.07200695)
(-0.4275656 0.10140521 0.083933005)
(-0.46121123 0.13610579 0.079143724)
(-0.43084986 0.16885629 0.060884084)
(-0.36024541 0.19638293 0.038859506)
(-0.28285424 0.21604712 0.022504414)
(-0.22004672 0.2270936 0.016468462)
(-0.07278131 0.012003989 0.014973763)
(-0.20996253 0.036011555 0.044326883)
(-0.33870498 0.064296733 0.067737858)
(-0.4282677 0.095574655 0.076673798)
(-0.45284633 0.12711842 0.068960806)
(-0.41286319 0.15619462 0.048908183)
(-0.33591534 0.17991466 0.02696097)
(-0.25688667 0.19601399 0.012303697)
(-0.19543875 0.20429161 0.008307847)
(-0.074652683 0.011084851 0.014267923)
(-0.21391871 0.033123245 0.042095875)
(-0.34201412 0.058812006 0.063263981)
(-0.42692585 0.086804539 0.069420757)
(-0.44352434 0.11456061 0.059196141)
(-0.39539884 0.13962775 0.0378304)
(-0.31359952 0.15949461 0.016329929)
(-0.23392845 0.17222996 0.0034771472)
(-0.17447691 0.17826645 0.0013598498)
(-0.076018823 0.0097022063 0.013524176)
(-0.21663753 0.028927515 0.039802824)
(-0.34377428 0.051177027 0.058877138)
(-0.42444078 0.075161466 0.062615896)
(-0.4342526 0.098616473 0.050335434)
(-0.37942584 0.11945802 0.028059998)
(-0.29393007 0.13553714 0.0072470016)
(-0.21420882 0.14524835 -0.003886657)
(-0.157284 0.14945559 -0.0044200689)
(-0.076984723 0.0079242142 0.012824412)
(-0.21844944 0.023602663 0.037676009)
(-0.34457539 0.041672897 0.054931235)
(-0.42164992 0.061010383 0.056681691)
(-0.42599265 0.079733769 0.042783013)
(-0.36578467 0.096186185 0.019890358)
(-0.27750005 0.10859714 -0.00015073487)
(-0.19800118 0.11569407 -0.0097238561)
(-0.14352762 0.11846569 -0.0089719655)
(-0.077633067 0.0058716278 0.012234022)
(-0.21959131 0.01747756 0.035894917)
(-0.34481317 0.030804702 0.051703215)
(-0.41908262 0.04498206 0.051934529)
(-0.41925212 0.058616543 0.036853608)
(-0.35502482 0.070496009 0.013570876)
(-0.26475228 0.079308991 -0.0057561567)
(-0.18556728 0.084117587 -0.014026018)
(-0.13315463 0.085805793 -0.012296432)
(-0.078034262 0.0036308496 0.01182459)
(-0.2202168 0.010789991 0.034653634)
(-0.34470503 0.018967685 0.049453226)
(-0.41700102 0.027612031 0.048647811)
(-0.41435913 0.035877486 0.032793351)
(-0.34751283 0.043038141 0.0092947956)
(-0.25601642 0.04829247 -0.0094754553)
(-0.17713957 0.051059044 -0.016800804)
(-0.12621395 0.051947812 -0.014411108)
(-0.078206358 0.0011975386 0.011617044)
(-0.22049483 0.0035641234 0.034034516)
(-0.34464546 0.006293268 0.048349781)
(-0.41599426 0.0092049167 0.047041879)
(-0.41195774 0.011998896 0.030806007)
(-0.34379132 0.014420898 0.0071933613)
(-0.25166626 0.016192066 -0.011295053)
(-0.17293256 0.017111548 -0.018135882)
(-0.12275757 0.017399352 -0.01542045)
(-0.078206364 -0.0011975084 0.011617047)
(-0.22049484 -0.0035640967 0.034034593)
(-0.34464547 -0.0062933304 0.048349824)
(-0.41599427 -0.009205028 0.047041805)
(-0.41195773 -0.011998911 0.030805892)
(-0.34379133 -0.014420981 0.007193318)
(-0.25166627 -0.016192136 -0.011295089)
(-0.17293256 -0.017111552 -0.018135862)
(-0.12275757 -0.017399403 -0.015420429)
(-0.078034268 -0.0036308145 0.011824627)
(-0.22021681 -0.010789931 0.034653846)
(-0.34470504 -0.018967674 0.049453348)
(-0.41700106 -0.027612069 0.048647602)
(-0.41435911 -0.03587752 0.032793067)
(-0.34751286 -0.04303831 0.0092947046)
(-0.25601645 -0.048292667 -0.0094755485)
(-0.17713958 -0.051059148 -0.016800755)
(-0.12621396 -0.051947869 -0.014411065)
(-0.07763306 -0.0058716162 0.012234087)
(-0.2195913 -0.017477497 0.035895068)
(-0.3448132 -0.030804586 0.051703245)
(-0.4190827 -0.044982008 0.051934225)
(-0.4192521 -0.058616645 0.036853334)
(-0.35502488 -0.07049631 0.013570828)
(-0.26475233 -0.079309374 -0.0057562683)
(-0.1855673 -0.084117855 -0.014025965)
(-0.13315465 -0.085805858 -0.012296425)
(-0.076984718 -0.0079241899 0.012824384)
(-0.21844944 -0.023602569 0.037675845)
(-0.34457542 -0.041672721 0.054931036)
(-0.42164998 -0.061010342 0.05668149)
(-0.42599264 -0.079733988 0.042782958)
(-0.36578477 -0.096186581 0.019890395)
(-0.27750012 -0.10859767 -0.00015083128)
(-0.19800122 -0.11569451 -0.0097238376)
(-0.14352765 -0.11846578 -0.0089720609)
(-0.076018819 -0.0097021573 0.013524087)
(-0.21663751 -0.028927421 0.039802671)
(-0.34377422 -0.051176916 0.058877183)
(-0.42444075 -0.075161501 0.062616087)
(-0.43425265 -0.098616727 0.050335568)
(-0.379426 -0.11945838 0.028060034)
(-0.29393017 -0.13553767 0.0072469446)
(-0.21420889 -0.14524887 -0.003886694)
(-0.15728403 -0.14945573 -0.0044202612)
(-0.074652675 -0.011084859 0.014267949)
(-0.21391868 -0.033123269 0.042096014)
(-0.34201409 -0.058811969 0.063264292)
(-0.42692589 -0.08680453 0.069420967)
(-0.44352454 -0.11456074 0.059196168)
(-0.39539905 -0.13962795 0.037830392)
(-0.31359966 -0.15949499 0.016329946)
(-0.23392856 -0.1722304 0.0034770799)
(-0.17447695 -0.17826668 0.0013596638)
(-0.07278133 -0.012004012 0.014973734)
(-0.20996259 -0.036011596 0.044326811)
(-0.33870501 -0.06429674 0.067737737)
(-0.42826769 -0.095574641 0.076673771)
(-0.45284646 -0.12711857 0.068960848)
(-0.41286329 -0.15619478 0.048908258)
(-0.33591551 -0.17991488 0.026961073)
(-0.2568868 -0.19601427 0.012303717)
(-0.19543877 -0.20429194 0.0083078064)
(-0.070323362 -0.012493436 0.015609869)
(-0.20445979 -0.037644366 0.046363494)
(-0.33323564 -0.067650213 0.072007363)
(-0.42756546 -0.10140525 0.08393354)
(-0.46121123 -0.13610605 0.079143956)
(-0.43084984 -0.16885659 0.060884089)
(-0.36024549 -0.19638319 0.038859567)
(-0.28285429 -0.21604729 0.022504594)
(-0.22004673 -0.22709385 0.01646857)
(-0.067239938 -0.012594855 0.015995885)
(-0.19726222 -0.03817174 0.047716259)
(-0.32525973 -0.069056133 0.075397348)
(-0.42422266 -0.10442069 0.090497942)
(-0.4677776 -0.14153712 0.089132011)
(-0.44863031 -0.17750361 0.07331371)
(-0.38624588 -0.20863559 0.051749262)
(-0.31189975 -0.23197285 0.034034293)
(-0.2486758 -0.24618885 0.025925977)
(-0.063428665 -0.012142528 0.016086392)
(-0.1880793 -0.037194852 0.048293372)
(-0.31430758 -0.068043428 0.077733766)
(-0.41761049 -0.10423115 0.096099092)
(-0.47187645 -0.14305226 0.098581738)
(-0.465917 -0.18174905 0.08580723)
(-0.41394455 -0.21620202 0.065337858)
(-0.34443371 -0.24318636 0.046775353)
(-0.28196753 -0.26077212 0.036750706)
(-0.059002757 -0.011474824 0.016020339)
(-0.17711674 -0.035489381 0.048348998)
(-0.30054131 -0.065549399 0.079146063)
(-0.40773995 -0.10158988 0.10050532)
(-0.47338446 -0.1411482 0.10691737)
(-0.48272967 -0.18161698 0.097708806)
(-0.4436114 -0.21871419 0.079071762)
(-0.38109462 -0.24889683 0.060260974)
(-0.32068863 -0.2696752 0.048827614)
(-0.054250897 -0.010137207 0.015090075)
(-0.16531023 -0.032032365 0.046040101)
(-0.28555685 -0.060323911 0.07697651)
(-0.39649145 -0.09530569 0.10084761)
(-0.47375852 -0.13478235 0.11166569)
(-0.49957585 -0.17621068 0.10711068)
(-0.47521674 -0.21535367 0.091505994)
(-0.42182553 -0.24813464 0.073058448)
(-0.36519858 -0.27170205 0.060290435)
(-0.091324946 0.0016310575 0.0015004105)
(-0.28230162 0.0052837367 0.0046726449)
(-0.49549337 0.0098903807 0.0079120436)
(-0.70179512 0.015058126 0.010362456)
(-0.8606614 0.019975854 0.010923631)
(-0.93839588 0.023720796 0.0087849144)
(-0.93134232 0.025991895 0.0042168394)
(-0.86913681 0.027108923 -0.0013455124)
(-0.79319963 0.027312247 -0.0069368167)
(-0.099911704 0.0019868943 0.0016256174)
(-0.30514941 0.0063237579 0.0049907939)
(-0.527935 0.011576825 0.0082412344)
(-0.73371044 0.017154262 0.010337523)
(-0.87862478 0.022078462 0.010096075)
(-0.93205546 0.025470446 0.0069006587)
(-0.89918625 0.027192901 0.0015721864)
(-0.81937688 0.027567519 -0.00405515)
(-0.73620356 0.027291742 -0.0092542811)
(-0.10778539 0.0021788639 0.0015555433)
(-0.32598734 0.006903692 0.0047477919)
(-0.55719227 0.012534241 0.007672171)
(-0.76177214 0.018330037 0.0092213011)
(-0.89319768 0.023204673 0.0082148104)
(-0.92477914 0.0263138 0.004291735)
(-0.87070318 0.027557112 -0.0012889172)
(-0.77828557 0.027311807 -0.0063377476)
(-0.69138853 0.026667328 -0.010461639)
(-0.1146677 0.0022962017 0.0014323539)
(-0.34384267 0.0072347075 0.0043320612)
(-0.58150445 0.013028563 0.0067972819)
(-0.78366722 0.018833497 0.0076887547)
(-0.90205186 0.023522448 0.0058986607)
(-0.91431259 0.026368323 0.0012979324)
(-0.84344991 0.027117579 -0.0042626496)
(-0.74265494 0.026351412 -0.008477272)
(-0.65421586 0.025624613 -0.011406257)
(-0.12029585 0.0022934578 0.0012505964)
(-0.35816975 0.0072162728 0.0037489239)
(-0.60032678 0.012945456 0.0056741273)
(-0.79911054 0.01858651 0.0058910474)
(-0.90519743 0.023021162 0.0033665405)
(-0.9006946 0.025586518 -0.0017184687)
(-0.8167631 0.025904263 -0.0071046362)
(-0.71088931 0.024769104 -0.010551622)
(-0.62252956 0.024245007 -0.012450478)
(-0.12485929 0.0021958072 0.0010266419)
(-0.36947818 0.0069095713 0.0030437384)
(-0.61445284 0.012362528 0.0043853883)
(-0.80911334 0.017663992 0.0039457647)
(-0.90369216 0.021697144 0.00080602387)
(-0.88475024 0.023939185 -0.0045620613)
(-0.79069712 0.0240304 -0.0096537781)
(-0.68211878 0.02277652 -0.012514862)
(-0.59483613 0.022529 -0.013575692)
(-0.12846549 0.002014939 0.00080353171)
(-0.37810869 0.0063401062 0.0023384836)
(-0.62451326 0.011323885 0.0031056323)
(-0.81459665 0.016124165 0.0020460888)
(-0.89874214 0.019659467 -0.0015889259)
(-0.86760409 0.021573088 -0.0071134511)
(-0.76587177 0.021555306 -0.011864549)
(-0.65617283 0.020491301 -0.014275241)
(-0.57049682 0.020340554 -0.014700911)
(-0.13117756 0.0017553369 0.00059215531)
(-0.38440332 0.0055260695 0.0016707157)
(-0.63133187 0.00985481 0.0019088361)
(-0.81699125 0.013948078 0.00032465461)
(-0.89200632 0.017056813 -0.0037104899)
(-0.85083193 0.018632519 -0.0093266286)
(-0.74338653 0.018503921 -0.01377525)
(-0.63339262 0.017795802 -0.015784737)
(-0.5492859 0.017659968 -0.015643171)
(-0.13313746 0.0014317585 0.00040557203)
(-0.3888214 0.0045137873 0.0010817566)
(-0.63574848 0.0080467849 0.00086930516)
(-0.81749775 0.011372158 -0.0011366187)
(-0.88501987 0.01388474 -0.0054595745)
(-0.83587934 0.015118645 -0.011109328)
(-0.72421677 0.014938082 -0.015343398)
(-0.61420802 0.014487956 -0.017031962)
(-0.53172925 0.014389608 -0.016400737)
(-0.13447242 0.0010562044 0.00025378384)
(-0.39175231 0.0033364153 0.00060590405)
(-0.63843054 0.0059511194 3.778989e-05)
(-0.81703251 0.0084098013 -0.002281885)
(-0.87880404 0.010261941 -0.0067975284)
(-0.82372884 0.011152579 -0.012432988)
(-0.70910518 0.010977775 -0.016517141)
(-0.59911076 0.010704597 -0.017976672)
(-0.51818042 0.010655594 -0.016942476)
(-0.13540621 0.00065361015 0.00014694779)
(-0.39368534 0.00206322 0.00026835595)
(-0.639986 0.0036761305 -0.00055180783)
(-0.81622685 0.0051907276 -0.0030962688)
(-0.87401412 0.0063303069 -0.0077177533)
(-0.81500342 0.0068615352 -0.013296167)
(-0.69858509 0.0067329975 -0.017279581)
(-0.58871076 0.0066045801 -0.018589961)
(-0.50895395 0.0065709467 -0.017265385)
(-0.1357502 0.0002190573 9.5000939e-05)
(-0.394423 0.00069114091 0.00010400228)
(-0.64055785 0.0012318051 -0.0008400038)
(-0.81571812 0.0017395148 -0.0034922541)
(-0.87159986 0.0021211045 -0.0081632366)
(-0.81064297 0.0022963927 -0.013706837)
(-0.69331415 0.0022526624 -0.017654501)
(-0.58347407 0.0022287095 -0.018890115)
(-0.50430398 0.0022190482 -0.017403545)
(-0.1357502 -0.00021902001 9.4996353e-05)
(-0.39442301 -0.00069106497 0.00010401403)
(-0.64055785 -0.0012317329 -0.00083999154)
(-0.81571812 -0.0017394945 -0.0034922642)
(-0.87159988 -0.0021211622 -0.0081632612)
(-0.81064301 -0.0022965811 -0.013706851)
(-0.6933142 -0.0022528866 -0.017654522)
(-0.58347412 -0.0022288227 -0.018890118)
(-0.50430402 -0.0022189981 -0.017403541)
(-0.13540622 -0.00065356925 0.00014695003)
(-0.39368535 -0.0020631364 0.00026841078)
(-0.63998601 -0.0036760537 -0.00055175567)
(-0.81622688 -0.0051907095 -0.0030962959)
(-0.87401418 -0.0063303916 -0.0077178128)
(-0.81500353 -0.0068617823 -0.013296193)
(-0.69858523 -0.0067332964 -0.017279633)
(-0.5887109 -0.0066047703 -0.018589967)
(-0.50895405 -0.0065709338 -0.017265375)
(-0.13447243 -0.0010561811 0.00025380433)
(-0.39175232 -0.0033363577 0.00060597759)
(-0.63843057 -0.005951052 3.7842977e-05)
(-0.8170326 -0.0084097978 -0.0022819395)
(-0.87880417 -0.010262085 -0.0067975825)
(-0.823729 -0.011152919 -0.012432989)
(-0.70910536 -0.010978188 -0.016517202)
(-0.59911095 -0.010704909 -0.017976678)
(-0.51818058 -0.010655639 -0.016942467)
(-0.13313746 -0.0014317486 0.00040557452)
(-0.38882142 -0.0045137513 0.0010817428)
(-0.63574855 -0.0080467233 0.00086927938)
(-0.81749786 -0.011372183 -0.0011366663)
(-0.88502001 -0.013884955 -0.0054595577)
(-0.83587949 -0.015119055 -0.011109284)
(-0.72421694 -0.014938588 -0.015343446)
(-0.61420822 -0.014488382 -0.017031963)
(-0.53172945 -0.014389707 -0.016400744)
(-0.13117757 -0.0017553156 0.00059212588)
(-0.38440335 -0.0055260274 0.0016706465)
(-0.63133193 -0.009854755 0.0019088426)
(-0.81699132 -0.013948129 0.00032472735)
(-0.89200642 -0.017057047 -0.0037103925)
(-0.85083205 -0.018632909 -0.0093265695)
(-0.74338666 -0.018504442 -0.01377527)
(-0.63339281 -0.017796273 -0.015784731)
(-0.54928613 -0.017660096 -0.015643201)
(-0.12846551 -0.0020149439 0.00080353598)
(-0.37810873 -0.0063401245 0.002338529)
(-0.62451331 -0.011323889 0.0031057693)
(-0.81459669 -0.016124223 0.0020462146)
(-0.89874224 -0.019659656 -0.0015888613)
(-0.86760422 -0.02157339 -0.0071134105)
(-0.76587191 -0.021555756 -0.011864513)
(-0.65617303 -0.02049171 -0.014275217)
(-0.57049703 -0.020340678 -0.014700955)
(-0.12485929 -0.0021958078 0.0010266237)
(-0.36947821 -0.0069095814 0.0030436863)
(-0.61445288 -0.012362532 0.0043853128)
(-0.80911335 -0.017664033 0.0039456966)
(-0.90369228 -0.021697332 0.00080600569)
(-0.88475044 -0.02393947 -0.0045620072)
(-0.79069735 -0.024030774 -0.0096536697)
(-0.68211901 -0.022776809 -0.012514787)
(-0.59483628 -0.022529088 -0.013575741)
(-0.12029584 -0.0022934392 0.0012505719)
(-0.35816973 -0.0072162285 0.0037489037)
(-0.60032674 -0.012945401 0.0056741743)
(-0.79911051 -0.01858652 0.0058911699)
(-0.90519752 -0.023021372 0.0033666395)
(-0.90069481 -0.025586881 -0.0017183738)
(-0.81676337 -0.025904649 -0.0071044823)
(-0.71088953 -0.024769335 -0.010551458)
(-0.62252964 -0.024244993 -0.012450496)
(-0.11466771 -0.0022962025 0.0014323542)
(-0.34384269 -0.0072347155 0.0043320991)
(-0.58150449 -0.013028619 0.0067973458)
(-0.78366727 -0.01883365 0.0076888171)
(-0.90205191 -0.023522753 0.0058987058)
(-0.91431279 -0.02636876 0.0012980587)
(-0.84345013 -0.027117963 -0.0042624672)
(-0.74265509 -0.026351631 -0.0084770768)
(-0.65421594 -0.025624531 -0.011406209)
(-0.10778537 -0.0021788612 0.001555546)
(-0.3259873 -0.0069036931 0.004747818)
(-0.55719221 -0.012534269 0.0076722265)
(-0.7617721 -0.018330156 0.009221354)
(-0.89319771 -0.023204921 0.0082148647)
(-0.92477934 -0.026314185 0.0042918358)
(-0.87070345 -0.027557516 -0.0012887236)
(-0.77828572 -0.027311999 -0.006337509)
(-0.69138851 -0.026667329 -0.010461527)
(-0.099911683 -0.0019868924 0.0016256173)
(-0.30514937 -0.0063237696 0.0049907997)
(-0.52793496 -0.011576889 0.0082412414)
(-0.73371044 -0.017154449 0.010337507)
(-0.87862481 -0.022078765 0.010096113)
(-0.93205553 -0.025470799 0.006900893)
(-0.8991864 -0.027193311 0.0015725017)
(-0.81937698 -0.027567703 -0.004054883)
(-0.73620349 -0.027291756 -0.0092542659)
(-0.09132492 -0.0016310777 0.0015004265)
(-0.28230155 -0.0052838035 0.0046726919)
(-0.49549328 -0.0098905096 0.0079121192)
(-0.70179505 -0.01505836 0.010362552)
(-0.86066141 -0.019976209 0.01092383)
(-0.93839595 -0.023721206 0.0087852446)
(-0.93134233 -0.025992287 0.0042170361)
(-0.86913686 -0.027109116 -0.0013454121)
(-0.79319954 -0.027312356 -0.0069368973)
(-0.076210838 0.0008984616 0.00080163541)
(-0.2367224 0.002677322 0.0023342772)
(-0.41757239 0.0045679554 0.0036773167)
(-0.59406667 0.0062380013 0.0042076296)
(-0.7294892 0.0072644741 0.0029836352)
(-0.790471 0.0071706197 -0.00071807803)
(-0.77005437 0.0056438457 -0.0067007081)
(-0.69539285 0.0028952834 -0.013150458)
(-0.60730758 5.4910918e-05 -0.018052091)
(-0.082844518 0.00086097141 0.0006691922)
(-0.25459913 0.0024802031 0.0018903194)
(-0.44329311 0.0040805189 0.0027714021)
(-0.61947666 0.0053047166 0.0026118746)
(-0.74266217 0.0057557857 0.00037697007)
(-0.78073492 0.0050277382 -0.0045837334)
(-0.73442254 0.0029723714 -0.011720096)
(-0.64019308 4.8908925e-05 -0.018789498)
(-0.54200702 -0.0027113902 -0.023446886)
(-0.088908865 0.00082294426 0.00054316761)
(-0.27094873 0.0022973076 0.0014767112)
(-0.46674636 0.0036444021 0.0019508517)
(-0.64240965 0.004503399 0.0012253942)
(-0.75412829 0.0045414711 -0.0017845508)
(-0.77163313 0.0034633447 -0.0076853297)
(-0.70335708 0.0012968354 -0.015628098)
(-0.59376133 -0.0013903076 -0.023020643)
(-0.48932887 -0.0038284748 -0.027214114)
(-0.094158137 0.00077130552 0.00042706424)
(-0.28489841 0.0020890524 0.0011026795)
(-0.48631118 0.0031971033 0.001216938)
(-0.66063555 0.003745486 -2.2256201e-06)
(-0.76145781 0.0034676531 -0.0036801011)
(-0.76075768 0.0021650334 -0.010334342)
(-0.67431988 3.0335772e-05 -0.018864443)
(-0.55317495 -0.0023725879 -0.026389631)
(-0.44494586 -0.0046352524 -0.030061006)
(-0.098346943 0.00070307124 0.00032131976)
(-0.29587569 0.0018534527 0.00077453926)
(-0.50126959 0.0027419755 0.00059369092)
(-0.67348021 0.0030401899 -0.0010212182)
(-0.76408796 0.002542199 -0.0052343712)
(-0.74751556 0.0011213976 -0.01250927)
(-0.64625792 -0.00086443509 -0.021489688)
(-0.51687208 -0.0029376995 -0.028997648)
(-0.40706129 -0.0051132988 -0.032058008)
(-0.10164181 0.00062637332 0.00022483815)
(-0.30428808 0.0016128746 0.00048560221)
(-0.51217578 0.0023115325 6.9468758e-05)
(-0.68151851 0.0024309049 -0.001841887)
(-0.76245261 0.0018676606 -0.0064634135)
(-0.732048 0.00048805679 -0.014262045)
(-0.61883808 -0.0013592638 -0.023587781)
(-0.48392063 -0.0031368422 -0.030927345)
(-0.37455297 -0.0053008923 -0.033427861)
(-0.10415065 0.00053812126 0.00014223662)
(-0.31044804 0.0013564823 0.00024517153)
(-0.51955588 0.0018854004 -0.00035190841)
(-0.68546744 0.0018811352 -0.0024780154)
(-0.75737542 0.001357291 -0.0074353047)
(-0.71509319 9.9890497e-05 -0.015661022)
(-0.59242107 -0.0015424802 -0.025242752)
(-0.45408072 -0.0031061483 -0.032279492)
(-0.34662884 -0.0051189995 -0.034283484)
(-0.10593438 0.00044207455 7.41485e-05)
(-0.31465009 0.0010968618 5.5721861e-05)
(-0.52408718 0.0014941387 -0.00066705745)
(-0.68646366 0.0014808418 -0.0029541978)
(-0.75047906 0.00091051776 -0.0081503023)
(-0.69827665 -0.00016082252 -0.016692367)
(-0.56812066 -0.0014714278 -0.026477229)
(-0.42781975 -0.0028646972 -0.033195386)
(-0.32284264 -0.0045349609 -0.034786652)
(-0.10714045 0.00034265805 2.1459773e-05)
(-0.31735901 0.00083702872 -8.6982887e-05)
(-0.52661137 0.0011151365 -0.00089915527)
(-0.68575849 0.001068978 -0.0033031224)
(-0.74317594 0.0005854591 -0.0086641709)
(-0.6829859 -0.00026886678 -0.01741278)
(-0.54710407 -0.0012535254 -0.027325332)
(-0.40589106 -0.0023811241 -0.033764054)
(-0.30328874 -0.0036918181 -0.035044415)
(-0.10790469 0.00024456839 -1.7339164e-05)
(-0.31898547 0.00059016444 -0.00019092114)
(-0.52782499 0.0007717213 -0.0010632489)
(-0.68429274 0.00071692144 -0.0035441907)
(-0.73657377 0.00034506614 -0.0090069884)
(-0.67035181 -0.00027414288 -0.017890201)
(-0.53035418 -0.00095959222 -0.027873442)
(-0.38892761 -0.0017903478 -0.034079049)
(-0.28824311 -0.0027267121 -0.035140609)
(-0.10844983 0.00014545268 -4.2904156e-05)
(-0.32004282 0.0003477387 -0.00025768376)
(-0.52840188 0.00044752982 -0.0011676336)
(-0.68280143 0.00040366525 -0.0036928986)
(-0.7314433 0.00016648954 -0.009221873)
(-0.66115899 -0.00020343525 -0.018191894)
(-0.51855885 -0.00061185881 -0.028185407)
(-0.37724871 -0.0011519387 -0.034238616)
(-0.27798941 -0.0016840986 -0.03517909)
(-0.10860662 4.7660006e-05 -5.4606675e-05)
(-0.32034304 0.00011255162 -0.00028695732)
(-0.52846482 0.00014272969 -0.0012101409)
(-0.68191655 0.00012452846 -0.0037508817)
(-0.72882398 4.3163462e-05 -0.0093086218)
(-0.65653475 -7.9548428e-05 -0.018321431)
(-0.51262255 -0.00021508169 -0.028306284)
(-0.37139812 -0.00040713724 -0.034292021)
(-0.27282205 -0.00057215527 -0.035198711)
(-0.10860662 -4.7645018e-05 -5.4610394e-05)
(-0.32034304 -0.00011251853 -0.00028697245)
(-0.52846482 -0.00014269034 -0.0012101594)
(-0.68191655 -0.00012456043 -0.0037508924)
(-0.728824 -4.3360641e-05 -0.0093086195)
(-0.65653478 7.9172085e-05 -0.018321427)
(-0.5126226 0.0002146308 -0.028306281)
(-0.37139817 0.00040679326 -0.034292026)
(-0.2728221 0.00057217056 -0.035198725)
(-0.10844983 -0.00014542854 -4.2915847e-05)
(-0.32004283 -0.000347689 -0.0002577235)
(-0.52840189 -0.00044747472 -0.0011676764)
(-0.68280144 -0.00040368881 -0.0036929186)
(-0.73144336 -0.0001666875 -0.0092218646)
(-0.66115909 0.0002030635 -0.018191885)
(-0.518559 0.00061140859 -0.028185396)
(-0.37724886 0.0011515963 -0.034238628)
(-0.27798954 0.0016841075 -0.035179124)
(-0.1079047 -0.00024453236 -1.7350446e-05)
(-0.31898549 -0.00059009487 -0.0001909547)
(-0.52782502 -0.00077164929 -0.0010632736)
(-0.68429278 -0.00071693466 -0.0035441957)
(-0.73657388 -0.00034526096 -0.0090069775)
(-0.67035196 0.0002737766 -0.017890193)
(-0.53035439 0.0009591424 -0.027873416)
(-0.38892783 0.0017900126 -0.034079054)
(-0.2882433 0.0027267265 -0.035140645)
(-0.10714046 -0.00034262273 2.1465516e-05)
(-0.31735904 -0.00083696262 -8.6974637e-05)
(-0.52661143 -0.0011150651 -0.00089913786)
(-0.68575857 -0.0010689841 -0.0033031134)
(-0.74317608 -0.00058565056 -0.0086641654)
(-0.68298606 0.00026848768 -0.017412765)
(-0.54710429 0.0012530646 -0.027325282)
(-0.40589132 0.002380801 -0.033764046)
(-0.30328897 0.0036918701 -0.035044449)
(-0.10593439 -0.00044205447 7.4161212e-05)
(-0.31465013 -0.0010968228 5.5731257e-05)
(-0.52408726 -0.0014940895 -0.00066706907)
(-0.68646376 -0.0014808583 -0.0029542164)
(-0.7504792 -0.00091073004 -0.0081502907)
(-0.6982768 0.00016038993 -0.016692315)
(-0.56812088 0.001470932 -0.02647715)
(-0.42782001 0.002864382 -0.033195375)
(-0.3228429 0.0045350822 -0.034786706)
(-0.10415067 -0.00053810046 0.00014222744)
(-0.31044809 -0.001356443 0.00024511924)
(-0.51955596 -0.0018853639 -0.00035198725)
(-0.68546754 -0.001881178 -0.0024780397)
(-0.75737553 -0.0013575437 -0.0074352389)
(-0.71509334 -0.00010039116 -0.015660911)
(-0.59242128 0.0015419356 -0.025242661)
(-0.45408097 0.0031058262 -0.032279506)
(-0.34662908 0.0051191811 -0.034283584)
(-0.10164181 -0.00062635208 0.0002248325)
(-0.30428809 -0.0016128429 0.00048557249)
(-0.51217581 -0.0023115215 6.9452801e-05)
(-0.68151858 -0.0024309815 -0.0018418277)
(-0.76245273 -0.0018679234 -0.0064632642)
(-0.73204819 -0.00048855779 -0.014261884)
(-0.61883831 0.0013587128 -0.023587694)
(-0.48392087 0.0031365134 -0.030927389)
(-0.37455317 0.0053010766 -0.033427977)
(-0.098346948 -0.00070305963 0.00032131875)
(-0.29587571 -0.0018534609 0.00077450682)
(-0.50126964 -0.0027420297 0.0005936498)
(-0.6734803 -0.0030403352 -0.0010212031)
(-0.76408811 -0.0025424818 -0.0052342349)
(-0.74751581 -0.0011218579 -0.012509089)
(-0.64625819 0.00086392479 -0.021489566)
(-0.51687231 0.0029373939 -0.028997651)
(-0.40706143 0.0051134506 -0.032058071)
(-0.094158138 -0.00077128861 0.00042705867)
(-0.28489841 -0.0020890517 0.0011026389)
(-0.48631121 -0.0031971568 0.0012168816)
(-0.66063563 -0.0037456612 -2.2324257e-06)
(-0.76145796 -0.0034679834 -0.0036799701)
(-0.76075791 -0.002165507 -0.010334109)
(-0.67432013 -3.083104e-05 -0.01886421)
(-0.55317513 0.0023723253 -0.026389513)
(-0.44494595 0.0046355006 -0.030061068)
(-0.08890886 -0.00082292825 0.00054316052)
(-0.27094871 -0.0022973071 0.00147668)
(-0.46674635 -0.0036444523 0.0019508284)
(-0.64240969 -0.0045035777 0.0012254368)
(-0.75412842 -0.0045418139 -0.0017843491)
(-0.77163333 -0.0034638042 -0.0076849952)
(-0.70335728 -0.0012972587 -0.015627768)
(-0.59376146 0.0013901791 -0.023020574)
(-0.4893289 0.003828903 -0.027214271)
(-0.08284451 -0.00086097007 0.00066918987)
(-0.25459911 -0.0024802336 0.001890315)
(-0.44329309 -0.004080605 0.0027714272)
(-0.61947668 -0.0053049157 0.0026119751)
(-0.74266229 -0.0057561207 0.00037720994)
(-0.78073511 -0.0050281263 -0.0045834059)
(-0.73442267 -0.0029726479 -0.011719848)
(-0.64019318 -4.888693e-05 -0.018789543)
(-0.54200695 0.002711821 -0.023446872)
(-0.076210826 -0.00089846811 0.00080163928)
(-0.23672237 -0.0026773595 0.0023342932)
(-0.41757234 -0.0045680402 0.0036773661)
(-0.59406664 -0.0062381668 0.0042077472)
(-0.72948925 -0.0072647572 0.0029838504)
(-0.79047111 -0.0071709872 -0.00071776348)
(-0.77005443 -0.0056441012 -0.0067003987)
(-0.6953929 -0.0028952829 -0.013150266)
(-0.60730744 -5.4772812e-05 -0.018051853)
(-0.083967436 0.00032378722 0.00029530086)
(-0.26005086 0.00094908454 0.00084085088)
(-0.45746554 0.0015149267 0.001237107)
(-0.64924802 0.0016705675 0.001201405)
(-0.79632829 0.00086893291 0.00039999604)
(-0.86424666 -0.0014069507 -0.0014719069)
(-0.84646929 -0.0052325049 -0.0044915162)
(-0.77136551 -0.0099308824 -0.0082370203)
(-0.68161521 -0.014494816 -0.012037846)
(-0.09154672 0.00036879367 0.00029691714)
(-0.28051186 0.0010483226 0.00082097641)
(-0.48716843 0.0015988236 0.0011211475)
(-0.67959023 0.0015857407 0.00085841882)
(-0.81499205 0.00037493264 -0.00035199131)
(-0.86033604 -0.0025619764 -0.0028137215)
(-0.81676389 -0.0071536271 -0.0064987594)
(-0.7216345 -0.012413102 -0.010768062)
(-0.62079174 -0.01702048 -0.014857334)
(-0.098527296 0.00040670787 0.00028104827)
(-0.29939237 0.001126836 0.00074636978)
(-0.51458695 0.001656755 0.00091030145)
(-0.70759017 0.0015017719 0.0004060502)
(-0.83239097 -1.2875554e-05 -0.001157969)
(-0.85787001 -0.0033746712 -0.0040625499)
(-0.79258651 -0.0083478694 -0.0081708619)
(-0.68156892 -0.013716946 -0.012625012)
(-0.57330828 -0.018117165 -0.016405089)
(-0.10462004 0.00041007289 0.00024065209)
(-0.3156842 0.0011074396 0.00060198925)
(-0.53786916 0.0015622566 0.0005865843)
(-0.73069672 0.0012460483 -0.0001855623)
(-0.8456603 -0.00052170744 -0.0020897408)
(-0.8538573 -0.0041685149 -0.0053604874)
(-0.77061461 -0.0093051226 -0.0097214978)
(-0.64731004 -0.014570339 -0.01411377)
(-0.53382882 -0.018624752 -0.017390162)
(-0.10955502 0.00038324698 0.00018907303)
(-0.32875437 0.0010045534 0.00043080551)
(-0.55620691 0.0013415003 0.00023544668)
(-0.7481073 0.00085909544 -0.00077729963)
(-0.85401999 -0.0010977578 -0.0029554553)
(-0.84731389 -0.0048785469 -0.0064746422)
(-0.74937419 -0.0099795472 -0.010939842)
(-0.61681962 -0.01495124 -0.015116926)
(-0.50006081 -0.018479593 -0.017856487)
(-0.11350965 0.00033615372 0.00013370133)
(-0.33903165 0.00084849118 0.00025561946)
(-0.57016772 0.0010464119 -9.8345586e-05)
(-0.76037062 0.00041585657 -0.0012941113)
(-0.85782316 -0.0016372531 -0.0036453009)
(-0.83818455 -0.0053751003 -0.0072832156)
(-0.72823044 -0.010221935 -0.011704802)
(-0.58893981 -0.014721089 -0.015571436)
(-0.47051852 -0.017609041 -0.017794752)
(-0.11659457 0.00027638558 8.4356051e-05)
(-0.34683641 0.0006632401 0.00010451143)
(-0.58028675 0.00072364052 -0.00037206241)
(-0.76820002 -1.0064948e-05 -0.0016882307)
(-0.85783586 -0.0020466128 -0.0041180266)
(-0.82706845 -0.0055590622 -0.0077576813)
(-0.70739854 -0.0099563676 -0.012044515)
(-0.56335852 -0.013859965 -0.01559997)
(-0.4444585 -0.016114147 -0.017361509)
(-0.1188634 0.00021332883 4.4696303e-05)
(-0.35244276 0.00048033292 -1.1420243e-05)
(-0.58720003 0.0004325904 -0.00056849334)
(-0.77265367 -0.00033288857 -0.0019432793)
(-0.85542542 -0.002228999 -0.0043750246)
(-0.81532577 -0.0053544265 -0.0079281416)
(-0.68789292 -0.0091480254 -0.012018806)
(-0.54054265 -0.012401836 -0.015300763)
(-0.42195503 -0.01410093 -0.016734129)
(-0.12045881 0.0001537019 1.5823421e-05)
(-0.35629353 0.00032046148 -9.0907899e-05)
(-0.5916901 0.00020921994 -0.00069067846)
(-0.77483921 -0.00050544446 -0.0020750622)
(-0.85191024 -0.0021385838 -0.0044542887)
(-0.80428487 -0.0047347987 -0.0078751507)
(-0.67080586 -0.0078028447 -0.011748867)
(-0.52117988 -0.01037045 -0.014815752)