/*--------------------------------*- C++ -*----------------------------------*\
  =========                 |
  \\      /  F ield         | OpenFOAM: The Open Source CFD Toolbox
   \\    /   O peration     | Website:  https://openfoam.org
    \\  /    A nd           | Version:  10
     \\/     M anipulation  |
\*---------------------------------------------------------------------------*/
FoamFile
{
    format      ascii;
    class       volScalarField;
    location    "22";
    object      T;
}
// * * * * * * * * * * * * * * * * * * * * * * * * * * * * * * * * * * * * * //

dimensions      [0 0 -1 0 0 0 0];

internalField   nonuniform List<scalar> 
100
(
1.69827
5.07903
8.41471
11.6757
14.8331
17.8588
20.7259
23.4092
25.8846
28.1303
30.1263
31.8549
33.3008
34.451
35.2955
35.8267
36.0399
35.9333
35.5076
34.7669
33.7175
32.3688
30.7329
28.8241
26.6595
24.2583
21.6418
18.8332
15.8574
12.7408
9.51121
6.19717
2.82812
-0.566022
-3.95514
-7.30915
-10.5983
-13.7933
-16.866
-19.7889
-22.5362
-25.0834
-27.408
-29.4893
-31.3089
-32.8506
-34.1006
-35.048
-35.6844
-36.0039
-36.0039
-35.6843
-35.048
-34.1006
-32.8505
-31.3089
-29.4893
-27.408
-25.0834
-22.5361
-19.7889
-16.8659
-13.7933
-10.5982
-7.3091
-3.95508
-0.565962
2.82819
6.19723
9.51127
12.7409
15.8574
18.8332
21.6418
24.2584
26.6596
28.8242
30.7329
32.3689
33.7175
34.7669
35.5077
35.9333
36.04
35.8268
35.2956
34.4511
33.3008
31.8549
30.1263
28.1303
25.8846
23.4092
20.726
17.8588
14.8331
11.6757
8.41472
5.07903
1.69827
)
;

boundaryField
{
    xmin
    {
        type            fixedValue;
        value           uniform 0;
    }
    xmax
    {
        type            fixedValue;
        value           uniform 0;
    }
    frontAndBack
    {
        type            empty;
    }
}


// ************************************************************************* //
