/*--------------------------------*- C++ -*----------------------------------*\
  =========                 |
  \\      /  F ield         | OpenFOAM: The Open Source CFD Toolbox
   \\    /   O peration     | Website:  https://openfoam.org
    \\  /    A nd           | Version:  10
     \\/     M anipulation  |
\*---------------------------------------------------------------------------*/
FoamFile
{
    format      ascii;
    class       volScalarField;
    location    "3.9";
    object      T_0;
}
// * * * * * * * * * * * * * * * * * * * * * * * * * * * * * * * * * * * * * //

dimensions      [0 0 -1 0 0 0 0];

internalField   nonuniform List<scalar> 
100
(
0.00368156
0.0109141
0.0177601
0.0239768
0.0293442
0.033672
0.036807
0.038638
0.0391003
0.0381774
0.0359021
0.032355
0.0276616
0.0219884
0.0155362
0.00853362
0.00122878
-0.00611958
-0.0132511
-0.0199133
-0.02587
-0.0309102
-0.0348554
-0.0375659
-0.0389455
-0.0389455
-0.0375659
-0.0348554
-0.0309102
-0.02587
-0.0199133
-0.0132511
-0.00611958
0.00122877
0.0085336
0.0155361
0.0219883
0.0276615
0.0323547
0.0359018
0.0381771
0.0390999
0.0386376
0.0368065
0.0336715
0.0293437
0.0239764
0.0177597
0.0109138
0.00368138
-0.00368151
-0.010914
-0.0177598
-0.0239765
-0.0293438
-0.0336716
-0.0368065
-0.0386376
-0.0390999
-0.0381771
-0.0359018
-0.0323547
-0.0276614
-0.0219882
-0.0155361
-0.00853355
-0.00122873
0.00611963
0.0132512
0.0199133
0.02587
0.0309102
0.0348555
0.0375659
0.0389456
0.0389455
0.0375659
0.0348554
0.0309102
0.0258699
0.0199132
0.0132511
0.00611952
-0.00122884
-0.00853368
-0.0155362
-0.0219884
-0.0276617
-0.032355
-0.0359021
-0.0381774
-0.0391003
-0.038638
-0.0368069
-0.0336719
-0.0293441
-0.0239767
-0.0177599
-0.010914
-0.00368142
)
;

boundaryField
{
    inlet
    {
        type            cyclic;
    }
    outlet
    {
        type            cyclic;
    }
    bottom
    {
        type            slip;
    }
    top
    {
        type            slip;
    }
    frontAndBack
    {
        type            empty;
    }
}


// ************************************************************************* //
