/*--------------------------------*- C++ -*----------------------------------*\
  =========                 |
  \\      /  F ield         | OpenFOAM: The Open Source CFD Toolbox
   \\    /   O peration     | Website:  https://openfoam.org
    \\  /    A nd           | Version:  10
     \\/     M anipulation  |
\*---------------------------------------------------------------------------*/
FoamFile
{
    format      ascii;
    class       volScalarField;
    location    "12.5";
    object      T;
}
// * * * * * * * * * * * * * * * * * * * * * * * * * * * * * * * * * * * * * //

dimensions      [0 0 0 1 0 0 0];

internalField   nonuniform List<scalar> 
10000
(
374.966
361.219
356.489
354.388
353.226
352.475
351.937
351.524
351.191
350.912
350.672
350.461
350.271
350.099
349.941
349.794
349.657
349.527
349.405
349.289
349.178
349.071
348.969
348.871
348.776
348.685
348.597
348.512
348.43
348.35
348.273
348.198
348.125
348.055
347.987
347.921
347.857
347.796
347.736
347.678
347.621
347.567
347.515
347.464
347.415
347.367
347.321
347.277
347.235
347.193
347.154
347.116
347.079
347.044
347.01
346.977
346.946
346.916
346.887
346.86
346.833
346.808
346.784
346.761
346.739
346.718
346.698
346.679
346.661
346.644
346.628
346.612
346.598
346.584
346.571
346.558
346.547
346.536
346.526
346.516
346.507
346.499
346.491
346.484
346.477
346.471
346.466
346.461
346.456
346.452
346.449
346.445
346.443
346.441
346.439
346.437
346.436
346.436
346.436
346.437
388.543
374.63
366.825
362.214
359.256
357.201
355.676
354.482
353.508
352.687
351.977
351.35
350.787
350.274
349.802
349.364
348.953
348.566
348.2
347.851
347.519
347.2
346.895
346.601
346.318
346.044
345.78
345.525
345.278
345.039
344.808
344.584
344.366
344.156
343.952
343.754
343.563
343.377
343.197
343.023
342.855
342.692
342.534
342.382
342.235
342.092
341.955
341.823
341.695
341.571
341.453
341.338
341.228
341.123
341.021
340.923
340.829
340.739
340.653
340.57
340.491
340.416
340.343
340.274
340.208
340.146
340.086
340.029
339.975
339.923
339.874
339.828
339.784
339.743
339.704
339.667
339.632
339.599
339.569
339.54
339.513
339.488
339.465
339.444
339.424
339.406
339.389
339.374
339.36
339.348
339.337
339.328
339.32
339.313
339.308
339.304
339.301
339.299
339.299
339.3
393.109
381.943
373.974
368.392
364.388
361.404
359.089
357.227
355.679
354.359
353.207
352.183
351.26
350.417
349.639
348.914
348.235
347.594
346.987
346.409
345.857
345.328
344.82
344.331
343.86
343.406
342.967
342.542
342.132
341.734
341.349
340.975
340.614
340.263
339.923
339.594
339.275
338.966
338.667
338.377
338.097
337.826
337.563
337.309
337.064
336.827
336.598
336.377
336.165
335.959
335.762
335.571
335.388
335.212
335.042
334.879
334.723
334.573
334.43
334.292
334.16
334.034
333.914
333.799
333.689
333.584
333.485
333.39
333.299
333.214
333.132
333.055
332.982
332.913
332.848
332.787
332.729
332.674
332.623
332.575
332.531
332.489
332.451
332.415
332.382
332.351
332.324
332.299
332.276
332.256
332.238
332.222
332.209
332.198
332.189
332.182
332.177
332.174
332.174
332.175
395.046
386.063
378.739
372.994
368.502
364.941
362.055
359.66
357.628
355.867
354.314
352.923
351.661
350.502
349.429
348.428
347.487
346.598
345.755
344.951
344.182
343.445
342.737
342.056
341.399
340.765
340.152
339.559
338.985
338.429
337.891
337.37
336.864
336.374
335.899
335.439
334.993
334.561
334.143
333.738
333.346
332.966
332.599
332.244
331.901
331.57
331.25
330.941
330.643
330.356
330.08
329.813
329.557
329.31
329.073
328.846
328.627
328.418
328.217
328.024
327.84
327.664
327.495
327.334
327.181
327.034
326.895
326.762
326.636
326.516
326.402
326.294
326.192
326.095
326.004
325.918
325.837
325.761
325.69
325.623
325.56
325.502
325.448
325.398
325.352
325.309
325.271
325.235
325.204
325.175
325.15
325.128
325.11
325.094
325.082
325.072
325.065
325.062
325.061
325.063
396.045
388.532
381.928
376.344
371.69
367.807
364.534
361.738
359.311
357.175
355.267
353.542
351.966
350.512
349.16
347.893
346.7
345.57
344.496
343.471
342.49
341.549
340.644
339.772
338.931
338.119
337.334
336.574
335.839
335.126
334.436
333.767
333.119
332.491
331.881
331.291
330.719
330.164
329.627
329.107
328.604
328.117
327.646
327.19
326.749
326.324
325.913
325.517
325.134
324.766
324.411
324.068
323.739
323.423
323.118
322.826
322.545
322.276
322.018
321.771
321.534
321.308
321.091
320.885
320.687
320.499
320.32
320.15
319.988
319.833
319.687
319.549
319.418
319.293
319.176
319.066
318.962
318.864
318.772
318.686
318.606
318.531
318.462
318.398
318.338
318.284
318.234
318.189
318.148
318.112
318.08
318.051
318.027
318.007
317.991
317.979
317.97
317.966
317.965
317.967
396.633
390.098
384.098
378.767
374.112
370.067
366.543
363.452
360.714
358.263
356.047
354.025
352.162
350.433
348.818
347.299
345.864
344.502
343.205
341.965
340.777
339.636
338.537
337.478
336.456
335.469
334.513
333.589
332.693
331.826
330.985
330.17
329.38
328.614
327.871
327.151
326.454
325.778
325.123
324.488
323.874
323.28
322.705
322.149
321.612
321.093
320.592
320.108
319.641
319.191
318.758
318.341
317.939
317.552
317.181
316.824
316.482
316.153
315.838
315.536
315.248
314.971
314.707
314.455
314.214
313.985
313.766
313.558
313.36
313.172
312.993
312.824
312.664
312.512
312.369
312.235
312.108
311.988
311.876
311.771
311.673
311.582
311.497
311.419
311.346
311.28
311.219
311.164
311.114
311.07
311.03
310.996
310.967
310.942
310.923
310.908
310.897
310.891
310.89
310.893
397.008
391.137
385.603
380.52
375.928
371.812
368.129
364.823
361.839
359.128
356.647
354.36
352.238
350.257
348.396
346.64
344.975
343.391
341.878
340.43
339.04
337.704
336.416
335.174
333.974
332.813
331.69
330.603
329.549
328.528
327.539
326.579
325.648
324.746
323.871
323.023
322.2
321.404
320.632
319.884
319.16
318.459
317.781
317.126
316.492
315.88
315.289
314.718
314.168
313.637
313.126
312.633
312.159
311.704
311.265
310.844
310.44
310.053
309.681
309.325
308.984
308.658
308.347
308.049
307.765
307.494
307.236
306.99
306.757
306.535
306.324
306.125
305.936
305.757
305.588
305.429
305.279
305.138
305.006
304.882
304.767
304.659
304.559
304.466
304.381
304.302
304.231
304.165
304.107
304.054
304.008
303.967
303.933
303.904
303.88
303.863
303.85
303.844
303.842
303.846
397.26
391.847
386.659
381.786
377.275
373.134
369.346
365.881
362.703
359.776
357.068
354.548
352.192
349.979
347.89
345.91
344.027
342.231
340.511
338.862
337.277
335.751
334.278
332.856
331.482
330.152
328.864
327.617
326.407
325.235
324.098
322.995
321.926
320.889
319.882
318.907
317.961
317.045
316.156
315.296
314.463
313.657
312.877
312.122
311.393
310.688
310.007
309.351
308.717
308.106
307.517
306.95
306.405
305.88
305.375
304.891
304.425
303.979
303.551
303.141
302.748
302.373
302.014
301.671
301.344
301.032
300.735
300.452
300.183
299.927
299.685
299.455
299.237
299.031
298.837
298.653
298.481
298.318
298.166
298.024
297.89
297.766
297.651
297.544
297.446
297.356
297.273
297.198
297.13
297.07
297.016
296.97
296.93
296.896
296.869
296.849
296.835
296.827
296.825
296.83
397.433
392.339
387.404
382.695
378.259
374.112
370.252
366.666
363.33
360.222
357.316
354.59
352.024
349.598
347.297
345.108
343.019
341.021
339.103
337.261
335.487
333.776
332.124
330.527
328.982
327.486
326.036
324.631
323.268
321.947
320.665
319.421
318.214
317.043
315.908
314.806
313.738
312.703
311.7
310.728
309.787
308.876
307.994
307.141
306.317
305.521
304.751
304.009
303.293
302.602
301.936
301.295
300.678
300.085
299.514
298.966
298.44
297.935
297.451
296.988
296.544
296.119
295.713
295.326
294.956
294.603
294.267
293.947
293.642
293.353
293.079
292.819
292.573
292.34
292.12
291.912
291.717
291.534
291.361
291.2
291.049
290.909
290.779
290.658
290.547
290.444
290.351
290.266
290.189
290.121
290.06
290.007
289.962
289.925
289.894
289.871
289.855
289.846
289.844
289.849
397.552
392.681
387.926
383.34
378.961
374.812
370.897
367.212
363.746
360.483
357.405
354.495
351.737
349.117
346.62
344.234
341.951
339.76
337.653
335.624
333.668
331.778
329.952
328.184
326.473
324.814
323.206
321.646
320.133
318.664
317.239
315.856
314.514
313.212
311.948
310.723
309.534
308.381
307.264
306.182
305.134
304.119
303.137
302.187
301.268
300.381
299.524
298.696
297.898
297.128
296.386
295.672
294.984
294.322
293.687
293.076
292.489
291.926
291.387
290.87
290.375
289.901
289.449
289.017
288.604
288.211
287.836
287.479
287.14
286.817
286.511
286.221
285.947
285.687
285.442
285.21
284.993
284.788
284.596
284.416
284.248
284.092
283.946
283.811
283.687
283.573
283.469
283.374
283.289
283.212
283.145
283.086
283.035
282.993
282.959
282.933
282.915
282.905
282.903
282.909
397.633
392.915
388.285
383.784
379.445
375.288
371.325
367.557
363.977
360.577
357.346
354.271
351.339
348.539
345.859
343.29
340.822
338.448
336.161
333.954
331.821
329.759
327.763
325.83
323.956
322.138
320.375
318.664
317.002
315.39
313.824
312.304
310.829
309.397
308.007
306.658
305.35
304.082
302.852
301.66
300.506
299.389
298.307
297.261
296.249
295.272
294.327
293.416
292.536
291.688
290.871
290.083
289.325
288.596
287.895
287.222
286.576
285.955
285.361
284.791
284.245
283.723
283.225
282.748
282.293
281.859
281.446
281.053
280.679
280.323
279.986
279.666
279.364
279.077
278.807
278.552
278.312
278.086
277.874
277.676
277.491
277.318
277.158
277.009
276.872
276.746
276.631
276.527
276.432
276.348
276.274
276.209
276.153
276.107
276.069
276.041
276.021
276.01
276.007
276.013
397.687
393.07
388.522
384.074
379.755
375.585
371.574
367.729
364.047
360.525
357.155
353.929
350.837
347.87
345.02
342.278
339.636
337.088
334.628
332.249
329.947
327.718
325.558
323.464
321.431
319.459
317.544
315.684
313.878
312.124
310.421
308.766
307.159
305.599
304.085
302.615
301.189
299.806
298.466
297.166
295.907
294.688
293.508
292.367
291.263
290.196
289.166
288.171
287.211
286.285
285.393
284.533
283.706
282.91
282.145
281.41
280.704
280.026
279.377
278.755
278.159
277.589
277.044
276.524
276.027
275.554
275.102
274.673
274.264
273.876
273.507
273.158
272.828
272.515
272.219
271.941
271.678
271.432
271.201
270.984
270.782
270.593
270.418
270.255
270.106
269.968
269.842
269.728
269.625
269.533
269.452
269.381
269.32
269.269
269.228
269.197
269.175
269.163
269.16
269.166
397.72
393.164
388.664
384.244
379.928
375.734
371.675
367.756
363.98
360.345
356.847
353.481
350.24
347.118
344.108
341.202
338.396
335.682
333.056
330.513
328.048
325.658
323.339
321.087
318.901
316.778
314.714
312.71
310.762
308.869
307.03
305.243
303.507
301.822
300.185
298.596
297.054
295.558
294.108
292.702
291.34
290.02
288.743
287.508
286.313
285.158
284.042
282.965
281.925
280.922
279.956
279.025
278.129
277.267
276.438
275.642
274.877
274.143
273.44
272.765
272.12
271.502
270.912
270.348
269.81
269.297
268.808
268.342
267.899
267.479
267.079
266.701
266.343
266.004
265.683
265.381
265.097
264.83
264.579
264.344
264.125
263.921
263.731
263.555
263.392
263.243
263.107
262.983
262.871
262.772
262.683
262.606
262.54
262.485
262.441
262.407
262.383
262.37
262.367
262.373
397.737
393.212
388.733
384.32
379.991
375.765
371.652
367.661
363.794
360.052
356.434
352.938
349.558
346.289
343.128
340.068
337.104
334.233
331.448
328.747
326.125
323.579
321.105
318.702
316.366
314.096
311.888
309.742
307.655
305.626
303.654
301.738
299.875
298.066
296.309
294.602
292.946
291.339
289.781
288.27
286.806
285.388
284.015
282.686
281.401
280.159
278.959
277.8
276.682
275.603
274.564
273.562
272.598
271.67
270.778
269.921
269.099
268.309
267.552
266.826
266.132
265.467
264.832
264.225
263.645
263.093
262.566
262.065
261.589
261.136
260.706
260.298
259.913
259.548
259.203
258.878
258.572
258.284
258.014
257.761
257.525
257.305
257.1
256.911
256.736
256.575
256.429
256.295
256.175
256.067
255.972
255.889
255.818
255.759
255.711
255.674
255.648
255.634
255.631
255.638
397.742
393.224
388.745
384.319
379.966
375.698
371.528
367.462
363.506
359.663
355.931
352.311
348.799
345.392
342.087
338.88
335.767
332.744
329.807
326.954
324.18
321.483
318.861
316.31
313.829
311.415
309.067
306.782
304.56
302.398
300.296
298.252
296.265
294.334
292.459
290.637
288.868
287.152
285.487
283.873
282.308
280.793
279.325
277.905
276.531
275.203
273.92
272.68
271.484
270.331
269.219
268.148
267.116
266.124
265.17
264.253
263.372
262.527
261.717
260.941
260.198
259.486
258.806
258.157
257.537
256.946
256.382
255.846
255.336
254.851
254.391
253.955
253.542
253.151
252.782
252.434
252.106
251.798
251.509
251.238
250.986
250.75
250.531
250.328
250.141
249.969
249.812
249.669
249.54
249.425
249.323
249.234
249.157
249.094
249.042
249.003
248.976
248.96
248.956
248.964
397.737
393.207
388.71
384.259
379.868
375.551
371.318
367.177
363.133
359.19
355.349
351.61
347.972
344.434
340.992
337.644
334.387
331.219
328.137
325.137
322.217
319.375
316.608
313.914
311.291
308.738
306.252
303.832
301.477
299.185
296.956
294.787
292.679
290.629
288.637
286.702
284.823
282.999
281.229
279.513
277.85
276.238
274.677
273.167
271.705
270.292
268.927
267.609
266.336
265.108
263.925
262.785
261.687
260.631
259.615
258.639
257.702
256.802
255.94
255.113
254.322
253.564
252.84
252.149
251.488
250.859
250.259
249.687
249.144
248.628
248.138
247.673
247.233
246.817
246.424
246.054
245.705
245.376
245.068
244.78
244.511
244.26
244.026
243.81
243.611
243.427
243.26
243.108
242.97
242.847
242.739
242.644
242.562
242.495
242.44
242.398
242.368
242.352
242.348
242.356
397.724
393.166
388.638
384.148
379.711
375.338
371.038
366.819
362.688
358.647
354.699
350.846
347.087
343.421
339.848
336.365
332.971
329.663
326.44
323.299
320.238
317.254
314.347
311.515
308.754
306.065
303.446
300.894
298.41
295.991
293.637
291.346
289.118
286.952
284.845
282.799
280.812
278.882
277.01
275.193
273.433
271.726
270.074
268.474
266.927
265.43
263.984
262.587
261.239
259.939
258.685
257.477
256.313
255.194
254.117
253.083
252.09
251.136
250.222
249.346
248.507
247.704
246.936
246.203
245.503
244.836
244.199
243.594
243.018
242.47
241.951
241.458
240.992
240.55
240.134
239.74
239.37
239.022
238.696
238.39
238.104
237.838
237.59
237.361
237.149
236.955
236.777
236.615
236.47
236.339
236.224
236.123
236.037
235.965
235.906
235.862
235.831
235.813
235.808
235.817
397.704
393.107
388.536
383.998
379.506
375.07
370.699
366.401
362.18
358.043
353.991
350.026
346.15
342.362
338.662
335.05
331.523
328.081
324.721
321.444
318.246
315.126
312.083
309.115
306.222
303.4
300.651
297.971
295.36
292.817
290.341
287.931
285.586
283.305
281.087
278.931
276.837
274.804
272.83
270.916
269.059
267.26
265.517
263.83
262.198
260.619
259.093
257.62
256.197
254.824
253.501
252.226
250.998
249.816
248.68
247.588
246.539
245.533
244.567
243.642
242.756
241.909
241.098
240.324
239.585
238.88
238.208
237.568
236.96
236.382
235.833
235.312
234.82
234.354
233.913
233.498
233.107
232.739
232.394
232.071
231.769
231.488
231.226
230.984
230.76
230.555
230.367
230.196
230.042
229.904
229.782
229.676
229.584
229.508
229.446
229.399
229.366
229.347
229.342
229.351
397.68
393.033
388.409
383.815
379.262
374.757
370.312
365.931
361.622
357.388
353.233
349.16
345.169
341.263
337.441
333.702
330.047
326.475
322.985
319.575
316.244
312.992
309.818
306.719
303.695
300.745
297.869
295.063
292.329
289.665
287.07
284.543
282.084
279.691
277.363
275.101
272.902
270.767
268.694
266.683
264.733
262.842
261.011
259.237
257.521
255.862
254.258
252.708
251.212
249.769
248.377
247.036
245.744
244.501
243.306
242.157
241.054
239.995
238.979
238.006
237.074
236.182
235.329
234.514
233.736
232.994
232.287
231.614
230.973
230.365
229.787
229.24
228.721
228.23
227.767
227.33
226.918
226.531
226.168
225.827
225.509
225.213
224.938
224.683
224.447
224.231
224.033
223.853
223.691
223.545
223.417
223.305
223.208
223.128
223.063
223.013
222.978
222.958
222.953
222.962
397.651
392.947
388.263
383.606
378.985
374.408
369.884
365.419
361.02
356.69
352.434
348.253
344.152
340.13
336.189
332.328
328.549
324.851
321.233
317.695
314.237
310.856
307.553
304.327
301.177
298.103
295.102
292.175
289.32
286.538
283.826
281.185
278.614
276.111
273.676
271.309
269.008
266.773
264.603
262.497
260.454
258.474
256.556
254.698
252.9
251.161
249.479
247.855
246.287
244.774
243.315
241.909
240.555
239.252
237.998
236.793
235.636
234.526
233.461
232.44
231.462
230.526
229.632
228.777
227.961
227.182
226.44
225.734
225.062
224.424
223.818
223.243
222.699
222.184
221.698
221.239
220.807
220.401
220.019
219.662
219.329
219.017
218.728
218.461
218.213
217.986
217.778
217.59
217.419
217.267
217.131
217.014
216.912
216.828
216.759
216.707
216.67
216.649
216.643
216.652
397.619
392.85
388.1
383.374
378.681
374.028
369.423
364.872
360.382
355.956
351.599
347.314
343.103
338.969
334.912
330.933
327.033
323.213
319.471
315.809
312.226
308.721
305.294
301.944
298.671
295.474
292.353
289.307
286.335
283.437
280.612
277.859
275.178
272.569
270.029
267.559
265.158
262.825
260.559
258.36
256.227
254.159
252.155
250.214
248.335
246.518
244.761
243.064
241.425
239.843
238.318
236.848
235.432
234.07
232.759
231.499
230.289
229.128
228.014
226.946
225.924
224.945
224.009
223.115
222.261
221.447
220.671
219.932
219.229
218.561
217.927
217.326
216.756
216.218
215.709
215.229
214.777
214.351
213.952
213.579
213.229
212.904
212.601
212.321
212.062
211.824
211.607
211.409
211.23
211.071
210.929
210.806
210.7
210.611
210.539
210.484
210.445
210.423
210.417
210.426
397.585
392.745
387.925
383.125
378.356
373.623
368.935
364.297
359.715
355.193
350.736
346.348
342.03
337.785
333.614
329.52
325.503
321.564
317.702
313.92
310.215
306.589
303.041
299.571
296.178
292.863
289.624
286.462
283.376
280.365
277.429
274.568
271.78
269.065
266.423
263.852
261.353
258.924
256.565
254.275
252.053
249.899
247.811
245.788
243.831
241.937
240.106
238.336
236.628
234.979
233.388
231.856
230.379
228.958
227.592
226.278
225.016
223.804
222.642
221.528
220.462
219.441
218.464
217.531
216.641
215.791
214.982
214.21
213.477
212.78
212.118
211.491
210.897
210.334
209.803
209.302
208.83
208.386
207.97
207.58
207.215
206.875
206.559
206.267
205.996
205.748
205.521
205.314
205.128
204.961
204.813
204.684
204.573
204.48
204.405
204.348
204.307
204.283
204.277
204.287
397.548
392.634
387.738
382.862
378.013
373.198
368.424
363.698
359.024
354.406
349.85
345.359
340.936
336.583
332.302
328.095
323.964
319.908
315.93
312.03
308.208
304.464
300.798
297.211
293.702
290.271
286.918
283.643
280.445
277.324
274.28
271.312
268.42
265.602
262.86
260.191
257.596
255.073
252.623
250.244
247.935
245.696
243.525
241.423
239.388
237.419
235.515
233.675
231.898
230.183
228.528
226.934
225.398
223.92
222.498
221.131
219.818
218.557
217.348
216.189
215.079
214.016
213
212.029
211.102
210.218
209.375
208.572
207.809
207.083
206.394
205.741
205.122
204.537
203.984
203.462
202.971
202.508
202.075
201.668
201.289
200.935
200.606
200.301
200.019
199.76
199.524
199.308
199.114
198.94
198.786
198.652
198.536
198.439
198.361
198.3
198.258
198.233
198.226
198.236
397.509
392.518
387.543
382.587
377.656
372.757
367.897
363.08
358.313
353.601
348.946
344.354
339.827
335.367
330.978
326.661
322.418
318.25
314.158
310.144
306.207
302.348
298.568
294.866
291.244
287.701
284.237
280.851
277.545
274.317
271.167
268.095
265.1
262.183
259.342
256.578
253.888
251.274
248.734
246.267
243.874
241.552
239.301
237.12
235.009
232.966
230.99
229.081
227.237
225.457
223.741
222.086
220.491
218.957
217.481
216.061
214.698
213.389
212.133
210.93
209.777
208.674
207.618
206.61
205.647
204.729
203.853
203.02
202.226
201.473
200.757
200.078
199.436
198.828
198.253
197.711
197.2
196.72
196.269
195.847
195.453
195.085
194.743
194.426
194.133
193.864
193.618
193.394
193.192
193.011
192.851
192.711
192.591
192.49
192.408
192.345
192.301
192.275
192.267
192.277
397.469
392.397
387.341
382.303
377.288
372.303
367.355
362.448
357.589
352.781
348.029
343.336
338.706
334.143
329.647
325.223
320.87
316.592
312.39
308.263
304.215
300.244
296.352
292.54
288.807
285.155
281.582
278.089
274.676
271.344
268.091
264.918
261.824
258.809
255.872
253.014
250.233
247.529
244.901
242.349
239.872
237.469
235.139
232.882
230.696
228.581
226.535
224.558
222.648
220.805
219.027
217.313
215.661
214.071
212.542
211.071
209.659
208.302
207.001
205.754
204.559
203.416
202.322
201.277
200.279
199.327
198.419
197.555
196.733
195.952
195.21
194.506
193.84
193.209
192.614
192.051
191.522
191.024
190.557
190.119
189.709
189.328
188.973
188.644
188.341
188.062
187.806
187.574
187.365
187.177
187.01
186.865
186.74
186.635
186.55
186.485
186.439
186.412
186.403
186.414
397.428
392.273
387.134
382.012
376.911
371.84
366.803
361.805
356.853
351.95
347.101
342.309
337.579
332.913
328.313
323.783
319.324
314.938
310.627
306.392
302.235
298.155
294.155
290.235
286.394
282.635
278.956
275.359
271.843
268.408
265.055
261.783
258.591
255.481
252.451
249.501
246.63
243.838
241.125
238.49
235.931
233.449
231.042
228.71
226.451
224.265
222.151
220.107
218.133
216.228
214.389
212.617
210.909
209.265
207.684
206.163
204.702
203.299
201.953
200.663
199.428
198.245
197.113
196.032
195
194.015
193.076
192.181
191.331
190.522
189.755
189.026
188.337
187.684
187.068
186.486
185.938
185.423
184.939
184.485
184.062
183.667
183.299
182.959
182.645
182.356
182.091
181.851
181.634
181.439
181.267
181.116
180.986
180.878
180.79
180.722
180.673
180.645
180.636
180.647
397.386
392.147
386.924
381.715
376.529
371.369
366.243
361.155
356.11
351.112
346.167
341.278
336.448
331.68
326.979
322.345
317.782
313.291
308.874
304.533
300.269
296.084
291.978
287.952
284.007
280.143
276.362
272.662
269.046
265.512
262.06
258.692
255.406
252.202
249.081
246.041
243.083
240.206
237.409
234.692
232.053
229.494
227.011
224.606
222.276
220.021
217.839
215.731
213.694
211.727
209.83
208
206.238
204.541
202.908
201.338
199.83
198.381
196.992
195.66
194.384
193.162
191.994
190.877
189.811
188.794
187.824
186.9
186.022
185.186
184.393
183.641
182.929
182.255
181.618
181.017
180.45
179.918
179.418
178.95
178.512
178.103
177.724
177.372
177.047
176.748
176.475
176.226
176.002
175.8
175.622
175.466
175.332
175.219
175.128
175.058
175.008
174.978
174.969
174.979
397.343
392.019
386.71
381.416
376.142
370.894
365.678
360.499
355.361
350.27
345.23
340.244
335.316
330.449
325.647
320.912
316.247
311.653
307.133
302.689
298.321
294.033
289.823
285.695
281.647
277.683
273.801
270.002
266.287
262.656
259.109
255.646
252.268
248.974
245.763
242.636
239.593
236.632
233.753
230.956
228.241
225.605
223.049
220.572
218.172
215.849
213.602
211.43
209.331
207.305
205.35
203.465
201.649
199.9
198.217
196.599
195.044
193.551
192.119
190.746
189.43
188.171
186.966
185.815
184.715
183.666
182.666
181.714
180.808
179.946
179.128
178.353
177.618
176.923
176.265
175.645
175.061
174.512
173.996
173.513
173.061
172.64
172.248
171.885
171.55
171.241
170.959
170.703
170.471
170.263
170.079
169.917
169.779
169.663
169.568
169.495
169.443
169.412
169.402
169.413
397.3
391.891
386.495
381.113
375.752
370.416
365.11
359.841
354.611
349.427
344.292
339.211
334.186
329.222
324.321
319.487
314.722
310.027
305.407
300.861
296.393
292.003
287.693
283.464
279.318
275.254
271.274
267.379
263.568
259.843
256.203
252.649
249.18
245.797
242.5
239.288
236.161
233.119
230.16
227.286
224.494
221.784
219.156
216.609
214.141
211.752
209.441
207.207
205.048
202.963
200.952
199.012
197.143
195.344
193.612
191.947
190.346
188.81
187.336
185.922
184.568
183.271
182.031
180.846
179.714
178.634
177.604
176.624
175.691
174.804
173.961
173.163
172.406
171.69
171.013
170.374
169.773
169.207
168.676
168.178
167.712
167.278
166.875
166.501
166.155
165.837
165.546
165.282
165.043
164.828
164.638
164.472
164.329
164.209
164.111
164.036
163.982
163.95
163.94
163.95
397.257
391.761
386.279
380.81
375.361
369.936
364.542
359.182
353.861
348.585
343.357
338.181
333.062
328.002
323.004
318.072
313.209
308.416
303.697
299.053
294.486
289.998
285.59
281.264
277.02
272.86
268.785
264.795
260.891
257.074
253.343
249.7
246.144
242.674
239.292
235.997
232.789
229.667
226.631
223.681
220.815
218.033
215.335
212.719
210.185
207.732
205.358
203.063
200.845
198.703
196.637
194.644
192.723
190.874
189.094
187.383
185.738
184.159
182.644
181.191
179.799
178.466
177.191
175.973
174.809
173.699
172.64
171.632
170.672
169.76
168.894
168.073
167.294
166.558
165.862
165.205
164.586
164.004
163.458
162.945
162.467
162.02
161.605
161.22
160.864
160.537
160.238
159.965
159.719
159.498
159.303
159.132
158.984
158.86
158.76
158.682
158.626
158.593
158.582
158.592
397.214
391.631
386.062
380.507
374.97
369.457
363.974
358.524
353.114
347.746
342.426
337.158
331.944
326.79
321.697
316.67
311.711
306.822
302.007
297.266
292.603
288.019
283.515
279.094
274.756
270.502
266.334
262.253
258.258
254.351
250.532
246.802
243.16
239.607
236.142
232.766
229.479
226.279
223.168
220.143
217.205
214.353
211.586
208.904
206.305
203.788
201.353
198.999
196.723
194.526
192.406
190.361
188.39
186.492
184.666
182.909
181.222
179.601
178.045
176.554
175.124
173.756
172.447
171.196
170.002
168.861
167.774
166.739
165.754
164.817
163.928
163.084
162.285
161.528
160.814
160.139
159.503
158.905
158.344
157.818
157.326
156.867
156.44
156.045
155.679
155.343
155.035
154.755
154.502
154.275
154.074
153.898
153.746
153.618
153.515
153.434
153.377
153.342
153.33
153.34
397.171
391.502
385.847
380.204
374.581
368.98
363.409
357.87
352.37
346.912
341.502
336.141
330.836
325.589
320.403
315.283
310.23
305.247
300.337
295.503
290.746
286.068
281.471
276.957
272.527
268.182
263.924
259.753
255.67
251.676
247.771
243.956
240.23
236.595
233.05
229.596
226.231
222.956
219.771
216.674
213.665
210.745
207.911
205.164
202.501
199.923
197.429
195.016
192.685
190.433
188.26
186.165
184.145
182.2
180.328
178.527
176.797
175.135
173.54
172.011
170.546
169.143
167.801
166.518
165.293
164.124
163.009
161.947
160.937
159.976
159.064
158.199
157.379
156.603
155.869
155.177
154.525
153.912
153.336
152.796
152.291
151.82
151.382
150.976
150.601
150.256
149.94
149.652
149.392
149.159
148.953
148.772
148.616
148.484
148.378
148.295
148.236
148.2
148.187
148.197
397.128
391.373
385.632
379.904
374.193
368.506
362.847
357.221
351.632
346.086
340.585
335.135
329.739
324.401
319.124
313.912
308.767
303.692
298.691
293.765
288.916
284.147
279.459
274.855
270.335
265.902
261.555
257.297
253.128
249.049
245.06
241.163
237.356
233.642
230.018
226.487
223.047
219.699
216.441
213.274
210.197
207.21
204.311
201.5
198.776
196.138
193.585
191.117
188.73
186.426
184.202
182.057
179.989
177.998
176.081
174.237
172.466
170.764
169.131
167.565
166.065
164.628
163.254
161.94
160.685
159.487
158.345
157.258
156.222
155.238
154.304
153.417
152.577
151.782
151.031
150.322
149.653
149.025
148.434
147.881
147.363
146.881
146.432
146.016
145.631
145.277
144.953
144.658
144.392
144.152
143.94
143.754
143.594
143.46
143.35
143.265
143.203
143.166
143.153
143.163
397.085
391.246
385.419
379.605
373.809
368.036
362.29
356.577
350.901
345.267
339.679
334.14
328.655
323.228
317.861
312.559
307.325
302.16
297.069
292.053
287.115
282.257
277.481
272.789
268.182
263.662
259.23
254.887
250.634
246.472
242.402
238.424
234.539
230.746
227.047
223.441
219.928
216.508
213.181
209.945
206.801
203.749
200.787
197.914
195.13
192.434
189.824
187.3
184.861
182.505
180.231
178.037
175.923
173.886
171.926
170.041
168.229
166.488
164.818
163.216
161.681
160.212
158.806
157.461
156.177
154.952
153.784
152.671
151.612
150.605
149.648
148.741
147.881
147.067
146.298
145.572
144.888
144.245
143.64
143.074
142.544
142.05
141.59
141.164
140.77
140.408
140.076
139.774
139.501
139.256
139.038
138.848
138.683
138.545
138.432
138.345
138.282
138.243
138.229
138.239
397.043
391.119
385.208
379.31
373.429
367.57
361.74
355.941
350.179
344.458
338.783
333.158
327.585
322.071
316.617
311.227
305.904
300.652
295.473
290.37
285.345
280.4
275.538
270.76
266.068
261.464
256.948
252.523
248.188
243.946
239.797
235.741
231.779
227.911
224.138
220.459
216.875
213.385
209.99
206.688
203.479
200.363
197.339
194.406
191.564
188.811
186.146
183.569
181.077
178.671
176.348
174.107
171.948
169.867
167.865
165.939
164.087
162.309
160.602
158.965
157.397
155.895
154.458
153.084
151.772
150.52
149.325
148.188
147.105
146.076
145.098
144.17
143.292
142.46
141.673
140.931
140.232
139.573
138.955
138.376
137.834
137.329
136.859
136.423
136.02
135.649
135.309
135
134.72
134.47
134.247
134.052
133.883
133.742
133.626
133.536
133.471
133.432
133.417
133.426
397.001
390.994
385
379.018
373.053
367.111
361.196
355.313
349.466
343.661
337.9
332.189
326.532
320.931
315.391
309.916
304.508
299.17
293.905
288.717
283.607
278.578
273.631
268.77
263.995
259.309
254.712
250.206
245.793
241.472
237.246
233.114
229.078
225.136
221.291
217.542
213.888
210.331
206.869
203.502
200.23
197.053
193.969
190.977
188.078
185.27
182.551
179.922
177.38
174.925
172.555
170.268
168.064
165.941
163.897
161.931
160.041
158.226
156.484
154.813
153.212
151.679
150.211
148.809
147.469
146.19
144.971
143.809
142.704
141.652
140.654
139.707
138.809
137.959
137.156
136.398
135.683
135.011
134.38
133.788
133.234
132.718
132.237
131.792
131.38
131.001
130.654
130.338
130.052
129.795
129.567
129.367
129.195
129.05
128.931
128.839
128.773
128.732
128.716
128.725
396.96
390.871
384.794
378.729
372.682
366.657
360.66
354.694
348.764
342.875
337.031
331.236
325.495
319.811
314.187
308.627
303.135
297.714
292.366
287.094
281.902
276.79
271.762
266.819
261.964
257.198
252.522
247.939
243.448
239.052
234.75
230.545
226.436
222.423
218.508
214.69
210.969
207.346
203.82
200.39
197.057
193.819
190.677
187.628
184.674
181.812
179.041
176.361
173.77
171.267
168.851
166.52
164.272
162.108
160.024
158.019
156.092
154.241
152.464
150.76
149.127
147.563
146.067
144.636
143.269
141.965
140.721
139.536
138.408
137.335
136.317
135.35
134.434
133.567
132.747
131.974
131.244
130.558
129.914
129.31
128.745
128.217
127.727
127.272
126.851
126.464
126.11
125.787
125.495
125.232
125
124.795
124.619
124.471
124.349
124.255
124.186
124.144
124.128
124.137
396.92
390.749
384.591
378.446
372.317
366.211
360.132
354.084
348.073
342.102
336.176
330.3
324.476
318.71
313.004
307.363
301.789