/*--------------------------------*- C++ -*----------------------------------*\
  =========                 |
  \\      /  F ield         | OpenFOAM: The Open Source CFD Toolbox
   \\    /   O peration     | Website:  https://openfoam.org
    \\  /    A nd           | Version:  10
     \\/     M anipulation  |
\*---------------------------------------------------------------------------*/
FoamFile
{
    format      ascii;
    class       volScalarField;
    location    "12.5";
    object      T_0;
}
// * * * * * * * * * * * * * * * * * * * * * * * * * * * * * * * * * * * * * //

dimensions      [0 0 0 1 0 0 0];

internalField   nonuniform List<scalar> 
10000
(
374.952
361.211
356.481
354.38
353.218
352.467
351.929
351.516
351.183
350.904
350.664
350.453
350.263
350.091
349.933
349.786
349.648
349.519
349.397
349.28
349.169
349.063
348.961
348.862
348.768
348.677
348.588
348.503
348.421
348.341
348.264
348.189
348.117
348.046
347.978
347.912
347.848
347.786
347.726
347.668
347.612
347.558
347.505
347.454
347.405
347.358
347.312
347.268
347.225
347.184
347.145
347.106
347.07
347.034
347.001
346.968
346.937
346.907
346.878
346.85
346.824
346.799
346.775
346.752
346.73
346.709
346.689
346.67
346.652
346.635
346.618
346.603
346.588
346.575
346.562
346.549
346.538
346.527
346.517
346.507
346.498
346.49
346.482
346.475
346.468
346.462
346.457
346.452
346.447
346.443
346.44
346.436
346.434
346.432
346.43
346.428
346.427
346.427
346.427
346.426
388.534
374.631
366.826
362.214
359.256
357.201
355.675
354.481
353.507
352.686
351.976
351.349
350.785
350.273
349.8
349.362
348.951
348.564
348.198
347.849
347.516
347.198
346.892
346.598
346.315
346.041
345.777
345.522
345.275
345.036
344.804
344.58
344.362
344.152
343.948
343.75
343.558
343.373
343.193
343.019
342.85
342.687
342.53
342.377
342.23
342.088
341.95
341.818
341.69
341.567
341.448
341.334
341.224
341.118
341.016
340.918
340.825
340.735
340.648
340.566
340.487
340.411
340.339
340.27
340.204
340.141
340.081
340.024
339.97
339.919
339.87
339.824
339.78
339.738
339.699
339.662
339.628
339.595
339.564
339.536
339.509
339.484
339.461
339.439
339.42
339.401
339.385
339.37
339.356
339.344
339.333
339.324
339.316
339.309
339.304
339.3
339.297
339.295
339.295
339.296
393.1
381.944
373.975
368.392
364.387
361.403
359.088
357.225
355.677
354.356
353.204
352.18
351.257
350.413
349.635
348.91
348.231
347.59
346.982
346.404
345.851
345.322
344.814
344.325
343.854
343.399
342.96
342.535
342.124
341.726
341.341
340.968
340.606
340.255
339.915
339.586
339.267
338.958
338.659
338.369
338.088
337.817
337.554
337.3
337.055
336.818
336.589
336.368
336.156
335.95
335.752
335.562
335.379
335.202
335.033
334.87
334.714
334.564
334.421
334.283
334.151
334.025
333.905
333.79
333.68
333.576
333.476
333.381
333.291
333.205
333.124
333.047
332.974
332.905
332.84
332.778
332.72
332.666
332.615
332.567
332.523
332.481
332.442
332.407
332.374
332.344
332.316
332.291
332.268
332.248
332.23
332.214
332.201
332.19
332.181
332.174
332.169
332.167
332.166
332.168
395.037
386.064
378.739
372.993
368.5
364.939
362.052
359.657
357.624
355.863
354.309
352.918
351.655
350.496
349.423
348.422
347.48
346.591
345.747
344.943
344.174
343.437
342.728
342.047
341.389
340.755
340.141
339.548
338.974
338.418
337.88
337.358
336.852
336.362
335.887
335.427
334.981
334.549
334.13
333.725
333.333
332.953
332.586
332.231
331.888
331.557
331.237
330.928
330.63
330.343
330.066
329.8
329.544
329.297
329.06
328.832
328.614
328.404
328.203
328.011
327.827
327.65
327.482
327.321
327.168
327.021
326.882
326.749
326.623
326.503
326.389
326.281
326.179
326.083
325.992
325.906
325.825
325.749
325.677
325.611
325.548
325.49
325.436
325.386
325.34
325.298
325.259
325.224
325.192
325.164
325.139
325.117
325.098
325.083
325.07
325.061
325.054
325.05
325.049
325.052
396.036
388.532
381.927
376.342
371.687
367.803
364.53
361.733
359.306
357.169
355.261
353.536
351.959
350.504
349.151
347.884
346.691
345.56
344.486
343.46
342.479
341.537
340.632
339.76
338.919
338.106
337.321
336.561
335.825
335.112
334.422
333.753
333.104
332.475
331.866
331.275
330.703
330.148
329.611
329.091
328.587
328.1
327.629
327.173
326.732
326.307
325.896
325.5
325.117
324.748
324.393
324.051
323.722
323.405
323.101
322.809
322.528
322.259
322.001
321.754
321.517
321.291
321.074
320.868
320.671
320.483
320.304
320.133
319.971
319.817
319.671
319.532
319.401
319.277
319.16
319.05
318.946
318.848
318.757
318.671
318.591
318.516
318.447
318.382
318.323
318.269
318.219
318.174
318.133
318.097
318.065
318.036
318.013
317.992
317.976
317.964
317.956
317.951
317.95
317.953
396.624
390.098
384.097
378.765
374.109
370.063
366.539
363.447
360.708
358.256
356.04
354.016
352.153
350.424
348.808
347.289
345.853
344.491
343.193
341.952
340.764
339.622
338.523
337.464
336.441
335.453
334.497
333.572
332.676
331.809
330.967
330.152
329.362
328.595
327.852
327.132
326.434
325.758
325.103
324.468
323.854
323.26
322.685
322.129
321.591
321.072
320.571
320.087
319.62
319.17
318.737
318.319
317.918
317.531
317.16
316.803
316.461
316.132
315.817
315.516
315.227
314.95
314.686
314.434
314.194
313.964
313.745
313.537
313.34
313.152
312.973
312.804
312.644
312.493
312.35
312.215
312.088
311.969
311.857
311.752
311.654
311.563
311.479
311.4
311.328
311.261
311.201
311.146
311.096
311.051
311.012
310.978
310.949
310.924
310.904
310.889
310.879
310.873
310.872
310.875
397
391.137
385.601
380.517
375.924
371.808
368.123
364.816
361.832
359.12
356.638
354.351
352.228
350.246
348.384
346.627
344.962
343.377
341.864
340.415
339.024
337.687
336.399
335.156
333.955
332.795
331.671
330.583
329.529
328.508
327.518
326.558
325.627
324.724
323.849
323
322.178
321.38
320.608
319.86
319.136
318.435
317.757
317.101
316.468
315.855
315.264
314.693
314.143
313.612
313.101
312.608
312.134
311.679
311.24
310.82
310.416
310.028
309.656
309.3
308.96
308.634
308.322
308.025
307.741
307.47
307.212
306.966
306.733
306.511
306.301
306.101
305.912
305.734
305.565
305.406
305.256
305.115
304.983
304.86
304.744
304.637
304.537
304.444
304.359
304.28
304.209
304.144
304.085
304.033
303.986
303.946
303.911
303.882
303.859
303.841
303.829
303.822
303.821
303.825
397.251
391.847
386.657
381.782
377.27
373.129
369.34
365.874
362.695
359.767
357.058
354.537
352.18
349.966
347.876
345.896
344.012
342.215
340.495
338.845
337.259
335.732
334.259
332.836
331.461
330.131
328.842
327.594
326.384
325.211
324.074
322.971
321.901
320.863
319.857
318.881
317.935
317.018
316.129
315.269
314.436
313.629
312.849
312.094
311.365
310.66
309.979
309.322
308.688
308.077
307.489
306.922
306.376
305.851
305.347
304.862
304.397
303.95
303.522
303.112
302.72
302.345
301.986
301.643
301.316
301.004
300.707
300.424
300.155
299.9
299.658
299.428
299.21
299.004
298.81
298.627
298.454
298.292
298.14
297.998
297.865
297.741
297.626
297.519
297.421
297.33
297.248
297.173
297.105
297.045
296.991
296.945
296.905
296.872
296.845
296.824
296.81
296.802
296.801
296.805
397.424
392.339
387.402
382.692
378.254
374.106
370.245
366.657
363.321
360.212
357.305
354.578
352.01
349.584
347.282
345.092
343.002
341.003
339.085
337.241
335.466
333.754
332.102
330.504
328.958
327.461
326.011
324.605
323.242
321.92
320.637
319.393
318.186
317.015
315.879
314.777
313.708
312.673
311.669
310.697
309.756
308.844
307.963
307.11
306.285
305.489
304.719
303.977
303.26
302.57
301.904
301.263
300.646
300.053
299.482
298.934
298.408
297.903
297.419
296.956
296.512
296.087
295.682
295.294
294.924
294.571
294.235
293.916
293.611
293.323
293.048
292.788
292.542
292.31
292.09
291.883
291.687
291.504
291.332
291.171
291.02
290.88
290.75
290.629
290.518
290.416
290.322
290.238
290.161
290.093
290.032
289.98
289.935
289.897
289.867
289.843
289.827
289.818
289.816
289.821
397.543
392.68
387.924
383.336
378.956
374.805
370.889
367.203
363.736
360.471
357.392
354.481
351.722
349.101
346.603
344.217
341.932
339.74
337.632
335.602
333.645
331.755
329.927
328.159
326.447
324.787
323.178
321.618
320.104
318.635
317.209
315.826
314.483
313.18
311.916
310.69
309.501
308.348
307.23
306.148
305.099
304.084
303.102
302.151
301.233
300.345
299.488
298.66
297.862
297.092
296.35
295.636
294.948
294.287
293.651
293.04
292.453
291.891
291.351
290.834
290.339
289.866
289.414
288.981
288.569
288.176
287.801
287.444
287.105
286.783
286.477
286.187
285.913
285.654
285.408
285.177
284.96
284.755
284.563
284.384
284.216
284.059
283.914
283.78
283.655
283.541
283.437
283.343
283.257
283.181
283.114
283.055
283.004
282.962
282.928
282.903
282.885
282.875
282.873
282.878
397.624
392.914
388.283
383.78
379.439
375.281
371.317
367.547
363.966
360.565
357.332
354.256
351.323
348.521
345.84
343.27
340.801
338.426
336.138
333.929
331.796
329.733
327.736
325.802
323.927
322.108
320.344
318.632
316.971
315.357
313.791
312.27
310.794
309.362
307.971
306.622
305.314
304.045
302.815
301.623
300.468
299.35
298.269
297.222
296.21
295.232
294.288
293.376
292.497
291.648
290.831
290.044
289.286
288.557
287.856
287.183
286.536
285.916
285.321
284.752
284.206
283.685
283.186
282.709
282.255
281.821
281.408
281.015
280.641
280.286
279.949
279.629
279.327
279.041
278.77
278.515
278.276
278.05
277.838
277.64
277.455
277.283
277.123
276.974
276.837
276.712
276.597
276.492
276.398
276.314
276.24
276.175
276.119
276.073
276.035
276.007
275.987
275.976
275.973
275.979
397.678
393.069
388.519
384.069
379.749
375.577
371.565
367.718
364.035
360.512
357.14
353.912
350.819
347.851
345
342.256
339.613
337.064
334.603
332.223
329.92
327.69
325.529
323.433
321.4
319.427
317.511
315.65
313.844
312.089
310.384
308.729
307.122
305.561
304.046
302.576
301.15
299.766
298.425
297.125
295.866
294.647
293.466
292.325
291.221
290.154
289.123
288.128
287.168
286.242
285.35
284.49
283.663
282.867
282.102
281.367
280.661
279.984
279.334
278.712
278.117
277.547
277.002
276.482
275.985
275.512
275.061
274.631
274.223
273.835
273.467
273.118
272.787
272.475
272.18
271.901
271.639
271.393
271.162
270.945
270.743
270.555
270.379
270.217
270.068
269.93
269.805
269.691
269.588
269.496
269.415
269.344
269.283
269.232
269.191
269.16
269.139
269.126
269.124
269.13
397.711
393.163
388.661
384.239
379.921
375.726
371.665
367.744
363.966
360.33
356.831
353.463
350.221
347.097
344.086
341.179
338.371
335.656
333.029
330.484
328.018
325.627
323.307
321.054
318.867
316.743
314.679
312.673
310.724
308.831
306.991
305.203
303.467
301.78
300.143
298.553
297.011
295.515
294.064
292.658
291.295
289.975
288.698
287.462
286.267
285.112
283.996
282.918
281.879
280.876
279.909
278.979
278.082
277.22
276.391
275.595
274.83
274.097
273.393
272.719
272.074
271.457
270.867
270.303
269.765
269.252
268.763
268.298
267.855
267.435
267.036
266.657
266.299
265.96
265.64
265.339
265.055
264.788
264.537
264.302
264.083
263.879
263.689
263.514
263.351
263.202
263.066
262.943
262.831
262.731
262.643
262.566
262.5
262.445
262.401
262.367
262.343
262.33
262.327
262.334
397.728
393.211
388.73
384.314
379.984
375.756
371.641
367.648
363.779
360.036
356.417
352.919
349.537
346.267
343.104
340.043
337.078
334.205
331.419
328.716
326.093
323.546
321.071
318.667
316.33
314.058
311.85
309.702
307.615
305.585
303.612
301.695
299.832
298.022
296.264
294.557
292.9
291.293
289.734
288.222
286.758
285.339
283.966
282.637
281.352
280.11
278.909
277.75
276.632
275.553
274.514
273.512
272.548
271.62
270.729
269.872
269.049
268.259
267.502
266.777
266.083
265.418
264.783
264.176
263.597
263.045
262.518
262.018
261.541
261.089
260.659
260.252
259.866
259.501
259.157
258.832
258.526
258.239
257.969
257.716
257.48
257.26
257.056
256.867
256.692
256.532
256.385
256.252
256.132
256.024
255.929
255.846
255.775
255.716
255.668
255.632
255.606
255.592
255.588
255.596
397.732
393.222
388.741
384.313
379.957
375.688
371.516
367.449
363.491
359.646
355.913
352.29
348.777
345.369
342.062
338.853
335.738
332.714
329.776
326.921
324.146
321.448
318.825
316.273
313.79
311.375
309.026
306.74
304.516
302.354
300.251
298.206
296.219
294.287
292.411
290.588
288.819
287.102
285.437
283.822
282.257
280.741
279.273
277.853
276.479
275.15
273.867
272.627
271.431
270.278
269.166
268.094
267.063
266.071
265.117
264.2
263.319
262.475
261.665
260.888
260.145
259.434
258.755
258.105
257.485
256.894
256.331
255.795
255.285
254.801
254.341
253.905
253.492
253.102
252.733
252.385
252.058
251.75
251.461
251.191
250.938
250.703
250.484
250.281
250.094
249.922
249.765
249.623
249.494
249.379
249.277
249.188
249.112
249.048
248.997
248.958
248.931
248.915
248.911
248.919
397.727
393.205
388.706
384.252
379.859
375.54
371.305
367.163
363.117
359.172
355.329
351.589
347.949
344.409
340.965
337.616
334.357
331.188
328.104
325.102
322.181
319.337
316.569
313.874
311.25
308.695
306.208
303.787
301.431
299.139
296.908
294.739
292.629
290.579
288.586
286.65
284.77
282.946
281.176
279.459
277.795
276.183
274.622
273.111
271.65
270.237
268.871
267.552
266.28
265.052
263.868
262.728
261.631
260.574
259.559
258.583
257.645
256.746
255.884
255.057
254.266
253.509
252.785
252.094
251.434
250.804
250.204
249.634
249.09
248.575
248.085
247.621
247.181
246.765
246.372
246.002
245.653
245.325
245.018
244.729
244.46
244.209
243.976
243.76
243.561
243.378
243.211
243.059
242.921
242.799
242.69
242.596
242.514
242.447
242.392
242.35
242.321
242.304
242.3
242.308
397.714
393.164
388.634
384.141
379.702
375.326
371.025
366.804
362.671
358.628
354.678
350.823
347.062
343.395
339.82
336.335
332.939
329.63
326.405
323.262
320.2
317.215
314.306
311.472
308.711
306.02
303.4
300.847
298.362
295.942
293.587
291.295
289.066
286.899
284.792
282.745
280.756
278.826
276.953
275.137
273.375
271.669
270.016
268.416
266.868
265.371
263.925
262.528
261.18
259.879
258.625
257.417
256.254
255.134
254.058
253.024
252.03
251.077
250.163
249.287
248.448
247.646
246.878
246.145
245.445
244.778
244.142
243.537
242.961
242.414
241.895
241.402
240.936
240.495
240.079
239.686
239.316
238.968
238.642
238.336
238.051
237.785
237.537
237.308
237.097
236.903
236.725
236.564
236.418
236.288
236.173
236.072
235.986
235.914
235.856
235.811
235.78
235.763
235.758
235.767
397.695
393.105
388.531
383.991
379.496
375.058
370.685
366.385
362.162
358.023
353.969
350.002
346.124
342.334
338.633
335.018
331.49
328.046
324.685
321.405
318.206
315.084
312.04
309.071
306.176
303.353
300.602
297.921
295.309
292.765
290.288
287.877
285.531
283.249
281.03
278.874
276.779
274.745
272.771
270.856
268.999
267.199
265.456
263.769
262.136
260.557
259.031
257.557
256.134
254.762
253.438
252.163
250.935
249.754
248.618
247.526
246.477
245.471
244.505
243.581
242.695
241.847
241.037
240.263
239.524
238.819
238.148
237.508
236.9
236.322
235.774
235.254
234.761
234.296
233.856
233.441
233.05
232.683
232.338
232.015
231.713
231.432
231.171
230.929
230.705
230.5
230.313
230.142
229.988
229.85
229.729
229.622
229.531
229.455
229.393
229.346
229.313
229.294
229.29
229.298
397.67
393.031
388.405
383.808
379.251
374.745
370.297
365.914
361.603
357.367
353.21
349.135
345.142
341.234
337.41
333.669
330.012
326.438
322.946
319.534
316.202
312.949
309.772
306.672
303.647
300.696
297.818
295.011
292.276
289.611
287.015
284.487
282.026
279.632
277.304
275.041
272.841
270.705
268.632
266.62
264.669
262.778
260.947
259.173
257.457
255.797
254.192
252.643
251.147
249.703
248.311
246.97
245.679
244.436
243.241
242.092
240.989
239.93
238.914
237.941
237.009
236.118
235.265
234.45
233.673
232.931
232.224
231.551
230.911
230.303
229.726
229.179
228.66
228.17
227.707
227.27
226.858
226.472
226.109
225.769
225.451
225.155
224.88
224.625
224.39
224.174
223.976
223.796
223.634
223.489
223.361
223.249
223.153
223.072
223.007
222.958
222.923
222.903
222.898
222.907
397.642
392.944
388.258
383.598
378.974
374.395
369.869
365.402
361
356.668
352.409
348.227
344.123
340.099
336.156
332.294
328.513
324.813
321.193
317.653
314.193
310.811
307.506
304.279
301.127
298.051
295.049
292.12
289.265
286.481
283.768
281.126
278.554
276.05
273.615
271.246
268.945
266.709
264.538
262.432
260.388
258.408
256.489
254.63
252.832
251.093
249.411
247.787
246.219
244.706
243.247
241.84
240.486
239.183
237.93
236.725
235.568
234.458
233.393
232.372
231.395
230.459
229.565
228.71
227.894
227.116
226.375
225.669
224.997
224.359
223.754
223.179
222.635
222.121
221.635
221.177
220.745
220.339
219.958
219.601
219.268
218.957
218.668
218.401
218.154
217.927
217.719
217.531
217.36
217.208
217.073
216.955
216.854
216.77
216.702
216.649
216.612
216.591
216.586
216.595
397.61
392.848
388.095
383.366
378.67
374.014
369.407
364.854
360.361
355.933
351.574
347.287
343.074
338.937
334.878
330.897
326.995
323.173
319.429
315.765
312.18
308.673
305.244
301.893
298.619
295.42
292.298
289.25
286.277
283.378
280.552
277.798
275.116
272.505
269.964
267.494
265.092
262.758
260.492
258.292
256.159
254.09
252.085
250.144
248.265
246.447
244.69
242.993
241.354
239.772
238.247
236.777
235.361
233.998
232.688
231.428
230.218
229.057
227.943
226.876
225.854
224.875
223.94
223.046
222.192
221.379
220.603
219.864
219.162
218.494
217.86
217.26
216.69
216.152
215.644
215.164
214.712
214.287
213.889
213.515
213.166
212.841
212.539
212.259
212
211.762
211.545
211.348
211.169
211.01
210.869
210.745
210.639
210.551
210.479
210.424
210.386
210.363
210.357
210.367
397.575
392.743
387.919
383.117
378.344
373.609
368.918
364.278
359.693
355.169
350.71
346.319
341.999
337.751
333.579
329.483
325.464
321.522
317.659
313.874
310.168
306.54
302.99
299.518
296.124
292.807
289.567
286.403
283.316
280.304
277.367
274.504
271.715
268.999
266.356
263.784
261.284
258.855
256.495
254.204
251.982
249.827
247.738
245.716
243.758
241.863
240.032
238.262
236.554
234.905
233.314
231.782
230.305
228.884
227.518
226.204
224.942
223.731
222.569
221.455
220.389
219.368
218.392
217.46
216.569
215.72
214.911
214.14
213.407
212.71
212.049
211.422
210.828
210.266
209.736
209.235
208.763
208.32
207.904
207.514
207.15
206.81
206.495
206.202
205.932
205.684
205.457
205.251
205.065
204.898
204.75
204.621
204.511
204.418
204.343
204.286
204.245
204.222
204.215
204.225
397.538
392.632
387.732
382.853
378.001
373.184
368.407
363.678
359.001
354.382
349.823
345.33
340.904
336.548
332.265
328.056
323.922
319.865
315.885
311.983
308.158
304.412
300.745
297.156
293.645
290.213
286.859
283.582
280.383
277.261
274.215
271.246
268.352
265.534
262.79
260.121
257.525
255.001
252.55
250.17
247.861
245.621
243.45
241.348
239.312
237.343
235.438
233.598
231.821
230.106
228.452
226.857
225.322
223.843
222.421
221.055
219.741
218.481
217.272
216.113
215.003
213.941
212.925
211.955
211.028
210.144
209.302
208.499
207.736
207.011
206.323
205.67
205.051
204.466
203.914
203.392
202.901
202.44
202.006
201.6
201.221
200.867
200.539
200.234
199.953
199.694
199.458
199.243
199.049
198.875
198.721
198.587
198.472
198.375
198.297
198.236
198.194
198.169
198.162
198.172
397.499
392.515
387.537
382.577
377.643
372.742
367.879
363.06
358.29
353.575
348.918
344.323
339.794
335.332
330.94
326.621
322.376
318.205
314.111
310.095
306.156
302.295
298.513
294.81
291.186
287.641
284.175
280.788
277.48
274.251
271.099
268.026
265.031
262.112
259.27
256.505
253.815
251.2
248.659
246.192
243.797
241.475
239.223
237.042
234.931
232.887
230.912
229.002
227.158
225.378
223.661
222.006
220.412
218.878
217.402
215.983
214.619
213.311
212.055
210.852
209.7
208.596
207.542
206.533
205.571
204.653
203.778
202.945
202.152
201.399
200.683
200.005
199.363
198.755
198.181
197.639
197.129
196.649
196.199
195.777
195.383
195.015
194.674
194.357
194.065
193.796
193.55
193.327
193.125
192.944
192.784
192.644
192.524
192.424
192.342
192.279
192.235
192.209
192.202
192.212
397.459
392.394
387.335
382.293
377.275
372.288
367.337
362.427
357.565
352.754
348
343.304
338.672
334.106
329.608
325.181
320.827
316.546
312.341
308.213
304.162
300.19
296.296
292.482
288.747
285.093
281.518
278.024
274.61
271.276
268.022
264.847
261.752
258.736
255.798
252.939
250.157
247.452
244.823
242.271
239.793
237.389
235.059
232.802
230.615
228.5
226.454
224.477
222.567
220.723
218.945
217.231
215.58
213.99
212.46
210.99
209.578
208.222
206.921
205.674
204.479
203.336
202.243
201.198
200.201
199.249
198.342
197.478
196.656
195.875
195.134
194.431
193.765
193.135
192.539
191.978
191.449
190.951
190.484
190.047
189.638
189.257
188.902
188.574
188.271
187.992
187.737
187.505
187.295
187.108
186.942
186.797
186.672
186.567
186.482
186.417
186.371
186.344
186.336
186.346
397.418
392.27
387.128
382.002
376.898
371.824
366.784
361.784
356.829
351.923
347.071
342.277
337.544
332.875
328.273
323.74
319.279
314.891
310.577
306.34
302.181
298.099
294.097
290.174
286.332
282.571
278.891
275.292
271.774
268.338
264.983
261.71
258.517
255.406
252.375
249.424
246.552
243.76
241.045
238.409
235.85
233.367
230.96
228.627
226.368
224.182
222.067
220.024
218.049
216.144
214.305
212.533
210.825
209.182
207.6
206.08
204.619
203.216
201.871
200.581
199.346
198.163
197.032
195.951
194.919
193.934
192.996
192.102
191.252
190.444
189.677
188.949
188.26
187.608
186.992
186.41
185.863
185.348
184.864
184.412
183.988
183.594
183.227
182.887
182.573
182.284
182.02
181.78
181.563
181.368
181.196
181.046
180.917
180.808
180.72
180.652
180.604
180.576
180.567
180.577
397.376
392.144
386.917
381.705
376.515
371.353
366.223
361.132
356.084
351.084
346.136
341.244
336.412
331.642
326.937
322.301
317.735
313.242
308.823
304.48
300.214
296.026
291.918
287.89
283.943
280.078
276.295
272.594
268.975
265.44
261.987
258.617
255.33
252.125
249.002
245.962
243.003
240.125
237.327
234.609
231.97
229.41
226.927
224.521
222.191
219.935
217.754
215.645
213.608
211.641
209.744
207.914
206.152
204.455
202.822
201.253
199.744
198.296
196.907
195.575
194.3
193.079
191.911
190.794
189.728
188.712
187.742
186.819
185.941
185.106
184.314
183.562
182.85
182.176
181.54
180.939
180.373
179.841
179.342
178.874
178.436
178.029
177.649
177.298
176.973
176.675
176.402
176.153
175.929
175.728
175.55
175.394
175.26
175.148
175.057
174.987
174.937
174.907
174.898
174.908
397.333
392.016
386.703
381.405
376.128
370.877
365.658
360.476
355.336
350.242
345.198
340.21
335.279
330.41
325.605
320.867
316.199
311.603
307.081
302.634
298.264
293.973
289.762
285.631
281.582
277.615
273.732
269.931
266.215
262.582
259.034
255.57
252.19
248.895
245.683
242.555
239.51
236.549
233.669
230.872
228.155
225.519
222.963
220.485
218.085
215.762
213.515
211.342
209.243
207.217
205.262
203.377
201.561
199.812
198.129
196.511
194.957
193.464
192.032
190.659
189.344
188.085
186.881
185.73
184.631
183.582
182.583
181.631
180.725
179.864
179.047
178.272
177.537
176.842
176.186
175.566
174.983
174.434
173.919
173.436
172.984
172.564
172.172
171.81
171.475
171.167
170.885
170.628
170.397
170.189
170.005
169.844
169.706
169.59
169.495
169.422
169.371
169.34
169.33
169.341
397.29
391.887
386.488
381.103
375.738
370.398
365.09
359.817
354.585
349.398
344.26
339.176
334.148
329.181
324.278
319.441
314.673
309.976
305.353
300.805
296.334
291.942
287.63
283.4
279.251
275.185
271.204
267.307
263.494
259.767
256.126
252.57
249.1
245.716
242.418
239.205
236.077
233.034
230.074
227.199
224.407
221.697
219.068
216.52
214.052
211.663
209.352
207.117
204.958
202.873
200.862
198.922
197.053
195.254
193.522
191.857
190.257
188.721
187.247
185.834
184.48
183.184
181.944
180.759
179.628
178.548
177.519
176.539
175.606
174.72
173.878
173.08
172.324
171.608
170.932
170.294
169.693
169.127
168.596
168.099
167.634
167.2
166.797
166.423
166.078
165.761
165.47
165.206
164.967
164.753
164.563
164.397
164.255
164.135
164.037
163.962
163.908
163.876
163.866
163.876
397.247
391.757
386.271
380.799
375.346
369.919
364.521
359.158
353.834
348.555
343.324
338.145
333.023
327.96
322.96
318.025
313.159
308.364
303.642
298.996
294.426
289.936
285.526
281.197
276.952
272.79
268.713
264.721
260.816
256.997
253.265
249.62
246.062
242.592
239.209
235.912
232.703
229.58
226.544
223.592
220.726
217.944
215.245
212.629
210.094
207.64
205.266
202.971
200.753
198.611
196.545
194.552
192.632
190.782
189.003
187.292
185.647
184.068
182.553
181.101
179.709
178.377
177.102
175.884
174.721
173.611
172.553
171.545
170.586
169.675
168.809
167.988
167.211
166.475
165.779
165.123
164.505
163.923
163.377
162.865
162.387
161.941
161.526
161.141
160.786
160.459
160.16
159.888
159.642
159.422
159.227
159.056
158.909
158.785
158.684
158.606
158.551
158.518
158.507
158.517
397.204
391.628
386.055
380.495
374.955
369.439
363.953
358.5
353.086
347.716
342.392
337.121
331.905
326.747
321.652
316.622
311.66
306.769
301.951
297.208
292.542
287.956
283.45
279.026
274.686
270.431
266.261
262.177
258.181
254.272
250.452
246.72
243.077
239.522
236.057
232.68
229.391
226.191
223.078
220.053
217.114
214.262
211.494
208.811
206.212
203.695
201.26
198.905
196.63
194.432
192.312
190.267
188.297
186.399
184.573
182.816
181.129
179.508
177.953
176.462
175.033
173.665
172.357
171.106
169.912
168.773
167.686
166.651
165.667
164.73
163.842
162.998
162.2
161.444
160.729
160.055
159.42
158.823
158.262
157.736
157.245
156.786
156.36
155.965
155.6
155.264
154.957
154.677
154.424
154.197
153.996
153.821
153.669
153.542
153.438
153.358
153.301
153.266
153.254
153.264
397.161
391.498
385.839
380.193
374.566
368.962
363.387
357.845
352.342
346.881
341.467
336.104
330.796
325.546
320.357
315.234
310.178
305.192
300.28
295.443
290.684
286.004
281.405
276.888
272.456
268.109
263.849
259.676
255.591
251.595
247.689
243.872
240.146
236.509
232.963
229.507
226.142
222.866
219.679
216.582
213.573
210.652
207.817
205.069
202.407
199.829
197.334
194.921
192.59
190.338
188.165
186.069
184.05
182.105
180.233
178.433
176.703
175.041
173.447
171.918
170.453
169.051
167.709
166.427
165.202
164.034
162.919
161.858
160.848
159.888
158.976
158.112
157.292
156.517
155.784
155.093
154.441
153.828
153.252
152.713
152.209
151.738
151.301
150.895
150.52
150.176
149.86
149.573
149.313
149.081
148.874
148.693
148.538
148.407
148.3
148.217
148.158
148.123
148.11
148.12
397.118
391.369
385.624
379.892
374.178
368.487
362.825
357.195
351.604
346.054
340.55
335.097
329.698
324.357
319.077
313.862
308.714
303.637
298.633
293.704
288.853
284.081
279.391
274.785
270.263
265.827
261.479
257.219
253.048
248.967
244.977
241.078
237.27
233.554
229.93
226.397
222.956
219.607
216.348
213.181
210.103
207.115
204.216
201.404
198.68
196.042
193.489
191.02
188.634
186.329
184.105
181.96
179.892
177.901
175.985
174.141
172.37
170.669
169.036
167.471
165.971
164.534
163.16
161.847
160.593
159.395
158.254
157.167
156.133
155.149
154.215
153.329
152.49
151.695
150.944
150.236
149.568
148.94
148.35
147.797
147.28
146.798
146.35
145.934
145.55
145.196
144.872
144.578
144.312
144.073
143.861
143.675
143.516
143.381
143.271
143.186
143.125
143.088
143.075
143.085
397.075
391.242
385.411
379.593
373.793
368.017
362.268
356.551
350.872
345.235
339.643
334.101
328.613
323.183
317.814
312.509
307.271
302.104
297.01
291.991
287.051
282.191
277.412
272.718
268.108
263.586
259.152
254.807
250.552
246.389
242.317
238.338
234.451
230.657
226.957
223.35
219.836
216.415
213.086
209.85
206.706
203.653
200.69
197.817
195.032
192.336
189.726
187.202
184.763
182.406
180.132
177.939
175.825
173.788
171.829
169.943
168.132
166.392
164.722
163.12
161.586
160.117
158.711
157.367
156.084
154.859
153.691
152.579
151.521
150.514
149.558
148.652
147.792
146.979
146.211
145.486
144.802
144.159
143.555
142.989
142.46
141.966
141.507
141.081
140.688
140.326
139.994
139.693
139.42
139.175
138.958
138.768
138.604
138.466
138.353
138.266
138.203
138.165
138.151
138.16
397.033
391.115
385.2
379.297
373.413
367.551
361.717
355.915
350.149
344.425
338.747
333.118
327.543
322.025
316.568
311.175
305.85
300.595
295.413
290.307
285.28
280.333
275.468
270.688
265.993
261.387
256.869
252.442
248.106
243.862
239.711
235.653
231.69
227.821
224.046
220.366
216.781
213.291
209.894
206.591
203.382
200.265
197.241
194.307
191.465
188.711
186.046
183.469
180.978
178.571
176.248
174.008
171.848
169.768
167.766
165.84
163.989
162.211
160.505
158.868
157.3
155.799
154.362
152.989
151.677
150.426
149.232
148.095
147.013
145.984
145.007
144.08
143.202
142.37
141.585
140.843
140.144
139.487
138.869
138.29
137.749
137.244
136.775
136.339
135.937
135.566
135.227
134.918
134.639
134.388
134.166
133.971
133.803
133.661
133.546
133.456
133.391
133.352
133.337
133.347
396.991
390.99
384.991
379.005
373.037
367.091
361.173
355.286
349.436
343.627
337.864
332.149
326.489
320.885
315.342
309.863
304.452
299.112
293.844
288.653
283.541
278.509
273.56
268.696
263.919
259.231
254.632
250.124
245.709
241.387
237.159
233.025
228.987
225.045
221.198
217.448
213.793
210.235
206.772
203.405
200.132
196.954
193.869
190.878
187.978
185.169
182.451
179.821
177.279
174.824
172.454
170.167
167.963
165.84
163.797
161.831
159.942
158.127
156.385
154.715
153.114
151.581
150.115
148.713
147.373
146.095
144.877
143.716
142.611
141.56
140.562
139.615
138.718
137.869
137.067
136.309
135.595
134.924
134.293
133.701
133.148
132.633
132.153
131.707
131.296
130.917
130.571
130.255
129.969
129.713
129.486
129.286
129.114
128.969
128.851
128.759
128.692
128.651
128.636
128.645
396.95
390.867
384.785
378.717
372.666
366.638
360.636
354.667
348.733
342.841
336.994
331.196
325.451
319.764
314.137
308.574
303.079
297.655
292.304
287.03
281.834
276.72
271.69
266.745
261.887
257.119
252.441
247.856
243.363
238.965
234.662
230.455
226.344
222.33
218.414
214.595
210.873
207.249
203.722
200.291
196.957
193.719
190.576
187.527
184.572
181.71
178.939
176.259
173.668
171.165
168.749
166.418
164.171
162.006
159.922
157.918
155.991
154.141
152.364
150.661
149.028
147.465
145.969
144.539
143.173
141.869
140.626
139.441
138.314
137.242
136.224
135.258
134.343
133.476
132.657
131.884
131.156
130.47
129.826
129.223
128.658
128.132
127.641
127.187
126.767
126.38
126.026
125.704
125.412
125.15
124.917
124.714
124.538
124.389
124.268
124.174
124.105
124.063
124.047
124.056
396.909
390.745
384.583
378.433
372.301
366.191
360.108
354.057
348.042
342.068
336.139
330.259
324.432
318.662
312.953
307.309
301.732
296.226
290.794
285.439