/*--------------------------------*- C++ -*----------------------------------*\
| =========                 |                                                 |
| \\      /  F ield         | OpenFOAM: The Open Source CFD Toolbox           |
|  \\    /   O peration     | Version:  2406                                  |
|   \\  /    A nd           | Website:  www.openfoam.com                      |
|    \\/     M anipulation  |                                                 |
\*---------------------------------------------------------------------------*/
FoamFile
{
    version     2.0;
    format      ascii;
    arch        "LSB;label=32;scalar=64";
    class       volScalarField;
    location    "20";
    object      p;
}
// * * * * * * * * * * * * * * * * * * * * * * * * * * * * * * * * * * * * * //

dimensions      [0 2 -2 0 0 0 0];

internalField   nonuniform List<scalar> 
34560
(
30.63696
30.634034
30.629982
30.624755
30.618826
30.615821
30.620133
30.634315
30.654412
30.666202
30.662574
30.656923
30.649346
30.64128
30.637594
30.642776
30.658247
30.678833
30.708609
30.70431
30.697052
30.686338
30.673896
30.666266
30.669067
30.682863
30.701421
30.752352
30.747248
30.738329
30.724796
30.708514
30.696484
30.695125
30.704581
30.719579
30.798628
30.792819
30.782065
30.764864
30.743605
30.726269
30.719772
30.724366
30.735504
30.849672
30.842974
30.830135
30.808761
30.781109
30.756692
30.74379
30.743214
30.750031
30.904827
30.896921
30.881572
30.855531
30.82076
30.788058
30.767506
30.760681
30.762994
30.965275
30.955534
30.936875
30.905142
30.861886
30.819466
30.790251
30.776944
30.775238
31.031277
31.018782
30.99579
30.957247
30.904158
30.850785
30.812377
30.793002
30.787852
31.099102
31.082966
31.054864
31.009315
30.945889
30.881307
30.833908
30.809281
30.801404
31.160293
31.140522
31.107301
31.05481
30.982015
30.907682
30.852577
30.823814
30.814544
31.19806
31.176453
31.140032
31.082633
31.004091
30.924032
30.864361
30.832566
30.823544
31.19806
31.176454
31.140032
31.082633
31.004091
30.924032
30.864361
30.832566
30.823544
31.160294
31.140523
31.107302
31.054811
30.982015
30.907683
30.852578
30.823814
30.814544
31.099103
31.082968
31.054866
31.009317
30.945891
30.881308
30.833909
30.809282
30.801404
31.031281
31.018786
30.995793
30.957251
30.904161
30.850788
30.812379
30.793004
30.787853
30.965281
30.955539
30.93688
30.905147
30.86189
30.81947
30.790254
30.776946
30.77524
30.904834
30.896927
30.881578
30.855536
30.820765
30.788063
30.767509
30.760684
30.762996
30.849678
30.84298
30.83014
30.808766
30.781114
30.756697
30.743795
30.743218
30.750034
30.798636
30.792827
30.782072
30.76487
30.743611
30.726275
30.719778
30.724371
30.735509
30.752359
30.747256
30.738336
30.724803
30.708522
30.696492
30.695132
30.704588
30.719586
30.708619
30.70432
30.697062
30.686347
30.673905
30.666275
30.669076
30.682873
30.701431
30.666214
30.662587
30.656934
30.649357
30.641291
30.637605
30.642788
30.658258
30.678847
30.636973
30.634046
30.629994
30.624767
30.618838
30.615834
30.620147
30.634332
30.654431
28.27744
28.27819
28.278698
28.278779
28.278564
28.278736
28.27988
28.281776
28.284414
28.266811
28.267901
28.268749
28.269153
28.269394
28.270459
28.273041
28.276614
28.280278
28.257923
28.259366
28.260412
28.260768
28.260955
28.262376
28.265774
28.270124
28.273818
28.252304
28.254161
28.255384
28.255479
28.255201
28.256418
28.259986
28.26446
28.267918
28.250546
28.252838
28.254197
28.253836
28.25274
28.253293
28.256504
28.260688
28.263805
28.252725
28.255541
28.257098
28.256163
28.253915
28.253395
28.25591
28.25958
28.262292
28.259895
28.263212
28.264966
28.263332
28.259634
28.257691
28.259225
28.262208
28.264529
28.272474
28.276279
28.27813
28.275826
28.270596
28.267088
28.267565
28.26984
28.271703
28.289683
28.293916
28.295823
28.293117
28.286643
28.281844
28.281516
28.283242
28.284569
28.310012
28.314588
28.316557
28.313233
28.305989
28.300573
28.300043
28.301621
28.302534
28.328676
28.333523
28.335542
28.331887
28.324696
28.319442
28.319322
28.321148
28.321864
28.340573
28.345468
28.347417
28.343596
28.336694
28.331833
28.332214
28.334251
28.334951
28.340573
28.345469
28.347418
28.343596
28.336694
28.331833
28.332214
28.334251
28.334951
28.328677
28.333524
28.335543
28.331888
28.324696
28.319442
28.319322
28.321148
28.321864
28.310013
28.31459
28.316559
28.313235
28.30599
28.300574
28.300044
28.301622
28.302534
28.289686
28.293919
28.295826
28.29312
28.286646
28.281846
28.281518
28.283243
28.28457
28.272478
28.276283
28.278134
28.27583
28.2706
28.267092
28.267568
28.269842
28.271705
28.2599
28.263217
28.264971
28.263337
28.259639
28.257696
28.259229
28.262211
28.264532
28.25273
28.255546
28.257103
28.256168
28.253921
28.2534
28.255915
28.259584
28.262295
28.250552
28.252844
28.254204
28.253843
28.252748
28.253301
28.25651
28.260693
28.263809
28.252312
28.254169
28.255392
28.255488
28.25521
28.256427
28.259994
28.264466
28.267923
28.257933
28.259376
28.260423
28.260778
28.260966
28.262387
28.265784
28.270132
28.273824
28.266824
28.267914
28.268761
28.269165
28.269406
28.270471
28.273052
28.276623
28.280284
28.277454
28.278204
28.278711
28.278792
28.278577
28.278749
28.279892
28.281787
28.284423
27.486982
27.487011
27.487001
27.486851
27.486594
27.4864
27.486483
27.487041
27.487892
27.490204
27.490218
27.490161
27.489906
27.489486
27.48909
27.488969
27.489355
27.490138
27.493421
27.493454
27.493394
27.493073
27.492503
27.491871
27.491469
27.4916
27.492275
27.496683
27.496742
27.496693
27.496326
27.495623
27.494747
27.494023
27.493842
27.494337
27.500073
27.500163
27.50013
27.499718
27.498871
27.497723
27.49663
27.496086
27.496336
27.50357
27.503702
27.503699
27.503258
27.502259
27.500812
27.499304
27.498354
27.498317
27.50717
27.50735
27.507381
27.50691
27.505766
27.503992
27.502049
27.500677
27.500326
27.510803
27.511037
27.511108
27.510611
27.509313
27.507217
27.50485
27.503063
27.502402
27.514332
27.514625
27.514743
27.514224
27.512776
27.5104
27.507633
27.505467
27.504513
27.517545
27.517907
27.518079
27.517529
27.515946
27.513312
27.510208
27.507734
27.506534
27.520095
27.520523
27.520747
27.52015
27.518442
27.515606
27.512272
27.509581
27.508208
27.521566
27.522025
27.522272
27.521629
27.51984
27.516881
27.513424
27.510623
27.509167
27.521567
27.522026
27.522272
27.52163
27.51984
27.516881
27.513424
27.510624
27.509167
27.520096
27.520524
27.520748
27.520151
27.518443
27.515607
27.512273
27.509581
27.508208
27.517547
27.517909
27.518081
27.51753
27.515948
27.513314
27.51021
27.507735
27.506534
27.514335
27.514628
27.514745
27.514227
27.512778
27.510403
27.507635
27.505468
27.504514
27.510807
27.51104
27.511112
27.510615
27.509317
27.507221
27.504853
27.503065
27.502403
27.507175
27.507354
27.507385
27.506915
27.505771
27.503996
27.502053
27.50068
27.500328
27.503575
27.503708
27.503705
27.503264
27.502265
27.500818
27.499309
27.498359
27.49832
27.50008
27.50017
27.500137
27.499725
27.498878
27.497731
27.496637
27.496092
27.496339
27.496692
27.49675
27.496702
27.496335
27.495632
27.494756
27.494031
27.493849
27.494342
27.493431
27.493465
27.493405
27.493083
27.492513
27.491882
27.491479
27.491608
27.492281
27.490216
27.490231
27.490173
27.489918
27.489498
27.489102
27.488981
27.489364
27.490144
27.486995
27.487024
27.487014
27.486864
27.486607
27.486413
27.486496
27.487052
27.487899
26.030856
26.030742
26.030627
26.030561
26.030532
26.030494
26.030393
26.030192
26.030041
26.03113
26.031002
26.03088
26.030824
26.030817
26.030804
26.030727
26.030566
26.030419
26.031507
26.031369
26.031244
26.0312
26.031216
26.03122
26.031137
26.030936
26.030676
26.032076
26.031935
26.031811
26.031778
26.031805
26.031809
26.031693
26.031414
26.031016
26.03281
26.032671
26.032553
26.032533
26.032572
26.032566
26.032399
26.032017
26.031476
26.033636
26.033513
26.033415
26.033415
26.033466
26.033446
26.033219
26.032748
26.03211
26.034583
26.034478
26.034401
26.034419
26.034474
26.034441
26.034183
26.033663
26.032968
26.035619
26.035536
26.035487
26.035536
26.035618
26.035583
26.035302
26.034729
26.033934
26.036642
26.036582
26.036563
26.036651
26.036772
26.036747
26.036433
26.035777
26.034859
26.037521
26.037482
26.03749
26.037608
26.037749
26.037739
26.037403
26.036674
26.035656
26.038174
26.038154
26.038184
26.038322
26.03848
26.038477
26.03812
26.037342
26.036249
26.03854
26.038528
26.038567
26.038713
26.038878
26.038875
26.038508
26.037702
26.03657
26.03854
26.038528
26.038568
26.038713
26.038878
26.038876
26.038508
26.037702
26.03657
26.038174
26.038154
26.038185
26.038322
26.038481
26.038478
26.038121
26.037343
26.03625
26.037522
26.037483
26.037491
26.037609
26.037751
26.037741
26.037404
26.036675
26.035656
26.036644
26.036583
26.036565
26.036654
26.036774
26.036749
26.036435
26.035778
26.034859
26.035621
26.035538
26.03549
26.03554
26.035622
26.035586
26.035305
26.034731
26.033934
26.034586
26.034482
26.034405
26.034423
26.034478
26.034446
26.034187
26.033666
26.032969
26.033641
26.033518
26.033419
26.033421
26.033472
26.033452
26.033224
26.032751
26.032112
26.032816
26.032677
26.032559
26.032539
26.032578
26.032572
26.032405
26.032022
26.031479
26.032083
26.031943
26.031819
26.031786
26.031814
26.031817
26.0317
26.03142
26.03102
26.031516
26.031378
26.031253
26.03121
26.031226
26.03123
26.031146
26.030943
26.030681
26.031141
26.031013
26.030891
26.030835
26.030828
26.030815
26.030737
26.030575
26.030427
26.030868
26.030754
26.030639
26.030573
26.030544
26.030506
26.030405
26.030203
26.03005
24.814586
24.814594
24.814588
24.814546
24.814471
24.814393
24.814362
24.814414
24.814563
24.814888
24.814895
24.814882
24.814827
24.814741
24.814662
24.814648
24.81473
24.81489
24.815053
24.815063
24.81505
24.81499
24.814894
24.814809
24.814796
24.814886
24.815049
24.815146
24.815159
24.815148
24.815086
24.814985
24.814896
24.814884
24.814986
24.815175
24.815182
24.8152
24.815192
24.815131
24.81503
24.814943
24.814941
24.815061
24.815273
24.815167
24.815191
24.81519
24.815134
24.815038
24.814958
24.814965
24.815075
24.815248
24.815105
24.815135
24.815142
24.815095
24.81501
24.814928
24.814898
24.814939
24.815031
24.814975
24.815011
24.815022
24.814977
24.814884
24.814777
24.814688
24.814665
24.814723
24.814817
24.814859
24.814873
24.81482
24.814706
24.81456
24.814435
24.814389
24.814444
24.814684
24.814732
24.81475
24.814694
24.814565
24.814394
24.814242
24.814179
24.814228
24.81459
24.814642
24.814664
24.814607
24.81447
24.814284
24.814114
24.814036
24.814082
24.814544
24.814598
24.814621
24.814564
24.814424
24.814229
24.81405
24.813965
24.814007
24.814544
24.814598
24.814621
24.814564
24.814424
24.81423
24.81405
24.813965
24.814007
24.814591
24.814643
24.814664
24.814608
24.814471
24.814284
24.814115
24.814036
24.814082
24.814685
24.814732
24.814751
24.814695
24.814566
24.814395
24.814243
24.814179
24.814228
24.814818
24.81486
24.814874
24.814822
24.814708
24.814562
24.814437
24.81439
24.814444
24.814977
24.815013
24.815025
24.81498
24.814887
24.81478
24.814691
24.814667
24.814723
24.815108
24.815138
24.815145
24.815099
24.815014
24.814932
24.814901
24.814942
24.815032
24.815171
24.815195
24.815195
24.815139
24.815043
24.814963
24.814969
24.815079
24.81525
24.815187
24.815205
24.815198
24.815137
24.815037
24.81495
24.814947
24.815066
24.815276
24.815153
24.815166
24.815156
24.815093
24.814993
24.814904
24.814892
24.814993
24.815179
24.815062
24.815072
24.815059
24.814999
24.814904
24.814818
24.814804
24.814893
24.815055
24.814899
24.814905
24.814893
24.814838
24.814752
24.814673
24.814657
24.814739
24.814899
24.814597
24.814605
24.814599
24.814557
24.814482
24.814404
24.814373
24.814425
24.814574
23.533144
23.53313
23.533116
23.533105
23.533094
23.533077
23.533048
23.532999
23.532944
23.533295
23.53328
23.533266
23.533255
23.533243
23.533225
23.533194
23.53315
23.533102
23.533449
23.533434
23.53342
23.533411
23.533402
23.533385
23.533354
23.533307
23.533252
23.533623
23.533609
23.533597
23.53359
23.533582
23.533566
23.533532
23.533481
23.533422
23.533804
23.533791
23.533782
23.533778
23.533774
23.53376
23.533725
23.533671
23.533606
23.53398
23.533969
23.533964
23.533965
23.533966
23.533957
23.533925
23.533868
23.533795
23.534152
23.534144
23.534142
23.534148
23.534156
23.534152
23.534124
23.534065
23.533982
23.534312
23.534307
23.534309
23.53432
23.534334
23.534338
23.534314
23.534255
23.534183
23.534453
23.534449
23.534454
23.534471
23.534492
23.534502
23.534484
23.53444
23.534383
23.534566
23.534564
23.534573
23.534593
23.534621
23.53464
23.534633
23.534602
23.53454
23.534646
23.534646
23.534656
23.53468
23.534712
23.534739
23.534745
23.534714
23.534648
23.534688
23.534689
23.5347
23.534726
23.53476
23.534791
23.534801
23.534771
23.534702
23.534688
23.534689
23.5347
23.534726
23.53476
23.534791
23.534801
23.534771
23.534702
23.534646
23.534646
23.534656
23.534681
23.534713
23.53474
23.534745
23.534714
23.534647
23.534566
23.534565
23.534573
23.534594
23.534622
23.534641
23.534634
23.534602
23.53454
23.534453
23.53445
23.534456
23.534472
23.534494
23.534504
23.534486
23.53444
23.534382
23.534314
23.534308
23.534311
23.534322
23.534337
23.534341
23.534316
23.534256
23.534182
23.534155
23.534147
23.534145
23.534152
23.53416
23.534156
23.534127
23.534067
23.533981
23.533984
23.533974
23.533968
23.53397
23.533972
23.533962
23.533929
23.533871
23.533795
23.53381
23.533797
23.533788
23.533785
23.533781
23.533767
23.533732
23.533675
23.533608
23.533631
23.533617
23.533605
23.533598
23.533591
23.533574
23.53354
23.533487
23.533425
23.533459
23.533444
23.533431
23.533422
23.533413
23.533396
23.533363
23.533315
23.533257
23.533307
23.533292
23.533278
23.533267
23.533255
23.533237
23.533205
23.53316
23.53311
23.533157
23.533143
23.533129
23.533118
23.533107
23.53309
23.533061
23.533011
23.532955
22.254753
22.254749
22.254743
22.254734
22.254721
22.254704
22.254687
22.254676
22.254688
22.25486
22.254856
22.254848
22.254837
22.254823
22.254808
22.254796
22.254794
22.254809
22.254928
22.254924
22.254917
22.254907
22.254895
22.254883
22.254875
22.254876
22.254889
22.254983
22.25498
22.254974
22.254965
22.254954
22.254945
22.25494
22.254944
22.254957
22.255026
22.255024
22.255019
22.255012
22.255003
22.254997
22.254995
22.255001
22.255015
22.255054
22.255054
22.255051
22.255046
22.255041
22.255038
22.255039
22.255047
22.255063
22.255073
22.255074
22.255073
22.255071
22.255069
22.255069
22.255072
22.255081
22.255097
22.255083
22.255086
22.255087
22.255087
22.255088
22.255089
22.255092
22.255098
22.255089
22.255086
22.25509
22.255093
22.255096
22.255098
22.2551
22.2551
22.255085
22.25505
22.255083
22.255089
22.255094
22.255098
22.255101
22.2551
22.25509
22.255057
22.255016
22.255079
22.255086
22.255092
22.255097
22.255101
22.255096
22.255075
22.255038
22.254994
22.255077
22.255085
22.255091
22.255097
22.2551
22.255094
22.255068
22.255028
22.254983
22.255077
22.255085
22.255091
22.255097
22.2551
22.255094
22.255068
22.255028
22.254982
22.255079
22.255086
22.255092
22.255098
22.255101
22.255097
22.255075
22.255037
22.254993
22.255083
22.25509
22.255095
22.255099
22.255102
22.255101
22.255091
22.255057
22.255015
22.255086
22.255091
22.255094
22.255097
22.2551
22.255101
22.255101
22.255085
22.255048
22.255084
22.255087
22.255089
22.25509
22.255091
22.255092
22.255094
22.255098
22.255088
22.255075
22.255077
22.255076
22.255075
22.255073
22.255073
22.255075
22.255082
22.255096
22.255058
22.255058
22.255056
22.255051
22.255047
22.255043
22.255043
22.255049
22.255062
22.255032
22.25503
22.255026
22.255019
22.255011
22.255004
22.255001
22.255005
22.255015
22.254992
22.254989
22.254984
22.254975
22.254965
22.254954
22.254948
22.254949
22.254958
22.25494
22.254936
22.254929
22.25492
22.254908
22.254895
22.254886
22.254884
22.254893
22.254874
22.25487
22.254863
22.254852
22.254838
22.254823
22.25481
22.254805
22.254816
22.254769
22.254766
22.25476
22.25475
22.254737
22.254721
22.254703
22.25469
22.254699
20.989682
20.989682
20.989681
20.989678
20.989673
20.989667
20.989661
20.989657
20.989655
20.989704
20.989704
20.989703
20.9897
20.989695
20.989688
20.989683
20.989683
20.989688
20.98972
20.98972
20.98972
20.989718
20.989712
20.989705
20.9897
20.989699
20.989703
20.989738
20.989739
20.98974
20.989738
20.989732
20.989725
20.989719
20.989717
20.989721
20.989757
20.989758
20.989759
20.989758
20.989753
20.989747
20.98974
20.989738
20.989742
20.989774
20.989776
20.989778
20.989778
20.989774
20.989768
20.989763
20.98976
20.989764
20.989792
20.989794
20.989797
20.989798
20.989795
20.98979
20.989785
20.989783
20.989787
20.989808
20.989811
20.989815
20.989816
20.989814
20.98981
20.989807
20.989806
20.98981
20.989822
20.989826
20.98983
20.989832
20.989831
20.989829
20.989827
20.989828
20.989834
20.989834
20.989838
20.989842
20.989845
20.989845
20.989844
20.989844
20.989848
20.989858
20.989843
20.989846
20.989851
20.989855
20.989856
20.989856
20.989858
20.989865
20.989878
20.989847
20.989851
20.989856
20.98986
20.989861
20.989862
20.989866
20.989875
20.989888
20.989847
20.989851
20.989856
20.98986
20.989861
20.989862
20.989866
20.989875
20.989888
20.989843
20.989846
20.989851
20.989855
20.989856
20.989856
20.989858
20.989865
20.989877
20.989834
20.989838
20.989843
20.989846
20.989846
20.989845
20.989845
20.989848
20.989856
20.989823
20.989826
20.989831
20.989833
20.989833
20.98983
20.989828
20.989828
20.989832
20.989809
20.989812
20.989816
20.989818
20.989817
20.989813
20.989808
20.989806
20.989808
20.989793
20.989796
20.9898
20.989801
20.989799
20.989793
20.989788
20.989784
20.989785
20.989778
20.98978
20.989783
20.989783
20.98978
20.989774
20.989767
20.989762
20.989763
20.989762
20.989764
20.989766
20.989765
20.989761
20.989754
20.989746
20.989741
20.989742
20.989746
20.989747
20.989748
20.989747
20.989742
20.989734
20.989727
20.989722
20.989722
20.989731
20.989731
20.989732
20.98973
20.989724
20.989717
20.98971
20.989707
20.989707
20.989718
20.989718
20.989717
20.989714
20.989709
20.989702
20.989696
20.989694
20.989695
20.989698
20.989697
20.989697
20.989694
20.989689
20.989682
20.989676
20.989672
20.989667
19.712121
19.71212
19.712117
19.712116
19.712114
19.712112
19.712107
19.712101
19.712101
19.712144
19.712142
19.71214
19.712138
19.712137
19.712136
19.712134
19.712131
19.712132
19.71216
19.712158
19.712155
19.712154
19.712155
19.712155
19.712154
19.712153
19.712152
19.712175
19.712173
19.712171
19.71217
19.712171
19.712173
19.712173
19.712172
19.712171
19.712188
19.712186
19.712185
19.712185
19.712187
19.712189
19.712191
19.71219
19.712187
19.712198
19.712197
19.712196
19.712197
19.712201
19.712204
19.712206
19.712205
19.712202
19.712207
19.712206
19.712206
19.712208
19.712212
19.712217
19.712219
19.712218
19.712213
19.712213
19.712213
19.712214
19.712216
19.712222
19.712227
19.71223
19.712227
19.712221
19.712218
19.712218
19.712219
19.712223
19.712229
19.712235
19.712238
19.712234
19.712225
19.71222
19.712221
19.712223
19.712227
19.712234
19.71224
19.712242
19.712237
19.712222
19.712221
19.712223
19.712225
19.712229
19.712237
19.712243
19.712244
19.712235
19.712216
19.712222
19.712223
19.712226
19.712231
19.712238
19.712245
19.712245
19.712233
19.712213
19.712222
19.712223
19.712225
19.712231
19.712238
19.712245
19.712245
19.712233
19.712213
19.712221
19.712222
19.712224
19.71223
19.712237
19.712244
19.712244
19.712235
19.712215
19.71222
19.712221
19.712223
19.712227
19.712234
19.712241
19.712243
19.712236
19.71222
19.712217
19.712218
19.712219
19.712223
19.71223
19.712236
19.712238
19.712233
19.712223
19.712214
19.712214
19.712215
19.712218
19.712224
19.712229
19.712231
19.712227
19.712219
19.712208
19.712208
19.712208
19.712211
19.712215
19.71222
19.712222
19.712218
19.712211
19.712201
19.7122
19.7122
19.712202
19.712205
19.712209
19.71221
19.712206
19.7122
19.712193
19.712191
19.71219
19.712191
19.712193
19.712196
19.712196
19.712192
19.712187
19.712182
19.71218
19.712179
19.712179
19.71218
19.712181
19.71218
19.712176
19.712172
19.712169
19.712167
19.712165
19.712165
19.712165
19.712165
19.712163
19.712159
19.712156
19.712156
19.712154
19.712152
19.71215
19.712149
19.712148
19.712145
19.71214
19.712138
19.712135
19.712133
19.712131
19.712129
19.712127
19.712125
19.71212
19.712114
19.712111
18.44347
18.443471
18.443471
18.44347
18.443469
18.443467
18.443466
18.443467
18.443468
18.443473
18.443474
18.443474
18.443473
18.443471
18.443469
18.443468
18.443471
18.443474
18.443473
18.443474
18.443475
18.443474
18.443472
18.44347
18.443469
18.443471
18.443475
18.443474
18.443475
18.443476
18.443475
18.443473
18.443471
18.44347
18.443472
18.443477
18.443475
18.443476
18.443477
18.443476
18.443474
18.443472
18.443471
18.443473
18.443478
18.443475
18.443476
18.443477
18.443477
18.443475
18.443473
18.443472
18.443474
18.44348
18.443476
18.443477
18.443478
18.443478
18.443477
18.443475
18.443474
18.443476
18.443482
18.443476
18.443478
18.443479
18.443479
18.443478
18.443476
18.443475
18.443478
18.443483
18.443477
18.443478
18.44348
18.44348
18.443479
18.443477
18.443477
18.443479
18.443485
18.443477
18.443479
18.443481
18.443481
18.44348
18.443479
18.443478
18.443481
18.443487
18.443478
18.443479
18.443481
18.443482
18.443481
18.44348
18.44348
18.443482
18.443489
18.443478
18.44348
18.443482
18.443482
18.443481
18.44348
18.44348
18.443483
18.44349
18.443478
18.443479
18.443481
18.443482
18.443481
18.44348
18.44348
18.443483
18.44349
18.443477
18.443479
18.443481
18.443482
18.443481
18.44348
18.44348
18.443482
18.443488
18.443477
18.443479
18.443481
18.443481
18.44348
18.443479
18.443479
18.44348
18.443485
18.443476
18.443478
18.44348
18.443481
18.44348
18.443478
18.443477
18.443479
18.443483
18.443476
18.443478
18.44348
18.443481
18.44348
18.443478
18.443476
18.443477
18.443481
18.443477
18.443478
18.44348
18.443481
18.443479
18.443477
18.443476
18.443476
18.443479
18.443477
18.443479
18.443481
18.443481
18.44348
18.443477
18.443475
18.443475
18.443478
18.443479
18.44348
18.443482
18.443482
18.44348
18.443478
18.443476
18.443475
18.443477
18.443481
18.443482
18.443483
18.443483
18.443481
18.443478
18.443476
18.443475
18.443477
18.443483
18.443484
18.443485
18.443484
18.443482
18.44348
18.443477
18.443477
18.443477
18.443485
18.443485
18.443486
18.443485
18.443483
18.443481
18.443479
18.443479
18.443479
18.443483
18.443484
18.443484
18.443483
18.443482
18.44348
18.443479
18.443478
18.443477
17.169343
17.169342
17.169341
17.169341
17.169341
17.169342
17.169342
17.169341
17.169342
17.169349
17.169348
17.169347
17.169347
17.169347
17.169348
17.169348
17.169349
17.16935
17.169354
17.169353
17.169353
17.169352
17.169353
17.169354
17.169354
17.169354
17.169355
17.16936
17.169359
17.169358
17.169358
17.169359
17.16936
17.16936
17.16936
17.16936
17.169365
17.169364
17.169364
17.169364
17.169365
17.169366
17.169367
17.169366
17.169365
17.16937
17.169369
17.169368
17.169369
17.16937
17.169372
17.169372
17.169372
17.16937
17.169373
17.169373
17.169373
17.169373
17.169375
17.169377
17.169378
17.169376
17.169374
17.169377
17.169376
17.169376
17.169377
17.169379
17.169381
17.169382
17.16938
17.169377
17.169379
17.169379
17.169379
17.16938
17.169383
17.169385
17.169385
17.169383
17.169379
17.169381
17.169381
17.169381
17.169382
17.169385
17.169387
17.169388
17.169385
17.16938
17.169382
17.169382
17.169382
17.169384
17.169387
17.169389
17.169389
17.169386
17.16938
17.169382
17.169382
17.169383
17.169384
17.169387
17.16939
17.16939
17.169387
17.16938
17.169382
17.169382
17.169383
17.169384
17.169387
17.16939
17.16939
17.169387
17.169379
17.169381
17.169381
17.169382
17.169384
17.169387
17.169389
17.169389
17.169386
17.169379
17.16938
17.16938
17.169381
17.169383
17.169385
17.169388
17.169388
17.169385
17.169378
17.169379
17.169379
17.169379
17.169381
17.169383
17.169386
17.169386
17.169383
17.169377
17.169377
17.169377
17.169377
17.169378
17.169381
17.169383
17.169383
17.16938
17.169375
17.169374
17.169374
17.169374
17.169376
17.169378
17.169379
17.169379
17.169376
17.169371
17.169372
17.169371
17.169371
17.169373
17.169374
17.169376
17.169375
17.169372
17.169368
17.169369
17.169369
17.169368
17.169369
17.16937
17.169371
17.169371
17.169368
17.169364
17.169366
17.169365
17.169365
17.169366
17.169367
17.169367
17.169366
17.169364
17.16936
17.169363
17.169362
17.169362
17.169362
17.169363
17.169363
17.169362
17.16936
17.169357
17.16936
17.169359
17.169359
17.169358
17.169359
17.169359
17.169358
17.169356
17.169354
17.169355
17.169354
17.169354
17.169353
17.169354
17.169354
17.169354
17.169352
17.169349
15.898356
15.898356
15.898357
15.898356
15.898356
15.898356
15.898356
15.898358
15.898359
15.898357
15.898357
15.898357
15.898357
15.898356
15.898356
15.898356
15.898358
15.898361
15.898357
15.898357
15.898357
15.898357
15.898356
15.898356
15.898356
15.898358
15.89836
15.898357
15.898357
15.898358
15.898357
15.898357
15.898356
15.898356
15.898357
15.89836
15.898357
15.898357
15.898358
15.898357
15.898357
15.898356
15.898356
15.898357
15.89836
15.898357
15.898358
15.898358
15.898358
15.898357
15.898356
15.898356
15.898357
15.89836
15.898357
15.898358
15.898358
15.898358
15.898357
15.898356
15.898356
15.898358
15.89836
15.898357
15.898358
15.898358
15.898358
15.898357
15.898357
15.898357
15.898358
15.89836
15.898357
15.898358
15.898358
15.898358
15.898357
15.898357
15.898357
15.898358
15.898361
15.898357
15.898358
15.898358
15.898358
15.898357
15.898357
15.898357
15.898358
15.898361
15.898357
15.898357
15.898358
15.898358
15.898358
15.898357
15.898357
15.898358
15.898361
15.898357
15.898357
15.898358
15.898358
15.898358
15.898357
15.898357
15.898359
15.898361
15.898357
15.898357
15.898358
15.898358
15.898358
15.898357
15.898357
15.898358
15.898361
15.898357
15.898357
15.898358
15.898358
15.898358
15.898357
15.898357
15.898358
15.89836
15.898357
15.898357
15.898358
15.898358
15.898358
15.898357
15.898357
15.898358
15.898359
15.898357
15.898358
15.898358
15.898358
15.898358
15.898358
15.898357
15.898358
15.898359
15.898357
15.898358
15.898359
15.898359
15.898359
15.898358
15.898358
15.898358
15.898359
15.898358
15.898359
15.898359
15.89836
15.898359
15.898359
15.898358
15.898358
15.898359
15.898359
15.89836
15.89836
15.898361
15.89836
15.898359
15.898359
15.898358
15.898359
15.89836
15.898361
15.898362
15.898362
15.898361
15.898361
15.89836
15.898359
15.898359
15.898362
15.898363
15.898363
15.898363
15.898363
15.898362
15.898361
15.89836
15.89836
15.898364
15.898364
15.898365
15.898365
15.898364
15.898363
15.898363
15.898362
15.898362
15.898366
15.898366
15.898366
15.898366
15.898366
15.898365
15.898365
15.898365
15.898364
15.898366
15.898366
15.898367
15.898366
15.898366
15.898366
15.898366
15.898366
15.898365
14.625685
14.625685
14.625684
14.625684
14.625684
14.625684
14.625684
14.625684
14.625684
14.625687
14.625687
14.625686
14.625686
14.625686
14.625687
14.625687
14.625687
14.625687
14.625689
14.625689
14.625689
14.625689
14.625689
14.625689
14.625689
14.62569
14.62569
14.625692
14.625691
14.625691
14.625691
14.625691
14.625692
14.625692
14.625692
14.625692
14.625694
14.625694
14.625693
14.625693
14.625694
14.625694
14.625694
14.625694
14.625694
14.625696
14.625696
14.625695
14.625696
14.625696
14.625696
14.625696
14.625696
14.625696
14.625698
14.625697
14.625697
14.625697
14.625698
14.625698
14.625698
14.625698
14.625698
14.625699
14.625699
14.625699
14.625699
14.6257
14.6257
14.6257
14.6257
14.625699
14.6257
14.6257
14.6257
14.6257
14.625701
14.625701
14.625702
14.625701
14.6257
14.625701
14.625701
14.625701
14.625701
14.625702
14.625703
14.625703
14.625702
14.6257
14.625701
14.625701
14.625701
14.625702
14.625703
14.625703
14.625703
14.625702
14.6257
14.625702
14.625702
14.625702
14.625702
14.625703
14.625704
14.625704
14.625702
14.6257
14.625702
14.625702
14.625702
14.625702
14.625703
14.625704
14.625704
14.625702
14.6257
14.625701
14.625701
14.625702
14.625702
14.625703
14.625704
14.625703
14.625702
14.6257
14.625701
14.625701
14.625701
14.625702
14.625702
14.625703
14.625703
14.625702
14.6257
14.6257
14.6257
14.625701
14.625701
14.625702
14.625702
14.625702
14.625701
14.625699
14.6257
14.6257
14.6257
14.6257
14.625701
14.625702
14.625701
14.6257
14.625698
14.625699
14.625699
14.625699
14.625699
14.6257
14.6257
14.6257
14.625699
14.625697
14.625698
14.625698
14.625698
14.625698
14.625699
14.625699
14.625699
14.625698
14.625696
14.625697
14.625697
14.625697
14.625697
14.625698
14.625698
14.625698
14.625696
14.625695
14.625696
14.625696
14.625696
14.625696
14.625696
14.625696
14.625696
14.625695
14.625693
14.625695
14.625695
14.625695
14.625695
14.625695
14.625695
14.625695
14.625694
14.625692
14.625694
14.625694
14.625694
14.625694
14.625694
14.625694
14.625693
14.625692
14.625691
14.625693
14.625693
14.625692
14.625692
14.625692
14.625692
14.625692
14.625691
14.62569
13.353868
13.353868
13.353868
13.353868
13.353868
13.353868
13.353868
13.353868
13.353869
13.353869
13.353869
13.353869
13.353869
13.353869
13.353869
13.353869
13.353869
13.35387
13.353869
13.353869
13.353869
13.353869
13.353869
13.353869
13.353869
13.353869
13.35387
13.35387
13.35387
13.35387
13.35387
13.35387
13.353869
13.353869
13.35387
13.35387
13.35387
13.35387
13.35387
13.35387
13.35387
13.35387
13.35387
13.35387
13.353871
13.35387
13.353871
13.353871
13.353871
13.35387
13.35387
13.35387
13.353871
13.353871
13.353871
13.353871
13.353871
13.353871
13.353871
13.35387
13.353871
13.353871
13.353872
13.353871
13.353871
13.353871
13.353871
13.353871
13.353871
13.353871
13.353871
13.353872
13.353871
13.353871
13.353871
13.353871
13.353871
13.353871
13.353871
13.353872
13.353872
13.353871
13.353871
13.353872
13.353871
13.353871
13.353871
13.353871
13.353872
13.353873
13.353871
13.353872
13.353872
13.353872
13.353872
13.353871
13.353872
13.353872
13.353873
13.353872
13.353872
13.353872
13.353872
13.353872
13.353872
13.353872
13.353872
13.353873
13.353872
13.353872
13.353872
13.353872
13.353872
13.353872
13.353872
13.353872
13.353873
13.353872
13.353872
13.353872
13.353872
13.353872
13.353872
13.353872
13.353872
13.353873
13.353872
13.353872
13.353872
13.353872
13.353872
13.353872
13.353872
13.353872
13.353873
13.353872
13.353872
13.353873