/*--------------------------------*- C++ -*----------------------------------*\
| =========                 |                                                 |
| \\      /  F ield         | OpenFOAM: The Open Source CFD Toolbox           |
|  \\    /   O peration     | Version:  2406                                  |
|   \\  /    A nd           | Website:  www.openfoam.com                      |
|    \\/     M anipulation  |                                                 |
\*---------------------------------------------------------------------------*/
FoamFile
{
    version     2.0;
    format      ascii;
    arch        "LSB;label=32;scalar=64";
    class       surfaceScalarField;
    location    "20";
    object      phi;
}
// * * * * * * * * * * * * * * * * * * * * * * * * * * * * * * * * * * * * * //

dimensions      [0 3 -1 0 0 0 0];

oriented        oriented;

internalField   nonuniform List<scalar> 
101088
(
-9.7118228e-05
1.4394324e-05
7.2470567e-07
-1.0991026e-05
-0.00024119614
7.2833819e-05
-2.1996839e-06
-5.6686245e-05
-0.00044148343
0.000202262
-1.9233048e-05
-0.00015973277
-0.0006892024
0.00043329486
-6.8181824e-05
-0.00034863861
-0.00093931055
0.0007480325
-0.00016576463
-0.00061817608
-0.001123944
0.0010599406
-0.00030235369
-0.00090243929
-0.0012068182
0.0012774964
-0.0004290738
-0.0011137487
-0.0012150651
0.001368074
-0.00048922056
-0.0012048109
0.0013285211
-0.00046218477
-0.0011811642
-0.0011911967
-0.00011754988
1.6470751e-05
1.4018438e-06
-0.00028791912
8.5022745e-05
-1.2399996e-06
-0.00051775299
0.00023759625
-2.2046571e-05
-0.00078846193
0.00050571211
-8.4401414e-05
-0.0010389361
0.00085690622
-0.00020822864
-0.0011933621
0.0011878487
-0.00037771486
-0.0012270989
0.0014121838
-0.00053117099
-0.001182311
0.0015085646
-0.0006033638
0.0014731535
-0.00057536631
-0.0011223837
-0.00013883691
1.7437137e-05
2.5221963e-06
-0.00033634851
9.2206179e-05
1.4874466e-06
-0.00059490161
0.00026124641
-2.1106163e-05
-0.00088523729
0.00055701353
-9.4512497e-05
-0.0011332514
0.0009342452
-0.00024145832
-0.0012595029
0.0012767618
-0.00043875797
-0.0012510425
0.0015088309
-0.00061278128
-0.001164156
0.0016189086
-0.00069302916
0.0015993876
-0.0006636956
-0.001070095
-0.00015986021
1.7188639e-05
3.9939157e-06
-0.00038442357
9.3581388e-05
5.7515646e-06
-0.00067066826
0.00026997649
-1.6628021e-05
-0.00097759747
0.00057992571
-9.8279017e-05
-0.0012196715
0.00096946145
-0.00026437243
-0.0013209655
0.0013190924
-0.00048438024
-0.0012812111
0.0015641675
-0.00067409746
-0.0011664544
0.0016979311
-0.00075990541
0.001701019
-0.00072903209
-0.0010470267
-0.00017942902
1.4945147e-05
5.8555722e-06
-0.00042841126
8.6259433e-05
1.1827088e-05
-0.000738932
0.00025828697
-7.8195915e-06
-0.0010601832
0.00056776994
-9.4458137e-05
-0.0012988715
0.00095786348
-0.00027568311
-0.0013847903
0.001313968
-0.00051387841
-0.0013276874
0.0015795736
-0.00071592363
-0.001197876
0.0017445416
-0.00080507218
0.0017729319
-0.00077186199
-0.0010623985
-0.0001982315
1.0925066e-05
8.1714859e-06
-0.0004720378
7.0700291e-05
1.9898034e-05
-0.0008093416
0.00022652333
6.0098442e-06
-0.0011501933
0.00052078248
-8.1722128e-05
-0.0013955386
0.00090171667
-0.00027415592
-0.0014776602
0.0012624482
-0.00052656588
-0.0014141486
0.0015524452
-0.00073686357
-0.0012755477
0.0017499161
-0.00082717928
0.0018038671
-0.00079198863
-0.0011274749
-0.0002155303
5.1642312e-06
1.0981322e-05
-0.00051389871
4.7364735e-05
3.0082309e-05
-0.00088101642
0.00017570836
2.5700368e-05
-0.0012489707
0.00044052985
-5.8001484e-05
-0.0015125619
0.00080241151
-0.00025612869
-0.001605926
0.0011655323
-0.00051777441
-0.0015487271
0.0014788923
-0.00073297387
-0.0014096802
0.0017050078
-0.00082345337
0.0017804629
-0.00078740938
-0.0012523063
-0.00023174516
-1.649796e-06
1.4311497e-05
-0.0005574143
1.9031699e-05
4.3392742e-05
-0.00096263056
0.0001115967
5.2159784e-05
-0.0013733109
0.00033484953
-2.1043486e-05
-0.0016747161
0.0006665854
-0.00021851055
-0.0017970016
0.0010234908
-0.00048393155
-0.0017572601
0.0013495912
-0.00070043328
-0.0016210618
0.0015916157
-0.00079008633
0.0016798755
-0.00075484581
-0.0014519817
-0.00024780802
-7.638828e-06
1.8126472e-05
-0.0006066737
-7.5480935e-06
5.9296946e-05
-0.0010647414
4.7373837e-05
8.4761037e-05
-0.0015419512
0.00021987674
2.9386437e-05
-0.0019062768
0.00050547227
-0.00016005345
-0.0020758022
0.00083489662
-0.00042251815
-0.0020610082
0.0011479438
-0.00063563831
-0.0019251729
0.0013816129
-0.0007231739
0.0014701436
-0.0006910106
-0.0017365781
-0.00026386587
-1.0315223e-05
2.2144394e-05
-0.00066267285
-2.3167321e-05
7.6419581e-05
-0.0011928079
8.8940131e-07
0.00012357898
-0.0017616336
0.00011769074
8.8921589e-05
-0.0022127499
0.00033375902
-8.5189476e-05
-0.0024432876
0.00059757069
-0.0003371715
-0.0024557381
0.00085483212
-0.00054126152
-0.0023130983
0.0010442183
-0.00062491915
0.0011176733
-0.00059799858
-0.002093773
-0.00027888731
-7.3957273e-06
2.5711287e-05
-0.00072048116
-1.9451669e-05
9.1918954e-05
-0.0013288937
-1.2855782e-05
0.00015872956
-0.0019969496
4.6007327e-05
0.00014475418
-0.0025415353
0.00016421556
-8.9075533e-06
-0.0028341468
0.00031388417
-0.00024494551
-0.0028696939
0.00046327229
-0.00043580729
-0.0027145974
0.00056922677
-0.00051446505
0.00061177839
-0.00049344923
-0.0024588117
-0.00028851421
-1.7888667e-10
2.7902105e-05
-0.00075950705
-8.1528117e-10
0.000101567
-0.0014218707
-1.9396704e-09
0.00018083886
-0.0021580588
-3.4258161e-09
0.00018071095
-0.0027668154
-4.5954143e-09
4.2375856e-05
-0.0031014654
-5.1671179e-09
-0.00018085512
-0.0031481879
-5.1087815e-09
-0.00036098902
-0.0029837802
-4.2657758e-09
-0.00043688724
-2.7168348e-09
-0.00041966135
-0.0027020913
-0.0002885142
7.395436e-06
2.7902095e-05
-0.00075950646
1.9450184e-05
0.00010156695
-0.0014218702
1.2852043e-05
0.00018083876
-0.0021580586
-4.6014265e-05
0.00018071077
-0.0027668155
-0.00016422509
4.2375653e-05
-0.0031014655
-0.00031389473
-0.00018085528
-0.0031481881
-0.00046328257
-0.00036098909
-0.0029837807
-0.000569235
-0.00043688725
-0.00061178364
-0.00041966134
-0.0027020919
-0.00027888762
1.0314902e-05
2.571127e-05
-0.00072048071
2.3165753e-05
9.1918877e-05
-0.0013288938
-8.9325896e-07
0.00015872936
-0.0019969499
-0.00011769784
0.00014475384
-0.0025415363
-0.00033376882
-8.9080104e-06
-0.0028341481
-0.00059758134
-0.00024494591
-0.0028696953
-0.00085484229
-0.00043580751
-0.0027145985
-0.0010442266
-0.00051446511
-0.0011176789
-0.00049344924
-0.0024588129
-0.00026386609
7.6383537e-06
2.2144367e-05
-0.0006626727
7.5462504e-06
7.641947e-05
-0.0011928086
-4.7377651e-05
0.00012357873
-0.0017616334
-0.00021988301
8.892117e-05
-0.0022127507
-0.00050548086
-8.5189986e-05
-0.0024432894
-0.00083490609
-0.00033717194
-0.0024557404
-0.0011479529
-0.00054126177
-0.0023130997
-0.0013816212
-0.00062491921
-0.0014701505
-0.00059799859
-0.0020937744
-0.0002478076
1.6494236e-06
1.8126451e-05
-0.00060667343
-1.9033166e-05
5.9296851e-05
-0.0010647429
-0.0001115998
8.4760812e-05
-0.001541952
-0.00033485473
2.9386056e-05
-0.0019062787
-0.00066659262
-0.00016005392
-0.0020758048
-0.0010234986
-0.00042251859
-0.0020610116
-0.001349599
-0.00063563862
-0.0019251751
-0.0015916242
-0.00072317399
-0.0016798841
-0.00069101061
-0.0017365797
-0.00023174462
-5.1645633e-06
1.4311481e-05
-0.00055741433
-4.7365971e-05
4.3392665e-05
-0.00096263291
-0.0001757112
5.21596e-05
-0.0013733134
-0.00044053486
-2.10438e-05
-0.0016747192
-0.00080241747
-0.00021851096
-0.0017970048
-0.0011655384
-0.00048393195
-0.0017572647
-0.0014788989
-0.00070043357
-0.0016210656
-0.0017050159
-0.00079008641
-0.001780472
-0.00075484586
-0.0014519846
-0.00021553
-1.0925126e-05
1.0981314e-05
-0.00051389862
-7.0700744e-05
3.0082261e-05
-0.00088101879
-0.00022652509
2.570024e-05
-0.0012489737
-0.00052078587
-5.8001723e-05
-0.0015125656
-0.00090172043
-0.00025612903
-0.0016059298
-0.0012624524
-0.00051777472
-0.0015487327
-0.0015524508
-0.00073297404
-0.0014096853
-0.0017499233
-0.00082345347
-0.0018038753
-0.00078740953
-0.0012523107
-0.0001982314
-1.4945408e-05
8.1714803e-06
-0.00047203779
-8.6260145e-05
1.9898001e-05
-0.00080934318
-0.00025828825
6.0097468e-06
-0.0011501956
-0.00056777176
-8.1722332e-05
-0.001395543
-0.00095786677
-0.00027415622
-0.001477665
-0.0013139715
-0.00052656615
-0.0014141544
-0.001579578
-0.00073686375
-0.0012755524
-0.001744547
-0.00082717951
-0.0017729391
-0.0007919888
-0.0011274797
-0.00017942897
-1.7188643e-05
5.8555658e-06
-0.00042841088
-9.3581492e-05
1.1827055e-05
-0.0007389327
-0.00026997701
-7.8196807e-06
-0.0010601866
-0.00057992763
-9.4458292e-05
-0.0012988759
-0.00096946523
-0.0002756833
-0.0013847939
-0.0013190957
-0.00051387854
-0.0013276914
-0.0015641709
-0.00071592377
-0.0011978793
-0.0016979351
-0.0008050724
-0.0017010253
-0.000771862
-0.001062403
-0.00015986027
-1.7437226e-05
3.9939094e-06
-0.00038442366
-9.2206418e-05
5.7515379e-06
-0.00067066912
-0.00026124681
-1.6628083e-05
-0.00097759997
-0.00055701442
-9.8279131e-05
-0.0012196733
-0.00093424608
-0.0002643726
-0.0013209671
-0.0012767633
-0.00048438043
-0.0012812126
-0.0015088321
-0.00067409758
-0.0011664573
-0.0016189116
-0.0007599055
-0.0015993941
-0.00072903203
-0.0010470313
-0.00013883688
-1.6470757e-05
2.5221889e-06
-0.00033634809
-8.5022682e-05
1.487417e-06
-0.00059490065
-0.00023759624
-2.1106229e-05
-0.00088523704
-0.00050571256
-9.4512613e-05
-0.0011332522
-0.00085690716
-0.00024145846
-0.0012595037
-0.0011878495
-0.00043875811
-0.001251045
-0.0014121836
-0.00061278136
-0.0011641603
-0.0015085641
-0.00069302919
-0.0014731585
-0.00066369567
-0.0010700993
-0.0001175497
-1.4394296e-05
1.4018368e-06
-0.0002879183
-7.2833703e-05
-1.2400287e-06
-0.00051775156
-0.00020226184
-2.2046638e-05
-0.0007884613
-0.00043329488
-8.4401533e-05
-0.0010389367
-0.00074803291
-0.00020822881
-0.0011933619
-0.0010599402
-0.00037771506
-0.0012270978
-0.0012774956
-0.00053117116
-0.0011823114
-0.0013680749
-0.00060336384
-0.0013285236
-0.00057536643
-0.0011223853
-9.7118171e-05
7.2469775e-07
-1.0990994e-05
-0.00024119584
-2.1997166e-06
-5.6686123e-05
-0.00044148296
-1.9233122e-05
-0.0001597325
-0.00068920168
-6.8181952e-05
-0.00034863811
-0.00093930908
-0.00016576482
-0.00061817543
-0.0011239437
-0.00030235391
-0.00090243888
-0.0012068189
-0.00042907393
-0.0011137499
-0.0012150642
-0.00048922064
-0.0012048133
-0.00046218483
-0.0011811689
-0.0011911969
1.5604308e-06
1.2853659e-07
4.4074316e-07
-1.4050012e-06
6.689285e-06
-1.0409896e-06
-1.480209e-06
-4.8074194e-06
1.6348249e-05
-7.508936e-06
-1.3781312e-05
-7.6019873e-06
3.0414998e-05
-2.8577114e-05
-5.0787503e-05
-2.8842134e-06
4.7259243e-05
-7.7711953e-05
-0.00012658365
2.1686721e-05
6.6807577e-05
-0.00015991214
-0.00023722044
7.523091e-05
9.2004668e-05
-0.00025744891
-0.00034571712
0.00014889513
0.0001238619
-0.00033786173
-0.00040164898
0.00021843299
-0.00037775584
-0.0003826442
0.00026408025
0.00015799759
2.5390357e-06
-1.7013363e-06
6.9264358e-07
1.1226489e-05
-9.4923947e-06
-1.4761661e-06
2.7629242e-05
-2.9021813e-05
-1.6936574e-05
5.0082344e-05
-7.1606361e-05
-6.3824933e-05
7.277733e-05
-0.00014953654
-0.00015909807
9.2437829e-05
-0.00026092103
-0.00029636637
0.00011215159
-0.00037888828
-0.00042944616
0.00013653424
-0.00046697443
-0.00049863276
-0.00050296226
-0.00048028642
0.00016666137
3.8898641e-06
-4.1724403e-06
1.1033677e-06
1.7243925e-05
-2.0588145e-05
-7.7117777e-07
4.194648e-05
-5.6466108e-05
-1.8364814e-05
7.3605617e-05
-0.00012444653
-7.3331297e-05
0.00010111178
-0.00023344924
-0.00018505133
0.00011830302
-0.00037253514
-0.00034433507
0.00012998536
-0.00050683957
-0.0004965116
0.00014447024
-0.00059941599
-0.00057507307
-0.00063062368
-0.00055682771
0.00016526481
5.5019746e-06
-7.2233433e-06
1.5428463e-06
2.4498333e-05
-3.3959658e-05
1.2669826e-07
5.9103776e-05
-8.8588433e-05
-1.9110646e-05
0.00010119723
-0.00018389655
-8.0921153e-05
0.00013342849
-0.00032348944
-0.00020656402
0.00014716833
-0.00048685739
-0.00038379779
0.00014997164
-0.00063340721
-0.00055033358
0.00015342322
-0.00072794692
-0.00063482595
-0.00075320328
-0.00061581229
0.00016278353
7.2053501e-06
-1.0584968e-05
2.0116913e-06
3.2309064e-05
-4.8462745e-05
1.225904e-06
7.7715271e-05
-0.00012266331
-1.9151183e-05
0.00013090936
-0.00024491973
-8.6628152e-05
0.00016789426
-0.0004121554
-0.00022400133
0.00017817453
-0.00059505685
-0.00041595928
0.00017243427
-0.00075022678
-0.00059336351
0.0001654277
-0.00084472826
-0.00068128488
-0.00086266544
-0.00066065134
0.0001636792
9.1479732e-06
-1.4052824e-05
2.4913819e-06
4.1128321e-05
-6.3004459e-05
2.459671e-06
9.8856393e-05
-0.00015576124
-1.8619424e-05
0.00016470483
-0.00030177523
-9.0715291e-05
0.00020716164
-0.00049081919
-0.00023794818
0.00021431807
-0.0006866881
-0.00044209105
0.00020083688
-0.00084576584
-0.00062784296
0.00018420225
-0.00093780681
-0.00071746651
-0.00094741619
-0.00069453324
0.00017149762
1.1056545e-05
-1.7085459e-05
2.9571583e-06
4.9636868e-05
-7.5257257e-05
3.7547056e-06
0.0001196324
-0.00018245081
-1.7604478e-05
0.00019810548
-0.00034501646
-9.323336e-05
0.00024608894
-0.00054645409
-0.00024847798
0.00025101544
-0.00074683108
-0.00046255904
0.00023172026
-0.00090463645
-0.000654808
0.00020760231
-0.00099195884
-0.00074518363
-0.00099316571
-0.00071974413
0.00018568643
1.2654497e-05
-1.8874854e-05
3.4460857e-06
5.7427121e-05
-8.1896985e-05
5.2599999e-06
0.00013839522
-0.00019544032
-1.5817637e-05
0.00022890757
-0.00036276345
-9.380849e-05
0.00028262247
-0.00056329304
-0.00025538638
0.00028670009
-0.00075715849
-0.00047768247
0.00026402931
-0.00090712324
-0.00067527591
0.00023504666
-0.00098701355
-0.00076604953
-0.00098072053
-0.00073821016
0.00020596552
1.3854502e-05
-1.8566845e-05
3.9637123e-06
6.3735665e-05
-7.9479669e-05
6.9982813e-06
0.00015337222
-0.00018706727
-1.3248271e-05
0.00025454563
-0.00034205717
-9.2494054e-05
0.00031370758
-0.00052369916
-0.0002588093
0.00031833761
-0.000696604
-0.00048770283
0.00029473044
-0.00082938117
-0.00068977341
0.00026338512
-0.00089784802
-0.00078099476
-0.00088646255
-0.000751227
0.00022934342
1.4322092e-05
-1.5232219e-05
4.4879002e-06
6.689689e-05
-6.4510841e-05
8.8759296e-06
0.00016353314
-0.00015009302
-1.00314e-05
0.00027214562
-0.00027201326
-8.9735575e-05
0.00033589807
-0.00041326737
-0.00025937396
0.00034238925
-0.00054691255
-0.00049335404
0.00032006596
-0.00064933365
-0.00069898573
0.00028861444
-0.00070066955
-0.0007906464
-0.00068843219
-0.00075943952
0.00025202527
1.4310293e-05
-8.7504814e-06
4.9194536e-06
6.7945736e-05
-3.6724301e-05
1.049672e-05
0.00016831635
-8.470199e-05
-7.0321495e-06
0.00028038524
-0.00015258378
-8.6744083e-05
0.00034742165
-0.00023086107
-0.00025835005
0.00035610433
-0.00030492802
-0.00049561239
0.00033624758
-0.00036172998
-0.00070355401
0.00030601744
-0.00038941028
-0.00079549402
-0.00038143995
-0.00076338208
0.00026895843
1.3942807e-05
4.0749781e-11
5.2088312e-06
6.7167298e-05
1.9702379e-10
1.1617828e-05
0.00016816101
5.0348441e-10
-4.8574668e-06
0.00028068103
1.0363438e-09
-8.4393414e-05
0.00034917933
1.6856037e-09
-0.00025698485
0.00035948463
2.0302816e-09
-0.00049609021
0.00034216267
1.8948733e-09
-0.00070539881
0.0003134642
1.6252865e-09
-0.0007976003
1.5578626e-09
-0.00076504487
0.00027740661
1.3942793e-05
8.7505777e-06
5.2088297e-06
6.7167516e-05
3.6724712e-05
1.1617823e-05
0.00016816116
8.4702955e-05
-4.8574735e-06
0.00028068096
0.00015258559
-8.4393414e-05
0.00034917906
0.00023086392
-0.00025698484
0.00035948431
0.00030493152
-0.00049609018
0.00034216247
0.00036173342
-0.00070539876
0.00031346418
0.00038941336
-0.00079760027
0.00038144308
-0.00076504488
0.00027740666
1.4310167e-05
1.523229e-05
4.9194508e-06
6.7945957e-05
6.4511144e-05
1.049671e-05
0.00016831631
0.00015009375
-7.03217e-06
0.00028038499
0.00027201454
-8.6744109e-05
0.00034742105
0.00041326937
-0.00025835009
0.00035610355
0.00054691518
-0.00049561241
0.00033624705
0.00064933657
-0.00070355402
0.00030601742
0.00070067229
-0.00079549405
0.00068843502
-0.00076338214
0.00026895866
1.4321922e-05
1.8566808e-05
4.4878955e-06
6.6896777e-05
7.9479671e-05
8.8759143e-06
0.00016353251
0.00018706759
-1.0031423e-05
0.00027214531
0.00034205807
-8.9735585e-05
0.00033589753
0.00052370071
-0.00025937394
0.00034238846
0.00069660622
-0.00049335399
0.00032006534
0.00082938389
-0.00069898568
0.00028861445
0.00089785036
-0.00079064638
0.00088646445
-0.00075943958
0.00025202566
1.3854624e-05
1.8874818e-05
3.9637077e-06
6.373571e-05
8.189699e-05
6.9982643e-06
0.00015337146
0.00019544065
-1.3248298e-05
0.0002545453
0.00036276435
-9.249407e-05
0.00031370702
0.00056329455
-0.00025880929
0.00031833695
0.00075716078
-0.00048770279
0.00029472972
0.00090712597
-0.00068977338
0.00026338488
0.00098701554
-0.00078099475
0.00098072152
-0.00075122703
0.00022934353
1.2654713e-05
1.7085423e-05
3.4460812e-06
5.7427152e-05
7.5257252e-05
5.2599817e-06
0.00013839421
0.00018245098
-1.5817669e-05
0.00022890665
0.00034501696
-9.380852e-05
0.00028262155
0.00054645546
-0.00025538639
0.00028669949
0.00074683356
-0.00047768247
0.00026402841
0.00090463918
-0.00067527589
0.00023504605
0.00099196077
-0.0007660495
0.00099316673
-0.00073821017
0.00020596518
1.105675e-05
1.4052847e-05
2.957155e-06
4.963712e-05
6.3004639e-05
3.7546911e-06
0.00011963157
0.00015576151
-1.760451e-05
0.00019810452
0.00030177583
-9.3233404e-05
0.00024608802
0.00049082091
-0.00024847803
0.00025101485
0.00068669094
-0.00046255908
0.00023171921
0.00084576873
-0.00065480801
0.00020760157
0.00093780912
-0.00074518361
0.00094741771
-0.00071974412
0.00018568606
9.1480673e-06
1.058493e-05
2.4913789e-06
4.1128402e-05
4.8462786e-05
2.4596551e-06
9.8855755e-05
0.00012266346
-1.8619466e-05
0.00016470422
0.00024492039
-9.0715369e-05
0.00020716048
0.00041215675
-0.00023794829
0.00021431719
0.00059505948
-0.00044209116
0.00020083596
0.00075022996
-0.00062784303
0.000184202
0.00084473115
-0.00071746656
0.00086266677
-0.00069453324
0.00017149791
7.2054462e-06
7.2233483e-06
2.0116868e-06
3.2309466e-05
3.3959806e-05
1.2258853e-06
7.7715413e-05
8.8588763e-05
-1.9151226e-05
0.00013090843
0.00018389702
-8.6628222e-05
0.00016789298
0.00032349034
-0.00022400141
0.00017817386
0.00048685984
-0.00041595933
0.00017243389
0.00063341057
-0.00059336354
0.0001654281
0.00072795
-0.00068128492
0.00075320394
-0.00066065131
0.00016367998
5.5019677e-06
4.1724033e-06
1.5428414e-06
2.4498398e-05
2.0588154e-05
1.26679e-07
5.9103572e-05
5.6466231e-05
-1.9110688e-05
0.00010119614
0.00012444683
-8.0921219e-05
0.00013342794
0.00023345058
-0.00020656409
0.00014716816
0.00037253776
-0.00038379785
0.00014997212
0.00050684326
-0.00055033361
0.00015342391
0.00059941861
-0.00063482596
0.0006306228
-0.00061581225
0.00016278458
3.889855e-06
1.7013198e-06
1.1033622e-06
1.7244117e-05
9.4924714e-06
-7.7119863e-07
4.1947015e-05
2.9022086e-05
-1.8364856e-05
7.3605801e-05
7.1606959e-05
-7.3331364e-05
0.00010111155
0.00014953806
-0.00018505141
0.00011830292
0.0002609241
-0.00034433514
0.00012998494
0.00037889205
-0.00049651164
0.00014447016
0.00046697781
-0.00057507308
0.00050296075
-0.00055682773
0.00016526582
2.5390872e-06
-1.2853597e-07
6.9263802e-07
1.1226808e-05
1.0410699e-06
-1.4761887e-06
2.7629879e-05
7.5092098e-06
-1.6936623e-05
5.0082528e-05
2.8577742e-05
-6.3825019e-05
7.2776731e-05
7.7713477e-05
-0.00015909819
9.243744e-05
0.0001599156
-0.00029636651
0.00011215197
0.00025745265
-0.00042944628
0.00013653443
0.00033786401
-0.00049863283
0.00037775457
-0.0004802865
0.00016666182
1.5604337e-06
4.4073849e-07
-1.4049606e-06
6.6893806e-06
-1.4802286e-06
-4.8072269e-06
1.6348392e-05
-1.3781357e-05
-7.601463e-06
3.0415053e-05
-5.0787578e-05
-2.8830465e-06
4.7259651e-05
-0.00012658376
2.1689016e-05
6.6807484e-05
-0.00023722057
7.5234242e-05
9.2004199e-05
-0.00034571723
0.00014889798
0.00012386167
-0.00040164907
0.00021843494
-0.00038264428
0.00026407818
0.00015799654
-4.4769059e-08
-1.265038e-07
4.3681371e-07
1.7520248e-07
1.3463581e-08
-2.7105042e-07
-1.7945509e-06
5.2713018e-07
-8.7684176e-08
2.3330786e-08
-1.4427678e-05
7.2409978e-07
-1.6603946e-06
1.4009378e-06
-5.0974689e-05
3.5885839e-07
-6.0122708e-06
4.541098e-06
-0.00012577297
-9.9993738e-07
-1.2753428e-05
9.6031196e-06
-0.00023649624
-3.5861163e-06
-1.9368289e-05
1.5430553e-05
-0.0003474856
-7.0472738e-06
-2.3078718e-05
1.9539895e-05
-0.00040751177
-9.9667053e-06
1.8883436e-05
-0.00039133864
-1.0996973e-05
-2.2270644e-05
-3.9755105e-08
-1.3734934e-07
7.4322435e-07
9.9508868e-08
-2.3123567e-07
-1.6553233e-06
8.2902554e-08
3.3832161e-07
-1.7235101e-05
-1.7092646e-06
2.5065062e-06
-6.3138429e-05
-6.736839e-06
7.2921391e-06
-0.00015682151
-1.4310187e-05
1.4776565e-05
-0.00029396664
-2.1409544e-05
2.2917697e-05
-0.0004298343
-2.4888647e-05
2.8141942e-05
-0.00050375561
2.7250707e-05
-0.00048936271
-2.4179715e-05
-1.4335451e-08
-2.1731382e-07
1.1976464e-06
3.2435776e-07
-4.8228444e-07
-8.5890643e-07
6.862775e-07
4.943899e-09
-1.8393459e-05
-8.4289571e-07
2.57154e-06
-7.1867122e-05
-5.9626735e-06
8.7591377e-06
-0.00018139849
-1.3891602e-05
1.8631203e-05
-0.00034026084
-2.1374987e-05
2.9187205e-05
-0.00049529758
-2.5282958e-05
3.59164e-05
-0.00057893976
3.5733275e-05
-0.00056543308
-2.5160052e-05
1.8319182e-08
-3.5667903e-07
1.6638742e-06
5.9678732e-07
-9.9668902e-07
6.2555501e-08
1.4606374e-06
-9.5206854e-07
-1.90175e-05
4.7802633e-07
1.5601441e-06
-7.8926956e-05
-4.2991694e-06
8.7847341e-06
-0.00020181265
-1.2205963e-05
2.0911501e-05
-0.0003781713
-2.0029915e-05
3.3989234e-05
-0.00054731184
-2.461044e-05
4.2563243e-05
-0.00063689228
4.3402877e-05
-0.00062309033
-2.5001941e-05
6.5185262e-08
-5.4356539e-07
2.1333624e-06
9.3804345e-07
-1.7278222e-06
1.084059e-06
2.4232268e-06
-2.4336229e-06
-1.9154893e-05
2.2103776e-06
-4.0743311e-07
-8.4447584e-05
-1.9381617e-06
7.4188786e-06
-0.0002184868
-9.6262612e-06
2.1485822e-05
-0.00040884554
-1.7786239e-05
3.6912868e-05
-0.00058812717
-2.3065047e-05
4.7274597e-05
-0.00068071764
4.9210021e-05
-0.00066552771
-2.3995844e-05
1.2246627e-07
-7.5143627e-07
2.5767784e-06
1.3231604e-06
-2.5655619e-06
2.0967632e-06
3.5008457e-06
-4.20266e-06
-1.9027882e-05
4.1614265e-06
-2.9727595e-06
-8.8810665e-05
7.9029681e-07
4.9291073e-06
-0.00023208711
-6.560246e-06
2.0283688e-05
-0.00043353843
-1.5030836e-05
3.7441719e-05
-0.00061990119
-2.1063608e-05
4.9184401e-05
-0.00071334372
5.2143035e-05
-0.00069585637
-2.267349e-05
1.8801718e-07
-9.398931e-07
2.9575387e-06
1.7428317e-06
-3.3508344e-06
2.9851317e-06
4.6857303e-06
-5.9322641e-06
-1.8817504e-05
6.387284e-06
-5.7032117e-06
-9.2204455e-05
3.9486526e-06
1.7094289e-06
-0.00024281987
-3.0089971e-06
1.7397134e-05
-0.00045271526
-1.1884403e-05
3.5269826e-05
-0.00064376079
-1.8894262e-05
4.7708168e-05
-0.00073669767
5.1397058e-05
-0.00071650785
-2.1384599e-05
2.629547e-07
-1.0613281e-06
3.3045029e-06
2.202558e-06
-3.8886738e-06
3.858275e-06
5.9705142e-06
-7.2045685e-06
-1.8313024e-05
8.7909321e-06
-7.9487102e-06
-9.438332e-05
7.2840344e-06
-1.544281e-06
-0.00025062577
6.4959433e-07
1.3217707e-05
-0.00046686894
-8.7825934e-06
3.0444224e-05
-0.00066101828
-1.6910433e-05
4.2620164e-05
-0.00075283389
4.6596341e-05
-0.00072995657
-2.0363387e-05
3.4377805e-07
-1.0620478e-06
3.6205848e-06
2.687418e-06
-3.9606492e-06
4.7265898e-06
7.2932706e-06
-7.5533628e-06
-1.7505245e-05
1.12555e-05
-9.0204228e-06
-9.5384804e-05
1.0621391e-05
-4.0051016e-06
-0.00025571444
4.1404121e-06
8.5742814e-06
-0.00047657858
-5.9731021e-06
2.3560423e-05
-0.00067277623
-1.5221216e-05
3.4253084e-05
-0.00076337978
3.7928412e-05
-0.00073815512
-1.9625201e-05
4.2367495e-07
-8.8539324e-07
3.8876064e-06
3.1708673e-06
-3.3390349e-06
5.5071321e-06
8.6718014e-06
-6.4860338e-06
-1.6599578e-05
1.361512e-05
-8.1034762e-06
-9.5596046e-05
1.3675137e-05
-4.7340742e-06
-0.00025870509
7.1423516e-06
4.4826004e-06
-0.00048272962
-3.6564327e-06
1.5573756e-05
-0.00068020033
-1.3883513e-05
2.3567535e-05
-0.00076973388
2.6394444e-05
-0.00074266713
-1.9121896e-05
4.9460141e-07
-5.1326372e-07
4.0527693e-06
3.603908e-06
-1.9432845e-06
5.9916079e-06
9.922624e-06
-3.8080343e-06
-1.6028819e-05
1.5624516e-05
-4.8634192e-06
-9.5685984e-05
1.612203e-05
-3.1541864e-06
-0.00026042737
9.4865773e-06
1.7323772e-06
-0.00048622664
-1.9316077e-06
7.6774057e-06
-0.00068423944
-1.2901948e-05
1.1948736e-05
-0.00077290486
1.3463079e-05
-0.00074458769
-1.8764888e-05
5.3010171e-07
-2.0980682e-11
4.1655096e-06
3.8519812e-06
-6.1829035e-11
6.3526887e-06
1.0684827e-05
-1.0367964e-10
-1.5498212e-05
1.6798993e-05
-9.468564e-11
-9.5370748e-05
1.7543079e-05
7.0678919e-12
-0.00026088297
1.0792518e-05
1.2881933e-10
-0.00048760732
-9.6273978e-07
1.8953575e-10
-0.00068596629
-1.2351247e-05
2.5040839e-10
-0.0007742632
4.0776938e-10
-0.00074535913
-1.8574207e-05
5.3009763e-07
5.1322172e-07
4.1655087e-06
3.8520489e-06
1.9431642e-06
6.3526866e-06
1.0684906e-05
3.8078279e-06
-1.5498212e-05
1.6799038e-05
4.8631972e-06
-9.537074e-05
1.7543082e-05
3.154128e-06
-0.00026088295
1.0792477e-05
-1.7321732e-06
-0.00048760728
-9.6278907e-07
-7.6770239e-06
-0.00068596625
-1.2351298e-05
-1.194819e-05
-0.00077426317
-1.3462217e-05
-0.00074535912
-1.8574268e-05
4.9456777e-07
8.8534822e-07
4.0527682e-06
3.6039599e-06
3.3389113e-06
5.9916034e-06
9.9226176e-06
6.4858176e-06
-1.6028828e-05
1.5624469e-05
8.1032033e-06
-9.5685995e-05
1.6121879e-05
4.7339457e-06
-0.00026042738
9.4863387e-06
-4.4824512e-06
-0.00048622665
-1.9318576e-06
-1.5573309e-05
-0.00068423945
-1.2902143e-05
-2.3566918e-05
-0.00077290487
-2.639356e-05
-0.0007445877
-1.8765067e-05
4.2365197e-07
1.0619783e-06
3.8876043e-06
3.1708651e-06
3.9604683e-06
5.5071251e-06
8.6716875e-06
7.5530896e-06
-1.6599586e-05
1.3615106e-05
9.0201655e-06
-9.5596041e-05
1.3675033e-05
4.0050824e-06
-0.00025870506
7.1420804e-06
-8.5739124e-06
-0.00048272956
-3.6567316e-06
-2.3559762e-05
-0.00068020026
-1.3883743e-05
-3.4252351e-05
-0.00076973384
-3.7927595e-05
-0.00074266713
-1.9122117e-05
3.4381911e-07
1.0612592e-06
3.620583e-06
2.687444e-06
3.8884978e-06
4.7265823e-06
7.2931355e-06
7.204325e-06
-1.7505257e-05
1.1255478e-05
7.9485629e-06
-9.5384809e-05
1.0621262e-05
1.5444809e-06
-0.00025571442
4.1401714e-06
-1.3216964e-05
-0.00047657855
-5.9734393e-06
-3.0443255e-05
-0.00067277619
-1.5221443e-05
-4.2619346e-05
-0.00076337976
-4.6595643e-05
-0.00073815512
-1.9625348e-05
2.6300282e-07
9.3982104e-07
3.3045014e-06
2.2025753e-06
3.3506524e-06
3.8582672e-06
5.9703073e-06
5.932003e-06
-1.8313038e-05
8.7906885e-06
5.7030624e-06
-9.4383337e-05
7.2836421e-06
-1.708998e-06
-0.00025062578
6.4926458e-07
-1.7396042e-05
-0.00046686894
-8.7830413e-06
-3.5268582e-05
-0.00066101827
-1.6910642e-05
-4.7707323e-05
-0.00075283388
-5.1396477e-05
-0.00072995656
-2.0363251e-05
1.8806905e-07
7.5137611e-07
2.9575379e-06
1.7429035e-06
2.5654228e-06
2.985126e-06
4.6855173e-06
4.2024332e-06
-1.8817519e-05
6.3869735e-06
2.9726767e-06
-9.2204481e-05
3.9482143e-06
-4.9284013e-06
-0.00024281991
-3.0094851e-06
-2.0282162e-05
-0.00045271531
-1.1885043e-05
-3.7440197e-05
-0.00064376082
-1.8894432e-05
-4.9183615e-05
-0.00073669768
-5.2142867e-05
-0.00071650784
-2.1383927e-05
1.2249662e-07
5.4349146e-07
2.5767779e-06
1.3231642e-06
1.727666e-06
2.0967567e-06
3.5006047e-06
2.4333966e-06
-1.9027904e-05
4.1610594e-06
4.0749081e-07
-8.8810716e-05
7.8962484e-07
-7.4181154e-06
-0.00023208721
-6.5610683e-06
-2.1484069e-05
-0.00043353856
-1.503173e-05
-3.6911073e-05
-0.00061990131
-2.1063804e-05
-4.7273983e-05
-0.00071334378
-4.9210946e-05
-0.00069585637
-2.2672259e-05
6.5193561e-08
3.5661506e-07
2.1333612e-06
9.3806269e-07
9.9657062e-07
1.0840517e-06
2.4230675e-06
9.5194462e-07
-1.9154913e-05
2.2098553e-06
-1.5600423e-06
-8.4447627e-05
-1.939003e-06
-8.7838696e-06
-0.00021848687
-9.6272235e-06
-2.0909523e-05
-0.00040884563
-1.7787259e-05
-3.398712e-05
-0.00058812724
-2.3065412e-05
-4.2562849e-05
-0.00068071765
-4.3405418e-05
-0.00066552768
-2.399446e-05
1.8300188e-08
2.1726242e-07
1.6638724e-06
5.9672351e-07
4.8221747e-07
6.2546302e-08
1.4603799e-06
-4.9525868e-09
-1.9017522e-05
4.7730945e-07
-2.5712434e-06
-7.8926998e-05
-4.3000236e-06
-8.7579224e-06
-0.00020181271
-1.2206967e-05
-1.8628988e-05
-0.00037817138
-2.0030842e-05
-2.9184801e-05
-0.00054731189
-2.4611028e-05
-3.5916239e-05
-0.00063689228
-3.5737584e-05
-0.00062309029
-2.5000913e-05
-1.4367736e-08
1.3732503e-07
1.1976445e-06
3.2425833e-07
2.3126619e-07
-8.5891517e-07
6.8602745e-07
-3.3812547e-07
-1.8393478e-05
-8.4358075e-07
-2.5058851e-06
-7.1867156e-05
-5.9637886e-06
-7.2905935e-06
-0.00018139854
-1.3892869e-05
-1.4773998e-05
-0.0003402609
-2.1376224e-05
-2.2915271e-05
-0.00049529762
-2.5283738e-05
-2.8141912e-05
-0.00057893976
-2.725571e-05
-0.00056543307
-2.5159854e-05
-3.9783385e-08
1.2652135e-07
7.4322284e-07
9.9427394e-08
2.7119729e-07
-1.655331e-06
8.2672604e-08
-2.2896282e-08
-1.723512e-05
-1.7099702e-06
-1.3999166e-06
-6.3138467e-05
-6.7381684e-06
-4.5390463e-06
-0.00015682157
-1.4311811e-05
-9.5999537e-06
-0.00029396672
-2.1411188e-05
-1.5427788e-05
-0.00042983437
-2.4890533e-05
-1.9539843e-05
-0.00050375567
-1.8887942e-05
-0.00048936277
-2.4181779e-05
-4.4790614e-08
4.3681323e-07
1.7524408e-07
1.3412942e-08
-1.7945541e-06
5.2733763e-07
-8.7806809e-08
-1.4427687e-05
7.2466138e-07
-1.6606807e-06
-5.0974707e-05
3.601406e-07
-6.012684e-06
-0.000125773
-9.9745098e-07
-1.2754501e-05
-0.00023649628
-3.5824087e-06
-1.9370407e-05
-0.00034748565
-7.0437659e-06
-2.3082452e-05
-0.00040751184
-9.9649409e-06
-0.0003913387
-1.1000082e-05
-2.2276171e-05
-7.1168186e-08
-2.8054372e-07
6.5210028e-07
1.3642492e-07
-4.9805962e-07
-1.3057478e-06
-7.4137835e-07
6.7945263e-07
-1.427769e-06
-3.4356309e-06
-1.1952541e-05
1.8901595e-06
-2.5417553e-06
-7.3070982e-06
-4.6795878e-05
4.2421927e-06
-3.1473059e-06
-1.3458627e-05
-0.00011994401
8.2351093e-06
-2.4671029e-06
-2.1888597e-05
-0.00022933632
1.4048354e-05
4.3681394e-08
-3.1572311e-05
-0.0003395263
2.1102106e-05
4.3980437e-06
-4.0307227e-05
-0.00039947677
2.791776e-05
-4.5271401e-05
-0.00038413603
3.288326e-05
9.5834957e-06
-8.5571089e-08
-4.3188059e-07
9.8012264e-07
-5.8979796e-07
-1.9761607e-06
-4.8072859e-07
-1.6581302e-06
-5.0907928e-06
-1.4511711e-05
-2.8828757e-06
-1.0538469e-05
-5.8682479e-05
-3.4973212e-06