/*--------------------------------*- C++ -*----------------------------------*\
| =========                 |                                                 |
| \\      /  F ield         | OpenFOAM: The Open Source CFD Toolbox           |
|  \\    /   O peration     | Version:  2406                                  |
|   \\  /    A nd           | Website:  www.openfoam.com                      |
|    \\/     M anipulation  |                                                 |
\*---------------------------------------------------------------------------*/
FoamFile
{
    version     2.0;
    format      ascii;
    arch        "LSB;label=32;scalar=64";
    class       volVectorField;
    location    "20";
    object      U;
}
// * * * * * * * * * * * * * * * * * * * * * * * * * * * * * * * * * * * * * //

dimensions      [0 1 -1 0 0 0 0];

internalField   nonuniform List<vector> 
34560
(
(-0.012261325 0.0035428616 0.012807836)
(-0.062820424 0.013550188 0.045864126)
(-0.16613404 0.028690363 0.092962166)
(-0.34573665 0.046964029 0.15335931)
(-0.603899 0.064219338 0.21633086)
(-0.90403009 0.076622587 0.26588815)
(-1.1872139 0.086907032 0.29151382)
(-1.4091523 0.10191357 0.29376037)
(-1.5508892 0.12061428 0.28076767)
(-0.010331576 0.0053371341 0.015432756)
(-0.06298064 0.020066163 0.054742266)
(-0.17949013 0.041473428 0.10961171)
(-0.38638951 0.065846501 0.1772899)
(-0.67757934 0.086321055 0.24303606)
(-0.99925223 0.09878503 0.28902558)
(-1.282746 0.10873782 0.30725615)
(-1.4881203 0.12451092 0.30190244)
(-1.6107542 0.1449158 0.28214858)
(-0.0054761385 0.0055357923 0.016417368)
(-0.054141129 0.02217051 0.058822742)
(-0.17762771 0.047463802 0.11845547)
(-0.40652709 0.076886819 0.19140557)
(-0.7254394 0.10071628 0.25939809)
(-1.0623518 0.11419082 0.30309943)
(-1.3417359 0.12497076 0.31665988)
(-1.5318075 0.14219677 0.30695946)
(-1.6401313 0.16457909 0.28437063)
(0.002050137 0.0057276664 0.017359733)
(-0.03666528 0.023788331 0.062257325)
(-0.16052905 0.051820541 0.12540167)
(-0.40513718 0.084475802 0.20138461)
(-0.74584049 0.11073586 0.27018871)
(-1.0938768 0.12531925 0.31167651)
(-1.3684377 0.13742196 0.3225244)
(-1.5463807 0.15616193 0.31137203)
(-1.6431362 0.18098939 0.28879312)
(0.012618373 0.0050028819 0.017690472)
(-0.0091994652 0.022684161 0.063665671)
(-0.12571778 0.051803691 0.12868617)
(-0.38006387 0.086831502 0.20666591)
(-0.73820625 0.11472046 0.27532129)
(-1.0949772 0.13100061 0.31615228)
(-1.365985 0.14550118 0.32707681)
(-1.5325844 0.16731944 0.31749906)
(-1.6165136 0.19347563 0.29684447)
(0.026482505 0.0032924984 0.017536509)
(0.029355589 0.018428857 0.063410591)
(-0.07086217 0.046341226 0.12905249)
(-0.32804133 0.082264611 0.20839633)
(-0.70063756 0.11232855 0.27842178)
(-1.0648221 0.13137802 0.32069495)
(-1.3297719 0.14911187 0.33406067)
(-1.4837441 0.17314707 0.3275666)
(-1.5552212 0.20042826 0.31019525)
(0.044061659 0.00069624906 0.017248532)
(0.080649245 0.011235784 0.062638388)
(0.0077832186 0.03558169 0.12856646)
(-0.24286086 0.070597737 0.20964743)
(-0.62426026 0.10233369 0.2823085)
(-0.99306845 0.12484152 0.3284221)
(-1.2509127 0.14643899 0.3467055)
(-1.3919913 0.17304241 0.34517437)
(-1.4508246 0.20111046 0.33191528)
(0.065819347 -0.0027667335 0.016937129)
(0.14636668 0.001309317 0.062191319)
(0.11382477 0.019926045 0.12907076)
(-0.1182965 0.052346821 0.21372659)
(-0.5017134 0.085361408 0.29191865)
(-0.87136061 0.11164067 0.3449625)
(-1.1196798 0.13703209 0.37054976)
(-1.2461625 0.16548535 0.37508759)
(-1.2913792 0.19349405 0.36589603)
(0.091308005 -0.0063144343 0.017012498)
(0.225853 -0.0093322019 0.063369295)
(0.24650424 0.0022372566 0.13313584)
(0.045946566 0.030270352 0.22479968)
(-0.33043227 0.063181948 0.31252435)
(-0.69436524 0.092137612 0.37581263)
(-0.92808199 0.11987379 0.41066652)
(-1.0364647 0.1485709 0.42149759)
(-1.0664671 0.17474274 0.41555439)
(0.11842546 -0.0085419339 0.017814916)
(0.31225111 -0.016968687 0.066865461)
(0.39377526 -0.012071584 0.14243578)
(0.23647282 0.0099255743 0.24536264)
(-0.12215843 0.039684596 0.3465368)
(-0.47087007 0.067938027 0.422601)
(-0.68259975 0.094575972 0.46767576)
(-0.76851387 0.12003933 0.48433532)
(-0.78174551 0.14243301 0.47974212)
(0.14272513 -0.0076999998 0.019161837)
(0.39061072 -0.016826513 0.072004836)
(0.52858639 -0.016024999 0.15583555)
(0.41754284 -0.0018018445 0.27146126)
(0.084249906 0.01968246 0.38747992)
(-0.24133668 0.041042903 0.47652489)
(-0.42603175 0.061040124 0.53106861)
(-0.48823331 0.07904988 0.55219917)
(-0.48420017 0.094687805 0.54704966)
(0.15754643 -0.0030902077 0.02025849)
(0.43893865 -0.0069540406 0.075873481)
(0.61275064 -0.0070598836 0.16652506)
(0.53324678 -0.0020757662 0.29070781)
(0.21961732 0.005886233 0.41712678)
(-0.087406389 0.014041518 0.5148886)
(-0.25139077 0.021956502 0.57559737)
(-0.29951567 0.02776244 0.59846628)
(-0.28275039 0.033913746 0.59265363)
(0.15754639 0.0030900209 0.020258481)
(0.43893849 0.0069533821 0.075873492)
(0.61275031 0.0070586461 0.16652504)
(0.5332463 0.0020740086 0.29070786)
(0.21961681 -0.0058881338 0.41712687)
(-0.087406794 -0.014043253 0.51488871)
(-0.25139097 -0.021957957 0.57559748)
(-0.29951573 -0.027763622 0.59846644)
(-0.28275032 -0.03391453 0.59265382)
(0.14272501 0.007699801 0.019161832)
(0.39061029 0.016825841 0.072004948)
(0.52858558 0.016023745 0.15583566)
(0.41754167 0.0018000713 0.27146151)
(0.084248686 -0.019684371 0.3874802)
(-0.24133766 -0.041044648 0.47652523)
(-0.42603227 -0.061041645 0.531069)
(-0.48823343 -0.079050984 0.55219958)
(-0.48420004 -0.094688585 0.54705011)
(0.1184253 0.0085417018 0.017814929)
(0.31225058 0.01696804 0.066865628)
(0.3937743 0.012070435 0.14243608)
(0.23647144 -0.0099271834 0.2453631)
(-0.12215991 -0.039686366 0.34653726)
(-0.47087129 -0.067939664 0.42260158)
(-0.68260049 -0.094577371 0.46767641)
(-0.76851409 -0.12004049 0.48433589)
(-0.78174543 -0.14243385 0.47974271)
(0.091307853 0.0063142177 0.017012555)
(0.2258525 0.0093316013 0.063369392)
(0.2465033 -0.0022382548 0.13313631)
(0.04594524 -0.030271691 0.22480037)
(-0.3304337 -0.063183425 0.31252506)
(-0.69436649 -0.09213898 0.37581346)
(-0.92808284 -0.11987497 0.41066738)
(-1.036465 -0.14857203 0.42149829)
(-1.066467 -0.17474375 0.41555517)
(0.065819223 0.0027665225 0.01693729)
(0.14636626 -0.0013100017 0.062191527)
(0.11382395 -0.019927013 0.12907146)
(-0.11829762 -0.052347948 0.21372749)
(-0.50171462 -0.085362507 0.29191956)
(-0.87136172 -0.11164166 0.34496346)
(-1.1196806 -0.13703298 0.37055075)
(-1.2461627 -0.16548635 0.3750885)
(-1.2913793 -0.19349523 0.36589709)
(0.044061572 -0.00069641083 0.017248738)
(0.080648936 -0.011236405 0.06263857)
(0.0077826209 -0.035582515 0.12856697)
(-0.24286173 -0.070598588 0.2096482)
(-0.62426125 -0.10233435 0.28230935)
(-0.99306927 -0.12484213 0.32842307)
(-1.2509132 -0.14643962 0.34670658)
(-1.3919916 -0.17304323 0.3451755)
(-1.450825 -0.2011116 0.33191649)
(0.026482439 -0.003292615 0.017536546)
(0.029355357 -0.018429206 0.063410701)
(-0.070862622 -0.046341748 0.12905284)
(-0.32804199 -0.082265072 0.20839688)
(-0.70063827 -0.11232896 0.27842255)
(-1.0648226 -0.13137838 0.32069601)
(-1.3297722 -0.14911224 0.33406176)
(-1.4837446 -0.17314767 0.32756774)
(-1.5552216 -0.20042925 0.31019637)
(0.012618317 -0.0050029471 0.017690556)
(-0.009199662 -0.022684402 0.063665851)
(-0.12571816 -0.05180414 0.12868641)
(-0.38006436 -0.086831876 0.20666646)
(-0.73820678 -0.11472088 0.27532224)
(-1.0949776 -0.13100088 0.31615314)
(-1.3659854 -0.14550147 0.3270777)
(-1.532585 -0.16731982 0.31750007)
(-1.6165138 -0.19347633 0.29684548)
(0.0020501017 -0.0057276971 0.017359767)
(-0.036665404 -0.02378841 0.062257439)
(-0.1605293 -0.051820769 0.12540186)
(-0.40513759 -0.084476104 0.20138512)
(-0.74584108 -0.11073618 0.27018924)
(-1.0938775 -0.12531957 0.31167693)
(-1.3684382 -0.13742223 0.32252493)
(-1.5463812 -0.15616249 0.31137274)
(-1.6431363 -0.18098988 0.28879383)
(-0.0054761775 -0.005535797 0.016417359)
(-0.05414126 -0.022170469 0.058822766)
(-0.17762797 -0.047463852 0.11845549)
(-0.40652749 -0.076886982 0.19140561)
(-0.7254399 -0.10071637 0.25939814)
(-1.0623523 -0.11419114 0.30309958)
(-1.3417364 -0.12497116 0.31666029)
(-1.5318079 -0.14219707 0.30695958)
(-1.6401319 -0.16458003 0.2843714)
(-0.010331616 -0.0053371164 0.015432757)
(-0.062980765 -0.02006613 0.054742223)
(-0.17949036 -0.041473447 0.10961158)
(-0.38638985 -0.065846633 0.17728971)
(-0.67757977 -0.08632125 0.24303604)
(-0.99925274 -0.098785273 0.28902559)
(-1.2827465 -0.10873849 0.30725574)
(-1.4881205 -0.12451193 0.30190285)
(-1.6107549 -0.14491696 0.28215012)
(-0.012261372 -0.0035428499 0.01280785)
(-0.062820568 -0.013550205 0.04586411)
(-0.16613429 -0.028690386 0.092962111)
(-0.34573699 -0.046964059 0.1533592)
(-0.60389946 -0.064219495 0.21633063)
(-0.90403063 -0.076622846 0.26588776)
(-1.1872142 -0.086907414 0.29151415)
(-1.4091527 -0.10191471 0.29376132)
(-1.5508897 -0.12061505 0.28076855)
(0.011841007 0.00069000314 0.00046999913)
(0.020525697 0.001594135 0.00070819084)
(0.0015146729 0.0017851767 -0.00071893775)
(-0.064469696 -0.00016437408 -0.0048098826)
(-0.19133292 -0.0059081396 -0.012050545)
(-0.37362889 -0.016089163 -0.02114092)
(-0.57837561 -0.029366694 -0.02947737)
(-0.76033787 -0.043408382 -0.035286764)
(-0.88426881 -0.057239781 -0.037767007)
(0.014445843 -0.00035143804 -0.00052829812)
(0.024970204 -0.0017954775 -0.0025381803)
(0.0023614292 -0.0044227433 -0.006907775)
(-0.07426153 -0.0095666912 -0.014301357)
(-0.21683199 -0.018655156 -0.024351762)
(-0.41344996 -0.031834755 -0.034623817)
(-0.62379276 -0.047175614 -0.042189154)
(-0.8007771 -0.062162796 -0.046047384)
(-0.91692451 -0.075529223 -0.047144445)
(0.017737948 -0.0016387592 -0.0014960496)
(0.031767997 -0.005918531 -0.005737069)
(0.0078579936 -0.011821257 -0.013060955)
(-0.076283767 -0.020323545 -0.023623926)
(-0.23051733 -0.032336762 -0.035943442)
(-0.43681708 -0.047418539 -0.046534356)
(-0.64885293 -0.063435783 -0.052678202)
(-0.81980512 -0.07833769 -0.054650465)
(-0.92957347 -0.091351447 -0.054154183)
(0.020897658 -0.0033447856 -0.0024975584)
(0.038465677 -0.011212644 -0.0090189946)
(0.013828952 -0.021009044 -0.019348148)
(-0.076424627 -0.033079108 -0.033036111)
(-0.24006916 -0.047641999 -0.047334542)
(-0.4535068 -0.063790239 -0.057812373)
(-0.66555131 -0.079634377 -0.062314964)
(-0.83050005 -0.093984231 -0.062432938)
(-0.93484133 -0.10665156 -0.060490575)
(0.023950361 -0.0053068835 -0.0033734664)
(0.045110018 -0.017221501 -0.011916944)
(0.020213151 -0.03126083 -0.024991095)
(-0.075225636 -0.046913623 -0.041541875)
(-0.24708745 -0.063597491 -0.05752766)
(-0.46669209 -0.080157954 -0.067718479)
(-0.67867925 -0.095332192 -0.070687055)
(-0.83849556 -0.10882267 -0.069214705)
(-0.93805417 -0.1208298 -0.066100535)
(0.026878405 -0.0074358457 -0.0039977473)
(0.051642714 -0.023631766 -0.014034101)
(0.026874157 -0.041966611 -0.029335587)
(-0.07305002 -0.060905489 -0.048318308)
(-0.25246345 -0.079074571 -0.065684097)
(-0.47811989 -0.09537143 -0.075508057)
(-0.69083954 -0.10943574 -0.077195078)
(-0.84679162 -0.12177406 -0.074564538)
(-0.94225914 -0.13275709 -0.070652189)
(0.02959857 -0.009540347 -0.0043285157)
(0.057888618 -0.029801554 -0.015197393)
(0.033629844 -0.051968707 -0.031985444)
(-0.070095255 -0.073477206 -0.052746772)
(-0.25656466 -0.092311768 -0.071108098)
(-0.48848134 -0.10772428 -0.080580488)
(-0.70302806 -0.12034036 -0.081357178)
(-0.85658335 -0.13125365 -0.078048264)
(-0.94875496 -0.14081642 -0.073719134)
(0.032330213 -0.011165775 -0.0042313249)
(0.064500015 -0.034381339 -0.015015384)
(0.041480519 -0.059101411 -0.032330221)
(-0.0652105 -0.081896972 -0.05400832)
(-0.25842899 -0.1003982 -0.072987604)
(-0.4971427 -0.11442855 -0.082269446)
(-0.71478818 -0.12542565 -0.082630326)
(-0.86732 -0.13479539 -0.079233426)
(-0.95689878 -0.14283088 -0.074941337)
(0.035168896 -0.011798815 -0.0036901251)
(0.07177855 -0.035886263 -0.013440405)
(0.05081192 -0.060960424 -0.030235943)
(-0.057920239 -0.083178193 -0.051957629)
(-0.25731298 -0.1001866 -0.071159596)
(-0.50305628 -0.11230634 -0.080383009)
(-0.72475614 -0.12156303 -0.080793475)
(-0.87752998 -0.12927244 -0.077784698)
(-0.96542302 -0.13548708 -0.073822951)
(0.038084345 -0.010797368 -0.0027568165)
(0.079655391 -0.032498895 -0.010627665)
(0.061817925 -0.054598779 -0.025853856)
(-0.048467786 -0.073727534 -0.047014464)
(-0.25341112 -0.087835881 -0.065946392)
(-0.50588886 -0.097522758 -0.075211969)
(-0.73184635 -0.10474658 -0.076016109)
(-0.88541615 -0.11052117 -0.073745996)
(-0.97209467 -0.11486717 -0.070379514)
(0.040622725 -0.0077744683 -0.0017441024)
(0.086811034 -0.023189854 -0.0075533923)
(0.072368912 -0.038614312 -0.020872443)
(-0.039020296 -0.051756686 -0.041017538)
(-0.24809163 -0.061246373 -0.059333634)
(-0.50579855 -0.067616394 -0.068633207)
(-0.73515674 -0.072290972 -0.069944983)
(-0.88947692 -0.075880777 -0.068486347)
(-0.97527872 -0.078411951 -0.065765179)
(0.042308412 -0.0028571927 -0.0010987701)
(0.091728824 -0.0084774672 -0.005576952)
(0.079936957 -0.014034608 -0.017550886)
(-0.03193033 -0.018736208 -0.036864831)
(-0.24331702 -0.022117531 -0.054630884)
(-0.5041414 -0.024373741 -0.063914162)
(-0.73560946 -0.026006714 -0.065574549)
(-0.89050944 -0.02721706 -0.064639204)
(-0.975824 -0.028034622 -0.062327389)
(0.04230841 0.0028572559 -0.001098776)
(0.091728816 0.0084776638 -0.0055769609)
(0.079936942 0.014034936 -0.017550922)
(-0.031930344 0.018736668 -0.03686484)
(-0.24331703 0.022118103 -0.054630859)
(-0.50414139 0.024374328 -0.06391412)
(-0.73560944 0.026007232 -0.06557451)
(-0.89050944 0.027217506 -0.064639181)
(-0.97582405 0.028035072 -0.062327373)
(0.040622715 0.0077745209 -0.0017441155)
(0.086811008 0.023190029 -0.0075533868)
(0.072368875 0.03861459 -0.020872469)
(-0.039020317 0.051757044 -0.041017501)
(-0.24809163 0.061246823 -0.059333557)
(-0.50579852 0.067616887 -0.068633105)
(-0.73515669 0.072291437 -0.069944894)
(-0.88947692 0.07588119 -0.068486305)
(-0.97527885 0.078412387 -0.065765142)
(0.038084332 0.010797383 -0.0027568278)
(0.079655361 0.032499009 -0.010627629)
(0.061817895 0.054598984 -0.025853794)
(-0.048467778 0.073727797 -0.047014332)
(-0.25341108 0.087836226 -0.06594628)
(-0.50588879 0.097523169 -0.075211849)
(-0.73184629 0.104747 -0.076016013)
(-0.88541615 0.11052153 -0.07374597)
(-0.9720948 0.11486753 -0.070379457)
(0.035168882 0.011798812 -0.0036901264)
(0.071778513 0.035886335 -0.01344039)
(0.050811887 0.060960589 -0.03023583)
(-0.057920222 0.08317844 -0.051957436)
(-0.25731291 0.10018693 -0.071159458)
(-0.50305617 0.11230674 -0.080382885)
(-0.72475607 0.12156346 -0.08079339)
(-0.87752993 0.12927276 -0.077784685)
(-0.96542309 0.13548733 -0.073822847)
(0.032330198 0.011165758 -0.0042312889)
(0.064499973 0.034381334 -0.015015318)
(0.041480481 0.0591015 -0.03233002)
(-0.065210483 0.081897194 -0.054008041)
(-0.25842891 0.10039855 -0.072987409)
(-0.49714258 0.114429 -0.082269319)
(-0.71478806 0.1254261 -0.08263025)
(-0.86731988 0.13479571 -0.079233415)
(-0.95689878 0.14283107 -0.074941211)
(0.029598563 0.009540328 -0.0043284652)
(0.057888597 0.029801516 -0.015197346)
(0.033629822 0.051968752 -0.031985311)
(-0.07009524 0.073477426 -0.052746569)
(-0.25656459 0.092312184 -0.071107977)
(-0.48848121 0.10772479 -0.080580413)
(-0.70302786 0.12034085 -0.081357132)
(-0.85658317 0.13125401 -0.078048296)
(-0.94875493 0.1408166 -0.073719114)
(0.026878396 0.0074358269 -0.0039977301)
(0.05164269 0.02363176 -0.014034067)
(0.026874125 0.041966675 -0.029335514)
(-0.073050032 0.06090575 -0.048318216)
(-0.25246342 0.079074999 -0.065684022)
(-0.47811976 0.09537198 -0.075507986)
(-0.69083933 0.10943628 -0.077195094)
(-0.84679147 0.12177446 -0.074564676)
(-0.94225907 0.13275719 -0.07065233)
(0.023950349 0.0053068697 -0.0033734544)
(0.045109984 0.01722152 -0.011916916)
(0.020213098 0.031260862 -0.024991134)
(-0.075225689 0.046913832 -0.041541826)
(-0.24708744 0.063597837 -0.057527545)
(-0.46669198 0.080158451 -0.067718511)
(-0.67867912 0.095332703 -0.070687207)
(-0.83849549 0.10882306 -0.069214939)
(-0.93805401 0.12082982 -0.066100751)
(0.020897643 0.0033447686 -0.0024975519)
(0.038465636 0.011212672 -0.0090189586)
(0.013828887 0.021009064 -0.01934814)
(-0.076424699 0.033079232 -0.033036009)
(-0.2400692 0.04764229 -0.047334558)
(-0.45350682 0.063790637 -0.057812606)
(-0.66555127 0.079634787 -0.062315286)
(-0.83049999 0.093984408 -0.062433283)
(-0.93484112 0.10665151 -0.060491021)
(0.017737923 0.001638748 -0.0014960509)
(0.031767928 0.0059185869 -0.0057370515)
(0.0078578863 0.011821313 -0.013061001)
(-0.076283903 0.020323653 -0.023624052)
(-0.23051747 0.032337059 -0.035943708)
(-0.4368172 0.047418865 -0.046534763)
(-0.64885299 0.063436007 -0.052678609)
(-0.8198051 0.078337781 -0.054651106)
(-0.92957343 0.091351213 -0.054154869)
(0.014445809 0.00035143756 -0.00052829616)
(0.024970108 0.0017955334 -0.0025381965)
(0.002361277 0.0044228345 -0.0069078877)
(-0.074261725 0.0095668408 -0.014301603)
(-0.2168322 0.018655404 -0.024352086)
(-0.41345014 0.031835038 -0.034624248)
(-0.62379289 0.047175626 -0.042189864)
(-0.80077712 0.062162385 -0.046048096)
(-0.91692453 0.075528673 -0.047144867)
(0.011840965 -0.00068999583 0.00047000257)
(0.020525576 -0.0015941118 0.00070815792)
(0.0015144799 -0.0017851036 -0.0007190436)
(-0.064469936 0.00016454599 -0.0048100994)
(-0.19133317 0.0059083831 -0.012050942)
(-0.37362913 0.016089372 -0.021141585)
(-0.57837573 0.02936676 -0.029478017)
(-0.76033791 0.043408001 -0.035287746)
(-0.88426885 0.057239349 -0.037767505)
(-0.0015891782 -9.9224614e-05 -8.7170771e-05)
(-0.01974489 -0.00018924237 -0.0001682509)
(-0.067291099 -0.0001207791 -0.00012665701)
(-0.15985361 6.732223e-05 0.00015304003)
(-0.30795774 0.00022352381 0.00084690996)
(-0.50536492 0.00021357071 0.0020553687)
(-0.72082907 7.9531929e-05 0.0035600693)
(-0.91121146 2.3637793e-05 0.0047401034)
(-1.0411177 -5.892053e-05 0.0050288457)
(-0.00077869783 -7.4362602e-05 -5.4411777e-05)
(-0.020054316 -7.2548573e-05 -6.4866495e-05)
(-0.073428391 0.00015509884 6.2863394e-05)
(-0.17768169 0.00057458563 0.00047590615)
(-0.34155826 0.0010238757 0.0013915187)
(-0.55305776 0.0013390704 0.0028700389)
(-0.77382797 0.0014974073 0.0045428354)
(-0.95853781 0.0016021165 0.0057120593)
(-1.0798775 0.0015835068 0.0057124182)
(0.00067466789 -0.0001071681 -7.0185564e-05)
(-0.018021527 -0.00012582272 -0.00011453697)
(-0.074687919 0.00015771741 -2.4893847e-05)
(-0.18701986 0.00075579351 0.00039114067)
(-0.36195186 0.0015177273 0.0014196868)
(-0.58212214 0.0022215082 0.0030918381)
(-0.80349166 0.0027226914 0.0049218921)
(-0.98095225 0.0030210376 0.0061792309)
(-1.0946978 0.0031303935 0.0062797941)
(0.0021325198 -0.00017268078 -0.00010100619)
(-0.015633772 -0.00028551464 -0.00022105329)
(-0.074589984 -2.7459019e-05 -0.00023129969)
(-0.19304726 0.00069172385 0.00010518816)
(-0.37608701 0.0017586236 0.001150429)
(-0.60151354 0.0028803118 0.0029267549)
(-0.82085629 0.0037588733 0.0048819988)
(-0.99036492 0.0042985426 0.0063029639)
(-1.0969268 0.0045670253 0.006606436)
(0.0036448537 -0.00027465176 -0.00014289658)
(-0.012813534 -0.00055994126 -0.00036855503)
(-0.073194305 -0.00040939044 -0.00052580148)
(-0.19630525 0.00037012617 -0.00033456532)
(-0.3854862 0.0017244092 0.00064748141)
(-0.61420445 0.0032806399 0.0024562597)
(-0.83033089 0.004565984 0.0045132834)
(-0.99177576 0.0053680918 0.0061168431)
(-1.0912808 0.0057719823 0.0066472943)
(0.0051252449 -0.0003995009 -0.00017946426)
(-0.0098278033 -0.00091242881 -0.00050757756)
(-0.070988024 -0.00093478015 -0.00082888249)
(-0.19759773 -0.00015649263 -0.00083363625)
(-0.391429 0.0014409117 2.29177e-06)
(-0.62215591 0.0034145798 0.0017617535)
(-0.83457504 0.0050687364 0.0038565518)
(-0.98829445 0.006090172 0.0056139766)
(-1.0810285 0.0066202278 0.0064140572)
(0.0064871419 -0.00052611152 -0.00020063136)
(-0.0069080063 -0.0012812716 -0.00060612249)
(-0.068323723 -0.001508009 -0.0010840113)
(-0.19737095 -0.00078660408 -0.0013145657)
(-0.39452881 0.00096267298 -0.00070862634)
(-0.62632001 0.0032247598 0.00088500318)
(-0.83506387 0.0051640693 0.0029614897)
(-0.98183139 0.0063595456 0.0048739681)
(-1.0683685 0.0069738383 0.0059649715)
(0.0078711606 -0.00062837295 -0.00019921981)
(-0.0036883171 -0.0015932386 -0.00064202828)
(-0.064692869 -0.0020228484 -0.0012555302)
(-0.19515418 -0.0014205734 -0.0017330322)
(-0.39461936 0.00034822226 -0.0014231447)
(-0.62704442 0.0027523705 -6.0848067e-05)
(-0.83260005 0.004824248 0.0019519386)
(-0.97354652 0.0060976413 0.0040055806)
(-1.0547588 0.0067445007 0.0053781172)
(0.0092636863 -0.00067376043 -0.00017321161)
(-0.00023219559 -0.0017531344 -0.00060578059)
(-0.060270598 -0.0023279644 -0.0013179338)
(-0.19134072 -0.0018728488 -0.0020347149)
(-0.39233677 -0.00021260494 -0.0020438578)
(-0.62501299 0.002075491 -0.00096217981)
(-0.82803216 0.0040723439 0.0009455738)
(-0.96443322 0.0053007477 0.0031146154)
(-1.0413805 0.0059012312 0.0047316808)
(0.010544775 -0.00062668788 -0.00012626083)
(0.0030713881 -0.0016574648 -0.00050650085)
(-0.055762701 -0.002263016 -0.0012825401)
(-0.18685821 -0.0019646751 -0.0022196665)
(-0.38866945 -0.00060030669 -0.0025331057)
(-0.62143505 0.0013295153 -0.0017270512)
(-0.82255817 0.0030179545 6.773718e-05)
(-0.95564257 0.0040464028 0.0023130561)
(-1.029432 0.0045330555 0.0041238728)
(0.011438011 -0.00045504712 -7.3228749e-05)
(0.0054184255 -0.0012148271 -0.0003837776)
(-0.052445017 -0.0016856173 -0.0011962916)
(-0.18333211 -0.0015258331 -0.0023052525)
(-0.38542713 -0.00062165811 -0.0028620241)
(-0.61800731 0.00068237054 -0.0022741525)
(-0.81770887 0.0018198341 -0.00057650656)
(-0.94855714 0.0025104037 0.0017081437)
(-1.0202556 0.0028262475 0.0036549513)
(0.012040868 -0.0001687335 -3.8911285e-05)
(0.007036387 -0.00045310078 -0.0003030666)
(-0.050093997 -0.00063350091 -0.0011349585)
(-0.1807537 -0.00058137196 -0.0023393665)
(-0.38299538 -0.00025731113 -0.0030271411)
(-0.61557451 0.00020832482 -0.0025615152)
(-0.81466851 0.00061064691 -0.00091846695)
(-0.94448596 0.0008523097 0.0013841983)
(-1.0151908 0.0009594906 0.0034031896)
(0.012040864 0.00016870828 -3.8912605e-05)
(0.0070363772 0.00045304765 -0.00030305766)
(-0.050094013 0.00063342984 -0.0011349563)
(-0.18075372 0.00058130851 -0.0023393532)
(-0.3829954 0.00025729019 -0.0030271209)
(-0.61557453 -0.00020830434 -0.0025614918)
(-0.81466852 -0.00061060321 -0.00091844287)
(-0.94448597 -0.00085224266 0.001384221)
(-1.0151908 -0.00095937128 0.003403222)
(0.011438 0.00045501856 -7.3230485e-05)
(0.0054183948 0.0012147721 -0.00038375084)
(-0.052445064 0.0016855426 -0.0011962697)
(-0.18333217 0.0015257595 -0.0023052018)
(-0.3854272 0.00062162717 -0.0028619656)
(-0.61800737 -0.00068235139 -0.0022740909)
(-0.81770892 -0.0018197794 -0.000576446)
(-0.94855719 -0.0025103251 0.0017081995)
(-1.0202557 -0.0028261177 0.0036550372)
(0.01054476 0.00062665161 -0.00012625718)
(0.0030713451 0.0016574053 -0.0005064488)
(-0.055762766 0.0022629407 -0.0012824742)
(-0.18685828 0.0019646058 -0.0022195643)
(-0.38866952 0.00060028896 -0.0025330152)
(-0.62143512 -0.0013294696 -0.0017269678)
(-0.82255823 -0.0030178699 6.7813856e-05)
(-0.95564264 -0.0040463073 0.0023131186)
(-1.0294321 -0.0045329248 0.0041239867)
(0.0092636701 0.00067372284 -0.00017319994)
(-0.00023224648 0.0017530797 -0.00060571273)
(-0.060270675 0.0023279017 -0.0013178327)
(-0.19134081 0.0018728106 -0.0020345739)
(-0.39233685 0.00021263589 -0.0020437473)
(-0.62501305 -0.0020753838 -0.0009620874)
(-0.82803223 -0.0040722081 0.00094565086)
(-0.96443327 -0.0053006371 0.0031146579)
(-1.0413806 -0.0059011256 0.0047317954)
(0.0078711424 0.00062833373 -0.00019919572)
(-0.0036883749 0.0015931812 -0.00064193163)
(-0.064692958 0.0020227923 -0.001255392)
(-0.19515427 0.0014205724 -0.001732856)
(-0.39461945 -0.00034812286 -0.0014230153)
(-0.62704449 -0.0027521856 -6.0757435e-05)
(-0.83260011 -0.0048240554 0.0019520031)
(-0.97354656 -0.0060975311 0.0040055811)
(-1.0547589 -0.0067444551 0.0053781899)
(0.0064871258 0.0005260732 -0.00020060098)
(-0.006908059 0.0012812201 -0.00060602891)
(-0.068323812 0.0015079653 -0.0010838875)
(-0.19737106 0.00078664335 -0.0013144025)
(-0.39452892 -0.0009624941 -0.00070851314)
(-0.62632011 -0.0032244933 0.00088507763)
(-0.83506393 -0.0051638257 0.0029615257)
(-0.98183143 -0.0063594559 0.0048738977)
(-1.0683686 -0.0069738974 0.0059649445)
(0.005125226 0.00039946061 -0.0001794445)
(-0.0098278642 0.00091239101 -0.00050748836)
(-0.07098813 0.0009347545 -0.0008287675)
(-0.19759787 0.00015657461 -0.00083350474)
(-0.39142916 -0.0014406836 2.3826389e-06)
(-0.62215605 -0.0034142416 0.0017618136)
(-0.83457515 -0.0050684403 0.0038565427)
(-0.98829452 -0.0060901151 0.0056138055)
(-1.0810286 -0.0066204465 0.0064139021)
(0.0036448343 0.00027461153 -0.00014287432)
(-0.012813599 0.00055991409 -0.000368463)
(-0.073194424 0.00040936662 -0.00052572138)
(-0.19630542 -0.00037002954 -0.00033445502)
(-0.38548641 -0.0017241582 0.00064757414)
(-0.61420465 -0.0032802632 0.0024562549)
(-0.83033106 -0.0045656585 0.0045131858)
(-0.99177589 -0.0053680667 0.0061165599)
(-1.0912809 -0.0057723522 0.0066470224)
(0.0021324968 0.00017264289 -0.00010098684)
(-0.015633849 0.00028550041 -0.00022097539)
(-0.074590126 2.7460647e-05 -0.0002312239)
(-0.19304747 -0.00069160945 0.00010529549)
(-0.37608727 -0.0017583414 0.0011504469)
(-0.60151383 -0.0028799359 0.0029266301)
(-0.82085654 -0.0037585539 0.0048817682)
(-0.99036509 -0.0042985522 0.006302531)
(-1.0969269 -0.004567455 0.0066059627)
(0.00067464522 0.00010714379 -7.0171021e-05)
(-0.018021603 0.00012584701 -0.00011448)
(-0.074688061 -0.00015765029 -2.4853458e-05)
(-0.18702008 -0.00075561106 0.0003911499)
(-0.36195216 -0.0015173719 0.0014195801)
(-0.58212248 -0.002221125 0.0030915715)
(-0.80349196 -0.0027224601 0.0049214916)
(-0.98095247 -0.0030210452 0.0061785267)
(-1.0946979 -0.0031307372 0.0062790809)
(-0.00077872038 7.4365419e-05 -5.4412437e-05)
(-0.020054391 7.2626578e-05 -6.4875373e-05)
(-0.073428529 -0.00015493985 6.2794762e-05)
(-0.1776819 -0.00057429535 0.00047575254)
(-0.34155854 -0.0010234304 0.0013912512)
(-0.55305808 -0.0013385909 0.0028696061)
(-0.77382828 -0.0014971955 0.004542094)
(-0.95853806 -0.0016023263 0.0057110369)
(-1.0798777 -0.0015837892 0.0057116478)
(-0.0015891923 9.9245839e-05 -8.7188463e-05)
(-0.019744937 0.00018932765 -0.00016832436)
(-0.067291183 0.00012094937 -0.00012681495)
(-0.15985374 -6.7028819e-05 0.00015275525)
(-0.30795789 -0.00022310162 0.00084643864)
(-0.5053651 -0.00021312233 0.0020546488)
(-0.72082925 -7.9254454e-05 0.0035591368)
(-0.91121168 -2.3781887e-05 0.0047386438)
(-1.0411179 5.8628278e-05 0.0050284024)
(0.0046577323 -0.00013622708 -0.00011774205)
(-0.0010483208 -0.00048340226 -0.00038092381)
(-0.035467005 -0.0010249923 -0.00067107937)
(-0.11606899 -0.0018140849 -0.0009725572)
(-0.25531207 -0.0028588886 -0.0012985011)
(-0.44779302 -0.0041367687 -0.0016618206)
(-0.66164987 -0.0056129845 -0.0020450435)
(-0.85258009 -0.0072399978 -0.0023648281)
(-0.98412834 -0.0088730128 -0.0025764045)
(0.0062269579 -0.00023708988 -0.00018433023)
(0.00059725095 -0.00079726238 -0.00057698134)
(-0.038864606 -0.0015891702 -0.00098921486)
(-0.13106686 -0.0026429892 -0.0013908461)
(-0.28667204 -0.0039342391 -0.0017942855)
(-0.49413436 -0.0054201901 -0.0022192055)
(-0.71416051 -0.0070626086 -0.0026516616)
(-0.90025814 -0.008794635 -0.0030283345)
(-1.0241417 -0.010427901 -0.0033130202)
(0.008312437 -0.00032557699 -0.00022130554)
(0.0041888104 -0.0010753337 -0.00068763296)
(-0.038081894 -0.0020874655 -0.001167684)
(-0.13854212 -0.0033644812 -0.0016235667)
(-0.30595714 -0.0048427914 -0.0020741933)
(-0.52304369 -0.0064531527 -0.0025463309)
(-0.74454998 -0.0081500164 -0.0030285038)
(-0.92418399 -0.0098589153 -0.0034717784)
(-1.0412853 -0.011402319 -0.0038195646)
(0.010197645 -0.00041911975 -0.00024879791)
(0.0075090802 -0.0013615472 -0.00076754307)
(-0.037013256 -0.0025815082 -0.0012932549)
(-0.14415114 -0.004045916 -0.0017825159)
(-0.32064222 -0.0056493149 -0.0022611088)
(-0.54399779 -0.0073049245 -0.00276625)
(-0.76433425 -0.0089783863 -0.0032963716)
(-0.93674524 -0.010619777 -0.0038151852)
(-1.0474199 -0.01206585 -0.0042232808)
(0.011896277 -0.00050031515 -0.00025813665)
(0.010545375 -0.0016098481 -0.00079397271)
(-0.035839053 -0.0030042604 -0.0013319596)
(-0.14855239 -0.0046103366 -0.0018301009)
(-0.3323328 -0.0062834076 -0.0023256585)
(-0.56000971 -0.0079304561 -0.0028703313)
(-0.77796703 -0.0095408162 -0.0034630609)
(-0.94308765 -0.011077324 -0.0040404301)
(-1.0474781 -0.012347943 -0.004447883)
(0.013324455 -0.00056668601 -0.00024799572)
(0.013039375 -0.0018089274 -0.00076215947)
(-0.035027053 -0.00332876 -0.0012780953)
(-0.15249871 -0.0050169535 -0.0017638754)
(-0.34223415 -0.0066993349 -0.002270635)
(-0.57297242 -0.008298585 -0.0028584543)
(-0.78812818 -0.0097806104 -0.0034821953)
(-0.94631847 -0.011116656 -0.0040542076)
(-1.0445687 -0.012158598 -0.0044560713)
(0.014380834 -0.00061167613 -0.00022410553)
(0.014733864 -0.0019351168 -0.00068684797)
(-0.034944085 -0.0035117978 -0.0011498524)
(-0.15644735 -0.0052075051 -0.0015972748)
(-0.35098881 -0.006824715 -0.0020890472)
(-0.58386776 -0.0082746917 -0.0026700729)
(-0.79616376 -0.0095449592 -0.0032919246)
(-0.94807471 -0.010657102 -0.0038699896)
(-1.0405468 -0.011515647 -0.0043055553)
(0.015227793 -0.00061852374 -0.0001844852)
(0.016075927 -0.0019406299 -0.00056241753)
(-0.034932103 -0.003477332 -0.00093604049)
(-0.15972071 -0.0050603109 -0.0013074405)
(-0.35809117 -0.0064860867 -0.0017532381)
(-0.59254173 -0.007735895 -0.0023283772)
(-0.80237217 -0.0088142684 -0.0029730993)
(-0.94896647 -0.0097316974 -0.0035893931)
(-1.0363542 -0.010390918 -0.0040694873)
(0.015927074 -0.00057262396 -0.00013320718)
(0.017245926 -0.0017863927 -0.00040312701)
(-0.034700773 -0.0031729548 -0.00066603434)
(-0.16192414 -0.0045627099 -0.00095010541)
(-0.36317471 -0.0057796105 -0.0013562862)
(-0.59894511 -0.0067766291 -0.0019360642)
(-0.80687973 -0.007609664 -0.0026124812)
(-0.94931451 -0.0082859677 -0.0032731837)
(-1.0325285 -0.0087783716 -0.0038052285)
(0.016463264 -0.00046702832 -7.8789538e-05)
(0.018175297 -0.0014515295 -0.00023588411)
(-0.034403014 -0.0025608977 -0.00038634734)