/*--------------------------------*- C++ -*----------------------------------*\
  =========                 |
  \\      /  F ield         | OpenFOAM: The Open Source CFD Toolbox
   \\    /   O peration     | Website:  https://openfoam.org
    \\  /    A nd           | Version:  10
     \\/     M anipulation  |
\*---------------------------------------------------------------------------*/
FoamFile
{
    format      ascii;
    class       volScalarField;
    location    "3.3";
    object      T_0;
}
// * * * * * * * * * * * * * * * * * * * * * * * * * * * * * * * * * * * * * //

dimensions      [0 0 -1 0 0 0 0];

internalField   nonuniform List<scalar> 
100
(
-0.0574903
-0.170433
-0.277338
-0.374418
-0.458235
-0.525818
-0.574773
-0.603367
-0.610587
-0.596176
-0.560645
-0.505254
-0.431963
-0.34337
-0.242612
-0.13326
-0.0191876
0.0955648
0.206932
0.310968
0.403988
0.482697
0.544306
0.586633
0.608177
0.608177
0.586632
0.544305
0.482696
0.403987
0.310967
0.20693
0.0955629
-0.0191896
-0.133262
-0.242614
-0.343371
-0.431964
-0.505255
-0.560646
-0.596177
-0.610587
-0.603367
-0.574773
-0.525817
-0.458234
-0.374417
-0.277337
-0.170432
-0.057489
0.0574903
0.170433
0.277338
0.374418
0.458235
0.525818
0.574773
0.603368
0.610587
0.596176
0.560646
0.505254
0.431963
0.34337
0.242613
0.133261
0.0191883
-0.0955642
-0.206931
-0.310968
-0.403988
-0.482697
-0.544306
-0.586632
-0.608177
-0.608177
-0.586632
-0.544305
-0.482696
-0.403987
-0.310967
-0.206931
-0.0955636
0.0191889
0.133262
0.242613
0.343371
0.431964
0.505254
0.560646
0.596176
0.610587
0.603367
0.574773
0.525817
0.458234
0.374417
0.277337
0.170432
0.057489
)
;

boundaryField
{
    inlet
    {
        type            cyclic;
    }
    outlet
    {
        type            cyclic;
    }
    bottom
    {
        type            slip;
    }
    top
    {
        type            slip;
    }
    frontAndBack
    {
        type            empty;
    }
}


// ************************************************************************* //
