/*--------------------------------*- C++ -*----------------------------------*\
  =========                 |
  \\      /  F ield         | OpenFOAM: The Open Source CFD Toolbox
   \\    /   O peration     | Website:  https://openfoam.org
    \\  /    A nd           | Version:  10
     \\/     M anipulation  |
\*---------------------------------------------------------------------------*/
FoamFile
{
    format      ascii;
    class       volScalarField;
    location    "4.3";
    object      T;
}
// * * * * * * * * * * * * * * * * * * * * * * * * * * * * * * * * * * * * * //

dimensions      [0 0 -1 0 0 0 0];

internalField   nonuniform List<scalar> 
100
(
-0.0328423
-0.0973629
-0.158434
-0.213893
-0.261775
-0.300383
-0.328349
-0.344684
-0.348808
-0.340576
-0.320278
-0.288635
-0.246766
-0.196156
-0.138597
-0.0761274
-0.0109614
0.0545929
0.118213
0.177646
0.230785
0.275749
0.310944
0.335124
0.347432
0.347431
0.335123
0.310944
0.275748
0.230785
0.177645
0.118213
0.0545923
-0.0109619
-0.0761279
-0.138597
-0.196156
-0.246766
-0.288635
-0.320278
-0.340576
-0.348808
-0.344684
-0.328349
-0.300382
-0.261774
-0.213892
-0.158433
-0.097362
-0.0328416
0.0328423
0.0973627
0.158434
0.213893
0.261774
0.300382
0.328349
0.344684
0.348808
0.340575
0.320278
0.288634
0.246766
0.196156
0.138596
0.0761272
0.0109612
-0.054593
-0.118213
-0.177646
-0.230785
-0.275749
-0.310944
-0.335124
-0.347432
-0.347431
-0.335123
-0.310944
-0.275748
-0.230785
-0.177645
-0.118213
-0.0545922
0.0109621
0.0761281
0.138597
0.196156
0.246767
0.288635
0.320279
0.340576
0.348809
0.344684
0.328349
0.300382
0.261774
0.213892
0.158434
0.0973622
0.0328416
)
;

boundaryField
{
    inlet
    {
        type            cyclic;
    }
    outlet
    {
        type            cyclic;
    }
    bottom
    {
        type            slip;
    }
    top
    {
        type            slip;
    }
    frontAndBack
    {
        type            empty;
    }
}


// ************************************************************************* //
