/*--------------------------------*- C++ -*----------------------------------*\
  =========                 |
  \\      /  F ield         | OpenFOAM: The Open Source CFD Toolbox
   \\    /   O peration     | Website:  https://openfoam.org
    \\  /    A nd           | Version:  10
     \\/     M anipulation  |
\*---------------------------------------------------------------------------*/
FoamFile
{
    format      ascii;
    class       volScalarField;
    location    "4.3";
    object      T_0;
}
// * * * * * * * * * * * * * * * * * * * * * * * * * * * * * * * * * * * * * //

dimensions      [0 0 -1 0 0 0 0];

internalField   nonuniform List<scalar> 
100
(
-0.0335733
-0.0995298
-0.16196
-0.218654
-0.267601
-0.307068
-0.335657
-0.352356
-0.356572
-0.348156
-0.327407
-0.295059
-0.252258
-0.200522
-0.141681
-0.0778217
-0.0112053
0.055808
0.120844
0.1816
0.235922
0.281886
0.317864
0.342582
0.355164
0.355164
0.342582
0.317864
0.281886
0.235921
0.181599
0.120844
0.0558074
-0.0112059
-0.0778222
-0.141682
-0.200522
-0.252259
-0.295059
-0.327406
-0.348156
-0.356571
-0.352355
-0.335656
-0.307067
-0.2676
-0.218653
-0.16196
-0.0995289
-0.0335725
0.0335732
0.0995297
0.16196
0.218653
0.2676
0.307068
0.335657
0.352355
0.356571
0.348155
0.327406
0.295058
0.252258
0.200521
0.141681
0.0778215
0.0112052
-0.0558081
-0.120844
-0.1816
-0.235922
-0.281886
-0.317864
-0.342582
-0.355164
-0.355164
-0.342582
-0.317864
-0.281886
-0.235921
-0.181599
-0.120844
-0.0558072
0.0112061
0.0778224
0.141682
0.200522
0.252259
0.295059
0.327407
0.348156
0.356572
0.352356
0.335657
0.307068
0.2676
0.218653
0.16196
0.0995291
0.0335726
)
;

boundaryField
{
    inlet
    {
        type            cyclic;
    }
    outlet
    {
        type            cyclic;
    }
    bottom
    {
        type            slip;
    }
    top
    {
        type            slip;
    }
    frontAndBack
    {
        type            empty;
    }
}


// ************************************************************************* //
