/*--------------------------------*- C++ -*----------------------------------*\
| =========                 |                                                 |
| \\      /  F ield         | OpenFOAM: The Open Source CFD Toolbox           |
|  \\    /   O peration     | Version:  2406                                  |
|   \\  /    A nd           | Website:  www.openfoam.com                      |
|    \\/     M anipulation  |                                                 |
\*---------------------------------------------------------------------------*/
FoamFile
{
    version     2.0;
    format      ascii;
    arch        "LSB;label=32;scalar=64";
    class       volScalarField;
    location    "12.75";
    object      p;
}
// * * * * * * * * * * * * * * * * * * * * * * * * * * * * * * * * * * * * * //

dimensions      [0 2 -2 0 0 0 0];

internalField   nonuniform List<scalar> 
34560
(
33.61293
33.599702
33.582656
33.562938
33.541001
33.518817
33.498258
33.480366
33.466852
33.692281
33.676137
33.65483
33.629364
33.600188
33.570015
33.5414
33.516317
33.497106
33.765946
33.747185
33.722301
33.69241
33.657794
33.62145
33.586384
33.55514
33.530719
33.83873
33.817494
33.78912
33.754842
33.714935
33.67276
33.63157
33.594296
33.564364
33.909058
33.885465
33.853758
33.815275
33.770293
33.722486
33.675339
33.632061
33.596581
33.973785
33.94829
33.913775
33.871622
33.822077
33.769056
33.716327
33.667417
33.626292
34.032784
34.005505
33.968372
33.922805
33.86903
33.811159
33.753238
33.699048
33.652791
34.08477
34.055858
34.01634
33.967676
33.910065
33.847762
33.785113
33.726141
33.675382
34.128654
34.098253
34.05659
34.005183
33.944253
33.878066
33.811252
33.748153
33.693633
34.16298
34.131315
34.087861
34.03422
33.970725
33.901468
33.831214
33.764759
33.707323
34.186748
34.154065
34.10925
34.054012
33.98879
33.917466
33.844746
33.775842
33.716379
34.199215
34.165942
34.120358
34.064234
33.99808
33.925642
33.851593
33.781355
33.720849
34.199215
34.165942
34.120358
34.064235
33.99808
33.925642
33.851593
33.781355
33.720849
34.186748
34.154065
34.10925
34.054012
33.98879
33.917466
33.844746
33.775842
33.716379
34.16298
34.131315
34.08786
34.03422
33.970725
33.901468
33.831214
33.764759
33.707323
34.128654
34.098253
34.056589
34.005183
33.944252
33.878066
33.811252
33.748153
33.693633
34.084768
34.055857
34.016339
33.967675
33.910064
33.847761
33.785112
33.72614
33.675381
34.032783
34.005504
33.96837
33.922804
33.869029
33.811158
33.753237
33.699048
33.652791
33.973785
33.948289
33.913774
33.871621
33.822076
33.769056
33.716327
33.667416
33.626291
33.909058
33.885465
33.853758
33.815276
33.770293
33.722486
33.675338
33.63206
33.596581
33.838732
33.817496
33.789122
33.754844
33.714936
33.672761
33.63157
33.594296
33.564364
33.76595
33.747189
33.722305
33.692414
33.657797
33.621452
33.586386
33.555141
33.530719
33.692286
33.676143
33.654836
33.62937
33.600193
33.57002
33.541405
33.51632
33.497107
33.612937
33.599709
33.582663
33.562945
33.541007
33.518823
33.498264
33.480372
33.466856
31.0227
31.023329
31.024238
31.025996
31.028896
31.032231
31.034674
31.03509
31.034602
31.01871
31.019746
31.021275
31.023942
31.02797
31.032306
31.035301
31.036136
31.03583
31.013249
31.014708
31.016875
31.020582
31.026048
31.031849
31.03591
31.03739
31.037264
31.008886
31.010778
31.013553
31.018199
31.024967
31.032152
31.037278
31.039417
31.039542
31.005593
31.007899
31.011272
31.016867
31.024952
31.033515
31.039667
31.042379
31.042618
31.003048
31.005812
31.009831
31.016436
31.02591
31.035882
31.043031
31.046206
31.046404
31.001597
31.004873
31.009662
31.017267
31.028061
31.039347
31.047365
31.050844
31.050819
31.000585
31.004238
31.010041
31.019229
31.031421
31.043857
31.05256
31.056167
31.055747
31.00028
31.004023
31.010262
31.021172
31.035659
31.049209
31.058362
31.061986
31.061061
31.001348
31.005017
31.011377
31.022998
31.039464
31.054786
31.064346
31.068005
31.066593
31.00331
31.00681
31.01325
31.025469
31.043025
31.059552
31.0697
31.073065
31.07106
31.005025
31.008348
31.014779
31.027363
31.045613
31.062863
31.072952
31.075865
31.073746
31.005025
31.008348
31.014779
31.027363
31.045614
31.062863
31.072952
31.075865
31.073746
31.00331
31.00681
31.01325
31.02547
31.043025
31.059552
31.0697
31.073065
31.071059
31.001347
31.005017
31.011377
31.022998
31.039464
31.054786
31.064345
31.068005
31.066593
31.00028
31.004022
31.010261
31.021171
31.035658
31.049208
31.058361
31.061985
31.06106
31.000584
31.004237
31.010039
31.019227
31.03142
31.043856
31.052559
31.056166
31.055745
31.001596
31.004871
31.00966
31.017265
31.02806
31.039346
31.047364
31.050843
31.050817
31.003047
31.005811
31.00983
31.016435
31.025909
31.035881
31.04303
31.046205
31.046402
31.005594
31.0079
31.011272
31.016867
31.024952
31.033514
31.039666
31.042377
31.042617
31.008887
31.010779
31.013554
31.018199
31.024967
31.032152
31.037277
31.039416
31.03954
31.013251
31.01471
31.016877
31.020583
31.026048
31.03185
31.03591
31.037389
31.037262
31.018712
31.019748
31.021277
31.023944
31.027972
31.032307
31.035302
31.036135
31.035828
31.022703
31.023332
31.024241
31.025999
31.028899
31.032234
31.034675
31.03509
31.034601
30.209144
30.209137
30.208997
30.208582
30.208065
30.207798
30.208128
30.208985
30.209819
30.207631
30.207754
30.207745
30.207414
30.206967
30.206791
30.207241
30.20827
30.20943
30.204842
30.205092
30.205217
30.205011
30.204736
30.20482
30.205601
30.206984
30.208539
30.201871
30.202243
30.202475
30.202345
30.202185
30.202498
30.203631
30.205426
30.207412
30.198732
30.199213
30.199542
30.199483
30.199433
30.199971
30.201454
30.20367
30.206117
30.195453
30.19602
30.196435
30.196452
30.196517
30.197276
30.199105
30.201731
30.204635
30.192674
30.193174
30.193446
30.193451
30.193598
30.194526
30.196643
30.199652
30.203019
30.191059
30.191508
30.191288
30.190626
30.190688
30.191768
30.194108
30.197456
30.201341
30.190474
30.191007
30.190716
30.189112
30.18805
30.189073
30.191552
30.195136
30.199616
30.189951
30.190589
30.190417
30.188765
30.186691
30.186718
30.189054
30.192712
30.197787
30.18925
30.189995
30.189894
30.188208
30.185857
30.185148
30.186924
30.190907
30.196662
30.188786
30.189591
30.189512
30.187749
30.185157
30.184001
30.185777
30.190174
30.196077
30.188786
30.189591
30.189512
30.187749
30.185157
30.184001
30.185777
30.190174
30.196077
30.18925
30.189995
30.189894
30.188208
30.185857
30.185148
30.186924
30.190907
30.196662
30.189951
30.190588
30.190417
30.188764
30.186691
30.186718
30.189054
30.192712
30.197786
30.190474
30.191007
30.190715
30.189111
30.188049
30.189072
30.191551
30.195135
30.199615
30.191058
30.191507
30.191287
30.190625
30.190687
30.191767
30.194107
30.197455
30.20134
30.192673
30.193173
30.193444
30.19345
30.193597
30.194525
30.196642
30.199651
30.203018
30.195452
30.196019
30.196433
30.196451
30.196516
30.197275
30.199104
30.20173
30.204635
30.198731
30.199212
30.199541
30.199482
30.199432
30.19997
30.201453
30.203668
30.206116
30.20187
30.202243
30.202474
30.202344
30.202184
30.202496
30.203629
30.205425
30.207411
30.204841
30.205092
30.205216
30.205011
30.204735
30.204819
30.2056
30.206982
30.208538
30.207631
30.207754
30.207745
30.207414
30.206967
30.206791
30.20724
30.208269
30.209428
30.209144
30.209137
30.208997
30.208582
30.208065
30.207798
30.208127
30.208985
30.209819
28.574919
28.574828
28.574756
28.574794
28.574893
28.574864
28.574465
28.573586
28.572599
28.575775
28.575691
28.575652
28.575754
28.575934
28.575937
28.575441
28.574352
28.573008
28.57633
28.576257
28.576255
28.576444
28.576749
28.57685
28.576347
28.575134
28.573553
28.576957
28.576903
28.57694
28.577199
28.5776
28.577772
28.57726
28.575956
28.57421
28.577563
28.577533
28.577615
28.577952
28.578452
28.5787
28.578187
28.5768
28.574907
28.578022
28.578031
28.578176
28.578608
28.579227
28.57957
28.579077
28.577618
28.575593
28.578416
28.578459
28.578661
28.579185
28.579921
28.580363
28.579896
28.578371
28.576225
28.578701
28.578772
28.579022
28.579631
28.580491
28.581043
28.580611
28.579026
28.576769
28.578864
28.578962
28.579257
28.579937
28.580912
28.581593
28.581199
28.579553
28.57719
28.578819
28.578948
28.579291
28.580057
28.581185
28.582001
28.581643
28.579916
28.577437
28.578535
28.5787
28.579074
28.579861
28.581096
28.582169
28.581914
28.580107
28.577531
28.578303
28.578488
28.578873
28.579644
28.580849
28.582069
28.582001
28.580176
28.577542
28.578303
28.578488
28.578873
28.579644
28.580849
28.582069
28.582001
28.580176
28.577542
28.578535
28.5787
28.579074
28.579861
28.581095
28.582168
28.581913
28.580106
28.57753
28.578819
28.578948
28.57929
28.580056
28.581184
28.582
28.581642
28.579915
28.577436
28.578863
28.57896
28.579256
28.579936
28.580911
28.581591
28.581197
28.579551
28.577189
28.5787
28.578771
28.57902
28.579629
28.580489
28.581041
28.580609
28.579024
28.576767
28.578413
28.578457
28.578659
28.579183
28.579919
28.58036
28.579894
28.578369
28.576223
28.578019
28.578029
28.578174
28.578606
28.579224
28.579567
28.579074
28.577616
28.575591
28.577561
28.577531
28.577613
28.577949
28.578449
28.578697
28.578184
28.576797
28.574905
28.576954
28.5769
28.576937
28.577196
28.577596
28.577768
28.577257
28.575952
28.574206
28.576327
28.576253
28.576252
28.576441
28.576746
28.576846
28.576343
28.57513
28.573549
28.575771
28.575687
28.575648
28.57575
28.57593
28.575933
28.575437
28.574349
28.573006
28.574915
28.574823
28.574752
28.57479
28.574889
28.57486
28.574462
28.573583
28.572596
27.303385
27.303376
27.303337
27.303228
27.303073
27.302972
27.303061
27.30336
27.303646
27.303168
27.303175
27.303151
27.303045
27.302889
27.302804
27.302928
27.303288
27.303686
27.302705
27.302726
27.302717
27.302619
27.302483
27.302442
27.302645
27.303103
27.303617
27.302189
27.302222
27.302221
27.302125
27.302001
27.302006
27.302299
27.302873
27.303521
27.301633
27.301675
27.301681
27.301589
27.30148
27.301536
27.301926
27.302621
27.303397
27.301052
27.301102
27.301114
27.301028
27.300939
27.301051
27.301541
27.302355
27.303248
27.300506
27.300561
27.300576
27.300494
27.300421
27.300585
27.301166
27.302088
27.303083
27.300013
27.300072
27.300089
27.300009
27.299947
27.300154
27.300817
27.301832
27.302915
27.299604
27.299665
27.299683
27.299602
27.299534
27.299772
27.300506
27.301602
27.302758
27.299307
27.299372
27.299391
27.299304
27.299204
27.299448
27.300246
27.301412
27.302624
27.299198
27.299264
27.299295
27.299243
27.299139
27.299279
27.300056
27.301275
27.302525
27.299192
27.299258
27.2993
27.299287
27.299253
27.299303
27.29996
27.301201
27.302472
27.299191
27.299258
27.299299
27.299287
27.299252
27.299302
27.299959
27.301201
27.302472
27.299197
27.299263
27.299295
27.299242
27.299138
27.299278
27.300055
27.301274
27.302525
27.299306
27.29937
27.299389
27.299303
27.299202
27.299447
27.300244
27.30141
27.302622
27.299602
27.299663
27.299681
27.299599
27.299531
27.29977
27.300504
27.3016
27.302755
27.30001
27.300069
27.300086
27.300006
27.299944
27.300151
27.300814
27.301829
27.302912
27.300502
27.300557
27.300572
27.30049
27.300417
27.300581
27.301163
27.302084
27.30308
27.301048
27.301097
27.30111
27.301023
27.300934
27.301046
27.301536
27.30235
27.303243
27.301628
27.301669
27.301676
27.301584
27.301475
27.30153
27.30192
27.302615
27.303392
27.302183
27.302216
27.302215
27.302119
27.301995
27.301999
27.302292
27.302867
27.303515
27.302698
27.302719
27.30271
27.302612
27.302476
27.302435
27.302638
27.303096
27.30361
27.30316
27.303167
27.303143
27.303037
27.302881
27.302796
27.30292
27.30328
27.303677
27.303377
27.303368
27.303328
27.30322
27.303064
27.302963
27.303052
27.303351
27.303637
25.841004
25.840985
25.840973
25.840988
25.841018
25.841006
25.840882
25.840624
25.84035
25.841138
25.841119
25.841112
25.841142
25.841189
25.841182
25.841034
25.840725
25.840368
25.84125
25.841231
25.841229
25.841275
25.841344
25.841349
25.841187
25.840839
25.840415
25.841398
25.841379
25.841383
25.841439
25.841522
25.841531
25.841353
25.840972
25.840498
25.841553
25.841538
25.841547
25.841614
25.841711
25.841724
25.841531
25.84112
25.840605
25.841688
25.841677
25.841695
25.841777
25.841887
25.841908
25.841707
25.841272
25.840723
25.841813
25.841807
25.841832
25.841925
25.842049
25.842076
25.841871
25.841418
25.840843
25.841917
25.841916
25.841948
25.842052
25.842188
25.842223
25.842016
25.841551
25.840955
25.841999
25.842002
25.842041
25.842154
25.8423
25.842342
25.842137
25.841664
25.841053
25.842058
25.842064
25.842109
25.842228
25.842381
25.84243
25.842229
25.841753
25.841132
25.842102
25.84211
25.842158
25.842284
25.84244
25.84249
25.84229
25.841814
25.841187
25.84213
25.842139
25.842189
25.842317
25.842476
25.842524
25.842322
25.841846
25.841215
25.84213
25.842139
25.842188
25.842316
25.842475
25.842524
25.842322
25.841845
25.841214
25.842101
25.842109
25.842157
25.842283
25.842439
25.842489
25.842289
25.841813
25.841185
25.842056
25.842062
25.842106
25.842226
25.842378
25.842428
25.842226
25.841751
25.84113
25.841997
25.841999
25.842038
25.842151
25.842296
25.842339
25.842133
25.841661
25.84105
25.841913
25.841912
25.841944
25.842048
25.842184
25.842218
25.842012
25.841547
25.840951
25.841808
25.841802
25.841827
25.84192
25.842044
25.842071
25.841866
25.841414
25.840838
25.841682
25.841671
25.841689
25.84177
25.841881
25.841901
25.841701
25.841266
25.840718
25.841546
25.84153
25.841539
25.841607
25.841703
25.841716
25.841524
25.841113
25.840599
25.841389
25.841371
25.841374
25.841431
25.841514
25.841523
25.841345
25.840964
25.84049
25.841241
25.841221
25.84122
25.841265
25.841334
25.841339
25.841177
25.840829
25.840406
25.841128
25.841109
25.841102
25.841131
25.841179
25.841172
25.841023
25.840714
25.840357
25.840992
25.840973
25.840961
25.840976
25.841006
25.840994
25.84087
25.840612
25.840338
24.475156
24.47516
24.475156
24.475132
24.47509
24.475058
24.475074
24.475152
24.475242
24.475084
24.475092
24.475091
24.475066
24.475023
24.474995
24.475027
24.475131
24.475262
24.474953
24.474964
24.474965
24.474941
24.474901
24.474884
24.474938
24.475074
24.475242
24.474808
24.474822
24.474825
24.4748
24.47476
24.474753
24.474831
24.475001
24.475209
24.474655
24.474671
24.474675
24.47465
24.474611
24.474615
24.474718
24.474922
24.475167
24.474501
24.474518
24.474523
24.474497
24.474462
24.474477
24.474603
24.474839
24.475118
24.474358
24.474376
24.474381
24.474354
24.474321
24.474346
24.474494
24.474759
24.475067
24.47423
24.474248
24.474253
24.474226
24.474195
24.474229
24.474396
24.474683
24.475015
24.474122
24.47414
24.474145
24.474118
24.474088
24.47413
24.474311
24.474618
24.474968
24.474038
24.474056
24.47406
24.474033
24.474005
24.474052
24.474245
24.474566
24.474929
24.473981
24.474
24.474004
24.473976
24.473949
24.474
24.4742
24.47453
24.474902
24.473953
24.473972
24.473976
24.473948
24.473921
24.473973
24.474176
24.474511
24.474887
24.473953
24.473971
24.473975
24.473947
24.473921
24.473972
24.474176
24.47451
24.474887
24.47398
24.473998
24.474002
24.473974
24.473947
24.473998
24.474198
24.474528
24.4749
24.474035
24.474053
24.474057
24.47403
24.474002
24.474049
24.474242
24.474563
24.474927
24.474118
24.474136
24.474141
24.474113
24.474084
24.474126
24.474307
24.474614
24.474965
24.474225
24.474243
24.474247
24.47422
24.474189
24.474223
24.47439
24.474678
24.475011
24.474352
24.474369
24.474374
24.474347
24.474314
24.474339
24.474488
24.474752
24.475061
24.474493
24.47451
24.474515
24.474489
24.474453
24.474468
24.474595
24.474832
24.475111
24.474645
24.474661
24.474665
24.474639
24.474601
24.474605
24.474708
24.474912
24.475159
24.474796
24.47481
24.474812
24.474787
24.474748
24.474741
24.474819
24.47499
24.475199
24.474939
24.47495
24.474951
24.474927
24.474886
24.47487
24.474924
24.475061
24.47523
24.475068
24.475076
24.475075
24.475049
24.475007
24.474979
24.475011
24.475116
24.475249
24.475138
24.475142
24.475138
24.475114
24.475072
24.47504
24.475056
24.475135
24.475227
23.063132
23.063126
23.063123
23.063127
23.063136
23.063137
23.063112
23.063054
23.062987
23.063148
23.063143
23.063141
23.063148
23.063162
23.063165
23.063136
23.063066
23.062983
23.063164
23.063158
23.063157
23.063168
23.063188
23.063194
23.063161
23.063081
23.062981
23.06319
23.063184
23.063184
23.063199
23.063222
23.063229
23.063191
23.063102
23.062987
23.063221
23.063215
23.063217
23.063234
23.06326
23.063267
23.063226
23.063129
23.063001
23.063248
23.063244
23.063247
23.063268
23.063296
23.063305
23.063261
23.063157
23.06302
23.063275
23.063272
23.063277
23.063299
23.063331
23.063341
23.063294
23.063185
23.06304
23.063298
23.063296
23.063302
23.063327
23.063361
23.063372
23.063324
23.063211
23.06306
23.063317
23.063316
23.063323
23.06335
23.063385
23.063397
23.063349
23.063233
23.063078
23.063332
23.063331
23.063339
23.063367
23.063404
23.063417
23.063369
23.063251
23.063093
23.063341
23.06334
23.06335
23.063379
23.063417
23.06343
23.063382
23.063263
23.063103
23.063346
23.063346
23.063355
23.063385
23.063423
23.063436
23.063388
23.063269
23.063108
23.063345
23.063345
23.063355
23.063384
23.063422
23.063436
23.063387
23.063268
23.063107
23.063339
23.063338
23.063348
23.063377
23.063414
23.063428
23.06338
23.063261
23.063101
23.063328
23.063327
23.063336
23.063364
23.063401
23.063413
23.063365
23.063248
23.06309
23.063313
23.063311
23.063319
23.063345
23.06338
23.063392
23.063345
23.063229
23.063074
23.063292
23.06329
23.063296
23.063321
23.063354
23.063365
23.063318
23.063205
23.063055
23.063267
23.063264
23.063269
23.063291
23.063322
23.063332
23.063286
23.063178
23.063033
23.063239
23.063234
23.063237
23.063257
23.063286
23.063295
23.063251
23.063148
23.063012
23.063209
23.063203
23.063204
23.063221
23.063247
23.063255
23.063214
23.063118
23.062992
23.063176
23.06317
23.06317
23.063184
23.063207
23.063214
23.063177
23.06309
23.062976
23.063147
23.063141
23.06314
23.063151
23.063171
23.063177
23.063145
23.063066
23.062967
23.063129
23.063123
23.063121
23.063129
23.063143
23.063146
23.063117
23.063049
23.062967
23.063111
23.063105
23.063101
23.063105
23.063114
23.063115
23.063091
23.063033
23.062969
21.670665
21.670666
21.670666
21.670661
21.670652
21.670643
21.670642
21.670654
21.670673
21.670646
21.670648
21.670649
21.670644
21.670635
21.670628
21.670631
21.67065
21.670678
21.670612
21.670615
21.670616
21.670612
21.670603
21.670599
21.670608
21.670635
21.670671
21.670575
21.670578
21.67058
21.670575
21.670567
21.670565
21.67058
21.670615
21.67066
21.670536
21.67054
21.670542
21.670537
21.67053
21.67053
21.67055
21.670593
21.670647
21.670497
21.670501
21.670503
21.670499
21.670491
21.670494
21.67052
21.67057
21.670632
21.67046
21.670465
21.670467
21.670462
21.670455
21.67046
21.670491
21.670548
21.670616
21.670427
21.670432
21.670434
21.670429
21.670423
21.670429
21.670464
21.670527
21.670601
21.670399
21.670404
21.670406
21.670401
21.670395
21.670403
21.670441
21.670508
21.670587
21.670377
21.670382
21.670384
21.670379
21.670373
21.670383
21.670423
21.670493
21.670575
21.670362
21.670367
21.670369
21.670364
21.670358
21.670368
21.67041
21.670483
21.670567
21.670354
21.670359
21.670361
21.670356
21.67035
21.67036
21.670403
21.670477
21.670562
21.670353
21.670358
21.67036
21.670355
21.670349
21.67036
21.670403
21.670476
21.670561
21.67036
21.670365
21.670367
21.670362
21.670356
21.670366
21.670408
21.670481
21.670565
21.670374
21.670379
21.670381
21.670376
21.67037
21.670379
21.670419
21.67049
21.670572
21.670394
21.670399
21.670401
21.670396
21.67039
21.670398
21.670436
21.670503
21.670583
21.67042
21.670425
21.670427
21.670422
21.670416
21.670422
21.670457
21.67052
21.670595
21.670451
21.670456
21.670458
21.670453
21.670446
21.670451
21.670482
21.67054
21.670609
21.670486
21.670491
21.670492
21.670488
21.67048
21.670483
21.670509
21.670561
21.670623
21.670523
21.670527
21.670529
21.670524
21.670516
21.670517
21.670538
21.670581
21.670636
21.67056
21.670563
21.670564
21.67056
21.670552
21.67055
21.670565
21.670601
21.670647
21.670594
21.670597
21.670598
21.670594
21.670585
21.670581
21.670591
21.670618
21.670655
21.670626
21.670628
21.670628
21.670623
21.670614
21.670607
21.670611
21.67063
21.670659
21.670642
21.670644
21.670643
21.670638
21.670629
21.67062
21.670619
21.670631
21.670651
20.270781
20.27078
20.270779
20.270779
20.27078
20.270781
20.270777
20.270766
20.270753
20.270782
20.27078
20.270779
20.270781
20.270783
20.270784
20.270779
20.270766
20.270751
20.270782
20.270781
20.270781
20.270783
20.270786
20.270788
20.270782
20.270768
20.270749
20.270787
20.270786
20.270786
20.270788
20.270792
20.270794
20.270787
20.270771
20.270749
20.270796
20.270794
20.270794
20.270797
20.270802
20.270804
20.270797
20.270778
20.270753
20.270806
20.270804
20.270804
20.270808
20.270814
20.270818
20.270811
20.27079
20.270762
20.270817
20.270816
20.270816
20.270821
20.270829
20.270834
20.270827
20.270805
20.270774
20.270828
20.270827
20.270828
20.270833
20.270842
20.270848
20.270842
20.270819
20.270787
20.270838
20.270837
20.270838
20.270844
20.270854
20.270861
20.270855
20.270832
20.270798
20.270846
20.270845
20.270846
20.270853
20.270864
20.270871
20.270865
20.270842
20.270807
20.270851
20.27085
20.270852
20.270859
20.27087
20.270878
20.270872
20.270849
20.270813
20.270853
20.270852
20.270854
20.270862
20.270873
20.270881
20.270876
20.270852
20.270816
20.270853
20.270852
20.270854
20.270861
20.270872
20.27088
20.270875
20.270851
20.270816
20.270849
20.270848
20.27085
20.270857
20.270868
20.270876
20.27087
20.270846
20.270811
20.270842
20.270841
20.270843
20.270849
20.27086
20.270867
20.270861
20.270838
20.270804
20.270833
20.270832
20.270833
20.270839
20.270849
20.270855
20.270849
20.270826
20.270793
20.270821
20.27082
20.270821
20.270826
20.270835
20.270841
20.270834
20.270812
20.27078
20.270808
20.270807
20.270807
20.270811
20.270819
20.270824
20.270818
20.270796
20.270766
20.270794
20.270793
20.270793
20.270796
20.270802
20.270806
20.2708
20.27078
20.270752
20.270782
20.270781
20.27078
20.270783
20.270788
20.27079
20.270783
20.270765
20.270741
20.270772
20.27077
20.27077
20.270772
20.270776
20.270778
20.270772
20.270756
20.270735
20.270764
20.270762
20.270762
20.270764
20.270767
20.270769
20.270764
20.27075
20.270732
20.27076
20.270759
20.270758
20.270759
20.270762
20.270762
20.270758
20.270746
20.270731
20.270758
20.270756
20.270755
20.270756
20.270757
20.270757
20.270753
20.270743
20.270731
18.873053
18.873054
18.873054
18.873053
18.873052
18.873049
18.873047
18.873047
18.87305
18.873057
18.873057
18.873058
18.873057
18.873056
18.873054
18.873052
18.873054
18.873058
18.873055
18.873056
18.873056
18.873056
18.873055
18.873054
18.873055
18.873058
18.873063
18.873051
18.873052
18.873053
18.873052
18.873051
18.873051
18.873054
18.873058
18.873065
18.873045
18.873046
18.873047
18.873047
18.873046
18.873046
18.873049
18.873055
18.873063
18.873037
18.873038
18.873039
18.873039
18.873038
18.873038
18.87304
18.873048
18.873058
18.873027
18.873029
18.87303
18.873029
18.873028
18.873027
18.87303
18.873039
18.87305
18.873018
18.87302
18.873021
18.87302
18.873018
18.873018
18.873021
18.87303
18.873042
18.87301
18.873012
18.873013
18.873012
18.87301
18.873009
18.873013
18.873022
18.873035
18.873003
18.873005
18.873006
18.873005
18.873003
18.873002
18.873006
18.873016
18.873029
18.872999
18.873
18.873001
18.873
18.872998
18.872997
18.873001
18.873011
18.873025
18.872996
18.872997
18.872998
18.872997
18.872995
18.872994
18.872998
18.873009
18.873023
18.872995
18.872997
18.872997
18.872997
18.872994
18.872994
18.872998
18.873008
18.873022
18.872997
18.872998
18.872999
18.872998
18.872996
18.872995
18.872999
18.873009
18.873023
18.873
18.873001
18.873002
18.873001
18.872999
18.872998
18.873002
18.873012
18.873026
18.873005
18.873006
18.873007
18.873006
18.873004
18.873004
18.873007
18.873017
18.873031
18.873011
18.873013
18.873014
18.873013
18.873011
18.87301
18.873014
18.873023
18.873036
18.873019
18.87302
18.873021
18.87302
18.873019
18.873018
18.873021
18.87303
18.873043
18.873026
18.873027
18.873028
18.873027
18.873026
18.873026
18.87303
18.873038
18.873049
18.873032
18.873033
18.873033
18.873033
18.873032
18.873033
18.873036
18.873043
18.873052
18.873036
18.873036
18.873037
18.873036
18.873035
18.873036
18.873039
18.873044
18.873051
18.873037
18.873038
18.873038
18.873037
18.873036
18.873036
18.873037
18.873041
18.873047
18.873037
18.873037
18.873037
18.873036
18.873035
18.873033
18.873032
18.873034
18.873039
18.873031
18.873031
18.873031
18.873031
18.873029
18.873026
18.873025
18.873025
18.873029
17.475253
17.475253
17.475252
17.475252
17.475252
17.475253
17.475254
17.475254
17.475254
17.475251
17.475251
17.47525
17.47525
17.47525
17.475251
17.475251
17.475252
17.475252
17.47525
17.475249
17.475249
17.47525
17.47525
17.47525
17.47525
17.47525
17.47525
17.47525
17.47525
17.47525
17.47525
17.475251
17.475251
17.475251
17.475251
17.475251
17.475251
17.475251
17.475251
17.475251
17.475252
17.475253
17.475254
17.475254
17.475254
17.475252
17.475252
17.475252
17.475253
17.475254
17.475255
17.475257
17.475257
17.475257
17.475253
17.475253
17.475253
17.475254
17.475256
17.475257
17.475259
17.47526
17.47526
17.475254
17.475254
17.475254
17.475255
17.475257
17.475259
17.475261
17.475262
17.475262
17.475255
17.475255
17.475255
17.475256
17.475258
17.475261
17.475263
17.475264
17.475264
17.475255
17.475255
17.475256
17.475257
17.475259
17.475262
17.475264
17.475266
17.475265
17.475256
17.475256
17.475256
17.475257
17.475259
17.475262
17.475265
17.475267
17.475266
17.475255
17.475255
17.475256
17.475257
17.475259
17.475262
17.475265
17.475267
17.475266
17.475255
17.475255
17.475255
17.475256
17.475259
17.475262
17.475265
17.475266
17.475266
17.475254
17.475254
17.475254
17.475255
17.475257
17.47526
17.475263
17.475265
17.475265
17.475252
17.475252
17.475253
17.475254
17.475256
17.475258
17.475261
17.475263
17.475263
17.47525
17.47525
17.475251
17.475251
17.475253
17.475256
17.475258
17.47526
17.47526
17.475248
17.475248
17.475248
17.475249
17.47525
17.475253
17.475255
17.475256
17.475257
17.475245
17.475245
17.475245
17.475246
17.475247
17.475249
17.475251
17.475253
17.475253
17.475242
17.475242
17.475242
17.475243
17.475244
17.475245
17.475247
17.475248
17.475249
17.475239
17.475239
17.475239
17.47524
17.47524
17.475241
17.475242
17.475243
17.475244
17.475236
17.475236
17.475236
17.475236
17.475237
17.475237
17.475238
17.475238
17.475239
17.475234
17.475233
17.475233
17.475233
17.475233
17.475234
17.475234
17.475235
17.475236
17.475233
17.475232
17.475232
17.475232
17.475232
17.475232
17.475233
17.475234
17.475236
17.475233
17.475232
17.475232
17.475232
17.475232
17.475233
17.475233
17.475234
17.475235
16.077029
16.07703
16.07703
16.07703
16.07703
16.077029
16.077028
16.077027
16.077026
16.077028
16.077028
16.077028
16.077028
16.077028
16.077028
16.077027
16.077026
16.077024
16.077025
16.077025
16.077026
16.077026
16.077026
16.077026
16.077025
16.077024
16.077022
16.077023
16.077023
16.077023
16.077024
16.077024
16.077024
16.077023
16.077022
16.07702
16.077021
16.077021
16.077021
16.077021
16.077022
16.077022
16.077021
16.07702
16.077019
16.077019
16.077019
16.077019
16.077019
16.07702
16.07702
16.077019
16.077018
16.077017
16.077017
16.077017
16.077017
16.077017
16.077018
16.077018
16.077017
16.077016
16.077015
16.077015
16.077015
16.077015
16.077016
16.077016
16.077016
16.077015
16.077014
16.077013
16.077013
16.077013
16.077014
16.077014
16.077014
16.077014
16.077014
16.077013
16.077012
16.077012
16.077012
16.077012
16.077013
16.077013
16.077013
16.077013
16.077012
16.07701
16.077011
16.077011
16.077011
16.077012
16.077012
16.077012
16.077012
16.077011
16.077009
16.07701
16.07701
16.077011
16.077011
16.077011
16.077011
16.077011
16.07701
16.077009
16.07701
16.07701
16.07701
16.07701
16.077011
16.077011
16.07701
16.077009
16.077008
16.077009
16.077009
16.07701
16.07701
16.07701
16.07701
16.07701
16.077009
16.077008
16.077009
16.077009
16.07701
16.07701
16.07701
16.07701
16.07701
16.077009
16.077008
16.077009
16.07701
16.07701
16.07701
16.07701
16.07701
16.07701
16.077009
16.077008
16.07701
16.07701
16.07701
16.07701
16.077011
16.077011
16.07701
16.07701
16.077009
16.07701
16.07701
16.077011
16.077011
16.077011
16.077011
16.077011
16.07701
16.077009
16.077011
16.077011
16.077011
16.077011
16.077012
16.077012
16.077011
16.077011
16.07701
16.077011
16.077012
16.077012
16.077012
16.077012
16.077012
16.077012
16.077011
16.07701
16.077012
16.077012
16.077012
16.077012
16.077012
16.077012
16.077012
16.077012
16.077011
16.077012
16.077012
16.077013
16.077013
16.077013
16.077013
16.077012
16.077012
16.077011
16.077013
16.077013
16.077013
16.077013
16.077013
16.077013
16.077012
16.077011
16.077011
16.077013
16.077013
16.077013
16.077013
16.077013
16.077013
16.077012
16.077011
16.077011
14.67917
14.67917
14.67917
14.67917
14.67917
14.67917
14.67917
14.679171
14.679171
14.679169
14.679169
14.679169
14.679169
14.679169
14.679169
14.679169
14.679169
14.67917
14.679167
14.679167
14.679167
14.679167
14.679167
14.679167
14.679168
14.679168
14.679169
14.679165
14.679165
14.679166
14.679166
14.679166
14.679166
14.679166
14.679167
14.679168
14.679164
14.679164
14.679164
14.679164
14.679164
14.679164
14.679165
14.679166
14.679167
14.679162
14.679163
14.679163
14.679163
14.679163
14.679163
14.679164
14.679165
14.679166
14.679161
14.679161
14.679161
14.679161
14.679161
14.679162
14.679163
14.679164
14.679165
14.67916
14.67916
14.67916
14.67916
14.67916
14.679161
14.679162
14.679163
14.679165
14.679159
14.679159
14.679159
14.679159
14.679159
14.67916
14.679161
14.679162
14.679164
14.679158
14.679158
14.679158
14.679158
14.679158
14.679159
14.67916
14.679162
14.679163
14.679158
14.679158
14.679158
14.679158
14.679158
14.679158
14.67916
14.679161
14.679163
14.679157
14.679157
14.679157
14.679157
14.679157
14.679158
14.679159
14.679161
14.679162
14.679157
14.679157
14.679157
14.679157
14.679157
14.679158
14.679159
14.67916
14.679162
14.679156
14.679156
14.679157
14.679156
14.679157
14.679157
14.679158
14.67916
14.679162
14.679156
14.679156
14.679156
14.679156
14.679156
14.679157
14.679158
14.67916
14.679162
14.679156
14.679156
14.679156
14.679156