/*--------------------------------*- C++ -*----------------------------------*\
| =========                 |                                                 |
| \\      /  F ield         | OpenFOAM: The Open Source CFD Toolbox           |
|  \\    /   O peration     | Version:  2406                                  |
|   \\  /    A nd           | Website:  www.openfoam.com                      |
|    \\/     M anipulation  |                                                 |
\*---------------------------------------------------------------------------*/
FoamFile
{
    version     2.0;
    format      ascii;
    arch        "LSB;label=32;scalar=64";
    class       surfaceScalarField;
    location    "12.75";
    object      phi;
}
// * * * * * * * * * * * * * * * * * * * * * * * * * * * * * * * * * * * * * //

dimensions      [0 3 -1 0 0 0 0];

oriented        oriented;

internalField   nonuniform List<scalar> 
101088
(
0.00013137304
-2.2686974e-05
1.7459433e-05
1.9754337e-05
0.00027263778
-9.6948352e-05
7.4365666e-05
8.5489042e-05
0.00040034167
-0.0002310325
0.00017547232
0.00020555082
0.00048518043
-0.00043213129
0.00032215419
0.00038795479
0.00050946139
-0.00067387705
0.00048639757
0.00061195107
0.00048599144
-0.00089152245
0.00061221541
0.00081973406
0.00045350239
-0.0010201467
0.00065076417
0.00094819171
0.00044383234
-0.0010347298
0.00059789781
0.00097086203
-0.00094927563
0.00048890537
0.00089646781
0.0004642457
0.0001597121
-2.5067421e-05
2.1644403e-05
0.00032724459
-0.00010570585
9.1352002e-05
0.000470947
-0.00024871467
0.00021373605
0.00055245163
-0.00045882249
0.00038872738
0.00055165909
-0.00070535546
0.00058114837
0.00048918227
-0.00092069511
0.00072588277
0.00041512161
-0.0010416912
0.00077060941
0.00036737358
-0.0010450806
0.000714069
-0.00094802121
0.00059504835
0.00035286236
0.00018799302
-2.6609214e-05
2.5907307e-05
0.00038093186
-0.00011079942
0.00010844067
0.00053992956
-0.00025774051
0.0002516996
0.00062015802
-0.00046934978
0.00045362745
0.00060055654
-0.00071069845
0.00067157591
0.00050811385
-0.00091316902
0.00083190377
0.00040122522
-0.0010181794
0.00087990919
0.00032249775
-0.0010068146
0.00081835773
-0.00090013871
0.00068986311
0.00028044153
0.00021544722
-2.7252567e-05
3.0137004e-05
0.00043279709
-0.00011217748
0.00012518145
0.00060635664
-0.00025820967
0.00028841488
0.00068574169
-0.00046441564
0.00051549908
0.00065029479
-0.00069235962
0.00075645643
0.00053357367
-0.00087391332
0.0009299599
0.00040024226
-0.00095600859
0.00097960877
0.00029719723
-0.00092779578
0.00091226858
-0.00081503321
0.00077418138
0.00023491214
0.00024125072
-2.682255e-05
3.4171808e-05
0.00048116541
-0.00010956569
0.00014105126
0.00066800325
-0.00025026508
0.00032302774
0.00074676584
-0.00044536306
0.00057350028
0.00069763965
-0.00065353402
0.00083553747
0.00056008414
-0.00080797626
0.0010207274
0.00040449988
-0.00086207409
0.0010711559
0.0002818051
-0.00081641199
0.00099764985
-0.00070049808
0.00084984608
0.00020306849
0.00026531971
-2.5627154e-05
3.7992407e-05
0.00052651679
-0.00010398393
0.00015601058
0.00072614615
-0.00023581849
0.00035555706
0.0008046278
-0.00041503243
0.00062792016
0.00074256709
-0.00059793034
0.00090964104
0.00058481469
-0.000719865
0.001105496
0.00040792513
-0.00074233261
0.0011561904
0.00026678048
-0.00067954201
0.0010762069
-0.00056634182
0.00091862848
0.00017574984
0.0002863982
-2.3586001e-05
4.1531583e-05
0.00056538092
-9.5275368e-05
0.00016985669
0.00077416304
-0.00021488949
0.00038569698
0.00084901637
-0.00037418052
0.00067852485
0.00077148599
-0.00052800003
0.00097883546
0.00059264628
-0.00061474421
0.0011846403
0.00039630938
-0.0006056758
0.0012353633
0.00024141442
-0.0005293417
0.0011489751
-0.0004241254
0.00098191847
0.00014251324
0.00030419701
-2.0679624e-05
4.4735851e-05
0.00059711068
-8.3345174e-05
0.00018249709
0.00081052513
-0.00018727142
0.00041350077
0.00087652235
-0.00032278112
0.00072578172
0.00077839542
-0.00044519803
0.0010441723
0.00057559675
-0.00049755964
0.0012596156
0.00036132235
-0.0004622138
0.0013102972
0.00019742091
-0.00037918803
0.0012175938
-0.00028760448
0.0010414045
9.6369323e-05
0.00031835706
-1.6838349e-05
4.756299e-05
0.00062076629
-6.78546e-05
0.00019382002
0.0008332058
-0.00015211041
0.00043887618
0.00088344765
-0.00025969547
0.00076968693
0.00075809844
-0.00034995997
0.0011056376
0.00052845782
-0.00037353732
0.0013304239
0.00029892773
-0.00032317141
0.0013809617
0.0001320322
-0.00024358797
0.0012823062
-0.00017082667
0.0010976311
3.4968311e-05
0.00032875199
-1.2060319e-05
4.9926152e-05
0.00063635232
-4.8595012e-05
0.00020346606
0.00084275672
-0.00010866485
0.00046096214
0.00087140397
-0.00018386895
0.00080881073
0.00071387745
-0.00024251871
0.0011609539
0.00045665641
-0.00024741945
0.001394188
0.00021583628
-0.00019831977
0.001444618
5.1824307e-05
-0.00013468485
0.0013411592
-8.460442e-05
0.0011487664
-3.6014735e-05
0.00033521245
-6.3317036e-06
5.1707185e-05
0.0006441239
-2.5492183e-05
0.00021078877
0.00084158109
-5.6914532e-05
0.00047790266
0.00084778407
-9.5742126e-05
0.00083918952
0.00065964738
-0.00012437565
0.0012044247
0.00037905188
-0.00012251838
0.0014442097
0.00013198407
-9.2070878e-05
0.0014947139
-2.5433405e-05
-5.6548625e-05
0.0013883749
-3.1380759e-05
0.0011899939
-0.00010202284
0.00033834413
-3.6340608e-11
5.2615865e-05
0.00064731273
-1.6577497e-10
0.00021464257
0.00083864146
-4.5043689e-10
0.00048709259
0.00083048081
-1.0991295e-09
0.00085614327
0.00062320008
-1.7748545e-09
0.001229206
0.00032860658
-2.5475345e-09
0.0014733813
7.8900879e-05
-3.1913272e-09
0.0015242018
-7.3296157e-05
-3.6919077e-09
0.0014162791
-3.9827059e-09
0.0012140646
-0.00014238983
0.0003383442
6.3316457e-06
5.2615853e-05
0.00064731269
2.5491884e-05
0.00021464253
0.00083864128
5.691368e-05
0.0004870925
0.00083048111
9.5740105e-05
0.00085614312
0.00062320021
0.00012437244
0.0012292058
0.00032860666
0.00012251373
0.0014733811
7.8900907e-05
9.2065012e-05
0.0015242016
-7.3296218e-05
5.654168e-05
0.0014162789
3.1373165e-05
0.0012140644
-0.00014238967
0.00033521266
1.2060259e-05
5.1707177e-05
0.00064412393
4.8594714e-05
0.00021078873
0.0008415809
0.00010866412
0.00047790259
0.00084778504
0.00018386746
0.00083918936
0.0006596477
0.00024251634
0.0012044245
0.00037905206
0.00024741583
0.0014442094
0.00013198405
0.00019831511
0.0014947136
-2.5433689e-05
0.00013467899
0.0013883744
8.4597842e-05
0.0011899934
-0.00010202259
0.00032875211
1.6838273e-05
4.9926133e-05
0.00063635229
6.7854268e-05
0.00020346598
0.00084275643
0.00015210981
0.00046096194
0.00087140493
0.00025969447
0.00080881032
0.00071387736
0.00034995812
0.0011609534
0.00045665636
0.00037353445
0.0013941874
0.00021583585
0.00032316776
0.0014446174
5.1823553e-05
0.0002435832
0.0013411585
0.00017082145
0.0011487657
-3.6014755e-05
0.00031835731
2.067962e-05
4.7562973e-05
0.00062076673
8.3345087e-05
0.00019381995
0.0008332058
0.00018727111
0.00043887598
0.00088344836
0.00032278028
0.00076968657
0.00075809798
0.00044519604
0.0011056372
0.00052845748
0.00049755691
0.0013304234
0.00029892664
0.00046221034
0.0013809611
0.00013203079
0.00037918371
0.0012823056
0.00028760037
0.0010976303
3.496789e-05
0.00030419706
2.3585964e-05
4.4735841e-05
0.00059711079
9.5275233e-05
0.00018249705
0.00081052464
0.00021488894
0.00041350066
0.00087652232
0.00037417927
0.00072578157
0.00077839496
0.00052799776
0.001044172
0.00057559626
0.00061474153
0.0012596153
0.00036132075
0.00060567215
0.0013102969
0.00019741907
0.00052933751
0.0012175935
0.00042412171
0.0010414039
9.6368632e-05
0.00028639845
2.5627104e-05
4.1531584e-05
0.00056538155
0.00010398381
0.00016985668
0.00077416304
0.00023581812
0.00038569692
0.00084901625
0.00041503162
0.00067852473
0.00077148595
0.00059792865
0.0009788352
0.00059264561
0.00071986253
0.0011846401
0.00039630766
0.00074232919
0.0012353632
0.00024141245
0.00067953841
0.0011489749
0.00056633788
0.00098191805
0.00014251201
0.00026532031
2.6822492e-05
3.7992411e-05
0.00052651802
0.00010956544
0.00015601058
0.00072614669
0.00025026449
0.00035555705
0.00080462773
0.00044536178
0.00062792016
0.00074256724
0.00065353172
0.000909641
0.000584814
0.00080797305
0.0011054959
0.00040792382
0.00086207108
0.0011561904
0.00026677846
0.00081640915
0.0010762068
0.00070049384
0.00091862825
0.0001757477
0.00024125095
2.7252477e-05
3.417181e-05
0.00048116591
0.00011217717
0.00014105127
0.0006680036
0.00025820912
0.00032302775
0.00074676608
0.0004644148
0.00057350029
0.00069764023
0.0006923583
0.00083553744
0.00056008437
0.00087391102
0.0010207272
0.00040449927
0.00095600585
0.0010711556
0.00028180288
0.00092779281
0.0009976496
0.00081502988
0.00084984595
0.00020306553
0.00021544743
2.6609175e-05
3.0137001e-05
0.00043279789
0.0001107993
0.00012518143
0.00060635777
0.00025774018
0.00028841482
0.00068574233
0.00046934901
0.00051549895
0.000650295
0.00071069703
0.00075645617
0.00053357388
0.00091316688
0.00092995948
0.00040024193
0.0010181762
0.0009796084
0.00029719608
0.0010068115
0.00091226843
0.00090013742
0.00077418118
0.00023490863
0.00018799301
2.5067385e-05
2.5907299e-05
0.00038093203
0.00010570575
0.00010844063
0.00053993005
0.00024871441
0.00025169952
0.00062015855
0.00045882188
0.0004536273
0.00060055641
0.00070535414
0.00067157567
0.00050811287
0.00092069291
0.00083190348
0.00040122412
0.0010416883
0.00087990884
0.00032249734
0.0010450789
0.00081835756
0.00094802124
0.00068986292
0.0002804382
0.00015971202
2.2686955e-05
2.1644405e-05
0.00032724459
9.6948307e-05
9.135201e-05
0.00047094732
0.00023103242
0.00021373608
0.00055245215
0.00043213115
0.00038872744
0.00055165868
0.00067387663
0.0005811484
0.00048918029
0.00089152129
0.00072588272
0.00041511899
0.0010201452
0.00077060927
0.00036736947
0.0010347296
0.00071406881
0.00094927665
0.00059504822
0.00035285789
0.00013137303
1.7459437e-05
1.9754362e-05
0.00027263785
7.4365679e-05
8.5489159e-05
0.00040034178
0.00017547235
0.00020555115
0.0004851805
0.00032215424
0.00038795545
0.00050946077
0.0004863976
0.00061195191
0.00048598896
0.00061221535
0.00081973447
0.00045349944
0.00065076404
0.00094819126
0.00044382809
0.00059789783
0.00097086113
0.00048890534
0.00089646682
0.00046424528
2.1993643e-06
-4.3159259e-06
1.656207e-05
3.0139224e-06
9.73056e-06
-2.1207985e-05
7.2698293e-05
1.5344276e-05
2.51413e-05
-5.8579201e-05
0.00017508764
4.3553454e-05
5.1028071e-05
-0.00012879726
0.00032686753
9.8197369e-05
8.6146998e-05
-0.00023618916
0.00050282067
0.00018464688
0.00012428576
-0.00036199802
0.00064672443
0.00028935021
0.00016092176
-0.00046836819
0.00070255606
0.00037994098
0.00019673441
-0.00052516792
0.00065731054
0.00042994296
-0.0005236099
0.00054318348
0.0004347476
0.00023131793
2.9178637e-06
-5.5049645e-06
1.991558e-05
1.2844938e-05
-2.6881564e-05
8.7098351e-05
3.2477082e-05
-7.3343332e-05
0.00020886746
6.3202805e-05
-0.0001584189
0.00038762227
0.00010063412
-0.00028454635
0.00059207325
0.00013551222
-0.00042751397
0.00075652003
0.00016289377
-0.00054456524
0.00081942396
0.00018560671
-0.00060399541
0.00077018253
-0.00059599214
0.00064644161
0.00020659646
3.8966401e-06
-6.6492466e-06
2.3155008e-05
1.6742026e-05
-3.2254216e-05
0.00010096797
4.1089894e-05
-8.7171981e-05
0.00024118047
7.6982777e-05
-0.00018566892
0.0004449848
0.00011690302
-0.00032748851
0.00067459835
0.00014887091
-0.00048272706
0.00085515049
0.00016797396
-0.0006046802
0.00092092142
0.00017931614
-0.00066217782
0.00086519814
-0.00064650463
0.00073205223
0.00018764024
5.0448647e-06
-7.770065e-06
2.6212835e-05
2.1358817e-05
-3.7373077e-05
0.000113986
5.1238971e-05
-9.9918792e-05
0.00027128159
9.294966e-05
-0.000209729
0.00049784907
0.00013565143
-0.00036327066
0.00074953636
0.0001650076
-0.00052517363
0.00094304962
0.00017670256
-0.00064624224
0.0010094758
0.00017805184
-0.00069751309
0.00094625492
-0.00067333564
0.00080360377
0.00017546186
6.1979635e-06
-8.7576149e-06
2.8961191e-05
2.6010147e-05
-4.184171e-05
0.00012570714
6.1518783e-05
-0.00011077938
0.00029837958
0.00010927472
-0.00022929797
0.00054531398
0.00015515832
-0.00039003152
0.00081641549
0.00018241845
-0.00055244373
0.0010207374
0.00018728942
-0.00066672578
0.0010867697
0.00017962366
-0.00070807401
0.001015877
-0.00067537836
0.0008639196
0.00016759294
7.4299883e-06
-9.6232127e-06
3.1427881e-05
3.1034483e-05
-4.5660235e-05
0.00013622434
7.2638465e-05
-0.00011949357
0.00032266759
0.00012691681
-0.00024341716
0.00058776076
0.00017623205
-0.00040565853
0.00087595259
0.00020119363
-0.0005612413
0.001089333
0.00019884382
-0.00066249116
0.001154307
0.00018222447
-0.00069106209
0.001075815
-0.00065093813
0.00091486762
0.00016154491
8.4508274e-06
-1.0153536e-05
3.361089e-05
3.5044401e-05
-4.7913355e-05
0.0001455162
8.1548869e-05
-0.0001244024
0.00034410239
0.00014062126
-0.00024913876
0.00062517418
0.00019141386
-0.00040586879
0.0009282524
0.00021269418
-0.00054698143
0.0011491004
0.00020308607
-0.00063001909
0.0012125008
0.00017896819
-0.0006447538
0.001126786
-0.00059960492
0.0009575793
0.00015197431
9.2758807e-06
-1.018341e-05
3.5489342e-05
3.7982429e-05
-4.768929e-05
0.00015356627
8.6909875e-05
-0.00012264808
0.00036281989
0.00014759151
-0.00024215541
0.00065811675
0.00019634408
-0.00038491044
0.00097446194
0.00021158674
-0.00050420932
0.0012016015
0.00019473724
-0.00056590059
0.0012630297
0.00016506164
-0.00056797343
0.0011704905
-0.00052136805
0.00099374354
0.00013448585
9.7642734e-06
-9.4572616e-06
3.7072226e-05
3.9295951e-05
-4.3819883e-05
0.00016041893
8.7968915e-05
-0.00011137903
0.00037893481
0.00014504335
-0.0002163959
0.00068685257
0.00018643897
-0.00033579056
0.0010151232
0.00019271828
-0.00042769118
0.0012476275
0.00016901392
-0.00046800261
0.0013067689
0.00013621909
-0.00046077939
0.0012079077
-0.00041708564
0.0010243962
0.00010517138
9.6603292e-06
-7.5484545e-06
3.8357199e-05
3.7826111e-05
-3.4564905e-05
0.0001660457
8.1931868e-05
-8.6844097e-05
0.00039232175
0.00012992994
-0.0001665526
0.00071096879
0.00015992237
-0.00025429824
0.0010494698
0.00015498448
-0.00031500093
0.0012864364
0.00012506173
-0.00033665728
0.0013431952
9.0202177e-05
-0.00032356449
0.0012388039
-0.00028862394
0.0010495371
6.0969424e-05
9.0904948e-06
-4.2794574e-06
3.9347966e-05
3.4390896e-05
-1.939342e-05
0.00017031709
7.131745e-05
-4.8253423e-05
0.00040238515
0.00010656467
-9.1586837e-05
0.00072897612
0.00012013198
-0.00013834962
0.0010749087
0.00010388372
-0.00016949622
0.0013149534
6.8579674e-05
-0.00017629899
0.0013696588
3.7975269e-05
-0.00016567802
0.0012610927
-0.00014784442
0.0010675929
1.9596392e-05
8.5123587e-06
2.307524e-11
3.9824139e-05
3.1305632e-05
7.21559e-11
0.00017245577
6.2558659e-05
1.0632516e-10
0.00040758549
8.8615229e-05
1.9680762e-11
0.00073849983
9.0927461e-05
3.5849754e-11
0.0010885436
6.4463092e-05
1.7410098e-10
0.0013303494
2.846589e-05
4.7425362e-10
0.0013838988
6.0135748e-06
8.6909645e-10
0.0012730526
1.0063148e-09
0.0010773009
-5.0683488e-06
8.5123221e-06
4.2795076e-06
3.9824131e-05
3.1305631e-05
1.9393586e-05
0.00017245574
6.2558708e-05
4.8253683e-05
0.00040758543
8.8615589e-05
9.158698e-05
0.00073849974
9.0927636e-05
0.0001383499
0.0010885435
6.4463141e-05
0.00016949687
0.0013303492
2.846602e-05
0.00017630036
0.0013838987
6.013596e-06
0.00016567995
0.0012730525
0.00014784634
0.0010773008
-5.06824e-06
9.0904253e-06
7.5484879e-06
3.934796e-05
3.4390876e-05
3.4565051e-05
0.00017031707
7.131745e-05
8.6844399e-05
0.0004023851
0.00010656555
0.00016655298
0.00072897606
0.00012013238
0.00025429894
0.0010749087
0.0001038838
0.00031500222
0.0013149533
6.8579984e-05
0.00033665943
0.0013696587
3.7975258e-05
0.0003235668
0.0012610925
0.00028862572
0.0010675927
1.9596562e-05
9.6604329e-06
9.4572511e-06
3.8357184e-05
3.7826267e-05
4.3819913e-05
0.00016604563
8.19317e-05
0.00011137924
0.00039232158
0.00012993091
0.0002163964
0.00071096853
0.00015992264
0.00033579143
0.0010494695
0.00015498438
0.00042769264
0.001286436
0.00012506182
0.00046800487
0.0013431949
9.0202166e-05
0.00046078142
0.0012388035
0.00041708734
0.0010495369
6.0969743e-05
9.7647678e-06
1.0183442e-05
3.7072213e-05
3.9296646e-05
4.768938e-05
0.00016041887
8.7968783e-05
0.00012264834
0.00037893465
0.00014504407
0.00024215594
0.00068685232
0.00018643899
0.00038491093
0.0010151229
0.00019271802
0.00050421018
0.0012476272
0.00016901336
0.00056590216
0.0013067686
0.00013621809
0.00056797497
0.0012079075
0.00052136961
0.0010243959
0.00010517122
9.2764402e-06
1.0153597e-05
3.5489332e-05
3.798323e-05
4.7913493e-05
0.00015356622
8.6909616e-05
0.00012440265
0.00036281978
0.00014759165
0.00024913909
0.0006581166
0.00019634405
0.00040586882
0.00097446174
0.00021158652
0.00054698176
0.0012016014
0.00019473633
0.00063001991
0.0012630296
0.00016506034
0.00064475474
0.0011704904
0.00059960604
0.00099374322
0.00013448566
8.4510808e-06
9.6231972e-06
3.3610888e-05
3.5044807e-05
4.5660161e-05
0.00014551619
8.1548349e-05
0.00011949343
0.00034410236
0.00014062097
0.00024341708
0.00062517413
0.00019141411
0.00040565865
0.00092825226
0.00021269413
0.00056124179
0.0011491003
0.0002030852
0.00066249191
0.0012125008
0.00017896702
0.00069106266
0.001126786
0.00065093813
0.00095757907
0.00015197385
7.4301095e-06
8.7575565e-06
3.1427888e-05
3.1034851e-05
4.1841562e-05
0.00013622436
7.2638525e-05
0.00011077921
0.00032266764
0.00012691718
0.00022929811
0.00058776084
0.0001762327
0.00039003196
0.00087595262
0.00020119374
0.00055244418
0.0010893329
0.00019884321
0.00066672645
0.001154307
0.00018222345
0.00070807414
0.001075815
0.00067537723
0.00091486757
0.000161544
6.1980677e-06
7.7700768e-06
2.8961194e-05
2.6010704e-05
3.7373121e-05
0.00012570714
6.1519581e-05
9.9918891e-05
0.0002983796
0.00010927533
0.00020972928
0.00054531399
0.00015515875
0.00036327106
0.00081641538
0.00018241893
0.00052517422
0.0010207371
0.00018728907
0.00064624252
0.0010867694
0.00017962255
0.00069751249
0.0010158769
0.00067333482
0.00086391959
0.00016759161
5.0450309e-06
6.6492614e-06
2.6212832e-05
2.1359557e-05
3.2254274e-05
0.00011398599
5.1240057e-05
8.7172088e-05
0.00027128155
9.2950398e-05
0.00018566912
0.00049784896
0.00013565215
0.00032748898
0.00074953614
0.00016500821
0.00048272782
0.00094304929
0.00017670257
0.00060468047
0.0010094755
0.00017805158
0.00066217674
0.00094625482
0.00064650381
0.00080360357
0.00017546041
3.8966707e-06
5.5049654e-06
2.3155001e-05
1.6742339e-05
2.6881588e-05
0.00010096794
4.1090558e-05
7.3343383e-05
0.00024118039
7.6983542e-05
0.00015841895
0.00044498469
0.00011690371
0.00028454646
0.00067459819
0.00014887111
0.00042751437
0.00085515022
0.00016797415
0.00054456584
0.00092092107
0.00017931705
0.00060399533
0.00086519792
0.00059599204
0.00073205199
0.00018763938
2.9178908e-06
4.31593e-06
1.9915579e-05
1.2845104e-05
2.1208034e-05
8.7098346e-05
3.2477429e-05
5.8579363e-05
0.00020886746
6.3203441e-05
0.00012879763
0.00038762227
0.00010063494
0.00023618991
0.00059207323
0.00013551266
0.0003619991
0.00075651989
0.00016289379
0.00046836911
0.0008194237
0.00018560593
0.00052516904
0.00077018228
0.00052361112
0.00064644145
0.00020659556
2.1994161e-06
1.6562073e-05
3.0139428e-06
9.7307053e-06
7.2698305e-05
1.5344369e-05
2.5141453e-05
0.00017508767
4.3553702e-05
5.1028689e-05
0.00032686758
9.8197911e-05
8.6148312e-05
0.00050282072
0.00018464776
0.00012428647
0.00064672438
0.00028935114
0.00016092287
0.00070255588
0.00037994182
0.00019673321
0.00065731034
0.00042994337
0.00054318338
0.00043474742
0.00023131786
1.6590598e-07
-1.6708902e-06
1.6575715e-05
1.491336e-06
1.3198151e-06
-8.2982877e-06
7.2475488e-05
7.3672667e-06
4.2367849e-06
-2.3299204e-05
0.00017506129
2.0408895e-05
9.0526878e-06
-5.2523545e-05
0.0003292494
4.5326331e-05
1.5900408e-05
-9.9947041e-05
0.00051033619
8.5584351e-05
2.5838645e-05
-0.00016006601
0.00065934124
0.00013751119
4.1188717e-05
-0.00021463412
0.00071532458
0.0001865156
6.3720364e-05
-0.00024488417
0.00066404836
0.00021561557
-0.00024376195
0.00054245175
0.00021752631
9.0687379e-05
1.9940375e-07
-1.7847399e-06
1.983001e-05
1.695287e-06
-9.0710531e-06
8.6375103e-05
5.3311934e-06
-2.5938625e-05
0.00020787066
1.0620869e-05
-5.9243797e-05
0.00038905242
1.6576919e-05
-0.00011321319
0.00059938274
2.3164487e-05
-0.00017997972
0.00076984507
3.2505971e-05
-0.00023750902
0.00083295706
4.7052164e-05
-0.00026591308
0.00077666432
-0.00026096442
0.00064383502
6.6861388e-05
3.076387e-07
-1.8785231e-06
2.2941201e-05
2.3345591e-06
-9.7486631e-06
9.9618853e-05
7.0191065e-06
-2.837071e-05
0.0002389285
1.3368793e-05
-6.5551538e-05
0.00044494355
1.9235837e-05
-0.00012533142
0.00068085003
2.336019e-05
-0.00019686199
0.00086790987
2.7616675e-05
-0.00025447487
0.00093363161
3.5444402e-05
-0.000278448
0.00086990533
-0.00026855905
0.00072657486
4.8516819e-05
4.7271597e-07
-1.9716157e-06
2.5833171e-05
3.2486849e-06
-1.0398866e-05
0.00011186024
9.3740015e-06
-3.0643842e-05
0.0002674299
1.7258949e-05
-7.1271444e-05
0.00049568475
2.3513178e-05
-0.00013571588
0.00075366595
2.5726884e-05
-0.00020978532
0.00095375968
2.5791989e-05
-0.00026475758
0.0010196934
2.8158023e-05
-0.00028238484
0.00094782563
-0.00026699138
0.00079453257
3.5662645e-05
6.5653109e-07
-2.0457789e-06
2.8378815e-05
4.2527147e-06
-1.0939575e-05
0.00012265149
1.1989546e-05
-3.2553658e-05
0.00029255247
2.1715265e-05
-7.5960324e-05
0.00054027763
2.8770086e-05
-0.00014356912
0.00081721559
2.9554078e-05
-0.00021769771
0.0010278662
2.6094804e-05
-0.00026754912
0.0010930217
2.3969807e-05
-0.00027767656
0.0010132939
-0.00025707825
0.00085083928
2.7137372e-05
9.2486288e-07
-2.1472481e-06
3.0604621e-05
5.5372289e-06
-1.1402473e-05
0.00013207525
1.5228339e-05
-3.4021588e-05
0.00031444492
2.7257988e-05
-7.9217425e-05
0.00057898758
3.5521799e-05
-0.00014791601
0.00087203635
3.5105006e-05
-0.00021918451
0.0010912373
2.8255033e-05
-0.00026152373
0.001155133
2.1982e-05
-0.00026377758
0.0010681895
-0.00023929296
0.00089745873
2.1605765e-05
1.2143324e-06
-2.2503713e-06
3.2499624e-05
6.9526888e-06
-1.1692819e-05
0.00014006837
1.8368121e-05
-3.4285988e-05
0.00033295235
3.2275305e-05
-7.9529264e-05
0.00061157937
4.1320013e-05
-0.00014665055
0.00091794276
3.9426205e-05
-0.00021210127
0.0011439112
2.9466199e-05
-0.00024543047
0.0012063686
1.9879495e-05
-0.00024060296
0.0011131988
-0.00021442363
0.00093539976
1.7190119e-05
1.4014832e-06
-2.2083213e-06
3.404551e-05
7.9812532e-06
-1.1314501e-05
0.00014660814
2.1137874e-05
-3.2774978e-05
0.000348153
3.6247236e-05
-7.4993387e-05
0.00063847202
4.5277464e-05
-0.00013713496
0.00095591726
4.1456177e-05
-0.00019406336
0.0011873855
2.8622859e-05
-0.00021796131
0.0012483948
1.6701671e-05
-0.00020806587
0.0011498754
-0.000183211
0.0009660644
1.3168658e-05
1.4733058e-06
-1.8627902e-06
3.5253091e-05
8.4569093e-06
-9.6207139e-06
0.00015174157
2.2481267e-05
-2.8019383e-05
0.00036015559
3.8594255e-05
-6.4211346e-05
0.00065995756
4.7177534e-05
-0.00011718211
0.000986588
4.1178298e-05
-0.00016305235
0.0012226165
2.5998117e-05
-0.00017828192
0.0012822704
1.335956e-05
-0.00016669093
0.0011791719
-0.00014661286
0.00099027043
1.0887459e-05
1.6552501e-06
-1.301441e-06
3.6140576e-05
9.4337141e-06
-6.8894107e-06
0.00015553616
2.503044e-05
-2.0365636e-05
0.00036907204
4.2615499e-05
-4.6811217e-05
0.00067598364
4.9730146e-05
-8.4757855e-05
0.0010099313
4.1488696e-05
-0.00011809478
0.0012497208
2.514287e-05
-0.00012697717
0.0013082365
1.5468002e-05
-0.00011950058
0.0012012885
-0.00010630009
0.0010081216
1.6570711e-05
1.9396102e-06
-6.6671789e-07
3.677376e-05
1.0785328e-05
-3.5914533e-06
0.00015817345
2.8406796e-05
-1.0733339e-05
0.00037513154
4.8676488e-05
-2.4758756e-05
0.00068665394
5.8202534e-05
-4.4489634e-05
0.0010251145
4.8457122e-05
-6.1000839e-05
0.0012676049
3.2723724e-05
-6.6883384e-05
0.0013252982
2.3185826e-05
-6.4186021e-05
0.001215316
-5.5960953e-05
0.001019056
2.1383394e-05
2.1144593e-06
2.9408606e-11
3.7043043e-05
1.161852e-05
9.3105239e-11
0.00015936008
3.0481365e-05
1.9973627e-10
0.00037798888
5.2341863e-05
3.5587768e-10
0.00069188016
6.3678633e-05
6.3346007e-10
0.0010327165
5.6628113e-05
9.5602377e-10
0.001276398
3.9987065e-05
1.0953056e-09
0.0013336551
2.6642386e-05
1.0094442e-09
0.0012222103
6.604159e-10
0.0010245188
2.3462722e-05
2.1143912e-06
6.6676487e-07
3.7043037e-05
1.1618492e-05
3.5916422e-06
0.00015936006
3.0481338e-05
1.0733791e-05
0.00037798883
5.2341896e-05
2.4759569e-05
0.00069188009
6.3678566e-05
4.4491085e-05
0.0010327164
5.6627968e-05
6.1002999e-05
0.0012763979
3.9986969e-05
6.6885803e-05
0.001333655
2.6642251e-05
6.4188146e-05
0.0012222102
5.5962239e-05
0.0010245187
2.3462657e-05
1.9395341e-06
1.3014646e-06
3.6773758e-05
1.0785319e-05
6.8895885e-06
0.00015817345
2.8406609e-05
2.0366138e-05
0.00037513153
4.8676501e-05
4.6812202e-05
0.00068665395
5.8202306e-05
8.4759681e-05
0.0010251145
4.8456699e-05
0.00011809741
0.0012676049
3.2723304e-05
0.00012698008
0.0013252981
2.3185319e-05
0.00011950285
0.0012153159
0.00010630127
0.001019056
2.1383074e-05
1.6553593e-06
1.8628061e-06
3.6140567e-05
9.4338245e-06
9.6208577e-06
0.00015553612
2.503001e-05
2.8019821e-05
0.00036907194
4.2615416e-05
6.4212398e-05
0.00067598348
4.9729749e-05
0.00011718411
0.0010099311
4.1488056e-05
0.00016305512
0.0012497205
2.5142016e-05
0.00017828509
0.0013082362
1.5466765e-05
0.00016669342
0.0012012883
0.0001466139
0.0010081215
1.6569774e-05
1.4736562e-06
2.2083839e-06
3.5253085e-05
8.4573477e-06
1.1314731e-05
0.00015174154
2.248102e-05
3.2775525e-05
0.00036015551
3.8594229e-05
7.499457e-05
0.00065995742
4.7176944e-05
0.00013713681
0.00098658779
4.1177456e-05
0.00019406579
0.0012226164
2.599703e-05
0.00021796418
0.0012822702
1.3358525e-05
0.00020806806
0.0011791717
0.00018321189
0.0009902702
1.08869e-05
1.4018333e-06
2.2504541e-06
3.4045506e-05
7.9817471e-06
1.1693081e-05
0.00014660812
2.1137695e-05
3.428656e-05
0.00034815294
3.6246952e-05
7.953028e-05
0.00063847195
4.527662e-05
0.000146652
0.00095591714
4.1455314e-05
0.0002121034
0.0011873855
2.8621707e-05
0.00024543314
0.0012483949
1.6700657e-05
0.00024060496
0.0011498753
0.00021442416
0.00096606414
1.3168169e-05
1.2144562e-06
2.14729e-06
3.2499624e-05
6.9528149e-06
1.1402598e-05
0.00014006837
1.836759e-05
3.4021864e-05
0.00033295235
3.2274829e-05
7.9218054e-05
0.00061157938
4.1319339e-05
0.00014791743
0.00091794274
3.9425622e-05
0.00021918689
0.0011439112
2.9465192e-05
0.00026152658
0.0012063687
1.987864e-05
0.00026377941
0.0011131988
0.00023929272
0.00093539958
1.7189476e-05
9.2480033e-07
2.0457557e-06
3.0604631e-05
5.537006e-06
1.0939562e-05
0.00013207528
1.5227911e-05
3.255387e-05
0.00031444501
2.7258345e-05
7.5961308e-05
0.00057898774
3.5521748e-05
0.00014357092
0.00087203648
3.5104814e-05
0.00021770011
0.0010912374
2.8254283e-05
0.00026755163
0.001155133
2.1981204e-05
0.00027767794
0.0010681895
0.00025707745
0.00089745871
2.1604677e-05
6.5649397e-07
1.9716632e-06
2.8378816e-05
4.2528158e-06
1.0399074e-05
0.00012265149
1.1989924e-05
3.0644389e-05
0.00029255247
2.1715813e-05
7.1272581e-05
0.00054027765
2.8770055e-05
0.0001357174
0.00081721551
2.9554203e-05
0.00020978761
0.0010278661
2.6094335e-05
0.00026475961
0.0010930215
2.3969063e-05
0.00028238596
0.0010132939
0.00026699126
0.0008508393
2.7135813e-05
4.7282496e-07
1.8785707e-06
2.5833168e-05
3.2490376e-06
9.7488618e-06
0.00011186022
9.3743329e-06
2.837118e-05
0.00026742986
1.7259065e-05
6.5552509e-05
0.00049568466
2.3513863e-05
0.00012533309
0.00075366578
2.5727252e-05
0.00019686411
0.00095375943
2.5792034e-05
0.00025447704
0.0010196931
2.8158029e-05
0.00027844914
0.00094782559
0.00026855912
0.00079453245
3.5661548e-05
3.0768111e-07
1.784779e-06
2.2941195e-05
2.3347245e-06
9.0712212e-06
9.9618823e-05
7.0192752e-06
2.5939022e-05
0.00023892843
1.3368939e-05
5.9244566e-05
0.00044494344
1.9236453e-05
0.0001132145
0.00068084987
2.3360635e-05
0.00017998134
0.0008679096
2.7616911e-05
0.00023751109
0.00093363131
3.5445029e-05
0.00026591476
0.00086990517
0.00026096579
0.00072657468
4.8516296e-05
1.9944639e-07
1.6709291e-06
1.983001e-05
1.6954473e-06
8.2984654e-06
8.63751e-05
5.3313833e-06
2.3299658e-05
0.00020787065
1.0621055e-05
5.2524458e-05
0.00038905241
1.6577344e-05
9.9948617e-05
0.0005993827
2.3165122e-05
0.00016006807
0.00076984493
3.2506264e-05
0.00021463596
0.00083295686
4.7052806e-05
0.00024488646
0.00077666418
0.00024376475
0.00064383496
6.6861649e-05
1.6593474e-07
1.6575719e-05
1.4913963e-06
1.3198902e-06
7.2475504e-05
7.3675087e-06
4.2368381e-06
0.00017506133
2.0409462e-05
9.0529975e-06
0.00032924946
4.5327391e-05
1.5901057e-05
0.00051033625
8.5585875e-05
2.5838881e-05
0.00065934124
0.0001375126
4.1189643e-05
0.00071532449
0.00018651669
6.3721298e-05
0.00066404824
0.00021561588
0.00054245173
0.0002175259
9.0688794e-05
1.5396994e-07
-9.9162803e-07
1.6724661e-05
6.8871005e-07
6.6943498e-07
-4.6647225e-06
7.3287826e-05
3.3369614e-06
2.1547344e-06
-1.2474962e-05
0.00017691461
9.1365067e-06
6.2055638e-06
-2.6960658e-05
0.00033198421
2.0175302e-05
1.4610429e-05
-4.9921463e-05
0.00051367651
3.8176511e-05
2.7501153e-05
-7.9224349e-05
0.00066370062
6.1974318e-05
4.2355628e-05
-0.0001062823
0.00072162183
8.5130633e-05
5.5845089e-05
-0.00012095069
0.00067238822
9.9121898e-05
-0.00011903134
0.0005514275
0.00010021008
6.5690381e-05
1.4517196e-07
-1.2460034e-06
1.9939204e-05
6.4827073e-07
-5.8330343e-06
8.7040249e-05
2.2320347e-06
-1.5469239e-05
0.00020928099
6.7264114e-06
-3.3046497e-05
0.0003906436
1.5932506e-05
-6.0324988e-05
0.00060057975
2.9327613e-05
-9.3998654e-05
0.00077122359
4.3390659e-05
-0.00012338612
0.00083599774
5.446063e-05
-0.00013745598
0.00078209912
-0.00013293509
0.0006509759
6.1223657e-05
1.432848e-07
-1.4396867e-06
2.2991634e-05
6.1320685e-07
-6.731309e-06
0.00010004731
2.2227679e-06
-1.7818116e-05
0.00023966802
7.0777292e-06
-3.791901e-05
0.00044496132
1.7014406e-05
-6.8665127e-05
0.00067925361
3.0906982e-05
-0.00010542501
0.00086544447
4.4437652e-05
-0.00013563492
0.00093235018
5.3810245e-05
-0.00014809334
0.00087117007
-0.00014116356
0.0007304912
5.81227e-05
1.5525379e-07
-1.5724842e-06
2.5810716e-05
6.5601399e-07
-7.3523817e-06
0.00011198063
2.411737e-06
-1.9460912e-05
0.00026731729
7.7471652e-06
-4.1373097e-05
0.00049380372
1.846593e-05
-7.4541366e-05
0.00074882292
3.288358e-05
-0.00011299729
0.00094691454
4.6094392e-05
-0.00014264682