/*--------------------------------*- C++ -*----------------------------------*\
| =========                 |                                                 |
| \\      /  F ield         | OpenFOAM: The Open Source CFD Toolbox           |
|  \\    /   O peration     | Version:  2406                                  |
|   \\  /    A nd           | Website:  www.openfoam.com                      |
|    \\/     M anipulation  |                                                 |
\*---------------------------------------------------------------------------*/
FoamFile
{
    version     2.0;
    format      ascii;
    arch        "LSB;label=32;scalar=64";
    class       volVectorField;
    location    "12.75";
    object      U;
}
// * * * * * * * * * * * * * * * * * * * * * * * * * * * * * * * * * * * * * //

dimensions      [0 1 -1 0 0 0 0];

internalField   nonuniform List<vector> 
34560
(
(0.085249686 -0.0074123118 -0.020155857)
(0.26255004 -0.02246124 -0.062507897)
(0.46142619 -0.042228646 -0.10700187)
(0.65885459 -0.066978952 -0.14593761)
(0.82204843 -0.094704624 -0.17056771)
(0.92174761 -0.12179395 -0.17494605)
(0.95366666 -0.14485415 -0.1618307)
(0.94215974 -0.16137 -0.14072434)
(0.91621702 -0.16934892 -0.12213812)
(0.097718243 -0.008611507 -0.022448347)
(0.29644413 -0.025194728 -0.06901658)
(0.51280831 -0.045899349 -0.11619511)
(0.71853771 -0.070620657 -0.15479202)
(0.8768701 -0.096899657 -0.17558707)
(0.96048682 -0.12107141 -0.17398674)
(0.97413105 -0.14029317 -0.15493301)
(0.95029119 -0.15243677 -0.13024313)
(0.92067245 -0.15675991 -0.10928408)
(0.11050502 -0.0091435058 -0.023778394)
(0.33089305 -0.026217165 -0.072905639)
(0.56475308 -0.046952396 -0.1213867)
(0.77906382 -0.070925595 -0.15907789)
(0.93397125 -0.09527137 -0.17676194)
(1.0046815 -0.11637177 -0.17101111)
(1.0039088 -0.13215882 -0.14834472)
(0.97167918 -0.14070886 -0.12137662)
(0.94145854 -0.14215792 -0.099204237)
(0.12348195 -0.0096119715 -0.024955519)
(0.36556387 -0.027000891 -0.076295274)
(0.61687291 -0.04739017 -0.12568749)
(0.84020055 -0.070020356 -0.16216578)
(0.99318572 -0.091721107 -0.17673955)
(1.0538134 -0.10913622 -0.1672929)
(1.0416673 -0.12091461 -0.14152521)
(1.0031257 -0.12589182 -0.11276204)
(0.9724613 -0.12469874 -0.089690104)
(0.13620292 -0.0096773392 -0.025784297)
(0.39955839 -0.026819808 -0.078783286)
(0.66832739 -0.046428236 -0.12871899)
(0.90165339 -0.067389975 -0.1639331)
(1.0548191 -0.086159352 -0.17565671)
(1.1081661 -0.099658768 -0.16284765)
(1.0869528 -0.10719947 -0.13419527)
(1.0433727 -0.10873816 -0.10369944)
(1.012158 -0.10537265 -0.079595792)
(0.14861947 -0.0095463603 -0.026282869)
(0.43286256 -0.026243736 -0.080368073)
(0.71931064 -0.044867553 -0.13047113)
(0.96396699 -0.063915829 -0.16433304)
(1.1196794 -0.079503162 -0.17331978)
(1.1682178 -0.088859499 -0.15723165)
(1.1398352 -0.092050187 -0.12563842)
(1.0922262 -0.090373611 -0.09337916)
(1.0604862 -0.085386576 -0.068204175)
(0.16064285 -0.009176791 -0.026599141)
(0.46542556 -0.025119549 -0.081392485)
(0.770032 -0.042533568 -0.13127671)
(1.027718 -0.059523943 -0.16344047)
(1.1885603 -0.071883606 -0.16934099)
(1.2345313 -0.077127255 -0.14958168)
(1.2006507 -0.076135048 -0.11478776)
(1.1500118 -0.071662281 -0.080733638)
(1.1179511 -0.065672036 -0.054710353)
(0.17196666 -0.0085014517 -0.026708157)
(0.49667847 -0.023285737 -0.081786767)
(0.81999842 -0.039212719 -0.13098055)
(1.0926921 -0.054043464 -0.16090487)
(1.2614737 -0.063328892 -0.16304135)
(1.306939 -0.064807512 -0.13889975)
(1.2693115 -0.060215298 -0.1006445)
(1.2166564 -0.053628161 -0.065005419)
(1.184511 -0.047233076 -0.03865939)
(0.18227947 -0.0074405588 -0.026629406)
(0.52583645 -0.020477466 -0.081562978)
(0.86803156 -0.034431363 -0.12949818)
(1.15731 -0.04688426 -0.15643022)
(1.3363848 -0.053400562 -0.15388755)
(1.3832398 -0.051921163 -0.12455991)
(1.3437748 -0.044917272 -0.082858911)
(1.290214 -0.037240838 -0.0461841)
(1.258082 -0.031113725 -0.020350169)
(0.19108133 -0.0059340359 -0.02640616)
(0.55134366 -0.016441986 -0.08082651)
(0.91122275 -0.027645584 -0.12701988)
(1.2170513 -0.037273903 -0.15034609)
(1.4072714 -0.041409184 -0.14248275)
(1.457377 -0.038303864 -0.10751314)
(1.4179003 -0.030696365 -0.062813728)
(1.3647927 -0.023351678 -0.025843)
(1.3324208 -0.018216761 -0.0014150945)
(0.1978173 -0.0039193375 -0.026172959)
(0.5711082 -0.010905121 -0.07997588)
(0.94518015 -0.018298706 -0.12435784)
(1.2647185 -0.024443317 -0.14416425)
(1.4643046 -0.026620238 -0.13131111)
(1.5185523 -0.023637976 -0.091256015)
(1.4804619 -0.017673368 -0.044354134)
(1.4288156 -0.012327956 -0.0077013633)
(1.3960344 -0.0089211188 0.014981429)
(0.20129955 -0.0013279595 -0.026002455)
(0.58161109 -0.0037013862 -0.079380962)
(0.96367196 -0.0062477345 -0.12262959)
(1.2912126 -0.008370093 -0.14026766)
(1.4964734 -0.0090688481 -0.12432719)
(1.5537789 -0.0078943189 -0.081178647)
(1.5171898 -0.0056645045 -0.03308343)
(1.4666597 -0.0037395365 0.0031673387)
(1.4333116 -0.0025733075 0.024613234)
(0.20129953 0.0013279204 -0.026002451)
(0.58161102 0.0037012437 -0.079380975)
(0.9636719 0.0062474445 -0.12262958)
(1.2912125 0.0083695639 -0.14026766)
(1.4964733 0.0090681735 -0.12432721)
(1.5537787 0.0078934996 -0.081178648)
(1.5171896 0.005663576 -0.033083413)
(1.4666594 0.003738483 0.0031673771)
(1.4333113 0.0025721127 0.024613261)
(0.19781725 0.0039192972 -0.026172949)
(0.57110807 0.010904974 -0.079975894)
(0.94518001 0.018298436 -0.1243578)
(1.2647181 0.024442867 -0.14416426)
(1.4643041 0.026619672 -0.13131116)
(1.5185517 0.02363728 -0.091255998)
(1.4804612 0.017672574 -0.044354074)
(1.4288149 0.012327022 -0.0077012432)
(1.3960335 0.0089200399 0.014981524)
(0.19108129 0.005933992 -0.02640615)
(0.55134352 0.016441846 -0.080826516)
(0.91122251 0.027645362 -0.12701984)
(1.2170507 0.037273569 -0.1503461)
(1.4072706 0.041408748 -0.14248279)
(1.4573762 0.03830333 -0.10751306)
(1.4178994 0.030695757 -0.062813592)
(1.3647917 0.023350931 -0.02584277)
(1.3324194 0.01821589 -0.0014148995)
(0.18227941 0.007440539 -0.026629413)
(0.52583623 0.020477379 -0.081563041)
(0.86803114 0.03443121 -0.1294982)
(1.1573093 0.046884018 -0.15643023)
(1.3363841 0.053400186 -0.15388752)
(1.383239 0.051920724 -0.12455976)
(1.3437739 0.044916781 -0.082858678)
(1.290213 0.037240244 -0.046183737)
(1.2580804 0.031113071 -0.02034987)
(0.17196662 0.0085014237 -0.026708147)
(0.49667833 0.023285627 -0.081786784)
(0.81999816 0.039212547 -0.13098048)
(1.0926918 0.054043226 -0.16090477)
(1.2614732 0.063328504 -0.16304122)
(1.3069384 0.064807095 -0.13889955)
(1.2693109 0.060214828 -0.10064418)
(1.2166556 0.053627639 -0.065004969)
(1.1845096 0.047232562 -0.038659006)
(0.16064283 0.0091767458 -0.026599136)
(0.46542543 0.025119408 -0.081392495)
(0.77003164 0.042533344 -0.13127669)
(1.0277175 0.059523675 -0.16344038)
(1.1885595 0.07188321 -0.16934084)
(1.2345306 0.077126833 -0.14958147)
(1.2006503 0.076134582 -0.1147874)
(1.1500111 0.071661812 -0.080733168)
(1.11795 0.065671561 -0.054709899)
(0.14861941 0.009546332 -0.026282855)
(0.43286234 0.026243622 -0.0803681)
(0.71931023 0.044867339 -0.13047114)
(0.96396655 0.063915547 -0.16433291)
(1.1196789 0.079502768 -0.17331958)
(1.1682173 0.08885903 -0.15723138)
(1.1398347 0.092049749 -0.12563806)
(1.0922256 0.090373209 -0.093378701)
(1.0604854 0.085386107 -0.068203605)
(0.13620292 0.0096772937 -0.025784269)
(0.39955838 0.026819679 -0.07878324)
(0.66832735 0.04642802 -0.1287189)
(0.90165334 0.067389681 -0.16393296)
(1.0548191 0.086158975 -0.1756566)
(1.1081657 0.099658247 -0.16284749)
(1.0869521 0.10719896 -0.13419505)
(1.043372 0.10873771 -0.10369897)
(1.0121574 0.10537228 -0.079595113)
(0.12348195 0.0096119296 -0.024955496)
(0.36556386 0.027000794 -0.076295213)
(0.61687285 0.047389963 -0.12568747)
(0.84020035 0.070020069 -0.16216573)
(0.99318531 0.091720761 -0.17673944)
(1.0538127 0.10913573 -0.16729275)
(1.0416666 0.12091393 -0.14152498)
(1.0031253 0.12589122 -0.11276164)
(0.9724607 0.12469845 -0.08968947)
(0.11050501 0.0091434886 -0.023778382)
(0.33089301 0.02621715 -0.072905592)
(0.56475299 0.046952308 -0.12138669)
(0.77906363 0.070925387 -0.15907786)
(0.93397089 0.095271029 -0.17676184)
(1.0046812 0.11637128 -0.1710109)
(1.0039082 0.132158 -0.1483444)
(0.97167888 0.14070802 -0.12137646)
(0.94145806 0.14215762 -0.099203924)
(0.097718266 0.0086114957 -0.022448339)
(0.2964442 0.025194737 -0.069016551)
(0.51280846 0.045899327 -0.11619512)
(0.71853791 0.070620561 -0.15479204)
(0.87687017 0.096899436 -0.17558699)
(0.96048672 0.12107104 -0.17398652)
(0.97413079 0.14029252 -0.15493289)
(0.95029071 0.15243593 -0.13024339)
(0.92067211 0.15675905 -0.10928372)
(0.085249692 0.0074123127 -0.020155861)
(0.26255005 0.022461262 -0.062507913)
(0.4614262 0.042228665 -0.10700194)
(0.65885457 0.066978978 -0.14593772)
(0.82204823 0.094704572 -0.17056781)
(0.92174721 0.12179376 -0.17494605)
(0.95366622 0.14485375 -0.1618308)
(0.94215989 0.16136968 -0.14072461)
(0.91621686 0.16934859 -0.1221384)
(0.10959043 -0.0022908167 -0.0022469877)
(0.34757594 -0.0080731596 -0.0081177611)
(0.62816225 -0.016362877 -0.016862508)
(0.92337666 -0.027510125 -0.02871096)
(1.1889348 -0.04105764 -0.042115715)
(1.3829544 -0.05530937 -0.053547202)
(1.4897894 -0.068401984 -0.059791725)
(1.5262152 -0.079689515 -0.060485628)
(1.5204212 -0.088965449 -0.058175328)
(0.1215594 -0.0031392328 -0.0027554992)
(0.38249418 -0.010794175 -0.0097745728)
(0.68468384 -0.021255814 -0.020042768)
(0.99361675 -0.034551776 -0.033576599)
(1.2590409 -0.049676207 -0.048148156)
(1.4387893 -0.064447452 -0.059646082)
(1.5238816 -0.077138851 -0.065030798)
(1.540052 -0.087496432 -0.064709698)
(1.5207393 -0.095475614 -0.061059526)
(0.13264712 -0.0037247225 -0.0029028946)
(0.41480511 -0.012768171 -0.010389124)
(0.73676845 -0.024899067 -0.021512685)
(1.0578214 -0.039844792 -0.036134229)
(1.3224971 -0.056075347 -0.05148888)
(1.4891956 -0.070999311 -0.063047996)
(1.5556453 -0.082942851 -0.067908562)
(1.5555569 -0.092045006 -0.066992047)
(1.527289 -0.098382122 -0.062721781)
(0.14297452 -0.0043833114 -0.0030338568)
(0.44473213 -0.014869245 -0.010900846)
(0.78472823 -0.028583937 -0.022743454)
(1.1166519 -0.04490215 -0.038228922)
(1.3807228 -0.061769439 -0.054069449)
(1.5364097 -0.076282609 -0.065440742)
(1.5875427 -0.086974239 -0.069662935)
(1.5741027 -0.094439289 -0.068154928)
(1.5381064 -0.099097809 -0.063483123)
(0.15212332 -0.0049883026 -0.0030643771)
(0.47136223 -0.016794602 -0.011095104)
(0.82760004 -0.031931226 -0.023418586)
(1.169599 -0.049376961 -0.039532401)
(1.4338356 -0.066514767 -0.055673398)
(1.5807627 -0.080159632 -0.066733007)
(1.619439 -0.089193178 -0.0702248)
(1.5948136 -0.094764938 -0.06801519)
(1.5518081 -0.097704222 -0.062871736)
(0.16034337 -0.0055515883 -0.002965735)
(0.4953525 -0.018563475 -0.010873139)
(0.86639007 -0.034941342 -0.023353668)
(1.2179132 -0.053206486 -0.039770586)
(1.4830793 -0.070150587 -0.055924635)
(1.6229978 -0.082391625 -0.066441114)
(1.6513368 -0.089360219 -0.06902611)
(1.6169842 -0.092862503 -0.065980439)
(1.5675261 -0.094143161 -0.060306895)
(0.16787882 -0.0060274587 -0.0027661409)
(0.51742255 -0.020034973 -0.010349035)
(0.90228234 -0.037315703 -0.022544131)
(1.2631607 -0.055967788 -0.038794569)
(1.5300755 -0.072168762 -0.054452343)
(1.6642568 -0.082448826 -0.063935765)
(1.6835428 -0.087023699 -0.065317334)
(1.6404209 -0.088416717 -0.061353195)
(1.5850829 -0.088207912 -0.055218329)
(0.1746621 -0.006264019 -0.0024295116)
(0.53762176 -0.020737667 -0.0093151645)
(0.93575358 -0.038426221 -0.021005448)
(1.306302 -0.056634211 -0.036074776)
(1.5760251 -0.071439287 -0.050508222)
(1.7054667 -0.079357126 -0.0584027)
(1.7164929 -0.081481266 -0.058321831)
(1.6653768 -0.08098593 -0.053516549)
(1.6048056 -0.079544596 -0.047127754)
(0.18076542 -0.006140142 -0.0019838715)
(0.55621686 -0.020186432 -0.0078308054)
(0.9674554 -0.037158269 -0.018203209)
(1.3481926 -0.05428318 -0.032125292)
(1.6215289 -0.06656064 -0.043565281)
(1.7469143 -0.071910628 -0.049267924)
(1.750113 -0.071902236 -0.047635341)
(1.6917887 -0.069961212 -0.042164501)
(1.6267847 -0.067665231 -0.035815317)
(0.18609955 -0.0054093132 -0.0014248351)
(0.5728701 -0.017611006 -0.0059230023)
(0.99665925 -0.032111214 -0.014316362)
(1.3881975 -0.046341916 -0.025540771)
(1.6653657 -0.056169432 -0.0344854)
(1.7869392 -0.058862381 -0.036777031)
(1.7827345 -0.057385803 -0.033740726)
(1.7183698 -0.054633033 -0.027740621)
(1.6502237 -0.051930483 -0.021261427)
(0.19053032 -0.0038318283 -0.00085902482)
(0.58660549 -0.012349557 -0.0039591678)
(1.0207544 -0.022319545 -0.010243575)
(1.4215313 -0.031870282 -0.018555467)
(1.702929 -0.038112598 -0.024009776)
(1.8208941 -0.039406354 -0.023046928)
(1.8104522 -0.03740444 -0.018979682)
(1.7422408 -0.034745565 -0.011831348)
(1.6723456 -0.032673943 -0.0078480201)
(0.19272157 -0.001401062 -0.00050632126)
(0.59373177 -0.0044902299 -0.0027211965)
(1.0337675 -0.0080723341 -0.007610785)
(1.4401736 -0.011455704 -0.014003017)
(1.7246319 -0.013599307 -0.017184542)
(1.8417307 -0.013937081 -0.014175099)
(1.8279139 -0.013012673 -0.0080782442)
(1.757292 -0.011901947 -0.002567466)
(1.6858672 -0.01116044 -3.369338e-05)
(0.19272156 0.0014010961 -0.00050632567)
(0.59373173 0.0044903101 -0.0027211951)
(1.0337674 0.0080724312 -0.0076107901)
(1.4401735 0.01145575 -0.014003047)
(1.7246319 0.013599358 -0.017184588)
(1.8417307 0.013937171 -0.014175121)
(1.8279138 0.013012837 -0.0080782645)
(1.7572919 0.011902207 -0.0025674849)
(1.6858671 0.011160737 -3.3719184e-05)
(0.1905303 0.0038318494 -0.00085903313)
(0.5866054 0.012349613 -0.0039591627)
(1.0207542 0.02231963 -0.01024358)
(1.4215311 0.031870347 -0.018555538)
(1.7029289 0.038112689 -0.024009893)
(1.8208939 0.039406507 -0.02304698)
(1.810452 0.037404705 -0.018979737)
(1.7422405 0.034745861 -0.011831383)
(1.6723453 0.032674216 -0.0078480802)
(0.18609952 0.0054093134 -0.0014248412)
(0.57286998 0.017611021 -0.0059230258)
(0.99665902 0.032111276 -0.014316383)
(1.3881972 0.046342001 -0.025540856)
(1.6653655 0.056169555 -0.034485538)
(1.786939 0.058862607 -0.036777077)
(1.7827342 0.057386131 -0.033740751)
(1.7183694 0.054633361 -0.027740615)
(1.6502232 0.051930756 -0.021261591)
(0.18076538 0.0061401445 -0.0019838782)
(0.55621673 0.020186429 -0.0078309149)
(0.96745513 0.037158315 -0.018203295)
(1.3481923 0.054283271 -0.032125383)
(1.6215286 0.066560747 -0.043565392)
(1.746914 0.071910822 -0.049267937)
(1.7501128 0.071902534 -0.047635305)
(1.6917885 0.069961503 -0.042164389)
(1.6267843 0.067665496 -0.035815256)
(0.17466206 0.0062640459 -0.0024295171)
(0.53762161 0.020737688 -0.0093152935)
(0.93575332 0.038426274 -0.021005531)
(1.3063017 0.056634291 -0.036074805)
(1.5760248 0.07143932 -0.050508255)
(1.7054664 0.079357234 -0.058402693)
(1.7164927 0.081481473 -0.058321763)
(1.6653767 0.080986166 -0.053516388)
(1.6048052 0.07954484 -0.047127641)
(0.1678788 0.0060274749 -0.0027661395)
(0.51742249 0.020034986 -0.01034909)
(0.90228221 0.037315723 -0.022544129)
(1.2631605 0.055967816 -0.038794497)
(1.5300751 0.072168762 -0.054452335)
(1.6642565 0.082448882 -0.063935785)
(1.6835426 0.087023836 -0.065317287)
(1.6404208 0.088416883 -0.061353055)
(1.5850826 0.088208069 -0.055218176)
(0.16034336 0.0055515779 -0.0029657372)
(0.49535245 0.018563464 -0.010873147)
(0.86638993 0.034941321 -0.023353661)
(1.217913 0.053206493 -0.039770588)
(1.483079 0.070150609 -0.055924713)
(1.6229975 0.082391665 -0.06644118)
(1.6513366 0.089360326 -0.069026108)
(1.6169841 0.092862586 -0.06598032)
(1.567526 0.094143194 -0.060306671)
(0.15212333 0.0049882949 -0.0030643617)
(0.47136226 0.01679459 -0.011095091)
(0.82760008 0.031931204 -0.023418632)
(1.169599 0.049376982 -0.039532492)
(1.4338354 0.06651481 -0.055673489)
(1.5807624 0.080159674 -0.06673312)
(1.6194388 0.089193215 -0.070224856)
(1.5948135 0.094764921 -0.06801509)
(1.5518082 0.097704222 -0.062871525)
(0.14297453 0.0043833143 -0.003033858)
(0.44473215 0.014869258 -0.010900866)
(0.78472825 0.028583932 -0.022743564)
(1.1166519 0.044902161 -0.038229049)
(1.3807226 0.061769464 -0.054069597)
(1.5364095 0.076282642 -0.065440916)
(1.5875425 0.086974206 -0.069663027)
(1.5741027 0.094439165 -0.068154991)
(1.5381063 0.099097668 -0.063482984)
(0.13264713 0.0037247322 -0.0029029016)
(0.4148051 0.012768221 -0.01038914)
(0.73676845 0.024899115 -0.02151277)
(1.0578214 0.039844812 -0.036134357)
(1.3224971 0.056075335 -0.051489055)
(1.4891955 0.070999268 -0.063048165)
(1.5556451 0.082942765 -0.067908716)
(1.5555568 0.092044853 -0.066992246)
(1.5272888 0.09838189 -0.062721777)
(0.12155941 0.003139232 -0.0027555088)
(0.38249421 0.010794196 -0.009774602)
(0.6846839 0.021255843 -0.020042852)
(0.99361689 0.034551793 -0.033576726)
(1.259041 0.049676162 -0.048148346)
(1.4387893 0.06444734 -0.059646352)
(1.5238813 0.077138653 -0.065031128)
(1.5400517 0.087496293 -0.064710155)
(1.520739 0.095475354 -0.061059711)
(0.10959044 0.0022908256 -0.0022470025)
(0.34757596 0.0080731929 -0.0081178125)
(0.62816229 0.016362935 -0.01686261)
(0.92337675 0.027510207 -0.028711109)
(1.1889348 0.04105767 -0.042115978)
(1.3829543 0.05530933 -0.053547538)
(1.489789 0.068401811 -0.059792288)
(1.5262148 0.079689406 -0.060486325)
(1.5204209 0.088965287 -0.058175759)
(0.09065344 -0.0010189315 -0.00093421244)
(0.29051674 -0.0036060831 -0.0033168111)
(0.53218078 -0.0074561808 -0.006719589)
(0.79581009 -0.012924046 -0.011204891)
(1.0432209 -0.020213847 -0.016198077)
(1.2291542 -0.028753778 -0.02047218)
(1.3262968 -0.037065448 -0.022789486)
(1.3443117 -0.043668255 -0.023123596)
(1.3142661 -0.047636666 -0.022488922)
(0.098936641 -0.0011325789 -0.00092895949)
(0.31514041 -0.004025391 -0.0033380935)
(0.57308048 -0.0083314064 -0.0068770369)
(0.84804022 -0.014403258 -0.01162391)
(1.0956758 -0.022290187 -0.016804944)
(1.2676826 -0.031034277 -0.020892982)
(1.3412874 -0.038883414 -0.022577287)
(1.3357884 -0.04452344 -0.022147304)
(1.2903392 -0.047628389 -0.020877227)
(0.10654647 -0.001143842 -0.00082784677)
(0.33788819 -0.0041705524 -0.0030888166)
(0.61100342 -0.0087829837 -0.0066039457)
(0.8964895 -0.015338272 -0.011490643)
(1.1442281 -0.023686352 -0.016808751)
(1.3035446 -0.032449845 -0.020745198)
(1.356625 -0.039638963 -0.021904396)
(1.3319706 -0.044193069 -0.020819025)
(1.2762597 -0.046367839 -0.019093154)
(0.11352504 -0.0011907941 -0.00076414797)
(0.35873251 -0.0044022778 -0.00293163)
(0.64574885 -0.0093473578 -0.0064617541)
(0.94093002 -0.016363768 -0.011485793)
(1.1890669 -0.02505226 -0.016880138)
(1.3377386 -0.033607182 -0.020578739)
(1.3739188 -0.039889046 -0.02117125)
(1.3339992 -0.043180283 -0.019457652)
(1.2702608 -0.044328297 -0.017312234)
(0.11950876 -0.0012271866 -0.00069848879)
(0.37678074 -0.0046047745 -0.0027649081)
(0.67613594 -0.0098624215 -0.0062937873)
(0.9802475 -0.017299929 -0.011425699)
(1.2294341 -0.0262141 -0.016856117)
(1.369826 -0.034357548 -0.020278035)
(1.3926341 -0.039544113 -0.020294845)
(1.3406927 -0.041517183 -0.017992821)
(1.2705156 -0.041623498 -0.015465205)
(0.1246955 -0.0012793388 -0.0006324626)
(0.39250035 -0.0048216351 -0.0025775978)
(0.70276185 -0.010347119 -0.0060565456)
(1.0150078 -0.018104252 -0.011207048)
(1.265699 -0.027059809 -0.016577414)
(1.399743 -0.034552195 -0.019649741)
(1.412051 -0.038477818 -0.019079011)
(1.350685 -0.039137568 -0.01623052)
(1.2752618 -0.038349449 -0.013410658)
(0.12924764 -0.0013486215 -0.00058269332)
(0.40630225 -0.005012166 -0.0023556189)
(0.72625479 -0.010726715 -0.0057919798)
(1.0459516 -0.018602845 -0.010802572)
(1.2985207 -0.027329231 -0.015908219)
(1.4277312 -0.033934579 -0.0184979)
(1.4316827 -0.036510947 -0.017312497)
(1.3628233 -0.035974531 -0.013995577)
(1.2831086 -0.034497346 -0.011019819)
(0.1330312 -0.0013852649 -0.00051988099)
(0.41790367 -0.0050372034 -0.002107211)
(0.7463558 -0.010580164 -0.0051012249)
(1.0731449 -0.018398309 -0.010130193)
(1.3282544 -0.026563294 -0.014730119)
(1.454057 -0.032077817 -0.016631323)
(1.4512878 -0.033365274 -0.014845469)
(1.3762849 -0.031878422 -0.011216491)
(1.2929106 -0.030011752 -0.0083429554)
(0.13603306 -0.001277824 -0.00040611947)
(0.42721932 -0.004625221 -0.0017266377)
(0.7627384 -0.0096455667 -0.0043775279)
(1.0961847 -0.016495462 -0.0083903656)
(1.3546845 -0.024095401 -0.013168928)
(1.4784801 -0.028460465 -0.014236965)
(1.4703016 -0.028691395 -0.011853664)
(1.3901028 -0.026680881 -0.0081917355)
(1.3033982 -0.024800209 -0.0058653549)
(0.1382891 -0.00098987217 -0.00028282339)
(0.43429337 -0.0036587526 -0.0013165256)
(0.77528799 -0.0077479233 -0.003702043)
(1.1139156 -0.013312815 -0.0074480868)
(1.3763141 -0.019014928 -0.011105566)
(1.4996068 -0.022544553 -0.012102681)
(1.4873405 -0.022244637 -0.0091490526)
(1.4026595 -0.020404951 -0.0059480561)
(1.3125987 -0.018999571 -0.0051937267)
(0.14007093 -0.00061330651 -0.00019731165)
(0.43967547 -0.0023215687 -0.0010392743)
(0.78454267 -0.0049914994 -0.0032495003)
(1.1265932 -0.0086407607 -0.0068702392)
(1.3910211 -0.012303295 -0.010454063)
(1.5148849 -0.014293439 -0.01149702)
(1.4999712 -0.014166122 -0.0080423224)
(1.4112305 -0.013143875 -0.0064498991)
(1.3180493 -0.012202367 -0.0050619079)
(0.14079634 -0.00020877667 -0.00015810364)
(0.44204528 -0.00079818565 -0.00091165395)
(0.78888652 -0.0017253951 -0.0030499466)
(1.1328449 -0.0029909734 -0.0066180326)
(1.3984016 -0.0042505724 -0.010190761)
(1.5220359 -0.0049065105 -0.011338774)
(1.5057324 -0.004894095 -0.0090673331)
(1.4150484 -0.0045892051 -0.0063708352)
(1.3206374 -0.0042202379 -0.0048301789)
(0.14079633 0.00020881185 -0.000158106)
(0.44204526 0.00079827282 -0.0009116498)
(0.78888652 0.0017255403 -0.0030499485)
(1.1328449 0.002991171 -0.0066180378)
(1.3984017 0.0042508452 -0.010190765)
(1.5220358 0.0049068492 -0.011338764)
(1.5057323 0.0048944419 -0.0090673168)
(1.4150483 0.0045895 -0.0063708229)
(1.3206373 0.004220439 -0.004830163)
(0.14007092 0.00061332534 -0.00019731344)
(0.43967542 0.0023216369 -0.0010392708)
(0.78454262 0.0049916438 -0.0032495007)
(1.1265932 0.0086409814 -0.0068702433)
(1.3910211 0.012303616 -0.010454076)
(1.5148848 0.014293841 -0.011496999)
(1.4999711 0.014166511 -0.0080422652)
(1.4112303 0.0131442 -0.0064498445)
(1.3180491 0.012202571 -0.0050618225)
(0.13828908 0.00098987714 -0.00028281803)
(0.4342933 0.0036587959 -0.0013165453)
(0.77528785 0.0077480588 -0.0037020464)
(1.1139154 0.013313064 -0.0074480908)
(1.3763139 0.019015301 -0.011105598)
(1.4996066 0.022544997 -0.012102662)
(1.4873402 0.022245099 -0.009148977)
(1.4026592 0.020405304 -0.0059479391)
(1.3125984 0.018999758 -0.0051934225)
(0.13603304 0.001277846 -0.00040612175)
(0.42721922 0.0046252796 -0.0017267203)
(0.76273817 0.0096457132 -0.0043776001)
(1.0961844 0.016495732 -0.0083904272)
(1.3546842 0.024095768 -0.013168981)
(1.4784799 0.028460914 -0.014236941)
(1.4703015 0.028691879 -0.011853575)
(1.3901026 0.026681257 -0.008191592)
(1.3033977 0.02480039 -0.0058651807)
(0.13303116 0.0013853082 -0.0005198936)
(0.41790353 0.0050372862 -0.002107322)
(0.74635557 0.010580322 -0.0051013281)
(1.0731447 0.018398553 -0.010130256)
(1.3282541 0.026563615 -0.014730132)
(1.454057 0.032078228 -0.016631284)
(1.4512878 0.033365732 -0.014845387)
(1.3762849 0.031878779 -0.011216348)
(1.29291 0.0300119 -0.0083428217)
(0.12924761 0.0013486565 -0.00058269942)
(0.40630215 0.0050122369 -0.0023556791)
(0.72625464 0.010726845 -0.0057920068)
(1.0459515 0.018603029 -0.010802564)
(1.2985205 0.027329514 -0.01590822)
(1.4277311 0.033934976 -0.01849791)
(1.4316827 0.036511397 -0.017312478)
(1.3628233 0.03597486 -0.013995468)
(1.2831082 0.034497432 -0.011019675)
(0.1246955 0.0012793541 -0.0006324764)
(0.39250032 0.0048217017 -0.0025776062)
(0.70276181 0.010347248 -0.0060565348)
(1.0150078 0.018104448 -0.011207115)
(1.2656988 0.027060105 -0.016577553)
(1.3997427 0.034552594 -0.019649852)
(1.4120507 0.03847825 -0.019079059)
(1.3506848 0.039137846 -0.016230429)
(1.2752617 0.038349494 -0.013410449)
(0.11950876 0.0012271964 -0.00069849186)
(0.37678073 0.0046048298 -0.0027649143)
(0.67613594 0.009862546 -0.0062938636)
(0.98024753 0.01730016 -0.011425873)
(1.2294339 0.0262144 -0.016856281)
(1.3698255 0.034357953 -0.020278202)
(1.3926337 0.039544462 -0.020294934)
(1.3406925 0.041517406 -0.017992781)
(1.2705157 0.041623591 -0.015465017)
(0.11352504 0.0011908138 -0.00076416411)
(0.35873251 0.0044023504 -0.0029316817)
(0.64574883 0.0093474999 -0.0064618906)
(0.94092995 0.01636402 -0.011485949)
(1.1890667 0.025052551 -0.016880352)
(1.3377382 0.03360754 -0.020578982)
(1.3739184 0.039889354 -0.021171405)
(1.3339991 0.043180491 -0.01945783)
(1.2702605 0.044328314 -0.017312222)
(0.10654646 0.0011438736 -0.00082787023)
(0.33788817 0.0041706624 -0.003088877)
(0.61100338 0.0087831533 -0.0066040842)
(0.89648949 0.015338516 -0.011490818)
(1.1442281 0.023686649 -0.016808999)
(1.3035444 0.032450129 -0.020745467)
(1.3566245 0.03963926 -0.021904734)
(1.3319704 0.044193248 -0.020819315)
(1.2762593 0.04636778 -0.019093109)
(0.098936648 0.0011326081 -0.00092898975)
(0.31514042 0.0040254918 -0.0033381766)
(0.5730805 0.0083315615 -0.0068772016)
(0.84804027 0.014403472 -0.011624125)
(1.0956757 0.022290439 -0.016805236)
(1.2676823 0.031034519 -0.020893422)
(1.3412869 0.038883584 -0.022577727)
(1.3357879 0.044523515 -0.022147583)
(1.2903389 0.047628301 -0.020877277)
(0.090653456 0.001018961 -0.00093424477)
(0.29051678 0.0036061777 -0.003316905)
(0.53218085 0.0074563365 -0.0067197687)
(0.79581019 0.012924258 -0.011205161)
(1.0432209 0.020214056 -0.016198481)
(1.2291539 0.028753982 -0.020472582)
(1.3262963 0.037065546 -0.022789809)
(1.3443112 0.043668225 -0.02312385)
(1.3142659 0.047636633 -0.022489094)
(0.10107622 -0.00054337798 -0.00050249238)
(0.32246299 -0.0018595819 -0.0016996602)
(0.58728019 -0.0037148405 -0.0033310512)
(0.87202431 -0.0061881565 -0.0054848614)
(1.1357271 -0.0091771751 -0.0082114003)
(1.333806 -0.01234578 -0.011251081)
(1.4414946 -0.015139412 -0.013910429)
(1.4693956 -0.017187839 -0.015432978)
(1.4475335 -0.018349204 -0.015858335)
(0.11005036 -0.00073994363 -0.00060407305)
(0.34872136 -0.0024744707 -0.0020042423)
(0.62994315 -0.00483009 -0.0038510134)
(0.9249345 -0.0078290436 -0.0062450484)
(1.18713 -0.01126623 -0.0092335783)
(1.3701251 -0.014634568 -0.012483323)
(1.4541137 -0.017248998 -0.015165887)
(1.4589853 -0.018827623 -0.016554909)
(1.4223834 -0.019467322 -0.016560859)
(0.11808859 -0.00085470936 -0.00060592912)
(0.37227913 -0.0028567307 -0.0020164426)
(0.66817636 -0.0055578489 -0.0038809526)
(0.97207556 -0.0089405849 -0.0063375648)
(1.2323843 -0.012702846 -0.0094648453)
(1.401499 -0.016167352 -0.012879139)
(1.4648363 -0.018540541 -0.015650406)
(1.4509557 -0.019633061 -0.017050494)
(1.4046706 -0.019812156 -0.017021799)
(0.12528939 -0.00094925016 -0.0005852176)
(0.39328688 -0.003162355 -0.0019496803)
(0.70211785 -0.0061232195 -0.003764938)
(1.0137594 -0.0097853908 -0.0062129511)
(1.2724098 -0.013760402 -0.0094078063)
(1.4297884 -0.017205939 -0.012924594)
(1.4762355 -0.019247951 -0.015765527)
(1.4476007 -0.019835198 -0.017233369)
(1.3939147 -0.019590309 -0.017283682)
(0.13127008 -0.00099767112 -0.00053380628)
(0.41084189 -0.0033293051 -0.0017892341)
(0.73064414 -0.0064475216 -0.0034916116)
(1.0490242 -0.010290242 -0.0058772178)
(1.3066563 -0.014387345 -0.0091004194)
(1.4547825 -0.017731123 -0.012694821)
(1.4880319 -0.019390378 -0.015608062)
(1.4480938 -0.019480047 -0.017174001)
(1.3886704 -0.018861928 -0.017353242)
(0.13626846 -0.0010096787 -0.00045812396)
(0.42551092 -0.0033780335 -0.0015512033)
(0.75448892 -0.0065497947 -0.0030861671)
(1.0785653 -0.010459981 -0.0053582313)
(1.3355736 -0.014569139 -0.0085660066)
(1.4764841 -0.017720571 -0.012210354)
(1.4995785 -0.018962223 -0.015198493)
(1.4511337 -0.01859954 -0.016889476)
(1.3873632 -0.01767147 -0.017228041)
(0.14046717 -0.00098297574 -0.00037362188)
(0.43776216 -0.00329637 -0.0012788632)
(0.77431935 -0.0064042357 -0.0026093691)
(1.103105 -0.010248562 -0.0047145113)
(1.3597341 -0.014241018 -0.0078461604)
(1.4950481 -0.017110824 -0.011495803)
(1.5103777 -0.017925961 -0.014554609)
(1.4556142 -0.017181179 -0.016397939)
(1.388607 -0.016041799 -0.016928227)
(0.1437721 -0.00089969647 -0.00027995363)
(0.44745595 -0.0030322242 -0.00097400633)
(0.79011265 -0.0059207305 -0.0020627405)
(1.1228531 -0.0095335557 -0.0039540739)
(1.3795192 -0.013262056 -0.0069478462)
(1.5107361 -0.015783658 -0.010565955)
(1.520221 -0.016215519 -0.01370854)
(1.4607589 -0.015204405 -0.015749989)
(1.391336 -0.01396151 -0.016519501)
(0.14625501 -0.00074826588 -0.00018436683)
(0.45480108 -0.0025473194 -0.00066142238)
(0.80221342 -0.0050234246 -0.0014935084)
(1.1382354 -0.0081739972 -0.0031182929)
(1.3953131 -0.011472446 -0.0059637803)
(1.5237181 -0.013598731 -0.0095301623)
(1.5288832 -0.013750574 -0.012781456)
(1.465903 -0.012639645 -0.015080245)
(1.3946353 -0.011431349 -0.016140517)
(0.1480101 -0.00053863093 -0.00010179292)
(0.4600567 -0.0018686494 -0.00039242369)
(0.81098346 -0.0037469619 -0.0010076268)
(1.1495675 -0.0061923837 -0.0024099388)
(1.4072456 -0.0087869527 -0.0050800974)
(1.5338539 -0.010468768 -0.0086449252)
(1.5359477 -0.010494134 -0.012016099)
(1.4703696 -0.0095098366 -0.014622934)
(1.3976884 -0.0085030581 -0.015979671)
(0.14937631 -0.00031564205 -4.9281909e-05)
(0.46395728 -0.0011177707 -0.00022617349)
(0.81723572 -0.0022800835 -0.00072566128)
(1.1573942 -0.0038350098 -0.0020201683)
(1.415343 -0.005604439 -0.004697435)
(1.5407476 -0.0066192276 -0.0082395021)
(1.5408289 -0.0065730991 -0.011655156)
(1.4734949 -0.0059235042 -0.014552076)
(1.3998636 -0.0052519475 -0.015981072)
(0.14983572 -0.00010362871 -2.6857313e-05)
(0.46542881 -0.00037135838 -0.00015607774)
(0.81983295 -0.00076394159 -0.00061554749)
(1.1609246 -0.0012926051 -0.0018772982)
(1.4192531 -0.001899572 -0.0045201937)
(1.5441785 -0.0022704523 -0.0081385444)
(1.5432719 -0.002235228 -0.011612294)
(1.4750867 -0.0020117001 -0.014543304)
(1.400988 -0.0017750406 -0.015991062)
(0.14983572 0.00010366835 -2.6858726e-05)
(0.46542882 0.00037146263 -0.00015607384)
(0.81983297 0.00076411766 -0.00061554996)
(1.1609247 0.0012928475 -0.0018773054)
(1.4192531 0.0018998973 -0.0045201975)
(1.5441785 0.0022708471 -0.0081385358)
(1.5432719 0.0022356283 -0.011612279)