/*--------------------------------*- C++ -*----------------------------------*\
  =========                 |
  \\      /  F ield         | OpenFOAM: The Open Source CFD Toolbox
   \\    /   O peration     | Website:  https://openfoam.org
    \\  /    A nd           | Version:  10
     \\/     M anipulation  |
\*---------------------------------------------------------------------------*/
FoamFile
{
    format      ascii;
    class       volScalarField;
    location    "22";
    object      ddt0(T);
}
// * * * * * * * * * * * * * * * * * * * * * * * * * * * * * * * * * * * * * //

dimensions      [0 0 -1 1 0 0 0];

internalField   nonuniform List<scalar> 
10000
(
1627.36
382.302
493.321
500.508
499.515
499.476
499.545
499.569
499.576
499.579
499.582
499.584
499.586
499.588
499.59
499.592
499.594
499.596
499.598
499.6
499.602
499.604
499.606
499.607
499.609
499.611
499.612
499.614
499.615
499.617
499.618
499.62
499.621
499.623
499.624
499.625
499.626
499.628
499.629
499.63
499.631
499.632
499.633
499.634
499.635
499.636
499.637
499.638
499.638
499.639
499.64
499.641
499.641
499.642
499.642
499.643
499.644
499.644
499.645
499.645
499.645
499.646
499.646
499.646
499.647
499.647
499.647
499.648
499.648
499.648
499.648
499.648
499.648
499.649
499.649
499.649
499.649
499.649
499.649
499.649
499.649
499.649
499.649
499.649
499.649
499.649
499.649
499.649
499.649
499.649
499.649
499.649
499.649
499.649
499.65
499.67
499.745
498.666
478.879
472.883
476.807
-349.062
-156.153
-153.955
-157.836
-158.22
-158.147
-158.116
-158.107
-158.101
-158.095
-158.089
-158.083
-158.077
-158.071
-158.065
-158.059
-158.053
-158.048
-158.042
-158.037
-158.031
-158.026
-158.021
-158.016
-158.011
-158.006
-158.001
-157.996
-157.992
-157.987
-157.983
-157.979
-157.974
-157.97
-157.966
-157.963
-157.959
-157.956
-157.952
-157.949
-157.946
-157.942
-157.94
-157.937
-157.934
-157.931
-157.929
-157.926
-157.924
-157.922
-157.92
-157.918
-157.916
-157.914
-157.913
-157.911
-157.91
-157.908
-157.907
-157.906
-157.905
-157.903
-157.902
-157.902
-157.901
-157.9
-157.899
-157.899
-157.898
-157.897
-157.897
-157.897
-157.896
-157.896
-157.896
-157.895
-157.895
-157.895
-157.895
-157.895
-157.894
-157.894
-157.894
-157.894
-157.894
-157.894
-157.894
-157.894
-157.894
-157.894
-157.894
-157.894
-157.895
-157.894
-157.861
-157.622
-157.258
-164.315
-144.326
565.537
-179.607
13.5804
11.9137
7.26039
6.86283
6.96396
7.00545
7.01949
7.02978
7.04005
7.05035
7.06057
7.07069
7.08071
7.0906
7.10037
7.11
7.11949
7.12882
7.138
7.14702
7.15587
7.16456
7.17308
7.18143
7.18961
7.19761
7.20543
7.21307
7.22053
7.2278
7.23488
7.24178
7.24848
7.25498
7.2613
7.26741
7.27334
7.27906
7.28459
7.28992
7.29506
7.3
7.30475
7.30931
7.31368
7.31786
7.32186
7.32567
7.3293
7.33276
7.33605
7.33916
7.34211
7.3449
7.34753
7.35
7.35233
7.35451
7.35655
7.35845
7.36022
7.36186
7.36339
7.36479
7.36609
7.36727
7.36836
7.36935
7.37024
7.37105
7.37177
7.37242
7.37299
7.3735
7.37394
7.37432
7.37465
7.37493
7.37516
7.37535
7.3755
7.37561
7.3757
7.37576
7.37579
7.3758
7.3758
7.37578
7.37575
7.37568
7.37534
7.37359
7.36803
7.37268
7.52498
7.93897
3.75717
10.2661
571.688
-177.167
12.2776
9.44654
4.66733
4.29489
4.4123
4.46071
4.47931
4.49378
4.50818
4.52257
4.53683
4.55095
4.56491
4.57871
4.59232
4.60575
4.61898
4.632
4.64482
4.65741
4.66978
4.68192
4.69383
4.70551
4.71694
4.72813
4.73907
4.74975
4.76018
4.77035
4.78026
4.7899
4.79927
4.80837
4.8172
4.82575
4.83403
4.84203
4.84976
4.85722
4.8644
4.87131
4.87795
4.88432
4.89043
4.89628
4.90186
4.9072
4.91228
4.91711
4.9217
4.92606
4.93018
4.93408
4.93775
4.94121
4.94446
4.94751
4.95036
4.95302
4.95549
4.95779
4.95992
4.96188
4.96369
4.96535
4.96686
4.96824
4.96949
4.97062
4.97163
4.97254
4.97334
4.97404
4.97466
4.9752
4.97565
4.97604
4.97636
4.97662
4.97683
4.97699
4.9771
4.97718
4.97722
4.97723
4.97721
4.97718
4.97713
4.97709
4.97694
4.97557
4.96854
4.95411
5.01623
5.46043
4.89869
5.6769
570.882
-180.474
8.21947
5.26135
0.503107
0.150746
0.27709
0.330508
0.353327
0.371918
0.390414
0.408872
0.427178
0.445301
0.463227
0.480943
0.498434
0.515685
0.532684
0.549422
0.565889
0.582076
0.597978
0.613587
0.628897
0.643903
0.658598
0.672978
0.687037
0.700769
0.714171
0.727238
0.739966
0.75235
0.764389
0.776079
0.787419
0.798406
0.809041
0.819322
0.829249
0.838824
0.848048
0.856923
0.865451
0.873635
0.881478
0.888984
0.896158
0.903005
0.909529
0.915736
0.921631
0.927223
0.932516
0.937517
0.942235
0.946676
0.950848
0.954759
0.958418
0.961831
0.965009
0.967959
0.97069
0.973212
0.975532
0.977659
0.979603
0.981373
0.982976
0.984423
0.985721
0.98688
0.987907
0.988812
0.989603
0.990286
0.990872
0.991366
0.991777
0.992111
0.992377
0.992579
0.992725
0.992821
0.992873
0.992885
0.992863
0.992814
0.99275
0.992719
0.992785
0.992543
0.988556
0.97088
0.951868
1.07543
1.15098
1.21519
570.855
-180.802
7.87002
4.93479
0.196266
-0.146175
-0.0143468
0.0434022
0.07036
0.0930632
0.11565
0.138171
0.160506
0.18262
0.204497
0.226119
0.247468
0.268527
0.289282
0.309718
0.329824
0.349591
0.369009
0.388071
0.406767
0.425092
0.443037
0.460596
0.477763
0.494531
0.510894
0.526848
0.542386
0.557506
0.572202
0.586473
0.600315
0.613727
0.626708
0.639256
0.651374
0.663061
0.674319
0.68515
0.695558
0.705546
0.715118
0.724278
0.733033
0.741388
0.749349
0.756923
0.764117
0.770939
0.777398
0.7835
0.789256
0.794674
0.799764
0.804535
0.808998
0.813162
0.817037
0.820635
0.823966
0.827041
0.82987
0.832464
0.834834
0.83699
0.838945
0.840708
0.84229
0.843701
0.844953
0.846055
0.847017
0.847849
0.848561
0.849162
0.849661
0.850068
0.850389
0.850634
0.850811
0.850926
0.850988
0.851001
0.850973
0.850908
0.850815
0.85073
0.850785
0.851154
0.850884
0.844047
0.823511
0.823244
0.849043
0.89101
570.914
-180.738
7.95855
5.03877
0.309036
-0.0279348
0.108278
0.17018
0.201257
0.228062
0.254726
0.281294
0.307642
0.333731
0.35954
0.385051
0.410241
0.43509
0.459581
0.483698
0.507428
0.530757
0.553676
0.576174
0.598241
0.61987
0.64105
0.661774
0.682035
0.701825
0.721136
0.739963
0.7583
0.776142
0.793485
0.810324
0.826657
0.842482
0.857798
0.872604
0.886901
0.900689
0.913971
0.92675
0.939028
0.950811
0.962103
0.972909
0.983236
0.993092
1.00248
1.01142
1.0199
1.02795
1.03556
1.04276
1.04955
1.05594
1.06194
1.06757
1.07283
1.07774
1.08231
1.08655
1.09047
1.0941
1.09743
1.10049
1.10328
1.10582
1.10812
1.1102
1.11206
1.11372
1.11519
1.11649
1.11762
1.1186
1.11944
1.12014
1.12073
1.12121
1.12158
1.12187
1.12208
1.12221
1.12228
1.12229
1.12226
1.12218
1.12206
1.12191
1.12181
1.12199
1.12264
1.12208
1.115
1.10171
1.08957
1.13401
570.936
-180.711
7.9959
5.0829
0.358149
0.0255084
0.165875
0.231899
0.267083
0.297974
0.328697
0.359293
0.389633
0.419677
0.4494
0.47878
0.507792
0.536412
0.564621
0.5924
0.619734
0.646609
0.673011
0.698928
0.72435
0.749265
0.773664
0.797538
0.820877
0.843672
0.865917
0.887603
0.908724
0.929274
0.949249
0.968643
0.987454
1.00568
1.02332
1.04037
1.05683
1.07271
1.088
1.10272
1.11686
1.13042
1.14342
1.15587
1.16776
1.1791
1.18991
1.2002
1.20997
1.21923
1.228
1.23628
1.24409
1.25145
1.25835
1.26483
1.27088
1.27653
1.28179
1.28666
1.29118
1.29535
1.29918
1.3027
1.30591
1.30883
1.31147
1.31386
1.316
1.31791
1.3196
1.32109
1.32239
1.32351
1.32447
1.32528
1.32595
1.32649
1.32692
1.32725
1.32748
1.32763
1.32771
1.32772
1.32768
1.32759
1.32745
1.32727
1.32705
1.32693
1.32719
1.32786
1.32715
1.31955
1.29634
1.3454
570.942
-180.702
8.00948
5.10103
0.380501
0.0520019
0.19649
0.266622
0.305894
0.340851
0.375611
0.410213
0.444525
0.478502
0.512117
0.545343
0.578154
0.610524
0.64243
0.673851
0.704769
0.735167
0.765032
0.794349
0.823106
0.851289
0.878889
0.905894
0.932293
0.958077
0.983237
1.00777
1.03165
1.0549
1.07749
1.09942
1.12069
1.1413
1.16125
1.18053
1.19915
1.2171
1.23439
1.25103
1.26702
1.28236
1.29705
1.31112
1.32456
1.33739
1.34961
1.36124
1.37228
1.38274
1.39265
1.40202
1.41084
1.41915
1.42696
1.43427
1.44111
1.44749
1.45343
1.45894
1.46404
1.46875
1.47307
1.47704
1.48067
1.48396
1.48695
1.48964
1.49205
1.4942
1.49611
1.49779
1.49925
1.50051
1.50159
1.5025
1.50325
1.50386
1.50435
1.50471
1.50497
1.50514
1.50522
1.50523
1.50518
1.50507
1.50492
1.50472
1.50447
1.5042
1.50407
1.50448
1.5056
1.50225
1.46948
1.53012
570.945
-180.696
8.0198
5.11555
0.399146
0.0747624
0.223356
0.297576
0.340916
0.379914
0.418688
0.457271
0.495529
0.533413
0.570895
0.607944
0.64453
0.680625
0.716203
0.751241
0.78572
0.81962
0.852926
0.88562
0.91769
0.94912
0.979899
1.01001
1.03945
1.06821
1.09626
1.12361
1.15025
1.17616
1.20135
1.22581
1.24953
1.2725
1.29474
1.31624
1.33699
1.35701
1.37628
1.39483
1.41265
1.42974
1.44613
1.46181
1.47679
1.49108
1.5047
1.51766
1.52996
1.54162
1.55266
1.56309
1.57293
1.58218
1.59088
1.59902
1.60664
1.61375
1.62036
1.62649
1.63217
1.63741
1.64222
1.64664
1.65067
1.65434
1.65766
1.66065
1.66333
1.66572
1.66784
1.6697
1.67132
1.67272
1.67392
1.67493
1.67576
1.67643
1.67696
1.67737
1.67765
1.67783
1.67792
1.67793
1.67786
1.67774
1.67757
1.67736
1.67709
1.67677
1.67645
1.67655
1.67823
1.67778
1.6332
1.70892
570.947
-180.69
8.03009
5.12999
0.417697
0.0974103
0.250086
0.32837
0.37575
0.418763
0.461522
0.504059
0.546236
0.588001
0.629322
0.670166
0.710499
0.750292
0.789516
0.828146
0.866159
0.903535
0.940256
0.976303
1.01166
1.04632
1.08025
1.11345
1.14591
1.17761
1.20854
1.23869
1.26805
1.29662
1.32439
1.35134
1.37749
1.40282
1.42733
1.45102
1.47389
1.49595
1.5172
1.53763
1.55727
1.57611
1.59416
1.61144
1.62794
1.64369
1.6587
1.67297
1.68652
1.69937
1.71153
1.72302
1.73385
1.74404
1.75361
1.76258
1.77097
1.77879
1.78607
1.79282
1.79907
1.80483
1.81013
1.81498
1.81942
1.82345
1.8271
1.83038
1.83333
1.83595
1.83828
1.84032
1.8421
1.84363
1.84494
1.84605
1.84696
1.84769
1.84827
1.8487
1.84901
1.8492
1.84929
1.8493
1.84922
1.84908
1.84889
1.84865
1.84837
1.84803
1.84762
1.84752
1.8495
1.85163
1.79505
1.88586
570.949
-180.684
8.04041
5.14442
0.436206
0.119989
0.27672
0.359037
0.410428
0.457426
0.504141
0.550601
0.596666
0.642281
0.68741
0.732019
0.77607
0.819531
0.862372
0.904564
0.946084
0.986908
1.02702
1.06639
1.10501
1.14286
1.17993
1.21619
1.25164
1.28626
1.32004
1.35297
1.38504
1.41624
1.44656
1.476
1.50454
1.5322
1.55896
1.58483
1.60981
1.63389
1.65708
1.6794
1.70083
1.7214
1.74111
1.75996
1.77798
1.79517
1.81154
1.82712
1.8419
1.85593
1.86919
1.88173
1.89354
1.90466
1.9151
1.92488
1.93403
1.94256
1.95049
1.95785
1.96466
1.97094
1.97671
1.982
1.98683
1.99122
1.99519
1.99876
2.00197
2.00482
2.00735
2.00957
2.0115
2.01316
2.01458
2.01578
2.01676
2.01755
2.01818
2.01864
2.01897
2.01917
2.01926
2.01926
2.01917
2.01902
2.0188
2.01854
2.01823
2.01786
2.01741
2.01716
2.01934
2.02379
1.9567
2.06077
570.952
-180.678
8.05066
5.15874
0.454571
0.142393
0.303145
0.389464
0.444833
0.495783
0.54642
0.596771
0.646691
0.696123
0.745027
0.793367
0.841104
0.888202
0.934627
0.980351
1.02535
1.06959
1.11305
1.15572
1.19758
1.2386
1.27876
1.31806
1.35648
1.39399
1.4306
1.46628
1.50103
1.53483
1.56768
1.59958
1.63051
1.66047
1.68946
1.71749
1.74454
1.77063
1.79575
1.81992
1.84314
1.86541
1.88676
1.90718
1.92669
1.9453
1.96303
1.97989
1.9959
2.01108
2.02544
2.03901
2.05179
2.06383
2.07512
2.08571
2.0956
2.10483
2.11341
2.12136
2.12873
2.13551
2.14175
2.14747
2.15268
2.15742
2.16171
2.16557
2.16903
2.17211
2.17483
2.17722
2.1793
2.18109
2.18262
2.18389
2.18495
2.1858
2.18646
2.18696
2.1873
2.18751
2.1876
2.18759
2.18749
2.18732
2.18708
2.18679
2.18645
2.18605
2.18555
2.18518
2.18746
2.19383
2.11845
2.23323
570.954
-180.671
8.06082
5.17291
0.472765
0.16459
0.329328
0.419612
0.478924
0.533789
0.588314
0.642518
0.696257
0.74947
0.802115
0.854151
0.905538
0.956237
1.00621
1.05543
1.10387
1.1515
1.19829
1.24423
1.28928
1.33344
1.37668
1.41898
1.46033
1.50071
1.54012
1.57852
1.61592
1.65231
1.68766
1.72199
1.75528
1.78752
1.81872
1.84888
1.87799
1.90606
1.93309
1.95909
1.98407
2.00803
2.03099
2.05296
2.07394
2.09396
2.11303
2.13117
2.14838
2.1647
2.18014
2.19473
2.20847
2.22141
2.23355
2.24492
2.25555
2.26546
2.27468
2.28323
2.29113
2.29842
2.30512
2.31125
2.31684
2.32192
2.32652
2.33066
2.33436
2.33766
2.34057
2.34313
2.34535
2.34727
2.34889
2.35025
2.35138
2.35228
2.35298
2.3535
2.35386
2.35408
2.35417
2.35415
2.35403
2.35383
2.35357
2.35325
2.35288
2.35246
2.35191
2.35145
2.35374
2.36152
2.2802
2.40303
570.956
-180.665
8.07087
5.18694
0.490773
0.186564
0.355249
0.44946
0.512675
0.571418
0.62979
0.68781
0.745329
0.802284
0.858631
0.914326
0.969326
1.02359
1.07708
1.12976
1.18161
1.23258
1.28267
1.33183
1.38006
1.42732
1.4736
1.51887
1.56313
1.60635
1.64852
1.68962
1.72964
1.76858
1.80641
1.84314
1.87876
1.91326
1.94664
1.9789
2.01005
2.04008
2.06899
2.09681
2.12353
2.14916
2.17371
2.1972
2.21964
2.24105
2.26144
2.28083
2.29924
2.31668
2.33319
2.34877
2.36347
2.37729
2.39026
2.40241
2.41376
2.42435
2.43419
2.44331
2.45175
2.45953
2.46667
2.47321
2.47918
2.4846
2.4895
2.49391
2.49785
2.50136
2.50446
2.50717
2.50953
2.51156
2.51329
2.51473
2.51591
2.51686
2.5176
2.51814
2.51851
2.51873
2.51882
2.51879
2.51866
2.51844
2.51815
2.5178
2.5174
2.51694
2.51636
2.51582
2.51806
2.52675
2.44171
2.57007
570.958
-180.659
8.08081
5.20081
0.508584
0.208299
0.38089
0.478986
0.546062
0.60864
0.670818
0.732613
0.793871
0.854528
0.914536
0.973849
1.03242
1.09021
1.14718
1.20328
1.2585
1.31279
1.36612
1.41848
1.46984
1.52017
1.56946
1.61767
1.6648
1.71082
1.75572
1.79949
1.84211
1.88356
1.92384
1.96295
2.00087
2.03759
2.07313
2.10747
2.14063
2.17259
2.20337
2.23297
2.26141
2.28868
2.31481
2.33981
2.36369
2.38646
2.40815
2.42878
2.44835
2.46691
2.48446
2.50104
2.51666
2.53135
2.54514
2.55805
2.57012
2.58136
2.59182
2.60151
2.61047
2.61872
2.62631
2.63325
2.63958
2.64532
2.65052
2.65519
2.65936
2.66307
2.66635
2.66922
2.67171
2.67386
2.67567
2.67719
2.67843
2.67943
2.68019
2.68076
2.68114
2.68136
2.68144
2.6814
2.68124
2.681
2.68068
2.68031
2.67988
2.67939
2.67878
2.67817
2.68032
2.68947
2.60266
2.73431
570.96
-180.654
8.09063
5.21452
0.526184
0.229777
0.406229
0.508166
0.579059
0.645428
0.711368
0.776893
0.841847
0.906161
0.969788
1.03268
1.09478
1.15605
1.21645
1.27594
1.33449
1.39205
1.4486
1.50412
1.55857
1.61193
1.66419
1.71531
1.76527
1.81406
1.86166
1.90806
1.95324
1.99718
2.03988
2.08133
2.12152
2.16044
2.19811
2.2345
2.26964
2.30351
2.33612
2.36749
2.39761
2.42651
2.45419
2.48067
2.50596
2.53009
2.55306
2.5749
2.59563
2.61528
2.63386
2.6514
2.66794
2.68348
2.69808
2.71174
2.7245
2.73639
2.74745
2.7577
2.76717
2.77589
2.7839
2.79123
2.79791
2.80398
2.80946
2.81438
2.81878
2.82269
2.82614
2.82916
2.83178
2.83403
2.83593
2.83752
2.83881
2.83985
2.84064
2.84122
2.84161
2.84183
2.8419
2.84184
2.84167
2.8414
2.84106
2.84065
2.84019
2.83967
2.83902
2.83836
2.8404
2.84962
2.7627
2.89573
570.962
-180.648
8.10033
5.22805
0.543558
0.250984
0.431249
0.536979
0.611642
0.681755
0.75141
0.820619
0.889222
0.957149
1.02435
1.09077
1.15636
1.22107
1.28486
1.34769
1.40952
1.47032
1.53004
1.58868
1.64619
1.70254
1.75773
1.81171
1.86448
1.916
1.96627
2.01526
2.06296
2.10936
2.15444
2.1982
2.24063
2.28173
2.32148
2.3599
2.39699
2.43274
2.46716
2.50026
2.53206
2.56255
2.59176
2.6197
2.64638
2.67183
2.69606
2.7191
2.74096
2.76168
2.78127
2.79977
2.8172
2.83359
2.84896
2.86336
2.87681
2.88934
2.90098
2.91177
2.92174
2.93092
2.93935
2.94705
2.95408
2.96045
2.96621
2.97138
2.97599
2.98009
2.98371
2.98687
2.98961
2.99195
2.99394
2.99559
2.99694
2.99801
2.99883
2.99942
2.99982
3.00003
3.00009
3.00001
2.99982
2.99952
2.99915
2.99871
2.99821
2.99766
2.99699
2.99629
2.99818
3.00719
2.9215
3.05432
570.964
-180.642
8.10989
5.24139
0.560696
0.271904
0.455932
0.565405
0.643789
0.717597
0.790918
0.863761
0.935966
1.00746
1.07818
1.14809
1.21712
1.28523
1.35236
1.41849
1.48356
1.54754
1.6104
1.67211
1.73263
1.79194
1.85001
1.90682
1.96235
2.01657
2.06946
2.12101
2.1712
2.22002
2.26745
2.31349
2.35813
2.40136
2.44318
2.48359
2.5226
2.5602
2.5964
2.63121
2.66465
2.69671
2.72742
2.75679
2.78485
2.8116
2.83707
2.86128
2.88425
2.90602
2.92661
2.94604
2.96435
2.98156
2.9977
3.01282
3.02693
3.04008
3.0523
3.06361
3.07407
3.0837
3.09253
3.10061
3.10796
3.11463
3.12066
3.12606
3.13089
3.13517
3.13895
3.14224
3.14509
3.14753
3.14959
3.15131
3.1527
3.1538
3.15464
3.15524
3.15564
3.15584
3.15589
3.15579
3.15557
3.15525
3.15484
3.15437
3.15384
3.15326
3.15255
3.15182
3.15356
3.16213
3.07872
3.21006
570.966
-180.636
8.1193
5.25453
0.577588
0.292524
0.480264
0.593428
0.67548
0.752931
0.829868
0.906295
0.982051
1.05706
1.13126
1.2046
1.27702
1.34848
1.41891
1.48828
1.55655
1.62368
1.68963
1.75436
1.81785
1.88007
1.94099
2.00059
2.05883
2.11571
2.17119
2.22526
2.2779
2.3291
2.37884
2.42713
2.47394
2.51927
2.56312
2.6055
2.64639
2.68581
2.72376
2.76026
2.7953
2.82891
2.8611
2.89188
2.92127
2.9493
2.97598
3.00135
3.02541
3.04821
3.06977
3.09012
3.10928
3.1273
3.1442
3.16002
3.17478
3.18853
3.20131
3.21314
3.22407
3.23413
3.24335
3.25179
3.25947
3.26643
3.27271
3.27834
3.28337
3.28783
3.29175
3.29517
3.29813
3.30066
3.30279
3.30456
3.30599
3.30712
3.30797
3.30858
3.30897
3.30917
3.30919
3.30907
3.30883
3.30848
3.30804
3.30753
3.30697
3.30635
3.30562
3.30486
3.30643
3.31439
3.23407
3.36293
570.968
-180.631
8.12857
5.26748
0.594225
0.312835
0.50423
0.621031
0.706698
0.787739
0.868237
0.948196
1.02745
1.10592
1.18355
1.26027
1.33604
1.41079
1.48447
1.55704
1.62846
1.69868
1.76767
1.83539
1.90181
1.96689
2.03062
2.09295
2.15388
2.21336
2.27139
2.32794
2.38299
2.43653
2.48855
2.53904
2.58799
2.63539
2.68124
2.72554
2.76829
2.8095
2.84917
2.88732
2.92394
2.95907
2.9927
3.02486
3.05557
3.08486
3.11273
3.13922
3.16436
3.18817
3.21068
3.23192
3.25192
3.27072
3.28836
3.30486
3.32026
3.3346
3.34792
3.36025
3.37164
3.38212
3.39173
3.4005
3.40849
3.41573
3.42226
3.42811
3.43333
3.43795
3.44202
3.44556
3.44862
3.45123
3.45342
3.45524
3.45671
3.45786
3.45872
3.45933
3.45972
3.4599
3.45991
3.45976
3.45949
3.4591
3.45863
3.45809
3.45749
3.45684
3.45608
3.4553
3.45669
3.46392
3.38725
3.51293
570.97
-180.625
8.13769
5.28022
0.610598
0.332826
0.527821
0.648202
0.737428
0.822002
0.906008
0.989443
1.07214
1.15402
1.23502
1.31507
1.39413
1.47212
1.54901
1.62473
1.69924
1.77251
1.84449
1.91515
1.98444
2.05235
2.11883
2.18386
2.24742
2.30947
2.37001
2.42899
2.48642
2.54226
2.59652
2.64918
2.70022
2.74965
2.79746
2.84366
2.88823
2.9312
2.97256
3.01232
3.0505
3.0871
3.12216
3.15568
3.18768
3.21819
3.24723
3.27482
3.301
3.3258
3.34924
3.37135
3.39218
3.41175
3.4301
3.44726
3.46328
3.4782
3.49204
3.50486
3.51669
3.52758
3.53755
3.54667
3.55495
3.56246
3.56922
3.57528
3.58068
3.58546
3.58966
3.59332
3.59647
3.59915
3.60141
3.60327
3.60476
3.60593
3.6068
3.60741
3.60778
3.60795
3.60793
3.60776
3.60745
3.60704
3.60653
3.60595
3.60531
3.60463
3.60384
3.60304
3.60425
3.61069
3.53803
3.66004
570.971
-180.62
8.14666
5.29275
0.626702
0.352488
0.551024
0.674928
0.767654
0.855705
0.94316
1.03002
1.1161
1.20133
1.28565
1.36898
1.45127
1.53246
1.61249
1.69131
1.76887
1.84513
1.92005
1.99359
2.06572
2.1364
2.20559
2.27327
2.33942
2.404
2.46699
2.52837
2.58812
2.64623
2.70269
2.75747
2.81058
2.862
2.91173
2.95978
3.00615
3.05083
3.09385
3.1352
3.17489
3.21296
3.2494
3.28424
3.31751
3.34922
3.3794
3.40807
3.43528
3.46103
3.48538
3.50835
3.52997
3.55029
3.56933
3.58715
3.60377
3.61924
3.6336
3.64689
3.65915
3.67042
3.68076
3.69019
3.69876
3.70652
3.71351
3.71977
3.72535
3.73027
3.7346
3.73836
3.74159
3.74435
3.74665
3.74855
3.75007
3.75125
3.75212
3.75272
3.75308
3.75323
3.75318
3.75298
3.75264
3.75219
3.75164
3.75103
3.75035
3.74963
3.74882
3.74799
3.74902
3.75464
3.68616
3.80422
570.973
-180.615
8.15547
5.30507
0.64253
0.371813
0.57383
0.701196
0.797364
0.888832
0.979678
1.0699
1.15931
1.24784
1.33541
1.42197
1.50744
1.59176
1.67488
1.75674
1.8373
1.91651
1.99432
2.07069
2.1456
2.219
2.29085
2.36114
2.42982
2.49688
2.56229
2.62602
2.68806
2.74839
2.807
2.86387
2.91899
2.97237
3.02399
3.07386
3.12198
3.16835
3.21298
3.25588
3.29707
3.33656
3.37436
3.4105
3.445
3.47788
3.50918
3.53891
3.5671
3.5938
3.61903
3.64283
3.66523
3.68627
3.70599
3.72444
3.74164
3.75765
3.77251
3.78625
3.79892
3.81058
3.82125
3.83099
3.83984
3.84784
3.85505
3.8615
3.86723
3.8723
3.87674
3.8806
3.88391
3.88672
3.88907
3.891
3.89254
3.89373
3.8946
3.89519
3.89553
3.89565
3.89557
3.89534
3.89496
3.89447
3.89389
3.89323
3.89252
3.89176
3.89092
3.89007
3.89093
3.89572
3.83146
3.94544
570.975
-180.61
8.16412
5.31716
0.658075
0.390794
0.59623
0.726997
0.826545
0.92137
1.01555
1.10907
1.20175
1.29352
1.38429
1.47401
1.5626
1.65
1.73616
1.82101
1.90451
1.9866
2.06725
2.14641
2.22404
2.30011
2.37458
2.44742
2.5186
2.58808
2.65586
2.7219
2.78618
2.84868
2.9094
2.96832
3.02542
3.08071
3.13418
3.18583
3.23566
3.28368
3.3299
3.37432
3.41697
3.45784
3.49698
3.53438
3.57009
3.60411
3.63649
3.66725
3.69642
3.72403
3.75012
3.77472
3.79788
3.81963
3.84001
3.85906
3.87683
3.89336
3.90869
3.92287
3.93595
3.94796
3.95897
3.969
3.97811
3.98635
3.99376
4.00038
4.00627
4.01147
4.01602
4.01996
4.02334
4.02621
4.0286
4.03055
4.0321
4.03329
4.03415
4.03473
4.03504
4.03514
4.03503
4.03476
4.03434
4.03381
4.03319
4.03249
4.03174
4.03094
4.03007
4.02921
4.02989
4.03387
3.97376
4.08368
570.976
-180.604
8.17261
5.32903
0.673332
0.409422
0.618214
0.752319
0.855184
0.953303
1.05075
1.14751
1.2434
1.33835
1.43226
1.52508
1.61674
1.70716
1.79629
1.88408
1.97046
2.05539
2.13882
2.22071
2.30101
2.3797
2.45673
2.53207
2.60569
2.67756
2.74766
2.81595
2.88243
2.94707
3.00985
3.07077
3.12981
3.18697
3.24225
3.29564
3.34715
3.39678
3.44455
3.49046
3.53452
3.57676
3.61718
3.65583
3.69271
3.72785
3.76128
3.79304
3.82315
3.85165
3.87858
3.90397
3.92786
3.95029
3.97131
3.99095
4.00927
4.0263
4.04209
4.05669
4.07015
4.08252
4.09383
4.10414
4.11351
4.12196
4.12956
4.13636
4.14239
4.1477
4.15235
4.15637
4.15982
4.16273
4.16515
4.16712
4.16868
4.16986
4.17071
4.17127
4.17156
4.17162
4.17148
4.17117
4.17071
4.17014
4.16947
4.16873
4.16794
4.1671
4.1662
4.16532
4.16584
4.16904
4.11292
4.21888
570.978
-180.6
8.18093
5.34068
0.688296
0.427693
0.639775
0.777153
0.883272
0.984621
1.08527
1.18521
1.28425
1.38231
1.4793
1.57517
1.66983
1.76321
1.85526
1.94592
2.03513
2.12283
2.20899
2.29355
2.37648
2.45773
2.53727
2.61506
2.69107
2.76528
2.83764
2.90815
2.97677
3.04349
3.1083
3.17117
3.23211
3.2911
3.34815
3.40324
3.45639
3.5076
3.55687
3.60423
3.64968
3.69324
3.73493
3.77478
3.8128
3.84903
3.88349
3.91622
3.94725
3.97662
4.00435
4.0305
4.0551
4.0782
4.09983
4.12004
4.13888
4.1564
4.17264
4.18765
4.20147
4.21417
4.22578
4.23636
4.24596
4.25462
4.2624
4.26935
4.27551
4.28094
4.28568
4.28977
4.29327
4.29622
4.29867
4.30065
4.3022
4.30338
4.30422
4.30474
4.305
4.30503
4.30485
4.30449
4.30399
4.30338
4.30266
4.30188
4.30104
4.30017
4.29924
4.29833
4.2987
4.30118
4.24883
4.35101
570.98
-180.595
8.18909
5.35209
0.702961
0.445597
0.660905
0.80149
0.910797
1.01531
1.1191
1.22215
1.32428
1.42539
1.5254
1.62424
1.72184
1.81813
1.91304
2.00651
2.09848
2.18891
2.27773
2.36492
2.45041
2.53417
2.61616
2.69635
2.7747
2.85119
2.92578
2.99844
3.06916
3.13792
3.20471
3.2695
3.33228
3.39306
3.45183
3.50859
3.56333
3.61608
3.66683
3.71559
3.7624
3.80725
3.85017
3.89119
3.93032
3.96761
4.00307
4.03674
4.06866
4.09886
4.12739
4.15427
4.17956
4.20329
4.22552
4.24628
4.26563
4.28361
4.30027
4.31567
4.32985
4.34286
4.35476
4.36559
4.37541
4.38427
4.39222
4.39931
4.40559
4.41112
4.41594
4.42009
4.42364
4.42662
4.42908
4.43107
4.43262
4.43378
4.43459
4.43509
4.43532
4.4353
4.43508
4.43468
4.43413
4.43347
4.43271
4.43188
4.431
4.43008
4.42912
4.42819
4.42841
4.43022
4.38139
4.48001
570.981
-180.59
8.19708
5.36326
0.717321
0.46313
0.681595
0.825321
0.937748
1.04536
1.15223
1.25832
1.36347
1.46757
1.57053
1.67229
1.77277
1.8719
1.9696
2.06583
2.16051
2.25359
2.34503
2.43477
2.52277
2.60899
2.69338
2.77591
2.85655
2.93526
3.01202
3.0868
3.15957
3.23032
3.29903
3.36569
3.43028
3.49281
3.55326
3.61163
3.66794
3.72218
3.77436
3.8245
3.87262
3.91873
3.96285
4.005
4.04522
4.08353
4.11996
4.15455
4.18733
4.21834
4.24763
4.27522
4.30117
4.32552
4.34832
4.36961
4.38945
4.40787
4.42494
4.44071
4.45522
4.46853
4.4807
4.49177
4.5018
4.51084
4.51895
4.52617
4.53257
4.53818
4.54307
4.54728
4.55087
4.55387
4.55634
4.55832
4.55986
4.56101
4.56179
4.56225
4.56244
4.56238
4.56211
4.56166
4.56107
4.56035
4.55955
4.55867
4.55775
4.55679
4.55579
4.55484
4.55493
4.55612
4.51052
4.60584
570.983
-180.585
8.2049
5.3742
0.731373
0.480285
0.701839
0.848637
0.964117
1.07476
1.18463
1.29371
1.40181
1.50883
1.61468
1.7193
1.82259
1.92449
2.02493
2.12385
2.22117
2.31686
2.41085
2.50309
2.59354
2.68215
2.76889
2.85371
2.93659
3.01747
3.09635
3.17319
3.24796
3.32065
3.39124
3.45972
3.52607
3.5903
3.65238
3.71234
3.77016
3.82586
3.87944
3.93092
3.98031
4.02764
4.07292
4.11618
4.15744
4.19675
4.23412
4.26959
4.30321
4.33501
4.36502
4.3933
4.41989
4.44484
4.46818
4.48998
4.51028
4.52914
4.5466
4.56272
4.57755
4.59114
4.60356
4.61486
4.62508
4.63429
4.64254
4.64989
4.65638
4.66208
4.66703
4.67128
4.6749
4.67791
4.68039
4.68236
4.68389
4.685
4.68575
4.68618
4.68632
4.68621
4.68589
4.68539
4.68475
4.68398
4.68313
4.6822
4.68123
4.68023
4.6792
4.67823
4.67819
4.67883
4.63618
4.72846
570.984
-180.581
8.21254
5.38489
0.74511
0.497057
0.72163
0.871431
0.989895
1.1035
1.21631
1.32831
1.43929
1.54916
1.65784
1.76524
1.87128
1.9759
2.07901
2.18055
2.28046
2.37868
2.47516
2.56985
2.66269
2.75364
2.84267
2.92972
3.01478
3.09779
3.17873
3.25757
3.3343
3.40888
3.48131
3.55156
3.61962
3.6855
3.74918
3.81067
3.86997
3.92708
3.98202
4.0348
4.08543
4.13394
4.18035
4.22468
4.26696
4.30722
4.34551
4.38184
4.41626
4.44881
4.47954
4.50848
4.53568
4.5612
4.58507
4.60735
4.6281
4.64736
4.66519
4.68164
4.69678
4.71064
4.7233
4.7348
4.74521
4.75458
4.76296
4.77041
4.777
4.78276
4.78776
4.79205
4.79569
4.79871
4.80118
4.80314
4.80464
4.80572
4.80643
4.80682
4.80691
4.80675
4.80638
4.80583
4.80513
4.80431
4.8034
4.80243
4.80141
4.80036
4.7993
4.7983
4.79814
4.7983
4.75832
4.8478
570.986
-180.576
8.22001
5.39534
0.75853
0.513439
0.740961
0.893695
1.01507
1.13157
1.24726
1.36209
1.47589
1.58855
1.69998
1.8101
1.91883
2.02609
2.13181
2.23592
2.33835
2.43905
2.53796
2.63503
2.7302
2.82344
2.91469
3.00392
3.0911
3.17618
3.25913
3.33993
3.41856
3.49498
3.56919
3.64116
3.7109
3.77838
3.84361
3.90659
3.96732
4.02581
4.08207
4.1361
4.18794
4.2376
4.2851
4.33046
4.37373
4.41492
4.45408
4.49124
4.52644
4.55972
4.59113
4.6207
4.6485
4.67456
4.69894
4.72168
4.74285
4.7625
4.78068
4.79745
4.81287
4.82699
4.83987
4.85156
4.86214
4.87165
4.88015
4.8877
4.89436
4.90019
4.90523
4.90955
4.91319
4.91622
4.91868
4.92061
4.92208
4.92313
4.9238
4.92413
4.92417
4.92396
4.92353
4.92292
4.92216
4.92129
4.92033
4.9193
4.91823
4.91715
4.91604
4.91501
4.91475
4.91447
4.87691
4.96384
570.987
-180.572
8.2273
5.40553
0.771627
0.529427
0.759827
0.915422
1.03964
1.15897
1.27745
1.39506
1.51161
1.62699
1.7411
1.85388
1.96523
2.07507
2.18333
2.28994
2.39483
2.49794
2.59922
2.6986
2.79605
2.89151
2.98493
3.07629
3.16553
3.25262
3.33753
3.42024
3.50071
3.57892
3.65486
3.72851
3.79987
3.86891
3.93565
4.00008
4.0622
4.12202
4.17955
4.23481
4.28781
4.33858
4.38713
4.4335
4.47772
4.51981
4.55981
4.59777
4.63372
4.6677
4.69976
4.72994
4.7583
4.78489
4.80975
4.83294
4.85451
4.87453
4.89304
4.91011
4.92579
4.94014
4.95323
4.96511
4.97584
4.98548
4.99409
5.00172
5.00845
5.01432
5.0194
5.02373
5.02738
5.0304
5.03284
5.03475
5.03618
5.03718
5.0378
5.03808
5.03806
5.03779
5.0373
5.03663
5.03582
5.03489
5.03387
5.03279
5.03167
5.03054
5.0294
5.02834
5.02798
5.02732
4.99193
5.07653
570.989
-180.567
8.23441
5.41547
0.784399
0.545017
0.778222
0.936607
1.0636
1.18568
1.30689
1.4272
1.54643
1.66446
1.78119
1.89655
2.01045
2.12281
2.23354
2.34259
2.44987
2.55533
2.65892
2.76056
2.86022
2.95784
3.05338
3.1468
3.23805
3.32709
3.41391
3.49846
3.58073
3.66068
3.73831
3.81359
3.88651
3.95708
4.02527
4.0911
4.15457
4.21568
4.27445
4.33089
4.38502
4.43686
4.48643
4.53377
4.5789
4.62186
4.66268
4.7014
4.73806
4.77272
4.8054
4.83617
4.86507
4.89215
4.91747
4.94108
4.96304
4.9834
5.00223
5.01958
5.03551
5.05008
5.06336
5.0754
5.08627
5.09603
5.10473
5.11245
5.11923
5.12514
5.13024
5.13458
5.13822
5.14122
5.14363
5.14551
5.1469
5.14785
5.14841
5.14864
5.14856
5.14823
5.14767
5.14694
5.14606
5.14507
5.14399
5.14286
5.14169
5.14052
5.13934
5.13825
5.1378
5.13681
5.10336
5.18584
570.99
-180.563
8.24133
5.42516
0.796841
0.560205
0.796142
0.957245
1.08694
1.21169
1.33556
1.45851
1.58035
1.70095
1.82024
1.93812
2.0545
2.1693
2.28244
2.39386
2.50347
2.61122
2.71704
2.82089
2.9227
3.02242
3.12001
3.21543
3.30863
3.39959
3.48825
3.5746
3.65861
3.74025
3.81951
3.89637
3.97081
4.04285
4.11245
4.17964
4.24441
4.30677
4.36674
4.42432
4.47954
4.53241
4.58297
4.63124
4.67725
4.72104
4.76264
4.8021
4.83946
4.87475
4.90804
4.93936
4.96878
4.99634
5.02209
5.0461
5.06842
5.08911
5.10823
5.12584
5.142
5.15678
5.17023
5.18242
5.19342
5.20328
5.21206
5.21984
5.22667
5.23261
5.23772
5.24206
5.24569
5.24866
5.25104
5.25287
5.25421
5.25511
5.25562
5.25578
5.25563
5.25523
5.25461
5.25382
5.25287
5.25182
5.25068
5.24949
5.24828
5.24705
5.24583
5.24471
5.24418
5.24291
5.21121
5.29173
570.991
-180.559
8.24807
5.43459
0.808952
0.574988
0.813584
0.97733
1.10965
1.23701
1.36347
1.48898
1.61335
1.73647
1.85823
1.97856
2.09735
2.21454
2.33002
2.44374
2.55562
2.66559
2.77359
2.87957
2.98347
3.08523
3.18482
3.28218
3.37728
3.47008
3.56053
3.64863
3.73432
3.8176
3.89844
3.97683
4.05275
4.1262
4.19718
4.26568
4.33171
4.39528
4.4564
4.51508
4.57135
4.62522
4.67672
4.72589
4.77275
4.81734
4.85969
4.89986
4.93787
4.97379
5.00765
5.0395
5.06941
5.09741
5.12358
5.14797
5.17063
5.19162
5.21102
5.22887
5.24525
5.26021
5.27382
5.28615
5.29726
5.30721
5.31606
5.32389
5.33075
5.33671
5.34182
5.34615
5.34976
5.3527
5.35504
5.35682
5.35811
5.35894
5.35939
5.35948
5.35927
5.3588
5.35811
5.35724
5.35623
5.35511
5.35391
5.35266
5.3514
5.35012
5.34887
5.34771
5.3471
5.34558
5.31546
5.39419
570.993
-180.555
8.25463
5.44376
0.820728
0.589362
0.830544
0.996861
1.13173
1.26163
1.3906
1.51861
1.64544
1.77099
1.89517
2.01787
2.13901
2.25851
2.37627
2.49222
2.6063
2.71843
2.82855
2.93659
3.04252
3.14627
3.24779
3.34704
3.44397
3.53856
3.63075
3.72053