/*--------------------------------*- C++ -*----------------------------------*\
  =========                 |
  \\      /  F ield         | OpenFOAM: The Open Source CFD Toolbox
   \\    /   O peration     | Website:  https://openfoam.org
    \\  /    A nd           | Version:  10
     \\/     M anipulation  |
\*---------------------------------------------------------------------------*/
FoamFile
{
    format      ascii;
    class       volScalarField;
    location    "22";
    object      T;
}
// * * * * * * * * * * * * * * * * * * * * * * * * * * * * * * * * * * * * * //

dimensions      [0 0 0 1 0 0 0];

internalField   nonuniform List<scalar> 
10000
(
374.98
361.269
356.575
354.51
353.383
352.667
352.164
351.786
351.487
351.242
351.036
350.858
350.701
350.562
350.435
350.32
350.213
350.114
350.022
349.934
349.851
349.773
349.698
349.626
349.557
349.491
349.427
349.365
349.305
349.247
349.191
349.136
349.083
349.031
348.981
348.932
348.884
348.837
348.792
348.747
348.704
348.662
348.621
348.581
348.542
348.503
348.466
348.43
348.394
348.36
348.326
348.293
348.261
348.23
348.2
348.17
348.142
348.114
348.087
348.061
348.035
348.01
347.986
347.963
347.94
347.919
347.897
347.877
347.857
347.838
347.82
347.803
347.786
347.769
347.754
347.739
347.725
347.711
347.698
347.686
347.674
347.663
347.653
347.643
347.634
347.625
347.618
347.61
347.604
347.597
347.592
347.587
347.583
347.579
347.576
347.573
347.571
347.57
347.569
347.569
388.594
374.79
367.092
362.587
359.735
357.785
356.364
355.275
354.404
353.685
353.076
352.548
352.084
351.668
351.292
350.947
350.629
350.333
350.056
349.794
349.547
349.312
349.087
348.872
348.665
348.466
348.274
348.089
347.91
347.736
347.567
347.403
347.244
347.089
346.938
346.791
346.647
346.508
346.371
346.238
346.109
345.982
345.859
345.739
345.621
345.507
345.395
345.286
345.18
345.076
344.975
344.877
344.781
344.687
344.597
344.508
344.422
344.338
344.257
344.178
344.102
344.027
343.955
343.885
343.818
343.752
343.689
343.628
343.569
343.512
343.457
343.405
343.354
343.305
343.259
343.214
343.171
343.131
343.092
343.055
343.02
342.987
342.956
342.927
342.899
342.874
342.85
342.828
342.808
342.789
342.773
342.758
342.745
342.734
342.725
342.717
342.711
342.707
342.705
342.704
393.195
382.21
374.419
369.013
365.185
362.377
360.237
358.547
357.171
356.02
355.037
354.179
353.42
352.739
352.12
351.552
351.027
350.537
350.078
349.645
349.234
348.844
348.471
348.113
347.77
347.439
347.12
346.812
346.514
346.224
345.943
345.671
345.405
345.147
344.896
344.651
344.413
344.18
343.953
343.732
343.516
343.305
343.1
342.899
342.704
342.513
342.327
342.145
341.968
341.796
341.627
341.463
341.304
341.148
340.997
340.85
340.706
340.567
340.432
340.3
340.172
340.049
339.929
339.812
339.7
339.591
339.485
339.383
339.285
339.19
339.099
339.011
338.927
338.846
338.768
338.693
338.622
338.554
338.49
338.428
338.37
338.315
338.263
338.215
338.169
338.126
338.087
338.05
338.017
337.986
337.959
337.934
337.913
337.894
337.878
337.866
337.856
337.849
337.845
337.844
395.168
386.437
379.361
373.862
369.617
366.301
363.659
361.506
359.714
358.191
356.873
355.714
354.681
353.749
352.899
352.117
351.392
350.714
350.077
349.476
348.905
348.362
347.842
347.345
346.866
346.405
345.96
345.53
345.113
344.709
344.317
343.936
343.565
343.204
342.853
342.511
342.177
341.852
341.535
341.225
340.924
340.629
340.342
340.061
339.788
339.521
339.261
339.007
338.759
338.517
338.282
338.053
337.829
337.612
337.4
337.194
336.993
336.799
336.609
336.425
336.247
336.073
335.905
335.742
335.585
335.432
335.285
335.142
335.005
334.872
334.744
334.621
334.503
334.39
334.281
334.177
334.078
333.983
333.892
333.806
333.725
333.648
333.575
333.507
333.443
333.383
333.328
333.277
333.23
333.187
333.149
333.115
333.085
333.059
333.037
333.019
333.005
332.996
332.99
332.989
396.202
389.011
382.725
377.459
373.122
369.553
366.593
364.108
361.989
360.158
358.552
357.126
355.844
354.681
353.614
352.629
351.712
350.854
350.045
349.281
348.554
347.861
347.198
346.562
345.95
345.36
344.791
344.24
343.706
343.188
342.686
342.197
341.722
341.259
340.809
340.37
339.942
339.524
339.117
338.72
338.333
337.954
337.585
337.225
336.874
336.531
336.197
335.871
335.553
335.243
334.94
334.646
334.359
334.079
333.807
333.543
333.285
333.035
332.791
332.555
332.326
332.103
331.887
331.678
331.475
331.279
331.09
330.907
330.73
330.56
330.396
330.238
330.086
329.94
329.8
329.667
329.539
329.417
329.301
329.19
329.086
328.987
328.893
328.806
328.723
328.647
328.576
328.51
328.45
328.395
328.346
328.302
328.263
328.229
328.201
328.179
328.161
328.149
328.142
328.14
396.825
390.683
385.071
380.128
375.858
372.198
369.056
366.344
363.981
361.903
360.056
358.397
356.894
355.519
354.253
353.078
351.98
350.949
349.976
349.054
348.176
347.337
346.534
345.763
345.02
344.304
343.611
342.941
342.292
341.662
341.05
340.455
339.876
339.312
338.763
338.227
337.705
337.197
336.7
336.216
335.743
335.282
334.831
334.392
333.963
333.545
333.137
332.739
332.351
331.972
331.603
331.244
330.893
330.552
330.22
329.897
329.582
329.277
328.98
328.691
328.411
328.139
327.876
327.62
327.373
327.134
326.902
326.679
326.463
326.255
326.054
325.861
325.676
325.498
325.327
325.164
325.008
324.859
324.717
324.582
324.454
324.334
324.22
324.113
324.012
323.919
323.832
323.752
323.678
323.611
323.551
323.497
323.45
323.409
323.375
323.347
323.325
323.31
323.302
323.299
397.236
391.826
386.75
382.124
377.988
374.325
371.092
368.233
365.692
363.421
361.374
359.517
357.819
356.255
354.806
353.455
352.187
350.993
349.863
348.789
347.765
346.786
345.847
344.943
344.073
343.232
342.419
341.632
340.869
340.128
339.408
338.707
338.025
337.362
336.715
336.084
335.469
334.869
334.284
333.713
333.155
332.611
332.08
331.562
331.057
330.563
330.082
329.612
329.154
328.707
328.272
327.847
327.434
327.031
326.639
326.258
325.887
325.526
325.175
324.835
324.504
324.183
323.872
323.571
323.279
322.996
322.723
322.459
322.204
321.959
321.722
321.494
321.275
321.065
320.864
320.671
320.487
320.311
320.143
319.984
319.833
319.691
319.556
319.429
319.311
319.201
319.098
319.003
318.917
318.837
318.766
318.703
318.647
318.599
318.558
318.525
318.5
318.482
318.472
318.469
397.522
392.64
387.98
383.633
379.646
376.026
372.757
369.807
367.139
364.718
362.509
360.484
358.616
356.883
355.268
353.754
352.329
350.982
349.703
348.484
347.32
346.205
345.133
344.101
343.106
342.144
341.213
340.311
339.436
338.585
337.759
336.954
336.171
335.408
334.665
333.939
333.232
332.542
331.869
331.212
330.57
329.944
329.333
328.736
328.154
327.586
327.032
326.491
325.963
325.449
324.947
324.458
323.982
323.518
323.067
322.627
322.2
321.784
321.38
320.987
320.606
320.237
319.878
319.531
319.194
318.869
318.554
318.25
317.956
317.673
317.4
317.138
316.886
316.644
316.411
316.189
315.977
315.774
315.581
315.398
315.224
315.059
314.904
314.758
314.622
314.494
314.376
314.267
314.167
314.076
313.994
313.921
313.856
313.801
313.754
313.716
313.687
313.666
313.655
313.652
397.729
393.235
388.897
384.783
380.938
377.381
374.107
371.102
368.344
365.807
363.466
361.299
359.284
357.402
355.636
353.974
352.402
350.911
349.491
348.135
346.837
345.59
344.391
343.235
342.119
341.038
339.992
338.977
337.992
337.034
336.103
335.196
334.312
333.452
332.612
331.794
330.995
330.216
329.455
328.713
327.988
327.28
326.59
325.915
325.257
324.615
323.988
323.376
322.779
322.197
321.63
321.077
320.538
320.014
319.503
319.006
318.522
318.051
317.594
317.15
316.719
316.301
315.895
315.502
315.121
314.753
314.397
314.052
313.72
313.4
313.091
312.794
312.509
312.235
311.972
311.72
311.48
311.25
311.032
310.824
310.627
310.441
310.266
310.101
309.946
309.802
309.668
309.545
309.431
309.328
309.235
309.152
309.079
309.017
308.964
308.921
308.888
308.865
308.851
308.848
397.882
393.68
389.59
385.666
381.947
378.454
375.192
372.156
369.332
366.705
364.257
361.969
359.826
357.811
355.911
354.112
352.405
350.779
349.227
347.74
346.314
344.942
343.62
342.343
341.109
339.913
338.754
337.629
336.536
335.473
334.438
333.431
332.449
331.492
330.558
329.647
328.758
327.891
327.044
326.217
325.409
324.621
323.851
323.099
322.366
321.65
320.951
320.269
319.603
318.955
318.322
317.705
317.104
316.519
315.949
315.395
314.855
314.33
313.82
313.325
312.844
312.377
311.925
311.486
311.061
310.65
310.253
309.868
309.498
309.14
308.796
308.464
308.146
307.84
307.547
307.266
306.997
306.741
306.498
306.266
306.046
305.838
305.643
305.458
305.286
305.125
304.976
304.838
304.711
304.596
304.493
304.4
304.319
304.248
304.189
304.142
304.105
304.079
304.064
304.06
397.997
394.015
390.118
386.346
382.733
379.301
376.057
373.002
370.13
367.431
364.893
362.504
360.248
358.115
356.093
354.17
352.337
350.585
348.908
347.298
345.75
344.257
342.817
341.424
340.076
338.768
337.499
336.267
335.068
333.902
332.766
331.659
330.58
329.528
328.501
327.499
326.521
325.566
324.634
323.723
322.834
321.966
321.118
320.29
319.481
318.692
317.922
317.17
316.436
315.721
315.024
314.344
313.681
313.036
312.407
311.796
311.2
310.622
310.059
309.513
308.982
308.467
307.968
307.484
307.015
306.562
306.123
305.699
305.29
304.896
304.516
304.15
303.799
303.461
303.138
302.828
302.532
302.249
301.98
301.724
301.482
301.253
301.036
300.833
300.643
300.465
300.301
300.148
300.009
299.882
299.767
299.665
299.575
299.498
299.433
299.38
299.339
299.311
299.294
299.29
398.084
394.27
390.521
386.869
383.344
379.962
376.737
373.67
370.761
368.004
365.39
362.912
360.558
358.319
356.186
354.148
352.199
350.331
348.536
346.809
345.144
343.537
341.982
340.477
339.019
337.603
336.227
334.889
333.588
332.32
331.085
329.881
328.707
327.561
326.443
325.351
324.285
323.244
322.227
321.234
320.264
319.316
318.391
317.487
316.604
315.742
314.901
314.08
313.279
312.498
311.736
310.993
310.27
309.564
308.878
308.209
307.559
306.927
306.312
305.715
305.135
304.572
304.026
303.497
302.985
302.49
302.01
301.547
301.1
300.669
300.253
299.853
299.469
299.1
298.746
298.408
298.084
297.775
297.481
297.201
296.936
296.686
296.449
296.227
296.019
295.825
295.645
295.478
295.326
295.187
295.062
294.95
294.852
294.767
294.696
294.638
294.593
294.562
294.544
294.54
398.151
394.464
390.828
387.27
383.813
380.473
377.263
374.187
371.247
368.44
365.761
363.205
360.763
358.429
356.194
354.052
351.995
350.016
348.111
346.273
344.497
342.78
341.116
339.503
337.937
336.416
334.937
333.497
332.095
330.729
329.396
328.097
326.829
325.591
324.383
323.202
322.05
320.923
319.823
318.748
317.698
316.672
315.67
314.691
313.735
312.802
311.891
311.001
310.133
309.287
308.461
307.656
306.871
306.107
305.362
304.638
303.933
303.247
302.58
301.933
301.304
300.693
300.102
299.528
298.972
298.435
297.915
297.412
296.927
296.46
296.009
295.575
295.158
294.758
294.374
294.007
293.656
293.321
293.002
292.698
292.411
292.139
291.882
291.641
291.415
291.205
291.009
290.829
290.663
290.513
290.377
290.256
290.149
290.057
289.98
289.917
289.869
289.835
289.816
289.811
398.2
394.609
391.06
387.573
384.168
380.86
377.661
374.575
371.607
368.756
366.019
363.393
360.872
358.451
356.123
353.883
351.726
349.644
347.635
345.691
343.81
341.987
340.219
338.501
336.833
335.209
333.629
332.09
330.589
329.126
327.699
326.306
324.946
323.618
322.321
321.054
319.815
318.605
317.423
316.268
315.139
314.035
312.957
311.904
310.876
309.871
308.891
307.933
306.999
306.087
305.198
304.331
303.487
302.663
301.862
301.081
300.322
299.583
298.865
298.167
297.49
296.833
296.195
295.577
294.978
294.399
293.839
293.297
292.775
292.271
291.785
291.318
290.869
290.437
290.024
289.628
289.249
288.888
288.544
288.217
287.907
287.614
287.338
287.078
286.834
286.607
286.397
286.202
286.024
285.861
285.715
285.584
285.469
285.37
285.287
285.219
285.167
285.131
285.11
285.104
398.237
394.717
391.232
387.797
384.43
381.145
377.95
374.854
371.859
368.967
366.177
363.487
360.893
358.392
355.978
353.648
351.396
349.218
347.109
345.066
343.084
341.16
339.291
337.473
335.704
333.982
332.304
330.667
329.072
327.514
325.994
324.51
323.06
321.643
320.259
318.906
317.583
316.291
315.027
313.792
312.585
311.406
310.253
309.127
308.026
306.951
305.902
304.877
303.877
302.902
301.95
301.022
300.117
299.236
298.377
297.541
296.728
295.937
295.168
294.421
293.695
292.991
292.308
291.646
291.004
290.384
289.783
289.203
288.643
288.103
287.583
287.082
286.601
286.138
285.695
285.271
284.865
284.478
284.11
283.759
283.427
283.113
282.817
282.538
282.278
282.034
281.808
281.6
281.409
281.235
281.078
280.938
280.814
280.708
280.619
280.546
280.491
280.452
280.429
280.423
398.264
394.795
391.355
387.957
384.616
381.344
378.149
375.038
372.016
369.085
366.246
363.496
360.835
358.259
355.765
353.349
351.008
348.739
346.536
344.398
342.32
340.299
338.333
336.418
334.553
332.735
330.961
329.231
327.542
325.893
324.282
322.708
321.169
319.666
318.196
316.758
315.353
313.98
312.636
311.323
310.039
308.784
307.557
306.359
305.187
304.043
302.926
301.835
300.77
299.731
298.717
297.728
296.764
295.825
294.91
294.02
293.153
292.31
291.49
290.694
289.92
289.169
288.441
287.735
287.052
286.39
285.75
285.132
284.535
283.959
283.404
282.87
282.357
281.864
281.391
280.939
280.506
280.093
279.7
279.327
278.972
278.637
278.322
278.025
277.746
277.487
277.246
277.024
276.82
276.634
276.466
276.317
276.186
276.073
275.977
275.9
275.84
275.799
275.775
275.768
398.282
394.848
391.439
388.065
384.739
381.471
378.27
375.142
372.093
369.123
366.236
363.43
360.705
358.058
355.488
352.993
350.568
348.211
345.92
343.69
341.52
339.406
337.347
335.339
333.38
331.469
329.603
327.781
326.002
324.262
322.562
320.901
319.276
317.687
316.133
314.613
313.127
311.673
310.251
308.861
307.501
306.172
304.872
303.602
302.36
301.148
299.963
298.806
297.677
296.575
295.5
294.451
293.429
292.432
291.462
290.517
289.597
288.703
287.833
286.987
286.166
285.37
284.597
283.848
283.122
282.42
281.74
281.084
280.45
279.839
279.25
278.683
278.138
277.614
277.113
276.632
276.173
275.735
275.317
274.921
274.544
274.189
273.853
273.538
273.242
272.967
272.711
272.475
272.258
272.061
271.883
271.725
271.585
271.465
271.364
271.282
271.218
271.174
271.149
271.142
398.293
394.881
391.489
388.128
384.808
381.538
378.326
375.178
372.098
369.09
366.156
363.296
360.51
357.797
355.155
352.583
350.078
347.638
345.262
342.945
340.686
338.483
336.334
334.236
332.187
330.185
328.23
326.319
324.451
322.624
320.837
319.089
317.38
315.707
314.071
312.47
310.904
309.371
307.872
306.406
304.971
303.569
302.197
300.857
299.546
298.266
297.015
295.793
294.6
293.436
292.3
291.192
290.112
289.059
288.033
287.034
286.062
285.117
284.197
283.303
282.436
281.593
280.776
279.984
279.217
278.474
277.755
277.061
276.391
275.745
275.122
274.522
273.946
273.392
272.861
272.353
271.867
271.404
270.962
270.543
270.145
269.769
269.414
269.08
268.768
268.476
268.205
267.956
267.726
267.518
267.33
267.162
267.014
266.887
266.78
266.693
266.626
266.579
266.552
266.545
398.299
394.897
391.513
388.155
384.832
381.553
378.325
375.153
372.043
368.996
366.015
363.103
360.258
357.48
354.769
352.124
349.543
347.024
344.565
342.165
339.821
337.532
335.296
333.11
330.974
328.885
326.843
324.845
322.89
320.978
319.106
317.275
315.482
313.728
312.011
310.33
308.685
307.076
305.5
303.959
302.451
300.977
299.534
298.124
296.745
295.398
294.082
292.796
291.54
290.315
289.119
287.952
286.814
285.706
284.625
283.573
282.549
281.553
280.584
279.643
278.729
277.841
276.98
276.145
275.337
274.554
273.797
273.065
272.359
271.678
271.021
270.389
269.782
269.198
268.639
268.103
267.591
267.102
266.637
266.195
265.775
265.378
265.004
264.653
264.323
264.016
263.731
263.467
263.226
263.006
262.807
262.63
262.475
262.34
262.228
262.136
262.065
262.016
261.987
261.98
398.299
394.898
391.513
388.151
384.819
381.526
378.277
375.078
371.934
368.847
365.821
362.856
359.954
357.114
354.337
351.621
348.967
346.371
343.834
341.353
338.927
336.555
334.234
331.964
329.743
327.57
325.442
323.36
321.321
319.325
317.371
315.458
313.584
311.75
309.953
308.194
306.472
304.787
303.137
301.522
299.942
298.396
296.884
295.405
293.959
292.546
291.165
289.816
288.498
287.212
285.956
284.732
283.538
282.374
281.239
280.135
279.059
278.013
276.996
276.007
275.047
274.114
273.21
272.333
271.484
270.662
269.866
269.098
268.355
267.639
266.95
266.286
265.647
265.034
264.446
263.883
263.345
262.832
262.343
261.878
261.437
261.02
260.627
260.257
259.911
259.588
259.288
259.011
258.757
258.526
258.317
258.131
257.968
257.827
257.708
257.612
257.537
257.485
257.455
257.447
398.296
394.888
391.494
388.12
384.774
381.461
378.187
374.959
371.779
368.651
365.579
362.563
359.604
356.704
353.862
351.079
348.353
345.684
343.07
340.512
338.006
335.554
333.152
330.8
328.496
326.24
324.03
321.866
319.745
317.668
315.633
313.639
311.686
309.773
307.899
306.063
304.266
302.505
300.782
299.095
297.443
295.827
294.247
292.7
291.188
289.71
288.265
286.853
285.475
284.129
282.815
281.533
280.283
279.064
277.877
276.72
275.594
274.498
273.433
272.397
271.391
270.415
269.467
268.549
267.659
266.798
265.964
265.159
264.381
263.631
262.909
262.213
261.544
260.901
260.285
259.695
259.131
258.593
258.081
257.594
257.132
256.695
256.282
255.895
255.532
255.194
254.879
254.589
254.323
254.08
253.862
253.667
253.495
253.348
253.223
253.122
253.044
252.99
252.958
252.95
398.29
394.868
391.459
388.068
384.701
381.364
378.062
374.801
371.584
368.414
365.295
362.228
359.214
356.254
353.349
350.5
347.705
344.964
342.277
339.643
337.061
334.53
332.05
329.618
327.235
324.898
322.608
320.363
318.163
316.006
313.892
311.82
309.789
307.799
305.849
303.938
302.066
300.232
298.437
296.678
294.957
293.272
291.624
290.011
288.434
286.891
285.384
283.91
282.471
281.066
279.695
278.356
277.051
275.778
274.538
273.33
272.154
271.01
269.897
268.815
267.764
266.743
265.753
264.794
263.864
262.964
262.093
261.251
260.439
259.655
258.899
258.172
257.473
256.801
256.157
255.541
254.951
254.389
253.853
253.343
252.86
252.404
251.973
251.568
251.188
250.834
250.506
250.202
249.924
249.671
249.442
249.238
249.059
248.904
248.774
248.668
248.587
248.53
248.497
248.488
398.28
394.839
391.41
387.997
384.605
381.24
377.907
374.61
371.354
368.141
364.975
361.856
358.787
355.769
352.803
349.889
347.027
344.216
341.458
338.751
336.094
333.488
330.93
328.421
325.96
323.545
321.177
318.854
316.575
314.341
312.149
310.001
307.894
305.828
303.803
301.819
299.874
297.969
296.102
294.274
292.484
290.732
289.016
287.338
285.696
284.091
282.521
280.988
279.489
278.026
276.597
275.203
273.843
272.517
271.225
269.966
268.741
267.548
266.388
265.26
264.165
263.101
262.069
261.069
260.099
259.161
258.253
257.376
256.528
255.711
254.923
254.165
253.435
252.735
252.064
251.42
250.806
250.219
249.66
249.129
248.625
248.149
247.699
247.277
246.881
246.512
246.169
245.853
245.562
245.298
245.059
244.847
244.66
244.498
244.363
244.252
244.167
244.108
244.073
244.064
398.268
394.803
391.349
387.909
384.488
381.092
377.725
374.391
371.094
367.837
364.622
361.453
358.329
355.253
352.227
349.249
346.321
343.443
340.615
337.837
335.108
332.427
329.795
327.211
324.673
322.183
319.738
317.339
314.984
312.674
310.407
308.183
306.002
303.862
301.765
299.708
297.692
295.716
293.779
291.883
290.025
288.206
286.425
284.682
282.977
281.31
279.679
278.086
276.529
275.008
273.523
272.074
270.66
269.282
267.938
266.629
265.355
264.115
262.908
261.735
260.596
259.49
258.416
257.375
256.367
255.391
254.446
253.533
252.651
251.801
250.981
250.192
249.433
248.704
248.005
247.336
246.697
246.086
245.504
244.951
244.427
243.931
243.463
243.024
242.612
242.227
241.871
241.541
241.239
240.964
240.716
240.494
240.3
240.132
239.99
239.875
239.787
239.725
239.689
239.679
398.254
394.761
391.278
387.808
384.355
380.925
377.521
374.147
370.808
367.505
364.242
361.021
357.843
354.71
351.624
348.584
345.592
342.648
339.752
336.904
334.104
331.351
328.646
325.989
323.378
320.813
318.294
315.82
313.391
311.006
308.665
306.368
304.114
301.902
299.733
297.605
295.519
293.474
291.469
289.505
287.581
285.696
283.851
282.045
280.278
278.549
276.858
275.206
273.591
272.014
270.473
268.97
267.503
266.073
264.679
263.321
261.998
260.711
259.458
258.241
257.058
255.91
254.795
253.715
252.668
251.654
250.673
249.725
248.809
247.926
247.075
246.255
245.467
244.71
243.984
243.289
242.625
241.991
241.386
240.812
240.268
239.752
239.266
238.81
238.382
237.982
237.612
237.27
236.956
236.67
236.412
236.182
235.979
235.805
235.658
235.538
235.447
235.382
235.345
235.335
398.239
394.714
391.198
387.695
384.207
380.74
377.297
373.882
370.499
367.15
363.838
360.565
357.333
354.143
350.998
347.897
344.842
341.832
338.87
335.954
333.085
330.262
327.486
324.757
322.074
319.436
316.844
314.298
311.796
309.339
306.926
304.557
302.231
299.949
297.709
295.512
293.357
291.244
289.172
287.142
285.152
283.203
281.295
279.426
277.598
275.809
274.059
272.349
270.677
269.044
267.449
265.893
264.374
262.892
261.448
260.041
258.671
257.337
256.04
254.778
253.553
252.363
251.208
250.088
249.003
247.952
246.935
245.953
245.003
244.088
243.205
242.356
241.539
240.754
240.002
239.281
238.592
237.934
237.308
236.712
236.148
235.614
235.11
234.636
234.192
233.778
233.394
233.039
232.713
232.417
232.149
231.911
231.701
231.52
231.367
231.244
231.148
231.081
231.043
231.032
398.221
394.662
391.111
387.571
384.046
380.54
377.056
373.598
370.17
366.774
363.412
360.087
356.801
353.555
350.351
347.19
344.073
341
337.972
334.99
332.053
329.162
326.316
323.517
320.763
318.055
315.392
312.774
310.202
307.674
305.19
302.751
300.355
298.003
295.695
293.43
291.207
289.027
286.89
284.794
282.741
280.729
278.758
276.828
274.939
273.091
271.284
269.516
267.788
266.1
264.452
262.842
261.272
259.74
258.247
256.792
255.375
253.995
252.653
251.349
250.081
248.849
247.655
246.496
245.373
244.286
243.234
242.217
241.235
240.287
239.374
238.495
237.649
236.837
236.058
235.312
234.599
233.918
233.27
232.654
232.069
231.516
230.995
230.504
230.045
229.616
229.218
228.851
228.513
228.206
227.929
227.682
227.465
227.278
227.12
226.992
226.893
226.823
226.783
226.772
398.203
394.606
391.018
387.439
383.874
380.327
376.801
373.299
369.824
366.38
362.968
359.591
356.251
352.949
349.687
346.467
343.288
340.153
337.061
334.013
331.01
328.052
325.139
322.271
319.448
316.67
313.938
311.251
308.609
306.011
303.459
300.951
298.487
296.067
293.691
291.359
289.07
286.825
284.623
282.463
280.347
278.273
276.241
274.251
272.303
270.397
268.532
266.708
264.925
263.183
261.482
259.821
258.199
256.618
255.076
253.574
252.111
250.686
249.3
247.953
246.643
245.371
244.137
242.94
241.78
240.657
239.57
238.519
237.505
236.526
235.582
234.673
233.799
232.96
232.155
231.385
230.648
229.944
229.274
228.637
228.033
227.461
226.922
226.415
225.94
225.497
225.086
224.706
224.357
224.04
223.754
223.498
223.274
223.08
222.917
222.784
222.682
222.61
222.569
222.557
398.183
394.547
390.919
387.299
383.693
380.103
376.533
372.986
369.464
365.971
362.509
359.08
355.685
352.328
349.009
345.729
342.49
339.293
336.138
333.026
329.958
326.934
323.955
321.02
318.13
315.284
312.484
309.729
307.019
304.353
301.733
299.157
296.627
294.14
291.698
289.301
286.947
284.638
282.372
280.15
277.972
275.837
273.745
271.696
269.69
267.726
265.805
263.926
262.089
260.294
258.54
256.828
255.157
253.527
251.937
250.388
248.879
247.411
245.981
244.592
243.241
241.929
240.656
239.421
238.225
237.066
235.945
234.861
233.814
232.804
231.83
230.893
229.991
229.125
228.294
227.499
226.738
226.012
225.321
224.663
224.04
223.45
222.894
222.37
221.88
221.423
220.998
220.606
220.246
219.919
219.623
219.36
219.128
218.928
218.759
218.622
218.517
218.442
218.4
218.388
398.163
394.485
390.815
387.154
383.504
379.87
376.255
372.661
369.092
365.549
362.036
358.555
355.106
351.694
348.317
344.979
341.681
338.423
335.206
332.032
328.9
325.811
322.767
319.766
316.81
313.898
311.031
308.21
305.433
302.701
300.014
297.373
294.776
292.225
289.718
287.256
284.839
282.467
280.139
277.856
275.616
273.421
271.271
269.164
267.1
265.08
263.104
261.171
259.28
257.433
255.628
253.866
252.146
250.467
248.831
247.236
245.682
244.17
242.698
241.266
239.875
238.524
237.213
235.941
234.708
233.514
232.359
231.243
230.164
229.123
228.12
227.154
226.225
225.332
224.476
223.657
222.873
222.125
221.412
220.734
220.092
219.484
218.91
218.371
217.866
217.394
216.957
216.552
216.182
215.844
215.539
215.267
215.028
214.822
214.648
214.507
214.398
214.322
214.277
214.265
398.141
394.421
390.708
387.002
383.309
379.63
375.968
372.327
368.709
365.117
361.552
358.018
354.516
351.048
347.616
344.22
340.863
337.544
334.267
331.03
327.836
324.684
321.576
318.511
315.49
312.513
309.581
306.694
303.852
301.055
298.304
295.597
292.937
290.321
287.751
285.226
282.747
280.313
277.924
275.58
273.282
271.028
268.819
266.655
264.536
262.46
260.43
258.443
256.501
254.602
252.747
250.935
249.166
247.441
245.758
244.118
242.52
240.964
239.45
237.978
236.547
235.157
233.808
232.5
231.231
230.003
228.815
227.665
226.556
225.484
224.452
223.458
222.502
221.583
220.702
219.859
219.052
218.282
217.548
216.851
216.189
215.563
214.973
214.418
213.898
213.413
212.962
212.546
212.164
211.816
211.503
211.223
210.977
210.764
210.585
210.44
210.328
210.249
210.203
210.19
398.119
394.355
390.597
386.847
383.108
379.382
375.674
371.985
368.318
364.675
361.059
357.473
353.917
350.394
346.905
343.452
340.037
336.66
333.322
330.025
326.769
323.555
320.383
317.255
314.171
311.131
308.135
305.184
302.278
299.418
296.602
293.833
291.109
288.431
285.799
283.212
280.672
278.177
275.728
273.325
270.968
268.657
266.391
264.171
261.997
259.867
257.783
255.744
253.75
251.801
249.896
248.036
246.22
244.448
242.719
241.035
239.393
237.795
236.24
234.727
233.257
231.829
230.443
229.098
227.795
226.533
225.312
224.131
222.99
221.889
220.828
219.806
218.823
217.879
216.973
216.106
215.277
214.485
213.731
213.014
212.334
211.69
211.083
210.512
209.978
209.479
209.015
208.587
208.195
207.837
207.515
207.227
206.974
206.755
206.571
206.421
206.306
206.225
206.178
206.165
398.097
394.287
390.483
386.688
382.902
379.13
375.373
371.635
367.919
364.226
360.559
356.92
353.31
349.733
346.188
342.679
339.206
335.77
332.373
329.016
325.7
322.425
319.192
316.002
312.855
309.752
306.694
303.681
300.712
297.789
294.911
292.08
289.294
286.555
283.861
281.215
278.614
276.06
273.553
271.092
268.678
266.31
263.988
261.713
259.484
257.302
255.165
253.075
251.03
249.031
247.078
245.17
243.307
241.489
239.716
237.988
236.304
234.664
233.068
231.516
230.007
228.541
227.118
225.738
224.401
223.105
221.851
220.639
219.468
218.337
217.248
216.199
215.19
214.22
213.29
212.4
211.548
210.735
209.961
209.224
208.526
207.865
207.242
206.656
206.106
205.594
205.118
204.678
204.275
203.908
203.577
203.281
203.021
202.796
202.607
202.453
202.335
202.251
202.203
202.19
398.074
394.217
390.368
386.525
382.692
378.872
375.068
371.281
367.515
363.771
360.052
356.36
352.698
349.066
345.466
341.901
338.371
334.878
331.422
328.006
324.63
321.295
318.002
314.751
311.543
308.379
305.26
302.185
299.155
296.171
293.232
290.339
287.493
284.694
281.941
279.235
276.575
273.963
271.398
268.881
266.41
263.987
261.61
259.281
256.999
254.764
252.576
250.435
248.341
246.293
244.292
242.337
240.428
238.566
236.749
234.977
233.251
231.571
229.935
228.343
226.797
225.294
223.835
222.42
221.049
219.72
218.434
217.191
215.99
214.831
213.713
212.637
211.602
210.608
209.654
208.741
207.867
207.034
206.239
205.484
204.767
204.089
203.45
202.848
202.285
201.759
201.271
200.82
200.406
200.029
199.689
199.386
199.119
198.888
198.694
198.537
198.415
198.329
198.28
198.266
398.05
394.147
390.251
386.361
382.48
378.612
374.758
370.922
367.106
363.311
359.541
355.797
352.081
348.395
344.741
341.12
337.534
333.983
330.471
326.997
323.562
320.168
316.815
313.504
310.237
307.013
303.833
300.698
297.608
294.563
291.565
288.613
285.708
282.849
280.037
277.273
274.557
271.887
269.266
266.692
264.167
261.689
259.259
256.877
254.543
252.256
250.018
247.827
245.684
243.589
241.54
239.539
237.586
235.679
233.819
232.005
230.238
228.517
226.841
225.212
223.628
222.089
220.595
219.145
217.74
216.379
215.062
213.788
212.558
211.37
210.225
209.123
208.062
207.044
206.066
205.13
204.235
203.381
202.566
201.792
201.058
200.363
199.708
199.091
198.514
197.975
197.475
197.012
196.588
196.202
195.853
195.542
195.269
195.033
194.834
194.672
194.547
194.459
194.408
194.394
398.026
394.076
390.132
386.194
382.265
378.349
374.446
370.56
366.694
362.848
359.027
355.23
351.461
347.722
344.013
340.337
336.696
333.089
329.52
325.988
322.496
319.044
315.633
312.264
308.937
305.654
302.415
299.221
296.072
292.969
289.912
286.901
283.938
281.021
278.152
275.331
272.558
269.833
267.156
264.528
261.948
259.417
256.934
254.5
252.115
249.779
247.491
245.251
243.06
240.918
238.823
236.777
234.779
232.829
230.926
229.071
227.263
225.502
223.788
222.121
220.5
218.926
217.397
215.914
214.476
213.083
211.735
210.431
209.172
207.956
206.785
205.656
204.571
203.528
202.527
201.569
200.653
199.778
198.944
198.152
197.4
196.688
196.017
195.386
194.795
194.243
193.731
193.257
192.823
192.427
192.07
191.752
191.472
191.23
191.026
190.86
190.732
190.642
190.59
190.575
398.003
394.004
390.012
386.026
382.049
378.083
374.132
370.196
366.279
362.383
358.51
354.662
350.84
347.047
343.285
339.555
335.858
332.196
328.571
324.983
321.434
317.925
314.456
311.029
307.645
304.304
301.007
297.755
294.549
291.388
288.273
285.205
282.185
279.212
276.287
273.41
270.581
267.801
265.07
262.389
259.756
257.172
254.638
252.153
249.718
247.332
244.995
242.708
240.47
238.281
236.141
234.051
232.009
230.016
228.072
226.176
224.329
222.529
220.777
219.073
217.416
215.806
214.243
212.727
211.256
209.832
208.454
207.121
205.833
204.59
203.392
202.238
201.127
200.061
199.038
198.058
197.12
196.225
195.373
194.562
193.793
193.065
192.379
191.733
191.128
190.564
190.039
189.555
189.111
188.706
188.341
188.015
187.728
187.481
187.272
187.102
186.971
186.879
186.825
186.81
397.978
393.932
389.892
385.857
381.831
377.817
373.816
369.831
365.864
361.917
357.992
354.092
350.219
346.373
342.557
338.773
335.022
331.306