/*--------------------------------*- C++ -*----------------------------------*\
  =========                 |
  \\      /  F ield         | OpenFOAM: The Open Source CFD Toolbox
   \\    /   O peration     | Website:  https://openfoam.org
    \\  /    A nd           | Version:  10
     \\/     M anipulation  |
\*---------------------------------------------------------------------------*/
FoamFile
{
    format      ascii;
    class       volScalarField;
    location    "22";
    object      T_0;
}
// * * * * * * * * * * * * * * * * * * * * * * * * * * * * * * * * * * * * * //

dimensions      [0 0 0 1 0 0 0];

internalField   nonuniform List<scalar> 
10000
(
374.974
361.267
356.573
354.507
353.38
352.665
352.162
351.783
351.484
351.24
351.033
350.855
350.699
350.559
350.433
350.317
350.21
350.111
350.019
349.931
349.848
349.77
349.695
349.623
349.554
349.487
349.423
349.362
349.302
349.244
349.187
349.133
349.079
349.028
348.977
348.928
348.88
348.834
348.788
348.744
348.701
348.659
348.618
348.577
348.538
348.5
348.463
348.426
348.391
348.356
348.323
348.29
348.258
348.227
348.197
348.167
348.138
348.11
348.083
348.057
348.031
348.007
347.983
347.959
347.937
347.915
347.894
347.874
347.854
347.835
347.817
347.799
347.782
347.766
347.75
347.735
347.721
347.708
347.695
347.682
347.671
347.66
347.649
347.64
347.631
347.622
347.614
347.607
347.6
347.594
347.588
347.584
347.579
347.576
347.572
347.57
347.568
347.567
347.566
347.565
388.591
374.791
367.093
362.587
359.735
357.785
356.365
355.275
354.404
353.685
353.076
352.548
352.084
351.668
351.292
350.947
350.629
350.333
350.055
349.794
349.546
349.311
349.086
348.871
348.664
348.465
348.273
348.088
347.909
347.735
347.566
347.402
347.242
347.087
346.936
346.789
346.646
346.506
346.37
346.237
346.107
345.981
345.858
345.737
345.62
345.505
345.393
345.284
345.178
345.074
344.973
344.875
344.779
344.686
344.595
344.506
344.42
344.337
344.255
344.176
344.1
344.025
343.953
343.884
343.816
343.75
343.687
343.626
343.567
343.51
343.455
343.403
343.352
343.303
343.257
343.212
343.169
343.129
343.09
343.053
343.018
342.985
342.954
342.924
342.897
342.872
342.848
342.826
342.806
342.787
342.771
342.756
342.743
342.732
342.723
342.715
342.709
342.705
342.703
342.702
393.192
382.21
374.419
369.013
365.185
362.376
360.236
358.546
357.17
356.019
355.036
354.178
353.419
352.738
352.119
351.551
351.025
350.536
350.076
349.643
349.232
348.842
348.468
348.111
347.768
347.437
347.118
346.809
346.511
346.221
345.941
345.668
345.402
345.144
344.893
344.648
344.409
344.177
343.95
343.728
343.512
343.302
343.096
342.896
342.7
342.509
342.323
342.141
341.964
341.792
341.623
341.46
341.3
341.144
340.993
340.846
340.702
340.563
340.427
340.296
340.168
340.044
339.924
339.808
339.695
339.586
339.481
339.379
339.281
339.186
339.095
339.007
338.922
338.841
338.763
338.689
338.618
338.55
338.486
338.424
338.366
338.311
338.259
338.21
338.164
338.122
338.082
338.046
338.012
337.982
337.954
337.93
337.908
337.89
337.874
337.861
337.852
337.845
337.841
337.84
395.165
386.437
379.36
373.862
369.617
366.3
363.658
361.505
359.712
358.189
356.871
355.712
354.679
353.747
352.897
352.115
351.389
350.711
350.074
349.473
348.902
348.359
347.839
347.341
346.863
346.401
345.956
345.526
345.109
344.705
344.313
343.931
343.561
343.2
342.848
342.506
342.173
341.847
341.53
341.221
340.919
340.624
340.337
340.056
339.783
339.516
339.255
339.001
338.753
338.512
338.276
338.047
337.824
337.606
337.394
337.188
336.988
336.793
336.603
336.419
336.241
336.067
335.899
335.736
335.579
335.426
335.279
335.136
334.999
334.866
334.738
334.615
334.497
334.384
334.275
334.171
334.071
333.976
333.886
333.8
333.719
333.642
333.569
333.501
333.437
333.377
333.322
333.271
333.224
333.181
333.143
333.108
333.078
333.052
333.03
333.013
332.999
332.989
332.984
332.983
396.199
389.011
382.725
377.458
373.121
369.552
366.592
364.106
361.988
360.156
358.55
357.124
355.842
354.678
353.612
352.626
351.709
350.851
350.042
349.277
348.55
347.857
347.194
346.558
345.946
345.356
344.786
344.235
343.701
343.183
342.68
342.192
341.716
341.254
340.803
340.364
339.936
339.518
339.111
338.714
338.326
337.948
337.579
337.219
336.867
336.525
336.19
335.864
335.546
335.236
334.933
334.639
334.351
334.072
333.8
333.535
333.277
333.027
332.784
332.547
332.318
332.095
331.879
331.67
331.468
331.272
331.082
330.899
330.722
330.552
330.388
330.23
330.078
329.932
329.792
329.659
329.531
329.409
329.293
329.182
329.078
328.979
328.885
328.798
328.715
328.639
328.568
328.502
328.442
328.387
328.338
328.294
328.255
328.221
328.193
328.171
328.153
328.141
328.134
328.132
396.822
390.683
385.071
380.127
375.857
372.196
369.055
366.342
363.979
361.901
360.053
358.394
356.891
355.516
354.25
353.074
351.976
350.945
349.972
349.049
348.171
347.332
346.529
345.757
345.015
344.298
343.606
342.935
342.286
341.656
341.043
340.448
339.869
339.305
338.756
338.22
337.698
337.189
336.693
336.208
335.735
335.274
334.823
334.384
333.955
333.537
333.129
332.73
332.342
331.964
331.594
331.235
330.884
330.543
330.211
329.888
329.573
329.267
328.97
328.682
328.402
328.13
327.866
327.611
327.363
327.124
326.893
326.669
326.453
326.245
326.045
325.852
325.666
325.488
325.318
325.154
324.998
324.849
324.707
324.573
324.445
324.324
324.21
324.103
324.002
323.909
323.822
323.742
323.668
323.601
323.541
323.487
323.44
323.399
323.365
323.337
323.315
323.3
323.292
323.29
397.232
391.827
386.75
382.123
377.987
374.324
371.09
368.231
365.69
363.418
361.372
359.514
357.816
356.252
354.802
353.45
352.183
350.989
349.858
348.784
347.76
346.78
345.841
344.937
344.066
343.226
342.413
341.625
340.862
340.12
339.4
338.699
338.018
337.353
336.706
336.076
335.46
334.86
334.275
333.704
333.146
332.602
332.071
331.553
331.047
330.553
330.072
329.602
329.144
328.697
328.261
327.837
327.423
327.021
326.629
326.247
325.876
325.515
325.164
324.824
324.493
324.172
323.861
323.559
323.267
322.985
322.712
322.448
322.193
321.947
321.711
321.483
321.264
321.054
320.852
320.659
320.475
320.299
320.132
319.973
319.822
319.679
319.544
319.418
319.299
319.189
319.086
318.992
318.905
318.826
318.755
318.691
318.635
318.587
318.547
318.514
318.488
318.471
318.461
318.458
397.519
392.64
387.979
383.631
379.644
376.025
372.755
369.804
367.136
364.715
362.506
360.48
358.612
356.879
355.264
353.75
352.324
350.976
349.697
348.478
347.314
346.198
345.126
344.094
343.099
342.137
341.206
340.303
339.428
338.577
337.75
336.945
336.162
335.399
334.655
333.93
333.222
332.532
331.859
331.201
330.56
329.933
329.322
328.725
328.143
327.575
327.02
326.479
325.951
325.437
324.935
324.446
323.97
323.506
323.054
322.615
322.187
321.771
321.367
320.975
320.594
320.224
319.865
319.518
319.181
318.856
318.541
318.237
317.943
317.66
317.387
317.125
316.873
316.63
316.398
316.176
315.963
315.761
315.568
315.384
315.21
315.046
314.891
314.745
314.608
314.481
314.363
314.254
314.154
314.063
313.98
313.907
313.843
313.787
313.741
313.703
313.674
313.653
313.641
313.638
397.726
393.236
388.896
384.782
380.937
377.379
374.105
371.099
368.341
365.803
363.463
361.295
359.279
357.397
355.631
353.968
352.396
350.905
349.485
348.129
346.83
345.583
344.384
343.227
342.11
341.03
339.983
338.968
337.983
337.025
336.093
335.186
334.302
333.441
332.602
331.783
330.984
330.205
329.444
328.701
327.976
327.268
326.577
325.903
325.244
324.602
323.975
323.363
322.766
322.184
321.617
321.064
320.525
320
319.489
318.992
318.508
318.037
317.58
317.136
316.705
316.286
315.881
315.487
315.107
314.738
314.382
314.038
313.705
313.385
313.076
312.779
312.494
312.22
311.957
311.705
311.465
311.235
311.017
310.809
310.612
310.426
310.251
310.086
309.931
309.787
309.653
309.53
309.416
309.313
309.22
309.137
309.064
309.002
308.949
308.906
308.873
308.85
308.836
308.833
397.879
393.68
389.589
385.664
381.945
378.452
375.19
372.153
369.329
366.701
364.253
361.965
359.821
357.806
355.905
354.106
352.398
350.772
349.219
347.733
346.306
344.934
343.611
342.334
341.1
339.904
338.745
337.619
336.526
335.462
334.427
333.419
332.437
331.48
330.546
329.635
328.746
327.878
327.031
326.203
325.396
324.607
323.837
323.085
322.352
321.635
320.936
320.254
319.589
318.94
318.307
317.69
317.089
316.504
315.934
315.379
314.839
314.315
313.804
313.309
312.828
312.361
311.908
311.47
311.045
310.634
310.236
309.852
309.481
309.124
308.779
308.448
308.129
307.823
307.53
307.249
306.981
306.725
306.481
306.249
306.029
305.822
305.626
305.442
305.269
305.108
304.959
304.821
304.695
304.58
304.476
304.383
304.302
304.232
304.173
304.125
304.088
304.062
304.047
304.043
397.994
394.015
390.116
386.344
382.731
379.298
376.054
372.998
370.126
367.427
364.889
362.499
360.243
358.109
356.086
354.163
352.33
350.578
348.9
347.29
345.741
344.248
342.807
341.414
340.065
338.758
337.489
336.256
335.057
333.89
332.754
331.647
330.568
329.515
328.488
327.486
326.508
325.552
324.62
323.709
322.819
321.951
321.103
320.274
319.466
318.676
317.906
317.154
316.42
315.705
315.007
314.327
313.664
313.019
312.39
311.778
311.183
310.604
310.042
309.495
308.964
308.449
307.95
307.466
306.997
306.544
306.105
305.681
305.272
304.878
304.498
304.132
303.78
303.443
303.119
302.809
302.513
302.231
301.962
301.706
301.463
301.234
301.018
300.815
300.624
300.447
300.282
300.13
299.99
299.863
299.749
299.647
299.557
299.48
299.414
299.361
299.321
299.292
299.276
299.272
398.081
394.27
390.52
386.868
383.341
379.96
376.733
373.666
370.757
367.999
365.385
362.906
360.552
358.313
356.179
354.141
352.192
350.323
348.527
346.8
345.135
343.527
341.972
340.467
339.007
337.591
336.215
334.877
333.575
332.308
331.072
329.868
328.693
327.547
326.428
325.336
324.27
323.229
322.211
321.218
320.248
319.3
318.374
317.47
316.587
315.725
314.884
314.063
313.262
312.48
311.718
310.975
310.251
309.546
308.859
308.191
307.54
306.908
306.293
305.695
305.116
304.553
304.007
303.478
302.966
302.47
301.99
301.527
301.08
300.649
300.233
299.833
299.449
299.08
298.726
298.388
298.064
297.755
297.461
297.181
296.916
296.665
296.429
296.207
295.999
295.805
295.624
295.458
295.305
295.167
295.041
294.93
294.832
294.747
294.676
294.618
294.573
294.542
294.524
294.52
398.147
394.464
390.827
387.268
383.81
380.471
377.26
374.183
371.242
368.435
365.756
363.199
360.757
358.422
356.187
354.044
351.986
350.008
348.102
346.263
344.487
342.769
341.105
339.492
337.925
336.404
334.924
333.484
332.081
330.715
329.382
328.082
326.814
325.576
324.367
323.186
322.033
320.907
319.806
318.731
317.681
316.655
315.652
314.673
313.717
312.783
311.872
310.982
310.114
309.267
308.441
307.636
306.851
306.087
305.342
304.617
303.912
303.226
302.559
301.912
301.283
300.672
300.08
299.507
298.951
298.413
297.893
297.391
296.906
296.438
295.987
295.554
295.137
294.736
294.353
293.985
293.634
293.299
292.98
292.676
292.389
292.117
291.86
291.619
291.394
291.183
290.988
290.807
290.641
290.491
290.355
290.234
290.127
290.035
289.958
289.895
289.847
289.813
289.794
289.789
398.197
394.609
391.059
387.571
384.166
380.857
377.657
374.571
371.602
368.751
366.013
363.386
360.865
358.443
356.115
353.875
351.717
349.635
347.625
345.681
343.799
341.976
340.207
338.489
336.82
335.196
333.615
332.075
330.575
329.111
327.684
326.29
324.93
323.602
322.304
321.036
319.798
318.588
317.405
316.249
315.12
314.016
312.938
311.885
310.856
309.851
308.87
307.913
306.978
306.066
305.177
304.31
303.465
302.642
301.84
301.059
300.3
299.561
298.843
298.145
297.467
296.81
296.172
295.554
294.955
294.376
293.816
293.274
292.752
292.248
291.762
291.295
290.845
290.414
290
289.604
289.226
288.864
288.521
288.194
287.884
287.591
287.314
287.054
286.811
286.584
286.373
286.179
286
285.838
285.691
285.561
285.446
285.347
285.264
285.196
285.144
285.107
285.086
285.081
398.234
394.717
391.231
387.795
384.428
381.141
377.946
374.849
371.854
368.961
366.171
363.48
360.886
358.384
355.97
353.639
351.386
349.207
347.098
345.054
343.072
341.147
339.278
337.46
335.69
333.968
332.289
330.652
329.056
327.498
325.978
324.493
323.042
321.625
320.24
318.887
317.564
316.272
315.008
313.773
312.565
311.385
310.232
309.106
308.005
306.93
305.88
304.855
303.855
302.879
301.927
300.999
300.094
299.213
298.354
297.518
296.705
295.913
295.144
294.397
293.671
292.966
292.283
291.621
290.98
290.359
289.759
289.179
288.619
288.078
287.558
287.057
286.576
286.113
285.67
285.246
284.84
284.453
284.085
283.734
283.402
283.088
282.792
282.513
282.252
282.009
281.783
281.575
281.383
281.209
281.052
280.912
280.789
280.683
280.594
280.521
280.465
280.426
280.404
280.398
398.26
394.795
391.354
387.955
384.613
381.34
378.145
375.033
372.011
369.079
366.239
363.489
360.827
358.25
355.756
353.339
350.998
348.728
346.525
344.386
342.307
340.286
338.319
336.404
334.538
332.72
330.946
329.215
327.525
325.876
324.264
322.69
321.151
319.647
318.176
316.739
315.333
313.959
312.616
311.302
310.018
308.762
307.535
306.336
305.165
304.02
302.903
301.811
300.746
299.707
298.693
297.704
296.74
295.8
294.885
293.995
293.128
292.284
291.465
290.668
289.894
289.144
288.415
287.709
287.026
286.364
285.724
285.105
284.508
283.932
283.377
282.843
282.33
281.837
281.364
280.912
280.479
280.067
279.674
279.3
278.946
278.611
278.295
277.998
277.72
277.46
277.219
276.997
276.793
276.607
276.44
276.29
276.159
276.046
275.951
275.873
275.814
275.772
275.748
275.742
398.278
394.848
391.437
388.062
384.735
381.467
378.266
375.137
372.087
369.117
366.229
363.422
360.696
358.049
355.479
352.982
350.557
348.2
345.907
343.677
341.507
339.392
337.332
335.324
333.365
331.453
329.587
327.764
325.984
324.244
322.544
320.882
319.256
317.667
316.113
314.592
313.105
311.651
310.229
308.838
307.478
306.149
304.849
303.578
302.337
301.123
299.939
298.782
297.652
296.55
295.474
294.425
293.403
292.406
291.436
290.49
289.571
288.676
287.806
286.96
286.139
285.342
284.569
283.82
283.094
282.392
281.712
281.056
280.422
279.811
279.222
278.655
278.11
277.586
277.084
276.604
276.145
275.706
275.289
274.892
274.516
274.16
273.825
273.509
273.214
272.939
272.683
272.447
272.23
272.033
271.855
271.696
271.557
271.437
271.335
271.253
271.19
271.146
271.12
271.113
398.29
394.88
391.488
388.126
384.804
381.534
378.321
375.172
372.092
369.084
366.149
363.288
360.501
357.787
355.145
352.572
350.067
347.626
345.249
342.932
340.672
338.469
336.318
334.22
332.17
330.168
328.212
326.301
324.432
322.605
320.817
319.069
317.359
315.686
314.05
312.448
310.881
309.349
307.849
306.382
304.947
303.544
302.173
300.832
299.521
298.24
296.989
295.767
294.574
293.409
292.273
291.165
290.084
289.031
288.005
287.006
286.034
285.088
284.169
283.275
282.407
281.564
280.747
279.955
279.187
278.445
277.726
277.032
276.362
275.715
275.092
274.492
273.916
273.362
272.831
272.323
271.838
271.374
270.932
270.513
270.115
269.739
269.384
269.05
268.738
268.446
268.175
267.926
267.696
267.488
267.3
267.132
266.984
266.857
266.75
266.663
266.596
266.549
266.522
266.515
398.295
394.896
391.511
388.152
384.829
381.549
378.32
375.148
372.036
368.989
366.008
363.094
360.248
357.47
354.759
352.113
349.531
347.011
344.552
342.151
339.807
337.517
335.28
333.094
330.957
328.867
326.824
324.826
322.871
320.958
319.086
317.254
315.461
313.706
311.988
310.307
308.662
307.052
305.476
303.934
302.426
300.951
299.508
298.098
296.719
295.371
294.054
292.768
291.512
290.286
289.09
287.923
286.785
285.676
284.596
283.544
282.52
281.523
280.554
279.613
278.698
277.811
276.949
276.115
275.306
274.523
273.766
273.034
272.328
271.647
270.99
270.358
269.75
269.167
268.607
268.072
267.56
267.071
266.605
266.163
265.744
265.347
264.973
264.621
264.292
263.984
263.699
263.436
263.194
262.974
262.776
262.599
262.443
262.309
262.196
262.104
262.034
261.984
261.956
261.948
398.296
394.898
391.511
388.148
384.815
381.521
378.272
375.072
371.927
368.84
365.813
362.847
359.944
357.104
354.326
351.609
348.954
346.358
343.82
341.338
338.912
336.539
334.218
331.947
329.725
327.551
325.423
323.34
321.301
319.304
317.35
315.436
313.561
311.726
309.929
308.17
306.448
304.762
303.111
301.496
299.915
298.369
296.856
295.377
293.931
292.517
291.136
289.787
288.469
287.182
285.927
284.702
283.507
282.343
281.209
280.104
279.028
277.982
276.965
275.976
275.015
274.083
273.178
272.301
271.452
270.629
269.834
269.065
268.323
267.607
266.917
266.253
265.614
265.001
264.413
263.85
263.312
262.799
262.31
261.845
261.404
260.987
260.594
260.224
259.878
259.555
259.255
258.978
258.724
258.493
258.284
258.098
257.935
257.794
257.675
257.579
257.504
257.452
257.422
257.414
398.293
394.888
391.492
388.118
384.77
381.456
378.182
374.952
371.772
368.644
365.57
362.553
359.594
356.693
353.85
351.066
348.339
345.669
343.055
340.496
337.99
335.537
333.134
330.781
328.477
326.221
324.01
321.845
319.724
317.646
315.61
313.616
311.662
309.748
307.874
306.038
304.24
302.479
300.755
299.067
297.416
295.799
294.218
292.671
291.159
289.68
288.235
286.823
285.444
284.098
282.784
281.502
280.251
279.032
277.845
276.688
275.561
274.466
273.4
272.364
271.358
270.382
269.434
268.515
267.625
266.764
265.93
265.125
264.347
263.597
262.874
262.178
261.509
260.867
260.251
259.661
259.097
258.559
258.046
257.559
257.097
256.66
256.248
255.86
255.497
255.159
254.845
254.554
254.288
254.046
253.827
253.632
253.461
253.313
253.189
253.087
253.01
252.955
252.924
252.915
398.286
394.867
391.457
388.065
384.697
381.359
378.057
374.795
371.577
368.406
365.286
362.218
359.203
356.243
353.337
350.487
347.691
344.95
342.262
339.627
337.044
334.513
332.031
329.599
327.215
324.878
322.587
320.341
318.14
315.983
313.868
311.795
309.764
307.773
305.823
303.911
302.039
300.205
298.409
296.65
294.928
293.243
291.594
289.981
288.403
286.86
285.352
283.879
282.44
281.034
279.662
278.324
277.018
275.745
274.505
273.296
272.12
270.975
269.862
268.78
267.729
266.709
265.719
264.759
263.829
262.928
262.058
261.216
260.403
259.619
258.863
258.136
257.437
256.765
256.121
255.505
254.915
254.353
253.817
253.307
252.824
252.368
251.937
251.532
251.152
250.798
250.47
250.166
249.888
249.635
249.406
249.202
249.023
248.868
248.738
248.632
248.551
248.494
248.461
248.452
398.277
394.839
391.408
387.994
384.601
381.235
377.901
374.604
371.347
368.133
364.965
361.846
358.776
355.757
352.79
349.875
347.012
344.201
341.442
338.734
336.077
333.469
330.911
328.401
325.939
323.524
321.155
318.831
316.552
314.317
312.125
309.975
307.868
305.802
303.776
301.791
299.846
297.94
296.073
294.245
292.454
290.701
288.985
287.307
285.665
284.059
282.489
280.955
279.456
277.992
276.563
275.169
273.809
272.483
271.19
269.931
268.705
267.512
266.352
265.224
264.129
263.065
262.033
261.032
260.063
259.124
258.216
257.339
256.491
255.674
254.886
254.127
253.398
252.698
252.026
251.383
250.768
250.182
249.623
249.092
248.588
248.111
247.662
247.239
246.844
246.474
246.132
245.815
245.525
245.26
245.022
244.809
244.622
244.461
244.325
244.215
244.13
244.07
244.036
244.027
398.265
394.803
391.347
387.906
384.484
381.087
377.719
374.384
371.086
367.828
364.613
361.442
358.318
355.241
352.213
349.235
346.306
343.427
340.599
337.819
335.089
332.408
329.775
327.19
324.652
322.161
319.715
317.315
314.96
312.649
310.381
308.157
305.975
303.835
301.737
299.679
297.662
295.686
293.749
291.852
289.994
288.174
286.393
284.65
282.944
281.276
279.646
278.052
276.494
274.973
273.488
272.038
270.624
269.246
267.902
266.593
265.318
264.078
262.871
261.698
260.559
259.452
258.379
257.338
256.329
255.352
254.408
253.495
252.613
251.762
250.942
250.153
249.394
248.666
247.967
247.298
246.658
246.047
245.465
244.913
244.388
243.892
243.425
242.985
242.573
242.189
241.832
241.502
241.2
240.925
240.677
240.455
240.261
240.093
239.951
239.836
239.748
239.686
239.65
239.64
398.251
394.761
391.276
387.804
384.351
380.919
377.514
374.14
370.8
367.496
364.232
361.01
357.831
354.697
351.61
348.569
345.576
342.631
339.734
336.885
334.085
331.331
328.626
325.967
323.355
320.79
318.27
315.795
313.366
310.98
308.639
306.341
304.086
301.874
299.704
297.576
295.489
293.443
291.438
289.473
287.548
285.663
283.818
282.011
280.243
278.514
276.823
275.17
273.555
271.978
270.437
268.933
267.466
266.036
264.641
263.283
261.96
260.672
259.42
258.202
257.019
255.871
254.756
253.675
252.628
251.614
250.633
249.685
248.77
247.886
247.035
246.215
245.427
244.67
243.944
243.249
242.585
241.95
241.346
240.772
240.227
239.712
239.226
238.769
238.341
237.942
237.571
237.229
236.915
236.629
236.371
236.141
235.939
235.765
235.618
235.498
235.406
235.342
235.305
235.294
398.235
394.713
391.196
387.691
384.202
380.734
377.29
373.875
370.49
367.14
363.827
360.553
357.32
354.13
350.983
347.882
344.825
341.815
338.852
335.935
333.065
330.242
327.465
324.735
322.051
319.412
316.82
314.272
311.77
309.312
306.899
304.529
302.203
299.92
297.679
295.481
293.326
291.212
289.14
287.109
285.119
283.169
281.26
279.392
277.563
275.773
274.023
272.312
270.64
269.007
267.412
265.855
264.335
262.854
261.409
260.002
258.632
257.298
256
254.739
253.513
252.322
251.167
250.047
248.962
247.911
246.894
245.911
244.962
244.047
243.164
242.314
241.497
240.713
239.96
239.239
238.55
237.893
237.266
236.671
236.106
235.572
235.068
234.594
234.151
233.737
233.352
232.997
232.672
232.375
232.108
231.869
231.659
231.478
231.326
231.202
231.106
231.04
231.001
230.99
398.218
394.661
391.109
387.567
384.041
380.534
377.049
373.591
370.161
366.764
363.401
360.075
356.788
353.541
350.337
347.174
344.056
340.982
337.953
334.97
332.032
329.14
326.294
323.494
320.739
318.03
315.367
312.748
310.175
307.646
305.162
302.722
300.326
297.973
295.664
293.398
291.175
288.994
286.856
284.76
282.706
280.693
278.722
276.792
274.903
273.054
271.246
269.478
267.75
266.062
264.413
262.803
261.233
259.701
258.207
256.752
255.334
253.955
252.612
251.307
250.039
248.808
247.613
246.454
245.331
244.244
243.192
242.175
241.192
240.245
239.331
238.452
237.606
236.794
236.015
235.269
234.556
233.875
233.227
232.611
232.026
231.473
230.951
230.461
230.002
229.573
229.175
228.808
228.47
228.163
227.886
227.639
227.422
227.235
227.077
226.949
226.85
226.78
226.74
226.729
398.199
394.605
391.015
387.435
383.869
380.321
376.794
373.291
369.815
366.37
362.957
359.579
356.238
352.935
349.672
346.451
343.271
340.134
337.042
333.993
330.989
328.03
325.116
322.247
319.423
316.645
313.912
311.224
308.581
305.983
303.43
300.921
298.456
296.035
293.659
291.326
289.037
286.791
284.588
282.428
280.311
278.237
276.204
274.214
272.265
270.359
268.493
266.669
264.886
263.144
261.442
259.78
258.159
256.577
255.035
253.532
252.069
250.644
249.258
247.91
246.6
245.328
244.094
242.897
241.737
240.613
239.526
238.476
237.461
236.482
235.538
234.629
233.755
232.916
232.111
231.34
230.603
229.9
229.23
228.593
227.988
227.417
226.878
226.371
225.896
225.453
225.041
224.662
224.313
223.996
223.709
223.454
223.229
223.036
222.872
222.74
222.638
222.566
222.524
222.513
398.18
394.546
390.916
387.296
383.688
380.097
376.526
372.978
369.455
365.961
362.497
359.067
355.672
352.313
348.993
345.712
342.472
339.274
336.118
333.006
329.937
326.912
323.931
320.995
318.104
315.258
312.457
309.701
306.99
304.324
301.703
299.127
296.595
294.108
291.665
289.267
286.913
284.603
282.337
280.114
277.935
275.799
273.707
271.658
269.651
267.687
265.765
263.886
262.049
260.253
258.499
256.787
255.115
253.485
251.895
250.346
248.836
247.367
245.938
244.548
243.197
241.885
240.612
239.377
238.18
237.021
235.9
234.816
233.769
232.759
231.785
230.847
229.946
229.08
228.249
227.454
226.693
225.967
225.275
224.618
223.994
223.404
222.848
222.325
221.835
221.377
220.953
220.561
220.201
219.873
219.578
219.314
219.082
218.882
218.714
218.577
218.471
218.397
218.354
218.342
398.159
394.484
390.812
387.15
383.499
379.864
376.248
372.653
369.082
365.539
362.024
358.542
355.092
351.678
348.301
344.962
341.663
338.404
335.186
332.01
328.878
325.788
322.742
319.741
316.784
313.871
311.004
308.181
305.403
302.671
299.983
297.341
294.744
292.191
289.684
287.222
284.804
282.431
280.102
277.818
275.579
273.383
271.232
269.124
267.06
265.04
263.063
261.13
259.239
257.391
255.586
253.823
252.103
250.424
248.787
247.192
245.638
244.125
242.653
241.221
239.83
238.479
237.167
235.895
234.662
233.469
232.313
231.196
230.118
229.077
228.073
227.107
226.178
225.286
224.43
223.61
222.826
222.078
221.365
220.687
220.045
219.437
218.863
218.324
217.819
217.347
216.91
216.506
216.135
215.797
215.492
215.22
214.981
214.775
214.601
214.46
214.351
214.275
214.231
214.218
398.138
394.42
390.705
386.998
383.303
379.623
375.96
372.318
368.699
365.106
361.54
358.005
354.502
351.033
347.599
344.202
340.844
337.525
334.246
331.009
327.813
324.66
321.551
318.485
315.463
312.486
309.553
306.665
303.822
301.024
298.272
295.565
292.903
290.287
287.716
285.191
282.711
280.276
277.887
275.542
273.243
270.989
268.779
266.615
264.495
262.419
260.388
258.401
256.458
254.559
252.703
250.891
249.122
247.396
245.713
244.073
242.475
240.919
239.404
237.932
236.501
235.111
233.761
232.453
231.184
229.956
228.767
227.618
226.508
225.437
224.404
223.41
222.454
221.535
220.655
219.811
219.004
218.234
217.5
216.803
216.141
215.515
214.925
214.37
213.85
213.364
212.914
212.498
212.116
211.768
211.455
211.175
210.929
210.716
210.537
210.392
210.28
210.201
210.155
210.142
398.116
394.354
390.594
386.843
383.102
379.376
375.666
371.976
368.307
364.664
361.047
357.459
353.902
350.378
346.888
343.434
340.018
336.639
333.301
330.002
326.745
323.53
320.358
317.229
314.144
311.103
308.106
305.154
302.247
299.386
296.57
293.799
291.075
288.396
285.763
283.176
280.635
278.139
275.69
273.286
270.929
268.617
266.351
264.13
261.955
259.825
257.74
255.701
253.706
251.757
249.851
247.991
246.174
244.402
242.673
240.988
239.347
237.749
236.193
234.68
233.21
231.782
230.395
229.05
227.747
226.485
225.263
224.082
222.941
221.84
220.779
219.757
218.774
217.83
216.924
216.057
215.228
214.436
213.682
212.965
212.284
211.641
211.034
210.463
209.928
209.429
208.966
208.538
208.146
207.788
207.465
207.178
206.925
206.706
206.522
206.372
206.257
206.176
206.129
206.116
398.093
394.286
390.481
386.683
382.896
379.123
375.365
371.626
367.909
364.214
360.546
356.906
353.295
349.716
346.171
342.66
339.186
335.749
332.351
328.993
325.676
322.4
319.166
315.975
312.827
309.724
306.664
303.65
300.68
297.756
294.878
292.046
289.259
286.519
283.825
281.177
278.576
276.022
273.513
271.052
268.637
266.268
263.946
261.671
259.441
257.258
255.121
253.03
250.985
248.986
247.032
245.124
243.26
241.442
239.669
237.94
236.256
234.616
233.02
231.467
229.958
228.492
227.07
225.689
224.351
223.056
221.802
220.589
219.418
218.288
217.198
216.149
215.139
214.17
213.24
212.35
211.498
210.685
209.91
209.174
208.476
207.815
207.191
206.605
206.056
205.543
205.068
204.628
204.225
203.858
203.526
203.231
202.971
202.746
202.557
202.403
202.285
202.201
202.153
202.139
398.07
394.216
390.365
386.521
382.687
378.865
375.06
371.272
367.504
363.759
360.039
356.346
352.682
349.049
345.448
341.882
338.351
334.856
331.4
327.983
324.606
321.27
317.975
314.723
311.515
308.35
305.229
302.153
299.123
296.137
293.198
290.305
287.458
284.657
281.903
279.196
276.537
273.924
271.358
268.84
266.368
263.944
261.568
259.238
256.956
254.72
252.532
250.39
248.295
246.247
244.245
242.29
240.381
238.518
236.701
234.929
233.203
231.522
229.886
228.294
226.747
225.244
223.785
222.37
220.998
219.67
218.384
217.14
215.939
214.78
213.662
212.586
211.551
210.557
209.603
208.69
207.816
206.982
206.188
205.432
204.716
204.038
203.398
202.797
202.233
201.707
201.219
200.768
200.355
199.978
199.638
199.334
199.067
198.837
198.643
198.485
198.363
198.278
198.228
198.214
398.046
394.146
390.247
386.356
382.474
378.605
374.75
370.913
367.095
363.299
359.528
355.782
352.065
348.378
344.723
341.1
337.513
333.962
330.448
326.973
323.537
320.142
316.788
313.476
310.208
306.983
303.802
300.666
297.575
294.529
291.53
288.577
285.671
282.812
279.999
277.234
274.517
271.847
269.225
266.651
264.124
261.646
259.215
256.833
254.498
252.211
249.972
247.781
245.637
243.541
241.493
239.491
237.537
235.63
233.769
231.956
230.188
228.467
226.791
225.161
223.577
222.038
220.543
219.094
217.689
216.328
215.01
213.736
212.506
211.318
210.173
209.071
208.01
206.991
206.014
205.078
204.183
203.328
202.514
201.74
201.005
200.311
199.655
199.039
198.461
197.923
197.422
196.96
196.536
196.149
195.801
195.49
195.216
194.98
194.781
194.619
194.494
194.407
194.356
194.341
398.023
394.075
390.129
386.189
382.259
378.341
374.438
370.551
366.683
362.836
359.013
355.215
351.445
347.704
343.995
340.318
336.675
333.067
329.496
325.964
322.47
319.017
315.605
312.235
308.907
305.623
302.383
299.188
296.038
292.934
289.876
286.865
283.9
280.983
278.113
275.292
272.518
269.792
267.114
264.485
261.905
259.373
256.89
254.455
252.07
249.732
247.444
245.204
243.012
240.869
238.775
236.728
234.73
232.779
230.876
229.021
227.212
225.451
223.737
222.07
220.449
218.874
217.345
215.861
214.423
213.03
211.682
210.378
209.119
207.903
206.731
205.603
204.517
203.474
202.474
201.516
200.599
199.724
198.891
198.098
197.346
196.635
195.964
195.333
194.741
194.189
193.677
193.204
192.769
192.374
192.017
191.698
191.418
191.176
190.972
190.807
190.679
190.589
190.536
190.521
397.999
394.003
390.009
386.021
382.043
378.076
374.123
370.186
366.268
362.371
358.496
354.646
350.824
347.03
343.266
339.535
335.837
332.174
328.547
324.958
321.408
317.897
314.428
311
307.615
304.273
300.975
297.722
294.514
291.352
288.237
285.168
282.147
279.173
276.247
273.369
270.54
267.759
265.028
262.345
259.712
257.127
254.592
252.107
249.671
247.284
244.947
242.66
240.421
238.232
236.092
234.001
231.959
229.966
228.021
226.125
224.277
222.477
220.725
219.02
217.363
215.753
214.19
212.673
211.203
209.779
208.4
207.067
205.779
204.536
203.338
202.183
201.073
200.007
198.983
198.003
197.066
196.171
195.318
194.507
193.738
193.011
192.324
191.679
191.074
190.509
189.985
189.501
189.056
188.651
188.286
187.96
187.674
187.426
187.217
187.048
186.917
186.825
186.771
186.756
397.975
393.931
389.888
385.852
381.825
377.809
373.807
369.82
365.852
361.904
357.978
354.077
350.202
346.355
342.538
338.753
335
331.283