/*--------------------------------*- C++ -*----------------------------------*\
| =========                 |                                                 |
| \\      /  F ield         | OpenFOAM: The Open Source CFD Toolbox           |
|  \\    /   O peration     | Version:  2406                                  |
|   \\  /    A nd           | Website:  www.openfoam.com                      |
|    \\/     M anipulation  |                                                 |
\*---------------------------------------------------------------------------*/
FoamFile
{
    version     2.0;
    format      ascii;
    arch        "LSB;label=32;scalar=64";
    class       volScalarField;
    location    "0.07";
    object      T;
}
// * * * * * * * * * * * * * * * * * * * * * * * * * * * * * * * * * * * * * //

dimensions      [0 0 0 1 0 0 0];

internalField   nonuniform List<scalar> 
12225
(
1.00694
1.00397
1.00144
1.00053
1.00001
0.99965
0.999457
0.99937
0.999324
0.999291
0.999266
0.999224
0.999139
0.998929
0.998402
0.99714
0.993807
0.986048
0.994965
0.99447
0.996349
0.997908
0.99867
0.998979
0.999136
0.99924
0.999303
0.999334
0.999342
0.999324
0.999252
0.999057
0.998551
0.997345
0.994326
0.987315
0.999592
0.99992
1
0.999967
0.999819
0.999637
0.999514
0.999449
0.99941
0.999379
0.999348
0.999305
0.99922
0.999023
0.998547
0.997435
0.994809
0.989205
1.00032
1.00007
0.999547
0.99942
0.999421
0.999388
0.999355
0.999341
0.999335
0.999325
0.999309
0.999277
0.999203
0.999027
0.998603
0.997632
0.995471
0.991166
1.00013
0.999833
0.999434
0.999387
0.999436
0.999423
0.999388
0.999365
0.999349
0.999332
0.99931
0.999275
0.999202
0.99904
0.998667
0.99785
0.996138
0.992943
0.999993
0.999846
0.999578
0.999496
0.999494
0.99946
0.999412
0.999376
0.99935
0.999326
0.999299
0.99926
0.999189
0.999044
0.998729
0.998068
0.996761
0.994456
0.999975
0.999925
0.999719
0.999592
0.999547
0.999499
0.999443
0.999399
0.999363
0.99933
0.999297
0.999253
0.999185
0.999057
0.998798
0.998283
0.997318
0.995695
0.999983
0.999963
0.999798
0.999661
0.999596
0.999539
0.999477
0.999423
0.999378
0.999338
0.999298
0.99925
0.999183
0.99907
0.998853
0.998445
0.997713
0.99652
0.999986
0.999973
0.99984
0.999706
0.999627
0.99956
0.999491
0.99943
0.999378
0.99933
0.999285
0.999234
0.999168
0.999066
0.998885
0.998559
0.997997
0.997107
0.999984
0.999963
0.999852
0.999723
0.999631
0.999554
0.999478
0.99941
0.999351
0.999297
0.999246
0.999192
0.999129
0.999038
0.998889
0.998638
0.998223
0.997582
0.99998
0.999942
0.99984
0.999715
0.999612
0.999524
0.999441
0.999366
0.9993
0.999241
0.999185
0.99913
0.999068
0.998988
0.998867
0.998679
0.998383
0.997943
0.999976
0.999921
0.999818
0.999694
0.999583
0.999486
0.999398
0.999317
0.999245
0.999181
0.999122
0.999065
0.999005
0.998934
0.998838
0.998701
0.998498
0.998207
0.999975
0.999912
0.999811
0.99969
0.999577
0.999476
0.999384
0.9993
0.999224
0.999157
0.999097
0.999039
0.99898
0.998918
0.998843
0.998744
0.998608
0.998424
0.999978
0.999919
0.999828
0.999717
0.99961
0.999512
0.999421
0.999338
0.999264
0.999197
0.999137
0.999082
0.999027
0.998973
0.998914
0.998843
0.998755
0.998642
0.999982
0.999936
0.999861
0.999769
0.999677
0.99959
0.999511
0.999438
0.99937
0.999309
0.999254
0.999206
0.99916
0.999116
0.999069
0.99902
0.998964
0.998898
0.999987
0.999957
0.999905
0.99984
0.999774
0.999712
0.999654
0.9996
0.999548
0.999503
0.999462
0.999426
0.999394
0.999362
0.99933
0.999299
0.999266
0.999231
0.999993
0.999986
0.999968
0.999941
0.999912
0.999886
0.999864
0.999841
0.99982
0.999801
0.999783
0.999768
0.999755
0.999744
0.999731
0.999717
0.999704
0.999691
1
1.00003
1.00005
1.00007
1.00009
1.00011
1.00013
1.00015
1.00017
1.00018
1.0002
1.00021
1.00022
1.00023
1.00024
1.00025
1.00025
1.00025
1.00001
1.00006
1.00011
1.00017
1.00022
1.00028
1.00034
1.00039
1.00043
1.00048
1.00051
1.00055
1.00058
1.0006
1.00063
1.00065
1.00067
1.00068
1.00001
1.00006
1.00012
1.00019
1.00026
1.00033
1.00039
1.00046
1.00052
1.00057
1.00062
1.00067
1.00071
1.00075
1.00078
1.00081
1.00084
1.00086
1.00001
1.00006
1.00012
1.00018
1.00025
1.00031
1.00038
1.00045
1.00051
1.00057
1.00062
1.00068
1.00072
1.00077
1.00081
1.00085
1.00088
1.00091
1.00001
1.00006
1.00012
1.00017
1.00023
1.0003
1.00036
1.00043
1.00049
1.00055
1.00061
1.00067
1.00072
1.00077
1.00081
1.00085
1.00089
1.00092
1
1.00008
1.00013
1.00016
1.00021
1.00027
1.00034
1.00041
1.00048
1.00054
1.0006
1.00066
1.00071
1.00076
1.00081
1.00085
1.00089
1.00093
0.999997
1.0001
1.00014
1.00015
1.00019
1.00026
1.00033
1.0004
1.00047
1.00054
1.00061
1.00067
1.00072
1.00077
1.00082
1.00086
1.00091
1.00094
1
1.00009
1.0001
1.00012
1.00019
1.00028
1.00035
1.00042
1.00049
1.00056
1.00063
1.00069
1.00074
1.00079
1.00084
1.00088
1.00093
1.00097
1.00014
1.00014
0.999953
0.999972
1.00014
1.00029
1.00039
1.00047
1.00055
1.00062
1.00068
1.00074
1.0008
1.00084
1.00089
1.00093
1.00097
1.00101
1.0005
1.00058
1.0001
0.999927
1.00003
1.00018
1.00031
1.00042
1.00053
1.00062
1.0007
1.00076
1.00082
1.00088
1.00093
1.00097
1.00102
1.00106
1.00004
1.00088
1.00115
1.00111
1.00099
1.00088
1.00081
1.0008
1.00082
1.00085
1.00088
1.00092
1.00096
1.00099
1.00103
1.00106
1.0011
1.00113
0.994517
0.993822
0.99606
0.998048
0.999185
0.99978
1.00015
1.0004
1.00059
1.00072
1.00083
1.00091
1.00098
1.00104
1.00109
1.00114
1.00118
1.00121
1.00648
1.00454
1.00223
1.0015
1.00119
1.00097
1.00088
1.00087
1.00089
1.00092
1.00096
1.00099
1.00103
1.00107
1.0011
1.00114
1.00117
1.00122
0.652689
0.652681
0.652624
0.652541
0.652446
0.652335
0.652205
0.652058
0.651898
0.651724
0.651539
0.651342
0.651135
0.650917
0.650692
0.650459
0.650221
0.64998
0.649737
0.649495
0.649257
0.649023
0.648798
0.648582
0.648378
0.648189
0.648015
0.647857
0.647713
0.647588
0.647493
0.647453
0.647534
0.64785
0.648184
0.648375
0.648589
0.648784
0.648979
0.649182
0.649369
0.649615
0.649956
0.650288
0.650664
0.651126
0.651614
0.652137
0.652696
0.653287
0.653909
0.65456
0.655239
0.655945
0.656675
0.657429
0.658205
0.659003
0.659819
0.660654
0.661506
0.662372
0.663253
0.664147
0.665052
0.665967
0.666891
0.667822
0.66876
0.669703
0.670649
0.671599
0.672551
0.673504
0.674457
0.675409
0.676359
0.677306
0.67825
0.67919
0.680126
0.681056
0.68198
0.682898
0.683809
0.684712
0.685607
0.686494
0.687373
0.688242
0.689103
0.689954
0.690795
0.691625
0.692445
0.693253
0.694047
0.694827
0.695598
0.696359
0.697108
0.697845
0.69857
0.699281
0.69998
0.700665
0.701336
0.701994
0.702638
0.703267
0.703883
0.704484
0.70507
0.705641
0.706198
0.706738
0.707264
0.707773
0.708267
0.708744
0.709204
0.709648
0.710073
0.71048
0.710869
0.71124
0.711591
0.711925
0.712239
0.712534
0.71281
0.713066
0.713303
0.713519
0.713716
0.713892
0.714048
0.714182
0.714296
0.714388
0.71446
0.714509
0.714535
0.714538
0.714517
0.714472
0.714403
0.71431
0.714191
0.714047
0.713877
0.713682
0.71346
0.713212
0.712937
0.712636
0.712308
0.711952
0.71157
0.711159
0.71072
0.710251
0.709746
0.709192
0.708593
0.707962
0.707304
0.706621
0.705912
0.705176
0.704413
0.703623
0.702804
0.701955
0.701077
0.700162
0.699234
0.698188
0.697371
0.695443
0.6536
0.653581
0.653546
0.653485
0.653408
0.653314
0.653202
0.65307
0.652918
0.652746
0.652558
0.652355
0.65214
0.651915
0.651683
0.651446
0.651205
0.650962
0.650721
0.650482
0.65025
0.650026
0.649815
0.649619
0.649445
0.649296
0.649179
0.649097
0.649056
0.649058
0.649096
0.649156
0.64922
0.649129
0.648962
0.648954
0.649035
0.649196
0.649422
0.64969
0.650016
0.650364
0.650694
0.651085
0.651539
0.651998
0.652485
0.653002
0.653552
0.654134
0.654747
0.65539
0.656061
0.656758
0.657481
0.658227
0.658995
0.659785
0.660594
0.661421
0.662265
0.663125
0.663999
0.664885
0.665783
0.666691
0.667607
0.668532
0.669462
0.670398
0.671338
0.672282
0.673227
0.674173
0.67512
0.676065
0.677009
0.67795
0.678888
0.679822
0.680752
0.681676
0.682594
0.683506
0.684411
0.685309
0.686198
0.687079
0.687952
0.688815
0.689669
0.690514
0.691348
0.692172
0.692985
0.693788
0.694581
0.695365
0.696136
0.696893
0.697637
0.698368
0.699086
0.699792
0.700484
0.701162
0.701826
0.702477
0.703114
0.703737
0.704345
0.704938
0.705517
0.706081
0.706629
0.707162
0.70768
0.708181
0.708666
0.709134
0.709586
0.71002
0.710437
0.710835
0.711214
0.711575
0.711917
0.71224
0.712545
0.71283
0.713095
0.713341
0.713567
0.713772
0.713957
0.714122
0.714266
0.714388
0.71449
0.71457
0.714629
0.714665
0.714678
0.714667
0.714633
0.714574
0.71449
0.714382
0.714248
0.714089
0.713904
0.713692
0.713454
0.71319
0.712898
0.71258
0.712234
0.71186
0.711459
0.71103
0.710572
0.710084
0.709568
0.709027
0.708459
0.707861
0.707234
0.706579
0.705896
0.705185
0.704447
0.703679
0.702882
0.702056
0.701199
0.700309
0.699402
0.698402
0.697547
0.696
0.655512
0.655449
0.655394
0.655326
0.65524
0.655133
0.655004
0.654855
0.654688
0.654502
0.654301
0.654086
0.653859
0.653622
0.653378
0.653128
0.652875
0.652622
0.652369
0.652121
0.651879
0.651646
0.651426
0.651221
0.651034
0.650867
0.650722
0.650599
0.650497
0.650415
0.650354
0.650317
0.65031
0.650318
0.650343
0.650409
0.650509
0.650653
0.650843
0.651079
0.651368
0.651706
0.652082
0.652491
0.652926
0.653383
0.65387
0.654386
0.654932
0.655509
0.656115
0.65675
0.657412
0.6581
0.658813
0.65955
0.660309
0.66109
0.66189
0.662708
0.663543
0.664394
0.665259
0.666137
0.667027
0.667928
0.668837
0.669754
0.670679
0.671608
0.672542
0.67348
0.67442
0.675362
0.676304
0.677245
0.678186
0.679124
0.680059
0.680991
0.681918
0.68284
0.683757
0.684668
0.685572
0.686469
0.687358
0.68824
0.689113
0.689977
0.690833
0.691678
0.692514
0.69334
0.694155
0.694959
0.695752
0.696534
0.697305
0.698063
0.69881
0.699543
0.700264
0.700973
0.701667
0.702349
0.703016
0.70367
0.70431
0.704936
0.705548
0.706144
0.706726
0.707293
0.707844
0.70838
0.7089
0.709404
0.709892
0.710363
0.710817
0.711254
0.711672
0.712072
0.712454
0.712816
0.71316
0.713485
0.71379
0.714076
0.714342
0.714589
0.714815
0.71502
0.715205
0.715369
0.715512
0.715634
0.715734
0.715813
0.715869
0.715903
0.715913
0.715899
0.715861
0.715799
0.715711
0.715598
0.71546
0.715295
0.715105
0.714888
0.714644
0.714373
0.714075
0.713749
0.713396
0.713015
0.712606
0.71217
0.711705
0.711211
0.710691
0.710148
0.709582
0.708988
0.708365
0.707713
0.707034
0.706327
0.70559
0.704825
0.704031
0.703206
0.70235
0.70146
0.700547
0.699552
0.698659
0.697326
0.658366
0.658262
0.658179
0.658094
0.65799
0.657862
0.657713
0.657544
0.657356
0.657151
0.656932
0.656699
0.656454
0.6562
0.655939
0.655674
0.655405
0.655136
0.654868
0.654605
0.654349
0.654103
0.653868
0.653647
0.653443
0.653258
0.653092
0.652947
0.652825
0.652727
0.652656
0.652614
0.652604
0.652617
0.652657
0.652733
0.652844
0.65299
0.653172
0.653392
0.653652
0.65395
0.654285
0.654657
0.655064
0.655502
0.655972
0.656474
0.657006
0.657568
0.658159
0.658778
0.659424
0.660097
0.660794
0.661515
0.662259
0.663024
0.663809
0.664612
0.665432
0.666269
0.66712
0.667985
0.668862
0.66975
0.670648
0.671554
0.672468
0.673387
0.674312
0.675241
0.676173
0.677107
0.678042
0.678977
0.679912
0.680845
0.681777
0.682705
0.683629
0.684549
0.685464
0.686374
0.687278
0.688175
0.689065
0.689947
0.690822
0.691689
0.692547
0.693396
0.694235
0.695065
0.695885
0.696694
0.697492
0.69828
0.699056
0.69982
0.700573
0.701313
0.702041
0.702756
0.703458
0.704146
0.704822
0.705483
0.706131
0.706765
0.707384
0.707989
0.708578
0.709153
0.709713
0.710257
0.710785
0.711297
0.711793
0.712271
0.712733
0.713177
0.713603
0.71401
0.714398
0.714768
0.715118
0.71545
0.715761
0.716053
0.716325
0.716577
0.716808
0.717018
0.717208
0.717376
0.717522
0.717648
0.717751
0.717832
0.71789
0.717925
0.717937
0.717924
0.717886
0.717824
0.717736
0.717622
0.717482
0.717316
0.717124
0.716904
0.716657
0.716384
0.716082
0.715753
0.715396
0.715011
0.714598
0.714157
0.713688
0.713191
0.712667
0.712118
0.711544
0.710943
0.710313
0.709656
0.708971
0.708257
0.707515
0.706743
0.705943
0.705111
0.704247
0.703348
0.702419
0.701415
0.700489
0.699243
0.662132
0.661987
0.661879
0.661778
0.661657
0.661509
0.661339
0.661147
0.660936
0.660708
0.660465
0.660209
0.659941
0.659664
0.659381
0.659092
0.658802
0.658511
0.658222
0.657938
0.657661
0.657394
0.657138
0.656896
0.656671
0.656464
0.656277
0.656113
0.655973
0.655859
0.655773
0.655716
0.655689
0.65569
0.655721
0.655785
0.655884
0.656018
0.656187
0.656393
0.656634
0.656911
0.657223
0.657571
0.657953
0.658369
0.658817
0.659297
0.659808
0.660349
0.660919
0.661517
0.662142
0.662794
0.66347
0.66417
0.664893
0.665638
0.666402
0.667186
0.667987
0.668805
0.669638
0.670486
0.671346
0.672217
0.6731
0.673991
0.67489
0.675796
0.676709
0.677626
0.678547
0.679471
0.680397
0.681324
0.682251
0.683177
0.684102
0.685025
0.685945
0.686862
0.687774
0.688681
0.689584
0.69048
0.69137
0.692253
0.693129
0.693998
0.694858
0.69571
0.696553
0.697387
0.698211
0.699025
0.69983
0.700623
0.701405
0.702176
0.702936
0.703684
0.704419
0.705142
0.705853
0.70655
0.707234
0.707904
0.708561
0.709204
0.709833
0.710447
0.711047
0.711631
0.7122
0.712754
0.713292
0.713813
0.714318
0.714806
0.715277
0.71573
0.716165
0.716581
0.716978
0.717355
0.717714
0.718053
0.718372
0.718671
0.718949
0.719207
0.719444
0.71966
0.719855
0.720028
0.720179
0.720308
0.720415
0.720499
0.720559
0.720596
0.720609
0.720597
0.72056
0.720497
0.720408
0.720294
0.720152
0.719984
0.719789
0.719567
0.719317
0.71904
0.718734
0.718401
0.718039
0.717649
0.717231
0.716784
0.716309
0.715806
0.715276
0.71472
0.714137
0.713527
0.712889
0.712223
0.71153
0.710808
0.710058
0.709279
0.70847
0.707629
0.706756
0.705846
0.704903
0.703887
0.702938
0.701705
0.666819
0.666644
0.666514
0.666397
0.666258
0.66609
0.665897
0.665681
0.665445
0.66519
0.664921
0.664637
0.664342
0.664038
0.663728
0.663412
0.663095
0.662778
0.662464
0.662154
0.661852
0.66156
0.66128
0.661014
0.660765
0.660535
0.660325
0.66014
0.659979
0.659845
0.659739
0.659662
0.659614
0.659597
0.65961
0.659656
0.659735
0.65985
0.659999
0.660183
0.660402
0.660657
0.660946
0.66127
0.661627
0.662017
0.662439
0.662892
0.663377
0.663891
0.664434
0.665006
0.665605
0.666229
0.666879
0.667553
0.66825
0.668969
0.669708
0.670467
0.671244
0.672038
0.672848
0.673673
0.674511
0.675362
0.676224
0.677096
0.677977
0.678865
0.679761
0.680662
0.681569
0.682479
0.683392
0.684307
0.685224
0.68614
0.687056
0.687971
0.688884
0.689795
0.690702
0.691605
0.692504
0.693397
0.694286
0.695168
0.696044
0.696913
0.697774
0.698628
0.699474
0.700311
0.701139
0.701957
0.702766
0.703565
0.704353
0.705131
0.705897
0.706652
0.707396
0.708127
0.708845
0.709551
0.710244
0.710924
0.71159
0.712243
0.712882
0.713506
0.714115
0.71471
0.715289
0.715853
0.7164
0.716932
0.717447
0.717945
0.718425
0.718888
0.719332
0.719757
0.720162
0.720549
0.720916
0.721262
0.721589
0.721896
0.722181
0.722446
0.722689
0.72291
0.72311
0.723288
0.723443
0.723576
0.723686
0.723772
0.723835
0.723873
0.723887
0.723875
0.723837
0.723774
0.723684
0.723567
0.723423
0.723252
0.723054
0.722827
0.722573
0.722291
0.72198
0.721641
0.721273
0.720876
0.720451
0.719997
0.719515
0.719004
0.718466
0.717901
0.717309
0.716689
0.716042
0.715367
0.714664
0.713934
0.713174
0.712386
0.711568
0.710718
0.709835
0.708913
0.707957
0.706929
0.70596
0.704703
0.67245
0.672256
0.67211
0.671976
0.671818
0.671628
0.67141
0.671169
0.670906
0.670623
0.670324
0.670011
0.669686
0.669352
0.669011
0.668666
0.668319
0.667972
0.667628
0.66729
0.66696
0.66664
0.666333
0.666041
0.665766
0.665511
0.665277
0.665067
0.664882
0.664724
0.664594
0.664493
0.664421
0.66438
0.66437
0.664393
0.664449
0.664538
0.664662
0.66482
0.665012
0.665239
0.665499
0.665794
0.666121
0.66648
0.666871
0.667293
0.667746
0.668228
0.668739
0.669278
0.669844
0.670437
0.671054
0.671696
0.672361
0.673049
0.673757
0.674485
0.675232
0.675997
0.676779
0.677576
0.678387
0.679212
0.680048
0.680896
0.681754
0.68262
0.683495
0.684376
0.685263
0.686155
0.687051
0.687951
0.688852
0.689755
0.690658
0.691562
0.692464
0.693365
0.694264
0.69516
0.696052
0.69694
0.697824
0.698703
0.699576
0.700443
0.701304
0.702157
0.703003
0.703842
0.704672
0.705493
0.706305
0.707108
0.707901
0.708684
0.709456
0.710217
0.710967
0.711705
0.712431
0.713145
0.713846
0.714534
0.715209
0.715871
0.716519
0.717153
0.717772
0.718376
0.718965
0.719538
0.720096
0.720637
0.721162
0.721669
0.722159
0.722631
0.723084
0.723518
0.723932
0.724327
0.724702
0.725057
0.725391
0.725705
0.725997
0.726268
0.726517
0.726744
0.726948
0.72713
0.72729
0.727426
0.727538
0.727627
0.727691
0.72773
0.727744
0.727731
0.727693
0.727628
0.727536
0.727416
0.727269
0.727094
0.726891
0.72666
0.7264
0.726111
0.725794
0.725448
0.725072
0.724668
0.724234
0.723772
0.723281
0.722761
0.722214
0.721639
0.721036
0.720406
0.719748
0.719063
0.71835
0.717609
0.71684
0.716041
0.715213
0.714353
0.713459
0.712526
0.711557
0.710515
0.709526
0.70823
0.679065
0.678859
0.678698
0.678547
0.678368
0.678156
0.677913
0.677645
0.677353
0.677041
0.676711
0.676366
0.676009
0.675643
0.675269
0.674891
0.674512
0.674133
0.673758
0.673389
0.673029
0.672679
0.672342
0.672021
0.671718
0.671435
0.671173
0.670936
0.670723
0.670538
0.67038
0.670251
0.670152
0.670083
0.670045
0.670039
0.670065
0.670125
0.670218
0.670344
0.670505
0.670698
0.670925
0.671184
0.671476
0.671799
0.672154
0.672539
0.672954
0.673398
0.673871
0.674372
0.6749
0.675454
0.676034
0.676638
0.677265
0.677915
0.678586
0.679278
0.67999
0.680719
0.681466
0.68223
0.683008
0.683801
0.684607
0.685424
0.686253
0.687092
0.687939
0.688795
0.689658
0.690527
0.691401
0.692279
0.693161
0.694045
0.694931
0.695818
0.696706
0.697593
0.698479
0.699363
0.700245
0.701124
0.701999
0.702871
0.703738
0.704599
0.705455
0.706305
0.707149
0.707985
0.708814
0.709636
0.710448
0.711253
0.712048
0.712833
0.713608
0.714374
0.715128
0.715871
0.716603
0.717323
0.71803
0.718725
0.719407
0.720077
0.720732
0.721374
0.722001
0.722613
0.723211
0.723793
0.724359
0.724909
0.725442
0.725958
0.726457
0.726937
0.727398
0.72784
0.728262
0.728665
0.729047
0.729409
0.72975
0.73007
0.730368
0.730645
0.730899
0.73113
0.731339
0.731525
0.731687
0.731825
0.73194
0.73203
0.732094
0.732134
0.732147
0.732133
0.732093
0.732026
0.73193
0.731807
0.731656
0.731476
0.731268
0.73103
0.730764
0.730468
0.730143
0.729789
0.729405
0.728992
0.728549
0.728077
0.727576
0.727046
0.726488
0.725902
0.725288
0.724646
0.723977
0.72328
0.722556
0.721803
0.721023
0.720214
0.719375
0.718504
0.7176
0.716655
0.715673
0.714618
0.713608
0.71227
0.686711
0.686495
0.68632
0.68615
0.68595
0.685714
0.685445
0.685149
0.684828
0.684485
0.684123
0.683745
0.683354
0.682954
0.682546
0.682134
0.68172
0.681308
0.680899
0.680497
0.680104
0.679722
0.679353
0.679001
0.678667
0.678353
0.67806
0.677792
0.677549
0.677332
0.677143
0.676982
0.67685
0.676749
0.676678
0.676638
0.676631
0.676655
0.676713
0.676802
0.676925
0.67708
0.677267
0.677486
0.677737
0.678018
0.67833
0.678672
0.679044
0.679445
0.679874
0.68033
0.680814
0.681323
0.681859
0.682418
0.683001
0.683608
0.684236
0.684884
0.685553
0.686242
0.686948
0.687671
0.68841
0.689164
0.689933
0.690714
0.691507
0.692312
0.693126
0.69395
0.694782
0.695622
0.696468
0.697319
0.698175
0.699035
0.699898
0.700763
0.70163
0.702497
0.703365
0.704233
0.705099
0.705963
0.706825
0.707684
0.70854
0.709391
0.710238
0.71108
0.711917
0.712747
0.713571
0.714388
0.715197
0.715999
0.716792
0.717577
0.718352
0.719117
0.719873
0.720618
0.721351
0.722074
0.722785
0.723484
0.724171
0.724844
0.725505
0.726152
0.726785
0.727403
0.728007
0.728595
0.729168
0.729724
0.730264
0.730787
0.731292
0.731778
0.732246
0.732694
0.733123
0.733531
0.73392
0.734287
0.734634
0.734958
0.735261
0.735541
0.735799
0.736034
0.736246
0.736434
0.736598
0.736738
0.736853
0.736943
0.737008
0.737046
0.737057
0.737042
0.736999
0.736928
0.736828
0.7367
0.736544
0.736358
0.736143
0.735899
0.735625
0.735322
0.734988
0.734625
0.734232
0.733808
0.733355
0.732873
0.732361
0.73182
0.73125
0.730652
0.730026
0.729372
0.72869
0.727981
0.727245
0.726481
0.725688
0.724868
0.724018
0.723136
0.722221
0.721266
0.720273
0.719204
0.718176
0.716796
0.695436
0.695213
0.695023
0.694833
0.69461
0.694349
0.694054
0.693729
0.693377
0.693002
0.692607
0.692195
0.691769
0.691333
0.690889
0.690441
0.689992
0.689544
0.6891
0.688662
0.688234
0.687817
0.687415
0.687028
0.68666
0.686312
0.685986
0.685683
0.685406
0.685154
0.684929
0.684733
0.684565
0.684426
0.684318
0.68424
0.684193
0.684177
0.684193
0.684241
0.68432
0.68443
0.684572
0.684745
0.684949
0.685182
0.685446
0.685739
0.686061
0.686412
0.68679
0.687196
0.687629
0.688087
0.688571
0.68908
0.689612
0.690167
0.690745
0.691344
0.691964
0.692603
0.693261
0.693937
0.694629
0.695338
0.696062
0.696799
0.69755
0.698313
0.699088
0.699872
0.700666
0.701469
0.70228
0.703097
0.70392
0.704748
0.705581
0.706418
0.707257
0.708098
0.708941
0.709785
0.710629
0.711472
0.712314
0.713155
0.713993
0.714828
0.71566
0.716488
0.717312
0.718131
0.718944
0.719751
0.720552
0.721345
0.722132
0.72291
0.72368
0.724441
0.725193
0.725935
0.726667
0.727388
0.728098
0.728797
0.729484
0.730158
0.73082
0.731468
0.732103
0.732724
0.73333
0.733922
0.734497
0.735057
0.735601
0.736127
0.736635
0.737126
0.737597
0.738049
0.738482
0.738894
0.739286
0.739657
0.740006
0.740333
0.740639
0.740921
0.741181
0.741418
0.74163
0.741819
0.741983
0.742123
0.742238
0.742326
0.742389
0.742425
0.742433
0.742414
0.742367
0.742291
0.742187
0.742053
0.74189
0.741698
0.741476
0.741223
0.740941
0.740628
0.740285
0.739912
0.739509
0.739075
0.738611
0.738117
0.737594
0.737041
0.736458
0.735848
0.735209
0.734542
0.733848
0.733126
0.732377
0.7316
0.730796
0.729964
0.729103
0.728211
0.727285
0.726321
0.725318
0.724237
0.723193
0.721775
0.705299
0.705068
0.704863
0.704651
0.704404
0.704117
0.703793
0.703437
0.703054
0.702645
0.702215
0.701768
0.701306
0.700833
0.700352
0.699866
0.699379
0.698893
0.698411
0.697937
0.697471
0.697017
0.696578
0.696155
0.69575
0.695364
0.695001
0.694661
0.694344
0.694054
0.69379
0.693553
0.693344
0.693164
0.693013
0.692891
0.6928
0.692738
0.692707
0.692707
0.692737
0.692797
0.692888
0.693008
0.693159
0.693339
0.693547
0.693785
0.694051
0.694345
0.694666
0.695014
0.695388
0.695789
0.696214
0.696664
0.697138
0.697635
0.698155
0.698697
0.699259
0.699842
0.700444
0.701064
0.701703
0.702358
0.703029
0.703714
0.704415
0.705128
0.705854
0.706591
0.707339
0.708097
0.708863
0.709638
0.71042
0.711209
0.712003
0.712803
0.713607
0.714414
0.715224
0.716036
0.71685
0.717664
0.718479
0.719293
0.720106
0.720918
0.721728
0.722534
0.723338
0.724138
0.724934
0.725724
0.72651
0.727289
0.728062
0.728828
0.729587
0.730337
0.731079
0.731813
0.732537
0.733251
0.733954
0.734647
0.735329
0.735999
0.736657
0.737302
0.737934
0.738553
0.739157
0.739747
0.740322
0.740881
0.741424
0.74195
0.742458
0.742948
0.74342
0.743872
0.744305
0.744718
0.74511
0.745481
0.745831
0.746158
0.746463
0.746745
0.747005
0.74724
0.747451
0.747639
0.747801
0.747939
0.74805
0.748136
0.748195
0.748226
0.74823
0.748206
0.748153
0.748071
0.74796
0.74782
0.747649
0.747449
0.747218
0.746957
0.746666
0.746343
0.74599
0.745606
0.745192
0.744747
0.744271
0.743765
0.743229
0.742664
0.742069
0.741445
0.740793
0.740114
0.739406
0.738671
0.73791
0.737121
0.736305
0.735461
0.73459
0.733687
0.732752
0.731779
0.730768
0.729678
0.72862
0.727172
0.716361
0.716123
0.7159
0.715665
0.715391
0.715075
0.714722
0.714334
0.713916
0.713472
0.713006
0.71252
0.71202
0.711508
0.710987
0.710462
0.709935
0.709409
0.708887
0.708373
0.707867
0.707374
0.706894
0.706431
0.705986
0.70556
0.705155
0.704773
0.704415
0.704081
0.703773
0.703492
0.703237
0.70301
0.702811
0.702641
0.702499
0.702386
0.702303
0.702248
0.702223
0.702227
0.70226
0.702322
0.702413
0.702532
0.702679
0.702854
0.703057
0.703286
0.703543
0.703826
0.704135
0.704469
0.704829
0.705213
0.70562
0.706051
0.706505
0.706981
0.707478
0.707995
0.708533
0.709089
0.709664
0.710256
0.710866
0.711491
0.712131
0.712785
0.713453
0.714134
0.714826
0.715529
0.716243
0.716966
0.717698
0.718438
0.719184
0.719937
0.720696
0.72146
0.722228
0.722999
0.723773
0.72455
0.725328
0.726107
0.726887
0.727666
0.728444
0.729222
0.729997
0.73077
0.731539
0.732305
0.733067
0.733824
0.734576
0.735322
0.736062
0.736795
0.73752
0.738237
0.738946
0.739647
0.740337
0.741018
0.741688
0.742348
0.742996
0.743631
0.744255
0.744865
0.745462
0.746045
0.746614
0.747167
0.747704
0.748225
0.748728
0.749214
0.749681
0.750129
0.750558
0.750967
0.751356
0.751723
0.752069
0.752393
0.752695
0.752973
0.753228
0.75346
0.753667
0.75385
0.754008
0.754141
0.754247
0.754327
0.75438
0.754406
0.754403
0.754372
0.754312
0.754223
0.754103
0.753954
0.753775
0.753566
0.753326
0.753054
0.752752
0.752419
0.752055
0.75166
0.751234
0.750777
0.750289
0.74977
0.749222
0.748644
0.748036
0.747399
0.746734
0.746041
0.745321
0.744573
0.743799
0.742998
0.742171
0.741316
0.740434
0.739523
0.73858
0.7376
0.736583
0.735486
0.734419
0.732947
0.728693
0.728445
0.728203
0.727941
0.727639
0.727291
0.726904
0.726481
0.726026
0.725543
0.725037
0.724511
0.723969
0.723415
0.722852
0.722283
0.721713
0.721145
0.72058
0.720022
0.719474
0.718937
0.718414
0.717907
0.717418
0.716948
0.716498
0.71607
0.715665
0.715284
0.714928
0.714596
0.714291
0.714012
0.71376
0.713535
0.713337
0.713167
0.713024
0.71291
0.712823
0.712764
0.712733
0.712729
0.712753
0.712804
0.712882
0.712988
0.71312
0.713278
0.713462
0.713672
0.713907
0.714168
0.714453
0.714762
0.715095
0.71545
0.715829
0.71623
0.716652
0.717095
0.717559
0.718042
0.718543
0.719063
0.719601
0.720155
0.720725
0.72131
0.72191
0.722524
0.72315
0.723789
0.724439
0.7251
0.72577
0.72645
0.727139
0.727835
0.728538
0.729248
0.729963
0.730683
0.731408
0.732136
0.732867
0.733601
0.734337
0.735074
0.735811
0.736549
0.737286
0.738022
0.738756
0.739488
0.740218
0.740943
0.741665
0.742382
0.743094
0.743801
0.744501
0.745194
0.74588
0.746558
0.747228
0.747889
0.74854
0.749181
0.749812
0.750431
0.751039
0.751635
0.752218
0.752788
0.753343
0.753884
0.75441
0.754919
0.755412
0.755887
0.756345
0.756784
0.757204
0.757605
0.757985
0.758344
0.758683
0.758999
0.759293
0.759564
0.759811
0.760035
0.760235
0.76041
0.760561
0.760685
0.760784
0.760856
0.7609
0.760917
0.760906
0.760866
0.760797
0.760698
0.760569
0.76041
0.760221
0.76
0.759749
0.759467
0.759154
0.758809
0.758433
0.758026
0.757588
0.757118
0.756618
0.756087
0.755525
0.754934
0.754313
0.753664
0.752986
0.75228
0.751547
0.750787
0.750001
0.749188
0.74835
0.747485
0.746594
0.745675
0.744726
0.74374
0.742719
0.741619
0.740548
0.739058
0.742372
0.742112
0.741846
0.741555
0.741218
0.740835
0.740409
0.739945
0.739448
0.738922
0.738371
0.737799
0.737211
0.736609
0.735999
0.735384
0.734767
0.734151
0.73354
0.732935
0.73234
0.731756
0.731186
0.730631
0.730094
0.729575
0.729075
0.728597
0.728141
0.727707
0.727297
0.726911
0.726549
0.726212
0.725901
0.725615
0.725355
0.725121
0.724913
0.724732
0.724576
0.724447
0.724344
0.724268
0.724217
0.724193
0.724195
0.724222
0.724275
0.724353
0.724456
0.724585
0.724738
0.724915
0.725116
0.725342
0.72559
0.725861
0.726155
0.726471
0.726809
0.727167
0.727546
0.727945
0.728364
0.7288
0.729255
0.729728
0.730217
0.730722
0.731242
0.731777
0.732327
0.732889
0.733464
0.734051
0.734649
0.735258
0.735876
0.736504
0.73714
0.737784
0.738435
0.739092
0.739756
0.740424
0.741098
0.741775
0.742455
0.743139
0.743824
0.744511
0.7452
0.745888
0.746577
0.747264
0.74795
0.748634
0.749316
0.749994
0.750669
0.751339
0.752005
0.752664
0.753318
0.753965
0.754605
0.755237
0.755861
0.756476
0.757081
0.757676
0.758261
0.758834
0.759395
0.759944
0.76048
0.761002
0.761509
0.762001
0.762476
0.762936
0.763378
0.763802
0.764207
0.764593
0.76496
0.765306
0.765631
0.765935
0.766217
0.766475
0.766711
0.766924
0.767112
0.767276
0.767415
0.767529
0.767616
0.767677
0.76771
0.767716
0.767693
0.767642
0.767561
0.76745
0.76731
0.767139
0.766938
0.766706
0.766443
0.766149
0.765823
0.765466
0.765077
0.764657
0.764206
0.763724
0.763211
0.762667
0.762093
0.761489
0.760855
0.760193
0.759502
0.758784
0.758038
0.757267
0.756469
0.755646
0.754798
0.753924
0.753025
0.7521
0.751145
0.750157
0.749135
0.748035
0.746963
0.745465
0.757484
0.757207
0.756913
0.756586
0.756209
0.755783
0.755311
0.754799
0.754251
0.753673
0.753069
0.752444
0.751802
0.751147
0.750483
0.749815
0.749145
0.748477
0.747813
0.747156
0.746509
0.745873
0.745251
0.744644
0.744054
0.743481
0.742928
0.742394
0.741881
0.74139
0.74092
0.740473
0.740049
0.739648
0.739271
0.738918
0.738588
0.738283
0.738003
0.737746
0.737515
0.737308
0.737125
0.736967
0.736834
0.736726
0.736642
0.736582
0.736547
0.736536
0.73655
0.736587
0.736648
0.736733
0.736841
0.736972
0.737126
0.737302
0.737501
0.737722
0.737964
0.738227
0.73851
0.738814
0.739137
0.739479
0.73984
0.740219
0.740615
0.741028
0.741457
0.741902
0.742361
0.742835
0.743322
0.743823
0.744336
0.744861
0.745397
0.745944
0.7465
0.747066
0.74764
0.748223
0.748812
0.749409
0.750012
0.75062
0.751234
0.751851
0.752473
0.753098
0.753725
0.754355
0.754986
0.755618
0.756249
0.756881
0.757511
0.75814
0.758767
0.75939
0.76001
0.760627
0.761238
0.761845
0.762445
0.763039
0.763626
0.764205
0.764776
0.765338
0.76589
0.766433
0.766964
0.767484
0.767992
0.768487
0.768968
0.769435
0.769887
0.770323
0.770742
0.771145
0.771529
0.771895
0.772242
0.772569
0.772876
0.773162
0.773426
0.773668
0.773887
0.774083
0.774256
0.774405
0.774529
0.774627
0.7747
0.774746
0.774765
0.774756
0.774719
0.774654
0.774559
0.774435
0.774281
0.774097
0.773882
0.773636
0.77336
0.773052
0.772713
0.772343
0.771941
0.771508
0.771043
0.770548
0.770022
0.769465
0.768878
0.768261
0.767615
0.76694
0.766237
0.765507
0.76475
0.763968
0.76316
0.762327
0.76147
0.760589
0.759684
0.758753
0.757796
0.756807
0.755787
0.754691
0.753624
0.752126
0.774158
0.773857
0.773527
0.773155
0.772727
0.772244
0.771711
0.771135
0.770522
0.769877
0.769206
0.768513
0.767805
0.767084
0.766356
0.765625
0.764893
0.764163
0.763439
0.762723
0.762018
0.761324
0.760643
0.759978
0.759328
0.758696
0.758082
0.757486
0.756911
0.756355
0.755819
0.755304
0.754811
0.754339
0.753888
0.753459
0.753052
0.752667
0.752305
0.751965
0.751648
0.751354
0.751082
0.750833
0.750608
0.750405
0.750225
0.750069
0.749935
0.749825
0.749738
0.749673
0.749631
0.749612
0.749615
0.749641
0.749689
0.749759
0.749851
0.749964
0.750098
0.750254