/*--------------------------------*- C++ -*----------------------------------*\
  =========                 |
  \\      /  F ield         | OpenFOAM: The Open Source CFD Toolbox
   \\    /   O peration     | Website:  https://openfoam.org
    \\  /    A nd           | Version:  10
     \\/     M anipulation  |
\*---------------------------------------------------------------------------*/
FoamFile
{
    format      ascii;
    class       volScalarField;
    location    "0.1";
    object      T;
}
// * * * * * * * * * * * * * * * * * * * * * * * * * * * * * * * * * * * * * //

dimensions      [0 0 0 1 0 0 0];

internalField   nonuniform List<scalar> 
100
(
1
1
0.999998
0.999977
0.999799
0.998613
0.991977
0.959392
0.841264
0.628529
0.376904
0.161926
0.0360746
0.00480776
0.000641351
8.55858e-05
1.14195e-05
1.52284e-06
2.02901e-07
2.70038e-08
3.58908e-09
4.76308e-10
6.31063e-11
8.34622e-12
1.10204e-12
1.45276e-13
1.91759e-14
2.56194e-15
2.93617e-16
-6.6632e-17
-1.09051e-16
-5.77386e-17
-1.45695e-17
1.90084e-18
3.54063e-18
1.57001e-18
2.48959e-19
-1.10648e-19
-8.67555e-20
-2.40785e-20
7.52541e-22
3.28821e-21
1.24086e-21
1.11868e-22
-9.33414e-23
-4.62439e-23
-7.1127e-24
2.04708e-24
1.36942e-24
2.67348e-25
-3.44013e-26
-3.37357e-26
-7.58815e-27
4.0766e-28
7.10262e-28
1.75475e-28
-1.97346e-30
-1.3002e-29
-3.42776e-30
-5.21851e-32
2.0932e-31
5.77618e-32
1.89254e-33
-2.98575e-33
-8.51263e-34
-3.8356e-35
3.79104e-35
1.1079e-35
6.01641e-37
-4.29564e-37
-1.28264e-37
-7.94726e-39
4.34736e-39
1.32839e-39
9.17321e-41
-3.92647e-41
-1.23612e-41
-9.43854e-43
3.15615e-43
1.03689e-43
8.7569e-45
-2.24492e-45
-7.85691e-46
-7.37206e-47
1.39738e-47
5.38188e-48
5.64696e-49
-7.44355e-50
-3.32912e-50
-3.93663e-51
3.22102e-52
1.85322e-52
2.49337e-53
-9.57826e-55
-9.2173e-55
-1.43004e-55
5.09946e-59
4.04079e-57
7.39184e-58
7.7787e-60
)
;

boundaryField
{
    top
    {
        type            zeroGradient;
    }
    bottom
    {
        type            zeroGradient;
    }
    in
    {
        type            fixedValue;
        value           uniform 1;
    }
    out
    {
        type            zeroGradient;
    }
    frontAndBack
    {
        type            empty;
    }
}


// ************************************************************************* //
