/*--------------------------------*- C++ -*----------------------------------*\
  =========                 |
  \\      /  F ield         | OpenFOAM: The Open Source CFD Toolbox
   \\    /   O peration     | Website:  https://openfoam.org
    \\  /    A nd           | Version:  10
     \\/     M anipulation  |
\*---------------------------------------------------------------------------*/
FoamFile
{
    format      ascii;
    class       volScalarField;
    location    "3";
    object      T;
}
// * * * * * * * * * * * * * * * * * * * * * * * * * * * * * * * * * * * * * //

dimensions      [0 0 0 1 0 0 0];

internalField   nonuniform List<scalar> 
10000
(
374.844
360.834
355.844
353.486
352.07
351.07
350.287
349.635
349.07
348.567
348.11
347.691
347.302
346.941
346.603
346.286
345.99
345.712
345.451
345.207
344.979
344.765
344.567
344.382
344.21
344.051
343.903
343.768
343.643
343.528
343.423
343.327
343.239
343.16
343.088
343.023
342.964
342.911
342.864
342.822
342.784
342.751
342.721
342.695
342.671
342.651
342.633
342.617
342.604
342.592
342.582
342.573
342.565
342.559
342.553
342.548
342.544
342.541
342.538
342.535
342.533
342.532
342.53
342.529
342.529
342.528
342.528
342.528
342.528
342.528
342.528
342.528
342.529
342.529
342.53
342.531
342.532
342.533
342.534
342.536
342.537
342.539
342.541
342.543
342.545
342.547
342.549
342.552
342.555
342.558
342.561
342.564
342.568
342.572
342.576
342.58
342.585
342.589
342.595
342.602
388.159
373.459
364.875
359.493
355.775
352.973
350.715
348.806
347.137
345.644
344.285
343.034
341.875
340.795
339.785
338.838
337.951
337.119
336.339
335.608
334.924
334.286
333.69
333.136
332.621
332.144
331.703
331.296
330.921
330.577
330.263
329.975
329.713
329.475
329.259
329.064
328.888
328.73
328.588
328.461
328.348
328.248
328.158
328.08
328.01
327.949
327.895
327.848
327.807
327.772
327.741
327.714
327.691
327.671
327.654
327.64
327.628
327.618
327.609
327.602
327.596
327.591
327.587
327.584
327.582
327.58
327.579
327.578
327.578
327.579
327.579
327.58
327.582
327.584
327.586
327.588
327.591
327.595
327.598
327.603
327.607
327.612
327.617
327.623
327.63
327.636
327.644
327.652
327.66
327.669
327.679
327.689
327.7
327.711
327.723
327.736
327.749
327.763
327.778
327.794
392.465
379.992
370.729
363.867
358.599
354.372
350.84
347.788
345.085
342.646
340.416
338.356
336.442
334.655
332.982
331.413
329.942
328.561
327.265
326.052
324.916
323.855
322.866
321.944
321.089
320.296
319.562
318.886
318.263
317.691
317.167
316.689
316.253
315.857
315.498
315.174
314.881
314.618
314.382
314.172
313.984
313.816
313.668
313.537
313.421
313.319
313.23
313.152
313.083
313.024
312.973
312.928
312.89
312.857
312.829
312.805
312.785
312.768
312.754
312.742
312.732
312.724
312.717
312.712
312.708
312.705
312.704
312.703
312.702
312.703
312.704
312.706
312.708
312.712
312.715
312.719
312.724
312.73
312.736
312.743
312.75
312.758
312.767
312.777
312.787
312.799
312.811
312.824
312.838
312.853
312.869
312.886
312.903
312.922
312.942
312.963
312.985
313.009
313.033
313.058
394.145
383.342
374.213
366.681
360.427
355.131
350.546
346.494
342.85
339.528
336.47
333.634
330.989
328.514
326.194
324.015
321.969
320.047
318.244
316.554
314.972
313.493
312.114
310.83
309.637
308.531
307.508
306.564
305.695
304.897
304.167
303.499
302.891
302.339
301.838
301.385
300.977
300.61
300.281
299.986
299.724
299.49
299.283
299.1
298.938
298.796
298.672
298.563
298.467
298.385
298.313
298.251
298.198
298.152
298.113
298.079
298.051
298.027
298.007
297.99
297.976
297.965
297.956
297.949
297.943
297.939
297.937
297.935
297.935
297.936
297.938
297.94
297.944
297.948
297.953
297.959
297.966
297.973
297.982
297.991
298.001
298.013
298.025
298.039
298.053
298.069
298.086
298.104
298.123
298.144
298.166
298.189
298.214
298.24
298.268
298.297
298.328
298.36
298.394
298.429
394.889
385.049
376.135
368.266
361.355
355.253
349.806
344.888
340.399
336.266
332.432
328.858
325.513
322.375
319.426
316.653
314.046
311.595
309.294
307.136
305.115
303.225
301.462
299.82
298.294
296.879
295.57
294.363
293.251
292.23
291.295
290.441
289.662
288.955
288.313
287.734
287.211
286.741
286.32
285.943
285.607
285.308
285.043
284.808
284.601
284.419
284.259
284.12
283.998
283.892
283.8
283.721
283.652
283.594
283.543
283.501
283.464
283.434
283.408
283.386
283.369
283.354
283.343
283.333
283.327
283.321
283.318
283.316
283.316
283.317
283.319
283.322
283.327
283.332
283.338
283.346
283.355
283.364
283.375
283.387
283.4
283.415
283.43
283.447
283.466
283.486
283.507
283.53
283.555
283.581
283.609
283.639
283.671
283.704
283.739
283.776
283.815
283.856
283.899
283.943
395.227
385.865
377.059
368.951
361.553
354.811
348.646
342.977
337.732
332.855
328.299
324.03
320.018
316.243
312.689
309.341
306.188
303.222
300.435
297.819
295.368
293.076
290.936
288.942
287.089
285.371
283.781
282.314
280.963
279.722
278.586
277.548
276.602
275.742
274.962
274.257
273.622
273.05
272.538
272.08
271.671
271.307
270.985
270.7
270.448
270.227
270.033
269.863
269.715
269.586
269.474
269.377
269.294
269.223
269.162
269.11
269.065
269.028
268.997
268.971
268.949
268.932
268.917
268.906
268.898
268.892
268.888
268.885
268.885
268.886
268.888
268.892
268.897
268.904
268.912
268.921
268.931
268.943
268.956
268.97
268.986
269.003
269.022
269.043
269.065
269.089
269.115
269.143
269.172
269.204
269.238
269.274
269.312
269.352
269.395
269.439
269.487
269.536
269.587
269.641
395.357
386.169
377.341
368.997
361.187
353.907
347.122
340.79
334.865
329.307
324.08
319.157
314.513
310.131
305.995
302.093
298.413
294.948
291.688
288.627
285.756
283.071
280.563
278.225
276.052
274.037
272.172
270.45
268.865
267.408
266.074
264.855
263.744
262.735
261.819
260.992
260.245
259.574
258.973
258.434
257.954
257.527
257.148
256.813
256.518
256.258
256.029
255.83
255.656
255.504
255.373
255.26
255.162
255.078
255.006
254.945
254.893
254.849
254.812
254.782
254.756
254.736
254.719
254.706
254.696
254.688
254.684
254.681
254.68
254.681
254.684
254.689
254.695
254.702
254.711
254.722
254.734
254.747
254.762
254.779
254.798
254.818
254.84
254.864
254.889
254.917
254.947
254.98
255.014
255.051
255.09
255.132
255.176
255.223
255.272
255.324
255.379
255.437
255.497
255.559
395.368
386.159
377.201
368.596
360.401
352.637
345.301
338.373
331.828
325.642
319.791
314.254
309.013
304.053
299.361
294.927
290.739
286.791
283.074
279.58
276.303
273.235
270.368
267.696
265.211
262.905
260.771
258.801
256.986
255.319
253.792
252.396
251.124
249.967
248.919
247.971
247.116
246.348
245.658
245.041
244.491
244.002
243.568
243.184
242.845
242.547
242.286
242.057
241.858
241.684
241.534
241.404
241.292
241.196
241.113
241.043
240.984
240.933
240.891
240.856
240.827
240.803
240.784
240.769
240.757
240.749
240.743
240.74
240.739
240.74
240.744
240.749
240.755
240.764
240.774
240.786
240.799
240.815
240.832
240.851
240.871
240.894
240.919
240.946
240.975
241.007
241.041
241.077
241.116
241.158
241.202
241.25
241.3
241.353
241.409
241.468
241.53
241.595
241.663
241.733
395.307
385.951
376.782
367.882
359.308
351.092
343.247
335.771
328.656
321.888
315.454
309.34
303.535
298.026
292.804
287.859
283.185
278.772
274.613
270.702
267.03
263.591
260.377
257.38
254.591
252.003
249.607
247.395
245.357
243.484
241.768
240.2
238.771
237.471
236.293
235.228
234.267
233.403
232.628
231.934
231.316
230.766
230.278
229.846
229.465
229.13
228.836
228.579
228.355
228.16
227.991
227.844
227.718
227.61
227.518
227.439
227.372
227.315
227.267
227.228
227.195
227.168
227.147
227.13
227.117
227.107
227.101
227.097
227.096
227.097
227.101
227.106
227.114
227.123
227.134
227.147
227.162
227.179
227.198
227.219
227.242
227.267
227.295
227.325
227.357
227.392
227.43
227.47
227.513
227.559
227.609
227.661
227.716
227.775
227.837
227.903
227.971
228.043
228.119
228.196
395.199
385.613
376.175
366.95
357.994
349.343
341.019
333.032
325.385
318.073
311.093
304.437
298.097
292.067
286.34
280.909
275.768
270.909
266.326
262.012
257.96
254.163
250.612
247.3
244.217
241.356
238.706
236.258
234.003
231.931
230.032
228.297
226.714
225.276
223.971
222.791
221.727
220.77
219.912
219.144
218.459
217.85
217.309
216.831
216.409
216.038
215.712
215.427
215.179
214.963
214.775
214.613
214.473
214.353
214.251
214.163
214.089
214.026
213.974
213.93
213.893
213.863
213.839
213.82
213.806
213.795
213.788
213.784
213.783
213.784
213.787
213.793
213.801
213.811
213.824
213.838
213.854
213.872
213.893
213.916
213.941
213.968
213.998
214.031
214.066
214.104
214.145
214.189
214.237
214.287
214.34
214.397
214.458
214.522
214.59
214.661
214.736
214.814
214.896
214.981
395.061
385.19
375.441
365.871
356.528
347.452
338.671
330.2
322.052
314.229
306.734
299.565
292.721
286.197
279.99
274.094
268.507
263.221
258.231
253.53
249.113
244.97
241.095
237.479
234.113
230.987
228.091
225.416
222.951
220.686
218.61
216.711
214.981
213.407
211.98
210.689
209.525
208.478
207.539
206.698
205.949
205.282
204.69
204.167
203.705
203.299
202.942
202.63
202.358
202.122
201.916
201.739
201.586
201.455
201.342
201.246
201.165
201.096
201.038
200.99
200.95
200.918
200.891
200.871
200.855
200.843
200.835
200.83
200.828
200.83
200.833
200.84
200.848
200.859
200.872
200.887
200.904
200.924
200.946
200.971
200.998
201.027
201.059
201.094
201.132
201.173
201.217
201.265
201.315
201.369
201.427
201.488
201.553
201.622
201.695
201.771
201.852
201.936
202.024
202.115
394.903
384.711
374.625
364.693
354.961
345.468
336.245
327.313
318.69
310.384
302.402
294.749
287.426
280.434
273.77
267.433
261.42
255.726
250.346
245.275
240.507
236.033
231.846
227.938
224.298
220.917
217.785
214.89
212.223
209.771
207.523
205.468
203.594
201.89
200.344
198.946
197.685
196.551
195.533
194.623
193.811
193.088
192.447
191.88
191.379
190.939
190.553
190.215
189.92
189.663
189.441
189.248
189.083
188.94
188.818
188.714
188.626
188.552
188.489
188.437
188.393
188.358
188.329
188.306
188.289
188.276
188.267
188.262
188.26
188.261
188.265
188.271
188.28
188.292
188.305
188.321
188.34
188.361
188.384
188.41
188.439
188.47
188.504
188.541
188.582
188.625
188.672
188.722
188.776
188.833
188.894
188.959
189.028
189.101
189.179
189.26
189.345
189.435
189.529
189.625
394.733
384.198
373.757
363.454
353.332
343.43
333.779
324.405
315.329
306.564
298.122
290.01
282.234
274.796
267.699
260.942
254.523
248.44
242.689
237.264
232.16
227.369
222.883
218.694
214.792
211.166
207.806
204.701
201.839
199.207
196.794
194.588
192.576
190.746
189.086
187.584
186.23
185.011
183.918
182.94
182.068
181.291
180.602
179.993
179.455
178.982
178.567
178.203
177.886
177.611
177.372
177.165
176.987
176.834
176.702
176.591
176.496
176.416
176.348
176.292
176.245
176.207
176.176
176.152
176.133
176.119
176.109
176.103
176.101
176.102
176.105
176.112
176.121
176.133
176.147
176.164
176.184
176.206
176.23
176.257
176.287
176.32
176.356
176.395
176.437
176.483
176.532
176.585
176.641
176.702
176.766
176.834
176.907
176.984
177.065
177.15
177.24
177.334
177.433
177.534
394.556
383.665
372.861
362.183
351.673
341.368
331.303
321.505
311.996
302.794
293.914
285.368
277.162
269.303
261.794
254.638
247.834
241.38
235.274
229.512
224.087
218.993
214.222
209.764
205.611
201.751
198.173
194.865
191.816
189.012
186.441
184.089
181.944
179.993
178.224
176.623
175.178
173.879
172.713
171.67
170.739
169.911
169.176
168.526
167.952
167.448
167.004
166.617
166.279
165.984
165.729
165.509
165.318
165.155
165.015
164.896
164.794
164.709
164.637
164.577
164.527
164.486
164.453
164.426
164.406
164.391
164.38
164.374
164.371
164.372
164.375
164.382
164.392
164.404
164.419
164.436
164.456
164.479
164.505
164.533
164.564
164.598
164.636
164.676
164.72
164.768
164.819
164.874
164.933
164.995
165.062
165.133
165.209
165.289
165.373
165.462
165.556
165.654
165.757
165.862
394.376
383.124
371.953
360.901
350.007
339.31
328.844
318.637
308.714
299.096
289.8
280.84
272.227
263.968
256.069
248.534
241.364
234.559
228.117
222.033
216.303
210.92
205.876
201.163
196.77
192.686
188.899
185.398
182.17
179.201
176.478
173.987
171.715
169.649
167.774
166.077
164.547
163.17
161.934
160.829
159.842
158.965
158.186
157.496
156.888
156.353
155.883
155.472
155.113
154.802
154.531
154.297
154.095
153.922
153.773
153.647
153.539
153.448
153.372
153.308
153.255
153.212
153.176
153.148
153.126
153.11
153.099
153.092
153.088
153.089
153.092
153.099
153.109
153.121
153.136
153.154
153.175
153.198
153.225
153.254
153.286
153.321
153.36
153.402
153.447
153.496
153.549
153.606
153.666
153.731
153.8
153.874
153.952
154.034
154.121
154.213
154.31
154.411
154.517
154.626
394.196
382.582
371.046
359.624
348.355
337.275
326.421
315.821
305.502
295.488
285.797
276.445
267.445
258.807
250.539
242.645
235.128
227.989
221.227
214.839
208.819
203.161
197.858
192.901
188.28
183.982
179.997
176.312
172.913
169.787
166.919
164.296
161.902
159.725
157.749
155.962
154.349
152.898
151.596
150.43
149.391
148.465
147.644
146.917
146.276
145.712
145.216
144.783
144.405
144.076
143.79
143.544
143.331
143.148
142.991
142.858
142.744
142.648
142.568
142.5
142.444
142.398
142.361
142.331
142.308
142.29
142.278
142.27
142.267
142.267
142.27
142.277
142.286
142.299
142.315
142.333
142.354
142.378
142.405
142.435
142.468
142.504
142.543
142.586
142.633
142.683
142.737
142.795
142.857
142.924
142.994
143.07
143.149
143.234
143.323
143.417
143.517
143.62
143.729
143.841
394.018
382.046
370.151
358.366
346.73
335.28
324.051
313.074
302.378
291.985
281.919
272.195
262.829
253.832
245.214
236.981
229.136
221.681
214.616
207.939
201.644
195.726
190.178
184.989
180.151
175.651
171.477
167.617
164.055
160.779
157.773
155.024
152.515
150.232
148.161
146.286
144.595
143.073
141.707
140.485
139.394
138.424
137.562
136.8
136.127
135.535
135.015
134.56
134.163
133.818
133.519
133.26
133.036
132.844
132.68
132.54
132.421
132.32
132.235
132.164
132.105
132.057
132.017
131.986
131.961
131.943
131.929
131.921
131.917
131.916
131.92
131.926
131.936
131.948
131.964
131.983
132.004
132.028
132.055
132.086
132.119
132.156
132.196
132.24
132.287
132.338
132.393
132.452
132.515
132.583
132.655
132.732
132.813
132.899
132.99
133.086
133.186
133.292
133.403
133.516
393.843
381.521
369.275
357.137
345.145
333.337
321.748
310.411
299.353
288.602
278.178
268.102
258.39
249.054
240.105
231.551
223.396
215.643
208.292
201.341
194.786
188.622
182.841
177.434
172.39
167.698
163.345
159.318
155.603
152.185
149.049
146.179
143.56
141.177
139.015
137.058
135.292
133.703
132.277
131
129.861
128.847
127.947
127.151
126.448
125.83
125.287
124.812
124.397
124.036
123.723
123.453
123.219
123.019
122.847
122.7
122.576
122.47
122.381
122.307
122.245
122.195
122.153
122.12
122.094
122.075
122.061
122.051
122.047
122.046
122.049
122.055
122.065
122.077
122.093
122.111
122.133
122.157
122.185
122.215
122.249
122.286
122.327
122.371
122.419
122.47
122.526
122.586
122.649
122.718
122.791
122.868
122.95
123.037
123.129
123.226
123.328
123.435
123.546
123.661
393.673
381.012
368.424
355.944
343.609
331.457
319.524
307.842
296.441
285.348
274.586
264.177
254.137
244.481
235.22
226.362
217.915
209.88
202.259
195.051
188.251
181.855
175.854
170.24
165.002
160.128
155.607
151.423
147.562
144.009
140.749
137.766
135.043
132.565
130.317
128.282
126.445
124.792
123.309
121.981
120.796
119.741
118.805
117.976
117.245
116.601
116.036
115.542
115.11
114.735
114.409
114.127
113.884
113.675
113.497
113.344
113.214
113.104
113.012
112.934
112.87
112.817
112.774
112.739
112.712
112.691
112.676
112.666
112.661
112.66
112.662
112.668
112.677
112.69
112.705
112.724
112.745
112.77
112.797
112.828
112.862
112.899
112.94
112.984
113.032
113.084
113.14
113.2
113.264
113.333
113.406
113.483
113.566
113.653
113.746
113.843
113.945
114.053
114.165
114.28
393.509
380.519
367.603
354.794
342.13
329.648
317.386
305.375
293.648
282.231
271.15
260.425
250.076
240.118
230.563
221.421
212.698
204.398
196.523
189.072
182.042
175.426
169.219
163.41
157.989
152.945
148.263
143.931
139.933
136.254
132.877
129.786
126.965
124.398
122.068
119.959
118.056
116.342
114.805
113.428
112.2
111.106
110.136
109.277
108.518
107.851
107.265
106.752
106.305
105.915
105.578
105.285
105.033
104.817
104.631
104.473
104.338
104.224
104.128
104.047
103.98
103.925
103.88
103.844
103.815
103.794
103.778
103.767
103.761
103.759
103.761
103.767
103.776
103.788
103.804
103.822
103.843
103.868
103.895
103.926
103.959
103.997
104.037
104.081
104.129
104.181
104.237
104.297
104.361
104.429
104.502
104.58
104.663
104.75
104.842
104.939
105.042
105.149
105.261
105.376
393.351
380.046
366.815
353.692
340.712
327.917
315.34
303.018
290.982
279.259
267.875
256.854
246.213
235.971
226.139
216.729
207.748
199.199
191.086
183.407
176.159
169.338
162.936
156.944
151.352
146.146
141.315
136.844
132.716
128.917
125.431
122.239
119.326
116.674
114.268
112.089
110.123
108.353
106.764
105.342
104.072
102.942
101.939
101.051
100.268
99.5777
98.9721
98.4421
97.9796
97.577
97.2278
96.9256
96.665
96.4409
96.249
96.0851
95.9457
95.8277
95.7282
95.6448
95.5754
95.5182
95.4714
95.4337
95.404
95.3812
95.3644
95.3531
95.3465
95.3442
95.3458
95.351
95.3596
95.3715
95.3864
95.4045
95.4255
95.4496
95.4767
95.507
95.5406
95.5774
95.6178
95.6616
95.7092
95.7606
95.816
95.8754
95.9392
96.0072
96.0798
96.157
96.2389
96.3257
96.4173
96.514
96.6156
96.7223
96.8338
96.9481
393.201
379.595
366.063
352.639
339.36
326.266
313.393
300.775
288.446
276.434
264.766
253.465
242.551
232.042
221.951
212.289
203.065
194.283
185.946
178.054
170.603
163.589
157.005
150.842
145.088
139.732
134.76
130.158
125.909
121.998
118.408
115.122
112.122
109.391
106.912
104.669
102.643
100.82
99.1827
97.7175
96.4095
95.2452
94.2116
93.2967
92.489
91.7781
91.154
90.6078
90.131
89.7161
89.356
89.0445
88.7758
88.5448
88.3469
88.1778
88.034
87.9122
87.8096
87.7235
87.6517
87.5925
87.544
87.505
87.474
87.4502
87.4326
87.4204
87.4131
87.4103
87.4114
87.4161
87.4243
87.4357
87.4503
87.4679
87.4885
87.5122
87.539
87.5688
87.6019
87.6383
87.6781
87.7214
87.7684
87.8192
87.8739
87.9326
87.9956
88.0629
88.1346
88.2109
88.2919
88.3776
88.4682
88.5637
88.6642
88.7697
88.8799
88.9928
393.058
379.166
365.349
351.64
338.077
324.699
311.545
298.65
286.045
273.761
261.826
250.262
239.092
228.332
217.998
208.101
198.65
189.65
181.103
173.011
165.371
158.177
151.422
145.098
139.194
133.697
128.593
123.869
119.507
115.491
111.804
108.429
105.348
102.543
99.9969
97.6917
95.6107
93.7372
92.0554
90.5499
89.2058
88.0093
86.9471
86.0068
85.1767
84.4459
83.8044
83.2429
82.7528
82.3263
81.9561
81.6358
81.3596
81.122
80.9184
80.7445
80.5966
80.4713
80.3655
80.2769
80.203
80.1418
80.0918
80.0513
80.0192
79.9944
79.9758
79.9629
79.955
79.9515
79.952
79.9562
79.9639
79.9749
79.9889
80.006
80.0262
80.0493
80.0755
80.1048
80.1373
80.173
80.2121
80.2546
80.3008
80.3507
80.4045
80.4623
80.5242
80.5904
80.6609
80.7359
80.8155
80.8999
80.989
81.0829
81.1818
81.2855
81.3939
81.505
392.922
378.76
364.673
350.694
336.863
323.219
309.8
296.643
283.779
271.24
259.054
247.244
235.833
224.84
214.279
204.162
194.499
185.295
176.554
168.275
160.457
153.095
146.182
139.708
133.663
128.035
122.809
117.97
113.502
109.388
105.612
102.154
98.9969
96.1227
93.5132
91.1508
89.018
87.0978
85.374
83.8307
82.4528
81.2262
80.1373
79.1732
78.3221
77.5728
76.9151
76.3393
75.8367
75.3993
75.0196
74.6911
74.4078
74.1641
73.9552
73.7768
73.6249
73.4963
73.3877
73.2966
73.2206
73.1577
73.1061
73.0643
73.0311
73.0052
72.9858
72.9722
72.9635
72.9594
72.9593
72.9629
72.9701
72.9804
72.9939
73.0105
73.03
73.0525
73.0781
73.1066
73.1383
73.1732
73.2114
73.253
73.2982
73.347
73.3996
73.4562
73.5167
73.5815
73.6505
73.7239
73.8019
73.8844
73.9716
74.0636
74.1603
74.2619
74.368
74.4767
392.795
378.377
364.035
349.803
335.72
321.825
308.158
294.754
281.648
268.87
256.449
244.41
232.776
221.564
210.791
200.469
190.609
181.215
172.293
163.841
155.858
148.339
141.278
134.665
128.49
122.739
117.398
112.453
107.887
103.682
99.8214
96.2865
93.0588
90.1201
87.4519
85.0362
82.8551
80.8913
79.1283
77.5498
76.1405
74.8858
73.7719
72.7857
71.915
71.1485
70.4756
69.8865
69.3722
68.9246
68.5361
68.1999
67.9099
67.6605
67.4467
67.264
67.1085
66.9767
66.8654
66.772
66.6941
66.6295
66.5764
66.5334
66.499
66.4722
66.452
66.4376
66.4282
66.4234
66.4227
66.4257
66.4322
66.442
66.4549
66.4707
66.4896
66.5114
66.5361
66.5638
66.5946
66.6285
66.6657
66.7062
66.7502
66.7977
66.8489
66.904
66.963
67.026
67.0933
67.1648
67.2407
67.3211
67.4061
67.4957
67.59
67.689
67.7923
67.8982
392.675
378.018
363.437
348.967
334.647
320.518
306.618
292.985
279.652
266.651
254.011
241.758
229.915
218.5
207.53
197.018
186.974
177.405
168.313
159.7
151.565
143.901
136.702
129.96
123.663
117.799
112.352
107.308
102.651
98.3615
94.4228
90.8162
87.523
84.5243
81.8016
79.3363
77.1103
75.1061
73.3066
71.6954
70.2569
68.9761
67.839
66.8322
65.9433
65.1607
64.4736
63.8721
63.347
62.8899
62.4932
62.1499
61.8537
61.5989
61.3805
61.1938
61.0349
60.9002
60.7864
60.6908
60.611
60.5448
60.4904
60.4462
60.4108
60.383
60.362
60.3468
60.3367
60.3312
60.3298
60.3322
60.3381
60.3472
60.3593
60.3745
60.3926
60.4135
60.4374
60.4642
60.4939
60.5268
60.5627
60.602
60.6446
60.6906
60.7403
60.7937
60.8509
60.912
60.9772
61.0466
61.1202
61.1982
61.2806
61.3676
61.459
61.555
61.6553
61.758
392.563
377.682
362.878
348.186
333.645
319.296
305.179
291.332
277.788
264.579
251.736
239.284
227.247
215.643
204.491
193.803
183.589
173.856
164.608
155.846
147.569
139.771
132.445
125.583
119.174
113.204
107.66
102.525
97.7821
93.4146
89.4038
85.7309
82.3769
79.3227
76.5494
74.0382
71.7706
69.7289
67.8957
66.2542
64.7885
63.4836
62.3249
61.299
60.3932
59.5957
58.8955
58.2825
57.7473
57.2814
56.8771
56.5271
56.2251
55.9654
55.7427
55.5523
55.3902
55.2528
55.1367
55.0391
54.9575
54.8898
54.8341
54.7887
54.7523
54.7236
54.7017
54.6858
54.675
54.6688
54.6668
54.6685
54.6736
54.682
54.6934
54.7078
54.725
54.7451
54.768
54.7937
54.8224
54.854
54.8887
54.9266
54.9676
55.0121
55.06
55.1115
55.1668
55.2258
55.2888
55.3557
55.4268
55.5022
55.5817
55.6657
55.754
55.8467
55.9436
56.0427
392.458
377.369
362.357
347.457
332.711
318.158
303.84
289.793
276.053
262.652
249.62
236.984
224.767
212.989
201.667
190.816
180.445
170.561
161.169
152.269
143.861
135.939
128.496
121.524
115.011
108.944
103.308
98.089
93.2683
88.8285
84.751
81.0168
77.6066
74.5012
71.6812
69.1275
66.8216
64.7452
62.8807
61.2112
59.7205
58.3932
57.2146
56.171
55.2496
54.4383
53.726
53.1023
52.5578
52.0838
51.6724
51.3163
51.009
50.7446
50.5179
50.3241
50.1591
50.0191
49.9008
49.8013
49.7181
49.649
49.592
49.5455
49.5081
49.4786
49.4559
49.4392
49.4277
49.4208
49.4181
49.4191
49.4236
49.4312
49.4418
49.4554
49.4717
49.4908
49.5127
49.5373
49.5648
49.5951
49.6284
49.6647
49.7042
49.7469
49.793
49.8425
49.8956
49.9523
50.0128
50.0772
50.1456
50.218
50.2946
50.3753
50.4602
50.5494
50.6425
50.7379
392.361
377.078
361.873
346.781
331.844
317.102
302.596
288.365
274.443
260.864
247.658
234.851
222.468
210.529
199.052
188.05
177.534
167.511
157.986
148.959
140.43
132.394
124.843
117.769
111.16
105.004
99.2852
93.988
89.0953
84.5889
80.45
76.6593
73.1975
70.0448
67.1817
64.589
62.2477
60.1393
58.2461
56.5508
55.0369
53.689
52.492
51.4321
50.4963
49.6723
48.9488
48.3153
47.7622
47.2807
46.8627
46.5009
46.1887
45.92
45.6896
45.4927
45.3249
45.1825
45.0622
44.961
44.8762
44.8058
44.7477
44.7002
44.6618
44.6315
44.608
44.5905
44.5783
44.5708
44.5673
44.5676
44.5713
44.5782
44.588
44.6007
44.6161
44.6342
44.655
44.6784
44.7046
44.7336
44.7654
44.8001
44.8379
44.8787
44.9228
44.9702
45.021
45.0754
45.1333
45.195
45.2604
45.3298
45.4031
45.4804
45.5617
45.6472
45.7364
45.8277
392.272
376.809
361.425
346.155
331.041
316.125
301.446
287.045
272.955
259.212
245.844
232.881
220.345
208.257
196.636
185.496
174.846
164.696
155.048
145.905
137.265
129.123
121.474
114.306
107.61
101.371
95.5758
90.2073
85.2484
80.6808
76.4855
72.6431
69.1337
65.9376
63.035
60.4063
58.0325
55.8947
53.975
52.256
50.7209
49.354
48.1401
47.0653
46.1162
45.2805
44.5466
43.9041
43.3431
42.8547
42.4307
42.0636
41.7469
41.4743
41.2405
41.0406
40.8703
40.7258
40.6035
40.5006
40.4145
40.3428
40.2836
40.2351
40.1959
40.1647
40.1405
40.1223
40.1094
40.1011
40.097
40.0966
40.0996
40.1056
40.1146
40.1264
40.1408
40.1579
40.1775
40.1997
40.2246
40.2521
40.2824
40.3155
40.3514
40.3904
40.4324
40.4775
40.526
40.5778
40.6331
40.6919
40.7543
40.8204
40.8904
40.9641
41.0417
41.1232
41.2083
41.2954
392.189
376.561
361.012
345.578
330.301
315.224
300.386
285.827
271.584
257.689
244.174
231.065
218.389
206.165
194.413
183.145
172.373
162.105
152.345
143.095
134.354
126.116
118.375
111.122
104.345
98.0312
92.1657
86.7319
81.7124
77.0887
72.8417
68.9517
65.3988
62.163
59.2241
56.5625
54.1589
51.9942
50.0503
48.3095
46.7549
45.3706
44.1412
43.0527
42.0914
41.2449
40.5017
39.8508
39.2826
38.7878
38.3582
37.9864
37.6654
37.3893
37.1524
36.9498
36.7771
36.6305
36.5066
36.4022
36.3147
36.2418
36.1816
36.1322
36.0922
36.0602
36.0352
36.0163
36.0027
35.9938
35.989
35.9878
35.99
35.9953
36.0034
36.0143
36.0277
36.0437
36.0622
36.0832
36.1067
36.1327
36.1614
36.1928
36.2269
36.2638
36.3037
36.3466
36.3926
36.4418
36.4943
36.5501
36.6094
36.6723
36.7387
36.8087
36.8825
36.9599
37.0408
37.1235
392.113
376.333
360.632
345.048
329.621
314.395
299.411
284.709
270.323
256.29
242.639
229.398
216.593
204.245
192.371
180.987
170.103
159.728
149.866
140.518
131.683
123.358
115.534
108.202
101.352
94.9694
89.0396
83.5461
78.4712
73.7963
69.5021
65.5688
61.9761
58.7038
55.7319
53.0402
50.6093
48.42
46.4539
44.6932
43.1208
41.7206
40.4771
39.376
38.4036
37.5473
36.7954
36.1369
35.562
35.0614
34.6268
34.2506
33.9258
33.6463
33.4065
33.2015
33.0267
32.8782
32.7526
32.6468
32.5581
32.4842
32.423
32.3727
32.3319
32.2992
32.2735
32.254
32.2397
32.2301
32.2245
32.2227
32.2241
32.2286
32.2358
32.2458
32.2582
32.2731
32.2904
32.3101
32.3322
32.3568
32.3838
32.4134
32.4457
32.4806
32.5183
32.5589
32.6024
32.6489
32.6986
32.7514
32.8075
32.867
32.9299
32.9962
33.066
33.1392
33.2158
33.2941
392.043
376.124
360.284
344.561
328.998
313.636
298.518
283.684
269.169
255.008
241.233
227.872
214.949
202.487
190.503
179.012
168.027
157.553
147.598
138.161
129.241
120.835
112.936
105.533
98.6156
92.1704
86.1821
80.6342
75.5089
70.7873
66.4501
62.4772
58.8482
55.5429
52.5407
49.8216
47.3659
45.1542
43.1679
41.389
39.8004
38.3856
37.1293
36.0166
35.0341
34.1689
33.409
32.7437
32.1627
31.6568
31.2176
30.8373
30.509
30.2265
29.9841
29.7767
29.6
29.4498
29.3228
29.2157
29.1258
29.0509
28.9888
28.9377
28.8961
28.8627
28.8364
28.8161
28.8012
28.7909
28.7847
28.7821
28.7828
28.7865
28.7929
28.8019
28.8133
28.8271
28.8432
28.8616
28.8824
28.9054
28.9308
28.9587
28.989
29.0219
29.0574
29.0956
29.1366
29.1805
29.2273
29.2771
29.33
29.386
29.4453
29.5078
29.5736
29.6427
29.7149
29.7887
391.979
375.932
359.966
344.117
328.428
312.943
297.703
282.748
268.115
253.838
239.95
226.478
213.449
200.882
188.798
177.211
166.132
155.57
145.529
136.011
127.015
118.536
110.567
103.099
96.1212
89.6191
83.5776
77.9803
72.8091
68.0451
63.6688
59.6599
55.998
52.6625
49.633
46.8889
44.4106
42.1785
40.1738
38.3785
36.7751
35.3471
34.079
32.956
31.9642
31.0908
30.3238
29.6521
29.0656
28.5549
28.1114
27.7275
27.396
27.1108
26.866
26.6565
26.478
26.3263
26.1978
26.0895
25.9987
25.9228
25.8598
25.808
25.7657
25.7316
25.7046
25.6838
25.6682
25.6573
25.6504
25.6471
25.6471
25.6499
25.6555
25.6635
25.6739
25.6866
25.7016
25.7187
25.738
25.7596
25.7834
25.8095
25.8379
25.8687
25.902
25.9379
25.9764
26.0176
26.0615
26.1083
26.158
26.2106
26.2663
26.325
26.3868
26.4517
26.5195
26.5888
391.921
375.758
359.676
343.712
327.909
312.311
296.96
281.896
267.155
252.773
238.782
225.21
212.083
199.422
187.247
175.572
164.409
153.766
143.648
134.056
124.99
116.445
108.414
100.887
93.8539
87.3001
81.2105
75.5683
70.3555
65.5531
61.1414
57.0999
53.4082
50.0454
46.9909
44.2243
41.7255
39.4749
37.4536
35.6433
34.0265
32.5866
31.3078
30.1753
29.1751
28.2943
27.5208
26.8434
26.2519
25.7368
25.2895
24.9022
24.5679
24.2801
24.0331
23.8218
23.6416
23.4884
23.3588
23.2494
23.1575
23.0808
23.017
22.9645
22.9215
22.8868
22.8592
22.8378
22.8216
22.81
22.8025
22.7985
22.7977
22.7998
22.8045
22.8117
22.8211
22.8327
22.8465
22.8623
22.8803
22.9003
22.9225
22.9468
22.9734
23.0022
23.0333
23.0669
23.1028
23.1414
23.1825
23.2262
23.2727
23.322
23.3741
23.429
23.4869
23.5476
23.6111
23.676
391.868
375.6
359.413
343.345
327.439
311.738
296.286
281.122
266.284
251.807
237.722
224.06
210.844
198.098
185.84
174.086
162.846
152.13
141.942
132.284
123.154
114.549
106.462
98.8821
91.7988
85.1983
79.0652
73.3825
68.1321
63.295
58.8512
54.7803
51.0615
47.6741
44.5971
41.8101
39.2928
37.0254
34.9891
33.1652
31.5363
30.0856
28.7972
27.6561
26.6484
25.7609
24.9815
24.2989
23.7028
23.1837
22.733
22.3427
22.0057
21.7156
21.4667
21.2536
21.0719
20.9175
20.7867
20.6763
20.5836
20.506
20.4416
20.3883
20.3448
20.3095
20.2813
20.2592
20.2425
20.2303
20.2222
20.2175
20.216
20.2173
20.2212
20.2274
20.2359
20.2464
20.2591
20.2737
20.2903
20.3088
20.3294
20.352
20.3767
20.4035
20.4325
20.4637
20.4973
20.5332
20.5715
20.6123
20.6556
20.7015
20.7501
20.8013
20.8553
20.9119
20.9711
21.0316
391.821
375.457
359.175
343.012
327.012
311.219
295.676
280.422
265.496
250.932
236.763
223.019
209.723
196.9
184.568
172.741
161.433
150.65
140.399
130.681
121.495
112.836
104.697
97.0697
89.9415
83.2989
77.1265
71.4073
66.123
61.2545
56.7818
52.6843
48.9413
45.5316
42.4343
39.6289
37.0949
34.8125
32.7625
30.9265
29.2866
27.8262
26.5291
25.3803
24.3657
23.4722
22.6874
22.0002
21.4
20.8773
20.4235
20.0304
19.6911
19.3989
19.1482
18.9336
18.7505
18.5949
18.463
18.3517
18.2582
18.1799
18.1148
18.061
18.0168
17.981
17.9522
17.9296
17.9123
17.8996
17.8908
17.8855
17.8833
17.8839
17.8869
17.8923
17.8998
17.9093
17.9208
17.9342
17.9495
17.9666
17.9856
18.0066
18.0294
18.0543
18.0812
18.1102
18.1413
18.1746
18.2102
18.2481
18.2883
18.331
18.3761
18.4237
18.4739
18.5265
18.5815
18.6377
391.778
375.328
358.96
342.712
326.628
310.751
295.125
279.79
264.784
250.143
235.898
222.079
208.712
195.82
183.42
171.529
160.158