/*--------------------------------*- C++ -*----------------------------------*\
  =========                 |
  \\      /  F ield         | OpenFOAM: The Open Source CFD Toolbox
   \\    /   O peration     | Website:  https://openfoam.org
    \\  /    A nd           | Version:  10
     \\/     M anipulation  |
\*---------------------------------------------------------------------------*/
FoamFile
{
    format      ascii;
    class       volScalarField;
    location    "31";
    object      T_0;
}
// * * * * * * * * * * * * * * * * * * * * * * * * * * * * * * * * * * * * * //

dimensions      [0 0 0 1 0 0 0];

internalField   nonuniform List<scalar> 
10000
(
374.982
361.289
356.608
354.557
353.444
352.742
352.253
351.889
351.603
351.372
351.179
351.015
350.872
350.745
350.632
350.53
350.436
350.35
350.27
350.195
350.124
350.058
349.995
349.935
349.878
349.823
349.77
349.719
349.67
349.623
349.577
349.533
349.489
349.448
349.407
349.367
349.329
349.291
349.254
349.219
349.184
349.15
349.116
349.084
349.052
349.021
348.991
348.961
348.932
348.904
348.876
348.849
348.823
348.797
348.772
348.748
348.724
348.701
348.678
348.656
348.635
348.614
348.594
348.574
348.555
348.536
348.518
348.501
348.484
348.467
348.452
348.436
348.422
348.408
348.394
348.381
348.368
348.356
348.345
348.334
348.324
348.314
348.305
348.296
348.288
348.28
348.273
348.266
348.26
348.255
348.25
348.245
348.241
348.238
348.235
348.233
348.231
348.229
348.229
348.228
388.613
374.854
367.198
362.734
359.924
358.016
356.637
355.588
354.758
354.08
353.512
353.025
352.601
352.225
351.888
351.583
351.303
351.046
350.806
350.582
350.372
350.173
349.984
349.804
349.633
349.468
349.31
349.158
349.011
348.869
348.732
348.599
348.47
348.344
348.222
348.103
347.988
347.875
347.765
347.657
347.553
347.451
347.351
347.253
347.158
347.065
346.974
346.885
346.799
346.714
346.631
346.55
346.471
346.394
346.319
346.246
346.175
346.105
346.037
345.971
345.907
345.844
345.783
345.724
345.666
345.611
345.557
345.504
345.454
345.405
345.357
345.311
345.267
345.225
345.184
345.145
345.108
345.072
345.037
345.005
344.974
344.944
344.916
344.89
344.866
344.843
344.821
344.801
344.783
344.767
344.752
344.738
344.726
344.716
344.707
344.7
344.695
344.691
344.688
344.687
393.228
382.315
374.594
369.258
365.5
362.761
360.689
359.068
357.761
356.679
355.763
354.973
354.281
353.666
353.112
352.61
352.149
351.723
351.327
350.956
350.607
350.278
349.964
349.666
349.381
349.108
348.845
348.592
348.348
348.112
347.884
347.662
347.447
347.238
347.035
346.837
346.645
346.457
346.274
346.095
345.921
345.75
345.584
345.422
345.263
345.108
344.957
344.809
344.664
344.523
344.385
344.251
344.119
343.991
343.866
343.744
343.625
343.509
343.396
343.286
343.178
343.074
342.973
342.874
342.778
342.686
342.596
342.508
342.424
342.342
342.263
342.187
342.114
342.043
341.975
341.91
341.847
341.787
341.73
341.676
341.624
341.575
341.529
341.485
341.444
341.406
341.37
341.337
341.307
341.279
341.254
341.232
341.212
341.195
341.18
341.168
341.159
341.153
341.149
341.147
395.214
386.584
379.605
374.205
370.057
366.838
364.292
362.236
360.54
359.112
357.889
356.824
355.885
355.046
354.288
353.597
352.962
352.373
351.825
351.311
350.826
350.368
349.932
349.517
349.12
348.739
348.373
348.02
347.679
347.35
347.031
346.722
346.422
346.13
345.846
345.569
345.3
345.038
344.782
344.532
344.288
344.05
343.817
343.59
343.369
343.152
342.94
342.733
342.531
342.334
342.141
341.953
341.769
341.589
341.414
341.243
341.077
340.914
340.756
340.602
340.452
340.306
340.164
340.026
339.892
339.763
339.637
339.514
339.396
339.282
339.171
339.065
338.962
338.863
338.768
338.677
338.589
338.506
338.426
338.35
338.277
338.209
338.144
338.083
338.025
337.972
337.922
337.876
337.833
337.794
337.759
337.728
337.7
337.676
337.656
337.639
337.627
337.617
337.612
337.61
396.262
389.2
383.04
377.899
373.686
370.242
367.407
365.045
363.05
361.342
359.858
358.552
357.391
356.346
355.398
354.53
353.729
352.985
352.291
351.638
351.022
350.438
349.883
349.353
348.846
348.359
347.891
347.439
347.003
346.582
346.173
345.777
345.392
345.017
344.653
344.299
343.953
343.617
343.288
342.968
342.655
342.349
342.051
341.759
341.474
341.196
340.924
340.658
340.399
340.145
339.898
339.656
339.42
339.189
338.964
338.745
338.531
338.322
338.119
337.921
337.728
337.541
337.358
337.181
337.009
336.842
336.68
336.523
336.371
336.225
336.083
335.946
335.814
335.687
335.565
335.447
335.335
335.227
335.125
335.027
334.934
334.846
334.762
334.684
334.61
334.541
334.477
334.418
334.363
334.313
334.268
334.228
334.192
334.161
334.135
334.114
334.098
334.086
334.079
334.076
396.9
390.914
385.455
380.665
376.548
373.04
370.05
367.489
365.277
363.348
361.649
360.139
358.782
357.553
356.431
355.399
354.443
353.552
352.717
351.932
351.189
350.484
349.812
349.171
348.556
347.965
347.396
346.848
346.318
345.805
345.308
344.825
344.356
343.901
343.457
343.025
342.604
342.193
341.793
341.402
341.02
340.647
340.283
339.928
339.58
339.24
338.909
338.584
338.268
337.958
337.656
337.361
337.072
336.791
336.516
336.248
335.987
335.732
335.484
335.243
335.007
334.778
334.556
334.339
334.129
333.925
333.728
333.536
333.35
333.171
332.998
332.831
332.669
332.514
332.365
332.222
332.084
331.953
331.828
331.708
331.595
331.487
331.385
331.289
331.199
331.115
331.037
330.964
330.897
330.837
330.782
330.732
330.689
330.651
330.619
330.593
330.573
330.559
330.55
330.547
397.324
392.099
387.203
382.758
378.802
375.319
372.265
369.584
367.222
365.127
363.256
361.573
360.048
358.656
357.377
356.194
355.094
354.066
353.099
352.187
351.322
350.5
349.716
348.966
348.246
347.554
346.887
346.243
345.621
345.018
344.434
343.866
343.315
342.778
342.256
341.747
341.251
340.767
340.295
339.834
339.384
338.945
338.516
338.096
337.686
337.286
336.894
336.512
336.138
335.773
335.416
335.068
334.727
334.395
334.071
333.755
333.447
333.146
332.853
332.568
332.29
332.02
331.757
331.501
331.253
331.013
330.779
330.553
330.334
330.122
329.918
329.72
329.53
329.346
329.17
329.001
328.839
328.684
328.536
328.395
328.261
328.134
328.013
327.9
327.794
327.694
327.602
327.516
327.437
327.366
327.301
327.242
327.191
327.147
327.109
327.078
327.055
327.037
327.027
327.024
397.624
392.954
388.501
384.363
380.584
377.172
374.109
371.364
368.901
366.683
364.677
362.853
361.184
359.65
358.231
356.911
355.679
354.522
353.431
352.399
351.419
350.485
349.592
348.737
347.915
347.124
346.361
345.624
344.911
344.22
343.55
342.899
342.265
341.649
341.049
340.464
339.894
339.338
338.795
338.265
337.747
337.242
336.747
336.265
335.793
335.331
334.881
334.44
334.01
333.589
333.178
332.777
332.385
332.003
331.629
331.265
330.91
330.563
330.226
329.897
329.577
329.265
328.962
328.668
328.382
328.105
327.836
327.575
327.323
327.079
326.843
326.615
326.396
326.185
325.981
325.787
325.6
325.421
325.25
325.088
324.933
324.787
324.648
324.517
324.395
324.28
324.174
324.075
323.984
323.901
323.826
323.759
323.7
323.649
323.606
323.57
323.543
323.523
323.511
323.507
397.845
393.591
389.487
385.609
382
378.676
375.637
372.864
370.337
368.031
365.919
363.979
362.19
360.532
358.989
357.546
356.192
354.917
353.71
352.565
351.474
350.433
349.437
348.48
347.56
346.673
345.817
344.989
344.187
343.41
342.655
341.922
341.208
340.513
339.837
339.177
338.533
337.905
337.292
336.694
336.109
335.537
334.979
334.433
333.9
333.378
332.869
332.371
331.884
331.408
330.944
330.49
330.046
329.614
329.191
328.779
328.377
327.985
327.603
327.231
326.869
326.516
326.173
325.84
325.517
325.203
324.898
324.603
324.318
324.041
323.774
323.517
323.268
323.029
322.799
322.579
322.367
322.165
321.972
321.788
321.613
321.447
321.29
321.142
321.003
320.874
320.753
320.641
320.538
320.444
320.36
320.284
320.217
320.159
320.11
320.07
320.038
320.016
320.003
319.998
398.012
394.076
390.248
386.587
383.131
379.9
376.899
374.122
371.556
369.186
366.993
364.96
363.068
361.303
359.651
358.098
356.633
355.248
353.933
352.682
351.488
350.345
349.248
348.194
347.179
346.2
345.253
344.336
343.448
342.586
341.749
340.934
340.142
339.37
338.617
337.884
337.168
336.469
335.786
335.12
334.469
333.832
333.21
332.602
332.007
331.426
330.858
330.303
329.76
329.23
328.712
328.206
327.711
327.228
326.757
326.297
325.849
325.412
324.986
324.57
324.166
323.773
323.39
323.019
322.658
322.307
321.967
321.638
321.319
321.011
320.713
320.426
320.148
319.882
319.625
319.379
319.143
318.917
318.701
318.496
318.3
318.115
317.94
317.775
317.62
317.475
317.34
317.216
317.101
316.996
316.902
316.817
316.742
316.677
316.623
316.578
316.543
316.518
316.503
316.498
398.141
394.452
390.844
387.363
384.04
380.895
377.939
375.17
372.583
370.168
367.912
365.802
363.825
361.967
360.218
358.566
357.001
355.515
354.1
352.749
351.457
350.217
349.026
347.878
346.772
345.702
344.668
343.665
342.693
341.748
340.83
339.936
339.066
338.218
337.391
336.585
335.797
335.029
334.278
333.544
332.827
332.126
331.441
330.771
330.116
329.476
328.85
328.238
327.64
327.055
326.483
325.925
325.38
324.848
324.328
323.821
323.326
322.844
322.374
321.916
321.47
321.036
320.614
320.204
319.806
319.419
319.044
318.681
318.329
317.989
317.66
317.343
317.037
316.742
316.459
316.187
315.927
315.677
315.439
315.213
314.997
314.793
314.599
314.417
314.246
314.086
313.938
313.8
313.673
313.558
313.453
313.36
313.277
313.206
313.145
313.096
313.058
313.03
313.014
313.008
398.241
394.748
391.315
387.98
384.771
381.705
378.794
376.04
373.442
370.995
368.689
366.517
364.467
362.529
360.694
358.953
357.297
355.718
354.21
352.766
351.381
350.05
348.768
347.531
346.336
345.18
344.061
342.975
341.92
340.895
339.897
338.926
337.98
337.058
336.158
335.28
334.422
333.584
332.766
331.966
331.184
330.419
329.672
328.941
328.226
327.527
326.843
326.175
325.522
324.883
324.259
323.649
323.054
322.472
321.904
321.35
320.81
320.283
319.769
319.268
318.781
318.307
317.845
317.397
316.961
316.539
316.129
315.732
315.347
314.975
314.615
314.269
313.934
313.612
313.302
313.005
312.72
312.448
312.188
311.94
311.704
311.48
311.269
311.07
310.883
310.708
310.545
310.395
310.256
310.13
310.015
309.913
309.823
309.745
309.679
309.625
309.583
309.553
309.535
309.529
398.321
394.981
391.689
388.475
385.361
382.363
379.494
376.757
374.154
371.683
369.339
367.114
365.002
362.994
361.083
359.262
357.522
355.858
354.264
352.733
351.26
349.842
348.474
347.152
345.873
344.633
343.431
342.264
341.13
340.026
338.952
337.905
336.884
335.889
334.917
333.968
333.041
332.136
331.25
330.385
329.539
328.712
327.902
327.111
326.337
325.58
324.839
324.115
323.407
322.715
322.039
321.378
320.733
320.102
319.486
318.886
318.3
317.728
317.171
316.628
316.099
315.585
315.085
314.598
314.126
313.667
313.223
312.792
312.374
311.971
311.581
311.204
310.842
310.492
310.156
309.834
309.525
309.229
308.946
308.677
308.421
308.179
307.95
307.733
307.531
307.341
307.164
307.001
306.851
306.713
306.589
306.478
306.381
306.296
306.224
306.165
306.12
306.087
306.068
306.061
398.384
395.167
391.988
388.871
385.835
382.896
380.064
377.344
374.739
372.25
369.873
367.604
365.438
363.368
361.39
359.496
357.68
355.937
354.262
352.65
351.095
349.595
348.144
346.741
345.38
344.061
342.779
341.533
340.322
339.142
337.992
336.871
335.778
334.711
333.668
332.65
331.655
330.683
329.732
328.802
327.893
327.003
326.133
325.282
324.449
323.635
322.838
322.059
321.297
320.552
319.824
319.112
318.417
317.738
317.075
316.428
315.796
315.181
314.581
313.996
313.426
312.872
312.333
311.809
311.3
310.805
310.326
309.862
309.412
308.977
308.557
308.151
307.76
307.383
307.021
306.673
306.34
306.021
305.717
305.427
305.151
304.89
304.642
304.409
304.191
303.986
303.796
303.62
303.457
303.31
303.176
303.056
302.951
302.859
302.782
302.719
302.67
302.634
302.613
302.606
398.434
395.315
392.226
389.188
386.216
383.325
380.524
377.819
375.214
372.709
370.305
367.997
365.784
363.659
361.619
359.659
357.773
355.958
354.208
352.519
350.887
349.308
347.78
346.298
344.86
343.463
342.104
340.783
339.496
338.242
337.019
335.826
334.661
333.523
332.412
331.326
330.264
329.226
328.211
327.218
326.246
325.295
324.365
323.455
322.564
321.693
320.84
320.006
319.191
318.394
317.614
316.852
316.108
315.381
314.671
313.977
313.301
312.642
311.999
311.372
310.762
310.168
309.59
309.029
308.483
307.954
307.44
306.943
306.461
305.994
305.544
305.109
304.69
304.286
303.898
303.525
303.168
302.826
302.5
302.189
301.893
301.613
301.348
301.098
300.864
300.645
300.44
300.252
300.078
299.919
299.776
299.648
299.535
299.437
299.354
299.286
299.233
299.196
299.173
299.165
398.474
395.431
392.414
389.439
386.52
383.668
380.892
378.199
375.592
373.074
370.645
368.304
366.047
363.873
361.777
359.756
357.806
355.923
354.102
352.342
350.636
348.984
347.381
345.824
344.311
342.839
341.407
340.012
338.652
337.326
336.031
334.768
333.533
332.327
331.149
329.996
328.869
327.766
326.687
325.631
324.598
323.587
322.597
321.628
320.681
319.753
318.846
317.958
317.089
316.24
315.41
314.598
313.805
313.03
312.274
311.535
310.814
310.111
309.426
308.758
308.108
307.474
306.858
306.26
305.678
305.113
304.566
304.035
303.521
303.024
302.543
302.079
301.632
301.202
300.788
300.39
300.009
299.645
299.297
298.965
298.65
298.351
298.068
297.801
297.551
297.317
297.1
296.898
296.713
296.544
296.391
296.254
296.133
296.029
295.94
295.868
295.812
295.771
295.747
295.739
398.505
395.523
392.563
389.637
386.759
383.937
381.181
378.496
375.887
373.356
370.904
368.531
366.236
364.016
361.869
359.791
357.781
355.835
353.948
352.12
350.345
348.622
346.948
345.319
343.735
342.191
340.687
339.221
337.79
336.394
335.03
333.698
332.396
331.123
329.877
328.659
327.468
326.301
325.16
324.043
322.949
321.878
320.83
319.804
318.8
317.817
316.855
315.914
314.993
314.093
313.212
312.351
311.51
310.688
309.885
309.101
308.336
307.59
306.863
306.154
305.463
304.791
304.137
303.502
302.884
302.285
301.703
301.14
300.594
300.066
299.556
299.063
298.588
298.131
297.691
297.269
296.865
296.477
296.108
295.755
295.42
295.103
294.802
294.519
294.254
294.005
293.774
293.56
293.363
293.183
293.021
292.876
292.747
292.636
292.542
292.465
292.406
292.363
292.337
292.329
398.529
395.594
392.677
389.79
386.943
384.145
381.403
378.723
376.109
373.565
371.091
368.689
366.357
364.094
361.899
359.77
357.703
355.697
353.749
351.856
350.015
348.225
346.483
344.786
343.132
341.519
339.946
338.411
336.912
335.447
334.016
332.617
331.248
329.909
328.599
327.317
326.062
324.834
323.631
322.453
321.3
320.171
319.065
317.982
316.922
315.884
314.869
313.875
312.902
311.951
311.021
310.111
309.222
308.353
307.505
306.676
305.868
305.079
304.31
303.56
302.83
302.12
301.428
300.756
300.103
299.469
298.854
298.257
297.68
297.122
296.582
296.061
295.558
295.075
294.61
294.163
293.735
293.325
292.934
292.561
292.207
291.871
291.553
291.253
290.972
290.709
290.464
290.238
290.03
289.84
289.668
289.514
289.378
289.26
289.161
289.08
289.016
288.971
288.944
288.935
398.547
395.648
392.764
389.906
387.082
384.3
381.567
378.888
376.268
373.71
371.214
368.783
366.417
364.114
361.874
359.695
357.575
355.513
353.506
351.552
349.649
347.794
345.987
344.224
342.504
340.824
339.185
337.583
336.017
334.486
332.989
331.524
330.091
328.688
327.314
325.97
324.653
323.363
322.1
320.863
319.651
318.464
317.301
316.163
315.048
313.956
312.887
311.841
310.818
309.816
308.837
307.879
306.943
306.028
305.134
304.261
303.41
302.579
301.768
300.978
300.209
299.46
298.731
298.023
297.334
296.666
296.018
295.389
294.781
294.192
293.623
293.073
292.544
292.034
291.543
291.072
290.621
290.189
289.776
289.383
289.009
288.655
288.32
288.004
287.707
287.43
287.172
286.933
286.714
286.513
286.332
286.169
286.026
285.902
285.797
285.712
285.645
285.597
285.569
285.559
398.56
395.688
392.828
389.99
387.181
384.41
381.681
379
376.371
373.797
371.28
368.822
366.422
364.081
361.798
359.572
357.402
355.286
353.223
351.21
349.247
347.331
345.461
343.635
341.851
340.107
338.403
336.736
335.106
333.511
331.949
330.421
328.924
327.459
326.023
324.617
323.239
321.89
320.567
319.272
318.002
316.758
315.54
314.346
313.177
312.032
310.911
309.814
308.74
307.689
306.661
305.655
304.672
303.712
302.773
301.857
300.962
300.089
299.238
298.408
297.6
296.813
296.048
295.303
294.58
293.877
293.196
292.536
291.896
291.277
290.679
290.102
289.545
289.009
288.493
287.998
287.523
287.069
286.636
286.222
285.829
285.457
285.104
284.772
284.461
284.169
283.898
283.647
283.416
283.205
283.014
282.844
282.693
282.563
282.452
282.362
282.292
282.242
282.212
282.202
398.57
395.715
392.871
390.046
387.247
384.481
381.752
379.066
376.426
373.835
371.296
368.81
366.378
363.999
361.675
359.404
357.186
355.019
352.902
350.834
348.813
346.839
344.908
343.021
341.175
339.369
337.602
335.873
334.18
332.522
330.898
329.307
327.749
326.222
324.726
323.26
321.823
320.414
319.033
317.68
316.354
315.055
313.781
312.533
311.311
310.114
308.941
307.793
306.669
305.569
304.493
303.441
302.412
301.406
300.423
299.463
298.526
297.612
296.72
295.851
295.005
294.18
293.378
292.598
291.84
291.104
290.39
289.697
289.027
288.378
287.751
287.146
286.563
286.001
285.46
284.941
284.444
283.968
283.513
283.08
282.668
282.277
281.908
281.559
281.233
280.927
280.642
280.379
280.137
279.916
279.716
279.537
279.379
279.243
279.127
279.032
278.959
278.906
278.875
278.864
398.575
395.732
392.897
390.079
387.285
384.519
381.786
379.091
376.438
373.829
371.267
368.753
366.289
363.874
361.51
359.196
356.931
354.715
352.547
350.425
348.349
346.317
344.329
342.383
340.477
338.611
336.783
334.993
333.239
331.52
329.836
328.184
326.566
324.979
323.424
321.898
320.403
318.937
317.499
316.09
314.708
313.353
312.026
310.725
309.45
308.201
306.977
305.779
304.606
303.458
302.334
301.236
300.161
299.11
298.084
297.081
296.103
295.147
294.216
293.308
292.423
291.561
290.723
289.907
289.115
288.345
287.599
286.875
286.175
285.496
284.841
284.208
283.598
283.01
282.445
281.903
281.382
280.884
280.409
279.956
279.525
279.116
278.73
278.366
278.024
277.704
277.407
277.131
276.878
276.647
276.438
276.251
276.086
275.943
275.822
275.723
275.646
275.591
275.558
275.547
398.578
395.739
392.908
390.093
387.297
384.527
381.787
379.081
376.412
373.784
371.198
368.656
366.16
363.71
361.307
358.95
356.641
354.377
352.159
349.986
347.856
345.77
343.726
341.722
339.759
337.834
335.948
334.098
332.285
330.507
328.763
327.053
325.375
323.73
322.116
320.534
318.981
317.458
315.964
314.5
313.063
311.655
310.274
308.92
307.594
306.294
305.02
303.773
302.551
301.355
300.185
299.04
297.921
296.826
295.757
294.712
293.692
292.696
291.725
290.778
289.855
288.957
288.083
287.232
286.406
285.604
284.825
284.07
283.339
282.632
281.948
281.288
280.652
280.039
279.449
278.883
278.34
277.821
277.325
276.852
276.402
275.976
275.573
275.193
274.836
274.503
274.192
273.905
273.64
273.399
273.181
272.986
272.813
272.664
272.538
272.435
272.354
272.297
272.263
272.251
398.578
395.739
392.907
390.089
387.288
384.511
381.76
379.04
376.354
373.704
371.093
368.523
365.995
363.51
361.069
358.672
356.318
354.008
351.742
349.519
347.338
345.198
343.1
341.041
339.022
337.04
335.097
333.19
331.319
329.483
327.681
325.913
324.178
322.476
320.805
319.166
317.557
315.979
314.43
312.911
311.421
309.96
308.526
307.121
305.743
304.393
303.07
301.774
300.505
299.263
298.046
296.856
295.692
294.554
293.442
292.355
291.294
290.258
289.248
288.263
287.303
286.368
285.459
284.574
283.714
282.879
282.069
281.283
280.522
279.786
279.074
278.387
277.724
277.086
276.472
275.883
275.318
274.777
274.261
273.768
273.3
272.856
272.437
272.041
271.67
271.322
270.999
270.7
270.424
270.173
269.946
269.743
269.563
269.408
269.276
269.169
269.085
269.026
268.99
268.978
398.576
395.732
392.895
390.07
387.261
384.472
381.708
378.971
376.266
373.594
370.957
368.358
365.799
363.279
360.8
358.362
355.966
353.612
351.298
349.027
346.795
344.604
342.453
340.341
338.267
336.23
334.231
332.268
330.341
328.448
326.59
324.766
322.975
321.217
319.491
317.796
316.133
314.5
312.897
311.325
309.782
308.268
306.784
305.327
303.9
302.5
301.129
299.785
298.469
297.18
295.918
294.683
293.475
292.294
291.14
290.012
288.91
287.835
286.786
285.763
284.767
283.796
282.851
281.932
281.039
280.172
279.33
278.514
277.724
276.959
276.22
275.506
274.817
274.154
273.516
272.904
272.317
271.755
271.218
270.706
270.22
269.759
269.323
268.911
268.525
268.164
267.828
267.517
267.231
266.97
266.734
266.523
266.336
266.175
266.038
265.926
265.839
265.777
265.74
265.727
398.572
395.72
392.873
390.037
387.216
384.414
381.634
378.879
376.152
373.456
370.793
368.165
365.573
363.019
360.502
358.025
355.587
353.189
350.83
348.511
346.231
343.99
341.787
339.623
337.496
335.406
333.352
331.335
329.353
327.405
325.492
323.613
321.767
319.954
318.173
316.425
314.707
313.021
311.366
309.741
308.146
306.582
305.046
303.54
302.063
300.615
299.196
297.805
296.442
295.107
293.801
292.522
291.271
290.048
288.852
287.683
286.541
285.427
284.34
283.28
282.247
281.241
280.261
279.309
278.383
277.484
276.611
275.765
274.945
274.152
273.385
272.645
271.931
271.243
270.581
269.946
269.337
268.754
268.197
267.667
267.162
266.684
266.231
265.805
265.404
265.03
264.681
264.358
264.062
263.791
263.546
263.326
263.133
262.965
262.824
262.708
262.617
262.553
262.514
262.501
398.566
395.702
392.843
389.994
387.158
384.339
381.541
378.766
376.016
373.295
370.605
367.947
365.322
362.733
360.18
357.663
355.184
352.743
350.34
347.974
345.646
343.356
341.104
338.888
336.71
334.568
332.461
330.391
328.355
326.354
324.387
322.454
320.555
318.688
316.854
315.052
313.283
311.544
309.837
308.161
306.515
304.9
303.315
301.76
300.234
298.738
297.272
295.834
294.426
293.047
291.696
290.374
289.08
287.815
286.578
285.369
284.188
283.035
281.911
280.814
279.745
278.703
277.69
276.704
275.745
274.814
273.911
273.035
272.187
271.365
270.572
269.805
269.066
268.353
267.669
267.011
266.38
265.776
265.2
264.65
264.128
263.632
263.164
262.722
262.307
261.919
261.558
261.224
260.916
260.636
260.382
260.155
259.954
259.781
259.634
259.514
259.42
259.354
259.314
259.3
398.559
395.68
392.805
389.94
387.087
384.25
381.431
378.634
375.86
373.113
370.394
367.705
365.049
362.424
359.834
357.279
354.76
352.276
349.829
347.418
345.044
342.706
340.405
338.14
335.911
333.718
331.56
329.437
327.349
325.296
323.277
321.291
319.339
317.42
315.534
313.68
311.859
310.069
308.311
306.584
304.889
303.224
301.59
299.987
298.414
296.871
295.358
293.875
292.421
290.998
289.603
288.238
286.903
285.596
284.319
283.07
281.851
280.66
279.498
278.365
277.26
276.184
275.137
274.118
273.127
272.165
271.232
270.326
269.449
268.6
267.78
266.987
266.223
265.487
264.778
264.098
263.446
262.822
262.226
261.658
261.117
260.605
260.12
259.663
259.234
258.833
258.46
258.114
257.796
257.506
257.244
257.009
256.801
256.622
256.47
256.346
256.249
256.18
256.139
256.125
398.55
395.654
392.762
389.878
387.005
384.147
381.306
378.485
375.686
372.912
370.164
367.444
364.754
362.096
359.469
356.875
354.316
351.79
349.3
346.845
344.425
342.041
339.692
337.378
335.1
332.857
330.649
328.475
326.337
324.232
322.161
320.124
318.121
316.151
314.213
312.309
310.437
308.597
306.789
305.012
303.268
301.555
299.873
298.222
296.602
295.013
293.454
291.926
290.428
288.961
287.524
286.117
284.74
283.392
282.075
280.788
279.53
278.302
277.103
275.934
274.794
273.684
272.603
271.552
270.53
269.537
268.573
267.639
266.733
265.857
265.01
264.192
263.403
262.643
261.912
261.21
260.536
259.892
259.276
258.69
258.132
257.603
257.102
256.631
256.188
255.773
255.388
255.031
254.702
254.403
254.132
253.889
253.675
253.49
253.333
253.204
253.105
253.033
252.991
252.976
398.54
395.625
392.712
389.808
386.914
384.033
381.169
378.323
375.497
372.694
369.917
367.165
364.442
361.748
359.085
356.454
353.854
351.288
348.755
346.256
343.792
341.361
338.966
336.605
334.279
331.987
329.729
327.506
325.318
323.163
321.042
318.955
316.901
314.881
312.893
310.939
309.017
307.128
305.271
303.446
301.653
299.892
298.163
296.466
294.8
293.165
291.562
289.989
288.448
286.938
285.458
284.01
282.592
281.205
279.848
278.522
277.226
275.961
274.726
273.522
272.348
271.204
270.09
269.006
267.953
266.93
265.937
264.973
264.04
263.137
262.264
261.42
260.607
259.823
259.069
258.346
257.651
256.987
256.352
255.747
255.172
254.626
254.11
253.624
253.167
252.74
252.342
251.974
251.635
251.326
251.047
250.797
250.576
250.385
250.223
250.09
249.988
249.914
249.87
249.855
398.53
395.592
392.658
389.731
386.814
383.91
381.02
378.147
375.294
372.462
369.654
366.871
364.114
361.385
358.686
356.016
353.377
350.77
348.196
345.654
343.145
340.67
338.229
335.822
333.448
331.109
328.803
326.532
324.294
322.09
319.92
317.784
315.681
313.611
311.574
309.571
307.601
305.663
303.758
301.886
300.046
298.238
296.462
294.719
293.008
291.328
289.681
288.065
286.481
284.928
283.407
281.918
280.46
279.033
277.638
276.274
274.941
273.639
272.369
271.129
269.921
268.744
267.598
266.482
265.398
264.345
263.322
262.331
261.37
260.44
259.541
258.673
257.835
257.028
256.252
255.507
254.792
254.108
253.454
252.831
252.239
251.677
251.145
250.644
250.174
249.734
249.324
248.945
248.596
248.278
247.99
247.732
247.505
247.308
247.141
247.005
246.899
246.823
246.777
246.762
398.518
395.557
392.6
389.649
386.707
383.777
380.861
377.961
375.079
372.217
369.378
366.562
363.772
361.008
358.272
355.564
352.887
350.24
347.624
345.04
342.488
339.969
337.482
335.029
332.61
330.223
327.871
325.552
323.266
321.014
318.796
316.611
314.46
312.342
310.258
308.206
306.188
304.203
302.251
300.332
298.445
296.592
294.771
292.982
291.227
289.503
287.812
286.154
284.527
282.933
281.371
279.842
278.344
276.878
275.445
274.043
272.674
271.336
270.031
268.757
267.515
266.305
265.127
263.98
262.866
261.783
260.731
259.712
258.724
257.768
256.843
255.95
255.089
254.259
253.461
252.694
251.959
251.255
250.583
249.942
249.332
248.754
248.208
247.692
247.208
246.756
246.334
245.944
245.585
245.258
244.961
244.696
244.462
244.26
244.088
243.948
243.839
243.761
243.714
243.698
398.506
395.52
392.538
389.561
386.594
383.637
380.693
377.765
374.853
371.961
369.09
366.242
363.417
360.618
357.845
355.101
352.384
349.697
347.041
344.415
341.821
339.258
336.728
334.23
331.765
329.333
326.934
324.568
322.236
319.937
317.671
315.439
313.241
311.076
308.944
306.846
304.781
302.749
300.751
298.785
296.854
294.955
293.089
291.256
289.457
287.69
285.957
284.256
282.588
280.953
279.351
277.782
276.245
274.741
273.27
271.832
270.426
269.053
267.713
266.405
265.13
263.888
262.678
261.501
260.356
259.244
258.164
257.117
256.103
255.12
254.171
253.253
252.368
251.516
250.696
249.908
249.153
248.43
247.739
247.08
246.454
245.86
245.298
244.769
244.272
243.806
243.373
242.973
242.604
242.267
241.963
241.69
241.45
241.242
241.065
240.921
240.809
240.729
240.681
240.664
398.493
395.481
392.472
389.469
386.474
383.49
380.518
377.56
374.619
371.696
368.792
365.911
363.052
360.217
357.408
354.626
351.871
349.145
346.448
343.781
341.145
338.54
335.966
333.424
330.914
328.437
325.993
323.582
321.203
318.858
316.546
314.268
312.023
309.812
307.634
305.489
303.379
301.301
299.257
297.247
295.271
293.328
291.418
289.542
287.699
285.89
284.115
282.373
280.664
278.989
277.347
275.739
274.164
272.622
271.114
269.64
268.199
266.791
265.416
264.075
262.768
261.493
260.252
259.045
257.87
256.729
255.622
254.547
253.506
252.499
251.524
250.583
249.675
248.8
247.958
247.15
246.374
245.632
244.923
244.247
243.605
242.995
242.418
241.875
241.364
240.887
240.442
240.031
239.652
239.307
238.994
238.714
238.468
238.254
238.073
237.925
237.81
237.727
237.678
237.661
398.479
395.44
392.404
389.373
386.351
383.337
380.336
377.348
374.376
371.421
368.486
365.57
362.677
359.807
356.962
354.142
351.35
348.584
345.848
343.14
340.462
337.815
335.198
332.613
330.06
327.539
325.05
322.594
320.17
317.78
315.423
313.099
310.808
308.551
306.328
304.139
301.983
299.861
297.772
295.718
293.697
291.711
289.758
287.839
285.955
284.104
282.287
280.504
278.755
277.041
275.36
273.713
272.101
270.522
268.978
267.468
265.991
264.549
263.141
261.767
260.427
259.122
257.85
256.613
255.409
254.24
253.104
252.003
250.936
249.903
248.904
247.939
247.008
246.111
245.248
244.419
243.625
242.864
242.137
241.444
240.785
240.159
239.568
239.011
238.487
237.998
237.542
237.12
236.732
236.377
236.057
235.77
235.517
235.297
235.112
234.96
234.842
234.757
234.707
234.689
398.465
395.398
392.334
389.274
386.222
383.18
380.148
377.13
374.127
371.14
368.171
365.222
362.294
359.389
356.508
353.651
350.82
348.016
345.24
342.492
339.774
337.085
334.426
331.799
329.202
326.638
324.105
321.605
319.137
316.702
314.301
311.932
309.597
307.296
305.028
302.794
300.594
298.428
296.296
294.198
292.135
290.105
288.11
286.15
284.223
282.332
280.474
278.652
276.863
275.11
273.391
271.706
270.057
268.442
266.862
265.316
263.805
262.33
260.888
259.482
258.111
256.774
255.472
254.205
252.973
251.775
250.613
249.485
248.392
247.335
246.311
245.323
244.37
243.451
242.567
241.718
240.904
240.124
239.38
238.67
237.995
237.354
236.748
236.177
235.641
235.139
234.672
234.24
233.842
233.479
233.151
232.857
232.597
232.373
232.183
232.027
231.906
231.82
231.768
231.75
398.451
395.355
392.261
389.172
386.091
383.018
379.956
376.906
373.871
370.852
367.85
364.867
361.905
358.964
356.047
353.153
350.285
347.442
344.627
341.839
339.08
336.351
333.651
330.981
328.343
325.735
323.16
320.616
318.105
315.627
313.182
310.769
308.391
306.045
303.734
301.457
299.213
297.004
294.829
292.689
290.583
288.512
286.475
284.473
282.506
280.574
278.677
276.815
274.988
273.196
271.44
269.718
268.032
266.381
264.766
263.186
261.641
260.132
258.658
257.22
255.817
254.45
253.119
251.823
250.562
249.337
248.148
246.994
245.876
244.794
243.747
242.736
241.76
240.82
239.915
239.046
238.213
237.415
236.653
235.927
235.236
234.58
233.96
233.376
232.827
232.313
231.835
231.392
230.985
230.614
230.277
229.976
229.711
229.481
229.286
229.127
229.003
228.915
228.861
228.843
398.436
395.31
392.187
389.068
385.956
382.853
379.759
376.678
373.611
370.559
367.524
364.507
361.51
358.534
355.58
352.65
349.744
346.863
344.009
341.183
338.384
335.614