/*--------------------------------*- C++ -*----------------------------------*\
  =========                 |
  \\      /  F ield         | OpenFOAM: The Open Source CFD Toolbox
   \\    /   O peration     | Website:  https://openfoam.org
    \\  /    A nd           | Version:  10
     \\/     M anipulation  |
\*---------------------------------------------------------------------------*/
FoamFile
{
    format      ascii;
    class       volScalarField;
    location    "45.5";
    object      ddt0(T);
}
// * * * * * * * * * * * * * * * * * * * * * * * * * * * * * * * * * * * * * //

dimensions      [0 0 -1 1 0 0 0];

internalField   nonuniform List<scalar> 
10000
(
280.57
0.540102
46.7111
44.003
43.8324
43.8935
43.8977
43.8973
43.8979
43.8986
43.8992
43.8998
43.9005
43.9011
43.9017
43.9023
43.9029
43.9035
43.9041
43.9047
43.9052
43.9058
43.9064
43.907
43.9075
43.9081
43.9086
43.9092
43.9097
43.9103
43.9108
43.9113
43.9119
43.9124
43.9129
43.9134
43.9139
43.9144
43.9149
43.9154
43.9159
43.9163
43.9168
43.9173
43.9177
43.9182
43.9186
43.919
43.9195
43.9199
43.9203
43.9207
43.9211
43.9215
43.9219
43.9222
43.9226
43.923
43.9233
43.9236
43.924
43.9243
43.9246
43.9249
43.9252
43.9255
43.9258
43.9261
43.9264
43.9266
43.9269
43.9271
43.9274
43.9276
43.9278
43.928
43.9282
43.9284
43.9286
43.9288
43.929
43.9291
43.9293
43.9294
43.9295
43.9297
43.9298
43.9299
43.93
43.9301
43.9302
43.9302
43.9303
43.9303
43.9298
43.9273
43.9598
44.4156
42.2757
30.1226
11.3666
-44.833
-12.4399
-19.1675
-19.1001
-18.9548
-18.9544
-18.957
-18.9556
-18.9537
-18.9518
-18.95
-18.9482
-18.9464
-18.9446
-18.9428
-18.941
-18.9393
-18.9375
-18.9358
-18.934
-18.9323
-18.9306
-18.9289
-18.9272
-18.9255
-18.9238
-18.9222
-18.9205
-18.9189
-18.9173
-18.9157
-18.9141
-18.9126
-18.911
-18.9095
-18.908
-18.9065
-18.905
-18.9036
-18.9021
-18.9007
-18.8993
-18.8979
-18.8966
-18.8952
-18.8939
-18.8926
-18.8913
-18.8901
-18.8888
-18.8876
-18.8864
-18.8853
-18.8841
-18.883
-18.8819
-18.8808
-18.8798
-18.8787
-18.8777
-18.8768
-18.8758
-18.8749
-18.874
-18.8731
-18.8722
-18.8714
-18.8706
-18.8698
-18.869
-18.8683
-18.8676
-18.8669
-18.8662
-18.8656
-18.865
-18.8644
-18.8639
-18.8633
-18.8628
-18.8623
-18.8619
-18.8615
-18.8611
-18.8607
-18.8603
-18.86
-18.8597
-18.8594
-18.8592
-18.859
-18.8587
-18.8585
-18.8587
-18.8659
-18.8798
-18.6303
-19.0834
-12.4575
52.3718
-15.9312
11.1238
4.62737
4.91487
5.07908
5.07666
5.07443
5.07719
5.08038
5.08345
5.08648
5.08949
5.0925
5.09549
5.09847
5.10144
5.10439
5.10733
5.11024
5.11315
5.11603
5.11889
5.12173
5.12456
5.12736
5.13014
5.13289
5.13563
5.13833
5.14102
5.14367
5.1463
5.14891
5.15148
5.15403
5.15655
5.15904
5.1615
5.16393
5.16632
5.16869
5.17102
5.17332
5.17559
5.17782
5.18002
5.18218
5.18431
5.1864
5.18845
5.19047
5.19246
5.1944
5.19631
5.19818
5.20001
5.2018
5.20355
5.20527
5.20694
5.20858
5.21017
5.21173
5.21324
5.21472
5.21615
5.21754
5.21889
5.2202
5.22146
5.22269
5.22387
5.22501
5.22611
5.22717
5.22818
5.22915
5.23008
5.23097
5.23181
5.23261
5.23337
5.23408
5.23475
5.23538
5.23596
5.23651
5.237
5.23746
5.23787
5.23823
5.23858
5.23905
5.23931
5.23241
5.20175
5.29523
4.68076
3.90361
50.2549
-21.835
5.40612
-0.835477
-0.512381
-0.35293
-0.356764
-0.358071
-0.354059
-0.349632
-0.345349
-0.341115
-0.336896
-0.332692
-0.328506
-0.324338
-0.320189
-0.316062
-0.311957
-0.307875
-0.303817
-0.299784
-0.295779
-0.291801
-0.287851
-0.283932
-0.280043
-0.276187
-0.272363
-0.268574
-0.264819
-0.261101
-0.257419
-0.253775
-0.25017
-0.246605
-0.24308
-0.239597
-0.236156
-0.232758
-0.229404
-0.226094
-0.22283
-0.219612
-0.216441
-0.213317
-0.210241
-0.207214
-0.204237
-0.201309
-0.198432
-0.195606
-0.192832
-0.19011
-0.18744
-0.184824
-0.182262
-0.179753
-0.177299
-0.1749
-0.172557
-0.170268
-0.168036
-0.165861
-0.163742
-0.16168
-0.159675
-0.157728
-0.155838
-0.154007
-0.152234
-0.15052
-0.148864
-0.147267
-0.145729
-0.144251
-0.142832
-0.141473
-0.140173
-0.138934
-0.137754
-0.136634
-0.135575
-0.134576
-0.133638
-0.13276
-0.131943
-0.131186
-0.13049
-0.129855
-0.129282
-0.128773
-0.128297
-0.127607
-0.126042
-0.125744
-0.136667
-0.0606953
0.0317379
-0.157354
50.1129
-21.7918
5.65454
-0.551009
-0.231789
-0.074688
-0.0779362
-0.0780119
-0.0727525
-0.0671048
-0.0616106
-0.0561684
-0.0507458
-0.0453424
-0.0399609
-0.0346031
-0.0292705
-0.0239648
-0.0186874
-0.0134399
-0.00822373
-0.0030404
0.00210867
0.00722207
0.0122984
0.0173362
0.0223343
0.0272912
0.0322056
0.0370763
0.0419019
0.0466813
0.0514132
0.0560963
0.0607296
0.0653119
0.0698421
0.074319
0.0787416
0.0831089
0.0874198
0.0916734
0.0958687
0.100005
0.104081
0.108096
0.112049
0.115939
0.119766
0.123528
0.127226
0.130858
0.134424
0.137922
0.141353
0.144715
0.148009
0.151232
0.154386
0.15747
0.160482
0.163423
0.166291
0.169088
0.171811
0.174461
0.177038
0.17954
0.181969
0.184322
0.186601
0.188804
0.190932
0.192985
0.194961
0.196861
0.198685
0.200432
0.202102
0.203695
0.205211
0.20665
0.208011
0.209295
0.210502
0.21163
0.212681
0.213653
0.214548
0.215364
0.216101
0.216748
0.21729
0.217815
0.218782
0.21926
0.20922
0.210757
0.235379
0.253881
50.1645
-21.666
5.79911
-0.410497
-0.0935444
0.0639807
0.0619348
0.0631204
0.06961
0.0764733
0.0831776
0.0898259
0.0964505
0.103051
0.109625
0.11617
0.122685
0.129166
0.135613
0.142023
0.148395
0.154727
0.161017
0.167264
0.173465
0.179619
0.185725
0.19178
0.197784
0.203734
0.209629
0.215468
0.221248
0.226969
0.232629
0.238227
0.243761
0.24923
0.254633
0.259968
0.265235
0.270431
0.275556
0.280609
0.285588
0.290492
0.295322
0.300074
0.304749
0.309346
0.313863
0.3183
0.322655
0.326929
0.33112
0.335228
0.339251
0.343189
0.347042
0.350809
0.354489
0.358081
0.361586
0.365002
0.368329
0.371566
0.374714
0.377771
0.380737
0.383613
0.386396
0.389088
0.391688
0.394195
0.396609
0.39893
0.401158
0.403292
0.405333
0.407279
0.409131
0.410889
0.412552
0.41412
0.415594
0.416972
0.418256
0.419444
0.420537
0.421535
0.422438
0.42324
0.423922
0.424502
0.425327
0.426782
0.424964
0.421684
0.419039
0.427876
50.168
-21.6653
5.79759
-0.413245
-0.0956995
0.0630248
0.0622428
0.0646633
0.0723709
0.0804458
0.088358
0.0962105
0.104035
0.111832
0.119596
0.127327
0.135021
0.142676
0.15029
0.157862
0.165388
0.172867
0.180296
0.187674
0.194998
0.202267
0.209479
0.216631
0.223722
0.23075
0.237712
0.244608
0.251436
0.258193
0.264878
0.27149
0.278026
0.284486
0.290867
0.297169
0.303389
0.309526
0.31558
0.321547
0.327428
0.333221
0.338925
0.344538
0.35006
0.355489
0.360824
0.366065
0.371209
0.376257
0.381207
0.386059
0.390811
0.395463
0.400013
0.404462
0.408809
0.413052
0.417191
0.421226
0.425155
0.428979
0.432697
0.436308
0.439811
0.443207
0.446495
0.449675
0.452745
0.455706
0.458558
0.461299
0.46393
0.466451
0.468861
0.47116
0.473348
0.475424
0.477388
0.479241
0.480981
0.482609
0.484125
0.485529
0.486819
0.487998
0.489065
0.490018
0.490843
0.491512
0.492137
0.493139
0.49377
0.493777
0.491733
0.4938
50.1677
-21.6673
5.79605
-0.413852
-0.095083
0.0649006
0.0653534
0.0689928
0.0779129
0.0871969
0.0963147
0.105369
0.114392
0.123381
0.132334
0.141248
0.150119
0.158946
0.167726
0.176456
0.185134
0.193757
0.202324
0.210831
0.219276
0.227658
0.235973
0.24422
0.252396
0.2605
0.268528
0.276479
0.284352
0.292143
0.299852
0.307475
0.315012
0.32246
0.329818
0.337084
0.344256
0.351333
0.358313
0.365194
0.371975
0.378655
0.385231
0.391704
0.398071
0.404331
0.410482
0.416525
0.422457
0.428277
0.433985
0.439579
0.445058
0.450422
0.455669
0.460799
0.46581
0.470703
0.475476
0.480128
0.484659
0.489068
0.493355
0.497518
0.501558
0.505474
0.509265
0.512931
0.516471
0.519886
0.523174
0.526335
0.529369
0.532275
0.535054
0.537705
0.540227
0.542621
0.544886
0.547022
0.549029
0.550906
0.552654
0.554273
0.555761
0.55712
0.558349
0.55945
0.560418
0.561228
0.561876
0.562517
0.563173
0.563985
0.562399
0.564466
50.1683
-21.6657
5.79884
-0.409809
-0.0897955
0.0714179
0.0730887
0.0779407
0.0880702
0.0985606
0.108881
0.119135
0.129353
0.139533
0.149672
0.159766
0.169812
0.179808
0.189751
0.199637
0.209464
0.21923
0.228931
0.238564
0.248128
0.25762
0.267037
0.276376
0.285635
0.294811
0.303903
0.312907
0.321822
0.330646
0.339375
0.348008
0.356543
0.364978
0.37331
0.381539
0.389661
0.397675
0.405579
0.413371
0.42105
0.428615
0.436062
0.443392
0.450602
0.457691
0.464658
0.4715
0.478218
0.484809
0.491273
0.497608
0.503813
0.509887
0.515829
0.521638
0.527313
0.532854
0.538258
0.543527
0.548658
0.553651
0.558505
0.56322
0.567795
0.57223
0.576523
0.580674
0.584684
0.58855
0.592274
0.595853
0.599289
0.602581
0.605728
0.608729
0.611586
0.614297
0.616862
0.619281
0.621553
0.62368
0.625659
0.627492
0.629177
0.630715
0.632107
0.633352
0.634452
0.635398
0.63617
0.636779
0.637324
0.638439
0.636134
0.639166
50.169
-21.6638
5.80201
-0.405402
-0.0841684
0.0782607
0.0811433
0.0872044
0.0985404
0.110234
0.121755
0.133205
0.144615
0.155982
0.167304
0.178575
0.189794
0.200956
0.212058
0.223098
0.234072
0.244976
0.255809
0.266567
0.277246
0.287845
0.29836
0.308789
0.319128
0.329375
0.339527
0.349582
0.359537
0.36939
0.379137
0.388778
0.398308
0.407727
0.417031
0.426219
0.435289
0.444238
0.453064
0.461765
0.47034
0.478787
0.487104
0.495288
0.503339
0.511255
0.519035
0.526675
0.534177
0.541537
0.548754
0.555828
0.562757
0.56954
0.576175
0.582662
0.588999
0.595186
0.601221
0.607104
0.612834
0.618409
0.62383
0.629095
0.634204
0.639156
0.64395
0.648585
0.653062
0.65738
0.661538
0.665535
0.669372
0.673047
0.676561
0.679913
0.683103
0.68613
0.688994
0.691696
0.694233
0.696607
0.698818
0.700864
0.702746
0.704464
0.706018
0.707407
0.708634
0.709697
0.710585
0.711261
0.711782
0.713309
0.710057
0.714049
50.1696
-21.662
5.80508
-0.401123
-0.0786772
0.0849622
0.089053
0.0963199
0.108859
0.121753
0.134471
0.147113
0.159712
0.172264
0.184764
0.19721
0.209597
0.221922
0.234181
0.246371
0.258488
0.270528
0.282489
0.294368
0.30616
0.317863
0.329473
0.340988
0.352404
0.363719
0.374929
0.386031
0.397023
0.407902
0.418665
0.42931
0.439834
0.450233
0.460507
0.470652
0.480666
0.490547
0.500293
0.509901
0.519369
0.528696
0.537879
0.546916
0.555806
0.564547
0.573136
0.581573
0.589856
0.597983
0.605952
0.613763
0.621413
0.628903
0.636229
0.643392
0.650389
0.657221
0.663885
0.67038
0.676707
0.682863
0.688849
0.694662
0.700303
0.705771
0.711064
0.716183
0.721126
0.725894
0.730484
0.734898
0.739135
0.743193
0.747073
0.750774
0.754296
0.757639
0.760801
0.763784
0.766586
0.769208
0.771648
0.773908
0.775986
0.777883
0.779599
0.781132
0.782485
0.783659
0.784649
0.785398
0.785906
0.787891
0.783738
0.788602
50.1702
-21.6602
5.8081
-0.396886
-0.0732334
0.0916125
0.0969077
0.105377
0.119115
0.133206
0.147116
0.160948
0.174731
0.188464
0.20214
0.215757
0.229309
0.242793
0.256205
0.269541
0.282797
0.29597
0.309056
0.322052
0.334953
0.347757
0.360459
0.373057
0.385547
0.397926
0.41019
0.422337
0.434362
0.446265
0.45804
0.469686
0.481199
0.492577
0.503817
0.514916
0.525872
0.536683
0.547345
0.557856
0.568215
0.578419
0.588466
0.598353
0.608079
0.617641
0.627039
0.636269
0.645331
0.654222
0.662941
0.671486
0.679856
0.68805
0.696066
0.703902
0.711557
0.719031
0.726322
0.733429
0.74035
0.747086
0.753634
0.759994
0.766166
0.772147
0.777939
0.783539
0.788947
0.794163
0.799186
0.804015
0.80865
0.81309
0.817335
0.821384
0.825237
0.828894
0.832354
0.835617
0.838683
0.841551
0.844222
0.846694
0.848968
0.851043
0.85292
0.854597
0.856077
0.85736
0.858447
0.859269
0.859762
0.862165
0.857241
0.862856
50.1709
-21.6584
5.81112
-0.392666
-0.0678087
0.0982396
0.104735
0.114402
0.129336
0.144619
0.159718
0.174735
0.189699
0.204608
0.219457
0.234239
0.248952
0.263592
0.278152
0.292631
0.307023
0.321325
0.335532
0.349641
0.363648
0.377548
0.391339
0.405016
0.418576
0.432015
0.44533
0.458517
0.471573
0.484495
0.497279
0.509923
0.522422
0.534775
0.546978
0.559028
0.570923
0.582659
0.594235
0.605647
0.616893
0.627971
0.638879
0.649613
0.660172
0.670554
0.680756
0.690777
0.700615
0.710268
0.719734
0.729012
0.738099
0.746995
0.755697
0.764204
0.772516
0.78063
0.788545
0.796261
0.803775
0.811088
0.818197
0.825102
0.831803
0.838297
0.844584
0.850664
0.856536
0.862198
0.867651
0.872894
0.877926
0.882747
0.887355
0.891752
0.895935
0.899905
0.903662
0.907205
0.910533
0.913647
0.916546
0.91923
0.921699
0.923952
0.925989
0.927811
0.929417
0.93081
0.931992
0.932888
0.933373
0.936121
0.93059
0.936813
50.1715
-21.6566
5.81413
-0.38846
-0.0624032
0.104843
0.112535
0.123395
0.13952
0.155991
0.172274
0.188472
0.204613
0.220694
0.236709
0.252654
0.268524
0.284314
0.30002
0.315637
0.33116
0.346586
0.36191
0.377128
0.392236
0.407229
0.422104
0.436857
0.451483
0.465978
0.48034
0.494564
0.508647
0.522585
0.536374
0.550011
0.563494
0.576817
0.58998
0.602977
0.615807
0.628466
0.640952
0.653261
0.665391
0.67734
0.689105
0.700683
0.712072
0.72327
0.734275
0.745084
0.755695
0.766107
0.776317
0.786324
0.796126
0.805721
0.815107
0.824283
0.833248
0.842
0.850538
0.85886
0.866965
0.874853
0.882521
0.889969
0.897196
0.904201
0.910983
0.917541
0.923874
0.929982
0.935863
0.941518
0.946946
0.952145
0.957116
0.961858
0.966371
0.970653
0.974705
0.978526
0.982116
0.985475
0.988602
0.991497
0.99416
0.996591
0.998788
1.00075
1.00249
1.00399
1.00526
1.00624
1.00673
1.00974
1.00377
1.01046
50.1721
-21.6548
5.81712
-0.384271
-0.0570191
0.11142
0.120303
0.132352
0.149663
0.167317
0.18478
0.202154
0.219466
0.236715
0.253893
0.270995
0.288017
0.304953
0.321799
0.33855
0.3552
0.371746
0.388183
0.404505
0.42071
0.436792
0.452746
0.46857
0.484257
0.499806
0.51521
0.530466
0.545571
0.560521
0.575311
0.589939
0.604399
0.618691
0.632808
0.646749
0.66051
0.674089
0.687481
0.700683
0.713694
0.726511
0.739129
0.751548
0.763764
0.775775
0.787578
0.799172
0.810554
0.821721
0.832673
0.843406
0.853919
0.86421
0.874278
0.884121
0.893736
0.903124
0.912281
0.921207
0.929901
0.938361
0.946586
0.954575
0.962326
0.96984
0.977114
0.984148
0.990941
0.997492
1.0038
1.00987
1.01569
1.02126
1.0266
1.03168
1.03652
1.04112
1.04546
1.04956
1.05341
1.05701
1.06037
1.06347
1.06633
1.06894
1.07129
1.0734
1.07526
1.07687
1.07824
1.07929
1.0798
1.083
1.07675
1.08377
50.1727
-21.653
5.8201
-0.3801
-0.0516583
0.117969
0.128038
0.141271
0.159763
0.178594
0.197232
0.215776
0.234256
0.252666
0.271002
0.289257
0.307426
0.325503
0.343484
0.361364
0.379136
0.396797
0.414341
0.431764
0.44906
0.466226
0.483256
0.500145
0.51689
0.533486
0.549928
0.566213
0.582336
0.598293
0.61408
0.629693
0.645128
0.660382
0.675451
0.690332
0.70502
0.719513
0.733808
0.7479
0.761788
0.775468
0.788937
0.802193
0.815232
0.828052
0.840651
0.853026
0.865174
0.877095
0.888784
0.90024
0.911462
0.922447
0.933193
0.943699
0.953963
0.963982
0.973757
0.983285
0.992564
1.00159
1.01037
1.0189
1.02717
1.03519
1.04296
1.05047
1.05772
1.06471
1.07144
1.07792
1.08413
1.09008
1.09578
1.10121
1.10637
1.11127
1.11591
1.12029
1.1244
1.12824
1.13182
1.13514
1.13819
1.14097
1.14349
1.14574
1.14772
1.14944
1.1509
1.15203
1.15257
1.15588
1.14949
1.15673
50.1733
-21.6512
5.82307
-0.375949
-0.0463224
0.124487
0.135736
0.150148
0.169815
0.189819
0.209626
0.229336
0.248976
0.268544
0.288032
0.307434
0.326745
0.345958
0.365069
0.384072
0.402961
0.421732
0.440379
0.458896
0.477279
0.495524
0.513624
0.531575
0.549372
0.56701
0.584486
0.601794
0.61893
0.63589
0.652669
0.669263
0.685668
0.701881
0.717897
0.733712
0.749324
0.764728
0.77992
0.794899
0.809659
0.824199
0.838514
0.852602
0.866461
0.880087
0.893477
0.90663
0.919542
0.932211
0.944635
0.956811
0.968738
0.980413
0.991835
1.003
1.01391
1.02456
1.03495
1.04507
1.05494
1.06453
1.07387
1.08293
1.09172
1.10025
1.1085
1.11648
1.12418
1.13162
1.13877
1.14565
1.15226
1.15859
1.16463
1.17041
1.1759
1.18111
1.18604
1.19069
1.19506
1.19914
1.20295
1.20647
1.20971
1.21267
1.21534
1.21774
1.21984
1.22167
1.22322
1.22443
1.22502
1.22839
1.22197
1.22932
50.1739
-21.6494
5.82602
-0.371818
-0.0410128
0.130973
0.143397
0.158981
0.179818
0.200988
0.221959
0.242828
0.263624
0.284343
0.304978
0.325521
0.345968
0.366312
0.386547
0.406668
0.426668
0.446543
0.466287
0.485894
0.505359
0.524677
0.543841
0.562848
0.581693
0.600369
0.618873
0.637199
0.655343
0.673301
0.691067
0.708637
0.726008
0.743174
0.760132
0.776878
0.793408
0.809718
0.825805
0.841664
0.857293
0.872688
0.887846
0.902763
0.917437
0.931864
0.946043
0.959969
0.973641
0.987055
1.00021
1.0131
1.02573
1.03809
1.05019
1.06201
1.07356
1.08484
1.09584
1.10656
1.117
1.12716
1.13704
1.14664
1.15595
1.16498
1.17371
1.18216
1.19032
1.19819
1.20577
1.21306
1.22005
1.22675
1.23315
1.23926
1.24508
1.25059
1.25582
1.26074
1.26537
1.26969
1.27372
1.27745
1.28088
1.28402
1.28685
1.28938
1.29161
1.29355
1.29519
1.29647
1.29712
1.3005
1.29414
1.30154
50.1745
-21.6477
5.82896
-0.367709
-0.0357312
0.137425
0.151017
0.167767
0.189768
0.212099
0.234227
0.256249
0.278195
0.300059
0.321834
0.343513
0.36509
0.386558
0.407912
0.429145
0.450251
0.471225
0.49206
0.51275
0.533291
0.553676
0.5739
0.593958
0.613844
0.633553
0.653079
0.672418
0.691565
0.710515
0.729263
0.747805
0.766136
0.784251
0.802146
0.819818
0.837261
0.854473
0.871449
0.888185
0.904677
0.920923
0.936918
0.95266
0.968145
0.98337
0.998332
1.01303
1.02746
1.04161
1.05549
1.0691
1.08242
1.09547
1.10823
1.12071
1.1329
1.1448
1.1564
1.16772
1.17874
1.18946
1.19989
1.21002
1.21984
1.22937
1.23859
1.2475
1.25611
1.26442
1.27242
1.2801
1.28748
1.29455
1.30131
1.30776
1.3139
1.31972
1.32523
1.33042
1.3353
1.33987
1.34412
1.34806
1.35168
1.35499
1.35797
1.36065
1.363
1.36504
1.36678
1.36813
1.36885
1.3722
1.36598
1.37336
50.1751
-21.6459
5.83188
-0.363623
-0.030479
0.143841
0.158595
0.176505
0.199663
0.223148
0.246426
0.269596
0.292685
0.315688
0.338597
0.361405
0.384106
0.406692
0.429158
0.451497
0.473702
0.495768
0.517689
0.539457
0.561068
0.582515
0.603792
0.624895
0.645816
0.666552
0.687095
0.707442
0.727586
0.747523
0.767247
0.786755
0.80604
0.825099
0.843927
0.862519
0.880871
0.898979
0.916838
0.934446
0.951798
0.96889
0.985718
1.00228
1.01857
1.03459
1.05033
1.06579
1.08097
1.09586
1.11047
1.12478
1.1388
1.15253
1.16595
1.17908
1.1919
1.20442
1.21664
1.22854
1.24013
1.25142
1.26239
1.27304
1.28338
1.2934
1.3031
1.31248
1.32154
1.33028
1.33869
1.34678
1.35454
1.36198
1.36909
1.37588
1.38233
1.38846
1.39425
1.39972
1.40486
1.40966
1.41413
1.41828
1.42209
1.42556
1.42871
1.43152
1.434
1.43614
1.43797
1.4394
1.44019
1.44349
1.43746
1.44476
50.1756
-21.6442
5.83478
-0.359561
-0.0252577
0.15022
0.166129
0.185191
0.209499
0.234132
0.258554
0.282865
0.30709
0.331225
0.355262
0.379192
0.40301
0.426708
0.45028
0.473718
0.497016
0.520168
0.543167
0.566007
0.588682
0.611184
0.633509
0.65565
0.677601
0.699357
0.720911
0.742259
0.763395
0.784313
0.805009
0.825476
0.845711
0.865707
0.885461
0.904969
0.924224
0.943223
0.961962
0.980436
0.998642
1.01657
1.03423
1.05161
1.0687
1.08551
1.10202
1.11825
1.13417
1.1498
1.16512
1.18014
1.19485
1.20925
1.22334
1.23711
1.25057
1.2637
1.27651
1.289
1.30117
1.31301
1.32452
1.33569
1.34654
1.35705
1.36723
1.37707
1.38658
1.39575
1.40458
1.41306
1.42121
1.42901
1.43647
1.44359
1.45036
1.45679
1.46287
1.46861
1.474
1.47904
1.48373
1.48808
1.49208
1.49573
1.49902
1.50197
1.50457
1.50683
1.50874
1.51024
1.51112
1.51433
1.50855
1.51574
50.1762
-21.6425
5.83767
-0.355524
-0.0200687
0.156558
0.173616
0.193824
0.219275
0.245048
0.270607
0.296051
0.321406
0.346666
0.371823
0.396869
0.421797
0.4466
0.47127
0.495801
0.520186
0.544417
0.568489
0.592393
0.616124
0.639676
0.663042
0.686215
0.709189
0.731959
0.754519
0.776862
0.798983
0.820876
0.842536
0.863958
0.885136
0.906064
0.92674
0.947156
0.967309
0.987194
1.00681
1.02614
1.0452
1.06396
1.08244
1.10063
1.11852
1.13611
1.1534
1.17038
1.18704
1.2034
1.21944
1.23516
1.25055
1.26562
1.28037
1.29478
1.30886
1.32261
1.33602
1.34909
1.36183
1.37422
1.38626
1.39796
1.40931
1.42032
1.43097
1.44127
1.45122
1.46081
1.47005
1.47894
1.48746
1.49563
1.50344
1.51089
1.51798
1.5247
1.53107
1.53707
1.54271
1.54799
1.5529
1.55745
1.56163
1.56545
1.56891
1.57199
1.57472
1.57707
1.57907
1.58065
1.5816
1.58474
1.57921
1.58628
50.1768
-21.6407
5.84054
-0.351514
-0.0149134
0.162856
0.181054
0.2024
0.228987
0.255893
0.282582
0.309152
0.335629
0.362006
0.388277
0.414431
0.440462
0.466363
0.492125
0.517741
0.543205
0.568509
0.593645
0.618608
0.643389
0.667983
0.692382
0.716581
0.740572
0.76435
0.787907
0.811239
0.834339
0.857201
0.87982
0.902189
0.924304
0.946159
0.967749
0.989069
1.01011
1.03088
1.05136
1.07155
1.09145
1.11105
1.13034
1.14934
1.16802
1.18639
1.20444
1.22217
1.23957
1.25665
1.2734
1.28981
1.30589
1.32163
1.33703
1.35208
1.36678
1.38114
1.39514
1.40879
1.42209
1.43503
1.44761
1.45982
1.47168
1.48317
1.49429
1.50505
1.51544
1.52546
1.53511
1.54438
1.55329
1.56181
1.56997
1.57775
1.58515
1.59218
1.59882
1.60509
1.61098
1.61649
1.62162
1.62637
1.63074
1.63473
1.63834
1.64156
1.6444
1.64686
1.64895
1.65061
1.65164
1.65467
1.64942
1.65635
50.1774
-21.639
5.84338
-0.34753
-0.00979329
0.169111
0.188441
0.210918
0.238633
0.266664
0.294475
0.322163
0.349754
0.377242
0.404618
0.431874
0.459
0.485991
0.512837
0.539532
0.566067
0.592436
0.61863
0.644643
0.670468
0.696097
0.721523
0.74674
0.771741
0.796519
0.821069
0.845382
0.869455
0.893279
0.916849
0.94016
0.963206
0.985981
1.00848
1.0307
1.05263
1.07427
1.09561
1.11665
1.13738
1.15781
1.17792
1.19771
1.21718
1.23632
1.25513
1.2736
1.29174
1.30954
1.32699
1.3441
1.36085
1.37725
1.3933
1.40898
1.42431
1.43927
1.45386
1.46809
1.48194
1.49542
1.50853
1.52126
1.53362
1.54559
1.55718
1.56839
1.57922
1.58966
1.59971
1.60938
1.61866
1.62755
1.63605
1.64415
1.65187
1.65919
1.66611
1.67265
1.67879
1.68453
1.68987
1.69482
1.69938
1.70353
1.70729
1.71065
1.71361
1.71618
1.71835
1.72008
1.72119
1.72413
1.71916
1.72594
50.1779
-21.6373
5.84621
-0.343575
-0.00470972
0.175321
0.195776
0.219376
0.24821
0.277358
0.306283
0.335081
0.363779
0.39237
0.420843
0.449191
0.477406
0.505479
0.533402
0.561167
0.588766
0.616192
0.643437
0.670493
0.697353
0.72401
0.750456
0.776684
0.802688
0.82846
0.853993
0.879282
0.904319
0.929099
0.953615
0.97786
1.00183
1.02552
1.04892
1.07203
1.09484
1.11734
1.13954
1.16143
1.18299
1.20424
1.22515
1.24574
1.26598
1.28589
1.30546
1.32467
1.34354
1.36205
1.3802
1.39799
1.41542
1.43248
1.44917
1.46548
1.48142
1.49698
1.51216
1.52696
1.54137
1.55539
1.56902
1.58226
1.59511
1.60757
1.61962
1.63128
1.64255
1.6534
1.66386
1.67392
1.68357
1.69281
1.70165
1.71008
1.71811
1.72572
1.73293
1.73972
1.74611
1.75208
1.75764
1.76279
1.76752
1.77185
1.77576
1.77925
1.78233
1.785
1.78726
1.78906
1.79025
1.7931
1.7884
1.79504
50.1785
-21.6356
5.84902
-0.339649
0.000335929
0.181485
0.203056
0.22777
0.257716
0.287973
0.318003
0.347904
0.3777
0.407384
0.436947
0.46638
0.495675
0.524822
0.553813
0.582641
0.611296
0.639772
0.668059
0.69615
0.724038
0.751715
0.779173
0.806405
0.833404
0.860162
0.886672
0.912929
0.938924
0.964652
0.990106
1.01528
1.04017
1.06476
1.08906
1.11305
1.13673
1.1601
1.18315
1.20587
1.22826
1.25032
1.27203
1.29341
1.31443
1.3351
1.35541
1.37536
1.39495
1.41417
1.43302
1.45149
1.46958
1.48729
1.50462
1.52156
1.53811
1.55426
1.57002
1.58539
1.60035
1.61491
1.62906
1.64281
1.65615
1.66908
1.6816
1.69371
1.7054
1.71667
1.72753
1.73797
1.74799
1.75759
1.76677
1.77552
1.78385
1.79176
1.79924
1.80629
1.81292
1.81912
1.8249
1.83024
1.83516
1.83965
1.84371
1.84734
1.85054
1.85331
1.85565
1.85753
1.8588
1.86155
1.85711
1.86362
50.179
-21.634
5.8518
-0.335754
0.00534231
0.1876
0.21028
0.236099
0.267148
0.298505
0.329632
0.360626
0.391512
0.422282
0.452926
0.483435
0.513801
0.544014
0.574065
0.603947
0.633651
0.663167
0.692489
0.721608
0.750516
0.779205
0.807667
0.835894
0.86388
0.891617
0.919097
0.946314
0.97326
0.999928
1.02631
1.05241
1.0782
1.1037
1.12888
1.15375
1.1783
1.20252
1.22641
1.24997
1.27318
1.29604
1.31855
1.3407
1.3625
1.38392
1.40498
1.42566
1.44596
1.46589
1.48542
1.50457
1.52332
1.54168
1.55964
1.5772
1.59435
1.6111
1.62744
1.64336
1.65887
1.67396
1.68863
1.70289
1.71671
1.73012
1.7431
1.75564
1.76776
1.77945
1.79071
1.80153
1.81191
1.82186
1.83138
1.84045
1.84909
1.85728
1.86504
1.87235
1.87922
1.88565
1.89163
1.89718
1.90227
1.90693
1.91113
1.9149
1.91821
1.92108
1.92352
1.92546
1.92681
1.92948
1.92529
1.93167
50.1796
-21.6323
5.85456
-0.331891
0.0103081
0.193667
0.217444
0.24436
0.276503
0.308951
0.341167
0.373245
0.405212
0.437058
0.468775
0.500352
0.53178
0.56305
0.594154
0.625081
0.655824
0.686374
0.716721
0.746859
0.776779
0.806471
0.835929
0.865145
0.89411
0.922817
0.951259
0.979428
1.00732
1.03492
1.06223
1.08923
1.11593
1.14232
1.16839
1.19413
1.21953
1.2446
1.26933
1.29371
1.31773
1.34139
1.36469
1.38762
1.41017
1.43235
1.45414
1.47555
1.49656
1.51718
1.5374
1.55722
1.57663
1.59563
1.61422
1.63239
1.65014
1.66748
1.68438
1.70087
1.71692
1.73254
1.74772
1.76247
1.77679
1.79066
1.80409
1.81708
1.82962
1.84172
1.85337
1.86457
1.87532
1.88562
1.89546
1.90485
1.91379
1.92227
1.9303
1.93787
1.94498
1.95164
1.95783
1.96357
1.96884
1.97366
1.97801
1.98191
1.98534
1.98831
1.99083
1.99284
1.99427
1.99686
1.99291
1.99918
50.1801
-21.6307
5.8573
-0.32806
0.015232
0.199682
0.224549
0.252552
0.28578
0.31931
0.352604
0.385758
0.418796
0.451711
0.48449
0.517126
0.549608
0.581926
0.614072
0.646036
0.67781
0.709384
0.740749
0.771897
0.80282
0.833508
0.863953
0.894148
0.924085
0.953754
0.983149
1.01226
1.04109
1.06961
1.09784
1.12575
1.15334
1.18061
1.20755
1.23416
1.26042
1.28633
1.31188
1.33708
1.3619
1.38636
1.41044
1.43414
1.45745
1.48037
1.50289
1.52501
1.54673
1.56804
1.58894
1.60942
1.62948
1.64912
1.66833
1.68711
1.70546
1.72338
1.74085
1.75789
1.77448
1.79062
1.80631
1.82156
1.83635
1.85069
1.86457
1.87799
1.89096
1.90346
1.9155
1.92708
1.93819
1.94883
1.95901
1.96871
1.97795
1.98672
1.99501
2.00284
2.01019
2.01706
2.02347
2.02939
2.03485
2.03983
2.04433
2.04835
2.0519
2.05497
2.05757
2.05966
2.06116
2.06368
2.05995
2.06612
50.1807
-21.629
5.86001
-0.324262
0.0201127
0.205644
0.231591
0.260671
0.294975
0.329577
0.363941
0.398161
0.432261
0.466234
0.500068
0.533753
0.567279
0.600637
0.633816
0.666808
0.699603
0.732192
0.764566
0.796716
0.828632
0.860307
0.891732
0.922897
0.953796
0.98442
1.01476
1.04481
1.07456
1.104
1.13313
1.16194
1.19043
1.21857
1.24638
1.27384
1.30094
1.32768
1.35406
1.38007
1.40569
1.43093
1.45579
1.48025
1.50431
1.52796
1.55121
1.57405
1.59646
1.61846
1.64003
1.66117
1.68187
1.70214
1.72197
1.74136
1.7603
1.77879
1.79682
1.8144
1.83153
1.84819
1.86439
1.88013
1.89539
1.91019
1.92452
1.93838
1.95176
1.96466
1.97709
1.98904
2.0005
2.01149
2.02199
2.03201
2.04155
2.0506
2.05916
2.06723
2.07482
2.08192
2.08853
2.09465
2.10028
2.10541
2.11006
2.11421
2.11788
2.12105
2.12373
2.12589
2.12746
2.12992
2.12638
2.13247
50.1812
-21.6274
5.8627
-0.320499
0.0249489
0.211552
0.238569
0.268717
0.304086
0.339751
0.375174
0.410451
0.445604
0.480625
0.515504
0.550228
0.584789
0.619176
0.65338
0.68739
0.721198
0.754793
0.788166
0.821308
0.85421
0.886862
0.919257
0.951384
0.983237
1.01481
1.04608
1.07706
1.10773
1.13808
1.16811
1.19781
1.22717
1.25619
1.28485
1.31316
1.3411
1.36867
1.39586
1.42266
1.44908
1.4751
1.50072
1.52594
1.55074
1.57513
1.59909
1.62263
1.64574
1.66841
1.69065
1.71244
1.73379
1.75468
1.77512
1.79511
1.81463
1.83369
1.85228
1.87041
1.88806
1.90524
1.92194
1.93816
1.9539
1.96915
1.98392
1.99821
2.012
2.0253
2.03811
2.05043
2.06225
2.07358
2.08441
2.09473
2.10456
2.11389
2.12272
2.13104
2.13887
2.14618
2.153
2.1593
2.16511
2.1704
2.17519
2.17948
2.18325
2.18652
2.18929
2.19151
2.19315
2.19557
2.19221
2.19823
50.1817
-21.6258
5.86536
-0.316772
0.0297394
0.217404
0.245481
0.276687
0.313111
0.349829
0.386302
0.422625
0.458821
0.494881
0.530793
0.566548
0.602134
0.637541
0.672759
0.707778
0.742588
0.77718
0.811543
0.845668
0.879545
0.913166
0.946522
0.979602
1.0124
1.0449
1.07711
1.109
1.14058
1.17184
1.20276
1.23334
1.26357
1.29345
1.32296
1.3521
1.38087
1.40926
1.43726
1.46486
1.49206
1.51885
1.54523
1.57119
1.59673
1.62184
1.64652
1.67076
1.69455
1.7179
1.74079
1.76323
1.78521
1.80672
1.82777
1.84835
1.86845
1.88808
1.90722
1.92588
1.94406
1.96175
1.97894
1.99564
2.01185
2.02756
2.04277
2.05747
2.07168
2.08537
2.09856
2.11125
2.12342
2.13508
2.14623
2.15686
2.16699
2.17659
2.18568
2.19425
2.2023
2.20984
2.21686
2.22335
2.22933
2.23478
2.23971
2.24412
2.24801
2.25138
2.25422
2.25652
2.25822
2.2606
2.2574
2.26337
50.1823
-21.6243
5.868
-0.313081
0.034483
0.223199
0.252325
0.284579
0.322048
0.359808
0.39732
0.434679
0.471908
0.508996
0.545933
0.582708
0.619309
0.655726
0.691948
0.727966
0.763769
0.799347
0.83469
0.869789
0.904633
0.939213
0.973519
1.00754
1.04128
1.07471
1.10783
1.14064
1.17312
1.20526
1.23706
1.26852
1.29961
1.33034
1.36069
1.39067
1.42026
1.44946
1.47825
1.50664
1.53462
1.56217
1.58931
1.61601
1.64228
1.6681
1.69348
1.71841
1.74288
1.7669
1.79044
1.81352
1.83613
1.85826
1.8799
1.90107
1.92174
1.94193
1.96162
1.98081
1.99951
2.0177
2.03539
2.05256
2.06923
2.08539
2.10103
2.11616
2.13077
2.14485
2.15842
2.17147
2.18399
2.19598
2.20745
2.21839
2.2288
2.23867
2.24802
2.25684
2.26512
2.27287
2.28009
2.28677
2.29292
2.29853
2.3036
2.30814
2.31214
2.3156
2.31853
2.32089
2.32266
2.325
2.32195
2.32787
50.1828
-21.6227
5.87061
-0.309428
0.0391785
0.228935
0.2591
0.29239
0.330894
0.369686
0.408227
0.446612
0.484862
0.522969
0.56092
0.598703
0.636309
0.673726
0.710943
0.74795
0.784735
0.82129
0.857603
0.893665
0.929465
0.964995
1.00024
1.0352
1.06986
1.10421
1.13824
1.17195
1.20532
1.23835
1.27102
1.30334
1.33528
1.36686
1.39805
1.42885
1.45925
1.48924
1.51883
1.548
1.57674
1.60506
1.63293
1.66037
1.68736
1.71389
1.73997
1.76558
1.79073
1.8154
1.83959
1.8633
1.88653
1.90927
1.93151
1.95325
1.9745
1.99524
2.01547
2.03519
2.0544
2.07309
2.09126
2.10891
2.12603
2.14263
2.15871
2.17425
2.18926
2.20373
2.21767
2.23107
2.24394
2.25626
2.26804
2.27928
2.28998
2.30013
2.30973
2.31879
2.3273
2.33527
2.34268
2.34955
2.35586
2.36162
2.36684
2.3715
2.37561
2.37917
2.38218
2.3846
2.38644
2.38875
2.38584
2.39172
50.1833
-21.6211
5.87319
-0.305813
0.0438246
0.234611
0.265804
0.30012
0.339647
0.37946
0.419019
0.458419
0.49768
0.536794
0.575749
0.614531
0.653131
0.691537
0.729738
0.767723
0.805481
0.843002
0.880276
0.917291
0.954037
0.990506
1.02669
1.06257
1.09814
1.1334
1.16833