/*--------------------------------*- C++ -*----------------------------------*\
  =========                 |
  \\      /  F ield         | OpenFOAM: The Open Source CFD Toolbox
   \\    /   O peration     | Website:  https://openfoam.org
    \\  /    A nd           | Version:  10
     \\/     M anipulation  |
\*---------------------------------------------------------------------------*/
FoamFile
{
    format      ascii;
    class       volScalarField;
    location    "3.2";
    object      T;
}
// * * * * * * * * * * * * * * * * * * * * * * * * * * * * * * * * * * * * * //

dimensions      [0 0 -1 0 0 0 0];

internalField   nonuniform List<scalar> 
100
(
0.0256387
0.0760074
0.123683
0.166978
0.204357
0.234497
0.25633
0.269082
0.272301
0.265874
0.250029
0.225326
0.192641
0.153131
0.108197
0.0594296
0.00855703
-0.0426187
-0.0922847
-0.138681
-0.180165
-0.215267
-0.242742
-0.261618
-0.271227
-0.271227
-0.261618
-0.242742
-0.215266
-0.180165
-0.138681
-0.0922839
-0.0426179
0.00855783
0.0594304
0.108198
0.153132
0.192641
0.225326
0.250029
0.265874
0.272301
0.269081
0.256329
0.234496
0.204356
0.166977
0.123683
0.0760067
0.0256382
-0.0256387
-0.0760072
-0.123683
-0.166978
-0.204357
-0.234497
-0.256329
-0.269081
-0.272301
-0.265874
-0.250029
-0.225326
-0.192641
-0.153131
-0.108197
-0.0594298
-0.00855725
0.0426185
0.0922844
0.138681
0.180165
0.215267
0.242742
0.261618
0.271227
0.271227
0.261618
0.242742
0.215266
0.180165
0.138681
0.0922841
0.0426181
-0.00855762
-0.0594302
-0.108197
-0.153132
-0.192641
-0.225326
-0.250029
-0.265875
-0.272301
-0.269082
-0.256329
-0.234497
-0.204357
-0.166978
-0.123683
-0.0760069
-0.0256382
)
;

boundaryField
{
    inlet
    {
        type            cyclic;
    }
    outlet
    {
        type            cyclic;
    }
    bottom
    {
        type            slip;
    }
    top
    {
        type            slip;
    }
    frontAndBack
    {
        type            empty;
    }
}


// ************************************************************************* //
