/*--------------------------------*- C++ -*----------------------------------*\
  =========                 |
  \\      /  F ield         | OpenFOAM: The Open Source CFD Toolbox
   \\    /   O peration     | Website:  https://openfoam.org
    \\  /    A nd           | Version:  10
     \\/     M anipulation  |
\*---------------------------------------------------------------------------*/
FoamFile
{
    format      ascii;
    class       volScalarField;
    location    "3.2";
    object      T_0;
}
// * * * * * * * * * * * * * * * * * * * * * * * * * * * * * * * * * * * * * //

dimensions      [0 0 -1 0 0 0 0];

internalField   nonuniform List<scalar> 
100
(
0.0265342
0.078662
0.128003
0.17281
0.211495
0.242687
0.265282
0.27848
0.281812
0.27516
0.258761
0.233196
0.199369
0.15848
0.111976
0.0615053
0.00885589
-0.0441072
-0.0955078
-0.143525
-0.186458
-0.222785
-0.25122
-0.270756
-0.2807
-0.280699
-0.270755
-0.25122
-0.222785
-0.186457
-0.143524
-0.095507
-0.0441064
0.00885672
0.061506
0.111976
0.15848
0.199369
0.233196
0.258761
0.27516
0.281811
0.278479
0.265281
0.242686
0.211494
0.172809
0.128002
0.0786613
0.0265336
-0.0265341
-0.0786618
-0.128003
-0.172809
-0.211494
-0.242687
-0.265282
-0.278479
-0.281811
-0.27516
-0.258761
-0.233196
-0.199369
-0.15848
-0.111976
-0.0615054
-0.00885612
0.044107
0.0955075
0.143525
0.186458
0.222785
0.25122
0.270756
0.2807
0.280699
0.270756
0.25122
0.222785
0.186457
0.143524
0.0955072
0.0441066
-0.0088565
-0.0615059
-0.111976
-0.15848
-0.199369
-0.233196
-0.258762
-0.275161
-0.281812
-0.278479
-0.265282
-0.242687
-0.211494
-0.172809
-0.128003
-0.0786615
-0.0265336
)
;

boundaryField
{
    inlet
    {
        type            cyclic;
    }
    outlet
    {
        type            cyclic;
    }
    bottom
    {
        type            slip;
    }
    top
    {
        type            slip;
    }
    frontAndBack
    {
        type            empty;
    }
}


// ************************************************************************* //
