/*--------------------------------*- C++ -*----------------------------------*\
  =========                 |
  \\      /  F ield         | OpenFOAM: The Open Source CFD Toolbox
   \\    /   O peration     | Website:  https://openfoam.org
    \\  /    A nd           | Version:  10
     \\/     M anipulation  |
\*---------------------------------------------------------------------------*/
FoamFile
{
    format      ascii;
    class       volScalarField;
    location    "33.5";
    object      T;
}
// * * * * * * * * * * * * * * * * * * * * * * * * * * * * * * * * * * * * * //

dimensions      [0 0 -1 0 0 0 0];

internalField   nonuniform List<scalar> 
100
(
0.561077
1.67802
2.78007
3.85744
4.90057
5.90021
6.84747
7.73396
8.5518
9.29374
9.95318
10.5243
11.002
11.382
11.661
11.8365
11.907
11.8717
11.7311
11.4864
11.1397
10.6941
10.1536
9.52303
8.80789
8.01458
7.15014
6.22223
5.23909
4.20945
3.14245
2.04756
0.934499
-0.186856
-1.30655
-2.41465
-3.50131
-4.55689
-5.57202
-6.5377
-7.44534
-8.28689
-9.05489
-9.74252
-10.3437
-10.853
-11.266
-11.579
-11.7892
-11.8948
-11.8948
-11.7892
-11.579
-11.266
-10.853
-10.3437
-9.7425
-9.05487
-8.28687
-7.44532
-6.53767
-5.572
-4.55686
-3.50128
-2.41462
-1.30652
-0.186821
0.934535
2.0476
3.14249
4.20949
5.23913
6.22227
7.15018
8.01462
8.80793
9.52307
10.1537
10.6942
11.1397
11.4864
11.7311
11.8718
11.907
11.8366
11.661
11.382
11.002
10.5243
9.95321
9.29376
8.55182
7.73398
6.84749
5.90022
4.90058
3.85745
2.78007
1.67802
0.561078
)
;

boundaryField
{
    xmin
    {
        type            fixedValue;
        value           uniform 0;
    }
    xmax
    {
        type            fixedValue;
        value           uniform 0;
    }
    frontAndBack
    {
        type            empty;
    }
}


// ************************************************************************* //
