/*--------------------------------*- C++ -*----------------------------------*\
| =========                 |                                                 |
| \\      /  F ield         | OpenFOAM: The Open Source CFD Toolbox           |
|  \\    /   O peration     | Version:  2406                                  |
|   \\  /    A nd           | Website:  www.openfoam.com                      |
|    \\/     M anipulation  |                                                 |
\*---------------------------------------------------------------------------*/
FoamFile
{
    version     2.0;
    format      ascii;
    arch        "LSB;label=32;scalar=64";
    class       volScalarField;
    location    "5.5";
    object      p;
}
// * * * * * * * * * * * * * * * * * * * * * * * * * * * * * * * * * * * * * //

dimensions      [0 2 -2 0 0 0 0];

internalField   nonuniform List<scalar> 
34560
(
-22.128338
-22.131799
-22.138059
-22.148729
-22.164253
-22.184592
-22.208264
-22.234266
-22.260838
-22.122271
-22.127138
-22.135719
-22.149971
-22.170191
-22.19584
-22.224794
-22.255452
-22.286324
-22.115778
-22.122295
-22.133509
-22.151563
-22.176438
-22.206887
-22.240134
-22.273983
-22.307021
-22.10728
-22.115486
-22.129468
-22.151564
-22.181292
-22.216487
-22.253732
-22.290294
-22.324961
-22.097425
-22.107402
-22.124237
-22.150433
-22.184992
-22.224787
-22.265843
-22.304943
-22.340894
-22.087338
-22.098973
-22.118526
-22.148646
-22.187784
-22.231846
-22.276395
-22.317785
-22.354767
-22.077582
-22.090727
-22.112781
-22.146526
-22.189849
-22.237732
-22.285368
-22.328752
-22.366571
-22.068464
-22.082966
-22.107262
-22.144228
-22.191231
-22.242425
-22.292702
-22.337783
-22.3763
-22.060372
-22.076037
-22.102242
-22.141934
-22.192026
-22.245967
-22.298415
-22.344877
-22.383971
-22.053904
-22.070469
-22.098162
-22.139971
-22.192446
-22.248494
-22.302593
-22.350095
-22.389637
-22.049547
-22.066717
-22.095416
-22.138645
-22.192704
-22.250151
-22.305343
-22.353528
-22.393375
-22.047052
-22.064571
-22.093824
-22.13781
-22.192698
-22.250875
-22.306637
-22.355179
-22.395194
-22.047052
-22.064571
-22.093824
-22.13781
-22.192698
-22.250876
-22.306637
-22.355179
-22.395194
-22.049548
-22.066717
-22.095416
-22.138646
-22.192704
-22.250152
-22.305344
-22.353529
-22.393375
-22.053905
-22.07047
-22.098163
-22.139972
-22.192447
-22.248495
-22.302594
-22.350096
-22.389638
-22.060373
-22.076038
-22.102243
-22.141935
-22.192027
-22.245968
-22.298415
-22.344878
-22.383971
-22.068465
-22.082968
-22.107263
-22.144229
-22.191233
-22.242426
-22.292704
-22.337784
-22.3763
-22.077584
-22.090729
-22.112784
-22.146528
-22.189851
-22.237734
-22.285369
-22.328753
-22.366571
-22.087341
-22.098976
-22.118529
-22.148649
-22.187787
-22.231849
-22.276398
-22.317786
-22.354766
-22.097428
-22.107405
-22.124241
-22.150437
-22.184996
-22.22479
-22.265846
-22.304944
-22.340894
-22.107285
-22.115491
-22.129473
-22.151569
-22.181298
-22.216492
-22.253736
-22.290296
-22.324961
-22.115784
-22.122301
-22.133515
-22.151569
-22.176444
-22.206892
-22.240139
-22.273985
-22.307022
-22.122277
-22.127144
-22.135725
-22.149978
-22.170197
-22.195846
-22.224799
-22.255456
-22.286328
-22.128345
-22.131806
-22.138066
-22.148736
-22.164259
-22.184598
-22.208269
-22.234273
-22.260846
-21.190317
-21.188387
-21.186172
-21.183232
-21.178372
-21.170311
-21.158898
-21.14479
-21.130021
-21.20921
-21.206649
-21.203381
-21.198593
-21.190706
-21.178427
-21.162361
-21.144628
-21.127854
-21.230282
-21.227102
-21.22295
-21.216597
-21.206022
-21.189823
-21.169222
-21.14777
-21.128569
-21.251238
-21.247404
-21.242347
-21.234471
-21.221407
-21.201676
-21.176942
-21.151877
-21.129966
-21.271711
-21.267273
-21.261324
-21.251885
-21.23636
-21.213312
-21.184716
-21.156212
-21.131696
-21.290876
-21.285946
-21.279214
-21.268286
-21.250438
-21.224432
-21.192375
-21.160664
-21.133738
-21.308337
-21.302964
-21.295511
-21.28318
-21.263179
-21.234555
-21.199523
-21.165
-21.135895
-21.323658
-21.317923
-21.30985
-21.296272
-21.274342
-21.243409
-21.205899
-21.169019
-21.137943
-21.336405
-21.33039
-21.32182
-21.307217
-21.28367
-21.250782
-21.211256
-21.17247
-21.139705
-21.346234
-21.340023
-21.331085
-21.315703
-21.2909
-21.256472
-21.215354
-21.175124
-21.141083
-21.352943
-21.346591
-21.337393
-21.32147
-21.295801
-21.260305
-21.218091
-21.176888
-21.141998
-21.356342
-21.349929
-21.340608
-21.324417
-21.298309
-21.262263
-21.219485
-21.177782
-21.14246
-21.356342
-21.349929
-21.340608
-21.324417
-21.298309
-21.262264
-21.219485
-21.177782
-21.14246
-21.352943
-21.346591
-21.337394
-21.321471
-21.295802
-21.260305
-21.218091
-21.176888
-21.141999
-21.346235
-21.340024
-21.331086
-21.315704
-21.290901
-21.256473
-21.215355
-21.175125
-21.141083
-21.336407
-21.330392
-21.321821
-21.307218
-21.283671
-21.250783
-21.211257
-21.172471
-21.139706
-21.32366
-21.317925
-21.309852
-21.296274
-21.274344
-21.24341
-21.205901
-21.169019
-21.137943
-21.30834
-21.302967
-21.295514
-21.283183
-21.263181
-21.234557
-21.199524
-21.165001
-21.135895
-21.29088
-21.285949
-21.279218
-21.26829
-21.250442
-21.224436
-21.192377
-21.160666
-21.133738
-21.271715
-21.267277
-21.261329
-21.25189
-21.236365
-21.213317
-21.18472
-21.156213
-21.131696
-21.251243
-21.24741
-21.242353
-21.234477
-21.221413
-21.201682
-21.176946
-21.151879
-21.129967
-21.230288
-21.227109
-21.222958
-21.216604
-21.206029
-21.18983
-21.169228
-21.147774
-21.128571
-21.209218
-21.206657
-21.20339
-21.198601
-21.190714
-21.178435
-21.162368
-21.144635
-21.127858
-21.190326
-21.188396
-21.186181
-21.183241
-21.178381
-21.17032
-21.158907
-21.1448
-21.130028
-20.09279
-20.092256
-20.091756
-20.091627
-20.092227
-20.093586
-20.094392
-20.092852
-20.089582
-20.096203
-20.095538
-20.094822
-20.0944
-20.094676
-20.095763
-20.096352
-20.094501
-20.09102
-20.099511
-20.098732
-20.097871
-20.097333
-20.097608
-20.098866
-20.099685
-20.097962
-20.094471
-20.102122
-20.101217
-20.100215
-20.0996
-20.099975
-20.101516
-20.102623
-20.101017
-20.097347
-20.104441
-20.103417
-20.102277
-20.101577
-20.102011
-20.103738
-20.105007
-20.103455
-20.099661
-20.106704
-20.105555
-20.104294
-20.103559
-20.104051
-20.105806
-20.107063
-20.105539
-20.101679
-20.108803
-20.107534
-20.106171
-20.105443
-20.106026
-20.107766
-20.108897
-20.10734
-20.103459
-20.110714
-20.109339
-20.107893
-20.107191
-20.107891
-20.109636
-20.110556
-20.108875
-20.105036
-20.112381
-20.110922
-20.109414
-20.108734
-20.109544
-20.11133
-20.112045
-20.1102
-20.106412
-20.113722
-20.112198
-20.110646
-20.109988
-20.110895
-20.112738
-20.11333
-20.111335
-20.107525
-20.114657
-20.113084
-20.111504
-20.110868
-20.111851
-20.113744
-20.11427
-20.112175
-20.108317
-20.115125
-20.113531
-20.11194
-20.111317
-20.112342
-20.114265
-20.114765
-20.11262
-20.108725
-20.115125
-20.113532
-20.11194
-20.111318
-20.112342
-20.114265
-20.114765
-20.11262
-20.108725
-20.114657
-20.113084
-20.111504
-20.110868
-20.111851
-20.113744
-20.114271
-20.112175
-20.108317
-20.113722
-20.112198
-20.110647
-20.109989
-20.110896
-20.112739
-20.113331
-20.111335
-20.107525
-20.112382
-20.110923
-20.109415
-20.108735
-20.109545
-20.111331
-20.112046
-20.1102
-20.106412
-20.110715
-20.109341
-20.107895
-20.107193
-20.107893
-20.109638
-20.110558
-20.108876
-20.105035
-20.108806
-20.107537
-20.106174
-20.105446
-20.106029
-20.107768
-20.108899
-20.107341
-20.103459
-20.106707
-20.105559
-20.104298
-20.103563
-20.104055
-20.105809
-20.107066
-20.105541
-20.101679
-20.104445
-20.103421
-20.102282
-20.101582
-20.102016
-20.103743
-20.105011
-20.103458
-20.099662
-20.102127
-20.101223
-20.100222
-20.099606
-20.099981
-20.101523
-20.102628
-20.10102
-20.097349
-20.099518
-20.098739
-20.097879
-20.097341
-20.097616
-20.098873
-20.099692
-20.097967
-20.094473
-20.096212
-20.095547
-20.094831
-20.09441
-20.094685
-20.095772
-20.096361
-20.094507
-20.091023
-20.0928
-20.092266
-20.091766
-20.091637
-20.092237
-20.093596
-20.094402
-20.09286
-20.089587
-19.17661
-19.176766
-19.176965
-19.177127
-19.177085
-19.176554
-19.175674
-19.174998
-19.173995
-19.18116
-19.181258
-19.181334
-19.181264
-19.180803
-19.179545
-19.177561
-19.175628
-19.174001
-19.18612
-19.186166
-19.186157
-19.18593
-19.185177
-19.183426
-19.180725
-19.177937
-19.175735
-19.190802
-19.190786
-19.190696
-19.190339
-19.189329
-19.187206
-19.18402
-19.180654
-19.177922
-19.19517
-19.195097
-19.194937
-19.194461
-19.193177
-19.190643
-19.187043
-19.183243
-19.180092
-19.199052
-19.19895
-19.198744
-19.198144
-19.196611
-19.193697
-19.189698
-19.185504
-19.181964
-19.202256
-19.202147
-19.201917
-19.201219
-19.19945
-19.196203
-19.191857
-19.187312
-19.183418
-19.204819
-19.20472
-19.204472
-19.203685
-19.201711
-19.198173
-19.193528
-19.188704
-19.18452
-19.206743
-19.206664
-19.206419
-19.20557
-19.203435
-19.199656
-19.194769
-19.189738
-19.185331
-19.208116
-19.208055
-19.207813
-19.206921
-19.204664
-19.200703
-19.195635
-19.190458
-19.185888
-19.208997
-19.208949
-19.208711
-19.207785
-19.205442
-19.201356
-19.196171
-19.190902
-19.18623
-19.209414
-19.209375
-19.209141
-19.2082
-19.205814
-19.201666
-19.196425
-19.191112
-19.186391
-19.209414
-19.209375
-19.209141
-19.2082
-19.205814
-19.201667
-19.196425
-19.191112
-19.186391
-19.208998
-19.20895
-19.208711
-19.207785
-19.205442
-19.201357
-19.196172
-19.190902
-19.18623
-19.208117
-19.208056
-19.207814
-19.206921
-19.204665
-19.200704
-19.195636
-19.190458
-19.185888
-19.206744
-19.206665
-19.20642
-19.205572
-19.203436
-19.199658
-19.19477
-19.189739
-19.185331
-19.20482
-19.204721
-19.204474
-19.203687
-19.201713
-19.198175
-19.19353
-19.188705
-19.18452
-19.202258
-19.202149
-19.20192
-19.201222
-19.199453
-19.196206
-19.191859
-19.187313
-19.183419
-19.199055
-19.198953
-19.198748
-19.198148
-19.196615
-19.1937
-19.189701
-19.185506
-19.181964
-19.195174
-19.195101
-19.194941
-19.194466
-19.193182
-19.190647
-19.187047
-19.183246
-19.180093
-19.190807
-19.190791
-19.190702
-19.190345
-19.189336
-19.187212
-19.184025
-19.180658
-19.177924
-19.186127
-19.186172
-19.186164
-19.185937
-19.185184
-19.183433
-19.180731
-19.177942
-19.175738
-19.181168
-19.181266
-19.181342
-19.181273
-19.180812
-19.179553
-19.177568
-19.175634
-19.174005
-19.176618
-19.176775
-19.176973
-19.177136
-19.177093
-19.176563
-19.175682
-19.175006
-19.174001
-18.193372
-18.193382
-18.193427
-18.193544
-18.193773
-18.194146
-18.194657
-18.195183
-18.195395
-18.195385
-18.195358
-18.195336
-18.195348
-18.195426
-18.195612
-18.19589
-18.196124
-18.196157
-18.197515
-18.197454
-18.197395
-18.197367
-18.197395
-18.197519
-18.197683
-18.197772
-18.197728
-18.199297
-18.199214
-18.199135
-18.199098
-18.199132
-18.199238
-18.19934
-18.199296
-18.199078
-18.200611
-18.200529
-18.20044
-18.200378
-18.200401
-18.200504
-18.200559
-18.200394
-18.200011
-18.201593
-18.201515
-18.201418
-18.201346
-18.201343
-18.201425
-18.201449
-18.2012
-18.200692
-18.202381
-18.202303
-18.2022
-18.202117
-18.20211
-18.202176
-18.202171
-18.201865
-18.201261
-18.203011
-18.202931
-18.202831
-18.202749
-18.202745
-18.202808
-18.202785
-18.202431
-18.201737
-18.20351
-18.203425
-18.203319
-18.203239
-18.203241
-18.203314
-18.203285
-18.20289
-18.202116
-18.20388
-18.203793
-18.203683
-18.203601
-18.203609
-18.203692
-18.203664
-18.20324
-18.202404
-18.204128
-18.204038
-18.203925
-18.203841
-18.203853
-18.203945
-18.20392
-18.203477
-18.2026
-18.204243
-18.204153
-18.204039
-18.203957
-18.203972
-18.204071
-18.204049
-18.203599
-18.202702
-18.204243
-18.204153
-18.204039
-18.203957
-18.203973
-18.204071
-18.204049
-18.203599
-18.202702
-18.204128
-18.204038
-18.203925
-18.203842
-18.203854
-18.203946
-18.203921
-18.203478
-18.2026
-18.20388
-18.203794
-18.203684
-18.203602
-18.20361
-18.203693
-18.203665
-18.20324
-18.202403
-18.20351
-18.203426
-18.20332
-18.20324
-18.203243
-18.203315
-18.203286
-18.20289
-18.202116
-18.203012
-18.202932
-18.202832
-18.202751
-18.202747
-18.20281
-18.202787
-18.202432
-18.201736
-18.202383
-18.202305
-18.202202
-18.202119
-18.202113
-18.202178
-18.202173
-18.201867
-18.201262
-18.201595
-18.201517
-18.201421
-18.20135
-18.201347
-18.201428
-18.201453
-18.201202
-18.200693
-18.200615
-18.200533
-18.200444
-18.200383
-18.200405
-18.200509
-18.200563
-18.200397
-18.200012
-18.199303
-18.199219
-18.19914
-18.199104
-18.199138
-18.199244
-18.199345
-18.1993
-18.199081
-18.197521
-18.19746
-18.197402
-18.197374
-18.197402
-18.197526
-18.19769
-18.197777
-18.197732
-18.195393
-18.195365
-18.195344
-18.195356
-18.195434
-18.19562
-18.195898
-18.196132
-18.196163
-18.19338
-18.19339
-18.193436
-18.193553
-18.193782
-18.194155
-18.194666
-18.195193
-18.195405
-17.260563
-17.260613
-17.260678
-17.260748
-17.260815
-17.260861
-17.260866
-17.26083
-17.260632
-17.261229
-17.261276
-17.261324
-17.261348
-17.26132
-17.261208
-17.261011
-17.260762
-17.260451
-17.262049
-17.262092
-17.262124
-17.262106
-17.261993
-17.261764
-17.261462
-17.261139
-17.26084
-17.26289
-17.262923
-17.262936
-17.26288
-17.26271
-17.262416
-17.262056
-17.261687
-17.261367
-17.263812
-17.263831
-17.263823
-17.263739
-17.263536
-17.263206
-17.262785
-17.262347
-17.261976
-17.264787
-17.264789
-17.264764
-17.264667
-17.264458
-17.264107
-17.26363
-17.263115
-17.262675
-17.265724
-17.265712
-17.265673
-17.265572
-17.265366
-17.265008
-17.264495
-17.263914
-17.2634
-17.266576
-17.266554
-17.266506
-17.266403
-17.266199
-17.265838
-17.2653
-17.264664
-17.264075
-17.267298
-17.267268
-17.267214
-17.267108
-17.266907
-17.266548
-17.265991
-17.26531
-17.264652
-17.267861
-17.267826
-17.267768
-17.26766
-17.267464
-17.267107
-17.266538
-17.26582
-17.265105
-17.268248
-17.26821
-17.268149
-17.268042
-17.267848
-17.267494
-17.266916
-17.266173
-17.265417
-17.268443
-17.268404
-17.268341
-17.268234
-17.268043
-17.267691
-17.267109
-17.266354
-17.265577
-17.268443
-17.268404
-17.268341
-17.268234
-17.268043
-17.267691
-17.267109
-17.266353
-17.265577
-17.268248
-17.26821
-17.268149
-17.268042
-17.267849
-17.267494
-17.266916
-17.266173
-17.265417
-17.26786
-17.267826
-17.267768
-17.267661
-17.267464
-17.267108
-17.266538
-17.26582
-17.265104
-17.267298
-17.267269
-17.267215
-17.267108
-17.266908
-17.266549
-17.265992
-17.26531
-17.26465
-17.266577
-17.266555
-17.266507
-17.266404
-17.2662
-17.26584
-17.265301
-17.264664
-17.264073
-17.265725
-17.265713
-17.265675
-17.265575
-17.265369
-17.265011
-17.264497
-17.263915
-17.263398
-17.264789
-17.264792
-17.264767
-17.264671
-17.264461
-17.264111
-17.263633
-17.263116
-17.262674
-17.263816
-17.263835
-17.263828
-17.263744
-17.263541
-17.263211
-17.262789
-17.262349
-17.261976
-17.262895
-17.262929
-17.262942
-17.262887
-17.262717
-17.262422
-17.262062
-17.261691
-17.261368
-17.262056
-17.2621
-17.262132
-17.262114
-17.262002
-17.261773
-17.261469
-17.261144
-17.260843
-17.261239
-17.261286
-17.261334
-17.261358
-17.26133
-17.261218
-17.261021
-17.26077
-17.260456
-17.260574
-17.260624
-17.260689
-17.260759
-17.260826
-17.260872
-17.260877
-17.260841
-17.260641
-16.318985
-16.318995
-16.319015
-16.319052
-16.319119
-16.319228
-16.319378
-16.319555
-16.31966
-16.319568
-16.319569
-16.319573
-16.319584
-16.319615
-16.319674
-16.319752
-16.319824
-16.31985
-16.320167
-16.320163
-16.320159
-16.32016
-16.320179
-16.320215
-16.320251
-16.320269
-16.320272
-16.320688
-16.320679
-16.320671
-16.320672
-16.320688
-16.32071
-16.320713
-16.320688
-16.32065
-16.32112
-16.321109
-16.3211
-16.3211
-16.321108
-16.321106
-16.321073
-16.321005
-16.32092
-16.321456
-16.321447
-16.321438
-16.321434
-16.321425
-16.321395
-16.321327
-16.321217
-16.321085
-16.321692
-16.321685
-16.321676
-16.321662
-16.321636
-16.321582
-16.321484
-16.321336
-16.321161
-16.321861
-16.321855
-16.321843
-16.32182
-16.321777
-16.321702
-16.321574
-16.321392
-16.321181
-16.321984
-16.321977
-16.321962
-16.321933
-16.321877
-16.32178
-16.321626
-16.321414
-16.321174
-16.322074
-16.322066
-16.322048
-16.322012
-16.321945
-16.321831
-16.321655
-16.321421
-16.321159
-16.322133
-16.322123
-16.322103
-16.322063
-16.321987
-16.321861
-16.321672
-16.321422
-16.321145
-16.32216
-16.32215
-16.322129
-16.322087
-16.322007
-16.321875
-16.321679
-16.321422
-16.321137
-16.32216
-16.32215
-16.322129
-16.322087
-16.322007
-16.321875
-16.321679
-16.321422
-16.321137
-16.322132
-16.322123
-16.322103
-16.322063
-16.321987
-16.321862
-16.321672
-16.321422
-16.321144
-16.322073
-16.322065
-16.322048
-16.322012
-16.321945
-16.321831
-16.321655
-16.321421
-16.321157
-16.321984
-16.321977
-16.321962
-16.321933
-16.321877
-16.32178
-16.321626
-16.321413
-16.321171
-16.321861
-16.321855
-16.321843
-16.32182
-16.321779
-16.321703
-16.321575
-16.321391
-16.321178
-16.321693
-16.321686
-16.321677
-16.321664
-16.321638
-16.321584
-16.321485
-16.321335
-16.321158
-16.321458
-16.321449
-16.321441
-16.321437
-16.321429
-16.321398
-16.321329
-16.321218
-16.321082
-16.321123
-16.321113
-16.321105
-16.321105
-16.321113
-16.321111
-16.321077
-16.321006
-16.320918
-16.320694
-16.320686
-16.320678
-16.320679
-16.320696
-16.320717
-16.320719
-16.320691
-16.320649
-16.320175
-16.320171
-16.320168
-16.32017
-16.320188
-16.320224
-16.320258
-16.320274
-16.320272
-16.319579
-16.31958
-16.319584
-16.319596
-16.319627
-16.319686
-16.319762
-16.319831
-16.319852
-16.318997
-16.319007
-16.319027
-16.319065
-16.319132
-16.31924
-16.31939
-16.319565
-16.319667
-15.387486
-15.387497
-15.387512
-15.387531
-15.387554
-15.38758
-15.38761
-15.387647
-15.38765
-15.387676
-15.387685
-15.387694
-15.387701
-15.387701
-15.387692
-15.387676
-15.387662
-15.387639
-15.387904
-15.387911
-15.387916
-15.387914
-15.387897
-15.387866
-15.38783
-15.387802
-15.387787
-15.388129
-15.388133
-15.388134
-15.388124
-15.388098
-15.388059
-15.388016
-15.387981
-15.387965
-15.388361
-15.388362
-15.388358
-15.388342
-15.38831
-15.388267
-15.388218
-15.388174
-15.38815
-15.38861
-15.388607
-15.388599
-15.388579
-15.388546
-15.388499
-15.388443
-15.38839
-15.388353
-15.388858
-15.388852
-15.388841
-15.388822
-15.388789
-15.388741
-15.38868
-15.388618
-15.388568
-15.38909
-15.389082
-15.389069
-15.38905
-15.389019
-15.388973
-15.388911
-15.38884
-15.388776
-15.38929
-15.389281
-15.389268
-15.389249
-15.389221
-15.389178
-15.389116
-15.389039
-15.38896
-15.38945
-15.389439
-15.389426
-15.389408
-15.389383
-15.389344
-15.389282
-15.389199
-15.389107
-15.389561
-15.38955
-15.389536
-15.389519
-15.389496
-15.389459
-15.389397
-15.38931
-15.389209
-15.389618
-15.389606
-15.389592
-15.389575
-15.389554
-15.389518
-15.389457
-15.389367
-15.389261
-15.389617
-15.389606
-15.389592
-15.389575
-15.389554
-15.389518
-15.389457
-15.389367
-15.389261
-15.389561
-15.389549
-15.389535
-15.389518
-15.389496
-15.389459
-15.389397
-15.389309
-15.389208
-15.389449
-15.389439
-15.389425
-15.389407
-15.389383
-15.389344
-15.389281
-15.389197
-15.389105
-15.389289
-15.38928
-15.389267
-15.389249
-15.389221
-15.389179
-15.389116
-15.389037
-15.388957
-15.389089
-15.389081
-15.389069
-15.38905
-15.38902
-15.388974
-15.388911
-15.388839
-15.388772
-15.388858
-15.388852
-15.388842
-15.388823
-15.38879
-15.388742
-15.388681
-15.388617
-15.388564
-15.388611
-15.388608
-15.388601
-15.388582
-15.388549
-15.388502
-15.388445
-15.388389
-15.38835
-15.388364
-15.388365
-15.388361
-15.388346
-15.388315
-15.388271
-15.38822
-15.388175
-15.388147
-15.388134
-15.388138
-15.38814
-15.38813
-15.388105
-15.388065
-15.388021
-15.387983
-15.387963
-15.387912
-15.387919
-15.387925
-15.387923
-15.387906
-15.387875
-15.387837
-15.387806
-15.387788
-15.387686
-15.387695
-15.387705
-15.387712
-15.387712
-15.387702
-15.387686
-15.387669
-15.387642
-15.387497
-15.387508
-15.387523
-15.387542
-15.387566
-15.387592
-15.387622
-15.387657
-15.387657
-14.453031
-14.453033
-14.453037
-14.453046
-14.453064
-14.453093
-14.453135
-14.453183
-14.453212
-14.453178
-14.453177
-14.453177
-14.45318
-14.453188
-14.453204
-14.453224
-14.453242
-14.453248
-14.453328
-14.453327
-14.453325
-14.453325
-14.453329
-14.453337
-14.453344
-14.453348
-14.45335
-14.45346
-14.453457
-14.453454
-14.453454
-14.453456
-14.453459
-14.453458
-14.453451
-14.453445
-14.453568
-14.453565
-14.453562
-14.453561
-14.453561
-14.453558
-14.453548
-14.453532
-14.453516
-14.453654
-14.453651
-14.453647
-14.453645
-14.453641
-14.453632
-14.453615
-14.453589
-14.453563
-14.453718
-14.453715
-14.453711
-14.453706
-14.453699
-14.453685
-14.45366
-14.453626
-14.453589
-14.453766
-14.453763
-14.453758
-14.453751
-14.45374
-14.453721
-14.453689
-14.453646
-14.453599
-14.453802
-14.453799
-14.453793
-14.453785
-14.453771
-14.453747
-14.453708
-14.453656
-14.4536
-14.453829
-14.453825
-14.453819
-14.453809
-14.453792
-14.453764
-14.453719
-14.45366
-14.453597
-14.453846
-14.453842
-14.453835
-14.453824
-14.453806
-14.453774
-14.453726
-14.453662
-14.453594
-14.453854
-14.45385
-14.453843
-14.453832
-14.453812
-14.453779
-14.453729
-14.453663
-14.453592
-14.453854
-14.453849
-14.453842
-14.453831
-14.453812
-14.453779
-14.453729
-14.453662
-14.453591
-14.453845
-14.453841
-14.453834
-14.453824
-14.453805
-14.453774
-14.453725
-14.453661
-14.453592
-14.453827
-14.453824
-14.453818
-14.453808
-14.453792
-14.453763
-14.453719
-14.453659
-14.453595
-14.453801
-14.453797
-14.453792
-14.453784
-14.453771
-14.453746
-14.453707
-14.453654
-14.453597
-14.453765
-14.453762
-14.453757
-14.453751
-14.453741
-14.453722
-14.453689
-14.453644
-14.453595
-14.453717
-14.453715
-14.453711
-14.453707
-14.4537
-14.453686
-14.45366
-14.453624
-14.453585
-14.453654
-14.453651
-14.453649
-14.453647
-14.453643
-14.453634
-14.453616
-14.453589
-14.45356
-14.45357
-14.453567
-14.453564
-14.453564
-14.453564
-14.453561
-14.45355
-14.453532
-14.453513
-14.453464
-14.453461
-14.453459
-14.453459
-14.453462
-14.453464
-14.453462
-14.453453
-14.453443
-14.453335
-14.453333
-14.453332
-14.453332
-14.453336
-14.453344
-14.45335
-14.453352
-14.45335
-14.453186
-14.453185
-14.453185
-14.453188
-14.453197
-14.453212
-14.453231
-14.453248
-14.453251
-14.45304
-14.453042
-14.453046
-14.453056
-14.453073
-14.453103
-14.453144
-14.453192
-14.453218
-13.520872
-13.520874
-13.520877
-13.520882
-13.520888
-13.520895
-13.520906
-13.520921
-13.520928
-13.520927
-13.520928
-13.520929
-13.52093
-13.52093
-13.520929
-13.520929
-13.520931
-13.520931
-13.520989
-13.52099
-13.52099
-13.520988
-13.520984
-13.520979
-13.520975
-13.520973
-13.520975
-13.52105
-13.52105
-13.521049
-13.521046
-13.521041
-13.521034
-13.521027
-13.521024
-13.521025
-13.521112
-13.521112
-13.52111
-13.521106
-13.521099
-13.52109
-13.521081
-13.521074
-13.521072
-13.521174
-13.521173
-13.52117
-13.521166
-13.521158
-13.521147
-13.521135
-13.521124
-13.521118
-13.521231
-13.521229
-13.521227
-13.521222
-13.521214
-13.521202
-13.521187
-13.521173
-13.521163
-13.521282
-13.52128
-13.521277
-13.521272
-13.521264
-13.521252
-13.521236
-13.521218
-13.521205
-13.521325
-13.521323
-13.521319
-13.521315
-13.521307
-13.521295
-13.521277
-13.521258
-13.521241
-13.521358
-13.521356
-13.521353
-13.521348
-13.52134
-13.521328
-13.52131
-13.521289
-13.521269
-13.521381
-13.521379
-13.521375
-13.521371
-13.521364
-13.521351
-13.521333
-13.521311
-13.521289
-13.521392
-13.52139
-13.521387
-13.521382
-13.521375
-13.521363
-13.521345
-13.521322
-13.521299
-13.521392
-13.52139
-13.521387
-13.521382
-13.521375
-13.521363
-13.521344
-13.521321
-13.521298
-13.52138
-13.521378
-13.521375
-13.52137
-13.521363
-13.521351
-13.521333
-13.52131
-13.521287
-13.521357
-13.521355
-13.521352
-13.521347
-13.52134
-13.521328
-13.52131
-13.521288
-13.521267
-13.521323
-13.521321
-13.521318
-13.521314
-13.521307
-13.521294
-13.521277
-13.521256
-13.521237
-13.521281
-13.521279
-13.521276
-13.521272
-13.521264
-13.521252
-13.521235
-13.521217
-13.521201
-13.52123
-13.521229
-13.521227
-13.521222
-13.521215
-13.521203
-13.521187
-13.521171
-13.521159
-13.521174
-13.521173
-13.521171
-13.521167
-13.52116
-13.521149
-13.521136
-13.521123
-13.521114
-13.521114
-13.521114
-13.521112
-13.521109
-13.521102
-13.521093
-13.521083
-13.521073
-13.521068
-13.521054
-13.521054
-13.521054
-13.521051
-13.521046
-13.521038
-13.521031
-13.521025
-13.521023
-13.520995
-13.520996
-13.520996
-13.520995
-13.520991
-13.520985
-13.52098
-13.520976
-13.520975
-13.520934
-13.520935
-13.520937
-13.520938
-13.520938
-13.520936
-13.520936
-13.520936
-13.520933
-13.52088
-13.520883
-13.520886
-13.52089
-13.520896
-13.520904
-13.520915
-13.520929
-13.520933
-12.588104
-12.588105
-12.588106
-12.588108
-12.588113
-12.58812
-12.58813
-12.588141
-12.588148
-12.588141
-12.588141
-12.588141
-12.588141
-12.588143
-12.588146
-12.588151
-12.588154
-12.588155
-12.588179
-12.588179
-12.588178
-12.588178
-12.588178
-12.588179
-12.58818
-12.58818
-12.588181
-12.588213
-12.588212
-12.588211
-12.588211
-12.588211
-12.58821
-12.588208
-12.588207
-12.588206
-12.588242
-12.588241
-12.58824
-12.588239
-12.588238
-12.588236
-12.588233
-12.58823
-12.588227
-12.588267
-12.588266
-12.588264
-12.588263
-12.588261
-12.588259
-12.588254
-12.588249
-12.588244
-12.588288
-12.588287
-12.588285
-12.588283
-12.588281
-12.588277
-12.588272
-12.588265
-12.588258
-12.588305
-12.588304
-12.588302
-12.5883
-12.588297
-12.588293
-12.588287
-12.588278
-12.588269
-12.588319
-12.588318
-12.588316
-12.588313
-12.58831
-12.588306
-12.588299
-12.588288
-12.588277
-12.58833
-12.588329
-12.588326
-12.588324
-12.58832
-12.588316
-12.588308
-12.588296
-12.588283
-12.588337
-12.588336
-12.588333
-12.588331
-12.588327
-12.588322
-12.588314
-12.588301
-12.588287
-12.588341
-12.588339
-12.588337
-12.588334
-12.588331
-12.588326
-12.588317
-12.588304
-12.588288
-12.58834
-12.588339
-12.588336
-12.588334
-12.58833
-12.588325
-12.588317
-12.588304
-12.588288
-12.588337
-12.588335
-12.588333
-12.58833
-12.588327
-12.588322
-12.588314
-12.588301
-12.588285
-12.588329
-12.588328
-12.588326
-12.588323
-12.58832
-12.588315
-12.588307
-12.588295
-12.58828
-12.588318
-12.588317
-12.588315
-12.588313
-12.58831
-12.588306
-12.588298
-12.588287
-12.588274
-12.588304
-12.588303
-12.588302
-12.5883
-12.588297
-12.588293
-12.588287
-12.588277
-12.588265
-12.588287
-12.588286
-12.588285
-12.588284
-12.588282
-12.588278
-12.588272
-12.588264
-12.588254
-12.588267
-12.588266
-12.588266
-12.588265
-12.588263
-12.58826
-12.588255
-12.588248
-12.588241
-12.588244
-12.588243
-12.588243
-12.588242
-12.588241
-12.588239
-12.588235
-12.588229
-12.588224
-12.588216
-12.588216
-12.588216
-12.588216
-12.588215
-12.588215
-12.588212
-12.588208
-12.588204
-12.588185
-12.588184
-12.588184
-12.588184
-12.588185
-12.588185
-12.588185
-12.588183
-12.588181
-12.588148
-12.588148
-12.588148
-12.588149
-12.588151
-12.588154
-12.588157
-12.58816
-12.588157
-12.588113
-12.588113
-12.588114
-12.588117
-12.588121
-12.588128
-12.588138
-12.588149
-12.588153
-11.655683
-11.655683
-11.655684
-11.655685
-11.655686
-11.655689
-11.655693
-11.655698
-11.655701
-11.655699
-11.655699
-11.655699
-11.655699
-11.655699
-11.6557
-11.655701
-11.655703
-11.655705
-11.655717
-11.655717
-11.655717
-11.655716
-11.655715
-11.655715
-11.655715
-11.655715
-11.655717
-11.655734
-11.655733
-11.655733
-11.655732
-11.655731
-11.65573
-11.655729
-11.655729
-11.65573
-11.655749
-11.655749
-11.655748
-11.655748
-11.655746
-11.655744
-11.655742
-11.655741
-11.655741
-11.655764
-11.655763
-11.655763
-11.655762
-11.65576
-11.655758
-11.655755
-11.655752
-11.65575
-11.655777
-11.655776
-11.655776
-11.655774
-11.655772
-11.655769
-11.655765
-11.655761
-11.655758
-11.655788
-11.655787
-11.655787
-11.655785
-11.655783
-11.65578
-11.655774
-11.655769
-11.655765
-11.655797
-11.655796
-11.655796
-11.655794
-11.655792
-11.655788
-11.655782
-11.655775
-11.65577
-11.655804
-11.655803
-11.655802
-11.655801
-11.655799
-11.655794
-11.655788
-11.65578
-11.655774
-11.655808
-11.655808
-11.655807
-11.655806
-11.655803
-11.655799
-11.655792
-11.655784
-11.655776
-11.65581
-11.65581
-11.655809
-11.655808
-11.655806
-11.655801
-11.655794
-11.655785
-11.655777
-11.65581
-11.65581
-11.655809
-11.655808
-11.655805
-11.655801
-11.655794
-11.655785
-11.655777
-11.655808
-11.655807
-11.655807
-11.655806
-11.655803
-11.655799
-11.655791
-11.655783
-11.655775
-11.655803
-11.655803
-11.655802
-11.655801
-11.655799
-11.655794
-11.655787
-11.655779
-11.655772
-11.655796
-11.655796
-11.655795
-11.655794
-11.655792
-11.655788
-11.655782
-11.655774
-11.655767
-11.655787
-11.655787
-11.655786
-11.655785
-11.655784
-11.65578
-11.655774
-11.655768
-11.655762
-11.655777
-11.655776
-11.655776
-11.655775
-11.655773
-11.65577
-11.655766
-11.65576
-11.655755
-11.655764
-11.655764
-11.655764
-11.655763
-11.655762
-11.655759
-11.655756
-11.655751
-11.655748
-11.655751
-11.655751
-11.655751
-11.65575
-11.655749
-11.655747
-11.655744
-11.655741
-11.655739
-11.655737
-11.655737
-11.655737
-11.655736
-11.655736
-11.655734
-11.655732
-11.65573
-11.655729
-11.655722
-11.655722
-11.655722
-11.655722
-11.655721
-11.65572
-11.655719
-11.655718
-11.655717
-11.655706
-11.655706
-11.655706
-11.655706
-11.655706
-11.655707
-11.655707
-11.655708
-11.655707
-11.65569
-11.655691
-11.655691
-11.655692
-11.655694
-11.655697
-11.655701
-11.655705
-11.655706
-10.723234
-10.723234
-10.723234
-10.723235
-10.723236
-10.723237
-10.72324
-10.723242
-10.723244
-10.723243
-10.723243
-10.723243
-10.723243
-10.723243
-10.723244
-10.723245
-10.723246
-10.723246
-10.723253
-10.723253
-10.723252
-10.723252
-10.723252
-10.723252
-10.723252
-10.723252
-10.723253
-10.723262
-10.723262
-10.723261
-10.723261
-10.723261
-10.72326
-10.72326
-10.723259
-10.72326
-10.723271
-10.72327
-10.72327
-10.723269
-10.723269
-10.723268
-10.723267
-10.723267
-10.723267
-10.723279
-10.723279
-10.723278
-10.723278
-10.723277
-10.723276
-10.723275
-10.723274
-10.723274
-10.723287
-10.723286
-10.723286
-10.723285
-10.723284
-10.723284
-10.723283
-10.723281
-10.72328
-10.723294
-10.723293
-10.723292
-10.723292
-10.723291
-10.72329
-10.723289
-10.723288
-10.723286
-10.723299
-10.723299
-10.723298
-10.723297
-10.723297
-10.723296
-10.723295
-10.723293