/*--------------------------------*- C++ -*----------------------------------*\
| =========                 |                                                 |
| \\      /  F ield         | OpenFOAM: The Open Source CFD Toolbox           |
|  \\    /   O peration     | Version:  2406                                  |
|   \\  /    A nd           | Website:  www.openfoam.com                      |
|    \\/     M anipulation  |                                                 |
\*---------------------------------------------------------------------------*/
FoamFile
{
    version     2.0;
    format      ascii;
    arch        "LSB;label=32;scalar=64";
    class       surfaceScalarField;
    location    "5.5";
    object      phi;
}
// * * * * * * * * * * * * * * * * * * * * * * * * * * * * * * * * * * * * * //

dimensions      [0 3 -1 0 0 0 0];

oriented        oriented;

internalField   nonuniform List<scalar> 
101088
(
0.00012367048
-8.2184708e-06
5.9013409e-06
7.0568317e-06
0.00027958577
-3.6780985e-05
2.8311533e-05
3.2250387e-05
0.00045895826
-9.1763119e-05
7.4989543e-05
8.180716e-05
0.00063825833
-0.00017924228
0.00015652865
0.00016273762
0.00078180613
-0.00029230063
0.00027313779
0.00027057372
0.0008571793
-0.0004027027
0.00040132565
0.00038099087
0.00085689179
-0.00046873039
0.00049593006
0.00045391788
0.00080064312
-0.00046482025
0.00051967407
0.0004628973
-0.00039724944
0.00047006458
0.00041533188
0.00071428375
0.00015052358
-9.0957239e-06
7.8750853e-06
0.00033655091
-4.0106555e-05
3.7441798e-05
0.00054402635
-9.8596192e-05
9.8386863e-05
0.00074069534
-0.00018897134
0.00020343289
0.00088276467
-0.00030222268
0.00035093452
0.00093642108
-0.00040765129
0.00050949726
0.00090164223
-0.00046402784
0.00062416423
0.00080867926
-0.00044798646
0.00065346606
-0.00037253569
0.00059762386
0.00069839111
0.00017736373
-9.559411e-06
1.0002159e-05
0.0003924844
-4.1569713e-05
4.7111105e-05
0.0006255881
-0.00010093532
0.00012275584
0.00083636857
-0.0001904523
0.00025129435
0.00097472581
-0.00029970057
0.0004282376
0.0010078428
-0.00039686365
0.00061353686
0.00094453633
-0.00044302544
0.00074335296
0.00082549852
-0.00041847128
0.00077416854
-0.00034123621
0.00071046027
0.00069603389
0.00020337725
-9.661166e-06
1.2303589e-05
0.00044611616
-4.138657e-05
5.7336859e-05
0.00070258288
-9.9199217e-05
0.00014798092
0.00092473608
-0.00018436886
0.00029967892
0.0010575524
-0.00028609185
0.0005042929
0.0010711198
-0.00037300544
0.0007128754
0.00098360208
-0.00040975527
0.00085379581
0.00084433214
-0.00038045025
0.00088301295
-0.00030560762
0.00080988593
0.00070027865
0.00022778094
-9.3000637e-06
1.4642597e-05
0.00049578561
-3.9383949e-05
6.7588356e-05
0.00077283948
-9.345244e-05
0.0001729366
0.0010041077
-0.0001715963
0.00034680321
0.0011308567
-0.00026346756
0.00057693959
0.0011267916
-0.00033932304
0.00080571876
0.0010186858
-0.00036785185
0.00095469489
0.0008629374
-0.00033685519
0.00098025399
-0.00026722776
0.00089676789
0.00070726839
0.00025034708
-8.597993e-06
1.6956234e-05
0.00054151327
-3.6036757e-05
7.7595151e-05
0.00083713927
-8.4716714e-05
0.00019698591
0.0010762806
-0.00015387333
0.00039155044
0.0011971786
-0.00023415586
0.00064470534
0.0011772402
-0.00029844901
0.00089074505
0.0010510448
-0.00031981256
0.001045452
0.0008810034
-0.00028944982
0.0010660707
-0.00022692777
0.00097185077
0.00071531719
0.00027026725
-7.6255626e-06
1.9175679e-05
0.0005815177
-3.1633019e-05
8.7045804e-05
0.00089277873
-7.3705102e-05
0.00021936548
0.0011379515
-0.00013256197
0.00043253735
0.0012530883
-0.00020020201
0.00070571793
0.001219289
-0.00025293187
0.00096603105
0.0010779325
-0.00026832045
0.0011246125
0.00089612739
-0.00024034986
0.0011398148
-0.00018618009
0.001035306
0.00072240756
0.0002872798
-6.4111813e-06
2.1168169e-05
0.00061545794
-2.6351936e-05
9.5461676e-05
0.00093961124
-6.0926554e-05
0.00023914006
0.00118939
-0.00010867046
0.00046843281
0.0012992149
-0.00016310301
0.00075859052
0.0012535458
-0.00020456342
0.0010305687
0.0010995332
-0.00021515336
0.0011917459
0.00090795633
-0.00019094573
0.0012017069
-0.00014609915
0.0010878501
0.0007278091
0.00030115918
-4.9813626e-06
2.284774e-05
0.00064301022
-2.0345543e-05
0.0001025198
0.00097739808
-4.6777531e-05
0.00025564777
0.0012305803
-8.2925882e-05
0.00049823635
0.0013357464
-0.00012390168
0.00080222907
0.0012802222
-0.00015452335
0.0010834659
0.0011158796
-0.0001613915
0.0012463584
0.00091638935
-0.00014207792
0.0012516682
-0.00010743545
0.0011297968
0.00073133349
0.00031175565
-3.4085866e-06
2.4161707e-05
0.00066400908
-1.3871199e-05
0.00010802497
0.0010061005
-3.1748113e-05
0.00026848217
0.001261681
-5.6010076e-05
0.00052130884
0.0013630278
-8.3382677e-05
0.00083583619
0.0012997462
-0.00010352541
0.001123956
0.0011273798
-0.0001075311
0.0012878843
0.00092184703
-9.403902e-05
0.0012893801
-7.040282e-05
0.0011611562
0.00073329545
0.00031881172
-1.7554124e-06
2.5115072e-05
0.00067781096
-7.0810517e-06
0.00011194465
0.0010246646
-1.6115319e-05
0.00027746134
0.0012813884
-2.8296436e-05
0.00053717752
0.0013798277
-4.1984257e-05
0.00085860352
0.0013112649
-5.1953388e-05
0.0011510458
0.0011337032
-5.3762342e-05
0.0013153915
0.00092448908
-4.6806326e-05
0.0013141491
-3.4802229e-05
0.0011815795
0.00073408947
0.00032235622
-1.2543249e-11
2.5554991e-05
0.00068475859
-5.9107641e-11
0.00011379613
0.0010340399
-1.2694534e-10
0.00028179063
0.0012913697
-1.2287695e-10
0.00054496929
0.0013883354
-2.549389e-10
0.00086993761
0.001317049
-3.4594298e-10
0.0011646442
0.0011367852
-4.5599568e-10
0.0013292507
0.0009256619
-8.136631e-10
0.0013266359
-1.1355051e-09
0.0011918689
0.00073432616
0.00032235621
1.7554332e-06
2.5554987e-05
0.00068475874
7.0810333e-06
0.00011379611
0.00103404
1.6115164e-05
0.0002817906
0.0012913695
2.829624e-05
0.00054496921
0.0013883352
4.1983733e-05
0.00086993748
0.0013170489
5.1952503e-05
0.0011646441
0.001136785
5.3760992e-05
0.0013292506
0.0009256617
4.68044e-05
0.0013266358
3.479999e-05
0.0011918689
0.00073432601
0.00031881151
3.4086258e-06
2.5115071e-05
0.00067781113
1.3871177e-05
0.00011194464
0.0010246648
3.1747946e-05
0.00027746132
0.0012813882
5.6009927e-05
0.00053717747
0.0013798276
8.3382234e-05
0.00085860344
0.0013112649
0.0001035243
0.0011510457
0.001133703
0.00010752917
0.0013153915
0.0009244887
9.4036832e-05
0.0013141491
7.0400827e-05
0.0011815794
0.00073408916
0.00031175498
4.9812954e-06
2.4161698e-05
0.00066400865
2.0345231e-05
0.00010802493
0.0010061004
4.6777288e-05
0.00026848209
0.0012616806
8.2926057e-05
0.00052130868
0.0013630275
0.00012390162
0.00083583599
0.0012997459
0.00015452234
0.0011239558
0.0011273794
0.00016138972
0.0012878841
0.00092184663
0.00014207606
0.0012893799
0.00010743363
0.001161156
0.00073329523
0.00030115881
6.4111107e-06
2.2847736e-05
0.00064301015
2.6351648e-05
0.00010251978
0.00097739812
6.0926681e-05
0.00025564773
0.00123058
0.00010867108
0.00049823626
0.0013357459
0.00016310322
0.00080222898
0.0012802218
0.00020456278
0.0010834658
0.0011158791
0.00021515254
0.0012463582
0.00091638904
0.00019094463
0.001251668
0.00014609717
0.0011297967
0.00073133312
0.00028727994
7.6255018e-06
2.1168168e-05
0.00061545812
3.1632775e-05
9.546167e-05
0.00093961044
7.3704952e-05
0.00023914005
0.0011893892
0.00013256191
0.00046843277
0.0012992143
0.00020020177
0.00075859048
0.0012535455
0.00025293153
0.0010305686
0.0010995328
0.00026832036
0.0011917458
0.00090795594
0.00024034925
0.0012017069
0.00018617814
0.0010878501
0.0007278081
0.00027026771
8.5981039e-06
1.9175681e-05
0.00058151788
3.6036918e-05
8.7045806e-05
0.00089277716
8.4716516e-05
0.00021936548
0.001137951
0.00015387329
0.00043253732
0.0012530885
0.00023415584
0.00070571792
0.0012192894
0.00029844908
0.00096603107
0.0010779321
0.00031981215
0.0011246126
0.0008961267
0.00028944922
0.0011398148
0.00022692679
0.001035306
0.00072240603
0.00025034716
9.3000806e-06
1.6956238e-05
0.00054151331
3.9384025e-05
7.7595164e-05
0.00083713951
9.3452498e-05
0.00019698595
0.0010762817
0.00017159688
0.00039155048
0.0011971793
0.00026346774
0.00064470544
0.0011772407
0.00033932317
0.0008907452
0.001051044
0.00036785107
0.0010454522
0.00088100265
0.00033685492
0.0010660708
0.00026722829
0.00097185075
0.00071531586
0.00022778125
9.661276e-06
1.4642596e-05
0.00049578686
4.1386841e-05
6.7588351e-05
0.00077284082
9.9199458e-05
0.00017293659
0.0010041072
0.0001843686
0.00034680318
0.0011308566
0.00028609123
0.00057693954
0.0011267915
0.00037300447
0.00080571873
0.0010186849
0.00040975434
0.0009546949
0.0008629375
0.00038045001
0.00098025399
0.00030560901
0.00089676784
0.00070726757
0.00020337718
9.5594158e-06
1.2303586e-05
0.00044611602
4.1569635e-05
5.7336846e-05
0.00070258249
0.00010093524
0.00014798089
0.00092473532
0.00019045216
0.00029967885
0.0010575526
0.00029970078
0.00050429279
0.0010711206
0.00039686403
0.00071287529
0.00098360223
0.00044302528
0.00085379577
0.00084433323
0.00041847029
0.00088301293
0.00034123641
0.00080988591
0.00070027831
0.00017736356
9.0957287e-06
1.0002157e-05
0.00039248419
4.0106563e-05
4.7111095e-05
0.00062558836
9.8596346e-05
0.00012275582
0.00083636919
0.00018897144
0.00025129432
0.00097472597
0.0003022224
0.00042823755
0.0010078429
0.0004076515
0.0006135368
0.00094453551
0.00046402823
0.0007433529
0.00082549804
0.00044798589
0.00077416853
0.00037253544
0.00071046021
0.00069603459
0.00015052357
8.2184785e-06
7.8750872e-06
0.00033655085
3.6780993e-05
3.7441805e-05
0.00054402639
9.1763089e-05
9.8386882e-05
0.00074069546
0.00017924197
0.00020343293
0.00088276444
0.00029229992
0.00035093458
0.00093642104
0.00040270264
0.00050949732
0.0009016432
0.00046873216
0.0006241643
0.00080867891
0.0004648184
0.00065346616
0.00039724898
0.00059762385
0.00069839091
0.0001236705
5.9013444e-06
7.056807e-06
0.00027958585
2.8311548e-05
3.2250265e-05
0.00045895845
7.4989582e-05
8.1806838e-05
0.00063825845
0.00015652872
0.00016273691
0.0007818072
0.00027313791
0.00027057262
0.00085718182
0.0004013258
0.00038099035
0.00085689309
0.00049593025
0.00045391837
0.00080064444
0.00051967415
0.00046289561
0.00047006458
0.00041533128
0.00071428452
2.8217526e-06
2.4721983e-06
3.0128512e-06
-2.4054563e-06
1.4501052e-05
7.6994275e-06
1.6911745e-05
-7.9789097e-06
4.1079582e-05
8.2026542e-06
5.1018461e-05
-1.0810026e-05
8.8178153e-05
-1.2834015e-05
0.00011974963
2.51452e-06
0.00015570211
-7.8389819e-05
0.0002311658
5.2837797e-05
0.00023328642
-0.00019479815
0.00036832804
0.00015021146
0.00030213036
-0.00032627027
0.000482889
0.00027046758
0.00035093616
-0.00041638466
0.00052552568
0.00036172717
-0.00043006891
0.00048380928
0.0003877985
0.00037946184
3.8526484e-06
2.7956679e-06
3.6989694e-06
1.9802607e-05
8.0444519e-06
2.1146849e-05
5.5680409e-05
6.2188748e-06
6.4492845e-05
0.00011668878
-2.2490369e-05
0.00015208076
0.00019754655
-0.00010142906
0.00029311587
0.00027911851
-0.00023104044
0.00046416759
0.00033820183
-0.00036600479
0.00060481488
0.00036658527
-0.00044943907
0.00065813699
-0.00045162767
0.00061304869
0.00037271896
5.3419884e-06
3.1236102e-06
4.3322429e-06
2.6748882e-05
8.5496165e-06
2.5198982e-05
7.3163984e-05
4.9604756e-06
7.7598796e-05
0.00014815113
-2.9804462e-05
0.00018362094
0.00024014143
-0.00011806684
0.00035288526
0.00032233146
-0.00025401839
0.00055432457
0.00036960003
-0.00038572385
0.00071580378
0.00037879771
-0.00045975814
0.0007752896
-0.0004535643
0.00072540557
0.00036578939
7.1127469e-06
3.3047255e-06
5.0097138e-06
3.4881289e-05
8.7095802e-06
2.9408401e-05
9.3094239e-05
3.7844715e-06
9.0944097e-05
0.00018256249
-3.4724548e-05
0.00021513097
0.0002844429
-0.00012690454
0.00041124973
0.00036544046
-0.00026203605
0.0006398949
0.00040106883
-0.00038531868
0.00081776248
0.00039370583
-0.00044900281
0.00087962049
-0.00043749868
0.00082312656
0.00036439974
8.9247568e-06
3.34061e-06
5.6817848e-06
4.3092201e-05
8.5721906e-06
3.3557786e-05
0.00011295824
2.8448067e-06
0.00010400992
0.00021629034
-3.6949786e-05
0.0002456972
0.00032711549
-0.00012784555
0.00046705543
0.00040666391
-0.00025594001
0.00072007473
0.00043246399
-0.000367337
0.00091091362
0.00041217507
-0.00042086349
0.00097240324
-0.00040689506
0.00090785538
0.00037048418
1.0712965e-05
3.2269488e-06
6.3569328e-06
5.1128602e-05
8.1098768e-06
3.7641981e-05
0.00013220591
2.0649247e-06
0.00011668863
0.00024854819
-3.6717741e-05
0.0002749757
0.00036761205
-0.00012191929
0.00051971544
0.00044639087
-0.00023821523
0.00079424154
0.00046468612
-0.00033544657
0.00099526702
0.00043464495
-0.00037921611
0.0010544644
-0.00036501643
0.00098092042
0.00038369673
1.2401531e-05
2.9528751e-06
7.0479367e-06
5.8616941e-05
7.2957703e-06
4.1644523e-05
0.00014986574
1.4076266e-06
0.0001287751
0.00027761891
-3.4239521e-05
0.00030230581
0.00040361437
-0.00011014546
0.00056794873
0.00048183537
-0.00021125053
0.00086084519
0.00049444521
-0.00029306571
0.001069622
0.00045762645
-0.00032804289
0.0011254602
-0.00031519627
0.0010428246
0.00040028755
1.3899857e-05
2.5350652e-06
7.6860614e-06
6.51994e-05
6.1738563e-06
4.5283918e-05
0.00016523393
8.6984906e-07
0.00013964399
0.00030261257
-2.9837332e-05
0.00032665243
0.00043426177
-9.3650418e-05
0.0006104467
0.0005118833
-0.00017709931
0.00091879587
0.00052011448
-0.00024302509
0.0011334738
0.0004784765
-0.00027032625
0.001185628
-0.00025937146
0.0010944135
0.00041608841
1.514778e-05
2.0014659e-06
8.2338107e-06
7.0630372e-05
4.8251693e-06
4.8385761e-05
0.00017780012
4.8414153e-07
0.00014886369
0.00032279963
-2.3830093e-05
0.00034722971
0.00045875402
-7.34682e-05
0.0006460925
0.00053569219
-0.00013756122
0.0009669895
0.00054042889
-0.00018748229
0.0011860788
0.00049468561
-0.0002076689
0.0012347542
-0.00019848561
0.0011359841
0.00042761294
1.6101845e-05
1.3893618e-06
8.6722356e-06
7.4769432e-05
3.327437e-06
5.0855102e-05
0.00018731506
2.5239599e-07
0.00015616838
0.00033792865
-1.6588382e-05
0.0003634538
0.00047685483
-5.0540633e-05
0.00067398236
0.00055286325
-9.39944e-05
0.0010043807
0.00055428912
-0.00012757149
0.0012265479
0.00050458289
-0.00014085741
0.0012722753
-0.00013403908
0.0011673895
0.00043390368
1.6769569e-05
6.9948317e-07
9.0354384e-06
7.7625795e-05
1.652271e-06
5.2763578e-05
0.00019376206
2.5330321e-08
0.00016155237
0.00034795989
-8.6024413e-06
0.00037499415
0.00048856816
-2.5823086e-05
0.00069327798
0.00056359965
-4.7724549e-05
0.0010297448
0.00056236777
-6.4566857e-05
0.0012536194
0.0005096166
-7.1110377e-05
0.0012971538
-6.7441513e-05
0.0011880185
0.00043658042
1.7074588e-05
7.4355204e-12
9.1799054e-06
7.8926563e-05
1.8650795e-11
5.3596543e-05
0.00019669897
1.4177698e-11
0.0001640438
0.0003525135
-4.7816909e-11
0.00038055271
0.0004938288
-2.3060644e-10
0.00070280003
0.00056832227
-4.5325856e-10
0.0010424273
0.00056575596
-6.7215528e-10
0.0012672514
0.00051154477
-9.5537765e-10
0.001309738
-1.0797006e-09
0.0011984663
0.00043750697
1.7074607e-05
-6.994505e-07
9.1799035e-06
7.8926621e-05
-1.6521967e-06
5.3596533e-05
0.00019669903
-2.5245606e-08
0.00016404377
0.00035251349
8.6024409e-06
0.00038055265
0.00049382877
2.5822686e-05
0.00070279992
0.00056832219
4.7723538e-05
0.0010424272
0.00056575579
6.4565277e-05
0.0012672513
0.00051154457
7.1108317e-05
0.0013097379
6.7439401e-05
0.0011984663
0.00043750676
1.6769543e-05
-1.3893124e-06
9.0354366e-06
7.762591e-05
-3.3273503e-06
5.276357e-05
0.00019376222
-2.5229431e-07
0.00016155235
0.00034795992
1.6588478e-05
0.0003749941
0.00048856819
5.0540319e-05
0.00069327789
0.00056359958
9.3993243e-05
0.0010297447
0.00056236745
0.00012756961
0.0012536193
0.00050961615
0.00014085525
0.0012971537
0.00013403719
0.0011880184
0.00043657993
1.6101615e-05
-2.001437e-06
8.6722309e-06
7.4769355e-05
-4.8251591e-06
5.0855079e-05
0.00018731507
-4.8407008e-07
0.00015616832
0.00033792844
2.3830297e-05
0.00036345366
0.00047685457
7.3468027e-05
0.00067398216
0.00055286292
0.00013756014
0.0010043805
0.00055428863
0.00018748054
0.0012265476
0.00050458232
0.00020766697
0.001272275
0.00019848386
0.0011673892
0.00043390318
1.5147554e-05
-2.5350564e-06
8.2338069e-06
7.0630346e-05
-6.1738732e-06
4.8385744e-05
0.00017780009
-8.6967221e-07
0.00014886365
0.00032279935
2.983773e-05
0.00034722961
0.00045875355
9.3650439e-05
0.00064609237
0.0005356917
0.00017709859
0.00096698932
0.0005404284
0.00024302392
0.0011860786
0.00049468511
0.00027032475
0.001234754
0.00025936955
0.0011359839
0.00042761248
1.3899903e-05
-2.9528553e-06
7.6860583e-06
6.5199595e-05
-7.295761e-06
4.5283904e-05
0.00016523357
-1.4074693e-06
0.00013964395
0.00030261207
3.4239787e-05
0.00032665236
0.00043426119
0.00011014544
0.00061044662
0.00051188285
0.00021125016
0.00091879576
0.00052011405
0.00029306508
0.0011334737
0.00047847606
0.00032804174
0.0011856279
0.00031519433
0.0010944134
0.00041608772
1.2401783e-05
-3.2268939e-06
7.0479343e-06
5.8617173e-05
-8.1097925e-06
4.1644512e-05
0.00014986511
-2.0648741e-06
0.00012877508
0.00027761871
3.6717927e-05
0.00030230575
0.00040361419
0.00012191935
0.00056794868
0.00048183518
0.00023821515
0.00086084516
0.00049444468
0.00033544602
0.001069622
0.00045762583
0.00037921518
0.0011254601
0.00036501507
0.0010428245
0.0004002866
1.0712994e-05
-3.3405668e-06
6.3569321e-06
5.1128584e-05
-8.5720727e-06
3.764198e-05
0.00013220586
-2.8446312e-06
0.00011668863
0.0002485485
3.6950226e-05
0.00027497571
0.00036761208
0.00012784579
0.00051971548
0.00044639065
0.0002559401
0.00079424162
0.00046468524
0.00036733644
0.00099526712
0.0004346441
0.00042086283
0.0010544644
0.00040689442
0.00098092031
0.00038369584
8.9248824e-06
-3.3046392e-06
5.6817836e-06
4.3092759e-05
-8.7093462e-06
3.355778e-05
0.00011295891
-3.7841366e-06
0.0001040099
0.00021629018
3.4724837e-05
0.00024569717
0.0003271153
0.00012690473
0.00046705538
0.00040666337
0.00026203601
0.00072007467
0.00043246282
0.00038531828
0.00091091357
0.0004121744
0.00044900225
0.00097240318
0.00043749824
0.00090785525
0.0003704833
7.1127784e-06
-3.1235621e-06
5.009713e-06
3.4881401e-05
-8.5495175e-06
2.9408395e-05
9.3094294e-05
-4.9602571e-06
9.094408e-05
0.00018256225
2.9804778e-05
0.00021513093
0.00028444287
0.0001180673
0.00041124964
0.00036544041
0.00025401882
0.00063989479
0.00040106808
0.00038572385
0.00081776239
0.0003937054
0.00045975747
0.00087962041
0.00045356336
0.00082312645
0.00036439886
5.3419328e-06
-2.7956218e-06
4.3322428e-06
2.6748816e-05
-8.0443251e-06
2.5198979e-05
7.3164149e-05
-6.2185782e-06
7.7598786e-05
0.00014815154
2.2490764e-05
0.00018362092
0.00024014168
0.00010142933
0.0003528852
0.00032233159
0.00023104089
0.00055432448
0.00036959918
0.00036600562
0.00071580367
0.00037879637
0.00044943937
0.00077528952
0.00045162657
0.00072540549
0.00036578874
3.8526578e-06
-2.4721752e-06
3.6989713e-06
1.9802655e-05
-7.6993658e-06
2.1146856e-05
5.5680652e-05
-8.2025574e-06
6.4492861e-05
0.00011668927
1.2834001e-05
0.00015208079
0.00019754716
7.8389532e-05
0.0002931159
0.0002791195
0.00019479808
0.00046416761
0.00033820347
0.00032627144
0.00060481487
0.00036658652
0.00041638451
0.00065813699
0.00043006831
0.00061304868
0.00037271988
2.8217987e-06
3.0128542e-06
-2.4054724e-06
1.4501238e-05
1.6911758e-05
-7.9789835e-06
4.1079957e-05
5.1018491e-05
-1.0810225e-05
8.8178694e-05
0.00011974969
2.513993e-06
0.00015570356
0.00023116588
5.2836839e-05
0.00023328926
0.00036832812
0.0001502106
0.00030213341
0.00048288908
0.00027046736
0.00035093935
0.00052552574
0.00036172684
0.00048380932
0.00038779934
0.00037946304
6.4213088e-07
2.4551338e-07
2.8088034e-06
-6.8359647e-07
3.5801439e-06
3.3976788e-07
1.5859161e-05
-2.2252029e-06
1.0992506e-05
-2.0499908e-06
4.8348983e-05
-2.6929109e-06
2.5934428e-05
-1.3529421e-05
0.00011492643
3.4106657e-06
5.1944578e-05
-4.7898647e-05
0.00022491997
2.813429e-05
9.0944825e-05
-0.00012049637
0.00036365683
8.6167342e-05
0.00014007591
-0.00022501549
0.00048293793
0.00017583559
0.00019077047
-0.00031396457
0.00053005235
0.00025874353
-0.00034393608
0.00048986651
0.00029661565
0.00023203378
8.244668e-07
-1.3502945e-07
3.2550424e-06
4.8189312e-06
-1.4624749e-06
1.8954611e-05
1.5049681e-05
-6.7654169e-06
5.8977455e-05
3.5239386e-05
-2.3602388e-05
0.00014196389
6.8071986e-05
-6.6972916e-05
0.00027935739
0.00011174671
-0.00015180756
0.00045180403
0.0001583779
-0.00026606469
0.00059923297
0.00019875315
-0.00035549529
0.00065929249
-0.00037760483
0.00061735691
0.00022811338
1.0624817e-06
-4.5499369e-07
3.5897119e-06
6.1927502e-06
-2.9682361e-06
2.1574452e-05
1.928521e-05
-1.0725149e-05
6.8465998e-05
4.4661592e-05
-3.2049906e-05
0.00016669197
8.3824245e-05
-8.2630941e-05
0.00032938054
0.00013070021
-0.00017618501
0.00053182599
0.00017278912
-0.00029464591
0.00070229621
0.00020143724
-0.00037997908
0.00077112523
-0.00039351489
0.00072625829
0.00021649449
1.3209938e-06
-6.9424429e-07
3.9279307e-06
7.702424e-06
-4.094402e-06
2.4153027e-05
2.3877066e-05
-1.3637903e-05
7.7682002e-05
5.4637005e-05
-3.8088559e-05
0.00019040948
9.998339e-05
-9.3356561e-05
0.00037662876
0.00014928675
-0.00019143243
0.00060583888
0.00018608522
-0.0003087442
0.00079506241
0.00020333112
-0.00038668335
0.00086907881
-0.00039212104
0.00081962889
0.00020543487
1.5540737e-06
-8.1182794e-07
4.2452669e-06
9.1166881e-06
-4.6882808e-06
2.6588964e-05
2.8288729e-05
-1.5199406e-05
8.6399239e-05
6.4331776e-05
-4.1217846e-05
0.00021278335
0.00011555602
-9.8415838e-05
0.0004208903
0.00016670792
-0.00019662944
0.00067411976
0.00019833708
-0.00030818384
0.0008787241
0.00020572531
-0.00037682654
0.00095515807
-0.00037568147
0.00089964364
0.00019749748
1.8318944e-06
-8.5391497e-07
4.5670869e-06
1.0721591e-05
-4.8989208e-06
2.8962851e-05
3.315821e-05
-1.5686316e-05
9.47389e-05
7.4820455e-05
-4.1838798e-05
0.0002339344
0.00013192498
-9.811141e-05
0.00046230651
0.00018432247
-0.00019172456
0.00073693909
0.00021076386
-0.00029333741
0.0009539792
0.00020943347
-0.00035165745
0.0010306255
-0.00034568037
0.00096786724
0.00019248551
2.1049373e-06
-8.2947965e-07
4.9185306e-06
1.2277006e-05
-4.7555821e-06
3.1329063e-05
3.7803371e-05
-1.5133672e-05
0.00010269615
8.4601879e-05
-3.9938316e-05
0.0002536067
0.00014666164
-9.2324091e-05
0.00050010166
0.00019948109
-0.00017693628
0.00079323734
0.00022107593
-0.00026537308
0.0010200628
0.0002124664
-0.00031301783
0.0010954298
-0.00030406303
0.0010249752
0.00018869845
2.3488997e-06
-7.4135786e-07
5.2490318e-06
1.3659195e-05
-4.2680282e-06
3.3486042e-05
4.1899754e-05
-1.3561221e-05
0.00010983113
9.3131211e-05
-3.5581811e-05
0.00027106445
0.00015920548
-8.1311769e-05
0.00053336014
0.00021207079
-0.0001532444
0.00084223848
0.00022937063
-0.00022597621
0.0010767769
0.00021488402
-0.00026292802
0.0011500247
-0.00025313926
0.001071991
0.00018638269
2.559739e-06
-6.0120782e-07
5.5339522e-06
1.4840046e-05
-3.4824586e-06
3.5319854e-05
4.5360223e-05
-1.1076797e-05
0.00011585919
0.00010020279
-2.8964326e-05
0.00028576959
0.00016930006
-6.5570444e-05
0.00056125389
0.00022188245
-0.00012189294
0.00088305547
0.00023563945
-0.00017718758
0.001123533
0.00021710427
-0.00020401912
0.0011943804
-0.00019555541
0.0011094589
0.00018604571
2.7299572e-06
-4.2326977e-07
5.7643591e-06
1.5783755e-05
-2.4644645e-06
3.6783283e-05
4.8092958e-05
-7.8498449e-06
0.00012063234
0.00010569938
-2.0474774e-05
0.00029735779
0.0001770072
-4.6008059e-05
0.00058311215
0.0002293325
-8.4635839e-05
0.00091479826
0.00024084041
-0.00012168378
0.0011595362
0.00022006318
-0.00013910445
0.0012281379
-0.00013303618
0.0011375332
0.00018740033
2.8605542e-06
-2.2242917e-07
5.9740497e-06
1.6482206e-05
-1.2892063e-06
3.7966659e-05
5.0051593e-05
-4.0907698e-06
0.00012422404
0.00010951794
-1.0624957e-05
0.00030567804
0.00018219217
-2.3729636e-05
0.00059832539
0.00023422505
-4.3337824e-05
0.00093641396
0.00024438401
-6.1868444e-05
0.0011836452
0.00022241133
-7.0428214e-05
0.0012504503
-6.7281868e-05
0.0011558506
0.000188825
2.9112995e-06
1.0364304e-11
6.0461932e-06
1.677277e-05
2.6795143e-11
3.8445865e-05
5.0903771e-05
4.1927266e-11
0.00012582211
0.00011121759
-1.1905618e-11
0.00030961406
0.00018449335
-2.1301761e-10
0.000605795
0.00023634683
-5.6222664e-10
0.00094723668
0.00024590878
-9.0324801e-10
0.001195822
0.0002234624
-1.0808611e-09
0.0012617572
-1.0198175e-09
0.0011651296
0.00018951829
2.9112986e-06
2.2245642e-07
6.0461921e-06
1.6772765e-05
1.2892758e-06
3.8445859e-05
5.0903713e-05
4.0908811e-06
0.00012582209
0.00011121751
1.0624967e-05
0.00030961401
0.00018449322
2.3729218e-05
0.00060579492
0.00023634664
4.3336653e-05
0.00094723657
0.00024590855
6.1866561e-05
0.0011958219
0.00022346216
7.0425999e-05
0.0012617572
6.7279849e-05
0.0011651295
0.00018951802
2.8605619e-06
4.233036e-07
5.9740489e-06
1.6482244e-05
2.4645521e-06
3.7966656e-05
5.005154e-05
7.8499966e-06
0.00012422403
0.00010951785
2.0474848e-05
0.00030567801
0.00018219195
4.600768e-05
0.00059832534
0.00023422468
8.4634646e-05
0.00093641389
0.0002443835
0.00012168185
0.0011836451
0.00022241072
0.00013910222
0.0012504502
0.00013303425
0.0011558504
0.0001888243
2.729938e-06
6.0125043e-07
5.7643569e-06
1.5783752e-05
3.4825768e-06
3.678327e-05
4.8092802e-05
1.1077002e-05
0.0001206323
0.00010569912
2.8964472e-05
0.00029735771
0.00017700671
6.5570142e-05
0.00058311201
0.0002293318
0.00012189184
0.00091479806
0.00024083954
0.00017718575
0.0011595359
0.0002200622
0.00020401698
0.0012281377
0.00019555356
0.0011375329
0.00018739929
2.5597029e-06
7.4140857e-07
5.5339509e-06
1.4840006e-05
4.2681802e-06
3.5319847e-05
4.5359988e-05
1.3561483e-05
0.00011585917
0.00010020241
3.5582049e-05
0.00028576954
0.00016929936
8.1311627e-05
0.00056125381
0.00022188152
0.00015324357
0.00088305535
0.0002356383
0.00022597472
0.0011235328
0.00021710294
0.00026292613
0.0011943802
0.00025313749
0.0011094586
0.00018604427
2.3488972e-06
8.2953597e-07
5.249031e-06
1.3659192e-05
4.755746e-06
3.3486039e-05
4.1899514e-05
1.5133968e-05
0.00010983113
9.3130786e-05
3.9938663e-05
0.00027106444
0.00015920471
9.2324164e-05
0.00053336012
0.00021206976
0.00017693581
0.00084223844
0.0002293693
0.00026537202
0.0010767768
0.00021488244
0.00031301629
0.0011500245
0.00030406143
0.0010719909
0.00018638089
2.1049585e-06
8.5397627e-07
4.9185304e-06
1.2277048e-05
4.8991022e-06
3.1329063e-05
3.7803243e-05
1.5686683e-05
0.00010269615
8.4601602e-05
4.1839316e-05
0.00025360671
0.00014666098
9.8111711e-05
0.00050010168
0.0001994801
0.00019172437
0.00079323736
0.00022107453
0.00029333668
0.0010200628
0.00021246468
0.00035165632
0.0010954298
0.00034567912
0.001024975
0.00018869644
1.8319159e-06
8.1190246e-07
4.5670882e-06
1.072165e-05
4.6884929e-06
2.8962859e-05
3.31582e-05
1.519981e-05
9.4738925e-05
7.482027e-05
4.1218407e-05
0.00023393446
0.00013192445
9.8416213e-05
0.00046230661
0.00018432162
0.00019662939
0.00073693921
0.00021076257
0.00030818334
0.00095397929
0.00020943184
0.00037682584
0.0010306255
0.00037568059
0.00096786711
0.00019248366
1.5540839e-06
6.943254e-07
4.2452672e-06
9.1167398e-06
4.0946339e-06
2.6588965e-05
2.8288796e-05
1.3638347e-05
8.6399242e-05
6.4331693e-05
3.808919e-05
0.00021278336
0.00011555573
9.3357082e-05
0.0004208903
0.0001667073
0.00019143256
0.00067411974
0.00019833605
0.00030874392
0.00087872405
0.00020572401
0.00038668304
0.00095515797
0.00039212036
0.00089964349
0.000197496
1.3210171e-06
4.550705e-07
3.9279303e-06
7.7025223e-06
2.9684533e-06
2.4153024e-05
2.3877257e-05
1.0725592e-05
7.7681992e-05
5.463721e-05
3.2050554e-05
0.00019040945
9.9983517e-05
8.2631512e-05
0.0003766287
0.00014928663
0.00017618521
0.00060583878
0.00018608473
0.00029464573
0.00079506228
0.00020333041
0.00037997904
0.00086907868
0.00039351447
0.00081962876
0.00020543396
1.0625042e-06
1.3508191e-07
3.589711e-06
6.1928538e-06
1.4626192e-06
2.1574446e-05
1.9285504e-05
6.7657154e-06
6.8465981e-05
4.4662157e-05
2.3602813e-05
0.00016669193
8.3825025e-05
6.6973219e-05
0.00032938045
0.00013070104
0.00015180763
0.00053182585
0.00017278954
0.00026606484
0.00070229603
0.00020143709
0.00035549592
0.00077112508
0.00037760482
0.0007262582
0.00021649409
8.2449826e-07
-2.4549746e-07
3.2550424e-06
4.8190865e-06
-3.3974235e-07
1.8954611e-05
1.5050131e-05
2.0500178e-06
5.8977451e-05
3.5240334e-05
1.3529355e-05
0.00014196387
6.8073605e-05
4.7898298e-05
0.00027935734
0.00011174893
0.00012049591
0.00045180395
0.00015838016
0.00022501566
0.00059923287
0.000198755
0.00031396561
0.00065929244
0.00034393698
0.00061735692
0.00022811442
6.4216703e-07
2.8088046e-06
-6.8361163e-07
3.580292e-06
1.5859166e-05
-2.22527e-06
1.099285e-05
4.8348993e-05
-2.6930717e-06
2.5935075e-05
0.00011492644
3.4102885e-06
5.1945826e-05
0.00022491996
2.8133529e-05
9.0946975e-05
0.0003636568
8.616626e-05
0.00014007913
0.0004829379
0.0001758345
0.00019077492
0.00053005237
0.00025874305
0.00048986655
0.00029661765
0.00023203682
-2.5727503e-07
2.6476608e-07
3.0973629e-06
-2.960509e-07
-1.2697471e-06
4.6407825e-07
1.714194e-05
-7.3439958e-07
-3.0453501e-06
-1.1709575e-06
5.1339793e-05
-4.4287108e-08
-4.0478399e-06
-9.104149e-06
0.00012007457
4.9584528e-06
1.8313991e-08
-3.1875275e-05
0.0002320362
2.0692848e-05
1.5252349e-05
-7.8665517e-05
0.0003721571
5.4931209e-05
4.3918218e-05
-0.00014432087
0.00049246065
0.00010613234
8.0278556e-05
-0.00020485927
0.00054019455
0.00015835691
-0.00023340552
0.0004990631
0.00018943666
0.00011505093
-2.9258451e-07
2.687167e-07
3.5436695e-06
-1.3298182e-06
2.3952859e-07
2.0216367e-05
-2.8634648e-06
-2.4467395e-06
6.1786829e-05
-2.8400249e-06
-1.3528058e-05
0.0001463643
3.4689e-06
-4.3408647e-05
0.00028458178
2.1494498e-05
-0.00010200663
0.00045711958
5.1088464e-05
-0.00017967945
0.00060499776
8.4536041e-05
-0.00024511313
0.00066609889
-0.00027056659
0.0006241914
0.00011486251
-2.4416684e-07
2.4973655e-07
3.852845e-06
-1.0668735e-06
-5.3539393e-08
2.2690201e-05
-1.9546914e-06
-3.8339738e-06
7.0741021e-05
-3.2462078e-07
-1.8016076e-05
0.00016954987
8.8996848e-06
-5.4514124e-05
0.00033126163
2.9797649e-05
-0.00012294452
0.00053186597
5.9287589e-05
-0.00020873669
0.00070186361
8.8577949e-05
-0.00027541146
0.00077213327
-0.00029561513
0.00072846578
0.00011141893
-1.3304089e-07
1.6626923e-07
4.1444195e-06
-4.8908447e-07
-5.633113e-07
2.5018788e-05
-2.2688556e-07
-5.5453798e-06
7.9131102e-05
3.6847543e-06
-2.2599356e-05
0.00019108101
1.6500039e-05
-6.4724021e-05
0.00037402337
4.0164384e-05
-0.00013969171
0.00059892184
6.8870765e-05
-0.00022895138