/*--------------------------------*- C++ -*----------------------------------*\
| =========                 |                                                 |
| \\      /  F ield         | OpenFOAM: The Open Source CFD Toolbox           |
|  \\    /   O peration     | Version:  2406                                  |
|   \\  /    A nd           | Website:  www.openfoam.com                      |
|    \\/     M anipulation  |                                                 |
\*---------------------------------------------------------------------------*/
FoamFile
{
    version     2.0;
    format      ascii;
    arch        "LSB;label=32;scalar=64";
    class       volVectorField;
    location    "5.5";
    object      U;
}
// * * * * * * * * * * * * * * * * * * * * * * * * * * * * * * * * * * * * * //

dimensions      [0 1 -1 0 0 0 0];

internalField   nonuniform List<vector> 
34560
(
(0.048842868 0.0010897902 -0.011510052)
(0.16022023 0.004264073 -0.03802527)
(0.302011 0.0077776619 -0.070118925)
(0.4702996 0.012216351 -0.10596115)
(0.65392981 0.01645317 -0.14005334)
(0.83469472 0.019506764 -0.16590812)
(0.99002698 0.020969072 -0.17843888)
(1.1055044 0.020999005 -0.17704572)
(1.1837963 0.021304077 -0.1659546)
(0.060242372 0.00087156337 -0.013787959)
(0.19453194 0.0038911282 -0.04518492)
(0.36073464 0.0072958393 -0.082111131)
(0.55094781 0.011823454 -0.12177334)
(0.74947219 0.016201548 -0.15727175)
(0.93515913 0.019377227 -0.18112114)
(1.0854433 0.021040034 -0.18877225)
(1.1892022 0.021670938 -0.18122935)
(1.2558402 0.022245943 -0.16327742)
(0.071936725 0.00090488717 -0.015619345)
(0.22898109 0.0041577392 -0.051053646)
(0.41832329 0.0077315886 -0.091875154)
(0.62776305 0.012330403 -0.13449811)
(0.83752082 0.016526473 -0.1710167)
(1.0248226 0.019252132 -0.19317529)
(1.1683431 0.020377124 -0.1971615)
(1.2610581 0.020722491 -0.18543645)
(1.3175432 0.020759749 -0.16442535)
(0.084075938 0.00081404775 -0.017392383)
(0.26397556 0.0040892418 -0.056653929)
(0.47553257 0.0077199925 -0.10097079)
(0.70214595 0.012346398 -0.14598526)
(0.92055337 0.016374349 -0.18301032)
(1.1074595 0.018734089 -0.20327588)
(1.2435949 0.019459012 -0.20399955)
(1.3260633 0.019634385 -0.18913106)
(1.37321 0.019554937 -0.16600642)
(0.096001349 0.00078919592 -0.018942155)
(0.29791068 0.0041288262 -0.061598204)
(0.53027287 0.0078086069 -0.10891981)
(0.77221402 0.012380767 -0.15586913)
(0.99748147 0.016156264 -0.19318312)
(1.1830109 0.018155645 -0.21165153)
(1.3118417 0.018584618 -0.20956071)
(1.3849863 0.018658365 -0.19221619)
(1.4235634 0.018513836 -0.16760377)
(0.10744673 0.00074835511 -0.020268164)
(0.33007389 0.0040159447 -0.065873848)
(0.5815093 0.0076161686 -0.11576037)
(0.83689106 0.01199725 -0.16429524)
(1.0675956 0.01545923 -0.20177833)
(1.2512564 0.017143301 -0.21861206)
(1.3731407 0.017388542 -0.21408802)
(1.4379619 0.017391223 -0.19477487)
(1.468792 0.017233353 -0.1690303)
(0.11819486 0.00068052054 -0.021427307)
(0.35988199 0.0037483266 -0.069599525)
(0.62839266 0.0071398292 -0.12165539)
(0.89528638 0.011201116 -0.17145685)
(1.1302341 0.014288348 -0.20897592)
(1.3118232 0.015677237 -0.22431182)
(1.4273564 0.015792599 -0.21768951)
(1.4847991 0.015737392 -0.19677694)
(1.5087346 0.015599058 -0.17012398)
(0.127675 0.00058084315 -0.022395663)
(0.38598199 0.0033066762 -0.072730238)
(0.66916148 0.0063382574 -0.12657984)
(0.94570016 0.0099272238 -0.17739078)
(1.1840803 0.012570262 -0.21487557)
(1.3638263 0.013681497 -0.22889039)
(1.4739487 0.013713523 -0.22049059)
(1.5250228 0.013633921 -0.19825232)
(1.542983 0.013547077 -0.17083034)
(0.13555668 0.00047083494 -0.023164016)
(0.40757365 0.0027417344 -0.075238608)
(0.70274368 0.005274854 -0.13051597)
(0.98706217 0.0082413334 -0.1821132)
(1.2282135 0.010364804 -0.21952729)
(1.4065108 0.01120254 -0.23242415)
(1.5122922 0.011181947 -0.22255718)
(1.5580789 0.011102918 -0.19923313)
(1.571076 0.011072931 -0.17117187)
(0.14165524 0.00034968069 -0.023732323)
(0.42422097 0.0020489703 -0.077113796)
(0.72854723 0.0039457212 -0.13345992)
(1.018735 0.0061486957 -0.18563956)
(1.2620013 0.0076922836 -0.22296232)
(1.4392323 0.008274694 -0.23496573)
(1.5417424 0.0082417715 -0.2239513)
(1.5834114 0.008189756 -0.19978808)
(1.5925767 0.0082073015 -0.17124415)
(0.14601893 0.00019057089 -0.024141317)
(0.43595326 0.0012029768 -0.078430291)
(0.74648915 0.0023573893 -0.13548738)
(1.0404872 0.0037118499 -0.1880274)
(1.2850506 0.0046615291 -0.22521943)
(1.4614551 0.005024191 -0.23656486)
(1.5617001 0.0050158883 -0.22474764)
(1.6005212 0.0050023438 -0.200018)
(1.6070794 0.0050420534 -0.17116769)
(0.14804674 7.5811485e-05 -0.024328548)
(0.44150174 0.00045704307 -0.079059204)
(0.75510133 0.0008791371 -0.13646456)
(1.0510671 0.0013577138 -0.1891844)
(1.2963896 0.0016747028 -0.226315)
(1.4724916 0.0017754424 -0.23733178)
(1.5716773 0.0017462044 -0.22510903)
(1.6090941 0.0017198578 -0.20009532)
(1.6143587 0.001719192 -0.17109876)
(0.14804674 -7.5809709e-05 -0.024328554)
(0.44150174 -0.00045706855 -0.079059224)
(0.75510134 -0.00087920616 -0.1364646)
(1.0510671 -0.00135779 -0.18918442)
(1.2963895 -0.0016748425 -0.226315)
(1.4724916 -0.0017756188 -0.2373318)
(1.5716773 -0.001746416 -0.22510902)
(1.6090941 -0.0017201526 -0.20009529)
(1.6143587 -0.0017195583 -0.17109871)
(0.14601893 -0.00019055761 -0.024141329)
(0.43595325 -0.0012029864 -0.078430274)
(0.74648913 -0.0023574413 -0.13548743)
(1.0404871 -0.0037119044 -0.18802742)
(1.2850505 -0.0046616387 -0.22521942)
(1.4614551 -0.0050243666 -0.23656488)
(1.5617001 -0.0050161441 -0.22474761)
(1.6005212 -0.005002653 -0.20001791)
(1.6070793 -0.0050423899 -0.1711676)
(0.14165523 -0.00034968713 -0.023732351)
(0.42422092 -0.0020489708 -0.077113719)
(0.72854715 -0.0039457363 -0.13346001)
(1.0187348 -0.0061487098 -0.18563961)
(1.2620012 -0.0076923422 -0.22296234)
(1.4392323 -0.0082748476 -0.23496572)
(1.5417425 -0.0082420308 -0.22395123)
(1.5834114 -0.0081900375 -0.19978797)
(1.5925766 -0.0082075894 -0.17124411)
(0.13555667 -0.00047083798 -0.023164064)
(0.40757363 -0.0027416876 -0.075238635)
(0.70274366 -0.0052747763 -0.13051613)
(0.98706213 -0.0082413066 -0.18211327)
(1.2282135 -0.010364841 -0.21952729)
(1.4065108 -0.011202663 -0.23242408)
(1.5122922 -0.011182123 -0.22255708)
(1.5580788 -0.01110312 -0.19923302)
(1.571076 -0.011073179 -0.17117188)
(0.127675 -0.0005808547 -0.022395651)
(0.38598198 -0.003306699 -0.072730272)
(0.66916147 -0.0063382297 -0.12657979)
(0.94570011 -0.0099272744 -0.17739059)
(1.1840803 -0.012570356 -0.21487546)
(1.3638262 -0.013681597 -0.22889029)
(1.4739487 -0.013713581 -0.22049052)
(1.5250228 -0.013634043 -0.19825219)
(1.5429831 -0.01354728 -0.17083025)
(0.11819486 -0.00068050904 -0.021427245)
(0.35988197 -0.003748416 -0.0695996)
(0.62839263 -0.0071398983 -0.12165522)
(0.89528625 -0.011201179 -0.17145663)
(1.130234 -0.01428844 -0.20897596)
(1.3118232 -0.0156773 -0.22431188)
(1.4273565 -0.015792627 -0.21768948)
(1.4847991 -0.015737481 -0.19677675)
(1.5087346 -0.015599194 -0.17012379)
(0.10744672 -0.00074832219 -0.020268165)
(0.33007386 -0.0040159155 -0.065873836)
(0.58150923 -0.007616155 -0.11576033)
(0.83689093 -0.011997151 -0.16429536)
(1.0675955 -0.015459238 -0.20177852)
(1.2512564 -0.017143289 -0.21861214)
(1.3731407 -0.0173886 -0.21408791)
(1.4379619 -0.017391312 -0.19477463)
(1.468792 -0.017233458 -0.16903015)
(0.09600134 -0.00078915999 -0.018942152)
(0.29791065 -0.0041288272 -0.0615983)
(0.53027282 -0.0078086592 -0.10892006)
(0.77221397 -0.012380743 -0.15586928)
(0.99748137 -0.016156296 -0.19318313)
(1.1830108 -0.018155746 -0.21165149)
(1.3118417 -0.018584665 -0.20956047)
(1.3849864 -0.018658467 -0.1922159)
(1.4235634 -0.018513977 -0.16760357)
(0.084075931 -0.00081401347 -0.017392392)
(0.26397554 -0.0040892318 -0.056654031)
(0.47553252 -0.0077199972 -0.1009709)
(0.70214588 -0.012346474 -0.1459853)
(0.92055327 -0.016374392 -0.18301033)
(1.1074595 -0.018734201 -0.20327585)
(1.243595 -0.019458952 -0.20399938)
(1.3260634 -0.01963454 -0.1891306)
(1.37321 -0.019555204 -0.16600611)
(0.071936727 -0.00090487158 -0.015619374)
(0.22898109 -0.0041577181 -0.051053724)
(0.41832331 -0.0077315619 -0.091875253)
(0.62776309 -0.012330443 -0.13449826)
(0.83752092 -0.01652651 -0.1710168)
(1.0248227 -0.019252156 -0.19317531)
(1.1683431 -0.020377076 -0.19716099)
(1.2610582 -0.02072222 -0.18543576)
(1.3175431 -0.020759688 -0.1644255)
(0.060242382 -0.00087155701 -0.013787973)
(0.19453197 -0.00389113 -0.045184945)
(0.3607347 -0.0072958298 -0.082111134)
(0.5509479 -0.011823463 -0.12177334)
(0.74947231 -0.016201648 -0.15727163)
(0.93515924 -0.019377362 -0.18112075)
(1.0854433 -0.021040111 -0.18877174)
(1.1892023 -0.021670232 -0.18122923)
(1.2558401 -0.022245217 -0.16327742)
(0.04884288 -0.0010897959 -0.011510038)
(0.16022027 -0.0042641103 -0.038025224)
(0.30201109 -0.0077777183 -0.070118838)
(0.47029974 -0.012216387 -0.10596094)
(0.65392998 -0.016453196 -0.14005287)
(0.8346949 -0.019506867 -0.16590771)
(0.99002723 -0.020969108 -0.17843905)
(1.1055044 -0.020998546 -0.1770456)
(1.1837961 -0.021303531 -0.16595432)
(0.022111407 0.0017676632 0.0013821776)
(0.086502069 0.0046068626 0.0027349114)
(0.19041245 0.0064265492 0.00040481311)
(0.34315547 0.0053986493 -0.0084236566)
(0.5414927 -6.146979e-05 -0.02509938)
(0.76242432 -0.0099183351 -0.047135657)
(0.97078097 -0.021977215 -0.067847219)
(1.1383511 -0.033049921 -0.081588292)
(1.2477231 -0.040532047 -0.086784412)
(0.025906482 0.0017860408 0.0011359653)
(0.10167432 0.0042828203 0.0016369664)
(0.22351558 0.0052046564 -0.0025817899)
(0.39970582 0.0025739667 -0.014557847)
(0.62080529 -0.0048563524 -0.034842657)
(0.85412877 -0.016208794 -0.059252224)
(1.0598646 -0.028512412 -0.079396324)
(1.2151425 -0.03861611 -0.0903465)
(1.3123666 -0.044418748 -0.091607716)
(0.029521369 0.0020705687 0.0010520552)
(0.1161896 0.0047710779 0.001036377)
(0.25518294 0.0054317911 -0.0046708906)
(0.45334943 0.0019614965 -0.019148454)
(0.69438064 -0.0064483063 -0.041944298)
(0.9359565 -0.018145168 -0.067475417)
(1.1357045 -0.029772567 -0.086400799)
(1.2775534 -0.038667978 -0.094804906)
(1.3642306 -0.043371182 -0.093446947)
(0.033455861 0.0022173376 0.00084180144)
(0.13143865 0.0049712807 0.00013541324)
(0.28758297 0.0054075141 -0.0071466075)
(0.50693038 0.0014222443 -0.023967256)
(0.76598429 -0.0073641958 -0.048688768)
(1.0134324 -0.018744151 -0.074596762)
(1.2058885 -0.029267044 -0.091911872)
(1.3343908 -0.036867258 -0.098033807)
(1.4107904 -0.040777736 -0.094752812)
(0.037364448 0.0022823054 0.00059576192)
(0.14644512 0.0050234453 -0.00080615162)
(0.319186 0.00530087 -0.0095467328)
(0.55865922 0.0010858072 -0.028412883)
(0.8341665 -0.0076091968 -0.054540207)
(1.0862794 -0.018247436 -0.080508257)
(1.2714591 -0.02749422 -0.096278671)
(1.3874452 -0.033812492 -0.10059306)
(1.4538103 -0.036985065 -0.09606202)
(0.041221997 0.0022613939 0.00031283626)
(0.16104402 0.0049240717 -0.0017858482)
(0.34955709 0.0051005732 -0.011827119)
(0.6077602 0.00092371144 -0.032367546)
(0.89788171 -0.0072727913 -0.05936507)
(1.1536767 -0.016855753 -0.08509618)
(1.3323267 -0.024730885 -0.099699491)
(1.4370682 -0.029850913 -0.10267515)
(1.4940283 -0.03238615 -0.097501591)
(0.045084005 0.0021272964 1.7920461e-05)
(0.17525483 0.0045869757 -0.0027536607)
(0.37848689 0.004674953 -0.013950106)
(0.65368041 0.00075256098 -0.03586204)
(0.95642436 -0.0066292299 -0.063394138)
(1.2149615 -0.014947199 -0.088723565)
(1.3878444 -0.021434662 -0.10238737)
(1.4829027 -0.025475477 -0.10439208)
(1.5314797 -0.027497539 -0.098974056)
(0.04858948 0.0018934569 -0.00026465755)
(0.1880539 0.0040523109 -0.0036417214)
(0.40436232 0.0040788745 -0.015803319)
(0.69447468 0.00060157801 -0.038778814)
(1.0079842 -0.0057323075 -0.06660018)
(1.2687224 -0.012676168 -0.091479694)
(1.4367396 -0.017879993 -0.10426064)
(1.5239926 -0.021002989 -0.10567454)
(1.5654996 -0.022610008 -0.10010523)
(0.051552803 0.0015667458 -0.00051676342)
(0.1988503 0.0033329912 -0.0044070629)
(0.4261429 0.0033194692 -0.017331183)
(0.72871192 0.0004426453 -0.041067314)
(1.0511416 -0.0046685317 -0.069007447)
(1.3136918 -0.010169835 -0.093418332)
(1.4778301 -0.014199526 -0.10541044)
(1.5590962 -0.016547028 -0.10640793)
(1.5948868 -0.01774897 -0.10051234)
(0.053889857 0.0011737746 -0.00072046301)
(0.20736626 0.0024870272 -0.0050092135)
(0.44329971 0.0024561211 -0.018489389)
(0.75559844 0.00030028946 -0.042723506)
(1.084874 -0.0034594003 -0.070659958)
(1.3487605 -0.0074607951 -0.094613019)
(1.5099407 -0.010367895 -0.10589439)
(1.5867965 -0.012032622 -0.10639487)
(1.6182072 -0.012832011 -0.10002574)
(0.055784482 0.0007307312 -0.00086571231)
(0.21393722 0.0015453247 -0.0054327465)
(0.45603641 0.0015175185 -0.019283984)
(0.77493451 0.00018196609 -0.043804593)
(1.1085267 -0.0021173821 -0.07167518)
(1.3729898 -0.0045507652 -0.09523772)
(1.5319965 -0.0063207019 -0.10597359)
(1.6058518 -0.0073269114 -0.1060007)
(1.6342631 -0.0077746702 -0.099268393)
(0.056556215 0.00023125376 -0.0009366443)
(0.21681386 0.00047585887 -0.0056350188)
(0.46190606 0.00044527259 -0.019653885)
(0.78418958 -1.6466311e-05 -0.044298581)
(1.1201273 -0.000788964 -0.072120151)
(1.3850429 -0.0015933545 -0.095473744)
(1.5430617 -0.0021678309 -0.10592483)
(1.6154641 -0.0024830961 -0.10567528)
(1.6423772 -0.0026099685 -0.098771199)
(0.056556212 -0.00023123834 -0.00093664475)
(0.21681385 -0.0004758318 -0.0056350322)
(0.46190604 -0.00044525297 -0.019653905)
(0.78418954 1.6446321e-05 -0.044298601)
(1.1201272 0.00078886162 -0.072120168)
(1.3850428 0.0015931726 -0.095473752)
(1.5430616 0.0021675871 -0.10592482)
(1.6154641 0.0024827867 -0.10567525)
(1.6423771 0.0026096314 -0.098771154)
(0.055784474 -0.00073070286 -0.00086571441)
(0.21393719 -0.0015452776 -0.0054327647)
(0.45603636 -0.0015174753 -0.019284029)
(0.7749344 -0.00018195547 -0.043804633)
(1.1085266 0.0021173069 -0.07167521)
(1.3729897 0.0045505855 -0.095237726)
(1.5319964 0.0063204438 -0.10597354)
(1.6058517 0.0073266045 -0.1060006)
(1.6342629 0.0077743604 -0.09926829)
(0.053889843 -0.0011737457 -0.00072047008)
(0.20736621 -0.0024869737 -0.0050092163)
(0.44329963 -0.0024560639 -0.018489454)
(0.75559831 -0.00030025553 -0.042723563)
(1.0848739 0.0034593537 -0.07065999)
(1.3487603 0.0074606263 -0.094613)
(1.5099406 0.010367643 -0.10589431)
(1.5867963 0.012032343 -0.10639474)
(1.618207 0.012831741 -0.10002565)
(0.051552792 -0.0015667226 -0.00051678314)
(0.19885026 -0.0033329327 -0.0044070911)
(0.42614284 -0.0033193888 -0.017331283)
(0.72871182 -0.00044259641 -0.041067383)
(1.0511415 0.0046685007 -0.069007463)
(1.3136917 0.010169694 -0.093418277)
(1.47783 0.014199324 -0.10541035)
(1.559096 0.016546804 -0.1064078)
(1.5948866 0.017748722 -0.1005123)
(0.048589469 -0.0018934373 -0.00026467397)
(0.18805386 -0.0040522717 -0.0036417911)
(0.40436225 -0.0040788072 -0.01580339)
(0.69447456 -0.00060155534 -0.038778814)
(1.0079841 0.0057322665 -0.066600157)
(1.2687223 0.012676074 -0.091479632)
(1.4367395 0.017879871 -0.10426055)
(1.5239925 0.021002829 -0.10567437)
(1.5654995 0.022609775 -0.10010516)
(0.045083994 -0.0021272718 1.7917523e-05)
(0.17525479 -0.0045869656 -0.0027537484)
(0.3784868 -0.004674926 -0.013950121)
(0.65368024 -0.00075254873 -0.035862032)
(0.9564242 0.0066291991 -0.063394188)
(1.2149614 0.014947157 -0.088723565)
(1.3878444 0.021434599 -0.10238727)
(1.4829026 0.025475371 -0.10439184)
(1.5314796 0.027497352 -0.098973884)
(0.041221986 -0.0022613644 0.00031283061)
(0.16104398 -0.0049240445 -0.0017859033)
(0.34955701 -0.0051005337 -0.011827175)
(0.60776006 -0.00092363936 -0.032367677)
(0.89788158 0.0072728078 -0.059365204)
(1.1536766 0.01685576 -0.085096182)
(1.3323267 0.024730852 -0.099699318)
(1.4370682 0.029850848 -0.10267481)
(1.4940282 0.032386036 -0.097501352)
(0.03736444 -0.0022822655 0.00059574021)
(0.14644509 -0.0050234075 -0.00080628423)
(0.31918594 -0.0053008337 -0.0095469647)
(0.55865913 -0.0010857411 -0.028413097)
(0.83416638 0.0076092309 -0.054540293)
(1.0862793 0.018247457 -0.08050819)
(1.271459 0.027494243 -0.096278401)
(1.3874452 0.033812466 -0.10059263)
(1.4538102 0.036985017 -0.096061697)
(0.033455861 -0.0022172969 0.00084176914)
(0.13143864 -0.0049712365 0.00013527569)
(0.28758296 -0.0054074586 -0.0071467823)
(0.50693035 -0.0014222067 -0.023967391)
(0.76598423 0.0073642461 -0.04868882)
(1.0134324 0.01874422 -0.074596676)
(1.2058885 0.029267209 -0.091911556)
(1.3343908 0.036867382 -0.098033285)
(1.4107903 0.040777726 -0.094752394)
(0.029521375 -0.0020705363 0.0010520279)
(0.11618961 -0.0047710421 0.0010362806)
(0.25518298 -0.0054317321 -0.0046710025)
(0.45334949 -0.0019614509 -0.019148586)
(0.69438072 0.0064483737 -0.041944373)
(0.93595659 0.018145308 -0.067475365)
(1.1357046 0.029772894 -0.086400463)
(1.2775535 0.038668499 -0.094804291)
(1.3642306 0.04337129 -0.093446412)
(0.025906495 -0.001786019 0.001135947)
(0.10167436 -0.004282805 0.0016369084)
(0.22351565 -0.0052046232 -0.0025818509)
(0.39970595 -0.0025739361 -0.014557917)
(0.62080544 0.0048563568 -0.03484267)
(0.85412891 0.016208834 -0.05925213)
(1.0598648 0.028512667 -0.079396041)
(1.2151427 0.038616802 -0.090345646)
(1.3123666 0.044419233 -0.091606846)
(0.022111423 -0.0017676611 0.0013821772)
(0.08650212 -0.0046068737 0.0027349094)
(0.19041255 -0.006426574 0.00040481427)
(0.34315563 -0.0053986803 -0.0084236009)
(0.54149289 6.1428803e-05 -0.025099206)
(0.76242453 0.0099183197 -0.047135454)
(0.97078122 0.021977441 -0.067846932)
(1.1383512 0.033050558 -0.081587302)
(1.2477232 0.040532519 -0.086783505)
(0.014033775 0.00036594983 0.00028056171)
(0.060438227 0.00088957778 0.00045400112)
(0.14355119 0.0010054348 -0.00046181552)
(0.27711342 -0.00015084078 -0.0036115626)
(0.46626068 -0.0040899981 -0.010351891)
(0.69577506 -0.012283618 -0.021308758)
(0.92624424 -0.024297171 -0.035008937)
(1.1150897 -0.036475306 -0.046600201)
(1.2381112 -0.045260308 -0.052702146)
(0.014801999 3.2845534e-05 -3.9173086e-05)
(0.066030355 -0.0001676366 -0.00055655316)
(0.15985677 -0.0009093212 -0.0023852017)
(0.31097558 -0.0030498296 -0.0067614823)
(0.52172343 -0.0081650509 -0.015071899)
(0.76911122 -0.017641236 -0.027641967)
(1.0054266 -0.030442055 -0.042025229)
(1.1873142 -0.042218346 -0.052771313)
(1.3004688 -0.049539342 -0.057064991)
(0.015101759 -0.00015871568 -0.00018993712)
(0.070002373 -0.00081098594 -0.0010761238)
(0.17293949 -0.0021089385 -0.0034796317)
(0.33940459 -0.0048732225 -0.0086994147)
(0.56878613 -0.010632684 -0.018082149)
(0.83032767 -0.020548587 -0.031599398)
(1.06908 -0.033112015 -0.045985282)
(1.2433175 -0.04386959 -0.055524089)
(1.3484684 -0.049900419 -0.057996734)
(0.015579075 -0.00034206126 -0.00030144893)
(0.074285535 -0.0013987638 -0.0014588644)
(0.1860731 -0.0031513886 -0.0043240022)
(0.36699517 -0.0063715045 -0.010255293)
(0.61339948 -0.012527404 -0.02051732)
(0.88711658 -0.02255633 -0.034722186)
(1.1265924 -0.034508976 -0.048729964)
(1.292909 -0.044089033 -0.056822689)
(1.3903462 -0.048987433 -0.057643369)
(0.016104805 -0.00044538128 -0.00033991715)
(0.07855343 -0.0017506124 -0.0016181251)
(0.19884748 -0.0037944917 -0.0047852001)
(0.39353018 -0.007299374 -0.011274836)
(0.65598668 -0.013647985 -0.022278186)
(0.94083296 -0.02354886 -0.036940781)
(1.1803451 -0.034661673 -0.050351653)
(1.3388616 -0.042986049 -0.057023019)
(1.4285525 -0.046798673 -0.05645691)
(0.016774257 -0.00048778905 -0.00033543027)
(0.083044116 -0.0019054403 -0.0016406726)
(0.21158707 -0.0040796024 -0.0050067188)
(0.41939149 -0.0076834375 -0.011931704)
(0.69717376 -0.013975157 -0.023574831)
(0.99204125 -0.023408379 -0.038432145)
(1.2310626 -0.033474751 -0.050918719)
(1.3821448 -0.040516652 -0.056269036)
(1.4641885 -0.04336697 -0.054565464)
(0.01769906 -0.00049538881 -0.00031533977)
(0.08799806 -0.0019305003 -0.0016032943)
(0.22451325 -0.0041060168 -0.0050947045)
(0.44457773 -0.007629946 -0.012328452)
(0.73651366 -0.013590183 -0.024408269)
(1.040207 -0.022197421 -0.039197476)
(1.2784124 -0.031004921 -0.050596596)
(1.4225907 -0.036781304 -0.054730692)
(1.4973053 -0.03880273 -0.05209814)
(0.018644653 -0.00046352675 -0.00028253608)
(0.092739954 -0.0018129227 -0.0015151005)
(0.23652827 -0.0038534359 -0.0050577361)
(0.46766175 -0.0071112488 -0.012473279)
(0.77230586 -0.012468155 -0.024786441)
(1.0837873 -0.019933638 -0.039309507)
(1.3212629 -0.027285339 -0.049703864)
(1.4592685 -0.031856223 -0.052666898)
(1.5272708 -0.033202145 -0.049396506)
(0.01950597 -0.00039721145 -0.00024569812)
(0.096923915 -0.0015641202 -0.0014042038)
(0.24699804 -0.0033339858 -0.0049446082)
(0.48774988 -0.0061336325 -0.012459425)
(0.80318203 -0.01062628 -0.024823174)
(1.1212679 -0.016687042 -0.038977293)
(1.3581633 -0.022442184 -0.048475141)
(1.4909661 -0.025873586 -0.050450713)
(1.5531883 -0.026728815 -0.046921662)
(0.0202353 -0.00030319771 -0.00021122641)
(0.10037301 -0.0012030986 -0.0012940092)
(0.25551299 -0.0025754012 -0.004801404)
(0.50398945 -0.0047327399 -0.012346744)
(0.82796456 -0.0081278966 -0.024665947)
(1.1511964 -0.012585472 -0.038452094)
(1.3875889 -0.016682085 -0.047247956)
(1.5163508 -0.019039971 -0.048623581)
(1.5739988 -0.019563315 -0.045107642)
(0.020965147 -0.00019137733 -0.00018633115)
(0.10335412 -0.00076120823 -0.0012120129)
(0.26225968 -0.0016332121 -0.0046865265)
(0.51615807 -0.0029969499 -0.012232029)
(0.84586668 -0.0051108127 -0.024477323)
(1.1723312 -0.0078306728 -0.037961897)
(1.408113 -0.010269759 -0.046256311)
(1.5340347 -0.011640119 -0.047319562)
(1.5885032 -0.011924689 -0.043856101)
(0.021199863 -6.8435435e-05 -0.0001730454)
(0.10451528 -0.000268782 -0.0011663679)
(0.26519065 -0.00056923299 -0.0046150318)
(0.52183686 -0.0010336783 -0.012147128)
(0.85458214 -0.0017492692 -0.024340949)
(1.1828521 -0.0026630904 -0.03766341)
(1.4184433 -0.0034728245 -0.045701076)
(1.5430066 -0.0039202094 -0.04662864)
(1.5958851 -0.004007582 -0.043186712)
(0.021199861 6.845014e-05 -0.0001730459)
(0.10451527 0.00026880846 -0.001166377)
(0.26519063 0.00056926146 -0.0046150421)
(0.52183683 0.0010336706 -0.012147137)
(0.8545821 0.0017491791 -0.024340952)
(1.1828521 0.002662893 -0.037663398)
(1.4184433 0.0034725422 -0.045701048)
(1.5430065 0.0039198863 -0.046628595)
(1.5958851 0.0040072674 -0.043186664)
(0.020965141 0.00019139727 -0.00018633239)
(0.1033541 0.00076124646 -0.0012120339)
(0.26225964 0.0016332572 -0.0046865509)
(0.51615799 0.0029969581 -0.012232049)
(0.84586657 0.0051107322 -0.024477326)
(1.1723311 0.0078304789 -0.037961858)
(1.4081129 0.010269479 -0.046256226)
(1.5340345 0.011639804 -0.04731943)
(1.588503 0.011924393 -0.043855962)
(0.02023529 0.00030322347 -0.0002112297)
(0.10037297 0.0012031496 -0.0012940466)
(0.25551293 0.0025754661 -0.004801442)
(0.50398936 0.0047327708 -0.012346773)
(0.82796443 0.0081278364 -0.024665946)
(1.1511963 0.012585296 -0.038452025)
(1.3875887 0.016681825 -0.047247817)
(1.5163505 0.019039683 -0.048623367)
(1.5739985 0.01956305 -0.045107426)
(0.01950596 0.00039724164 -0.00024570586)
(0.096923887 0.0015641774 -0.00140426)
(0.24699799 0.0033340642 -0.0049446637)
(0.48774979 0.0061336856 -0.012459471)
(0.80318192 0.010626248 -0.02482317)
(1.1212678 0.016686903 -0.038977195)
(1.3581631 0.02244197 -0.048474952)
(1.4909658 0.025873349 -0.050450419)
(1.553188 0.026728595 -0.046921373)
(0.018644643 0.0004635577 -0.00028254823)
(0.092739924 0.0018129759 -0.001515173)
(0.23652821 0.0038535143 -0.005057815)
(0.46766166 0.007111315 -0.012473349)
(0.77230575 0.012468153 -0.024786442)
(1.0837872 0.019933553 -0.039309396)
(1.3212627 0.027285197 -0.049703635)
(1.4592683 0.031856066 -0.052666528)
(1.5272705 0.033201987 -0.049396148)
(0.017699051 0.00049542283 -0.00031536013)
(0.087998027 0.001930555 -0.0016033871)
(0.22451319 0.0041060995 -0.0050948184)
(0.44457764 0.0076300255 -0.012328566)
(0.73651354 0.01359021 -0.024408301)
(1.0402068 0.022197391 -0.039197374)
(1.2784123 0.031004855 -0.050596337)
(1.4225906 0.036781246 -0.054730255)
(1.497305 0.038802652 -0.05209773)
(0.01677425 0.00048782908 -0.00033544756)
(0.083044093 0.0019054971 -0.0016407713)
(0.21158703 0.004079689 -0.0050068487)
(0.41939141 0.0076835244 -0.011931842)
(0.69717366 0.013975203 -0.023574884)
(0.99204114 0.023408383 -0.038432047)
(1.2310625 0.033474742 -0.050918438)
(1.3821447 0.040516685 -0.056268543)
(1.4641882 0.043366975 -0.054565032)
(0.016104802 0.00044542755 -0.00033994283)
(0.078553419 0.0017506755 -0.0016182439)
(0.19884745 0.0037945873 -0.0047853572)
(0.39353014 0.0072994672 -0.011275006)
(0.65598661 0.013648044 -0.022278266)
(0.94083286 0.023548895 -0.036940695)
(1.180345 0.034661709 -0.050351366)
(1.3388614 0.042986137 -0.057022473)
(1.4285523 0.046798742 -0.056456447)
(0.015579074 0.00034211218 -0.00030147992)
(0.074285532 0.0013988343 -0.0014589878)
(0.18607309 0.003151493 -0.0043241652)
(0.36699515 0.0063716072 -0.010255472)
(0.61339943 0.012527482 -0.020517417)
(0.8871165 0.0225564 -0.034722116)
(1.1265923 0.034509057 -0.048729651)
(1.2929089 0.044089147 -0.056822055)
(1.390346 0.048987553 -0.057642822)
(0.015101761 0.00015875785 -0.00018996411)
(0.07000238 0.00081103668 -0.0010762285)
(0.1729395 0.0021090174 -0.003479769)
(0.3394046 0.0048732968 -0.0086995789)
(0.56878611 0.010632742 -0.018082246)
(0.83032763 0.020548671 -0.031599318)
(1.06908 0.033112173 -0.045984913)
(1.2433174 0.043869804 -0.055523372)
(1.3484684 0.049900592 -0.057996078)
(0.014802006 -3.2823155e-05 -3.9190042e-05)
(0.066030375 0.00016764655 -0.00055661832)
(0.15985681 0.00090933448 -0.0023852837)
(0.31097561 0.0030498205 -0.0067615738)
(0.52172344 0.0081650109 -0.015071925)
(0.7691112 0.017641227 -0.027641833)
(1.0054265 0.030442209 -0.042024802)
(1.1873142 0.042218735 -0.052770508)
(1.3004688 0.049539741 -0.057064344)
(0.014033787 -0.00036595236 0.00028056495)
(0.060438261 -0.00088959946 0.0004540073)
(0.14355124 -0.0010054747 -0.0004618055)
(0.27711348 0.00015077257 -0.0036115256)
(0.46626072 0.0040898911 -0.01035178)
(0.69577506 0.012283521 -0.021308518)
(0.92624425 0.024297196 -0.035008456)
(1.1150898 0.036475597 -0.046599314)
(1.2381114 0.045260612 -0.05270172)
(0.018343039 0.00019603494 0.00019701534)
(0.073740814 0.00028990308 0.00038805808)
(0.16642334 -0.00028595284 0.00020377144)
(0.30778629 -0.0021835076 -0.0008163619)
(0.50047982 -0.0061849424 -0.0034224012)
(0.72934416 -0.012790869 -0.0083867849)
(0.95858668 -0.021332071 -0.014982453)
(1.1490156 -0.030106808 -0.021530619)
(1.2733447 -0.037206857 -0.026309298)
(0.019293466 0.00015140358 0.00013809524)
(0.07955662 5.9750805e-05 0.00018395881)
(0.18225688 -0.00089691015 -0.00024707888)
(0.33915647 -0.0034971194 -0.0017205302)
(0.55004999 -0.0086208323 -0.0051271543)
(0.79332206 -0.016640528 -0.011228124)
(1.0262531 -0.0263077 -0.018847253)
(1.2091731 -0.035229211 -0.025634944)
(1.3244484 -0.041497661 -0.029956865)
(0.019699899 0.00016990958 0.00012996598)
(0.083451568 1.8212057e-05 0.00012695632)
(0.19419535 -0.0011713997 -0.0004451619)
(0.36392562 -0.0042699344 -0.0022346353)
(0.58969586 -0.010168052 -0.0062334574)
(0.84376855 -0.019048527 -0.01319656)
(1.0775419 -0.02912622 -0.021452708)
(1.2526261 -0.037650788 -0.028278103)
(1.3605917 -0.043041889 -0.031987256)
(0.020231957 0.00013601375 8.478368e-05)
(0.087448348 -0.0001466669 -2.3337781e-05)
(0.2057292 -0.0015873049 -0.00077550929)
(0.38710521 -0.0051127792 -0.0028828792)
(0.62599362 -0.011594252 -0.0074393885)
(0.88901382 -0.02096339 -0.015041332)
(1.1227273 -0.030988473 -0.02357206)
(1.2904549 -0.038859619 -0.030158773)
(1.3916202 -0.043352886 -0.033108871)
(0.020750344 6.6192647e-05 2.8231735e-05)
(0.091228704 -0.00039736545 -0.00019734448)
(0.21653917 -0.0021022775 -0.0011221522)
(0.4087393 -0.0060010905 -0.0035072006)
(0.65985831 -0.01292512 -0.0085815874)
(0.93104229 -0.022374623 -0.016409923)
(1.1646756 -0.031978609 -0.02488654)
(1.3256797 -0.038991675 -0.03096211)
(1.4200942 -0.042473997 -0.033004633)
(0.021360056 -4.715132e-05 -3.3786502e-05)
(0.095070646 -0.00074738913 -0.000368089)
(0.22703908 -0.0027202965 -0.0014090853)
(0.42935009 -0.0068850347 -0.0039520961)
(0.69180445 -0.013869455 -0.0090956431)
(0.97062068 -0.023000182 -0.016844236)
(1.2042482 -0.031852055 -0.024955435)
(1.3590481 -0.037811552 -0.030268109)
(1.4467012 -0.040307395 -0.031460831)
(0.022185511 -0.00017617247 -7.9460966e-05)
(0.099267818 -0.0011138851 -0.00047090894)
(0.23759276 -0.0032909003 -0.0015188709)
(0.44924722 -0.0075231443 -0.0040008685)
(0.72182077 -0.014242093 -0.008930149)
(1.0075269 -0.022674353 -0.016342025)
(1.241149 -0.030471876 -0.023841829)
(1.3903242 -0.035292038 -0.028348202)
(1.4714158 -0.036881256 -0.028857677)
(0.022995567 -0.00027798709 -9.5523118e-05)
(0.10317825 -0.001372437 -0.00047338199)
(0.24719694 -0.0036124128 -0.001423241)
(0.46714205 -0.0076464564 -0.0036487591)
(0.74870872 -0.013768222 -0.0081824232)
(1.0406299 -0.02116378 -0.015077549)
(1.2743968 -0.027679933 -0.02186718)
(1.4186827 -0.031341832 -0.02562968)
(1.4937125 -0.032172346 -0.025709604)
(0.02369201 -0.00032065162 -8.30135e-05)
(0.10648748 -0.0014224711 -0.00038284938)
(0.25528042 -0.0035061964 -0.0011382588)
(0.48215047 -0.0070664387 -0.0030100761)
(0.77146659 -0.012266572 -0.0070585693)
(1.068821 -0.018333602 -0.013358509)
(1.3028664 -0.023426158 -0.019448625)
(1.4430833 -0.026007375 -0.022626431)
(1.5128275 -0.026306415 -0.02257605)
(0.024256412 -0.00029408049 -5.3427056e-05)
(0.10913027 -0.001237663 -0.00024541876)
(0.2616876 -0.0029356743 -0.00077929175)
(0.49400173 -0.0057355298 -0.0022835915)
(0.78945207 -0.0097089405 -0.0058469799)
(1.0911271 -0.014210769 -0.011581926)
(1.3254173 -0.017824839 -0.01709057)
(1.4624386 -0.019482693 -0.019894029)
(1.5279288 -0.019496316 -0.019937897)
(0.024852248 -0.0002071851 -2.2360326e-05)
(0.11147697 -0.00084513443 -0.00011409121)
(0.26681626 -0.0019582467 -0.00046117892)
(0.50287559 -0.0037504351 -0.0016677079)
(0.80238745 -0.0062436285 -0.0048467355)
(1.106802 -0.0090083492 -0.010146021)
(1.3410677 -0.011152309 -0.015242177)
(1.4757839 -0.012060073 -0.017861125)
(1.5382935 -0.011987741 -0.018049373)
(0.025012276 -7.4724985e-05 -3.8550322e-06)
(0.11230209 -0.00030084332 -3.7774512e-05)
(0.26890612 -0.00069002422 -0.00027845251)
(0.50684549 -0.0013095735 -0.0013168357)
(0.80852443 -0.0021615997 -0.0042827852)