/*--------------------------------*- C++ -*----------------------------------*\
  =========                 |
  \\      /  F ield         | OpenFOAM: The Open Source CFD Toolbox
   \\    /   O peration     | Website:  https://openfoam.org
    \\  /    A nd           | Version:  10
     \\/     M anipulation  |
\*---------------------------------------------------------------------------*/
FoamFile
{
    format      ascii;
    class       volScalarField;
    location    "8.3";
    object      T;
}
// * * * * * * * * * * * * * * * * * * * * * * * * * * * * * * * * * * * * * //

dimensions      [0 0 -1 0 0 0 0];

internalField   nonuniform List<scalar> 
100
(
-0.0249991
-0.0741113
-0.120598
-0.162812
-0.199259
-0.228647
-0.249935
-0.262369
-0.265508
-0.259242
-0.243792
-0.219705
-0.187835
-0.149311
-0.105498
-0.0579472
-0.00834373
0.0415553
0.0899823
0.135222
0.175671
0.209896
0.236686
0.255092
0.26446
0.26446
0.255092
0.236686
0.209896
0.17567
0.135221
0.0899819
0.041555
-0.00834403
-0.0579475
-0.105498
-0.149311
-0.187835
-0.219705
-0.243791
-0.259242
-0.265508
-0.262369
-0.249935
-0.228647
-0.199259
-0.162812
-0.120597
-0.0741107
-0.0249986
0.0249991
0.0741112
0.120598
0.162812
0.199259
0.228647
0.249935
0.262369
0.265508
0.259241
0.243791
0.219705
0.187835
0.149311
0.105498
0.057947
0.00834351
-0.0415555
-0.0899824
-0.135222
-0.175671
-0.209896
-0.236686
-0.255092
-0.26446
-0.26446
-0.255092
-0.236686
-0.209896
-0.17567
-0.135221
-0.0899817
-0.0415548
0.0083443
0.0579478
0.105498
0.149312
0.187836
0.219705
0.243792
0.259242
0.265508
0.262369
0.249935
0.228647
0.199259
0.162812
0.120598
0.0741108
0.0249986
)
;

boundaryField
{
    inlet
    {
        type            cyclic;
    }
    outlet
    {
        type            cyclic;
    }
    bottom
    {
        type            slip;
    }
    top
    {
        type            slip;
    }
    frontAndBack
    {
        type            empty;
    }
}


// ************************************************************************* //
