/*--------------------------------*- C++ -*----------------------------------*\
  =========                 |
  \\      /  F ield         | OpenFOAM: The Open Source CFD Toolbox
   \\    /   O peration     | Website:  https://openfoam.org
    \\  /    A nd           | Version:  10
     \\/     M anipulation  |
\*---------------------------------------------------------------------------*/
FoamFile
{
    format      ascii;
    class       volScalarField;
    location    "7";
    object      T;
}
// * * * * * * * * * * * * * * * * * * * * * * * * * * * * * * * * * * * * * //

dimensions      [0 0 -1 0 0 0 0];

internalField   nonuniform List<scalar> 
100
(
-0.00714122
-0.0211705
-0.0344499
-0.0465088
-0.0569201
-0.065315
-0.0713961
-0.074948
-0.0758447
-0.0740547
-0.0696412
-0.0627606
-0.0536567
-0.042652
-0.0301364
-0.0165531
-0.00238349
0.0118706
0.0257041
0.0386271
0.0501817
0.0599585
0.0676113
0.0728689
0.0755451
0.0755451
0.0728689
0.0676112
0.0599584
0.0501816
0.038627
0.0257041
0.0118706
-0.00238346
-0.016553
-0.0301362
-0.0426518
-0.0536564
-0.0627602
-0.0696407
-0.0740542
-0.0758442
-0.0749474
-0.0713956
-0.0653145
-0.0569196
-0.0465083
-0.0344495
-0.0211702
-0.00714101
0.00714118
0.0211704
0.0344496
0.0465085
0.0569197
0.0653146
0.0713956
0.0749474
0.0758442
0.0740542
0.0696407
0.0627602
0.0536563
0.0426517
0.0301361
0.0165529
0.00238332
-0.0118707
-0.0257042
-0.0386271
-0.0501817
-0.0599585
-0.0676113
-0.0728689
-0.0755451
-0.0755451
-0.0728689
-0.0676112
-0.0599584
-0.0501815
-0.0386269
-0.025704
-0.0118704
0.00238367
0.0165533
0.0301366
0.0426522
0.0536569
0.0627607
0.0696413
0.0740547
0.0758448
0.074948
0.0713961
0.065315
0.05692
0.0465087
0.0344497
0.0211704
0.00714107
)
;

boundaryField
{
    inlet
    {
        type            cyclic;
    }
    outlet
    {
        type            cyclic;
    }
    bottom
    {
        type            slip;
    }
    top
    {
        type            slip;
    }
    frontAndBack
    {
        type            empty;
    }
}


// ************************************************************************* //
