/*--------------------------------*- C++ -*----------------------------------*\
  =========                 |
  \\      /  F ield         | OpenFOAM: The Open Source CFD Toolbox
   \\    /   O peration     | Website:  https://openfoam.org
    \\  /    A nd           | Version:  10
     \\/     M anipulation  |
\*---------------------------------------------------------------------------*/
FoamFile
{
    format      ascii;
    class       volScalarField;
    location    "7";
    object      T_0;
}
// * * * * * * * * * * * * * * * * * * * * * * * * * * * * * * * * * * * * * //

dimensions      [0 0 -1 0 0 0 0];

internalField   nonuniform List<scalar> 
100
(
-0.00779493
-0.0231085
-0.0376034
-0.0507662
-0.0621306
-0.071294
-0.0779317
-0.0818087
-0.0827876
-0.0808336
-0.0760162
-0.0685057
-0.0585685
-0.0465564
-0.0328951
-0.0180684
-0.00260167
0.0129572
0.0280571
0.042163
0.0547753
0.0654471
0.0738005
0.0795394
0.0824606
0.0824606
0.0795393
0.0738004
0.0654471
0.0547752
0.0421629
0.028057
0.0129572
-0.00260165
-0.0180683
-0.0328949
-0.0465562
-0.0585682
-0.0685054
-0.0760157
-0.0808332
-0.0827871
-0.0818082
-0.0779312
-0.0712934
-0.0621301
-0.0507658
-0.037603
-0.0231082
-0.00779471
0.00779489
0.0231083
0.0376032
0.0507659
0.0621302
0.0712935
0.0779313
0.0818082
0.0827871
0.0808331
0.0760157
0.0685053
0.0585681
0.0465561
0.0328948
0.0180682
0.0026015
-0.0129573
-0.0280572
-0.0421631
-0.0547753
-0.0654471
-0.0738005
-0.0795394
-0.0824606
-0.0824605
-0.0795393
-0.0738004
-0.065447
-0.0547752
-0.0421629
-0.0280569
-0.012957
0.00260186
0.0180686
0.0328953
0.0465566
0.0585686
0.0685059
0.0760162
0.0808337
0.0827876
0.0818087
0.0779317
0.0712939
0.0621305
0.0507661
0.0376033
0.0231083
0.00779477
)
;

boundaryField
{
    inlet
    {
        type            cyclic;
    }
    outlet
    {
        type            cyclic;
    }
    bottom
    {
        type            slip;
    }
    top
    {
        type            slip;
    }
    frontAndBack
    {
        type            empty;
    }
}


// ************************************************************************* //
