/*--------------------------------*- C++ -*----------------------------------*\
  =========                 |
  \\      /  F ield         | OpenFOAM: The Open Source CFD Toolbox
   \\    /   O peration     | Website:  https://openfoam.org
    \\  /    A nd           | Version:  10
     \\/     M anipulation  |
\*---------------------------------------------------------------------------*/
FoamFile
{
    format      ascii;
    class       volScalarField;
    location    "5";
    object      T;
}
// * * * * * * * * * * * * * * * * * * * * * * * * * * * * * * * * * * * * * //

dimensions      [0 0 -1 0 0 0 0];

internalField   nonuniform List<scalar> 
100
(
0.00623741
0.0184911
0.0300898
0.0406225
0.0497162
0.0570486
0.0623601
0.0654624
0.0662456
0.0646821
0.0608272
0.0548175
0.0468658
0.0372539
0.0263222
0.014458
0.00208169
-0.0103684
-0.0224512
-0.0337386
-0.0438309
-0.0523704
-0.0590547
-0.0636469
-0.0659845
-0.0659845
-0.0636469
-0.0590547
-0.0523704
-0.0438308
-0.0337385
-0.022451
-0.0103682
0.00208197
0.0144584
0.0263226
0.0372544
0.0468664
0.0548181
0.0608279
0.0646828
0.0662463
0.065463
0.0623606
0.0570491
0.0497166
0.0406228
0.03009
0.0184912
0.00623734
-0.00623747
-0.0184913
-0.0300901
-0.0406229
-0.0497167
-0.0570492
-0.0623607
-0.065463
-0.0662463
-0.0646828
-0.0608278
-0.054818
-0.0468662
-0.0372542
-0.0263225
-0.0144582
-0.00208182
0.0103683
0.0224512
0.0337387
0.0438309
0.0523705
0.0590547
0.063647
0.0659845
0.0659845
0.0636469
0.0590546
0.0523703
0.0438308
0.0337385
0.0224511
0.0103683
-0.00208182
-0.0144582
-0.0263223
-0.037254
-0.0468659
-0.0548175
-0.0608273
-0.0646821
-0.0662456
-0.0654623
-0.06236
-0.0570485
-0.0497161
-0.0406224
-0.0300897
-0.018491
-0.00623728
)
;

boundaryField
{
    inlet
    {
        type            cyclic;
    }
    outlet
    {
        type            cyclic;
    }
    bottom
    {
        type            slip;
    }
    top
    {
        type            slip;
    }
    frontAndBack
    {
        type            empty;
    }
}


// ************************************************************************* //
