/*--------------------------------*- C++ -*----------------------------------*\
  =========                 |
  \\      /  F ield         | OpenFOAM: The Open Source CFD Toolbox
   \\    /   O peration     | Website:  https://openfoam.org
    \\  /    A nd           | Version:  10
     \\/     M anipulation  |
\*---------------------------------------------------------------------------*/
FoamFile
{
    format      ascii;
    class       volScalarField;
    location    "5";
    object      T_0;
}
// * * * * * * * * * * * * * * * * * * * * * * * * * * * * * * * * * * * * * //

dimensions      [0 0 -1 0 0 0 0];

internalField   nonuniform List<scalar> 
100
(
0.00703987
0.0208701
0.0339609
0.0458487
0.0561123
0.064388
0.0703828
0.0738843
0.0747683
0.0730036
0.0686528
0.0618699
0.0528952
0.0420467
0.0297086
0.0163181
0.00234952
-0.0117023
-0.0253396
-0.0380792
-0.0494698
-0.0591079
-0.0666522
-0.0718352
-0.0744735
-0.0744735
-0.0718352
-0.0666522
-0.0591079
-0.0494697
-0.0380791
-0.0253394
-0.0117021
0.00234982
0.0163185
0.0297091
0.0420472
0.0528958
0.0618705
0.0686535
0.0730043
0.074769
0.0738849
0.0703834
0.0643885
0.0561127
0.045849
0.0339611
0.0208701
0.00703978
-0.00703993
-0.0208702
-0.0339612
-0.0458491
-0.0561128
-0.0643886
-0.0703834
-0.0738849
-0.0747689
-0.0730043
-0.0686534
-0.0618704
-0.0528956
-0.042047
-0.0297089
-0.0163183
-0.00234965
0.0117022
0.0253396
0.0380792
0.0494699
0.059108
0.0666522
0.0718353
0.0744735
0.0744735
0.0718352
0.0666521
0.0591079
0.0494697
0.038079
0.0253394
0.0117022
-0.00234966
-0.0163182
-0.0297087
-0.0420468
-0.0528953
-0.0618699
-0.0686528
-0.0730037
-0.0747683
-0.0738842
-0.0703828
-0.064388
-0.0561122
-0.0458486
-0.0339608
-0.0208699
-0.00703972
)
;

boundaryField
{
    inlet
    {
        type            cyclic;
    }
    outlet
    {
        type            cyclic;
    }
    bottom
    {
        type            slip;
    }
    top
    {
        type            slip;
    }
    frontAndBack
    {
        type            empty;
    }
}


// ************************************************************************* //
