/*--------------------------------*- C++ -*----------------------------------*\
  =========                 |
  \\      /  F ield         | OpenFOAM: The Open Source CFD Toolbox
   \\    /   O peration     | Website:  https://openfoam.org
    \\  /    A nd           | Version:  10
     \\/     M anipulation  |
\*---------------------------------------------------------------------------*/
FoamFile
{
    format      ascii;
    class       volScalarField;
    location    "38";
    object      T;
}
// * * * * * * * * * * * * * * * * * * * * * * * * * * * * * * * * * * * * * //

dimensions      [0 0 0 1 0 0 0];

internalField   nonuniform List<scalar> 
10000
(
374.988
361.3
356.626
354.581
353.475
352.78
352.298
351.94
351.661
351.437
351.251
351.093
350.956
350.836
350.73
350.634
350.547
350.467
350.393
350.324
350.26
350.2
350.143
350.089
350.037
349.988
349.942
349.897
349.853
349.812
349.771
349.733
349.695
349.658
349.623
349.589
349.555
349.522
349.491
349.46
349.43
349.4
349.372
349.344
349.316
349.29
349.264
349.238
349.213
349.189
349.166
349.142
349.12
349.098
349.076
349.055
349.035
349.015
348.996
348.977
348.958
348.94
348.923
348.906
348.89
348.874
348.858
348.843
348.828
348.814
348.801
348.788
348.775
348.763
348.751
348.74
348.729
348.719
348.709
348.699
348.69
348.682
348.674
348.666
348.659
348.652
348.646
348.64
348.635
348.63
348.626
348.622
348.619
348.616
348.613
348.611
348.609
348.608
348.607
348.607
388.624
374.884
367.248
362.805
360.015
358.127
356.768
355.74
354.93
354.272
353.723
353.256
352.852
352.495
352.178
351.892
351.632
351.393
351.173
350.968
350.776
350.595
350.425
350.263
350.11
349.963
349.823
349.688
349.558
349.433
349.313
349.196
349.083
348.974
348.868
348.764
348.664
348.566
348.471
348.379
348.288
348.2
348.114
348.03
347.948
347.869
347.79
347.714
347.64
347.567
347.496
347.427
347.359
347.293
347.229
347.166
347.105
347.045
346.987
346.93
346.875
346.821
346.769
346.718
346.668
346.62
346.574
346.529
346.485
346.443
346.402
346.363
346.325
346.288
346.253
346.219
346.186
346.155
346.126
346.098
346.071
346.045
346.021
345.998
345.977
345.957
345.938
345.921
345.905
345.891
345.878
345.866
345.856
345.847
345.839
345.833
345.828
345.824
345.822
345.822
393.246
382.366
374.679
369.376
365.652
362.946
360.909
359.321
358.047
356.998
356.116
355.359
354.699
354.117
353.596
353.126
352.697
352.303
351.939
351.599
351.281
350.982
350.7
350.431
350.176
349.933
349.699
349.475
349.26
349.052
348.852
348.658
348.47
348.288
348.111
347.939
347.772
347.61
347.451
347.297
347.147
347
346.857
346.717
346.581
346.448
346.318
346.191
346.067
345.946
345.827
345.712
345.599
345.489
345.382
345.277
345.175
345.075
344.978
344.884
344.792
344.702
344.615
344.53
344.448
344.368
344.291
344.216
344.143
344.073
344.005
343.939
343.876
343.814
343.756
343.699
343.645
343.594
343.544
343.497
343.452
343.41
343.37
343.332
343.296
343.263
343.232
343.203
343.177
343.153
343.131
343.111
343.094
343.079
343.066
343.056
343.048
343.042
343.039
343.037
395.239
386.655
379.724
374.37
370.27
367.098
364.599
362.59
360.94
359.559
358.382
357.364
356.471
355.677
354.965
354.319
353.728
353.184
352.68
352.21
351.769
351.354
350.961
350.588
350.233
349.893
349.568
349.256
348.955
348.666
348.386
348.115
347.853
347.598
347.351
347.111
346.878
346.651
346.43
346.214
346.004
345.799
345.598
345.403
345.212
345.026
344.844
344.667
344.493
344.324
344.159
343.997
343.84
343.686
343.535
343.389
343.246
343.107
342.971
342.839
342.71
342.585
342.463
342.344
342.229
342.117
342.009
341.904
341.802
341.704
341.608
341.516
341.428
341.342
341.26
341.181
341.106
341.033
340.964
340.898
340.836
340.776
340.72
340.667
340.617
340.571
340.527
340.487
340.45
340.416
340.386
340.358
340.334
340.313
340.296
340.281
340.27
340.261
340.257
340.255
396.294
389.291
383.192
378.112
373.96
370.577
367.802
365.5
363.565
361.916
360.492
359.246
358.143
357.158
356.268
355.458
354.715
354.028
353.39
352.794
352.234
351.705
351.205
350.73
350.276
349.843
349.427
349.028
348.643
348.272
347.914
347.567
347.231
346.905
346.588
346.28
345.981
345.69
345.406
345.129
344.859
344.596
344.339
344.088
343.843
343.604
343.371
343.143
342.92
342.703
342.49
342.283
342.08
341.883
341.69
341.502
341.318
341.139
340.965
340.795
340.63
340.468
340.312
340.16
340.012
339.868
339.729
339.594
339.463
339.336
339.214
339.096
338.982
338.872
338.767
338.666
338.568
338.475
338.387
338.302
338.221
338.145
338.073
338.004
337.94
337.881
337.825
337.773
337.726
337.682
337.643
337.608
337.577
337.55
337.527
337.508
337.494
337.483
337.477
337.475
396.938
391.025
385.641
380.925
376.882
373.448
370.532
368.044
365.905
364.05
362.424
360.986
359.701
358.544
357.493
356.532
355.646
354.825
354.06
353.343
352.669
352.031
351.427
350.852
350.302
349.777
349.273
348.788
348.32
347.87
347.434
347.012
346.603
346.206
345.82
345.445
345.08
344.725
344.379
344.042
343.713
343.392
343.078
342.772
342.474
342.182
341.897
341.619
341.347
341.082
340.823
340.569
340.322
340.081
339.846
339.616
339.392
339.173
338.96
338.753
338.551
338.354
338.163
337.977
337.796
337.621
337.451
337.286
337.126
336.972
336.822
336.678
336.539
336.405
336.276
336.152
336.034
335.92
335.812
335.708
335.61
335.517
335.428
335.345
335.267
335.194
335.126
335.063
335.005
334.952
334.904
334.861
334.823
334.79
334.762
334.739
334.721
334.709
334.701
334.698
397.369
392.23
387.422
383.065
379.196
375.801
372.834
370.24
367.964
365.955
364.17
362.573
361.133
359.826
358.631
357.532
356.515
355.569
354.685
353.854
353.07
352.328
351.623
350.951
350.309
349.694
349.103
348.534
347.986
347.456
346.944
346.448
345.967
345.5
345.046
344.605
344.175
343.757
343.349
342.952
342.564
342.186
341.816
341.455
341.103
340.759
340.423
340.095
339.774
339.461
339.155
338.857
338.565
338.28
338.002
337.731
337.467
337.209
336.958
336.713
336.474
336.242
336.016
335.797
335.584
335.377
335.176
334.981
334.793
334.61
334.434
334.263
334.099
333.941
333.789
333.643
333.503
333.368
333.24
333.118
333.002
332.892
332.788
332.689
332.597
332.511
332.43
332.356
332.287
332.225
332.168
332.117
332.073
332.034
332.001
331.974
331.953
331.938
331.929
331.925
397.676
393.105
388.754
384.717
381.038
377.727
374.765
372.12
369.757
367.638
365.731
364.006
362.435
360.999
359.677
358.454
357.317
356.255
355.259
354.32
353.433
352.591
351.79
351.025
350.293
349.59
348.915
348.265
347.637
347.031
346.444
345.875
345.323
344.787
344.266
343.759
343.265
342.785
342.316
341.859
341.413
340.977
340.552
340.137
339.732
339.336
338.949
338.571
338.202
337.841
337.489
337.145
336.809
336.481
336.161
335.849
335.544
335.247
334.957
334.675
334.4
334.133
333.873
333.62
333.374
333.135
332.904
332.68
332.462
332.252
332.049
331.852
331.663
331.481
331.305
331.137
330.975
330.821
330.673
330.532
330.398
330.271
330.151
330.038
329.932
329.832
329.739
329.654
329.575
329.502
329.437
329.379
329.327
329.282
329.244
329.213
329.189
329.172
329.161
329.157
397.903
393.762
389.773
386.01
382.515
379.305
376.379
373.72
371.306
369.112
367.113
365.285
363.606
362.059
360.625
359.292
358.047
356.879
355.779
354.74
353.755
352.818
351.925
351.07
350.252
349.465
348.708
347.978
347.274
346.592
345.932
345.291
344.67
344.066
343.478
342.907
342.35
341.807
341.278
340.762
340.258
339.766
339.286
338.817
338.359
337.912
337.474
337.047
336.63
336.222
335.824
335.434
335.055
334.684
334.321
333.968
333.623
333.287
332.96
332.64
332.329
332.027
331.732
331.446
331.168
330.898
330.636
330.382
330.136
329.898
329.668
329.446
329.231
329.025
328.827
328.636
328.453
328.278
328.111
327.951
327.8
327.656
327.52
327.392
327.271
327.159
327.054
326.957
326.867
326.785
326.712
326.645
326.587
326.536
326.493
326.458
326.431
326.411
326.399
326.395
398.077
394.267
390.568
387.035
383.706
380.602
377.727
375.077
372.638
370.394
368.326
366.417
364.649
363.008
361.478
360.047
358.703
357.438
356.243
355.11
354.033
353.007
352.026
351.086
350.184
349.316
348.48
347.673
346.893
346.138
345.406
344.696
344.006
343.335
342.683
342.047
341.428
340.824
340.236
339.661
339.1
338.553
338.018
337.496
336.985
336.487
335.999
335.523
335.058
334.603
334.159
333.725
333.302
332.888
332.484
332.09
331.705
331.33
330.965
330.609
330.262
329.924
329.596
329.276
328.966
328.665
328.372
328.089
327.814
327.549
327.292
327.044
326.805
326.574
326.353
326.14
325.936
325.741
325.554
325.376
325.207
325.046
324.894
324.751
324.617
324.491
324.374
324.265
324.166
324.074
323.992
323.918
323.853
323.796
323.748
323.709
323.679
323.657
323.643
323.638
398.212
394.664
391.197
387.856
384.674
381.67
378.854
376.225
373.777
371.501
369.383
367.411
365.57
363.849
362.235
360.717
359.286
357.933
356.65
355.429
354.267
353.155
352.091
351.07
350.088
349.143
348.23
347.348
346.495
345.668
344.866
344.088
343.331
342.595
341.878
341.18
340.5
339.836
339.188
338.556
337.939
337.337
336.748
336.173
335.611
335.061
334.524
334
333.487
332.986
332.496
332.018
331.551
331.094
330.649
330.214
329.79
329.377
328.974
328.581
328.198
327.825
327.463
327.111
326.768
326.436
326.113
325.8
325.498
325.204
324.921
324.647
324.384
324.129
323.885
323.65
323.425
323.209
323.003
322.807
322.62
322.443
322.275
322.117
321.969
321.83
321.701
321.581
321.471
321.37
321.279
321.198
321.126
321.063
321.01
320.967
320.933
320.909
320.894
320.889
398.319
394.979
391.701
388.52
385.465
382.552
379.794
377.193
374.748
372.452
370.298
368.276
366.375
364.587
362.9
361.306
359.796
358.362
356.998
355.697
354.454
353.263
352.12
351.022
349.963
348.943
347.956
347.002
346.078
345.182
344.312
343.467
342.644
341.844
341.065
340.305
339.564
338.842
338.136
337.447
336.775
336.118
335.475
334.848
334.235
333.635
333.049
332.476
331.916
331.369
330.835
330.312
329.802
329.303
328.817
328.342
327.879
327.427
326.986
326.557
326.138
325.731
325.335
324.95
324.576
324.212
323.86
323.518
323.187
322.866
322.556
322.257
321.969
321.691
321.423
321.166
320.92
320.684
320.459
320.244
320.04
319.846
319.663
319.49
319.328
319.176
319.035
318.904
318.783
318.673
318.574
318.485
318.406
318.338
318.28
318.232
318.195
318.169
318.153
318.147
398.405
395.232
392.108
389.061
386.113
383.283
380.579
378.008
375.571
373.265
371.084
369.023
367.073
365.227
363.477
361.815
360.234
358.728
357.289
355.914
354.595
353.329
352.112
350.94
349.809
348.716
347.659
346.635
345.642
344.679
343.742
342.832
341.946
341.083
340.242
339.422
338.622
337.841
337.078
336.334
335.606
334.895
334.201
333.521
332.857
332.208
331.574
330.953
330.347
329.754
329.175
328.608
328.055
327.515
326.988
326.473
325.971
325.481
325.003
324.537
324.084
323.642
323.212
322.795
322.389
321.994
321.612
321.241
320.882
320.534
320.198
319.873
319.56
319.259
318.969
318.69
318.423
318.167
317.922
317.689
317.468
317.258
317.059
316.871
316.695
316.53
316.377
316.235
316.104
315.985
315.876
315.78
315.694
315.62
315.557
315.506
315.466
315.437
315.42
315.413
398.475
395.438
392.439
389.503
386.647
383.887
381.234
378.693
376.267
373.955
371.755
369.662
367.671
365.776
363.97
362.248
360.604
359.031
357.524
356.079
354.691
353.354
352.067
350.824
349.624
348.462
347.337
346.246
345.187
344.158
343.157
342.183
341.235
340.31
339.409
338.53
337.672
336.834
336.015
335.216
334.434
333.67
332.923
332.193
331.479
330.781
330.098
329.431
328.778
328.14
327.517
326.907
326.312
325.73
325.162
324.608
324.067
323.539
323.024
322.522
322.034
321.558
321.095
320.645
320.207
319.783
319.37
318.971
318.584
318.209
317.847
317.497
317.159
316.834
316.521
316.221
315.933
315.657
315.394
315.143
314.904
314.677
314.463
314.26
314.071
313.893
313.728
313.574
313.433
313.305
313.188
313.084
312.992
312.912
312.844
312.789
312.745
312.714
312.695
312.689
398.532
395.605
392.71
389.865
387.086
384.388
381.779
379.266
376.851
374.537
372.322
370.203
368.177
366.24
364.385
362.61
360.908
359.274
357.705
356.195
354.741
353.339
351.985
350.676
349.409
348.181
346.99
345.835
344.711
343.619
342.556
341.52
340.511
339.527
338.567
337.629
336.714
335.82
334.947
334.093
333.258
332.442
331.644
330.863
330.1
329.353
328.623
327.909
327.211
326.528
325.861
325.208
324.571
323.948
323.34
322.746
322.167
321.602
321.05
320.513
319.99
319.48
318.984
318.502
318.033
317.578
317.136
316.708
316.293
315.891
315.503
315.128
314.766
314.418
314.083
313.761
313.452
313.156
312.874
312.604
312.348
312.105
311.876
311.659
311.455
311.265
311.087
310.923
310.772
310.634
310.509
310.397
310.299
310.213
310.14
310.081
310.035
310.001
309.981
309.974
398.578
395.741
392.93
390.161
387.448
384.801
382.231
379.742
377.339
375.024
372.797
370.657
368.601
366.626
364.728
362.904
361.15
359.461
357.833
356.263
354.748
353.283
351.866
350.494
349.164
347.873
346.62
345.401
344.216
343.062
341.938
340.843
339.774
338.732
337.714
336.72
335.749
334.8
333.872
332.965
332.078
331.211
330.362
329.532
328.72
327.926
327.149
326.388
325.645
324.918
324.207
323.513
322.834
322.17
321.522
320.89
320.272
319.67
319.082
318.509
317.951
317.408
316.879
316.365
315.865
315.38
314.909
314.452
314.009
313.581
313.167
312.767
312.381
312.01
311.652
311.309
310.98
310.664
310.363
310.076
309.803
309.543
309.298
309.067
308.85
308.647
308.457
308.282
308.121
307.974
307.84
307.721
307.616
307.524
307.447
307.384
307.334
307.299
307.277
307.269
398.615
395.852
393.111
390.404
387.745
385.141
382.603
380.135
377.743
375.428
373.19
371.031
368.948
366.94
365.003
363.135
361.333
359.593
357.911
356.286
354.713
353.189
351.713
350.28
348.89
347.538
346.224
344.946
343.701
342.488
341.305
340.151
339.025
337.925
336.851
335.802
334.776
333.773
332.793
331.833
330.895
329.977
329.079
328.2
327.339
326.498
325.674
324.869
324.081
323.31
322.557
321.82
321.1
320.396
319.709
319.038
318.382
317.743
317.12
316.512
315.919
315.343
314.781
314.236
313.705
313.19
312.689
312.205
311.735
311.28
310.84
310.416
310.006
309.611
309.232
308.867
308.517
308.182
307.862
307.557
307.267
306.992
306.731
306.486
306.255
306.039
305.838
305.652
305.481
305.324
305.183
305.056
304.944
304.847
304.765
304.697
304.645
304.607
304.584
304.576
398.646
395.942
393.258
390.602
387.986
385.419
382.907
380.457
378.073
375.757
373.511
371.334
369.227
367.189
365.216
363.308
361.461
359.674
357.942
356.264
354.637
353.058
351.525
350.035
348.587
347.178
345.806
344.469
343.166
341.895
340.655
339.445
338.263
337.108
335.979
334.875
333.796
332.74
331.708
330.697
329.708
328.74
327.793
326.866
325.958
325.07
324.201
323.351
322.519
321.705
320.909
320.131
319.37
318.626
317.9
317.191
316.498
315.822
315.163
314.521
313.895
313.285
312.691
312.114
311.553
311.008
310.479
309.966
309.469
308.988
308.523
308.073
307.64
307.222
306.821
306.435
306.065
305.71
305.372
305.049
304.742
304.451
304.175
303.915
303.671
303.443
303.23
303.033
302.852
302.686
302.536
302.402
302.284
302.181
302.094
302.023
301.967
301.927
301.903
301.894
398.67
396.015
393.376
390.762
388.182
385.644
383.154
380.717
378.339
376.021
373.766
371.573
369.444
367.378
365.372
363.427
361.539
359.707
357.928
356.201
354.523
352.891
351.304
349.76
348.256
346.791
345.364
343.971
342.612
341.286
339.991
338.725
337.488
336.279
335.097
333.94
332.809
331.701
330.617
329.557
328.518
327.501
326.506
325.531
324.577
323.643
322.729
321.835
320.959
320.103
319.265
318.445
317.644
316.862
316.097
315.349
314.62
313.908
313.214
312.537
311.877
311.234
310.609
310
309.409
308.835
308.277
307.736
307.212
306.705
306.215
305.741
305.284
304.844
304.421
304.014
303.623
303.25
302.893
302.552
302.229
301.921
301.631
301.357
301.099
300.858
300.634
300.426
300.235
300.061
299.903
299.761
299.636
299.528
299.436
299.361
299.302
299.26
299.235
299.225
398.69
396.074
393.471
390.89
388.338
385.823
383.349
380.923
378.548
376.228
373.963
371.755
369.605
367.512
365.476
363.495
361.569
359.695
357.872
356.098
354.372
352.69
351.052
349.456
347.899
346.381
344.899
343.453
342.04
340.66
339.311
337.992
336.702
335.44
334.205
332.997
331.814
330.656
329.522
328.412
327.325
326.26
325.217
324.196
323.196
322.217
321.259
320.32
319.402
318.503
317.624
316.764
315.924
315.102
314.299
313.514
312.748
312.001
311.271
310.56
309.867
309.192
308.535
307.896
307.274
306.671
306.085
305.516
304.966
304.433
303.918
303.42
302.939
302.477
302.031
301.604
301.193
300.801
300.425
300.068
299.727
299.404
299.099
298.81
298.54
298.287
298.051
297.832
297.631
297.448
297.282
297.133
297.001
296.888
296.791
296.712
296.65
296.606
296.579
296.57
398.705
396.119
393.545
390.99
388.46
385.962
383.501
381.082
378.709
376.383
374.108
371.885
369.715
367.597
365.531
363.518
361.555
359.642
357.777
355.959
354.186
352.457
350.77
349.124
347.516
345.947
344.413
342.915
341.45
340.017
338.616
337.245
335.904
334.591
333.305
332.046
330.813
329.605
328.422
327.264
326.129
325.017
323.927
322.86
321.815
320.792
319.79
318.808
317.848
316.908
315.988
315.088
314.208
313.348
312.507
311.685
310.883
310.1
309.337
308.592
307.866
307.158
306.47
305.8
305.149
304.516
303.902
303.307
302.73
302.171
301.631
301.109
300.606
300.121
299.654
299.206
298.776
298.364
297.97
297.595
297.238
296.9
296.579
296.277
295.993
295.728
295.481
295.252
295.041
294.848
294.674
294.518
294.381
294.261
294.16
294.077
294.012
293.966
293.938
293.928
398.717
396.155
393.603
391.067
388.553
386.068
383.615
381.2
378.825
376.494
374.208
371.969
369.779
367.637
365.543
363.498
361.5
359.55
357.645
355.785
353.968
352.193
350.46
348.765
347.109
345.49
343.907
342.358
340.843
339.36
337.908
336.486
335.094
333.731
332.396
331.087
329.805
328.549
327.318
326.112
324.93
323.772
322.637
321.525
320.435
319.368
318.323
317.299
316.297
315.316
314.356
313.416
312.498
311.599
310.721
309.863
309.026
308.208
307.41
306.631
305.873
305.134
304.414
303.714
303.034
302.373
301.731
301.108
300.505
299.921
299.356
298.811
298.285
297.777
297.289
296.82
296.371
295.94
295.529
295.136
294.763
294.409
294.074
293.758
293.461
293.183
292.925
292.685
292.465
292.263
292.081
291.918
291.774
291.649
291.543
291.456
291.389
291.34
291.311
291.3
398.726
396.181
393.645
391.123
388.621
386.144
383.696
381.282
378.903
376.564
374.267
372.012
369.802
367.636
365.515
363.44
361.409
359.422
357.479
355.579
353.72
351.901
350.123
348.382
346.679
345.012
343.381
341.783
340.219
338.687
337.186
335.715
334.274
332.862
331.478
330.122
328.792
327.488
326.21
324.958
323.73
322.526
321.346
320.19
319.056
317.946
316.858
315.793
314.75
313.728
312.728
311.75
310.793
309.857
308.943
308.049
307.176
306.323
305.491
304.68
303.889
303.119
302.369
301.639
300.929
300.24
299.57
298.921
298.292
297.683
297.094
296.525
295.976
295.447
294.937
294.448
293.979
293.53
293.1
292.691
292.302
291.932
291.582
291.253
290.943
290.653
290.383
290.133
289.903
289.693
289.503
289.333
289.182
289.052
288.942
288.851
288.78
288.73
288.699
288.688
398.732
396.199
393.674
391.161
388.667
386.194
383.748
381.331
378.947
376.599
374.289
372.018
369.787
367.598
365.451
363.346
361.283
359.262
357.282
355.342
353.443
351.583
349.76
347.976
346.227
344.515
342.836
341.192
339.58
338
336.451
334.933
333.444
331.984
330.553
329.149
327.773
326.423
325.099
323.8
322.527
321.279
320.055
318.855
317.679
316.526
315.397
314.29
313.207
312.145
311.107
310.09
309.095
308.122
307.171
306.242
305.334
304.447
303.582
302.738
301.916
301.114
300.334
299.574
298.836
298.118
297.422
296.746
296.091
295.457
294.844
294.251
293.68
293.129
292.599
292.09
291.601
291.133
290.686
290.26
289.855
289.47
289.106
288.763
288.44
288.138
287.857
287.597
287.357
287.139
286.941
286.763
286.607
286.471
286.356
286.262
286.188
286.135
286.103
286.092
398.736
396.21
393.692
391.184
388.693
386.221
383.774
381.353
378.962
376.603
374.278
371.99
369.739
367.527
365.354
363.22
361.126
359.071
357.055
355.078
353.14
351.239
349.375
347.547
345.755
343.998
342.274
340.584
338.926
337.3
335.705
334.14
332.605
331.099
329.621
328.171
326.749
325.353
323.984
322.641
321.324
320.032
318.764
317.522
316.303
315.109
313.939
312.792
311.668
310.568
309.49
308.436
307.404
306.394
305.408
304.443
303.501
302.581
301.682
300.806
299.952
299.12
298.309
297.521
296.754
296.008
295.285
294.583
293.903
293.244
292.607
291.992
291.398
290.826
290.275
289.746
289.238
288.752
288.287
287.844
287.423
287.023
286.645
286.288
285.953
285.639
285.347
285.077
284.828
284.6
284.394
284.21
284.047
283.906
283.787
283.689
283.612
283.557
283.524
283.512
398.738
396.215
393.699
391.194
388.702
386.229
383.777
381.349
378.949
376.578
374.239
371.933
369.661
367.426
365.227
363.065
360.94
358.852
356.802
354.789
352.813
350.872
348.968
347.099
345.264
343.463
341.696
339.961
338.259
336.588
334.947
333.337
331.756
330.205
328.682
327.187
325.72
324.28
322.867
321.48
320.119
318.784
317.475
316.19
314.93
313.695
312.484
311.297
310.134
308.995
307.88
306.788
305.72
304.674
303.652
302.653
301.677
300.723
299.793
298.885
297.999
297.137
296.297
295.479
294.684
293.911
293.161
292.433
291.728
291.045
290.384
289.746
289.13
288.537
287.965
287.416
286.89
286.386
285.904
285.444
285.007
284.592
284.2
283.83
283.482
283.157
282.854
282.573
282.315
282.079
281.865
281.674
281.505
281.359
281.235
281.133
281.054
280.997
280.962
280.95
398.738
396.215
393.699
391.191
388.697
386.219
383.76
381.324
378.912
376.528
374.173
371.848
369.556
367.297
365.072
362.883
360.728
358.608
356.524
354.476
352.463
350.484
348.541
346.631
344.755
342.913
341.103
339.325
337.579
335.864
334.179
332.525
330.9
329.304
327.737
326.199
324.688
323.204
321.748
320.318
318.915
317.537
316.186
314.86
313.56
312.284
311.034
309.808
308.606
307.429
306.277
305.148
304.043
302.962
301.905
300.872
299.862
298.876
297.913
296.974
296.058
295.165
294.296
293.45
292.627
291.827
291.05
290.297
289.567
288.86
288.176
287.515
286.877
286.263
285.671
285.103
284.558
284.035
283.536
283.061
282.608
282.178
281.772
281.388
281.028
280.691
280.377
280.086
279.819
279.575
279.353
279.155
278.98
278.829
278.7
278.595
278.513
278.454
278.418
278.405
398.737
396.211
393.69
391.179
388.679
386.193
383.726
381.279
378.855
376.456
374.084
371.74
369.427
367.144
364.894
362.676
360.492
358.341
356.224
354.141
352.092
350.077
348.095
346.146
344.23
342.347
340.495
338.676
336.887
335.129
333.402
331.705
330.037
328.398
326.788
325.206
323.652
322.126
320.627
319.155
317.71
316.292
314.899
313.533
312.192
310.877
309.588
308.323
307.084
305.87
304.68
303.515
302.375
301.259
300.168
299.101
298.058
297.039
296.045
295.074
294.128
293.206
292.307
291.433
290.583
289.756
288.954
288.175
287.42
286.689
285.982
285.299
284.64
284.005
283.393
282.805
282.242
281.702
281.186
280.694
280.225
279.781
279.361
278.964
278.592
278.243
277.919
277.618
277.341
277.089
276.86
276.655
276.474
276.317
276.184
276.075
275.991
275.93
275.893
275.879
398.734
396.202
393.676
391.157
388.649
386.154
383.676
381.217
378.779
376.364
373.974
371.61
369.275
366.969
364.693
362.448
360.234
358.053
355.904
353.787
351.703
349.651
347.632
345.645
343.69
341.767
339.875
338.014
336.185
334.385
332.616
330.877
329.166
327.485
325.833
324.209
322.614
321.046
319.506
317.993
316.507
315.047
313.615
312.209
310.829
309.475
308.147
306.845
305.568
304.317
303.091
301.89
300.715
299.565
298.44
297.339
296.264
295.213
294.188
293.187
292.211
291.259
290.332
289.43
288.553
287.7
286.871
286.068
285.289
284.534
283.804
283.099
282.419
281.763
281.131
280.525
279.943
279.385
278.852
278.344
277.861
277.402
276.968
276.559
276.174
275.814
275.479
275.168
274.882
274.621
274.385
274.174
273.987
273.825
273.688
273.575
273.487
273.424
273.386
273.373
398.73
396.19
393.655
391.127
388.608
386.103
383.612
381.139
378.686
376.254
373.845
371.461
369.104
366.774
364.472
362.2
359.957
357.746
355.565
353.415
351.296
349.209
347.154
345.129
343.136
341.174
339.243
337.343
335.473
333.633
331.822
330.042
328.291
326.568
324.875
323.21
321.573
319.965
318.384
316.83
315.304
313.805
312.333
310.888
309.469
308.077
306.712
305.372
304.059
302.771
301.51
300.274
299.064
297.88
296.722
295.589
294.481
293.399
292.343
291.312
290.306
289.325
288.37
287.441
286.537
285.658
284.804
283.976
283.173
282.395
281.643
280.916
280.214
279.538
278.887
278.261
277.661
277.086
276.537
276.013
275.514
275.041
274.594
274.172
273.775
273.404
273.058
272.738
272.443
272.174
271.93
271.712
271.519
271.352
271.211
271.095
271.004
270.939
270.9
270.886
398.725
396.174
393.629
391.089
388.559
386.041
383.536
381.048
378.578
376.128
373.7
371.295
368.915
366.56
364.233
361.934
359.663
357.421
355.209
353.026
350.874
348.752
346.661
344.6
342.57
340.57
338.601
336.661
334.752
332.872
331.022
329.201
327.41
325.647
323.914
322.208
320.531
318.883
317.262
315.669
314.104
312.566
311.055
309.571
308.115
306.685
305.283
303.906
302.557
301.234
299.937
298.667
297.423
296.206
295.014
293.849
292.71
291.597
290.51
289.449
288.414
287.406
286.423
285.466
284.535
283.631
282.752
281.899
281.073
280.272
279.497
278.749
278.026
277.33
276.66
276.016
275.398
274.806
274.24
273.7
273.187
272.7
272.239
271.804
271.395
271.013
270.657
270.327
270.023
269.746
269.495
269.27
269.072
268.9
268.754
268.634
268.541
268.474
268.434
268.419
398.719
396.156
393.598
391.046
388.502
385.969
383.449
380.945
378.457
375.988
373.539
371.113
368.71
366.331
363.978
361.651
359.352
357.08
354.837
352.623
350.438
348.282
346.156
344.059
341.993
339.956
337.949
335.971
334.023
332.105
330.216
328.356
326.525
324.723
322.95
321.205
319.489
317.801
316.141
314.509
312.905
311.329
309.781
308.259
306.766
305.299
303.86
302.448
301.063
299.705
298.374
297.07
295.792
294.542
293.318
292.121
290.951
289.807
288.69
287.6
286.537
285.5
284.49
283.506
282.549
281.619
280.716
279.839
278.989
278.166
277.369
276.6
275.857
275.14
274.451
273.788
273.153
272.544
271.962
271.407
270.879
270.378
269.903
269.456
269.036
268.642
268.276
267.937
267.624
267.339
267.081
266.849
266.645
266.468
266.318
266.195
266.099
266.03
265.989
265.974
398.712
396.135
393.563
390.997
388.438
385.889
383.353
380.83
378.324
375.835
373.366
370.917
368.491
366.088
363.709
361.355
359.027
356.726
354.452
352.206
349.989
347.8
345.639
343.508
341.405
339.332
337.288
335.274
333.288
331.332
329.404
327.506
325.637
323.796
321.984
320.201
318.446
316.72
315.022
313.352
311.71
310.096
308.511
306.953
305.422
303.92
302.445
300.997
299.577
298.185
296.82
295.482
294.172
292.889
291.634
290.405
289.204
288.031
286.884
285.765
284.673
283.609
282.572
281.562
280.579
279.624
278.696
277.796
276.923
276.077
275.259
274.468
273.705
272.969
272.261
271.58
270.927
270.302
269.704
269.133
268.591
268.076
267.588
267.129
266.697
266.292
265.916
265.567
265.246
264.953
264.688
264.45
264.24
264.058
263.904
263.778
263.679
263.608
263.565
263.55
398.704
396.113
393.525
390.942
388.367
385.802
383.248
380.707
378.181
375.672
373.181
370.71
368.259
365.831
363.426
361.045
358.689
356.359
354.055
351.778
349.528
347.306
345.112
342.947
340.809
338.701
336.621
334.569
332.547
330.553
328.589
326.653
324.746
322.867
321.018
319.197
317.404
315.64
313.905
312.198
310.519
308.868
307.246
305.651
304.085
302.547
301.037
299.555
298.101
296.674
295.276
293.905
292.563
291.248
289.961
288.702
287.471
286.268
285.092
283.945
282.825
281.733
280.669
279.634
278.626
277.646
276.694
275.77
274.874
274.007
273.167
272.356
271.572
270.817
270.091
269.392
268.722
268.08
267.466
266.88
266.323
265.795
265.294
264.822
264.379
263.964
263.578
263.22
262.89
262.589
262.317
262.073
261.857
261.67
261.512
261.382
261.281
261.208
261.164
261.149
398.696
396.088
393.483
390.884
388.291
385.708
383.135
380.575
378.029
375.498
372.985
370.491
368.017
365.563
363.132
360.724
358.34
355.981
353.647
351.339
349.058
346.804
344.576
342.377
340.205
338.062
335.946
333.859
331.801
329.771
327.77
325.797
323.853
321.938
320.051
318.193
316.364
314.563
312.79
311.047
309.331
307.645
305.986
304.356
302.755
301.182
299.637
298.121
296.633
295.174
293.742
292.34
290.965
289.619
288.301
287.012
285.751
284.518
283.314
282.139
280.992
279.873
278.783
277.722
276.689
275.685
274.709
273.762
272.844
271.955
271.094
270.262
269.459
268.685
267.94
267.224
266.536
265.878
265.249
264.648
264.077
263.535
263.022
262.538
262.083
261.658
261.261
260.894
260.556
260.247
259.968
259.718
259.497
259.305
259.143
259.01
258.906
258.832
258.786
258.77
398.687
396.061
393.439
390.822
388.21
385.608
383.016
380.435
377.868
375.316
372.78
370.263
367.764
365.285
362.828
360.393
357.981
355.593
353.23
350.891
348.579
346.292
344.033
341.8
339.595
337.417
335.267
333.145
331.051
328.986
326.948
324.94
322.96
321.008
319.085
317.191
315.325
313.488
311.679
309.9
308.149
306.427
304.733
303.068
301.432
299.825
298.246
296.697
295.176
293.683
292.22
290.785
289.379
288.003
286.655
285.335
284.045
282.784
281.552
280.349
279.175
278.03
276.914
275.827
274.77
273.741
272.742
271.773
270.833
269.922
269.04
268.188
267.366
266.573
265.81
265.076
264.372
263.698
263.053
262.438
261.853
261.297
260.772
260.276
259.81
259.374
258.968
258.592
258.245
257.929
257.643
257.386
257.16
256.963
256.797
256.661
256.554
256.478
256.432
256.415
398.678
396.034
393.392
390.756
388.125
385.503
382.89
380.289
377.7
375.126
372.567
370.026
367.503
364.999
362.515
360.053
357.613
355.196
352.804
350.435
348.092
345.774
343.482
341.217
338.978
336.767
334.583
332.427
330.298
328.198
326.125
324.081
322.066
320.078
318.12
316.19
314.289
312.416
310.573
308.758
306.972
305.215
303.487
301.788
300.118
298.477
296.865
295.282
293.729
292.204
290.709
289.243
287.807
286.399
285.021
283.673
282.354
281.065
279.805
278.574
277.374
276.203
275.061
273.95
272.868
271.816
270.794
269.802
268.84
267.908
267.007
266.135
265.293
264.482
263.701
262.95
262.229
261.539
260.879
260.25
259.651
259.082
258.544
258.037
257.56
257.113
256.697
256.312
255.958
255.634
255.341
255.078
254.847
254.646
254.475
254.336
254.227
254.149
254.101
254.084
398.668
396.004
393.344
390.687
388.037
385.394
382.76
380.137
377.526
374.929
372.347
369.782
367.234
364.704
362.194
359.705
357.238
354.792
352.37
349.972
347.598
345.249
342.926