/*--------------------------------*- C++ -*----------------------------------*\
| =========                 |                                                 |
| \\      /  F ield         | OpenFOAM: The Open Source CFD Toolbox           |
|  \\    /   O peration     | Version:  2406                                  |
|   \\  /    A nd           | Website:  www.openfoam.com                      |
|    \\/     M anipulation  |                                                 |
\*---------------------------------------------------------------------------*/
FoamFile
{
    version     2.0;
    format      ascii;
    arch        "LSB;label=32;scalar=64";
    class       volScalarField;
    location    "14";
    object      p;
}
// * * * * * * * * * * * * * * * * * * * * * * * * * * * * * * * * * * * * * //

dimensions      [0 2 -2 0 0 0 0];

internalField   nonuniform List<scalar> 
1176
(
0.7969996
0.79702247
0.79704614
0.7970538
0.79702227
0.79692758
0.79677035
0.79658418
0.79640498
0.79623782
0.7960832
0.79598759
0.79598759
0.7960832
0.79623782
0.79640496
0.79658415
0.7967703
0.7969275
0.79702216
0.79705364
0.79704592
0.79702222
0.79699933
0.77385117
0.77380421
0.77375645
0.77373956
0.77380206
0.77400441
0.77436973
0.77483414
0.775265
0.7755511
0.77567049
0.77570475
0.77570475
0.77567049
0.7755511
0.77526502
0.77483419
0.77436982
0.77400455
0.77380223
0.77373976
0.77375668
0.77380445
0.77385141
0.75676641
0.75678843
0.75680822
0.75680631
0.75674725
0.75658607
0.75631431
0.75598636
0.75568015
0.75546736
0.75535655
0.75530773
0.75530773
0.75535654
0.75546734
0.75568012
0.75598633
0.75631428
0.75658605
0.75674722
0.75680629
0.7568082
0.75678841
0.7567664
0.74009452
0.74010365
0.74011571
0.74013211
0.74015465
0.74017222
0.74013999
0.74000658
0.73977447
0.7395019
0.7392777
0.7391572
0.7391572
0.73927769
0.7395019
0.73977446
0.74000657
0.74013998
0.74017222
0.74015464
0.7401321
0.74011569
0.74010363
0.7400945
0.72367548
0.72367943
0.72368442
0.72369048
0.72370018
0.72372046
0.72375664
0.72379815
0.72381982
0.72379595
0.72373384
0.7236812
0.7236812
0.72373384
0.72379595
0.72381982
0.72379815
0.72375664
0.72372046
0.72370019
0.72369049
0.72368443
0.72367944
0.72367548
0.70721382
0.70721623
0.70721948
0.70722352
0.70722843
0.70723527
0.70724943
0.70728075
0.70733074
0.70738799
0.7074307
0.70744735
0.70744735
0.7074307
0.70738799
0.70733074
0.70728075
0.70724943
0.70723527
0.70722843
0.70722352
0.70721948
0.70721623
0.70721382
0.69080801
0.69081015
0.69081296
0.69081639
0.69082029
0.6908238
0.69082587
0.69082804
0.69083659
0.69085382
0.69087172
0.69088344
0.69088344
0.69087172
0.69085382
0.69083659
0.69082804
0.69082587
0.6908238
0.69082028
0.69081639
0.69081296
0.69081015
0.69080801
0.67442815
0.67442991
0.67443224
0.67443516
0.67443883
0.6744432
0.67444765
0.67445081
0.67445204
0.67445366
0.67445071
0.6744482
0.6744482
0.67445071
0.67445366
0.67445204
0.67445081
0.67444765
0.6744432
0.67443883
0.67443515
0.67443223
0.67442991
0.67442815
0.65807387
0.65807532
0.65807725
0.65807966
0.65808268
0.65808647
0.65809151
0.65809856
0.65810724
0.65811727
0.65812504
0.65812863
0.65812862
0.65812504
0.65811727
0.65810724
0.65809856
0.65809151
0.65808646
0.65808268
0.65807966
0.65807725
0.65807532
0.65807387
0.64173618
0.64173738
0.64173899
0.64174103
0.64174359
0.64174677
0.64175093
0.64175732
0.64176748
0.64178061
0.64179494
0.64180425
0.64180425
0.64179494
0.64178061
0.64176748
0.64175732
0.64175093
0.64174677
0.64174359
0.64174102
0.64173899
0.64173738
0.64173618
0.6254118
0.62541283
0.6254142
0.62541595
0.62541816
0.62542089
0.62542429
0.62542913
0.62543699
0.62544765
0.62546021
0.62546935
0.62546935
0.62546021
0.62544766
0.62543699
0.62542913
0.62542428
0.62542089
0.62541816
0.62541595
0.6254142
0.62541283
0.6254118
0.60909833
0.60909922
0.60910042
0.60910195
0.60910389
0.60910629
0.60910925
0.60911326
0.60911948
0.60912814
0.6091387
0.60914615
0.60914615
0.6091387
0.60912814
0.60911948
0.60911326
0.60910925
0.60910628
0.60910388
0.60910194
0.60910042
0.60909922
0.60909832
0.59279414
0.59279493
0.59279598
0.59279733
0.59279905
0.59280118
0.59280382
0.59280735
0.59281276
0.5928205
0.59283019
0.59283687
0.59283687
0.59283019
0.59282051
0.59281276
0.59280736
0.59280382
0.59280118
0.59279904
0.59279732
0.59279597
0.59279492
0.59279413
0.57649792
0.57649862
0.57649956
0.57650076
0.5765023
0.57650421
0.57650656
0.57650969
0.57651446
0.57652143
0.5765301
0.57653619
0.57653619
0.5765301
0.57652144
0.57651447
0.57650969
0.57650656
0.5765042
0.57650229
0.57650075
0.57649955
0.57649861
0.57649791
0.56020865
0.56020928
0.56021013
0.56021121
0.56021259
0.56021431
0.56021641
0.56021917
0.56022333
0.56022946
0.56023699
0.56024239
0.56024239
0.56023699
0.56022947
0.56022334
0.56021918
0.56021641
0.5602143
0.56021258
0.56021119
0.56021011
0.56020926
0.56020863
0.54392553
0.5439261
0.54392687
0.54392785
0.5439291
0.54393066
0.54393255
0.54393501
0.54393864
0.54394402
0.54395056
0.54395534
0.54395535
0.54395056
0.54394402
0.54393865
0.54393501
0.54393255
0.54393065
0.54392909
0.54392783
0.54392684
0.54392608
0.54392551
0.52764791
0.52764843
0.52764912
0.52765002
0.52765116
0.52765258
0.5276543
0.5276565
0.52765972
0.52766448
0.52767021
0.5276745
0.5276745
0.52767021
0.52766449
0.52765973
0.52765651
0.5276543
0.52765257
0.52765114
0.52764999
0.52764909
0.5276484
0.52764788
0.51137524
0.51137571
0.51137635
0.51137716
0.51137821
0.51137951
0.51138108
0.51138307
0.51138594
0.51139019
0.51139524
0.5113991
0.51139911
0.51139525
0.5113902
0.51138595
0.51138307
0.51138107
0.51137949
0.51137818
0.51137713
0.51137631
0.51137567
0.5113752
0.49510704
0.49510748
0.49510806
0.49510881
0.49510977
0.49511097
0.49511241
0.49511421
0.49511679
0.49512059
0.49512509
0.49512858
0.49512858
0.4951251
0.49512061
0.4951168
0.49511422
0.4951124
0.49511095
0.49510974
0.49510877
0.49510802
0.49510743
0.495107
0.47884294
0.47884334
0.47884388
0.47884457
0.47884545
0.47884655
0.47884788
0.47884953
0.47885185
0.47885527
0.4788593
0.47886246
0.47886246
0.47885931
0.47885528
0.47885186
0.47884954
0.47884787
0.47884653
0.47884542
0.47884452
0.47884382
0.47884328
0.47884288
0.46258257
0.46258294
0.46258344
0.46258408
0.4625849
0.46258592
0.46258714
0.46258865
0.46259075
0.46259385
0.46259749
0.46260036
0.46260036
0.4625975
0.46259386
0.46259077
0.46258866
0.46258713
0.46258589
0.46258485
0.46258402
0.46258337
0.46258287
0.4625825
0.44632564
0.44632598
0.44632644
0.44632704
0.4463278
0.44632874
0.44632987
0.44633126
0.44633318
0.44633599
0.4463393
0.44634192
0.44634192
0.44633931
0.44633601
0.4463332
0.44633128
0.44632987
0.44632871
0.44632774
0.44632696
0.44632637
0.4463259
0.44632556
0.43007188
0.4300722
0.43007262
0.43007318
0.43007388
0.43007476
0.43007581
0.43007709
0.43007884
0.43008141
0.43008444
0.43008683
0.43008683
0.43008445
0.43008143
0.43007887
0.43007711
0.43007581
0.43007473
0.43007382
0.43007309
0.43007254
0.4300721
0.43007178
0.41382105
0.41382134
0.41382174
0.41382226
0.41382292
0.41382373
0.41382471
0.4138259
0.4138275
0.41382986
0.41383264
0.41383482
0.41383483
0.41383265
0.41382988
0.41382753
0.41382592
0.4138247
0.41382369
0.41382284
0.41382216
0.41382164
0.41382124
0.41382094
0.39757293
0.39757321
0.39757358
0.39757406
0.39757468
0.39757544
0.39757635
0.39757745
0.39757893
0.39758109
0.39758366
0.39758567
0.39758567
0.39758367
0.39758112
0.39757897
0.39757748
0.39757634
0.39757539
0.3975746
0.39757396
0.39757347
0.39757309
0.39757281
0.38132734
0.3813276
0.38132795
0.3813284
0.38132897
0.38132969
0.38133054
0.38133156
0.38133293
0.38133492
0.3813373
0.38133914
0.38133914
0.38133731
0.38133495
0.38133297
0.38133159
0.38133053
0.38132964
0.38132888
0.38132828
0.38132782
0.38132747
0.38132721
0.36508411
0.36508435
0.36508467
0.36508509
0.36508563
0.3650863
0.3650871
0.36508805
0.36508932
0.36509116
0.36509336
0.36509506
0.36509506
0.36509337
0.36509119
0.36508936
0.36508808
0.36508709
0.36508624
0.36508553
0.36508496
0.36508453
0.3650842
0.36508396
0.34884306
0.34884329
0.34884359
0.34884398
0.34884449
0.34884511
0.34884586
0.34884675
0.34884793
0.34884963
0.34885168
0.34885325
0.34885326
0.34885169
0.34884967
0.34884797
0.34884678
0.34884585
0.34884505
0.34884438
0.34884384
0.34884344
0.34884313
0.3488429
0.33260406
0.33260427
0.33260456
0.33260492
0.3326054
0.33260599
0.33260669
0.33260752
0.33260861
0.33261019
0.3326121
0.33261356
0.33261356
0.33261212
0.33261023
0.33260866
0.33260755
0.33260667
0.33260592
0.33260528
0.33260477
0.33260439
0.3326041
0.33260389
0.31636697
0.31636717
0.31636744
0.31636779
0.31636823
0.31636878
0.31636944
0.31637022
0.31637124
0.31637271
0.31637449
0.31637584
0.31637585
0.31637451
0.31637275
0.31637129
0.31637026
0.31636943
0.31636871
0.3163681
0.31636762
0.31636727
0.31636699
0.31636679
0.30013168
0.30013187
0.30013212
0.30013244
0.30013286
0.30013338
0.300134
0.30013473
0.30013568
0.30013705
0.30013871
0.30013997
0.30013998
0.30013873
0.3001371
0.30013574
0.30013477
0.30013398
0.3001333
0.30013273
0.30013227
0.30013194
0.30013168
0.30013149
0.28389807
0.28389824
0.28389848
0.28389879
0.28389918
0.28389967
0.28390025
0.28390094
0.28390183
0.2839031
0.28390465
0.28390583
0.28390583
0.28390467
0.28390315
0.28390188
0.28390097
0.28390023
0.28389959
0.28389904
0.28389861
0.28389829
0.28389805
0.28389787
0.26766603
0.2676662
0.26766642
0.26766671
0.26766708
0.26766754
0.26766809
0.26766873
0.26766957
0.26767076
0.26767221
0.26767331
0.26767331
0.26767223
0.2676708
0.26766963
0.26766877
0.26766807
0.26766745
0.26766693
0.26766652
0.26766622
0.26766599
0.26766583
0.25143548
0.25143563
0.25143584
0.25143611
0.25143646
0.2514369
0.25143741
0.25143802
0.2514388
0.25143991
0.25144127
0.2514423
0.2514423
0.2514413
0.25143996
0.25143886
0.25143806
0.2514374
0.25143681
0.25143632
0.25143593
0.25143564
0.25143543
0.25143527
0.23520632
0.23520646
0.23520666
0.23520692
0.23520724
0.23520765
0.23520814
0.23520871
0.23520944
0.23521049
0.23521177
0.23521272
0.23521273
0.23521179
0.23521054
0.23520951
0.23520875
0.23520812
0.23520757
0.2352071
0.23520673
0.23520646
0.23520626
0.23520611
0.21897846
0.2189786
0.21897879
0.21897903
0.21897934
0.21897973
0.21898018
0.21898072
0.21898141
0.21898238
0.21898358
0.21898447
0.21898448
0.2189836
0.21898243
0.21898147
0.21898076
0.21898017
0.21897964
0.21897919
0.21897884
0.21897859
0.2189784
0.21897826
0.20275184
0.20275197
0.20275215
0.20275238
0.20275267
0.20275303
0.20275347
0.20275398
0.20275462
0.20275554
0.20275667
0.2027575
0.20275751
0.20275669
0.20275559
0.20275468
0.20275401
0.20275345
0.20275295
0.20275253
0.2027522
0.20275196
0.20275178
0.20275165
0.18652639
0.18652651
0.18652668
0.18652689
0.18652717
0.18652751
0.18652792
0.1865284
0.18652901
0.18652986
0.18653092
0.1865317
0.1865317
0.18653094
0.18652991
0.18652907
0.18652844
0.1865279
0.18652743
0.18652703
0.18652672
0.1865265
0.18652632
0.1865262
0.17030202
0.17030214
0.1703023
0.1703025
0.17030276
0.17030308
0.17030347
0.17030392
0.17030449
0.1703053
0.1703063
0.17030703
0.17030704
0.17030632
0.17030534
0.17030455
0.17030396
0.17030346
0.17030301
0.17030263
0.17030234
0.17030213
0.17030197
0.17030185
0.1540787
0.15407881
0.15407895
0.15407915
0.15407939
0.1540797
0.15408006
0.15408049
0.15408103
0.15408178
0.15408271
0.15408339
0.15408339
0.15408272
0.15408182
0.15408108
0.15408052
0.15408005
0.15407963
0.15407928
0.154079
0.1540788
0.15407865
0.15407854
0.13785634
0.13785644
0.13785658
0.13785676
0.13785699
0.13785728
0.13785763
0.13785803
0.13785854
0.13785924
0.13786012
0.13786077
0.13786077
0.13786014
0.13785928
0.13785858
0.13785806
0.13785762
0.13785722
0.13785689
0.13785663
0.13785644
0.1378563
0.1378562
0.12163491
0.12163501
0.12163514
0.12163531
0.12163553
0.12163581
0.12163613
0.12163651
0.12163698
0.12163763
0.12163844
0.12163902
0.12163902
0.12163845
0.12163766
0.12163702
0.12163654
0.12163612
0.12163575
0.12163545
0.1216352
0.12163503
0.12163489
0.12163479
0.10541433
0.10541442
0.10541455
0.10541471
0.10541492
0.10541518
0.10541549
0.10541584
0.10541629
0.1054169
0.10541765
0.10541819
0.10541819
0.10541766
0.10541692
0.10541632
0.10541586
0.10541548
0.10541514
0.10541485
0.10541463
0.10541446
0.10541433
0.10541424
0.089194619
0.089194707
0.089194826
0.089194979
0.089195177
0.089195423
0.089195713
0.089196047
0.089196451
0.089196988
0.08919763
0.089198084
0.089198083
0.089197634
0.089197007
0.089196477
0.089196063
0.089195707
0.089195392
0.089195128
0.089194918
0.089194762
0.089194642
0.089194555
0.072975617
0.0729757
0.072975811
0.072975956
0.072976145
0.072976381
0.07297666
0.072976978
0.072977357
0.072977849
0.072978423
0.072978808
0.072978806
0.072978424
0.072977861
0.072977375
0.072976989
0.072976656
0.072976362
0.072976115
0.07297592
0.072975773
0.072975661
0.072975579
0.0567575
0.05675758
0.056757688
0.056757826
0.056758003
0.056758221
0.056758476
0.056758764
0.056759087
0.05675946
0.056759828
0.056760031
0.056760029
0.056759826
0.056759465
0.056759097
0.05675877
0.056758475
0.056758213
0.056757991
0.056757812
0.056757674
0.056757566
0.056757486
0.040539716
0.040539787
0.040539884
0.040540015
0.040540191
0.040540417
0.040540685
0.04054098
0.040541308
0.040541713
0.040542174
0.040542471
0.040542468
0.040542169
0.040541712
0.04054131
0.040540981
0.040540685
0.040540418
0.040540194
0.040540019
0.040539888
0.040539791
0.040539721
0.024323452
0.024323534
0.024323642
0.024323769
0.024323917
0.02432408
0.024324255
0.02432444
0.024324608
0.024324685
0.024324592
0.024324353
0.02432435
0.024324586
0.02432468
0.024324604
0.024324438
0.024324257
0.024324087
0.024323929
0.024323783
0.024323655
0.024323547
0.024323464
0.008105362
0.0081054323
0.0081055253
0.0081056468
0.0081058083
0.0081060088
0.0081062307
0.0081064712
0.0081068498
0.0081076846
0.0081091597
0.0081105236
0.0081105221
0.0081091561
0.0081076802
0.0081068451
0.0081064682
0.0081062324
0.0081060165
0.0081058209
0.0081056618
0.0081055402
0.0081054468
0.0081053759
)
;

boundaryField
{
    INLET
    {
        type            zeroGradient;
    }
    OUTLET
    {
        type            fixedValue;
        value           uniform 0;
    }
    WALL
    {
        type            zeroGradient;
    }
    frontAndBackPlanes
    {
        type            empty;
    }
}


// ************************************************************************* //
