/*--------------------------------*- C++ -*----------------------------------*\
| =========                 |                                                 |
| \\      /  F ield         | OpenFOAM: The Open Source CFD Toolbox           |
|  \\    /   O peration     | Version:  2406                                  |
|   \\  /    A nd           | Website:  www.openfoam.com                      |
|    \\/     M anipulation  |                                                 |
\*---------------------------------------------------------------------------*/
FoamFile
{
    version     2.0;
    format      ascii;
    arch        "LSB;label=32;scalar=64";
    class       surfaceScalarField;
    location    "14";
    object      phi;
}
// * * * * * * * * * * * * * * * * * * * * * * * * * * * * * * * * * * * * * //

dimensions      [0 3 -1 0 0 0 0];

oriented        oriented;

internalField   nonuniform List<scalar> 
2279
(
2.3617475e-08
1.0148926e-05
2.0509761e-07
4.982375e-05
6.9331756e-07
0.00014252872
1.5784715e-06
0.00034353082
2.6788476e-06
0.00075378089
3.3472912e-06
0.0015415573
3.04352e-06
0.0029497096
2.1516845e-06
0.005249171
1.4318048e-06
0.008582269
9.8959403e-07
0.012685995
5.1267092e-07
0.016666385
5.8871817e-12
0.01918202
-5.1265675e-07
0.01918202
-9.8956857e-07
0.016666385
-1.4317511e-06
0.012685995
-2.1515911e-06
0.008582269
-3.0433753e-06
0.0052491709
-3.3470975e-06
0.0029497094
-2.6786267e-06
0.0015415572
-1.5782606e-06
0.00075378081
-6.9314721e-07
0.00034353078
-2.0498954e-07
0.00014252871
-2.3568715e-08
4.9823747e-05
1.0148926e-05
-9.5248482e-08
1.0244175e-05
-5.3794011e-07
5.0266441e-05
-1.6230013e-06
0.00014361378
-3.5389526e-06
0.00034544677
-5.920187e-06
0.00075616213
-7.4055031e-06
0.0015430426
-6.584728e-06
0.0029488888
-3.9361599e-06
0.0052465224
-1.3883877e-06
0.0085797213
-6.5115581e-08
0.012684671
2.4241254e-07
0.016666078
6.3000431e-12
0.019182263
-2.4240416e-07
0.019182263
6.5105528e-08
0.016666078
1.3883325e-06
0.012684671
3.9360329e-06
0.0085797213
6.5845202e-06
0.0052465225
7.4052511e-06
0.002948889
5.9199564e-06
0.0015430427
3.5387923e-06
0.00075616219
1.6229139e-06
0.00034544681
5.3790414e-07
0.0001436138
9.5241605e-08
5.0266448e-05
1.0244177e-05
5.0139834e-08
1.0194035e-05
2.6334495e-07
5.0053236e-05
7.4910707e-07
0.00014312802
1.5314581e-06
0.00034466442
2.3366551e-06
0.00075535693
2.5476609e-06
0.0015428316
1.8390946e-06
0.0029495974
9.7567299e-07
0.0052473858
6.7695754e-07
0.00858002
6.7178807e-07
0.012684677
4.841704e-07
0.016666266
1.5307629e-11
0.019182747
-4.8413614e-07
0.019182747
-6.7174549e-07
0.016666265
-6.7691016e-07
0.012684677
-9.7562049e-07
0.0085800199
-1.8390449e-06
0.0052473858
-2.5476257e-06
0.0029495974
-2.336639e-06
0.0015428316
-1.5314567e-06
0.00075535692
-7.491134e-07
0.00034466442
-2.6335186e-07
0.00014312802
-5.0144474e-08
5.0053236e-05
1.0194035e-05
1.9586697e-08
1.0174448e-05
1.1184918e-07
4.9960974e-05
3.6128411e-07
0.00014287858
9.0504738e-07
0.00034412066
1.8716591e-06
0.00075439032
3.094822e-06
0.0015416085
3.8987216e-06
0.0029487935
3.7285517e-06
0.005247556
2.9242064e-06
0.0085808243
1.9733699e-06
0.012685627
1.0127661e-06
0.016667226
-4.1217189e-12
0.01918376
-1.0127761e-06
0.01918376
-1.973384e-06
0.016667226
-2.9242207e-06
0.012685627
-3.7285622e-06
0.0085808243
-3.8987236e-06
0.005247556
-3.094814e-06
0.0029487935
-1.8716444e-06
0.0015416085
-9.0503298e-07
0.00075439032
-3.6127341e-07
0.00034412066
-1.1184303e-07
0.00014287858
-1.9584247e-08
4.9960974e-05
1.0174448e-05
8.0839329e-09
1.0166364e-05
4.714144e-08
4.9921916e-05
1.5494678e-07
0.00014277078
3.9846289e-07
0.00034387714
8.797941e-07
0.00075390899
1.7015154e-06
0.0015407867
2.7512733e-06
0.0029477437
3.4623585e-06
0.0052468449
3.470858e-06
0.0085808158
2.8006827e-06
0.012686298
1.550512e-06
0.016668476
-8.7884035e-13
0.01918531
-1.5505137e-06
0.01918531
-2.8006843e-06
0.016668476
-3.4708615e-06
0.012686298
-3.4623641e-06
0.0085808158
-2.7512834e-06
0.0052468449
-1.7015283e-06
0.0029477437
-8.7980572e-07
0.0015407867
-3.9847082e-07
0.00075390899
-1.5495119e-07
0.00034387714
-4.7143416e-08
0.00014277078
-8.0844594e-09
4.9921916e-05
1.0166364e-05
4.9358925e-09
1.0161429e-05
2.8698884e-08
4.9898153e-05
9.5121457e-08
0.00014270436
2.492143e-07
0.00034372305
5.6360919e-07
0.00075359459
1.1213743e-06
0.001540229
1.9184562e-06
0.0029469467
2.658818e-06
0.0052461046
2.8930554e-06
0.0085805816
2.4787627e-06
0.012686712
1.4344232e-06
0.016669521
-9.1204753e-13
0.019186745
-1.4344248e-06
0.019186745
-2.4787632e-06
0.016669521
-2.8930539e-06
0.012686712
-2.6588163e-06
0.0085805816
-1.9184551e-06
0.0052461046
-1.1213729e-06
0.0029469467
-5.6360771e-07
0.001540229
-2.4921359e-07
0.00075359459
-9.5121479e-08
0.00034372305
-2.869915e-08
0.00014270436
-4.9361277e-09
4.9898153e-05
1.0161429e-05
4.4123741e-09
1.0157016e-05
2.5525688e-08
4.987704e-05
8.3830099e-08
0.00014264605
2.1689403e-07
0.00034358999
4.8450084e-07
0.00075332698
9.5636016e-07
0.0015397571
1.6413722e-06
0.0029462616
2.3245796e-06
0.0052454214
2.5939494e-06
0.0085803122
2.2393588e-06
0.012687066
1.3066705e-06
0.016670453
-5.6642763e-13
0.019188051
-1.3066709e-06
0.019188051
-2.2393572e-06
0.016670453
-2.5939455e-06
0.012687066
-2.3245767e-06
0.0085803122
-1.6413704e-06
0.0052454214
-9.5635864e-07
0.0029462616
-4.8449943e-07
0.0015397571
-2.1689287e-07
0.00075332698
-8.3829281e-08
0.00034358999
-2.5525233e-08
0.00014264605
-4.4122044e-09
4.987704e-05
1.0157016e-05
3.6255609e-09
1.0153391e-05
2.1036612e-08
4.9859629e-05
6.9438089e-08
0.00014259765
1.8114132e-07
0.00034347828
4.0971395e-07
0.00075309841
8.2390301e-07
0.0015393429
1.4539907e-06
0.0029456316
2.1430726e-06
0.0052447323
2.4674691e-06
0.0085799878
2.188389e-06
0.012687346
1.2866392e-06
0.016671355
-1.021869e-12
0.019189338
-1.2866402e-06
0.019189338
-2.1883874e-06
0.016671355
-2.4674655e-06
0.012687346
-2.1430704e-06
0.0085799878
-1.4539899e-06
0.0052447323
-8.2390277e-07
0.0029456316
-4.0971378e-07
0.0015393429
-1.8114107e-07
0.00075309841
-6.9437857e-08
0.00034347828
-2.1036477e-08
0.00014259765
-3.6255152e-09
4.9859629e-05
1.0153391e-05
2.9831635e-09
1.0150408e-05
1.7347037e-08
4.9845265e-05
5.7377271e-08
0.00014255762
1.5007365e-07
0.00034338559
3.4097064e-07
0.00075290751
6.9193075e-07
0.001538992
1.2441068e-06
0.0029450794
1.9041829e-06
0.0052440722
2.3015964e-06
0.0085795904
2.0975035e-06
0.01268755
1.2520065e-06
0.016672201
-2.0440986e-12
0.01919059
-1.2520095e-06
0.01919059
-2.0975041e-06
0.016672201
-2.3015954e-06
0.01268755
-1.9041824e-06
0.0085795904
-1.2441063e-06
0.0052440722
-6.9192981e-07
0.0029450794
-3.4096946e-07
0.001538992
-1.5007263e-07
0.00075290751
-5.7376702e-08
0.00034338559
-1.7346864e-08
0.00014255762
-2.9831871e-09
4.9845265e-05
1.0150408e-05
2.4654546e-09
1.0147942e-05
1.4363149e-08
4.9833367e-05
4.7626455e-08
0.00014252436
1.2502848e-07
0.00034330818
2.8558837e-07
0.00075274695
5.8417823e-07
0.0015386934
1.0641822e-06
0.0029445994
1.6641543e-06
0.0052434722
2.0898695e-06
0.0085791647
1.9528888e-06
0.012687687
1.1802395e-06
0.016672973
-3.6677875e-12
0.01919177
-1.1802459e-06
0.01919177
-1.9528931e-06
0.016672973
-2.0898723e-06
0.012687687
-1.6641559e-06
0.0085791647
-1.064182e-06
0.0052434722
-5.8417648e-07
0.0029445994
-2.8558596e-07
0.0015386934
-1.2502649e-07
0.00075274695
-4.7625483e-08
0.00034330818
-1.436296e-08
0.00014252436
-2.4655859e-09
4.9833367e-05
1.0147942e-05
2.1024679e-09
1.014584e-05
1.2258079e-08
4.9823212e-05
4.068822e-08
0.00014249593
1.0698997e-07
0.00034324188
2.4507783e-07
0.00075260886
5.0385161e-07
0.0015384346
9.2623225e-07
0.002944177
1.4715071e-06
0.0052429269
1.8909025e-06
0.0085787453
1.8050158e-06
0.012687772
1.1036835e-06
0.016673675
-5.2381705e-12
0.019192874
-1.103693e-06
0.019192874
-1.8050234e-06
0.016673675
-1.8909084e-06
0.012687772
-1.4715102e-06
0.0085787453
-9.2623178e-07
0.0052429269
-5.0384841e-07
0.002944177
-2.4507367e-07
0.0015384346
-1.0698676e-07
0.00075260886
-4.068686e-08
0.00034324188
-1.2258001e-08
0.00014249593
-2.1028174e-09
4.9823212e-05
1.014584e-05
1.8282424e-09
1.0144011e-05
1.0665495e-08
4.9814374e-05
3.5430241e-08
0.00014247116
9.328276e-08
0.00034318403
2.1413848e-07
0.00075248801
4.4192608e-07
0.0015382068
8.1811084e-07
0.0029438008
1.3163763e-06
0.0052424287
1.7244876e-06
0.0085783372
1.6780352e-06
0.012687819
1.037797e-06
0.016674315
-6.3863486e-12
0.019193912
-1.037809e-06
0.019193912
-1.6780456e-06
0.016674315
-1.7244957e-06
0.012687819
-1.31638e-06
0.0085783372
-8.181093e-07
0.0052424287
-4.4192054e-07
0.0029438008
-2.1413177e-07
0.0015382068
-9.3277861e-08
0.00075248801
-3.5428372e-08
0.00034318403
-1.0665586e-08
0.00014247116
-1.8288962e-09
4.9814375e-05
1.0144011e-05
1.6104887e-09
1.0142401e-05
9.3996576e-09
4.9806585e-05
3.1244362e-08
0.00014244932
8.234019e-08
0.00034313293
1.8932007e-07
0.00075238103
3.9182165e-07
0.0015380043
7.2923895e-07
0.0029434634
1.1851414e-06
0.0052419728
1.5781691e-06
0.0085779441
1.5623317e-06
0.012687835
9.7669023e-07
0.0166749
-7.0423195e-12
0.019194888
-9.7670379e-07
0.019194888
-1.5623441e-06
0.0166749
-1.5781787e-06
0.012687835
-1.1851452e-06
0.0085779441
-7.2923567e-07
0.0052419728
-3.9181298e-07
0.0029434634
-1.8931011e-07
0.0015380043
-8.2333176e-08
0.00075238103
-3.1241871e-08
0.00034313293
-9.3999678e-09
0.00014244932
-1.611526e-09
4.9806585e-05
1.0142401e-05
1.4323098e-09
1.0140969e-05
8.3630174e-09
4.9799654e-05
2.7812604e-08
0.00014242987
7.3352691e-08
0.00034308739
1.6886842e-07
0.00075228551
3.5026705e-07
0.0015378229
6.5458108e-07
0.0029431591
1.0720557e-06
0.0052415553
1.446428e-06
0.0085775698
1.4548691e-06
0.012687826
9.1880178e-07
0.016675436
-7.3084793e-12
0.019195807
-9.1881624e-07
0.019195807
-1.4548828e-06
0.016675436
-1.4464385e-06
0.012687826
-1.0720591e-06
0.0085775697
-6.5457548e-07
0.0052415553
-3.502545e-07
0.0029431591
-1.688545e-07
0.0015378229
-7.3343136e-08
0.00075228551
-2.7809374e-08
0.00034308739
-8.3635933e-09
0.00014242987
-1.4338063e-09
4.9799655e-05
1.0140969e-05
1.2849973e-09
1.0139684e-05
7.505092e-09
4.9793434e-05
2.4968886e-08
0.0001424124
6.5891167e-08
0.00034304647
1.5183798e-07
0.00075219956
3.1548493e-07
0.0015376593
5.9149549e-07
0.0029428831
9.7478454e-07
0.005241172
1.3297004e-06
0.0085772148
1.356781e-06
0.012687799
8.6524493e-07
0.016675928
-7.371159e-12
0.019196672
-8.6525993e-07
0.019196672
-1.3567958e-06
0.016675928
-1.3297117e-06
0.012687799
-9.7478733e-07
0.0085772148
-5.9148707e-07
0.005241172
-3.1546776e-07
0.0029428831
-1.5181939e-07
0.0015376593
-6.5878626e-08
0.00075219956
-2.4964785e-08
0.00034304647
-7.5059713e-09
0.0001424124
-1.2870251e-09
4.9793435e-05
1.0139684e-05
1.1614822e-09
1.0138522e-05
6.7852242e-09
4.978781e-05
2.2580533e-08
0.00014239661
5.9615534e-08
0.00034300943
1.3748122e-07
0.0007521217
2.8604661e-07
0.0015375107
5.3771054e-07
0.0029426314
8.9070459e-07
0.005240819
1.2263946e-06
0.0085768792
1.2674847e-06
0.012687758
8.1592047e-07
0.01667638
-7.3795148e-12
0.019197488
-8.1593592e-07
0.019197488
-1.2675006e-06
0.01667638
-1.2264067e-06
0.012687758
-8.9070672e-07
0.0085768791
-5.3769888e-07
0.005240819
-2.8602412e-07
0.0029426314
-1.3745725e-07
0.0015375107
-5.9599554e-08
0.0007521217
-2.2575422e-08
0.00034300943
-6.7864442e-09
0.00014239661
-1.1641153e-09
4.9787811e-05
1.0138522e-05
1.0561428e-09
1.0137466e-05
6.1710036e-09
4.9782696e-05
2.0541429e-08
0.00014238224
5.4252279e-08
0.00034297572
1.2519097e-07
0.00075205076
2.6076811e-07
0.0015373751
4.9125163e-07
0.0029424009
8.1722441e-07
0.005240493
1.1341815e-06
0.0085765622
1.1857868e-06
0.012687707
7.702094e-07
0.016676795
-7.4139215e-12
0.019198258
-7.7022538e-07
0.019198258
-1.1858039e-06
0.016676795
-1.1341947e-06
0.012687706
-8.1722589e-07
0.0085765622
-4.9123632e-07
0.005240493
-2.6073955e-07
0.0029424009
-1.2516087e-07
0.0015373751
-5.4232386e-08
0.00075205076
-2.0535169e-08
0.00034297572
-6.1726071e-09
0.00014238224
-1.0594603e-09
4.9782696e-05
1.0137466e-05
9.6514397e-10
1.0136501e-05
5.6401908e-09
4.9778021e-05
1.8778345e-08
0.0001423691
4.9611381e-08
0.00034294489
1.1454181e-07
0.00075198583
2.388111e-07
0.0015372508
4.5070401e-07
0.002942189
7.5248248e-07
0.0052401913
1.0514986e-06
0.0085762632
1.1108288e-06
0.012687647
7.2768407e-07
0.016677178
-7.5100164e-12
0.019198986
-7.277007e-07
0.019198986
-1.1108474e-06
0.016677178
-1.0515132e-06
0.012687647
-7.5248329e-07
0.0085762631
-4.5068461e-07
0.0052401912
-2.3877569e-07
0.002942189
-1.1450479e-07
0.0015372508
-4.9587083e-08
0.00075198583
-1.8770796e-08
0.00034294489
-5.6422282e-09
0.0001423691
-9.6923181e-10
4.9778021e-05
1.0136501e-05
8.8580552e-10
1.0135615e-05
5.1772212e-09
4.9773729e-05
1.7239897e-08
0.00014235704
4.5558972e-08
0.00034291657
1.0523228e-07
0.00075192615
2.1957647e-07
0.0015371365
4.1504224e-07
0.0029419935
6.9508906e-07
0.0052399112
9.7709359e-07
0.0085759812
1.0418656e-06
0.012687582
6.8800125e-07
0.016677532
-7.6293096e-12
0.019199674
-6.880186e-07
0.019199674
-1.0418858e-06
0.016677532
-9.7710976e-07
0.012687582
-6.9508916e-07
0.0085759811
-4.1501824e-07
0.0052399112
-2.1953341e-07
0.0029419935
-1.0518754e-07
0.0015371365
-4.5529767e-08
0.00075192615
-1.7230923e-08
0.00034291657
-5.1797513e-09
0.00014235704
-8.9075584e-10
4.977373e-05
1.0135615e-05
8.1603049e-10
1.0134799e-05
4.7699308e-09
4.9769775e-05
1.5885961e-08
0.00014234592
4.1990529e-08
0.00034289047
9.7026694e-08
0.00075187112
2.0259336e-07
0.0015370309
3.834487e-07
0.0029418127
6.4389565e-07
0.0052396508
9.0984273e-07
0.0085757152
9.7823512e-07
0.012687514
6.5086331e-07
0.01667786
-7.7168349e-12
0.019200325
-6.5088141e-07
0.019200325
-9.782572e-07
0.01667786
-9.0986067e-07
0.012687514
-6.4389496e-07
0.0085757152
-3.8341961e-07
0.0052396507
-2.0254179e-07
0.0029418127
-9.6973409e-08
0.0015370309
-4.1955921e-08
0.00075187112
-1.5875435e-08
0.00034289047
-4.7730187e-09
0.00014234592
-8.2193847e-10
4.9769776e-05
1.0134799e-05
7.541677e-10
1.0134045e-05
4.4087312e-09
4.9766121e-05
1.4684872e-08
0.00014233564
3.8823439e-08
0.00034286633
8.9738237e-08
0.0007518202
1.874865e-07
0.0015369332
3.5526498e-07
0.0029416449
5.9795837e-07
0.0052394081
8.4878895e-07
0.0085754644
9.1936698e-07
0.012687443
6.1600849e-07
0.016678163
-7.6965235e-12
0.019200941
-6.1602724e-07
0.019200941
-9.1939097e-07
0.016678163
-8.4880876e-07
0.012687443
-5.9795679e-07
0.0085754643
-3.5523029e-07
0.005239408
-1.8742562e-07
0.0029416449
-8.9675618e-08
0.0015369332
-3.8782954e-08
0.0007518202
-1.4672679e-08
0.00034286633
-4.4124451e-09
0.00014233564
-7.6112749e-10
4.9766121e-05
1.0134045e-05
6.9892818e-10
1.0133346e-05
4.0861272e-09
4.9762733e-05
1.3611839e-08
0.00014232612
3.5992873e-08
0.00034284395
8.3219799e-08
0.00075177297
1.7395877e-07
0.0015368424
3.2996456e-07
0.0029414889
5.5650743e-07
0.0052391815
7.9312189e-07
0.0085752278
8.6476972e-07
0.012687372
5.8323083e-07
0.016678444
-7.5014558e-12
0.019201524
-5.8325001e-07
0.019201524
-8.647956e-07
0.016678444
-7.9314361e-07
0.012687372
-5.5650481e-07
0.0085752277
-3.2992377e-07
0.0052391815
-1.738878e-07
0.0029414889
-8.3147108e-08
0.0015368424
-3.5946078e-08
0.00075177298
-1.359788e-08
0.00034284395
-4.0905345e-09
0.00014232612
-7.0702814e-10
4.9762734e-05
1.0133346e-05
6.49296e-10
1.0132696e-05
3.7962057e-09
4.9759586e-05
1.2647283e-08
0.00014231727
3.344756e-08
0.00034282314
7.7354789e-08
0.00075172907
1.617738e-07
0.001536758
3.0712585e-07
0.0029413435
5.1891963e-07
0.0052389697
7.4217471e-07
0.0085750045
8.1401682e-07
0.0126873
5.5234326e-07
0.016678706
-7.1086221e-12
0.019202077
-5.5236259e-07
0.019202077
-8.1404452e-07
0.016678706
-7.4219835e-07
0.0126873
-5.1891582e-07
0.0085750045
-3.0707852e-07
0.0052389697
-1.6169207e-07
0.0029413435
-7.7271387e-08
0.001536758
-3.3394091e-08
0.00075172907
-1.2631483e-08
0.00034282315
-3.8013694e-09
0.00014231727
-6.5861371e-10
4.9759587e-05
1.0132697e-05
6.0445751e-10
1.0132092e-05
3.5342285e-09
4.9756657e-05
1.1775506e-08
0.00014230902
3.1146343e-08
0.00034280377
7.2049427e-08
0.00075168816
1.5074085e-07
0.0015366793
2.8640644e-07
0.0029412079
4.846818e-07
0.0052387715
6.9538341e-07
0.0085747938
7.6674831e-07
0.012687229
5.2320702e-07
0.01667895
-6.5191299e-12
0.0192026
-5.2322621e-07
0.0192026
-7.6677772e-07
0.01667895
-6.9540894e-07
0.012687229
-4.846767e-07
0.0085747938
-2.8635221e-07
0.0052387714
-1.5064781e-07
0.0029412079
-7.1954818e-08
0.0015366793
-3.1085928e-08
0.00075168816
-1.1757818e-08
0.00034280377
-3.5402038e-09
0.00014230903
-6.1505479e-10
4.9756657e-05
1.0132092e-05
5.6375451e-10
1.0131528e-05
3.2963605e-09
4.9753924e-05
1.0983794e-08
0.00014230134
2.905587e-08
0.0003427857
6.7227641e-08
0.00075164999
1.4070486e-07
0.0015366059
2.675269e-07
0.0029410811
4.5337247e-07
0.0052385856
6.5227907e-07
0.0085745949
7.226423e-07
0.012687158
4.9567853e-07
0.016679177
-5.7568097e-12
0.019203096
-4.9569727e-07
0.019203096
-7.2267326e-07
0.016679177
-6.5230646e-07
0.012687158
-4.53366e-07
0.0085745949
-2.6746553e-07
0.0052385856
-1.4060015e-07
0.002941081
-6.7121507e-08
0.0015366059
-2.8988354e-08
0.00075164999
-1.0964206e-08
0.0003427857
-3.3031912e-09
0.00014230134
-5.7567253e-10
4.9753925e-05
1.0131529e-05
5.2664809e-10
1.0131002e-05
3.0794608e-09
4.9751371e-05
1.0261732e-08
0.00014229415
2.7148791e-08
0.00034276881
6.2826953e-08
0.00075161431
1.3153815e-07
0.0015365371
2.5025587e-07
0.0029409623
4.2463805e-07
0.0052384112
6.1245751e-07
0.0085744071
6.8143091e-07
0.012687089
4.6966379e-07
0.016679388
-4.8323792e-12
0.019203565
-4.6968184e-07
0.019203565
-6.8146328e-07
0.016679388
-6.124867e-07
0.012687089
-4.2463017e-07
0.008574407
-2.5018726e-07
0.0052384112
-1.3142162e-07
0.0029409623
-6.27092e-08
0.0015365371
-2.707416e-08
0.00075161431
-1.0240273e-08
0.00034276881
-3.0871762e-09
0.00014229416
-5.3990298e-10
4.9751372e-05
1.0131002e-05
4.9269406e-10
1.0130509e-05
2.8809391e-09
4.9748983e-05
9.6007251e-09
0.00014228743
2.5402537e-08
0.00034275301
5.8795793e-08
0.00075158092
1.2313522e-07
0.0015364728
2.3440192e-07
0.0029408511
3.9818558e-07
0.0052382474
5.7558222e-07
0.0085742297
6.4286195e-07
0.012687022
4.4504139e-07
0.016679586
-3.7974574e-12
0.01920401
-4.4505855e-07
0.01920401
-6.4289558e-07
0.016679586
-5.7561316e-07
0.012687022
-3.9817631e-07
0.0085742296
-2.3432614e-07
0.0052382474
-1.2300699e-07
0.0029408511
-5.866658e-08
0.0015364728
-2.5320939e-08
0.00075158092
-9.5774694e-09
0.00034275301
-2.8895506e-09
0.00014228744
-5.072727e-10
4.9748984e-05
1.013051e-05
4.6152119e-10
1.0130048e-05
2.6986309e-09
4.9746746e-05
8.9935911e-09
0.00014228114
2.3798228e-08
0.0003427382
5.5090943e-08
0.00075154962
1.1540745e-07
0.0015364125
2.1980328e-07
0.0029407467
3.7376368e-07
0.0052380935
5.4135566e-07
0.0085740621
6.0673513e-07
0.012686957
4.2175175e-07
0.016679771
-2.706569e-12
0.019204432
-4.2176787e-07
0.019204432
-6.0676989e-07
0.016679771
-5.4138827e-07
0.012686957
-3.7375309e-07
0.008574062
-2.1972057e-07
0.0052380934
-1.1526792e-07
0.0029407467
-5.4950714e-08
0.0015364125
-2.3709984e-08
0.00075154962
-8.9686606e-09
0.00034273821
-2.7081292e-09
0.00014228114
-4.7737771e-10
4.9746747e-05
1.0130048e-05
4.3281736e-10
1.0129615e-05
2.5307149e-09
4.9744648e-05
8.4342855e-09
0.00014227524
2.2319983e-08
0.00034272432
5.1676089e-08
0.00075152026
1.082804e-07
0.0015363559
2.0632417e-07
0.0029406486
3.511623e-07
0.0052379486
5.0952968e-07
0.0085739037
5.7284266e-07
0.012686893
3.9968024e-07
0.016679944
-1.6003632e-12
0.019204832
-3.9969522e-07
0.019204832
-5.7287838e-07
0.016679944
-5.0956385e-07
0.012686893
-3.5115049e-07
0.0085739037
-2.0623497e-07
0.0052379486
-1.0813029e-07
0.0029406486
-5.1525592e-08
0.0015363559
-2.2225605e-08
0.00075152027
-8.4078528e-09
0.00034272432
-2.5410672e-09
0.00014227524
-4.4987019e-10
4.9744649e-05
1.0129615e-05
4.0631751e-10
1.0129209e-05
2.3756463e-09
4.9742678e-05
7.9176795e-09
0.00014226969
2.0954304e-08
0.00034271128
4.8520271e-08
0.00075149269
1.0169037e-07
0.0015363027
1.9384758e-07
0.0029405565
3.3019684e-07
0.0052378123
4.7987922e-07
0.0085737541
5.4103786e-07
0.012686832
3.7879901e-07
0.016680107
-5.226509e-13
0.01920521
-3.788128e-07
0.01920521
-5.4107436e-07
0.016680107
-4.7991479e-07
0.012686832
-3.3018396e-07
0.008573754
-1.9375253e-07
0.0052378122
-1.015307e-07
0.0029405565
-4.8360572e-08
0.0015363027
-2.0854499e-08
0.0007514927
-7.8899683e-09
0.00034271128
-2.3867946e-09
0.00014226969
-4.244475e-10
4.974268e-05
1.0129209e-05
3.8179406e-10
1.0128827e-05
2.2320961e-09
4.9740828e-05
7.4393627e-09
0.00014226449
1.9689611e-08
0.00034269903
4.5597018e-08
0.00075146678
9.5583044e-08
0.0015362527
1.8227408e-07
0.0029404698
3.1071212e-07
0.0052376838
4.5221583e-07
0.0085736126
5.1113749e-07
0.012686773
3.5898677e-07
0.016680259
4.9808258e-13
0.019205569
-3.5899936e-07
0.019205569
-5.1117454e-07
0.016680259
-4.522526e-07
0.012686773
-3.1069837e-07
0.0085736125
-1.8217402e-07
0.0052376838
-9.5415182e-08
0.0029404698
-4.5429511e-08
0.0015362527
-1.9585288e-08
0.00075146679
-7.4106487e-09
0.00034269903
-2.2439568e-09
0.00014226449
-4.0084396e-10
4.9740829e-05
1.0128828e-05
3.5905272e-10
1.0128469e-05
2.0989355e-09
4.9739088e-05
6.9955864e-09
0.00014225959
1.8516013e-08
0.00034268751
4.2883558e-08
0.00075144241
8.9911357e-08
0.0015362057
1.7151669e-07
0.0029403882
2.9256918e-07
0.0052375628
4.2636669e-07
0.0085734788
4.8304375e-07
0.012686717
3.4025142e-07
0.016680401
1.4616614e-12
0.01920591
-3.4026278e-07
0.01920591
-4.8308107e-07
0.016680401
-4.2640438e-07
0.012686716
-2.9255478e-07
0.0085734787
-1.7141265e-07
0.0052375627
-8.9736999e-08
0.0029403882
-4.2709959e-08
0.0015362057
-1.8408274e-08
0.00075144242
-6.9661943e-09
0.00034268751
-2.1113985e-09
0.00014225959
-3.7882745e-10
4.9739089e-05
1.0128469e-05
3.3792099e-10
1.0128131e-05
1.9751554e-09
4.9737451e-05
6.5830038e-09
0.00014225498
1.7424749e-08
0.00034267666
4.0359936e-08
0.00075141948
8.4634439e-08
0.0015361614
1.6150033e-07
0.0029403113
2.7564965e-07
0.0052374486
4.0218267e-07
0.0085733522
4.5657936e-07
0.012686662
3.2245031e-07
0.016680536
2.3648884e-12
0.019206232
-3.2246043e-07
0.019206232
-4.5661662e-07
0.016680536
-4.0222096e-07
0.012686662
-2.7563485e-07
0.0085733522
-1.6139354e-07
0.0052374486
-8.445559e-08
0.0029403113
-4.018226e-08
0.0015361614
-1.731487e-08
0.00075141948
-6.5532952e-09
0.00034267667
-1.9880797e-09
0.00014225498
-3.5818728e-10
4.9737452e-05
1.0128131e-05
3.1825532e-10
1.0127813e-05
1.8599294e-09
4.973591e-05
6.1988701e-09
0.00014225064
1.6408528e-08
0.00034266645
3.8009205e-08
0.00075139787
7.9716952e-08
0.0015361197
1.5215934e-07
0.0029402389
2.5984804e-07
0.005237341
3.7953313e-07
0.0085732326
4.3169961e-07
0.01268661
3.0563803e-07
0.016680662
3.2076279e-12
0.019206538
-3.0564683e-07
0.019206538
-4.317364e-07
0.016680662
-3.7957161e-07
0.01268661
-2.5983311e-07
0.0085732325
-1.5205122e-07
0.0052373409
-7.9535912e-08
0.0029402389
-3.7829753e-08
0.0015361197
-1.6297959e-08
0.00075139788
-6.1692504e-09
0.00034266645
-1.8731528e-09
0.00014225064
-3.3874833e-10
4.973591e-05
1.0127813e-05
2.9991765e-10
1.0127514e-05
1.7524446e-09
4.9734457e-05
5.8404926e-09
0.00014224655
1.5460368e-08
0.00034265683
3.5815656e-08
0.00075137751
7.5126984e-08
0.0015360804
1.4343486e-07
0.0029401705
2.4506952e-07
0.0052372393
3.5829039e-07
0.0085731193
4.0821084e-07
0.01268656
2.8963119e-07
0.01668078
3.9743138e-12
0.019206827
-2.8963859e-07
0.019206827
-4.082467e-07
0.01668078
-3.583286e-07
0.01268656
-2.4505474e-07
0.0085731193
-1.4332696e-07
0.0052372393
-7.4946299e-08
0.0029401705
-3.5636964e-08
0.0015360804
-1.5350693e-08
0.00075137752
-5.811398e-09
0.00034265683
-1.7657832e-09
0.00014224655
-3.2034456e-10
4.9734458e-05
1.0127514e-05
2.82807e-10
1.0127231e-05
1.6521355e-09
4.9733088e-05
5.5059913e-09
0.0001422427
1.4575158e-08
0.00034264776
3.376704e-08
0.00075135832
7.0838396e-08
0.0015360433
1.3527815e-07
0.0029401061
2.3123718e-07
0.0052371434
3.3836638e-07
0.0085730122
3.8613762e-07
0.012686512
2.7455116e-07
0.016680892
4.66057e-12
0.019207102
-2.7455709e-07
0.019207102
-3.8617203e-07
0.016680892
-3.384038e-07
0.012686512
-2.3122286e-07
0.0085730122
-1.3517214e-07
0.0052371433
-7.066082e-08
0.0029401061
-3.3591845e-08
0.0015360433
-1.4468079e-08
0.00075135832
-5.4778863e-09
0.00034264776
-1.6653907e-09
0.0001422427
-3.0285366e-10
4.9733088e-05
1.0127232e-05
2.6680095e-10
1.0126965e-05
1.5582647e-09
4.9731797e-05
5.1929301e-09
0.00014223906
1.3746732e-08
0.0003426392
3.184996e-08
0.00075134021
6.6824665e-08
0.0015360083
1.2763986e-07
0.0029400453
2.1826711e-07
0.0052370527
3.1963316e-07
0.0085729109
3.652375e-07
0.012686467
2.6014549e-07
0.016680997
5.2702287e-12
0.019207362
-2.6014993e-07
0.019207362
-3.6527e-07
0.016680997
-3.1966928e-07
0.012686467
-2.1825358e-07
0.0085729108
-1.2753752e-07
0.0052370527
-6.6653094e-08
0.0029400453
-3.1681125e-08
0.0015360083
-1.3644014e-08
0.00075134021
-5.1662817e-09
0.0003426392
-1.5712165e-09
0.00014223906
-2.8613389e-10
4.9731797e-05
1.0126965e-05
2.5184812e-10
1.0126714e-05
1.4705832e-09
4.9730578e-05
4.9004683e-09
0.00014223563
1.2972481e-08
0.00034263113
3.0057161e-08
0.00075132312
6.3068787e-08
0.0015359753
1.2048829e-07
0.0029399879
2.0611499e-07
0.0052369671
3.0206107e-07
0.0085728149
3.4563929e-07
0.012686423
2.4663616e-07
0.016681096
5.807091e-12
0.019207609
-2.4663907e-07
0.019207609
-3.4566934e-07
0.016681096
-3.0209533e-07
0.012686423
-2.0610258e-07
0.0085728149
-1.2039145e-07
0.0052369671
-6.2906219e-08
0.0029399879
-2.9897632e-08
0.0015359753
-1.2875925e-08
0.00075132312
-4.8757468e-09
0.00034263113
-1.483002e-09
0.00014223563
-2.7012499e-10
4.9730578e-05
1.0126714e-05
2.3781328e-10
1.0126477e-05
1.3882386e-09
4.9729428e-05
4.6258068e-09
0.00014223239
1.2245647e-08
0.0003426235
2.837503e-08
0.00075130699
5.9545512e-08
0.0015359441
1.1377588e-07
0.0029399336
1.9469047e-07
0.0052368862
2.8548719e-07
0.0085727241
3.2700032e-07
0.012686382
2.3365936e-07
0.016681189
6.2174233e-12
0.019207842
-2.3366069e-07
0.019207842
-3.2702745e-07
0.016681189
-2.8551909e-07
0.012686382
-1.9467953e-07
0.0085727241
-1.1368639e-07
0.0052368862
-5.9394958e-08
0.0029399336
-2.8227758e-08
0.0015359441
-1.2157055e-08
0.00075130699
-4.6034812e-09
0.0003426235
-1.3998977e-09
0.00014223239
-2.5469497e-10
4.9729427e-05
1.0126477e-05
2.2473581e-10
1.0126253e-05
1.3115748e-09
4.9728341e-05
4.3700352e-09
0.00014222933
1.1568076e-08
0.0003426163
2.6804574e-08
0.00075129175
5.625173e-08
0.0015359147
1.0749652e-07
0.0029398824
1.8400266e-07
0.0052368097
2.6998549e-07
0.0085726382
3.0962169e-07
0.012686342
2.2159342e-07
0.016681277
6.4575014e-12
0.019208064
-2.2159319e-07
0.019208064
-3.096454e-07
0.016681277
-2.7001451e-07
0.012686342
-1.8399352e-07
0.0085726381
-1.0741618e-07
0.0052368097
-5.611612e-08
0.0029398824
-2.6672405e-08
0.0015359147
-1.1489152e-08
0.00075129175
-4.3505215e-09
0.0003426163
-1.3222315e-09
0.00014222933
-2.3988538e-10
4.972834e-05
1.0126253e-05
2.1239494e-10
1.0126041e-05
1.2391414e-09
4.9727314e-05
4.1284361e-09
0.00014222644
1.0928984e-08
0.0003426095
2.5326126e-08
0.00075127734
5.3154845e-08
0.0015358868
1.0158945e-07
0.0029398339
1.7392157e-07
0.0052367374
2.5529381e-07
0.0085725568
2.9297724e-07
0.012686304
2.0990037e-07
0.01668136
6.5219537e-12
0.019208274
-2.0989871e-07
0.019208274
-2.9299718e-07
0.01668136
-2.5531954e-07
0.012686304
-1.7391459e-07
0.0085725567
-1.0151997e-07
0.0052367374
-5.3036904e-08
0.0029398339
-2.5211674e-08
0.0015358868
-1.0861264e-08
0.00075127734
-4.1120805e-09
0.0003426095
-1.2485508e-09
0.00014222644
-2.2549411e-10
4.9727314e-05
1.0126041e-05
2.0107073e-10
1.0125841e-05
1.1728399e-09
4.9726343e-05
3.9071172e-09
0.00014222371
1.0341587e-08
0.00034260306
2.3961077e-08
0.00075126372
5.0284107e-08
0.0015358605
9.6104937e-08
0.0029397881
1.6457045e-07
0.0052366689
2.4169646e-07
0.0085724797
2.7766967e-07
0.012686268
1.9920951e-07
0.016681439
6.3610387e-12
0.019208473
-1.9920663e-07
0.019208473
-2.7768558e-07
0.016681439
-2.4171854e-07
0.012686268
-1.6456592e-07
0.0085724796
-9.6047835e-08
0.0052366689
-5.0186289e-08
0.0029397881
-2.3866668e-08
0.0015358605
-1.0286406e-08
0.00075126372
-3.8942028e-09
0.00034260306
-1.1807769e-09
0.0001422237
-2.1183998e-10
4.9726342e-05
1.0125841e-05
1.9015961e-10
1.0125651e-05
1.1087468e-09
4.9725424e-05
3.6934921e-09
0.00014222112
9.7778151e-09
0.00034259697
2.2660752e-08
0.00075125083
4.7566195e-08
0.0015358356
9.091964e-08
0.0029397448
1.5569627e-07
0.0052366041
2.2870581e-07
0.0085724067
2.6286622e-07
0.012686234
1.8872719e-07
0.016681513
5.8638904e-12
0.019208662
-1.8872334e-07
0.019208662
-2.6287791e-07
0.016681513
-2.2872407e-07
0.012686234
-1.5569458e-07
0.0085724066
-9.087625e-08
0.0052366041
-4.7490479e-08
0.0029397448
-2.2588161e-08
0.0015358356
-9.7361146e-09
0.00075125083
-3.6841561e-09
0.00034259697
-1.1149981e-09
0.00014222112
-1.9837472e-10
4.9725423e-05
1.0125651e-05
1.807959e-10
1.0125471e-05
1.0541131e-09
4.9724551e-05
3.5106216e-09
0.00014221866
9.2888084e-09
0.00034259119
2.1513083e-08
0.0007512386
4.5130454e-08
0.001535812
8.6239626e-08
0.0029397037
1.4769709e-07
0.0052365427
2.1705414e-07
0.0085723373
2.4971835e-07
0.012686202
1.7950396e-07
0.016681583
5.0105426e-12
0.019208841
-1.794997e-07
0.019208841
-2.4972612e-07
0.016681583
-2.1706852e-07
0.012686202
-1.4769839e-07
0.0085723373
-8.6210752e-08
0.0052365427
-4.5078056e-08
0.0029397037
-2.1463238e-08
0.001535812
-9.260862e-09
0.0007512386
-3.5046748e-09
0.00034259119
-1.0584008e-09
0.00014221866
-1.8627736e-10
4.972455e-05
1.0125471e-05
1.6968576e-10
1.0125303e-05
9.8919254e-10
4.9723732e-05
3.2972553e-09
0.00014221635
8.7394128e-09
0.00034258575
2.0286265e-08
0.00075122705
4.2650644e-08
0.0015357896
8.1628491e-08
0.0029396647
1.399157e-07
0.0052364844
2.0571908e-07
0.0085722715
2.3677046e-07
0.012686171
1.7032384e-07
0.01668165
3.7755429e-12
0.019209011
-1.7031976e-07
0.019209011
-2.3677461e-07
0.01668165
-2.0572988e-07
0.012686171
-1.3992047e-07
0.0085722715
-8.1614619e-08
0.0052364844
-4.2621729e-08
0.0029396647
-2.0258818e-08
0.0015357896
-8.7246084e-09
0.00075122705
-3.2942486e-09
0.00034258574
-9.9134409e-10
0.00014221635
-1.7242428e-10
4.9723731e-05
1.0125302e-05
1.6486134e-10
1.0125139e-05
9.6126419e-10
4.9722936e-05