/*--------------------------------*- C++ -*----------------------------------*\
| =========                 |                                                 |
| \\      /  F ield         | OpenFOAM: The Open Source CFD Toolbox           |
|  \\    /   O peration     | Version:  2406                                  |
|   \\  /    A nd           | Website:  www.openfoam.com                      |
|    \\/     M anipulation  |                                                 |
\*---------------------------------------------------------------------------*/
FoamFile
{
    version     2.0;
    format      ascii;
    arch        "LSB;label=32;scalar=64";
    class       volVectorField;
    location    "14";
    object      U;
}
// * * * * * * * * * * * * * * * * * * * * * * * * * * * * * * * * * * * * * //

dimensions      [0 1 -1 0 0 0 0];

internalField   nonuniform List<vector> 
1176
(
(0.019493789 7.0786465e-07 0)
(0.066677318 8.1696512e-06 0)
(0.13357994 3.9503161e-05 0)
(0.22724701 0.00010873575 0)
(0.35591522 0.00021176024 0)
(0.52772023 0.00030396283 0)
(0.74780387 0.00031818017 0)
(1.0136216 0.00024904588 0)
(1.3093323 0.00016666999 0)
(1.6017081 0.00011264689 0)
(1.8421723 7.0214287e-05 0)
(1.9793239 2.3941158e-05 0)
(1.9793239 -2.3939941e-05 0)
(1.8421723 -7.0212403e-05 0)
(1.6017081 -0.00011264303 0)
(1.3093323 -0.0001666625 0)
(1.0136215 -0.00024903309 0)
(0.74780385 -0.00031816086 0)
(0.52772021 -0.00030393846 0)
(0.35591521 -0.00021173641 0)
(0.227247 -0.00010871568 0)
(0.13357994 -3.9496443e-05 0)
(0.06667732 -8.1567497e-06 0)
(0.01949379 -7.094323e-07 0)
(0.020187017 -3.7419175e-06 0)
(0.068813532 -2.4638643e-05 0)
(0.13732107 -9.6548557e-05 0)
(0.23247391 -0.00024839462 0)
(0.36204617 -0.00047268785 0)
(0.53373556 -0.0006742119 0)
(0.75267407 -0.00069486953 0)
(1.0170176 -0.00049687378 0)
(1.3116385 -0.00023345921 0)
(1.6034438 -4.9824292e-05 0)
(1.8436588 1.9765061e-05 0)
(1.9807026 1.3428268e-05 0)
(1.9807026 -1.3427269e-05 0)
(1.8436588 -1.9765135e-05 0)
(1.6034438 4.9821246e-05 0)
(1.3116385 0.00023345036 0)
(1.0170176 0.0004968569 0)
(0.75267407 0.00069484577 0)
(0.53373556 0.00067418669 0)
(0.36204617 0.00047266825 0)
(0.23247391 0.00024838283 0)
(0.13732108 9.6544564e-05 0)
(0.068813537 2.4635553e-05 0)
(0.020187019 3.7422204e-06 0)
(0.020018442 2.091837e-06 0)
(0.068327405 1.2720772e-05 0)
(0.13655405 4.6877253e-05 0)
(0.23159544 0.00011389737 0)
(0.36138709 0.00019769264 0)
(0.53366969 0.00023903228 0)
(0.75344344 0.000205598 0)
(1.0184881 0.00011361089 0)
(1.3134639 7.431331e-05 0)
(1.6053464 7.9532726e-05 0)
(1.8455118 7.051672e-05 0)
(1.9825245 2.7826544e-05 0)
(1.9825245 -2.7823559e-05 0)
(1.8455118 -7.0513165e-05 0)
(1.6053464 -7.9528561e-05 0)
(1.3134639 -7.430856e-05 0)
(1.0184881 -0.00011360598 0)
(0.75344345 -0.00020559306 0)
(0.5336697 -0.00023903006 0)
(0.36138709 -0.00019769211 0)
(0.23159545 -0.00011389788 0)
(0.13655405 -4.687766e-05 0)
(0.068327406 -1.2721577e-05 0)
(0.020018442 -2.0917724e-06 0)
(0.019966547 7.0076479e-07 0)
(0.068159232 4.6870436e-06 0)
(0.13624021 1.9355433e-05 0)
(0.2311194 5.6456144e-05 0)
(0.36078093 0.0001344456 0)
(0.53306293 0.00025829304 0)
(0.75295637 0.00035344715 0)
(1.0181104 0.00036911965 0)
(1.313184 0.00030758826 0)
(1.6051633 0.00022777189 0)
(1.8453995 0.00014555897 0)
(1.9824491 4.9996863e-05 0)
(1.9824491 -4.9997618e-05 0)
(1.8453995 -0.00014556008 0)
(1.6051633 -0.00022777363 0)
(1.313184 -0.00030758937 0)
(1.0181104 -0.00036911997 0)
(0.75295636 -0.00035344717 0)
(0.53306293 -0.00025829149 0)
(0.36078093 -0.00013444396 0)
(0.2311194 -5.6454845e-05 0)
(0.13624021 -1.9354965e-05 0)
(0.068159232 -4.6863923e-06 0)
(0.019966547 -7.0084161e-07 0)
(0.019942203 2.9076784e-07 0)
(0.068078703 1.9872071e-06 0)
(0.13608628 8.236113e-06 0)
(0.23087699 2.3699313e-05 0)
(0.36044744 5.6881589e-05 0)
(0.53266448 0.00012306876 0)
(0.75256878 0.00022681796 0)
(1.017808 0.00032272184 0)
(1.3129044 0.00034572415 0)
(1.604912 0.00030729932 0)
(1.8452029 0.00021095277 0)
(1.9822898 7.4614359e-05 0)
(1.9822898 -7.461452e-05 0)
(1.8452029 -0.00021095295 0)
(1.604912 -0.00030729952 0)
(1.3129044 -0.00034572474 0)
(1.017808 -0.00032272249 0)
(0.75256878 -0.00022681923 0)
(0.53266448 -0.00012307001 0)
(0.36044744 -5.6882589e-05 0)
(0.23087699 -2.3699915e-05 0)
(0.13608628 -8.2362907e-06 0)
(0.068078703 -1.9874086e-06 0)
(0.019942204 -2.9074116e-07 0)
(0.019933132 1.7181364e-07 0)
(0.068047755 1.1940843e-06 0)
(0.13602489 5.0651985e-06 0)
(0.23077535 1.4968862e-05 0)
(0.36029899 3.6219535e-05 0)
(0.5324792 7.6944196e-05 0)
(0.75239427 0.00014713758 0)
(1.0177222 0.00023749001 0)
(1.3129292 0.00028525558 0)
(1.6049746 0.0002744145 0)
(1.8452865 0.00019644591 0)
(1.9823834 7.1176846e-05 0)
(1.9823834 -7.1176991e-05 0)
(1.8452865 -0.00019644604 0)
(1.6049746 -0.00027441442 0)
(1.3129292 -0.00028525546 0)
(1.0177222 -0.00023748988 0)
(0.75239427 -0.00014713746 0)
(0.5324792 -7.6944054e-05 0)
(0.36029899 -3.6219442e-05 0)
(0.23077535 -1.4968843e-05 0)
(0.13602489 -5.0651964e-06 0)
(0.068047755 -1.1941245e-06 0)
(0.019933132 -1.7180766e-07 0)
(0.0199234 1.5587433e-07 0)
(0.068015507 1.0700825e-06 0)
(0.13596286 4.4934618e-06 0)
(0.23067607 1.319546e-05 0)
(0.36015773 3.1857111e-05 0)
(0.53230178 6.6958187e-05 0)
(0.75221429 0.00012411876 0)
(1.0176105 0.00019917028 0)
(1.3129358 0.00025490811 0)
(1.6050904 0.00024595135 0)
(1.8454579 0.0001812787 0)
(1.9825798 6.6548407e-05 0)
(1.9825798 -6.6548489e-05 0)
(1.8454579 -0.00018127869 0)
(1.6050904 -0.00024595104 0)
(1.3129358 -0.00025490773 0)
(1.0176105 -0.00019917007 0)
(0.75221429 -0.00012411861 0)
(0.53230178 -6.6958028e-05 0)
(0.36015773 -3.1856971e-05 0)
(0.23067607 -1.3195358e-05 0)
(0.13596286 -4.493424e-06 0)
(0.068015507 -1.0700369e-06 0)
(0.0199234 -1.5587947e-07 0)
(0.019915697 1.275849e-07 0)
(0.067989792 8.7802402e-07 0)
(0.13591293 3.6959972e-06 0)
(0.23059503 1.0901598e-05 0)
(0.36003987 2.6613321e-05 0)
(0.53214753 5.7237049e-05 0)
(0.75204133 0.00010911034 0)
(1.0174723 0.00017936602 0)
(1.3128926 0.00023802442 0)
(1.6051414 0.00023746717 0)
(1.8455877 0.00017750648 0)
(1.9827514 6.5539241e-05 0)
(1.9827514 -6.5539428e-05 0)
(1.8455877 -0.0001775065 0)
(1.6051414 -0.00023746685 0)
(1.3128926 -0.00023802408 0)
(1.0174723 -0.00017936588 0)
(0.75204133 -0.0001091103 0)
(0.53214753 -5.7237033e-05 0)
(0.36003987 -2.6613298e-05 0)
(0.23059503 -1.0901575e-05 0)
(0.13591293 -3.6959731e-06 0)
(0.067989792 -8.780235e-07 0)
(0.019915697 -1.2758218e-07 0)
(0.019909217 1.0465676e-07 0)
(0.067968141 7.2314516e-07 0)
(0.13587084 3.0521012e-06 0)
(0.23052654 9.0118257e-06 0)
(0.35993984 2.1999849e-05 0)
(0.53201542 4.7473354e-05 0)
(0.75188901 9.2013889e-05 0)
(1.0173341 0.00015618159 0)
(1.3128278 0.00021699635 0)
(1.6051595 0.00022709584 0)
(1.8456699 0.00017232593 0)
(1.982868 6.4147433e-05 0)
(1.982868 -6.414783e-05 0)
(1.8456699 -0.00017232614 0)
(1.6051595 -0.00022709576 0)
(1.3128278 -0.00021699625 0)
(1.0173341 -0.00015618156 0)
(0.75188901 -9.2013823e-05 0)
(0.53201542 -4.747325e-05 0)
(0.35993984 -2.1999742e-05 0)
(0.23052654 -9.0117587e-06 0)
(0.13587084 -3.0520384e-06 0)
(0.067968141 -7.2317066e-07 0)
(0.019909217 -1.0464558e-07 0)
(0.019903971 8.6125602e-08 0)
(0.067950552 5.969708e-07 0)
(0.13583649 2.5273757e-06 0)
(0.2304703 7.4916099e-06 0)
(0.35985692 1.8376271e-05 0)
(0.53190436 3.9835608e-05 0)
(0.75175836 7.7711984e-05 0)
(1.0172122 0.00013432404 0)
(1.3127613 0.00019323325 0)
(1.6051772 0.00021058296 0)
(1.8457533 0.00016272922 0)
(1.9829863 6.1083833e-05 0)
(1.9829863 -6.1084546e-05 0)
(1.8457533 -0.00016272974 0)
(1.6051772 -0.00021058324 0)
(1.3127613 -0.00019323348 0)
(1.0172122 -0.00013432413 0)
(0.75175836 -7.7711889e-05 0)
(0.53190436 -3.9835408e-05 0)
(0.35985692 -1.8376064e-05 0)
(0.2304703 -7.4914909e-06 0)
(0.13583649 -2.5272564e-06 0)
(0.067950553 -5.9704112e-07 0)
(0.019903971 -8.6100726e-08 0)
(0.019899543 7.3355944e-08 0)
(0.067935688 5.0896742e-07 0)
(0.13580742 2.1568856e-06 0)
(0.23042259 6.4027579e-06 0)
(0.35978626 1.5747562e-05 0)
(0.5318089 3.4277743e-05 0)
(0.75164409 6.7204431e-05 0)
(1.0171021 0.00011722963 0)
(1.3126976 0.00017262416 0)
(1.6051928 0.00019308844 0)
(1.8458371 0.00015219803 0)
(1.9831061 5.7544221e-05 0)
(1.9831061 -5.7545235e-05 0)
(1.8458371 -0.00015219886 0)
(1.6051928 -0.00019308906 0)
(1.3126976 -0.00017262461 0)
(1.017102 -0.00011722976 0)
(0.75164409 -6.720425e-05 0)
(0.5318089 -3.4277399e-05 0)
(0.35978626 -1.5747225e-05 0)
(0.23042259 -6.4025836e-06 0)
(0.13580742 -2.1566947e-06 0)
(0.067935688 -5.0911575e-07 0)
(0.019899543 -7.3310259e-08 0)
(0.019895721 6.372684e-08 0)
(0.06792285 4.4252341e-07 0)
(0.13578228 1.8767354e-06 0)
(0.23038125 5.5765211e-06 0)
(0.35972483 1.3738655e-05 0)
(0.53172535 2.999793e-05 0)
(0.75154264 5.9111393e-05 0)
(1.0170011 0.00010388788 0)
(1.3126344 0.00015540231 0)
(1.6052015 0.00017849461 0)
(1.8459125 0.00014271483 0)
(1.9832185 5.4329932e-05 0)
(1.9832185 -5.4331164e-05 0)
(1.8459125 -0.0001427159 0)
(1.6052015 -0.00017849551 0)
(1.3126344 -0.00015540291 0)
(1.0170011 -0.00010388799 0)
(0.75154264 -5.911105e-05 0)
(0.53172535 -2.9997366e-05 0)
(0.35972483 -1.3738132e-05 0)
(0.23038125 -5.5762708e-06 0)
(0.13578228 -1.8764523e-06 0)
(0.06792285 -4.4277534e-07 0)
(0.019895721 -6.3654156e-08 0)
(0.019892371 5.6090275e-08 0)
(0.067911586 3.8977723e-07 0)
(0.13576021 1.6541234e-06 0)
(0.2303449 4.9187604e-06 0)
(0.35967069 1.2131991e-05 0)
(0.53165136 2.6542375e-05 0)
(0.7514519 5.2498627e-05 0)
(1.0169086 9.2875409e-05 0)
(1.3125728 0.00014061442 0)
(1.605205 0.00016529552 0)
(1.8459798 0.00013398855 0)
(1.9833221 5.138672e-05 0)
(1.9833221 -5.1388078e-05 0)
(1.8459798 -0.00013398978 0)
(1.605205 -0.00016529661 0)
(1.3125728 -0.0001406151 0)
(1.0169086 -9.2875436e-05 0)
(0.7514519 -5.2498057e-05 0)
(0.53165136 -2.6541525e-05 0)
(0.35967069 -1.2131233e-05 0)
(0.2303449 -4.9184152e-06 0)
(0.13576021 -1.6537283e-06 0)
(0.067911586 -3.9015696e-07 0)
(0.019892371 -5.5984593e-08 0)
(0.019889403 4.9849664e-08 0)
(0.067901607 3.4661469e-07 0)
(0.13574064 1.4717645e-06 0)
(0.23031264 4.3793884e-06 0)
(0.35962253 1.08123e-05 0)
(0.53158531 2.3691365e-05 0)
(0.75137029 4.6984025e-05 0)
(1.016824 8.3546068e-05 0)
(1.3125139 0.00012773706 0)
(1.6052051 0.00015293288 0)
(1.8460415 0.00012581968 0)
(1.9834196 4.8615773e-05 0)
(1.9834196 -4.8617183e-05 0)
(1.8460415 -0.00012582102 0)
(1.6052051 -0.00015293408 0)
(1.3125139 -0.00012773776 0)
(1.016824 -8.3545968e-05 0)
(0.75137029 -4.6983166e-05 0)
(0.53158531 -2.3690163e-05 0)
(0.35962253 -1.0811255e-05 0)
(0.23031264 -4.3789291e-06 0)
(0.13574064 -1.4712374e-06 0)
(0.067901607 -3.4714569e-07 0)
(0.019889403 -4.9705038e-08 0)
(0.019886752 4.469998e-08 0)
(0.067892685 3.1093956e-07 0)
(0.13572313 1.3208202e-06 0)
(0.23028375 3.9322085e-06 0)
(0.35957935 9.7158817e-06 0)
(0.53152592 2.1315576e-05 0)
(0.75129648 4.2360196e-05 0)
(1.0167465 7.5619737e-05 0)
(1.3124581 0.00011654204 0)
(1.6052027 0.00014169823 0)
(1.8460982 0.00011827038 0)
(1.9835117 4.6030868e-05 0)
(1.9835117 -4.6032294e-05 0)
(1.8460982 -0.00011827181 0)
(1.6052027 -0.00014169952 0)
(1.3124581 -0.00011654275 0)
(1.0167465 -7.5619478e-05 0)
(0.75129648 -4.2358992e-05 0)
(0.53152592 -2.1313956e-05 0)
(0.35957935 -9.7144997e-06 0)
(0.23028375 -3.9316143e-06 0)
(0.13572313 -1.3201401e-06 0)
(0.067892685 -3.1164471e-07 0)
(0.019886752 -4.4510435e-08 0)
(0.019884362 4.0387788e-08 0)
(0.067884643 2.8103447e-07 0)
(0.13570735 1.1941597e-06 0)
(0.23025769 3.5564923e-06 0)
(0.35954035 8.792906e-06 0)
(0.53147216 1.931004e-05 0)
(0.75122934 3.8440148e-05 0)
(1.0166753 6.8838869e-05 0)
(1.3124053 0.00010678334 0)
(1.6051982 0.00013155191 0)
(1.8461504 0.00011132747 0)
(1.9835985 4.3630493e-05 0)
(1.9835985 -4.3631926e-05 0)
(1.8461503 -0.00011132898 0)
(1.6051982 -0.00013155329 0)
(1.3124053 -0.00010678406 0)
(1.0166753 -6.8838431e-05 0)
(0.75122933 -3.8438548e-05 0)
(0.53147215 -1.9307938e-05 0)
(0.35954035 -8.7911342e-06 0)
(0.23025769 -3.5557417e-06 0)
(0.13570735 -1.1933047e-06 0)
(0.067884644 -2.8193754e-07 0)
(0.019884363 -4.0147068e-08 0)
(0.019882195 3.6712861e-08 0)
(0.067877348 2.5553371e-07 0)
(0.13569303 1.0860834e-06 0)
(0.23023403 3.2356369e-06 0)
(0.3595049 8.0036e-06 0)
(0.5314232 1.7590953e-05 0)
(0.75116796 3.5067242e-05 0)
(1.0166096 6.2964127e-05 0)
(1.3123553 9.8203105e-05 0)
(1.6051923 0.00012233335 0)
(1.8461982 0.00010491271 0)
(1.9836803 4.1389844e-05 0)
(1.9836803 -4.1391291e-05 0)
(1.8461982 -0.00010491429 0)
(1.6051923 -0.00012233483 0)
(1.3123553 -9.8203857e-05 0)
(1.0166096 -6.2963494e-05 0)
(0.75116796 -3.5065191e-05 0)
(0.5314232 -1.7588301e-05 0)
(0.3595049 -8.0013842e-06 0)
(0.23023403 -3.2347078e-06 0)
(0.13569303 -1.0850304e-06 0)
(0.067877349 -2.5666018e-07 0)
(0.019882196 -3.6414314e-08 0)
(0.019880219 3.3540056e-08 0)
(0.067870695 2.3350665e-07 0)
(0.13567996 9.9267813e-07 0)
(0.23021243 2.958161e-06 0)
(0.35947252 7.3203128e-06 0)
(0.53137842 1.6100162e-05 0)
(0.75111164 3.2133032e-05 0)
(1.0165488 5.782341e-05 0)
(1.3123082 9.0602437e-05 0)
(1.6051852 0.00011395325 0)
(1.8462423 9.8955619e-05 0)
(1.9837576 3.9288371e-05 0)
(1.9837576 -3.9289846e-05 0)
(1.8462423 -9.895729e-05 0)
(1.6051852 -0.00011395486 0)
(1.3123082 -9.0603229e-05 0)
(1.0165488 -5.782256e-05 0)
(0.75111164 -3.2130474e-05 0)
(0.53137841 -1.6096887e-05 0)
(0.35947252 -7.3175963e-06 0)
(0.23021243 -2.9570311e-06 0)
(0.13567996 -9.9140329e-07 0)
(0.067870696 -2.3488385e-07 0)
(0.01988022 -3.3176639e-08 0)
(0.019878409 3.0775289e-08 0)
(0.067864599 2.1430396e-07 0)
(0.13566798 9.1120703e-07 0)
(0.23019263 2.7159963e-06 0)
(0.35944282 6.7234441e-06 0)
(0.53133728 1.4796036e-05 0)
(0.75105976 2.9559715e-05 0)
(1.0164925 5.3292574e-05 0)
(1.3122638 8.3831599e-05 0)
(1.6051772 0.00010632398 0)
(1.846283 9.3402977e-05 0)
(1.9838307 3.7311873e-05 0)
(1.9838307 -3.7313383e-05 0)
(1.846283 -9.3404748e-05 0)
(1.6051772 -0.00010632574 0)
(1.3122638 -8.3832442e-05 0)
(1.0164925 -5.3291483e-05 0)
(0.75105976 -2.9556587e-05 0)
(0.53133728 -1.4792066e-05 0)
(0.35944282 -6.720169e-06 0)
(0.23019263 -2.7146434e-06 0)
(0.13566798 -9.0968629e-07 0)
(0.0678646 -2.1596068e-07 0)
(0.01987841 -3.0339709e-08 0)
(0.019876745 2.8344785e-08 0)
(0.067858992 1.9741742e-07 0)
(0.13565697 8.3953131e-07 0)
(0.23017441 2.5028426e-06 0)
(0.35941547 6.1976709e-06 0)
(0.53129936 1.3645821e-05 0)
(0.75101183 2.728534e-05 0)
(1.0164401 4.9271779e-05 0)
(1.3122219 7.7767782e-05 0)
(1.6051688 9.9356148e-05 0)
(1.8463207 8.8213396e-05 0)
(1.9838998 3.5448981e-05 0)
(1.9838998 -3.5450524e-05 0)
(1.8463207 -8.8215273e-05 0)
(1.6051688 -9.9358077e-05 0)
(1.3122219 -7.7768681e-05 0)
(1.0164401 -4.9270419e-05 0)
(0.75101183 -2.7281581e-05 0)
(0.53129936 -1.3641081e-05 0)
(0.35941547 -6.1937794e-06 0)
(0.23017441 -2.501245e-06 0)
(0.13565697 -8.3774124e-07 0)
(0.067858993 -1.9938287e-07 0)
(0.019876745 -2.7829743e-08 0)
(0.019875208 2.6190523e-08 0)
(0.067853817 1.8244678e-07 0)
(0.13564679 7.7596441e-07 0)
(0.23015758 2.3137282e-06 0)
(0.3593902 5.7308936e-06 0)
(0.53126429 1.2623587e-05 0)
(0.75096742 2.5260378e-05 0)
(1.0163914 4.5679615e-05 0)
(1.3121824 7.2308194e-05 0)
(1.6051599 9.2973505e-05 0)
(1.8463555 8.3350274e-05 0)
(1.9839652 3.3689051e-05 0)
(1.9839652 -3.3690609e-05 0)
(1.8463555 -8.3352252e-05 0)
(1.6051599 -9.2975609e-05 0)
(1.3121824 -7.230915e-05 0)
(1.0163914 -4.5677957e-05 0)
(0.75096741 -2.5255927e-05 0)
(0.53126429 -1.2618004e-05 0)
(0.3593902 -5.7263301e-06 0)
(0.23015758 -2.3118658e-06 0)
(0.1356468 -7.7388315e-07 0)
(0.067853818 -1.8474927e-07 0)
(0.019875209 -2.5589027e-08 0)
(0.019873786 2.4267299e-08 0)
(0.067849027 1.6907975e-07 0)
(0.13563738 7.1918771e-07 0)
(0.230142 2.1447583e-06 0)
(0.35936679 5.3136095e-06 0)
(0.53123178 1.1708909e-05 0)
(0.75092616 2.3445605e-05 0)
(1.016346 4.2450629e-05 0)
(1.3121452 6.7367806e-05 0)
(1.6051509 8.7107775e-05 0)
(1.8463878 7.8785272e-05 0)
(1.9840271 3.2023508e-05 0)
(1.9840271 -3.2025052e-05 0)
(1.8463878 -7.8787342e-05 0)
(1.6051509 -8.7110055e-05 0)
(1.3121451 -6.7368814e-05 0)
(1.016346 -4.2448645e-05 0)
(0.75092616 -2.3440403e-05 0)
(0.53123178 -1.1702417e-05 0)
(0.35936679 -5.3083227e-06 0)
(0.230142 -2.1426129e-06 0)
(0.13563738 -7.1679602e-07 0)
(0.067849028 -1.7174521e-07 0)
(0.019873787 -2.3573026e-08 0)
(0.019872467 2.253952e-08 0)
(0.067844581 1.5707025e-07 0)
(0.13562864 6.6816088e-07 0)
(0.23012753 1.9928557e-06 0)
(0.35934504 4.9382959e-06 0)
(0.53120156 1.0885579e-05 0)
(0.75088776 2.18098e-05 0)
(1.0163035 3.9532304e-05 0)
(1.31211 6.2876752e-05 0)
(1.6051418 8.1702454e-05 0)
(1.8464178 7.449216e-05 0)
(1.9840857 3.0444209e-05 0)
(1.9840857 -3.0445707e-05 0)
(1.8464178 -7.4494304e-05 0)
(1.6051418 -8.1704905e-05 0)
(1.31211 -6.2877804e-05 0)
(1.0163035 -3.9529967e-05 0)
(0.75088775 -2.1803796e-05 0)
(0.53120156 -1.0878118e-05 0)
(0.35934504 -4.9322419e-06 0)
(0.23012753 -1.9904126e-06 0)
(0.13562864 -6.6544335e-07 0)
(0.067844582 -1.6012065e-07 0)
(0.019872467 -2.1747202e-08 0)
(0.01987124 2.097869e-08 0)
(0.067840445 1.4622124e-07 0)
(0.13562051 6.2205024e-07 0)
(0.23011407 1.8555523e-06 0)
(0.35932481 4.5989088e-06 0)
(0.53117341 1.0140537e-05 0)
(0.75085194 2.0327707e-05 0)
(1.0162638 3.6881946e-05 0)
(1.3120768 5.8777318e-05 0)
(1.6051327 7.6707269e-05 0)
(1.8464458 7.0451822e-05 0)
(1.9841412 2.8945111e-05 0)
(1.9841412 -2.894653e-05 0)
(1.8464458 -7.0454017e-05 0)
(1.6051327 -7.6709882e-05 0)
(1.3120768 -5.8778407e-05 0)
(1.0162638 -3.6879234e-05 0)
(0.75085194 -2.032086e-05 0)
(0.53117342 -1.013206e-05 0)
(0.35932481 -4.592054e-06 0)
(0.23011407 -1.8528009e-06 0)
(0.13562051 -6.189965e-07 0)
(0.067840446 -1.4967311e-07 0)
(0.01987124 -2.0084491e-08 0)
(0.019870096 1.9561764e-08 0)
(0.067836591 1.3637333e-07 0)
(0.13561293 5.8018093e-07 0)
(0.23010153 1.7308493e-06 0)
(0.35930594 4.2905496e-06 0)
(0.53114716 9.4631835e-06 0)
(0.75081849 1.8978768e-05 0)
(1.0162266 3.4464561e-05 0)
(1.3120455 5.502137e-05 0)
(1.6051237 7.2081428e-05 0)
(1.8464718 6.6643483e-05 0)
(1.9841938 2.7519778e-05 0)
(1.9841938 -2.7521088e-05 0)
(1.8464718 -6.6645704e-05 0)
(1.6051237 -7.208419e-05 0)
(1.3120455 -5.5022489e-05 0)
(1.0162266 -3.4461461e-05 0)
(0.75081848 -1.897105e-05 0)
(0.53114716 -9.4536593e-06 0)
(0.35930594 -4.2828733e-06 0)
(0.23010153 -1.7277842e-06 0)
(0.13561293 -5.7678678e-07 0)
(0.067836593 -1.4023626e-07 0)
(0.019870097 -1.8563648e-08 0)
(0.019869028 1.826988e-08 0)
(0.067832994 1.2739604e-07 0)
(0.13560586 5.4200028e-07 0)
(0.23008981 1.6171085e-06 0)
(0.35928831 4.0091981e-06 0)
(0.53112262 8.8448013e-06 0)
(0.75078719 1.7746031e-05 0)
(1.0161917 3.2251206e-05 0)
(1.3120159 5.1568707e-05 0)
(1.6051149 6.7787088e-05 0)
(1.846496 6.3053917e-05 0)
(1.9842436 2.6164174e-05 0)
(1.9842436 -2.6165352e-05 0)
(1.846496 -6.3056141e-05 0)
(1.6051149 -6.7789988e-05 0)
(1.3120159 -5.1569852e-05 0)
(1.0161917 -3.2247713e-05 0)
(0.75078718 -1.7737434e-05 0)
(0.53112262 -8.8342198e-06 0)
(0.35928831 -4.0006958e-06 0)
(0.23008981 -1.6137308e-06 0)
(0.13560586 -5.3826871e-07 0)
(0.067832995 -1.3167138e-07 0)
(0.019869029 -1.716794e-08 0)
(0.01986803 1.7087488e-08 0)
(0.06782963 1.1918182e-07 0)
(0.13559924 5.0705237e-07 0)
(0.23007885 1.5129783e-06 0)
(0.35927182 3.7515377e-06 0)
(0.53109965 8.2781974e-06 0)
(0.75075787 1.6615487e-05 0)
(1.0161589 3.0217794e-05 0)
(1.311988 4.8385296e-05 0)
(1.6051063 6.3794631e-05 0)
(1.8465186 5.9664921e-05 0)
(1.9842909 2.4872936e-05 0)
(1.9842909 -2.4873963e-05 0)
(1.8465186 -5.9667132e-05 0)
(1.6051063 -6.3797657e-05 0)
(1.311988 -4.8386465e-05 0)
(1.0161589 -3.0213912e-05 0)
(0.75075787 -1.6606019e-05 0)
(0.53109965 -8.2665711e-06 0)
(0.35927183 -3.7422229e-06 0)
(0.23007886 -1.5092962e-06 0)
(0.13559924 -5.0299447e-07 0)
(0.067829631 -1.2386148e-07 0)
(0.019868031 -1.5884249e-08 0)
(0.019867096 1.6001598e-08 0)
(0.067826481 1.1164083e-07 0)
(0.13559305 4.7495632e-07 0)
(0.23006859 1.4173286e-06 0)
(0.35925638 3.5147902e-06 0)
(0.53107813 7.7573321e-06 0)
(0.75073037 1.5575343e-05 0)
(1.0161281 2.8344066e-05 0)
(1.3119617 4.5442483e-05 0)
(1.6050979 6.0074541e-05 0)
(1.8465398 5.6468044e-05 0)
(1.9843356 2.3643741e-05 0)
(1.9843356 -2.3644606e-05 0)
(1.8465398 -5.6470227e-05 0)
(1.6050979 -6.0077679e-05 0)
(1.3119616 -4.5443673e-05 0)
(1.0161281 -2.8339812e-05 0)
(0.75073037 -1.5565036e-05 0)
(0.53107814 -7.744699e-06 0)
(0.35925639 -3.5046969e-06 0)
(0.2300686 -1.4133581e-06 0)
(0.13559305 -4.7059198e-07 0)
(0.067826483 -1.1670626e-07 0)
(0.019867097 -1.470226e-08 0)
(0.019866221 1.5001287e-08 0)
(0.06782353 1.0469747e-07 0)
(0.13558724 4.453915e-07 0)
(0.23005898 1.3292087e-06 0)
(0.35924191 3.2966214e-06 0)
(0.53105795 7.2771371e-06 0)
(0.75070456 1.4615695e-05 0)
(1.0160992 2.6612836e-05 0)
(1.3119367 4.2715426e-05 0)
(1.6050897 5.6605142e-05 0)
(1.8465596 5.3445705e-05 0)
(1.984378 2.2471603e-05 0)
(1.984378 -2.2472304e-05 0)
(1.8465596 -5.3447846e-05 0)
(1.6050897 -5.6608378e-05 0)
(1.3119367 -4.2716634e-05 0)
(1.0160992 -2.6608235e-05 0)
(0.75070456 -1.4604603e-05 0)
(0.53105795 -7.2635629e-06 0)
(0.35924191 -3.2858052e-06 0)
(0.23005898 -1.324974e-06 0)
(0.13558724 -4.4074984e-07 0)
(0.067823531 -1.1011891e-07 0)
(0.019866221 -1.3613911e-08 0)
(0.019865399 1.4077289e-08 0)
(0.06782076 9.8287648e-08 0)
(0.13558179 4.1808617e-07 0)
(0.23004995 1.2478114e-06 0)
(0.35922832 3.0950431e-06 0)
(0.531039 6.8332765e-06 0)
(0.75068031 1.3728049e-05 0)
(1.0160719 2.5009471e-05 0)
(1.3119132 4.0183231e-05 0)
(1.6050818 5.3362503e-05 0)
(1.8465781 5.0594085e-05 0)
(1.9844182 2.1355764e-05 0)
(1.9844182 -2.1356305e-05 0)
(1.8465781 -5.0596172e-05 0)
(1.6050818 -5.3365817e-05 0)
(1.3119132 -4.0184456e-05 0)
(1.0160719 -2.5004561e-05 0)
(0.75068031 -1.371625e-05 0)
(0.531039 -6.8188557e-06 0)
(0.35922832 -3.0835822e-06 0)
(0.23004995 -1.2433452e-06 0)
(0.1355818 -4.1320583e-07 0)
(0.067820762 -1.0402367e-07 0)
(0.0198654 -1.2612899e-08 0)
(0.019864628 1.3221661e-08 0)
(0.067818159 9.2356174e-08 0)
(0.13557668 3.9280632e-07 0)
(0.23004147 1.172443e-06 0)
(0.35921555 2.9083542e-06 0)
(0.53102119 6.4220589e-06 0)
(0.75065751 1.2905168e-05 0)
(1.0160463 2.352127e-05 0)
(1.3118909 3.7827081e-05 0)
(1.6050742 5.0330796e-05 0)
(1.8465955 4.7894439e-05 0)
(1.9844563 2.0290912e-05 0)
(1.9844563 -2.0291299e-05 0)
(1.8465955 -4.789646e-05 0)
(1.6050742 -5.0334166e-05 0)
(1.3118909 -3.7828319e-05 0)
(1.0160463 -2.3516098e-05 0)
(0.75065751 -1.2892766e-05 0)
(0.53102119 -6.4069156e-06 0)
(0.35921555 -2.89635e-06 0)
(0.23004147 -1.1677869e-06 0)
(0.13557668 -3.8773545e-07 0)
(0.067818161 -9.8353633e-08 0)
(0.019864628 -1.1694259e-08 0)
(0.019863903 1.2427643e-08 0)
(0.067815715 8.6856182e-08 0)
(0.13557187 3.6935364e-07 0)
(0.2300335 1.1025133e-06 0)
(0.35920354 2.7350944e-06 0)
(0.53100444 6.0402838e-06 0)
(0.75063605 1.2140768e-05 0)
(1.0160221 2.2137428e-05 0)
(1.3118699 3.5631593e-05 0)
(1.6050669 4.7489979e-05 0)
(1.8466118 4.5348281e-05 0)
(1.9844924 1.9277998e-05 0)
(1.9844924 -1.9278239e-05 0)
(1.8466118 -4.5350225e-05 0)
(1.6050669 -4.7493377e-05 0)
(1.3118699 -3.5632839e-05 0)
(1.0160221 -2.2132053e-05 0)
(0.75063605 -1.2127889e-05 0)
(0.53100444 -6.0245715e-06 0)
(0.35920355 -2.7226709e-06 0)
(0.2300335 -1.097717e-06 0)
(0.13557187 -3.641496e-07 0)
(0.067815716 -9.3050425e-08 0)
(0.019863903 -1.0854144e-08 0)
(0.01986322 1.1689259e-08 0)
(0.067813415 8.1745641e-08 0)
(0.13556734 3.475503e-07 0)
(0.230026 1.0374963e-06 0)
(0.35919225 2.5739801e-06 0)
(0.53098867 5.6851768e-06 0)
(0.75061584 1.1429392e-05 0)
(1.0159993 2.08482e-05 0)
(1.31185 3.3581815e-05 0)
(1.6050599 4.4828527e-05 0)
(1.8466271 4.2933698e-05 0)
(1.9845266 1.8310593e-05 0)
(1.9845266 -1.8310695e-05 0)
(1.8466271 -4.2935551e-05 0)
(1.6050599 -4.4831921e-05 0)
(1.31185 -3.3583061e-05 0)
(1.0159993 -2.084269e-05 0)
(0.75061584 -1.1416188e-05 0)
(0.53098868 -5.6690763e-06 0)
(0.35919225 -2.5612822e-06 0)
(0.23002601 -1.0326167e-06 0)
(0.13556734 -3.4227837e-07 0)
(0.067813416 -8.8060833e-08 0)
(0.019863221 -1.008928e-08 0)
(0.019862578 1.1001573e-08 0)
(0.06781125 7.6990201e-08 0)
(0.13556308 3.272518e-07 0)
(0.23001895 9.7695912e-07 0)
(0.35918161 2.4239287e-06 0)
(0.53097383 5.354339e-06 0)
(0.7505968 1.0766314e-05 0)
(1.0159778 1.9645574e-05 0)
(1.3118312 3.1666671e-05 0)
(1.6050532 4.2329459e-05 0)
(1.8466415 4.0659113e-05 0)
(1.984559 1.7391877e-05 0)
(1.984559 -1.7391847e-05 0)
(1.8466415 -4.0660859e-05 0)
(1.6050532 -4.2332808e-05 0)
(1.3118311 -3.1667909e-05 0)
(1.0159778 -1.9640007e-05 0)
(0.7505968 -1.0752957e-05 0)
(0.53097383 -5.3380574e-06 0)
(0.35918162 -2.4111214e-06 0)
(0.23001895 -9.7206059e-07 0)
(0.13556309 -3.2198477e-07 0)
(0.067811252 -8.3341269e-08 0)
(0.019862579 -9.3970816e-09 0)
(0.019861974 1.0359857e-08 0)
(0.067809211 7.2555783e-08 0)
(0.13555907 3.0831434e-07 0)
(0.23001229 9.2047957e-07 0)
(0.35917159 2.2839252e-06 0)
(0.53095984 5.0456057e-06 0)
(0.75057885 1.0147271e-05 0)
(1.0159575 1.8521683e-05 0)
(1.3118134 2.9873354e-05 0)
(1.6050467 3.9984011e-05 0)
(1.8466551 3.849681e-05 0)
(1.9845898 1.6513286e-05 0)
(1.9845898 -1.6513132e-05 0)
(1.8466551 -3.8498427e-05 0)
(1.6050467 -3.998727e-05 0)
(1.3118133 -2.9874572e-05 0)
(1.0159575 -1.8516145e-05 0)
(0.75057885 -1.013395e-05 0)
(0.53095984 -5.0293721e-06 0)
(0.3591716 -2.2711901e-06 0)
(0.2300123 -9.1563237e-07 0)
(0.13555907 -3.0313091e-07 0)
(0.067809212 -7.8849621e-08 0)
(0.019861974 -8.7747937e-09 0)
(0.019861404 9.760711e-09 0)
(0.06780729 6.8418901e-08 0)
(0.13555529 2.9064045e-07 0)
(0.23000603 8.6775936e-07 0)
(0.35916215 2.1531966e-06 0)
(0.53094665 4.7572083e-06 0)
(0.75056193 9.5687556e-06 0)
(1.0159384 1.7470844e-05 0)
(1.3117965 2.8194817e-05 0)
(1.6050405 3.7778499e-05 0)
(1.8466677 3.6464831e-05 0)
(1.9846188 1.5681243e-05 0)
(1.9846188 -1.5680974e-05 0)
(1.8466677 -3.6466294e-05 0)
(1.6050405 -3.778162e-05 0)
(1.3117965 -2.8196003e-05 0)
(1.0159384 -1.7465424e-05 0)
(0.75056193 -9.5556774e-06 0)
(0.53094665 -4.7412701e-06 0)
(0.35916215 -2.1407292e-06 0)
(0.23000603 -8.6303887e-07 0)
(0.13555529 -2.8562406e-07 0)
(0.067807291 -7.4556416e-08 0)
(0.019861404 -8.220512e-09 0)
(0.019860866 9.1999791e-09 0)
(0.067805478 6.4548359e-08 0)
(0.13555172 2.7409831e-07 0)
(0.23000012 8.1841918e-07 0)
(0.35915324 2.0308654e-06 0)
(0.53093421 4.487345e-06 0)
(0.75054595 9.0272271e-06 0)
(1.0159203 1.6486118e-05 0)
(1.3117806 2.6618594e-05 0)
(1.6050346 3.5704687e-05 0)
(1.8466798 3.4525907e-05 0)
(1.9846465 1.4883593e-05 0)
(1.9846465 -1.4883216e-05 0)
(1.8466798 -3.4527195e-05 0)
(1.6050346 -3.5707625e-05 0)
(1.3117806 -2.6619735e-05 0)
(1.0159203 -1.6480914e-05 0)
(0.75054595 -9.0146075e-06 0)
(0.53093421 -4.4719616e-06 0)
(0.35915324 -2.0188694e-06 0)
(0.23000012 -8.1390253e-07 0)
(0.13555173 -2.6933457e-07 0)
(0.067805478 -7.0425484e-08 0)
(0.019860867 -7.7311269e-09 0)
(0.01986036 8.676038e-09 0)
(0.067803769 6.0934067e-08 0)
(0.13554836 2.5864838e-07 0)
(0.22999454 7.7232057e-07 0)
(0.35914484 1.9164998e-06 0)
(0.53092247 4.2348839e-06 0)
(0.75053088 8.5203843e-06 0)
(1.0159032 1.5564324e-05 0)
(1.3117655 2.5142594e-05 0)
(1.605029 3.3754223e-05 0)
(1.846691 3.2712066e-05 0)
(1.9846726 1.4131749e-05 0)
(1.9846726 -1.4131272e-05 0)
(1.846691 -3.2713161e-05 0)
(1.605029 -3.375693e-05 0)
(1.3117655 -2.5143679e-05 0)
(1.0159032 -1.5559434e-05 0)
(0.75053088 -8.5084468e-06 0)
(0.53092247 -4.2203232e-06 0)
(0.35914484 -1.9051842e-06 0)
(0.22999454 -7.6808642e-07 0)
(0.13554836 -2.5422335e-07 0)
(0.067803769 -6.6445098e-08 0)
(0.01986036 -7.3052904e-09 0)
(0.019859881 8.1842698e-09 0)
(0.067802154 5.7539519e-08 0)
(0.13554519 2.4413527e-07 0)
(0.22998927 7.2903288e-07 0)
(0.3591369 1.8091771e-06 0)
(0.53091138 3.998088e-06 0)
(0.75051663 8.0448781e-06 0)
(1.0158871 1.4698259e-05 0)
(1.3117512 2.375208e-05 0)
(1.6050236 3.1915391e-05 0)
(1.8467017 3.0971039e-05 0)
(1.9846975 1.3407752e-05 0)
(1.9846975 -1.340719e-05 0)
(1.8467017 -3.0971926e-05 0)
(1.6050236 -3.1917821e-05 0)
(1.3117512 -2.3753099e-05 0)
(1.0158871 -1.4693784e-05 0)
(0.75051663 -8.0338474e-06 0)
(0.53091138 -3.9846191e-06 0)
(0.3591369 -1.7987514e-06 0)
(0.22998927 -7.2516018e-07 0)
(0.13554519 -2.4013373e-07 0)
(0.067802154 -6.2580479e-08 0)
(0.019859881 -6.937886e-09 0)
(0.019859429 7.7263295e-09 0)
(0.067800632 5.438013e-08 0)
(0.13554219 2.3062931e-07 0)
(0.22998431 6.8871212e-07 0)
(0.35912942 1.7090547e-06 0)
(0.53090092 3.7768302e-06 0)
(0.75050319 7.60021e-06 0)
(1.0158718 1.388862e-05 0)
(1.3117377 2.2453111e-05 0)
(1.6050185 3.0190632e-05 0)
(1.8467116 2.9355838e-05 0)
(1.9847208 1.2730932e-05 0)
(1.9847208 -1.2730307e-05 0)
(1.8467116 -2.9356504e-05 0)
(1.6050185 -3.0192741e-05 0)
(1.3117377 -2.2454055e-05 0)
(1.0158718 -1.3884657e-05 0)
(0.75050319 -7.5903043e-06 0)
(0.53090092 -3.7647133e-06 0)
(0.35912942 -1.699719e-06 0)
(0.22998431 -6.8527358e-07 0)
(0.13554219 -2.2713014e-07 0)
(0.067800632 -5.8849403e-08 0)
(0.019859429 -6.6295007e-09 0)
(0.019859002 7.294484e-09 0)
(0.067799191 5.1392929e-08 0)
(0.13553935 2.178612e-07 0)
(0.2299796 6.5064122e-07 0)
(0.35912233 1.6147256e-06 0)
(0.53089101 3.5687743e-06 0)
(0.75049045 7.1821584e-06 0)
(1.0158574 1.3125672e-05 0)
(1.3117249 2.1223905e-05 0)
(1.6050136 2.8557219e-05 0)
(1.8467212 2.7791377e-05 0)
(1.9847433 1.2074227e-05 0)
(1.9847433 -1.2073565e-05 0)
(1.8467212 -2.7791817e-05 0)
(1.6050136 -2.8558977e-05 0)
(1.3117249 -2.122477e-05 0)
(1.0158574 -1.3122315e-05 0)
(0.75049045 -7.1735813e-06 0)
(0.53089101 -3.5582493e-06 0)
(0.35912233 -1.6066617e-06 0)
(0.2299796 -6.4770052e-07 0)
(0.13553935 -2.1493326e-07 0)
(0.06779919 -5.5196736e-08 0)
(0.019859002 -6.3699122e-09 0)
(0.0198586 6.8991669e-09 0)
(0.067797834 4.8661158e-08 0)
(0.13553668 2.0618965e-07 0)
(0.22997518 6.1573947e-07 0)
(0.35911565 1.5278405e-06 0)
(0.53088169 3.3762308e-06 0)
(0.75047847 6.7943199e-06 0)
(1.0158438 1.2418359e-05 0)
(1.3117128 2.0086839e-05 0)
(1.6050089 2.7040637e-05 0)
(1.84673 2.6363077e-05 0)
(1.9847642 1.1469857e-05 0)
(1.9847642 -1.1469194e-05 0)
(1.84673 -2.6363299e-05 0)
(1.6050089 -2.7042019e-05 0)
(1.3117128 -2.0087623e-05 0)
(1.0158438 -1.241569e-05 0)
(0.75047847 -6.7872546e-06 0)