/*--------------------------------*- C++ -*----------------------------------*\
  =========                 |
  \\      /  F ield         | OpenFOAM: The Open Source CFD Toolbox
   \\    /   O peration     | Website:  https://openfoam.org
    \\  /    A nd           | Version:  10
     \\/     M anipulation  |
\*---------------------------------------------------------------------------*/
FoamFile
{
    format      ascii;
    class       volScalarField;
    location    "0.5";
    object      ddt0(T);
}
// * * * * * * * * * * * * * * * * * * * * * * * * * * * * * * * * * * * * * //

dimensions      [0 0 -2 0 0 0 0];

internalField   nonuniform List<scalar> 
100
(
-1.29769
-3.88115
-6.43044
-8.92298
-11.3366
-13.6496
-15.8415
-17.8927
-19.7851
-21.5017
-23.0275
-24.3489
-25.4541
-26.3334
-26.9789
-27.3849
-27.5479
-27.4663
-27.141
-26.5747
-25.7726
-24.7417
-23.4912
-22.0323
-20.3777
-18.5423
-16.5423
-14.3955
-12.1209
-9.73866
-7.27001
-4.73685
-2.16164
0.432743
3.02329
5.587
8.10113
10.5434
12.892
15.1262
17.2262
19.1733
20.9502
22.5411
23.932
25.1104
26.0659
26.79
27.2764
27.5206
27.5206
27.2763
26.79
26.0658
25.1103
23.9319
22.5411
20.9502
19.1734
17.2263
15.1264
12.8921
10.5434
8.10116
5.587
3.02326
0.432695
-2.16172
-4.73695
-7.27014
-9.73879
-12.121
-14.3956
-16.5424
-18.5424
-20.3778
-22.0323
-23.4912
-24.7417
-25.7725
-26.5747
-27.1409
-27.4663
-27.5478
-27.3849
-26.9789
-26.3334
-25.4542
-24.349
-23.0276
-21.5018
-19.785
-17.8926
-15.8413
-13.6493
-11.3363
-8.92273
-6.43025
-3.88103
-1.29765
)
;

boundaryField
{
    xmin
    {
        type            calculated;
        value           uniform 0;
    }
    xmax
    {
        type            calculated;
        value           uniform 0;
    }
    frontAndBack
    {
        type            empty;
    }
}


// ************************************************************************* //
