/*--------------------------------*- C++ -*----------------------------------*\
  =========                 |
  \\      /  F ield         | OpenFOAM: The Open Source CFD Toolbox
   \\    /   O peration     | Website:  https://openfoam.org
    \\  /    A nd           | Version:  10
     \\/     M anipulation  |
\*---------------------------------------------------------------------------*/
FoamFile
{
    format      ascii;
    class       volScalarField;
    location    "35";
    object      ddt0(T);
}
// * * * * * * * * * * * * * * * * * * * * * * * * * * * * * * * * * * * * * //

dimensions      [0 0 -1 1 0 0 0];

internalField   nonuniform List<scalar> 
10000
(
607.865
57.3074
131.294
129.696
129.112
129.194
129.22
129.223
129.223
129.224
129.225
129.226
129.227
129.228
129.229
129.23
129.231
129.232
129.233
129.234
129.235
129.235
129.236
129.237
129.238
129.239
129.24
129.24
129.241
129.242
129.243
129.243
129.244
129.245
129.246
129.246
129.247
129.248
129.249
129.249
129.25
129.251
129.251
129.252
129.252
129.253
129.254
129.254
129.255
129.255
129.256
129.256
129.257
129.258
129.258
129.259
129.259
129.259
129.26
129.26
129.261
129.261
129.262
129.262
129.262
129.263
129.263
129.263
129.264
129.264
129.264
129.265
129.265
129.265
129.266
129.266
129.266
129.266
129.267
129.267
129.267
129.267
129.267
129.267
129.268
129.268
129.268
129.268
129.268
129.268
129.268
129.268
129.268
129.268
129.268
129.271
129.365
129.805
123.133
103.544
85.5801
-119.066
-40.196
-49.5918
-50.7239
-50.5234
-50.4807
-50.4807
-50.4798
-50.4772
-50.4745
-50.4717
-50.469
-50.4663
-50.4636
-50.4609
-50.4583
-50.4556
-50.453
-50.4504
-50.4478
-50.4453
-50.4427
-50.4402
-50.4377
-50.4353
-50.4328
-50.4304
-50.428
-50.4257
-50.4233
-50.421
-50.4188
-50.4165
-50.4143
-50.4122
-50.41
-50.4079
-50.4058
-50.4038
-50.4018
-50.3998
-50.3978
-50.3959
-50.3941
-50.3922
-50.3904
-50.3887
-50.3869
-50.3853
-50.3836
-50.382
-50.3804
-50.3789
-50.3773
-50.3759
-50.3744
-50.373
-50.3717
-50.3704
-50.3691
-50.3678
-50.3666
-50.3654
-50.3643
-50.3632
-50.3621
-50.361
-50.36
-50.3591
-50.3581
-50.3572
-50.3564
-50.3556
-50.3548
-50.354
-50.3533
-50.3526
-50.3519
-50.3513
-50.3507
-50.3501
-50.3496
-50.3491
-50.3486
-50.3482
-50.3478
-50.3474
-50.3471
-50.3468
-50.3465
-50.3462
-50.346
-50.346
-50.3481
-50.3565
-50.308
-49.761
-51.138
-39.1922
149.096
-48.8271
20.8271
10.1561
9.22454
9.50541
9.55756
9.55857
9.56112
9.56552
9.57015
9.57473
9.57927
9.5838
9.5883
9.59277
9.59721
9.60163
9.60601
9.61035
9.61466
9.61894
9.62317
9.62737
9.63152
9.63563
9.6397
9.64372
9.6477
9.65163
9.65551
9.65935
9.66313
9.66686
9.67054
9.67417
9.67774
9.68126
9.68473
9.68813
9.69149
9.69478
9.69801
9.70119
9.70431
9.70737
9.71037
9.71331
9.71619
9.71901
9.72176
9.72446
9.7271
9.72967
9.73219
9.73464
9.73703
9.73936
9.74163
9.74384
9.74599
9.74808
9.7501
9.75207
9.75398
9.75583
9.75761
9.75934
9.76101
9.76263
9.76418
9.76568
9.76712
9.7685
9.76983
9.7711
9.77231
9.77347
9.77457
9.77562
9.77661
9.77755
9.77844
9.77927
9.78005
9.78078
9.78145
9.78208
9.78265
9.78317
9.78364
9.78407
9.78449
9.78474
9.78222
9.7654
9.74775
9.98121
8.50563
8.75995
148.058
-56.9045
11.4547
0.93173
0.111242
0.411298
0.464472
0.46645
0.470679
0.476917
0.483378
0.489782
0.49614
0.502463
0.50875
0.514999
0.521208
0.527374
0.533495
0.539569
0.545594
0.551568
0.557489
0.563355
0.569164
0.574914
0.580605
0.586233
0.591797
0.597296
0.602728
0.608091
0.613384
0.618606
0.623755
0.62883
0.63383
0.638753
0.643599
0.648367
0.653055
0.657663
0.66219
0.666635
0.670998
0.675278
0.679475
0.683588
0.687616
0.69156
0.695419
0.699192
0.702881
0.706484
0.710001
0.713433
0.716779
0.72004
0.723216
0.726307
0.729312
0.732234
0.73507
0.737823
0.740492
0.743077
0.74558
0.748
0.750338
0.752594
0.754769
0.756864
0.758878
0.760812
0.762667
0.764444
0.766142
0.767763
0.769306
0.770773
0.772163
0.773478
0.774718
0.775883
0.776973
0.77799
0.778933
0.779803
0.7806
0.781324
0.781977
0.782578
0.783232
0.784209
0.784812
0.777669
0.764971
0.946891
0.94461
0.538951
147.586
-57.9046
10.6264
0.211905
-0.582524
-0.280166
-0.226389
-0.222955
-0.216945
-0.208874
-0.200585
-0.192361
-0.184191
-0.176066
-0.167985
-0.159952
-0.151971
-0.144045
-0.136176
-0.128367
-0.120622
-0.112943
-0.105332
-0.0977912
-0.0903241
-0.0829325
-0.0756187
-0.068385
-0.0612334
-0.0541661
-0.0471851
-0.0402923
-0.0334896
-0.0267788
-0.0201615
-0.0136395
-0.00721412
-0.000886977
0.00534063
0.0114674
0.0174923
0.023414
0.0292316
0.0349443
0.0405511
0.0460513
0.0514442
0.0567293
0.061906
0.066974
0.0719328
0.0767821
0.0815218
0.0861517
0.0906718
0.0950819
0.0993822
0.103573
0.107654
0.111625
0.115488
0.119242
0.122887
0.126424
0.129854
0.133176
0.136392
0.139502
0.142506
0.145406
0.148201
0.150892
0.15348
0.155966
0.15835
0.160633
0.162815
0.164898
0.166881
0.168766
0.170553
0.172242
0.173835
0.175332
0.176734
0.178041
0.179253
0.180371
0.181396
0.182326
0.18316
0.183898
0.184599
0.185543
0.186811
0.183631
0.16381
0.189756
0.239721
0.19918
147.658
-57.7335
10.8708
0.475354
-0.316666
-0.0137612
0.0413374
0.0465112
0.0543538
0.064259
0.0743739
0.0844144
0.0943921
0.104317
0.114187
0.123998
0.133746
0.143427
0.153039
0.162576
0.172036
0.181416
0.190713
0.199923
0.209044
0.218072
0.227006
0.235842
0.244577
0.253209
0.261736
0.270155
0.278464
0.286661
0.294744
0.30271
0.310558
0.318286
0.325893
0.333376
0.340735
0.347968
0.355073
0.362051
0.368899
0.375617
0.382204
0.388659
0.394982
0.401172
0.407229
0.413152
0.418941
0.424596
0.430117
0.435504
0.440756
0.445874
0.450859
0.45571
0.460427
0.465012
0.469465
0.473785
0.477974
0.482032
0.48596
0.489758
0.493428
0.496969
0.500383
0.50367
0.506831
0.509867
0.512779
0.515567
0.518232
0.520776
0.523198
0.525501
0.527683
0.529747
0.531693
0.533521
0.535233
0.536829
0.538309
0.539675
0.540927
0.542065
0.543086
0.543982
0.544764
0.545626
0.547107
0.548202
0.541496
0.536842
0.536997
0.551084
147.68
-57.6962
10.917
0.522855
-0.268491
0.0357431
0.0925607
0.0995617
0.109242
0.120976
0.132912
0.144765
0.156547
0.168266
0.179921
0.191506
0.203017
0.21445
0.2258
0.237062
0.248234
0.259311
0.270289
0.281165
0.291936
0.302598
0.313147
0.323581
0.333897
0.344091
0.35416
0.364102
0.373914
0.383594
0.393138
0.402546
0.411813
0.420939
0.429922
0.438759
0.447448
0.455989
0.46438
0.47262
0.480707
0.48864
0.496418
0.504041
0.511508
0.518817
0.525969
0.532963
0.5398
0.546477
0.552997
0.559357
0.56556
0.571604
0.57749
0.583218
0.588789
0.594203
0.59946
0.604562
0.609509
0.614301
0.618939
0.623424
0.627757
0.631939
0.63597
0.639852
0.643584
0.64717
0.650608
0.6539
0.657048
0.660051
0.662912
0.66563
0.668208
0.670645
0.672942
0.675101
0.677123
0.679007
0.680756
0.682369
0.683847
0.685192
0.686401
0.687467
0.688372
0.689164
0.690187
0.691746
0.691719
0.68998
0.684194
0.694026
147.682
-57.6959
10.9185
0.525444
-0.264431
0.0415452
0.10019
0.109029
0.12054
0.134098
0.147849
0.16151
0.175091
0.188601
0.202036
0.215391
0.228661
0.24184
0.254924
0.267907
0.280786
0.293555
0.306211
0.318749
0.331166
0.343457
0.355618
0.367646
0.379538
0.39129
0.402897
0.414359
0.42567
0.436828
0.447831
0.458675
0.469359
0.479879
0.490234
0.500421
0.510438
0.520284
0.529957
0.539455
0.548777
0.557922
0.566889
0.575676
0.584283
0.592709
0.600954
0.609016
0.616897
0.624595
0.63211
0.639442
0.646592
0.653559
0.660344
0.666947
0.673369
0.67961
0.685671
0.691552
0.697254
0.702778
0.708124
0.713295
0.718289
0.72311
0.727757
0.732231
0.736534
0.740667
0.74463
0.748426
0.752054
0.755516
0.758814
0.761947
0.764918
0.767728
0.770376
0.772865
0.775195
0.777367
0.779383
0.781242
0.782946
0.784496
0.785893
0.787134
0.788201
0.789079
0.789865
0.790856
0.791932
0.792604
0.786739
0.795455
147.683
-57.6947
10.9214
0.529962
-0.25813
0.0496784
0.110161
0.120831
0.134166
0.149541
0.165103
0.180566
0.195942
0.211237
0.226447
0.241567
0.25659
0.27151
0.286323
0.301022
0.315602
0.330059
0.344387
0.358582
0.37264
0.386555
0.400324
0.413942
0.427405
0.440709
0.453851
0.466826
0.479632
0.492265
0.504722
0.516999
0.529094
0.541004
0.552727
0.56426
0.575601
0.586748
0.597699
0.608452
0.619006
0.629359
0.63951
0.649458
0.659202
0.668742
0.678075
0.687203
0.696125
0.704839
0.713347
0.721648
0.729742
0.73763
0.745311
0.752787
0.760057
0.767122
0.773983
0.780641
0.787097
0.79335
0.799403
0.805256
0.810911
0.816368
0.821629
0.826694
0.831566
0.836244
0.840731
0.845028
0.849135
0.853055
0.856788
0.860336
0.863699
0.866879
0.869878
0.872695
0.875333
0.877793
0.880074
0.882179
0.884108
0.885863
0.887444
0.888853
0.890084
0.891116
0.891943
0.892677
0.893687
0.895397
0.887487
0.898528
147.684
-57.6921
10.9258
0.53623
-0.250029
0.0596136
0.121926
0.13442
0.149572
0.166759
0.184125
0.201385
0.218548
0.235622
0.252602
0.26948
0.28625
0.302906
0.319442
0.335851
0.352127
0.368266
0.384261
0.400108
0.4158
0.431334
0.446705
0.461907
0.476936
0.491788
0.506459
0.520944
0.535239
0.549341
0.563247
0.576952
0.590454
0.60375
0.616836
0.62971
0.64237
0.654813
0.667038
0.679041
0.690822
0.70238
0.713711
0.724816
0.735694
0.746342
0.756762
0.766951
0.77691
0.786638
0.796135
0.805401
0.814437
0.823242
0.831816
0.840161
0.848276
0.856163
0.863822
0.871254
0.87846
0.885441
0.892197
0.898731
0.905043
0.911135
0.917007
0.922662
0.928099
0.933322
0.938331
0.943127
0.947712
0.952087
0.956254
0.960214
0.963969
0.967519
0.970866
0.974011
0.976956
0.979701
0.982248
0.984598
0.986751
0.98871
0.990474
0.992046
0.993427
0.994605
0.995554
0.996266
0.997214
0.999913
0.989053
1.00325
147.685
-57.6893
10.9304
0.542691
-0.24174
0.0697292
0.133863
0.148173
0.165137
0.184128
0.203291
0.222341
0.241286
0.260132
0.278874
0.297504
0.316016
0.334401
0.352653
0.370765
0.388731
0.406545
0.424201
0.441693
0.459015
0.476161
0.493127
0.509908
0.526497
0.542891
0.559084
0.575073
0.590852
0.606419
0.621767
0.636895
0.651799
0.666474
0.680919
0.695129
0.709103
0.722838
0.736331
0.74958
0.762584
0.775341
0.787849
0.800106
0.812112
0.823866
0.835366
0.846613
0.857605
0.868343
0.878826
0.889053
0.899026
0.908745
0.918209
0.92742
0.936377
0.945082
0.953536
0.961739
0.969692
0.977397
0.984855
0.992067
0.999034
1.00576
1.01224
1.01848
1.02448
1.03025
1.03577
1.04107
1.04613
1.05096
1.05556
1.05993
1.06407
1.06799
1.07169
1.07516
1.07841
1.08144
1.08425
1.08684
1.08922
1.09138
1.09333
1.09506
1.09659
1.0979
1.09896
1.09972
1.10064
1.10441
1.09062
1.10786
147.686
-57.6866
10.935
0.549099
-0.233511
0.079776
0.145724
0.161843
0.18061
0.201398
0.222351
0.243184
0.263903
0.284514
0.305011
0.325386
0.34563
0.365737
0.385699
0.405507
0.425156
0.444639
0.463948
0.483078
0.502022
0.520775
0.53933
0.557682
0.575825
0.593754
0.611464
0.62895
0.646207
0.663231
0.680017
0.696562
0.712861
0.72891
0.744707
0.760249
0.775531
0.790551
0.805308
0.819798
0.834019
0.84797
0.861649
0.875054
0.888184
0.901038
0.913615
0.925915
0.937936
0.949679
0.961143
0.972328
0.983234
0.993863
1.00421
1.01429
1.02408
1.0336
1.04285
1.05182
1.06051
1.06894
1.0771
1.08498
1.0926
1.09995
1.10704
1.11387
1.12043
1.12674
1.13278
1.13857
1.1441
1.14939
1.15442
1.1592
1.16373
1.16801
1.17205
1.17585
1.1794
1.18272
1.18579
1.18863
1.19123
1.19359
1.19572
1.19762
1.19928
1.20072
1.20189
1.2027
1.2036
1.20836
1.19205
1.21192
147.687
-57.6839
10.9395
0.555465
-0.225333
0.0897637
0.157517
0.175437
0.195999
0.218576
0.241312
0.263918
0.286403
0.308771
0.331015
0.353127
0.375097
0.396918
0.418581
0.440078
0.461402
0.482545
0.503501
0.524262
0.544821
0.565172
0.585309
0.605225
0.624915
0.644373
0.663592
0.682569
0.701297
0.719772
0.737989
0.755943
0.773631
0.791049
0.808192
0.825057
0.841642
0.857943
0.873957
0.889681
0.905115
0.920254
0.935099
0.949646
0.963895
0.977844
0.991493
1.00484
1.01789
1.03063
1.04307
1.05521
1.06704
1.07858
1.08981
1.10074
1.11137
1.1217
1.13173
1.14147
1.15091
1.16005
1.1689
1.17746
1.18573
1.19371
1.2014
1.2088
1.21593
1.22277
1.22933
1.23561
1.24162
1.24735
1.25281
1.25799
1.26291
1.26756
1.27194
1.27606
1.27992
1.28352
1.28685
1.28993
1.29275
1.29532
1.29763
1.29969
1.30149
1.30305
1.30433
1.3052
1.30608
1.31165
1.29334
1.31533
147.688
-57.6812
10.9441
0.561796
-0.217197
0.0997006
0.16925
0.188962
0.211311
0.235668
0.260177
0.284549
0.308791
0.332907
0.35689
0.38073
0.404417
0.427944
0.4513
0.474477
0.497468
0.520263
0.542857
0.56524
0.587406
0.609348
0.631059
0.652532
0.673761
0.694739
0.715461
0.73592
0.756112
0.77603
0.795671
0.815029
0.834099
0.852877
0.87136
0.889543
0.907424
0.924998
0.942263
0.959216
0.975855
0.992178
1.00818
1.02387
1.03923
1.05427
1.06898
1.08337
1.09744
1.11117
1.12459
1.13767
1.15043
1.16287
1.17498
1.18676
1.19822
1.20936
1.22017
1.23067
1.24084
1.2507
1.26024
1.26947
1.27838
1.28699
1.29528
1.30326
1.31094
1.31832
1.32539
1.33216
1.33864
1.34482
1.3507
1.35629
1.36159
1.36661
1.37133
1.37578
1.37993
1.38381
1.38741
1.39073
1.39377
1.39653
1.39902
1.40124
1.40319
1.40487
1.40626
1.40719
1.40805
1.41423
1.39449
1.41807
147.689
-57.6785
10.9486
0.568094
-0.209104
0.109585
0.180922
0.202416
0.226541
0.252669
0.278942
0.30507
0.33106
0.356915
0.382627
0.408186
0.433581
0.458804
0.483844
0.508692
0.533341
0.55778
0.582003
0.606
0.629765
0.653289
0.676565
0.699586
0.722346
0.744836
0.767052
0.788986
0.810634
0.831988
0.853045
0.873798
0.894243
0.914375
0.93419
0.953684
0.972853
0.991694
1.0102
1.02838
1.04622
1.06371
1.08087
1.09769
1.11415
1.13028
1.14605
1.16148
1.17656
1.19129
1.20566
1.21969
1.23337
1.2467
1.25968
1.27232
1.2846
1.29654
1.30814
1.31939
1.3303
1.34086
1.35109
1.36098
1.37054
1.37976
1.38865
1.39721
1.40544
1.41335
1.42093
1.42819
1.43513
1.44176
1.44806
1.45406
1.45974
1.46512
1.47018
1.47495
1.4794
1.48356
1.48742
1.49097
1.49424
1.4972
1.49987
1.50225
1.50434
1.50614
1.50763
1.50864
1.5095
1.51609
1.49541
1.52011
147.69
-57.6758
10.953
0.574354
-0.201058
0.119412
0.192526
0.215792
0.241685
0.269573
0.297599
0.325474
0.353202
0.380786
0.408217
0.435484
0.462578
0.489487
0.516201
0.542711
0.569008
0.595082
0.620924
0.646526
0.67188
0.696977
0.721809
0.74637
0.770651
0.794646
0.818347
0.841748
0.864842
0.887624
0.910088
0.932229
0.95404
0.975518
0.996658
1.01745
1.0379
1.058
1.07775
1.09714
1.11617
1.13484
1.15314
1.17108
1.18865
1.20585
1.22268
1.23914
1.25522
1.27093
1.28627
1.30124
1.31583
1.33005
1.3439
1.35738
1.37048
1.38322
1.39559
1.40759
1.41923
1.4305
1.44142
1.45197
1.46216
1.472
1.48148
1.49061
1.49939
1.50783
1.51592
1.52366
1.53107
1.53813
1.54486
1.55126
1.55732
1.56305
1.56846
1.57354
1.5783
1.58273
1.58684
1.59064
1.59412
1.59728
1.60013
1.60267
1.60489
1.60682
1.60841
1.6095
1.61039
1.61719
1.59604
1.62144
147.69
-57.6731
10.9575
0.580576
-0.193061
0.129179
0.204059
0.229087
0.256735
0.286373
0.316142
0.345752
0.375207
0.404509
0.433649
0.462615
0.491396
0.519981
0.54836
0.576521
0.604456
0.632154
0.659606
0.686803
0.713736
0.740396
0.766776
0.792866
0.81866
0.844149
0.869326
0.894184
0.918717
0.942918
0.966781
0.9903
1.01347
1.03628
1.05874
1.08083
1.10256
1.12391
1.14488
1.16548
1.18569
1.20552
1.22497
1.24402
1.26268
1.28095
1.29883
1.31631
1.3334
1.35009
1.36638
1.38228
1.39778
1.41289
1.4276
1.44191
1.45583
1.46936
1.4825
1.49525
1.50761
1.51959
1.53118
1.54239
1.55321
1.56366
1.57374
1.58343
1.59276
1.60172
1.61031
1.61854
1.6264
1.63391
1.64106
1.64785
1.65429
1.66038
1.66612
1.67152
1.67657
1.68128
1.68565
1.68968
1.69338
1.69674
1.69977
1.70246
1.70483
1.70687
1.70857
1.70974
1.71066
1.71754
1.6963
1.72203
147.691
-57.6705
10.9619
0.586757
-0.185117
0.138882
0.215516
0.242294
0.271686
0.303063
0.334564
0.365897
0.397068
0.428077
0.458915
0.489568
0.520026
0.550276
0.580308
0.61011
0.639671
0.668983
0.698034
0.726816
0.755318
0.783531
0.811447
0.839057
0.866353
0.893327
0.91997
0.946277
0.972238
0.997849
1.0231
1.04799
1.07251
1.09665
1.12042
1.14379
1.16678
1.18938
1.21157
1.23337
1.25476
1.27574
1.29632
1.31648
1.33623
1.35556
1.37448
1.39298
1.41106
1.42872
1.44596
1.46279
1.47919
1.49517
1.51074
1.52589
1.54062
1.55494
1.56884
1.58233
1.59541
1.60808
1.62034
1.6322
1.64366
1.65472
1.66538
1.67564
1.68551
1.69499
1.70408
1.71279
1.72111
1.72905
1.73662
1.7438
1.75062
1.75706
1.76314
1.76885
1.77419
1.77918
1.7838
1.78807
1.79198
1.79554
1.79874
1.80159
1.80409
1.80625
1.80805
1.80931
1.81029
1.81712
1.79609
1.82187
147.692
-57.6678
10.9663
0.592894
-0.177229
0.148517
0.226893
0.255409
0.286534
0.319636
0.352857
0.385903
0.418777
0.451481
0.484005
0.516334
0.548456
0.58036
0.612033
0.643464
0.674642
0.705556
0.736196
0.76655
0.79661
0.826366
0.855808
0.884927
0.913715
0.942163
0.970263
0.998007
1.02539
1.0524
1.07903
1.10528
1.13114
1.1566
1.18166
1.20632
1.23056
1.25439
1.2778
1.30078
1.32334
1.34547
1.36717
1.38844
1.40926
1.42965
1.4496
1.46911
1.48818
1.5068
1.52499
1.54273
1.56003
1.57688
1.5933
1.60927
1.62481
1.63991
1.65457
1.6688
1.68259
1.69595
1.70889
1.72139
1.73348
1.74514
1.75638
1.7672
1.77761
1.7876
1.79719
1.80637
1.81515
1.82352
1.8315
1.83908
1.84627
1.85306
1.85947
1.86549
1.87113
1.87639
1.88126
1.88576
1.88989
1.89364
1.89702
1.90002
1.90266
1.90494
1.90684
1.90819
1.90922
1.91592
1.89535
1.92093
147.693
-57.6652
10.9707
0.598986
-0.169398
0.15808
0.238187
0.268427
0.301272
0.336088
0.371015
0.40576
0.440327
0.474713
0.50891
0.542902
0.576678
0.610223
0.643526
0.676574
0.709356
0.741861
0.774076
0.805993
0.837599
0.868886
0.899843
0.93046
0.960729
0.99064
1.02018
1.04936
1.07814
1.10654
1.13455
1.16214
1.18933
1.2161
1.24245
1.26838
1.29387
1.31892
1.34353
1.3677
1.39142
1.41469
1.4375
1.45986
1.48176
1.50319
1.52417
1.54468
1.56473
1.58431
1.60343
1.62208
1.64027
1.65799
1.67525
1.69204
1.70838
1.72425
1.73966
1.75462
1.76912
1.78317
1.79677
1.80992
1.82262
1.83488
1.8467
1.85808
1.86902
1.87953
1.88961
1.89926
1.90849
1.91729
1.92568
1.93365
1.9412
1.94835
1.95509
1.96142
1.96734
1.97287
1.978
1.98273
1.98706
1.99101
1.99456
1.99772
2.0005
2.00289
2.00489
2.00633
2.00743
2.01392
1.99399
2.01921
147.694
-57.6626
10.975
0.60503
-0.161629
0.16757
0.249392
0.281344
0.315895
0.352412
0.389033
0.425464
0.461709
0.497765
0.533622
0.569265
0.60468
0.639854
0.674774
0.709427
0.743801
0.777883
0.811663
0.845129
0.87827
0.911076
0.943536
0.975639
1.00738
1.03874
1.06972
1.10031
1.13049
1.16027
1.18963
1.21857
1.24708
1.27515
1.30278
1.32996
1.35668
1.38295
1.40876
1.4341
1.45897
1.48336
1.50728
1.53073
1.55369
1.57616
1.59815
1.61966
1.64068
1.66121
1.68125
1.70081
1.71988
1.73846
1.75655
1.77416
1.79129
1.80793
1.82409
1.83977
1.85498
1.86971
1.88397
1.89775
1.91107
1.92392
1.93631
1.94824
1.95971
1.97073
1.9813
1.99142
2.00109
2.01033
2.01912
2.02747
2.0354
2.04289
2.04995
2.05659
2.0628
2.0686
2.07397
2.07893
2.08348
2.08761
2.09134
2.09465
2.09757
2.10008
2.10217
2.1037
2.10488
2.1111
2.09196
2.11667
147.695
-57.6601
10.9793
0.611025
-0.153923
0.176982
0.260506
0.294156
0.330399
0.368602
0.406903
0.445007
0.482917
0.520629
0.558133
0.595413
0.632455
0.669244
0.705768
0.742012
0.777965
0.813613
0.848944
0.883947
0.91861
0.952922
0.986872
1.02045
1.05365
1.08645
1.11885
1.15084
1.18241
1.21356
1.24427
1.27453
1.30435
1.33371
1.3626
1.39103
1.41898
1.44646
1.47345
1.49995
1.52596
1.55148
1.57649
1.60101
1.62502
1.64853
1.67153
1.69402
1.71601
1.73748
1.75844
1.77889
1.79884
1.81827
1.83719
1.85561
1.87352
1.89092
1.90783
1.92423
1.94013
1.95553
1.97044
1.98486
1.99879
2.01223
2.02519
2.03766
2.04966
2.06119
2.07224
2.08282
2.09294
2.10259
2.11179
2.12052
2.12881
2.13664
2.14403
2.15097
2.15747
2.16353
2.16915
2.17434
2.1791
2.18342
2.18732
2.19079
2.19383
2.19646
2.19865
2.20027
2.20153
2.20745
2.18917
2.2133
147.696
-57.6575
10.9835
0.616969
-0.146283
0.186313
0.271525
0.306858
0.344779
0.384655
0.424621
0.464384
0.503943
0.543298
0.582434
0.621337
0.659992
0.698383
0.736496
0.774319
0.811837
0.849036
0.885906
0.922433
0.958605
0.99441
1.02984
1.06488
1.09952
1.13375
1.16756
1.20094
1.23389
1.26639
1.29843
1.33002
1.36113
1.39176
1.42192
1.45158
1.48075
1.50942
1.53758
1.56524
1.59238
1.61901
1.64511
1.67069
1.69575
1.72028
1.74428
1.76775
1.79068
1.81309
1.83496
1.8563
1.87711
1.89739
1.91714
1.93635
1.95504
1.9732
1.99084
2.00795
2.02454
2.04062
2.05617
2.07122
2.08575
2.09977
2.11329
2.12631
2.13883
2.15085
2.16239
2.17343
2.18398
2.19406
2.20365
2.21277
2.22141
2.22959
2.2373
2.24454
2.25132
2.25764
2.26351
2.26892
2.27389
2.2784
2.28246
2.28608
2.28926
2.292
2.29429
2.296
2.29734
2.30296
2.28558
2.30907
147.697
-57.655
10.9877
0.62286
-0.138712
0.195561
0.282446
0.319447
0.359031
0.400563
0.44218
0.483586
0.524782
0.565764
0.606518
0.64703
0.687282
0.727261
0.76695
0.806336
0.845405
0.884143
0.922537
0.960574
0.998241
1.03553
1.07242
1.10891
1.14498
1.18062
1.21583
1.2506
1.2849
1.31875
1.35211
1.385
1.4174
1.4493
1.4807
1.51159
1.54196
1.57182
1.60114
1.62994
1.6582
1.68593
1.71311
1.73975
1.76584
1.79138
1.81637
1.84081
1.86469
1.88802
1.9108
1.93302
1.95468
1.9758
1.99636
2.01637
2.03583
2.05474
2.0731
2.09092
2.10819
2.12493
2.14113
2.15679
2.17192
2.18652
2.2006
2.21416
2.22719
2.23971
2.25172
2.26321
2.27421
2.28469
2.29468
2.30418
2.31318
2.32169
2.32972
2.33726
2.34432
2.3509
2.35701
2.36265
2.36782
2.37251
2.37675
2.38052
2.38383
2.38668
2.38906
2.39086
2.39228
2.39758
2.38113
2.40397
147.697
-57.6525
10.9919
0.628695
-0.131211
0.204722
0.293264
0.331918
0.373149
0.416323
0.459576
0.50261
0.545426
0.58802
0.630377
0.672482
0.714318
0.755869
0.79712
0.838055
0.87866
0.918922
0.958826
0.998358
1.03751
1.07626
1.1146
1.15252
1.19002
1.22706
1.26366
1.29978
1.33544
1.37061
1.40529
1.43947
1.47314
1.5063
1.53893
1.57103
1.6026
1.63363
1.66411
1.69403
1.72341
1.75222
1.78047
1.80815
1.83527
1.86181
1.88778
1.91318
1.938
1.96224
1.98591
2.00901
2.03152
2.05346
2.07483
2.09563
2.11585
2.1355
2.15458
2.1731
2.19105
2.20844
2.22528
2.24155
2.25728
2.27245
2.28708
2.30117
2.31472
2.32773
2.3402
2.35215
2.36357
2.37447
2.38485
2.39472
2.40407
2.41292
2.42126
2.4291
2.43644
2.44328
2.44963
2.45548
2.46085
2.46574
2.47014
2.47406
2.4775
2.48046
2.48294
2.48483
2.48633
2.49132
2.47577
2.49798
147.698
-57.65
10.996
0.634474
-0.123784
0.213795
0.303977
0.344267
0.38713
0.43193
0.476801
0.521448
0.565868
0.610059
0.654004
0.697687
0.74109
0.784198
0.826995
0.869464
0.911591
0.953361
0.99476
1.03577
1.07639
1.11659
1.15637
1.19572
1.23461
1.27305
1.31101
1.34849
1.38548
1.42197
1.45795
1.49341
1.52834
1.56274
1.59659
1.6299
1.66264
1.69483
1.72645
1.7575
1.78797
1.81786
1.84716
1.87588
1.90401
1.93155
1.95849
1.98484
2.01059
2.03574
2.06029
2.08425
2.10761
2.13037
2.15253
2.1741
2.19508
2.21547
2.23526
2.25447
2.27309
2.29114
2.3086
2.32548
2.3418
2.35754
2.37271
2.38732
2.40138
2.41487
2.42781
2.44021
2.45206
2.46336
2.47413
2.48437
2.49407
2.50325
2.5119
2.52003
2.52764
2.53474
2.54132
2.5474
2.55297
2.55804
2.5626
2.56667
2.57024
2.57331
2.57589
2.57786
2.57944
2.58414
2.56947
2.59105
147.699
-57.6476
11.0001
0.640195
-0.116432
0.222775
0.314582
0.356491
0.400969
0.447378
0.493852
0.540095
0.586104
0.631874
0.67739
0.722635
0.767591
0.81224
0.856567
0.900554
0.944187
0.987451
1.03033
1.07281
1.11488
1.15652
1.19772
1.23847
1.27875
1.31856
1.35788
1.3967
1.43502
1.47281
1.51007
1.5468
1.58298
1.6186
1.65366
1.68816
1.72208
1.75541
1.78816
1.82031
1.85187
1.88283
1.91318
1.94292
1.97206
2.00057
2.02848
2.05576
2.08243
2.10848
2.13391
2.15872
2.18291
2.20648
2.22944
2.25178
2.2735
2.29461
2.31511
2.33501
2.35429
2.37298
2.39106
2.40855
2.42544
2.44174
2.45746
2.47259
2.48714
2.50112
2.51452
2.52736
2.53963
2.55134
2.56249
2.57309
2.58314
2.59264
2.6016
2.61002
2.61791
2.62526
2.63208
2.63837
2.64414
2.64939
2.65412
2.65833
2.66202
2.66521
2.66787
2.66994
2.67159
2.67601
2.66217
2.68317
147.7
-57.6451
11.0042
0.645855
-0.109157
0.23166
0.325074
0.368587
0.414662
0.462663
0.510724
0.558545
0.606125
0.653459
0.70053
0.747321
0.793812
0.839986
0.885826
0.931316
0.97644
1.02118
1.06552
1.10945
1.15296
1.19602
1.23863
1.28077
1.32243
1.3636
1.40426
1.4444
1.48402
1.52311
1.56164
1.59962
1.63703
1.67387
1.71013
1.7458
1.78088
1.81535
1.84921
1.88246
1.9151
1.94711
1.9785
2.00925
2.03938
2.06887
2.09772
2.12594
2.15351
2.18045
2.20674
2.2324
2.25741
2.28179
2.30552
2.32862
2.35109
2.37292
2.39411
2.41468
2.43463
2.45395
2.47265
2.49073
2.50819
2.52505
2.5413
2.55695
2.57199
2.58645
2.60031
2.61358
2.62626
2.63837
2.6499
2.66086
2.67125
2.68108
2.69034
2.69905
2.7072
2.7148
2.72186
2.72837
2.73433
2.73976
2.74465
2.749
2.75283
2.75612
2.75888
2.76102
2.76276
2.76692
2.75385
2.77432
147.701
-57.6427
11.0082
0.651454
-0.101962
0.240448
0.335452
0.380549
0.428205
0.477781
0.52741
0.576793
0.625928
0.674808
0.723417
0.771735
0.819745
0.867427
0.914765
0.961741
1.00834
1.05454
1.10033
1.1457
1.19062
1.23509
1.27909
1.32261
1.36563
1.40814
1.45013
1.49158
1.53249
1.57285
1.61264
1.65186
1.6905
1.72854
1.76598
1.80281
1.83903
1.87462
1.90959
1.94393
1.97762
2.01068
2.04309
2.07485
2.10595
2.1364
2.1662
2.19533
2.2238
2.25162
2.27877
2.30526
2.33109
2.35626
2.38076
2.40461
2.42781
2.45035
2.47224
2.49348
2.51407
2.53402
2.55332
2.57199
2.59003
2.60743
2.62421
2.64037
2.6559
2.67082
2.68513
2.69884
2.71194
2.72444
2.73634
2.74766
2.75839
2.76853
2.7781
2.78709
2.79551
2.80336
2.81064
2.81736
2.82352
2.82912
2.83417
2.83867
2.84262
2.84602
2.84887
2.8511
2.85291
2.85683
2.84448
2.86447
147.701
-57.6404
11.0121
0.656989
-0.0948483
0.249137
0.345711
0.392376
0.441595
0.492727
0.543907
0.594834
0.645505
0.695914
0.746043
0.795872
0.845383
0.894557
0.943375
0.991819
1.03987
1.08752
1.13474
1.18153
1.22786
1.27371
1.31909
1.36396
1.40833
1.45217
1.49547
1.53822
1.58041
1.62203
1.66306
1.70351
1.74335
1.78257
1.82118
1.85917
1.89651
1.93322
1.96928
2.00469
2.03944
2.07352
2.10694
2.13969
2.17177
2.20317
2.23389
2.26393
2.29329
2.32197
2.34997
2.37728
2.40392
2.42987
2.45514
2.47973
2.50365
2.52689
2.54946
2.57136
2.59259
2.61316
2.63307
2.65232
2.67092
2.68886
2.70616
2.72282
2.73884
2.75423
2.76898
2.78311
2.79662
2.80951
2.82179
2.83345
2.84452
2.85498
2.86484
2.87411
2.88279
2.89088
2.89839
2.90532
2.91168
2.91746
2.92266
2.9273
2.93137
2.93488
2.93782
2.94013
2.94201
2.94573
2.93403
2.95358
147.702
-57.638
11.016
0.662459
-0.0878185
0.257723
0.355851
0.404064
0.454826
0.507498
0.560209
0.612662
0.664852
0.716771
0.768402
0.819725
0.870719
0.921366
0.971647
1.02154
1.07104
1.12011
1.16875
1.21693
1.26465
1.31188
1.35861
1.40483
1.45053
1.49568
1.54028
1.58431
1.62776
1.67062
1.71289
1.75454
1.79557
1.83597
1.87574
1.91486
1.95332
1.99112
2.02826
2.06473
2.10051
2.13562
2.17004
2.20376
2.2368
2.26914
2.30078
2.33171
2.36195
2.39149
2.42032
2.44845
2.47588
2.5026
2.52863
2.55396
2.57859
2.60252
2.62577
2.64832
2.67018
2.69137
2.71187
2.73169
2.75084
2.76932
2.78714
2.80429
2.82079
2.83663
2.85183
2.86638
2.88029
2.89356
2.90621
2.91822
2.92961
2.94039
2.95054
2.96009
2.96903
2.97736
2.9851
2.99224
2.99878
3.00473
3.0101
3.01487
3.01907
3.02268
3.02571
3.02809
3.03005
3.03358
3.02247
3.04164
147.703
-57.6357
11.0199
0.667862
-0.0808744
0.266205
0.365866
0.415609
0.467897
0.522088
0.576313
0.630273
0.683963
0.737374
0.790489
0.843287
0.895746
0.947849
0.999574
1.0509
1.10182
1.1523
1.20234
1.25191
1.30099
1.34958
1.39766
1.44521
1.49221
1.53866
1.58453
1.62983
1.67453
1.71862
1.7621
1.80495
1.84716
1.88872
1.92962
1.96986
2.00943
2.04832
2.08652
2.12403
2.16084
2.19695
2.23236
2.26705
2.30103
2.33429
2.36684
2.39866
2.42977
2.46015
2.48981
2.51874
2.54695
2.57444
2.60121
2.62727
2.6526
2.67722
2.70113
2.72432
2.74681
2.7686
2.78969
2.81008
2.82978
2.84879
2.86711
2.88475
2.90172
2.91802
2.93365
2.94861
2.96292
2.97658
2.98958
3.00194
3.01366
3.02474
3.03519
3.045
3.0542
3.06277
3.07073
3.07807
3.0848
3.09093
3.09644
3.10136
3.10567
3.10939
3.1125
3.11497
3.11699
3.12036
3.10979
3.12863
147.704
-57.6334
11.0237
0.673198
-0.0740178
0.274579
0.375755
0.427009
0.480802
0.536494
0.592214
0.647662
0.702833
0.757717
0.812297
0.866551
0.920458
0.973997
1.02715
1.07989
1.13221
1.18409
1.2355
1.28644
1.33688
1.38681
1.43621
1.48506
1.53336
1.58109
1.62823
1.67478
1.72071
1.76602
1.81069
1.85472
1.89809
1.94079
1.98282
2.02417
2.06483
2.10478
2.14404
2.18258
2.2204
2.25751
2.29388
2.32953
2.36444
2.39862
2.43206
2.46476
2.49672
2.52793
2.55841
2.58814
2.61712
2.64537
2.67287
2.69964
2.72567
2.75096
2.77553
2.79936
2.82247
2.84485
2.86652
2.88747
2.9077
2.92723
2.94606
2.96419
2.98162
2.99836
3.01442
3.0298
3.0445
3.05853
3.07189
3.08458
3.09662
3.10801
3.11874
3.12883
3.13828
3.14709
3.15526
3.16281
3.16972
3.17601
3.18168
3.18674
3.19117
3.19499
3.19819
3.20073
3.20282
3.20605
3.19596
3.21451
147.704
-57.6311
11.0275
0.678463
-0.0672504
0.282845
0.385516
0.43826
0.49354
0.550712
0.607907
0.664824
0.721456
0.777795
0.833821
0.889512
0.944846
0.999803
1.05436
1.10851
1.16221
1.21546
1.26824
1.32052
1.3723
1.42355
1.47425
1.5244
1.57398
1.62297
1.67136
1.71913
1.76628
1.81279
1.85864
1.90383
1.94835
1.99218
2.03533
2.07777
2.1195
2.16051
2.2008
2.24036
2.27918
2.31727
2.3546
2.39119
2.42703
2.46211
2.49643
2.52999
2.56279
2.59483
2.6261
2.65662
2.68637
2.71536
2.74359
2.77106
2.79777
2.82373
2.84894
2.8734
2.89712
2.92009
2.94233
2.96383
2.9846
3.00464
3.02397
3.04257
3.06046
3.07765
3.09413
3.10991
3.12499
3.13939
3.1531
3.16614
3.17849
3.19018
3.20119
3.21155
3.22124
3.23029
3.23868
3.24642
3.25352
3.25998
3.2658
3.27098
3.27553
3.27946
3.28274
3.28536
3.28751
3.29062
3.28096
3.29926
147.705
-57.6289
11.0312
0.683659
-0.0605741
0.290999
0.395145
0.44936
0.506106
0.564739
0.623389
0.681755
0.739829
0.797603
0.855055
0.912163
0.968907
1.02526
1.08121
1.13673
1.1918
1.24641
1.30053
1.35414
1.40723
1.45979
1.51179
1.56321
1.61405
1.66429
1.71391
1.76289
1.81124
1.85893
1.90595
1.95229
1.99793
2.04288
2.08712
2.13064
2.17343
2.21548
2.25679
2.29736
2.33716
2.37621
2.4145
2.45201
2.48876
2.52473
2.55992
2.59433
2.62796
2.66081
2.69288
2.72417
2.75467
2.78439
2.81334
2.84151
2.8689
2.89551
2.92136
2.94644
2.97076
2.99431
3.01711
3.03915
3.06045
3.081
3.10081
3.11989
3.13823
3.15585
3.17274
3.18892
3.20439
3.21915
3.23321
3.24657
3.25924
3.27122
3.28252
3.29313
3.30308
3.31235
3.32095
3.32889
3.33617
3.34279
3.34876
3.35408
3.35875
3.36277
3.36614
3.36883
3.37104
3.37404
3.36478
3.38286
147.706
-57.6267
11.0349
0.688782
-0.0539904
0.299041
0.40464