/*--------------------------------*- C++ -*----------------------------------*\
  =========                 |
  \\      /  F ield         | OpenFOAM: The Open Source CFD Toolbox
   \\    /   O peration     | Website:  https://openfoam.org
    \\  /    A nd           | Version:  10
     \\/     M anipulation  |
\*---------------------------------------------------------------------------*/
FoamFile
{
    format      ascii;
    class       volScalarField;
    location    "35";
    object      T_0;
}
// * * * * * * * * * * * * * * * * * * * * * * * * * * * * * * * * * * * * * //

dimensions      [0 0 0 1 0 0 0];

internalField   nonuniform List<scalar> 
10000
(
374.985
361.295
356.619
354.572
353.463
352.765
352.28
351.92
351.639
351.412
351.223
351.062
350.923
350.801
350.692
350.593
350.503
350.421
350.345
350.273
350.207
350.144
350.085
350.028
349.975
349.923
349.874
349.827
349.781
349.738
349.695
349.654
349.614
349.576
349.538
349.502
349.466
349.431
349.398
349.365
349.333
349.302
349.271
349.241
349.212
349.184
349.156
349.129
349.102
349.077
349.051
349.027
349.003
348.979
348.956
348.934
348.912
348.891
348.87
348.85
348.83
348.811
348.792
348.774
348.757
348.739
348.723
348.707
348.691
348.676
348.662
348.648
348.634
348.621
348.609
348.597
348.585
348.574
348.563
348.553
348.544
348.535
348.526
348.518
348.511
348.503
348.497
348.491
348.485
348.48
348.475
348.471
348.468
348.464
348.462
348.459
348.458
348.456
348.456
348.456
388.619
374.873
367.229
362.778
359.979
358.084
356.717
355.681
354.863
354.198
353.641
353.167
352.754
352.39
352.065
351.772
351.504
351.258
351.03
350.817
350.618
350.431
350.253
350.084
349.924
349.77
349.623
349.481
349.345
349.213
349.086
348.963
348.843
348.727
348.615
348.506
348.399
348.295
348.194
348.096
348
347.906
347.814
347.725
347.638
347.553
347.469
347.388
347.309
347.231
347.155
347.081
347.009
346.939
346.87
346.803
346.737
346.673
346.611
346.551
346.492
346.434
346.378
346.324
346.271
346.22
346.17
346.122
346.076
346.03
345.987
345.945
345.904
345.865
345.828
345.792
345.757
345.724
345.692
345.662
345.633
345.606
345.581
345.556
345.534
345.512
345.492
345.474
345.457
345.442
345.428
345.415
345.404
345.395
345.387
345.38
345.375
345.371
345.369
345.368
393.239
382.346
374.646
369.33
365.593
362.874
360.823
359.223
357.936
356.874
355.978
355.209
354.536
353.941
353.408
352.925
352.484
352.077
351.7
351.349
351.019
350.707
350.413
350.133
349.866
349.611
349.366
349.13
348.903
348.685
348.473
348.268
348.07
347.877
347.69
347.508
347.33
347.158
346.989
346.825
346.665
346.509
346.357
346.208
346.063
345.921
345.782
345.647
345.514
345.385
345.259
345.136
345.015
344.898
344.783
344.672
344.562
344.456
344.352
344.252
344.153
344.058
343.964
343.874
343.786
343.701
343.618
343.538
343.46
343.385
343.312
343.242
343.175
343.11
343.047
342.987
342.929
342.874
342.821
342.771
342.723
342.678
342.635
342.595
342.557
342.522
342.489
342.458
342.43
342.404
342.381
342.36
342.342
342.326
342.312
342.301
342.293
342.287
342.283
342.282
395.229
386.627
379.678
374.306
370.187
366.997
364.48
362.452
360.784
359.385
358.19
357.154
356.243
355.431
354.701
354.038
353.43
352.868
352.347
351.859
351.402
350.969
350.56
350.17
349.799
349.443
349.101
348.773
348.457
348.151
347.856
347.57
347.293
347.024
346.762
346.507
346.26
346.018
345.783
345.554
345.33
345.112
344.899
344.691
344.488
344.289
344.095
343.906
343.721
343.54
343.363
343.191
343.023
342.858
342.698
342.542
342.389
342.24
342.095
341.954
341.816
341.682
341.552
341.426
341.303
341.183
341.067
340.955
340.847
340.741
340.64
340.542
340.447
340.356
340.268
340.184
340.104
340.026
339.953
339.882
339.816
339.752
339.692
339.636
339.583
339.533
339.487
339.444
339.405
339.369
339.336
339.307
339.282
339.259
339.24
339.225
339.213
339.204
339.199
339.197
396.281
389.256
383.133
378.029
373.853
370.447
367.648
365.323
363.365
361.693
360.245
358.976
357.851
356.842
355.929
355.096
354.331
353.622
352.961
352.343
351.761
351.211
350.689
350.192
349.718
349.263
348.827
348.407
348.002
347.611
347.233
346.867
346.511
346.166
345.831
345.504
345.186
344.877
344.575
344.281
343.994
343.714
343.44
343.173
342.912
342.657
342.408
342.165
341.927
341.695
341.468
341.247
341.031
340.82
340.614
340.413
340.217
340.026
339.839
339.658
339.481
339.309
339.142
338.979
338.821
338.668
338.519
338.375
338.235
338.1
337.97
337.843
337.722
337.605
337.492
337.384
337.281
337.181
337.087
336.996
336.91
336.829
336.752
336.679
336.611
336.547
336.488
336.433
336.382
336.336
336.294
336.257
336.224
336.195
336.171
336.151
336.136
336.125
336.118
336.116
396.923
390.982
385.569
380.823
376.752
373.289
370.344
367.828
365.661
363.777
362.123
360.656
359.343
358.158
357.08
356.09
355.177
354.329
353.537
352.793
352.092
351.428
350.797
350.196
349.621
349.069
348.54
348.03
347.538
347.062
346.602
346.156
345.724
345.303
344.895
344.497
344.11
343.733
343.365
343.006
342.656
342.314
341.98
341.654
341.336
341.025
340.721
340.424
340.134
339.851
339.574
339.304
339.04
338.782
338.531
338.286
338.046
337.813
337.585
337.364
337.148
336.938
336.734
336.535
336.342
336.155
335.973
335.797
335.627
335.462
335.302
335.148
335
334.857
334.719
334.587
334.461
334.34
334.224
334.114
334.009
333.909
333.815
333.726
333.643
333.565
333.493
333.426
333.364
333.307
333.256
333.211
333.17
333.135
333.106
333.082
333.063
333.049
333.041
333.038
397.351
392.179
387.337
382.945
379.043
375.614
372.613
369.985
367.675
365.633
363.814
362.184
360.711
359.371
358.143
357.011
355.962
354.983
354.067
353.204
352.388
351.615
350.879
350.176
349.504
348.858
348.237
347.639
347.062
346.503
345.962
345.438
344.929
344.434
343.953
343.485
343.029
342.585
342.151
341.729
341.316
340.913
340.519
340.135
339.76
339.393
339.034
338.684
338.342
338.008
337.681
337.362
337.051
336.747
336.45
336.16
335.878
335.602
335.334
335.072
334.818
334.57
334.329
334.094
333.866
333.645
333.431
333.223
333.022
332.827
332.639
332.457
332.282
332.113
331.95
331.794
331.645
331.502
331.365
331.235
331.111
330.994
330.883
330.778
330.68
330.588
330.502
330.423
330.35
330.283
330.223
330.169
330.121
330.08
330.045
330.016
329.994
329.978
329.969
329.965
397.655
393.047
388.656
384.579
380.861
377.511
374.509
371.826
369.424
367.267
365.321
363.557
361.948
360.473
359.113
357.853
356.679
355.58
354.546
353.571
352.647
351.769
350.932
350.132
349.364
348.627
347.918
347.233
346.572
345.932
345.312
344.71
344.126
343.559
343.006
342.468
341.944
341.433
340.935
340.448
339.974
339.51
339.057
338.615
338.183
337.761
337.348
336.945
336.551
336.166
335.79
335.422
335.064
334.713
334.371
334.038
333.712
333.395
333.085
332.784
332.49
332.205
331.927
331.657
331.394
331.139
330.892
330.653
330.421
330.196
329.979
329.77
329.568
329.373
329.186
329.006
328.834
328.669
328.512
328.361
328.219
328.083
327.955
327.835
327.721
327.615
327.516
327.425
327.341
327.264
327.195
327.132
327.078
327.03
326.99
326.957
326.931
326.913
326.901
326.898
397.88
393.695
389.662
385.854
382.314
379.061
376.09
373.387
370.929
368.691
366.648
364.777
363.055
361.464
359.988
358.612
357.324
356.114
354.972
353.892
352.865
351.888
350.954
350.059
349.201
348.375
347.579
346.81
346.067
345.348
344.65
343.973
343.315
342.675
342.052
341.445
340.854
340.277
339.714
339.165
338.629
338.105
337.594
337.094
336.605
336.128
335.662
335.206
334.76
334.325
333.9
333.484
333.078
332.682
332.295
331.918
331.549
331.19
330.84
330.499
330.167
329.844
329.529
329.223
328.926
328.638
328.358
328.087
327.824
327.57
327.325
327.088
326.859
326.639
326.427
326.224
326.028
325.842
325.664
325.494
325.332
325.179
325.034
324.897
324.769
324.649
324.537
324.433
324.338
324.251
324.173
324.102
324.04
323.986
323.941
323.903
323.874
323.853
323.841
323.836
398.051
394.193
390.444
386.861
383.482
380.329
377.405
374.705
372.217
369.924
367.807
365.85
364.034
362.344
360.766
359.287
357.897
356.585
355.343
354.163
353.04
351.968
350.942
349.957
349.011
348.099
347.219
346.369
345.546
344.749
343.975
343.224
342.493
341.782
341.09
340.415
339.758
339.116
338.49
337.879
337.282
336.699
336.129
335.572
335.028
334.496
333.976
333.468
332.971
332.485
332.011
331.548
331.095
330.653
330.222
329.801
329.39
328.989
328.599
328.218
327.848
327.487
327.136
326.795
326.463
326.142
325.829
325.527
325.234
324.95
324.676
324.411
324.156
323.91
323.674
323.447
323.229
323.021
322.822
322.632
322.452
322.281
322.119
321.966
321.823
321.689
321.564
321.449
321.342
321.245
321.158
321.079
321.01
320.95
320.899
320.857
320.824
320.801
320.787
320.782
398.184
394.581
391.06
387.664
384.427
381.368
378.497
375.814
373.312
370.982
368.81
366.784
364.89
363.116
361.449
359.879
358.395
356.99
355.655
354.384
353.17
352.009
350.895
349.824
348.793
347.799
346.838
345.909
345.008
344.135
343.287
342.463
341.661
340.881
340.12
339.379
338.656
337.95
337.262
336.589
335.932
335.29
334.662
334.049
333.449
332.863
332.29
331.73
331.183
330.648
330.125
329.614
329.115
328.628
328.152
327.688
327.235
326.793
326.362
325.942
325.533
325.135
324.748
324.372
324.006
323.651
323.306
322.972
322.649
322.336
322.034
321.742
321.46
321.189
320.928
320.677
320.437
320.207
319.987
319.778
319.579
319.39
319.211
319.043
318.885
318.737
318.599
318.472
318.354
318.247
318.15
318.064
317.987
317.921
317.864
317.818
317.783
317.757
317.741
317.736
398.289
394.889
391.551
388.31
385.195
382.223
379.405
376.744
374.239
371.885
369.671
367.591
365.632
363.785
362.04
360.389
358.821
357.331
355.911
354.554
353.255
352.009
350.811
349.659
348.547
347.473
346.434
345.428
344.452
343.505
342.585
341.689
340.818
339.969
339.142
338.335
337.548
336.779
336.029
335.295
334.579
333.879
333.194
332.525
331.871
331.231
330.606
329.994
329.396
328.812
328.241
327.683
327.138
326.606
326.086
325.578
325.083
324.6
324.13
323.671
323.224
322.789
322.366
321.954
321.554
321.166
320.79
320.425
320.071
319.729
319.398
319.079
318.771
318.474
318.189
317.915
317.652
317.401
317.161
316.932
316.714
316.507
316.312
316.128
315.955
315.793
315.643
315.503
315.375
315.258
315.152
315.057
314.973
314.901
314.839
314.789
314.749
314.721
314.704
314.698
398.372
395.135
391.945
388.833
385.82
382.925
380.157
377.521
375.02
372.649
370.404
368.279
366.266
364.357
362.544
360.819
359.177
357.609
356.109
354.673
353.294
351.968
350.692
349.46
348.271
347.121
346.006
344.926
343.877
342.859
341.868
340.903
339.964
339.048
338.155
337.284
336.433
335.602
334.791
333.998
333.223
332.465
331.725
331
330.292
329.599
328.922
328.259
327.612
326.979
326.36
325.755
325.164
324.587
324.024
323.474
322.937
322.413
321.903
321.405
320.92
320.449
319.99
319.543
319.11
318.689
318.28
317.884
317.5
317.129
316.77
316.424
316.09
315.768
315.458
315.161
314.876
314.603
314.342
314.094
313.858
313.634
313.422
313.222
313.034
312.859
312.695
312.544
312.405
312.277
312.162
312.059
311.969
311.89
311.823
311.769
311.726
311.695
311.677
311.671
398.439
395.332
392.263
389.257
386.331
383.501
380.778
378.168
375.672
373.291
371.022
368.86
366.801
364.837
362.964
361.175
359.464
357.824
356.252
354.741
353.287
351.887
350.535
349.229
347.966
346.742
345.555
344.403
343.284
342.195
341.135
340.103
339.097
338.116
337.159
336.225
335.312
334.42
333.549
332.697
331.864
331.05
330.254
329.475
328.713
327.968
327.239
326.526
325.829
325.148
324.482
323.831
323.194
322.573
321.966
321.374
320.795
320.231
319.681
319.145
318.623
318.115
317.62
317.139
316.672
316.218
315.778
315.351
314.938
314.537
314.151
313.777
313.417
313.07
312.737
312.416
312.109
311.815
311.534
311.266
311.011
310.769
310.541
310.326
310.123
309.934
309.758
309.595
309.444
309.307
309.183
309.072
308.974
308.89
308.818
308.759
308.713
308.68
308.66
308.653
398.493
395.492
392.521
389.601
386.748
383.974
381.29
378.702
376.214
373.825
371.536
369.344
367.244
365.234
363.307
361.459
359.685
357.981
356.341
354.761
353.237
351.765
350.343
348.966
347.631
346.337
345.08
343.859
342.671
341.514
340.388
339.29
338.219
337.174
336.154
335.158
334.184
333.232
332.302
331.392
330.503
329.633
328.781
327.949
327.134
326.337
325.557
324.795
324.049
323.32
322.607
321.91
321.229
320.563
319.913
319.279
318.659
318.055
317.466
316.892
316.333
315.788
315.258
314.743
314.242
313.756
313.284
312.827
312.383
311.955
311.54
311.14
310.754
310.382
310.024
309.681
309.351
309.036
308.735
308.448
308.175
307.916
307.671
307.44
307.223
307.02
306.831
306.656
306.495
306.348
306.215
306.096
305.991
305.9
305.823
305.76
305.711
305.676
305.654
305.647
398.537
395.621
392.729
389.88
387.086
384.36
381.709
379.141
376.659
374.265
371.959
369.74
367.605
365.552
363.577
361.676
359.845
358.08
356.377
354.733
353.143
351.604
350.114
348.669
347.267
345.905
344.581
343.293
342.039
340.817
339.625
338.463
337.329
336.222
335.14
334.083
333.049
332.039
331.051
330.084
329.139
328.213
327.308
326.422
325.555
324.707
323.877
323.066
322.271
321.495
320.735
319.993
319.267
318.558
317.866
317.19
316.53
315.886
315.258
314.646
314.05
313.469
312.904
312.354
311.821
311.302
310.799
310.311
309.839
309.381
308.939
308.512
308.101
307.704
307.322
306.956
306.605
306.268
305.947
305.641
305.349
305.073
304.812
304.566
304.334
304.118
303.916
303.729
303.558
303.401
303.259
303.132
303.02
302.923
302.841
302.773
302.721
302.683
302.661
302.653
398.572
395.724
392.897
390.105
387.36
384.672
382.049
379.497
377.02
374.62
372.299
370.057
367.891
365.8
363.781
361.831
359.947
358.126
356.365
354.659
353.007
351.406
349.851
348.342
346.875
345.448
344.059
342.706
341.388
340.102
338.848
337.623
336.427
335.259
334.117
333
331.908
330.84
329.795
328.772
327.772
326.792
325.834
324.896
323.977
323.079
322.199
321.339
320.497
319.673
318.868
318.081
317.311
316.559
315.824
315.107
314.407
313.723
313.057
312.407
311.774
311.158
310.558
309.975
309.408
308.857
308.323
307.805
307.304
306.818
306.348
305.895
305.458
305.037
304.632
304.242
303.869
303.512
303.171
302.845
302.536
302.243
301.965
301.703
301.457
301.227
301.013
300.815
300.633
300.466
300.316
300.181
300.062
299.958
299.871
299.8
299.744
299.704
299.68
299.671
398.6
395.807
393.032
390.286
387.58
384.923
382.321
379.781
377.308
374.903
372.568
370.303
368.108
365.982
363.922
361.928
359.995
358.122
356.305
354.543
352.832
351.17
349.555
347.984
346.454
344.965
343.514
342.099
340.718
339.371
338.055
336.77
335.513
334.285
333.085
331.91
330.76
329.636
328.535
327.457
326.403
325.37
324.359
323.369
322.4
321.452
320.523
319.615
318.726
317.856
317.005
316.173
315.36
314.565
313.789
313.031
312.29
311.568
310.863
310.177
309.507
308.856
308.221
307.605
307.005
306.423
305.858
305.31
304.779
304.265
303.769
303.289
302.827
302.381
301.952
301.541
301.146
300.768
300.407
300.062
299.735
299.424
299.131
298.854
298.594
298.35
298.124
297.914
297.721
297.545
297.385
297.243
297.117
297.007
296.915
296.839
296.78
296.738
296.712
296.703
398.622
395.872
393.138
390.428
387.753
385.12
382.535
380.004
377.532
375.12
372.771
370.485
368.264
366.105
364.007
361.971
359.992
358.07
356.201
354.385
352.619
350.9
349.226
347.596
346.007
344.458
342.946
341.471
340.03
338.623
337.248
335.903
334.588
333.302
332.044
330.812
329.607
328.426
327.271
326.139
325.031
323.946
322.883
321.843
320.824
319.826
318.85
317.894
316.958
316.043
315.147
314.271
313.415
312.578
311.76
310.961
310.182
309.421
308.678
307.955
307.249
306.563
305.894
305.244
304.612
303.998
303.403
302.825
302.266
301.724
301.201
300.695
300.207
299.737
299.285
298.851
298.435
298.036
297.656
297.293
296.947
296.62
296.31
296.018
295.744
295.487
295.248
295.027
294.823
294.637
294.469
294.319
294.186
294.071
293.973
293.893
293.831
293.786
293.759
293.75
398.639
395.923
393.22
390.539
387.887
385.272
382.699
380.174
377.7
375.28
372.917
370.611
368.363
366.173
364.041
361.964
359.942
357.974
356.056
354.189
352.37
350.596
348.867
347.18
345.534
343.927
342.357
340.824
339.325
337.859
336.426
335.024
333.652
332.309
330.995
329.708
328.447
327.212
326.003
324.819
323.658
322.521
321.408
320.317
319.249
318.203
317.179
316.176
315.194
314.234
313.294
312.375
311.476
310.597
309.739
308.9
308.081
307.282
306.502
305.742
305.001
304.279
303.577
302.894
302.23
301.585
300.959
300.352
299.764
299.195
298.645
298.113
297.601
297.107
296.632
296.175
295.737
295.318
294.918
294.537
294.174
293.829
293.504
293.197
292.908
292.638
292.387
292.154
291.94
291.745
291.568
291.41
291.27
291.149
291.046
290.962
290.897
290.85
290.822
290.812
398.652
395.962
393.282
390.622
387.987
385.385
382.819
380.296
377.818
375.39
373.011
370.685
368.413
366.193
364.026
361.912
359.849
357.836
355.873
353.957
352.086
350.261
348.478
346.737
345.036
343.373
341.747
340.158
338.602
337.081
335.591
334.133
332.706
331.307
329.938
328.596
327.282
325.994
324.732
323.495
322.284
321.096
319.933
318.793
317.676
316.583
315.511
314.462
313.435
312.43
311.447
310.485
309.544
308.624
307.725
306.846
305.989
305.152
304.335
303.539
302.763
302.007
301.271
300.555
299.859
299.183
298.527
297.891
297.275
296.678
296.102
295.545
295.007
294.49
293.991
293.513
293.054
292.615
292.195
291.795
291.415
291.054
290.712
290.39
290.088
289.805
289.541
289.298
289.073
288.868
288.683
288.517
288.37
288.243
288.136
288.048
287.979
287.93
287.9
287.89
398.662
395.99
393.327
390.682
388.059
385.464
382.902
380.378
377.894
375.454
373.061
370.714
368.417
366.168
363.969
361.818
359.716
357.661
355.653
353.69
351.772
349.896
348.062
346.269
344.514
342.798
341.118
339.474
337.864
336.287
334.743
333.231
331.749
330.297
328.874
327.479
326.112
324.771
323.458
322.17
320.908
319.671
318.458
317.27
316.106
314.965
313.847
312.753
311.681
310.632
309.606
308.601
307.619
306.658
305.719
304.802
303.906
303.031
302.178
301.346
300.535
299.745
298.976
298.228
297.5
296.794
296.108
295.443
294.799
294.175
293.572
292.99
292.428
291.887
291.366
290.865
290.386
289.926
289.487
289.069
288.671
288.293
287.936
287.6
287.283
286.987
286.712
286.457
286.222
286.008
285.814
285.64
285.487
285.354
285.242
285.149
285.078
285.026
284.995
284.984
398.668
396.009
393.358
390.721
388.105
385.513
382.952
380.423
377.931
375.479
373.069
370.702
368.38
366.103
363.872
361.686
359.546
357.451
355.4
353.393
351.427
349.504
347.62
345.776
343.971
342.202
340.47
338.773
337.11
335.48
333.883
332.318
330.783
329.278
327.802
326.355
324.937
323.545
322.181
320.843
319.532
318.246
316.985
315.749
314.538
313.351
312.188
311.048
309.933
308.84
307.771
306.725
305.701
304.7
303.722
302.766
301.832
300.921
300.031
299.164
298.318
297.495
296.693
295.913
295.154
294.417
293.702
293.009
292.337
291.686
291.057
290.449
289.863
289.299
288.755
288.233
287.733
287.253
286.795
286.359
285.944
285.55
285.177
284.826
284.496
284.187
283.899
283.633
283.388
283.164
282.962
282.781
282.621
282.482
282.365
282.269
282.194
282.14
282.108
282.096
398.672
396.02
393.375
390.743
388.129
385.537
382.972
380.437
377.935
375.469
373.042
370.654
368.307
366.002
363.74
361.52
359.343
357.209
355.116
353.066
351.056
349.085
347.154
345.262
343.407
341.588
339.805
338.056
336.342
334.661
333.012
331.394
329.808
328.251
326.725
325.227
323.758
322.316
320.902
319.515
318.155
316.821
315.513
314.23
312.973
311.74
310.532
309.349
308.19
307.055
305.943
304.856
303.792
302.751
301.734
300.74
299.769
298.821
297.895
296.993
296.113
295.256
294.422
293.61
292.821
292.054
291.31
290.588
289.889
289.212
288.557
287.924
287.314
286.726
286.16
285.617
285.096
284.597
284.12
283.665
283.233
282.823
282.435
282.069
281.725
281.404
281.104
280.827
280.572
280.339
280.128
279.94
279.773
279.629
279.506
279.406
279.328
279.272
279.239
279.227
398.673
396.024
393.381
390.749
388.134
385.539
382.967
380.423
377.909
375.428
372.982
370.572
368.2
365.868
363.575
361.322
359.109
356.937
354.805
352.712
350.658
348.643
346.666
344.726
342.823
340.955
339.123
337.325
335.56
333.829
332.129
330.461
328.825
327.218
325.641
324.094
322.575
321.085
319.622
318.187
316.779
315.398
314.043
312.714
311.411
310.134
308.882
307.655
306.453
305.276
304.123
302.995
301.891
300.811
299.755
298.724
297.716
296.732
295.771
294.834
293.921
293.031
292.164
291.321
290.502
289.705
288.932
288.182
287.456
286.752
286.072
285.415
284.781
284.17
283.582
283.017
282.476
281.957
281.462
280.989
280.54
280.114
279.71
279.33
278.973
278.639
278.328
278.039
277.774
277.532
277.313
277.117
276.944
276.794
276.667
276.563
276.482
276.424
276.388
276.376
398.673
396.022
393.377
390.742
388.122
385.521
382.94
380.385
377.857
375.359
372.893
370.461
368.064
365.704
363.381
361.095
358.847
356.638
354.467
352.333
350.237
348.179
346.157
344.171
342.221
340.307
338.426
336.58
334.766
332.986
331.237
329.52
327.834
326.178
324.553
322.957
321.389
319.851
318.341
316.858
315.404
313.976
312.575
311.201
309.854
308.532
307.237
305.967
304.723
303.504
302.311
301.143
299.999
298.881
297.787
296.718
295.674
294.654
293.659
292.688
291.741
290.819
289.921
289.047
288.197
287.371
286.569
285.792
285.038
284.309
283.603
282.922
282.264
281.631
281.021
280.435
279.873
279.335
278.822
278.331
277.865
277.423
277.005
276.61
276.24
275.893
275.57
275.271
274.996
274.745
274.518
274.314
274.134
273.979
273.847
273.739
273.655
273.594
273.558
273.545
398.671
396.015
393.365
390.724
388.096
385.485
382.894
380.325
377.781
375.265
372.779
370.324
367.902
365.514
363.16
360.842
358.56
356.314
354.105
351.932
349.795
347.694
345.629
343.599
341.603
339.642
337.715
335.822
333.961
332.132
330.336
328.571
326.837
325.133
323.46
321.816
320.201
318.616
317.059
315.53
314.03
312.556
311.111
309.692
308.301
306.936
305.598
304.286
303.001
301.741
300.507
299.3
298.118
296.961
295.83
294.724
293.644
292.589
291.559
290.555
289.575
288.62
287.691
286.786
285.907
285.052
284.222
283.417
282.637
281.882
281.151
280.446
279.765
279.109
278.477
277.871
277.289
276.732
276.2
275.692
275.21
274.751
274.318
273.91
273.526
273.167
272.832
272.523
272.238
271.978
271.742
271.531
271.345
271.184
271.047
270.936
270.848
270.786
270.748
270.735
398.667
396.004
393.345
390.695
388.057
385.434
382.83
380.246
377.685
375.15
372.642
370.163
367.715
365.299
362.916
360.566
358.25
355.969
353.722
351.51
349.333
347.191
345.083
343.009
340.97
338.964
336.992
335.052
333.145
331.27
329.427
327.615
325.834
324.083
322.363
320.673
319.012
317.38
315.777
314.203
312.657
311.14
309.65
308.188
306.753
305.346
303.966
302.612
301.286
299.986
298.713
297.466
296.246
295.052
293.884
292.742
291.626
290.537
289.473
288.435
287.423
286.436
285.476
284.541
283.632
282.749
281.891
281.059
280.253
279.472
278.717
277.987
277.284
276.605
275.952
275.325
274.724
274.148
273.597
273.073
272.573
272.1
271.652
271.229
270.832
270.461
270.115
269.795
269.5
269.231
268.988
268.77
268.577
268.41
268.269
268.153
268.063
267.999
267.96
267.946
398.662
395.988
393.319
390.657
388.007
385.37
382.75
380.15
377.57
375.015
372.485
369.982
367.508
365.063
362.65
360.268
357.919
355.602
353.319
351.069
348.853
346.67
344.521
342.405
340.323
338.273
336.256
334.272
332.32
330.399
328.51
326.652
324.826
323.029
321.263
319.527
317.821
316.144
314.496
312.878
311.288
309.726
308.193
306.688
305.211
303.762
302.34
300.946
299.58
298.24
296.928
295.643
294.385
293.154
291.95
290.772
289.621
288.497
287.4
286.329
285.285
284.268
283.276
282.312
281.374
280.462
279.577
278.718
277.886
277.08
276.301
275.547
274.821
274.121
273.447
272.799
272.178
271.583
271.015
270.473
269.958
269.469
269.006
268.57
268.16
267.776
267.419
267.088
266.784
266.506
266.255
266.029
265.831
265.658
265.513
265.393
265.3
265.233
265.193
265.179
398.655
395.969
393.286
390.611
387.946
385.294
382.657
380.038
377.439
374.862
372.309
369.781
367.281
364.808
362.365
359.951
357.569
355.218
352.899
350.612
348.357
346.135
343.945
341.788
339.663
337.571
335.511
333.482
331.486
329.521
327.588
325.685
323.813
321.972
320.161
318.381
316.63
314.909
313.217
311.555
309.921
308.317
306.741
305.194
303.675
302.185
300.723
299.288
297.882
296.504
295.153
293.83
292.535
291.268
290.028
288.815
287.63
286.472
285.342
284.239
283.163
282.114
281.093
280.099
279.132
278.193
277.28
276.395
275.537
274.706
273.903
273.126
272.377
271.655
270.961
270.293
269.653
269.039
268.453
267.895
267.363
266.859
266.381
265.931
265.509
265.113
264.745
264.404
264.09
263.803
263.544
263.312
263.107
262.929
262.779
262.655
262.559
262.491
262.449
262.434
398.648
395.947
393.249
390.559
387.877
385.208
382.553
379.914
377.294
374.695
372.118
369.564
367.037
364.536
362.062
359.618
357.202
354.817
352.462
350.138
347.846
345.585
343.356
341.158
338.992
336.858
334.756
332.685
330.645
328.637
326.659
324.713
322.798
320.913
319.058
317.233
315.439
313.674
311.94
310.234
308.558
306.912
305.294
303.706
302.146
300.615
299.113
297.639
296.194
294.777
293.389
292.029
290.697
289.394
288.119
286.871
285.652
284.461
283.298
282.163
281.056
279.977
278.926
277.903
276.908
275.941
275.002
274.09
273.207
272.352
271.524
270.725
269.954
269.21
268.495
267.807
267.148
266.516
265.913
265.337
264.79
264.27
263.779
263.315
262.88
262.473
262.093
261.742
261.419
261.123
260.856
260.617
260.406
260.223
260.068
259.941
259.842
259.771
259.728
259.713
398.64
395.922
393.208
390.5
387.8
385.112
382.437
379.778
377.136
374.513
371.912
369.333
366.778
364.248
361.744
359.268
356.82
354.401
352.011
349.652
347.322
345.023
342.755
340.518
338.311
336.136
333.992
331.879
329.798
327.747
325.727
323.738
321.779
319.851
317.954
316.086
314.249
312.442
310.665
308.918
307.2
305.512
303.853
302.224
300.624
299.053
297.512
296
294.516
293.062
291.636
290.24
288.872
287.533
286.223
284.942
283.689
282.465
281.27
280.103
278.966
277.857
276.776
275.725
274.702
273.707
272.742
271.805
270.896
270.017
269.166
268.344
267.551
266.786
266.05
265.343
264.665
264.015
263.394
262.802
262.239
261.705
261.199
260.722
260.274
259.855
259.465
259.104
258.771
258.467
258.192
257.946
257.729
257.541
257.381
257.251
257.149
257.076
257.032
257.016
398.631
395.895
393.162
390.435
387.717
385.008
382.312
379.631
376.966
374.32
371.693
369.088
366.505
363.946
361.413
358.905
356.425
353.972
351.548
349.152
346.786
344.45
342.144
339.867
337.622
335.407
333.222
331.068
328.945
326.853
324.791
322.76
320.759
318.789
316.849
314.94
313.061
311.212
309.394
307.605
305.846
304.118
302.419
300.75
299.11
297.5
295.92
294.37
292.849
291.357
289.895
288.463
287.06
285.686
284.341
283.026
281.741
280.485
279.258
278.06
276.892
275.754
274.644
273.564
272.514
271.493
270.501
269.538
268.606
267.702
266.828
265.984
265.169
264.383
263.627
262.901
262.204
261.536
260.898
260.29
259.711
259.162
258.643
258.153
257.692
257.262
256.861
256.489
256.147
255.835
255.553
255.3
255.077
254.883
254.719
254.585
254.48
254.405
254.36
254.344
398.621
395.866
393.113
390.366
387.627
384.897
382.179
379.475
376.787
374.116
371.463
368.831
366.22
363.633
361.069
358.531
356.018
353.532
351.073
348.643
346.241
343.867
341.523
339.209
336.925
334.67
332.446
330.252
328.088
325.955
323.852
321.78
319.738
317.727
315.746
313.795
311.875
309.986
308.126
306.297
304.498
302.73
300.991
299.283
297.605
295.957
294.339
292.751
291.193
289.665
288.167
286.699
285.261
283.853
282.474
281.126
279.808
278.52
277.262
276.034
274.836
273.668
272.53
271.423
270.345
269.297
268.28
267.292
266.335
265.408
264.511
263.645
262.808
262.002
261.226
260.481
259.765
259.08
258.426
257.801
257.207
256.644
256.11
255.607
255.135
254.693
254.281
253.9
253.549
253.228
252.938
252.679
252.449
252.251
252.082
251.944
251.837
251.76
251.714
251.697
398.611
395.835
393.061
390.293
387.532
384.78
382.039
379.312
376.599
373.902
371.223
368.564
365.925
363.308
360.715
358.145
355.6
353.081
350.589
348.123
345.686
343.276
340.895
338.544
336.221
333.928
331.664
329.431
327.228
325.055
322.912
320.799
318.717
316.665
314.644
312.653
310.693
308.763
306.864
304.995
303.157
301.349
299.572
297.825
296.108
294.423
292.767
291.142
289.548
287.984
286.451
284.948
283.476
282.034
280.623
279.242
277.892
276.573
275.284
274.026
272.798
271.602
270.436
269.3
268.196
267.122
266.079
265.067
264.086
263.136
262.217
261.328
260.471
259.644
258.849
258.084
257.351
256.648
255.977
255.337
254.728
254.149
253.603
253.087
252.602
252.149
251.726
251.335
250.975
250.647
250.349
250.083
249.848
249.644
249.472
249.33
249.22
249.141
249.093
249.076
398.6
395.802
393.006
390.216
387.432
384.657
381.893
379.141
376.403
373.68
370.975
368.288
365.621
362.975
360.351
357.75
355.173
352.622
350.096
347.596
345.123
342.678
340.261
337.872
335.512
333.181
330.879
328.607
326.365
324.153
321.97
319.818
317.696
315.605
313.544
311.514
309.514
307.545
305.606
303.699
301.822
299.975
298.16
296.375
294.622
292.899
291.207
289.546
287.916
286.317
284.748
283.211
281.705
280.23
278.787
277.374
275.992
274.642
273.323
272.035
270.779
269.554
268.36
267.198
266.067
264.968
263.9
262.864
261.859
260.886
259.944
259.034
258.156
257.309
256.494
255.711
254.96
254.24
253.553
252.897
252.273
251.68
251.12
250.592
250.095
249.631
249.198
248.797
248.428
248.092
247.787
247.514
247.273
247.064
246.887
246.742
246.63
246.549
246.5
246.483
398.589
395.768
392.949
390.136
387.329
384.53
381.741
378.964
376.2
373.452
370.719
368.004
365.309
362.633
359.979
357.347
354.739
352.155
349.595
347.062
344.554
342.074
339.621
337.196
334.799
332.43
330.091
327.781
325.501
323.25
321.029
318.838
316.677
314.547
312.447
310.378
308.34
306.332
304.355
302.409
300.494
298.61
296.757
294.936
293.145
291.386
289.658
287.961
286.296
284.662
283.06
281.489
279.95
278.443
276.967
275.523
274.11
272.729
271.381
270.064
268.779
267.526
266.305
265.116
263.959
262.834
261.742
260.682
259.654
258.658
257.694
256.763
255.864
254.998
254.164
253.363
252.594
251.857
251.153
250.482
249.843
249.237
248.663
248.123
247.614
247.139
246.696
246.286
245.908
245.563
245.251
244.972
244.725
244.512
244.33
244.182
244.067
243.984
243.934
243.916
398.577
395.733
392.89
390.053
387.222
384.398
381.584
378.782
375.992
373.217
370.457
367.714
364.99
362.285
359.6
356.938
354.297
351.681