/*--------------------------------*- C++ -*----------------------------------*\
  =========                 |
  \\      /  F ield         | OpenFOAM: The Open Source CFD Toolbox
   \\    /   O peration     | Website:  https://openfoam.org
    \\  /    A nd           | Version:  10
     \\/     M anipulation  |
\*---------------------------------------------------------------------------*/
FoamFile
{
    format      ascii;
    class       volScalarField;
    location    "1.4";
    object      T_0;
}
// * * * * * * * * * * * * * * * * * * * * * * * * * * * * * * * * * * * * * //

dimensions      [0 0 -1 0 0 0 0];

internalField   nonuniform List<scalar> 
100
(
0.0510321
0.151287
0.246183
0.332358
0.406758
0.466749
0.510206
0.535588
0.541996
0.529204
0.497665
0.448496
0.383438
0.304797
0.215359
0.118291
0.0170328
-0.0848289
-0.183685
-0.276035
-0.358605
-0.428472
-0.48316
-0.520732
-0.539857
-0.539857
-0.520732
-0.48316
-0.428472
-0.358605
-0.276034
-0.183685
-0.0848283
0.0170333
0.118292
0.215359
0.304798
0.383439
0.448496
0.497665
0.529204
0.541996
0.535587
0.510205
0.466749
0.406758
0.332357
0.246182
0.151286
0.0510309
-0.0510321
-0.151287
-0.246183
-0.332358
-0.406758
-0.466749
-0.510206
-0.535587
-0.541996
-0.529204
-0.497665
-0.448495
-0.383438
-0.304797
-0.215358
-0.11829
-0.0170322
0.0848294
0.183686
0.276035
0.358606
0.428473
0.483161
0.520732
0.539857
0.539857
0.520732
0.48316
0.428472
0.358605
0.276034
0.183684
0.0848278
-0.0170339
-0.118292
-0.21536
-0.304798
-0.383439
-0.448496
-0.497665
-0.529204
-0.541996
-0.535587
-0.510205
-0.466749
-0.406758
-0.332357
-0.246182
-0.151286
-0.0510309
)
;

boundaryField
{
    inlet
    {
        type            cyclic;
    }
    outlet
    {
        type            cyclic;
    }
    bottom
    {
        type            slip;
    }
    top
    {
        type            slip;
    }
    frontAndBack
    {
        type            empty;
    }
}


// ************************************************************************* //
