/*--------------------------------*- C++ -*----------------------------------*\
| =========                 |                                                 |
| \\      /  F ield         | OpenFOAM: The Open Source CFD Toolbox           |
|  \\    /   O peration     | Version:  2406                                  |
|   \\  /    A nd           | Website:  www.openfoam.com                      |
|    \\/     M anipulation  |                                                 |
\*---------------------------------------------------------------------------*/
FoamFile
{
    version     2.0;
    format      ascii;
    arch        "LSB;label=32;scalar=64";
    class       volScalarField;
    location    "20";
    object      p;
}
// * * * * * * * * * * * * * * * * * * * * * * * * * * * * * * * * * * * * * //

dimensions      [0 2 -2 0 0 0 0];

internalField   nonuniform List<scalar> 
1176
(
0.79699973
0.79702261
0.79704627
0.79705393
0.79702241
0.79692771
0.79677048
0.79658431
0.79640511
0.79623796
0.79608333
0.79598773
0.79598773
0.79608333
0.79623795
0.79640511
0.79658432
0.7967705
0.79692776
0.79702248
0.79705404
0.79704639
0.79702274
0.79699988
0.7738513
0.77380434
0.77375659
0.77373969
0.77380219
0.77400455
0.77436987
0.77483427
0.77526513
0.77555123
0.77567063
0.77570489
0.77570489
0.77567062
0.77555122
0.77526511
0.77483425
0.77436984
0.77400451
0.77380214
0.77373962
0.77375651
0.77380427
0.77385123
0.75676655
0.75678856
0.75680835
0.75680644
0.75674738
0.75658621
0.75631444
0.75598649
0.75568028
0.75546749
0.75535669
0.75530787
0.75530787
0.75535668
0.75546749
0.75568028
0.7559865
0.75631445
0.75658622
0.7567474
0.75680647
0.75680838
0.75678858
0.75676657
0.74009465
0.74010378
0.74011584
0.74013224
0.74015478
0.74017235
0.74014012
0.74000671
0.7397746
0.73950203
0.73927783
0.73915733
0.73915733
0.73927782
0.73950202
0.73977459
0.7400067
0.74014011
0.74017234
0.74015477
0.74013223
0.74011583
0.74010377
0.74009465
0.72367561
0.72367956
0.72368455
0.72369061
0.72370032
0.72372059
0.72375677
0.72379829
0.72381995
0.72379608
0.72373397
0.72368133
0.72368133
0.72373396
0.72379608
0.72381995
0.72379828
0.72375677
0.72372059
0.72370031
0.72369061
0.72368455
0.72367956
0.7236756
0.70721395
0.70721636
0.70721961
0.70722365
0.70722856
0.7072354
0.70724956
0.70728088
0.70733087
0.70738812
0.70743082
0.70744748
0.70744748
0.70743082
0.70738811
0.70733087
0.70728088
0.70724956
0.7072354
0.70722857
0.70722366
0.70721961
0.70721637
0.70721396
0.69080814
0.69081028
0.69081309
0.69081651
0.69082041
0.69082393
0.69082599
0.69082817
0.69083672
0.69085395
0.69087185
0.69088356
0.69088356
0.69087185
0.69085395
0.69083672
0.69082817
0.69082599
0.69082393
0.69082042
0.69081652
0.6908131
0.69081029
0.69080815
0.67442827
0.67443003
0.67443236
0.67443528
0.67443895
0.67444332
0.67444778
0.67445093
0.67445217
0.67445379
0.67445083
0.67444832
0.67444832
0.67445083
0.67445378
0.67445217
0.67445093
0.67444778
0.67444333
0.67443896
0.67443529
0.67443237
0.67443004
0.67442829
0.65807399
0.65807544
0.65807737
0.65807978
0.6580828
0.65808659
0.65809163
0.65809868
0.65810736
0.65811739
0.65812516
0.65812875
0.65812875
0.65812516
0.65811739
0.65810736
0.65809868
0.65809163
0.65808659
0.65808281
0.6580798
0.65807738
0.65807546
0.658074
0.6417363
0.6417375
0.64173911
0.64174114
0.64174371
0.64174689
0.64175105
0.64175744
0.6417676
0.64178073
0.64179506
0.64180436
0.64180436
0.64179506
0.64178073
0.64176759
0.64175744
0.64175105
0.64174689
0.64174372
0.64174116
0.64173912
0.64173752
0.64173631
0.62541192
0.62541295
0.62541432
0.62541607
0.62541828
0.625421
0.6254244
0.62542925
0.62543711
0.62544777
0.62546033
0.62546947
0.62546947
0.62546033
0.62544777
0.6254371
0.62542924
0.6254244
0.62542101
0.62541829
0.62541608
0.62541433
0.62541296
0.62541194
0.60909844
0.60909934
0.60910053
0.60910206
0.609104
0.6091064
0.60910936
0.60911337
0.60911959
0.60912825
0.60913881
0.60914626
0.60914626
0.60913881
0.60912825
0.60911958
0.60911337
0.60910936
0.60910641
0.60910401
0.60910207
0.60910055
0.60909935
0.60909846
0.59279425
0.59279504
0.59279609
0.59279744
0.59279916
0.59280129
0.59280393
0.59280747
0.59281287
0.59282062
0.59283031
0.59283699
0.59283698
0.5928303
0.59282061
0.59281286
0.59280746
0.59280393
0.5928013
0.59279917
0.59279746
0.59279611
0.59279505
0.59279427
0.57649803
0.57649873
0.57649967
0.57650088
0.57650241
0.57650432
0.57650667
0.5765098
0.57651457
0.57652155
0.57653021
0.5765363
0.5765363
0.57653021
0.57652154
0.57651457
0.5765098
0.57650667
0.57650432
0.57650242
0.57650089
0.57649969
0.57649875
0.57649805
0.56020876
0.56020939
0.56021024
0.56021132
0.5602127
0.56021442
0.56021652
0.56021928
0.56022344
0.56022957
0.5602371
0.5602425
0.5602425
0.5602371
0.56022957
0.56022344
0.56021928
0.56021652
0.56021442
0.56021271
0.56021133
0.56021025
0.56020941
0.56020878
0.54392564
0.54392621
0.54392698
0.54392796
0.54392921
0.54393076
0.54393266
0.54393511
0.54393875
0.54394413
0.54395066
0.54395545
0.54395545
0.54395066
0.54394412
0.54393874
0.54393511
0.54393266
0.54393077
0.54392922
0.54392797
0.54392699
0.54392623
0.54392566
0.52764802
0.52764854
0.52764923
0.52765012
0.52765127
0.52765268
0.5276544
0.52765661
0.52765983
0.52766459
0.52767031
0.52767461
0.5276746
0.52767031
0.52766459
0.52765982
0.5276566
0.5276544
0.52765269
0.52765128
0.52765013
0.52764924
0.52764855
0.52764803
0.51137534
0.51137581
0.51137645
0.51137727
0.51137831
0.51137961
0.51138118
0.51138317
0.51138605
0.51139029
0.51139535
0.51139921
0.51139921
0.51139534
0.51139029
0.51138604
0.51138317
0.51138118
0.51137961
0.51137832
0.51137728
0.51137646
0.51137583
0.51137535
0.49510715
0.49510758
0.49510816
0.49510891
0.49510988
0.49511107
0.49511251
0.49511431
0.49511689
0.4951207
0.49512519
0.49512868
0.49512868
0.49512519
0.49512069
0.49511689
0.49511431
0.49511251
0.49511107
0.49510988
0.49510892
0.49510818
0.49510759
0.49510716
0.47884304
0.47884344
0.47884397
0.47884467
0.47884555
0.47884665
0.47884798
0.47884962
0.47885195
0.47885537
0.47885941
0.47886256
0.47886256
0.4788594
0.47885537
0.47885194
0.47884962
0.47884798
0.47884666
0.47884556
0.47884467
0.47884398
0.47884345
0.47884305
0.46258267
0.46258304
0.46258353
0.46258417
0.46258499
0.46258601
0.46258723
0.46258874
0.46259085
0.46259395
0.46259759
0.46260046
0.46260046
0.46259759
0.46259394
0.46259084
0.46258874
0.46258723
0.46258602
0.462585
0.46258418
0.46258354
0.46258305
0.46258268
0.44632573
0.44632608
0.44632654
0.44632713
0.44632789
0.44632884
0.44632997
0.44633136
0.44633327
0.44633609
0.4463394
0.44634202
0.44634202
0.4463394
0.44633608
0.44633327
0.44633135
0.44632997
0.44632884
0.4463279
0.44632714
0.44632654
0.44632608
0.44632574
0.43007197
0.43007229
0.43007272
0.43007327
0.43007398
0.43007485
0.4300759
0.43007719
0.43007894
0.43008151
0.43008454
0.43008693
0.43008693
0.43008454
0.4300815
0.43007893
0.43007718
0.4300759
0.43007486
0.43007398
0.43007327
0.43007272
0.43007229
0.43007198
0.41382113
0.41382143
0.41382183
0.41382234
0.413823
0.41382382
0.4138248
0.41382599
0.41382759
0.41382995
0.41383273
0.41383492
0.41383492
0.41383273
0.41382994
0.41382759
0.41382598
0.4138248
0.41382382
0.41382301
0.41382235
0.41382184
0.41382144
0.41382114
0.39757302
0.39757329
0.39757367
0.39757415
0.39757476
0.39757553
0.39757644
0.39757754
0.39757902
0.39758118
0.39758375
0.39758576
0.39758576
0.39758375
0.39758118
0.39757901
0.39757754
0.39757644
0.39757553
0.39757477
0.39757415
0.39757367
0.3975733
0.39757303
0.38132743
0.38132768
0.38132803
0.38132848
0.38132906
0.38132977
0.38133062
0.38133165
0.38133301
0.38133501
0.38133739
0.38133924
0.38133924
0.38133738
0.381335
0.38133301
0.38133164
0.38133062
0.38132977
0.38132906
0.38132849
0.38132804
0.38132769
0.38132744
0.36508418
0.36508443
0.36508475
0.36508517
0.36508571
0.36508638
0.36508717
0.36508813
0.3650894
0.36509124
0.36509345
0.36509516
0.36509515
0.36509345
0.36509124
0.36508939
0.36508813
0.36508717
0.36508638
0.36508572
0.36508518
0.36508476
0.36508444
0.36508419
0.34884313
0.34884336
0.34884367
0.34884406
0.34884456
0.34884519
0.34884594
0.34884683
0.348848
0.34884971
0.34885176
0.34885334
0.34885334
0.34885176
0.34884971
0.348848
0.34884682
0.34884594
0.34884519
0.34884457
0.34884407
0.34884368
0.34884337
0.34884315
0.33260413
0.33260434
0.33260463
0.332605
0.33260547
0.33260606
0.33260676
0.33260759
0.33260869
0.33261027
0.33261219
0.33261365
0.33261365
0.33261218
0.33261027
0.33260868
0.33260759
0.33260676
0.33260606
0.33260548
0.33260501
0.33260464
0.33260436
0.33260415
0.31636704
0.31636724
0.31636751
0.31636786
0.3163683
0.31636885
0.31636951
0.31637029
0.31637131
0.31637278
0.31637457
0.31637593
0.31637593
0.31637457
0.31637278
0.3163713
0.31637029
0.31636951
0.31636886
0.31636831
0.31636787
0.31636753
0.31636726
0.31636706
0.30013175
0.30013193
0.30013219
0.30013251
0.30013293
0.30013345
0.30013407
0.3001348
0.30013575
0.30013712
0.30013879
0.30014006
0.30014006
0.30013879
0.30013712
0.30013574
0.30013479
0.30013406
0.30013345
0.30013294
0.30013253
0.3001322
0.30013195
0.30013177
0.28389813
0.28389831
0.28389855
0.28389885
0.28389925
0.28389973
0.28390031
0.283901
0.28390189
0.28390317
0.28390473
0.28390592
0.28390591
0.28390473
0.28390316
0.28390188
0.28390099
0.28390031
0.28389974
0.28389926
0.28389887
0.28389857
0.28389833
0.28389816
0.26766609
0.26766626
0.26766648
0.26766677
0.26766714
0.2676676
0.26766815
0.26766879
0.26766963
0.26767082
0.26767229
0.26767339
0.26767339
0.26767228
0.26767081
0.26766961
0.26766878
0.26766814
0.26766761
0.26766716
0.26766679
0.26766651
0.26766629
0.26766612
0.25143554
0.25143569
0.2514359
0.25143617
0.25143652
0.25143696
0.25143747
0.25143808
0.25143886
0.25143998
0.25144135
0.25144238
0.25144238
0.25144134
0.25143996
0.25143884
0.25143807
0.25143747
0.25143696
0.25143654
0.2514362
0.25143593
0.25143572
0.25143557
0.23520637
0.23520652
0.23520672
0.23520697
0.2352073
0.23520771
0.23520819
0.23520876
0.2352095
0.23521055
0.23521184
0.23521281
0.2352128
0.23521183
0.23521053
0.23520948
0.23520875
0.23520819
0.23520772
0.23520732
0.235207
0.23520675
0.23520656
0.23520641
0.21897852
0.21897866
0.21897884
0.21897908
0.21897939
0.21897978
0.21898023
0.21898077
0.21898146
0.21898244
0.21898365
0.21898456
0.21898455
0.21898364
0.21898242
0.21898144
0.21898076
0.21898023
0.21897979
0.21897942
0.21897912
0.21897888
0.2189787
0.21897856
0.20275189
0.20275202
0.2027522
0.20275243
0.20275272
0.20275308
0.20275351
0.20275402
0.20275467
0.20275559
0.20275673
0.20275758
0.20275758
0.20275672
0.20275557
0.20275464
0.202754
0.20275351
0.2027531
0.20275275
0.20275247
0.20275225
0.20275208
0.20275195
0.18652643
0.18652656
0.18652672
0.18652694
0.18652721
0.18652756
0.18652796
0.18652844
0.18652905
0.18652991
0.18653098
0.18653178
0.18653177
0.18653097
0.18652989
0.18652902
0.18652842
0.18652796
0.18652757
0.18652725
0.18652699
0.18652678
0.18652662
0.1865265
0.17030207
0.17030218
0.17030234
0.17030254
0.1703028
0.17030313
0.17030351
0.17030396
0.17030453
0.17030534
0.17030636
0.17030711
0.1703071
0.17030634
0.17030532
0.1703045
0.17030394
0.17030351
0.17030315
0.17030284
0.1703026
0.17030241
0.17030226
0.17030214
0.15407874
0.15407885
0.15407899
0.15407919
0.15407943
0.15407974
0.1540801
0.15408052
0.15408106
0.15408182
0.15408276
0.15408346
0.15408345
0.15408274
0.15408179
0.15408103
0.1540805
0.1540801
0.15407976
0.15407948
0.15407925
0.15407907
0.15407893
0.15407883
0.13785637
0.13785647
0.13785661
0.1378568
0.13785703
0.13785732
0.13785766
0.13785806
0.13785856
0.13785928
0.13786017
0.13786083
0.13786082
0.13786015
0.13785925
0.13785853
0.13785803
0.13785766
0.13785735
0.13785709
0.13785688
0.13785671
0.13785658
0.13785648
0.12163494
0.12163504
0.12163517
0.12163534
0.12163556
0.12163584
0.12163616
0.12163653
0.121637
0.12163766
0.12163848
0.12163908
0.12163907
0.12163846
0.12163763
0.12163697
0.12163651
0.12163616
0.12163587
0.12163563
0.12163544
0.12163528
0.12163516
0.12163506
0.10541436
0.10541445
0.10541458
0.10541474
0.10541495
0.1054152
0.10541551
0.10541586
0.1054163
0.10541692
0.10541768
0.10541824
0.10541824
0.10541766
0.10541688
0.10541626
0.10541583
0.10541551
0.10541525
0.10541503
0.10541485
0.1054147
0.10541459
0.1054145
0.089194644
0.089194732
0.089194851
0.089195004
0.089195201
0.089195445
0.089195731
0.089196061
0.089196463
0.089197004
0.08919766
0.089198129
0.089198122
0.089197638
0.089196965
0.089196418
0.089196032
0.089195739
0.089195498
0.089195296
0.089195128
0.089194989
0.089194883
0.089194802
0.072975638
0.072975721
0.072975833
0.072975978
0.072976166
0.072976399
0.072976674
0.072976988
0.072977364
0.07297786
0.072978447
0.072978847
0.07297884
0.072978424
0.072977819
0.072977316
0.072976959
0.072976686
0.07297646
0.072976271
0.072976114
0.072975984
0.072975886
0.072975811
0.056757518
0.056757599
0.056757707
0.056757845
0.056758021
0.056758236
0.056758487
0.05675877
0.05675909
0.056759466
0.056759847
0.056760064
0.056760058
0.056759824
0.056759424
0.056759041
0.05675874
0.056758501
0.056758302
0.056758132
0.056757988
0.056757865
0.05675777
0.056757696
0.040539731
0.040539802
0.040539899
0.04054003
0.040540205
0.040540429
0.040540693
0.040540983
0.040541308
0.040541715
0.040542187
0.040542498
0.040542492
0.040542166
0.040541674
0.040541259
0.040540955
0.040540708
0.040540496
0.040540317
0.040540171
0.040540054
0.040539968
0.040539903
0.024323462
0.024323544
0.024323652
0.02432378
0.024323927
0.024324088
0.02432426
0.024324441
0.024324606
0.024324684
0.024324601
0.024324373
0.024324368
0.024324582
0.024324648
0.024324564
0.024324419
0.024324278
0.024324151
0.024324027
0.024323903
0.024323784
0.024323683
0.024323603
0.0081053674
0.0081054376
0.0081055304
0.0081056517
0.0081058125
0.0081060117
0.0081062318
0.0081064702
0.0081068471
0.0081076829
0.0081091635
0.0081105341
0.0081105313
0.0081091525
0.0081076609
0.0081068219
0.0081064584
0.0081062468
0.0081060551
0.0081058771
0.008105728
0.0081056096
0.008105519
0.0081054491
)
;

boundaryField
{
    INLET
    {
        type            zeroGradient;
    }
    OUTLET
    {
        type            fixedValue;
        value           uniform 0;
    }
    WALL
    {
        type            zeroGradient;
    }
    frontAndBackPlanes
    {
        type            empty;
    }
}


// ************************************************************************* //
