/*--------------------------------*- C++ -*----------------------------------*\
| =========                 |                                                 |
| \\      /  F ield         | OpenFOAM: The Open Source CFD Toolbox           |
|  \\    /   O peration     | Version:  2406                                  |
|   \\  /    A nd           | Website:  www.openfoam.com                      |
|    \\/     M anipulation  |                                                 |
\*---------------------------------------------------------------------------*/
FoamFile
{
    version     2.0;
    format      ascii;
    arch        "LSB;label=32;scalar=64";
    class       surfaceScalarField;
    location    "20";
    object      phi;
}
// * * * * * * * * * * * * * * * * * * * * * * * * * * * * * * * * * * * * * //

dimensions      [0 3 -1 0 0 0 0];

oriented        oriented;

internalField   nonuniform List<scalar> 
2279
(
2.361754e-08
1.0148926e-05
2.0509774e-07
4.982375e-05
6.9331772e-07
0.00014252872
1.5784716e-06
0.00034353082
2.6788475e-06
0.00075378089
3.3472907e-06
0.0015415573
3.043519e-06
0.0029497096
2.151683e-06
0.005249171
1.4318031e-06
0.008582269
9.8959239e-07
0.012685995
5.1266972e-07
0.016666385
4.5423423e-12
0.01918202
-5.1266243e-07
0.01918202
-9.8959515e-07
0.016666385
-1.4318364e-06
0.012685995
-2.1517953e-06
0.0085822691
-3.0437683e-06
0.0052491711
-3.3477048e-06
0.0029497098
-2.6793817e-06
0.0015415574
-1.5790176e-06
0.00075378094
-6.937665e-07
0.00034353084
-2.0538176e-07
0.00014252872
-2.3740249e-08
4.982375e-05
1.0148927e-05
-9.5248431e-08
1.0244175e-05
-5.3794002e-07
5.0266441e-05
-1.6230012e-06
0.00014361378
-3.5389526e-06
0.00034544677
-5.9201873e-06
0.00075616213
-7.405504e-06
0.0015430426
-6.58473e-06
0.0029488888
-3.9361629e-06
0.0052465224
-1.3883913e-06
0.0085797213
-6.5118574e-08
0.012684671
2.4241232e-07
0.016666078
1.3232636e-11
0.019182263
-2.4238042e-07
0.019182263
6.5159107e-08
0.016666078
1.3884436e-06
0.012684671
3.9362303e-06
0.0085797212
6.5848352e-06
0.0052465224
7.405673e-06
0.0029488888
5.9204031e-06
0.0015430426
3.5391612e-06
0.0007561621
1.6231555e-06
0.00034544676
5.3802659e-07
0.00014361378
9.5279602e-08
5.0266439e-05
1.0244174e-05
5.013987e-08
1.0194035e-05
2.6334502e-07
5.0053236e-05
7.4910713e-07
0.00014312802
1.5314581e-06
0.00034466442
2.3366549e-06
0.00075535693
2.54766e-06
0.0015428316
1.8390925e-06
0.0029495974
9.756693e-07
0.0052473859
6.769523e-07
0.00858002
6.7178116e-07
0.012684677
4.841606e-07
0.016666266
-9.3991448e-13
0.019182747
-4.8416535e-07
0.019182747
-6.7179492e-07
0.016666266
-6.7698102e-07
0.012684677
-9.7571279e-07
0.00858002
-1.839137e-06
0.0052473859
-2.5476978e-06
0.0029495974
-2.336683e-06
0.0015428316
-1.5314695e-06
0.00075535694
-7.4910506e-07
0.00034466443
-2.633377e-07
0.00014312802
-5.013444e-08
5.0053238e-05
1.0194035e-05
1.9586746e-08
1.0174448e-05
1.1184929e-07
4.9960974e-05
3.6128423e-07
0.00014287858
9.0504746e-07
0.00034412066
1.8716589e-06
0.00075439032
3.0948212e-06
0.0015416085
3.8987199e-06
0.0029487935
3.7285492e-06
0.005247556
2.9242039e-06
0.0085808243
1.9733693e-06
0.012685627
1.0127697e-06
0.016667226
5.460602e-12
0.01918376
-1.01276e-06
0.01918376
-1.9733627e-06
0.016667226
-2.924198e-06
0.012685627
-3.7285428e-06
0.0085808243
-3.8987191e-06
0.005247556
-3.0948284e-06
0.0029487935
-1.8716758e-06
0.0015416085
-9.0507286e-07
0.00075439032
-3.6130988e-07
0.00034412066
-1.1186705e-07
0.00014287859
-1.9594887e-08
4.9960974e-05
1.0174448e-05
8.0838943e-09
1.0166364e-05
4.7141345e-08
4.9921916e-05
1.5494658e-07
0.00014277078
3.9846253e-07
0.00034387714
8.7979334e-07
0.00075390899
1.7015137e-06
0.0015407867
2.7512704e-06
0.0029477437
3.4623545e-06
0.0052468449
3.4708538e-06
0.0085808158
2.8006803e-06
0.012686298
1.5505132e-06
0.016668476
4.1381379e-12
0.01918531
-1.5505072e-06
0.01918531
-2.8006805e-06
0.016668476
-3.4708615e-06
0.012686298
-3.4623558e-06
0.0085808158
-2.7512649e-06
0.0052468449
-1.7015069e-06
0.0029477437
-8.7978708e-07
0.0015407867
-3.984588e-07
0.00075390899
-1.5494506e-07
0.00034387714
-4.7142261e-08
0.00014277078
-8.0849014e-09
4.9921916e-05
1.0166364e-05
4.9358152e-09
1.0161429e-05
2.8698691e-08
4.9898153e-05
9.5121064e-08
0.00014270436
2.4921362e-07
0.00034372305
5.6360795e-07
0.00075359459
1.1213721e-06
0.001540229
1.9184526e-06
0.0029469467
2.6588132e-06
0.0052461046
2.8930505e-06
0.0085805816
2.4787592e-06
0.012686712
1.4344222e-06
0.016669521
-2.2711661e-13
0.019186745
-1.4344255e-06
0.019186745
-2.4787684e-06
0.016669521
-2.8930632e-06
0.012686712
-2.6588284e-06
0.0085805816
-1.9184706e-06
0.0052461046
-1.1213949e-06
0.0029469467
-5.6363331e-07
0.001540229
-2.4923682e-07
0.00075359459
-9.5137945e-08
0.00034372305
-2.8710816e-08
0.00014270436
-4.9414138e-09
4.9898153e-05
1.0161429e-05
4.4123012e-09
1.0157016e-05
2.5525509e-08
4.987704e-05
8.3829736e-08
0.00014264605
2.1689337e-07
0.00034358999
4.8449962e-07
0.00075332699
9.5635804e-07
0.0015397571
1.641369e-06
0.0029462617
2.3245758e-06
0.0052454214
2.5939458e-06
0.0085803122
2.2393562e-06
0.012687066
1.3066691e-06
0.016670453
-2.1104486e-12
0.019188051
-1.3066749e-06
0.019188051
-2.2393647e-06
0.016670453
-2.5939552e-06
0.012687066
-2.3245899e-06
0.0085803122
-1.6413938e-06
0.0052454214
-9.5639547e-07
0.0029462617
-4.8454287e-07
0.0015397571
-2.1693282e-07
0.00075332699
-8.385846e-08
0.00034358999
-2.554526e-08
0.00014264605
-4.4212575e-09
4.987704e-05
1.0157016e-05
3.625451e-09
1.0153391e-05
2.1036357e-08
4.9859629e-05
6.9437638e-08
0.00014259765
1.8114058e-07
0.00034347828
4.0971278e-07
0.00075309841
8.2390129e-07
0.0015393429
1.4539885e-06
0.0029456316
2.1430704e-06
0.0052447323
2.4674676e-06
0.0085799878
2.1883886e-06
0.012687346
1.2866397e-06
0.016671355
-9.4994773e-13
0.019189338
-1.2866421e-06
0.019189338
-2.1883918e-06
0.016671355
-2.4674726e-06
0.012687346
-2.1430844e-06
0.0085799878
-1.4540205e-06
0.0052447323
-8.2395037e-07
0.0029456316
-4.0976785e-07
0.0015393429
-1.8118938e-07
0.00075309841
-6.9472464e-08
0.00034347828
-2.1059918e-08
0.00014259765
-3.6360722e-09
4.9859629e-05
1.0153391e-05
2.9830022e-09
1.0150408e-05
1.7346677e-08
4.9845265e-05
5.7376691e-08
0.00014255762
1.5007281e-07
0.00034338559
3.4096956e-07
0.00075290752
6.9192952e-07
0.001538992
1.2441057e-06
0.0029450794
1.9041824e-06
0.0052440722
2.3015969e-06
0.0085795904
2.0975053e-06
0.01268755
1.2520093e-06
0.016672201
9.7282793e-13
0.01919059
-1.252007e-06
0.01919059
-2.0975027e-06
0.016672201
-2.3015982e-06
0.01268755
-1.9041983e-06
0.0085795904
-1.2441453e-06
0.0052440722
-6.9198949e-07
0.0029450794
-3.4103569e-07
0.001538992
-1.5013068e-07
0.00075290752
-5.741768e-08
0.00034338559
-1.7374089e-08
0.00014255762
-2.995289e-09
4.9845265e-05
1.0150408e-05
2.4652845e-09
1.0147942e-05
1.4362781e-08
4.9833367e-05
4.7625901e-08
0.00014252436
1.2502778e-07
0.00034330818
2.8558766e-07
0.00075274696
5.8417778e-07
0.0015386934
1.0641824e-06
0.0029445994
1.6641557e-06
0.0052434722
2.0898724e-06
0.0085791647
1.9528931e-06
0.012687687
1.180245e-06
0.016672973
3.1278049e-12
0.01919177
-1.1802378e-06
0.01919177
-1.952885e-06
0.016672973
-2.0898701e-06
0.012687687
-1.6641725e-06
0.0085791647
-1.0642272e-06
0.0052434722
-5.8424566e-07
0.0029445994
-2.8566212e-07
0.0015386934
-1.2509266e-07
0.00075274695
-4.7671763e-08
0.00034330818
-1.4393316e-08
0.00014252436
-2.4789417e-09
4.9833367e-05
1.0147942e-05
2.1023435e-09
1.014584e-05
1.2257825e-08
4.9823212e-05
4.0687876e-08
0.00014249593
1.0698965e-07
0.00034324188
2.4507778e-07
0.00075260887
5.0385218e-07
0.0015384346
9.2623383e-07
0.002944177
1.4715102e-06
0.005242927
1.8909073e-06
0.0085787453
1.805022e-06
0.012687772
1.1036911e-06
0.016673675
4.7231759e-12
0.019192874
-1.1036802e-06
0.019192874
-1.8050097e-06
0.016673675
-1.8909023e-06
0.012687772
-1.4715274e-06
0.0085787453
-9.2628248e-07
0.005242927
-5.0392609e-07
0.002944177
-2.4515857e-07
0.0015384346
-1.0705976e-07
0.00075260887
-4.0737267e-08
0.00034324188
-1.2290602e-08
0.00014249593
-2.1169752e-09
4.9823212e-05
1.014584e-05
1.8281939e-09
1.0144011e-05
1.0665418e-08
4.9814375e-05
3.5430198e-08
0.00014247116
9.3282927e-08
0.00034318403
2.1413916e-07
0.00075248801
4.4192767e-07
0.0015382068
8.1811366e-07
0.0029438008
1.3163806e-06
0.0052424287
1.7244935e-06
0.0085783372
1.6780425e-06
0.012687819
1.0378059e-06
0.016674315
5.7925087e-12
0.019193912
-1.0377924e-06
0.019193912
-1.6780273e-06
0.016674315
-1.7244868e-06
0.012687819
-1.3163985e-06
0.0085783372
-8.1816569e-07
0.0052424287
-4.4200659e-07
0.0029438008
-2.1422495e-07
0.0015382068
-9.3356963e-08
0.00075248801
-3.5482131e-08
0.00034318403
-1.069973e-08
0.00014247116
-1.8434686e-09
4.9814374e-05
1.0144011e-05
1.6105173e-09
1.0142401e-05
9.3997548e-09
4.9806585e-05
3.1244602e-08
0.00014244932
8.2340787e-08
0.00034313293
1.8932136e-07
0.00075238103
3.9182402e-07
0.0015380043
7.2924266e-07
0.0029434634
1.1851465e-06
0.0052419728
1.5781755e-06
0.0085779442
1.5623392e-06
0.012687835
9.7669952e-07
0.0166749
6.5101038e-12
0.019194888
-9.7668426e-07
0.019194888
-1.5623219e-06
0.0166749
-1.5781674e-06
0.012687835
-1.1851651e-06
0.0085779442
-7.2929741e-07
0.0052419728
-3.9190655e-07
0.0029434634
-1.8941039e-07
0.0015380043
-8.241711e-08
0.00075238103
-3.1297879e-08
0.00034313293
-9.4347685e-09
0.00014244932
-1.6260548e-09
4.9806585e-05
1.0142401e-05
1.4324001e-09
1.0140969e-05
8.3632511e-09
4.9799655e-05
2.7813063e-08
0.00014242987
7.3353603e-08
0.00034308739
1.6887011e-07
0.00075228551
3.5026991e-07
0.0015378229
6.5458527e-07
0.0029431591
1.0720611e-06
0.0052415553
1.4464342e-06
0.0085775698
1.454876e-06
0.012687826
9.1881062e-07
0.016675437
6.9005397e-12
0.019195807
-9.187943e-07
0.019195807
-1.4548572e-06
0.016675437
-1.4464253e-06
0.012687826
-1.0720802e-06
0.0085775698
-6.546417e-07
0.0052415553
-3.5035414e-07
0.0029431591
-1.6896016e-07
0.0015378229
-7.3430257e-08
0.00075228551
-2.786631e-08
0.00034308739
-8.3980496e-09
0.00014242987
-1.4477927e-09
4.9799655e-05
1.0140969e-05
1.2851329e-09
1.0139684e-05
7.5054261e-09
4.9793435e-05
2.4969503e-08
0.0001424124
6.5892302e-08
0.00034304647
1.5183994e-07
0.00075219957
3.1548805e-07
0.0015376593
5.9149983e-07
0.0029428831
9.7478973e-07
0.005241172
1.3297059e-06
0.0085772149
1.3567867e-06
0.012687799
8.6525274e-07
0.016675928
6.9616179e-12
0.019196672
-8.6523604e-07
0.019196672
-1.3567673e-06
0.016675928
-1.3296966e-06
0.012687799
-9.7480916e-07
0.0085772149
-5.9155657e-07
0.005241172
-3.1557177e-07
0.0029428831
-1.5192862e-07
0.0015376593
-6.5967275e-08
0.00075219957
-2.502136e-08
0.00034304647
-7.5391325e-09
0.0001424124
-1.2999987e-09
4.9793434e-05
1.0139684e-05
1.1616544e-09
1.0138522e-05
6.7856408e-09
4.9787811e-05
2.2581282e-08
0.00014239661
5.9616862e-08
0.00034300944
1.3748341e-07
0.0007521217
2.8604993e-07
0.0015375107
5.3771489e-07
0.0029426314
8.9070937e-07
0.005240819
1.2263991e-06
0.0085768792
1.2674889e-06
0.012687758
8.1592689e-07
0.01667638
6.7112847e-12
0.019197488
-8.159105e-07
0.019197488
-1.2674696e-06
0.01667638
-1.2263899e-06
0.012687758
-8.9072871e-07
0.0085768792
-5.3777041e-07
0.005240819
-2.8613087e-07
0.0029426314
-1.3756842e-07
0.0015375107
-5.9688315e-08
0.0007521217
-2.2630536e-08
0.00034300944
-6.8175032e-09
0.00014239661
-1.1756722e-09
4.9787811e-05
1.0138522e-05
1.0563496e-09
1.0137466e-05
6.1715011e-09
4.9782696e-05
2.0542311e-08
0.00014238224
5.4253812e-08
0.00034297572
1.2519341e-07
0.00075205076
2.6077163e-07
0.0015373751
4.9125597e-07
0.0029424009
8.1722871e-07
0.005240493
1.1341848e-06
0.0085765622
1.1857893e-06
0.012687707
7.7021423e-07
0.016676795
6.1899676e-12
0.019198259
-7.7019879e-07
0.019198259
-1.1857707e-06
0.016676795
-1.1341762e-06
0.012687707
-8.1724744e-07
0.0085765622
-4.913088e-07
0.005240493
-2.6084785e-07
0.0029424009
-1.2527288e-07
0.0015373751
-5.4320314e-08
0.00075205076
-2.0588045e-08
0.00034297572
-6.2009727e-09
0.00014238224
-1.0692914e-09
4.9782696e-05
1.0137466e-05
9.6538548e-10
1.0136501e-05
5.6407714e-09
4.9778021e-05
1.8779366e-08
0.0001423691
4.9613138e-08
0.00034294489
1.1454453e-07
0.00075198583
2.3881487e-07
0.0015372509
4.5070838e-07
0.002942189
7.5248632e-07
0.0052401913
1.0515008e-06
0.0085762632
1.1108297e-06
0.012687647
7.2768726e-07
0.016677178
5.4757752e-12
0.019198986
-7.2767323e-07
0.019198986
-1.1108123e-06
0.016677178
-1.0514927e-06
0.012687647
-7.5250393e-07
0.0085762632
-4.5075739e-07
0.0052401913
-2.3888499e-07
0.002942189
-1.1461727e-07
0.0015372509
-4.9673824e-08
0.00075198583
-1.8821051e-08
0.00034294489
-5.6675634e-09
0.0001423691
-9.7713697e-10
4.9778021e-05
1.0136501e-05
8.8607917e-10
1.0135615e-05
5.1778804e-09
4.9773729e-05
1.7241053e-08
0.00014235704
4.556095e-08
0.00034291657
1.0523529e-07
0.00075192616
2.1958051e-07
0.0015371365
4.1504665e-07
0.0029419936
6.9509249e-07
0.0052399112
9.7709467e-07
0.0085759812
1.0418647e-06
0.012687582
6.8800281e-07
0.016677532
4.6711713e-12
0.019199674
-6.8799049e-07
0.019199674
-1.041849e-06
0.016677532
-9.7708736e-07
0.012687582
-6.9510862e-07
0.0085759812
-4.1509118e-07
0.0052399112
-2.1964387e-07
0.0029419936
-1.0530083e-07
0.0015371365
-4.5615578e-08
0.00075192616
-1.7278585e-08
0.00034291657
-5.2019771e-09
0.00014235704
-8.9664575e-10
4.9773729e-05
1.0135615e-05
8.1632922e-10
1.0134799e-05
4.7706534e-09
4.9769775e-05
1.5887229e-08
0.00014234592
4.1992699e-08
0.00034289047
9.7029966e-08
0.00075187112
2.0259765e-07
0.0015370309
3.8345321e-07
0.0029418127
6.4389876e-07
0.0052396508
9.0984287e-07
0.0085757152
9.7823276e-07
0.012687514
6.5086334e-07
0.01667786
3.8905943e-12
0.019200325
-6.5085279e-07
0.019200325
-9.7821878e-07
0.01667786
-9.098363e-07
0.012687514
-6.4391324e-07
0.0085757152
-3.8349307e-07
0.0052396508
-2.026543e-07
0.0029418127
-9.7088583e-08
0.0015370309
-4.2041624e-08
0.00075187112
-1.5920908e-08
0.00034289047
-4.7922956e-09
0.00014234592
-8.25828e-10
4.9769775e-05
1.0134799e-05
7.5448051e-10
1.0134045e-05
4.4094931e-09
4.9766121e-05
1.4686217e-08
0.00014233564
3.8825752e-08
0.00034286633
8.9741717e-08
0.00075182021
1.8749101e-07
0.0015369332
3.552696e-07
0.0029416449
5.9796124e-07
0.0052394081
8.4878826e-07
0.0085754644
9.1936323e-07
0.012687443
6.1600709e-07
0.016678163
3.2583836e-12
0.019200941
-6.1599816e-07
0.019200941
-9.1935091e-07
0.016678163
-8.4878234e-07
0.012687443
-5.9797403e-07
0.0085754644
-3.5530507e-07
0.0052394081
-1.8754162e-07
0.0029416449
-8.9794306e-08
0.0015369332
-3.8869843e-08
0.00075182021
-1.471669e-08
0.00034286633
-4.4291423e-09
0.00014233564
-7.6312448e-10
4.9766121e-05
1.0134045e-05
6.9924206e-10
1.0133346e-05
4.0868999e-09
4.9762734e-05
1.3613217e-08
0.00014232612
3.5995268e-08
0.00034284395
8.3223425e-08
0.00075177298
1.7396346e-07
0.0015368425
3.2996928e-07
0.0029414889
5.5651013e-07
0.0052391815
7.9312049e-07
0.0085752278
8.6476473e-07
0.012687372
5.832281e-07
0.016678444
2.7657144e-12
0.019201524
-5.8322041e-07
0.019201524
-8.6475378e-07
0.016678444
-7.9311503e-07
0.012687372
-5.5652132e-07
0.0085752278
-3.3000099e-07
0.0052391815
-1.740092e-07
0.0029414889
-8.3271397e-08
0.0015368425
-3.6035813e-08
0.00075177298
-1.3641415e-08
0.00034284395
-4.1051944e-09
0.00014232612
-7.0732074e-10
4.9762734e-05
1.0133346e-05
6.4959784e-10
1.0132697e-05
3.796961e-09
4.9759587e-05
1.2648655e-08
0.00014231727
3.3449986e-08
0.00034282315
7.7358506e-08
0.00075172907
1.6177864e-07
0.001536758
3.071307e-07
0.0029413436
5.1892222e-07
0.0052389697
7.4217274e-07
0.0085750045
8.1401072e-07
0.0126873
5.523393e-07
0.016678706
2.5084556e-12
0.019202077
-5.5233234e-07
0.019202077
-8.1400069e-07
0.016678706
-7.4216746e-07
0.0126873
-5.1893201e-07
0.0085750045
-3.0715956e-07
0.0052389697
-1.6182109e-07
0.0029413436
-7.7403665e-08
0.001536758
-3.348859e-08
0.00075172907
-1.2675722e-08
0.00034282315
-3.8146731e-09
0.00014231727
-6.5745853e-10
4.9759587e-05
1.0132697e-05
6.0473541e-10
1.0132092e-05
3.5349416e-09
4.9756657e-05
1.1776837e-08
0.00014230903
3.1148757e-08
0.00034280378
7.2053201e-08
0.00075168817
1.5074583e-07
0.0015366793
2.8641143e-07
0.0029412079
4.8468435e-07
0.0052387715
6.9538096e-07
0.0085747938
7.6674124e-07
0.012687229
5.2320195e-07
0.01667895
2.5128847e-12
0.0192026
-5.2319507e-07
0.0192026
-7.6673154e-07
0.01667895
-6.9537553e-07
0.012687229
-4.8469303e-07
0.0085747938
-2.8643861e-07
0.0052387715
-1.5078684e-07
0.0029412079
-7.209764e-08
0.0015366793
-3.1187258e-08
0.00075168817
-1.1804076e-08
0.00034280378
-3.5529405e-09
0.00014230903
-6.1276727e-10
4.9756657e-05
1.0132092e-05
5.6399835e-10
1.0131528e-05
3.2970114e-09
4.9753924e-05
1.098506e-08
0.00014230134
2.9058247e-08
0.0003427857
6.7231457e-08
0.00075165
1.4070999e-07
0.0015366059
2.6753207e-07
0.0029410811
4.5337504e-07
0.0052385856
6.5227623e-07
0.0085745949
7.2263434e-07
0.012687158
4.9567247e-07
0.016679177
2.8700151e-12
0.019203096
-4.9566495e-07
0.019203096
-7.2262429e-07
0.016679177
-6.5227029e-07
0.012687158
-4.5338295e-07
0.0085745949
-2.6755887e-07
0.0052385856
-1.4075165e-07
0.0029410811
-6.7277478e-08
0.0015366059
-2.909865e-08
0.00075165
-1.1013883e-08
0.0003427857
-3.3162359e-09
0.00014230134
-5.7262041e-10
4.9753924e-05
1.0131528e-05
5.2684973e-10
1.0131002e-05
3.0800345e-09
4.9751372e-05
1.0262916e-08
0.00014229416
2.7151121e-08
0.00034276882
6.2830817e-08
0.00075161432
1.3154344e-07
0.0015365372
2.5026127e-07
0.0029409624
4.2464072e-07
0.0052384112
6.1245436e-07
0.0085744071
6.8142216e-07
0.012687089
4.6965683e-07
0.016679388
3.5909892e-12
0.019203565
-4.6964797e-07
0.019203565
-6.8141106e-07
0.016679388
-6.1244754e-07
0.012687089
-4.2464827e-07
0.0085744071
-2.5028913e-07
0.0052384112
-1.3158799e-07
0.0029409624
-6.2880871e-08
0.0015365372
-2.7195549e-08
0.00075161432
-1.029482e-08
0.00034276882
-3.1014741e-09
0.00014229416
-5.3650305e-10
4.9751372e-05
1.0131002e-05
4.9284717e-10
1.0130509e-05
2.8814253e-09
4.9748983e-05
9.60182e-09
0.00014228744
2.5404824e-08
0.00034275301
5.8799731e-08
0.00075158092
1.2314074e-07
0.0015364728
2.3440762e-07
0.0029408511
3.9818841e-07
0.0052382475
5.7557883e-07
0.0085742297
6.4285246e-07
0.012687022
4.4503361e-07
0.016679586
4.6375865e-12
0.01920401
-4.4502275e-07
0.01920401
-6.4283964e-07
0.016679586
-5.7557079e-07
0.012687022
-3.9819608e-07
0.0085742297
-2.3443808e-07
0.0052382475
-1.2319053e-07
0.0029408511
-5.8856383e-08
0.0015364728
-2.5455498e-08
0.00075158092
-9.638365e-09
0.00034275301
-2.9061115e-09
0.00014228744
-5.0399135e-10
4.9748983e-05
1.0130509e-05
4.6162108e-10
1.0130048e-05
2.6990233e-09
4.9746746e-05
8.9945956e-09
0.00014228114
2.3800487e-08
0.00034273821
5.5094996e-08
0.00075154963
1.1541326e-07
0.0015364125
2.1980935e-07
0.0029407467
3.7376674e-07
0.0052380935
5.4135208e-07
0.0085740621
6.0672497e-07
0.012686957
4.2174324e-07
0.016679771
5.9704369e-12
0.019204432
-4.2172977e-07
0.019204432
-6.0670978e-07
0.016679771
-5.4134252e-07
0.012686957
-3.7377506e-07
0.0085740621
-2.1984404e-07
0.0052380935
-1.1547075e-07
0.0029407467
-5.5160919e-08
0.0015364125
-2.3859716e-08
0.00075154963
-9.0374076e-09
0.00034273821
-2.7280303e-09
0.00014228114
-4.7473485e-10
4.9746746e-05
1.0130048e-05
4.3286076e-10
1.0129615e-05
2.5310106e-09
4.9744648e-05
8.4352047e-09
0.00014227524
2.232224e-08
0.00034272432
5.1680312e-08
0.00075152027
1.0828658e-07
0.0015363559
2.0633072e-07
0.0029406487
3.5116567e-07
0.0052379487
5.0952598e-07
0.0085739038
5.7283185e-07
0.012686893
3.9967108e-07
0.016679944
7.5459554e-12
0.019204832
-3.9965446e-07
0.019204832
-5.7281372e-07
0.016679944
-5.0951462e-07
0.012686893
-3.5117523e-07
0.0085739038
-2.0637133e-07
0.0052379487
-1.0835435e-07
0.0029406487
-5.1758295e-08
0.0015363559
-2.2392437e-08
0.00075152027
-8.485985e-09
0.00034272432
-2.5654642e-09
0.00014227524
-4.4844626e-10
4.9744648e-05
1.0129615e-05
4.0630243e-10
1.0129209e-05
2.3758456e-09
4.9742679e-05
7.9185235e-09
0.00014226969
2.0956593e-08
0.00034271129
4.8524729e-08
0.0007514927
1.0169701e-07
0.0015363027
1.938547e-07
0.0029405565
3.3020062e-07
0.0052378123
4.7987546e-07
0.0085737541
5.4102646e-07
0.012686832
3.7878929e-07
0.016680107
9.3155378e-12
0.01920521
-3.7876904e-07
0.01920521
-5.4100483e-07
0.016680107
-4.7986208e-07
0.012686832
-3.3021203e-07
0.0085737541
-1.9390303e-07
0.0052378123
-1.0177776e-07
0.0029405565
-4.8617706e-08
0.0015363027
-2.1040303e-08
0.00075149271
-7.9790687e-09
0.00034271129
-2.4169369e-09
0.00014226969
-4.2489172e-10
4.9742679e-05
1.0129209e-05
3.8171968e-10
1.0128828e-05
2.232202e-09
4.9740829e-05
7.4401458e-09
0.00014226449
1.9691972e-08
0.00034269903
4.5601786e-08
0.00075146679
9.5590256e-08
0.0015362527
1.8228189e-07
0.0029404698
3.1071641e-07
0.0052376839
4.5221208e-07
0.0085736126
5.1112556e-07
0.012686773
3.5897661e-07
0.016680259
1.1257221e-11
0.019205569
-3.5895228e-07
0.019205569
-5.1109989e-07
0.016680259
-4.5219645e-07
0.012686773
-3.1073035e-07
0.0085736126
-1.8233984e-07
0.0052376839
-9.5686832e-08
0.0029404698
-4.5712882e-08
0.0015362527
-1.9791915e-08
0.0007514668
-7.5123811e-09
0.00034269903
-2.2812107e-09
0.00014226449
-4.038851e-10
4.9740829e-05
1.0128828e-05
3.5891935e-10
1.0128469e-05
2.0989532e-09
4.9739089e-05
6.9963262e-09
0.00014225959
1.8518491e-08
0.00034268751
4.2888715e-08
0.00075144242
8.991925e-08
0.0015362057
1.7152531e-07
0.0029403882
2.925741e-07
0.0052375628
4.2636303e-07
0.0085734788
4.8303137e-07
0.012686717
3.4024094e-07
0.016680402
1.3375587e-11
0.01920591
-3.4021209e-07
0.01920591
-4.8300113e-07
0.016680402
-4.2634492e-07
0.012686717
-2.9259127e-07
0.0085734788
-1.7159488e-07
0.0052375629
-9.0034729e-08
0.0029403882
-4.3021301e-08
0.0015362057
-1.8637612e-08
0.00075144243
-7.0823429e-09
0.00034268751
-2.1572731e-09
0.00014225959
-3.8528522e-10
4.9739089e-05
1.0128469e-05
3.3773018e-10
1.0128131e-05
1.9750926e-09
4.9737452e-05
6.5837207e-09
0.00014225498
1.7427391e-08
0.00034267667
4.0365564e-08
0.00075141949
8.4643125e-08
0.0015361614
1.6150989e-07
0.0029403113
2.7565533e-07
0.0052374487
4.0217923e-07
0.0085733523
4.5656664e-07
0.012686662
3.224397e-07
0.016680536
1.5692882e-11
0.019206232
-3.2240586e-07
0.019206232
-4.5653123e-07
0.016680536
-4.0215836e-07
0.012686662
-2.7567646e-07
0.0085733523
-1.6159326e-07
0.0052374487
-8.478084e-08
0.0029403113
-4.052332e-08
0.0015361614
-1.7568915e-08
0.00075141949
-6.6858112e-09
0.00034267667
-2.0442549e-09
0.00014225498
-3.6898308e-10
4.9737452e-05
1.0128131e-05
3.1800993e-10
1.0127813e-05
1.8597962e-09
4.973591e-05
6.1995872e-09
0.00014225064
1.6411383e-08
0.00034266646
3.8015384e-08
0.00075139788
7.9726545e-08
0.0015361197
1.5216999e-07
0.0029402389
2.5985461e-07
0.005237341
3.7953004e-07
0.0085732326
4.316867e-07
0.01268661
3.0562747e-07
0.016680662
1.824638e-11
0.019206538
-3.0558813e-07
0.019206538
-4.3164547e-07
0.016680662
-3.7950609e-07
0.01268661
-2.5988048e-07
0.0085732326
-1.5226951e-07
0.005237341
-7.9890159e-08
0.0029402389
-3.8202376e-08
0.0015361197
-1.6578885e-08
0.00075139789
-6.3202969e-09
0.00034266646
-1.9415035e-09
0.00014225064
-3.5491381e-10
4.973591e-05
1.0127813e-05
2.9962209e-10
1.0127514e-05
1.7522535e-09
4.9734458e-05
5.8412352e-09
0.00014224655
1.5463483e-08
0.00034265684
3.5822463e-08
0.00075137753
7.5137586e-08
0.0015360804
1.4344671e-07
0.0029401706
2.450771e-07
0.0052372394
3.5828778e-07
0.0085731194
4.0819792e-07
0.01268656
2.896209e-07
0.01668078
2.1079416e-11
0.019206827
-2.8957546e-07
0.019206827
-4.0815011e-07
0.01668078
-3.5826037e-07
0.01268656
-2.4510855e-07
0.0085731194
-1.4356497e-07
0.0052372394
-7.5331151e-08
0.0029401706
-3.60432e-08
0.0015360804
-1.5660932e-08
0.00075137753
-5.9833917e-09
0.00034265684
-1.848399e-09
0.00014224655
-3.430268e-10
4.9734458e-05
1.0127514e-05
2.824673e-10
1.0127232e-05
1.651902e-09
4.9733089e-05
5.5067868e-09
0.0001422427
1.4578581e-08
0.00034264776
3.3774545e-08
0.00075135833
7.0850096e-08
0.0015360433
1.352913e-07
0.0029401061
2.312459e-07
0.0052371434
3.3836438e-07
0.0085730123
3.8612483e-07
0.012686512
2.7454139e-07
0.016680892
2.4214462e-11
0.019207102
-2.7448915e-07
0.019207102
-3.860696e-07
0.016680892
-3.3833307e-07
0.012686512
-2.3128383e-07
0.0085730123
-1.3543117e-07
0.0052371434
-7.1078122e-08
0.0029401062
-3.4034045e-08
0.0015360433
-1.4810391e-08
0.00075135833
-5.673531e-09
0.00034264776
-1.7645876e-09
0.0001422427
-3.3331581e-10
4.9733089e-05
1.0127232e-05
2.6642488e-10
1.0126965e-05
1.5580068e-09
4.9731798e-05
5.1938079e-09
0.00014223906
1.3750509e-08
0.00034263921
3.1858222e-08
0.00075134022
6.6837533e-08
0.0015360083
1.2765439e-07
0.0029400453
2.1827705e-07
0.0052370528
3.1963187e-07
0.0085729109
3.6522504e-07
0.012686467
2.6013659e-07
0.016680997
2.765694e-11
0.019207362
-2.6007675e-07
0.019207362
-3.6516145e-07
0.016680997
-3.1959619e-07
0.012686467
-2.1832249e-07
0.008572911
-1.2781909e-07
0.0052370528
-6.7105037e-08
0.0029400453
-3.2162066e-08
0.0015360084
-1.4021586e-08
0.00075134023
-5.3886307e-09
0.00034263921
-1.6895675e-09
0.00014223906
-3.2576435e-10
4.9731797e-05
1.0126965e-05
2.5144534e-10
1.0126714e-05
1.4703221e-09
4.9730579e-05
4.9014599e-09
0.00014223563
1.2976653e-08
0.00034263113
3.0066229e-08
0.00075132313
6.3082872e-08
0.0015359753
1.2050424e-07
0.0029399879
2.0612618e-07
0.0052369672
3.0206055e-07
0.008572815
3.4562727e-07
0.012686423
2.4662839e-07
0.016681096
3.1384637e-11
0.019207609
-2.4656018e-07
0.019207609
-3.4555437e-07
0.016681096
-3.0202005e-07
0.012686423
-2.0618033e-07
0.008572815
-1.2069736e-07
0.0052369672
-6.3395399e-08
0.0029399879
-3.0420506e-08
0.0015359753
-1.3292289e-08
0.00075132314
-5.1280829e-09
0.00034263113
-1.6232352e-09
0.00014223563
-3.2038288e-10
4.9730579e-05
1.0126714e-05
2.3739555e-10
1.0126477e-05
1.3879988e-09
4.9729429e-05
4.6269466e-09
0.00014223239
1.2250257e-08
0.00034262351
2.8384942e-08
0.000751307
5.9560836e-08
0.0015359442
1.1379325e-07
0.0029399337
1.9470289e-07
0.0052368863
2.8548742e-07
0.0085727242
3.2698882e-07
0.012686382
2.3365293e-07
0.016681189
3.5359951e-11
0.019207842
-2.335756e-07
0.019207842
-3.2690566e-07
0.016681189
-2.8544175e-07
0.012686382
-1.9476726e-07
0.0085727242
-1.140189e-07
0.0052368863
-5.9924585e-08
0.0029399337
-2.879641e-08
0.0015359442
-1.2616303e-08
0.00075130701
-4.8894863e-09
0.00034262351
-1.5649838e-09
0.00014223239
-3.1714023e-10
4.9729429e-05
1.0126477e-05
2.2431745e-10
1.0126253e-05
1.3113853e-09
4.9728342e-05
4.3713616e-09
0.00014222934
1.1573165e-08
0.00034261631
2.6815359e-08
0.00075129176
5.6268292e-08
0.0015359147
1.0751527e-07
0.0029398824
1.8401623e-07
0.0052368098
2.6998637e-07
0.0085726382
3.0961064e-07
0.012686342
2.2158842e-07
0.016681277
3.9482966e-11
0.019208064
-2.2150143e-07
0.019208064
-3.0951648e-07
0.016681277
-2.6993541e-07
0.012686342
-1.8409262e-07
0.0085726383
-1.0777796e-07
0.0052368098
-5.6689832e-08
0.0029398825
-2.7291017e-08
0.0015359147
-1.1995596e-08
0.00075129177
-4.6739914e-09
0.00034261631
-1.5151867e-09
0.00014222933
-3.1608974e-10
4.9728342e-05
1.0126253e-05
2.1199319e-10
1.0126041e-05
1.2390364e-09
4.9727316e-05
4.1299925e-09
0.00014222645
1.0934594e-08
0.00034260951
2.5337802e-08
0.00075127736
5.3172616e-08
0.0015358869
1.0160949e-07
0.002939834
1.7393613e-07
0.0052367374
2.5529514e-07
0.0085725569
2.9296647e-07
0.012686304
2.0989682e-07
0.01668136
4.368264e-11
0.019208274
-2.097998e-07
0.019208274
-2.9286073e-07
0.01668136
-2.5523899e-07
0.012686304
-1.7402666e-07
0.0085725569
-1.0191396e-07
0.0052367375
-5.3658491e-08
0.002939834
-2.5884248e-08
0.0015358869
-1.141871e-08
0.00075127736
-4.4761726e-09
0.00034260951
-1.4718647e-09
0.00014222644
-3.1675209e-10
4.9727315e-05
1.0126041e-05
2.0070629e-10
1.0125841e-05
1.1728599e-09
4.9726344e-05
3.9089541e-09
0.00014222371
1.0347764e-08
0.00034260307
2.3973659e-08
0.00075126374
5.0303039e-08
0.0015358605
9.6126122e-08
0.0029397882
1.6458578e-07
0.005236669
2.4169793e-07
0.0085724798
2.7765885e-07
0.012686268
1.9920718e-07
0.016681439
4.774877e-11
0.019208473
-1.9910024e-07
0.019208473
-2.7754142e-07
0.016681439
-2.4163717e-07
0.012686268
-1.6469297e-07
0.0085724798
-9.6477338e-08
0.005236669
-5.0859711e-08
0.0029397882
-2.4597221e-08
0.0015358606
-1.0898549e-08
0.00075126374
-4.3019016e-09
0.00034260307
-1.4366828e-09
0.00014222371
-3.1927156e-10
4.9726344e-05
1.0125841e-05
1.8985668e-10
1.0125652e-05
1.1089389e-09
4.9725426e-05
3.6956684e-09
0.00014222112
9.7846133e-09
0.00034259698
2.2674259e-08
0.00075125085
4.7586238e-08
0.0015358356
9.0941825e-08
0.0029397448
1.5571208e-07
0.0052366042
2.2870699e-07
0.0085724068
2.6285482e-07
0.012686234
1.8872566e-07
0.016681513
5.1527218e-11
0.019208662
-1.8860916e-07
0.019208662
-2.6272581e-07
0.016681513
-2.2864253e-07
0.012686234
-1.5583876e-07
0.0085724068
-9.1344635e-08
0.0052366043
-4.821929e-08
0.0029397449
-2.3379629e-08
0.0015358357
-1.0405139e-08
0.00075125085
-4.137013e-09
0.00034259698
-1.4045212e-09
0.00014222112
-3.2248656e-10
4.9725425e-05
1.0125652e-05
1.8058116e-10
1.0125472e-05
1.0545282e-09
4.9724553e-05
3.5131979e-09
0.00014221867
9.2962818e-09
0.0003425912
2.1527533e-08
0.00075123862
4.5151564e-08
0.001535812
8.6262682e-08
0.0029397037
1.4771313e-07
0.0052365428
2.1705464e-07
0.0085723374
2.4970586e-07
0.012686202
1.7950266e-07
0.016681583
5.4627474e-11
0.019208841
-1.7937768e-07
0.019208841
-2.4956579e-07
0.016681583
-2.1698751e-07
0.012686202
-1.4786198e-07
0.0085723374
-8.6720751e-08
0.0052365428
-4.5863747e-08
0.0029397038
-2.2315311e-08
0.001535812
-9.9853295e-09
0.00075123863
-4.0011377e-09
0.0003425912
-1.3801411e-09
0.00014221867
-3.2636414e-10
4.9724552e-05
1.0125472e-05
1.6958559e-10
1.0125303e-05
9.8987629e-10
4.9723734e-05
3.3002746e-09
0.00014221636
8.7475742e-09
0.00034258576
2.0301612e-08
0.00075122707
4.2672713e-08
0.0015357896
8.1652269e-08
0.0029396647
1.3993177e-07
0.0052364845
2.0571855e-07
0.0085722716
2.3675632e-07
0.012686171
1.7032194e-07
0.01668165
5.6454166e-11
0.019209011
-1.7019038e-07
0.019209011
-2.366061e-07
0.01668165
-2.0564921e-07
0.012686171
-1.4010321e-07
0.0085722716
-8.216388e-08
0.0052364845
-4.3456701e-08
0.0029396648
-2.1158209e-08
0.0015357897
-9.4886164e-09
0.00075122708
-3.8201414e-09
0.00034258576
-1.3347164e-09
0.00014221636
-3.2334955e-10
4.9723733e-05
1.0125303e-05
1.6489736e-10
1.0125139e-05
9.6223673e-10
4.9722937e-05
3.2015953e-09