/*--------------------------------*- C++ -*----------------------------------*\
| =========                 |                                                 |
| \\      /  F ield         | OpenFOAM: The Open Source CFD Toolbox           |
|  \\    /   O peration     | Version:  2406                                  |
|   \\  /    A nd           | Website:  www.openfoam.com                      |
|    \\/     M anipulation  |                                                 |
\*---------------------------------------------------------------------------*/
FoamFile
{
    version     2.0;
    format      ascii;
    arch        "LSB;label=32;scalar=64";
    class       volVectorField;
    location    "20";
    object      U;
}
// * * * * * * * * * * * * * * * * * * * * * * * * * * * * * * * * * * * * * //

dimensions      [0 1 -1 0 0 0 0];

internalField   nonuniform List<vector> 
1176
(
(0.019493789 7.0786581e-07 0)
(0.066677318 8.1696641e-06 0)
(0.13357994 3.9503173e-05 0)
(0.22724701 0.00010873576 0)
(0.35591522 0.00021176025 0)
(0.52772023 0.0003039628 0)
(0.74780387 0.0003181801 0)
(1.0136216 0.00024904576 0)
(1.3093323 0.00016666984 0)
(1.6017081 0.00011264673 0)
(1.8421723 7.0214153e-05 0)
(1.9793239 2.3941051e-05 0)
(1.9793239 -2.3940244e-05 0)
(1.8421723 -7.0213871e-05 0)
(1.6017081 -0.00011264822 0)
(1.3093323 -0.00016667639 0)
(1.0136216 -0.00024906294 0)
(0.74780387 -0.00031821266 0)
(0.52772023 -0.00030401011 0)
(0.35591522 -0.00021181442 0)
(0.227247 -0.00010878585 0)
(0.13357993 -3.9539821e-05 0)
(0.066677313 -8.1900392e-06 0)
(0.019493788 -7.1398768e-07 0)
(0.020187017 -3.741916e-06 0)
(0.068813532 -2.4638634e-05 0)
(0.13732107 -9.6548549e-05 0)
(0.23247391 -0.00024839461 0)
(0.36204617 -0.00047268786 0)
(0.53373557 -0.00067421196 0)
(0.75267407 -0.00069486967 0)
(1.0170176 -0.00049687402 0)
(1.3116385 -0.00023345953 0)
(1.6034438 -4.9824626e-05 0)
(1.8436588 1.9764883e-05 0)
(1.9807026 1.3428552e-05 0)
(1.9807026 -1.3425896e-05 0)
(1.8436588 -1.9761583e-05 0)
(1.6034438 4.9829201e-05 0)
(1.3116385 0.00023346556 0)
(1.0170177 0.00049688244 0)
(0.75267411 0.00069488324 0)
(0.5337356 0.00067423115 0)
(0.36204619 0.000472709 0)
(0.23247392 0.00024841272 0)
(0.13732107 9.6560413e-05 0)
(0.068813532 2.464436e-05 0)
(0.020187017 3.7434878e-06 0)
(0.020018442 2.0918386e-06 0)
(0.068327405 1.2720778e-05 0)
(0.13655405 4.687726e-05 0)
(0.23159544 0.00011389737 0)
(0.36138709 0.00019769263 0)
(0.53366969 0.00023903222 0)
(0.75344344 0.00020559785 0)
(1.0184881 0.00011361061 0)
(1.3134639 7.4312876e-05 0)
(1.6053464 7.9532133e-05 0)
(1.8455118 7.0515928e-05 0)
(1.9825245 2.782536e-05 0)
(1.9825245 -2.7825593e-05 0)
(1.8455118 -7.0516813e-05 0)
(1.6053464 -7.9534312e-05 0)
(1.3134639 -7.4316765e-05 0)
(1.0184881 -0.00011361561 0)
(0.75344342 -0.00020560087 0)
(0.53366967 -0.00023903588 0)
(0.36138707 -0.00019769441 0)
(0.23159543 -0.00011389769 0)
(0.13655404 -4.6876702e-05 0)
(0.068327404 -1.2720075e-05 0)
(0.020018442 -2.0915684e-06 0)
(0.019966547 7.0076669e-07 0)
(0.068159232 4.6870526e-06 0)
(0.13624021 1.9355444e-05 0)
(0.2311194 5.6456156e-05 0)
(0.36078093 0.00013444559 0)
(0.53306293 0.00025829299 0)
(0.75295637 0.00035344703 0)
(1.0181104 0.00036911944 0)
(1.313184 0.00030758802 0)
(1.6051633 0.00022777173 0)
(1.8453995 0.00014555909 0)
(1.9824491 4.9997454e-05 0)
(1.9824491 -4.999642e-05 0)
(1.8453995 -0.00014555832 0)
(1.6051633 -0.00022777156 0)
(1.313184 -0.00030758703 0)
(1.0181104 -0.00036911866 0)
(0.75295637 -0.00035344818 0)
(0.53306294 -0.00025829376 0)
(0.36078094 -0.00013444776 0)
(0.2311194 -5.6458793e-05 0)
(0.13624021 -1.9357642e-05 0)
(0.068159234 -4.6883693e-06 0)
(0.019966548 -7.0117453e-07 0)
(0.019942204 2.9076784e-07 0)
(0.068078703 1.9871987e-06 0)
(0.13608628 8.2361026e-06 0)
(0.23087699 2.3699286e-05 0)
(0.36044744 5.6881535e-05 0)
(0.53266449 0.00012306865 0)
(0.75256878 0.00022681775 0)
(1.017808 0.00032272151 0)
(1.3129044 0.00034572374 0)
(1.604912 0.00030729898 0)
(1.8452029 0.00021095267 0)
(1.9822898 7.4614631e-05 0)
(1.9822898 -7.4613942e-05 0)
(1.8452029 -0.00021095236 0)
(1.604912 -0.00030729921 0)
(1.3129044 -0.00034572452 0)
(1.017808 -0.00032272107 0)
(0.75256878 -0.0002268172 0)
(0.53266448 -0.00012306791 0)
(0.36044744 -5.6881063e-05 0)
(0.23087699 -2.3699048e-05 0)
(0.13608628 -8.2361096e-06 0)
(0.068078702 -1.9873073e-06 0)
(0.019942203 -2.9081792e-07 0)
(0.019933132 1.7181305e-07 0)
(0.068047755 1.1940675e-06 0)
(0.13602489 5.0651768e-06 0)
(0.23077535 1.496881e-05 0)
(0.36029899 3.6219441e-05 0)
(0.5324792 7.6944026e-05 0)
(0.75239428 0.0001471373 0)
(1.0177222 0.00023748961 0)
(1.3129292 0.0002852551 0)
(1.6049746 0.00027441408 0)
(1.8452865 0.00019644566 0)
(1.9823834 7.1176826e-05 0)
(1.9823834 -7.117694e-05 0)
(1.8452865 -0.00019644621 0)
(1.6049746 -0.00027441513 0)
(1.3129292 -0.00028525658 0)
(1.0177222 -0.00023749118 0)
(0.75239427 -0.00014713927 0)
(0.5324792 -7.694639e-05 0)
(0.36029899 -3.6221842e-05 0)
(0.23077535 -1.4970805e-05 0)
(0.13602489 -5.0666642e-06 0)
(0.068047755 -1.194952e-06 0)
(0.019933132 -1.7209201e-07 0)
(0.0199234 1.5587361e-07 0)
(0.068015507 1.0700669e-06 0)
(0.13596286 4.4934413e-06 0)
(0.23067607 1.319541e-05 0)
(0.36015773 3.1857019e-05 0)
(0.53230178 6.6958023e-05 0)
(0.75221429 0.0001241185 0)
(1.0176105 0.00019916994 0)
(1.3129358 0.00025490774 0)
(1.6050904 0.00024595105 0)
(1.8454579 0.00018127849 0)
(1.9825798 6.6548279e-05 0)
(1.9825798 -6.6548722e-05 0)
(1.8454579 -0.0001812792 0)
(1.6050904 -0.00024595192 0)
(1.3129358 -0.00025490884 0)
(1.0176105 -0.00019917172 0)
(0.75221429 -0.00012412153 0)
(0.53230178 -6.6962046e-05 0)
(0.36015773 -3.1861139e-05 0)
(0.23067607 -1.3198809e-05 0)
(0.13596286 -4.4959072e-06 0)
(0.068015507 -1.0714962e-06 0)
(0.0199234 -1.5631873e-07 0)
(0.019915697 1.2758245e-07 0)
(0.067989793 8.7800241e-07 0)
(0.13591293 3.695968e-06 0)
(0.23059503 1.0901538e-05 0)
(0.36003987 2.6613225e-05 0)
(0.53214753 5.7236904e-05 0)
(0.75204133 0.00010911015 0)
(1.0174723 0.00017936581 0)
(1.3128926 0.00023802424 0)
(1.6051414 0.00023746707 0)
(1.8455877 0.00017750648 0)
(1.9827514 6.553929e-05 0)
(1.9827514 -6.5539489e-05 0)
(1.8455877 -0.00017750678 0)
(1.6051414 -0.00023746745 0)
(1.3128926 -0.00023802502 0)
(1.0174723 -0.00017936791 0)
(0.75204133 -0.00010911409 0)
(0.53214753 -5.7242109e-05 0)
(0.36003987 -2.6618409e-05 0)
(0.23059503 -1.0905705e-05 0)
(0.13591293 -3.6989305e-06 0)
(0.067989792 -8.7970042e-07 0)
(0.019915697 -1.281093e-07 0)
(0.019909217 1.0465209e-07 0)
(0.067968141 7.231149e-07 0)
(0.13587084 3.0520601e-06 0)
(0.23052654 9.011753e-06 0)
(0.35993984 2.1999749e-05 0)
(0.53201542 4.7473234e-05 0)
(0.75188901 9.2013772e-05 0)
(1.0173341 0.00015618152 0)
(1.3128278 0.00021699637 0)
(1.6051595 0.00022709595 0)
(1.8456699 0.00017232616 0)
(1.982868 6.4147734e-05 0)
(1.982868 -6.4147542e-05 0)
(1.8456699 -0.00017232594 0)
(1.6051595 -0.00022709584 0)
(1.3128278 -0.000216997 0)
(1.0173341 -0.00015618407 0)
(0.75188901 -9.2018639e-05 0)
(0.53201542 -4.7479538e-05 0)
(0.35993984 -2.2005934e-05 0)
(0.23052654 -9.0166743e-06 0)
(0.13587084 -3.0555238e-06 0)
(0.067968141 -7.2508466e-07 0)
(0.019909217 -1.0526115e-07 0)
(0.019903971 8.6120134e-08 0)
(0.067950553 5.9693965e-07 0)
(0.13583649 2.5273342e-06 0)
(0.2304703 7.491544e-06 0)
(0.35985692 1.8376195e-05 0)
(0.53190436 3.9835543e-05 0)
(0.75175837 7.7711966e-05 0)
(1.0172122 0.00013432413 0)
(1.3127613 0.00019323348 0)
(1.6051772 0.00021058331 0)
(1.8457533 0.0001627297 0)
(1.9829863 6.1084439e-05 0)
(1.9829863 -6.1083819e-05 0)
(1.8457533 -0.00016272896 0)
(1.6051772 -0.0002105827 0)
(1.3127613 -0.00019323396 0)
(1.0172122 -0.00013432698 0)
(0.75175837 -7.771749e-05 0)
(0.53190436 -3.9842665e-05 0)
(0.35985692 -1.8383146e-05 0)
(0.2304703 -7.4970556e-06 0)
(0.13583649 -2.5311993e-06 0)
(0.067950553 -5.9913135e-07 0)
(0.019903971 -8.6796908e-08 0)
(0.019899543 7.3351733e-08 0)
(0.067935688 5.0894501e-07 0)
(0.13580742 2.156858e-06 0)
(0.23042259 6.4027209e-06 0)
(0.35978626 1.5747538e-05 0)
(0.5318089 3.427776e-05 0)
(0.75164409 6.7204528e-05 0)
(1.0171021 0.00011722985 0)
(1.3126976 0.00017262455 0)
(1.6051928 0.00019308899 0)
(1.8458371 0.00015219872 0)
(1.9831061 5.7545076e-05 0)
(1.9831061 -5.7544137e-05 0)
(1.8458371 -0.00015219758 0)
(1.6051928 -0.00019308801 0)
(1.3126976 -0.00017262491 0)
(1.0171021 -0.0001172329 0)
(0.75164409 -6.7210547e-05 0)
(0.5318089 -3.4285507e-05 0)
(0.35978626 -1.5755065e-05 0)
(0.23042259 -6.4086663e-06 0)
(0.13580742 -2.1610125e-06 0)
(0.067935688 -5.1129497e-07 0)
(0.019899543 -7.407662e-08 0)
(0.019895721 6.3725202e-08 0)
(0.06792285 4.4251483e-07 0)
(0.13578228 1.8767292e-06 0)
(0.23038125 5.5765229e-06 0)
(0.35972483 1.3738691e-05 0)
(0.53172535 2.9998034e-05 0)
(0.75154264 5.91116e-05 0)
(1.0170011 0.00010388822 0)
(1.3126345 0.00015540282 0)
(1.6052015 0.00017849527 0)
(1.8459125 0.00014271563 0)
(1.9832185 5.4330946e-05 0)
(1.9832185 -5.4329791e-05 0)
(1.8459125 -0.00014271421 0)
(1.6052015 -0.00017849404 0)
(1.3126344 -0.00015540311 0)
(1.0170011 -0.00010389147 0)
(0.75154264 -5.9118042e-05 0)
(0.53172535 -3.0006286e-05 0)
(0.35972483 -1.3746664e-05 0)
(0.23038125 -5.582788e-06 0)
(0.13578228 -1.8810865e-06 0)
(0.06792285 -4.4497103e-07 0)
(0.019895721 -6.448173e-08 0)
(0.019892371 5.6091343e-08 0)
(0.067911587 3.8978247e-07 0)
(0.13576021 1.6541379e-06 0)
(0.2303449 4.9187978e-06 0)
(0.35967069 1.2132079e-05 0)
(0.53165136 2.6542548e-05 0)
(0.7514519 5.2498919e-05 0)
(1.0169086 9.2875833e-05 0)
(1.3125728 0.00014061499 0)
(1.605205 0.00016529622 0)
(1.8459798 0.00013398936 0)
(1.9833221 5.1387806e-05 0)
(1.9833221 -5.1386505e-05 0)
(1.8459798 -0.00013398775 0)
(1.605205 -0.00016529479 0)
(1.3125728 -0.00014061523 0)
(1.0169086 -9.2879242e-05 0)
(0.7514519 -5.2505682e-05 0)
(0.53165136 -2.6551146e-05 0)
(0.35967069 -1.2140327e-05 0)
(0.2303449 -4.9252406e-06 0)
(0.13576021 -1.6585944e-06 0)
(0.067911586 -3.9228444e-07 0)
(0.019892371 -5.6860619e-08 0)
(0.019889403 4.9852847e-08 0)
(0.067901607 3.4663102e-07 0)
(0.13574064 1.4717951e-06 0)
(0.23031264 4.3794527e-06 0)
(0.35962253 1.0812423e-05 0)
(0.53158531 2.3691583e-05 0)
(0.75137029 4.6984364e-05 0)
(1.016824 8.3546528e-05 0)
(1.3125139 0.00012773762 0)
(1.6052051 0.00015293353 0)
(1.8460415 0.00012582043 0)
(1.9834196 4.8616856e-05 0)
(1.9834196 -4.8615472e-05 0)
(1.8460415 -0.00012581869 0)
(1.6052051 -0.00015293198 0)
(1.3125139 -0.00012773785 0)
(1.016824 -8.3550054e-05 0)
(0.75137029 -4.6991305e-05 0)
(0.53158531 -2.370032e-05 0)
(0.35962253 -1.0820738e-05 0)
(0.23031264 -4.3859073e-06 0)
(0.13574064 -1.4762346e-06 0)
(0.067901607 -3.4911318e-07 0)
(0.019889403 -5.0614644e-08 0)
(0.019886752 4.47047e-08 0)
(0.067892685 3.1096412e-07 0)
(0.13572313 1.3208625e-06 0)
(0.23028375 3.9322923e-06 0)
(0.35957935 9.716031e-06 0)
(0.53152592 2.1315823e-05 0)
(0.75129648 4.2360558e-05 0)
(1.0167465 7.5620198e-05 0)
(1.3124581 0.00011654256 0)
(1.6052027 0.00014169879 0)
(1.8460982 0.00011827103 0)
(1.9835117 4.6031895e-05 0)
(1.9835117 -4.603049e-05 0)
(1.8460982 -0.00011826923 0)
(1.6052027 -0.00014169717 0)
(1.3124581 -0.00011654278 0)
(1.0167465 -7.5623769e-05 0)
(0.75129648 -4.2367498e-05 0)
(0.53152592 -2.1324464e-05 0)
(0.35957935 -9.7241906e-06 0)
(0.23028375 -3.9385913e-06 0)
(0.13572313 -1.3251726e-06 0)
(0.067892685 -3.1336448e-07 0)
(0.019886752 -4.5440129e-08 0)
(0.019884362 4.0393899e-08 0)
(0.067884644 2.8106551e-07 0)
(0.13570735 1.194212e-06 0)
(0.23025769 3.5565926e-06 0)
(0.35954035 8.793077e-06 0)
(0.53147216 1.931031e-05 0)
(0.75122934 3.8440522e-05 0)
(1.0166753 6.8839311e-05 0)
(1.3124053 0.00010678379 0)
(1.6051983 0.00013155234 0)
(1.8461504 0.00011132797 0)
(1.9835985 4.3631427e-05 0)
(1.9835985 -4.3630065e-05 0)
(1.8461504 -0.00011132619 0)
(1.6051983 -0.00013155073 0)
(1.3124053 -0.00010678403 0)
(1.0166753 -6.8842836e-05 0)
(0.75122934 -3.8447272e-05 0)
(0.53147216 -1.9318627e-05 0)
(0.35954035 -8.800876e-06 0)
(0.23025769 -3.5625851e-06 0)
(0.13570735 -1.1982944e-06 0)
(0.067884644 -2.8333151e-07 0)
(0.019884362 -4.1087125e-08 0)
(0.019882195 3.6720596e-08 0)
(0.067877349 2.5557055e-07 0)
(0.13569303 1.0861463e-06 0)
(0.23023403 3.2357541e-06 0)
(0.3595049 8.0037942e-06 0)
(0.5314232 1.7591247e-05 0)
(0.75116797 3.5067628e-05 0)
(1.0166096 6.2964547e-05 0)
(1.3123553 9.8203477e-05 0)
(1.6051923 0.00012233364 0)
(1.8461982 0.00010491304 0)
(1.9836803 4.1390666e-05 0)
(1.9836803 -4.1389401e-05 0)
(1.8461982 -0.00010491133 0)
(1.6051923 -0.0001223321 0)
(1.3123553 -9.8203721e-05 0)
(1.0166096 -6.2967929e-05 0)
(0.75116797 -3.5074017e-05 0)
(0.5314232 -1.7599049e-05 0)
(0.3595049 -8.0110688e-06 0)
(0.23023403 -3.2413242e-06 0)
(0.13569303 -1.0899284e-06 0)
(0.067877349 -2.5766444e-07 0)
(0.019882195 -3.7360413e-08 0)
(0.019880219 3.3549732e-08 0)
(0.067870695 2.3354895e-07 0)
(0.13567996 9.9275242e-07 0)
(0.23021243 2.9582962e-06 0)
(0.35947252 7.3205325e-06 0)
(0.53137842 1.6100483e-05 0)
(0.75111164 3.2133433e-05 0)
(1.0165488 5.7823811e-05 0)
(1.3123082 9.060273e-05 0)
(1.6051852 0.0001139534 0)
(1.8462423 9.8955778e-05 0)
(1.9837576 3.9289076e-05 0)
(1.9837576 -3.9287947e-05 0)
(1.8462423 -9.8954198e-05 0)
(1.6051852 -0.00011395195 0)
(1.3123082 -9.0602972e-05 0)
(1.0165488 -5.7826969e-05 0)
(0.75111164 -3.2139335e-05 0)
(0.53137842 -1.610764e-05 0)
(0.35947252 -7.32718e-06 0)
(0.23021243 -2.9633756e-06 0)
(0.13567996 -9.9619439e-07 0)
(0.067870695 -2.3545134e-07 0)
(0.019880219 -3.413058e-08 0)
(0.019878409 3.0787045e-08 0)
(0.0678646 2.14351e-07 0)
(0.13566798 9.1129276e-07 0)
(0.23019263 2.7161489e-06 0)
(0.35944282 6.7236891e-06 0)
(0.53133728 1.4796385e-05 0)
(0.75105977 2.9560133e-05 0)
(1.0164925 5.329296e-05 0)
(1.3122638 8.383182e-05 0)
(1.6051772 0.00010632398 0)
(1.846283 9.3402971e-05 0)
(1.9838307 3.7312462e-05 0)
(1.9838307 -3.731149e-05 0)
(1.846283 -9.3401553e-05 0)
(1.6051772 -0.00010632267 0)
(1.3122638 -8.383205e-05 0)
(1.0164925 -5.3295842e-05 0)
(0.75105977 -2.9565479e-05 0)
(0.53133728 -1.4802842e-05 0)
(0.35944282 -6.7296753e-06 0)
(0.23019263 -2.7207213e-06 0)
(0.13566798 -9.1438976e-07 0)
(0.0678646 -2.1606186e-07 0)
(0.019878409 -3.1309274e-08 0)
(0.019876745 2.8358497e-08 0)
(0.067858993 1.9746778e-07 0)
(0.13565697 8.3962697e-07 0)
(0.23017441 2.5030099e-06 0)
(0.35941547 6.197938e-06 0)
(0.53129936 1.3646196e-05 0)
(0.75101183 2.7285777e-05 0)
(1.0164401 4.9272157e-05 0)
(1.3122219 7.7767942e-05 0)
(1.6051688 9.935603e-05 0)
(1.8463207 8.8213237e-05 0)
(1.9838998 3.544946e-05 0)
(1.9838998 -3.5448645e-05 0)
(1.8463207 -8.8211994e-05 0)
(1.6051688 -9.9354852e-05 0)
(1.3122219 -7.776815e-05 0)
(1.0164401 -4.9274741e-05 0)
(0.75101183 -2.7290559e-05 0)
(0.53129936 -1.3651968e-05 0)
(0.35941547 -6.2032946e-06 0)
(0.23017441 -2.5071085e-06 0)
(0.13565697 -8.424073e-07 0)
(0.067858993 -1.9900523e-07 0)
(0.019876745 -2.8827976e-08 0)
(0.019875208 2.6205857e-08 0)
(0.067853818 1.8249845e-07 0)
(0.1356468 7.7606734e-07 0)
(0.23015758 2.3139058e-06 0)
(0.3593902 5.7311775e-06 0)
(0.5312643 1.2623982e-05 0)
(0.75096742 2.5260832e-05 0)
(1.0163914 4.5679988e-05 0)
(1.3121824 7.2308305e-05 0)
(1.6051599 9.297328e-05 0)
(1.8463555 8.3349973e-05 0)
(1.9839652 3.3689425e-05 0)
(1.9839652 -3.3688748e-05 0)
(1.8463555 -8.3348896e-05 0)
(1.6051599 -9.2972232e-05 0)
(1.3121824 -7.2308482e-05 0)
(1.0163914 -4.5682282e-05 0)
(0.75096742 -2.5265094e-05 0)
(0.5312643 -1.2629148e-05 0)
(0.3593902 -5.7359933e-06 0)
(0.23015758 -2.3176068e-06 0)
(0.1356468 -7.7858787e-07 0)
(0.067853818 -1.8389619e-07 0)
(0.019875208 -2.6633189e-08 0)
(0.019873787 2.4283831e-08 0)
(0.067849027 1.6913038e-07 0)
(0.13563738 7.1929469e-07 0)
(0.230142 2.144941e-06 0)
(0.35936679 5.3139039e-06 0)
(0.53123178 1.170932e-05 0)
(0.75092616 2.3446074e-05 0)
(1.016346 4.2451002e-05 0)
(1.3121452 6.7367878e-05 0)
(1.6051509 8.7107458e-05 0)
(1.8463878 7.8784846e-05 0)
(1.9840271 3.2023784e-05 0)
(1.9840271 -3.202321e-05 0)
(1.8463878 -7.8783903e-05 0)
(1.6051509 -8.7106516e-05 0)
(1.3121452 -6.7368015e-05 0)
(1.016346 -4.2453036e-05 0)
(0.75092616 -2.3449904e-05 0)
(0.53123178 -1.171401e-05 0)
(0.35936679 -5.3183138e-06 0)
(0.230142 -2.148355e-06 0)
(0.13563738 -7.2163525e-07 0)
(0.067849027 -1.7043457e-07 0)
(0.019873787 -2.4683396e-08 0)
(0.019872467 2.255685e-08 0)
(0.067844581 1.5711745e-07 0)
(0.13562864 6.6826885e-07 0)
(0.23012754 1.9930387e-06 0)
(0.35934505 4.9385953e-06 0)
(0.53120156 1.0886001e-05 0)
(0.75088776 2.1810282e-05 0)
(1.0163035 3.953268e-05 0)
(1.31211 6.2876794e-05 0)
(1.6051418 8.170206e-05 0)
(1.8464178 7.4491623e-05 0)
(1.9840857 3.0444396e-05 0)
(1.9840857 -3.0443876e-05 0)
(1.8464178 -7.4490767e-05 0)
(1.6051418 -8.1701187e-05 0)
(1.31211 -6.2876883e-05 0)
(1.0163035 -3.9534505e-05 0)
(0.75088776 -2.1813802e-05 0)
(0.53120156 -1.0890384e-05 0)
(0.35934505 -4.9427697e-06 0)
(0.23012754 -1.9963028e-06 0)
(0.13562864 -6.7052667e-07 0)
(0.067844581 -1.5838369e-07 0)
(0.019872467 -2.2945874e-08 0)
(0.01987124 2.0996511e-08 0)
(0.067840446 1.4626279e-07 0)
(0.13562051 6.221567e-07 0)
(0.23011408 1.8557318e-06 0)
(0.35932481 4.5992091e-06 0)
(0.53117342 1.0140967e-05 0)
(0.75085195 2.0328201e-05 0)
(1.0162638 3.6882328e-05 0)
(1.3120768 5.8777339e-05 0)
(1.6051327 7.670681e-05 0)
(1.8464458 7.0451188e-05 0)
(1.9841412 2.8945221e-05 0)
(1.9841412 -2.8944695e-05 0)
(1.8464458 -7.0450359e-05 0)
(1.6051327 -7.6705958e-05 0)
(1.3120768 -5.877737e-05 0)
(1.0162638 -3.6884008e-05 0)
(0.75085195 -2.033156e-05 0)
(0.53117342 -1.0145242e-05 0)
(0.35932481 -4.6033444e-06 0)
(0.23011408 -1.8590024e-06 0)
(0.13562051 -6.2444172e-07 0)
(0.067840446 -1.4755353e-07 0)
(0.01987124 -2.1394286e-08 0)
(0.019870096 1.9579894e-08 0)
(0.067836592 1.3640729e-07 0)
(0.13561293 5.802841e-07 0)
(0.23010153 1.7310226e-06 0)
(0.35930594 4.2908484e-06 0)
(0.53114716 9.4636197e-06 0)
(0.75081849 1.8979276e-05 0)
(1.0162266 3.4464954e-05 0)
(1.3120455 5.5021378e-05 0)
(1.6051237 7.2080914e-05 0)
(1.8464718 6.6642763e-05 0)
(1.9841938 2.7519825e-05 0)
(1.9841938 -2.7519229e-05 0)
(1.8464718 -6.6641892e-05 0)
(1.6051237 -7.2080029e-05 0)
(1.3120455 -5.5021345e-05 0)
(1.0162266 -3.4466567e-05 0)
(0.75081849 -1.8982641e-05 0)
(0.53114716 -9.4680062e-06 0)
(0.35930594 -4.2951596e-06 0)
(0.23010153 -1.7344698e-06 0)
(0.13561293 -5.8271531e-07 0)
(0.067836592 -1.3778981e-07 0)
(0.019870096 -2.0007181e-08 0)
(0.019869029 1.8288269e-08 0)
(0.067832994 1.2742074e-07 0)
(0.13560586 5.4209916e-07 0)
(0.23008981 1.617274e-06 0)
(0.35928831 4.009495e-06 0)
(0.53112262 8.8452456e-06 0)
(0.75078719 1.7746558e-05 0)
(1.0161917 3.2251616e-05 0)
(1.312016 5.1568709e-05 0)
(1.6051149 6.7786529e-05 0)
(1.846496 6.305312e-05 0)
(1.9842436 2.6164172e-05 0)
(1.9842436 -2.6163443e-05 0)
(1.846496 -6.3052137e-05 0)
(1.6051149 -6.7785553e-05 0)
(1.312016 -5.1568608e-05 0)
(1.0161917 -3.2253248e-05 0)
(0.75078719 -1.775011e-05 0)
(0.53112262 -8.8499787e-06 0)
(0.35928831 -4.0142104e-06 0)
(0.23008981 -1.621078e-06 0)
(0.13560586 -5.4480214e-07 0)
(0.067832994 -1.2896596e-07 0)
(0.019869029 -1.8766918e-08 0)
(0.019868031 1.7106218e-08 0)
(0.067829631 1.1919586e-07 0)
(0.13559924 5.0714664e-07 0)
(0.23007886 1.5131355e-06 0)
(0.35927183 3.7518336e-06 0)
(0.53109966 8.2786532e-06 0)
(0.75075787 1.6616037e-05 0)
(1.0161589 3.0218226e-05 0)
(1.311988 4.83853e-05 0)
(1.6051063 6.3794034e-05 0)
(1.8465187 5.9664058e-05 0)
(1.9842909 2.4872902e-05 0)
(1.9842909 -2.4871975e-05 0)
(1.8465187 -5.9662894e-05 0)
(1.6051063 -6.3792914e-05 0)
(1.311988 -4.8385129e-05 0)
(1.0161589 -3.021997e-05 0)
(0.75075788 -1.6619967e-05 0)
(0.53109966 -8.2839795e-06 0)
(0.35927183 -3.7571921e-06 0)
(0.23007886 -1.5174843e-06 0)
(0.13559924 -5.1025239e-07 0)
(0.067829631 -1.2097765e-07 0)
(0.019868031 -1.7658989e-08 0)
(0.019867097 1.6020863e-08 0)
(0.067826482 1.1164304e-07 0)
(0.13559305 4.7504632e-07 0)
(0.2300686 1.417478e-06 0)
(0.35925639 3.5150878e-06 0)
(0.53107814 7.7578041e-06 0)
(0.75073038 1.5575924e-05 0)
(1.0161281 2.8344528e-05 0)
(1.3119617 4.5442494e-05 0)
(1.6050979 6.0073911e-05 0)
(1.8465398 5.6467123e-05 0)
(1.9843356 2.3643689e-05 0)
(1.9843356 -2.3642509e-05 0)
(1.8465398 -5.6465716e-05 0)
(1.6050979 -6.0072595e-05 0)
(1.3119617 -4.5442258e-05 0)
(1.0161281 -2.8346485e-05 0)
(0.75073038 -1.5580433e-05 0)
(0.53107814 -7.7639807e-06 0)
(0.35925639 -3.5213377e-06 0)
(0.2300686 -1.4225674e-06 0)
(0.13559305 -4.7869123e-07 0)
(0.067826482 -1.1373836e-07 0)
(0.019867097 -1.6671469e-08 0)
(0.019866221 1.5021382e-08 0)
(0.067823531 1.0468687e-07 0)
(0.13558724 4.4547806e-07 0)
(0.23005898 1.3293516e-06 0)
(0.35924191 3.2969244e-06 0)
(0.53105796 7.2776318e-06 0)
(0.75070457 1.4616313e-05 0)
(1.0160992 2.6613336e-05 0)
(1.3119367 4.2715451e-05 0)
(1.6050897 5.6604485e-05 0)
(1.8465596 5.3444731e-05 0)
(1.984378 2.2471552e-05 0)
(1.984378 -2.247007e-05 0)
(1.8465596 -5.3443026e-05 0)
(1.6050897 -5.6602927e-05 0)
(1.3119367 -4.2715158e-05 0)
(1.0160992 -2.6615613e-05 0)
(0.75070457 -1.4621613e-05 0)
(0.53105796 -7.2849268e-06 0)
(0.35924191 -3.3043251e-06 0)
(0.23005898 -1.3353862e-06 0)
(0.13558724 -4.4980497e-07 0)
(0.06782353 -1.0717641e-07 0)
(0.019866221 -1.5794693e-08 0)
(0.019865399 1.4098591e-08 0)
(0.067820761 9.826344e-08 0)
(0.1355818 4.1817057e-07 0)
(0.23004995 1.2479496e-06 0)
(0.35922832 3.0953559e-06 0)
(0.531039 6.8338013e-06 0)
(0.75068032 1.3728715e-05 0)
(1.0160719 2.5010018e-05 0)
(1.3119132 4.0183276e-05 0)
(1.6050818 5.3361824e-05 0)
(1.8465781 5.0593065e-05 0)
(1.9844182 2.1355729e-05 0)
(1.9844182 -2.1353905e-05 0)
(1.8465781 -5.059101e-05 0)
(1.6050818 -5.3359978e-05 0)
(1.3119132 -4.0182938e-05 0)
(1.0160719 -2.5012728e-05 0)
(0.75068032 -1.3735025e-05 0)
(0.53103901 -6.8424965e-06 0)
(0.35922832 -3.1041807e-06 0)
(0.23004995 -1.2551454e-06 0)
(0.1355818 -4.2333051e-07 0)
(0.067820761 -1.0123265e-07 0)
(0.019865399 -1.5020963e-08 0)
(0.019864628 1.3244607e-08 0)
(0.067818161 9.2317745e-08 0)
(0.13557668 3.9289017e-07 0)
(0.23004148 1.1725789e-06 0)
(0.35921555 2.9086822e-06 0)
(0.5310212 6.4226221e-06 0)
(0.75065752 1.2905892e-05 0)
(1.0160463 2.3521874e-05 0)
(1.3118909 3.7827155e-05 0)
(1.6050743 5.0330102e-05 0)
(1.8465955 4.789338e-05 0)
(1.9844563 2.0290909e-05 0)
(1.9844563 -2.0288705e-05 0)
(1.8465955 -4.7890928e-05 0)
(1.6050743 -5.0327927e-05 0)
(1.3118909 -3.7826784e-05 0)
(1.0160463 -2.3525136e-05 0)
(0.75065752 -1.2913447e-05 0)
(0.5310212 -6.4330169e-06 0)
(0.35921555 -2.9192224e-06 0)
(0.23004148 -1.1811671e-06 0)
(0.13557668 -3.9904522e-07 0)
(0.06781816 -9.5858474e-08 0)
(0.019864628 -1.4344397e-08 0)
(0.019863903 1.2452706e-08 0)
(0.067815716 8.6803118e-08 0)
(0.13557187 3.6943885e-07 0)
(0.23003351 1.1026497e-06 0)
(0.35920355 2.7354433e-06 0)
(0.53100445 6.0408945e-06 0)
(0.75063606 1.2141561e-05 0)
(1.0160221 2.21381e-05 0)
(1.3118699 3.5631706e-05 0)
(1.6050669 4.7489278e-05 0)
(1.8466118 4.5347193e-05 0)
(1.9844924 1.9278045e-05 0)
(1.9844924 -1.9275426e-05 0)
(1.8466118 -4.5344294e-05 0)
(1.6050669 -4.7486729e-05 0)
(1.3118699 -3.5631316e-05 0)
(1.0160221 -2.214204e-05 0)
(0.75063606 -1.2150609e-05 0)
(0.53100445 -6.0533113e-06 0)
(0.35920355 -2.7480142e-06 0)
(0.23003351 -1.112881e-06 0)
(0.13557187 -3.7676533e-07 0)
(0.067815716 -9.1015507e-08 0)
(0.019863903 -1.3760852e-08 0)
(0.019863221 1.1716924e-08 0)
(0.067813416 8.1677769e-08 0)
(0.13556735 3.4763893e-07 0)
(0.23002601 1.0376362e-06 0)
(0.35919225 2.574356e-06 0)
(0.53098868 5.6858443e-06 0)
(0.75061585 1.1430267e-05 0)
(1.0159993 2.0848953e-05 0)
(1.31185 3.3581977e-05 0)
(1.6050599 4.482783e-05 0)
(1.8466272 4.2932596e-05 0)
(1.9845266 1.831071e-05 0)
(1.9845266 -1.8307636e-05 0)
(1.8466272 -4.2929198e-05 0)
(1.6050599 -4.4824858e-05 0)
(1.31185 -3.3581581e-05 0)
(1.0159993 -2.0853705e-05 0)
(0.75061585 -1.1441079e-05 0)
(0.53098868 -5.7006339e-06 0)
(0.35919226 -2.5893019e-06 0)
(0.23002601 -1.0497853e-06 0)
(0.13556735 -3.5633036e-07 0)
(0.067813416 -8.6671888e-08 0)
(0.019863221 -1.3267454e-08 0)
(0.019862579 1.1032315e-08 0)
(0.067811252 7.6907639e-08 0)
(0.13556309 3.2734606e-07 0)
(0.23001895 9.7710581e-07 0)
(0.35918162 2.4243378e-06 0)
(0.53097384 5.3550726e-06 0)
(0.75059681 1.0767282e-05 0)
(1.0159778 1.964642e-05 0)
(1.3118312 3.1666895e-05 0)
(1.6050532 4.2328778e-05 0)
(1.8466415 4.0658014e-05 0)
(1.984559 1.7392087e-05 0)
(1.984559 -1.7388512e-05 0)
(1.8466415 -4.0654059e-05 0)
(1.6050532 -4.2325328e-05 0)
(1.3118312 -3.1666504e-05 0)
(1.0159778 -1.9652129e-05 0)
(0.75059682 -1.0780153e-05 0)
(0.53097384 -5.3726217e-06 0)
(0.35918162 -2.4420399e-06 0)
(0.23001895 -9.914774e-07 0)
(0.13556309 -3.3761754e-07 0)
(0.067811252 -8.2805934e-08 0)
(0.019862579 -1.2863097e-08 0)
(0.019861974 1.0394122e-08 0)
(0.067809213 7.2458998e-08 0)
(0.13555907 3.0841651e-07 0)
(0.2300123 9.2063652e-07 0)
(0.3591716 2.2843734e-06 0)
(0.53095985 5.0464142e-06 0)
(0.75057886 1.0148343e-05 0)
(1.0159575 1.8522635e-05 0)
(1.3118134 2.9873651e-05 0)
(1.6050467 3.9983358e-05 0)
(1.8466551 3.8495732e-05 0)
(1.9845898 1.6513619e-05 0)
(1.9845898 -1.6509488e-05 0)
(1.8466551 -3.8491153e-05 0)
(1.6050467 -3.9979367e-05 0)
(1.3118134 -2.9873274e-05 0)
(1.0159575 -1.8529459e-05 0)
(0.75057887 -1.0163598e-05 0)
(0.53095985 -5.0671514e-06 0)
(0.3591716 -2.305255e-06 0)
(0.2300123 -9.3756916e-07 0)
(0.13555907 -3.205071e-07 0)
(0.067809212 -7.9397652e-08 0)
(0.019861974 -1.2547286e-08 0)
(0.019861404 9.798901e-09 0)
(0.067807291 6.8308758e-08 0)
(0.13555529 2.9075283e-07 0)
(0.23000603 8.6793014e-07 0)
(0.35916216 2.1536896e-06 0)
(0.53094666 4.7580995e-06 0)
(0.75056193 9.5699407e-06 0)
(1.0159384 1.7471912e-05 0)
(1.3117965 2.8195199e-05 0)
(1.6050405 3.7777887e-05 0)
(1.8466678 3.6463788e-05 0)
(1.9846188 1.5681729e-05 0)
(1.9846188 -1.5676981e-05 0)
(1.8466678 -3.6458513e-05 0)
(1.6050405 -3.7773285e-05 0)
(1.3117965 -2.8194846e-05 0)
(1.0159384 -1.7480023e-05 0)
(0.75056194 -9.5879423e-06 0)
(0.53094666 -4.7825017e-06 0)
(0.35916216 -2.1782214e-06 0)
(0.23000603 -8.878001e-07 0)
(0.13555529 -3.0492803e-07 0)
(0.067807291 -7.6438905e-08 0)
(0.019861404 -1.2321189e-08 0)
(0.019860867 9.2424375e-09 0)
(0.067805479 6.4426149e-08 0)
(0.13555173 2.7422325e-07 0)
(0.23000012 8.1860745e-07 0)
(0.35915325 2.0314085e-06 0)
(0.53093421 4.4883253e-06 0)
(0.75054596 9.028533e-06 0)
(1.0159203 1.6487309e-05 0)
(1.3117806 2.6619067e-05 0)
(1.6050346 3.5704129e-05 0)
(1.8466798 3.4524923e-05 0)
(1.9846465 1.4884262e-05 0)
(1.9846465 -1.4878833e-05 0)
(1.8466798 -3.4518865e-05 0)
(1.6050346 -3.5698834e-05 0)
(1.3117806 -2.6618749e-05 0)
(1.0159203 -1.6496905e-05 0)
(0.75054596 -9.0496848e-06 0)
(0.53093422 -4.5169234e-06 0)
(0.35915325 -2.0601138e-06 0)
(0.23000012 -8.4183291e-07 0)
(0.13555173 -2.9077802e-07 0)
(0.067805479 -7.3915662e-08 0)
(0.019860867 -1.218576e-08 0)
(0.01986036 8.7230483e-09 0)
(0.06780377 6.0801549e-08 0)
(0.13554836 2.587882e-07 0)
(0.22999455 7.7253008e-07 0)
(0.35914485 1.9170976e-06 0)
(0.53092248 4.2359586e-06 0)
(0.75053089 8.5218155e-06 0)
(1.0159032 1.5565642e-05 0)
(1.3117655 2.5143163e-05 0)
(1.605029 3.3753726e-05 0)
(1.846691 3.2711157e-05 0)
(1.9846726 1.4132628e-05 0)
(1.9846726 -1.4126458e-05 0)
(1.846691 -3.2704232e-05 0)
(1.605029 -3.374766e-05 0)
(1.3117655 -2.5142899e-05 0)
(1.0159032 -1.5576943e-05 0)
(0.75053089 -8.5465666e-06 0)
(0.53092248 -4.2693352e-06 0)
(0.35914485 -1.9505444e-06 0)
(0.22999455 -7.9955946e-07 0)
(0.13554836 -2.780362e-07 0)
(0.06780377 -7.1828092e-08 0)
(0.01986036 -1.2142259e-08 0)
(0.019859881 8.2360548e-09 0)
(0.067802156 5.7398964e-08 0)
(0.13554519 2.4429237e-07 0)
(0.22998928 7.2926757e-07 0)
(0.35913691 1.8098339e-06 0)
(0.53091139 3.9992606e-06 0)
(0.75051664 8.0464363e-06 0)
(1.0158871 1.4699702e-05 0)
(1.3117512 2.375274e-05 0)
(1.6050236 3.1914951e-05 0)
(1.8467017 3.0970219e-05 0)
(1.9846975 1.3408865e-05 0)
(1.9846975 -1.3401903e-05 0)
(1.8467017 -3.096234e-05 0)
(1.6050236 -3.1908039e-05 0)
(1.3117512 -2.3752568e-05 0)
(1.0158871 -1.4712969e-05 0)
(0.75051664 -8.0752933e-06 0)
(0.53091139 -4.038065e-06 0)
(0.35913691 -1.8486513e-06 0)
(0.22998928 -7.6059678e-07 0)
(0.13554519 -2.6657893e-07 0)
(0.067802156 -7.0157135e-08 0)
(0.019859881 -1.2191055e-08 0)
(0.01985943 7.7830543e-09 0)
(0.067800634 5.4234418e-08 0)
(0.13554219 2.3080621e-07 0)
(0.22998431 6.8897621e-07 0)
(0.35912942 1.7097745e-06 0)
(0.53090093 3.7781029e-06 0)
(0.7505032 7.6018938e-06 0)
(1.0158719 1.3890183e-05 0)
(1.3117377 2.2453852e-05 0)
(1.6050185 3.019024e-05 0)
(1.8467117 2.9355105e-05 0)
(1.9847208 1.2732295e-05 0)
(1.9847208 -1.2724507e-05 0)
(1.8467117 -2.9346205e-05 0)
(1.6050185 -3.0182423e-05 0)
(1.3117377 -2.2453833e-05 0)
(1.0158719 -1.3905711e-05 0)
(0.75050321 -7.6354023e-06 0)
(0.53090094 -3.8230148e-06 0)
(0.35912943 -1.7546096e-06 0)
(0.22998431 -7.2510967e-07 0)
(0.13554219 -2.5648044e-07 0)
(0.067800634 -6.8920511e-08 0)
(0.01985943 -1.2334255e-08 0)
(0.019859002 7.3562686e-09 0)
(0.067799192 5.1245614e-08 0)
(0.13553936 2.1806062e-07 0)
(0.22997961 6.5093938e-07 0)
(0.35912233 1.615512e-06 0)
(0.53089102 3.5701475e-06 0)
(0.75049046 7.1839627e-06 0)
(1.0158574 1.3127343e-05 0)
(1.3117249 2.1224708e-05 0)
(1.6050136 2.855685e-05 0)
(1.8467212 2.7790721e-05 0)
(1.9847433 1.2075847e-05 0)
(1.9847433 -1.2067214e-05 0)
(1.8467212 -2.7780748e-05 0)
(1.6050136 -2.8548092e-05 0)
(1.3117249 -2.122493e-05 0)
(1.0158574 -1.3145456e-05 0)
(0.75049047 -7.2226818e-06 0)
(0.53089103 -3.6218264e-06 0)
(0.35912234 -1.666957e-06 0)
(0.22997961 -6.9230995e-07 0)
(0.13553936 -2.4740741e-07 0)
(0.067799192 -6.8015057e-08 0)
(0.019859002 -1.2551002e-08 0)
(0.0198586 6.9661069e-09 0)
(0.067797836 4.851656e-08 0)
(0.13553669 2.0641469e-07 0)
(0.22997518 6.1607707e-07 0)
(0.35911566 1.5286974e-06 0)
(0.5308817 3.3777043e-06 0)
(0.75047848 6.7962369e-06 0)
(1.0158438 1.2420121e-05 0)
(1.3117128 2.0087677e-05 0)
(1.605009 2.7040258e-05 0)
(1.84673 2.6362465e-05 0)
(1.9847642 1.1471724e-05 0)
(1.9847642 -1.1462268e-05 0)
(1.84673 -2.6351415e-05 0)
(1.605009 -2.7030563e-05 0)
(1.3117128 -2.0088271e-05 0)
(1.0158438 -1.2441175e-05 0)
(0.7504785 -6.8407352e-06 0)
(0.5308817 -3.4367941e-06 0)