/*--------------------------------*- C++ -*----------------------------------*\
  =========                 |
  \\      /  F ield         | OpenFOAM: The Open Source CFD Toolbox
   \\    /   O peration     | Website:  https://openfoam.org
    \\  /    A nd           | Version:  10
     \\/     M anipulation  |
\*---------------------------------------------------------------------------*/
FoamFile
{
    format      ascii;
    class       volScalarField;
    location    "1.5";
    object      T_0;
}
// * * * * * * * * * * * * * * * * * * * * * * * * * * * * * * * * * * * * * //

dimensions      [0 0 -1 0 0 0 0];

internalField   nonuniform List<scalar> 
100
(
12.2413
36.6103
60.6544
84.1601
106.919
128.729
149.396
168.737
186.58
202.768
217.156
229.616
240.038
248.329
254.417
258.246
259.783
259.014
255.946
250.606
243.042
233.321
221.529
207.77
192.167
174.859
155.998
135.753
114.303
91.838
68.5581
44.6696
20.3847
-4.08113
-28.5108
-52.6873
-76.3962
-99.4271
-121.575
-142.645
-162.448
-180.809
-197.565
-212.568
-225.684
-236.796
-245.807
-252.636
-257.223
-259.527
-259.527
-257.223
-252.636
-245.807
-236.796
-225.684
-212.568
-197.565
-180.809
-162.447
-142.644
-121.575
-99.4269
-76.396
-52.6871
-28.5105
-4.08087
20.385
44.6699
68.5583
91.8382
114.303
135.753
155.998
174.859
192.167
207.77
221.529
233.321
243.042
250.607
255.946
259.014
259.783
258.246
254.417
248.329
240.038
229.616
217.155
202.768
186.58
168.737
149.396
128.728
106.919
84.16
60.6543
36.6103
12.2413
)
;

boundaryField
{
    xmin
    {
        type            fixedValue;
        value           uniform 0;
    }
    xmax
    {
        type            fixedValue;
        value           uniform 0;
    }
    frontAndBack
    {
        type            empty;
    }
}


// ************************************************************************* //
