/*--------------------------------*- C++ -*----------------------------------*\
  =========                 |
  \\      /  F ield         | OpenFOAM: The Open Source CFD Toolbox
   \\    /   O peration     | Website:  https://openfoam.org
    \\  /    A nd           | Version:  10
     \\/     M anipulation  |
\*---------------------------------------------------------------------------*/
FoamFile
{
    format      ascii;
    class       volScalarField;
    location    "5";
    object      T;
}
// * * * * * * * * * * * * * * * * * * * * * * * * * * * * * * * * * * * * * //

dimensions      [0 0 0 1 0 0 0];

internalField   nonuniform List<scalar> 
10000
(
374.91
361.038
356.185
353.962
352.679
351.808
351.152
350.623
350.176
349.785
349.436
349.119
348.827
348.555
348.301
348.061
347.835
347.621
347.418
347.225
347.041
346.866
346.7
346.542
346.392
346.249
346.113
345.984
345.863
345.747
345.638
345.535
345.438
345.346
345.26
345.18
345.104
345.033
344.967
344.905
344.847
344.793
344.743
344.697
344.654
344.615
344.578
344.544
344.513
344.485
344.459
344.435
344.413
344.393
344.375
344.358
344.344
344.33
344.318
344.307
344.297
344.288
344.28
344.273
344.267
344.261
344.257
344.252
344.249
344.245
344.243
344.24
344.238
344.237
344.235
344.234
344.234
344.233
344.233
344.233
344.233
344.233
344.234
344.234
344.235
344.236
344.237
344.238
344.239
344.241
344.242
344.244
344.246
344.247
344.249
344.251
344.253
344.256
344.258
344.263
388.364
374.076
365.901
360.924
357.603
355.189
353.31
351.768
350.452
349.296
348.26
347.315
346.444
345.633
344.873
344.157
343.481
342.84
342.232
341.653
341.103
340.58
340.082
339.608
339.158
338.73
338.323
337.937
337.572
337.226
336.899
336.59
336.299
336.025
335.767
335.525
335.298
335.085
334.886
334.7
334.527
334.366
334.217
334.078
333.949
333.831
333.721
333.62
333.527
333.441
333.363
333.291
333.226
333.166
333.112
333.062
333.018
332.977
332.941
332.908
332.878
332.852
332.828
332.807
332.788
332.772
332.757
332.744
332.733
332.723
332.715
332.708
332.702
332.697
332.693
332.69
332.688
332.687
332.686
332.686
332.686
332.687
332.688
332.69
332.692
332.695
332.698
332.701
332.705
332.709
332.714
332.719
332.724
332.729
332.735
332.741
332.747
332.754
332.761
332.768
392.806
381.019
372.436
366.245
361.636
358.055
355.152
352.709
350.593
348.716
347.021
345.469
344.033
342.693
341.436
340.251
339.129
338.066
337.056
336.095
335.181
334.311
333.483
332.696
331.946
331.234
330.558
329.917
329.309
328.733
328.189
327.675
327.191
326.734
326.305
325.902
325.524
325.17
324.839
324.53
324.242
323.974
323.725
323.494
323.28
323.082
322.9
322.731
322.576
322.434
322.304
322.185
322.076
321.976
321.886
321.804
321.729
321.662
321.601
321.546
321.497
321.453
321.413
321.378
321.347
321.319
321.295
321.274
321.255
321.239
321.225
321.214
321.204
321.196
321.189
321.184
321.18
321.178
321.176
321.176
321.176
321.178
321.18
321.183
321.187
321.191
321.197
321.202
321.209
321.216
321.223
321.231
321.24
321.249
321.258
321.268
321.279
321.289
321.301
321.313
394.621
384.773
376.591
369.995
364.66
360.264
356.556
353.351
350.525
347.987
345.675
343.546
341.567
339.716
337.974
336.329
334.77
333.291
331.885
330.547
329.273
328.06
326.906
325.807
324.761
323.767
322.824
321.928
321.079
320.276
319.516
318.798
318.121
317.484
316.884
316.321
315.793
315.298
314.836
314.404
314.002
313.627
313.279
312.956
312.657
312.381
312.126
311.891
311.674
311.476
311.294
311.127
310.974
310.836
310.709
310.594
310.49
310.396
310.311
310.234
310.166
310.104
310.049
310
309.956
309.917
309.883
309.854
309.828
309.805
309.786
309.77
309.756
309.744
309.735
309.728
309.723
309.719
309.717
309.717
309.718
309.72
309.723
309.727
309.732
309.738
309.745
309.753
309.762
309.772
309.782
309.793
309.805
309.818
309.831
309.845
309.86
309.875
309.891
309.907
395.498
386.878
379.175
372.501
366.766
361.813
357.486
353.652
350.208
347.075
344.195
341.525
339.03
336.688
334.478
332.386
330.402
328.516
326.721
325.012
323.384
321.833
320.355
318.949
317.61
316.338
315.129
313.982
312.894
311.864
310.891
309.971
309.103
308.286
307.518
306.796
306.118
305.484
304.891
304.338
303.822
303.342
302.896
302.482
302.098
301.744
301.416
301.115
300.837
300.583
300.349
300.135
299.94
299.762
299.599
299.452
299.319
299.198
299.089
298.991
298.902
298.823
298.752
298.689
298.633
298.584
298.54
298.502
298.469
298.44
298.415
298.394
298.376
298.362
298.35
298.341
298.334
298.329
298.327
298.326
298.327
298.33
298.334
298.339
298.346
298.353
298.363
298.373
298.384
298.396
298.41
298.424
298.439
298.455
298.472
298.49
298.508
298.528
298.548
298.569
395.966
388.085
380.747
374.088
368.116
362.77
357.962
353.608
349.631
345.967
342.568
339.394
336.414
333.603
330.944
328.422
326.024
323.742
321.567
319.495
317.519
315.636
313.841
312.131
310.504
308.956
307.486
306.09
304.767
303.513
302.328
301.208
300.152
299.157
298.221
297.342
296.517
295.745
295.023
294.348
293.72
293.135
292.591
292.087
291.62
291.188
290.789
290.422
290.084
289.773
289.489
289.228
288.99
288.773
288.575
288.396
288.233
288.086
287.953
287.833
287.726
287.629
287.543
287.466
287.398
287.338
287.284
287.238
287.197
287.162
287.132
287.106
287.084
287.067
287.052
287.041
287.033
287.027
287.024
287.023
287.024
287.027
287.032
287.038
287.046
287.056
287.067
287.079
287.093
287.108
287.124
287.141
287.159
287.179
287.199
287.221
287.244
287.267
287.292
287.317
396.223
388.769
381.661
375.016
368.876
363.229
358.035
353.243
348.802
344.665
340.792
337.151
333.714
330.461
327.373
324.436
321.638
318.972
316.428
314.001
311.685
309.476
307.37
305.363
303.452
301.634
299.905
298.265
296.709
295.235
293.841
292.524
291.281
290.11
289.009
287.975
287.004
286.095
285.245
284.452
283.712
283.023
282.383
281.79
281.24
280.731
280.262
279.829
279.431
279.066
278.73
278.424
278.143
277.888
277.655
277.444
277.252
277.079
276.922
276.781
276.654
276.541
276.439
276.349
276.268
276.197
276.135
276.08
276.032
275.99
275.955
275.924
275.899
275.878
275.861
275.848
275.838
275.831
275.827
275.826
275.827
275.83
275.836
275.844
275.853
275.864
275.877
275.891
275.907
275.925
275.943
275.963
275.985
276.008
276.032
276.057
276.084
276.111
276.14
276.17
396.358
389.129
382.135
375.469
369.181
363.283
357.762
352.593
347.742
343.178
338.873
334.799
330.935
327.262
323.765
320.431
317.249
314.211
311.309
308.537
305.89
303.363
300.953
298.654
296.465
294.381
292.399
290.518
288.733
287.043
285.443
283.931
282.505
281.161
279.897
278.709
277.595
276.551
275.575
274.664
273.814
273.023
272.288
271.606
270.975
270.39
269.851
269.354
268.897
268.477
268.092
267.739
267.417
267.124
266.856
266.613
266.393
266.194
266.014
265.852
265.706
265.576
265.459
265.355
265.263
265.181
265.109
265.046
264.991
264.943
264.902
264.867
264.838
264.813
264.794
264.779
264.767
264.759
264.755
264.753
264.754
264.758
264.764
264.773
264.784
264.796
264.811
264.827
264.845
264.865
264.886
264.909
264.934
264.96
264.987
265.016
265.046
265.078
265.111
265.145
396.416
389.277
382.308
375.581
369.142
363.016
357.204
351.698
346.479
341.528
336.823
332.347
328.082
324.013
320.127
316.413
312.862
309.465
306.217
303.11
300.141
297.305
294.597
292.014
289.552
287.208
284.979
282.861
280.852
278.948
277.146
275.444
273.837
272.323
270.898
269.56
268.304
267.127
266.027
265
264.042
263.15
262.322
261.553
260.84
260.182
259.574
259.013
258.498
258.024
257.59
257.192
256.829
256.498
256.196
255.922
255.674
255.449
255.246
255.063
254.899
254.752
254.62
254.503
254.398
254.306
254.225
254.153
254.091
254.037
253.991
253.951
253.918
253.891
253.869
253.851
253.838
253.829
253.824
253.822
253.823
253.827
253.834
253.844
253.856
253.87
253.886
253.904
253.924
253.946
253.97
253.996
254.023
254.052
254.083
254.115
254.149
254.184
254.221
254.259
396.423
389.283
382.271
375.443
368.843
362.496
356.415
350.599
345.043
339.734
334.66
329.808
325.166
320.721
316.465
312.388
308.482
304.741
301.158
297.728
294.446
291.309
288.311
285.451
282.723
280.125
277.653
275.305
273.076
270.963
268.964
267.074
265.29
263.609
262.027
260.54
259.145
257.838
256.616
255.475
254.41
253.42
252.499
251.644
250.853
250.121
249.445
248.822
248.249
247.723
247.24
246.798
246.394
246.026
245.691
245.386
245.11
244.86
244.635
244.431
244.249
244.085
243.938
243.808
243.692
243.589
243.499
243.419
243.35
243.29
243.238
243.194
243.157
243.127
243.102
243.083
243.068
243.058
243.052
243.049
243.051
243.055
243.062
243.073
243.086
243.101
243.119
243.139
243.161
243.185
243.212
243.24
243.27
243.302
243.335
243.371
243.408
243.447
243.488
243.529
396.394
389.188
382.082
375.123
368.346
361.781
355.441
349.335
343.463
337.82
332.4
327.195
322.197
317.397
312.789
308.365
304.119
300.046
296.14
292.397
288.813
285.384
282.106
278.975
275.989
273.143
270.435
267.86
265.417
263.1
260.907
258.834
256.877
255.032
253.295
251.663
250.132
248.697
247.355
246.102
244.934
243.846
242.834
241.896
241.027
240.223
239.48
238.796
238.167
237.588
237.058
236.572
236.129
235.724
235.356
235.021
234.718
234.443
234.195
233.972
233.771
233.591
233.43
233.287
233.159
233.046
232.947
232.859
232.783
232.717
232.66
232.612
232.571
232.537
232.51
232.488
232.472
232.461
232.454
232.451
232.452
232.457
232.465
232.476
232.49
232.506
232.526
232.547
232.571
232.598
232.626
232.657
232.689
232.724
232.761
232.799
232.84
232.882
232.926
232.971
396.341
389.021
381.785
374.667
367.701
360.914
354.323
347.94
341.768
335.81
330.064
324.525
319.189
314.052
309.108
304.353
299.781
295.389
291.172
287.128
283.251
279.539
275.988
272.596
269.358
266.271
263.332
260.538
257.885
255.369
252.987
250.735
248.608
246.603
244.716
242.942
241.278
239.718
238.259
236.896
235.625
234.442
233.342
232.321
231.376
230.501
229.694
228.949
228.264
227.635
227.058
226.53
226.047
225.607
225.206
224.842
224.512
224.213
223.943
223.7
223.481
223.285
223.11
222.954
222.815
222.692
222.584
222.489
222.405
222.333
222.271
222.219
222.174
222.137
222.107
222.083
222.065
222.053
222.045
222.042
222.043
222.048
222.056
222.068
222.083
222.1
222.121
222.144
222.17
222.198
222.229
222.262
222.297
222.334
222.373
222.415
222.458
222.504
222.551
222.6
396.27
388.803
381.408
374.112
366.945
359.933
353.094
346.441
339.984
333.726
327.669
321.813
316.156
310.697
305.433
300.36
295.476
290.778
286.263
281.927
277.768
273.782
269.968
266.321
262.839
259.519
256.356
253.348
250.491
247.782
245.215
242.788
240.496
238.335
236.301
234.388
232.594
230.912
229.338
227.868
226.497
225.221
224.034
222.933
221.913
220.97
220.098
219.295
218.556
217.877
217.254
216.684
216.163
215.688
215.256
214.862
214.506
214.183
213.892
213.63
213.394
213.182
212.993
212.824
212.674
212.541
212.424
212.321
212.231
212.153
212.086
212.029
211.981
211.941
211.908
211.882
211.863
211.849
211.84
211.836
211.837
211.842
211.851
211.863
211.879
211.897
211.919
211.944
211.971
212.001
212.034
212.068
212.106
212.145
212.187
212.231
212.278
212.326
212.377
212.429
396.186
388.549
380.973
373.483
366.107
358.866
351.781
344.867
338.133
331.586
325.233
319.074
313.111
307.345
301.775
296.398
291.215
286.223
281.42
276.803
272.372
268.123
264.053
260.161
256.442
252.895
249.515
246.3
243.245
240.347
237.601
235.004
232.552
230.239
228.061
226.013
224.091
222.29
220.605
219.03
217.562
216.195
214.924
213.744
212.651
211.64
210.707
209.846
209.054
208.326
207.659
207.048
206.49
205.98
205.517
205.095
204.713
204.367
204.055
203.774
203.521
203.294
203.091
202.91
202.749
202.606
202.48
202.37
202.274
202.19
202.118
202.056
202.004
201.961
201.926
201.898
201.877
201.861
201.852
201.848
201.848
201.853
201.862
201.874
201.891
201.91
201.933
201.959
201.988
202.02
202.054
202.091
202.13
202.172
202.216
202.263
202.312
202.363
202.416
202.471
396.093
388.267
380.497
372.802
365.208
357.738
350.409
343.237
336.235
329.411
322.772
316.323
310.068
304.007
298.144
292.476
287.006
281.731
276.652
271.766
267.072
262.568
258.253
254.123
250.176
246.409
242.819
239.402
236.155
233.074
230.154
227.393
224.783
222.323
220.005
217.826
215.781
213.864
212.07
210.394
208.831
207.375
206.021
204.765
203.601
202.525
201.53
200.614
199.77
198.995
198.284
197.633
197.038
196.496
196.002
195.553
195.146
194.777
194.444
194.144
193.874
193.633
193.416
193.223
193.052
192.9
192.765
192.648
192.545
192.455
192.378
192.312
192.257
192.21
192.173
192.143
192.12
192.103
192.093
192.088
192.088
192.092
192.101
192.114
192.131
192.152
192.176
192.203
192.233
192.266
192.302
192.34
192.381
192.425
192.471
192.52
192.572
192.625
192.681
192.739
395.993
387.967
379.991
372.084
364.269
356.566
348.995
341.571
334.307
327.215
320.302
313.574
307.038
300.696
294.551
288.604
282.858
277.313
271.967
266.822
261.876
257.127
252.574
248.215
244.047
240.068
236.274
232.663
229.23
225.972
222.884
219.962
217.201
214.597
212.144
209.838
207.672
205.642
203.743
201.968
200.312
198.771
197.337
196.007
194.774
193.633
192.579
191.608
190.714
189.893
189.14
188.45
187.82
187.245
186.721
186.245
185.814
185.423
185.07
184.752
184.466
184.21
183.98
183.776
183.594
183.432
183.29
183.165
183.055
182.96
182.879
182.808
182.749
182.7
182.66
182.627
182.603
182.585
182.573
182.567
182.567
182.572
182.581
182.594
182.611
182.632
182.657
182.685
182.716
182.75
182.788
182.828
182.871
182.916
182.965
183.016
183.069
183.125
183.183
183.243
395.889
387.654
379.466
371.342
363.302
355.367
347.556
339.885
332.367
325.014
317.835
310.84
304.033
297.42
291.005
284.792
278.781
272.975
267.375
261.98
256.791
251.806
247.024
242.444
238.063
233.879
229.889
226.09
222.477
219.048
215.797
212.72
209.813
207.07
204.486
202.056
199.774
197.635
195.633
193.762
192.017
190.392
188.88
187.477
186.177
184.975
183.864
182.84
181.897
181.031
180.236
179.509
178.844
178.237
177.685
177.183
176.728
176.315
175.943
175.608
175.306
175.035
174.793
174.577
174.385
174.214
174.064
173.932
173.816
173.716
173.629
173.555
173.492
173.439
173.397
173.362
173.336
173.317
173.304
173.297
173.296
173.301
173.31
173.323
173.341
173.362
173.388
173.416
173.449
173.484
173.523
173.564
173.608
173.656
173.706
173.758
173.814
173.871
173.932
173.994
395.783
387.334
378.93
370.585
362.32
354.154
346.106
338.191
330.425
322.819
315.385
308.13
301.064
294.191
287.517
281.047
274.782
268.727
262.881
257.247
251.824
246.612
241.611
236.818
232.232
227.851
223.671
219.691
215.905
212.31
208.901
205.675
202.625
199.748
197.037
194.488
192.093
189.849
187.747
185.784
183.952
182.246
180.659
179.186
177.821
176.558
175.392
174.316
173.326
172.416
171.582
170.818
170.119
169.482
168.902
168.374
167.896
167.463
167.072
166.719
166.402
166.117
165.863
165.636
165.434
165.254
165.096
164.957
164.835
164.73
164.638
164.56
164.494
164.438
164.393
164.356
164.328
164.307
164.293
164.286
164.284
164.288
164.297
164.311
164.329
164.351
164.376
164.406
164.439
164.475
164.515
164.557
164.603
164.651
164.703
164.757
164.814
164.874
164.936
165
395.675
387.01
378.388
369.822
361.332
352.937
344.655
336.502
328.494
320.643
312.961
305.457
298.14
291.017
284.095
277.378
270.87
264.575
258.494
252.63
246.983
241.553
236.34
231.343
226.56
221.988
217.627
213.471
209.518
205.763
202.203
198.832
195.646
192.639
189.806
187.141
184.638
182.291
180.094
178.04
176.124
174.34
172.68
171.14
169.712
168.391
167.17
166.045
165.009
164.057
163.184
162.384
161.653
160.987
160.379
159.827
159.327
158.873
158.464
158.095
157.762
157.464
157.198
156.96
156.748
156.56
156.395
156.249
156.121
156.01
155.914
155.832
155.762
155.703
155.655
155.617
155.587
155.565
155.55
155.541
155.539
155.542
155.551
155.565
155.582
155.605
155.631
155.661
155.695
155.732
155.772
155.816
155.862
155.912
155.965
156.02
156.079
156.14
156.204
156.269
395.567
386.685
377.845
369.059
360.345
351.724
343.213
334.828
326.584
318.495
310.573
302.828
295.27
287.907
280.746
273.792
267.051
260.525
254.219
248.134
242.272
236.633
231.217
226.024
221.051
216.297
211.76
207.436
203.322
199.414
195.708
192.198
188.88
185.748
182.797
180.02
177.412
174.967
172.677
170.537
168.541
166.68
164.951
163.344
161.856
160.478
159.206
158.033
156.952
155.96
155.049
154.215
153.453
152.757
152.124
151.548
151.026
150.553
150.126
149.74
149.394
149.083
148.804
148.556
148.335
148.139
147.966
147.813
147.68
147.563
147.463
147.377
147.304
147.242
147.192
147.151
147.119
147.095
147.079
147.07
147.067
147.07
147.078
147.091
147.109
147.132
147.158
147.188
147.222
147.26
147.301
147.346
147.393
147.444
147.497
147.554
147.614
147.676
147.741
147.808
395.459
386.362
377.305
368.301
359.367
350.524
341.787
333.175
324.703
316.383
308.229
300.252
292.462
284.868
277.477
270.296
263.331
256.585
250.063
243.766
237.698
231.858
226.248
220.866
215.711
210.782
206.077
201.592
197.323
193.268
189.421
185.777
182.332
179.08
176.015
173.132
170.423
167.882
165.504
163.28
161.205
159.272
157.475
155.806
154.258
152.827
151.504
150.284
149.161
148.129
147.183
146.316
145.523
144.8
144.141
143.542
142.999
142.507
142.063
141.662
141.301
140.978
140.688
140.43
140.199
139.995
139.815
139.656
139.517
139.396
139.291
139.201
139.124
139.06
139.007
138.964
138.93
138.905
138.888
138.877
138.873
138.876
138.883
138.896
138.914
138.937
138.963
138.994
139.028
139.066
139.108
139.153
139.201
139.252
139.307
139.364
139.425
139.488
139.554
139.622
395.353
386.042
376.771
367.552
358.403
349.341
340.385
331.552
322.857
314.314
305.936
297.736
289.722
281.906
274.295
266.896
259.716
252.759
246.03
239.531
233.265
227.233
221.436
215.873
210.544
205.448
200.581
195.941
191.524
187.327
183.345
179.573
176.007
172.639
169.465
166.478
163.672
161.041
158.576
156.273
154.123
152.12
150.257
148.527
146.923
145.439
144.068
142.804
141.64
140.57
139.589
138.69
137.868
137.118
136.435
135.814
135.251
134.74
134.279
133.864
133.49
133.154
132.853
132.585
132.346
132.134
131.947
131.782
131.637
131.511
131.402
131.308
131.228
131.161
131.105
131.06
131.025
130.998
130.979
130.968
130.963
130.965
130.972
130.984
131.002
131.024
131.051
131.081
131.116
131.154
131.196
131.241
131.29
131.342
131.397
131.455
131.516
131.58
131.647
131.716
395.248
385.728
376.247
366.817
357.456
348.182
339.012
329.964
321.054
312.295
303.701
295.284
287.057
279.027
271.205
263.597
256.211
249.052
242.124
235.431
228.976
222.761
216.785
211.05
205.554
200.297
195.275
190.487
185.928
181.596
177.484
173.59
169.906
166.428
163.149
160.064
157.165
154.445
151.899
149.518
147.296
145.226
143.3
141.512
139.854
138.32
136.903
135.595
134.392
133.285
132.27
131.341
130.491
129.715
129.009
128.366
127.784
127.256
126.779
126.349
125.962
125.614
125.303
125.025
124.778
124.558
124.364
124.193
124.043
123.912
123.799
123.701
123.618
123.548
123.49
123.443
123.406
123.377
123.357
123.345
123.339
123.34
123.346
123.358
123.376
123.397
123.424
123.454
123.489
123.527
123.569
123.615
123.664
123.716
123.771
123.83
123.891
123.956
124.024
124.093
395.145
385.421
375.734
366.099
356.531
347.05
337.672
328.416
319.297
310.33
301.528
292.904
284.47
276.236
268.211
260.403
252.82
245.467
238.35
231.472
224.836
218.445
212.299
206.398
200.743
195.332
190.163
185.232
180.538
176.076
171.841
167.828
164.033
160.449
157.07
153.89
150.901
148.098
145.473
143.018
140.727
138.592
136.607
134.762
133.053
131.47
130.008
128.66
127.418
126.277
125.23
124.271
123.394
122.594
121.865
121.202
120.6
120.056
119.563
119.119
118.72
118.361
118.04
117.753
117.497
117.27
117.069
116.893
116.737
116.602
116.485
116.384
116.297
116.225
116.164
116.115
116.075
116.046
116.024
116.01
116.004
116.003
116.009
116.021
116.037
116.059
116.085
116.115
116.15
116.188
116.23
116.275
116.324
116.377
116.432
116.491
116.553
116.618
116.686
116.755
395.046
385.121
375.235
365.399
355.63
345.948
336.369
326.912
317.592
308.423
299.421
290.598
281.966
273.536
265.317
257.318
249.546
242.009
234.71
227.655
220.847
214.288
207.979
201.921
196.113
190.555
185.245
180.179
175.355
170.769
166.416
162.291
158.388
154.703
151.228
147.957
144.884
142
139.299
136.774
134.417
132.221
130.177
128.279
126.52
124.891
123.387
121.999
120.721
119.546
118.468
117.481
116.578
115.754
115.004
114.321
113.702
113.141
112.634
112.176
111.765
111.395
111.064
110.768
110.505
110.271
110.064
109.881
109.721
109.581
109.46
109.355
109.266
109.191
109.128
109.076
109.035
109.003
108.981
108.966
108.958
108.957
108.962
108.973
108.989
109.01
109.035
109.065
109.099
109.137
109.179
109.224
109.273
109.325
109.381
109.44
109.502
109.566
109.634
109.704
394.949
384.83
374.749
364.719
354.756
344.879
335.107
325.455
315.941
306.579
297.384
288.37
279.548
270.93
262.526
254.344
246.393
238.678
231.207
223.983
217.01
210.291
203.826
197.618
191.665
185.968
180.522
175.328
170.38
165.675
161.209
156.977
152.973
149.191
145.624
142.267
139.112
136.152
133.379
130.786
128.366
126.111
124.012
122.063
120.256
118.584
117.038
115.612
114.3
113.093
111.985
110.971
110.044
109.197
108.426
107.724
107.088
106.511
105.99
105.52
105.097
104.717
104.376
104.072
103.801
103.561
103.347
103.159
102.994
102.85
102.725
102.617
102.525
102.446
102.381
102.328
102.285
102.251
102.227
102.211
102.202
102.2
102.204
102.214
102.229
102.25
102.275
102.304
102.338
102.376
102.417
102.462
102.51
102.562
102.618
102.676
102.738
102.802
102.87
102.939
394.855
384.548
374.28
364.061
353.911
343.847
333.886
324.048
314.347
304.8
295.42
286.223
277.219
268.422
259.84
251.484
243.361
235.478
227.842
220.457
213.327
206.455
199.843
193.492
187.401
181.569
175.996
170.678
165.613
160.796
156.222
151.888
147.786
143.912
140.259
136.819
133.586
130.553
127.711
125.054
122.574
120.262
118.111
116.113
114.261
112.546
110.962
109.5
108.154
106.916
105.781
104.741
103.79
102.921
102.13
101.411
100.758
100.167
99.632
99.1496
98.7154
98.3254
97.976
97.6637
97.3854
97.1381
96.9191
96.726
96.5563
96.4079
96.279
96.1676
96.0723
95.9915
95.9238
95.8682
95.8234
95.7885
95.7626
95.745
95.735
95.7318
95.735
95.7441
95.7587
95.7783
95.8027
95.8316
95.8647
95.9017
95.9426
95.9872
96.0352
96.0867
96.1415
96.1996
96.2608
96.3251
96.3923
96.4611
394.764
384.276
373.826
363.427
353.096
342.851
332.71
322.692
312.812
303.087
293.531
284.158
274.981
266.012
257.261
248.738
240.452
232.409
224.616
217.078
209.799
202.782
196.029
189.541
183.319
177.361
171.666
166.231
161.053
156.129
151.453
147.021
142.828
138.866
135.129
131.611
128.304
125.201
122.295
119.576
117.038
114.673
112.472
110.428
108.532
106.777
105.155
103.659
102.282
101.015
99.8527
98.7879
97.8142
96.9253
96.1155
95.379
94.7104
94.1048
93.5572
93.0631
92.6183
92.2187
91.8607
91.5407
91.2554
91.0019
90.7773
90.5791
90.4049
90.2525
90.1199
90.0053
89.9071
89.8237
89.7537
89.696
89.6494
89.6128
89.5855
89.5665
89.5552
89.5509
89.5531
89.5613
89.575
89.5938
89.6174
89.6455
89.6779
89.7143
89.7545
89.7984
89.8459
89.8967
89.9509
90.0083
90.0689
90.1326
90.1992
90.2674
394.677
384.014
373.39
362.817
352.312
341.893
331.58
321.389
311.338
301.443
291.718
282.178
272.835
263.703
254.79
246.109
237.667
229.471
221.529
213.845
206.424
199.269
192.383
185.766
179.419
173.34
167.529
161.983
156.699
151.673
146.901
142.376
138.095
134.05
130.234
126.642
123.265
120.095
117.127
114.35
111.757
109.341
107.093
105.004
103.067
101.274
99.6172
98.0885
96.6806
95.3862
94.1984
93.1101
92.1148
91.2063
90.3785
89.6256
88.9422
88.323
87.7631
87.2579
86.803
86.3943
86.028
85.7005
85.4086
85.1491
84.9191
84.716
84.5375
84.3812
84.2451
84.1274
84.0264
83.9405
83.8682
83.8085
83.76
83.7217
83.6929
83.6725
83.6599
83.6545
83.6556
83.6627
83.6755
83.6934
83.7161
83.7434
83.7749
83.8105
83.85
83.8931
83.9397
83.9898
84.0432
84.0998
84.1596
84.2225
84.2883
84.3557
394.593
383.763
372.972
362.232
351.56
340.975
330.496
320.141
309.926
299.868
289.982
280.282
270.782
261.493
252.428
243.596
235.005
226.665
218.581
210.759
203.203
195.918
188.905
182.165
175.699
169.507
163.586
157.935
152.55
147.427
142.563
137.951
133.586
129.461
125.571
121.908
118.464
115.232
112.204
109.372
106.728
104.263
101.97
99.8392
97.8634
96.0341
94.3435
92.7838
91.3473
90.0266
88.8144
87.7038
86.6881
85.7609
84.9161
84.1476
83.4499
82.8178
82.2462
81.7304
81.2658
80.8485
80.4743
80.1398
79.8415
79.5762
79.341
79.1333
78.9506
78.7906
78.6511
78.5304
78.4266
78.3382
78.2638
78.202
78.1517
78.1118
78.0814
78.0596
78.0457
78.039
78.039
78.045
78.0567
78.0736
78.0954
78.1217
78.1523
78.187
78.2255
78.2678
78.3135
78.3626
78.4151
78.4708
78.5296
78.5915
78.6563
78.7227
394.513
383.523
372.572
361.672
350.84
340.097
329.46
318.947
308.576
298.363
288.323
278.472
268.821
259.385
250.174
241.198
232.467
223.989
215.771
207.818
200.135
192.725
185.592
178.736
172.158
165.858
159.833
154.082
148.601
143.388
138.436
133.741
129.297
125.098
121.137
117.406
113.9
110.608
107.525
104.64
101.947
99.4362
97.0999
94.9294
92.9165
91.0529
89.3305
87.7413
86.2776
84.9319
83.6967
82.565
81.5299
80.5849
79.7238
78.9406
78.2294
77.585
77.0023
76.4763
76.0027
75.577
75.1954
74.8541
74.5497
74.2789
74.0388
73.8267
73.64
73.4763
73.3336
73.2099
73.1035
73.0127
72.9361
72.8723
72.8202
72.7786
72.7466
72.7234
72.7082
72.7003
72.699
72.7039
72.7145
72.7303
72.751
72.7763
72.8059
72.8396
72.8771
72.9182
72.9629
73.011
73.0624
73.117
73.1747
73.2354
73.299
73.3643
394.436
383.293
372.189
361.137
350.153
339.258
328.471
317.808
307.289
296.928
286.742
276.746
266.953
257.376
248.027
238.916
230.052
221.443
213.098
205.021
197.217
189.69
182.443
175.478
168.793
162.391
156.268
150.422
144.851
139.551
134.517
129.743
125.225
120.955
116.927
113.133
109.567
106.219
103.083
100.149
97.409
94.855
92.4782
90.27
88.222
86.3259
84.5733
82.9563
81.4669
80.0974
78.8404
77.6886
76.6352
75.6734
74.797
73.9996
73.2757
72.6197
72.0264
71.4909
71.0085
70.575
70.1862
69.8385
69.5283
69.2523
69.0075
68.7911
68.6005
68.4334
68.2875
68.161
68.052
67.9589
67.8801
67.8144
67.7604
67.7172
67.6837
67.659
67.6425
67.6332
67.6307
67.6344
67.6438
67.6585
67.6781
67.7023
67.7308
67.7633
67.7996
67.8397
67.8832
67.9301
67.9802
68.0336
68.09
68.1495
68.2117
68.2756
394.363
383.075
371.825
360.627
349.499
338.46
327.529
316.724
306.063
295.563
285.238
275.105
265.177
255.467
245.987
236.747
227.757
219.025
210.559
202.365
194.447
186.81
179.456
172.386
165.602
159.102
152.887
146.952
141.296
135.914
130.802
125.954
121.366
117.029
112.937
109.084
105.461
102.061
98.874
95.8932
93.1096
90.5146
88.0995
85.8557
83.7746
81.8478
80.0668
78.4234
76.9096
75.5177
74.2401
73.0694
71.9986
71.0209
70.1299
69.3193
68.5833
67.9162
67.3129
66.7683
66.2776
65.8367
65.4412
65.0873
64.7716
64.4906
64.2413
64.0208
63.8265
63.6561
63.5072
63.378
63.2665
63.1711
63.0902
63.0226
62.9668
62.922
62.8869
62.8608
62.8428
62.8323
62.8285
62.8309
62.8391
62.8526
62.871
62.894
62.9212
62.9525
62.9877
63.0265
63.0687
63.1143
63.1631
63.2151
63.2702
63.3282
63.389
63.4514
394.294
382.867
371.479
360.143
348.878
337.702
326.635
315.695
304.9
294.266
283.811
273.548
263.492
253.656
244.052
234.69
225.581
216.733
208.154
199.849
191.823
184.081
176.626
169.458
162.579
155.989
149.686
143.667
137.931
132.472
127.287
122.369
117.714
113.314
109.163
105.254
101.577
98.1267
94.8931
91.8681
89.0432
86.4095
83.9584
81.681
79.5686
77.6127
75.8049
74.1366
72.5999
71.1869
69.8898
68.7012
67.6139
66.6212
65.7164
64.8933
64.1458
63.4684
62.8556
62.3023
61.8039
61.3559
60.954
60.5943
60.2733
59.9876
59.734
59.5096
59.3118
59.1382
58.9865
58.8546
58.7407
58.643
58.5602
58.4906
58.4331
58.3866
58.35
58.3225
58.3031
58.2912
58.2861
58.2872
58.2941
58.3064
58.3235
58.3452
58.3712
58.4012
58.4351
58.4725
58.5134
58.5576
58.605
58.6555
58.709
58.7655
58.8247
58.8855
394.228
382.67
371.151
359.684
348.288
336.983
325.787
314.719
303.797
293.038
282.458
272.073
261.896
251.941
242.22
232.744
223.523
214.565
205.878
197.469
189.342
181.501
173.95
166.691
159.723
153.047
146.661
140.564
134.751
129.22
123.966
118.983
114.265
109.806
105.599
101.636
97.9098
94.412
91.1341
88.0676
85.2037
82.5336
80.0485
77.7394
75.5977
73.6145
71.7813
70.0896
68.5313
67.0983
65.7829
64.5774
63.4747
62.4678
61.5501
60.7151
59.9568
59.2695
58.6478
58.0864
57.5806
57.1258
56.7179
56.3527
56.0268
55.7365
55.4788
55.2508
55.0496
54.8729
54.7184
54.584
54.4678
54.368
54.2831
54.2117
54.1526
54.1044
54.0663
54.0372
54.0164
54.0032
53.9967
53.9966
54.0022
54.0131
54.0289
54.0493
54.074
54.1026
54.1351
54.1711
54.2105
54.2532
54.2991
54.348
54.4
54.4548
54.5123
54.5714
394.166
382.483
370.84
359.25
347.731
336.303
324.985
313.796
302.754
291.877
281.179
270.678
260.387
250.32
240.489
230.905
221.578
212.517
203.729
195.222
186.999
179.066
171.426
164.079
157.028
150.271
143.808
137.636
131.753
126.154
120.834
115.789
111.013
106.498
102.238
98.2258
94.4525
90.9103
87.5908
84.4852
81.5847
78.8804
76.3634
74.0246
71.8551
69.8462
67.9892
66.2756
64.6969
63.2451
61.9124
60.6911
59.5738
58.5536
57.6236
56.7775
56.009
55.3125
54.6823
54.1132
53.6005
53.1394
52.7257
52.3553
52.0247
51.7301
51.4686
51.237
51.0326
50.853
50.6959
50.559
50.4405
50.3387
50.2519
50.1787
50.1178
50.0681
50.0284
49.9979
49.9757
49.961
49.9533
49.9518
49.956
49.9656
49.9801
49.9991
50.0224
50.0496
50.0806
50.1152
50.1531
50.1942
50.2385
50.2857
50.336
50.389
50.4447
50.502
394.107
382.307
370.547
358.84
347.204
335.66
324.227
312.925
301.77
290.78
279.973
269.363
258.964
248.792
238.857
229.171
219.745
210.586
201.704
193.104
184.792
176.772
169.047
161.619
154.489
147.657
141.121
134.88
128.93
123.267
117.887
112.784
107.952
103.385
99.0758
95.0163
91.1989
87.6152
84.2566
81.1143
78.1795
75.4431
72.896
70.5293
68.3339
66.3009
64.4215
62.6871
61.0894
59.62
58.271
57.0348
55.9038
54.871
53.9296
53.073
52.295
51.5897
50.9515
50.3753
49.8559
49.3889
48.9698
48.5945
48.2594
47.9608
47.6956
47.4606
47.2533
47.0709
46.9111
46.7719
46.6513
46.5474
46.4588
46.3839
46.3213
46.27
46.2289
46.1969
46.1733
46.1572
46.1481
46.1452
46.1481
46.1563
46.1694
46.187
46.2089
46.2346
46.2641
46.2971
46.3334
46.373
46.4155
46.4611
46.5095
46.5608
46.6146
46.6699
394.052
382.141
370.27
358.453
346.708
335.055
323.514
312.104
300.843
289.748
278.837
268.124
257.625
247.353
237.321
227.539
218.019