/*--------------------------------*- C++ -*----------------------------------*\
| =========                 |                                                 |
| \\      /  F ield         | OpenFOAM: The Open Source CFD Toolbox           |
|  \\    /   O peration     | Version:  2406                                  |
|   \\  /    A nd           | Website:  www.openfoam.com                      |
|    \\/     M anipulation  |                                                 |
\*---------------------------------------------------------------------------*/
FoamFile
{
    version     2.0;
    format      ascii;
    arch        "LSB;label=32;scalar=64";
    class       volScalarField;
    location    "0.015";
    object      T;
}
// * * * * * * * * * * * * * * * * * * * * * * * * * * * * * * * * * * * * * //

dimensions      [0 0 0 1 0 0 0];

internalField   nonuniform List<scalar> 
12225
(
1.00694
1.00397
1.00144
1.00053
1.00001
0.99965
0.999457
0.999369
0.99932
0.999282
0.999238
0.999149
0.998939
0.998407
0.997078
0.993829
0.985549
0.964859
0.994965
0.99447
0.996349
0.997908
0.99867
0.998979
0.999136
0.999239
0.999299
0.999324
0.999315
0.999251
0.999057
0.998552
0.997275
0.994181
0.986579
0.968486
0.999592
0.99992
1
0.999967
0.999819
0.999637
0.999514
0.999448
0.999407
0.99937
0.999323
0.999236
0.999034
0.998546
0.997353
0.994525
0.987902
0.973483
1.00032
1.00007
0.999547
0.99942
0.999421
0.999388
0.999355
0.99934
0.999332
0.999316
0.999285
0.999211
0.99903
0.998587
0.997518
0.99505
0.989579
0.978568
1.00013
0.999833
0.999434
0.999387
0.999436
0.999423
0.999388
0.999364
0.999346
0.999324
0.999288
0.999214
0.999045
0.998644
0.997714
0.995644
0.991307
0.983167
0.999993
0.999846
0.999578
0.999496
0.999494
0.99946
0.999411
0.999376
0.999348
0.999319
0.999278
0.999205
0.99905
0.9987
0.997918
0.996253
0.992945
0.987083
0.999975
0.999925
0.999719
0.999592
0.999547
0.999498
0.999443
0.999398
0.999361
0.999324
0.999279
0.999206
0.999065
0.998768
0.998134
0.996846
0.99441
0.99029
0.999983
0.999963
0.999798
0.999661
0.999596
0.999539
0.999476
0.999422
0.999376
0.999332
0.999282
0.999209
0.99908
0.998827
0.99831
0.997298
0.995458
0.992438
0.999986
0.999973
0.99984
0.999706
0.999627
0.99956
0.999491
0.999429
0.999376
0.999325
0.999271
0.999198
0.999081
0.998863
0.998441
0.997644
0.996241
0.993993
0.999984
0.999963
0.999852
0.999723
0.999631
0.999554
0.999478
0.999409
0.999349
0.999293
0.999234
0.999162
0.999057
0.998875
0.998541
0.997939
0.996913
0.995306
0.99998
0.999942
0.99984
0.999715
0.999612
0.999524
0.999441
0.999365
0.999299
0.999237
0.999176
0.999106
0.999012
0.998864
0.998609
0.998172
0.997455
0.996358
0.999976
0.999921
0.999818
0.999694
0.999583
0.999486
0.999398
0.999317
0.999244
0.999178
0.999114
0.999047
0.998964
0.998845
0.998657
0.998354
0.997877
0.997163
0.999975
0.999912
0.999811
0.99969
0.999577
0.999476
0.999384
0.9993
0.999223
0.999154
0.999091
0.999026
0.998952
0.998859
0.998725
0.998522
0.998219
0.99778
0.999978
0.999919
0.999828
0.999717
0.99961
0.999512
0.99942
0.999338
0.999263
0.999195
0.999134
0.999074
0.999009
0.998936
0.998843
0.998712
0.998529
0.998274
0.999982
0.999936
0.999861
0.999769
0.999677
0.99959
0.999511
0.999438
0.99937
0.999308
0.999252
0.999201
0.99915
0.999095
0.99903
0.998949
0.998843
0.998704
0.999987
0.999957
0.999905
0.99984
0.999774
0.999712
0.999654
0.9996
0.999548
0.999502
0.999461
0.999424
0.999389
0.999352
0.999311
0.999264
0.999208
0.999138
0.999993
0.999986
0.999968
0.999941
0.999912
0.999886
0.999864
0.999841
0.99982
0.999801
0.999782
0.999766
0.999753
0.999739
0.999722
0.999702
0.99968
0.999652
1
1.00003
1.00005
1.00007
1.00009
1.00011
1.00013
1.00015
1.00017
1.00018
1.0002
1.00021
1.00022
1.00023
1.00023
1.00024
1.00024
1.00024
1.00001
1.00006
1.00011
1.00017
1.00022
1.00028
1.00034
1.00039
1.00043
1.00048
1.00051
1.00055
1.00058
1.0006
1.00063
1.00065
1.00066
1.00068
1.00001
1.00006
1.00012
1.00019
1.00026
1.00033
1.00039
1.00046
1.00052
1.00057
1.00062
1.00067
1.00071
1.00075
1.00078
1.00081
1.00084
1.00086
1.00001
1.00006
1.00012
1.00018
1.00025
1.00031
1.00038
1.00045
1.00051
1.00057
1.00062
1.00068
1.00072
1.00077
1.00081
1.00085
1.00088
1.00091
1.00001
1.00006
1.00012
1.00017
1.00023
1.0003
1.00036
1.00043
1.00049
1.00055
1.00061
1.00067
1.00072
1.00077
1.00081
1.00085
1.00089
1.00092
1
1.00008
1.00013
1.00016
1.00021
1.00027
1.00034
1.00041
1.00048
1.00054
1.0006
1.00066
1.00071
1.00076
1.00081
1.00085
1.00089
1.00093
0.999997
1.0001
1.00014
1.00015
1.00019
1.00026
1.00033
1.0004
1.00047
1.00054
1.00061
1.00067
1.00072
1.00077
1.00082
1.00086
1.00091
1.00094
1
1.00009
1.0001
1.00012
1.00019
1.00028
1.00035
1.00042
1.00049
1.00056
1.00063
1.00069
1.00074
1.00079
1.00084
1.00088
1.00093
1.00097
1.00014
1.00014
0.999953
0.999972
1.00014
1.00029
1.00039
1.00047
1.00055
1.00062
1.00068
1.00074
1.0008
1.00084
1.00089
1.00093
1.00097
1.00101
1.0005
1.00058
1.0001
0.999927
1.00003
1.00018
1.00031
1.00042
1.00053
1.00062
1.0007
1.00076
1.00082
1.00088
1.00093
1.00097
1.00102
1.00106
1.00004
1.00088
1.00115
1.00111
1.00099
1.00088
1.00081
1.0008
1.00082
1.00085
1.00088
1.00092
1.00096
1.00099
1.00103
1.00106
1.0011
1.00113
0.994517
0.993822
0.99606
0.998048
0.999185
0.99978
1.00015
1.0004
1.00059
1.00072
1.00083
1.00091
1.00098
1.00104
1.00109
1.00114
1.00118
1.00121
1.00648
1.00454
1.00223
1.0015
1.00119
1.00097
1.00088
1.00087
1.00089
1.00092
1.00096
1.00099
1.00103
1.00107
1.0011
1.00114
1.00117
1.00122
0.0927613
0.0926999
0.0925684
0.0923699
0.092107
0.0917801
0.0913896
0.0909372
0.0904246
0.0898536
0.0892263
0.0885447
0.0878111
0.0870281
0.0861982
0.0853244
0.0844096
0.0834568
0.0824692
0.08145
0.0804025
0.0793299
0.0782355
0.0771224
0.0759939
0.0748529
0.0737022
0.0725445
0.0713821
0.0702178
0.0690548
0.0678977
0.0667551
0.06564
0.0645316
0.0634147
0.0623075
0.0612068
0.0601155
0.0590351
0.0579641
0.0569097
0.0558752
0.0548511
0.0538422
0.0528516
0.0518742
0.050911
0.0499614
0.0490253
0.0481023
0.047192
0.0462943
0.0454088
0.0445352
0.0436732
0.0428225
0.0419828
0.0411539
0.0403355
0.0395271
0.0387286
0.0379396
0.0371599
0.0363891
0.035627
0.0348731
0.0341272
0.033389
0.0326582
0.0319345
0.0312175
0.0305071
0.0298029
0.0291046
0.0284121
0.027725
0.0270432
0.0263665
0.0256947
0.0250276
0.0243652
0.0237072
0.0230538
0.0224047
0.02176
0.0211198
0.020484
0.0198528
0.0192263
0.0186045
0.0179877
0.0173761
0.0167699
0.0161694
0.0155747
0.0149863
0.0144044
0.0138295
0.013262
0.0127022
0.0121505
0.0116075
0.0110735
0.010549
0.0100345
0.0095304
0.00903721
0.00855538
0.00808537
0.00762762
0.00718256
0.00675059
0.0063321
0.00592744
0.00553693
0.00516088
0.00479952
0.00445305
0.00412165
0.00380543
0.00350445
0.00321872
0.0029482
0.0026928
0.00245238
0.00222673
0.0020156
0.00181869
0.00163564
0.00146607
0.00130952
0.00116552
0.00103355
0.000913081
0.000803532
0.000704319
0.000614841
0.000534486
0.000462641
0.000398694
0.000342038
0.00029208
0.000248241
0.000209962
0.000176708
0.000147969
0.000123264
0.000102143
8.41844e-05
6.90022e-05
5.62411e-05
4.5578e-05
3.67216e-05
2.94108e-05
2.34132e-05
1.85243e-05
1.45647e-05
1.13789e-05
8.83274e-06
6.81141e-06
5.21796e-06
3.97033e-06
3.00021e-06
2.25161e-06
1.67801e-06
1.24171e-06
9.12268e-07
6.65379e-07
4.81749e-07
3.46211e-07
2.46939e-07
1.74793e-07
1.22771e-07
8.55546e-08
5.91413e-08
4.05466e-08
2.756e-08
1.85859e-08
1.24592e-08
0.0948473
0.0947777
0.0946413
0.0944359
0.0941637
0.0938258
0.0934233
0.0929576
0.0924302
0.0918431
0.0911986
0.0904992
0.0897476
0.0889464
0.0880986
0.087207
0.0862748
0.085305
0.0843009
0.0832658
0.082203
0.0811158
0.0800077
0.078882
0.0777422
0.0765915
0.0754332
0.0742705
0.0731061
0.0719425
0.0707813
0.069623
0.0684676
0.067301
0.0661327
0.0649878
0.0638601
0.0627494
0.0616548
0.0605746
0.0595105
0.0584596
0.0574181
0.056393
0.0553843
0.0543871
0.0534033
0.052433
0.0514763
0.0505328
0.0496024
0.0486847
0.0477794
0.0468861
0.0460047
0.0451348
0.0442761
0.0434282
0.042591
0.0417641
0.0409472
0.04014
0.0393422
0.0385535
0.0377736
0.0370021
0.0362388
0.0354833
0.0347353
0.0339944
0.0332605
0.0325331
0.031812
0.0310968
0.0303873
0.0296833
0.0289844
0.0282904
0.0276012
0.0269165
0.0262362
0.0255601
0.0248881
0.0242201
0.0235561
0.022896
0.0222398
0.0215876
0.0209395
0.0202955
0.0196557
0.0190204
0.0183898
0.017764
0.0171433
0.016528
0.0159184
0.015315
0.014718
0.0141277
0.0135447
0.0129694
0.0124023
0.0118439
0.0112946
0.010755
0.0102256
0.00970689
0.00919935
0.00870351
0.00821987
0.0077489
0.00729108
0.00684684
0.00641661
0.00600077
0.00559967
0.00521363
0.0048429
0.00448772
0.00414826
0.00382463
0.00351691
0.00322509
0.00294914
0.00268895
0.00244436
0.00221514
0.00200103
0.00180168
0.00161671
0.00144568
0.00128813
0.00114353
0.00101132
0.000890932
0.000781742
0.000683127
0.000594444
0.000515046
0.000444283
0.000381507
0.000326082
0.000277386
0.000234816
0.000197791
0.000165758
0.000138191
0.000114598
9.45182e-05
7.75261e-05
6.32305e-05
5.12746e-05
4.13361e-05
3.31254e-05
2.63844e-05
2.08857e-05
1.64291e-05
1.28412e-05
9.97186e-06
7.69268e-06
5.89516e-06
4.48717e-06
3.39203e-06
2.54646e-06
1.89828e-06
1.40503e-06
1.03247e-06
7.53174e-07
5.45388e-07
3.91986e-07
2.79608e-07
1.97926e-07
1.39021e-07
9.68774e-08
6.69659e-08
4.5908e-08
3.12021e-08
2.10343e-08
1.40817e-08
0.099065
0.0989785
0.0988232
0.0985968
0.0983004
0.0979349
0.0975025
0.0970051
0.0964451
0.0958246
0.0951463
0.0944128
0.0936267
0.092791
0.0919087
0.0909828
0.0900166
0.0890133
0.0879762
0.0869088
0.0858145
0.0846967
0.0835587
0.0824039
0.0812356
0.0800569
0.0788706
0.0776794
0.0764858
0.0752919
0.0741001
0.0729131
0.0717333
0.0705608
0.0693968
0.0682447
0.0671047
0.0659786
0.0648672
0.063771
0.0626906
0.0616259
0.0605757
0.0595393
0.058516
0.0575055
0.0565083
0.0555244
0.0545535
0.0535955
0.0526501
0.0517171
0.0507963
0.0498872
0.0489897
0.0481034
0.0472281
0.0463634
0.0455091
0.0446649
0.0438304
0.0430054
0.0421895
0.0413824
0.0405839
0.0397935
0.0390109
0.0382358
0.0374678
0.0367067
0.035952
0.0352034
0.0344607
0.0337234
0.0329913
0.032264
0.0315413
0.0308228
0.0301084
0.0293979
0.0286909
0.0279874
0.0272871
0.02659
0.025896
0.0252049
0.0245169
0.0238318
0.0231497
0.0224707
0.0217949
0.0211225
0.0204537
0.0197886
0.0191275
0.0184707
0.0178186
0.0171714
0.0165297
0.0158938
0.0152643
0.0146416
0.0140262
0.0134187
0.0128196
0.0122295
0.0116491
0.0110788
0.0105194
0.00997132
0.00943529
0.00891186
0.00840163
0.00790515
0.00742297
0.00695561
0.00650354
0.00606719
0.00564698
0.00524324
0.00485628
0.00448632
0.00413354
0.00379807
0.00347994
0.00317916
0.00289562
0.00262918
0.00237961
0.00214663
0.00192988
0.00172895
0.00154337
0.00137261
0.0012161
0.00107322
0.000943318
0.000825721
0.000719723
0.000624608
0.000539648
0.000464116
0.000397289
0.000338455
0.000286921
0.000242013
0.000203088
0.00016953
0.000140761
0.000116234
9.54466e-05
7.79311e-05
6.3261e-05
5.10493e-05
4.09474e-05
3.26432e-05
2.58615e-05
2.03589e-05
1.59243e-05
1.23747e-05
9.55264e-06
7.32473e-06
5.5782e-06
4.2188e-06
3.16843e-06
2.36274e-06
1.74932e-06
1.28577e-06
9.38132e-07
6.79413e-07
4.88356e-07
3.48364e-07
2.46594e-07
1.73196e-07
1.20681e-07
8.34084e-08
5.717e-08
3.88486e-08
2.61767e-08
1.74976e-08
0.105412
0.105305
0.105125
0.10487
0.10454
0.104137
0.103663
0.103122
0.102516
0.101849
0.101122
0.10034
0.0995048
0.0986196
0.0976879
0.0967129
0.095698
0.0946466
0.0935624
0.0924488
0.0913094
0.0901476
0.088967
0.0877708
0.0865625
0.0853451
0.0841216
0.0828947
0.0816673
0.0804418
0.0792208
0.0780067
0.0768013
0.0756051
0.0744194
0.0732459
0.0720853
0.0709382
0.0698051
0.0686865
0.0675826
0.0664935
0.0654188
0.0643583
0.0633117
0.0622785
0.0612586
0.0602518
0.0592578
0.0582764
0.0573072
0.0563501
0.0554048
0.0544709
0.0535483
0.0526366
0.0517355
0.0508448
0.0499641
0.0490932
0.0482317
0.0473794
0.0465358
0.0457008
0.0448738
0.0440546
0.0432428
0.0424381
0.04164
0.0408481
0.0400622
0.0392817
0.0385064
0.0377359
0.0369697
0.0362076
0.0354492
0.0346941
0.0339421
0.0331928
0.032446
0.0317015
0.0309591
0.0302185
0.0294796
0.0287423
0.0280066
0.0272724
0.0265396
0.0258084
0.0250788
0.0243509
0.0236249
0.022901
0.0221795
0.0214606
0.0207447
0.0200322
0.0193236
0.0186192
0.0179196
0.0172255
0.0165373
0.0158557
0.0151814
0.0145149
0.0138572
0.0132087
0.0125704
0.011943
0.0113271
0.0107237
0.0101334
0.009557
0.00899524
0.00844882
0.00791841
0.00740467
0.00690817
0.00642948
0.00596907
0.00552736
0.00510472
0.00470143
0.00431769
0.00395364
0.00360932
0.0032847
0.00297964
0.00269393
0.00242729
0.00217933
0.0019496
0.00173758
0.00154267
0.00136422
0.00120152
0.00105381
0.000920312
0.000800198
0.00069263
0.000596756
0.000511723
0.000436683
0.000370801
0.000313263
0.000263282
0.000220104
0.000183013
0.000151331
0.000124429
0.000101722
8.26722e-05
6.67891e-05
5.36304e-05
4.2797e-05
3.39387e-05
2.67422e-05
2.09352e-05
1.62814e-05
1.25775e-05
9.65037e-06
7.3536e-06
5.56444e-06
4.18091e-06
3.11896e-06
2.30994e-06
1.69828e-06
1.23936e-06
8.97703e-07
6.45321e-07
4.60351e-07
3.25861e-07
2.28854e-07
1.59445e-07
1.10184e-07
7.55091e-08
5.13008e-08
3.45554e-08
2.30748e-08
0.113952
0.11382
0.113609
0.11332
0.112949
0.1125
0.111977
0.111382
0.11072
0.109994
0.109207
0.108362
0.107464
0.106516
0.105521
0.104483
0.103406
0.102294
0.101149
0.0999761
0.0987789
0.097561
0.0963259
0.0950771
0.093818
0.0925519
0.0912817
0.0900105
0.0887409
0.0874754
0.0862164
0.0849657
0.0837249
0.0824948
0.0812767
0.0800715
0.0788798
0.0777022
0.0765388
0.0753898
0.0742555
0.0731355
0.0720298
0.0709381
0.0698601
0.0687954
0.0677439
0.0667052
0.0656791
0.0646652
0.0636632
0.0626729
0.0616941
0.0607263
0.0597695
0.0588232
0.0578872
0.0569612
0.0560449
0.055138
0.0542402
0.0533511
0.0524705
0.0515978
0.0507329
0.0498752
0.0490244
0.0481801
0.0473418
0.0465091
0.0456815
0.0448587
0.0440402
0.0432255
0.0424142
0.0416059
0.0408002
0.0399965
0.0391947
0.0383942
0.0375947
0.036796
0.0359977
0.0351995
0.0344013
0.0336028
0.032804
0.0320046
0.0312047
0.0304042
0.0296031
0.0288016
0.0279997
0.0271976
0.0263956
0.025594
0.0247931
0.0239933
0.0231952
0.0223991
0.0216057
0.0208157
0.0200296
0.0192483
0.0184724
0.0177028
0.0169404
0.0161861
0.0154407
0.0147052
0.0139806
0.0132679
0.0125681
0.0118822
0.0112112
0.010556
0.00991762
0.00929695
0.00869488
0.00811222
0.00754974
0.00700813
0.00648799
0.00598987
0.00551419
0.00506132
0.00463148
0.00422482
0.00384136
0.00348102
0.00314361
0.00282881
0.00253622
0.00226532
0.00201553
0.00178613
0.00157636
0.00138537
0.00121226
0.00105608
0.000915839
0.00079052
0.000679088
0.000580511
0.00049376
0.000417822
0.000351711
0.000294477
0.00024521
0.000203046
0.000167175
0.000136844
0.000111352
9.00637e-05
7.24003e-05
5.78379e-05
4.5912e-05
3.62105e-05
2.8372e-05
2.20826e-05
1.70714e-05
1.31072e-05
9.99368e-06
7.56624e-06
5.68767e-06
4.24473e-06
3.1448e-06
2.31273e-06
1.68816e-06
1.22299e-06
8.79258e-07
6.27274e-07
4.44023e-07
3.11829e-07
2.17238e-07
1.50105e-07
1.02854e-07
6.98709e-08
4.70566e-08
3.14076e-08
0.124762
0.124602
0.124358
0.124029
0.123613
0.123112
0.122531
0.121874
0.121146
0.120351
0.119493
0.118576
0.117604
0.116581
0.115511
0.114399
0.113248
0.112062
0.110845
0.109602
0.108336
0.107051
0.105751
0.10444
0.10312
0.101796
0.10047
0.0991459
0.0978252
0.0965106
0.0952042
0.0939078
0.0926224
0.0913493
0.0900892
0.0888427
0.0876105
0.0863927
0.0851896
0.0840011
0.0828272
0.0816676
0.0805222
0.0793907
0.0782726
0.0771676
0.0760755
0.0749958
0.0739284
0.0728729
0.0718291
0.0707965
0.069775
0.0687643
0.0677642
0.0667742
0.0657941
0.0648237
0.0638627
0.0629107
0.0619673
0.0610323
0.0601052
0.0591857
0.0582734
0.0573677
0.0564684
0.0555748
0.0546866
0.0538032
0.0529241
0.0520488
0.0511767
0.0503074
0.0494403
0.0485749
0.0477106
0.046847
0.0459835
0.0451197
0.0442552
0.0433895
0.0425222
0.0416529
0.0407814
0.0399073
0.0390304
0.0381504
0.0372673
0.0363809
0.0354912
0.0345982
0.033702
0.0328026
0.0319004
0.0309956
0.0300886
0.0291796
0.0282693
0.0273582
0.0264469
0.025536
0.0246265
0.0237191
0.0228146
0.0219141
0.0210187
0.0201293
0.0192471
0.0183734
0.0175093
0.0166561
0.0158152
0.0149878
0.0141752
0.0133788
0.0125999
0.0118398
0.0110996
0.0103806
0.00968401
0.00901074
0.00836181
0.00773809
0.00714035
0.00656925
0.00602531
0.00550892
0.00502033
0.00455966
0.00412688
0.00372179
0.00334408
0.00299329
0.00266883
0.00236997
0.00209588
0.00184561
0.00161814
0.00141235
0.00122708
0.00106109
0.000913131
0.000781918
0.000666177
0.000564632
0.000476031
0.000399166
0.000332868
0.000276015
0.000227556
0.00018651
0.000151955
0.00012305
9.90278e-05
7.91933e-05
6.29263e-05
4.96754e-05
3.89558e-05
3.03444e-05
2.34758e-05
1.80365e-05
1.37605e-05
1.04239e-05
7.83967e-06
5.85331e-06
4.33817e-06
3.19136e-06
2.33011e-06
1.6884e-06
1.21404e-06
8.66199e-07
6.1318e-07
4.30628e-07
2.99991e-07
2.07275e-07
1.42019e-07
9.6473e-08
6.49715e-08
4.33586e-08
0.137952
0.137763
0.137483
0.13711
0.136643
0.136084
0.135439
0.134714
0.133912
0.133041
0.132103
0.131104
0.130048
0.128941
0.127786
0.126589
0.125353
0.124084
0.122785
0.121462
0.120117
0.118756
0.117382
0.115999
0.11461
0.113219
0.111828
0.110441
0.10906
0.107687
0.106324
0.104973
0.103634
0.102308
0.100996
0.0996988
0.0984164
0.097149
0.0958965
0.0946589
0.0934359
0.0922274
0.0910329
0.0898521
0.0886846
0.08753
0.0863881
0.0852583
0.0841405
0.0830343
0.0819394
0.0808556
0.0797824
0.0787197
0.0776672
0.0766246
0.0755915
0.0745678
0.073553
0.0725468
0.071549
0.070559
0.0695765
0.0686011
0.0676322
0.0666695
0.0657124
0.0647603
0.0638128
0.0628691
0.0619289
0.0609913
0.0600558
0.0591218
0.0581886
0.0572557
0.0563222
0.0553877
0.0544514
0.0535129
0.0525715
0.0516266
0.0506778
0.0497244
0.0487662
0.0478026
0.0468332
0.0458578
0.0448761
0.0438878
0.0428929
0.0418911
0.0408826
0.0398674
0.0388456
0.0378175
0.0367833
0.0357434
0.0346984
0.0336487
0.0325951
0.0315384
0.0304793
0.0294187
0.0283579
0.0272977
0.0262396
0.0251847
0.0241346
0.0230905
0.0220541
0.021027
0.0200108
0.0190072
0.018018
0.0170448
0.0160895
0.0151537
0.0142392
0.0133476
0.0124806
0.0116396
0.0108262
0.0100416
0.00928699
0.00856355
0.00787215
0.00721356
0.00658835
0.00599693
0.00543951
0.0049161
0.00442654
0.00397048
0.00354738
0.00315652
0.00279701
0.00246783
0.00216781
0.00189567
0.00165001
0.00142936
0.00123219
0.00105691
0.00090195
0.000765689
0.000646536
0.00054295
0.000453426
0.00037651
0.000310829
0.00025509
0.000208086
0.000168701
0.000135917
0.000108809
8.65444e-05
6.83838e-05
5.36738e-05
4.18429e-05
3.23959e-05
2.49071e-05
1.90144e-05
1.44121e-05
1.08448e-05
8.10074e-06
6.00627e-06
4.42004e-06
3.22815e-06
2.33968e-06
1.68266e-06
1.20072e-06
8.5007e-07
5.97024e-07
4.15918e-07
2.87373e-07
1.96901e-07
1.33758e-07
9.00885e-08
6.01229e-08
0.153662
0.153441
0.153121
0.1527
0.152178
0.151556
0.150842
0.150042
0.149161
0.148206
0.14718
0.146092
0.144944
0.143744
0.142496
0.141205
0.139876
0.138515
0.137125
0.135713
0.134281
0.132834
0.131377
0.129913
0.128446
0.126979
0.125515
0.124057
0.122606
0.121165
0.119736
0.11832
0.116917
0.115529
0.114156
0.112798
0.111456
0.110129
0.108817
0.107521
0.106239
0.104972
0.103719
0.102479
0.101253
0.10004
0.0988384
0.0976494
0.0964721
0.0953061
0.0941511
0.0930069
0.0918732
0.0907496
0.0896358
0.0885317
0.0874368
0.0863509
0.0852736
0.0842045
0.0831434
0.0820896
0.0810429
0.0800028
0.0789686
0.0779399
0.0769161
0.0758965
0.0748806
0.0738677
0.072857
0.0718478
0.0708394
0.0698311
0.0688221
0.0678115
0.0667987
0.0657829
0.0647632
0.0637389
0.0627094
0.0616738
0.0606315
0.0595818
0.0585241
0.0574578
0.0563823
0.0552973
0.0542022
0.0530968
0.0519806
0.0508536
0.0497155
0.0485664
0.0474062
0.046235
0.0450531
0.0438609
0.0426588
0.0414473
0.0402271
0.038999
0.037764
0.036523
0.0352772
0.0340278
0.0327764
0.0315244
0.0302734
0.0290252
0.0277818
0.026545
0.0253169
0.0240997
0.0228955
0.0217066
0.0205353
0.0193838
0.0182545
0.0171496
0.0160713
0.0150218
0.014003
0.013017
0.0120655
0.0111501
0.0102723
0.00943344
0.00863448
0.00787625
0.00715933
0.00648406
0.0058505
0.00525851
0.00470768
0.00419733
0.00372659
0.00329436
0.00289933
0.00254006
0.00221491
0.00192213
0.00165985
0.00142615
0.00121905
0.00103654
0.00087661
0.000737275
0.000616605
0.000512728
0.000423856
0.000348299
0.000284471
0.000230902
0.00018624
0.000149254
0.000118833
9.39866e-05
7.38352e-05
5.76085e-05
4.46367e-05
3.43431e-05
2.62353e-05
1.98974e-05
1.49806e-05
1.11956e-05
8.3046e-06
6.11375e-06
4.46664e-06
3.23821e-06
2.32941e-06
1.66254e-06
1.17718e-06
8.26846e-07
5.76065e-07
3.98046e-07
2.72747e-07
1.85297e-07
1.24816e-07
8.33104e-08
0.172059
0.171802
0.171438
0.170966
0.170383
0.169694
0.168906
0.168025
0.167059
0.166013
0.164895
0.163709
0.162463
0.161163
0.159813
0.158421
0.156991
0.15553
0.154041
0.152531
0.151003
0.149463
0.147914
0.146361
0.144807
0.143255
0.141708
0.140169
0.138639
0.137121
0.135616
0.134126
0.13265
0.131189
0.129745
0.128317
0.126904
0.125508
0.124128
0.122762
0.121412
0.120077
0.118755
0.117448
0.116153
0.114871
0.113602
0.112344
0.111098
0.109863
0.108639
0.107426
0.106223
0.105029
0.103846
0.102671
0.101506
0.100349
0.0992007
0.0980601
0.096927
0.095801
0.0946814
0.0935679
0.0924598
0.0913564
0.0902572
0.0891614
0.0880683
0.0869771
0.085887
0.0847972
0.0837068
0.0826148
0.0815205
0.0804228
0.0793209
0.0782137
0.0771004
0.07598
0.0748516
0.0737143
0.0725672
0.0714095
0.0702403
0.0690589
0.0678644
0.0666564
0.065434
0.0641968
0.0629444
0.0616762
0.060392
0.0590917
0.057775
0.0564418
0.0550925
0.053727
0.052346
0.0509497
0.049539
0.0481145
0.0466772
0.0452281
0.0437686
0.0423
0.0408239
0.039342
0.0378563
0.0363688
0.0348818
0.0333975
0.0319185
0.0304475
0.0289871
0.0275402
0.0261097
0.0246985
0.0233097
0.0219461
0.0206107
0.0193065
0.0180362
0.0168026
0.0156081
0.0144551
0.0133458
0.0122822
0.0112659
0.0102984
0.00938067
0.00851356
0.00769754
0.00693275
0.00621904
0.00555587
0.00494243
0.00437759
0.00385995
0.00338792
0.00295963
0.002573
0.0022258
0.00191568
0.00164021
0.0013969
0.00118322
0.000996667
0.000834767
0.000695122
0.000575421
0.000473466
0.000387188
0.000314655
0.000254085
0.000203848
0.000162469
0.000128625
0.00010114
7.89813e-05
6.12467e-05
4.71583e-05
3.60504e-05
2.73589e-05
2.06105e-05
1.54113e-05
1.14372e-05
8.42353e-06
6.15644e-06
4.46471e-06
3.21258e-06
2.29339e-06
1.62416e-06
1.14097e-06
7.95011e-07
5.49388e-07
3.76486e-07
2.55806e-07
1.72339e-07
1.1505e-07
0.193333
0.193037
0.192624
0.192095
0.191447
0.190686
0.189818
0.188852
0.187795
0.186653
0.185434
0.184146
0.182794
0.181386
0.179928
0.178427
0.176888
0.175319
0.173723
0.172107
0.170475
0.168833
0.167184
0.165533
0.163883
0.162237
0.160598
0.158969
0.157351
0.155746
0.154155
0.15258
0.151021
0.149479
0.147953
0.146444
0.144952
0.143477
0.142017
0.140574
0.139145
0.137732
0.136332
0.134947
0.133575
0.132215
0.130868
0.129533
0.128209
0.126896
0.125594
0.124302
0.123021
0.121749
0.120487
0.119233
0.117989
0.116753
0.115524
0.114304
0.11309
0.111883
0.110682
0.109487
0.108296
0.107109
0.105926
0.104745
0.103566
0.102388
0.10121
0.10003
0.0988488
0.0976641
0.0964752
0.095281
0.0940804
0.0928723
0.0916555
0.090429
0.0891915
0.087942
0.0866794
0.0854025
0.0841105
0.0828021
0.0814765
0.0801328
0.0787701
0.0773876
0.0759846
0.0745605
0.0731147
0.0716468
0.0701565
0.0686435
0.0671077
0.0655492
0.0639683
0.0623652
0.0607407
0.0590953
0.0574299
0.0557456
0.0540438
0.0523259
0.0505936
0.0488489
0.0470938
0.0453308
0.0435623
0.0417912
0.0400205
0.0382532
0.0364927
0.0347425
0.0330062
0.0312875
0.0295902
0.0279181
0.026275
0.0246647
0.023091
0.0215575
0.0200678
0.018625
0.0172324
0.0158927
0.0146085
0.013382
0.012215
0.011109
0.0100648
0.00908331
0.00816462
0.00730852
0.00651434
0.00578105
0.0051072
0.00449106
0.00393053
0.00342322
0.00296651
0.00255759
0.00219351
0.00187118
0.00158747
0.00133924
0.00112337
0.000936798
0.000776562
0.000639828
0.000523909
0.000426291
0.000344638
0.000276809
0.000220857
0.000175028
0.000137761
0.000107676
8.35696e-05
6.43976e-05
4.92656e-05
3.74137e-05
2.82029e-05
2.11006e-05
1.56676e-05
1.15446e-05
8.44106e-06
6.12379e-06
4.40776e-06
3.14746e-06
2.22952e-06
1.56654e-06
1.09171e-06
7.54532e-07
5.17141e-07
3.5143e-07
2.36807e-07
1.58118e-07
0.217698
0.217359
0.216893
0.216301
0.215582
0.214742
0.213789
0.212731
0.211576
0.210331
0.209005
0.207606
0.206141
0.204618
0.203044
0.201426
0.199771
0.198085
0.196374
0.194644
0.1929
0.191147
0.18939
0.187631
0.185876
0.184127
0.182386
0.180657
0.178941
0.177239
0.175554
0.173884
0.172232
0.170598
0.168981
0.167382
0.1658
0.164235
0.162686
0.161154
0.159638
0.158136
0.15665
0.155177
0.153717
0.15227
0.150836
0.149414
0.148003
0.146603
0.145214
0.143835
0.142467
0.141107
0.139757
0.138416
0.137084
0.135759
0.134443
0.133133
0.13183
0.130534
0.129243
0.127956
0.126674
0.125396
0.124119
0.122845
0.121571
0.120297
0.119021
0.117743
0.116461
0.115174
0.113882
0.112582
0.111273
0.109954
0.108624
0.107282
0.105925
0.104553
0.103165
0.101758
0.100332
0.0988861
0.0974179
0.0959267
0.0944114
0.0928709
0.0913043
0.0897105
0.0880887
0.0864383
0.0847585
0.0830489
0.0813091
0.0795391
0.0777387
0.0759082
0.0740478
0.0721582
0.0702402
0.0682946
0.0663228
0.0643264
0.0623069
0.0602665
0.0582076
0.0561326
0.0540445
0.0519464
0.0498418
0.0477344
0.045628
0.0435269
0.0414354
0.0393582
0.0372998
0.0352651
0.0332589
0.0312862
0.0293518
0.0274605
0.025617
0.0238257
0.0220909
0.0204167
0.0188066
0.0172639
0.0157913
0.0143913
0.0130656
0.0118157
0.0106422
0.00954542
0.00852503
0.00758019
0.00670955
0.00591129
0.00518313
0.00452238
0.00392604
0.00339078
0.00291305
0.00248912
0.00211515
0.00178722
0.00150143
0.00125392
0.00104093
0.000858827
0.000704165
0.00057369
0.000464371
0.000373413
0.000298266
0.000236625
0.000186429
0.000145855
0.000113302
8.73824e-05
6.69018e-05
5.08442e-05
3.83528e-05
2.87123e-05
2.13315e-05
1.57261e-05
1.15037e-05
8.34911e-06
6.01168e-06
4.29412e-06
3.0426e-06
2.13833e-06
1.4905e-06
1.03034e-06
7.06304e-07
4.80068e-07
3.23554e-07
2.16085e-07
0.245392
0.245004
0.244478
0.243817
0.24302
0.242093
0.241046
0.239888
0.238626
0.23727
0.235829
0.23431
0.232723
0.231076
0.229377
0.227633
0.225852
0.22404
0.222205
0.220352
0.218486
0.216613
0.214737
0.212862
0.210992
0.20913
0.207278
0.20544
0.203615
0.201807
0.200016
0.198242
0.196487
0.19475
0.193032
0.191332
0.18965
0.187986
0.186339
0.184708
0.183094
0.181494
0.17991
0.17834
0.176784
0.17524
0.173709
0.172191
0.170683
0.169187
0.167702
0.166226
0.164761
0.163305
0.161858
0.16042
0.158991
0.157569
0.156154
0.154747
0.153346
0.15195
0.150559
0.149173
0.14779
0.14641
0.145032
0.143654
0.142275
0.140896
0.139513
0.138127
0.136735
0.135337
0.13393
0.132515
0.131088
0.129649
0.128196
0.126728
0.125242
0.123738
0.122213
0.120667
0.119097
0.117502
0.11588
0.11423
0.112551
0.110841
0.109099
0.107323
0.105512
0.103665
0.101782
0.0998606
0.0979012
0.0959028
0.0938653
0.0917884
0.0896722
0.0875171
0.0853236
0.0830925
0.0808248
0.0785221
0.076186
0.0738187
0.0714224
0.069
0.0665546
0.0640896
0.0616091
0.059117
0.0566181
0.0541171
0.0516193
0.0491301
0.0466553
0.0442007
0.0417724
0.0393765
0.0370192
0.0347067
0.032445
0.0302401
0.0280977
0.0260232
0.0240217
0.0220977
0.0202553
0.0184982
0.0168291
0.0152505
0.013764
0.0123705
0.0110702
0.00986279
0.008747
0.00772113
0.00678281
0.00592911
0.00515663
0.00446153
0.00383961
0.00328641
0.00279727
0.00236739
0.00199193
0.00166609
0.00138511
0.00114442
0.00093961
0.000766516
0.000621237
0.000500158
0.000399966
0.000317656
0.000250534
0.000196202
0.000152556
0.00011776
9.02344e-05
6.86297e-05
5.18059e-05
3.88096e-05
2.88508e-05
2.12814e-05
1.55753e-05
1.13093e-05
8.14642e-06
5.82105e-06
4.12581e-06
2.90042e-06
2.02221e-06
1.39821e-06
9.58682e-07
6.51749e-07
4.39361e-07
2.93491e-07
0.276672
0.276229
0.275635
0.274895
0.274009
0.272986
0.271834
0.270563
0.269183
0.267704
0.266134
0.264484
0.262763
0.26098
0.259144
0.257263
0.255345
0.253397
0.251427
0.249439
0.247441
0.245438
0.243433
0.241431
0.239436
0.237451
0.235478
0.23352
0.231577
0.229652
0.227745
0.225857
0.223988
0.222139
0.220309
0.218498
0.216706
0.214932
0.213175
0.211436
0.209713
0.208006
0.206314
0.204637
0.202974
0.201323
0.199686
0.198061
0.196447
0.194844
0.193253
0.191671
0.190099
0.188537
0.186983
0.185438
0.183902
0.182372
0.18085
0.179334
0.177824
0.17632
0.174819
0.173322
0.171829
0.170336
0.168845
0.167353
0.16586
0.164364
0.162864
0.161359
0.159847
0.158326
0.156796
0.155254
0.153699
0.152129
0.150543
0.148938
0.147313
0.145666
0.143995
0.142299
0.140575
0.138821
0.137035
0.135217
0.133363
0.131473
0.129544
0.127575
0.125563
0.123509
0.121409
0.119263
0.11707
0.114829
0.112539
0.1102
0.10781
0.105371
0.102882
0.100344
0.0977572
0.0951233
0.0924437
0.0897204
0.0869558
0.0841526
0.0813141
0.078444
0.0755467
0.0726266
0.0696889
0.0667392
0.0637835
0.0608283
0.0578802
0.0549463
0.052034
0.0491509
0.0463047
0.0435031
0.0407538
0.0380646
0.0354428
0.0328957
0.03043
0.028052
0.0257675
0.0235817
0.0214989
0.0195229
0.0176563
0.0159012
0.0142587
0.0127289
0.0113111
0.010004
0.00880508
0.00771136
0.00671908
0.00582389
0.00502095
0.00430499
0.00367044
0.00311149
0.00262222
0.00219668
0.00182897
0.00151335
0.00124427
0.00101643
0.000824855
0.000664922
0.000532362
0.000423291
0.000334212
0.000262005
0.000203921
0.000157556
0.000120833
9.19776e-05
6.94835e-05
5.20895e-05
3.87483e-05
2.85994e-05
2.09427e-05
1.52142e-05
1.09641e-05
7.83761e-06
5.55709e-06
3.90785e-06
2.72539e-06
1.8849e-06
1.2927e-06
8.79041e-07
5.92729e-07
3.96032e-07
0.311815
0.311308
0.310635
0.309804
0.308816
0.30768
0.306407
0.305007
0.303492
0.301871
0.300157
0.298359
0.296487
0.294553
0.292564
0.290531
0.288462
0.286364
0.284245
0.282111
0.279968
0.277822
0.275677
0.273537
0.271406
0.269287
0.267181
0.265092
0.26302
0.260968
0.258934
0.256921
0.254928
0.252955
0.251003
0.24907
0.247157
0.245262
0.243386
0.241528
0.239686
0.23786
0.23605
0.234255
0.232473
0.230705
0.22895
0.227208
0.225477
0.223757
0.222048
0.220349
0.218659
0.216979
0.215308
0.213645
0.211989
0.210341
0.208699
0.207064
0.205433
0.203807
0.202185
0.200566
0.198949
0.197333
0.195717
0.194099
0.192479
0.190854
0.189225
0.187589
0.185944
0.184289
0.182623
0.180944
0.179249
0.177537
0.175806
0.174054
0.172279