/*--------------------------------*- C++ -*----------------------------------*\
  =========                 |
  \\      /  F ield         | OpenFOAM: The Open Source CFD Toolbox
   \\    /   O peration     | Website:  https://openfoam.org
    \\  /    A nd           | Version:  10
     \\/     M anipulation  |
\*---------------------------------------------------------------------------*/
FoamFile
{
    format      ascii;
    class       volScalarField;
    location    "0.5";
    object      T;
}
// * * * * * * * * * * * * * * * * * * * * * * * * * * * * * * * * * * * * * //

dimensions      [0 0 0 1 0 0 0];

internalField   nonuniform List<scalar> 
100
(
1
1
1
1
1
1
1
1
1
1
1
1
1
1
1
1
1
1
1
1
1
1
1
1
1
1
1
1
1
1
1
1
1
1
1
1
1
1
0.999998
0.999993
0.999974
0.999904
0.999646
0.998695
0.995226
0.982754
0.948789
0.882036
0.774222
0.62471
0.443947
0.254357
0.0903339
0.00534906
6.42949e-05
7.78862e-07
9.50359e-09
1.16721e-10
1.44148e-12
1.74439e-14
-3.35595e-16
-6.58056e-16
-6.4056e-16
-4.71971e-16
-2.62527e-16
-8.72737e-17
2.14375e-17
6.51293e-17
6.37523e-17
4.14475e-17
1.70029e-17
2.25767e-19
-6.98139e-18
-7.27047e-18
-4.47785e-18
-1.51136e-18
3.00825e-19
8.76703e-19
7.10359e-19
3.27617e-19
3.5233e-20
-8.78646e-20
-9.01583e-20
-4.72705e-20
-9.07355e-21
8.548e-21
1.01577e-20
5.46768e-21
1.08075e-21
-9.06815e-22
-1.05523e-21
-5.31365e-22
-7.85953e-23
1.03198e-22
1.00394e-22
4.29445e-23
1.62046e-24
-1.12895e-23
-8.54293e-24
-1.59371e-24
)
;

boundaryField
{
    top
    {
        type            zeroGradient;
    }
    bottom
    {
        type            zeroGradient;
    }
    in
    {
        type            fixedValue;
        value           uniform 1;
    }
    out
    {
        type            zeroGradient;
    }
    frontAndBack
    {
        type            empty;
    }
}


// ************************************************************************* //
