/*--------------------------------*- C++ -*----------------------------------*\
| =========                 |                                                 |
| \\      /  F ield         | OpenFOAM: The Open Source CFD Toolbox           |
|  \\    /   O peration     | Version:  2406                                  |
|   \\  /    A nd           | Website:  www.openfoam.com                      |
|    \\/     M anipulation  |                                                 |
\*---------------------------------------------------------------------------*/
FoamFile
{
    version     2.0;
    format      ascii;
    arch        "LSB;label=32;scalar=64";
    class       volScalarField;
    location    "19";
    object      p;
}
// * * * * * * * * * * * * * * * * * * * * * * * * * * * * * * * * * * * * * //

dimensions      [0 2 -2 0 0 0 0];

internalField   nonuniform List<scalar> 
34560
(
37.520608
37.507921
37.491899
37.473812
37.454049
37.434429
37.416391
37.400563
37.388532
37.596858
37.581564
37.561732
37.538488
37.512241
37.485164
37.459363
37.437091
37.42019
37.667384
37.649826
37.626951
37.599963
37.569108
37.536548
37.50469
37.476669
37.454926
37.736577
37.716889
37.691066
37.660405
37.625113
37.587437
37.550076
37.516516
37.489556
37.803203
37.781511
37.752892
37.718713
37.679143
37.636505
37.593718
37.554653
37.522373
37.864538
37.841253
37.810313
37.773085
37.729663
37.682412
37.63445
37.590064
37.552624
37.920779
37.895959
37.862801
37.822673
37.775595
37.723979
37.671131
37.621742
37.579508
37.970934
37.944649
37.909392
37.866528
37.815997
37.760279
37.702898
37.648924
37.602459
38.014102
37.986378
37.949113
37.903715
37.850034
37.790563
37.729135
37.671134
37.621092
38.048789
38.019725
37.980669
37.933105
37.876842
37.814343
37.749436
37.688019
37.635123
38.073574
38.043345
38.002851
37.953682
37.895591
37.83095
37.763385
37.699302
37.644397
38.08683
38.055903
38.014575
37.964518
37.905444
37.839602
37.770481
37.704878
37.648943
38.08683
38.055903
38.014575
37.964519
37.905444
37.839602
37.770481
37.704878
37.648943
38.073574
38.043345
38.002851
37.953682
37.895591
37.830949
37.763385
37.699302
37.644397
38.048789
38.019725
37.980669
37.933105
37.876841
37.814342
37.749436
37.688018
37.635123
38.014102
37.986378
37.949112
37.903714
37.850033
37.790561
37.729134
37.671133
37.621092
37.970933
37.944649
37.909391
37.866528
37.815996
37.760277
37.702896
37.648922
37.602457
37.920779
37.895959
37.8628
37.822672
37.775594
37.723977
37.671128
37.62174
37.579506
37.864538
37.841252
37.810312
37.773083
37.729662
37.68241
37.634447
37.590061
37.552622
37.803203
37.78151
37.752891
37.718712
37.679142
37.636504
37.593716
37.55465
37.52237
37.736576
37.716888
37.691065
37.660404
37.625112
37.587436
37.550074
37.516513
37.489552
37.667383
37.649825
37.62695
37.599963
37.569107
37.536547
37.504689
37.476667
37.454921
37.596857
37.581563
37.561732
37.538487
37.512241
37.485164
37.459362
37.437089
37.420184
37.520607
37.50792
37.491899
37.473811
37.454048
37.434429
37.41639
37.400561
37.388528
34.690508
34.690982
34.691687
34.693006
34.694881
34.696372
34.696353
34.694739
34.693731
34.690186
34.690959
34.692107
34.694033
34.696566
34.698508
34.698657
34.697352
34.696572
34.688899
34.690017
34.691674
34.69438
34.697884
34.700669
34.701315
34.700249
34.699357
34.688567
34.690049
34.69221
34.695643
34.700033
34.70359
34.704697
34.703791
34.702656
34.68918
34.691024
34.693699
34.697881
34.703172
34.707467
34.708931
34.708035
34.706491
34.690395
34.692655
34.695921
34.700946
34.707213
34.712232
34.713951
34.712907
34.71082
34.692952
34.695585
34.699399
34.705226
34.712382
34.717961
34.719745
34.718364
34.715593
34.696482
34.699512
34.704008
34.710754
34.71872
34.724621
34.726178
34.724299
34.720734
34.70037
34.703559
34.708666
34.716704
34.725897
34.731918
34.733027
34.730534
34.726246
34.705538
34.708633
34.713916
34.722661
34.732873
34.739175
34.739932
34.736859
34.731989
34.71088
34.713768
34.719145
34.72852
34.739582
34.745976
34.746348
34.74268
34.73667
34.714551
34.717226
34.722584
34.732305
34.743917
34.750663
34.750481
34.74609
34.739763
34.714551
34.717226
34.722584
34.732304
34.743917
34.750663
34.750481
34.74609
34.739763
34.710879
34.713768
34.719144
34.728519
34.739581
34.745976
34.746347
34.74268
34.736669
34.705537
34.708632
34.713915
34.72266
34.732872
34.739174
34.73993
34.736858
34.731987
34.700369
34.703558
34.708665
34.716703
34.725896
34.731916
34.733024
34.730531
34.726244
34.696481
34.699511
34.704007
34.710752
34.718718
34.724618
34.726175
34.724296
34.720731
34.692951
34.695583
34.699397
34.705224
34.712379
34.717958
34.719741
34.718361
34.715589
34.690393
34.692653
34.69592
34.700945
34.707211
34.712229
34.713948
34.712903
34.710815
34.689179
34.691023
34.693698
34.697879
34.70317
34.707465
34.708928
34.708031
34.706486
34.688566
34.690048
34.692209
34.695641
34.700032
34.703588
34.704694
34.703788
34.702651
34.688898
34.690015
34.691673
34.694379
34.697882
34.700667
34.701313
34.700246
34.699352
34.690184
34.690958
34.692106
34.694031
34.696565
34.698507
34.698655
34.697349
34.696566
34.690507
34.69098
34.691686
34.693005
34.69488
34.696371
34.696351
34.694735
34.693726
33.778372
33.778238
33.77798
33.777514
33.777034
33.776961
33.777677
33.778935
33.77985
33.778194
33.778168
33.778003
33.77756
33.777072
33.777013
33.777748
33.779094
33.780326
33.776607
33.776684
33.776627
33.776286
33.775946
33.776118
33.777145
33.778787
33.780424
33.774618
33.774794
33.774827
33.774556
33.77434
33.774749
33.776146
33.778188
33.780292
33.772254
33.772524
33.772644
33.772448
33.772366
33.773032
33.774803
33.777274
33.779837
33.769539
33.769906
33.770114
33.769999
33.770062
33.770995
33.773149
33.776047
33.779058
33.766745
33.767173
33.76743
33.767363
33.767559
33.768734
33.771236
33.774541
33.777994
33.764314
33.764672
33.764753
33.764562
33.764887
33.76632
33.769119
33.772811
33.776719
33.762996
33.763369
33.763211
33.762406
33.762288
33.763913
33.766914
33.77094
33.77528
33.761493
33.761985
33.761905
33.760989
33.760433
33.761775
33.764766
33.769056
33.773794
33.759924
33.760542
33.760524
33.759502
33.758623
33.759754
33.762749
33.767393
33.773142
33.758987
33.759672
33.75968
33.758571
33.757424
33.758179
33.761528
33.766702
33.772672
33.758987
33.759672
33.75968
33.758571
33.757424
33.758179
33.761527
33.766702
33.772672
33.759924
33.760541
33.760524
33.759502
33.758623
33.759753
33.762749
33.767392
33.773141
33.761492
33.761985
33.761904
33.760989
33.760432
33.761774
33.764765
33.769055
33.773793
33.762996
33.763369
33.763211
33.762405
33.762286
33.763912
33.766913
33.770938
33.775279
33.764314
33.764671
33.764752
33.764561
33.764886
33.766319
33.769117
33.772809
33.776717
33.766744
33.767172
33.767429
33.767362
33.767558
33.768733
33.771234
33.774539
33.777991
33.769538
33.769905
33.770113
33.769998
33.77006
33.770993
33.773147
33.776044
33.779054
33.772253
33.772523
33.772643
33.772447
33.772365
33.773031
33.774801
33.777272
33.779833
33.774618
33.774793
33.774826
33.774555
33.774338
33.774748
33.776144
33.778185
33.780288
33.776607
33.776683
33.776626
33.776285
33.775945
33.776117
33.777143
33.778785
33.78042
33.778194
33.778168
33.778002
33.777559
33.777071
33.777012
33.777746
33.779091
33.780322
33.778371
33.778237
33.777979
33.777513
33.777032
33.77696
33.777674
33.778932
33.779846
31.911287
31.911234
31.911206
31.911277
31.911361
31.911208
31.910549
31.909362
31.908195
31.912912
31.912852
31.912833
31.91293
31.913029
31.912816
31.91197
31.910489
31.90889
31.914305
31.91425
31.914256
31.914411
31.914578
31.914371
31.913409
31.9117
31.90977
31.915743
31.915703
31.915738
31.915941
31.916155
31.91594
31.914871
31.912963
31.910749
31.917114
31.917096
31.917167
31.917426
31.917695
31.917481
31.916318
31.914225
31.911751
31.918276
31.918295
31.918421
31.918755
31.919099
31.918912
31.917682
31.915426
31.912718
31.919283
31.919337
31.919515
31.919921
31.920342
31.920193
31.918916
31.916519
31.913602
31.920066
31.920152
31.920381
31.920861
31.921371
31.921279
31.919976
31.917463
31.914366
31.920624
31.920737
31.921006
31.921552
31.922152
31.922139
31.920831
31.918223
31.914973
31.920877
31.921024
31.921336
31.921946
31.922658
31.922751
31.92146
31.918764
31.915377
31.920893
31.921075
31.921423
31.922072
31.92285
31.923065
31.921827
31.919051
31.915571
31.920867
31.921067
31.921433
31.922097
31.922896
31.923144
31.921942
31.919159
31.915631
31.920867
31.921067
31.921433
31.922097
31.922896
31.923144
31.921942
31.919159
31.91563
31.920892
31.921074
31.921423
31.922072
31.922849
31.923065
31.921826
31.91905
31.91557
31.920876
31.921023
31.921336
31.921945
31.922657
31.92275
31.921459
31.918762
31.915376
31.920623
31.920736
31.921005
31.921551
31.92215
31.922137
31.920829
31.918222
31.914972
31.920065
31.920151
31.92038
31.920859
31.92137
31.921277
31.919974
31.917461
31.914364
31.919282
31.919335
31.919513
31.919919
31.920341
31.920191
31.918913
31.916516
31.913599
31.918274
31.918293
31.918419
31.918753
31.919097
31.91891
31.917679
31.915423
31.912715
31.917113
31.917094
31.917165
31.917423
31.917692
31.917479
31.916315
31.914222
31.911748
31.915741
31.915701
31.915736
31.915939
31.916153
31.915938
31.914868
31.91296
31.910745
31.914302
31.914247
31.914254
31.914409
31.914575
31.914368
31.913406
31.911697
31.909766
31.912909
31.912849
31.91283
31.912926
31.913026
31.912812
31.911966
31.910485
31.908885
31.911284
31.91123
31.911203
31.911273
31.911357
31.911204
31.910545
31.909357
31.90819
30.511691
30.511674
30.511627
30.511519
30.51139
30.511372
30.511628
30.512167
30.512704
30.511574
30.511572
30.511537
30.511427
30.511292
30.511298
30.511611
30.512241
30.512938
30.511187
30.511197
30.511175
30.511074
30.510962
30.511023
30.511437
30.512193
30.513039
30.51072
30.510741
30.510728
30.51063
30.510537
30.510657
30.511183
30.512078
30.51308
30.5102
30.510229
30.510222
30.510129
30.510059
30.510243
30.510883
30.511916
30.513062
30.509649
30.509685
30.509684
30.509599
30.509555
30.509805
30.510556
30.51172
30.512993
30.509122
30.509161
30.509165
30.509087
30.509066
30.509377
30.510229
30.511508
30.512887
30.508635
30.508678
30.508684
30.508613
30.508614
30.508981
30.509919
30.511294
30.512761
30.508214
30.508259
30.508268
30.508204
30.508221
30.508636
30.509646
30.511098
30.512634
30.507868
30.507916
30.507928
30.507871
30.507907
30.508361
30.509427
30.510936
30.512522
30.507615
30.507667
30.507682
30.507632
30.507683
30.508168
30.509273
30.51082
30.512437
30.507481
30.507535
30.507552
30.507504
30.507565
30.508064
30.50919
30.510756
30.512391
30.507481
30.507535
30.507552
30.507504
30.507565
30.508064
30.50919
30.510756
30.51239
30.507615
30.507666
30.507682
30.507631
30.507682
30.508167
30.509273
30.510819
30.512437
30.507867
30.507915
30.507927
30.50787
30.507906
30.50836
30.509426
30.510935
30.512521
30.508213
30.508258
30.508266
30.508203
30.50822
30.508635
30.509645
30.511097
30.512633
30.508633
30.508676
30.508683
30.508612
30.508612
30.508979
30.509918
30.511293
30.51276
30.50912
30.50916
30.509163
30.509085
30.509064
30.509375
30.510227
30.511505
30.512885
30.509647
30.509683
30.509682
30.509597
30.509552
30.509802
30.510554
30.511718
30.51299
30.510198
30.510227
30.51022
30.510127
30.510056
30.51024
30.51088
30.511913
30.513059
30.510718
30.510739
30.510725
30.510627
30.510534
30.510654
30.51118
30.512074
30.513077
30.511184
30.511194
30.511172
30.511071
30.510958
30.51102
30.511434
30.512189
30.513035
30.51157
30.511568
30.511533
30.511423
30.511288
30.511294
30.511607
30.512237
30.512933
30.511687
30.51167
30.511623
30.511515
30.511386
30.511368
30.511624
30.512162
30.512699
28.868672
28.868658
28.868653
28.868674
28.8687
28.868658
28.868463
28.868101
28.867721
28.868946
28.86893
28.868927
28.868956
28.868988
28.868932
28.86869
28.868254
28.867766
28.869209
28.869192
28.869192
28.869234
28.869278
28.869215
28.868934
28.868432
28.867851
28.869505
28.86949
28.869494
28.869543
28.869593
28.869519
28.8692
28.868637
28.867978
28.869804
28.869791
28.8698
28.869858
28.869914
28.869831
28.869477
28.868861
28.868134
28.870072
28.870064
28.870081
28.870151
28.870216
28.870128
28.869748
28.869087
28.868304
28.870316
28.870312
28.870337
28.870417
28.870491
28.870401
28.870001
28.869304
28.868475
28.870524
28.870525
28.870557
28.870646
28.870728
28.870638
28.870225
28.869501
28.868636
28.870693
28.870698
28.870735
28.870833
28.870922
28.870835
28.870413
28.86967
28.868776
28.870818
28.870826
28.870869
28.870973
28.871069
28.870985
28.870559
28.869802
28.868889
28.870898
28.870909
28.870956
28.871065
28.871167
28.871085
28.870658
28.869893
28.868968
28.87094
28.870953
28.871001
28.871112
28.871216
28.871136
28.870708
28.86994
28.869008
28.87094
28.870952
28.871001
28.871112
28.871216
28.871136
28.870708
28.869939
28.869008
28.870898
28.870909
28.870956
28.871064
28.871166
28.871085
28.870657
28.869893
28.868967
28.870817
28.870826
28.870868
28.870972
28.871068
28.870984
28.870558
28.869801
28.868889
28.870692
28.870697
28.870734
28.870831
28.870921
28.870833
28.870412
28.869669
28.868776
28.870523
28.870524
28.870555
28.870644
28.870726
28.870636
28.870223
28.8695
28.868634
28.870314
28.870311
28.870335
28.870415
28.870488
28.870398
28.869999
28.869302
28.868473
28.87007
28.870061
28.870079
28.870149
28.870213
28.870125
28.869745
28.869085
28.868302
28.869801
28.869788
28.869797
28.869855
28.869911
28.869827
28.869474
28.868858
28.868131
28.869502
28.869486
28.86949
28.869539
28.869589
28.869515
28.869196
28.868633
28.867975
28.869204
28.869187
28.869188
28.869229
28.869273
28.869211
28.86893
28.868427
28.867847
28.86894
28.868925
28.868921
28.868951
28.868983
28.868926
28.868685
28.868249
28.867761
28.868666
28.868652
28.868647
28.868668
28.868694
28.868652
28.868457
28.868095
28.867715
27.345243
27.345245
27.345239
27.345214
27.345177
27.345161
27.345211
27.345335
27.345479
27.345193
27.345199
27.345194
27.345168
27.34513
27.345121
27.34519
27.345347
27.345538
27.345078
27.345087
27.345085
27.345059
27.345024
27.345029
27.345125
27.345319
27.345552
27.344946
27.344957
27.344957
27.34493
27.344897
27.344914
27.345039
27.345271
27.345547
27.344804
27.344817
27.344817
27.344791
27.34476
27.34479
27.344943
27.345211
27.345527
27.34466
27.344674
27.344675
27.344648
27.344621
27.344664
27.344842
27.345144
27.345495
27.344527
27.344541
27.344542
27.344515
27.344491
27.344545
27.344745
27.345076
27.345455
27.344407
27.344421
27.344422
27.344395
27.344374
27.344438
27.344657
27.345011
27.345413
27.344306
27.344321
27.344322
27.344294
27.344275
27.344347
27.34458
27.344953
27.345373
27.344228
27.344243
27.344243
27.344216
27.344199
27.344277
27.344521
27.344906
27.345339
27.344174
27.344189
27.34419
27.344162
27.344147
27.344228
27.34448
27.344874
27.345314
27.344147
27.344162
27.344162
27.344135
27.34412
27.344204
27.344458
27.344857
27.345301
27.344147
27.344162
27.344162
27.344135
27.34412
27.344204
27.344458
27.344856
27.345301
27.344174
27.344189
27.344189
27.344162
27.344146
27.344228
27.344479
27.344873
27.345314
27.344227
27.344242
27.344243
27.344215
27.344198
27.344276
27.34452
27.344906
27.345339
27.344306
27.34432
27.344321
27.344293
27.344274
27.344346
27.344579
27.344952
27.345373
27.344406
27.34442
27.344421
27.344393
27.344372
27.344436
27.344655
27.34501
27.345413
27.344525
27.344539
27.34454
27.344512
27.344488
27.344543
27.344743
27.345074
27.345455
27.344658
27.344671
27.344672
27.344645
27.344618
27.344661
27.344839
27.345142
27.345494
27.344801
27.344813
27.344813
27.344787
27.344756
27.344786
27.344939
27.345208
27.345525
27.344942
27.344952
27.344952
27.344925
27.344892
27.344909
27.345034
27.345267
27.345544
27.345073
27.345081
27.345079
27.345053
27.345018
27.345022
27.345119
27.345314
27.345549
27.345186
27.345191
27.345187
27.34516
27.345122
27.345114
27.345183
27.345341
27.345533
27.345235
27.345237
27.345231
27.345206
27.345169
27.345153
27.345203
27.345328
27.345473
25.76682
25.766815
25.766813
25.766818
25.766826
25.766822
25.766786
25.766711
25.766627
25.76686
25.766855
25.766854
25.766862
25.766872
25.766867
25.766821
25.766731
25.766625
25.766901
25.766896
25.766896
25.766907
25.766921
25.766915
25.766862
25.766757
25.76663
25.766953
25.766948
25.766949
25.766962
25.766979
25.766971
25.766909
25.766791
25.766645
25.767009
25.767004
25.767006
25.767022
25.76704
25.76703
25.766961
25.766831
25.76667
25.76706
25.767056
25.76706
25.767078
25.767098
25.767088
25.767014
25.766873
25.766698
25.767107
25.767105
25.76711
25.76713
25.767153
25.767142
25.767063
25.766914
25.766729
25.767149
25.767147
25.767154
25.767176
25.7672
25.767189
25.767107
25.766952
25.766759
25.767183
25.767182
25.76719
25.767214
25.767239
25.767228
25.767145
25.766985
25.766785
25.767208
25.767208
25.767217
25.767242
25.767269
25.767258
25.767174
25.767011
25.766807
25.767225
25.767225
25.767235
25.767261
25.767289
25.767279
25.767193
25.767029
25.766822
25.767234
25.767234
25.767245
25.767271
25.767299
25.767289
25.767203
25.767038
25.76683
25.767234
25.767234
25.767244
25.767271
25.767299
25.767289
25.767203
25.767038
25.76683
25.767225
25.767225
25.767235
25.767261
25.767288
25.767278
25.767193
25.767029
25.766822
25.767208
25.767208
25.767217
25.767242
25.767268
25.767258
25.767173
25.767011
25.766807
25.767182
25.767181
25.767189
25.767213
25.767238
25.767227
25.767144
25.766985
25.766786
25.767148
25.767146
25.767152
25.767174
25.767198
25.767187
25.767106
25.766951
25.766759
25.767106
25.767103
25.767108
25.767128
25.76715
25.767139
25.767061
25.766913
25.766729
25.767057
25.767053
25.767057
25.767075
25.767095
25.767085
25.767011
25.766871
25.766698
25.767005
25.767
25.767002
25.767017
25.767035
25.767026
25.766957
25.766828
25.766668
25.766948
25.766943
25.766943
25.766956
25.766972
25.766965
25.766904
25.766787
25.766643
25.766894
25.766889
25.766888
25.766899
25.766914
25.766908
25.766855
25.766751
25.766627
25.766851
25.766846
25.766845
25.766852
25.766863
25.766858
25.766813
25.766724
25.76662
25.76681
25.766805
25.766803
25.766808
25.766816
25.766812
25.766776
25.766702
25.76662
24.211034
24.211036
24.211035
24.211031
24.211023
24.211018
24.211023
24.211043
24.211068
24.211015
24.211017
24.211017
24.211013
24.211005
24.211002
24.211012
24.211039
24.211074
24.210981
24.210984
24.210985
24.210981
24.210975
24.210974
24.21099
24.211026
24.21107
24.210945
24.210948
24.210949
24.210945
24.210939
24.210942
24.210964
24.211008
24.211063
24.210907
24.21091
24.210912
24.210908
24.210903
24.210908
24.210937
24.210989
24.211053
24.210868
24.210873
24.210874
24.21087
24.210866
24.210874
24.210909
24.210969
24.21104
24.210833
24.210838
24.210839
24.210835
24.210832
24.210842
24.210882
24.210948
24.211027
24.210802
24.210806
24.210808
24.210804
24.210801
24.210814
24.210857
24.210929
24.211013
24.210776
24.21078
24.210782
24.210778
24.210775
24.210789
24.210836
24.210912
24.211
24.210755
24.21076
24.210761
24.210757
24.210755
24.210771
24.21082
24.210899
24.21099
24.210741
24.210746
24.210747
24.210743
24.210741
24.210757
24.210808
24.21089
24.210983
24.210734
24.210739
24.21074
24.210736
24.210734
24.210751
24.210802
24.210885
24.210979
24.210734
24.210739
24.21074
24.210736
24.210734
24.210751
24.210802
24.210885
24.210979
24.210741
24.210745
24.210747
24.210743
24.21074
24.210757
24.210808
24.21089
24.210983
24.210755
24.210759
24.210761
24.210757
24.210754
24.21077
24.210819
24.210899
24.210991
24.210775
24.21078
24.210781
24.210777
24.210774
24.210788
24.210835
24.210912
24.211001
24.210801
24.210805
24.210807
24.210803
24.210799
24.210812
24.210856
24.210929
24.211014
24.210832
24.210836
24.210837
24.210833
24.210829
24.21084
24.21088
24.210947
24.211027
24.210866
24.21087
24.210871
24.210867
24.210862
24.210871
24.210906
24.210967
24.21104
24.210903
24.210906
24.210908
24.210903
24.210898
24.210903
24.210933
24.210987
24.211052
24.210939
24.210943
24.210943
24.210939
24.210933
24.210936
24.210959
24.211005
24.211061
24.210974
24.210977
24.210977
24.210973
24.210967
24.210967
24.210984
24.21102
24.211067
24.211006
24.211008
24.211008
24.211003
24.210996
24.210993
24.211004
24.211032
24.211069
24.211024
24.211026
24.211025
24.21102
24.211013
24.211008
24.211014
24.211034
24.211061
22.647271
22.64727
22.647269
22.647269
22.647271
22.647271
22.647267
22.647256
22.647242
22.647283
22.647282
22.647281
22.647282
22.647284
22.647284
22.647278
22.647264
22.647248
22.647295
22.647294
22.647293
22.647295
22.647298
22.647298
22.64729
22.647274
22.647253
22.647311
22.647309
22.647309
22.647311
22.647314
22.647315
22.647306
22.647286
22.647262
22.647328
22.647327
22.647327
22.64733
22.647334
22.647335
22.647325
22.647303
22.647274
22.647346
22.647345
22.647346
22.647349
22.647355
22.647356
22.647346
22.647322
22.64729
22.647364
22.647363
22.647364
22.647368
22.647374
22.647376
22.647365
22.64734
22.647306
22.647379
22.647378
22.64738
22.647385
22.647392
22.647394
22.647383
22.647356
22.647321
22.647393
22.647392
22.647393
22.647399
22.647407
22.64741
22.647398
22.647371
22.647334
22.647403
22.647402
22.647404
22.64741
22.647419
22.647422
22.647411
22.647383
22.647345
22.64741
22.64741
22.647411
22.647418
22.647427
22.64743
22.647419
22.647391
22.647352
22.647414
22.647413
22.647415
22.647422
22.647431
22.647435
22.647424
22.647395
22.647356
22.647414
22.647413
22.647415
22.647422
22.647431
22.647434
22.647423
22.647395
22.647356
22.64741
22.64741
22.647411
22.647418
22.647426
22.64743
22.647419
22.647391
22.647353
22.647403
22.647402
22.647404
22.64741
22.647418
22.647421
22.64741
22.647383
22.647345
22.647392
22.647392
22.647393
22.647398
22.647406
22.647409
22.647398
22.647371
22.647335
22.647379
22.647378
22.647379
22.647383
22.64739
22.647393
22.647382
22.647356
22.647322
22.647363
22.647361
22.647362
22.647366
22.647372
22.647374
22.647364
22.647339
22.647307
22.647344
22.647343
22.647343
22.647346
22.647351
22.647353
22.647343
22.64732
22.647291
22.647325
22.647323
22.647323
22.647325
22.64733
22.647331
22.647322
22.647301
22.647274
22.647306
22.647304
22.647303
22.647305
22.647308
22.647309
22.647301
22.647283
22.64726
22.647288
22.647287
22.647286
22.647287
22.64729
22.64729
22.647284
22.647269
22.64725
22.647275
22.647273
22.647272
22.647273
22.647275
22.647276
22.64727
22.647257
22.647243
22.647261
22.64726
22.647259
22.647259
22.647261
22.647262
22.647257
22.647247
22.647235
21.08543
21.085431
21.085431
21.08543
21.085428
21.085426
21.085425
21.085425
21.085426
21.085435
21.085435
21.085436
21.085435
21.085433
21.085431
21.08543
21.08543
21.085433
21.085435
21.085436
21.085436
21.085436
21.085434
21.085433
21.085433
21.085434
21.085438
21.085433
21.085434
21.085434
21.085434
21.085433
21.085432
21.085433
21.085436
21.085441
21.085428
21.085429
21.085429
21.085429
21.085429
21.085428
21.085429
21.085433
21.085439
21.08542
21.085421
21.085422
21.085422
21.085421
21.08542
21.085422
21.085427
21.085434
21.085412
21.085413
21.085414
21.085414
21.085412
21.085412
21.085414
21.08542
21.085428
21.085405
21.085406
21.085407
21.085406
21.085405
21.085405
21.085407
21.085414
21.085422
21.085399
21.0854
21.085401
21.0854
21.085399
21.085398
21.085401
21.085408
21.085418
21.085394
21.085395
21.085396
21.085395
21.085394
21.085393
21.085397
21.085404
21.085414
21.085391
21.085392
21.085393
21.085392
21.08539
21.08539
21.085393
21.085401
21.085412
21.085389
21.08539
21.085391
21.08539
21.085389
21.085388
21.085392
21.0854
21.08541
21.085389
21.08539
21.085391
21.08539
21.085389
21.085388
21.085392
21.0854
21.085411
21.085391
21.085392
21.085393
21.085392
21.08539
21.08539
21.085393
21.085401
21.085412
21.085394
21.085395
21.085396
21.085395
21.085393
21.085393
21.085396
21.085404
21.085415
21.085399
21.0854
21.0854
21.0854
21.085398
21.085398
21.085401
21.085408
21.085419
21.085405
21.085406
21.085406
21.085405
21.085404
21.085403
21.085406
21.085414
21.085424
21.085411
21.085412
21.085412
21.085412
21.08541
21.08541
21.085413
21.08542
21.085429
21.085418
21.085419
21.085419
21.085419
21.085418
21.085417
21.08542
21.085426
21.085435
21.085424
21.085425
21.085425
21.085425
21.085424
21.085424
21.085426
21.085431
21.085439
21.085428
21.085429
21.085429
21.085428
21.085428
21.085427
21.085428
21.085433
21.08544
21.085429
21.085429
21.085429
21.085428
21.085427
21.085426
21.085427
21.08543
21.085435
21.085427
21.085427
21.085427
21.085426
21.085425
21.085423
21.085422
21.085424
21.085429
21.085421
21.085421
21.085421
21.085421
21.085419
21.085417
21.085416
21.085416
21.08542
19.523841
19.523841
19.523841
19.523841
19.523841
19.523841
19.523841
19.523842
19.523841
19.523839
19.523839
19.523839
19.523839
19.523839
19.52384
19.52384
19.52384
19.52384
19.523836
19.523836
19.523836
19.523837
19.523837
19.523838
19.523838
19.523839
19.523838
19.523835
19.523835
19.523835
19.523835
19.523835
19.523836
19.523837
19.523837
19.523837
19.523834
19.523834
19.523834
19.523835
19.523835
19.523835
19.523836
19.523837
19.523837
19.523835
19.523835
19.523835
19.523835
19.523836
19.523837
19.523838
19.523838
19.523839
19.523836
19.523836
19.523836
19.523837
19.523838
19.523839
19.52384
19.523841
19.523841
19.523837
19.523837
19.523838
19.523838
19.523839
19.523841
19.523843
19.523844
19.523844
19.523838
19.523838
19.523839
19.523839
19.523841
19.523843
19.523845
19.523846
19.523846
19.523839
19.523839
19.52384
19.523841
19.523842
19.523844
19.523846
19.523848
19.523847
19.52384
19.52384
19.523841
19.523841
19.523843
19.523845
19.523847
19.523849
19.523849
19.523841
19.523841
19.523841
19.523842
19.523843
19.523845
19.523848
19.523849
19.52385
19.523841
19.523841
19.523841
19.523842
19.523843
19.523845
19.523848
19.52385
19.52385
19.52384
19.52384
19.523841
19.523841
19.523843
19.523845
19.523847
19.523849
19.523849
19.52384
19.523839
19.52384
19.52384
19.523842
19.523844
19.523846
19.523848
19.523848
19.523838
19.523838
19.523838
19.523839
19.52384
19.523842
19.523844
19.523846
19.523847
19.523837
19.523837
19.523837
19.523837
19.523838
19.52384
19.523842
19.523844
19.523845
19.523835
19.523835
19.523835
19.523835
19.523836
19.523837
19.523839
19.523841
19.523842
19.523833
19.523833
19.523833
19.523833
19.523833
19.523834
19.523835
19.523837
19.523839
19.523831
19.523831
19.523831
19.523831
19.523831
19.523832
19.523833
19.523835
19.523837
19.52383
19.52383
19.52383
19.52383
19.52383
19.523831
19.523833
19.523835
19.523836
19.523831
19.52383
19.52383
19.52383
19.523831
19.523831
19.523833
19.523835
19.523836
19.523832
19.523832
19.523831
19.523831
19.523831
19.523832
19.523833
19.523835
19.523836
19.523833
19.523833
19.523833
19.523832
19.523832
19.523833
19.523833
19.523834
19.523835
17.961661
17.961661
17.961661
17.961661
17.961661
17.961661
17.96166
17.961658
17.961657
17.96166
17.96166
17.961661
17.961661
17.961661
17.96166
17.961659
17.961657
17.961655
17.961659
17.961659
17.961659
17.96166
17.96166
17.961659
17.961658
17.961656
17.961654
17.961658
17.961658
17.961658
17.961658
17.961659
17.961658
17.961657
17.961655
17.961653
17.961656
17.961657
17.961657
17.961657
17.961657
17.961657
17.961656
17.961654
17.961652
17.961655
17.961655
17.961656
17.961656
17.961656
17.961656
17.961655
17.961653
17.961651
17.961654
17.961654
17.961655
17.961655
17.961655
17.961655
17.961654
17.961652
17.96165
17.961653
17.961653
17.961654
17.961654
17.961655
17.961654
17.961653
17.961651
17.961649
17.961652
17.961653
17.961653
17.961654
17.961654
17.961654
17.961653
17.961651
17.961649
17.961652
17.961652
17.961653
17.961653
17.961653
17.961653
17.961652
17.96165
17.961648
17.961652
17.961652
17.961652
17.961653
17.961653
17.961653
17.961652
17.96165
17.961648
17.961651
17.961652
17.961652
17.961652
17.961653
17.961652
17.961651
17.96165
17.961648
17.961651
17.961652
17.961652
17.961652
17.961653
17.961652
17.961651
17.96165
17.961648
17.961651
17.961652
17.961652
17.961652
17.961653
17.961652
17.961651
17.96165
17.961648
17.961652
17.961652
17.961652
17.961653
17.961653
17.961653
17.961652
17.96165
17.961649
17.961652
17.961652
17.961653
17.961653
17.961653
17.961653
17.961652
17.96165
17.961649
17.961653
17.961653
17.961653
17.961653
17.961653
17.961653
17.961652
17.961651
17.96165
17.961653
17.961653
17.961653
17.961653
17.961654
17.961653
17.961653
17.961651
17.96165
17.961653
17.961653
17.961653
17.961654
17.961654
17.961654
17.961653
17.961652
17.961651
17.961653
17.961654
17.961654
17.961654
17.961654
17.961654
17.961653
17.961652
17.961651
17.961654
17.961654
17.961654
17.961654
17.961654
17.961654
17.961653
17.961652
17.961652
17.961654
17.961654
17.961654
17.961654
17.961654
17.961654
17.961653
17.961652
17.961652
17.961654
17.961654
17.961654
17.961654
17.961654
17.961654
17.961653
17.961652
17.961651
17.961654
17.961654
17.961654
17.961654
17.961654
17.961653
17.961653
17.961651
17.961651
16.399963
16.399963
16.399963
16.399963
16.399963
16.399963
16.399963
16.399964
16.399964
16.399962
16.399962
16.399962
16.399962
16.399962
16.399962
16.399963
16.399963
16.399964
16.399961
16.399961
16.399961
16.399961
16.399961
16.399961
16.399962
16.399963
16.399963
16.39996
16.39996
16.39996
16.39996
16.39996
16.39996
16.399961
16.399962
16.399963
16.399959
16.399959
16.399959
16.399959
16.399959
16.39996
16.39996
16.399962
16.399963
16.399958
16.399958
16.399958
16.399958
16.399958
16.399959
16.39996
16.399961
16.399962
16.399957
16.399957
16.399957
16.399957
16.399957
16.399958
16.399959
16.399961
16.399962
16.399956
16.399956
16.399956
16.399956
16.399956
16.399957
16.399958
16.39996
16.399962
16.399956
16.399956
16.399956
16.399956
16.399956
16.399957
16.399958
16.39996
16.399962
16.399955
16.399955
16.399955
16.399955
16.399955
16.399956
16.399958
16.399959
16.399961
16.399955
16.399955
16.399955
16.399955
16.399955
16.399956
16.399957
16.399959
16.399961
16.399954
16.399955
16.399955
16.399955
16.399955
16.399955
16.399957
16.399959
16.399961
16.399954
16.399954
16.399954
16.399954
16.399955
16.399955
16.399957
16.399959
16.399961
16.399954
16.399954
16.399954
16.399954
16.399955
16.399955
16.399957
16.399959
16.399961
16.399955
16.399955
16.399955
16.399954
16.399955