/*--------------------------------*- C++ -*----------------------------------*\
| =========                 |                                                 |
| \\      /  F ield         | OpenFOAM: The Open Source CFD Toolbox           |
|  \\    /   O peration     | Version:  2406                                  |
|   \\  /    A nd           | Website:  www.openfoam.com                      |
|    \\/     M anipulation  |                                                 |
\*---------------------------------------------------------------------------*/
FoamFile
{
    version     2.0;
    format      ascii;
    arch        "LSB;label=32;scalar=64";
    class       surfaceScalarField;
    location    "19";
    object      phi;
}
// * * * * * * * * * * * * * * * * * * * * * * * * * * * * * * * * * * * * * //

dimensions      [0 3 -1 0 0 0 0];

oriented        oriented;

internalField   nonuniform List<scalar> 
101088
(
0.00011142206
-2.1191372e-05
1.6704534e-05
1.8540654e-05
0.00022669395
-9.0368293e-05
7.0684551e-05
8.0001785e-05
0.00032295524
-0.00021441525
0.00016553868
0.0001914363
0.00037352776
-0.00039782645
0.00030081032
0.00035847042
0.0003657862
-0.00061243364
0.00044745688
0.00055865151
0.00031905329
-0.0007975537
0.00055192843
0.00073694905
0.00027653493
-0.00089842024
0.00057252308
0.00083825908
0.00026850794
-0.00090186542
0.00051293029
0.00084791786
-0.00082390788
0.00041003731
0.00077651445
0.0002984698
0.00013550742
-2.3392706e-05
2.0615816e-05
0.00027225019
-9.8434417e-05
8.6436015e-05
0.00037984382
-0.00023047319
0.00020065921
0.00042372112
-0.00042123142
0.00036097835
0.00039029872
-0.00063809769
0.00053112841
0.00030786247
-0.00081914332
0.00064947606
0.00022986812
-0.00091209273
0.00067217919
0.00019118661
-0.00090625605
0.00060721631
-0.00081822845
0.00049466163
0.0001911948
0.00015954679
-2.4896722e-05
2.4588534e-05
0.00031711574
-0.0001034585
0.00010226521
0.0004358899
-0.00023931733
0.00023551314
0.00047600081
-0.00043096899
0.00041969695
0.00042409087
-0.00064114652
0.0006110716
0.00031505317
-0.00080812638
0.00074043931
0.00020930706
-0.00088455646
0.00076323781
0.00014451556
-0.00086464056
0.00069217719
-0.00076691155
0.0005707584
0.00012074249
0.00018289223
-2.5645746e-05
2.8509213e-05
0.00036049922
-0.00010539158
0.00011772215
0.00049000641
-0.0002410977
0.00026917325
0.00052716469
-0.00042795344
0.00047567779
0.00046014451
-0.0006244623
0.00068618677
0.00032976223
-0.00076927051
0.00082468288
0.00020199717
-0.00082217566
0.00084666272
0.00011653366
-0.00078453435
0.0007692585
-0.00067948938
0.00063907674
7.5466326e-05
0.00020486566
-2.5515375e-05
3.2240931e-05
0.00040108261
-0.00010410637
0.00013238001
0.00054049368
-0.00023617652
0.00030099192
0.00057519137
-0.00041372538
0.00052841452
0.00049504848
-0.00059125051
0.00075664348
0.00034613146
-0.00070740294
0.0009032954
0.00019894144
-0.00073084929
0.00092405195
9.5900017e-05
-0.00067345333
0.00084022581
-0.00056416754
0.00070138745
4.0856464e-05
0.00022537642
-2.4793888e-05
3.5782495e-05
0.00043914574
-0.00010054545
0.00014627414
0.00058800514
-0.00022630264
0.00033115935
0.00062022429
-0.000390832
0.000578489
0.0005267814
-0.00054468704
0.00082362958
0.00035882387
-0.0006265593
0.00097796305
0.00019219844
-0.00061624054
0.00099720716
7.2974366e-05
-0.000539225
0.00090687252
-0.00043019856
0.00075947913
6.6476395e-06
0.00024326149
-2.3364419e-05
3.9088368e-05
0.00047131064
-9.4387505e-05
0.00015929006
0.00062578727
-0.0002111046
0.00035958422
0.00065130381
-0.00035935756
0.00062605689
0.00054045554
-0.00048631906
0.00088775548
0.00035102878
-0.00053134857
0.0010496241
0.00016568444
-0.00048696837
0.0010671756
3.3748525e-05
-0.0003937188
0.00097052674
-0.00029070741
0.00081496413
-3.8991819e-05
0.00025820387
-2.1116935e-05
4.2135363e-05
0.00049664187
-8.5152731e-05
0.00017144735
0.00065141291
-0.00018951673
0.00038654861
0.00066314978
-0.00031794218
0.00067199176
0.00052716062
-0.00041612011
0.00095061215
0.00031155047
-0.00042630275
0.0011202221
0.00010824469
-0.00035372773
0.0011360392
-3.1498527e-05
-0.00025206812
0.0010334167
-0.00016134358
0.00086961268
-0.00010434871
0.00026978463
-1.7805792e-05
4.4904292e-05
0.0005137802
-7.1787725e-05
0.00018272552
0.00066167233
-0.00015917448
0.00041214459
0.00064987418
-0.00026324253
0.00071650322
0.00047891693
-0.00033266371
0.0010124681
0.00023265708
-0.00031663656
0.0011899436
1.3867224e-05
-0.00022982977
0.0012047174
-0.00012680843
-0.00013171051
0.0010962044
-5.9155025e-05
0.00092424835
-0.00019231291
0.00027786096
-1.3186572e-05
4.7297724e-05
0.00052258297
-5.31281e-05
0.00019270588
0.00065668174
-0.00011733726
0.00043537105
0.0006124932
-0.0001915397
0.00075792308
0.00039903946
-0.00023437655
0.0010705289
0.00012042002
-0.00020693578
0.0012551894
-0.00010939198
-0.00012756133
0.0012702006
-0.00024384753
-4.8491801e-05
0.0011572578
1.3728145e-06
0.00097767431
-0.00029548463
0.00028243163
-7.0862686e-06
4.9151116e-05
0.0005241233
-2.8517809e-05
0.00020051621
0.00064114889
-6.2819547e-05
0.00045378067
0.00056291775
-0.00010168147
0.00079121249
0.00030794478
-0.00012170098
0.0011179236
1.5998907e-06
-0.00010121401
0.0013087643
-0.00023329975
-5.316824e-05
0.0013248751
-0.00035686762
-8.8934009e-06
0.0012098081
1.6029744e-05
0.0010237446
-0.00039195235
0.00028446504
-8.1205045e-11
5.0125016e-05
0.00052343306
-3.257125e-10
0.00020475089
0.00062894881
-7.7097062e-10
0.00046406378
0.00052859049
-1.5366842e-09
0.00081029405
0.0002472347
-2.259345e-09
0.0011454899
-7.5586821e-05
-2.973284e-09
0.0013407498
-0.00031188305
-3.5719887e-09
0.0013583954
-0.00042697175
-4.0492046e-09
0.0012419569
-4.2659185e-09
0.0010516018
-0.00045086377
0.0002844651
7.0861372e-06
5.0125006e-05
0.0005234329
2.8517224e-05
0.00020475085
0.00062894861
6.2818108e-05
0.00046406369
0.00052859073
0.00010167863
0.00081029387
0.00024723484
0.0001216968
0.0011454897
-7.5586794e-05
0.00010120846
0.0013407495
-0.00031188309
5.3161585e-05
0.0013583951
-0.00042697184
8.8857771e-06
0.0012419567
-1.6037831e-05
0.0010516015
-0.00045086382
0.00028243165
1.3186497e-05
4.915111e-05
0.00052412288
5.31277e-05
0.00020051619
0.00064114873
0.0001173362
0.00045378059
0.00056291865
0.00019153755
0.00079121224
0.00030794511
0.00023437326
0.0011179233
1.5998564e-06
0.00020693123
0.0013087639
-0.00023330001
0.00012755591
0.0013248746
-0.000356868
4.8485362e-05
0.0012098077
-1.3798085e-06
0.0010237441
-0.00039195253
0.00027786074
1.7805752e-05
4.7297709e-05
0.00052258248
7.1787571e-05
0.0001927058
0.00065668178
0.00015917389
0.00043537084
0.00061249429
0.00026324096
0.00075792261
0.00039903951
0.00033266102
0.0010705284
0.00012041976
0.00031663292
0.0012551886
-0.00010939266
0.00022982558
0.0012701998
-0.00024384837
0.00013170538
0.0011572572
5.914932e-05
0.00097767359
-0.00029548505
0.00026978463
2.1116959e-05
4.490428e-05
0.00051378031
8.5152833e-05
0.00018272546
0.0006616724
0.00018951641
0.00041214443
0.00064987479
0.00031794071
0.00071650287
0.00047891663
0.00041611741
0.0010124677
0.00023265651
0.00042629959
0.0011899429
1.3865922e-05
0.00035372398
0.0012047167
-0.00012680985
0.00025206365
0.0010962038
0.00016133883
0.00092424761
-0.00019231352
0.00025820383
2.3364354e-05
4.2135362e-05
0.00049664187
9.4387308e-05
0.00017144735
0.00065141231
0.00021110409
0.00038654858
0.00066314968
0.00035935637
0.00067199165
0.00052716022
0.00048631678
0.00095061188
0.00031154966
0.00053134564
0.0011202215
0.00010824301
0.00048696443
0.0011360386
-3.1500279e-05
0.00039371455
0.0010334161
0.00029070324
0.00086961203
-0.00010434955
0.00024326185
2.4793854e-05
3.9088375e-05
0.00047131152
0.00010054535
0.00015929008
0.00062578745
0.00022630269
0.00035958425
0.00065130364
0.00039083195
0.00062605684
0.00054045531
0.00054468568
0.00088775517
0.00035102754
0.00062655663
0.0010496236
0.00016568277
0.00061623683
0.0010671751
3.3746744e-05
0.00053922139
0.00097052625
0.00043019472
0.0008149636
-3.8993063e-05
0.00022537713
2.5515339e-05
3.5782498e-05
0.00043914711
0.00010410618
0.00014627414
0.00058800542
0.00023617606
0.00033115936
0.00062022275
0.00041372406
0.00057848907
0.00052678074
0.00059124799
0.00082362949
0.00035882252
0.00070739964
0.00097796294
0.00019219736
0.00073084632
0.00099720691
7.2972494e-05
0.00067345046
0.00090687213
0.00056416373
0.00075947871
6.6461863e-06
0.0002048658
2.5645701e-05
3.2240934e-05
0.00040108271
0.0001053914
0.00013238002
0.00054049307
0.00024109726
0.00030099197
0.00057519018
0.00042795288
0.00052841459
0.00049504888
0.00062446197
0.00075664339
0.00034613134
0.00076926889
0.00090329531
0.00019894088
0.0008221733
0.00092405174
9.5897689e-05
0.00078453101
0.0008402255
0.00067948631
0.00070138708
4.085467e-05
0.00018289242
2.4896742e-05
2.8509205e-05
0.00036050009
0.00010345858
0.0001177221
0.00049000792
0.00023931731
0.00026917315
0.00052716575
0.00043096863
0.00047567766
0.00046014422
0.00064114574
0.00068618666
0.00032976219
0.00080812467
0.00082468265
0.00020199653
0.00088455275
0.00084666251
0.00011653202
0.00086463702
0.00076925823
0.00076690975
0.00063907637
7.5463504e-05
0.00015954674
2.3392705e-05
2.4588521e-05
0.00031711584
9.8434396e-05
0.00010226515
0.00043589044
0.00023047301
0.00023551301
0.00047600141
0.00042123084
0.00041969675
0.00042409013
0.00063809667
0.00061107142
0.00031505199
0.00081914158
0.00074043908
0.0002093063
0.00091208965
0.00076323748
0.00014451479
0.00090625544
0.00069217688
0.00081822667
0.00057075816
0.00012073977
0.0001355073
2.1191391e-05
2.0615814e-05
0.00027225009
9.0368362e-05
8.6436002e-05
0.00037984421
0.0002144154
0.00020065918
0.00042372212
0.00039782661
0.00036097834
0.00039029887
0.00061243348
0.0005311285
0.00030786052
0.00079755289
0.00064947619
0.00022986601
0.00089841924
0.00067217904
0.00019118216
0.00090186484
0.00060721628
0.00082390494
0.00049466132
0.0001911912
0.00011142205
1.6704533e-05
1.8540712e-05
0.00022669406
7.0684544e-05
8.0002004e-05
0.00032295561
0.00016553866
0.00019143679
0.00037352825
0.00030081028
0.00035847131
0.00036578564
0.00044745683
0.00055865272
0.00031905105
0.00055192838
0.00073695005
0.00027653197
0.00057252298
0.00083825938
0.00026850369
0.00051293027
0.00084791865
0.00041003696
0.00077651428
0.00029846907
1.8695199e-06
-4.2139839e-06
1.6074208e-05
2.9747871e-06
8.0342211e-06
-2.0012919e-05
7.0029877e-05
1.4502996e-05
2.0416006e-05
-5.3532411e-05
0.00016709838
3.9591218e-05
4.1169742e-05
-0.00011423979
0.00030816599
8.6130703e-05
6.9104555e-05
-0.00020461999
0.00046684251
0.00015729957
9.9228906e-05
-0.00030952642
0.00058955737
0.00024177316
0.00012869638
-0.00040081383
0.00062760172
0.00031626796
0.00015993073
-0.0004556788
0.0005753726
0.00036200254
-0.0004626058
0.00046707146
0.00037345406
0.00019204812
2.4713177e-06
-5.4013993e-06
1.9331917e-05
1.0592842e-05
-2.5536397e-05
8.3837894e-05
2.6423776e-05
-6.7675582e-05
0.00019897115
5.1261337e-05
-0.00014240702
0.00036430752
8.1363233e-05
-0.00025082177
0.0005472279
0.00010930272
-0.0003735051
0.00068551492
0.00013203887
-0.00047790805
0.00072653667
0.00015371764
-0.00053826601
0.00066812407
-0.00054024245
0.00055013283
0.00017588386
3.2870376e-06
-6.5943743e-06
2.2494511e-05
1.3846298e-05
-3.1026366e-05
9.7196002e-05
3.3733908e-05
-8.1628375e-05
0.0002295785
6.3331064e-05
-0.00016980831
0.00041750129
9.6239227e-05
-0.00029445892
0.00062180087
0.0001224875
-0.00043127884
0.00077196587
0.00013894975
-0.00054379655
0.00081266451
0.0001514479
-0.00060469948
0.00074611277
-0.00060007877
0.00061876077
0.00016328235
4.2543897e-06
-7.8152424e-06
2.5475616e-05
1.7787787e-05
-3.6549814e-05
0.00010971202
4.2650137e-05
-9.5349943e-05
0.00025803268
7.7999645e-05
-0.00019589863
0.00046641926
0.00011448165
-0.0003341387
0.00068938447
0.0001394608
-0.00048046138
0.00084888615
0.00014995971
-0.00059541876
0.00088778598
0.00015385199
-0.00065200306
0.00081267023
-0.000639184
0.00067606394
0.00015597113
5.2510979e-06
-8.9767722e-06
2.8151253e-05
2.1914715e-05
-4.1789173e-05
0.00012095545
5.2158673e-05
-0.00010817263
0.00028357059
9.3963763e-05
-0.00021947211
0.00051018334
0.00013482577
-0.00036781647
0.00074946014
0.00015903422
-0.00051795334
0.00091657926
0.00016359611
-0.00062908876
0.00095316094
0.00015909058
-0.00067709081
0.00086981989
-0.00065532971
0.00072438125
0.00015224298
6.3750301e-06
-1.0115697e-05
3.0546309e-05
2.6593156e-05
-4.6743804e-05
0.00013101056
6.299549e-05
-0.00011978722
0.00030637197
0.00011221136
-0.00023934876
0.00054914978
0.00015805038
-0.00039269123
0.00080266551
0.00018127172
-0.00053919112
0.00097598071
0.00017912657
-0.00063963173
0.0010098967
0.00016565971
-0.00067558829
0.00091883782
-0.00064546276
0.00076514415
0.00015012808
7.32419e-06
-1.1011489e-05
3.2659913e-05
3.0589697e-05
-5.0585317e-05
0.00013986605
7.2226441e-05
-0.00012826824
0.00032642917
0.00012751456
-0.00025196439
0.00058338489
0.0001766246
-0.0004032585
0.00084921271
0.00019741035
-0.00053777272
0.0010274206
0.00018828054
-0.00062165833
0.0010583336
0.00016694526
-0.00064393452
0.00096020947
-0.00060748156
0.00079917056
0.0001447582
7.9943314e-06
-1.1357103e-05
3.4486457e-05
3.3142113e-05
-5.1857278e-05
0.00014757154
7.7711366e-05
-0.00013031361
0.00034402546
0.00013604966
-0.00025198041
0.0006136701
0.00018484519
-0.00039192572
0.00089048481
0.00020090608
-0.00050626719
0.0010726567
0.00018485191
-0.00056967741
0.001100114
0.00015766022
-0.0005787188
0.00099539386
-0.00053951548
0.00082788818
0.00013141917
8.339294e-06
-1.0832785e-05
3.6040472e-05
3.3959344e-05
-4.8953868e-05
0.00015420207
7.8077865e-05
-0.00012166248
0.00035937556
0.00013316983
-0.00023105337
0.00064048445
0.00017619655
-0.00034977826
0.00092729512
0.00018454573
-0.00043738909
0.0011127176
0.00016249598
-0.00047927278
0.0011363637
0.00013250575
-0.00047797604
0.0010254526
-0.00044067919
0.00085226311
0.00010565493
7.9411536e-06
-8.7966045e-06
3.732046e-05
3.1290248e-05
-3.9327543e-05
0.00015973082
6.9322955e-05
-9.6674075e-05
0.00037235054
0.00011391203
-0.00018117498
0.00066345569
0.00014569584
-0.00027013058
0.00095909817
0.00014455686
-0.00032819283
0.001147133
0.00011837102
-0.00034997664
0.0011670907
8.9050782e-05
-0.00034193573
0.0010505379
-0.00031015039
0.00087243258
6.376362e-05
7.0718512e-06
-5.0322077e-06
3.8315003e-05
2.6579715e-05
-2.2293752e-05
0.00016397483
5.5744224e-05
-5.4308034e-05
0.00038225035
8.5560297e-05
-0.00010070773
0.00068092919
9.8523795e-05
-0.00014838076
0.00098321049
8.4392163e-05
-0.00017835248
0.001173056
5.4797377e-05
-0.00018553944
0.0011900326
3.0782459e-05
-0.00017722302
0.0010691103
-0.00016084082
0.00088717933
1.8037957e-05
6.2852409e-06
2.6866368e-11
3.8807624e-05
2.2582809e-05
8.5763201e-11
0.00016615957
4.4835163e-05
1.6191322e-10
0.00038750314
6.4018755e-05
2.2485532e-10
0.00069040264
6.4703355e-05
4.1181771e-10
0.00099642409
3.9751987e-05
8.1482312e-10
0.0011873482
9.9431652e-06
1.3195691e-09
0.0012026633
-4.6371591e-06
1.5153632e-09
0.0010793128
1.3149852e-09
0.00089527187
-9.1494746e-06
6.2852394e-06
5.0322558e-06
3.8807616e-05
2.2582799e-05
2.2293915e-05
0.00016615954
4.4835087e-05
5.4308364e-05
0.00038750307
6.401885e-05
0.00010070821
0.00069040252
6.4703395e-05
0.00014838166
0.00099642393
3.9751976e-05
0.00017835428
0.001187348
9.9431379e-06
0.00018554232
0.0012026632
-4.6371915e-06
0.00017722619
0.0010793127
0.00016084346
0.00089527177
-9.1494159e-06
7.0718737e-06
8.7966293e-06
3.8314999e-05
2.657971e-05
3.9327657e-05
0.00016397481
5.5743998e-05
9.6674384e-05
0.0003822503
8.5560587e-05
0.00018117554
0.00068092906
9.8523925e-05
0.00027013168
0.00098321033
8.4392231e-05
0.00032819489
0.0011730558
5.4797408e-05
0.00034997998
0.0011900323
3.0782304e-05
0.00034193931
0.0010691101
0.0003101531
0.00088717911
1.8037957e-05
7.9412821e-06
1.0832788e-05
3.7320448e-05
3.1290349e-05
4.8953924e-05
0.00015973076
6.9322607e-05
0.00012166271
0.0003723504
0.00011391237
0.00023105392
0.00066345539
0.00014569575
0.00034977943
0.00095909782
0.00014455642
0.00043739124
0.0011471326
0.00011837046
0.00047927613
0.0011670903
8.9050316e-05
0.00047797944
0.0010505376
0.0004406819
0.00087243226
6.376342e-05
8.3396392e-06
1.1357139e-05
3.6040464e-05
3.395985e-05
5.1857432e-05
0.00015420203
7.8077783e-05
0.00013031394
0.00035937545
0.00013317019
0.00025198101
0.00064048423
0.00017619624
0.00039192674
0.00092729489
0.000184545
0.00050626895
0.0011127172
0.00016249486
0.0005696802
0.0011363633
0.00013250462
0.00057872173
0.0010254522
0.00053951804
0.00085226278
0.00010565425
7.9946221e-06
1.1011539e-05
3.4486455e-05
3.3142553e-05
5.0585508e-05
0.00014757152
7.7711185e-05
0.00012826857
0.00034402543
0.00013604955
0.00025196486
0.00061367002
0.00018484466
0.00040325916
0.00089048468
0.00020090523
0.00053777403
0.0010726563
0.00018485053
0.00062166042
0.0011001137
0.00015765895
0.00064393682
0.00099539355
0.00060748373
0.00082788787
0.00013141845
7.3242804e-06
1.0115767e-05
3.2659916e-05
3.0589857e-05
4.6744012e-05
0.00013986606
7.2226004e-05
0.00011978748
0.00032642919
0.00012751402
0.00023934907
0.00058338488
0.00017662419
0.00039269177
0.00084921257
0.00019740959
0.00053919235
0.0010274203
0.00018827922
0.00063963343
0.0010583333
0.00016694411
0.00067559002
0.00096020916
0.00064546404
0.00079917025
0.00014475735
6.3751664e-06
8.9767943e-06
3.054631e-05
2.659348e-05
4.1789319e-05
0.00013101057
6.2995522e-05
0.00010817294
0.000306372
0.00011221151
0.00021947268
0.00054914986
0.00015805045
0.00036781731
0.00080266548
0.00018127123
0.00051795449
0.00097598067
0.00017912552
0.0006290902
0.0010098966
0.00016565854
0.00067709192
0.00091883756
0.00065533013
0.00076514386
0.00015012686
5.251176e-06
7.8152941e-06
2.8151252e-05
2.1915101e-05
3.6550038e-05
0.00012095544
5.2159214e-05
9.5350416e-05
0.0002835706
9.3964195e-05
0.00019589932
0.00051018335
0.00013482578
0.00033413955
0.00074946003
0.00015903415
0.00048046268
0.00091657915
0.00016359541
0.00059542006
0.00095316076
0.00015908947
0.00065200347
0.00086981962
0.00063918436
0.00072438095
0.0001522418
4.2545121e-06
6.5944166e-06
2.5475607e-05
1.7788305e-05
3.1026557e-05
0.00010971197
4.2650805e-05
8.1628796e-05
0.00025803259
7.7999939e-05
0.00016980893
0.00046641913
0.00011448195
0.00029445988
0.00068938433
0.00013946097
0.00043128023
0.00084888591
0.00014995962
0.00054379776
0.00088778574
0.00015385181
0.00060469964
0.00081266995
0.00060007852
0.00067606365
0.00015597053
3.2870465e-06
5.4014341e-06
2.2494498e-05
1.3846432e-05
2.5536559e-05
9.7195946e-05
3.373415e-05
6.7675969e-05
0.00022957838
6.3331321e-05
0.00014240763
0.0004175011
9.6239667e-05
0.00025082257
0.00062180065
0.00012248762
0.00037350632
0.00077196558
0.0001389497
0.00047790963
0.00081266413
0.00015144805
0.00053826716
0.00074611246
0.00054024197
0.00061876058
0.00016328204
2.4713335e-06
4.2140257e-06
1.9331913e-05
1.0592925e-05
2.0013093e-05
8.3837874e-05
2.6423914e-05
5.353282e-05
0.00019897111
5.1261637e-05
0.00011424045
0.00036430747
8.1363599e-05
0.00020462089
0.00054722788
0.0001093028
0.00030952795
0.0006855149
0.00013203866
0.00040081567
0.00072653647
0.00015371688
0.00045568067
0.00066812402
0.00046260569
0.0005501326
0.00017588324
1.8695765e-06
1.6074207e-05
2.9748261e-06
8.0343813e-06
7.002987e-05
1.4503159e-05
2.041621e-05
0.00016709836
3.9591625e-05
4.1170282e-05
0.00030816594
8.613148e-05
6.9105383e-05
0.00046684246
0.00015730074
9.9229324e-05
0.00058955732
0.00024177468
0.00012869702
0.00062760163
0.00031626965
0.00015993004
0.00057537258
0.00036200325
0.0004670712
0.00037345295
0.00019204762
4.9444607e-08
-1.7899731e-06
1.6169316e-05
1.6454174e-06
7.9720942e-07
-8.6527027e-06
7.004491e-05
7.8899585e-06
2.7978685e-06
-2.3511597e-05
0.00016745784
2.1151659e-05
5.7880986e-06
-5.0946446e-05
0.00031093637
4.5186032e-05
9.6237581e-06
-9.2942358e-05
0.00047416487
8.1784307e-05
1.5751024e-05
-0.00014335893
0.00060037084
0.00012641815
2.7451473e-05
-0.00018703127
0.00063628372
0.00016664907
4.7055377e-05
-0.00020988416
0.00057635217
0.00018930112
-0.00020734784
0.00046071339
0.00018867152
7.2089352e-05
5.3693434e-08
-1.8893421e-06
1.9377583e-05
1.0148587e-06
-9.3099728e-06
8.3533838e-05
3.4214291e-06
-2.5683124e-05
0.00019873566
6.3526493e-06
-5.6278577e-05
0.00036670773
8.7795674e-06
-0.00010311262
0.00055497062
1.1605391e-05
-0.00015810302
0.00069743261
1.8249369e-05
-0.00020317939
0.00073604014
3.1348234e-05
-0.00022362477
0.000668765
-0.00021772037
0.0005419609
4.9893106e-05
1.0081507e-07
-1.963239e-06
2.2467639e-05
1.3743204e-06
-9.8617857e-06
9.6474393e-05
4.3978369e-06
-2.7654373e-05
0.0002285264
7.7886369e-06
-6.1286466e-05
0.00041911856
9.6719591e-06
-0.0001124561
0.00062926122
1.0174934e-05
-0.00017057696
0.00078393798
1.2729688e-05
-0.00021479498
0.00082172585
2.0359774e-05
-0.00023057274
0.00074543058
-0.00021990974
0.00060833757
3.2972655e-05
1.958335e-07
-2.0248588e-06
2.5341333e-05
1.9641508e-06
-1.0355147e-05
0.00010843688
5.9465395e-06
-2.9460105e-05
0.00025585615
1.027173e-05
-6.585888e-05
0.00046666691
1.2192564e-05
-0.00012060174
0.00069560884
1.1044965e-05
-0.00018019073
0.00085964722
1.0303887e-05
-0.00022130681
0.00089503899
1.3602954e-05
-0.00023094261
0.00080974116
-0.0002151096
0.00066310858
2.175911e-05
3.0960804e-07
-2.0565183e-06
2.7873239e-05
2.6510046e-06
-1.0722095e-05
0.00011898074
7.7894369e-06
-3.0944603e-05
0.0002799165
1.3435324e-05
-6.9682613e-05
0.00050836135
1.5928145e-05
-0.00012698334
0.00075334968
1.3650423e-05
-0.00018617666
0.00092484289
1.0256819e-05
-0.00022224078
0.00095748927
1.0095929e-05
-0.00022495151
0.00086398995
-0.00020438847
0.00070887437
1.4881875e-05
4.9202283e-07
-2.0862097e-06
3.0083954e-05
3.6232484e-06
-1.1010323e-05
0.00012816755
1.0301272e-05
-3.2065694e-05
0.00030081535
1.7791815e-05
-7.2422925e-05
0.00054439923
2.1366037e-05
-0.00013079153
0.0008028998
1.8271312e-05
-0.00018740358
0.00098030296
1.23889e-05
-0.00021667814
0.0010102175
9.1252735e-06
-0.00021241697
0.00090956722
-0.00018836572
0.00074709922
1.1147533e-05
7.0323663e-07
-2.086178e-06
3.1956569e-05
4.6162209e-06
-1.0977248e-05
0.00013592003
1.2728788e-05
-3.2128526e-05
0.00031837999
2.1842934e-05
-7.2688633e-05
0.00057453631
2.6355805e-05
-0.00013016082
0.00084406907
2.2428562e-05
-0.00018207827
0.0010260225
1.4299473e-05
-0.00020363963
0.001053425
8.6072001e-06
-0.00019339885
0.00094688426
-0.00016777815
0.00077841418
8.7763797e-06
9.1278782e-07
-1.9926203e-06
3.3479796e-05
5.6660031e-06
-1.0401343e-05
0.00014224242
1.5134545e-05
-3.0324747e-05
0.0003327538
2.5157332e-05
-6.8313438e-05
0.00059927198
3.0061507e-05
-0.00012248154
0.00087790203
2.5101516e-05
-0.00016793778
0.0010634764
1.4926059e-05
-0.00018196335
0.0010886141
7.6127114e-06
-0.00016787193
0.00097718096
-0.00014313391
0.00080383089
7.0261493e-06
9.8411605e-07
-1.6021039e-06
3.4665526e-05
6.1912837e-06
-8.5882701e-06
0.00014718178
1.6630118e-05
-2.542657e-05
0.00034403905
2.8015396e-05
-5.8151924e-05
0.00061893724
3.2730808e-05
-0.00010499027
0.00090508915
2.6377517e-05
-0.0001425278
0.0010936613
1.4396026e-05
-0.00015042472
0.001116807
6.685606e-06
-0.00013600249
0.0010012938
-0.00011499414
0.00082393691
6.8721652e-06
1.2734264e-06
-1.0893701e-06
3.5534358e-05
7.6726963e-06
-6.0758162e-06
0.00015081927
2.061377e-05
-1.8393608e-05
0.0003523768
3.4799525e-05
-4.2366235e-05
0.00063348384
3.8797816e-05
-7.5524e-05
0.00092563383
2.964276e-05
-0.00010300621
0.0011167667
1.6116156e-05
-0.00010812609
0.0011383185
9.6351257e-06
-9.841011e-05
0.0010194264
-8.5475143e-05
0.00083881041
1.3738162e-05
1.635552e-06
-5.5680341e-07
3.6147032e-05
9.385873e-06
-3.1748871e-06
0.00015332361
2.498191e-05
-9.7352418e-06
0.00035799573
4.2985025e-05
-2.2522063e-05
0.00064308159
5.1739417e-05
-3.9860979e-05
0.00093879277
4.3302395e-05
-5.3224206e-05
0.0011317109
3.0080258e-05
-5.7145781e-05
0.0011522738
2.3807121e-05
-5.3739907e-05
0.0010307129
-4.564281e-05
0.00084778322
2.3370635e-05
1.8386637e-06
-1.3966021e-12
3.6412213e-05
1.0357055e-05
6.2796718e-12
0.00015446615
2.7449741e-05
7.0174537e-11
0.0003606747
4.7508564e-05
2.5898532e-10
0.00064782141
5.8676706e-05
6.8408523e-10
0.00094539376
5.3793385e-05
1.1414522e-09
0.0011390059
4.0427737e-05
1.3779341e-09
0.0011588812
2.9784897e-05
1.2446112e-09
0.0010362143
6.2093094e-10
0.0008522561
2.7156993e-05
1.8386026e-06
5.5681663e-07
3.6412208e-05
1.0356978e-05
3.1749532e-06
0.00015446613
2.7449647e-05
9.7354939e-06
0.00036067465
4.7508563e-05
2.2522748e-05
0.00064782132
5.8676582e-05
3.986255e-05
0.00094539365
5.3793186e-05
5.3226717e-05
0.0011390058
4.0427597e-05
5.714878e-05
0.0011588811
2.9784747e-05
5.3742518e-05
0.0010362142
4.564397e-05
0.00085225604
2.7156935e-05
1.635449e-06
1.0894027e-06
3.6147032e-05
9.385733e-06
6.0759604e-06
0.0001533236
2.4981635e-05
1.8394053e-05
0.00035799572
4.2985057e-05
4.236726e-05
0.00064308156
5.1739084e-05
7.5526026e-05
0.00093879272
4.3301708e-05
0.0001030093
0.0011317109
3.0079573e-05
0.00010812962
0.0011522737
2.3806551e-05
9.8412783e-05
0.0010307128
8.5476096e-05
0.00084778311
2.337033e-05
1.2734916e-06
1.6021299e-06
3.553435e-05
7.6727371e-06
8.5884249e-06
0.00015081923
2.061338e-05
2.5427089e-05
0.00035237671
3.4799647e-05
5.8153141e-05
0.00063348368
3.8797462e-05
0.00010499248
0.0009256336
2.964209e-05
0.00014253106
0.0011167665
1.6115238e-05
0.00015042856
0.0011383183
9.6339955e-06
0.00013600539
0.0010194262
0.00011499502
0.00083881023
1.3737364e-05
9.8450198e-07
1.9926799e-06
3.4665522e-05
6.1917515e-06
1.0401599e-05
0.00014718176
1.6629864e-05
3.0325379e-05
0.000344039
2.8015621e-05
6.8314708e-05
0.00061893714
3.2730353e-05
0.00012248359
0.00090508899
2.6376705e-05
0.00016794077
0.0010936611
1.43948e-05
0.00018196694
0.0011168068
6.6843526e-06
0.00016787471
0.0010012936
0.00014313491
0.00082393671
6.8713278e-06
9.1313693e-07
2.0862497e-06
3.3479796e-05
5.6663622e-06
1.0977507e-05
0.00014224241
1.5134125e-05
3.2129103e-05
0.00033275379
2.5157177e-05
7.2689732e-05
0.00059927195
3.0060789e-05
0.00013016259
0.00087790196
2.5100676e-05
0.00018208105
0.0010634762
1.4924762e-05
0.00020364298
0.0010886139
7.6115135e-06
0.00019340154
0.00097718073
0.00016777915
0.0008038307
7.0253548e-06
7.0331384e-07
2.0862608e-06
3.1956572e-05
4.6162126e-06
1.1010527e-05
0.00013592004
1.272812e-05
3.2066139e-05
0.00031838001
2.1842462e-05
7.2423832e-05
0.00057453633
2.6355197e-05
0.00013079336
0.00084406905
2.242791e-05
0.0001874066
0.0010260224
1.4298394e-05
0.00021668158
0.0010534249
8.6062504e-06
0.00021241952
0.00094688407
0.00018836626
0.00077841399
8.7754522e-06
4.9201805e-07
2.0565512e-06
3.0083964e-05
3.6231843e-06
1.0722278e-05
0.00012816759
1.0300889e-05
3.0945044e-05
0.00030081542
1.7791847e-05
6.9683646e-05
0.00054439934
2.1365853e-05
0.00012698532
0.0008028999
1.8270944e-05
0.0001861796
0.00098030302
1.2388113e-05
0.00022224402
0.0010102174
9.1244018e-06
0.00022495357
0.0009095671
0.00020438859
0.00074709906
1.1146335e-05
3.0961669e-07
2.0249271e-06
2.7873241e-05
2.6511748e-06
1.0355456e-05
0.00011898074
7.789736e-06
2.9460839e-05
0.0002799165
1.343566e-05
6.5860202e-05
0.00050836134
1.5928082e-05
0.00012060375
0.00075334962
1.3650508e-05
0.00018019378
0.00092484279
1.0256406e-05
0.0002213097
0.00095748911
1.0095289e-05
0.00023094401
0.00086398976
0.00021511022
0.00070887419
1.4880933e-05
1.9594325e-07
1.9633025e-06
2.534133e-05
1.9645763e-06
9.8620733e-06
0.00010843686
5.9470591e-06
2.7655081e-05
0.00025585611
1.0271973e-05
6.1287714e-05
0.00046666682
1.2193008e-05
0.00011245814
0.00069560869
1.1045477e-05
0.0001705799
0.00085964702
1.0304088e-05
0.00021479764
0.00089503876
1.3603285e-05
0.0002305738
0.00080974095
0.00021991014
0.00066310841
2.1758974e-05
1.0082602e-07
1.889399e-06
2.2467634e-05
1.3744438e-06
9.3102245e-06
9.6474366e-05
4.3980997e-06
2.5683755e-05
0.00022852634
7.7890368e-06
5.6279702e-05
0.00041911844
9.6726979e-06
0.00010311436
0.00062926105
1.0175511e-05
0.00015810554
0.00078393775
1.2729856e-05
0.00020318243
0.00082172559
2.0360194e-05
0.00022362688
0.00074543037
0.0002177207
0.00060833743
3.2972608e-05
5.3711484e-08
1.7900295e-06
1.9377583e-05
1.014977e-06
8.6529468e-06
8.3533833e-05
3.4217194e-06
2.3512193e-05
0.00019873565
6.3532753e-06
5.0947527e-05
0.0003667077
8.7805064e-06
9.2944067e-05
0.00055497056
1.1606255e-05
0.00014336161
0.00069743253
1.8249922e-05
0.00018703449
0.00073604001
3.1348668e-05
0.00020988702
0.00066876491
0.00020734889
0.00054196083
4.9893726e-05
4.9489471e-08
1.616932e-05
1.6454646e-06
7.9739871e-07
7.004492e-05
7.8901658e-06
2.798276e-06
0.00016745786
2.11522e-05
5.7890587e-06
0.0003109364
4.5187127e-05
9.6252023e-06
0.0004741649
8.1786045e-05
1.5752289e-05
0.00060037086
0.00012642048
2.7453329e-05
0.00063628372
0.00016665189
4.7056335e-05
0.00057635217
0.0001893027
0.00046071336
0.00018867141
7.2090578e-05
1.9470986e-07
-9.7192037e-07
1.6271991e-05
6.7453361e-07
8.0131405e-07
-4.4659627e-06
7.0724224e-05
3.1800798e-06
2.3922967e-06
-1.1660339e-05
0.00016904633
8.4810098e-06
6.4815292e-06
-2.4548356e-05
0.00031317107
1.8224667e-05
1.4572555e-05
-4.4140404e-05
0.00047673248
3.3481986e-05
2.6349652e-05
-6.7904569e-05
0.00060383243
5.2665886e-05
3.9061557e-05
-8.8580069e-05
0.00064192832
7.0223492e-05
4.9458169e-05
-9.8723916e-05
0.00058471794
7.9961891e-05
-9.5934469e-05
0.00047032665
7.9884038e-05
5.5895139e-05
1.9582661e-07
-1.2175189e-06
1.9427344e-05
7.99771e-07
-5.5714182e-06
8.4035265e-05
2.4759811e-06
-1.4440607e-05
0.00019983953
6.9592554e-06
-3.0076893e-05
0.00036775276
1.5774819e-05
-5.3340988e-05
0.00055535536
2.8083246e-05
-8.0646918e-05
0.00069786598
4.0359253e-05
-0.00010318759
0.00073837136
4.8977377e-05
-0.00011290609
0.00067432844
-0.0001080445
0.00054984981
5.3198548e-05
2.0386175e-07
-1.4007311e-06
2.2447008e-05
7.913893e-07
-6.4027535e-06
9.6718258e-05
2.4985343e-06
-1.6570481e-05
0.00022894928
7.316372e-06
-3.4392469e-05
0.00041861643
1.6822303e-05
-6.0521013e-05
0.00062693527
2.9704898e-05
-9.0238167e-05
0.00078064714
4.1787059e-05
-0.00011341266
0.00081986901
4.9253729e-05
-0.00012203846
0.00074709614
-0.00011544703
0.00061327013
5.1723806e-05
2.2259265e-07
-1.5209665e-06
2.5238956e-05
8.4653834e-07
-6.9543618e-06
0.00010836453
2.6855053e-06
-1.8004658e-05
0.00025545153
7.9361784e-06
-3.7342683e-05