/*--------------------------------*- C++ -*----------------------------------*\
| =========                 |                                                 |
| \\      /  F ield         | OpenFOAM: The Open Source CFD Toolbox           |
|  \\    /   O peration     | Version:  2406                                  |
|   \\  /    A nd           | Website:  www.openfoam.com                      |
|    \\/     M anipulation  |                                                 |
\*---------------------------------------------------------------------------*/
FoamFile
{
    version     2.0;
    format      ascii;
    arch        "LSB;label=32;scalar=64";
    class       volVectorField;
    location    "19";
    object      U;
}
// * * * * * * * * * * * * * * * * * * * * * * * * * * * * * * * * * * * * * //

dimensions      [0 1 -1 0 0 0 0];

internalField   nonuniform List<vector> 
34560
(
(0.077401059 -0.0075117715 -0.018234155)
(0.23697132 -0.0229575 -0.056187378)
(0.41263648 -0.043219093 -0.095130716)
(0.58001889 -0.068429428 -0.12734367)
(0.70539301 -0.096222064 -0.14458051)
(0.76168321 -0.12293778 -0.14220612)
(0.75161554 -0.14497115 -0.1242874)
(0.70754687 -0.16011779 -0.10149974)
(0.66056684 -0.16701565 -0.083630589)
(0.087865779 -0.008605376 -0.020118252)
(0.26506942 -0.025419599 -0.06142939)
(0.45416993 -0.046405502 -0.10213918)
(0.62562114 -0.071254206 -0.13314022)
(0.74209172 -0.097065835 -0.14599541)
(0.78000118 -0.12043441 -0.13745488)
(0.75167161 -0.13840734 -0.11461906)
(0.69810939 -0.1494514 -0.089599737)
(0.65034022 -0.15298059 -0.070766189)
(0.098653777 -0.0091549929 -0.021184744)
(0.29399026 -0.026514492 -0.064472456)
(0.49711157 -0.047510462 -0.10586351)
(0.67373085 -0.071394624 -0.13537642)
(0.78356197 -0.094804159 -0.14482411)
(0.80655886 -0.11481693 -0.13221989)
(0.7644266 -0.12884755 -0.10632376)
(0.70511513 -0.13621914 -0.079812616)
(0.65917708 -0.13676509 -0.060194805)
(0.10964703 -0.0096501257 -0.022120128)
(0.32342708 -0.027415287 -0.067103833)
(0.5410989 -0.048111039 -0.1088894)
(0.72410419 -0.070513358 -0.13675273)
(0.82957226 -0.090889172 -0.1429333)
(0.8408389 -0.10678699 -0.12670761)
(0.78816314 -0.11659379 -0.098312066)
(0.72501445 -0.12023837 -0.070474954)
(0.6808813 -0.11803516 -0.050195996)
(0.12055927 -0.0098228896 -0.022773157)
(0.35290314 -0.027568557 -0.069025969)
(0.58592843 -0.047648463 -0.11097509)
(0.77721571 -0.068320299 -0.13725612)
(0.88120587 -0.085411778 -0.14047465)
(0.88385941 -0.096801035 -0.12087679)
(0.82282164 -0.10204345 -0.089916304)
(0.7566815 -0.10202324 -0.060514121)
(0.71411075 -0.097563924 -0.039251227)
(0.13144975 -0.0098728391 -0.023144868)
(0.38271146 -0.027525049 -0.070186372)
(0.63229965 -0.046911908 -0.11200396)
(0.83426306 -0.065703387 -0.13666019)
(0.93992307 -0.079291778 -0.13698522)
(0.93681537 -0.08582712 -0.11392416)
(0.86911608 -0.086290969 -0.08010285)
(0.80052077 -0.082799179 -0.048837486)
(0.75938053 -0.076637538 -0.026393178)
(0.14234163 -0.0097522978 -0.023356075)
(0.41311018 -0.027115912 -0.070846114)
(0.68092936 -0.045703803 -0.11214455)
(0.89650778 -0.062569686 -0.13475908)
(1.0072734 -0.07265399 -0.13164802)
(1.0010665 -0.074300329 -0.10447691)
(0.92814234 -0.07008473 -0.067302858)
(0.85776172 -0.063519943 -0.034009958)
(0.81812155 -0.056246229 -0.010502497)
(0.15306044 -0.009365448 -0.02336045)
(0.44386426 -0.02609285 -0.070856421)
(0.73182282 -0.04366397 -0.11105648)
(0.96435567 -0.058563324 -0.13086232)
(1.0838842 -0.065349131 -0.12324699)
(1.0771719 -0.062523168 -0.090936082)
(1.0006408 -0.054198184 -0.049923548)
(0.92950723 -0.045274397 -0.014751269)
(0.89134273 -0.037543743 0.0091732401)
(0.16334643 -0.0085579024 -0.023148829)
(0.47428733 -0.023972146 -0.070128042)
(0.78388067 -0.039975588 -0.10842467)
(1.0362073 -0.052707239 -0.12427224)
(1.1677096 -0.056604975 -0.1106832)
(1.1628212 -0.050425788 -0.072156851)
(1.0850088 -0.039319698 -0.027151356)
(1.0146142 -0.029195748 0.0092386954)
(0.9778811 -0.021798095 0.032580734)
(0.17261453 -0.0071336316 -0.022745791)
(0.50248845 -0.020107702 -0.068708061)
(0.83352961 -0.033462048 -0.1043393)
(1.1064517 -0.043497958 -0.11513286)
(1.2519941 -0.04519162 -0.094410682)
(1.2501267 -0.037536998 -0.049033034)
(1.1743826 -0.025988088 -0.00054455501)
(1.1067356 -0.016386254 0.036129383)
(1.0709099 -0.010184397 0.057761054)
(0.17999797 -0.0048726038 -0.022307151)
(0.52526462 -0.013777261 -0.067097204)
(0.87417485 -0.022850774 -0.099889321)
(1.1646087 -0.029364233 -0.10555199)
(1.3228518 -0.029766822 -0.077884593)
(1.3251531 -0.023335809 -0.026313999)
(1.2539458 -0.014437524 0.024708412)
(1.1899715 -0.0074697745 0.060811613)
(1.1543132 -0.0033551334 0.080105512)
(0.1839527 -0.0016956243 -0.022000372)
(0.53778153 -0.0048034806 -0.065997212)
(0.89700665 -0.0079947084 -0.09695998)
(1.197937 -0.010269271 -0.09937676)
(1.3638197 -0.010314665 -0.067292176)
(1.3696178 -0.0078317802 -0.011934163)
(1.3021192 -0.0045051182 0.040397357)
(1.2404116 -0.0019878903 0.075784992)
(1.2044463 -0.00057504043 0.093389765)
(0.18395267 0.0016955335 -0.022000355)
(0.53778146 0.004803201 -0.065997212)
(0.89700652 0.0079942095 -0.096959946)
(1.1979368 0.010268517 -0.099376753)
(1.3638194 0.010313788 -0.067292196)
(1.3696175 0.007830817 -0.011934144)
(1.3021189 0.0045040915 0.040397395)
(1.2404113 0.0019867637 0.075785042)
(1.204446 0.00057379085 0.09338981)
(0.17999793 0.004872536 -0.022307107)
(0.52526447 0.013777029 -0.067097164)
(0.87417452 0.022850355 -0.099889221)
(1.1646081 0.029363595 -0.10555197)
(1.3228511 0.029766062 -0.077884637)
(1.3251523 0.023334964 -0.026313938)
(1.253945 0.014436628 0.024708519)
(1.1899707 0.0074687688 0.060811759)
(1.1543122 0.0033540004 0.080105647)
(0.17261448 0.0071335911 -0.022745764)
(0.50248827 0.020107552 -0.068707997)
(0.83352917 0.033461752 -0.10433921)
(1.1064509 0.043497484 -0.11513284)
(1.2519933 0.045191015 -0.094410684)
(1.2501256 0.037536319 -0.049032897)
(1.1743815 0.025987383 -0.00054436963)
(1.1067345 0.016385435 0.036129642)
(1.0709085 0.010183441 0.057761286)
(0.16334638 0.0085578784 -0.023148823)
(0.47428714 0.023972039 -0.070128005)
(0.78388027 0.039975354 -0.10842461)
(1.0362066 0.052706863 -0.12427217)
(1.1677089 0.056604455 -0.11068309)
(1.1628201 0.050425235 -0.072156627)
(1.0850077 0.039319126 -0.027151067)
(1.014613 0.029195082 0.0092390852)
(0.97787959 0.021797296 0.032581058)
(0.15306042 0.0093654236 -0.023360422)
(0.44386419 0.026092767 -0.070856342)
(0.73182267 0.043663801 -0.11105638)
(0.96435527 0.058563059 -0.13086217)
(1.0838834 0.06534869 -0.1232468)
(1.0771707 0.062522699 -0.090935816)
(1.0006397 0.054197658 -0.049923165)
(0.9295061 0.045273817 -0.014750781)
(0.89134129 0.037543067 0.0091736385)
(0.14234162 0.0097522694 -0.023356109)
(0.41311013 0.027115862 -0.070846156)
(0.6809292 0.045703708 -0.11214462)
(0.89650734 0.062569563 -0.13475899)
(1.0072725 0.072653673 -0.1316478)
(1.0010654 0.074299925 -0.10447661)
(0.92814134 0.070084228 -0.067302406)
(0.85776064 0.06351943 -0.034009453)
(0.8181203 0.056245667 -0.010502036)
(0.1314497 0.009872817 -0.023144897)
(0.38271129 0.027524953 -0.070186481)
(0.63229939 0.046911763 -0.11200401)
(0.83426279 0.065703218 -0.13665998)
(0.93992249 0.079291482 -0.13698484)
(0.93681473 0.0858267 -0.11392381)
(0.86911522 0.086290508 -0.080102433)
(0.8005198 0.082798724 -0.048837063)
(0.75937948 0.076637027 -0.026392705)
(0.12055927 0.0098228486 -0.022773145)
(0.35290314 0.02756842 -0.069025959)
(0.58592847 0.047648291 -0.11097497)
(0.77721571 0.068320105 -0.1372559)
(0.88120556 0.085411545 -0.14047447)
(0.88385903 0.096800621 -0.12087667)
(0.82282105 0.10204299 -0.089916118)
(0.75668079 0.10202276 -0.060513787)
(0.71410985 0.097563409 -0.03925079)
(0.10964701 0.0096501011 -0.022120126)
(0.32342698 0.027415192 -0.067103847)
(0.5410987 0.048110856 -0.10888946)
(0.72410395 0.070513153 -0.13675284)
(0.82957205 0.090889033 -0.14293332)
(0.84083855 0.10678668 -0.12670748)
(0.78816275 0.11659318 -0.098311864)
(0.72501392 0.12023773 -0.070474676)
(0.68088046 0.1180348 -0.050195612)
(0.098653746 0.0091549974 -0.021184739)
(0.29399014 0.026514473 -0.064472443)
(0.49711136 0.047510358 -0.10586351)
(0.67373059 0.071394399 -0.13537642)
(0.78356183 0.094803891 -0.14482402)
(0.80655867 0.11481662 -0.1322196)
(0.76442618 0.12884692 -0.10632356)
(0.70511462 0.13621838 -0.079812817)
(0.65917644 0.13676469 -0.060194821)
(0.087865775 0.008605379 -0.02011825)
(0.2650694 0.025419604 -0.061429376)
(0.45416988 0.046405471 -0.10213918)
(0.62562111 0.071254083 -0.13314028)
(0.74209183 0.097065677 -0.14599548)
(0.7800013 0.1204343 -0.13745496)
(0.75167133 0.13840707 -0.11461931)
(0.69810909 0.14945082 -0.089600196)
(0.65033942 0.15297987 -0.070766337)
(0.077401044 0.0075118058 -0.018234182)
(0.23697126 0.022957583 -0.056187463)
(0.41263635 0.043219196 -0.095130882)
(0.58001868 0.06842948 -0.12734395)
(0.70539277 0.096222055 -0.14458091)
(0.76168297 0.12293783 -0.1422065)
(0.75161523 0.14497122 -0.12428766)
(0.70754656 0.16011765 -0.10150007)
(0.66056594 0.16701498 -0.083630928)
(0.10771653 -0.0022668549 -0.0022016124)
(0.33931915 -0.0077011828 -0.0076376245)
(0.60851479 -0.015112815 -0.015253043)
(0.88594061 -0.024629221 -0.025080407)
(1.1274171 -0.035839805 -0.035781894)
(1.2935944 -0.047579027 -0.04463095)
(1.3731184 -0.058882741 -0.049407527)
(1.3858568 -0.069542934 -0.05003505)
(1.3616611 -0.079018052 -0.048742255)
(0.11941213 -0.0030693969 -0.0026641874)
(0.37293044 -0.010233802 -0.0091347635)
(0.66189787 -0.019627783 -0.018101494)
(0.95055536 -0.031116163 -0.029435582)
(1.1894682 -0.043871418 -0.041262511)
(1.339952 -0.056429509 -0.050409731)
(1.3976656 -0.067921974 -0.054799943)
(1.3902053 -0.078413794 -0.054928544)
(1.3525946 -0.086896761 -0.052733733)
(0.13028676 -0.0036895589 -0.002832153)
(0.40415907 -0.012267702 -0.0097958634)
(0.71133177 -0.023329531 -0.019614681)
(1.010037 -0.03648095 -0.032054389)
(1.2463371 -0.05045654 -0.04479947)
(1.3829536 -0.063492183 -0.054296407)
(1.4224406 -0.074726758 -0.058508927)
(1.3989486 -0.084338285 -0.058243333)
(1.3525482 -0.091486213 -0.055533295)
(0.14035503 -0.0043929006 -0.0029815989)
(0.4329114 -0.014492474 -0.010370949)
(0.75658471 -0.027235421 -0.020962531)
(1.0642529 -0.041902757 -0.03439097)
(1.2983414 -0.056741464 -0.047894127)
(1.4232992 -0.069713704 -0.057565502)
(1.4480417 -0.08013158 -0.061454738)
(1.4115924 -0.088404363 -0.060674789)
(1.3576571 -0.094084745 -0.057524074)
(0.14922068 -0.0050824578 -0.0030460301)
(0.45832161 -0.016681926 -0.010692023)
(0.796729 -0.031069031 -0.021897677)
(1.1126397 -0.047128872 -0.036185771)
(1.3453474 -0.0625279 -0.050357026)
(1.4608179 -0.074934812 -0.060098236)
(1.4735703 -0.084006046 -0.063487073)
(1.4264759 -0.090593779 -0.061978725)
(1.3657908 -0.094695609 -0.05823485)
(0.15713459 -0.0057869966 -0.0029950519)
(0.48105615 -0.018888096 -0.010648243)
(0.83278845 -0.034859542 -0.022209166)
(1.1564501 -0.052099334 -0.037115505)
(1.3885239 -0.067612664 -0.051738483)
(1.4961069 -0.07883066 -0.061319376)
(1.4986618 -0.086005851 -0.063965528)
(1.4424991 -0.090630067 -0.061521471)
(1.3757219 -0.093124572 -0.05704938)
(0.16434921 -0.006453026 -0.0028522056)
(0.50186515 -0.02093058 -0.010274078)
(0.86605099 -0.038284223 -0.021845106)
(1.197427 -0.056333093 -0.036923613)
(1.4296807 -0.071364804 -0.051477834)
(1.5304501 -0.080712688 -0.060386907)
(1.523655 -0.085532176 -0.061958825)
(1.4593232 -0.088053476 -0.058488522)
(1.3870922 -0.089050833 -0.053358946)
(0.17088255 -0.0069142564 -0.0025523425)
(0.52105279 -0.022340624 -0.0094125432)
(0.8973791 -0.040500391 -0.020386806)
(1.237111 -0.058662746 -0.034877733)
(1.470631 -0.072467771 -0.048560337)
(1.5653815 -0.079365697 -0.056138839)
(1.5493001 -0.08172617 -0.056430699)
(1.4772921 -0.082258465 -0.052043933)
(1.400409 -0.081939894 -0.046519786)
(0.17689207 -0.0069805554 -0.0020958361)
(0.53919101 -0.022426165 -0.0079344856)
(0.92797821 -0.040465999 -0.017782025)
(1.2769317 -0.057833503 -0.030784786)
(1.5126397 -0.069228452 -0.042045185)
(1.6017765 -0.073418596 -0.047710116)
(1.5762543 -0.073470883 -0.046560222)
(1.49694 -0.072407183 -0.041557152)
(1.4161434 -0.071083769 -0.036152034)
(0.18226738 -0.0062843164 -0.0014680701)
(0.55586976 -0.020008831 -0.0058083955)
(0.95707696 -0.035785137 -0.013497889)
(1.3164568 -0.05053786 -0.023646468)
(1.5549821 -0.059710917 -0.031777891)
(1.6385594 -0.061314478 -0.034896944)
(1.6040488 -0.059655376 -0.032497997)
(1.5179915 -0.057581189 -0.027165446)
(1.4339931 -0.055615889 -0.022446951)
(0.18679254 -0.0045085321 -0.00080741757)
(0.56986934 -0.014231691 -0.0035369712)
(0.98162175 -0.02524907 -0.0088227712)
(1.3502816 -0.035298702 -0.015740698)
(1.5926034 -0.041192219 -0.020114758)
(1.6714737 -0.041658738 -0.01915346)
(1.6294122 -0.03944006 -0.016212445)
(1.5386833 -0.037176814 -0.010050776)
(1.4524471 -0.035451724 -0.0073389232)
(0.18911159 -0.0016570354 -0.00038846902)
(0.57738287 -0.0052059882 -0.002080597)
(0.99531966 -0.0091914525 -0.0057500927)
(1.3698029 -0.012769312 -0.010476055)
(1.6149987 -0.014790584 -0.012359366)
(1.6922864 -0.014838204 -0.0092359977)
(1.6465212 -0.013813435 -0.0041740067)
(1.5525335 -0.01283722 6.2209192e-05)
(1.4643634 -0.012203695 0.0012960297)
(0.18911158 0.0016570671 -0.00038847269)
(0.57738284 0.0052060615 -0.0020806019)
(0.99531963 0.0091915545 -0.0057500946)
(1.3698028 0.012769417 -0.010476064)
(1.6149986 0.01479074 -0.012359388)
(1.6922863 0.014838477 -0.0092360083)
(1.6465211 0.013813837 -0.0041740191)
(1.5525334 0.012837668 6.2210722e-05)
(1.4643633 0.012204094 0.0012960185)
(0.18679253 0.0045085548 -0.00080742765)
(0.5698693 0.014231753 -0.0035369727)
(0.98162166 0.025249173 -0.0088227668)
(1.3502814 0.035298822 -0.015740707)
(1.5926031 0.041192399 -0.020114807)
(1.6714734 0.041659044 -0.019153483)
(1.6294119 0.039440528 -0.016212532)
(1.538683 0.037177304 -0.010050762)
(1.4524467 0.035452127 -0.0073389372)
(0.18226737 0.0062843184 -0.0014680862)
(0.55586972 0.02000886 -0.0058083981)
(0.95707681 0.035785215 -0.013497886)
(1.3164564 0.050537981 -0.023646454)
(1.5549818 0.059711116 -0.031777927)
(1.638559 0.061314832 -0.034896936)
(1.6040484 0.059655888 -0.032497966)
(1.5179912 0.057581715 -0.027165368)
(1.4339927 0.055616315 -0.022446969)
(0.17689206 0.0069805642 -0.0020958655)
(0.53919096 0.022426207 -0.0079345304)
(0.92797804 0.040466083 -0.017782069)
(1.2769314 0.057833639 -0.030784783)
(1.5126395 0.069228666 -0.04204521)
(1.6017761 0.073418932 -0.047710074)
(1.576254 0.073471365 -0.046560123)
(1.4969397 0.072407669 -0.041556994)
(1.4161429 0.071084181 -0.036151909)
(0.17088256 0.0069142909 -0.0025523596)
(0.52105279 0.022340707 -0.0094125836)
(0.89737908 0.040500509 -0.020386832)
(1.2371109 0.058662916 -0.034877703)
(1.4706309 0.072467967 -0.048560315)
(1.565381 0.07936598 -0.056138767)
(1.5492997 0.081726576 -0.056430564)
(1.4772918 0.08225888 -0.052043742)
(1.4004086 0.081940263 -0.046519626)
(0.16434923 0.0064530536 -0.002852204)
(0.5018652 0.020930633 -0.010274112)
(0.86605105 0.038284299 -0.021845114)
(1.197427 0.056333224 -0.036923556)
(1.4296804 0.071364963 -0.051477789)
(1.5304496 0.080712933 -0.06038685)
(1.5236546 0.085532509 -0.061958703)
(1.4593228 0.088053809 -0.058488354)
(1.3870918 0.089051107 -0.053358775)
(0.15713455 0.0057870129 -0.0029950783)
(0.48105601 0.01888813 -0.010648323)
(0.83278829 0.034859601 -0.022209226)
(1.15645 0.052099452 -0.037115568)
(1.3885235 0.067612817 -0.051738546)
(1.4961067 0.078830891 -0.061319402)
(1.4986615 0.086006131 -0.063965469)
(1.4424987 0.090630301 -0.061521353)
(1.3757214 0.093124714 -0.057049178)
(0.14922068 0.0050824804 -0.0030460472)
(0.45832163 0.016681972 -0.010692103)
(0.79672911 0.031069108 -0.021897805)
(1.1126399 0.047128999 -0.036185926)
(1.3453473 0.062528073 -0.050357151)
(1.4608179 0.074935029 -0.060098337)
(1.4735702 0.084006269 -0.0634871)
(1.4264757 0.09059391 -0.061978686)
(1.3657904 0.094695663 -0.058234685)
(0.14035501 0.0043929107 -0.0029816183)
(0.43291132 0.014492499 -0.010371028)
(0.7565846 0.027235471 -0.020962654)
(1.0642529 0.04190284 -0.034391118)
(1.2983415 0.056741622 -0.047894287)
(1.4232991 0.069713882 -0.057565656)
(1.4480417 0.080131761 -0.061454875)
(1.4115922 0.088404418 -0.060674928)
(1.3576567 0.094084746 -0.057524115)
(0.13028673 0.0036895926 -0.0028321697)
(0.40415896 0.012267788 -0.0097959265)
(0.71133157 0.023329669 -0.019614759)
(1.0100368 0.036481085 -0.032054524)
(1.2463371 0.050456686 -0.044799659)
(1.3829535 0.063492308 -0.054296664)
(1.4224404 0.074726861 -0.058509205)
(1.3989484 0.084338411 -0.058243763)
(1.352548 0.09148627 -0.055533705)
(0.11941213 0.0030694275 -0.0026642009)
(0.37293042 0.010233874 -0.0091348276)
(0.66189785 0.019627926 -0.018101587)
(0.95055543 0.031116332 -0.029435753)
(1.1894686 0.04387159 -0.041262787)
(1.3399524 0.056429659 -0.050410162)
(1.3976654 0.067922027 -0.054800574)
(1.3902056 0.078413923 -0.054929389)
(1.352594 0.086896739 -0.052734135)
(0.10771651 0.0022668797 -0.0022016321)
(0.3393191 0.0077012412 -0.0076377066)
(0.60851467 0.015112935 -0.015253184)
(0.88594045 0.024629375 -0.025080645)
(1.127417 0.035839961 -0.035782256)
(1.2935943 0.047579139 -0.044631466)
(1.3731182 0.058882768 -0.049408274)
(1.3858569 0.069542997 -0.050035896)
(1.3616601 0.079017913 -0.048742588)
(0.087430613 -0.0011152434 -0.0010121357)
(0.2776006 -0.003855521 -0.0034729087)
(0.50307525 -0.0077362635 -0.0067861912)
(0.74199593 -0.012971136 -0.010787656)
(0.95567615 -0.019553789 -0.014786719)
(1.1014484 -0.026919538 -0.017702145)
(1.1579975 -0.033855097 -0.018840739)
(1.1415646 -0.03919429 -0.018553954)
(1.0885733 -0.042112473 -0.017954953)
(0.095554674 -0.0012086625 -0.00097707259)
(0.30121295 -0.0041910754 -0.0033912909)
(0.54118265 -0.00840924 -0.0067190344)
(0.78866525 -0.014044605 -0.010788906)
(0.99937585 -0.020955439 -0.014755855)
(1.1288086 -0.028277974 -0.01736043)
(1.1612552 -0.03459851 -0.017911597)
(1.1226505 -0.038909482 -0.017120391)
(1.0561401 -0.041128086 -0.016158388)
(0.10311608 -0.0012130112 -0.00085847433)
(0.32332854 -0.0042958171 -0.003075068)
(0.57707351 -0.0087446324 -0.0062868139)
(0.83285928 -0.014718342 -0.010352355)
(1.0412116 -0.021898497 -0.014306442)
(1.1563486 -0.029086043 -0.016697129)
(1.1683497 -0.03469033 -0.01680379)
(1.111956 -0.037899623 -0.015533406)
(1.0366179 -0.0391737 -0.014220292)
(0.11003759 -0.0012437034 -0.00077375697)
(0.34356183 -0.0044676164 -0.0028453296)
(0.60992974 -0.0091766999 -0.0059865604)
(0.87345271 -0.015490144 -0.010073046)
(1.0801597 -0.022864335 -0.014008151)
(1.183512 -0.029744982 -0.016154797)
(1.1789736 -0.034448732 -0.01580846)
(1.1087713 -0.036462811 -0.014066251)
(1.0267704 -0.036760534 -0.012462228)
(0.11597314 -0.0012573905 -0.00068813666)
(0.36105669 -0.0045991588 -0.0026123589)
(0.638593 -0.0095605418 -0.0056859963)
(0.9092714 -0.016207612 -0.0098047585)
(1.1152244 -0.02371227 -0.013738727)
(1.2093758 -0.030131636 -0.015656036)
(1.1919571 -0.033775741 -0.014860592)
(1.1112301 -0.034576876 -0.012685749)
(1.0241422 -0.03392976 -0.010815348)
(0.1211002 -0.0012707651 -0.00060028879)
(0.37622156 -0.0047213488 -0.0023615428)
(0.66356262 -0.0099132988 -0.0053414706)
(0.94073333 -0.016843921 -0.0094560957)
(1.1465456 -0.024359267 -0.013356186)
(1.2335398 -0.030134589 -0.015029879)
(1.206116 -0.03259842 -0.013802818)
(1.1174435 -0.032229147 -0.011252418)
(1.0265333 -0.030797854 -0.0091915987)
(0.1255685 -0.0012941609 -0.00052296344)
(0.38944627 -0.0048298171 -0.0021231978)
(0.68541686 -0.010169439 -0.0049622206)
(0.96850517 -0.017245108 -0.0089673854)
(1.174673 -0.024591816 -0.012720046)
(1.2560855 -0.02955826 -0.01408703)
(1.2207476 -0.03079538 -0.012441395)
(1.1260138 -0.029388839 -0.0096041536)
(1.0322421 -0.027380402 -0.0074697279)
(0.1292861 -0.0012784707 -0.00044262165)
(0.400575 -0.0047340287 -0.001803148)
(0.70414192 -0.010031704 -0.0044638308)
(0.99286567 -0.017028699 -0.0082351876)
(1.2001313 -0.023979433 -0.011661988)
(1.2773849 -0.028039316 -0.012628148)
(1.2356182 -0.028155075 -0.010622763)
(1.1360166 -0.025971426 -0.0076487812)
(1.0399709 -0.023646243 -0.0056310266)
(0.13222112 -0.0011263046 -0.00032956453)
(0.40944756 -0.0041965533 -0.0014169481)
(0.71931128 -0.0088632333 -0.0036157027)
(1.0135218 -0.015128443 -0.0069237948)
(1.2228471 -0.021789222 -0.010361602)
(1.2973474 -0.02503636 -0.01077243)
(1.2503128 -0.024345119 -0.008453689)
(1.1465488 -0.021813056 -0.0055891303)
(1.0484736 -0.019530754 -0.0039706074)
(0.13442996 -0.0008395836 -0.00022450176)
(0.41617699 -0.0032512914 -0.0010834002)
(0.73086822 -0.0070379029 -0.0031176686)
(1.029262 -0.012122881 -0.0063354282)
(1.2414019 -0.017125819 -0.0094644574)
(1.3147443 -0.019843977 -0.0093361441)
(1.263705 -0.01898029 -0.0066679545)
(1.1562256 -0.016769709 -0.0042937445)
(1.0560822 -0.015063219 -0.0034472396)
(0.13615411 -0.00051454728 -0.00015865877)
(0.42125853 -0.0020570105 -0.0008778255)
(0.73934842 -0.0045334589 -0.0028342634)
(1.0404625 -0.0078601235 -0.0060816911)
(1.2538227 -0.011017384 -0.0093854265)
(1.3269942 -0.012533778 -0.010330296)
(1.2735304 -0.012119967 -0.0069852741)
(1.1625062 -0.010908289 -0.00616686)
(1.0601978 -0.0098724789 -0.0051814529)
(0.13688251 -0.00017587195 -0.00012894844)
(0.42356265 -0.00071165112 -0.0007826321)
(0.74342742 -0.0015773247 -0.0027093751)
(1.0461012 -0.0027366834 -0.0059879097)
(1.2601353 -0.0038144549 -0.009388776)
(1.3326745 -0.0042869715 -0.010624883)
(1.2775066 -0.004196919 -0.0087693676)
(1.1651655 -0.0038281934 -0.0067330913)
(1.0621273 -0.0034322515 -0.0055761563)
(0.13688251 0.00017587394 -0.00012894062)
(0.42356264 0.00071166465 -0.00078262275)
(0.74342739 0.0015773804 -0.0027093651)
(1.0461012 0.0027368176 -0.0059879108)
(1.2601352 0.003814729 -0.0093887818)
(1.3326744 0.004287361 -0.010624874)
(1.2775065 0.0041973544 -0.0087693448)
(1.1651655 0.0038285663 -0.006733073)
(1.0621272 0.0034324359 -0.0055761349)
(0.1361541 0.00051456286 -0.00015865054)
(0.4212585 0.0020570651 -0.00087781026)
(0.73934835 0.0045335812 -0.0028342422)
(1.0404624 0.0078603323 -0.0060816862)
(1.2538226 0.01101773 -0.0093854399)
(1.3269941 0.012534246 -0.010330268)
(1.2735303 0.012120456 -0.0069851433)
(1.1625061 0.010908682 -0.0061667854)
(1.0601976 0.0098726552 -0.0051813609)
(0.13442994 0.00083960096 -0.00022451978)
(0.41617694 0.0032513668 -0.0010834203)
(0.73086812 0.0070380718 -0.0031176717)
(1.0292618 0.012123157 -0.0063354267)
(1.2414017 0.017126227 -0.0094644909)
(1.314744 0.019844493 -0.0093361242)
(1.2637047 0.018980845 -0.0066678746)
(1.1562253 0.016770119 -0.0042936153)
(1.0560819 0.015063379 -0.0034470075)
(0.1322211 0.0011263277 -0.00032960555)
(0.40944752 0.0041966391 -0.0014170301)
(0.71931118 0.0088634186 -0.00361576)
(1.0135216 0.015128745 -0.0069238177)
(1.2228469 0.02178962 -0.010361646)
(1.2973471 0.025036878 -0.010772408)
(1.2503125 0.02434569 -0.0084536002)
(1.1465484 0.021813492 -0.0055889645)
(1.0484733 0.019530938 -0.0039704145)
(0.12928609 0.0012785121 -0.00044264108)
(0.40057496 0.0047341368 -0.0018032152)
(0.70414183 0.01003191 -0.0044638717)
(0.99286553 0.017029006 -0.0082351847)
(1.200131 0.023979817 -0.011662007)
(1.2773846 0.028039818 -0.012628127)
(1.2356179 0.02815563 -0.010622687)
(1.1360162 0.025971864 -0.0076486229)
(1.0399705 0.023646437 -0.0056308552)
(0.12556849 0.0012941955 -0.00052296487)
(0.38944623 0.0048299031 -0.0021232257)
(0.68541679 0.010169609 -0.0049622211)
(0.96850504 0.01724539 -0.0089673652)
(1.1746728 0.024592207 -0.012720084)
(1.2560851 0.029558781 -0.014087072)
(1.2207473 0.030795943 -0.012441379)
(1.1260134 0.02938927 -0.0096040501)
(1.0322418 0.027380565 -0.0074695557)
(0.12110019 0.001270784 -0.00060029392)
(0.37622151 0.0047214091 -0.0023615715)
(0.66356254 0.0099134356 -0.0053415106)
(0.9407332 0.016844187 -0.0094561853)
(1.1465454 0.024359672 -0.013356351)
(1.2335395 0.030135119 -0.015030021)
(1.2061156 0.032598982 -0.013802886)
(1.1174431 0.03222953 -0.011252367)
(1.0265329 0.030797953 -0.0091913905)
(0.11597312 0.0012574181 -0.00068815102)
(0.36105664 0.0045992368 -0.0026124402)
(0.63859292 0.0095606975 -0.0056861604)
(0.90927128 0.016207887 -0.0098049949)
(1.1152242 0.02371267 -0.013738967)
(1.2093755 0.030132155 -0.015656263)
(1.1919568 0.033776253 -0.014860741)
(1.1112298 0.034577176 -0.012685755)
(1.0241418 0.033929843 -0.010815199)
(0.11003758 0.0012437415 -0.00077379653)
(0.34356178 0.004467723 -0.0028454638)
(0.60992964 0.0091768817 -0.0059867848)
(0.87345257 0.015490425 -0.0100733)
(1.0801595 0.022864724 -0.014008435)
(1.1835117 0.029745471 -0.016155121)
(1.1789733 0.034449202 -0.01580869)
(1.1087709 0.036463081 -0.014066418)
(1.02677 0.036760638 -0.012462326)
(0.10311607 0.0012130539 -0.00085850239)
(0.32332849 0.0042959374 -0.0030751632)
(0.57707342 0.0087448335 -0.0062869758)
(0.83285915 0.014718618 -0.010352595)
(1.0412114 0.021898859 -0.014306783)
(1.1563483 0.029086471 -0.016697542)
(1.1683493 0.034690805 -0.016804189)
(1.1119556 0.037900039 -0.015533871)
(1.0366176 0.039173841 -0.0142206)
(0.095554664 0.0012086988 -0.00097709689)
(0.30121291 0.0041911773 -0.0033913774)
(0.54118256 0.0084094259 -0.0067191997)
(0.78866512 0.01404487 -0.010789193)
(0.99937569 0.020955773 -0.0147563)
(1.1288083 0.028278347 -0.017361059)
(1.1612549 0.034598891 -0.017912324)
(1.1226501 0.03890991 -0.017121013)
(1.0561398 0.041128196 -0.01615864)
(0.087430607 0.0011152839 -0.0010121702)
(0.27760057 0.0038556307 -0.0034730302)
(0.50307517 0.0077364514 -0.0067864277)
(0.7419958 0.012971378 -0.010788046)
(0.95567596 0.019554055 -0.014787274)
(1.1014482 0.026919842 -0.017702827)
(1.1579973 0.033855423 -0.018841511)
(1.1415644 0.039194659 -0.018554517)
(1.0885729 0.042112493 -0.017955122)
(0.09898848 -0.0005336316 -0.00049772247)
(0.31314185 -0.0017757471 -0.0016454838)
(0.5647133 -0.0034522023 -0.0031495933)
(0.82807661 -0.0055717925 -0.0050762879)
(1.0616073 -0.007968941 -0.0074405062)
(1.2231422 -0.010287446 -0.0099981709)
(1.2938684 -0.012111541 -0.01216633)
(1.2909409 -0.013341768 -0.013355511)
(1.2486908 -0.014050748 -0.013601888)
(0.10794737 -0.00072098357 -0.00059316332)
(0.33884152 -0.0023535011 -0.0019304528)
(0.60540779 -0.0044849535 -0.0036327142)
(0.8766696 -0.0070675405 -0.0057715981)
(1.1058962 -0.0098336723 -0.0083549248)
(1.2501993 -0.012292092 -0.011086415)
(1.2968384 -0.013965596 -0.013305119)
(1.2721175 -0.014831124 -0.014402374)
(1.2165945 -0.015115597 -0.01431411)
(0.11607583 -0.00083154165 -0.00059478512)
(0.36221481 -0.0027128106 -0.0019416653)
(0.6424352 -0.0051541207 -0.003661223)
(0.9207971 -0.0080683788 -0.0058566682)
(1.1460362 -0.011095763 -0.0085643449)
(1.2750946 -0.013611977 -0.011456416)
(1.3013652 -0.015086277 -0.013802874)
(1.2593201 -0.015594466 -0.014975023)
(1.1953463 -0.015549653 -0.014906752)
(0.12335049 -0.00091848219 -0.0005720525)
(0.38304235 -0.0029885999 -0.0018709608)
(0.6752933 -0.0056549658 -0.003542108)
(0.95984815 -0.0088015293 -0.0057273692)
(1.1817269 -0.011988976 -0.0084984162)
(1.2981408 -0.014469498 -0.011506177)
(1.3080727 -0.015679099 -0.013977528)
(1.2527787 -0.01582207 -0.015284267)
(1.1825839 -0.015480134 -0.015334467)
(0.12940083 -0.00095952776 -0.00051974143)
(0.40044269 -0.0031286824 -0.0017111792)
(0.70285779 -0.0059240948 -0.0032754598)
(0.99277733 -0.009213469 -0.0054038026)
(1.2121709 -0.012484202 -0.0082092436)
(1.3186527 -0.01486453 -0.011318645)
(1.316013 -0.015777484 -0.013925897)
(1.2508976 -0.015563663 -0.015388683)
(1.1761634 -0.014973536 -0.015596372)
(0.13444268 -0.00096336383 -0.00044405125)
(0.4149208 -0.0031522891 -0.0014784624)
(0.72576088 -0.0059821439 -0.002887919)
(1.0201326 -0.0093169569 -0.0049190484)
(1.2376029 -0.012583611 -0.0077311393)
(1.3363147 -0.01479874 -0.010932263)
(1.3241398 -0.015393185 -0.013679586)
(1.2519488 -0.014861646 -0.015314179)
(1.1740664 -0.014075134 -0.015694425)
(0.13863336 -0.00092871074 -0.00036056587)
(0.42688319 -0.0030512693 -0.0012165442)
(0.74458703 -0.0058109433 -0.0024406642)
(1.0425432 -0.0090798311 -0.0043341065)
(1.2584844 -0.012243807 -0.007110527)
(1.3511319 -0.014233598 -0.010377681)
(1.3317743 -0.014512029 -0.013265784)
(1.254589 -0.013720631 -0.015087322)
(1.174643 -0.012806433 -0.015648939)
(0.14190954 -0.00084130385 -0.00027026421)
(0.43627109 -0.0027827979 -0.00093027942)
(0.75943309 -0.0053365096 -0.0019439326)
(1.0603525 -0.008400001 -0.0036614488)
(1.2753055 -0.011352573 -0.0063602644)
(1.363417 -0.013083849 -0.009672093)
(1.3387006 -0.013095109 -0.012713433)
(1.2579865 -0.012134767 -0.014747513)
(1.1767164 -0.01116563 -0.015506548)
(0.14435889 -0.00069353449 -0.00018048225)
(0.44333695 -0.0023194501 -0.00064271885)
(0.77070478 -0.0044960212 -0.0014347446)
(1.0740621 -0.0071614787 -0.0029522365)
(1.2885396 -0.0097754743 -0.005559382)
(1.3734251 -0.011235483 -0.0088958955)
(1.3447608 -0.011083785 -0.012106826)
(1.2615106 -0.010085925 -0.01438499)
(1.1793683 -0.0091543479 -0.015355717)
(0.14607978 -0.00050229892 -0.00010584807)
(0.44835668 -0.0017080948 -0.00040517355)
(0.77880156 -0.0033612065 -0.0010203934)
(1.084041 -0.0054274309 -0.0023765853)
(1.2983877 -0.0074647832 -0.0048927158)
(1.3811227 -0.0086126548 -0.008251066)
(1.3496646 -0.0084371131 -0.011624547)
(1.2645995 -0.0075767301 -0.014165075)
(1.1818668 -0.0068086936 -0.015325001)
(0.14739229 -0.00030108621 -5.7111323e-05)
(0.45201952 -0.0010381985 -0.00025143152)
(0.78448861 -0.0020671543 -0.00076154248)
(1.0908249 -0.0033692878 -0.0020297474)
(1.3049114 -0.0046521234 -0.0045123604)
(1.3862106 -0.0053635014 -0.0079912292)
(1.3529673 -0.005255589 -0.011482157)
(1.2667287 -0.0047039121 -0.014240341)
(1.1836638 -0.0042012438 -0.015454509)
(0.14784597 -0.00010090465 -3.4949527e-05)
(0.45342726 -0.00035017675 -0.00018125686)
(0.78687934 -0.00070069152 -0.00064490197)
(1.0939025 -0.0011456028 -0.0018786238)
(1.3080346 -0.0015795975 -0.0043553471)
(1.3887007 -0.0018111297 -0.0078934835)
(1.3546036 -0.0017759004 -0.01153821)
(1.267828 -0.0015919838 -0.014305956)
(1.1846078 -0.0014162849 -0.015526632)
(0.14784597 0.00010093031 -3.4948871e-05)
(0.45342726 0.00035023891 -0.00018125432)
(0.78687934 0.00070080394 -0.00064490344)