/*--------------------------------*- C++ -*----------------------------------*\
| =========                 |                                                 |
| \\      /  F ield         | OpenFOAM: The Open Source CFD Toolbox           |
|  \\    /   O peration     | Version:  2406                                  |
|   \\  /    A nd           | Website:  www.openfoam.com                      |
|    \\/     M anipulation  |                                                 |
\*---------------------------------------------------------------------------*/
FoamFile
{
    version     2.0;
    format      ascii;
    arch        "LSB;label=32;scalar=64";
    class       surfaceScalarField;
    location    "17.5";
    object      phi;
}
// * * * * * * * * * * * * * * * * * * * * * * * * * * * * * * * * * * * * * //

dimensions      [0 3 -1 0 0 0 0];

oriented        oriented;

internalField   nonuniform List<scalar> 
101088
(
-8.7128752e-05
1.1807649e-05
1.8425902e-06
-8.8043465e-06
-0.00021948892
6.1234962e-05
2.8018183e-06
-4.682283e-05
-0.00040768387
0.0001737896
-6.8322677e-06
-0.00013537392
-0.00064564032
0.00038004325
-4.4224545e-05
-0.00030248026
-0.00089133342
0.00066746956
-0.00012786877
-0.00054699081
-0.0010768971
0.00095641062
-0.00025264992
-0.00080974414
-0.0011620602
0.0011586783
-0.00037428126
-0.0010073406
-0.0011691468
0.0012419184
-0.00043740376
-0.0010931502
0.001204734
-0.0004191113
-0.0010726401
-0.0011395861
-0.00010543553
1.3590112e-05
2.7162322e-06
-0.00026200224
7.2078168e-05
4.6596455e-06
-0.00047842299
0.00020596995
-7.3715732e-06
-0.00073982446
0.00044736729
-5.6064901e-05
-0.00098832311
0.00076998195
-0.00016356151
-0.0011472461
0.0010770462
-0.00031939991
-0.0011866855
0.0012844137
-0.00046697865
-0.0011440393
0.0013716595
-0.00054233188
0.0013381032
-0.00052387386
-0.0010816445
-0.00012452526
1.4355232e-05
3.9964784e-06
-0.00030603032
7.8331856e-05
8.1546531e-06
-0.0005496149
0.00022746026
-4.4367707e-06
-0.00083055591
0.00049545754
-6.2289811e-05
-0.0010782936
0.00084392328
-0.00019088192
-0.001211783
0.0011624383
-0.00037317899
-0.0012121203
0.001376484
-0.00054095053
-0.0011306528
0.0014762009
-0.00062471879
0.0014578749
-0.00060561524
-0.0010371543
-0.00014339009
1.4015552e-05
5.5908373e-06
-0.00034974554
7.925889e-05
1.3028595e-05
-0.0006194486
0.0002351846
1.7051744e-06
-0.00091675397
0.00051725032
-6.2763998e-05
-0.0011597196
0.00087874847
-0.00020883019
-0.0012702506
0.0012050363
-0.00041284726
-0.0012416444
0.0014317431
-0.00059620219
-0.001134876
0.0015544137
-0.00068592087
0.0015577889
-0.0006659343
-0.0010183381
-0.00016092486
1.1811716e-05
7.5562086e-06
-0.00038951668
7.202658e-05
1.9497323e-05
-0.00068185245
0.00022369379
1.1798035e-05
-0.0009929384
0.00050598825
-5.6250414e-05
-0.001233205
0.00086965254
-0.0002160439
-0.0013297558
0.0012038515
-0.00043753232
-0.0012855497
0.0014514967
-0.00063328837
-0.0011654751
0.0016051191
-0.00072704443
0.0016330205
-0.00070539008
-0.0010347923
-0.00017776489
7.8949007e-06
9.9489862e-06
-0.0004288037
5.6905215e-05
2.7720631e-05
-0.00074591792
0.00019301603
2.6538658e-05
-0.0010755111
0.00046148454
-4.1396999e-05
-0.0013225227
0.00081858462
-0.00021128527
-0.0014162189
0.0011599882
-0.00044662813
-0.0013670722
0.0014335799
-0.00065105335
-0.0012398321
0.0016199678
-0.00074662517
0.0016725951
-0.00072354674
-0.0010982589
-0.00019323733
2.2779474e-06
1.2760584e-05
-0.00046698757
3.4283587e-05
3.8329004e-05
-0.00081166697
0.00014394695
4.6679862e-05
-0.001167125
0.00038506686
-1.6045329e-05
-0.0014321737
0.00072671155
-0.00019082567
-0.0015376283
0.0010742893
-0.00043537208
-0.0014957386
0.0013739479
-0.00064530406
-0.0013692636
0.0015899057
-0.00074175073
0.0016631615
-0.00071828705
-0.0012197423
-0.00020796905
-4.2661979e-06
1.6086483e-05
-0.00050743254
7.0665079e-06
5.1836363e-05
-0.00088790933
8.2529202e-05
7.2761405e-05
-0.0012853234
0.00028482753
2.212889e-05
-0.0015881512
0.00060065814
-0.00015135516
-0.0017228297
0.00094677466
-0.00039990731
-0.0016988013
0.0012628289
-0.00061193847
-0.0015757894
0.0014963097
-0.00070834756
0.0015816225
-0.00068607335
-0.0014155
-0.00022268141
-1.0009491e-05
1.989036e-05
-0.00055353766
-1.8356967e-05
6.7685552e-05
-0.0009872378
2.1640046e-05
0.00010743911
-0.0014508644
0.00017704536
7.3415749e-05
-0.0018171635
0.0004517778
-9.1381574e-05
-0.0019992389
0.00077545317
-0.00033735413
-0.0019998662
0.0010825633
-0.00054689295
-0.0018769977
0.0013099102
-0.00064200067
0.0013946773
-0.00062317355
-0.0016970263
-0.00023799883
-1.2176517e-05
2.3909192e-05
-0.00060872972
-3.1625691e-05
8.4912781e-05
-0.0011156231
-1.8734773e-05
0.00014639312
-0.0016719439
8.5797291e-05
0.00013250348
-0.0021268682
0.00029532023
-1.5112378e-05
-0.0023701661
0.00055735988
-0.00025094812
-0.0023966324
0.00081199158
-0.00045227803
-0.002265583
0.00099779544
-0.00054422723
0.0010672298
-0.00053118214
-0.0020539093
-0.00025271114
-8.3935985e-06
2.7487522e-05
-0.00066680962
-2.416675e-05
0.00010051575
-0.0012540809
-2.3228628e-05
0.00018169842
-0.0019135574
2.9239578e-05
0.00018955862
-0.0024643861
0.00014398926
6.2377045e-05
-0.002769938
0.00029373898
-0.00015750862
-0.0028175649
0.00044223228
-0.00034616783
-0.0026714136
0.00054708064
-0.00043372414
0.00058678532
-0.00042727989
-0.0024216307
-0.00026212482
-1.7004475e-10
2.9671478e-05
-0.00070613866
-7.8530853e-10
0.00011017066
-0.001348063
-1.8978924e-09
0.00020399173
-0.0020807875
-3.2860873e-09
0.00022973772
-0.002697504
-4.2930867e-09
0.00011423415
-0.0030450617
-4.6872932e-09
-9.2592398e-05
-0.0031025161
-4.6119001e-09
-0.00027100771
-0.0029447795
-3.753004e-09
-0.00035544398
-2.6464335e-09
-0.00035365452
-0.0026677602
-0.00026212483
8.3933115e-06
2.9671469e-05
-0.00070613808
2.4165294e-05
0.00011017063
-0.0013480625
2.3224962e-05
0.00020399163
-0.0020807872
-2.9246193e-05
0.00022973755
-0.002697504
-0.00014399807
0.00011423396
-0.003045062
-0.00029374843
-9.259254e-05
-0.0031025165
-0.00044224142
-0.00027100777
-0.00294478
-0.00054708805
-0.00035544401
-0.00058679032
-0.00035365452
-0.0026677609
-0.00025271143
1.2176177e-05
2.7487506e-05
-0.00066680913
3.1624086e-05
0.00010051568
-0.0012540809
1.8730966e-05
0.00018169823
-0.0019135576
-8.5803938e-05
0.00018955829
-0.0024643871
-0.00029532907
6.2376639e-05
-0.0027699395
-0.00055736924
-0.00015750898
-0.0028175667
-0.00081200037
-0.00034616804
-0.0026714151
-0.00099780289
-0.00043372422
-0.001067235
-0.00042727991
-0.0024216321
-0.000237999
1.0008992e-05
2.3909166e-05
-0.00060872951
1.8355062e-05
8.4912674e-05
-0.0011156237
-2.1643759e-05
0.00014639288
-0.0016719439
-0.00017705106
0.00013250311
-0.0021268691
-0.00045178536
-1.5112855e-05
-0.0023701681
-0.00077546134
-0.00025094854
-0.0023966348
-0.0010825712
-0.0004522783
-0.0022655846
-0.0013099177
-0.00054422736
-0.0013946839
-0.00053118221
-0.0020539106
-0.00022268101
4.2658384e-06
1.9890339e-05
-0.00055353752
-7.0679174e-06
6.768546e-05
-0.00098723935
-8.2532069e-05
0.00010743889
-0.0014508653
-0.00028483222
7.3415384e-05
-0.0018171654
-0.00060066454
-9.1382033e-05
-0.0019992415
-0.00094678142
-0.00033735458
-0.0019998694
-0.0012628356
-0.00054689331
-0.0018769997
-0.0014963172
-0.00064200086
-0.0015816308
-0.00062317367
-0.0016970275
-0.00020796858
-2.2782232e-06
1.6086467e-05
-0.00050743279
-3.4284646e-05
5.1836286e-05
-0.00088791181
-0.00014394955
7.2761213e-05
-0.001285326
-0.0003850716
2.2128567e-05
-0.0015881542
-0.00072671702
-0.00015135557
-0.0017228326
-0.0010742945
-0.00039990774
-0.0016988054
-0.0013739535
-0.00061193881
-0.0015757927
-0.0015899129
-0.00070834778
-0.0016631705
-0.00068607354
-0.0014155022
-0.00019323707
-7.8949049e-06
1.2760573e-05
-0.00046698759
-5.6905477e-05
3.8328947e-05
-0.00081166931
-0.00019301759
4.667972e-05
-0.0011671279
-0.00046148783
-1.6045591e-05
-0.001432177
-0.00081858815
-0.00019082603
-0.0015376314
-0.0011599917
-0.00043537245
-0.0014957434
-0.0014335845
-0.00064530433
-0.0013692678
-0.0016199741
-0.00074175096
-0.0016726033
-0.0007182873
-0.0012197458
-0.00017776477
-1.1811945e-05
9.948978e-06
-0.00042880356
-7.2027195e-05
2.772059e-05
-0.00074591912
-0.00022369499
2.6538549e-05
-0.0010755128
-0.00050599009
-4.139722e-05
-0.0013225263
-0.00086965571
-0.0002112856
-0.0014162228
-0.0012038544
-0.00044662848
-0.0013670769
-0.0014515002
-0.00065105365
-0.0012398358
-0.0016051238
-0.00074662548
-0.0016330276
-0.00072354694
-0.0010982628
-0.00016092478
-1.4015584e-05
7.5561988e-06
-0.00038951614
-7.9259107e-05
1.9497279e-05
-0.00068185269
-0.00023518531
1.1797924e-05
-0.00099294101
-0.00051725239
-5.6250613e-05
-0.0012332085
-0.00087875215
-0.00021604417
-0.0013297584
-0.001205039
-0.0004375326
-0.0012855526
-0.0014317457
-0.00063328863
-0.0011654773
-0.001554417
-0.00072704468
-0.0015577945
-0.0007053901
-0.0010347959
-0.0001433901
-1.4355396e-05
5.5908266e-06
-0.00034974541
-7.8332347e-05
1.3028552e-05
-0.00061944895
-0.00022746099
1.7050786e-06
-0.00091675562
-0.00049545865
-6.2764172e-05
-0.0011597205
-0.00084392413
-0.00020883046
-0.0012702512
-0.0011624393
-0.00041284758
-0.0012416448
-0.0013764844
-0.00059620243
-0.0011348776
-0.0014762032
-0.00068592099
-0.0014578804
-0.00066593419
-0.0010183417
-0.00012452522
-1.3590193e-05
3.9964678e-06
-0.00030602987
-7.2078359e-05
8.1546107e-06
-0.00054961384
-0.0002059703
-4.4368654e-06
-0.00083055533
-0.00044736805
-6.2289979e-05
-0.0010782938
-0.00076998291
-0.00019088216
-0.0012117832
-0.0010770463
-0.00037317927
-0.0012121222
-0.0012844124
-0.00054095076
-0.0011306566
-0.0013716585
-0.0006247189
-0.0013381075
-0.00060561526
-0.0010371579
-0.00010543539
-1.1807657e-05
2.7162237e-06
-0.0002620016
-6.1234972e-05
4.6596095e-06
-0.00047842189
-0.00017378964
-7.3716597e-06
-0.00073982414
-0.00038004348
-5.6065066e-05
-0.0009883239
-0.00066747008
-0.00016356177
-0.0011472457
-0.00095640985
-0.00031940024
-0.0011866838
-0.0011586767
-0.00046697895
-0.0011440387
-0.0012419192
-0.00054233197
-0.0012047359
-0.00052387389
-0.0010816449
-8.7128741e-05
1.8425827e-06
-8.8043038e-06
-0.00021948882
2.8017868e-06
-4.6822666e-05
-0.00040768382
-6.8323437e-06
-0.00013537357
-0.00064564022
-4.4224688e-05
-0.00030247966
-0.0008913327
-0.00012786899
-0.00054699004
-0.0010768972
-0.00025265019
-0.00080974348
-0.0011620608
-0.00037428143
-0.0010073415
-0.001169145
-0.00043740383
-0.0010931533
-0.00041911131
-0.0010726449
-0.0011395849
1.4787592e-06
1.9132667e-07
1.5697711e-06
-1.3972634e-06
6.3119526e-06
-6.9430736e-07
3.5204729e-06
-4.8576205e-06
1.5500297e-05
-6.4863397e-06
-1.5957557e-06
-7.9387432e-06
2.9117121e-05
-2.6246827e-05
-2.7692611e-05
-3.9022022e-06
4.588362e-05
-7.3415391e-05
-9.0404774e-05
1.9184859e-05
6.553838e-05
-0.00015356304
-0.0001897363
7.099498e-05
9.0747891e-05
-0.00024948872
-0.00029313439
0.00014313232
0.00012215773
-0.00032862707
-0.00035173552
0.00021154905
-0.00036789676
-0.00034106182
0.0002565657
0.00015543999
2.4020171e-06
-1.5352712e-06
2.040776e-06
1.0613574e-05
-8.7235999e-06
4.4772683e-06
2.6296623e-05
-2.7062043e-05
-2.4790374e-06
4.8246258e-05
-6.7701388e-05
-3.6559636e-05
7.1061842e-05
-0.00014314382
-0.00011664769
9.1322989e-05
-0.00025224121
-0.00024098278
0.00011161269
-0.0003684577
-0.00036830014
0.00013606847
-0.00045503661
-0.00044037714
-0.000490171
-0.00043103444
0.00016550396
3.6822063e-06
-3.8792227e-06
2.6581564e-06
1.635705e-05
-1.9322706e-05
6.0786137e-06
4.0103057e-05
-5.3462105e-05
-1.7830966e-06
7.1235888e-05
-0.00011890566
-4.2218212e-05
9.916773e-05
-0.00022501649
-0.00013694065
0.00011744831
-0.00036164413
-0.00028205663
0.00013018131
-0.00049393724
-0.00042820329
0.00014515955
-0.00058461395
-0.00051012027
-0.00061464892
-0.00050154536
0.00016556858
5.2184993e-06
-6.7942953e-06
3.2874181e-06
2.3318807e-05
-3.2189265e-05
7.7948441e-06
5.6762115e-05
-8.4594531e-05
-6.0520432e-07
9.8396013e-05
-0.00017693714
-4.6365145e-05
0.0001314532
-0.00031342743
-0.00015347699
0.00014677336
-0.00047420114
-0.0003156104
0.00015102178
-0.00061831045
-0.00047607787
0.00015532829
-0.00071035876
-0.00056448247
-0.00073413337
-0.00055578834
0.00016466726
6.8749259e-06
-1.0032745e-05
3.9195894e-06
3.084149e-05
-4.6259123e-05
9.6000944e-06
7.4929052e-05
-0.00011789847
1.0141893e-06
0.0001278468
-0.0002369894
-4.9114996e-05
0.00016615757
-0.00040110144
-0.00016667989
0.0001785128
-0.0005812639
-0.00034282487
0.00017455949
-0.00073340729
-0.00051423795
0.00016862812
-0.00082483125
-0.00060664119
-0.0008410784
-0.00059693803
0.00016712106
8.7956361e-06
-1.3417502e-05
4.538127e-06
3.9362999e-05
-6.0539087e-05
1.1433504e-05
9.5669485e-05
-0.00015061762
2.9521847e-06
0.00016154123
-0.00029354956
-5.0708855e-05
0.00020589944
-0.00047964471
-0.00017709945
0.00021556604
-0.00067264573
-0.0003649129
0.00020407382
-0.00082812866
-0.00054483936
0.00018864206
-0.00091655504
-0.00063947002
-0.00092435426
-0.00062799972
0.00017637088
1.0643584e-05
-1.6419497e-05
5.1187513e-06
4.7948315e-05
-7.2738703e-05
1.3223837e-05
0.00011626319
-0.00017737375
5.1222193e-06
0.00019512514
-0.00033725891
-5.1197966e-05
0.00024555064
-0.0005360807
-0.00018481587
0.00025331853
-0.00073354751
-0.00038223927
0.00023611844
-0.00088737948
-0.00056885301
0.00021324682
-0.00097074155
-0.00066469285
-0.00097006462
-0.00065115384
0.00019182383
1.2266217e-05
-1.8300378e-05
5.7008324e-06
5.600299e-05
-7.977046e-05
1.5131506e-05
0.00013477477
-0.00019122635
7.843377e-06
0.00022612315
-0.00035633677
-5.0141278e-05
0.00028281989
-0.00055464373
-0.00018948869
0.00029000212
-0.00074571679
-0.00039492091
0.00026940817
-0.00089159997
-0.00058712417
0.00024159529
-0.00096749252
-0.00068378425
-0.00095932481
-0.00066818184
0.00021296369
1.3377976e-05
-1.8085487e-05
6.2972434e-06
6.1852516e-05
-7.7766954e-05
1.7207317e-05
0.00015045402
-0.00018362155
1.1233095e-05
0.00025218506
-0.00033717733
-4.747554e-05
0.00031454617
-0.00051730076
-0.00019108564
0.00032232049
-0.00068778534
-0.00040306003
0.00030073043
-0.00081688737
-0.00060001562
0.00027052967
-0.0008818124
-0.00069748063
-0.00086865758
-0.00068022365
0.00023691249
1.3907241e-05
-1.4970406e-05
6.8870844e-06
6.5299789e-05
-6.3617489e-05
1.9370729e-05
0.00016128805
-0.00014834517
1.5128596e-05
0.00026960942
-0.00026939723
-4.3598754e-05
0.00033669808
-0.00040927153
-0.00019023048
0.00034636251
-0.00054109179
-0.00040730599
0.00032612895
-0.0006408386
-0.00060809319
0.00029592915
-0.00068953332
-0.00070630676
-0.00067581128
-0.00068781955
0.00025972055
1.3849243e-05
-8.7072642e-06
7.3753268e-06
6.6115169e-05
-3.6597469e-05
2.1229534e-05
0.00016528915
-8.4511627e-05
1.8690828e-05
0.0002771513
-0.00015208085
-3.9619834e-05
0.00034737411
-0.00022897639
-0.0001881407
0.00035937174
-0.00030199327
-0.00040860444
0.00034177207
-0.00035745808
-0.00061194847
0.00031306379
-0.00038388347
-0.0007106655
-0.00037497406
-0.00069141606
0.00027636318
1.3264152e-05
3.7989737e-11
7.7000745e-06
6.4334717e-05
1.892898e-10
2.2502246e-05
0.00016256406
4.892282e-10
2.1250134e-05
0.00027661085
1.050886e-09
-3.6390559e-05
0.00034800111
1.82198e-09
-0.00018613403
0.00036198505
2.3300223e-09
-0.00040857169
0.00034695564
2.3411424e-09
-0.00061343856
0.00032016053
2.0925388e-09
-0.00071253403
1.865904e-09
-0.00069291439
0.0002844449
1.3264139e-05
8.7073528e-06
7.7000726e-06
6.4334942e-05
3.6597857e-05
2.2502239e-05
0.00016256423
8.4512562e-05
2.1250123e-05
0.00027661079
0.00015208272
-3.6390567e-05
0.00034800085
0.00022897956
-0.00018613402
0.00036198475
0.00030199741
-0.00040857166
0.00034695546
0.00035746243
-0.00061343852
0.00032016051
0.00038388748
-0.00071253401
0.0003749778
-0.00069291441
0.00028444494
1.3849128e-05
1.4970464e-05
7.3753239e-06
6.6115427e-05
6.3617748e-05
2.1229524e-05
0.00016528917
0.00014834585
1.8690806e-05
0.0002771511
0.00026939863
-3.9619865e-05
0.00034737355
0.00040927392
-0.00018814073
0.00035937102
0.00054109513
-0.00040860447
0.00034177159
0.00064084245
-0.00061194848
0.00031306378
0.00068953696
-0.00071066554
0.0006758147
-0.00069141614
0.00027636341
1.3907092e-05
1.8085432e-05
6.887079e-06
6.5299733e-05
7.7766899e-05
1.937071e-05
0.00016128748
0.00018362184
1.5128565e-05
0.00026960919
0.00033717841
-4.3598777e-05
0.00033669761
0.00051730276
-0.00019023048
0.0003463618
0.00068778831
-0.00040730596
0.00032612838
0.00081689101
-0.00060809315
0.00029592919
0.00088181558
-0.00070630676
0.00086865993
-0.00068781962
0.00025972105
1.3378106e-05
1.8300327e-05
6.2972385e-06
6.1852564e-05
7.9770429e-05
1.7207298e-05
0.00015045325
0.0001912267
1.1233061e-05
0.00025218475
0.00035633788
-4.7475572e-05
0.00031454565
0.00055464568
-0.00019108566
0.00032231987
0.00074571981
-0.00040306003
0.00030072973
0.00089160357
-0.00060001563
0.00027052947
0.00096749524
-0.00069748064
0.000959326
-0.0006802237
0.00023691276
1.2266424e-05
1.6419468e-05
5.700828e-06
5.6002942e-05
7.2738728e-05
1.5131486e-05
0.00013477364
0.00017737398
7.8433375e-06
0.00022612216
0.00033725958
-5.0141326e-05
0.00028281894
0.00053608244
-0.00018948874
0.00029000149
0.00073355067
-0.00039492095
0.00026940724
0.00088738303
-0.00058712419
0.00024159468
0.0009707441
-0.00068378426
0.00097006558
-0.00066818186
0.00021296344
1.0643762e-05
1.3417546e-05
5.1187477e-06
4.7948459e-05
6.0539337e-05
1.322382e-05
0.00011626222
0.00015061799
5.1221794e-06
0.0001951241
0.00029355029
-5.1198027e-05
0.00024554967
0.00047964675
-0.00018481594
0.0002533179
0.00067264923
-0.00038223935
0.00023611732
0.00082813231
-0.00056885305
0.000213246
0.00091655788
-0.00066469287
0.00092435563
-0.00065115387
0.00019182333
8.7957253e-06
1.0032719e-05
4.5381234e-06
3.9363073e-05
4.6259225e-05
1.1433486e-05
9.5668845e-05
0.00011789872
2.9521379e-06
0.00016154064
0.00023699024
-5.0708943e-05
0.00020589828
0.00040110316
-0.00017709958
0.00021556512
0.00058126723
-0.00036491303
0.00020407281
0.00073341117
-0.00054483947
0.00018864167
0.00082483461
-0.00063947012
0.00084107972
-0.00062799975
0.00017637085
6.8750181e-06
6.794302e-06
3.9195837e-06
3.0841911e-05
3.2189426e-05
9.6000709e-06
7.4929246e-05
8.4594918e-05
1.0141367e-06
0.00012784595
0.00017693778
-4.9115088e-05
0.0001661563
0.00031342871
-0.00016668
0.00017851208
0.00047420428
-0.00034282497
0.00017455903
0.00061831446
-0.00051423804
0.00016862851
0.00071036223
-0.00060664128
0.00073413428
-0.00059693803
0.00016712157
5.2185054e-06
3.8791722e-06
3.2874117e-06
2.3318925e-05
1.9322687e-05
7.7948183e-06
5.6761998e-05
5.3462267e-05
-6.0526011e-07
9.8395024e-05
0.00011890615
-4.6365239e-05
0.00013145272
0.00022501824
-0.00015347711
0.00014677323
0.00036164743
-0.00031561052
0.00015102223
0.00049394159
-0.00047607798
0.000155329
0.00058461695
-0.00056448254
0.00061464855
-0.00055578833
0.00016466821
3.682191e-06
1.5352522e-06
2.65815e-06
1.6357209e-05
8.72368e-06
6.0785881e-06
4.0103525e-05
2.7062386e-05
-1.783151e-06
7.1236005e-05
6.7702174e-05
-4.2218304e-05
9.916746e-05
0.00014314569
-0.00013694078
0.00011744808
0.00025224498
-0.00028205678
0.00013018056
0.00036846227
-0.00042820341
0.00014515898
0.00045504043
-0.00051012035
0.00049016986
-0.00050154543
0.00016556934
2.4020525e-06
-1.9130927e-07
2.0407709e-06
1.061382e-05
6.9444984e-07
4.4772462e-06
2.6297109e-05
6.4867496e-06
-2.4790892e-06
4.8246253e-05
2.6247669e-05
-3.6559733e-05
7.1061068e-05
7.3417216e-05
-0.00011664785
9.1322449e-05
0.00015356708
-0.00024098297
0.00011161293
0.00024949315
-0.00036830034
0.00013606874
0.00032862961
-0.00044037728
0.00036789581
-0.00043103454
0.00016550462
1.4787612e-06
1.5697676e-06
-1.397204e-06
6.3120394e-06
3.5204574e-06
-4.8573598e-06
1.550042e-05
-1.5957939e-06
-7.9380878e-06
2.9117185e-05
-2.7692684e-05
-3.9008587e-06
4.5884089e-05
-9.0404889e-05
1.9187363e-05
6.5538553e-05
-0.00018973645
7.0998673e-05
9.0747967e-05
-0.00029313453
0.00014313556
0.00012215839
-0.00035173563
0.00021155096
-0.0003410619
0.00025656387
0.0001554399
-1.3736962e-08
-3.2694081e-07
1.5524023e-06
3.5804668e-07
2.0505099e-07
-1.1394969e-06
3.1154417e-06
1.3257124e-06
4.8115859e-07
-2.0456095e-06
-2.465755e-06
2.6394246e-06
-5.0174302e-07
-2.4179765e-06
-2.8216656e-05
3.9248333e-06
-4.1687114e-06
-1.2785132e-06
-8.996614e-05
4.5068243e-06
-1.0287718e-05
2.1388783e-06
-0.00018937605
3.6199291e-06
-1.6398663e-05
7.2274927e-06
-0.00029532976
1.0787629e-06
-1.9651092e-05
1.1558463e-05
-0.00035818492
-1.8566608e-06
1.1720067e-05
-0.00035046055
-3.6591189e-06
-1.8313212e-05
-9.2243048e-09
-3.4909571e-07
2.072137e-06
2.967778e-07
-1.142031e-06
4.1737296e-06
6.6340638e-07
-1.8138174e-06
-3.0775831e-06
-5.7077954e-07
-1.4292593e-06
-3.6314233e-05
-5.0219476e-06
1.3610928e-06
-0.00011483607
-1.2175812e-05
7.3008565e-06
-0.00023899105
-1.9047903e-05
1.4907901e-05
-0.00036910879
-2.2381392e-05
2.0577613e-05
-0.00044606272
2.0601109e-05
-0.00044084406
-2.14529e-05
1.322811e-08
-4.3126462e-07
2.7270777e-06
5.18703e-07
-1.3990989e-06
5.8301315e-06
1.2749141e-06
-2.156457e-06
-2.1967504e-06
3.12215e-07
-1.3661229e-06
-4.1318586e-05
-4.2636685e-06
2.8781809e-06
-0.00013388178
-1.1897356e-05
1.1360336e-05
-0.00027848246
-1.9371373e-05
2.1623788e-05
-0.00042744501
-2.3380747e-05
2.9010518e-05
-0.000514544
2.9831494e-05
-0.00051090244
-2.3253945e-05
4.3525603e-08
-5.6444981e-07
3.3770621e-06
7.9200999e-07
-1.886921e-06
7.5341156e-06
2.0642333e-06
-3.0526097e-06
-9.8126212e-07
1.6635481e-06
-2.2694087e-06
-4.5060949e-05
-2.5881364e-06
3.1116907e-06
-0.00014945901
-1.0272313e-05
1.4028216e-05
-0.0003105941
-1.8223407e-05
2.706697e-05
-0.00047357014
-2.3051308e-05
3.6478517e-05
-0.00056712258
3.8422374e-05
-0.00056383825
-2.3592219e-05
8.7861407e-08
-7.3784857e-07
4.0050993e-06
1.1350558e-06
-2.5652375e-06
9.2311071e-06
3.0524545e-06
-4.4235248e-06
4.6764353e-07
3.4441579e-06
-4.0409166e-06
-4.7735032e-05
-1.6730153e-07
2.0658225e-06
-0.0001620224
-7.6507947e-06
1.5106728e-05
-0.00033641993
-1.6044946e-05
3.0789323e-05
-0.00050956616
-2.1719112e-05
4.215665e-05
-0.00060664536
4.5264279e-05
-0.00060257277
-2.2926304e-05
1.4891768e-07
-9.3259118e-07
4.5839468e-06
1.5477713e-06
-3.3499409e-06
1.0819411e-05
4.2124506e-06
-6.0769335e-06
1.941122e-06
5.5612316e-06
-6.4019587e-06
-4.9696693e-05
2.7587488e-06
-3.8195796e-08
-0.00017219276
-4.4845339e-06
1.4563321e-05
-0.00035712625
-1.3301837e-05
3.2215357e-05
-0.00053744806
-1.9847608e-05
4.509544e-05
-0.00063586321
4.9220812e-05
-0.00063000617
-2.1797694e-05
2.1902704e-07
-1.1098539e-06
5.0769302e-06
1.9980244e-06
-4.0866834e-06
1.2181556e-05
5.4814408e-06
-7.6909863e-06
3.2531298e-06
7.9204441e-06
-8.8942991e-06
-5.1144615e-05
6.0298568e-06
-2.7807125e-06
-0.00018018296
-8.588066e-07
1.2377809e-05
-0.00037316551
-1.0132929e-05
3.0923574e-05
-0.00055828717
-1.7735045e-05
4.4591051e-05
-0.00065658647
4.9387016e-05
-0.00064844787
-2.0607249e-05
2.9740059e-07
-1.2188816e-06
5.5123984e-06
2.4836876e-06
-4.5701088e-06
1.3428688e-05
6.838024e-06
-8.8292238e-06
4.62755e-06
1.0461574e-05
-1.087185e-05
-5.178718e-05
9.5943745e-06
-5.5690469e-06
-0.00018583315
2.9864465e-06
8.9426511e-06
-0.00038487815
-6.9493302e-06
2.6960503e-05
-0.00057322545
-1.5750393e-05
4.0345539e-05
-0.00067073786
4.5332152e-05
-0.0006602509
-1.9626517e-05
3.8251026e-07
-1.1996367e-06
5.8954171e-06
2.995802e-06
-4.5571403e-06
1.4581032e-05
8.2762021e-06
-8.9731751e-06
6.096743e-06
1.3081991e-05
-1.1533004e-05
-5.1620397e-05
1.3127411e-05
-7.4112728e-06
-0.00018928887
6.6444172e-06
5.1194769e-06
-0.000392754
-4.0272242e-06
2.0878224e-05
-0.0005832618
-1.4019157e-05
3.2680355e-05
-0.0006798237
3.7217037e-05
-0.00066724362
-1.8884071e-05
4.7113087e-07
-9.9403895e-07
6.2103884e-06
3.5254955e-06
-3.807068e-06
1.5566305e-05
9.7933369e-06
-7.5942843e-06
7.4819637e-06
1.5711342e-05
-1.0065258e-05
-5.0984705e-05
1.6472179e-05
-7.2999126e-06
-0.00019110274
9.9324562e-06
1.9491196e-06
-0.00039759592
-1.5566757e-06
1.3740367e-05
-0.0005894662
-1.2618718e-05
2.2579027e-05
-0.00068514345
2.6038718e-05
-0.00067090439
-1.8355476e-05
5.4885281e-07
-5.7773113e-07
6.4102109e-06
3.9955543e-06
-2.2181474e-06
1.6193863e-05
1.1171299e-05
-4.4570931e-06
8.3779557e-06
1.8018682e-05
-6.0163251e-06
-5.0516094e-05
1.926308e-05
-4.6151502e-06
-0.00019206975
1.2497958e-05
3.8449068e-07
-0.00040027459
3.0784224e-07
6.7350415e-06
-0.00059275295
-1.1573051e-05
1.1474536e-05
-0.00068768005
1.3324146e-05
-0.0006723041
-1.7970316e-05
5.8538402e-07
-1.8396314e-11
6.5370002e-06
4.2525711e-06
-4.6353701e-11
1.6616924e-05
1.1988065e-05
-5.7081881e-11
9.0576487e-06
1.9513481e-05
1.7471012e-11
-4.9932152e-05
2.0916783e-05
2.4599653e-10
-0.00019215255
1.3974058e-05
5.0409189e-10
-0.00040124487
1.3667441e-06
6.3276769e-10
-0.00059409676
-1.0979636e-05
6.1699571e-10
-0.00068871359
5.8032519e-10
-0.00067280899
-1.7761331e-05
5.8538241e-07
5.776934e-07
6.5369989e-06
4.252642e-06
2.2180551e-06
1.661692e-05
1.1988144e-05
4.4569759e-06
9.0576444e-06
1.951352e-05
6.0163308e-06
-4.9932151e-05
2.0916778e-05
4.6155709e-06
-0.00019215253
1.3974017e-05
-3.8353971e-07
-0.00040124484
1.3666914e-06
-6.733771e-06
-0.00059409672
-1.0979691e-05
-1.1473266e-05
-0.00068871356
-1.3322965e-05
-0.00067280898
-1.776138e-05
5.4882573e-07
9.9399588e-07
6.4102096e-06
3.9956161e-06
3.8069651e-06
1.6193857e-05
1.1171297e-05
7.5941489e-06
8.3779454e-06
1.8018632e-05
1.006522e-05
-5.0516108e-05
1.9262931e-05
7.3002577e-06
-0.00019206977
1.2497716e-05
-1.9482112e-06
-0.00040027461
3.0758005e-07
-1.3739033e-05
-0.00059275296
-1.157325e-05
-2.2577716e-05
-0.00068768007
-2.6037573e-05
-0.00067230412
-1.7970471e-05
4.7111467e-07
1.1995678e-06
6.2103857e-06
3.5255033e-06
4.5569737e-06
1.5566295e-05
9.793224e-06
8.972977e-06
7.4819483e-06
1.5711333e-05
1.1532983e-05
-5.0984714e-05
1.6472063e-05
7.4117336e-06
-0.00019110273
9.9321939e-06
-5.1183747e-06
-0.00039759588
-1.5570057e-06
-2.087666e-05
-0.00058946615
-1.2618969e-05
-3.2678966e-05
-0.00068514342
-3.7216054e-05
-0.00067090439
-1.835566e-05
3.8255461e-07
1.218814e-06
5.8954149e-06
2.9958279e-06
4.5699493e-06
1.4581022e-05
8.2760493e-06
8.8290607e-06
6.0967258e-06
1.308195e-05
1.0871938e-05
-5.1620414e-05
1.3127224e-05
5.5697452e-06
-0.00018928887
6.6440863e-06
-8.9411605e-06
-0.00039275398
-4.0276261e-06
-2.6958688e-05
-0.00058326178
-1.4019429e-05
-4.0344117e-05
-0.00067982368
-4.5331378e-05
-0.00066724363
-1.8884212e-05
2.9744491e-07
1.1097861e-06
5.5123969e-06
2.4836888e-06
4.086526e-06
1.3428679e-05
6.8377858e-06
7.6908119e-06
4.6275322e-06
1.0461304e-05
8.8943776e-06
-5.1787204e-05
9.5940013e-06
2.7815796e-06
-0.00018583317
2.9860868e-06
-1.2375939e-05
-0.00038487816
-6.9498398e-06
-3.0921483e-05
-0.00057322545
-1.5750667e-05
-4.4589633e-05
-0.00067073785
-4.9386403e-05
-0.0006602509
-1.9626445e-05
2.1907165e-07
9.325398e-07
5.0769296e-06
1.9980679e-06
3.3498408e-06
1.2181551e-05
5.4811772e-06
6.0768088e-06
3.2531138e-06
7.9200652e-06
6.4021177e-06
-5.1144645e-05
6.0293074e-06
3.9370515e-08
-0.000180183
-8.5934991e-07
-1.4561082e-05
-0.00037316557
-1.013361e-05
-3.2213029e-05
-0.00055828721
-1.7735283e-05
-4.5094092e-05
-0.00065658648
-4.9220607e-05
-0.00064844786
-2.0606693e-05
1.4894353e-07
7.3778393e-07
4.5839468e-06
1.547757e-06
2.5651229e-06
1.0819407e-05
4.2121792e-06
4.4233988e-06
1.9411029e-06
5.5608617e-06
4.0411757e-06
-4.9696741e-05
2.7580641e-06
-2.0645968e-06
-0.00017219285
-4.48537e-06
-1.5104267e-05
-0.00035712638
-1.3302731e-05
-3.0786763e-05
-0.00053744818
-1.9847856e-05
-4.2155459e-05
-0.00063586327
-4.5265126e-05
-0.00063000617
-2.1796588e-05
8.7870905e-08
5.6439108e-07
4.0050979e-06
1.1350857e-06
1.8868271e-06
9.2310987e-06
3.0523204e-06
3.0525617e-06
4.6762056e-07
3.4436193e-06
2.2697423e-06
-4.7735082e-05
-1.6815274e-07
-3.1103918e-06
-0.00016202249
-7.6517219e-06
-1.4025585e-05
-0.00033642003
-1.6045904e-05
-2.7064146e-05
-0.00050956624
-2.1719464e-05
-3.6477529e-05
-0.00060664539
-3.842474e-05
-0.00060257275
-2.2925024e-05
4.3506639e-08
4.3121665e-07
3.3770598e-06
7.9194193e-07
1.3990519e-06
7.5341042e-06
2.0639485e-06
2.1565243e-06
-9.8128986e-07
1.6628122e-06
1.3666085e-06
-4.5061004e-05
-2.588975e-06
-2.8766041e-06
-0.0001494591
-1.0273224e-05
-1.1357575e-05
-0.0003105942
-1.8224197e-05
-2.162075e-05
-0.00047357023
-2.3051803e-05
-2.9009752e-05
-0.0005671226
-2.9835475e-05
-0.00056383823
-2.3591258e-05
1.3193738e-08
3.4907701e-07
2.7270754e-06
5.1859266e-07
1.1420862e-06
5.8301205e-06
1.2746368e-06
1.8140866e-06
-2.1967761e-06
3.1149875e-07
1.4300405e-06
-4.1318634e-05
-4.2647647e-06
-1.3592718e-06
-0.00013388185
-1.1898525e-05
-7.2978712e-06
-0.00027848256
-1.937247e-05
-1.4904923e-05
-0.00042744509
-2.3381419e-05
-2.0576985e-05
-0.00051454403
-2.0605641e-05
-0.00051090246
-2.3253819e-05
-9.2564688e-09
3.2696778e-07
2.0721357e-06
2.966767e-07
1.1396803e-06
4.1737222e-06
6.6312949e-07
2.0461254e-06
-3.0776028e-06
-5.7153884e-07
2.4191333e-06
-3.6314275e-05
-5.0232933e-06
1.2807667e-06
-0.00011483614
-1.2177406e-05
-2.1353854e-06
-0.00023899115
-1.9049502e-05
-7.2242533e-06
-0.00036910889
-2.2383121e-05
-1.1557948e-05
-0.0004460628
-1.1724085e-05
-0.00044084412
-2.1454828e-05
-1.3755562e-08
1.5524023e-06
3.5809587e-07
2.0501071e-07
3.1154402e-06
1.3259498e-06
4.8105626e-07
-2.4657605e-06
2.6400513e-06
-5.0199325e-07
-2.8216671e-05
3.9262282e-06
-4.1690966e-06
-8.996617e-05
4.509502e-06
-1.028879e-05
-0.0001893761
3.6239626e-06
-1.6400706e-05
-0.00029532982
1.0826401e-06
-1.9654465e-05
-0.00035818499
-1.8547461e-06
-0.00035046061
-3.6620916e-06
-1.8318026e-05
-6.4543414e-08
-2.7765123e-07
1.7655091e-06
1.2908748e-07
-4.8295937e-07
-1.2966165e-06
4.1808131e-06
6.4964727e-07
-1.4000559e-06
-3.4260643e-06
4.9960184e-08
1.8274029e-06
-2.4583181e-06
-7.3188289e-06
-2.3988841e-05
4.149199e-06
-2.9278379e-06
-1.3512858e-05
-8.4109744e-05
8.1258777e-06
-2.0590059e-06
-2.1951061e-05
-0.0001822029
1.3908967e-05
5.8638736e-07
-3.1520285e-05
-0.00028730889
2.0853899e-05
4.8902301e-06
-3.9982346e-05
-0.00034997687
2.7470354e-05
-4.455026e-05
-0.0003429936
3.2167675e-05
9.8057869e-06
-7.5881074e-08
-4.3326109e-07
2.3036185e-06
-5.6479479e-07
-1.9873851e-06
5.3533677e-06
-1.6092952e-06
-5.1315661e-06
-3.2768134e-07
-2.7571305e-06
-1.0640114e-05
-3.1845269e-05
-3.2091769e-06
-1.8997244e-05
-0.00010889983
-2.2574489e-06
-2.9881544e-05
-0.00023201251