/*--------------------------------*- C++ -*----------------------------------*\
| =========                 |                                                 |
| \\      /  F ield         | OpenFOAM: The Open Source CFD Toolbox           |
|  \\    /   O peration     | Version:  2406                                  |
|   \\  /    A nd           | Website:  www.openfoam.com                      |
|    \\/     M anipulation  |                                                 |
\*---------------------------------------------------------------------------*/
FoamFile
{
    version     2.0;
    format      ascii;
    arch        "LSB;label=32;scalar=64";
    class       volVectorField;
    location    "17.5";
    object      U;
}
// * * * * * * * * * * * * * * * * * * * * * * * * * * * * * * * * * * * * * //

dimensions      [0 1 -1 0 0 0 0];

internalField   nonuniform List<vector> 
34560
(
(-0.0071106088 0.0024656982 0.010819915)
(-0.04537871 0.010075497 0.039481184)
(-0.13245931 0.022182359 0.081659016)
(-0.29291041 0.037201014 0.13759159)
(-0.53238046 0.051576235 0.19794103)
(-0.81785123 0.061481863 0.24724225)
(-1.0917449 0.069388845 0.27430984)
(-1.3091224 0.081824025 0.27859293)
(-1.4500308 0.098206329 0.26738434)
(-0.0050728783 0.0040701616 0.013242516)
(-0.044917579 0.016024647 0.047741133)
(-0.14424134 0.034047645 0.097375301)
(-0.331054 0.055047931 0.16063726)
(-0.60321888 0.072782102 0.22419059)
(-0.91090157 0.083012997 0.27048288)
(-1.1864311 0.090672774 0.29048909)
(-1.3886888 0.10388574 0.28721855)
(-1.5115678 0.12197288 0.26927201)
(-0.00032361798 0.0041905419 0.014158093)
(-0.03604644 0.017854531 0.051569278)
(-0.14170337 0.039562289 0.10581994)
(-0.34971234 0.065566427 0.17438373)
(-0.64948728 0.086834091 0.24046023)
(-0.97325684 0.098280543 0.28477134)
(-1.2459357 0.10686459 0.30028084)
(-1.4339901 0.12163938 0.29273946)
(-1.5431459 0.14190794 0.27202237)
(0.0069122389 0.0043162541 0.015045333)
(-0.019059405 0.019257913 0.054817013)
(-0.12470366 0.043597037 0.11250557)
(-0.3477928 0.07293678 0.1842247)
(-0.66931762 0.096899767 0.25134965)
(-1.0050032 0.10968748 0.29363247)
(-1.2739503 0.11972835 0.30650568)
(-1.4505849 0.13610829 0.29752172)
(-1.5486894 0.15875831 0.2767698)
(0.017015024 0.0035843761 0.015361104)
(0.0074231282 0.018102622 0.056151468)
(-0.090696075 0.043508837 0.11568122)
(-0.32286384 0.075354099 0.18946696)
(-0.66169786 0.10123634 0.25661997)
(-1.0068102 0.11599202 0.29836245)
(-1.2731893 0.12858748 0.31132574)
(-1.4398176 0.14823081 0.30391927)
(-1.5258495 0.17242293 0.2850479)
(0.030277725 0.0019007161 0.015224879)
(0.044594159 0.013907024 0.055919542)
(-0.037219229 0.038173223 0.11606109)
(-0.27158813 0.071138999 0.19124957)
(-0.6248205 0.099571184 0.25985932)
(-0.97826964 0.11743854 0.30308506)
(-1.2399708 0.13352305 0.31850605)
(-1.3950286 0.15555803 0.31416717)
(-1.4692608 0.18099371 0.29850818)
(0.047164937 -0.00066550129 0.014947713)
(0.09420949 0.0068073959 0.05519543)
(0.039545048 0.027643011 0.11566259)
(-0.18737578 0.059975642 0.19254148)
(-0.54959229 0.090557609 0.26387909)
(-0.90879915 0.11233363 0.31096702)
(-1.1648566 0.13262051 0.33129882)
(-1.3082004 0.15744932 0.33190336)
(-1.3704863 0.18379705 0.32029059)
(0.068220959 -0.0040629726 0.014646479)
(0.15827996 -0.0028933663 0.054904988)
(0.14379421 0.012386869 0.11629974)
(-0.063888798 0.042428603 0.19676386)
(-0.42831827 0.074796156 0.27375023)
(-0.78968551 0.10087123 0.32781988)
(-1.0378373 0.12538583 0.35543465)
(-1.1678926 0.15237655 0.36204902)
(-1.2173202 0.17878889 0.35441709)
(0.09305369 -0.0075403552 0.014792405)
(0.23625952 -0.01335488 0.056116983)
(0.27481444 -0.0049176511 0.12055595)
(0.099655198 0.021197948 0.20839234)
(-0.25794543 0.054050473 0.29510715)
(-0.6150202 0.083377765 0.35949407)
(-0.85023566 0.11070859 0.39631265)
(-0.96358599 0.13821827 0.40911174)
(-0.99863162 0.16311837 0.40448469)
(0.11969232 -0.0096537798 0.015666783)
(0.32161605 -0.020582965 0.059838023)
(0.42090099 -0.018299761 0.13059715)
(0.29024843 0.0022922762 0.22999811)
(-0.0497537 0.032388555 0.33062188)
(-0.39283435 0.061373112 0.40795291)
(-0.60752659 0.088015015 0.45487577)
(-0.69958437 0.1128883 0.47311561)
(-0.71911947 0.1339838 0.46972098)
(0.1436865 -0.0084883657 0.017108175)
(0.39936895 -0.019398208 0.065134929)
(0.55511223 -0.020296384 0.14515545)
(0.47152568 -0.00697157 0.25736823)
(0.15733308 0.014866128 0.37376238)
(-0.1630868 0.037029113 0.46423469)
(-0.35170701 0.057208409 0.52042794)
(-0.42104697 0.074837322 0.54270279)
(-0.42487732 0.089619535 0.53845946)
(0.15822292 -0.0033703537 0.018262402)
(0.44695333 -0.0078784446 0.069061033)
(0.63879789 -0.0085734785 0.1566202)
(0.58651843 -0.0039270847 0.27729733)
(0.29306663 0.0041637748 0.40521119)
(-0.0087839938 0.012638981 0.50442517)
(-0.17769936 0.020561091 0.56655801)
(-0.23184675 0.026490304 0.59035732)
(-0.22486569 0.032210577 0.58508901)
(0.15822288 0.003370175 0.01826239)
(0.44695319 0.0078778115 0.069061042)
(0.63879759 0.0085722741 0.15662018)
(0.58651799 0.0039254078 0.27729737)
(0.29306618 -0.0041655453 0.40521126)
(-0.0087843347 -0.012640552 0.50442528)
(-0.17769951 -0.020562412 0.56655818)
(-0.23184683 -0.026491315 0.59035748)
(-0.22486562 -0.032211321 0.58508922)
(0.14368638 0.0084881629 0.017108165)
(0.39936857 0.019397538 0.065135036)
(0.55511149 0.020295155 0.14515554)
(0.47152463 0.0069698835 0.25736845)
(0.15733201 -0.014867884 0.37376264)
(-0.16308765 -0.037030654 0.46423503)
(-0.35170747 -0.057209701 0.52042836)
(-0.42104708 -0.074838355 0.54270326)
(-0.4248772 -0.089620281 0.53845995)
(0.11969217 0.0096535339 0.0156668)
(0.32161557 0.020582301 0.059838186)
(0.42090013 0.018298641 0.13059743)
(0.29024722 -0.0022937841 0.22999856)
(-0.049755007 -0.032390153 0.33062234)
(-0.39283546 -0.06137454 0.40795349)
(-0.60752728 -0.088016226 0.45487642)
(-0.69958463 -0.11288933 0.4731162)
(-0.71911947 -0.13398461 0.46972157)
(0.093053552 0.0075401294 0.014792473)
(0.23625907 0.013354278 0.056117104)
(0.27481361 0.0049167005 0.12055643)
(0.099654012 -0.02119918 0.20839306)
(-0.25794672 -0.054051784 0.29510785)
(-0.61502134 -0.083378937 0.35949486)
(-0.85023648 -0.1107096 0.39631346)
(-0.9635864 -0.13821927 0.40911241)
(-0.99863176 -0.16311936 0.4044854)
(0.068220843 0.0040627851 0.014646637)
(0.15827956 0.0028927516 0.054905229)
(0.14379345 -0.012387752 0.11630045)
(-0.063889848 -0.042429617 0.19676479)
(-0.42831941 -0.074797114 0.27375109)
(-0.78968655 -0.10087206 0.32782074)
(-1.0378381 -0.12538658 0.35543552)
(-1.1678931 -0.15237745 0.36204983)
(-1.2173206 -0.17879005 0.35441803)
(0.047164848 0.00066538397 0.014947901)
(0.09420918 -0.0068079161 0.055195599)
(0.039544451 -0.027643747 0.11566307)
(-0.18737663 -0.059976412 0.19254221)
(-0.54959324 -0.090558181 0.26387984)
(-0.90879998 -0.11233414 0.31096785)
(-1.1648571 -0.13262103 0.33129972)
(-1.3082008 -0.15745005 0.33190432)
(-1.3704868 -0.1837982 0.32029164)
(0.030277652 -0.0019008047 0.015224896)
(0.044593916 -0.01390732 0.055919598)
(-0.037219684 -0.038173713 0.11606137)
(-0.27158878 -0.071139447 0.19125002)
(-0.62482121 -0.099571555 0.25985994)
(-0.97827028 -0.11743883 0.30308592)
(-1.2399713 -0.13352334 0.31850691)
(-1.3950292 -0.15555856 0.3141681)
(-1.4692611 -0.18099477 0.29850914)
(0.017014958 -0.0035844424 0.015361179)
(0.0074229097 -0.018102886 0.056151613)
(-0.090696477 -0.04350934 0.11568142)
(-0.32286438 -0.075354541 0.18946739)
(-0.6616985 -0.10123678 0.25662076)
(-1.0068108 -0.11599225 0.29836311)
(-1.2731898 -0.12858771 0.3113264)
(-1.4398182 -0.14823118 0.30392011)
(-1.5258496 -0.17242373 0.28504879)
(0.0069121874 -0.0043163228 0.015045382)
(-0.019059572 -0.019258111 0.054817131)
(-0.12470397 -0.043597408 0.11250576)
(-0.34779328 -0.072937214 0.18422513)
(-0.66931832 -0.096900153 0.25135004)
(-1.005004 -0.10968777 0.29363269)
(-1.2739509 -0.11972854 0.30650604)
(-1.4505852 -0.13610885 0.29752229)
(-1.5486892 -0.15875888 0.27677032)
(-0.0003236679 -0.0041906049 0.014158124)
(-0.036046601 -0.017854642 0.051569383)
(-0.14170367 -0.039562503 0.10582006)
(-0.3497128 -0.065566712 0.1743838)
(-0.64948784 -0.086834222 0.24046022)
(-0.97325749 -0.098280855 0.28477137)
(-1.2459362 -0.10686493 0.30028117)
(-1.4339905 -0.12163963 0.29273946)
(-1.5431461 -0.14190896 0.27202299)
(-0.0050729235 -0.0040701888 0.013242556)
(-0.044917724 -0.016024717 0.0477412)
(-0.14424162 -0.034047781 0.097375305)
(-0.33105442 -0.055048124 0.16063718)
(-0.60321944 -0.072782285 0.22419065)
(-0.91090226 -0.083013219 0.27048292)
(-1.1864318 -0.090673449 0.29048868)
(-1.388689 -0.10388665 0.28721893)
(-1.5115681 -0.1219741 0.26927348)
(-0.0071106512 -0.0024656854 0.010819929)
(-0.045378844 -0.010075496 0.039481186)
(-0.13245955 -0.022182341 0.081658988)
(-0.29291077 -0.037200942 0.13759154)
(-0.53238097 -0.051576228 0.1979409)
(-0.81785181 -0.061481938 0.24724196)
(-1.0917452 -0.069389172 0.27431014)
(-1.3091226 -0.08182528 0.27859399)
(-1.450031 -0.09820711 0.26738531)
(0.01933184 0.0006998528 0.00048651187)
(0.044621515 0.0016551983 0.00080294895)
(0.045793806 0.0019475397 -0.00046543206)
(0.0019465595 0.00017711864 -0.0043224546)
(-0.10388231 -0.0052931872 -0.011336524)
(-0.26975352 -0.0151542 -0.02031762)
(-0.46478729 -0.028110267 -0.028672619)
(-0.64320558 -0.041793787 -0.034549224)
(-0.76764396 -0.055263075 -0.037136884)
(0.022685234 -0.00028505489 -0.00046203162)
(0.051304364 -0.0015696183 -0.0022950078)
(0.050373869 -0.003994294 -0.0064026641)
(-0.0030498734 -0.0088817264 -0.013493693)
(-0.12446433 -0.017658097 -0.023331384)
(-0.30570361 -0.030524045 -0.033599827)
(-0.50817019 -0.0455538 -0.041320802)
(-0.68351058 -0.060164423 -0.045350751)
(-0.80144891 -0.073123053 -0.046611516)
(0.026647357 -0.0015018845 -0.0013818691)
(0.060111003 -0.0054955515 -0.0053534539)
(0.059220859 -0.011088312 -0.012325455)
(-0.0007971323 -0.01927056 -0.022541226)
(-0.13382921 -0.030961782 -0.034691938)
(-0.32575801 -0.045751069 -0.04538982)
(-0.53157553 -0.061454468 -0.051790748)
(-0.70249213 -0.075936919 -0.054003488)
(-0.81498744 -0.088474967 -0.053700138)
(0.030411716 -0.0031267676 -0.0023410959)
(0.06861185 -0.010573226 -0.0085148853)
(0.068181043 -0.019962126 -0.018424175)
(0.0028464636 -0.031673751 -0.031750748)
(-0.13958793 -0.045928195 -0.045949582)
(-0.33955643 -0.06180327 -0.056641649)
(-0.54679658 -0.077308595 -0.061474344)
(-0.71302127 -0.091185285 -0.06187767)
(-0.82084117 -0.10333373 -0.060154006)
(0.033969494 -0.0050078295 -0.0031886084)
(0.076773518 -0.016377586 -0.011333151)
(0.077093169 -0.029939305 -0.02394593)
(0.0072522277 -0.04522739 -0.040151739)
(-0.14339443 -0.061631262 -0.056128377)
(-0.3502959 -0.077926759 -0.066637894)
(-0.55863882 -0.092715556 -0.069992167)
(-0.72079101 -0.10567422 -0.068826634)
(-0.82446796 -0.11713424 -0.065926611)
(0.037321295 -0.0070721784 -0.0038069064)
(0.084580822 -0.022636569 -0.013431168)
(0.085882455 -0.040460066 -0.028260726)
(0.012126051 -0.059060686 -0.046941287)
(-0.14608278 -0.076987343 -0.064404045)
(-0.35970374 -0.093013242 -0.074640862)
(-0.56976267 -0.10662812 -0.076739939)
(-0.72891076 -0.11838413 -0.074418332)
(-0.82902406 -0.12881903 -0.070706649)
(0.040402207 -0.0091345074 -0.0041477314)
(0.091910681 -0.028711707 -0.014628382)
(0.094463434 -0.050388574 -0.030996528)
(0.017396282 -0.071632211 -0.051499216)
(-0.14791021 -0.09027233 -0.07005664)
(-0.36841598 -0.10539119 -0.080017908)
(-0.58115425 -0.11750774 -0.08122591)
(-0.7386217 -0.12781665 -0.078224009)
(-0.835884 -0.13686163 -0.074081581)
(0.043449361 -0.010782231 -0.0040910714)
(0.099485245 -0.033379133 -0.014566404)
(0.10393143 -0.057698307 -0.031508608)
(0.024340272 -0.080280295 -0.052951684)
(-0.14777496 -0.098589525 -0.072199014)
(-0.37567968 -0.11230793 -0.082049136)
(-0.59230669 -0.12278158 -0.082858662)
(-0.74942018 -0.13153691 -0.079750805)
(-0.844438 -0.13905933 -0.075621267)
(0.046580363 -0.011468958 -0.0035806933)
(0.10766056 -0.035043223 -0.013076363)
(0.11487863 -0.059746203 -0.029501691)
(0.033538373 -0.081863362 -0.051208666)
(-0.14482834 -0.098773512 -0.070674682)
(-0.38032217 -0.11059005 -0.08047234)
(-0.60173689 -0.11932779 -0.081338064)
(-0.7596628 -0.12647202 -0.078627284)
(-0.85332654 -0.13223599 -0.074841094)
(0.049775259 -0.010567236 -0.0026908851)
(0.11643935 -0.031936778 -0.010398078)
(0.12747472 -0.053820624 -0.025339939)
(0.044923403 -0.072911386 -0.04647567)
(-0.13912473 -0.086892898 -0.065601324)
(-0.38194373 -0.096316377 -0.075455773)
(-0.60829624 -0.1031105 -0.076755224)
(-0.76753708 -0.10843098 -0.074822445)
(-0.86028072 -0.11239147 -0.071664899)
(0.052582916 -0.0076950097 -0.0017048042)
(0.12446343 -0.023015396 -0.0073896337)
(0.13959611 -0.038394812 -0.020415104)
(0.056522948 -0.051475952 -0.04034292)
(-0.13207302 -0.060749832 -0.059021603)
(-0.3807212 -0.06691781 -0.068860492)
(-0.61106795 -0.071319638 -0.070701)
(-0.77146567 -0.074614271 -0.069648216)
(-0.86357622 -0.076876091 -0.067187091)
(0.054445009 -0.0028554058 -0.0010521587)
(0.12999766 -0.0084843537 -0.005356673)
(0.14838378 -0.014053699 -0.016922079)
(0.065855617 -0.018696587 -0.035659339)
(-0.12601986 -0.021956247 -0.054340374)
(-0.37828005 -0.024133059 -0.064067585)
(-0.6111091 -0.025674984 -0.066251591)
(-0.77231798 -0.026787392 -0.06578209)
(-0.86408945 -0.027504574 -0.06378119)
(0.054445005 0.0028554652 -0.0010521643)
(0.12999765 0.0084845435 -0.0053566836)
(0.14838376 0.014054019 -0.016922117)
(0.065855595 0.018697057 -0.035659355)
(-0.12601986 0.021956876 -0.054340354)
(-0.37828003 0.024133749 -0.06406755)
(-0.61110908 0.025675636 -0.06625156)
(-0.77231799 0.026787973 -0.065782074)
(-0.8640895 0.027505117 -0.063781177)
(0.052582903 0.0076950567 -0.0017048168)
(0.1244634 0.023015559 -0.0073896331)
(0.13959607 0.038395083 -0.020415137)
(0.05652291 0.051476329 -0.040342901)
(-0.13207302 0.060750347 -0.05902154)
(-0.38072117 0.066918411 -0.06886041)
(-0.61106792 0.071320239 -0.070700934)
(-0.7714657 0.074614816 -0.069648194)
(-0.86357637 0.076876617 -0.067187064)
(0.049775243 0.010567242 -0.0026908955)
(0.11643931 0.031936877 -0.010398048)
(0.12747468 0.053820825 -0.025339889)
(0.044923381 0.072911675 -0.046475556)
(-0.13912472 0.086893315 -0.065601233)
(-0.3819437 0.096316902 -0.075455682)
(-0.60829624 0.10311106 -0.076755161)
(-0.76753714 0.10843146 -0.074822447)
(-0.86028089 0.11239191 -0.071664861)
(0.046580345 0.011468945 -0.0035806902)
(0.10766051 0.03504328 -0.013076345)
(0.11487857 0.05974637 -0.029501578)
(0.033538339 0.081863642 -0.05120847)
(-0.14482834 0.098773918 -0.070674558)
(-0.38032216 0.11059057 -0.080472246)
(-0.60173691 0.11932834 -0.081338015)
(-0.75966284 0.12647244 -0.078627301)
(-0.85332666 0.13223629 -0.074841013)
(0.043449342 0.010782211 -0.0040910294)
(0.099485184 0.033379128 -0.014566327)
(0.10393135 0.057698409 -0.031508389)
(0.024340215 0.080280559 -0.052951384)
(-0.14777498 0.098589961 -0.072198828)
(-0.37567967 0.1123085 -0.082049038)
(-0.59230668 0.12278216 -0.082858618)
(-0.74942017 0.13153732 -0.079750816)
(-0.84443809 0.13905955 -0.075621147)
(0.040402191 0.0091344989 -0.0041476791)
(0.09191063 0.028711693 -0.014628331)
(0.094463358 0.05038865 -0.030996384)
(0.017396219 0.071632483 -0.051499008)
(-0.14791024 0.090272833 -0.070056543)
(-0.36841596 0.10539182 -0.080017869)
(-0.58115418 0.11750835 -0.081225891)
(-0.73862167 0.1278171 -0.078224048)
(-0.83588411 0.13686183 -0.074081536)
(0.037321274 0.0070721706 -0.0038068959)
(0.084580761 0.022636586 -0.013431156)
(0.085882367 0.04046016 -0.028260675)
(0.012125961 0.059060996 -0.046941235)
(-0.14608284 0.076987856 -0.064404019)
(-0.35970372 0.093013909 -0.074640834)
(-0.56976262 0.10662879 -0.076739983)
(-0.72891078 0.11838462 -0.074418466)
(-0.82902412 0.12881914 -0.070706738)
(0.033969468 0.0050078202 -0.0031885998)
(0.076773448 0.016377613 -0.011333145)
(0.077093061 0.029939353 -0.023945997)
(0.0072520913 0.045227638 -0.040151743)
(-0.14339454 0.061631691 -0.056128318)
(-0.35029596 0.07792738 -0.066637976)
(-0.55863888 0.092716193 -0.069992345)
(-0.72079112 0.10567467 -0.06882685)
(-0.82446793 0.11713427 -0.065926772)
(0.030411687 0.0031267448 -0.0023410876)
(0.068611769 0.010573236 -0.0085148647)
(0.068180915 0.019962144 -0.018424188)
(0.0028462956 0.0316739 -0.031750697)
(-0.13958811 0.045928561 -0.04594966)
(-0.33955662 0.061803792 -0.056641938)
(-0.54679675 0.077309148 -0.06147468)
(-0.71302139 0.091185525 -0.061877996)
(-0.82084109 0.1033337 -0.060154464)
(0.026647323 0.0015018646 -0.0013818626)
(0.060110906 0.0054955888 -0.0053534291)
(0.0592207 0.011088373 -0.012325495)
(-0.00079735489 0.019270707 -0.022541364)
(-0.13382949 0.030962161 -0.034692242)
(-0.32575832 0.045751512 -0.045390275)
(-0.53157582 0.061454859 -0.051791174)
(-0.70249232 0.075937165 -0.054004202)
(-0.81498753 0.088474746 -0.053700897)
(0.022685199 0.00028505965 -0.00046203088)
(0.05130426 0.0015696911 -0.0022950278)
(0.050373689 0.0039944255 -0.0064027844)
(-0.0030501371 0.0088819474 -0.013493952)
(-0.12446467 0.017658444 -0.02333174)
(-0.305704 0.03052444 -0.033600331)
(-0.50817056 0.045553938 -0.04132163)
(-0.68351079 0.060164161 -0.045351545)
(-0.80144903 0.07312245 -0.046611957)
(0.019331806 -0.00069982626 0.00048649874)
(0.04462141 -0.0016551256 0.00080287359)
(0.045793621 -0.0019473931 -0.000465597)
(0.0019462956 -0.00017685976 -0.0043227326)
(-0.10388263 0.0052935252 -0.011336983)
(-0.26975387 0.015154507 -0.020318377)
(-0.46478755 0.028110412 -0.028673382)
(-0.64320573 0.041793401 -0.034550198)
(-0.76764404 0.055262581 -0.037137381)
(0.0044761735 -0.00022492228 -0.00020314178)
(-0.00020526965 -0.00057904685 -0.00053050064)
(-0.03125655 -0.00080230114 -0.00076539552)
(-0.10545171 -0.00089014266 -0.00075304699)
(-0.23562424 -0.00095032641 -0.00025959316)
(-0.41841057 -0.0010908057 0.00086391112)
(-0.62470647 -0.0012733486 0.0024014554)
(-0.81143008 -0.0013220877 0.0036748871)
(-0.94169562 -0.0013674478 0.0040401638)
(0.0057903394 -0.00020919496 -0.00016461697)
(0.00098284983 -0.00048425704 -0.00040696972)
(-0.03490325 -0.0005517424 -0.00053759817)
(-0.1200938 -0.00039625146 -0.00037025844)
(-0.26601157 -0.00013405129 0.00037079704)
(-0.46374174 9.5111393e-05 0.0017952662)
(-0.67687482 0.00025645615 0.0035341284)
(-0.85956135 0.00041337396 0.0048226723)
(-0.98236553 0.00045374834 0.0049133975)
(0.0076848252 -0.00024236844 -0.00016603373)
(0.0043284814 -0.00053632189 -0.00041321576)
(-0.033983431 -0.00054182146 -0.00055501177)
(-0.12666772 -0.00019593188 -0.00036708507)
(-0.28367589 0.00039845127 0.00049415371)
(-0.49091496 0.0010467388 0.0021194226)
(-0.70605938 0.0015889682 0.0040308262)
(-0.88289178 0.001975208 0.0054288765)
(-0.99889152 0.0021615371 0.0056302413)
(0.009529146 -0.00030531394 -0.00018239667)
(0.0078613231 -0.00068678551 -0.00047648342)
(-0.031994449 -0.00070869973 -0.00069271669)
(-0.13031445 -0.00022950364 -0.00056856554)
(-0.29548934 0.00069229649 0.00031760912)
(-0.50873415 0.0017954622 0.0020551609)
(-0.72305402 0.0027532366 0.0040988676)
(-0.89307122 0.0034007537 0.00566323)
(-1.0025212 0.0037562193 0.0060714327)
(0.011347678 -0.00039916736 -0.00020906249)
(0.011596191 -0.00093777853 -0.00057966951)
(-0.029076657 -0.0010527394 -0.00091718473)
(-0.13165381 -0.0004984548 -0.00092382288)
(-0.30301665 0.00073003644 -9.7942292e-05)
(-0.52015986 0.0022922645 0.0016672618)
(-0.73224122 0.003685915 0.0038115201)
(-0.89511721 0.0046199613 0.0055675061)
(-0.99803505 0.0051396178 0.0062223857)
(0.01306776 -0.0005146943 -0.00023126911)
(0.015300129 -0.001263954 -0.00067790452)
(-0.025676279 -0.0015364251 -0.0011594337)
(-0.13144035 -0.00096902331 -0.0013537812)
(-0.30751705 0.00052042032 -0.00067643394)
(-0.52717262 0.0025148904 0.0010326815)
(-0.73634184 0.0043251284 0.0032335928)
(-0.89217711 0.0055010129 0.0051501097)
(-0.98870035 0.0061521183 0.006078617)
(0.014616885 -0.00063402869 -0.00024139081)
(0.018776117 -0.0016114904 -0.00074441445)
(-0.022093175 -0.0020754321 -0.0013664899)
(-0.1300803 -0.001551708 -0.0017809682)
(-0.30958884 0.00012038712 -0.0013296711)
(-0.53072575 0.0024541669 0.00023112608)
(-0.73677708 0.0045542124 0.0024047049)
(-0.88615843 0.0059133103 0.0044742576)
(-0.97675815 0.0066526259 0.0056959872)
(0.016133077 -0.00072984007 -0.00023066805)
(0.022391875 -0.0019030522 -0.00075243592)
(-0.017808377 -0.0025527461 -0.0014938245)
(-0.12706709 -0.002120516 -0.0021463403)
(-0.30894429 -0.00039146923 -0.0019859577)
(-0.53098346 0.0020874426 -0.00066911005)
(-0.73429699 0.0043337789 0.0014322931)
(-0.87823245 0.0057787739 0.0036470836)
(-0.96370382 0.0065435085 0.0051532714)
(0.017622261 -0.00076647506 -0.00019593236)
(0.02614643 -0.0020366187 -0.00069069021)
(-0.012879136 -0.0028125333 -0.001519879)
(-0.12257783 -0.002508135 -0.0024106562)
(-0.30596062 -0.00088652444 -0.0025767655)
(-0.52858712 0.0015169889 -0.0015488774)
(-0.7297296 0.0036926775 0.00044557634)
(-0.86939445 0.0050812988 0.0027763068)
(-0.95073461 0.0057923746 0.0045299468)
(0.018969605 -0.0007044084 -0.00014081138)
(0.029664083 -0.0018956154 -0.00056814453)
(-0.0079877001 -0.0026692721 -0.0014529747)
(-0.11760222 -0.0024930558 -0.0025653978)
(-0.30186909 -0.0011434718 -0.0030528609)
(-0.52476252 0.00089530797 -0.0023037511)
(-0.72425768 0.0027409912 -0.00042655839)
(-0.86079441 0.0039071038 0.001978589)
(-0.93906417 0.0044839471 0.0039296624)
(0.019922222 -0.00051153471 -8.0925736e-05)
(0.032187457 -0.0013859818 -0.00042530526)
(-0.0043822835 -0.0019753957 -0.0013383473)
(-0.11373399 -0.0019023341 -0.0026371132)
(-0.29832272 -0.00099242209 -0.0033855561)
(-0.52116785 0.00040060394 -0.0028610687)
(-0.71940474 0.0016510348 -0.0010794262)
(-0.85382028 0.0024343754 0.0013689622)
(-0.9300536 0.0028088513 0.0034598834)
(0.020544874 -0.00019018787 -4.2307988e-05)
(0.033872449 -0.00051686108 -0.00033107831)
(-0.0019058756 -0.00074044806 -0.0012577918)
(-0.11098537 -0.0007201423 -0.0026698986)
(-0.29574317 -0.00038947182 -0.0035701059)
(-0.51864916 0.00011028808 -0.0031624596)
(-0.71635362 0.00055385796 -0.0014313307)
(-0.84979286 0.00082832608 0.0010391765)
(-0.92506132 0.00095582905 0.0032052281)
(0.020544871 0.00019016593 -4.2309592e-05)
(0.033872439 0.00051682192 -0.00033107106)
(-0.0019058917 0.0007404079 -0.0012577913)
(-0.1109854 0.00072013626 -0.0026698872)
(-0.29574319 0.00038954245 -0.0035700877)
(-0.51864918 -0.00011014619 -0.0031624394)
(-0.71635363 -0.00055368326 -0.0014313104)
(-0.84979287 -0.00082815362 0.0010391969)
(-0.92506134 -0.0009556572 0.0032052592)
(0.019922211 0.00051150798 -8.0927692e-05)
(0.032187426 0.0013859372 -0.00042528198)
(-0.0043823316 0.0019753483 -0.0013383295)
(-0.11373405 0.0019023159 -0.0026370686)
(-0.29832279 0.00099248403 -0.0033855058)
(-0.5211679 -0.00040046121 -0.0028610174)
(-0.71940478 -0.0016508485 -0.0010793754)
(-0.85382031 -0.0024341946 0.0013690112)
(-0.93005365 -0.0028086754 0.0034599669)
(0.01896959 0.00070437303 -0.00014080739)
(0.029664039 0.0018955638 -0.00056809731)
(-0.007987768 0.0026692221 -0.0014529156)
(-0.1176023 0.0024930414 -0.0025653064)
(-0.30186917 0.0011435473 -0.0030527844)
(-0.52476259 -0.00089513961 -0.0023036827)
(-0.72425773 -0.0027407744 -0.000426496)
(-0.86079446 -0.0039069106 0.0019786432)
(-0.93906423 -0.0044837821 0.0039297732)
(0.017622245 0.00076643801 -0.00019591987)
(0.026146379 0.0020365705 -0.0006906276)
(-0.012879218 0.0028124951 -0.0015197861)
(-0.12257792 0.0025081528 -0.0024105272)
(-0.30596071 0.00088664957 -0.0025766698)
(-0.5285872 -0.0015167582 -0.0015488055)
(-0.72972966 -0.0036924118 0.0004456339)
(-0.8693945 -0.0050810949 0.0027763421)
(-0.95073466 -0.0057922448 0.0045300594)
(0.01613306 0.00072980208 -0.00023064389)
(0.022391817 0.0019030029 -0.00075234358)
(-0.017808471 0.0025527148 -0.0014936947)
(-0.1270672 0.0021205702 -0.0021461762)
(-0.3089444 0.00039166128 -0.0019858461)
(-0.53098355 -0.0020871309 -0.00066904346)
(-0.73429704 -0.0043334575 0.0014323362)
(-0.87823248 -0.0057785724 0.0036470769)
(-0.96370385 -0.0065434436 0.0051533449)
(0.014616869 0.00063399466 -0.00024136197)
(0.018776062 0.001611453 -0.00074432695)
(-0.022093272 0.0020754192 -0.0013663757)
(-0.13008043 0.0015518063 -0.0017808198)
(-0.30958897 -0.00012011525 -0.0013295863)
(-0.53072586 -0.0024537741 0.0002311642)
(-0.73677715 -0.0045538399 0.0024047174)
(-0.88615847 -0.0059131298 0.0044741785)
(-0.97675818 -0.0066526687 0.0056959641)
(0.01306774 0.00051465978 -0.00023125174)
(0.015300063 0.0012639329 -0.00067782533)
(-0.025676395 0.0015364319 -0.0011593344)
(-0.13144051 0.00096916488 -0.0013536705)
(-0.30751723 -0.00052009505 -0.0006763779)
(-0.52717279 -0.0025144299 0.0010327005)
(-0.73634195 -0.0043247065 0.0032335525)
(-0.89217718 -0.0055008678 0.0051499259)
(-0.98870039 -0.0061523269 0.0060784685)
(0.011347656 0.00039913133 -0.00020904299)
(0.01159612 0.00093776365 -0.00057958907)
(-0.02907679 0.0010527459 -0.00091711733)
(-0.13165401 0.00049860913 -0.00092373812)
(-0.3030169 -0.00072969412 -9.7893587e-05)
(-0.5201601 -0.0022917703 0.0016672096)
(-0.73224142 -0.0036854707 0.0038113837)
(-0.89511735 -0.0046198576 0.0055672075)
(-0.99803511 -0.0051399814 0.0062221214)
(0.0095291217 0.00030527872 -0.00018237805)
(0.0078612405 0.00068677759 -0.00047641545)
(-0.031994602 0.00070872275 -0.00069265815)
(-0.13031469 0.00022966685 -0.00056848913)
(-0.29548964 -0.00069193352 0.00031758595)
(-0.50873449 -0.0017949815 0.0020549875)
(-0.72305431 -0.0027528128 0.0040985984)
(-0.89307142 -0.0034007038 0.0056627802)
(-1.0025213 -0.0037566377 0.0060709502)
(0.0076848026 0.00024234641 -0.00016601966)
(0.0043284025 0.00053635286 -0.00041316527)
(-0.033983581 0.00054190921 -0.00055498341)
(-0.12666797 0.00019615709 -0.00036709671)
(-0.28367622 -0.0003980284 0.00049401375)
(-0.49091535 -0.0010462712 0.0021191127)
(-0.70605973 -0.0015886501 0.0040303867)
(-0.88289202 -0.001975159 0.0054281228)
(-0.99889169 -0.0021618842 0.0056294921)
(0.0057903192 0.00020920288 -0.00016462043)
(0.00098277852 0.00048434892 -0.00040698835)
(-0.034903387 0.00055192966 -0.00053768081)
(-0.12009402 0.00039658773 -0.00037043224)
(-0.26601189 0.00013456064 0.00037049719)
(-0.46374211 -9.4560505e-05 0.0017947828)
(-0.67687518 -0.00025619089 0.0035333264)
(-0.85956164 -0.00041357076 0.0048216011)
(-0.98236577 -0.00045408142 0.0049125924)
(0.0044761622 0.00022495205 -0.00020316704)
(-0.00020531031 0.00057915418 -0.0005305959)
(-0.031256628 0.00080250582 -0.00076558586)
(-0.10545183 0.00089047578 -0.00075337428)
(-0.23562441 0.00095079369 -0.0002601175)
(-0.41841077 0.001091308 0.00086313507)
(-0.62470667 0.0012736647 0.0024004805)
(-0.81143032 0.0013219033 0.0036734046)
(-0.94169585 0.0013670876 0.0040396529)
(0.011474403 -0.00013230558 -0.00011484916)
(0.020885186 -0.00047234689 -0.00037327643)
(0.0048985615 -0.0010088488 -0.00066128909)
(-0.055335104 -0.0017960072 -0.0009681773)
(-0.17496381 -0.002835659 -0.0013114859)
(-0.35179266 -0.004091685 -0.0017018085)
(-0.55611759 -0.005520066 -0.002109765)
(-0.74341968 -0.007075967 -0.0024435456)
(-0.87543764 -0.0086327972 -0.0026342709)
(0.013634827 -0.00023634064 -0.00018464825)
(0.024289892 -0.00079694402 -0.00057995601)
(0.0044219296 -0.0015932848 -0.00099881706)
(-0.066609764 -0.0026543658 -0.0014141755)
(-0.20258119 -0.0039458369 -0.001840525)
(-0.39535334 -0.005409289 -0.0022937495)
(-0.60751059 -0.0069977549 -0.0027504259)
(-0.79170507 -0.0086467238 -0.0031369982)
(-0.91722644 -0.010176114 -0.0033940406)
(0.016241498 -0.0003271385 -0.00022352034)
(0.029431025 -0.0010828109 -0.00069654355)
(0.0077642691 -0.0021055608 -0.0011855634)
(-0.070869181 -0.0033939696 -0.0016546312)
(-0.21872822 -0.0048694408 -0.0021237205)
(-0.42206812 -0.0064506298 -0.0026223013)
(-0.6371922 -0.0080908847 -0.0031359283)
(-0.81634822 -0.0097213657 -0.0036031443)
(-0.93589933 -0.011157718 -0.0039289852)
(0.018591032 -0.00042195985 -0.00025181282)
(0.034121956 -0.0013727659 -0.00077835459)
(0.011077634 -0.0026046501 -0.0013119908)
(-0.073689285 -0.0040802774 -0.0018119335)
(-0.23072783 -0.0056792345 -0.0023080716)
(-0.44117177 -0.0073078612 -0.0028459775)
(-0.65638458 -0.0089270376 -0.0034151465)
(-0.82946894 -0.010480376 -0.0039555059)
(-0.94320549 -0.011809539 -0.0043450103)
(0.020672244 -0.00050487048 -0.0002619736)
(0.038293236 -0.0016258017 -0.00080665862)
(0.014116264 -0.0030330436 -0.0013521984)
(-0.075771915 -0.0046493836 -0.0018587665)
(-0.24018901 -0.0063160986 -0.0023702901)
(-0.45565695 -0.0079241566 -0.0029403348)
(-0.66950288 -0.0094752143 -0.0035717945)
(-0.83617032 -0.010926251 -0.0041805353)
(-0.94409829 -0.012086105 -0.0045944201)
(0.022419098 -0.00057231215 -0.00025174202)
(0.041731112 -0.0018277147 -0.00077336507)
(0.016474539 -0.0033602027 -0.0012928616)
(-0.077804949 -0.0050502328 -0.0017790183)
(-0.24825362 -0.0067164619 -0.0022943477)
(-0.46734941 -0.0082559102 -0.0029021176)
(-0.67917749 -0.0096894275 -0.0035911053)
(-0.83962146 -0.010944613 -0.0042138478)
(-0.9417623 -0.011928919 -0.0046500957)
(0.023744188 -0.00061509422 -0.00022607044)
(0.044215435 -0.0019493055 -0.00069185122)
(0.017843303 -0.0035388215 -0.0011517704)
(-0.080171204 -0.0052275331 -0.0015910694)
(-0.25548035 -0.0068109444 -0.0020916162)
(-0.47718496 -0.0082177852 -0.0027251304)
(-0.68682292 -0.0094572829 -0.0034313077)
(-0.84148927 -0.010521922 -0.0040810926)
(-0.93812802 -0.011318073 -0.0045515315)
(0.02480198 -0.0006182261 -0.0001850608)
(0.046180559 -0.0019477112 -0.00056378838)
(0.018878881 -0.0035016815 -0.0009337275)
(-0.082159133 -0.0051060113 -0.0013026532)
(-0.26135616 -0.0065433395 -0.0017731426)
(-0.48505842 -0.007738836 -0.0024082326)
(-0.69272871 -0.0087536897 -0.0031396714)
(-0.84247979 -0.0095980509 -0.0038300998)
(-0.93424778 -0.010210836 -0.0043476243)
(0.025652564 -0.00057022078 -0.00013365295)
(0.047797543 -0.0017874518 -0.00040434503)
(0.019836768 -0.0031873138 -0.00066359971)
(-0.083509329 -0.0045958334 -0.00094525979)
(-0.26571116 -0.0058063353 -0.001375113)
(-0.49092423 -0.0067756131 -0.0020148128)
(-0.69704235 -0.0075520921 -0.0027820423)
(-0.84291582 -0.0081790975 -0.0035292079)
(-0.93064823 -0.0086309274 -0.0041068414)
(0.02629124 -0.00046579004 -7.9701871e-05)