/*--------------------------------*- C++ -*----------------------------------*\
  =========                 |
  \\      /  F ield         | OpenFOAM: The Open Source CFD Toolbox
   \\    /   O peration     | Website:  https://openfoam.org
    \\  /    A nd           | Version:  10
     \\/     M anipulation  |
\*---------------------------------------------------------------------------*/
FoamFile
{
    format      ascii;
    class       volScalarField;
    location    "20.5";
    object      T;
}
// * * * * * * * * * * * * * * * * * * * * * * * * * * * * * * * * * * * * * //

dimensions      [0 0 -1 0 0 0 0];

internalField   nonuniform List<scalar> 
100
(
1.9622
5.86837
9.72246
13.4903
17.1383
20.6342
23.947
27.0472
29.9074
32.5021
34.8083
36.8055
38.4761
39.8052
40.7809
41.3947
41.641
41.5177
41.026
40.1701
38.9576
37.3993
35.5091
33.3037
30.8027
28.0283
25.0052
21.76
18.3218
14.7209
10.9893
7.16026
3.26762
-0.654025
-4.56986
-8.44513
-12.2454
-15.9371
-19.4872
-22.8644
-26.0386
-28.9817
-31.6676
-34.0724
-36.1748
-37.956
-39.4004
-40.495
-41.2302
-41.5995
-41.5995
-41.2302
-40.495
-39.4004
-37.956
-36.1747
-34.0724
-31.6676
-28.9817
-26.0386
-22.8643
-19.4872
-15.937
-12.2454
-8.44507
-4.5698
-0.65396
3.26768
7.16032
10.9894
14.721
18.3218
21.7601
25.0052
28.0284
30.8028
33.3038
35.5092
37.3994
38.9577
40.1701
41.026
41.5178
41.6411
41.3947
40.7809
39.8052
38.4762
36.8056
34.8083
32.5021
29.9074
27.0473
23.947
20.6343
17.1383
13.4903
9.72247
5.86838
1.9622
)
;

boundaryField
{
    xmin
    {
        type            fixedValue;
        value           uniform 0;
    }
    xmax
    {
        type            fixedValue;
        value           uniform 0;
    }
    frontAndBack
    {
        type            empty;
    }
}


// ************************************************************************* //
