/*--------------------------------*- C++ -*----------------------------------*\
  =========                 |
  \\      /  F ield         | OpenFOAM: The Open Source CFD Toolbox
   \\    /   O peration     | Website:  https://openfoam.org
    \\  /    A nd           | Version:  10
     \\/     M anipulation  |
\*---------------------------------------------------------------------------*/
FoamFile
{
    format      ascii;
    class       volScalarField;
    location    "2";
    object      T;
}
// * * * * * * * * * * * * * * * * * * * * * * * * * * * * * * * * * * * * * //

dimensions      [0 0 -1 0 0 0 0];

internalField   nonuniform List<scalar> 
100
(
-0.0770345
-0.228373
-0.371621
-0.501704
-0.614014
-0.704572
-0.770171
-0.808486
-0.81816
-0.79885
-0.75124
-0.677017
-0.578811
-0.4601
-0.32509
-0.178563
-0.0257106
0.128053
0.27728
0.416684
0.541327
0.646793
0.729346
0.786062
0.814931
0.81493
0.786061
0.729345
0.646791
0.541325
0.416681
0.277277
0.12805
-0.0257132
-0.178566
-0.325092
-0.460102
-0.578813
-0.677019
-0.751241
-0.79885
-0.81816
-0.808485
-0.77017
-0.704571
-0.614013
-0.501702
-0.371619
-0.228371
-0.0770327
0.0770344
0.228373
0.371621
0.501704
0.614014
0.704572
0.770171
0.808486
0.81816
0.79885
0.75124
0.677018
0.578812
0.460101
0.325091
0.178564
0.0257115
-0.128052
-0.277279
-0.416683
-0.541326
-0.646792
-0.729346
-0.786061
-0.814931
-0.814931
-0.786061
-0.729345
-0.646792
-0.541325
-0.416682
-0.277278
-0.128051
0.0257123
0.178565
0.325091
0.460101
0.578812
0.677018
0.751241
0.79885
0.818159
0.808485
0.77017
0.704572
0.614013
0.501703
0.371619
0.228371
0.0770328
)
;

boundaryField
{
    inlet
    {
        type            cyclic;
    }
    outlet
    {
        type            cyclic;
    }
    bottom
    {
        type            slip;
    }
    top
    {
        type            slip;
    }
    frontAndBack
    {
        type            empty;
    }
}


// ************************************************************************* //
