/*--------------------------------*- C++ -*----------------------------------*\
  =========                 |
  \\      /  F ield         | OpenFOAM: The Open Source CFD Toolbox
   \\    /   O peration     | Website:  https://openfoam.org
    \\  /    A nd           | Version:  10
     \\/     M anipulation  |
\*---------------------------------------------------------------------------*/
FoamFile
{
    format      ascii;
    class       volScalarField;
    location    "2";
    object      T_0;
}
// * * * * * * * * * * * * * * * * * * * * * * * * * * * * * * * * * * * * * //

dimensions      [0 0 -1 0 0 0 0];

internalField   nonuniform List<scalar> 
100
(
-0.0769869
-0.228232
-0.371391
-0.501394
-0.613635
-0.704137
-0.769695
-0.807987
-0.817654
-0.798356
-0.750776
-0.676599
-0.578454
-0.459816
-0.324889
-0.178453
-0.0256947
0.127974
0.277108
0.416426
0.540992
0.646393
0.728896
0.785576
0.814428
0.814427
0.785576
0.728894
0.646392
0.54099
0.416424
0.277106
0.127971
-0.0256973
-0.178455
-0.324891
-0.459818
-0.578455
-0.676601
-0.750777
-0.798357
-0.817654
-0.807986
-0.769694
-0.704136
-0.613633
-0.501393
-0.37139
-0.22823
-0.0769851
0.0769869
0.228232
0.371391
0.501394
0.613635
0.704137
0.769695
0.807986
0.817654
0.798357
0.750777
0.6766
0.578454
0.459817
0.32489
0.178454
0.0256956
-0.127973
-0.277108
-0.416426
-0.540992
-0.646393
-0.728895
-0.785576
-0.814427
-0.814427
-0.785576
-0.728895
-0.646392
-0.540991
-0.416425
-0.277107
-0.127972
0.0256964
0.178454
0.324891
0.459817
0.578455
0.6766
0.750777
0.798357
0.817654
0.807986
0.769695
0.704136
0.613634
0.501393
0.37139
0.22823
0.0769852
)
;

boundaryField
{
    inlet
    {
        type            cyclic;
    }
    outlet
    {
        type            cyclic;
    }
    bottom
    {
        type            slip;
    }
    top
    {
        type            slip;
    }
    frontAndBack
    {
        type            empty;
    }
}


// ************************************************************************* //
