/*--------------------------------*- C++ -*----------------------------------*\
  =========                 |
  \\      /  F ield         | OpenFOAM: The Open Source CFD Toolbox
   \\    /   O peration     | Website:  https://openfoam.org
    \\  /    A nd           | Version:  10
     \\/     M anipulation  |
\*---------------------------------------------------------------------------*/
FoamFile
{
    format      ascii;
    class       volScalarField;
    location    "11";
    object      T;
}
// * * * * * * * * * * * * * * * * * * * * * * * * * * * * * * * * * * * * * //

dimensions      [0 0 -1 0 0 0 0];

internalField   nonuniform List<scalar> 
100
(
4.89868
14.6505
24.2723
33.6787
42.7861
51.5138
59.7842
67.524
74.6645
81.1422
86.8997
91.8859
96.0565
99.3745
101.81
103.343
103.958
103.65
102.422
100.285
97.2584
93.3682
88.6492
83.1434
76.8996
69.9733
62.4258
54.3243
45.7405
36.7508
27.4349
17.8755
8.15738
-1.63312
-11.4091
-21.0839
-30.5714
-39.7877
-48.6507
-57.082
-65.0066
-72.3541
-79.0595
-85.0631
-90.3117
-94.7587
-98.3646
-101.097
-102.933
-103.855
-103.855
-102.933
-101.097
-98.3646
-94.7587
-90.3117
-85.0631
-79.0594
-72.3541
-65.0065
-57.0819
-48.6506
-39.7876
-30.5713
-21.0837
-11.409
-1.633
8.15749
17.8756
27.435
36.7509
45.7407
54.3244
62.4259
69.9734
76.8997
83.1435
88.6493
93.3683
97.2585
100.285
102.422
103.65
103.958
103.343
101.81
99.3745
96.0565
91.8859
86.8997
81.1422
74.6645
67.524
59.7843
51.5138
42.7862
33.6787
24.2723
14.6505
4.89868
)
;

boundaryField
{
    xmin
    {
        type            fixedValue;
        value           uniform 0;
    }
    xmax
    {
        type            fixedValue;
        value           uniform 0;
    }
    frontAndBack
    {
        type            empty;
    }
}


// ************************************************************************* //
