/*--------------------------------*- C++ -*----------------------------------*\
  =========                 |
  \\      /  F ield         | OpenFOAM: The Open Source CFD Toolbox
   \\    /   O peration     | Website:  https://openfoam.org
    \\  /    A nd           | Version:  10
     \\/     M anipulation  |
\*---------------------------------------------------------------------------*/
FoamFile
{
    format      ascii;
    class       volScalarField;
    location    "11";
    object      T_0;
}
// * * * * * * * * * * * * * * * * * * * * * * * * * * * * * * * * * * * * * //

dimensions      [0 0 -1 0 0 0 0];

internalField   nonuniform List<scalar> 
100
(
4.9034
14.6646
24.2957
33.7112
42.8274
51.5634
59.8418
67.5891
74.7364
81.2204
86.9834
91.9744
96.149
99.4702
101.908
103.442
104.058
103.75
102.521
100.382
97.3522
93.4582
88.7347
83.2235
76.9737
70.0407
62.486
54.3766
45.7846
36.7862
27.4613
17.8927
8.16524
-1.63469
-11.4201
-21.1042
-30.6009
-39.826
-48.6976
-57.137
-65.0692
-72.4239
-79.1357
-85.1451
-90.3987
-94.85
-98.4594
-101.195
-103.032
-103.955
-103.955
-103.032
-101.195
-98.4593
-94.85
-90.3987
-85.145
-79.1356
-72.4238
-65.0691
-57.1369
-48.6975
-39.8259
-30.6008
-21.1041
-11.42
-1.63458
8.16535
17.8928
27.4615
36.7863
45.7847
54.3767
62.4861
70.0408
76.9738
83.2236
88.7348
93.4583
97.3522
100.382
102.521
103.75
104.058
103.442
101.909
99.4702
96.149
91.9744
86.9834
81.2204
74.7364
67.5891
59.8419
51.5635
42.8274
33.7112
24.2957
14.6646
4.9034
)
;

boundaryField
{
    xmin
    {
        type            fixedValue;
        value           uniform 0;
    }
    xmax
    {
        type            fixedValue;
        value           uniform 0;
    }
    frontAndBack
    {
        type            empty;
    }
}


// ************************************************************************* //
