/*--------------------------------*- C++ -*----------------------------------*\
  =========                 |
  \\      /  F ield         | OpenFOAM: The Open Source CFD Toolbox
   \\    /   O peration     | Website:  https://openfoam.org
    \\  /    A nd           | Version:  10
     \\/     M anipulation  |
\*---------------------------------------------------------------------------*/
FoamFile
{
    format      ascii;
    class       volScalarField;
    location    "50";
    object      T_0;
}
// * * * * * * * * * * * * * * * * * * * * * * * * * * * * * * * * * * * * * //

dimensions      [0 0 -1 0 0 0 0];

internalField   nonuniform List<scalar> 
100
(
0.114641
0.342858
0.568032
0.788165
1.0013
1.20555
1.3991
1.58023
1.74734
1.89893
2.03367
2.15037
2.24797
2.32562
2.38264
2.4185
2.4329
2.4257
2.39698
2.34698
2.27615
2.18511
2.07469
1.94585
1.79974
1.63765
1.46103
1.27145
1.07058
0.860208
0.642203
0.4185
0.191084
-0.0380267
-0.266798
-0.4932
-0.715223
-0.930895
-1.1383
-1.33561
-1.52105
-1.693
-1.84991
-1.9904
-2.11323
-2.21729
-2.30168
-2.36563
-2.40858
-2.43015
-2.43015
-2.40858
-2.36562
-2.30167
-2.21729
-2.11322
-1.9904
-1.8499
-1.69299
-1.52104
-1.33559
-1.13829
-0.930881
-0.715208
-0.493184
-0.266782
-0.0380097
0.191102
0.418518
0.642222
0.860227
1.0706
1.27147
1.46105
1.63767
1.79976
1.94587
2.07471
2.18513
2.27617
2.347
2.397
2.42572
2.43292
2.41852
2.38265
2.32564
2.24799
2.15038
2.03369
1.89894
1.74735
1.58024
1.39911
1.20556
1.00131
0.788169
0.568035
0.34286
0.114642
)
;

boundaryField
{
    xmin
    {
        type            fixedValue;
        value           uniform 0;
    }
    xmax
    {
        type            fixedValue;
        value           uniform 0;
    }
    frontAndBack
    {
        type            empty;
    }
}


// ************************************************************************* //
