/*--------------------------------*- C++ -*----------------------------------*\
  =========                 |
  \\      /  F ield         | OpenFOAM: The Open Source CFD Toolbox
   \\    /   O peration     | Website:  https://openfoam.org
    \\  /    A nd           | Version:  10
     \\/     M anipulation  |
\*---------------------------------------------------------------------------*/
FoamFile
{
    format      ascii;
    class       volScalarField;
    location    "6";
    object      T;
}
// * * * * * * * * * * * * * * * * * * * * * * * * * * * * * * * * * * * * * //

dimensions      [0 0 -1 0 0 0 0];

internalField   nonuniform List<scalar> 
100
(
7.92871
23.7125
39.2858
54.5103
69.2511
83.3772
96.7632
109.29
120.847
131.332
140.651
148.721
155.471
160.842
164.784
167.264
168.26
167.762
165.775
162.316
157.417
151.12
143.483
134.571
124.465
113.255
101.039
87.9262
74.033
59.4828
44.4046
28.9322
13.203
-2.64335
-18.4662
-34.1252
-49.4813
-64.3982
-78.7435
-92.3899
-105.216
-117.109
-127.961
-137.679
-146.174
-153.371
-159.208
-163.631
-166.602
-168.094
-168.094
-166.602
-163.631
-159.208
-153.371
-146.174
-137.679
-127.961
-117.108
-105.216
-92.3897
-78.7434
-64.3981
-49.4812
-34.1251
-18.4661
-2.64318
13.2032
28.9324
44.4047
59.4829
74.0332
87.9263
101.039
113.255
124.466
134.571
143.483
151.121
157.417
162.316
165.775
167.762
168.26
167.264
164.784
160.842
155.471
148.721
140.651
131.332
120.847
109.29
96.7632
83.3772
69.2511
54.5103
39.2857
23.7125
7.9287
)
;

boundaryField
{
    xmin
    {
        type            fixedValue;
        value           uniform 0;
    }
    xmax
    {
        type            fixedValue;
        value           uniform 0;
    }
    frontAndBack
    {
        type            empty;
    }
}


// ************************************************************************* //
