/*--------------------------------*- C++ -*----------------------------------*\
| =========                 |                                                 |
| \\      /  F ield         | OpenFOAM: The Open Source CFD Toolbox           |
|  \\    /   O peration     | Version:  2406                                  |
|   \\  /    A nd           | Website:  www.openfoam.com                      |
|    \\/     M anipulation  |                                                 |
\*---------------------------------------------------------------------------*/
FoamFile
{
    version     2.0;
    format      ascii;
    arch        "LSB;label=32;scalar=64";
    class       volScalarField;
    location    "25";
    object      p;
}
// * * * * * * * * * * * * * * * * * * * * * * * * * * * * * * * * * * * * * //

dimensions      [0 2 -2 0 0 0 0];

internalField   nonuniform List<scalar> 
1176
(
0.79699976
0.79702263
0.7970463
0.79705396
0.79702243
0.79692774
0.79677051
0.79658434
0.79640514
0.79623799
0.79608336
0.79598776
0.79598775
0.79608336
0.79623797
0.7964051
0.79658426
0.79677038
0.79692754
0.79702215
0.79705357
0.79704577
0.79702199
0.79699902
0.77385133
0.77380437
0.77375661
0.77373972
0.77380222
0.77400457
0.77436989
0.7748343
0.77526516
0.77555126
0.77567066
0.77570492
0.77570492
0.77567067
0.77555128
0.77526521
0.77483438
0.77437001
0.77400473
0.77380242
0.77373996
0.77375691
0.7738047
0.77385169
0.75676657
0.75678859
0.75680838
0.75680647
0.75674741
0.75658623
0.75631447
0.75598652
0.75568031
0.75546752
0.75535671
0.75530789
0.75530789
0.7553567
0.75546749
0.75568027
0.75598648
0.75631442
0.75658618
0.75674735
0.75680642
0.75680833
0.75678854
0.75676653
0.74009468
0.74010381
0.74011587
0.74013227
0.74015481
0.74017238
0.74014015
0.74000674
0.73977463
0.73950206
0.73927786
0.73915736
0.73915736
0.73927785
0.73950206
0.73977462
0.74000673
0.74014014
0.74017237
0.74015479
0.74013223
0.74011581
0.74010374
0.74009461
0.72367563
0.72367959
0.72368458
0.72369064
0.72370034
0.72372062
0.7237568
0.72379831
0.72381998
0.72379611
0.72373399
0.72368136
0.72368136
0.72373399
0.72379611
0.72381999
0.72379832
0.72375681
0.72372062
0.72370034
0.72369064
0.72368457
0.72367957
0.72367562
0.70721398
0.70721639
0.70721964
0.70722368
0.70722859
0.70723542
0.70724959
0.7072809
0.70733089
0.70738814
0.70743085
0.7074475
0.70744751
0.70743085
0.70738815
0.7073309
0.70728091
0.70724959
0.70723542
0.70722858
0.70722367
0.70721962
0.70721637
0.70721396
0.69080817
0.69081031
0.69081312
0.69081654
0.69082044
0.69082395
0.69082602
0.6908282
0.69083675
0.69085398
0.69087187
0.69088359
0.69088359
0.69087187
0.69085398
0.69083675
0.6908282
0.69082602
0.69082395
0.69082044
0.69081653
0.6908131
0.69081029
0.69080815
0.6744283
0.67443006
0.67443239
0.67443531
0.67443898
0.67444335
0.6744478
0.67445096
0.6744522
0.67445381
0.67445086
0.67444835
0.67444835
0.67445086
0.67445382
0.6744522
0.67445096
0.67444781
0.67444335
0.67443898
0.6744353
0.67443238
0.67443005
0.67442829
0.65807402
0.65807547
0.6580774
0.65807981
0.65808283
0.65808662
0.65809166
0.65809871
0.65810739
0.65811742
0.65812519
0.65812877
0.65812877
0.65812519
0.65811742
0.65810739
0.65809871
0.65809166
0.65808661
0.65808283
0.65807981
0.65807739
0.65807546
0.65807401
0.64173633
0.64173753
0.64173914
0.64174117
0.64174374
0.64174691
0.64175108
0.64175747
0.64176763
0.64178076
0.64179509
0.64180439
0.64180439
0.64179509
0.64178076
0.64176763
0.64175747
0.64175108
0.64174691
0.64174373
0.64174117
0.64173913
0.64173752
0.64173631
0.62541195
0.62541297
0.62541435
0.62541609
0.62541831
0.62542103
0.62542443
0.62542927
0.62543714
0.6254478
0.62546036
0.62546949
0.62546949
0.62546036
0.6254478
0.62543714
0.62542927
0.62542443
0.62542103
0.6254183
0.62541609
0.62541434
0.62541296
0.62541193
0.60909847
0.60909936
0.60910056
0.60910209
0.60910403
0.60910643
0.60910939
0.6091134
0.60911962
0.60912828
0.60913884
0.60914629
0.60914629
0.60913884
0.60912828
0.60911962
0.6091134
0.60910939
0.60910643
0.60910402
0.60910208
0.60910055
0.60909935
0.60909846
0.59279428
0.59279506
0.59279612
0.59279747
0.59279919
0.59280132
0.59280395
0.59280749
0.5928129
0.59282064
0.59283033
0.59283701
0.59283701
0.59283033
0.59282064
0.5928129
0.59280749
0.59280395
0.59280132
0.59279918
0.59279746
0.59279611
0.59279505
0.59279426
0.57649806
0.57649876
0.5764997
0.5765009
0.57650244
0.57650434
0.57650669
0.57650983
0.5765146
0.57652157
0.57653024
0.57653632
0.57653632
0.57653024
0.57652157
0.5765146
0.57650983
0.57650669
0.57650434
0.57650243
0.57650089
0.57649969
0.57649874
0.57649804
0.56020879
0.56020942
0.56021026
0.56021134
0.56021273
0.56021444
0.56021654
0.56021931
0.56022347
0.5602296
0.56023712
0.56024252
0.56024252
0.56023712
0.5602296
0.56022347
0.56021931
0.56021655
0.56021444
0.56021272
0.56021133
0.56021025
0.5602094
0.56020877
0.54392567
0.54392623
0.543927
0.54392798
0.54392923
0.54393079
0.54393268
0.54393514
0.54393877
0.54394415
0.54395069
0.54395548
0.54395548
0.54395069
0.54394415
0.54393878
0.54393514
0.54393268
0.54393079
0.54392923
0.54392797
0.54392699
0.54392622
0.54392565
0.52764804
0.52764856
0.52764925
0.52765014
0.52765129
0.52765271
0.52765443
0.52765663
0.52765985
0.52766461
0.52767034
0.52767463
0.52767463
0.52767034
0.52766461
0.52765985
0.52765663
0.52765443
0.5276527
0.52765128
0.52765014
0.52764924
0.52764854
0.52764802
0.51137536
0.51137583
0.51137647
0.51137729
0.51137833
0.51137963
0.5113812
0.51138319
0.51138607
0.51139032
0.51139537
0.51139923
0.51139923
0.51139537
0.51139032
0.51138607
0.51138319
0.5113812
0.51137963
0.51137833
0.51137728
0.51137646
0.51137582
0.51137534
0.49510717
0.4951076
0.49510818
0.49510893
0.4951099
0.49511109
0.49511253
0.49511434
0.49511691
0.49512072
0.49512521
0.4951287
0.4951287
0.49512521
0.49512072
0.49511691
0.49511434
0.49511253
0.49511109
0.49510989
0.49510893
0.49510817
0.49510759
0.49510715
0.47884306
0.47884346
0.47884399
0.47884469
0.47884557
0.47884667
0.478848
0.47884965
0.47885197
0.47885539
0.47885943
0.47886258
0.47886258
0.47885943
0.47885539
0.47885197
0.47884965
0.478848
0.47884667
0.47884557
0.47884468
0.47884398
0.47884344
0.47884304
0.46258268
0.46258305
0.46258355
0.46258419
0.46258501
0.46258603
0.46258725
0.46258876
0.46259087
0.46259397
0.46259761
0.46260048
0.46260048
0.46259761
0.46259397
0.46259087
0.46258876
0.46258725
0.46258603
0.46258501
0.46258419
0.46258355
0.46258305
0.46258268
0.44632575
0.44632609
0.44632656
0.44632715
0.44632791
0.44632885
0.44632999
0.44633138
0.44633329
0.44633611
0.44633942
0.44634203
0.44634203
0.44633942
0.44633611
0.44633329
0.44633138
0.44632999
0.44632885
0.44632791
0.44632714
0.44632655
0.44632609
0.44632575
0.43007199
0.4300723
0.43007273
0.43007328
0.43007399
0.43007487
0.43007592
0.4300772
0.43007896
0.43008153
0.43008456
0.43008694
0.43008694
0.43008456
0.43008153
0.43007895
0.4300772
0.43007592
0.43007487
0.43007399
0.43007328
0.43007274
0.43007231
0.43007199
0.41382115
0.41382145
0.41382185
0.41382236
0.41382302
0.41382384
0.41382482
0.41382601
0.41382761
0.41382997
0.41383275
0.41383494
0.41383494
0.41383275
0.41382997
0.41382761
0.413826
0.41382482
0.41382384
0.41382302
0.41382237
0.41382186
0.41382146
0.41382117
0.39757304
0.39757331
0.39757368
0.39757416
0.39757478
0.39757554
0.39757646
0.39757756
0.39757904
0.3975812
0.39758377
0.39758578
0.39758578
0.39758377
0.3975812
0.39757903
0.39757755
0.39757645
0.39757554
0.39757478
0.39757417
0.3975737
0.39757333
0.39757306
0.38132744
0.3813277
0.38132805
0.3813285
0.38132907
0.38132979
0.38133064
0.38133166
0.38133303
0.38133503
0.3813374
0.38133925
0.38133925
0.3813374
0.38133502
0.38133303
0.38133166
0.38133063
0.38132979
0.38132908
0.38132851
0.38132807
0.38132774
0.38132748
0.3650842
0.36508444
0.36508477
0.36508519
0.36508573
0.36508639
0.36508719
0.36508815
0.36508941
0.36509126
0.36509346
0.36509517
0.36509517
0.36509346
0.36509125
0.36508941
0.36508814
0.36508719
0.3650864
0.36508574
0.36508521
0.3650848
0.36508449
0.36508426
0.34884315
0.34884338
0.34884368
0.34884407
0.34884458
0.34884521
0.34884595
0.34884684
0.34884802
0.34884973
0.34885178
0.34885336
0.34885336
0.34885178
0.34884972
0.34884801
0.34884683
0.34884595
0.34884521
0.34884459
0.3488441
0.34884373
0.34884344
0.34884323
0.33260415
0.33260436
0.33260464
0.33260501
0.33260549
0.33260607
0.33260677
0.33260761
0.3326087
0.33261029
0.3326122
0.33261367
0.33261367
0.3326122
0.33261028
0.33260869
0.3326076
0.33260677
0.33260608
0.33260551
0.33260505
0.33260471
0.33260444
0.33260424
0.31636706
0.31636725
0.31636752
0.31636787
0.31636832
0.31636887
0.31636952
0.31637031
0.31637133
0.3163728
0.31637458
0.31637595
0.31637595
0.31637458
0.31637279
0.31637131
0.31637029
0.31636951
0.31636887
0.31636834
0.31636792
0.3163676
0.31636736
0.31636718
0.30013176
0.30013195
0.3001322
0.30013252
0.30013294
0.30013346
0.30013408
0.30013481
0.30013576
0.30013714
0.30013881
0.30014008
0.30014008
0.30013881
0.30013713
0.30013575
0.30013479
0.30013407
0.30013347
0.30013297
0.30013259
0.30013229
0.30013207
0.3001319
0.28389814
0.28389832
0.28389856
0.28389886
0.28389926
0.28389974
0.28390032
0.28390101
0.2839019
0.28390318
0.28390474
0.28390593
0.28390593
0.28390474
0.28390317
0.28390188
0.28390099
0.28390031
0.28389975
0.28389929
0.28389894
0.28389867
0.28389846
0.28389831
0.2676661
0.26766627
0.26766649
0.26766678
0.26766715
0.26766761
0.26766816
0.2676688
0.26766964
0.26767083
0.2676723
0.26767341
0.26767341
0.2676723
0.26767082
0.26766961
0.26766878
0.26766814
0.26766762
0.2676672
0.26766687
0.26766662
0.26766644
0.2676663
0.25143554
0.2514357
0.25143591
0.25143618
0.25143653
0.25143696
0.25143748
0.25143808
0.25143887
0.25143998
0.25144136
0.25144239
0.2514424
0.25144136
0.25143997
0.25143884
0.25143806
0.25143746
0.25143698
0.25143658
0.25143628
0.25143606
0.25143589
0.25143577
0.23520638
0.23520653
0.23520672
0.23520698
0.23520731
0.23520772
0.2352082
0.23520877
0.2352095
0.23521055
0.23521185
0.23521282
0.23521282
0.23521185
0.23521054
0.23520947
0.23520874
0.23520818
0.23520773
0.23520737
0.23520709
0.23520689
0.23520674
0.23520663
0.21897852
0.21897866
0.21897885
0.21897909
0.2189794
0.21897978
0.21898024
0.21898078
0.21898146
0.21898244
0.21898366
0.21898457
0.21898457
0.21898366
0.21898243
0.21898143
0.21898074
0.21898022
0.2189798
0.21897947
0.21897922
0.21897904
0.21897891
0.21897881
0.2027519
0.20275203
0.20275221
0.20275243
0.20275273
0.20275309
0.20275352
0.20275402
0.20275467
0.20275559
0.20275674
0.2027576
0.2027576
0.20275674
0.20275557
0.20275463
0.20275399
0.2027535
0.20275311
0.2027528
0.20275257
0.20275242
0.2027523
0.20275221
0.18652644
0.18652656
0.18652673
0.18652694
0.18652722
0.18652756
0.18652797
0.18652844
0.18652905
0.18652991
0.18653098
0.18653179
0.18653179
0.18653098
0.18652989
0.18652901
0.1865284
0.18652794
0.18652758
0.1865273
0.1865271
0.18652696
0.18652686
0.18652678
0.17030207
0.17030219
0.17030234
0.17030255
0.17030281
0.17030313
0.17030351
0.17030396
0.17030453
0.17030534
0.17030636
0.17030712
0.17030712
0.17030636
0.17030532
0.17030449
0.17030391
0.17030349
0.17030315
0.1703029
0.17030272
0.1703026
0.17030251
0.17030245
0.15407874
0.15407885
0.154079
0.15407919
0.15407943
0.15407974
0.1540801
0.15408052
0.15408106
0.15408181
0.15408276
0.15408347
0.15408347
0.15408276
0.15408179
0.15408101
0.15408047
0.15408008
0.15407977
0.15407953
0.15407937
0.15407927
0.1540792
0.15407915
0.13785638
0.13785648
0.13785662
0.1378568
0.13785703
0.13785732
0.13785766
0.13785806
0.13785856
0.13785927
0.13786017
0.13786084
0.13786085
0.13786017
0.13785925
0.13785851
0.137858
0.13785763
0.13785735
0.13785714
0.137857
0.13785691
0.13785685
0.13785681
0.12163495
0.12163505
0.12163518
0.12163535
0.12163557
0.12163584
0.12163616
0.12163653
0.121637
0.12163766
0.12163848
0.12163909
0.1216391
0.12163848
0.12163763
0.12163695
0.12163648
0.12163613
0.12163587
0.12163568
0.12163556
0.12163549
0.12163545
0.12163541
0.10541437
0.10541446
0.10541458
0.10541474
0.10541495
0.10541521
0.10541551
0.10541586
0.1054163
0.10541691
0.10541769
0.10541826
0.10541826
0.10541769
0.10541689
0.10541624
0.1054158
0.10541548
0.10541524
0.10541507
0.10541497
0.10541491
0.10541488
0.10541486
0.089194653
0.089194741
0.089194859
0.089195011
0.089195207
0.089195449
0.089195733
0.089196059
0.089196458
0.089196999
0.089197662
0.089198144
0.089198149
0.089197662
0.089196971
0.0891964
0.089195996
0.089195701
0.089195483
0.089195333
0.089195246
0.089195204
0.089195183
0.089195166
0.072975649
0.072975731
0.072975842
0.072975986
0.072976172
0.072976404
0.072976677
0.072976987
0.072977359
0.072977854
0.072978448
0.072978863
0.072978868
0.072978449
0.072977825
0.072977297
0.07297692
0.072976643
0.072976441
0.072976305
0.072976231
0.072976201
0.07297619
0.072976181
0.05675753
0.05675761
0.056757717
0.056757854
0.056758028
0.056758241
0.05675849
0.056758769
0.056759085
0.05675946
0.056759847
0.05676008
0.056760086
0.05675985
0.05675943
0.05675902
0.056758699
0.056758455
0.056758279
0.056758164
0.056758102
0.056758079
0.056758071
0.056758063
0.040539744
0.040539814
0.04053991
0.040540039
0.040540213
0.040540435
0.040540696
0.040540982
0.040541302
0.040541707
0.040542186
0.040542514
0.040542521
0.040542192
0.04054168
0.040541237
0.04054091
0.040540659
0.040540469
0.040540341
0.040540272
0.040540245
0.040540236
0.040540229
0.024323474
0.024323556
0.024323663
0.024323789
0.024323934
0.024324093
0.024324262
0.024324439
0.024324599
0.024324675
0.024324599
0.024324388
0.024324397
0.024324608
0.024324653
0.02432454
0.024324374
0.02432423
0.024324126
0.024324048
0.024323988
0.02432394
0.024323898
0.024323861
0.0081053769
0.0081054464
0.008105538
0.008105658
0.0081058172
0.008106015
0.0081062334
0.0081064692
0.0081068429
0.0081076767
0.0081091607
0.008110541
0.008110548
0.0081091702
0.0081076665
0.0081068072
0.0081064268
0.0081062116
0.0081060342
0.0081058865
0.0081057782
0.0081057033
0.0081056468
0.0081056008
)
;

boundaryField
{
    INLET
    {
        type            zeroGradient;
    }
    OUTLET
    {
        type            fixedValue;
        value           uniform 0;
    }
    WALL
    {
        type            zeroGradient;
    }
    frontAndBackPlanes
    {
        type            empty;
    }
}


// ************************************************************************* //
