/*--------------------------------*- C++ -*----------------------------------*\
| =========                 |                                                 |
| \\      /  F ield         | OpenFOAM: The Open Source CFD Toolbox           |
|  \\    /   O peration     | Version:  2406                                  |
|   \\  /    A nd           | Website:  www.openfoam.com                      |
|    \\/     M anipulation  |                                                 |
\*---------------------------------------------------------------------------*/
FoamFile
{
    version     2.0;
    format      ascii;
    arch        "LSB;label=32;scalar=64";
    class       surfaceScalarField;
    location    "25";
    object      phi;
}
// * * * * * * * * * * * * * * * * * * * * * * * * * * * * * * * * * * * * * //

dimensions      [0 3 -1 0 0 0 0];

oriented        oriented;

internalField   nonuniform List<scalar> 
2279
(
2.3617474e-08
1.0148926e-05
2.0509762e-07
4.982375e-05
6.9331758e-07
0.00014252872
1.5784715e-06
0.00034353082
2.6788475e-06
0.00075378089
3.347291e-06
0.0015415573
3.0435194e-06
0.0029497096
2.1516836e-06
0.005249171
1.4318033e-06
0.008582269
9.8959171e-07
0.012685995
5.1266766e-07
0.016666385
2.1452061e-12
0.01918202
-5.126586e-07
0.01918202
-9.8956557e-07
0.016666385
-1.4317398e-06
0.012685995
-2.1515458e-06
0.0085822689
-3.0432631e-06
0.0052491709
-3.3468641e-06
0.0029497095
-2.6782119e-06
0.0015415572
-1.5776995e-06
0.00075378077
-6.9256768e-07
0.00034353074
-2.0457506e-07
0.00014252867
-2.3367785e-08
4.9823728e-05
1.014892e-05
-9.5248448e-08
1.0244175e-05
-5.3794003e-07
5.0266441e-05
-1.6230011e-06
0.00014361378
-3.5389524e-06
0.00034544677
-5.9201868e-06
0.00075616213
-7.4055031e-06
0.0015430426
-6.5847285e-06
0.0029488888
-3.9361611e-06
0.0052465224
-1.3883902e-06
0.0085797213
-6.511997e-08
0.012684671
2.4240516e-07
0.016666078
-4.9579975e-12
0.019182263
-2.4241893e-07
0.019182263
6.5094626e-08
0.016666078
1.3883437e-06
0.012684671
3.9360844e-06
0.0085797213
6.5846079e-06
0.0052465225
7.4053185e-06
0.0029488889
5.919929e-06
0.0015430427
3.5386597e-06
0.00075616219
1.6227419e-06
0.00034544681
5.3777446e-07
0.00014361379
9.517782e-08
5.0266447e-05
1.0244176e-05
5.0139936e-08
1.0194035e-05
2.6334521e-07
5.0053236e-05
7.4910754e-07
0.00014312802
1.5314588e-06
0.00034466442
2.3366559e-06
0.00075535693
2.5476616e-06
0.0015428316
1.839095e-06
0.0029495974
9.7567276e-07
0.0052473859
6.7695615e-07
0.00858002
6.7178447e-07
0.012684677
4.8416224e-07
0.016666266
-1.9060433e-12
0.019182747
-4.8416791e-07
0.019182747
-6.7179285e-07
0.016666266
-6.7696196e-07
0.012684677
-9.7568054e-07
0.0085800199
-1.8391041e-06
0.0052473858
-2.5476651e-06
0.0029495974
-2.336657e-06
0.0015428316
-1.5314658e-06
0.00075535693
-7.4912604e-07
0.00034466442
-2.6336461e-07
0.00014312802
-5.0152611e-08
5.0053238e-05
1.0194036e-05
1.958677e-08
1.0174448e-05
1.118494e-07
4.9960974e-05
3.6128459e-07
0.00014287858
9.050482e-07
0.00034412066
1.8716602e-06
0.00075439032
3.0948231e-06
0.0015416085
3.8987225e-06
0.0029487935
3.7285523e-06
0.005247556
2.9242068e-06
0.0085808243
1.9733708e-06
0.012685627
1.0127687e-06
0.016667226
2.5260691e-12
0.01918376
-1.0127614e-06
0.01918376
-1.9733573e-06
0.016667226
-2.9241871e-06
0.012685627
-3.7285283e-06
0.0085808243
-3.8986913e-06
0.005247556
-3.0947737e-06
0.0029487935
-1.8715872e-06
0.0015416085
-9.0496187e-07
0.00075439032
-3.6120522e-07
0.00034412066
-1.1179573e-07
0.00014287858
-1.9561699e-08
4.9960973e-05
1.0174448e-05
8.0840803e-09
1.0166364e-05
4.7141833e-08
4.9921916e-05
1.5494755e-07
0.00014277078
3.9846407e-07
0.00034387714
8.7979549e-07
0.00075390899
1.7015166e-06
0.0015407867
2.7512742e-06
0.0029477437
3.4623591e-06
0.0052468449
3.4708583e-06
0.0085808158
2.8006827e-06
0.012686298
1.5505115e-06
0.016668476
-2.8768111e-12
0.01918531
-1.5505178e-06
0.01918531
-2.8006913e-06
0.016668476
-3.4708701e-06
0.012686298
-3.4623689e-06
0.0085808158
-2.7512743e-06
0.0052468449
-1.7015023e-06
0.0029477438
-8.7976942e-07
0.0015407868
-3.984346e-07
0.00075390899
-1.5492275e-07
0.00034387714
-4.7125626e-08
0.00014277078
-8.0764097e-09
4.9921917e-05
1.0166365e-05
4.9361013e-09
1.0161429e-05
2.8699404e-08
4.9898153e-05
9.5122391e-08
0.00014270436
2.4921561e-07
0.00034372305
5.6361054e-07
0.00075359459
1.1213753e-06
0.001540229
1.9184566e-06
0.0029469467
2.6588183e-06
0.0052461046
2.8930559e-06
0.0085805816
2.4787634e-06
0.012686712
1.4344232e-06
0.016669521
-3.6204257e-12
0.019186745
-1.4344322e-06
0.019186745
-2.478776e-06
0.016669521
-2.8930692e-06
0.012686712
-2.6588285e-06
0.0085805816
-1.9184567e-06
0.0052461046
-1.121362e-06
0.0029469467
-5.6358692e-07
0.001540229
-2.4918913e-07
0.00075359459
-9.5100484e-08
0.00034372305
-2.8685582e-08
0.00014270436
-4.9299334e-09
4.9898153e-05
1.0161429e-05
4.4125632e-09
1.0157016e-05
2.5526146e-08
4.987704e-05
8.3830889e-08
0.00014264605
2.1689508e-07
0.00034358999
4.8450177e-07
0.00075332699
9.5636058e-07
0.0015397571
1.641372e-06
0.0029462616
2.3245794e-06
0.0052454214
2.5939498e-06
0.0085803122
2.2393602e-06
0.012687066
1.3066715e-06
0.016670453
-2.8761984e-12
0.019188051
-1.3066796e-06
0.019188051
-2.2393731e-06
0.016670453
-2.5939646e-06
0.012687066
-2.3245901e-06
0.0085803122
-1.6413735e-06
0.0052454214
-9.5635096e-07
0.0029462617
-4.844835e-07
0.0015397571
-2.1687365e-07
0.00075332699
-8.3812173e-08
0.00034358999
-2.5513837e-08
0.00014264605
-4.4068667e-09
4.987704e-05
1.0157016e-05
3.6256721e-09
1.0153391e-05
2.1036868e-08
4.9859629e-05
6.94385e-08
0.00014259765
1.811418e-07
0.00034347828
4.0971424e-07
0.00075309841
8.2390288e-07
0.0015393429
1.4539902e-06
0.0029456316
2.1430722e-06
0.0052447323
2.4674698e-06
0.0085799878
2.1883912e-06
0.012687346
1.2866417e-06
0.016671355
-1.5386022e-12
0.019189338
-1.2866475e-06
0.019189338
-2.1884028e-06
0.016671355
-2.4674844e-06
0.012687346
-2.1430834e-06
0.0085799878
-1.453994e-06
0.0052447323
-8.2389845e-07
0.0029456316
-4.0970337e-07
0.0015393429
-1.8112811e-07
0.00075309841
-6.9426035e-08
0.00034347828
-2.1028412e-08
0.00014259765
-3.6216571e-09
4.9859629e-05
1.0153391e-05
2.9831804e-09
1.0150408e-05
1.7347062e-08
4.9845265e-05
5.737727e-08
0.00014255762
1.5007357e-07
0.00034338559
3.4097041e-07
0.00075290752
6.9193039e-07
0.001538992
1.2441065e-06
0.0029450794
1.9041831e-06
0.0052440722
2.3015978e-06
0.0085795904
2.0975067e-06
0.01268755
1.2520104e-06
0.016672201
-6.0974407e-13
0.01919059
-1.2520141e-06
0.01919059
-2.0975153e-06
0.016672201
-2.3016093e-06
0.01268755
-1.9041921e-06
0.0085795904
-1.2441101e-06
0.0052440722
-6.9192743e-07
0.0029450794
-3.4096179e-07
0.001538992
-1.50062e-07
0.00075290751
-5.7366338e-08
0.00034338559
-1.7339482e-08
0.00014255762
-2.9795413e-09
4.9845265e-05
1.0150408e-05
2.4653812e-09
1.0147942e-05
1.4362971e-08
4.9833367e-05
4.7626133e-08
0.00014252436
1.2502803e-07
0.00034330818
2.855879e-07
0.00075274696
5.84178e-07
0.0015386934
1.0641825e-06
0.0029445994
1.6641557e-06
0.0052434722
2.0898726e-06
0.0085791647
1.9528938e-06
0.012687687
1.1802451e-06
0.016672973
-2.6607034e-13
0.01919177
-1.1802474e-06
0.01919177
-1.9528996e-06
0.016672973
-2.0898804e-06
0.012687687
-1.6641621e-06
0.0085791647
-1.0641848e-06
0.0052434722
-5.8417448e-07
0.0029445994
-2.8557884e-07
0.0015386934
-1.2501589e-07
0.00075274695
-4.7614604e-08
0.00034330818
-1.4354943e-08
0.00014252436
-2.4615176e-09
4.9833367e-05
1.0147942e-05
2.1023259e-09
1.014584e-05
1.2257762e-08
4.9823212e-05
4.0687715e-08
0.00014249593
1.0698938e-07
0.00034324188
2.450774e-07
0.00075260887
5.0385171e-07
0.0015384346
9.2623333e-07
0.002944177
1.4715098e-06
0.005242927
1.8909074e-06
0.0085787453
1.8050226e-06
0.012687772
1.1036908e-06
0.016673675
-1.2927401e-13
0.019192874
-1.1036923e-06
0.019192874
-1.8050266e-06
0.016673675
-1.8909128e-06
0.012687772
-1.4715144e-06
0.0085787453
-9.2623424e-07
0.005242927
-5.0384674e-07
0.002944177
-2.4506669e-07
0.0015384346
-1.0697563e-07
0.00075260887
-4.0674891e-08
0.00034324188
-1.2248916e-08
0.00014249593
-2.0980923e-09
4.9823212e-05
1.014584e-05
1.8280813e-09
1.0144011e-05
1.0665152e-08
4.9814375e-05
3.5429735e-08
0.00014247116
9.3282246e-08
0.00034318403
2.1413825e-07
0.00075248801
4.4192655e-07
0.0015382068
8.1811247e-07
0.0029438008
1.3163798e-06
0.0052424287
1.7244937e-06
0.0085783372
1.6780436e-06
0.012687819
1.0378057e-06
0.016674315
5.3094162e-14
0.019193912
-1.0378066e-06
0.019193912
-1.6780464e-06
0.016674315
-1.7244979e-06
0.012687819
-1.3163833e-06
0.0085783372
-8.1811214e-07
0.0052424287
-4.4191984e-07
0.0029438008
-2.1412539e-07
0.0015382068
-9.3266296e-08
0.00075248801
-3.541514e-08
0.00034318403
-1.0655191e-08
0.00014247116
-1.8233469e-09
4.9814375e-05
1.0144011e-05
1.6103629e-09
1.0142401e-05
9.3993997e-09
4.9806585e-05
3.1244007e-08
0.00014244932
8.2339893e-08
0.00034313293
1.893201e-07
0.00075238103
3.9182237e-07
0.0015380043
7.2924082e-07
0.0029434634
1.1851452e-06
0.0052419728
1.5781757e-06
0.0085779442
1.5623407e-06
0.012687835
9.7669978e-07
0.0166749
4.1459239e-13
0.019194888
-9.7669984e-07
0.019194888
-1.5623428e-06
0.0166749
-1.5781793e-06
0.012687835
-1.1851482e-06
0.0085779442
-7.2923954e-07
0.0052419728
-3.9181407e-07
0.0029434634
-1.893051e-07
0.0015380043
-8.2321694e-08
0.00075238103
-3.1227551e-08
0.00034313293
-9.3882475e-09
0.00014244932
-1.6050865e-09
4.9806585e-05
1.0142401e-05
1.4322488e-09
1.0140969e-05
8.3628972e-09
4.9799655e-05
2.7812454e-08
0.00014242987
7.3352618e-08
0.00034308739
1.6886861e-07
0.00075228551
3.5026782e-07
0.0015378229
6.5458288e-07
0.0029431591
1.0720593e-06
0.0052415553
1.4464344e-06
0.0085775698
1.4548781e-06
0.012687826
9.1881155e-07
0.016675437
9.0129162e-13
0.019195807
-9.1881074e-07
0.019195807
-1.4548795e-06
0.016675437
-1.4464377e-06
0.012687826
-1.072062e-06
0.0085775698
-6.5458091e-07
0.0052415553
-3.5025822e-07
0.0029431591
-1.6885178e-07
0.0015378229
-7.333243e-08
0.00075228551
-2.7794321e-08
0.00034308739
-8.3506582e-09
0.00014242987
-1.426474e-09
4.9799655e-05
1.0140969e-05
1.2849969e-09
1.0139684e-05
7.5050913e-09
4.9793435e-05
2.4968891e-08
0.0001424124
6.5891219e-08
0.00034304647
1.5183819e-07
0.00075219957
3.1548557e-07
0.0015376593
5.9149699e-07
0.0029428831
9.7478764e-07
0.005241172
1.3297061e-06
0.0085772149
1.3567894e-06
0.012687799
8.6525451e-07
0.016675928
1.4012433e-12
0.019196672
-8.6525283e-07
0.019196672
-1.3567903e-06
0.016675928
-1.3297092e-06
0.012687799
-9.7479006e-07
0.0085772149
-5.914945e-07
0.005241172
-3.1547498e-07
0.0029428831
-1.5181993e-07
0.0015376593
-6.5869464e-08
0.00075219957
-2.4949432e-08
0.00034304647
-7.4919948e-09
0.0001424124
-1.2788297e-09
4.9793435e-05
1.0139684e-05
1.1615153e-09
1.0138522e-05
6.785281e-09
4.9787811e-05
2.2580592e-08
0.00014239661
5.9615581e-08
0.00034300944
1.3748133e-07
0.0007521217
2.8604703e-07
0.0015375107
5.3771166e-07
0.0029426314
8.9070709e-07
0.005240819
1.2263995e-06
0.0085768792
1.2674923e-06
0.012687758
8.1592963e-07
0.01667638
1.8622461e-12
0.019197488
-8.1592718e-07
0.019197488
-1.2674928e-06
0.01667638
-1.2264023e-06
0.012687758
-8.9070929e-07
0.0085768792
-5.3770879e-07
0.005240819
-2.8603575e-07
0.0029426314
-1.3746213e-07
0.0015375107
-5.9592847e-08
0.0007521217
-2.2560342e-08
0.00034300944
-6.7716948e-09
0.00014239661
-1.1551316e-09
4.9787811e-05
1.0138522e-05
1.0561774e-09
1.0137466e-05
6.1710515e-09
4.9782696e-05
2.0541447e-08
0.00014238224
5.4252223e-08
0.00034297572
1.251909e-07
0.00075205076
2.6076827e-07
0.0015373751
4.9125238e-07
0.0029424009
8.1722633e-07
0.005240493
1.1341855e-06
0.0085765622
1.1857935e-06
0.012687707
7.7021804e-07
0.016676795
2.2537514e-12
0.019198259
-7.7021492e-07
0.019198259
-1.1857936e-06
0.016676795
-1.1341882e-06
0.012687707
-8.1722832e-07
0.0085765622
-4.9124924e-07
0.005240493
-2.6075666e-07
0.0029424009
-1.2517139e-07
0.0015373751
-5.4229289e-08
0.00075205076
-2.0521139e-08
0.00034297573
-6.1574874e-09
0.00014238224
-1.0498243e-09
4.9782696e-05
1.0137466e-05
9.6515619e-10
1.0136501e-05
5.6401831e-09
4.9778021e-05
1.8778262e-08
0.0001423691
4.9611177e-08
0.00034294489
1.1454156e-07
0.00075198583
2.3881105e-07
0.0015372509
4.5070446e-07
0.002942189
7.5248385e-07
0.0052401913
1.0515018e-06
0.0085762632
1.1108346e-06
0.012687647
7.2769212e-07
0.016677178
2.5643841e-12
0.019198986
-7.2768847e-07
0.019198986
-1.1108343e-06
0.016677178
-1.0515041e-06
0.012687647
-7.5248556e-07
0.0085762632
-4.5070114e-07
0.0052401913
-2.3879954e-07
0.002942189
-1.1452252e-07
0.0015372509
-4.9589055e-08
0.00075198583
-1.875885e-08
0.00034294489
-5.6273068e-09
0.0001423691
-9.5915447e-10
4.9778021e-05
1.0136501e-05
8.8578266e-10
1.0135615e-05
5.1771356e-09
4.9773729e-05
1.7239692e-08
0.00014235704
4.5558618e-08
0.00034291657
1.0523189e-07
0.00075192616
2.1957628e-07
0.0015371365
4.1504245e-07
0.0029419936
6.9508995e-07
0.0052399112
9.7709592e-07
0.0085759812
1.0418703e-06
0.012687582
6.8800863e-07
0.016677532
2.8028332e-12
0.019199674
-6.8800454e-07
0.019199674
-1.0418696e-06
0.016677532
-9.7709785e-07
0.012687582
-6.9509127e-07
0.0085759812
-4.1503908e-07
0.0052399112
-2.1956543e-07
0.0029419936
-1.0521435e-07
0.0015371365
-4.5538597e-08
0.00075192616
-1.7222378e-08
0.00034291657
-5.1657783e-09
0.00014235704
-8.8053069e-10
4.977373e-05
1.0135615e-05
8.159683e-10
1.0134799e-05
4.7697619e-09
4.9769776e-05
1.5885633e-08
0.00014234592
4.1990044e-08
0.00034289047
9.7026203e-08
0.00075187112
2.025931e-07
0.0015370309
3.8344878e-07
0.0029418127
6.4389614e-07
0.0052396508
9.0984423e-07
0.0085757152
9.7823872e-07
0.012687514
6.5086989e-07
0.01667786
2.9865515e-12
0.019200325
-6.5086544e-07
0.019200325
-9.782376e-07
0.01667786
-9.0984553e-07
0.012687514
-6.4389686e-07
0.0085757152
-3.8344545e-07
0.0052396508
-2.0258358e-07
0.0029418127
-9.7011449e-08
0.0015370309
-4.1973709e-08
0.00075187112
-1.5871879e-08
0.00034289047
-4.7609257e-09
0.00014234592
-8.1194386e-10
4.9769776e-05
1.0134799e-05
7.5406525e-10
1.0134045e-05
4.408479e-09
4.9766121e-05
1.4684426e-08
0.00014233564
3.8822841e-08
0.00034286633
8.9737685e-08
0.00075182021
1.8748624e-07
0.0015369332
3.5526501e-07
0.0029416449
5.9795851e-07
0.0052394081
8.487896e-07
0.0085754644
9.1936936e-07
0.012687443
6.1601408e-07
0.016678163
3.1342989e-12
0.019200941
-6.1600926e-07
0.019200941
-9.1936759e-07
0.016678163
-8.4878991e-07
0.012687443
-5.9795833e-07
0.0085754644
-3.5526184e-07
0.0052394081
-1.8747888e-07
0.0029416449
-8.9727238e-08
0.0015369332
-3.8812072e-08
0.00075182021
-1.4675946e-08
0.00034286633
-4.4033324e-09
0.00014233564
-7.5182299e-10
4.9766121e-05
1.0134045e-05
6.9878436e-10
1.0133346e-05
4.0857902e-09
4.9762734e-05
1.3611276e-08
0.00014232612
3.5992167e-08
0.00034284395
8.321921e-08
0.00075177298
1.7395856e-07
0.0015368425
3.299646e-07
0.0029414889
5.5650727e-07
0.0052391815
7.9312167e-07
0.0085752278
8.6477073e-07
0.012687372
5.8323519e-07
0.016678444
3.2702108e-12
0.019201524
-5.8322991e-07
0.019201524
-8.6476799e-07
0.016678444
-7.9312047e-07
0.012687372
-5.5650579e-07
0.0085752278
-3.2996171e-07
0.0052391815
-1.7395432e-07
0.0029414889
-8.3214832e-08
0.0015368425
-3.5989111e-08
0.00075177298
-1.3610013e-08
0.00034284395
-4.0856513e-09
0.00014232612
-6.9894791e-10
4.9762734e-05
1.0133346e-05
6.4910828e-10
1.0132697e-05
3.7957795e-09
4.9759587e-05
1.2646598e-08
0.00014231727
3.3446749e-08
0.00034282315
7.7354179e-08
0.00075172907
1.6177368e-07
0.001536758
3.0712597e-07
0.0029413436
5.1891924e-07
0.0052389697
7.4217361e-07
0.0085750045
8.1401632e-07
0.0126873
5.5234613e-07
0.016678706
3.4162109e-12
0.019202077
-5.5234026e-07
0.019202077
-8.140122e-07
0.016678706
-7.4217031e-07
0.0126873
-5.1891599e-07
0.0085750046
-3.0712352e-07
0.0052389698
-1.6177366e-07
0.0029413436
-7.7357833e-08
0.001536758
-3.3453775e-08
0.00075172907
-1.2654687e-08
0.00034282315
-3.8020892e-09
0.00014231727
-6.5235774e-10
4.9759587e-05
1.0132697e-05
6.0422224e-10
1.0132092e-05
3.5337067e-09
4.9756657e-05
1.1774694e-08
0.00014230903
3.1145428e-08
0.00034280378
7.204882e-08
0.00075168817
1.5074088e-07
0.0015366793
2.8640673e-07
0.0029412079
4.8468126e-07
0.0052387715
6.9538145e-07
0.0085747938
7.6674619e-07
0.012687229
5.2320818e-07
0.01667895
3.583565e-12
0.0192026
-5.2320152e-07
0.0192026
-7.667402e-07
0.01667895
-6.9537536e-07
0.012687229
-4.8467576e-07
0.0085747939
-2.8640489e-07
0.0052387715
-1.5074627e-07
0.0029412079
-7.2062623e-08
0.0015366793
-3.1165074e-08
0.00075168817
-1.1794407e-08
0.00034280378
-3.5479962e-09
0.00014230903
-6.1127878e-10
4.9756657e-05
1.0132092e-05
5.6346781e-10
1.0131528e-05
3.2957375e-09
4.9753925e-05
1.0982852e-08
0.00014230134
2.9054863e-08
0.00034278571
6.7227076e-08
0.00075165
1.4070511e-07
0.0015366059
2.6752747e-07
0.0029410811
4.5337189e-07
0.0052385856
6.522763e-07
0.0085745949
7.2263845e-07
0.012687158
4.9567776e-07
0.016679177
3.7780414e-12
0.019203096
-4.9567013e-07
0.019203096
-7.2263006e-07
0.016679177
-6.5226669e-07
0.012687158
-4.5336363e-07
0.008574595
-2.6752645e-07
0.0052385856
-1.4071716e-07
0.0029410811
-6.7253247e-08
0.0015366059
-2.9089774e-08
0.00075165
-1.1016552e-08
0.0003427857
-3.3195922e-09
0.00014230134
-5.7507705e-10
4.9753924e-05
1.0131528e-05
5.2630679e-10
1.0131002e-05
3.0787335e-09
4.9751372e-05
1.0260665e-08
0.00014229416
2.7147716e-08
0.00034276882
6.2826492e-08
0.00075161432
1.3153873e-07
0.0015365372
2.5025686e-07
0.0029409624
4.246376e-07
0.0052384113
6.1245403e-07
0.0085744071
6.814253e-07
0.012687089
4.6966092e-07
0.016679388
3.9914549e-12
0.019203565
-4.6965211e-07
0.019203565
-6.8141396e-07
0.016679388
-6.1244018e-07
0.012687089
-4.2462608e-07
0.0085744071
-2.502569e-07
0.0052384113
-1.3155874e-07
0.0029409624
-6.2867295e-08
0.0015365372
-2.720058e-08
0.00075161432
-1.0310742e-08
0.00034276882
-3.1137571e-09
0.00014229416
-5.4322172e-10
4.9751371e-05
1.0131002e-05
4.9229633e-10
1.0130509e-05
2.8801087e-09
4.9748984e-05
9.5995474e-09
0.00014228744
2.5401438e-08
0.00034275302
5.879552e-08
0.00075158093
1.2313627e-07
0.0015364728
2.3440352e-07
0.0029408511
3.9818545e-07
0.0052382475
5.7557816e-07
0.0085742297
6.4285456e-07
0.012687022
4.4503628e-07
0.016679586
4.1979276e-12
0.01920401
-4.4502614e-07
0.01920401
-6.4283976e-07
0.016679586
-5.7555936e-07
0.012687022
-3.9817019e-07
0.0085742298
-2.3440484e-07
0.0052382475
-1.2316553e-07
0.0029408511
-5.8853212e-08
0.0015364728
-2.5474924e-08
0.00075158092
-9.668372e-09
0.00034275301
-2.927886e-09
0.00014228744
-5.1526022e-10
4.9748983e-05
1.0130509e-05
4.6106712e-10
1.0130048e-05
2.6977037e-09
4.9746747e-05
8.9923266e-09
0.00014228114
2.3797161e-08
0.00034273821
5.5090966e-08
0.00075154963
1.1540913e-07
0.0015364125
2.198057e-07
0.0029407467
3.7376409e-07
0.0052380935
5.4135118e-07
0.0085740622
6.0672601e-07
0.012686957
4.2174429e-07
0.016679771
4.3584311e-12
0.019204432
-4.2173273e-07
0.019204432
-6.0670728e-07
0.016679771
-5.4132674e-07
0.012686957
-3.7374461e-07
0.0085740622
-2.1980852e-07
0.0052380935
-1.1544891e-07
0.0029407467
-5.516774e-08
0.0015364125
-2.3893859e-08
0.00075154963
-9.0821932e-09
0.00034273821
-2.7597672e-09
0.00014228114
-4.9079781e-10
4.9746746e-05
1.0130048e-05
4.3230937e-10
1.0129615e-05
2.5297031e-09
4.9744649e-05
8.4329693e-09
0.00014227524
2.2319025e-08
0.00034272432
5.1676534e-08
0.00075152027
1.0828289e-07
0.0015363559
2.0632763e-07
0.0029406487
3.5116349e-07
0.0052379487
5.0952497e-07
0.0085739038
5.7283183e-07
0.012686893
3.9967033e-07
0.016679944
4.4368293e-12
0.019204832
-3.9965735e-07
0.019204832
-5.7280877e-07
0.016679944
-5.0949426e-07
0.012686893
-3.5113934e-07
0.0085739038
-2.0633218e-07
0.0052379487
-1.0833439e-07
0.0029406487
-5.1774472e-08
0.0015363559
-2.2441388e-08
0.00075152027
-8.5460473e-09
0.00034272432
-2.6074992e-09
0.00014227524
-4.6948366e-10
4.9744648e-05
1.0129615e-05
4.0576064e-10
1.0129209e-05
2.3745684e-09
4.9742679e-05
7.9163578e-09
0.0001422697
2.0953543e-08
0.00034271129
4.8521277e-08
0.00075149271
1.0169384e-07
0.0015363027
1.938523e-07
0.0029405565
3.3019903e-07
0.0052378123
4.7987446e-07
0.0085737541
5.4102537e-07
0.012686832
3.7878655e-07
0.016680107
4.3868995e-12
0.01920521
-3.7877224e-07
0.01920521
-5.4099767e-07
0.016680107
-4.7983691e-07
0.012686832
-3.3016982e-07
0.0085737541
-1.9385879e-07
0.0052378124
-1.0175819e-07
0.0029405565
-4.8642308e-08
0.0015363027
-2.1103839e-08
0.0007514927
-8.0546477e-09
0.00034271128
-2.4694285e-09
0.00014226969
-4.5100073e-10
4.9742679e-05
1.0129209e-05
3.8119616e-10
1.0128828e-05
2.230977e-09
4.9740829e-05
7.4380917e-09
0.00014226449
1.9689149e-08
0.00034269904
4.5598734e-08
0.0007514668
9.5587698e-08
0.0015362527
1.8228028e-07
0.0029404698
3.1071554e-07
0.0052376839
4.5221117e-07
0.0085736126
5.1112337e-07
0.012686773
3.5897169e-07
0.016680259
4.1655931e-12
0.019205569
-3.589562e-07
0.019205569
-5.1109079e-07
0.016680259
-4.5216632e-07
0.012686773
-3.106809e-07
0.0085736126
-1.8228889e-07
0.0052376839
-9.5665893e-08
0.0029404698
-4.57446e-08
0.0015362527
-1.9869419e-08
0.00075146679
-7.6033913e-09
0.00034269903
-2.3440957e-09
0.00014226449
-4.3505966e-10
4.9740828e-05
1.0128827e-05
3.5842459e-10
1.0128469e-05
2.0978065e-09
4.9739089e-05
6.9944318e-09
0.00014225959
1.8515961e-08
0.00034268751
4.2886137e-08
0.00075144243
8.9917371e-08
0.0015362057
1.7152455e-07
0.0029403882
2.9257402e-07
0.0052375629
4.2636228e-07
0.0085734788
4.8302804e-07
0.012686717
3.4023361e-07
0.016680402
3.7274445e-12
0.01920591
-3.4021722e-07
0.01920591
-4.8299044e-07
0.016680402
-4.263097e-07
0.012686717
-2.9253365e-07
0.0085734789
-1.7153546e-07
0.0052375629
-9.0010299e-08
0.0029403882
-4.3058358e-08
0.0015362057
-1.8727984e-08
0.00075144242
-7.1883035e-09
0.00034268751
-2.2302196e-09
0.00014225959
-4.2139443e-10
4.9739088e-05
1.0128469e-05
3.3727632e-10
1.0128131e-05
1.9740538e-09
4.9737452e-05
6.5820394e-09
0.00014225498
1.7425225e-08
0.00034267667
4.0363532e-08
0.00075141949
8.464198e-08
0.0015361614
1.6151003e-07
0.0029403113
2.7565608e-07
0.0052374487
4.0217864e-07
0.0085733523
4.5656209e-07
0.012686662
3.224297e-07
0.016680536
3.0486803e-12
0.019206232
-3.2241273e-07
0.019206232
-4.5651942e-07
0.016680536
-4.0211805e-07
0.012686662
-2.7560973e-07
0.0085733523
-1.6152338e-07
0.0052374487
-8.4750396e-08
0.0029403114
-4.0563396e-08
0.0015361614
-1.7670499e-08
0.00075141949
-6.8057953e-09
0.00034267667
-2.1266288e-09
0.00014225498
-4.0975632e-10
4.9737451e-05
1.0128131e-05
3.1761054e-10
1.0127813e-05
1.8588976e-09
4.9735911e-05
6.1981759e-09
0.00014225064
1.6409653e-08
0.00034266646
3.8013963e-08
0.00075139789
7.972617e-08
0.0015361197
1.5217103e-07
0.0029402389
2.5985619e-07
0.005237341
3.7952959e-07
0.0085732326
4.316808e-07
0.01268661
3.0561452e-07
0.016680662
2.1171214e-12
0.019206538
-3.0559736e-07
0.019206538
-4.316331e-07
0.016680662
-3.7946077e-07
0.01268661
-2.598037e-07
0.0085732327
-1.5218697e-07
0.0052373411
-7.9850702e-08
0.0029402389
-3.8242522e-08
0.0015361197
-1.6689393e-08
0.00075139788
-6.4528752e-09
0.00034266645
-2.032333e-09
0.00014225064
-3.9992521e-10
4.9735909e-05
1.0127813e-05
2.9929161e-10
1.0127514e-05
1.7515292e-09
4.9734458e-05
5.8401527e-09
0.00014224655
1.5462261e-08
0.00034265684
3.5821713e-08
0.00075137753
7.5138004e-08
0.0015360804
1.4344864e-07
0.0029401706
2.450795e-07
0.0052372394
3.5828743e-07
0.0085731194
4.0819052e-07
0.01268656
2.8960468e-07
0.01668078
9.3376856e-13
0.019206827
-2.8958778e-07
0.019206827
-4.0813792e-07
0.01668078
-3.5821027e-07
0.01268656
-2.4502076e-07
0.0085731195
-1.4346731e-07
0.0052372394
-7.5279153e-08
0.0029401706
-3.6079784e-08
0.0015360804
-1.57774e-08
0.00075137752
-6.1266043e-09
0.00034265683
-1.9463562e-09
0.00014224655
-3.9168728e-10
4.9734457e-05
1.0127514e-05
2.8222051e-10
1.0127232e-05
1.6513864e-09
4.9733089e-05
5.5060914e-09
0.0001422427
1.4577936e-08
0.00034264777
3.3774518e-08
0.00075135833
7.0851317e-08
0.0015360433
1.3529409e-07
0.0029401062
2.3124906e-07
0.0052371434
3.3836407e-07
0.0085730123
3.8611579e-07
0.012686512
2.7452156e-07
0.016680892
-5.707184e-13
0.019207102
-2.7450543e-07
0.019207102
-3.8605852e-07
0.016680892
-3.3827858e-07
0.012686512
-2.3118407e-07
0.0085730124
-1.3531563e-07
0.0052371435
-7.1009462e-08
0.0029401062
-3.4062679e-08
0.0015360433
-1.4929115e-08
0.00075135833
-5.8248393e-09
0.00034264776
-1.8679573e-09
0.0001422427
-3.8485925e-10
4.9733088e-05
1.0127231e-05
2.6627619e-10
1.0126965e-05
1.5577331e-09
4.9731798e-05
5.1935551e-09
0.00014223906
1.3750503e-08
0.00034263921
3.1858962e-08
0.00075134023
6.6839554e-08
0.0015360084
1.27658e-07
0.0029400453
2.1828093e-07
0.0052370528
3.1963154e-07
0.008572911
3.6521424e-07
0.012686467
2.6011281e-07
0.016680997
-2.4297978e-12
0.019207362
-2.6009797e-07
0.019207362
-3.6515256e-07
0.016680997
-3.1953784e-07
0.012686467
-2.1820976e-07
0.008572911
-1.2768258e-07
0.0052370529
-6.7014984e-08
0.0029400454
-3.2177607e-08
0.0015360084
-1.4138138e-08
0.00075134022
-5.5449445e-09
0.0003426392
-1.796268e-09
0.00014223906
-3.7925824e-10
4.9731796e-05
1.0126965e-05
2.5140792e-10
1.0126714e-05
1.4703203e-09
4.9730579e-05
4.9016996e-09
0.00014223563
1.2977342e-08
0.00034263114
3.0067769e-08
0.00075132314
6.3085681e-08
0.0015359753
1.2050862e-07
0.0029399879
2.0613073e-07
0.0052369672
3.0206018e-07
0.008572815
3.4561463e-07
0.012686423
2.4660041e-07
0.016681096
-4.6060863e-12
0.019207609
-2.4658739e-07
0.019207609
-3.455489e-07
0.016681096
-3.0195847e-07
0.012686423
-2.0605356e-07
0.0085728151
-1.205364e-07
0.0052369673
-6.32786e-08
0.0029399879
-3.041713e-08
0.0015359753
-1.3401659e-08
0.00075132313
-5.2859144e-09
0.00034263113
-1.730935e-09
0.00014223563
-3.7478585e-10
4.9730578e-05
1.0126714e-05
2.3748061e-10
1.0126477e-05
1.3882942e-09
4.9729429e-05
4.6277201e-09
0.0001422324
1.2251684e-08
0.00034262351
2.8387302e-08
0.00075130701
5.9564417e-08
0.0015359442
1.1379837e-07
0.0029399337
1.9470813e-07
0.0052368863
2.8548706e-07
0.0085727242
3.2697436e-07
0.012686382
2.3362058e-07
0.016681189
-7.0714598e-12
0.019207842
-2.336099e-07
0.019207842
-3.2690497e-07
0.016681189
-2.8537762e-07
0.012686382
-1.9462517e-07
0.0085727243
-1.1382954e-07
0.0052368864
-5.9774931e-08
0.0029399337
-2.8767371e-08
0.0015359442
-1.2712573e-08
0.000751307
-5.0446041e-09
0.00034262351
-1.6708604e-09
0.00014223239
-3.7118772e-10
4.9729427e-05
1.0126477e-05
2.2453358e-10
1.0126253e-05
1.311997e-09
4.9728343e-05
4.3726996e-09
0.00014222934
1.1575356e-08
0.00034261631
2.6818546e-08
0.00075129177
5.6272622e-08
0.0015359147
1.0752111e-07
0.0029398824
1.8402219e-07
0.0052368098
2.6998616e-07
0.0085726383
3.0959453e-07
0.012686342
2.2155171e-07
0.016681277
-9.7811897e-12
0.019208064
-2.2154385e-07
0.019208064
-3.095219e-07
0.016681277
-2.6986935e-07
0.012686342
-1.8393375e-07
0.0085726383
-1.0755588e-07
0.0052368099
-5.6500788e-08
0.0029398825
-2.7229206e-08
0.0015359147
-1.2072575e-08
0.00075129176
-4.8219852e-09
0.00034261631
-1.6163123e-09
0.00014222933
-3.6846743e-10
4.972834e-05
1.0126253e-05
2.1234594e-10
1.0126041e-05
1.239976e-09
4.9727316e-05
4.1319134e-09
0.00014222645
1.0937562e-08
0.00034260951
2.5341805e-08
0.00075127736
5.3177667e-08
0.0015358869
1.0161605e-07
0.002939834
1.7394292e-07
0.0052367375
2.5529532e-07
0.0085725569
2.9294904e-07
0.012686304
2.0985595e-07
0.01668136
-1.2645376e-11
0.019208274
-2.0985125e-07
0.019208274
-2.9287351e-07
0.01668136
-2.5517147e-07
0.012686304
-1.7384922e-07
0.008572557
-1.0165445e-07
0.0052367375
-5.3423279e-08
0.002939834
-2.5782617e-08
0.0015358869
-1.1470554e-08
0.00075127736
-4.6130986e-09
0.0003426095
-1.565701e-09
0.00014222644
-3.6634683e-10
4.9727314e-05
1.0126041e-05
2.0119723e-10
1.0125841e-05
1.1741301e-09
4.9726345e-05
3.9114614e-09
0.00014222371
1.0351499e-08
0.00034260307
2.3978449e-08
0.00075126374
5.0308777e-08
0.0015358606
9.6133425e-08
0.0029397882
1.6459356e-07
0.005236669
2.4169889e-07
0.0085724798
2.7764067e-07
0.012686268
1.9916269e-07
0.016681439
-1.548535e-11
0.019208473
-1.9916122e-07
0.019208473
-2.7756251e-07
0.016681439
-2.4156836e-07
0.012686269
-1.6449482e-07
0.0085724799
-9.6175364e-08
0.0052366691
-5.0571405e-08
0.0029397882
-2.444878e-08
0.0015358606
-1.0919594e-08
0.00075126373
-4.4239846e-09
0.00034260306
-1.5208978e-09
0.00014222371
-3.6509397e-10
4.9726342e-05
1.0125841e-05
1.9048314e-10
1.0125652e-05
1.1105324e-09
4.9725426e-05
3.6987498e-09
0.00014222113
9.7890851e-09
0.00034259699
2.2679783e-08
0.00075125085
4.7592612e-08
0.0015358356
9.0949895e-08
0.0029397448
1.5572107e-07
0.0052366042
2.287092e-07
0.0085724068
2.6283656e-07
0.012686234
1.8867828e-07
0.016681513
-1.8187105e-11
0.019208662
-1.8867983e-07
0.019208662
-2.6275578e-07
0.016681513
-2.2857243e-07
0.012686234
-1.5561782e-07
0.0085724069
-9.0995523e-08
0.0052366043
-4.7871856e-08
0.0029397449
-2.3178685e-08
0.0015358356
-1.0390915e-08
0.00075125084
-4.2411533e-09
0.00034259698
-1.4772331e-09
0.00014222112
-3.6370782e-10
4.9725424e-05
1.0125651e-05
1.8133694e-10
1.0125472e-05
1.0564293e-09
4.9724553e-05
3.5168263e-09
0.00014221867
9.3014376e-09
0.0003425912
2.1533714e-08
0.00075123862
4.5158502e-08
0.001535812
8.6271536e-08
0.0029397037
1.4772355e-07
0.0052365428
2.1705864e-07
0.0085723374
2.4968839e-07
0.012686202
1.7945338e-07
0.016681583
-2.0653693e-11
0.019208841
-1.7945737e-07
0.019208841
-2.4960451e-07
0.016681583
-2.1691617e-07
0.012686202
-1.4761737e-07
0.0085723375
-8.6322217e-08
0.0052365429
-4.5454191e-08
0.0029397038
-2.2058782e-08
0.001535812
-9.93261e-09
0.00075123861
-4.0840741e-09
0.00034259119
-1.4391446e-09
0.00014221866
-3.6187046e-10
4.9724551e-05
1.0125471e-05
1.704619e-10
1.0125303e-05
9.9206288e-10
4.9723734e-05
3.3044121e-09
0.00014221636
8.7533506e-09
0.00034258576
2.0308365e-08
0.00075122707
4.2680134e-08
0.0015357897
8.1661896e-08
0.0029396647
1.399438e-07
0.0052364845
2.0572479e-07
0.0085722717
2.3674035e-07
0.012686171
1.7027166e-07
0.01668165
-2.3266861e-11
0.019209011
-1.7027781e-07
0.019209011
-2.3665251e-07
0.01668165
-2.0557702e-07
0.012686171
-1.3983767e-07
0.0085722717
-8.1721509e-08
0.0052364846
-4.2994088e-08
0.0029396648
-2.0857844e-08
0.0015357897
-9.4089247e-09
0.00075122706
-3.8905201e-09
0.00034258575
-1.3860128e-09
0.00014221635
-3.5580321e-10
4.9723732e-05
1.0125302e-05
1.6588154e-10
1.0125139e-05
9.646756e-10
4.9722938e-05