/*--------------------------------*- C++ -*----------------------------------*\
| =========                 |                                                 |
| \\      /  F ield         | OpenFOAM: The Open Source CFD Toolbox           |
|  \\    /   O peration     | Version:  2406                                  |
|   \\  /    A nd           | Website:  www.openfoam.com                      |
|    \\/     M anipulation  |                                                 |
\*---------------------------------------------------------------------------*/
FoamFile
{
    version     2.0;
    format      ascii;
    arch        "LSB;label=32;scalar=64";
    class       volVectorField;
    location    "25";
    object      U;
}
// * * * * * * * * * * * * * * * * * * * * * * * * * * * * * * * * * * * * * //

dimensions      [0 1 -1 0 0 0 0];

internalField   nonuniform List<vector> 
1176
(
(0.019493789 7.0786293e-07 0)
(0.066677318 8.1696545e-06 0)
(0.13357994 3.9503158e-05 0)
(0.22724701 0.00010873575 0)
(0.35591522 0.00021176025 0)
(0.52772023 0.00030396282 0)
(0.74780387 0.00031818014 0)
(1.0136216 0.00024904581 0)
(1.3093323 0.00016666987 0)
(1.6017081 0.00011264671 0)
(1.8421723 7.0214022e-05 0)
(1.9793239 2.3940835e-05 0)
(1.9793239 -2.3940189e-05 0)
(1.8421723 -7.0212364e-05 0)
(1.6017081 -0.00011264256 0)
(1.3093323 -0.00016666061 0)
(1.0136215 -0.00024902741 0)
(0.74780384 -0.00031814713 0)
(0.5277202 -0.00030390933 0)
(0.35591518 -0.00021168696 0)
(0.22724697 -0.0001086576 0)
(0.13357991 -3.9438607e-05 0)
(0.066677299 -8.1335922e-06 0)
(0.019493782 -7.0004215e-07 0)
(0.020187017 -3.7419173e-06 0)
(0.068813532 -2.4638636e-05 0)
(0.13732107 -9.6548549e-05 0)
(0.23247391 -0.0002483946 0)
(0.36204617 -0.00047268783 0)
(0.53373557 -0.00067421189 0)
(0.75267407 -0.00069486955 0)
(1.0170176 -0.00049687385 0)
(1.3116385 -0.00023345939 0)
(1.6034438 -4.9824626e-05 0)
(1.8436588 1.9764504e-05 0)
(1.9807026 1.3427356e-05 0)
(1.9807026 -1.3428583e-05 0)
(1.8436588 -1.976657e-05 0)
(1.6034438 4.9820946e-05 0)
(1.3116385 0.00023345345 0)
(1.0170176 0.00049686476 0)
(0.75267407 0.00069485511 0)
(0.53373556 0.00067418967 0)
(0.36204616 0.00047265901 0)
(0.23247389 0.0002483663 0)
(0.13732105 9.6527408e-05 0)
(0.068813518 2.4627793e-05 0)
(0.020187012 3.7398351e-06 0)
(0.020018442 2.09184e-06 0)
(0.068327405 1.2720789e-05 0)
(0.13655405 4.6877287e-05 0)
(0.23159544 0.00011389743 0)
(0.36138709 0.00019769271 0)
(0.53366969 0.00023903235 0)
(0.75344344 0.00020559805 0)
(1.0184881 0.00011361091 0)
(1.3134639 7.4313255e-05 0)
(1.6053464 7.9532516e-05 0)
(1.8455118 7.0516224e-05 0)
(1.9825245 2.7825454e-05 0)
(1.9825245 -2.7825738e-05 0)
(1.8455118 -7.0516871e-05 0)
(1.6053464 -7.9533359e-05 0)
(1.3134639 -7.4314109e-05 0)
(1.0184881 -0.00011361168 0)
(0.75344344 -0.00020559907 0)
(0.53366969 -0.00023903246 0)
(0.3613871 -0.00019769284 0)
(0.23159546 -0.00011389871 0)
(0.13655406 -4.6879425e-05 0)
(0.068327413 -1.2722366e-05 0)
(0.020018445 -2.092281e-06 0)
(0.019966547 7.0076662e-07 0)
(0.068159232 4.6870578e-06 0)
(0.13624021 1.9355463e-05 0)
(0.2311194 5.6456206e-05 0)
(0.36078093 0.00013444569 0)
(0.53306293 0.00025829315 0)
(0.75295637 0.00035344726 0)
(1.0181104 0.00036911972 0)
(1.313184 0.00030758832 0)
(1.6051633 0.00022777194 0)
(1.8453995 0.00014555911 0)
(1.9824491 4.9997226e-05 0)
(1.9824491 -4.9996759e-05 0)
(1.8453995 -0.0001455583 0)
(1.6051633 -0.00022777036 0)
(1.313184 -0.00030758603 0)
(1.0181104 -0.00036911697 0)
(0.75295637 -0.00035344303 0)
(0.53306293 -0.00025828682 0)
(0.36078093 -0.00013443751 0)
(0.2311194 -5.6447782e-05 0)
(0.13624021 -1.9348807e-05 0)
(0.068159232 -4.6833807e-06 0)
(0.019966547 -6.9998886e-07 0)
(0.019942203 2.9077394e-07 0)
(0.068078703 1.9872295e-06 0)
(0.13608628 8.2361702e-06 0)
(0.23087699 2.3699408e-05 0)
(0.36044744 5.6881716e-05 0)
(0.53266448 0.00012306889 0)
(0.75256878 0.00022681808 0)
(1.017808 0.00032272192 0)
(1.3129044 0.0003457242 0)
(1.604912 0.00030729934 0)
(1.8452029 0.00021095273 0)
(1.9822898 7.4614207e-05 0)
(1.9822898 -7.4614843e-05 0)
(1.8452029 -0.0002109535 0)
(1.604912 -0.00030730023 0)
(1.3129044 -0.00034572524 0)
(1.017808 -0.00032272246 0)
(0.75256878 -0.00022681713 0)
(0.53266448 -0.00012306674 0)
(0.36044744 -5.6878853e-05 0)
(0.23087699 -2.3696687e-05 0)
(0.13608628 -8.2341564e-06 0)
(0.068078702 -1.9861065e-06 0)
(0.019942203 -2.9053068e-07 0)
(0.019933132 1.7182268e-07 0)
(0.068047755 1.1941135e-06 0)
(0.13602489 5.065273e-06 0)
(0.23077535 1.4968972e-05 0)
(0.36029899 3.6219669e-05 0)
(0.5324792 7.6944315e-05 0)
(0.75239427 0.00014713765 0)
(1.0177222 0.00023749005 0)
(1.3129292 0.00028525564 0)
(1.6049746 0.00027441458 0)
(1.8452865 0.00019644594 0)
(1.9823834 7.11767e-05 0)
(1.9823834 -7.1177491e-05 0)
(1.8452865 -0.000196447 0)
(1.6049746 -0.00027441583 0)
(1.3129292 -0.00028525672 0)
(1.0177222 -0.00023749059 0)
(0.75239428 -0.00014713696 0)
(0.5324792 -7.6942355e-05 0)
(0.36029899 -3.6217048e-05 0)
(0.23077535 -1.4966528e-05 0)
(0.13602489 -5.0635248e-06 0)
(0.068047756 -1.1931826e-06 0)
(0.019933132 -1.7163272e-07 0)
(0.0199234 1.558825e-07 0)
(0.068015507 1.0701085e-06 0)
(0.13596286 4.4935262e-06 0)
(0.23067607 1.319555e-05 0)
(0.36015773 3.1857212e-05 0)
(0.53230178 6.6958257e-05 0)
(0.75221429 0.00012411877 0)
(1.0176105 0.00019917027 0)
(1.3129358 0.00025490813 0)
(1.6050904 0.00024595146 0)
(1.8454579 0.00018127883 0)
(1.9825798 6.6548352e-05 0)
(1.9825798 -6.6549017e-05 0)
(1.8454579 -0.00018127983 0)
(1.6050904 -0.00024595282 0)
(1.3129358 -0.00025490934 0)
(1.0176105 -0.00019917087 0)
(0.75221429 -0.00012411835 0)
(0.53230178 -6.6956782e-05 0)
(0.36015773 -3.1855133e-05 0)
(0.23067607 -1.3193511e-05 0)
(0.13596286 -4.4919887e-06 0)
(0.068015507 -1.0692662e-06 0)
(0.0199234 -1.5570573e-07 0)
(0.019915697 1.2759074e-07 0)
(0.067989793 8.78037e-07 0)
(0.13591293 3.6960342e-06 0)
(0.23059503 1.0901641e-05 0)
(0.36003987 2.661336e-05 0)
(0.53214753 5.7237058e-05 0)
(0.75204133 0.0001091103 0)
(1.0174723 0.00017936598 0)
(1.3128926 0.00023802444 0)
(1.6051414 0.00023746732 0)
(1.8455877 0.00017750673 0)
(1.9827514 6.5539371e-05 0)
(1.9827514 -6.5539768e-05 0)
(1.8455877 -0.00017750752 0)
(1.6051414 -0.00023746862 0)
(1.3128926 -0.00023802573 0)
(1.0174723 -0.00017936674 0)
(0.75204133 -0.00010911025 0)
(0.53214753 -5.7236222e-05 0)
(0.36003987 -2.6612061e-05 0)
(0.23059503 -1.0900306e-05 0)
(0.13591293 -3.6949932e-06 0)
(0.067989793 -8.7745143e-07 0)
(0.019915697 -1.2746595e-07 0)
(0.019909217 1.0465992e-07 0)
(0.067968141 7.2314244e-07 0)
(0.13587084 3.0521081e-06 0)
(0.23052654 9.0118205e-06 0)
(0.35993984 2.199983e-05 0)
(0.53201542 4.747332e-05 0)
(0.75188901 9.2013852e-05 0)
(1.0173341 0.00015618159 0)
(1.3128278 0.00021699644 0)
(1.6051595 0.00022709607 0)
(1.8456699 0.00017232629 0)
(1.982868 6.4147728e-05 0)
(1.982868 -6.4147926e-05 0)
(1.8456699 -0.00017232685 0)
(1.6051595 -0.00022709708 0)
(1.3128278 -0.00021699749 0)
(1.0173341 -0.00015618222 0)
(0.75188901 -9.2013855e-05 0)
(0.53201542 -4.7472677e-05 0)
(0.35993984 -2.1998755e-05 0)
(0.23052654 -9.0106665e-06 0)
(0.13587084 -3.0511842e-06 0)
(0.067968141 -7.2261543e-07 0)
(0.019909217 -1.0454721e-07 0)
(0.019903971 8.6125686e-08 0)
(0.067950553 5.9695466e-07 0)
(0.13583649 2.5273565e-06 0)
(0.2304703 7.4915696e-06 0)
(0.35985692 1.8376219e-05 0)
(0.53190436 3.9835565e-05 0)
(0.75175837 7.7711983e-05 0)
(1.0172122 0.00013432413 0)
(1.3127613 0.00019323349 0)
(1.6051772 0.00021058336 0)
(1.8457533 0.00016272974 0)
(1.9829863 6.1084297e-05 0)
(1.9829863 -6.108441e-05 0)
(1.8457533 -0.00016273011 0)
(1.6051772 -0.00021058404 0)
(1.3127613 -0.00019323421 0)
(1.0172122 -0.00013432458 0)
(0.75175836 -7.7711895e-05 0)
(0.53190436 -3.9834873e-05 0)
(0.35985692 -1.8375093e-05 0)
(0.2304703 -7.4903562e-06 0)
(0.13583649 -2.5263802e-06 0)
(0.067950553 -5.9639637e-07 0)
(0.019903971 -8.6006018e-08 0)
(0.019899543 7.3353129e-08 0)
(0.067935688 5.089427e-07 0)
(0.13580742 2.1568484e-06 0)
(0.23042259 6.4027003e-06 0)
(0.35978626 1.5747504e-05 0)
(0.5318089 3.4277716e-05 0)
(0.75164409 6.7204479e-05 0)
(1.0171021 0.00011722981 0)
(1.3126976 0.00017262455 0)
(1.6051928 0.00019308903 0)
(1.8458371 0.00015219873 0)
(1.9831061 5.7544846e-05 0)
(1.9831061 -5.7544921e-05 0)
(1.8458371 -0.00015219899 0)
(1.6051928 -0.00019308949 0)
(1.3126976 -0.00017262505 0)
(1.0171021 -0.00011723009 0)
(0.75164409 -6.7204244e-05 0)
(0.5318089 -3.4276865e-05 0)
(0.35978626 -1.5746211e-05 0)
(0.23042259 -6.4013418e-06 0)
(0.13580742 -2.1557693e-06 0)
(0.067935688 -5.0832933e-07 0)
(0.019899543 -7.3221956e-08 0)
(0.019895721 6.3722525e-08 0)
(0.06792285 4.4249804e-07 0)
(0.13578228 1.8766942e-06 0)
(0.23038125 5.5764668e-06 0)
(0.35972483 1.3738611e-05 0)
(0.53172535 2.9997931e-05 0)
(0.75154264 5.9111485e-05 0)
(1.0170011 0.00010388813 0)
(1.3126345 0.0001554028 0)
(1.6052015 0.00017849534 0)
(1.8459125 0.00014271568 0)
(1.9832185 5.4330689e-05 0)
(1.9832185 -5.4330718e-05 0)
(1.8459125 -0.00014271585 0)
(1.6052015 -0.00017849569 0)
(1.3126344 -0.00015540318 0)
(1.0170011 -0.00010388829 0)
(0.75154264 -5.9111099e-05 0)
(0.53172535 -2.999688e-05 0)
(0.35972483 -1.3737095e-05 0)
(0.23038125 -5.5749095e-06 0)
(0.13578228 -1.8754741e-06 0)
(0.06792285 -4.4180963e-07 0)
(0.019895721 -6.3575801e-08 0)
(0.019892371 5.6086207e-08 0)
(0.067911587 3.8975899e-07 0)
(0.13576021 1.6540915e-06 0)
(0.2303449 4.9187247e-06 0)
(0.35967069 1.2131971e-05 0)
(0.53165136 2.6542402e-05 0)
(0.7514519 5.2498743e-05 0)
(1.0169086 9.2875677e-05 0)
(1.3125728 0.00014061494 0)
(1.605205 0.00016529632 0)
(1.8459798 0.00013398947 0)
(1.9833221 5.1387565e-05 0)
(1.9833221 -5.1387521e-05 0)
(1.8459798 -0.00013398957 0)
(1.605205 -0.00016529659 0)
(1.3125728 -0.00014061527 0)
(1.0169086 -9.2875759e-05 0)
(0.7514519 -5.249823e-05 0)
(0.53165136 -2.6541158e-05 0)
(0.35967069 -1.2130229e-05 0)
(0.2303449 -4.9169605e-06 0)
(0.13576021 -1.6527216e-06 0)
(0.067911587 -3.8898983e-07 0)
(0.019892371 -5.5922623e-08 0)
(0.019889403 4.9846879e-08 0)
(0.067901607 3.4660734e-07 0)
(0.13574064 1.471748e-06 0)
(0.23031264 4.3793751e-06 0)
(0.35962253 1.0812301e-05 0)
(0.53158531 2.3691405e-05 0)
(0.75137029 4.698414e-05 0)
(1.016824 8.3546321e-05 0)
(1.3125139 0.00012773755 0)
(1.6052051 0.00015293365 0)
(1.8460415 0.00012582061 0)
(1.9834196 4.8616662e-05 0)
(1.9834196 -4.8616529e-05 0)
(1.8460415 -0.00012582064 0)
(1.6052051 -0.00015293389 0)
(1.3125139 -0.00012773785 0)
(1.016824 -8.3546352e-05 0)
(0.75137029 -4.6983526e-05 0)
(0.53158531 -2.3689999e-05 0)
(0.35962253 -1.0810361e-05 0)
(0.23031264 -4.3774257e-06 0)
(0.13574064 -1.470242e-06 0)
(0.067901607 -3.457642e-07 0)
(0.019889403 -4.966779e-08 0)
(0.019886752 4.4698502e-08 0)
(0.067892685 3.1094182e-07 0)
(0.13572313 1.3208164e-06 0)
(0.23028375 3.9322104e-06 0)
(0.35957935 9.7158927e-06 0)
(0.53152592 2.1315613e-05 0)
(0.75129648 4.2360291e-05 0)
(1.0167465 7.561995e-05 0)
(1.3124581 0.00011654247 0)
(1.6052027 0.00014169895 0)
(1.8460982 0.00011827128 0)
(1.9835117 4.6031771e-05 0)
(1.9835117 -4.6031545e-05 0)
(1.8460982 -0.00011827125 0)
(1.6052027 -0.00014169914 0)
(1.3124581 -0.00011654274 0)
(1.0167465 -7.5619945e-05 0)
(0.75129648 -4.2359601e-05 0)
(0.53152592 -2.131408e-05 0)
(0.35957935 -9.7137965e-06 0)
(0.23028375 -3.930115e-06 0)
(0.13572313 -1.319203e-06 0)
(0.067892685 -3.1004036e-07 0)
(0.019886752 -4.4507214e-08 0)
(0.019884362 4.0386994e-08 0)
(0.067884644 2.8104177e-07 0)
(0.13570735 1.1941613e-06 0)
(0.23025769 3.5564978e-06 0)
(0.35954035 8.7929128e-06 0)
(0.53147216 1.9310063e-05 0)
(0.75122934 3.8440215e-05 0)
(1.0166753 6.8839034e-05 0)
(1.3124053 0.0001067837 0)
(1.6051983 0.00013155255 0)
(1.8461504 0.00011132832 0)
(1.9835985 4.3631392e-05 0)
(1.9835985 -4.3631083e-05 0)
(1.8461504 -0.00011132822 0)
(1.6051983 -0.0001315527 0)
(1.3124053 -0.00010678395 0)
(1.0166753 -6.8839002e-05 0)
(0.75122934 -3.8439472e-05 0)
(0.53147216 -1.9308446e-05 0)
(0.35954035 -8.7907176e-06 0)
(0.23025769 -3.5543135e-06 0)
(0.13570735 -1.1924853e-06 0)
(0.067884644 -2.8010747e-07 0)
(0.019884362 -4.0188964e-08 0)
(0.019882195 3.6712025e-08 0)
(0.067877349 2.5554095e-07 0)
(0.13569303 1.0860829e-06 0)
(0.23023403 3.2356357e-06 0)
(0.3595049 8.0035934e-06 0)
(0.5314232 1.7590955e-05 0)
(0.75116797 3.5067279e-05 0)
(1.0166096 6.2964245e-05 0)
(1.3123553 9.8203392e-05 0)
(1.6051923 0.0001223339 0)
(1.8461982 0.00010491348 0)
(1.9836803 4.1390731e-05 0)
(1.9836803 -4.1390352e-05 0)
(1.8461982 -0.00010491333 0)
(1.6051923 -0.00012233402 0)
(1.3123553 -9.8203624e-05 0)
(1.0166096 -6.2964191e-05 0)
(0.75116797 -3.5066506e-05 0)
(0.5314232 -1.7589306e-05 0)
(0.3595049 -8.001373e-06 0)
(0.23023403 -3.23344e-06 0)
(0.13569303 -1.0844065e-06 0)
(0.067877349 -2.546094e-07 0)
(0.019882195 -3.6514906e-08 0)
(0.019880219 3.3538693e-08 0)
(0.067870695 2.3351001e-07 0)
(0.13567996 9.926705e-07 0)
(0.23021243 2.9581477e-06 0)
(0.35947252 7.3202898e-06 0)
(0.53137842 1.6100144e-05 0)
(0.75111164 3.2133044e-05 0)
(1.0165488 5.7823487e-05 0)
(1.3123082 9.0602654e-05 0)
(1.6051852 0.00011395371 0)
(1.8462423 9.8956313e-05 0)
(1.9837576 3.9289244e-05 0)
(1.9837576 -3.9288809e-05 0)
(1.8462423 -9.8956112e-05 0)
(1.6051852 -0.0001139538 0)
(1.3123082 -9.060286e-05 0)
(1.0165488 -5.7823412e-05 0)
(0.75111164 -3.213227e-05 0)
(0.53137842 -1.6098528e-05 0)
(0.35947252 -7.3181395e-06 0)
(0.23021243 -2.9560412e-06 0)
(0.13567996 -9.9107453e-07 0)
(0.067870696 -2.3262749e-07 0)
(0.01988022 -3.3352415e-08 0)
(0.019878409 3.0773229e-08 0)
(0.0678646 2.1430136e-07 0)
(0.13566798 9.1119044e-07 0)
(0.23019263 2.7159693e-06 0)
(0.35944282 6.7234058e-06 0)
(0.53133728 1.4796003e-05 0)
(0.75105977 2.955971e-05 0)
(1.0164925 5.3292618e-05 0)
(1.3122638 8.3831751e-05 0)
(1.6051772 0.00010632434 0)
(1.846283 9.3403587e-05 0)
(1.9838307 3.7312727e-05 0)
(1.9838307 -3.7312249e-05 0)
(1.846283 -9.3403345e-05 0)
(1.6051772 -0.00010632439 0)
(1.3122638 -8.3831918e-05 0)
(1.0164925 -5.329252e-05 0)
(0.75105977 -2.9558968e-05 0)
(0.53133728 -1.4794505e-05 0)
(0.35944282 -6.7214474e-06 0)
(0.23019263 -2.7140792e-06 0)
(0.13566798 -9.0977613e-07 0)
(0.0678646 -2.1352551e-07 0)
(0.019878409 -3.0610123e-08 0)
(0.019876745 2.8342089e-08 0)
(0.067858993 1.9740804e-07 0)
(0.13565697 8.3950573e-07 0)
(0.23017441 2.5028025e-06 0)
(0.35941547 6.1976204e-06 0)
(0.53129936 1.364578e-05 0)
(0.75101183 2.7285326e-05 0)
(1.0164401 4.9271799e-05 0)
(1.3122219 7.7767873e-05 0)
(1.6051688 9.9356409e-05 0)
(1.8463207 8.8213911e-05 0)
(1.9838998 3.5449806e-05 0)
(1.9838998 -3.5449294e-05 0)
(1.8463207 -8.8213629e-05 0)
(1.6051688 -9.9356412e-05 0)
(1.3122219 -7.7767979e-05 0)
(1.0164401 -4.9271673e-05 0)
(0.75101183 -2.728466e-05 0)
(0.53129936 -1.3644504e-05 0)
(0.35941547 -6.1960043e-06 0)
(0.23017441 -2.5012842e-06 0)
(0.13565697 -8.3839558e-07 0)
(0.067858993 -1.968082e-07 0)
(0.019876745 -2.8216945e-08 0)
(0.019875209 2.6187337e-08 0)
(0.067853818 1.8243026e-07 0)
(0.1356468 7.7593041e-07 0)
(0.23015758 2.313676e-06 0)
(0.3593902 5.7308334e-06 0)
(0.5312643 1.2623541e-05 0)
(0.75096742 2.5260362e-05 0)
(1.0163914 4.5679617e-05 0)
(1.3121824 7.2308227e-05 0)
(1.6051599 9.2973664e-05 0)
(1.8463555 8.3350678e-05 0)
(1.9839652 3.3689829e-05 0)
(1.9839652 -3.3689287e-05 0)
(1.8463555 -8.3350347e-05 0)
(1.6051599 -9.2973587e-05 0)
(1.3121824 -7.2308239e-05 0)
(1.0163914 -4.5679453e-05 0)
(0.75096742 -2.5259822e-05 0)
(0.5312643 -1.2622613e-05 0)
(0.3593902 -5.7297388e-06 0)
(0.23015758 -2.3127127e-06 0)
(0.1356468 -7.7526763e-07 0)
(0.067853818 -1.8208712e-07 0)
(0.019875209 -2.6117336e-08 0)
(0.019873787 2.426377e-08 0)
(0.067849027 1.6905565e-07 0)
(0.13563738 7.1914562e-07 0)
(0.230142 2.1446942e-06 0)
(0.35936679 5.3135408e-06 0)
(0.53123178 1.1708863e-05 0)
(0.75092616 2.3445592e-05 0)
(1.016346 4.2450619e-05 0)
(1.3121452 6.7367785e-05 0)
(1.6051509 8.7107824e-05 0)
(1.8463878 7.8785547e-05 0)
(1.9840271 3.2024218e-05 0)
(1.9840271 -3.2023644e-05 0)
(1.8463878 -7.878515e-05 0)
(1.6051509 -8.7107627e-05 0)
(1.3121452 -6.7367655e-05 0)
(1.016346 -4.2450405e-05 0)
(0.75092616 -2.3445237e-05 0)
(0.53123178 -1.1708429e-05 0)
(0.35936679 -5.313173e-06 0)
(0.230142 -2.1444942e-06 0)
(0.13563738 -7.1909209e-07 0)
(0.067849027 -1.6906011e-07 0)
(0.019873787 -2.4268241e-08 0)
(0.019872467 2.2535771e-08 0)
(0.067844581 1.5703786e-07 0)
(0.13562864 6.6811067e-07 0)
(0.23012754 1.9927793e-06 0)
(0.35934505 4.9382194e-06 0)
(0.53120156 1.0885535e-05 0)
(0.75088776 2.1809796e-05 0)
(1.0163035 3.9532289e-05 0)
(1.31211 6.2876679e-05 0)
(1.6051418 8.1702387e-05 0)
(1.8464178 7.4492288e-05 0)
(1.9840857 3.0444831e-05 0)
(1.9840857 -3.0444219e-05 0)
(1.8464179 -7.4491798e-05 0)
(1.6051418 -8.1702021e-05 0)
(1.31211 -6.2876354e-05 0)
(1.0163035 -3.9532009e-05 0)
(0.75088776 -2.1809692e-05 0)
(0.53120156 -1.0885758e-05 0)
(0.35934505 -4.9388059e-06 0)
(0.23012754 -1.9935719e-06 0)
(0.13562864 -6.6884367e-07 0)
(0.067844581 -1.5748922e-07 0)
(0.019872467 -2.2635802e-08 0)
(0.01987124 2.0974839e-08 0)
(0.067840446 1.4617968e-07 0)
(0.13562051 6.2199181e-07 0)
(0.23011408 1.8554634e-06 0)
(0.35932481 4.5988254e-06 0)
(0.53117342 1.0140498e-05 0)
(0.75085195 2.0327717e-05 0)
(1.0162638 3.6881934e-05 0)
(1.3120768 5.8777199e-05 0)
(1.6051327 7.6707083e-05 0)
(1.8464458 7.0451785e-05 0)
(1.9841412 2.8945625e-05 0)
(1.9841412 -2.8944964e-05 0)
(1.8464458 -7.045117e-05 0)
(1.6051327 -7.6706488e-05 0)
(1.3120768 -5.8776619e-05 0)
(1.0162638 -3.6881571e-05 0)
(0.75085195 -2.0327938e-05 0)
(0.53117342 -1.0141555e-05 0)
(0.35932481 -4.6006102e-06 0)
(0.23011408 -1.8574932e-06 0)
(0.13562051 -6.2369994e-07 0)
(0.067840446 -1.4718335e-07 0)
(0.01987124 -2.1192797e-08 0)
(0.019870096 1.9557951e-08 0)
(0.067836592 1.3632165e-07 0)
(0.13561293 5.8011438e-07 0)
(0.23010153 1.730748e-06 0)
(0.35930594 4.2904613e-06 0)
(0.53114716 9.463155e-06 0)
(0.75081849 1.8978802e-05 0)
(1.0162266 3.4464563e-05 0)
(1.3120455 5.5021214e-05 0)
(1.6051237 7.2081122e-05 0)
(1.8464718 6.6643266e-05 0)
(1.9841938 2.7520166e-05 0)
(1.9841938 -2.7519447e-05 0)
(1.8464718 -6.6642492e-05 0)
(1.6051237 -7.2080236e-05 0)
(1.3120455 -5.5020318e-05 0)
(1.0162266 -3.4464105e-05 0)
(0.75081849 -1.8979426e-05 0)
(0.53114716 -9.4652304e-06 0)
(0.35930594 -4.2936995e-06 0)
(0.23010153 -1.7342695e-06 0)
(0.13561293 -5.8299318e-07 0)
(0.067836592 -1.3798672e-07 0)
(0.019870096 -1.9916969e-08 0)
(0.019869029 1.82663e-08 0)
(0.067832994 1.273334e-07 0)
(0.13560586 5.4192622e-07 0)
(0.23008981 1.616996e-06 0)
(0.35928832 4.0091088e-06 0)
(0.53112262 8.8447909e-06 0)
(0.75078719 1.7746102e-05 0)
(1.0161917 3.2251238e-05 0)
(1.312016 5.1568528e-05 0)
(1.6051149 6.7786666e-05 0)
(1.846496 6.3053509e-05 0)
(1.9842437 2.6164423e-05 0)
(1.9842437 -2.6163637e-05 0)
(1.846496 -6.3052541e-05 0)
(1.6051149 -6.7785427e-05 0)
(1.312016 -5.1567253e-05 0)
(1.0161917 -3.2250671e-05 0)
(0.75078719 -1.774721e-05 0)
(0.53112262 -8.8480748e-06 0)
(0.35928831 -4.0140599e-06 0)
(0.23008981 -1.6222674e-06 0)
(0.13560586 -5.4617362e-07 0)
(0.067832994 -1.2977013e-07 0)
(0.019869029 -1.8789739e-08 0)
(0.019868031 1.7084411e-08 0)
(0.067829631 1.1910757e-07 0)
(0.13559924 5.0697209e-07 0)
(0.23007886 1.5128569e-06 0)
(0.35927183 3.7514532e-06 0)
(0.53109966 8.2782158e-06 0)
(0.75075788 1.6615609e-05 0)
(1.0161589 3.0217873e-05 0)
(1.311988 4.8385112e-05 0)
(1.6051063 6.3794101e-05 0)
(1.8465187 5.9664316e-05 0)
(1.9842909 2.4873034e-05 0)
(1.9842909 -2.4872175e-05 0)
(1.8465187 -5.9663122e-05 0)
(1.6051063 -6.3792448e-05 0)
(1.311988 -4.8383397e-05 0)
(1.0161589 -3.0217185e-05 0)
(0.75075788 -1.6617283e-05 0)
(0.53109966 -8.2828969e-06 0)
(0.35927183 -3.758375e-06 0)
(0.23007886 -1.5201342e-06 0)
(0.13559924 -5.1278388e-07 0)
(0.06782963 -1.2242488e-07 0)
(0.019868031 -1.7795334e-08 0)
(0.019867097 1.5999383e-08 0)
(0.067826482 1.1155458e-07 0)
(0.13559305 4.7487191e-07 0)
(0.2300686 1.4172021e-06 0)
(0.35925639 3.5147183e-06 0)
(0.53107814 7.7573918e-06 0)
(0.75073038 1.5575535e-05 0)
(1.0161281 2.8344215e-05 0)
(1.3119617 4.5442311e-05 0)
(1.6050979 6.0073913e-05 0)
(1.8465398 5.6467241e-05 0)
(1.9843356 2.3643678e-05 0)
(1.9843356 -2.3642749e-05 0)
(1.8465398 -5.6465793e-05 0)
(1.6050979 -6.0071789e-05 0)
(1.3119617 -4.54401e-05 0)
(1.0161281 -2.8343393e-05 0)
(0.75073038 -1.5577853e-05 0)
(0.53107814 -7.7636542e-06 0)
(0.35925639 -3.5238613e-06 0)
(0.2300686 -1.4267334e-06 0)
(0.13559305 -4.8243757e-07 0)
(0.067826481 -1.1585775e-07 0)
(0.019867096 -1.6920064e-08 0)
(0.019866221 1.5000391e-08 0)
(0.067823531 1.0459918e-07 0)
(0.13558724 4.4530589e-07 0)
(0.23005898 1.329082e-06 0)
(0.35924191 3.2965718e-06 0)
(0.53105796 7.2772528e-06 0)
(0.75070457 1.4615975e-05 0)
(1.0160992 2.6613075e-05 0)
(1.3119367 4.2715287e-05 0)
(1.6050897 5.6604428e-05 0)
(1.8465596 5.3444702e-05 0)
(1.984378 2.2471371e-05 0)
(1.984378 -2.2470382e-05 0)
(1.8465596 -5.3442981e-05 0)
(1.6050897 -5.6601784e-05 0)
(1.3119367 -4.2712526e-05 0)
(1.0160992 -2.661211e-05 0)
(0.75070457 -1.4619013e-05 0)
(0.53105796 -7.2852709e-06 0)
(0.35924191 -3.3081734e-06 0)
(0.23005898 -1.3411021e-06 0)
(0.13558724 -4.5480439e-07 0)
(0.06782353 -1.0998752e-07 0)
(0.019866221 -1.6151832e-08 0)
(0.0198654 1.4078268e-08 0)
(0.067820762 9.8177654e-08 0)
(0.1355818 4.1800318e-07 0)
(0.23004996 1.2476909e-06 0)
(0.35922832 3.0950266e-06 0)
(0.53103901 6.8334639e-06 0)
(0.75068032 1.3728437e-05 0)
(1.0160719 2.5009823e-05 0)
(1.3119132 4.0183145e-05 0)
(1.6050818 5.3361714e-05 0)
(1.8465781 5.0592881e-05 0)
(1.9844182 2.1355356e-05 0)
(1.9844182 -2.1354324e-05 0)
(1.8465781 -5.0590876e-05 0)
(1.6050819 -5.3358505e-05 0)
(1.3119132 -4.0179785e-05 0)
(1.0160719 -2.5008704e-05 0)
(0.75068033 -1.3732266e-05 0)
(0.53103901 -6.8433993e-06 0)
(0.35922832 -3.1093065e-06 0)
(0.23004995 -1.2624164e-06 0)
(0.13558179 -4.2959938e-07 0)
(0.067820761 -1.0474255e-07 0)
(0.019865399 -1.5479775e-08 0)
(0.019864628 1.3225161e-08 0)
(0.067818161 9.2235235e-08 0)
(0.13557668 3.9273056e-07 0)
(0.23004148 1.1723361e-06 0)
(0.35921555 2.9083831e-06 0)
(0.5310212 6.4223342e-06 0)
(0.75065752 1.2905684e-05 0)
(1.0160463 2.3521755e-05 0)
(1.3118909 3.7827066e-05 0)
(1.6050743 5.0329943e-05 0)
(1.8465955 4.7893032e-05 0)
(1.9844563 2.0290317e-05 0)
(1.9844563 -2.028927e-05 0)
(1.8465955 -4.7890741e-05 0)
(1.6050743 -5.0326135e-05 0)
(1.3118909 -3.7823064e-05 0)
(1.0160463 -2.3520474e-05 0)
(0.75065752 -1.2910366e-05 0)
(0.5310212 -6.4343327e-06 0)
(0.35921555 -2.9255391e-06 0)
(0.23004148 -1.189962e-06 0)
(0.13557668 -4.0657251e-07 0)
(0.06781816 -1.0005862e-07 0)
(0.019864628 -1.4894036e-08 0)
(0.019863903 1.2434385e-08 0)
(0.067815716 8.6725523e-08 0)
(0.13557187 3.6929051e-07 0)
(0.23003351 1.1024284e-06 0)
(0.35920355 2.7351815e-06 0)
(0.53100445 6.0406635e-06 0)
(0.75063606 1.2141429e-05 0)
(1.0160221 2.2138065e-05 0)
(1.3118699 3.5631665e-05 0)
(1.6050669 4.7489072e-05 0)
(1.8466118 4.5346671e-05 0)
(1.9844924 1.9277205e-05 0)
(1.9844924 -1.927618e-05 0)
(1.8466118 -4.53441e-05 0)
(1.6050669 -4.7484638e-05 0)
(1.3118699 -3.5626987e-05 0)
(1.0160221 -2.2136615e-05 0)
(0.75063606 -1.214702e-05 0)
(0.53100445 -6.0548527e-06 0)
(0.35920355 -2.7553862e-06 0)
(0.23003351 -1.1231241e-06 0)
(0.13557187 -3.8550671e-07 0)
(0.067815715 -9.5878435e-08 0)
(0.019863903 -1.4385617e-08 0)
(0.019863221 1.1700017e-08 0)
(0.067813417 8.160697e-08 0)
(0.13556735 3.475058e-07 0)
(0.23002601 1.0374427e-06 0)
(0.35919226 2.5741389e-06 0)
(0.53098868 5.6856768e-06 0)
(0.75061585 1.1430216e-05 0)
(1.0159993 2.0849004e-05 0)
(1.31185 3.3581987e-05 0)
(1.6050599 4.4827573e-05 0)
(1.8466272 4.2931885e-05 0)
(1.9845266 1.8309589e-05 0)
(1.9845266 -1.8308629e-05 0)
(1.8466272 -4.2929048e-05 0)
(1.6050599 -4.4822496e-05 0)
(1.31185 -3.3576605e-05 0)
(1.0159993 -2.084738e-05 0)
(0.75061586 -1.1436763e-05 0)
(0.53098868 -5.7021647e-06 0)
(0.35919225 -2.5975378e-06 0)
(0.23002601 -1.0613506e-06 0)
(0.13556734 -3.6620402e-07 0)
(0.067813415 -9.2148853e-08 0)
(0.01986322 -1.3946135e-08 0)
(0.019862579 1.1017142e-08 0)
(0.067811252 7.6845714e-08 0)
(0.13556309 3.272324e-07 0)
(0.23001895 9.7694639e-07 0)
(0.35918162 2.4241726e-06 0)
(0.53097384 5.3549741e-06 0)
(0.75059681 1.0767315e-05 0)
(1.0159778 1.9646559e-05 0)
(1.3118312 3.1666956e-05 0)
(1.6050532 4.2328464e-05 0)
(1.8466415 4.0657095e-05 0)
(1.984559 1.7390647e-05 0)
(1.984559 -1.73898e-05 0)
(1.8466415 -4.0654015e-05 0)
(1.6050532 -4.2322737e-05 0)
(1.3118312 -3.166085e-05 0)
(1.0159778 -1.9644759e-05 0)
(0.75059682 -1.0774858e-05 0)
(0.53097384 -5.3738494e-06 0)
(0.35918162 -2.4508839e-06 0)
(0.23001895 -1.004182e-06 0)
(0.13556308 -3.4849952e-07 0)
(0.06781125 -8.8824386e-08 0)
(0.019862578 -1.3568218e-08 0)
(0.019861974 1.0381023e-08 0)
(0.067809213 7.2408146e-08 0)
(0.13555908 3.0832677e-07 0)
(0.2300123 9.2051781e-07 0)
(0.3591716 2.2842671e-06 0)
(0.53095985 5.0463893e-06 0)
(0.75057886 1.014846e-05 0)
(1.0159575 1.8522859e-05 0)
(1.3118134 2.9873759e-05 0)
(1.6050467 3.9982978e-05 0)
(1.8466551 3.8494587e-05 0)
(1.9845898 1.6511818e-05 0)
(1.9845898 -1.6511135e-05 0)
(1.8466551 -3.849129e-05 0)
(1.6050467 -3.9976602e-05 0)
(1.3118134 -2.9866919e-05 0)
(1.0159576 -1.8520885e-05 0)
(0.75057887 -1.0157032e-05 0)
(0.53095985 -5.0677212e-06 0)
(0.3591716 -2.3143822e-06 0)
(0.2300123 -9.5116918e-07 0)
(0.13555907 -3.3222899e-07 0)
(0.067809211 -8.585995e-08 0)
(0.019861974 -1.3244709e-08 0)
(0.019861404 9.7882156e-09 0)
(0.067807292 6.8271205e-08 0)
(0.13555529 2.9069148e-07 0)
(0.23000603 8.6785855e-07 0)
(0.35916216 2.1536488e-06 0)
(0.53094666 4.7581518e-06 0)
(0.75056194 9.5701412e-06 0)
(1.0159384 1.7472217e-05 0)
(1.3117965 2.8195348e-05 0)
(1.6050405 3.7777433e-05 0)
(1.8466678 3.6462399e-05 0)
(1.9846188 1.5679523e-05 0)
(1.9846188 -1.5679059e-05 0)
(1.8466678 -3.6458921e-05 0)
(1.6050405 -3.7770419e-05 0)
(1.3117965 -2.8187772e-05 0)
(1.0159384 -1.7470074e-05 0)
(0.75056194 -9.5797697e-06 0)
(0.53094666 -4.7819905e-06 0)
(0.35916216 -2.187231e-06 0)
(0.23000603 -9.0198559e-07 0)
(0.13555529 -3.1727297e-07 0)
(0.06780729 -8.3220163e-08 0)
(0.019861404 -1.2969547e-08 0)
(0.019860867 9.2344885e-09 0)
(0.067805479 6.440405e-08 0)
(0.13555173 2.7419455e-07 0)
(0.23000012 8.1858898e-07 0)
(0.35915325 2.0314388e-06 0)
(0.53093422 4.4884575e-06 0)
(0.75054596 9.0288149e-06 0)
(1.0159203 1.6487692e-05 0)
(1.3117806 2.6619253e-05 0)
(1.6050346 3.5703592e-05 0)
(1.8466798 3.4523269e-05 0)
(1.9846465 1.4881609e-05 0)
(1.9846465 -1.4881419e-05 0)
(1.8466798 -3.4519648e-05 0)
(1.6050346 -3.5695959e-05 0)
(1.3117806 -2.6610951e-05 0)
(1.0159203 -1.6485391e-05 0)
(0.75054597 -9.0395216e-06 0)
(0.53093422 -4.5148383e-06 0)
(0.35915325 -2.06853e-06 0)
(0.23000012 -8.5623003e-07 0)
(0.13555172 -3.0348313e-07 0)
(0.067805477 -8.0865094e-08 0)
(0.019860866 -1.2736578e-08 0)
(0.01986036 8.7181114e-09 0)
(0.067803771 6.0796858e-08 0)
(0.13554837 2.58796e-07 0)
(0.22999455 7.7257005e-07 0)
(0.35914485 1.9172039e-06 0)
(0.53092248 4.2361722e-06 0)
(0.75053089 8.5221764e-06 0)
(1.0159032 1.5566097e-05 0)
(1.3117655 2.5143382e-05 0)
(1.605029 3.3753102e-05 0)
(1.846691 3.2709225e-05 0)
(1.9846726 1.4129492e-05 0)
(1.9846726 -1.412963e-05 0)
(1.846691 -3.2705508e-05 0)
(1.605029 -3.3744879e-05 0)
(1.3117655 -2.5134371e-05 0)
(1.0159033 -1.5563654e-05 0)
(0.7505309 -8.5339794e-06 0)
(0.53092248 -4.265117e-06 0)
(0.35914485 -1.9578274e-06 0)
(0.22999454 -8.1374566e-07 0)
(0.13554836 -2.9080646e-07 0)
(0.067803768 -7.8777839e-08 0)
(0.019860359 -1.2542624e-08 0)
(0.019859881 8.2343328e-09 0)
(0.067802156 5.7413315e-08 0)
(0.13554519 2.4433989e-07 0)
(0.22998928 7.2937027e-07 0)
(0.35913691 1.8100199e-06 0)
(0.53091139 3.9995563e-06 0)
(0.75051664 8.0468738e-06 0)
(1.0158871 1.4700228e-05 0)
(1.3117512 2.3752995e-05 0)
(1.6050236 3.1914244e-05 0)
(1.8467017 3.0968004e-05 0)
(1.9846975 1.3405218e-05 0)
(1.9846975 -1.3405736e-05 0)
(1.8467017 -3.0964235e-05 0)
(1.6050236 -3.1905464e-05 0)
(1.3117512 -2.37433e-05 0)
(1.0158871 -1.4697663e-05 0)
(0.75051665 -8.0597872e-06 0)
(0.53091139 -4.0310693e-06 0)
(0.35913691 -1.8541686e-06 0)
(0.22998928 -7.7406619e-07 0)
(0.13554519 -2.7905747e-07 0)
(0.067802154 -7.6904996e-08 0)
(0.019859881 -1.2379227e-08 0)
(0.01985943 7.7846535e-09 0)
(0.067800635 5.4269027e-08 0)
(0.13554219 2.308958e-07 0)
(0.22998432 6.8914468e-07 0)
(0.35912943 1.7100422e-06 0)
(0.53090093 3.7784804e-06 0)
(0.75050321 7.6024058e-06 0)
(1.0158719 1.3890781e-05 0)
(1.3117377 2.2454151e-05 0)
(1.6050185 3.0189467e-05 0)
(1.8467117 2.9352618e-05 0)
(1.9847208 1.2728125e-05 0)
(1.9847208 -1.2729067e-05 0)
(1.8467117 -2.9348841e-05 0)
(1.6050185 -3.0180167e-05 0)
(1.3117377 -2.2443804e-05 0)
(1.0158719 -1.3888118e-05 0)
(0.75050321 -7.6164415e-06 0)
(0.53090093 -3.8125565e-06 0)
(0.35912942 -1.7576963e-06 0)
(0.22998431 -7.3733424e-07 0)
(0.13554219 -2.682968e-07 0)
(0.067800632 -7.5256978e-08 0)
(0.019859429 -1.2246761e-08 0)
(0.019859003 7.361178e-09 0)
(0.067799193 5.130121e-08 0)
(0.13553936 2.1819369e-07 0)
(0.22997961 6.5117516e-07 0)
(0.35912234 1.6158618e-06 0)
(0.53089102 3.5706051e-06 0)
(0.75049047 7.1845479e-06 0)
(1.0158574 1.3128018e-05 0)
(1.3117249 2.1225069e-05 0)
(1.6050136 2.855604e-05 0)
(1.8467212 2.778799e-05 0)
(1.9847433 1.207116e-05 0)
(1.9847433 -1.2072553e-05 0)
(1.8467212 -2.778424e-05 0)
(1.6050136 -2.8546254e-05 0)
(1.3117249 -2.1214096e-05 0)
(1.0158574 -1.312527e-05 0)
(0.75049047 -7.1996965e-06 0)
(0.53089102 -3.607209e-06 0)
(0.35912233 -1.6669683e-06 0)
(0.22997961 -7.0280431e-07 0)
(0.13553935 -2.5823642e-07 0)
(0.06779919 -7.3762054e-08 0)
(0.019859002 -1.2135555e-08 0)
(0.0198586 6.9741608e-09 0)
(0.067797836 4.8593243e-08 0)
(0.13553669 2.0659146e-07 0)
(0.22997518 6.1637997e-07 0)
(0.35911566 1.5291275e-06 0)
(0.5308817 3.378239e-06 0)
(0.75047849 6.7968944e-06 0)
(1.0158438 1.2420881e-05 0)
(1.3117128 2.0088126e-05 0)
(1.605009 2.7039458e-05 0)
(1.84673 2.6359547e-05 0)
(1.9847642 1.1466562e-05 0)
(1.9847642 -1.1468398e-05 0)
(1.84673 -2.6355842e-05 0)
(1.605009 -2.7029218e-05 0)
(1.3117129 -2.0076557e-05 0)
(1.0158438 -1.2418055e-05 0)
(0.7504785 -6.8131275e-06 0)