/*--------------------------------*- C++ -*----------------------------------*\
  =========                 |
  \\      /  F ield         | OpenFOAM: The Open Source CFD Toolbox
   \\    /   O peration     | Website:  https://openfoam.org
    \\  /    A nd           | Version:  10
     \\/     M anipulation  |
\*---------------------------------------------------------------------------*/
FoamFile
{
    format      ascii;
    class       volScalarField;
    location    "4.1";
    object      T;
}
// * * * * * * * * * * * * * * * * * * * * * * * * * * * * * * * * * * * * * //

dimensions      [0 0 -1 0 0 0 0];

internalField   nonuniform List<scalar> 
100
(
0.0152753
0.0452843
0.0736891
0.0994835
0.121754
0.13971
0.152718
0.160316
0.162234
0.158405
0.148964
0.134247
0.114773
0.0912338
0.0644625
0.0354076
0.00509841
-0.0253914
-0.0549818
-0.0826243
-0.10734
-0.128253
-0.144622
-0.155869
-0.161593
-0.161593
-0.155869
-0.144622
-0.128253
-0.10734
-0.0826242
-0.0549817
-0.0253913
0.0050985
0.0354077
0.0644626
0.0912338
0.114773
0.134246
0.148964
0.158405
0.162233
0.160315
0.152718
0.13971
0.121753
0.099483
0.0736886
0.0452839
0.0152749
-0.0152752
-0.0452842
-0.073689
-0.0994833
-0.121753
-0.13971
-0.152718
-0.160315
-0.162233
-0.158404
-0.148964
-0.134246
-0.114773
-0.0912336
-0.0644623
-0.0354074
-0.00509819
0.0253916
0.054982
0.0826245
0.10734
0.128253
0.144623
0.155869
0.161593
0.161593
0.155869
0.144622
0.128253
0.10734
0.0826241
0.0549815
0.0253911
-0.00509872
-0.0354079
-0.0644628
-0.0912341
-0.114773
-0.134247
-0.148964
-0.158405
-0.162234
-0.160315
-0.152718
-0.13971
-0.121753
-0.0994832
-0.0736888
-0.0452839
-0.0152749
)
;

boundaryField
{
    inlet
    {
        type            cyclic;
    }
    outlet
    {
        type            cyclic;
    }
    bottom
    {
        type            slip;
    }
    top
    {
        type            slip;
    }
    frontAndBack
    {
        type            empty;
    }
}


// ************************************************************************* //
