/*--------------------------------*- C++ -*----------------------------------*\
  =========                 |
  \\      /  F ield         | OpenFOAM: The Open Source CFD Toolbox
   \\    /   O peration     | Website:  https://openfoam.org
    \\  /    A nd           | Version:  10
     \\/     M anipulation  |
\*---------------------------------------------------------------------------*/
FoamFile
{
    format      ascii;
    class       volScalarField;
    location    "4.1";
    object      T_0;
}
// * * * * * * * * * * * * * * * * * * * * * * * * * * * * * * * * * * * * * //

dimensions      [0 0 -1 0 0 0 0];

internalField   nonuniform List<scalar> 
100
(
0.0161315
0.0478228
0.0778198
0.10506
0.128579
0.147542
0.161279
0.169302
0.171328
0.167284
0.157315
0.141772
0.121207
0.096348
0.068076
0.0373924
0.0053842
-0.0268148
-0.0580638
-0.0872559
-0.113357
-0.135442
-0.152729
-0.164606
-0.170651
-0.170651
-0.164606
-0.152729
-0.135442
-0.113357
-0.0872558
-0.0580637
-0.0268147
0.0053843
0.0373925
0.0680761
0.096348
0.121207
0.141772
0.157314
0.167284
0.171328
0.169302
0.161278
0.147542
0.128578
0.10506
0.0778193
0.0478223
0.0161311
-0.0161315
-0.0478227
-0.0778197
-0.10506
-0.128578
-0.147542
-0.161279
-0.169302
-0.171328
-0.167284
-0.157314
-0.141772
-0.121207
-0.0963478
-0.0680758
-0.0373922
-0.00538397
0.026815
0.058064
0.0872561
0.113357
0.135442
0.152729
0.164606
0.170651
0.170651
0.164606
0.152729
0.135442
0.113357
0.0872556
0.0580635
0.0268144
-0.00538453
-0.0373928
-0.0680763
-0.0963483
-0.121207
-0.141772
-0.157315
-0.167284
-0.171328
-0.169302
-0.161279
-0.147542
-0.128578
-0.10506
-0.0778195
-0.0478224
-0.0161311
)
;

boundaryField
{
    inlet
    {
        type            cyclic;
    }
    outlet
    {
        type            cyclic;
    }
    bottom
    {
        type            slip;
    }
    top
    {
        type            slip;
    }
    frontAndBack
    {
        type            empty;
    }
}


// ************************************************************************* //
