/*--------------------------------*- C++ -*----------------------------------*\
  =========                 |
  \\      /  F ield         | OpenFOAM: The Open Source CFD Toolbox
   \\    /   O peration     | Website:  https://openfoam.org
    \\  /    A nd           | Version:  10
     \\/     M anipulation  |
\*---------------------------------------------------------------------------*/
FoamFile
{
    format      ascii;
    class       volScalarField;
    location    "9.7";
    object      T_0;
}
// * * * * * * * * * * * * * * * * * * * * * * * * * * * * * * * * * * * * * //

dimensions      [0 0 -1 0 0 0 0];

internalField   nonuniform List<scalar> 
100
(
0.00868939
0.0257601
0.0419183
0.0565915
0.06926
0.0794748
0.0868742
0.0911961
0.0922873
0.0901091
0.0847389
0.0763666
0.0652891
0.0518986
0.0366697
0.0201416
0.00290006
-0.0144442
-0.0312769
-0.0470015
-0.0610611
-0.0729575
-0.0822694
-0.0886669
-0.0919233
-0.0919233
-0.0886668
-0.0822693
-0.0729574
-0.0610608
-0.0470012
-0.0312766
-0.0144439
0.00290045
0.0201421
0.0366701
0.0518991
0.0652896
0.0763671
0.0847393
0.0901096
0.0922877
0.0911965
0.0868746
0.0794751
0.0692601
0.0565916
0.0419183
0.0257601
0.00868924
-0.00868941
-0.0257602
-0.0419185
-0.0565918
-0.0692602
-0.0794752
-0.0868746
-0.0911965
-0.0922877
-0.0901095
-0.0847392
-0.076367
-0.0652894
-0.0518989
-0.0366699
-0.0201418
-0.00290023
0.0144441
0.0312768
0.0470014
0.061061
0.0729575
0.0822694
0.0886669
0.0919233
0.0919233
0.0886669
0.0822694
0.0729574
0.0610609
0.0470013
0.0312767
0.0144441
-0.00290023
-0.0201418
-0.0366698
-0.0518988
-0.0652892
-0.0763667
-0.0847389
-0.0901092
-0.0922873
-0.091196
-0.0868742
-0.0794747
-0.0692598
-0.0565914
-0.0419181
-0.0257599
-0.00868919
)
;

boundaryField
{
    inlet
    {
        type            cyclic;
    }
    outlet
    {
        type            cyclic;
    }
    bottom
    {
        type            slip;
    }
    top
    {
        type            slip;
    }
    frontAndBack
    {
        type            empty;
    }
}


// ************************************************************************* //
