/*--------------------------------*- C++ -*----------------------------------*\
  =========                 |
  \\      /  F ield         | OpenFOAM: The Open Source CFD Toolbox
   \\    /   O peration     | Website:  https://openfoam.org
    \\  /    A nd           | Version:  10
     \\/     M anipulation  |
\*---------------------------------------------------------------------------*/
FoamFile
{
    format      ascii;
    class       volScalarField;
    location    "3.5";
    object      T;
}
// * * * * * * * * * * * * * * * * * * * * * * * * * * * * * * * * * * * * * //

dimensions      [0 0 -1 0 0 0 0];

internalField   nonuniform List<scalar> 
100
(
10.087
30.1674
49.98
69.349
88.1024
106.074
123.104
139.041
153.744
167.083
178.938
189.206
197.794
204.626
209.642
212.797
214.064
213.43
210.902
206.502
200.269
192.259
182.542
171.204
158.347
144.085
128.544
111.862
94.1864
75.6752
56.4924
36.8081
16.7972
-3.36291
-23.4931
-43.4148
-62.9512
-81.9288
-100.179
-117.54
-133.858
-148.988
-162.795
-175.158
-185.965
-195.122
-202.547
-208.175
-211.954
-213.852
-213.852
-211.954
-208.175
-202.547
-195.122
-185.965
-175.158
-162.795
-148.988
-133.858
-117.54
-100.179
-81.9286
-62.951
-43.4146
-23.4929
-3.3627
16.7974
36.8084
56.4926
75.6755
94.1866
111.862
128.544
144.085
158.348
171.204
182.542
192.259
200.269
206.502
210.902
213.43
214.064
212.797
209.642
204.626
197.794
189.206
178.938
167.083
153.744
139.041
123.104
106.074
88.1024
69.349
49.98
30.1674
10.087
)
;

boundaryField
{
    xmin
    {
        type            fixedValue;
        value           uniform 0;
    }
    xmax
    {
        type            fixedValue;
        value           uniform 0;
    }
    frontAndBack
    {
        type            empty;
    }
}


// ************************************************************************* //
