/*--------------------------------*- C++ -*----------------------------------*\
  =========                 |
  \\      /  F ield         | OpenFOAM: The Open Source CFD Toolbox
   \\    /   O peration     | Website:  https://openfoam.org
    \\  /    A nd           | Version:  10
     \\/     M anipulation  |
\*---------------------------------------------------------------------------*/
FoamFile
{
    format      ascii;
    class       volScalarField;
    location    "3.5";
    object      T_0;
}
// * * * * * * * * * * * * * * * * * * * * * * * * * * * * * * * * * * * * * //

dimensions      [0 0 -1 0 0 0 0];

internalField   nonuniform List<scalar> 
100
(
10.0968
30.1965
50.0282
69.4158
88.1873
106.176
123.222
139.175
153.892
167.244
179.111
189.388
197.984
204.823
209.844
213.002
214.27
213.636
211.105
206.701
200.462
192.444
182.717
171.369
158.5
144.224
128.668
111.969
94.2771
75.7482
56.5468
36.8436
16.8133
-3.36615
-23.5158
-43.4567
-63.0118
-82.0077
-100.276
-117.654
-133.987
-149.132
-162.952
-175.326
-186.144
-195.31
-202.743
-208.375
-212.158
-214.058
-214.058
-212.158
-208.375
-202.742
-195.31
-186.144
-175.326
-162.952
-149.131
-133.987
-117.653
-100.275
-82.0075
-63.0116
-43.4565
-23.5156
-3.36594
16.8136
36.8438
56.5471
75.7484
94.2773
111.969
128.668
144.224
158.5
171.369
182.718
192.444
200.462
206.701
211.105
213.636
214.27
213.002
209.844
204.823
197.984
189.388
179.111
167.244
153.892
139.175
123.222
106.176
88.1873
69.4158
50.0281
30.1964
10.0967
)
;

boundaryField
{
    xmin
    {
        type            fixedValue;
        value           uniform 0;
    }
    xmax
    {
        type            fixedValue;
        value           uniform 0;
    }
    frontAndBack
    {
        type            empty;
    }
}


// ************************************************************************* //
