/*--------------------------------*- C++ -*----------------------------------*\
  =========                 |
  \\      /  F ield         | OpenFOAM: The Open Source CFD Toolbox
   \\    /   O peration     | Website:  https://openfoam.org
    \\  /    A nd           | Version:  10
     \\/     M anipulation  |
\*---------------------------------------------------------------------------*/
FoamFile
{
    format      ascii;
    class       volScalarField;
    location    "47.5";
    object      T;
}
// * * * * * * * * * * * * * * * * * * * * * * * * * * * * * * * * * * * * * //

dimensions      [0 0 0 1 0 0 0];

internalField   nonuniform List<scalar> 
10000
(
374.991
361.309
356.642
354.604
353.505
352.816
352.34
351.988
351.716
351.498
351.319
351.167
351.037
350.923
350.823
350.733
350.652
350.579
350.511
350.448
350.39
350.336
350.285
350.237
350.192
350.149
350.108
350.068
350.031
349.995
349.96
349.927
349.895
349.864
349.834
349.805
349.776
349.749
349.722
349.697
349.671
349.647
349.623
349.6
349.577
349.555
349.534
349.513
349.492
349.472
349.453
349.434
349.416
349.398
349.38
349.363
349.346
349.33
349.314
349.299
349.284
349.269
349.255
349.241
349.228
349.215
349.202
349.19
349.178
349.167
349.156
349.145
349.135
349.125
349.115
349.106
349.097
349.089
349.081
349.073
349.066
349.059
349.053
349.046
349.041
349.035
349.03
349.026
349.021
349.017
349.014
349.011
349.008
349.005
349.003
349.002
349
348.999
348.999
348.999
388.633
374.913
367.297
362.873
360.103
358.235
356.895
355.886
355.095
354.457
353.927
353.48
353.094
352.757
352.458
352.191
351.95
351.73
351.528
351.341
351.167
351.005
350.853
350.709
350.573
350.444
350.321
350.204
350.091
349.983
349.88
349.78
349.683
349.59
349.5
349.413
349.328
349.246
349.166
349.089
349.014
348.94
348.869
348.799
348.731
348.665
348.601
348.538
348.477
348.417
348.359
348.302
348.246
348.192
348.14
348.088
348.038
347.99
347.942
347.896
347.851
347.807
347.765
347.723
347.683
347.644
347.606
347.57
347.534
347.5
347.467
347.435
347.404
347.374
347.346
347.318
347.292
347.267
347.243
347.22
347.198
347.177
347.158
347.139
347.122
347.106
347.091
347.077
347.064
347.052
347.042
347.032
347.024
347.016
347.01
347.005
347.001
346.998
346.996
346.996
393.262
382.415
374.76
369.49
365.798
363.125
361.12
359.565
358.323
357.306
356.455
355.73
355.103
354.552
354.063
353.624
353.226
352.864
352.53
352.221
351.934
351.665
351.412
351.174
350.949
350.734
350.53
350.335
350.148
349.969
349.796
349.63
349.47
349.315
349.165
349.02
348.879
348.742
348.61
348.481
348.355
348.233
348.114
347.998
347.885
347.775
347.668
347.563
347.461
347.362
347.265
347.17
347.078
346.988
346.9
346.814
346.731
346.65
346.571
346.494
346.419
346.346
346.275
346.206
346.139
346.074
346.011
345.95
345.891
345.834
345.779
345.726
345.674
345.625
345.577
345.531
345.488
345.446
345.406
345.367
345.331
345.297
345.264
345.233
345.204
345.177
345.152
345.129
345.107
345.088
345.07
345.054
345.04
345.028
345.018
345.009
345.003
344.998
344.995
344.994
395.262
386.723
379.838
374.53
370.475
367.348
364.895
362.931
361.326
359.99
358.858
357.884
357.035
356.286
355.618
355.016
354.469
353.969
353.508
353.081
352.682
352.31
351.959
351.628
351.314
351.016
350.731
350.459
350.199
349.949
349.708
349.476
349.252
349.036
348.827
348.624
348.427
348.236
348.051
347.87
347.695
347.524
347.358
347.196
347.038
346.884
346.734
346.588
346.445
346.306
346.17
346.038
345.909
345.783
345.66
345.54
345.424
345.31
345.199
345.092
344.987
344.885
344.785
344.689
344.596
344.505
344.417
344.331
344.249
344.169
344.092
344.017
343.945
343.876
343.809
343.745
343.684
343.625
343.569
343.516
343.465
343.417
343.371
343.328
343.288
343.25
343.215
343.182
343.152
343.125
343.1
343.078
343.058
343.041
343.027
343.015
343.005
342.999
342.995
342.993
396.323
389.379
383.338
378.316
374.223
370.898
368.181
365.938
364.061
362.47
361.103
359.915
358.869
357.941
357.107
356.354
355.667
355.036
354.454
353.912
353.407
352.933
352.487
352.065
351.665
351.285
350.921
350.574
350.241
349.921
349.613
349.316
349.029
348.752
348.484
348.224
347.972
347.727
347.489
347.258
347.033
346.814
346.6
346.392
346.19
345.992
345.799
345.612
345.428
345.25
345.075
344.905
344.74
344.578
344.42
344.266
344.117
343.971
343.829
343.69
343.555
343.424
343.297
343.173
343.053
342.936
342.823
342.714
342.607
342.505
342.405
342.31
342.217
342.128
342.043
341.961
341.882
341.806
341.734
341.666
341.6
341.538
341.48
341.424
341.373
341.324
341.279
341.237
341.198
341.163
341.131
341.103
341.077
341.056
341.037
341.022
341.01
341.001
340.996
340.994
396.973
391.132
385.82
381.175
377.203
373.84
370.996
368.579
366.511
364.726
363.171
361.802
360.588
359.5
358.519
357.626
356.809
356.057
355.359
354.71
354.102
353.532
352.993
352.483
351.999
351.538
351.098
350.677
350.272
349.884
349.509
349.149
348.8
348.463
348.136
347.82
347.512
347.214
346.924
346.642
346.368
346.101
345.841
345.587
345.34
345.099
344.864
344.635
344.411
344.193
343.98
343.773
343.57
343.373
343.181
342.993
342.81
342.632
342.458
342.289
342.125
341.965
341.809
341.658
341.512
341.369
341.231
341.097
340.967
340.842
340.721
340.604
340.491
340.382
340.278
340.177
340.081
339.989
339.901
339.817
339.738
339.662
339.59
339.523
339.459
339.4
339.345
339.294
339.247
339.204
339.165
339.13
339.099
339.072
339.05
339.031
339.016
339.006
338.999
338.997
397.411
392.357
387.634
383.36
379.576
376.265
373.382
370.872
368.679
366.754
365.052
363.538
362.181
360.956
359.843
358.825
357.889
357.024
356.219
355.468
354.763
354.1
353.473
352.878
352.313
351.774
351.259
350.765
350.291
349.835
349.396
348.972
348.562
348.166
347.782
347.409
347.048
346.697
346.355
346.023
345.7
345.385
345.078
344.78
344.488
344.204
343.927
343.657
343.393
343.136
342.885
342.64
342.401
342.169
341.941
341.72
341.504
341.294
341.089
340.89
340.696
340.507
340.323
340.145
339.972
339.803
339.64
339.482
339.329
339.181
339.038
338.9
338.767
338.638
338.515
338.397
338.283
338.174
338.07
337.971
337.877
337.788
337.703
337.624
337.549
337.479
337.413
337.353
337.297
337.247
337.201
337.159
337.123
337.091
337.065
337.043
337.026
337.013
337.006
337.003
397.724
393.251
388.998
385.057
381.476
378.262
375.396
372.848
370.582
368.559
366.748
365.118
363.643
362.301
361.073
359.944
358.901
357.932
357.028
356.182
355.385
354.634
353.923
353.247
352.604
351.989
351.401
350.837
350.295
349.774
349.271
348.785
348.315
347.86
347.42
346.992
346.577
346.174
345.781
345.4
345.028
344.666
344.314
343.97
343.635
343.308
342.989
342.678
342.374
342.078
341.789
341.507
341.232
340.964
340.703
340.448
340.199
339.957
339.721
339.491
339.268
339.05
338.838
338.633
338.433
338.239
338.051
337.869
337.693
337.522
337.357
337.198
337.045
336.897
336.755
336.618
336.487
336.362
336.242
336.128
336.019
335.916
335.819
335.727
335.641
335.56
335.485
335.415
335.351
335.293
335.24
335.192
335.15
335.114
335.083
335.058
335.038
335.024
335.015
335.011
397.958
393.928
390.049
386.395
383.01
379.911
377.094
374.545
372.24
370.155
368.264
366.544
364.974
363.533
362.207
360.98
359.841
358.778
357.783
356.847
355.966
355.132
354.34
353.587
352.868
352.182
351.523
350.891
350.283
349.698
349.132
348.586
348.058
347.546
347.049
346.568
346.1
345.645
345.202
344.772
344.352
343.944
343.546
343.157
342.779
342.409
342.049
341.697
341.354
341.02
340.693
340.374
340.063
339.76
339.464
339.176
338.895
338.621
338.354
338.094
337.841
337.595
337.355
337.123
336.897
336.677
336.465
336.259
336.059
335.866
335.679
335.499
335.325
335.158
334.997
334.843
334.694
334.552
334.417
334.288
334.165
334.048
333.938
333.834
333.736
333.645
333.56
333.481
333.408
333.342
333.282
333.228
333.181
333.14
333.105
333.076
333.054
333.037
333.028
333.024
398.138
394.452
390.876
387.465
384.26
381.278
378.526
375.998
373.681
371.558
369.612
367.823
366.176
364.654
363.244
361.931
360.706
359.559
358.48
357.463
356.502
355.59
354.723
353.896
353.106
352.349
351.624
350.926
350.254
349.606
348.98
348.375
347.789
347.221
346.67
346.135
345.615
345.11
344.618
344.139
343.672
343.217
342.774
342.342
341.92
341.509
341.107
340.716
340.333
339.96
339.596
339.241
338.894
338.556
338.226
337.905
337.591
337.286
336.988
336.698
336.416
336.141
335.874
335.615
335.363
335.118
334.881
334.651
334.428
334.212
334.004
333.803
333.609
333.422
333.243
333.07
332.905
332.747
332.595
332.451
332.314
332.184
332.061
331.945
331.836
331.734
331.639
331.551
331.47
331.396
331.329
331.269
331.216
331.17
331.131
331.099
331.074
331.055
331.044
331.04
398.28
394.868
391.537
388.332
385.285
382.417
379.736
377.242
374.929
372.786
370.802
368.963
367.256
365.667
364.184
362.798
361.497
360.274
359.119
358.028
356.992
356.007
355.069
354.172
353.314
352.491
351.7
350.939
350.206
349.497
348.813
348.15
347.508
346.885
346.281
345.694
345.123
344.567
344.027
343.5
342.987
342.487
341.999
341.523
341.059
340.606
340.164
339.733
339.311
338.9
338.499
338.108
337.726
337.353
336.989
336.635
336.289
335.952
335.624
335.304
334.993
334.69
334.395
334.109
333.831
333.561
333.299
333.045
332.8
332.562
332.332
332.11
331.896
331.69
331.492
331.302
331.119
330.944
330.777
330.618
330.467
330.323
330.187
330.059
329.939
329.826
329.722
329.624
329.535
329.453
329.379
329.313
329.255
329.204
329.161
329.126
329.098
329.078
329.066
329.061
398.394
395.202
392.073
389.041
386.133
383.369
380.759
378.306
376.007
373.858
371.851
369.974
368.219
366.575
365.033
363.582
362.215
360.923
359.7
358.539
357.435
356.383
355.378
354.415
353.493
352.606
351.753
350.931
350.138
349.371
348.629
347.911
347.214
346.538
345.881
345.243
344.622
344.017
343.429
342.855
342.296
341.751
341.22
340.701
340.195
339.701
339.219
338.748
338.288
337.84
337.402
336.974
336.557
336.15
335.753
335.366
334.988
334.62
334.261
333.912
333.572
333.241
332.919
332.606
332.302
332.007
331.721
331.443
331.175
330.915
330.664
330.421
330.187
329.962
329.745
329.537
329.337
329.146
328.964
328.79
328.624
328.467
328.319
328.179
328.047
327.924
327.809
327.703
327.605
327.516
327.435
327.363
327.299
327.243
327.196
327.158
327.127
327.106
327.092
327.087
398.486
395.475
392.512
389.626
386.839
384.169
381.627
379.216
376.939
374.792
372.77
370.867
369.075
367.386
365.792
364.286
362.86
361.508
360.223
358.999
357.832
356.716
355.648
354.624
353.64
352.693
351.78
350.9
350.049
349.226
348.429
347.656
346.906
346.178
345.47
344.782
344.112
343.46
342.824
342.205
341.601
341.011
340.436
339.875
339.328
338.793
338.271
337.762
337.264
336.778
336.304
335.841
335.389
334.948
334.517
334.098
333.688
333.289
332.9
332.522
332.153
331.794
331.445
331.106
330.776
330.456
330.146
329.845
329.554
329.272
328.999
328.736
328.482
328.238
328.003
327.777
327.56
327.353
327.155
326.966
326.787
326.616
326.455
326.303
326.16
326.027
325.902
325.787
325.681
325.584
325.496
325.418
325.348
325.288
325.237
325.195
325.162
325.139
325.124
325.119
398.562
395.699
392.875
390.112
387.43
384.844
382.364
379.995
377.742
375.602
373.573
371.651
369.83
368.104
366.467
364.913
363.436
362.029
360.688
359.407
358.181
357.007
355.881
354.798
353.756
352.751
351.782
350.845
349.939
349.062
348.211
347.386
346.585
345.806
345.048
344.311
343.593
342.894
342.212
341.547
340.899
340.266
339.649
339.046
338.458
337.883
337.322
336.774
336.239
335.716
335.206
334.707
334.221
333.746
333.283
332.831
332.39
331.96
331.542
331.134
330.737
330.35
329.974
329.609
329.253
328.909
328.574
328.25
327.936
327.632
327.339
327.055
326.782
326.518
326.265
326.022
325.788
325.565
325.351
325.148
324.954
324.771
324.597
324.433
324.279
324.135
324.001
323.877
323.762
323.658
323.563
323.478
323.404
323.339
323.284
323.238
323.203
323.178
323.162
323.156
398.625
395.885
393.176
390.518
387.926
385.414
382.99
380.662
378.433
376.303
374.272
372.337
370.493
368.737
367.064
365.468
363.945
362.49
361.098
359.764
358.485
357.257
356.075
354.937
353.84
352.781
351.758
350.768
349.808
348.879
347.976
347.1
346.249
345.42
344.614
343.83
343.065
342.319
341.593
340.884
340.192
339.516
338.857
338.213
337.584
336.97
336.37
335.784
335.212
334.653
334.107
333.574
333.053
332.545
332.049
331.566
331.094
330.634
330.185
329.749
329.323
328.909
328.506
328.115
327.735
327.365
327.007
326.66
326.323
325.998
325.683
325.379
325.086
324.804
324.532
324.271
324.021
323.782
323.553
323.335
323.127
322.931
322.744
322.569
322.404
322.249
322.105
321.972
321.85
321.738
321.636
321.546
321.465
321.396
321.337
321.288
321.25
321.223
321.206
321.2
398.677
396.04
393.429
390.859
388.344
385.896
383.524
381.233
379.027
376.909
374.878
372.934
371.072
369.291
367.587
365.955
364.391
362.893
361.454
360.073
358.744
357.465
356.232
355.043
353.894
352.783
351.708
350.666
349.656
348.676
347.724
346.798
345.898
345.022
344.169
343.337
342.527
341.737
340.966
340.213
339.478
338.761
338.061
337.376
336.708
336.055
335.417
334.793
334.184
333.59
333.008
332.441
331.887
331.346
330.817
330.302
329.8
329.309
328.832
328.366
327.913
327.472
327.042
326.625
326.22
325.826
325.444
325.074
324.715
324.368
324.032
323.708
323.396
323.095
322.805
322.527
322.26
322.005
321.761
321.528
321.307
321.097
320.898
320.711
320.535
320.37
320.217
320.075
319.944
319.824
319.716
319.619
319.534
319.459
319.396
319.345
319.304
319.275
319.257
319.251
398.721
396.17
393.64
391.146
388.697
386.305
383.977
381.72
379.537
377.431
375.402
373.451
371.575
369.773
368.041
366.377
364.778
363.24
361.76
360.334
358.959
357.633
356.352
355.114
353.916
352.756
351.632
350.541
349.482
348.453
347.453
346.48
345.533
344.61
343.711
342.834
341.979
341.145
340.331
339.536
338.759
338.001
337.26
336.536
335.828
335.137
334.461
333.801
333.156
332.526
331.91
331.308
330.721
330.147
329.587
329.041
328.507
327.987
327.481
326.987
326.506
326.038
325.582
325.139
324.709
324.291
323.885
323.492
323.112
322.743
322.387
322.043
321.711
321.391
321.084
320.788
320.505
320.234
319.975
319.728
319.493
319.27
319.059
318.86
318.673
318.498
318.335
318.184
318.045
317.918
317.803
317.7
317.609
317.531
317.464
317.409
317.366
317.335
317.316
317.309
398.758
396.279
393.818
391.387
388.995
386.651
384.362
382.135
379.972
377.878
375.852
373.896
372.008
370.188
368.432
366.74
365.109
363.535
362.016
360.55
359.133
357.763
356.437
355.153
353.908
352.702
351.53
350.393
349.287
348.211
347.165
346.146
345.153
344.185
343.241
342.321
341.422
340.545
339.688
338.852
338.034
337.235
336.455
335.692
334.946
334.217
333.504
332.807
332.127
331.461
330.811
330.176
329.556
328.95
328.358
327.781
327.218
326.668
326.133
325.611
325.102
324.607
324.126
323.658
323.203
322.761
322.332
321.916
321.514
321.124
320.747
320.383
320.032
319.694
319.369
319.056
318.757
318.47
318.196
317.934
317.685
317.449
317.226
317.016
316.818
316.633
316.461
316.301
316.154
316.02
315.898
315.789
315.693
315.609
315.539
315.481
315.435
315.402
315.382
315.375
398.789
396.37
393.968
391.59
389.246
386.943
384.689
382.487
380.343
378.259
376.236
374.276
372.378
370.542
368.766
367.048
365.387
363.781
362.227
360.723
359.266
357.855
356.487
355.16
353.871
352.62
351.404
350.221
349.071
347.95
346.859
345.795
344.758
343.747
342.76
341.796
340.855
339.936
339.038
338.161
337.303
336.465
335.645
334.844
334.06
333.294
332.545
331.813
331.097
330.397
329.713
329.045
328.392
327.754
327.131
326.524
325.931
325.352
324.788
324.238
323.703
323.181
322.674
322.181
321.701
321.236
320.784
320.346
319.921
319.511
319.113
318.73
318.36
318.003
317.661
317.331
317.015
316.713
316.424
316.148
315.886
315.637
315.402
315.18
314.971
314.776
314.594
314.426
314.271
314.129
314.001
313.886
313.785
313.697
313.622
313.561
313.513
313.478
313.457
313.449
398.814
396.447
394.093
391.761
389.457
387.19
384.964
382.785
380.657
378.582
376.562
374.598
372.691
370.84
369.045
367.305
365.617
363.981
362.394
360.855
359.362
357.912
356.504
355.136
353.806
352.512
351.253
350.028
348.834
347.67
346.536
345.429
344.349
343.295
342.266
341.261
340.279
339.319
338.38
337.463
336.566
335.689
334.831
333.992
333.172
332.369
331.584
330.817
330.066
329.332
328.615
327.914
327.229
326.56
325.907
325.269
324.646
324.039
323.447
322.87
322.307
321.76
321.227
320.709
320.205
319.716
319.241
318.781
318.335
317.903
317.486
317.083
316.694
316.32
315.959
315.613
315.281
314.963
314.659
314.369
314.094
313.832
313.585
313.351
313.132
312.927
312.736
312.559
312.396
312.247
312.112
311.992
311.885
311.792
311.714
311.649
311.599
311.563
311.541
311.532
398.836
396.511
394.198
391.904
389.635
387.397
385.196
383.036
380.92
378.853
376.835
374.868
372.952
371.089
369.276
367.514
365.802
364.138
362.521
360.949
359.421
357.935
356.489
355.083
353.713
352.379
351.079
349.812
348.577
347.372
346.196
345.048
343.927
342.831
341.761
340.715
339.693
338.693
337.715
336.759
335.824
334.908
334.013
333.137
332.28
331.442
330.622
329.82
329.035
328.268
327.518
326.785
326.068
325.368
324.685
324.017
323.365
322.73
322.109
321.505
320.916
320.343
319.785
319.242
318.714
318.202
317.705
317.222
316.755
316.303
315.866
315.443
315.036
314.643
314.265
313.903
313.554
313.221
312.903
312.599
312.31
312.036
311.776
311.532
311.302
311.087
310.886
310.701
310.53
310.374
310.233
310.106
309.994
309.897
309.815
309.747
309.695
309.657
309.633
309.625
398.854
396.565
394.286
392.023
389.782
387.569
385.388
383.244
381.14
379.078
377.061
375.091
373.167
371.291
369.462
367.68
365.945
364.255
362.61
361.007
359.446
357.926
356.445
355.001
353.594
352.221
350.883
349.576
348.301
347.056
345.84
344.651
343.49
342.355
341.245
340.16
339.098
338.059
337.043
336.049
335.076
334.123
333.191
332.279
331.387
330.513
329.658
328.822
328.004
327.204
326.422
325.657
324.909
324.179
323.465
322.768
322.088
321.424
320.776
320.145
319.53
318.931
318.348
317.781
317.23
316.694
316.174
315.67
315.182
314.709
314.252
313.811
313.385
312.974
312.58
312.2
311.836
311.488
311.155
310.837
310.535
310.248
309.977
309.721
309.481
309.256
309.046
308.852
308.674
308.51
308.363
308.23
308.113
308.012
307.926
307.855
307.8
307.76
307.736
307.727
398.869
396.609
394.358
392.121
389.904
387.711
385.547
383.416
381.32
379.263
377.246
375.271
373.339
371.451
369.607
367.807
366.049
364.335
362.663
361.031
359.44
357.887
356.372
354.893
353.45
352.04
350.664
349.32
348.006
346.722
345.467
344.24
343.04
341.866
340.718
339.594
338.494
337.418
336.364
335.332
334.322
333.334
332.366
331.418
330.491
329.583
328.694
327.824
326.973
326.141
325.327
324.53
323.752
322.991
322.248
321.522
320.814
320.122
319.447
318.79
318.149
317.524
316.917
316.326
315.751
315.193
314.651
314.125
313.616
313.123
312.647
312.186
311.742
311.314
310.902
310.506
310.126
309.763
309.415
309.084
308.769
308.47
308.187
307.92
307.669
307.435
307.216
307.013
306.827
306.657
306.502
306.364
306.242
306.136
306.047
305.973
305.915
305.874
305.848
305.839
398.881
396.645
394.417
392.201
390.003
387.827
385.676
383.555
381.465
379.411
377.393
375.413
373.473
371.573
369.714
367.896
366.118
364.381
362.683
361.024
359.403
357.819
356.272
354.76
353.282
351.837
350.425
349.044
347.694
346.373
345.08
343.815
342.578
341.366
340.18
339.019
337.882
336.768
335.678
334.61
333.564
332.54
331.537
330.554
329.593
328.651
327.729
326.826
325.943
325.078
324.233
323.406
322.597
321.807
321.035
320.28
319.544
318.825
318.123
317.439
316.773
316.123
315.491
314.877
314.279
313.698
313.134
312.588
312.058
311.545
311.049
310.57
310.107
309.662
309.233
308.821
308.426
308.047
307.686
307.341
307.013
306.701
306.407
306.129
305.868
305.623
305.396
305.185
304.991
304.813
304.653
304.509
304.382
304.272
304.178
304.101
304.041
303.998
303.972
303.962
398.891
396.674
394.464
392.266
390.083
387.92
385.779
383.665
381.58
379.526
377.506
375.521
373.573
371.661
369.787
367.952
366.154
364.394
362.672
360.987
359.338
357.724
356.146
354.602
353.091
351.613
350.166
348.75
347.364
346.007
344.678
343.377
342.103
340.855
339.632
338.435
337.262
336.112
334.986
333.882
332.801
331.742
330.705
329.688
328.693
327.718
326.763
325.828
324.913
324.017
323.141
322.284
321.445
320.626
319.825
319.042
318.278
317.532
316.804
316.094
315.403
314.729
314.073
313.434
312.813
312.211
311.625
311.057
310.507
309.974
309.459
308.961
308.481
308.018
307.573
307.145
306.734
306.341
305.965
305.607
305.266
304.943
304.636
304.348
304.076
303.822
303.586
303.367
303.165
302.981
302.814
302.664
302.532
302.418
302.321
302.241
302.178
302.134
302.106
302.096
398.898
396.697
394.502
392.317
390.146
387.992
385.859
383.75
381.667
379.613
377.59
375.598
373.641
371.717
369.829
367.977
366.16
364.378
362.633
360.922
359.246
357.605
355.997
354.422
352.88
351.369
349.889
348.439
347.018
345.626
344.262
342.926
341.617
340.333
339.075
337.842
336.634
335.449
334.288
333.15
332.034
330.941
329.87
328.82
327.791
326.784
325.797
324.83
323.884
322.957
322.051
321.164
320.296
319.448
318.618
317.808
317.017
316.244
315.49
314.755
314.038
313.34
312.66
311.999
311.355
310.73
310.124
309.535
308.965
308.412
307.878
307.362
306.864
306.384
305.922
305.479
305.053
304.645
304.255
303.884
303.53
303.194
302.877
302.577
302.296
302.032
301.787
301.56
301.351
301.159
300.986
300.831
300.694
300.575
300.475
300.392
300.327
300.281
300.252
300.241
398.904
396.714
394.53
392.355
390.193
388.046
385.918
383.812
381.73
379.674
377.646
375.648
373.68
371.745
369.843
367.973
366.138
364.336
362.567
360.832
359.131
357.462
355.826
354.221
352.648
351.106
349.593
348.111
346.657
345.231
343.834
342.463
341.119
339.801
338.509
337.241
335.998
334.779
333.584
332.412
331.263
330.137
329.032
327.95
326.889
325.849
324.831
323.833
322.856
321.899
320.963
320.047
319.15
318.273
317.416
316.579
315.761
314.962
314.182
313.422
312.681
311.958
311.255
310.571
309.905
309.258
308.63
308.021
307.431
306.859
306.306
305.772
305.257
304.76
304.282
303.822
303.381
302.959
302.556
302.171
301.805
301.457
301.128
300.818
300.527
300.254
300
299.764
299.548
299.35
299.17
299.01
298.868
298.745
298.64
298.555
298.488
298.44
298.41
298.399
398.909
396.727
394.551
392.383
390.226
388.084
385.959
383.854
381.77
379.711
377.677
375.672
373.694
371.747
369.83
367.944
366.09
364.268
362.478
360.719
358.992
357.297
355.633
354
352.398
350.825
349.282
347.767
346.281
344.823
343.392
341.989
340.611
339.26
337.934
336.633
335.356
334.104
332.876
331.671
330.489
329.33
328.193
327.078
325.986
324.915
323.865
322.837
321.83
320.843
319.878
318.932
318.008
317.103
316.219
315.354
314.51
313.685
312.88
312.095
311.329
310.583
309.857
309.15
308.463
307.794
307.146
306.516
305.906
305.316
304.744
304.192
303.659
303.146
302.651
302.176
301.721
301.284
300.867
300.469
300.091
299.731
299.391
299.071
298.769
298.487
298.224
297.981
297.757
297.552
297.367
297.201
297.054
296.927
296.819
296.73
296.661
296.611
296.58
296.569
398.911
396.736
394.565
392.401
390.248
388.108
385.983
383.877
381.791
379.727
377.687
375.673
373.685
371.725
369.794
367.892
366.019
364.177
362.365
360.584
358.833
357.113
355.422
353.761
352.13
350.528
348.954
347.409
345.892
344.402
342.94
341.504
340.094
338.71
337.351
336.017
334.708
333.423
332.162
330.925
329.711
328.52
327.352
326.206
325.082
323.98
322.901
321.842
320.805
319.79
318.795
317.822
316.869
315.937
315.026
314.135
313.264
312.414
311.584
310.775
309.985
309.216
308.467
307.738
307.028
306.339
305.67
305.02
304.391
303.781
303.192
302.622
302.072
301.542
301.032
300.541
300.071
299.62
299.19
298.779
298.388
298.017
297.666
297.335
297.024
296.733
296.461
296.21
295.979
295.767
295.576
295.404
295.253
295.121
295.01
294.918
294.847
294.795
294.764
294.752
398.913
396.741
394.572
392.411
390.259
388.119
385.993
383.885
381.794
379.725
377.677
375.654
373.655
371.682
369.736
367.817
365.927
364.066
362.233
360.429
358.655
356.909
355.193
353.505
351.846
350.215
348.613
347.038
345.49
343.97
342.476
341.009
339.567
338.151
336.761
335.395
334.054
332.738
331.445
330.176
328.931
327.708
326.509
325.333
324.178
323.047
321.937
320.849
319.783
318.739
317.716
316.715
315.735
314.776
313.838
312.921
312.025
311.15
310.295
309.462
308.649
307.856
307.085
306.333
305.603
304.893
304.203
303.534
302.885
302.257
301.649
301.062
300.495
299.949
299.423
298.918
298.433
297.968
297.524
297.101
296.698
296.315
295.953
295.612
295.291
294.991
294.711
294.452
294.213
293.995
293.798
293.621
293.465
293.329
293.214
293.12
293.046
292.993
292.961
292.949
398.914
396.742
394.574
392.413
390.26
388.119
385.99
383.878
381.782
379.705
377.65
375.616
373.605
371.619
369.658
367.724
365.816
363.935
362.081
360.256
358.458
356.688
354.947
353.233
351.547
349.889
348.258
346.654
345.077
343.526
342.002
340.505
339.032
337.586
336.164
334.767
333.395
332.048
330.724
329.424
328.148
326.895
325.666
324.459
323.275
322.114
320.975
319.858
318.764
317.691
316.641
315.612
314.605
313.619
312.655
311.713
310.792
309.892
309.013
308.156
307.32
306.505
305.711
304.938
304.186
303.456
302.746
302.057
301.39
300.743
300.118
299.513
298.93
298.367
297.826
297.306
296.806
296.328
295.871
295.435
295.02
294.626
294.253
293.902
293.571
293.262
292.974
292.707
292.461
292.237
292.034
291.852
291.691
291.551
291.433
291.335
291.259
291.205
291.171
291.159
398.913
396.741
394.572
392.408
390.253
388.108
385.976
383.858
381.755
379.671
377.606
375.561
373.539
371.539
369.563
367.612
365.686
363.786
361.913
360.065
358.245
356.452
354.686
352.946
351.234
349.549
347.89
346.258
344.652
343.073
341.52
339.992
338.49
337.013
335.561
334.134
332.732
331.354
330
328.67
327.364
326.081
324.822
323.586
322.372
321.182
320.015
318.87
317.747
316.647
315.569
314.514
313.48
312.469
311.479
310.511
309.565
308.641
307.739
306.858
305.999
305.162
304.346
303.552
302.779
302.028
301.299
300.591
299.905
299.24
298.597
297.976
297.376
296.798
296.241
295.706
295.192
294.701
294.23
293.782
293.355
292.95
292.567
292.205
291.865
291.547
291.251
290.976
290.723
290.492
290.283
290.096
289.93
289.787
289.665
289.565
289.487
289.431
289.396
289.383
398.912
396.736
394.564
392.398
390.239
388.089
385.951
383.826
381.716
379.623
377.547
375.492
373.456
371.443
369.452
367.484
365.541
363.622
361.728
359.86
358.017
356.201
354.41
352.646
350.908
349.197
347.511
345.852
344.218
342.61
341.028
339.472
337.94
336.434
334.953
333.496
332.064
330.657
329.273
327.914
326.578
325.266
323.978
322.713
321.471
320.252
319.057
317.884
316.734
315.607
314.502
313.42
312.361
311.323
310.309
309.316
308.346
307.398
306.472
305.568
304.687
303.828
302.99
302.175
301.382
300.611
299.862
299.136
298.431
297.749
297.088
296.45
295.834
295.24
294.668
294.118
293.591
293.086
292.603
292.142
291.704
291.287
290.894
290.522
290.173
289.846
289.541
289.259
289
288.762
288.547
288.355
288.185
288.037
287.912
287.809
287.729
287.671
287.636
287.623
398.91
396.73
394.553
392.382
390.217
388.061
385.916
383.784
381.665
379.562
377.476
375.408
373.36
371.332
369.326
367.342
365.38
363.443
361.529
359.64
357.776
355.936
354.123
352.334
350.571
348.834
347.122
345.436
343.775
342.14
340.53
338.945
337.385
335.85
334.34
332.854
331.393
329.957
328.544
327.156
325.792
324.451
323.134
321.841
320.571
319.325
318.102
316.902
315.725
314.571
313.44
312.332
311.247
310.185
309.145
308.128
307.134
306.162
305.214
304.287
303.384
302.503
301.644
300.808
299.995
299.205
298.437
297.691
296.968
296.268
295.591
294.936
294.304
293.694
293.108
292.544
292.003
291.484
290.989
290.516
290.066
289.639
289.234
288.853
288.495
288.159
287.847
287.557
287.291
287.047
286.826
286.629
286.454
286.303
286.174
286.069
285.986
285.927
285.891
285.877
398.907
396.721
394.539
392.361
390.19
388.027
385.874
383.732
381.604
379.491
377.393
375.313
373.251
371.209
369.187
367.186
365.207
363.25
361.317
359.407
357.522
355.66
353.823
352.011
350.223
348.461
346.723
345.011
343.324
341.661
340.024
338.411
336.824
335.261
333.722
332.209
330.72
329.255
327.814
326.397
325.005
323.636
322.292
320.971
319.673
318.4
317.149
315.923
314.719
313.539
312.383
311.249
310.139
309.052
307.988
306.947
305.93
304.935
303.964
303.015
302.09
301.187
300.308
299.452
298.619
297.809
297.022
296.258
295.518
294.8
294.106
293.435
292.787
292.162
291.561
290.983
290.428
289.896
289.388
288.904
288.442
288.004
287.59
287.199
286.831
286.487
286.167
285.87
285.597
285.347
285.121
284.918
284.739
284.584
284.452
284.344
284.259
284.198
284.161
284.147
398.903
396.711
394.521
392.336
390.157
387.985
385.824
383.673
381.534
379.409
377.3
375.207
373.131
371.073
369.036
367.018
365.021
363.046
361.093
359.163
357.256
355.373
353.513
351.677
349.866
348.079
346.316
344.578
342.865
341.176
339.512
337.872
336.258
334.667
333.102
331.56
330.043
328.551
327.082
325.638
324.218
322.822
321.45
320.102
318.778
317.478
316.201
314.948
313.719
312.513
311.331
310.173
309.038
307.927
306.839
305.774
304.734
303.716
302.723
301.752
300.805
299.882
298.982
298.106
297.253
296.424
295.619
294.837
294.079
293.344
292.633
291.946
291.283
290.643
290.027
289.435
288.867
288.323
287.802
287.306
286.833
286.385
285.96
285.56
285.183
284.831
284.503
284.198
283.918
283.662
283.431
283.223
283.04
282.88
282.745
282.635
282.548
282.486
282.448
282.434
398.899
396.699
394.501
392.307
390.119
387.938
385.767
383.605
381.456
379.319
377.197
375.09
373
370.928
368.874
366.839
364.825
362.831
360.859
358.908
356.981
355.075
353.193
351.335
349.5
347.688
345.901
344.138
342.399
340.685
338.995
337.329
335.688
334.071
332.478
330.91
329.366
327.846
326.351
324.879
323.432
322.01
320.611
319.236
317.886
316.559
315.257
313.978
312.723
311.493
310.286
309.103
307.944
306.808
305.697
304.61
303.546
302.507
301.491
300.499
299.531
298.587
297.667
296.771
295.899
295.052
294.228
293.428
292.653
291.901
291.174
290.471
289.792
289.138
288.508
287.902
287.32
286.763
286.231
285.723
285.239
284.78
284.346
283.936
283.551
283.19
282.854
282.543
282.256
281.994
281.757
281.544
281.357
281.194
281.055
280.942
280.853
280.79
280.751
280.736
398.895
396.685
394.478
392.275
390.077
387.886
385.704
383.531
381.37
379.221
377.086
374.965
372.86
370.772
368.702
366.651
364.619
362.606