/*--------------------------------*- C++ -*----------------------------------*\
  =========                 |
  \\      /  F ield         | OpenFOAM: The Open Source CFD Toolbox
   \\    /   O peration     | Website:  https://openfoam.org
    \\  /    A nd           | Version:  10
     \\/     M anipulation  |
\*---------------------------------------------------------------------------*/
FoamFile
{
    format      ascii;
    class       volScalarField;
    location    "47.5";
    object      T_0;
}
// * * * * * * * * * * * * * * * * * * * * * * * * * * * * * * * * * * * * * //

dimensions      [0 0 0 1 0 0 0];

internalField   nonuniform List<scalar> 
10000
(
374.99
361.309
356.642
354.604
353.504
352.816
352.34
351.988
351.716
351.498
351.318
351.167
351.037
350.923
350.823
350.733
350.652
350.578
350.511
350.448
350.39
350.336
350.285
350.237
350.192
350.148
350.107
350.068
350.031
349.995
349.96
349.927
349.894
349.863
349.833
349.804
349.776
349.749
349.722
349.696
349.671
349.646
349.623
349.599
349.577
349.555
349.533
349.512
349.492
349.472
349.453
349.434
349.415
349.397
349.38
349.362
349.346
349.329
349.314
349.298
349.283
349.269
349.254
349.241
349.227
349.214
349.202
349.189
349.178
349.166
349.155
349.144
349.134
349.124
349.115
349.106
349.097
349.088
349.08
349.073
349.066
349.059
349.052
349.046
349.04
349.035
349.03
349.025
349.021
349.017
349.013
349.01
349.007
349.005
349.003
349.001
349
348.999
348.998
348.998
388.633
374.914
367.297
362.873
360.103
358.235
356.895
355.886
355.095
354.457
353.927
353.479
353.094
352.757
352.458
352.191
351.95
351.73
351.527
351.341
351.167
351.005
350.852
350.709
350.573
350.444
350.321
350.203
350.091
349.983
349.879
349.779
349.683
349.59
349.5
349.412
349.328
349.246
349.166
349.088
349.013
348.94
348.868
348.799
348.731
348.665
348.6
348.537
348.476
348.416
348.358
348.301
348.246
348.192
348.139
348.088
348.038
347.989
347.941
347.895
347.85
347.806
347.764
347.722
347.682
347.643
347.606
347.569
347.533
347.499
347.466
347.434
347.403
347.373
347.345
347.317
347.291
347.266
347.242
347.219
347.197
347.176
347.157
347.138
347.121
347.105
347.09
347.076
347.063
347.051
347.041
347.031
347.023
347.015
347.009
347.004
347
346.997
346.995
346.995
393.262
382.415
374.76
369.49
365.798
363.125
361.12
359.565
358.323
357.306
356.455
355.73
355.102
354.552
354.062
353.623
353.226
352.863
352.529
352.22
351.933
351.664
351.412
351.174
350.948
350.734
350.529
350.334
350.147
349.968
349.795
349.629
349.469
349.314
349.164
349.019
348.878
348.741
348.609
348.479
348.354
348.232
348.113
347.997
347.884
347.774
347.667
347.562
347.46
347.36
347.263
347.169
347.076
346.986
346.898
346.813
346.729
346.648
346.569
346.492
346.417
346.344
346.273
346.204
346.138
346.073
346.01
345.949
345.89
345.832
345.777
345.724
345.673
345.623
345.575
345.53
345.486
345.444
345.404
345.366
345.329
345.295
345.262
345.232
345.203
345.176
345.15
345.127
345.106
345.086
345.068
345.052
345.038
345.026
345.016
345.007
345.001
344.996
344.993
344.992
395.261
386.723
379.838
374.53
370.474
367.348
364.895
362.93
361.326
359.989
358.858
357.884
357.035
356.286
355.617
355.015
354.469
353.968
353.507
353.08
352.682
352.309
351.958
351.627
351.313
351.015
350.73
350.458
350.198
349.947
349.707
349.475
349.251
349.035
348.825
348.622
348.426
348.235
348.049
347.869
347.693
347.523
347.356
347.194
347.036
346.882
346.732
346.586
346.443
346.304
346.168
346.036
345.907
345.781
345.658
345.538
345.422
345.308
345.197
345.089
344.985
344.883
344.783
344.687
344.593
344.503
344.415
344.329
344.246
344.167
344.089
344.015
343.943
343.874
343.807
343.743
343.682
343.623
343.567
343.513
343.463
343.414
343.369
343.326
343.285
343.247
343.212
343.18
343.15
343.122
343.097
343.075
343.056
343.038
343.024
343.012
343.003
342.996
342.992
342.991
396.323
389.379
383.338
378.316
374.223
370.898
368.181
365.937
364.061
362.469
361.102
359.914
358.869
357.94
357.107
356.353
355.666
355.035
354.453
353.911
353.406
352.932
352.486
352.064
351.664
351.283
350.92
350.573
350.239
349.919
349.611
349.315
349.028
348.751
348.482
348.222
347.97
347.725
347.487
347.256
347.031
346.812
346.598
346.39
346.188
345.99
345.797
345.609
345.426
345.247
345.073
344.903
344.737
344.575
344.418
344.264
344.114
343.968
343.826
343.688
343.553
343.422
343.294
343.17
343.05
342.934
342.82
342.711
342.605
342.502
342.403
342.307
342.214
342.125
342.04
341.958
341.879
341.803
341.731
341.663
341.597
341.535
341.477
341.421
341.369
341.321
341.276
341.234
341.195
341.16
341.128
341.099
341.074
341.052
341.034
341.019
341.007
340.998
340.993
340.991
396.973
391.132
385.819
381.175
377.203
373.84
370.995
368.578
366.511
364.726
363.17
361.802
360.587
359.5
358.518
357.625
356.808
356.056
355.358
354.709
354.101
353.53
352.992
352.482
351.998
351.537
351.096
350.675
350.271
349.882
349.508
349.147
348.798
348.461
348.134
347.817
347.51
347.212
346.922
346.64
346.365
346.098
345.838
345.584
345.337
345.096
344.861
344.632
344.408
344.19
343.978
343.77
343.568
343.37
343.178
342.99
342.807
342.629
342.455
342.286
342.122
341.962
341.806
341.655
341.508
341.366
341.228
341.094
340.964
340.839
340.717
340.6
340.487
340.379
340.274
340.174
340.078
339.985
339.897
339.814
339.734
339.658
339.587
339.519
339.456
339.396
339.341
339.29
339.243
339.2
339.161
339.126
339.095
339.068
339.046
339.027
339.012
339.002
338.996
338.993
397.411
392.357
387.633
383.36
379.576
376.265
373.382
370.871
368.679
366.753
365.052
363.537
362.18
360.955
359.842
358.824
357.888
357.022
356.218
355.466
354.762
354.098
353.471
352.877
352.311
351.772
351.257
350.763
350.289
349.833
349.394
348.97
348.56
348.163
347.779
347.407
347.045
346.694
346.352
346.02
345.697
345.382
345.076
344.777
344.485
344.201
343.924
343.654
343.39
343.133
342.882
342.637
342.398
342.165
341.938
341.716
341.501
341.29
341.085
340.886
340.692
340.503
340.319
340.141
339.968
339.799
339.636
339.478
339.325
339.177
339.034
338.896
338.762
338.634
338.511
338.392
338.279
338.17
338.066
337.967
337.873
337.783
337.699
337.619
337.544
337.474
337.409
337.348
337.293
337.242
337.196
337.155
337.118
337.087
337.06
337.038
337.021
337.009
337.001
336.998
397.724
393.251
388.998
385.057
381.476
378.261
375.396
372.848
370.581
368.559
366.747
365.117
363.642
362.3
361.072
359.943
358.899
357.93
357.027
356.18
355.384
354.632
353.921
353.245
352.602
351.987
351.399
350.835
350.293
349.771
349.268
348.782
348.312
347.858
347.417
346.989
346.574
346.171
345.778
345.397
345.025
344.663
344.31
343.966
343.631
343.304
342.985
342.674
342.371
342.074
341.785
341.503
341.228
340.96
340.699
340.443
340.195
339.953
339.717
339.487
339.263
339.046
338.834
338.628
338.429
338.235
338.047
337.865
337.688
337.518
337.353
337.193
337.04
336.892
336.75
336.613
336.482
336.357
336.237
336.123
336.014
335.911
335.814
335.722
335.636
335.555
335.48
335.41
335.346
335.287
335.234
335.187
335.145
335.109
335.078
335.052
335.032
335.018
335.009
335.006
397.958
393.927
390.049
386.395
383.01
379.91
377.094
374.544
372.239
370.154
368.263
366.543
364.972
363.532
362.206
360.979
359.839
358.776
357.781
356.846
355.964
355.129
354.338
353.585
352.866
352.179
351.521
350.889
350.281
349.695
349.13
348.583
348.055
347.543
347.046
346.565
346.096
345.642
345.199
344.768
344.349
343.94
343.542
343.153
342.775
342.405
342.045
341.693
341.35
341.015
340.689
340.37
340.059
339.756
339.46
339.171
338.89
338.616
338.349
338.089
337.836
337.59
337.35
337.118
336.892
336.672
336.46
336.253
336.054
335.861
335.674
335.494
335.32
335.153
334.992
334.837
334.689
334.547
334.411
334.282
334.159
334.043
333.932
333.828
333.731
333.639
333.554
333.475
333.403
333.336
333.276
333.222
333.175
333.134
333.099
333.07
333.048
333.031
333.022
333.018
398.138
394.452
390.875
387.465
384.259
381.278
378.526
375.997
373.68
371.557
369.61
367.822
366.175
364.653
363.242
361.93
360.704
359.557
358.478
357.461
356.5
355.588
354.72
353.893
353.103
352.347
351.621
350.923
350.251
349.603
348.977
348.372
347.786
347.218
346.667
346.131
345.611
345.106
344.614
344.135
343.668
343.213
342.77
342.337
341.916
341.504
341.103
340.711
340.329
339.956
339.591
339.236
338.889
338.551
338.221
337.9
337.586
337.28
336.983
336.693
336.41
336.136
335.869
335.609
335.357
335.112
334.875
334.645
334.422
334.206
333.998
333.797
333.603
333.416
333.237
333.064
332.899
332.74
332.589
332.445
332.307
332.177
332.054
331.938
331.829
331.727
331.632
331.544
331.463
331.389
331.322
331.262
331.209
331.163
331.124
331.092
331.067
331.049
331.038
331.034
398.28
394.867
391.537
388.331
385.285
382.416
379.735
377.241
374.928
372.785
370.801
368.962
367.254
365.665
364.183
362.796
361.495
360.272
359.117
358.025
356.99
356.005
355.066
354.17
353.311
352.488
351.697
350.936
350.202
349.494
348.809
348.146
347.504
346.881
346.277
345.69
345.119
344.563
344.022
343.496
342.982
342.482
341.994
341.518
341.054
340.601
340.159
339.727
339.306
338.895
338.494
338.102
337.72
337.347
336.984
336.629
336.283
335.946
335.618
335.298
334.987
334.684
334.389
334.103
333.825
333.555
333.293
333.039
332.793
332.555
332.325
332.104
331.89
331.683
331.485
331.295
331.112
330.937
330.77
330.611
330.46
330.316
330.18
330.052
329.932
329.819
329.714
329.617
329.528
329.446
329.372
329.306
329.247
329.197
329.154
329.118
329.091
329.071
329.058
329.054
398.393
395.202
392.072
389.04
386.133
383.369
380.758
378.305
376.006
373.857
371.849
369.973
368.218
366.574
365.031
363.58
362.212
360.921
359.698
358.537
357.433
356.38
355.375
354.412
353.489
352.603
351.75
350.927
350.134
349.367
348.625
347.907
347.21
346.534
345.877
345.238
344.617
344.013
343.424
342.851
342.292
341.746
341.215
340.696
340.19
339.695
339.213
338.742
338.283
337.834
337.396
336.968
336.551
336.144
335.747
335.359
334.981
334.613
334.255
333.905
333.565
333.234
332.912
332.599
332.295
332
331.714
331.436
331.168
330.908
330.656
330.414
330.18
329.954
329.738
329.53
329.33
329.139
328.956
328.782
328.617
328.46
328.311
328.171
328.039
327.916
327.801
327.695
327.597
327.508
327.427
327.355
327.291
327.235
327.188
327.149
327.119
327.097
327.084
327.079
398.486
395.474
392.511
389.625
386.839
384.169
381.626
379.215
376.937
374.79
372.768
370.865
369.073
367.384
365.79
364.284
362.858
361.505
360.22
358.996
357.829
356.713
355.645
354.621
353.636
352.689
351.777
350.896
350.045
349.222
348.425
347.652
346.902
346.174
345.466
344.777
344.107
343.455
342.819
342.199
341.595
341.006
340.431
339.87
339.322
338.787
338.265
337.755
337.258
336.772
336.297
335.834
335.382
334.941
334.511
334.091
333.681
333.282
332.893
332.514
332.146
331.787
331.438
331.098
330.769
330.448
330.138
329.837
329.546
329.264
328.991
328.728
328.474
328.23
327.995
327.769
327.552
327.345
327.147
326.958
326.778
326.608
326.447
326.295
326.152
326.018
325.894
325.778
325.672
325.575
325.488
325.409
325.34
325.279
325.228
325.186
325.153
325.13
325.115
325.11
398.562
395.699
392.874
390.111
387.429
384.843
382.363
379.994
377.74
375.6
373.571
371.649
369.828
368.102
366.465
364.911
363.433
362.027
360.685
359.404
358.178
357.004
355.877
354.794
353.752
352.748
351.778
350.841
349.935
349.058
348.207
347.381
346.58
345.801
345.043
344.306
343.588
342.888
342.207
341.542
340.893
340.261
339.643
339.04
338.451
337.877
337.315
336.767
336.232
335.709
335.199
334.7
334.214
333.739
333.276
332.823
332.383
331.953
331.534
331.126
330.729
330.342
329.966
329.601
329.245
328.901
328.566
328.242
327.928
327.624
327.33
327.047
326.773
326.51
326.256
326.013
325.779
325.556
325.342
325.139
324.945
324.761
324.588
324.424
324.27
324.126
323.992
323.867
323.753
323.648
323.554
323.469
323.394
323.329
323.274
323.229
323.194
323.168
323.152
323.147
398.625
395.885
393.176
390.518
387.925
385.413
382.989
380.661
378.432
376.302
374.27
372.335
370.491
368.735
367.061
365.466
363.942
362.487
361.095
359.761
358.482
357.253
356.071
354.934
353.836
352.777
351.754
350.763
349.804
348.874
347.972
347.095
346.244
345.415
344.609
343.824
343.059
342.314
341.587
340.878
340.186
339.51
338.851
338.207
337.578
336.963
336.363
335.777
335.205
334.646
334.1
333.566
333.046
332.538
332.042
331.558
331.086
330.626
330.177
329.74
329.315
328.901
328.498
328.106
327.726
327.356
326.998
326.651
326.314
325.989
325.674
325.37
325.077
324.795
324.523
324.262
324.012
323.772
323.543
323.325
323.118
322.921
322.734
322.559
322.394
322.239
322.096
321.962
321.84
321.728
321.626
321.535
321.455
321.386
321.326
321.278
321.24
321.213
321.196
321.19
398.677
396.04
393.428
390.858
388.343
385.895
383.522
381.231
379.026
376.908
374.877
372.932
371.07
369.289
367.584
365.952
364.389
362.89
361.451
360.069
358.74
357.461
356.228
355.038
353.889
352.778
351.703
350.661
349.651
348.671
347.718
346.793
345.893
345.016
344.163
343.331
342.521
341.73
340.959
340.207
339.472
338.754
338.054
337.369
336.701
336.048
335.409
334.786
334.177
333.582
333.001
332.433
331.879
331.337
330.809
330.294
329.791
329.301
328.823
328.357
327.904
327.463
327.033
326.616
326.21
325.816
325.434
325.064
324.705
324.358
324.023
323.698
323.386
323.085
322.795
322.517
322.25
321.995
321.75
321.518
321.296
321.086
320.888
320.7
320.524
320.359
320.206
320.064
319.933
319.814
319.705
319.609
319.523
319.449
319.386
319.334
319.294
319.264
319.247
319.24
398.721
396.17
393.64
391.145
388.696
386.304
383.976
381.718
379.535
377.429
375.4
373.448
371.572
369.77
368.038
366.374
364.775
363.237
361.756
360.33
358.955
357.629
356.348
355.11
353.912
352.751
351.627
350.536
349.477
348.448
347.448
346.474
345.527
344.604
343.705
342.828
341.973
341.139
340.324
339.529
338.752
337.994
337.252
336.528
335.821
335.129
334.454
333.793
333.148
332.517
331.901
331.3
330.712
330.138
329.578
329.032
328.498
327.978
327.471
326.977
326.496
326.028
325.572
325.129
324.699
324.281
323.875
323.482
323.101
322.733
322.377
322.032
321.701
321.381
321.073
320.778
320.494
320.223
319.964
319.717
319.482
319.258
319.047
318.848
318.661
318.487
318.324
318.173
318.034
317.907
317.792
317.689
317.598
317.519
317.452
317.397
317.354
317.323
317.304
317.297
398.757
396.279
393.818
391.386
388.994
386.65
384.361
382.133
379.971
377.876
375.85
373.893
372.005
370.185
368.43
366.737
365.106
363.532
362.013
360.546
359.129
357.758
356.432
355.148
353.904
352.697
351.525
350.387
349.281
348.206
347.159
346.14
345.147
344.179
343.235
342.314
341.415
340.538
339.681
338.844
338.027
337.228
336.447
335.684
334.938
334.208
333.496
332.799
332.118
331.453
330.802
330.167
329.547
328.941
328.349
327.771
327.208
326.659
326.123
325.601
325.092
324.597
324.116
323.647
323.192
322.75
322.321
321.906
321.503
321.113
320.736
320.372
320.021
319.683
319.358
319.045
318.745
318.458
318.184
317.922
317.674
317.438
317.214
317.004
316.806
316.621
316.449
316.289
316.142
316.007
315.886
315.777
315.681
315.597
315.526
315.468
315.423
315.39
315.37
315.363
398.788
396.37
393.967
391.589
389.245
386.942
384.687
382.486
380.341
378.257
376.234
374.274
372.375
370.539
368.763
367.045
365.384
363.777
362.223
360.719
359.262
357.851
356.482
355.155
353.866
352.615
351.399
350.216
349.065
347.944
346.853
345.789
344.752
343.74
342.753
341.789
340.848
339.929
339.031
338.153
337.295
336.457
335.637
334.835
334.052
333.285
332.536
331.804
331.088
330.388
329.704
329.035
328.382
327.744
327.122
326.514
325.92
325.342
324.778
324.228
323.692
323.171
322.663
322.17
321.69
321.224
320.773
320.334
319.91
319.499
319.102
318.718
318.348
317.992
317.649
317.319
317.003
316.7
316.411
316.136
315.873
315.624
315.389
315.167
314.958
314.763
314.581
314.413
314.258
314.116
313.988
313.873
313.772
313.684
313.609
313.548
313.5
313.465
313.444
313.436
398.814
396.447
394.093
391.76
389.456
387.189
384.963
382.784
380.655
378.579
376.559
374.596
372.688
370.837
369.042
367.302
365.614
363.977
362.39
360.851
359.357
357.907
356.499
355.131
353.801
352.507
351.248
350.022
348.828
347.664
346.529
345.423
344.343
343.288
342.259
341.254
340.271
339.311
338.372
337.455
336.558
335.68
334.822
333.983
333.163
332.36
331.575
330.807
330.057
329.323
328.605
327.904
327.219
326.55
325.896
325.258
324.636
324.028
323.436
322.859
322.296
321.748
321.215
320.697
320.193
319.704
319.229
318.769
318.323
317.891
317.474
317.071
316.682
316.307
315.947
315.6
315.268
314.95
314.646
314.356
314.081
313.819
313.572
313.338
313.119
312.914
312.723
312.545
312.383
312.234
312.099
311.978
311.871
311.779
311.7
311.636
311.585
311.549
311.527
311.519
398.836
396.511
394.198
391.903
389.633
387.395
385.194
383.034
380.918
378.851
376.832
374.865
372.95
371.086
369.273
367.511
365.798
364.134
362.517
360.945
359.416
357.93
356.484
355.077
353.707
352.373
351.073
349.806
348.571
347.365
346.189
345.041
343.919
342.824
341.754
340.708
339.685
338.685
337.707
336.75
335.815
334.9
334.004
333.128
332.271
331.432
330.612
329.81
329.025
328.258
327.508
326.774
326.058
325.357
324.674
324.006
323.354
322.718
322.098
321.493
320.904
320.331
319.773
319.23
318.702
318.19
317.692
317.21
316.743
316.29
315.853
315.43
315.023
314.63
314.252
313.889
313.541
313.208
312.889
312.585
312.296
312.022
311.763
311.518
311.288
311.073
310.873
310.687
310.516
310.36
310.219
310.092
309.98
309.883
309.801
309.733
309.68
309.642
309.619
309.61
398.854
396.564
394.285
392.022
389.781
387.568
385.387
383.242
381.138
379.076
377.059
375.088
373.164
371.288
369.459
367.677
365.941
364.251
362.605
361.002
359.441
357.921
356.439
354.996
353.588
352.215
350.876
349.57
348.294
347.049
345.833
344.644
343.483
342.347
341.237
340.151
339.09
338.051
337.034
336.04
335.066
334.114
333.182
332.27
331.377
330.503
329.648
328.812
327.994
327.194
326.411
325.646
324.898
324.167
323.453
322.756
322.076
321.412
320.764
320.133
319.518
318.918
318.335
317.768
317.217
316.681
316.161
315.657
315.169
314.696
314.239
313.797
313.371
312.961
312.566
312.186
311.822
311.474
311.141
310.823
310.521
310.234
309.963
309.707
309.466
309.241
309.032
308.838
308.659
308.496
308.348
308.215
308.098
307.997
307.911
307.84
307.785
307.745
307.721
307.712
398.868
396.609
394.357
392.12
389.903
387.71
385.545
383.414
381.318
379.26
377.243
375.268
373.336
371.448
369.603
367.803
366.045
364.331
362.658
361.026
359.434
357.881
356.366
354.887
353.444
352.034
350.658
349.313
347.999
346.715
345.46
344.233
343.032
341.858
340.71
339.585
338.485
337.409
336.355
335.323
334.313
333.324
332.356
331.408
330.48
329.572
328.683
327.814
326.962
326.13
325.315
324.519
323.74
322.98
322.236
321.51
320.801
320.11
319.435
318.777
318.136
317.511
316.904
316.312
315.738
315.179
314.637
314.112
313.602
313.109
312.633
312.172
311.728
311.299
310.887
310.492
310.112
309.748
309.401
309.069
308.754
308.455
308.172
307.905
307.654
307.419
307.201
306.998
306.812
306.641
306.487
306.349
306.227
306.121
306.031
305.957
305.9
305.858
305.833
305.823
398.881
396.645
394.416
392.201
390.002
387.826
385.675
383.553
381.463
379.408
377.39
375.41
373.47
371.57
369.711
367.892
366.114
364.376
362.678
361.019
359.397
357.813
356.266
354.753
353.275
351.831
350.418
349.037
347.686
346.365
345.072
343.808
342.57
341.358
340.172
339.01
337.873
336.759
335.669
334.6
333.554
332.53
331.527
330.544
329.582
328.64
327.718
326.815
325.931
325.067
324.221
323.394
322.585
321.795
321.022
320.268
319.531
318.812
318.11
317.426
316.759
316.11
315.478
314.863
314.265
313.684
313.12
312.573
312.043
311.53
311.034
310.555
310.092
309.647
309.218
308.806
308.41
308.032
307.67
307.325
306.997
306.686
306.391
306.113
305.852
305.607
305.38
305.169
304.975
304.797
304.637
304.493
304.366
304.255
304.162
304.085
304.025
303.982
303.955
303.946
398.89
396.674
394.464
392.265
390.082
387.918
385.777
383.663
381.578
379.524
377.503
375.518
373.569
371.657
369.783
367.947
366.15
364.389
362.667
360.981
359.332
357.719
356.14
354.596
353.085
351.606
350.159
348.743
347.356
345.999
344.67
343.369
342.094
340.846
339.623
338.426
337.252
336.102
334.976
333.872
332.791
331.732
330.694
329.677
328.682
327.706
326.751
325.816
324.901
324.005
323.129
322.271
321.433
320.613
319.812
319.029
318.265
317.519
316.791
316.081
315.389
314.715
314.058
313.42
312.799
312.196
311.61
311.042
310.492
309.959
309.444
308.946
308.466
308.003
307.557
307.129
306.718
306.325
305.949
305.591
305.25
304.926
304.62
304.331
304.06
303.806
303.569
303.35
303.148
302.964
302.797
302.648
302.516
302.401
302.304
302.224
302.162
302.117
302.089
302.079
398.898
396.697
394.501
392.316
390.144
387.99
385.857
383.748
381.665
379.61
377.587
375.595
373.637
371.714
369.825
367.972
366.155
364.374
362.628
360.917
359.241
357.599
355.991
354.416
352.873
351.362
349.881
348.431
347.01
345.618
344.254
342.918
341.608
340.324
339.066
337.833
336.624
335.439
334.278
333.139
332.024
330.93
329.859
328.809
327.78
326.772
325.785
324.818
323.872
322.945
322.038
321.151
320.283
319.434
318.605
317.795
317.003
316.23
315.476
314.741
314.024
313.325
312.645
311.984
311.34
310.715
310.108
309.52
308.949
308.397
307.862
307.346
306.848
306.368
305.906
305.462
305.036
304.628
304.239
303.867
303.513
303.178
302.86
302.56
302.279
302.015
301.77
301.543
301.333
301.142
300.969
300.814
300.677
300.558
300.457
300.374
300.31
300.263
300.234
300.224
398.904
396.714
394.53
392.354
390.191
388.044
385.916
383.81
381.727
379.671
377.643
375.644
373.677
371.741
369.838
367.969
366.133
364.331
362.562
360.827
359.125
357.456
355.819
354.214
352.641
351.098
349.586
348.103
346.649
345.223
343.825
342.454
341.11
339.792
338.499
337.231
335.988
334.769
333.574
332.402
331.252
330.126
329.021
327.938
326.877
325.837
324.819
323.821
322.843
321.886
320.95
320.033
319.136
318.26
317.402
316.565
315.746
314.947
314.168
313.407
312.666
311.943
311.24
310.555
309.889
309.243
308.615
308.005
307.415
306.843
306.29
305.756
305.24
304.743
304.265
303.805
303.364
302.942
302.538
302.154
301.787
301.44
301.111
300.801
300.509
300.236
299.982
299.747
299.53
299.332
299.152
298.992
298.85
298.727
298.622
298.537
298.47
298.421
298.392
298.381
398.908
396.727
394.55
392.382
390.225
388.082
385.957
383.851
381.768
379.708
377.674
375.668
373.69
371.743
369.826
367.94
366.085
364.263
362.472
360.713
358.986
357.291
355.627
353.993
352.39
350.817
349.274
347.759
346.273
344.814
343.384
341.979
340.602
339.25
337.924
336.623
335.346
334.093
332.865
331.66
330.477
329.318
328.181
327.066
325.973
324.902
323.853
322.824
321.817
320.83
319.864
318.919
317.994
317.089
316.204
315.34
314.495
313.67
312.865
312.08
311.314
310.568
309.841
309.134
308.446
307.778
307.129
306.5
305.89
305.299
304.727
304.175
303.642
303.128
302.634
302.159
301.703
301.266
300.849
300.451
300.073
299.713
299.373
299.052
298.751
298.469
298.206
297.963
297.738
297.534
297.348
297.182
297.035
296.908
296.8
296.711
296.642
296.592
296.562
296.55
398.911
396.735
394.564
392.4
390.247
388.106
385.981
383.875
381.788
379.724
377.684
375.669
373.681
371.721
369.789
367.887
366.014
364.172
362.36
360.578
358.827
357.106
355.415
353.754
352.122
350.52
348.946
347.401
345.883
344.393
342.93
341.494
340.084
338.7
337.341
336.007
334.697
333.412
332.151
330.914
329.699
328.508
327.339
326.193
325.069
323.967
322.887
321.829
320.792
319.776
318.781
317.807
316.854
315.922
315.011
314.12
313.249
312.399
311.569
310.759
309.969
309.2
308.45
307.721
307.012
306.322
305.653
305.003
304.374
303.764
303.174
302.604
302.054
301.524
301.014
300.523
300.053
299.602
299.171
298.761
298.37
297.999
297.647
297.316
297.005
296.714
296.442
296.191
295.96
295.748
295.557
295.385
295.234
295.102
294.991
294.899
294.827
294.776
294.744
294.733
398.913
396.74
394.571
392.41
390.257
388.117
385.991
383.882
381.792
379.722
377.674
375.65
373.651
371.677
369.731
367.812
365.922
364.06
362.227
360.423
358.648
356.902
355.185
353.497
351.838
350.207
348.604
347.029
345.481
343.961
342.467
340.999
339.557
338.141
336.75
335.384
334.043
332.726
331.433
330.164
328.919
327.696
326.496
325.32
324.165
323.033
321.923
320.835
319.769
318.725
317.702
316.7
315.72
314.761
313.822
312.905
312.009
311.134
310.279
309.445
308.632
307.84
307.068
306.316
305.586
304.875
304.186
303.516
302.867
302.239
301.631
301.044
300.477
299.931
299.405
298.899
298.414
297.949
297.505
297.082
296.679
296.296
295.934
295.593
295.272
294.971
294.691
294.432
294.194
293.976
293.778
293.601
293.445
293.309
293.194
293.1
293.026
292.973
292.941
292.929
398.913
396.742
394.573
392.412
390.259
388.117
385.988
383.875
381.779
379.702
377.646
375.612
373.601
371.615
369.654
367.718
365.81
363.929
362.075
360.249
358.451
356.681
354.939
353.225
351.539
349.88
348.249
346.645
345.068
343.517
341.993
340.494
339.022
337.575
336.153
334.756
333.384
332.036
330.712
329.412
328.136
326.882
325.653
324.446
323.261
322.1
320.961
319.844
318.749
317.677
316.626
315.597
314.589
313.604
312.64
311.697
310.776
309.875
308.997
308.139
307.303
306.488
305.694
304.921
304.169
303.438
302.728
302.039
301.372
300.725
300.099
299.495
298.911
298.348
297.807
297.286
296.787
296.309
295.851
295.415
295
294.606
294.234
293.882
293.551
293.242
292.954
292.687
292.441
292.217
292.013
291.831
291.67
291.53
291.412
291.315
291.239
291.184
291.151
291.138
398.913
396.74
394.571
392.407
390.252
388.106
385.974
383.855
381.752
379.668
377.602
375.557
373.534
371.534
369.558
367.607
365.681
363.78
361.906
360.059
358.238
356.445
354.678
352.938
351.226
349.54
347.881
346.249
344.643
343.063
341.51
339.982
338.479
337.002
335.55
334.123
332.72
331.342
329.988
328.657
327.351
326.068
324.808
323.572
322.358
321.168
320
318.855
317.732
316.632
315.554
314.498
313.464
312.452
311.463
310.495
309.549
308.624
307.722
306.841
305.982
305.144
304.328
303.534
302.761
302.01
301.28
300.572
299.886
299.221
298.578
297.956
297.356
296.778
296.221
295.686
295.172
294.68
294.21
293.762
293.335
292.93
292.546
292.184
291.844
291.526
291.23
290.955
290.702
290.471
290.262
290.075
289.909
289.766
289.644
289.544
289.466
289.409
289.375
289.362
398.911
396.736
394.563
392.396
390.237
388.087
385.948
383.823
381.713
379.619
377.544
375.488
373.452
371.438
369.447
367.479
365.535
363.616
361.722
359.853
358.01
356.193
354.403
352.638
350.9
349.188
347.502
345.842
344.208
342.6
341.018
339.461
337.929
336.423
334.941
333.484
332.052
330.644
329.26
327.901
326.565
325.253
323.964
322.699
321.457
320.238
319.042
317.869
316.719
315.591
314.486
313.404
312.344
311.307
310.292
309.299
308.329
307.38
306.454
305.551
304.669
303.809
302.972
302.157
301.363
300.592
299.843
299.116
298.412
297.729
297.068
296.43
295.814
295.22
294.648
294.098
293.57
293.065
292.582
292.121
291.683
291.266
290.872
290.501
290.152
289.825
289.52
289.238
288.978
288.741
288.526
288.333
288.163
288.015
287.89
287.787
287.707
287.649
287.614
287.601
398.909
396.729
394.552
392.38
390.216
388.059
385.914
383.781
381.662
379.559
377.472
375.404
373.356
371.327
369.321
367.336
365.374
363.436
361.522
359.633
357.768
355.929
354.115
352.326
350.562
348.825
347.113
345.426
343.765
342.129
340.519
338.934
337.374
335.838
334.328
332.842
331.381
329.944
328.531
327.143
325.778
324.437
323.12
321.826
320.556
319.31
318.086
316.886
315.709
314.555
313.424
312.315
311.23
310.167
309.128
308.111
307.116
306.144
305.195
304.269
303.365
302.484
301.625
300.789
299.976
299.185
298.417
297.671
296.948
296.248
295.571
294.916
294.283
293.674
293.087
292.523
291.981
291.463
290.967
290.494
290.044
289.617
289.213
288.831
288.473
288.137
287.825
287.535
287.268
287.025
286.804
286.606
286.432
286.28
286.152
286.046
285.964
285.905
285.868
285.855
398.907
396.721
394.538
392.36
390.188
388.025
385.871
383.73
381.601
379.487
377.389
375.309
373.247
371.204
369.181
367.18
365.201
363.244
361.31
359.4
357.514
355.652
353.815
352.002
350.214
348.451
346.714
345.001
343.313
341.651
340.013
338.4
336.812
335.249
333.71
332.196
330.707
329.241
327.8
326.384
324.991
323.622
322.277
320.956
319.658
318.384
317.134
315.907
314.703
313.523
312.366
311.232
310.122
309.035
307.97
306.929
305.912
304.917
303.945
302.996
302.071
301.168
300.289
299.432
298.599
297.789
297.002
296.238
295.497
294.779
294.085
293.414
292.766
292.141
291.539
290.961
290.406
289.875
289.366
288.882
288.42
287.982
287.568
287.176
286.809
286.465
286.144
285.847
285.574
285.324
285.098
284.895
284.716
284.561
284.429
284.321
284.236
284.175
284.138
284.124
398.903
396.71
394.52
392.335
390.155
387.983
385.821
383.67
381.531
379.406
377.296
375.202
373.126
371.068
369.03
367.012
365.015
363.04
361.086
359.156
357.248
355.365
353.504
351.668
349.857
348.069
346.306
344.568
342.854
341.165
339.501
337.861
336.246
334.655
333.089
331.547
330.03
328.537
327.069
325.624
324.204
322.808
321.435
320.087
318.762
317.462
316.185
314.932
313.702
312.496
311.314
310.155
309.02
307.909
306.821
305.756
304.715
303.697
302.703
301.733
300.786
299.862
298.962
298.086
297.233
296.404
295.598
294.816
294.058
293.323
292.612
291.925
291.261
290.621
290.005
289.413
288.845
288.3
287.78
287.283
286.811
286.362
285.937
285.537
285.16
284.808
284.479
284.175
283.895
283.639
283.407
283.2
283.016
282.857
282.722
282.611
282.524
282.462
282.424
282.41
398.899
396.698
394.5
392.306
390.117
387.936
385.764
383.602
381.452
379.315
377.193
375.086
372.995
370.922
368.868
366.833
364.818
362.824
360.852
358.901
356.973
355.067
353.185
351.326
349.49
347.679
345.891
344.128
342.389
340.674
338.983
337.317
335.675
334.058
332.465
330.896
329.352
327.832
326.336
324.865
323.418
321.995
320.596
319.221
317.87
316.543
315.24
313.961
312.706
311.475
310.268
309.085
307.925
306.79
305.679
304.591
303.527
302.487
301.471
300.479
299.511
298.567
297.647
296.751
295.879
295.031
294.207
293.407
292.631
291.879
291.152
290.449
289.77
289.115
288.485
287.879
287.298
286.741
286.208
285.7
285.216
284.757
284.322
283.912
283.527
283.166
282.83
282.519
282.232
281.97
281.733
281.52
281.332
281.169
281.031
280.918
280.829
280.765
280.726
280.712
398.894
396.685
394.477
392.273
390.075
387.884
385.701
383.528
381.366
379.217
377.081
374.96
372.855
370.767
368.696
366.645
364.612
362.599
360.607