/*--------------------------------*- C++ -*----------------------------------*\
| =========                 |                                                 |
| \\      /  F ield         | OpenFOAM: The Open Source CFD Toolbox           |
|  \\    /   O peration     | Version:  2406                                  |
|   \\  /    A nd           | Website:  www.openfoam.com                      |
|    \\/     M anipulation  |                                                 |
\*---------------------------------------------------------------------------*/
FoamFile
{
    version     2.0;
    format      ascii;
    arch        "LSB;label=32;scalar=64";
    class       volScalarField;
    location    "9";
    object      p;
}
// * * * * * * * * * * * * * * * * * * * * * * * * * * * * * * * * * * * * * //

dimensions      [0 2 -2 0 0 0 0];

internalField   nonuniform List<scalar> 
34560
(
30.811399
30.797953
30.780415
30.759826
30.736646
30.712773
30.69031
30.670382
30.654667
30.892147
30.875625
30.853568
30.826869
30.795978
30.763567
30.732766
30.705407
30.683526
30.967353
30.948023
30.922078
30.89053
30.853719
30.81476
30.777021
30.743135
30.715862
31.042013
31.020015
30.990267
30.953902
30.911306
30.866077
30.821804
30.78157
30.748591
31.114337
31.089786
31.056391
31.015402
30.967238
30.91595
30.865383
30.818918
30.780134
31.180969
31.154338
31.117846
31.072798
31.019615
30.96275
30.906293
30.853906
30.809525
31.241597
31.213041
31.17369
31.124905
31.067118
31.005109
30.943224
30.885368
30.835796
31.294816
31.264526
31.22261
31.170486
31.108594
31.041943
30.975181
30.91242
30.858274
31.339459
31.307635
31.263466
31.208441
31.143051
31.072394
31.001426
30.93446
30.876478
31.374079
31.341
31.295006
31.237664
31.16957
31.095779
31.021442
30.951109
30.890141
31.397793
31.363744
31.316406
31.257435
31.187518
31.111617
31.034902
30.962204
30.899194
31.410147
31.375547
31.327461
31.267595
31.1967
31.119668
31.041682
30.967729
30.903686
31.410146
31.375547
31.32746
31.267595
31.1967
31.119668
31.041681
30.967729
30.903686
31.397792
31.363743
31.316405
31.257434
31.187518
31.111616
31.034901
30.962204
30.899194
31.374077
31.340998
31.295004
31.237662
31.169569
31.095778
31.021441
30.951109
30.89014
31.339456
31.307632
31.263463
31.208439
31.143049
31.072392
31.001425
30.934459
30.876476
31.294812
31.264523
31.222607
31.170483
31.108591
31.041941
30.97518
30.912419
30.858272
31.241593
31.213037
31.173687
31.124902
31.067115
31.005107
30.943223
30.885367
30.835794
31.180965
31.154335
31.117843
31.072795
31.019613
30.962748
30.90629
30.853905
30.809524
31.114335
31.089784
31.056388
31.0154
30.967236
30.915948
30.865381
30.818916
30.780132
31.042011
31.020014
30.990266
30.953901
30.911305
30.866075
30.821802
30.781569
30.748589
30.967353
30.948023
30.922079
30.890531
30.85372
30.81476
30.77702
30.743134
30.715861
30.892149
30.875627
30.85357
30.826871
30.79598
30.763569
30.732767
30.705409
30.683527
30.811401
30.797956
30.780417
30.759829
30.736649
30.712776
30.690313
30.670387
30.654672
28.394559
28.395366
28.396497
28.398596
28.402169
28.406696
28.41101
28.413526
28.414989
28.387736
28.38902
28.390889
28.394108
28.399178
28.405207
28.410471
28.413643
28.415451
28.37929
28.38105
28.383642
28.388068
28.394884
28.402813
28.409578
28.413762
28.415957
28.372055
28.374301
28.377569
28.383066
28.391439
28.401114
28.409346
28.41453
28.417211
28.365955
28.368679
28.372613
28.37917
28.389092
28.400497
28.410157
28.416222
28.419292
28.360511
28.363807
28.368547
28.376222
28.387745
28.400912
28.411979
28.41885
28.422156
28.356041
28.359833
28.365527
28.37453
28.387621
28.402473
28.414841
28.42238
28.425744
28.35246
28.356577
28.363205
28.37392
28.388741
28.405159
28.418658
28.426698
28.42994
28.34942
28.353632
28.360681
28.373329
28.390933
28.408879
28.423229
28.431609
28.434584
28.347864
28.352042
28.359201
28.372574
28.392658
28.413064
28.428171
28.436782
28.439472
28.347795
28.351844
28.359092
28.37305
28.394365
28.416599
28.432704
28.441202
28.443509
28.348327
28.352225
28.359468
28.373758
28.395732
28.418964
28.435523
28.443781
28.445918
28.348326
28.352224
28.359468
28.373758
28.395731
28.418964
28.435522
28.443781
28.445918
28.347794
28.351843
28.359091
28.373049
28.394364
28.416598
28.432703
28.441201
28.443509
28.347863
28.352041
28.3592
28.372572
28.392657
28.413063
28.42817
28.436781
28.439471
28.349418
28.35363
28.360679
28.373327
28.390931
28.408877
28.423228
28.431607
28.434583
28.352457
28.356574
28.363203
28.373917
28.388739
28.405157
28.418656
28.426696
28.429937
28.356038
28.359831
28.365524
28.374527
28.387619
28.40247
28.414838
28.422377
28.425741
28.360508
28.363804
28.368545
28.37622
28.387742
28.40091
28.411976
28.418846
28.422153
28.365953
28.368677
28.372611
28.379168
28.38909
28.400494
28.410154
28.416219
28.419289
28.372054
28.3743
28.377568
28.383066
28.391438
28.401112
28.409344
28.414527
28.417207
28.379289
28.38105
28.383642
28.388068
28.394884
28.402812
28.409576
28.413759
28.415953
28.387737
28.38902
28.390889
28.394109
28.399178
28.405207
28.410471
28.413641
28.415447
28.39456
28.395368
28.396499
28.398598
28.402171
28.406697
28.411011
28.413525
28.414987
27.670113
27.670141
27.670022
27.669606
27.669044
27.668675
27.66885
27.669447
27.669852
27.667638
27.667811
27.667852
27.667565
27.667142
27.666942
27.667288
27.668082
27.668802
27.663892
27.664205
27.664393
27.664252
27.664032
27.664136
27.664864
27.666067
27.667216
27.660064
27.660509
27.660819
27.660767
27.660676
27.661027
27.662138
27.663817
27.665494
27.656207
27.656746
27.657151
27.657187
27.657221
27.657809
27.659296
27.661443
27.66367
27.652551
27.653091
27.653466
27.653568
27.653726
27.654538
27.65638
27.658986
27.661744
27.649779
27.650286
27.65036
27.650202
27.650388
27.651346
27.653465
27.656482
27.659761
27.647993
27.648516
27.648191
27.647289
27.647227
27.648265
27.650593
27.65396
27.657777
27.647647
27.648263
27.647896
27.64589
27.644381
27.645286
27.647792
27.651421
27.655813
27.64757
27.648272
27.648041
27.645994
27.643125
27.642695
27.645132
27.648902
27.653862
27.647236
27.648029
27.647861
27.645796
27.642597
27.641104
27.642918
27.646986
27.652535
27.647016
27.647861
27.647714
27.645599
27.642244
27.640177
27.641655
27.646022
27.651829
27.647016
27.647861
27.647714
27.645599
27.642244
27.640177
27.641655
27.646022
27.651829
27.647235
27.648028
27.64786
27.645795
27.642597
27.641103
27.642918
27.646986
27.652534
27.647569
27.648271
27.64804
27.645993
27.643124
27.642694
27.645131
27.648901
27.653861
27.647646
27.648261
27.647894
27.645889
27.64438
27.645284
27.647791
27.65142
27.655812
27.647991
27.648513
27.64819
27.647287
27.647226
27.648263
27.650591
27.653958
27.657775
27.649776
27.650284
27.650359
27.6502
27.650386
27.651343
27.653463
27.65648
27.659758
27.652549
27.653089
27.653464
27.653566
27.653724
27.654535
27.656377
27.658984
27.661741
27.656205
27.656744
27.657149
27.657185
27.657219
27.657807
27.659293
27.661441
27.663668
27.660062
27.660508
27.660817
27.660765
27.660674
27.661025
27.662136
27.663814
27.665491
27.66389
27.664204
27.664392
27.664251
27.664031
27.664134
27.664862
27.666064
27.667212
27.667636
27.66781
27.66785
27.667564
27.66714
27.66694
27.667286
27.668078
27.668798
27.670111
27.67014
27.670021
27.669605
27.669042
27.668674
27.668847
27.669444
27.66985
26.184499
26.184402
26.184327
26.184368
26.184507
26.184583
26.184366
26.183735
26.183039
26.185053
26.184967
26.184936
26.185062
26.185318
26.185479
26.185227
26.184438
26.183407
26.185288
26.185215
26.185228
26.185455
26.185864
26.186168
26.185963
26.185097
26.183841
26.185615
26.185565
26.185621
26.18593
26.186458
26.186872
26.186704
26.185781
26.184369
26.185942
26.185917
26.186022
26.18642
26.187073
26.1876
26.187474
26.186499
26.184956
26.186145
26.186159
26.18633
26.186837
26.187632
26.188291
26.188224
26.187209
26.18555
26.186329
26.186373
26.186602
26.187211
26.188151
26.188943
26.188933
26.187876
26.18611
26.186421
26.186492
26.186773
26.187492
26.188602
26.189549
26.189579
26.188469
26.1866
26.186406
26.186504
26.186842
26.187663
26.188949
26.190097
26.190146
26.188956
26.186982
26.186012
26.186141
26.186517
26.187411
26.188835
26.190231
26.190542
26.189291
26.187195
26.185437
26.185598
26.18599
26.186885
26.188354
26.189917
26.190551
26.189434
26.187259
26.185101
26.185279
26.185681
26.186577
26.188063
26.189662
26.190386
26.189443
26.187248
26.185101
26.185279
26.185681
26.186576
26.188062
26.189662
26.190385
26.189443
26.187248
26.185436
26.185597
26.18599
26.186884
26.188353
26.189917
26.19055
26.189434
26.187258
26.186011
26.18614
26.186515
26.187409
26.188833
26.19023
26.190541
26.18929
26.187194
26.186405
26.186502
26.18684
26.187661
26.188947
26.190096
26.190145
26.188955
26.18698
26.186418
26.18649
26.186771
26.18749
26.188599
26.189547
26.189577
26.188467
26.186599
26.186327
26.186371
26.1866
26.187208
26.188148
26.188941
26.188931
26.187873
26.186108
26.186143
26.186156
26.186328
26.186834
26.18763
26.188288
26.188222
26.187206
26.185548
26.185939
26.185914
26.18602
26.186418
26.18707
26.187597
26.187471
26.186497
26.184954
26.185612
26.185562
26.185618
26.185927
26.186455
26.186869
26.186701
26.185778
26.184366
26.185284
26.185212
26.185225
26.185451
26.185861
26.186164
26.18596
26.185093
26.183838
26.185049
26.184963
26.184932
26.185058
26.185315
26.185475
26.185223
26.184435
26.183404
26.184495
26.184398
26.184324
26.184365
26.184503
26.184579
26.184363
26.183732
26.183037
25.011478
25.01147
25.01143
25.011316
25.011142
25.010993
25.010994
25.011171
25.011349
25.011093
25.011103
25.011082
25.010981
25.01082
25.010695
25.010739
25.010984
25.011262
25.010475
25.010501
25.010496
25.010408
25.010269
25.010197
25.010324
25.010671
25.011064
25.009826
25.009864
25.009869
25.009787
25.009659
25.009634
25.00985
25.010318
25.010851
25.009156
25.009204
25.009217
25.00914
25.009027
25.009052
25.009364
25.009958
25.010626
25.008481
25.008538
25.008557
25.008485
25.008391
25.008469
25.00888
25.009598
25.010392
25.007868
25.007931
25.007953
25.007879
25.007795
25.007915
25.008418
25.009251
25.010158
25.007344
25.007411
25.007431
25.007343
25.007247
25.007389
25.007989
25.008931
25.009937
25.006981
25.00705
25.007059
25.006931
25.006779
25.006898
25.007601
25.008654
25.009743
25.00698
25.007048
25.00707
25.006956
25.00678
25.00679
25.007336
25.008443
25.009592
25.007152
25.007224
25.007273
25.007225
25.007108
25.007088
25.007386
25.008329
25.009493
25.007263
25.007337
25.0074
25.007382
25.007292
25.007283
25.007541
25.008303
25.009447
25.007262
25.007337
25.0074
25.007382
25.007292
25.007283
25.007541
25.008303
25.009447
25.007151
25.007223
25.007273
25.007224
25.007107
25.007088
25.007386
25.008328
25.009492
25.006979
25.007047
25.007069
25.006955
25.006779
25.006789
25.007335
25.008441
25.009591
25.006979
25.007048
25.007057
25.006929
25.006777
25.006896
25.007599
25.008652
25.009741
25.007341
25.007409
25.007428
25.007341
25.007244
25.007387
25.007987
25.008929
25.009935
25.007865
25.007928
25.00795
25.007876
25.007792
25.007912
25.008415
25.009248
25.010156
25.008477
25.008534
25.008554
25.008481
25.008387
25.008465
25.008876
25.009594
25.010389
25.009152
25.0092
25.009213
25.009136
25.009023
25.009048
25.00936
25.009954
25.010622
25.009821
25.00986
25.009864
25.009782
25.009654
25.009629
25.009845
25.010314
25.010846
25.01047
25.010496
25.01049
25.010403
25.010263
25.010191
25.010318
25.010666
25.011059
25.011087
25.011097
25.011076
25.010975
25.010814
25.010689
25.010733
25.010978
25.011256
25.011471
25.011464
25.011423
25.01131
25.011136
25.010986
25.010988
25.011165
25.011342
23.67914
23.679121
23.679107
23.679115
23.679136
23.679129
23.679035
23.678829
23.678605
23.679187
23.679169
23.679161
23.679186
23.679231
23.679239
23.679134
23.67889
23.678593
23.6792
23.679182
23.67918
23.679221
23.679292
23.679321
23.679215
23.678947
23.678596
23.679243
23.679227
23.67923
23.679283
23.67937
23.679411
23.679301
23.679014
23.678628
23.679293
23.679279
23.679288
23.679353
23.679455
23.679507
23.679396
23.679094
23.678682
23.679322
23.679314
23.679332
23.67941
23.679529
23.679594
23.679487
23.679177
23.678747
23.679345
23.679341
23.679367
23.679457
23.679591
23.679668
23.679568
23.679256
23.678814
23.679351
23.679352
23.679384
23.679484
23.679631
23.679722
23.679633
23.679324
23.678877
23.679342
23.679346
23.679384
23.679491
23.679646
23.679748
23.679676
23.679378
23.678931
23.67934
23.679346
23.679388
23.679499
23.679655
23.679763
23.679702
23.679417
23.678974
23.679337
23.679346
23.67939
23.679504
23.679665
23.679779
23.679723
23.679444
23.679005
23.679335
23.679344
23.679388
23.679504
23.679666
23.679784
23.679736
23.679458
23.679021
23.679335
23.679344
23.679388
23.679503
23.679665
23.679784
23.679736
23.679458
23.679021
23.679337
23.679345
23.679389
23.679504
23.679664
23.679778
23.679722
23.679443
23.679004
23.679338
23.679345
23.679386
23.679497
23.679653
23.679761
23.6797
23.679416
23.678973
23.67934
23.679344
23.679382
23.679489
23.679644
23.679746
23.679674
23.679376
23.678929
23.679348
23.679349
23.679381
23.679481
23.679628
23.679719
23.67963
23.679321
23.678874
23.679342
23.679338
23.679363
23.679453
23.679587
23.679664
23.679564
23.679253
23.678811
23.679318
23.67931
23.679327
23.679405
23.679525
23.679589
23.679482
23.679173
23.678743
23.679288
23.679274
23.679283
23.679348
23.67945
23.679501
23.679391
23.67909
23.678678
23.679237
23.679221
23.679224
23.679277
23.679364
23.679404
23.679295
23.679008
23.678622
23.679193
23.679175
23.679173
23.679214
23.679285
23.679314
23.679208
23.67894
23.678589
23.679179
23.679161
23.679153
23.679178
23.679223
23.679231
23.679126
23.678882
23.678585
23.679132
23.679113
23.679098
23.679106
23.679128
23.67912
23.679026
23.678819
23.678596
22.424001
22.424005
22.424001
22.423979
22.42394
22.423903
22.423903
22.423949
22.424006
22.423918
22.423926
22.423926
22.423906
22.423867
22.423836
22.423848
22.423917
22.424007
22.423783
22.423794
22.423797
22.423778
22.423743
22.423722
22.423753
22.42385
22.42397
22.423639
22.423653
22.423658
22.423639
22.423605
22.423592
22.423644
22.42377
22.423926
22.42349
22.423506
22.423512
22.423494
22.423462
22.423458
22.423531
22.423688
22.423877
22.42334
22.423357
22.423365
22.423347
22.423317
22.423324
22.423419
22.423605
22.423825
22.423201
22.423219
22.423227
22.423209
22.423181
22.423197
22.423312
22.423524
22.423771
22.423075
22.423095
22.423103
22.423084
22.423059
22.423083
22.423216
22.423451
22.42372
22.42297
22.42299
22.422998
22.422979
22.422955
22.422986
22.423133
22.423387
22.423674
22.42289
22.42291
22.422918
22.422899
22.422875
22.422911
22.423069
22.423336
22.423637
22.422837
22.422857
22.422865
22.422845
22.422822
22.422862
22.423026
22.423301
22.42361
22.422811
22.42283
22.422838
22.422818
22.422796
22.422837
22.423004
22.423283
22.423596
22.42281
22.42283
22.422838
22.422818
22.422795
22.422836
22.423003
22.423283
22.423596
22.422836
22.422856
22.422864
22.422844
22.422821
22.422861
22.423025
22.4233
22.42361
22.422888
22.422908
22.422916
22.422897
22.422873
22.422909
22.423067
22.423335
22.423636
22.422968
22.422987
22.422996
22.422976
22.422952
22.422983
22.423131
22.423385
22.423673
22.423072
22.423091
22.4231
22.423081
22.423055
22.423079
22.423213
22.423448
22.423718
22.423197
22.423215
22.423223
22.423204
22.423177
22.423193
22.423308
22.423521
22.423769
22.423335
22.423352
22.42336
22.423341
22.423311
22.423318
22.423413
22.4236
22.423821
22.423483
22.423499
22.423506
22.423487
22.423454
22.423451
22.423525
22.423682
22.423872
22.423631
22.423645
22.42365
22.423631
22.423597
22.423584
22.423636
22.423763
22.42392
22.423773
22.423784
22.423787
22.423768
22.423733
22.423712
22.423744
22.423841
22.423963
22.423907
22.423915
22.423915
22.423894
22.423856
22.423825
22.423837
22.423907
22.423998
22.423988
22.423992
22.423989
22.423967
22.423927
22.423891
22.42389
22.423938
22.423996
21.131536
21.13153
21.131525
21.131527
21.131534
21.131536
21.131517
21.131472
21.131421
21.131532
21.131526
21.131523
21.13153
21.131543
21.131549
21.13153
21.131477
21.131412
21.131524
21.131518
21.131517
21.131528
21.131547
21.131559
21.131539
21.131481
21.131403
21.131528
21.131522
21.131522
21.131535
21.131558
21.131573
21.131552
21.131489
21.131401
21.131535
21.13153
21.131531
21.131547
21.131574
21.131591
21.13157
21.131501
21.131405
21.131542
21.131538
21.13154
21.13156
21.13159
21.131609
21.131588
21.131516
21.131413
21.13155
21.131546
21.13155
21.131572
21.131606
21.131627
21.131605
21.131531
21.131424
21.131556
21.131554
21.131559
21.131583
21.131619
21.131642
21.131621
21.131545
21.131434
21.131562
21.13156
21.131567
21.131592
21.13163
21.131655
21.131634
21.131557
21.131444
21.131567
21.131565
21.131573
21.1316
21.131639
21.131665
21.131645
21.131567
21.131453
21.13157
21.131569
21.131577
21.131605
21.131646
21.131673
21.131652
21.131573
21.131458
21.131572
21.131571
21.13158
21.131608
21.131649
21.131676
21.131654
21.131575
21.131461
21.131572
21.131571
21.13158
21.131608
21.131649
21.131676
21.131654
21.131575
21.131461
21.131569
21.131568
21.131576
21.131604
21.131644
21.131671
21.131651
21.131572
21.131458
21.131565
21.131564
21.131571
21.131598
21.131637
21.131663
21.131643
21.131565
21.131452
21.13156
21.131557
21.131564
21.131589
21.131627
21.131652
21.131631
21.131555
21.131443
21.131553
21.13155
21.131555
21.131579
21.131615
21.131638
21.131617
21.131542
21.131432
21.131545
21.131541
21.131545
21.131567
21.1316
21.131622
21.1316
21.131527
21.131421
21.131536
21.131531
21.131534
21.131553
21.131583
21.131603
21.131581
21.131511
21.13141
21.131528
21.131522
21.131523
21.131539
21.131566
21.131583
21.131562
21.131495
21.1314
21.131518
21.131512
21.131511
21.131525
21.131548
21.131563
21.131543
21.131481
21.131395
21.131512
21.131506
21.131505
21.131515
21.131535
21.131546
21.131528
21.131471
21.131395
21.131518
21.131512
21.131509
21.131515
21.131528
21.131535
21.131516
21.131465
21.131403
21.13152
21.131514
21.13151
21.131511
21.131518
21.13152
21.131502
21.131457
21.131408
19.855396
19.855397
19.855397
19.855393
19.855383
19.855373
19.855368
19.855373
19.855384
19.855374
19.855377
19.855377
19.855373
19.855364
19.855356
19.855355
19.855367
19.855385
19.855338
19.855341
19.855343
19.855339
19.855331
19.855326
19.85533
19.855349
19.855375
19.855299
19.855303
19.855305
19.855302
19.855294
19.855291
19.8553
19.855327
19.855362
19.85526
19.855264
19.855267
19.855263
19.855256
19.855255
19.855269
19.855303
19.855346
19.85522
19.855225
19.855227
19.855224
19.855217
19.855218
19.855238
19.855279
19.85533
19.855183
19.855188
19.85519
19.855187
19.855181
19.855183
19.855208
19.855256
19.855313
19.855149
19.855155
19.855157
19.855154
19.855148
19.855152
19.855181
19.855234
19.855297
19.855121
19.855126
19.855129
19.855125
19.855119
19.855125
19.855157
19.855215
19.855283
19.855099
19.855104
19.855107
19.855103
19.855097
19.855104
19.855139
19.8552
19.855271
19.855083
19.855089
19.855091
19.855087
19.855082
19.855089
19.855126
19.85519
19.855263
19.855075
19.855081
19.855083
19.855079
19.855074
19.855082
19.855121
19.855186
19.855259
19.855075
19.85508
19.855083
19.855079
19.855073
19.855081
19.85512
19.855185
19.855259
19.855082
19.855088
19.85509
19.855086
19.85508
19.855088
19.855125
19.855189
19.855263
19.855097
19.855102
19.855105
19.855101
19.855095
19.855102
19.855137
19.855199
19.85527
19.855118
19.855124
19.855126
19.855122
19.855116
19.855122
19.855154
19.855213
19.855282
19.855146
19.855151
19.855153
19.85515
19.855143
19.855148
19.855177
19.855231
19.855295
19.855178
19.855183
19.855185
19.855182
19.855175
19.855178
19.855203
19.855252
19.855311
19.855214
19.855218
19.855221
19.855217
19.85521
19.855211
19.855232
19.855274
19.855326
19.855252
19.855256
19.855258
19.855254
19.855247
19.855246
19.855261
19.855297
19.855342
19.855289
19.855293
19.855295
19.855291
19.855284
19.85528
19.855291
19.855318
19.855355
19.855325
19.855329
19.85533
19.855326
19.855318
19.855313
19.855318
19.855338
19.855367
19.855359
19.855362
19.855363
19.855358
19.85535
19.855341
19.855341
19.855353
19.855374
19.855379
19.855381
19.855381
19.855376
19.855367
19.855356
19.855352
19.855357
19.85537
18.572841
18.572839
18.572838
18.572838
18.572839
18.572839
18.572836
18.572827
18.572815
18.572837
18.572836
18.572835
18.572836
18.572838
18.572839
18.572835
18.572824
18.572811
18.572833
18.572832
18.572832
18.572833
18.572837
18.572839
18.572834
18.572822
18.572805
18.572834
18.572832
18.572832
18.572834
18.572838
18.57284
18.572835
18.572821
18.572803
18.572837
18.572836
18.572836
18.572839
18.572843
18.572846
18.57284
18.572825
18.572804
18.572843
18.572842
18.572842
18.572845
18.572851
18.572855
18.572851
18.572835
18.57281
18.572851
18.57285
18.572851
18.572855
18.572862
18.572869
18.572865
18.572848
18.572822
18.57286
18.572859
18.57286
18.572865
18.572874
18.572882
18.572879
18.572862
18.572834
18.572868
18.572867
18.572868
18.572874
18.572885
18.572894
18.572892
18.572874
18.572845
18.572875
18.572874
18.572875
18.572882
18.572893
18.572903
18.572902
18.572884
18.572855
18.57288
18.572879
18.57288
18.572887
18.572899
18.57291
18.572909
18.572891
18.572861
18.572882
18.572881
18.572883
18.57289
18.572902
18.572913
18.572912
18.572894
18.572864
18.572882
18.572881
18.572883
18.572889
18.572902
18.572912
18.572912
18.572894
18.572864
18.572879
18.572878
18.572879
18.572886
18.572898
18.572908
18.572907
18.57289
18.572861
18.572873
18.572872
18.572874
18.57288
18.572891
18.572901
18.5729
18.572882
18.572854
18.572866
18.572865
18.572865
18.572871
18.572881
18.57289
18.572889
18.572872
18.572844
18.572856
18.572855
18.572856
18.57286
18.57287
18.572878
18.572875
18.572858
18.572832
18.572846
18.572845
18.572845
18.572849
18.572856
18.572863
18.57286
18.572844
18.572819
18.572837
18.572835
18.572835
18.572838
18.572844
18.572848
18.572845
18.572829
18.572806
18.572829
18.572828
18.572827
18.57283
18.572834
18.572837
18.572832
18.572818
18.572799
18.572823
18.572822
18.572821
18.572823
18.572827
18.57283
18.572825
18.572813
18.572796
18.572821
18.572819
18.572819
18.57282
18.572824
18.572826
18.572822
18.572811
18.572796
18.572822
18.572821
18.57282
18.572821
18.572823
18.572824
18.57282
18.57281
18.572798
18.572824
18.572823
18.572821
18.572821
18.572822
18.572822
18.572819
18.57281
18.5728
17.292247
17.292248
17.292248
17.292247
17.292246
17.292243
17.292241
17.292241
17.292243
17.29225
17.29225
17.29225
17.29225
17.292248
17.292247
17.292246
17.292248
17.292251
17.292246
17.292247
17.292248
17.292247
17.292246
17.292245
17.292247
17.29225
17.292255
17.292242
17.292242
17.292243
17.292243
17.292242
17.292242
17.292244
17.292249
17.292255
17.292235
17.292236
17.292237
17.292237
17.292236
17.292237
17.29224
17.292246
17.292253
17.292226
17.292227
17.292228
17.292229
17.292228
17.292228
17.292231
17.292238
17.292248
17.292217
17.292218
17.292219
17.292219
17.292218
17.292217
17.29222
17.292228
17.29224
17.292207
17.292209
17.29221
17.29221
17.292208
17.292207
17.29221
17.292218
17.29223
17.292198
17.2922
17.292201
17.292201
17.292199
17.292197
17.2922
17.29221
17.292222
17.292191
17.292193
17.292194
17.292193
17.292191
17.29219
17.292193
17.292203
17.292216
17.292186
17.292188
17.292189
17.292188
17.292186
17.292184
17.292188
17.292198
17.292211
17.292183
17.292185
17.292186
17.292185
17.292183
17.292182
17.292185
17.292195
17.292209
17.292183
17.292185
17.292186
17.292185
17.292183
17.292181
17.292185
17.292195
17.292209
17.292185
17.292187
17.292188
17.292187
17.292185
17.292183
17.292187
17.292197
17.292211
17.292189
17.292191
17.292192
17.292191
17.292189
17.292188
17.292191
17.292201
17.292215
17.292196
17.292197
17.292198
17.292198
17.292196
17.292194
17.292198
17.292207
17.292221
17.292203
17.292205
17.292206
17.292205
17.292204
17.292202
17.292206
17.292215
17.292228
17.292212
17.292213
17.292214
17.292214
17.292213
17.292212
17.292215
17.292224
17.292237
17.29222
17.292221
17.292222
17.292222
17.292221
17.292221
17.292225
17.292233
17.292244
17.292227
17.292228
17.292228
17.292228
17.292227
17.292228
17.292232
17.292239
17.292248
17.292231
17.292232
17.292232
17.292232
17.292231
17.292231
17.292234
17.29224
17.292248
17.292234
17.292235
17.292235
17.292234
17.292233
17.292233
17.292235
17.292239
17.292246
17.292235
17.292236
17.292236
17.292235
17.292234
17.292232
17.292232
17.292234
17.29224
17.292231
17.292232
17.292232
17.292231
17.29223
17.292227
17.292225
17.292225
17.292229
16.011502
16.011502
16.011502
16.011502
16.011501
16.011501
16.011502
16.011502
16.011502
16.011501
16.011501
16.011501
16.011501
16.011501
16.011501
16.0115
16.0115
16.0115
16.011501
16.011501
16.011501
16.011501
16.011502
16.011502
16.011501
16.011501
16.0115
16.011502
16.011502
16.011502
16.011503
16.011504
16.011504
16.011504
16.011504
16.011503
16.011504
16.011504
16.011504
16.011505
16.011506
16.011507
16.011508
16.011508
16.011507
16.011505
16.011505
16.011505
16.011506
16.011508
16.01151
16.011511
16.011512
16.011511
16.011507
16.011507
16.011507
16.011508
16.01151
16.011512
16.011514
16.011515
16.011514
16.011508
16.011508
16.011508
16.01151
16.011512
16.011514
16.011517
16.011518
16.011518
16.011509
16.011509
16.01151
16.011511
16.011513
16.011516
16.011519
16.011521
16.01152
16.01151
16.01151
16.011511
16.011512
16.011515
16.011518
16.011521
16.011523
16.011522
16.011511
16.011511
16.011511
16.011513
16.011515
16.011519
16.011522
16.011524
16.011524
16.011511
16.011511
16.011512
16.011513
16.011516
16.011519
16.011523
16.011525
16.011525
16.011511
16.011511
16.011511
16.011513
16.011515
16.011519
16.011522
16.011524
16.011524
16.01151
16.01151
16.01151
16.011512
16.011514
16.011518
16.011521
16.011523
16.011523
16.011509
16.011509
16.011509
16.01151
16.011513
16.011516
16.011519
16.011521
16.011522
16.011507
16.011507
16.011507
16.011508
16.01151
16.011514
16.011517
16.011519
16.011519
16.011505
16.011505
16.011505
16.011506
16.011508
16.011511
16.011513
16.011515
16.011516
16.011502
16.011502
16.011502
16.011503
16.011505
16.011507
16.01151
16.011511
16.011512
16.0115
16.011499
16.011499
16.0115
16.011501
16.011503
16.011505
16.011507
16.011507
16.011497
16.011496
16.011496
16.011497
16.011498
16.011499
16.011501
16.011502
16.011503
16.011493
16.011493
16.011493
16.011493
16.011494
16.011495
16.011496
16.011496
16.011497
16.01149
16.01149
16.01149
16.01149
16.01149
16.011491
16.011491
16.011491
16.011492
16.011489
16.011488
16.011488
16.011488
16.011488
16.011488
16.011488
16.011489
16.01149
16.011488
16.011488
16.011487
16.011487
16.011487
16.011487
16.011488
16.011488
16.01149
14.730415
14.730416
14.730416
14.730416
14.730416
14.730415
14.730415
14.730414
14.730413
14.730414
14.730414
14.730414
14.730414
14.730414
14.730414
14.730413
14.730412
14.730411
14.730411
14.730411
14.730412
14.730412
14.730412
14.730412
14.730411
14.73041
14.730409
14.730409
14.730409
14.730409
14.73041
14.73041
14.73041
14.730409
14.730408
14.730407
14.730407
14.730407
14.730407
14.730407
14.730408
14.730408
14.730407
14.730406
14.730405
14.730404
14.730404
14.730405
14.730405
14.730405
14.730405
14.730405
14.730404
14.730403
14.730402
14.730402
14.730403
14.730403
14.730403
14.730404
14.730403
14.730402
14.730401
14.7304
14.7304
14.730401
14.730401
14.730401
14.730401
14.730401
14.7304
14.730399
14.730398
14.730398
14.730399
14.730399
14.730399
14.730399
14.730399
14.730399
14.730398
14.730397
14.730397
14.730397
14.730398
14.730398
14.730398
14.730397
14.730397
14.730396
14.730396
14.730396
14.730396
14.730396
14.730397
14.730396
14.730396
14.730396
14.730395
14.730395
14.730395
14.730395
14.730396
14.730396
14.730396
14.730395
14.730395
14.730394
14.730395
14.730395
14.730395
14.730395
14.730395
14.730395
14.730395
14.730395
14.730394
14.730395
14.730395
14.730395
14.730395
14.730396
14.730396
14.730395
14.730395
14.730395
14.730395
14.730396
14.730396
14.730396
14.730396
14.730396
14.730396
14.730396
14.730396
14.730396
14.730396
14.730397
14.730397
14.730397
14.730397
14.730397
14.730397
14.730397
14.730397
14.730397
14.730398
14.730398
14.730398
14.730398
14.730398
14.730398
14.730397
14.730398
14.730398
14.730399
14.730399
14.730399
14.730399
14.730399
14.730399
14.730398
14.730399
14.730399
14.7304
14.7304
14.7304
14.7304
14.7304
14.7304
14.7304
14.7304
14.730401
14.730401
14.730401
14.730401
14.730401
14.730401
14.730401
14.730401
14.730401
14.730401
14.730401
14.730402
14.730402
14.730402
14.730402
14.730402
14.730401
14.730402
14.730402
14.730402
14.730402
14.730403
14.730403
14.730403
14.730402
14.730402
14.730403
14.730403
14.730403
14.730403
14.730403
14.730403
14.730403
14.730402
14.730402
14.730404
14.730404
14.730404
14.730404
14.730404
14.730403
14.730403
14.730402
14.730402
13.449632
13.449632
13.449632
13.449632
13.449632
13.449632
13.449632
13.449633
13.449632
13.449631
13.449631
13.449631
13.449631
13.449631
13.449631
13.449631
13.449631
13.449631
13.44963
13.44963
13.44963
13.44963
13.44963
13.44963
13.44963
13.44963
13.44963
13.449628
13.449628
13.449628
13.449628
13.449628
13.449628
13.449629
13.449629
13.449629
13.449627
13.449627
13.449627
13.449627
13.449627
13.449627
13.449627
13.449628
13.449629
13.449625
13.449625
13.449625
13.449625
13.449625
13.449626
13.449626
13.449627
13.449628
13.449624
13.449624
13.449624
13.449624
13.449624
13.449625
13.449625
13.449626
13.449627
13.449623
13.449623
13.449624
13.449624
13.449624
13.449624
13.449625
13.449626
13.449627
13.449623
13.449623
13.449623
13.449623
13.449623
13.449624
13.449624
13.449625
13.449626
13.449622
13.449623
13.449623
13.449623
13.449623
13.449623
13.449624
13.449625
13.449626
13.449622
13.449622
13.449622
13.449622
13.449623
13.449623
13.449624
13.449625
13.449626
13.449622
13.449622
13.449622
13.449622
13.449622
13.449623
13.449624
13.449625
13.449626
13.449622
13.449622
13.449622
13.449622
13.449622
13.449623
13.449624
13.449625
13.449626
13.449622
13.449622
13.449622
13.449622
13.449622
13.449622
13.449623
13.449625
13.449626
13.449621
13.449621
13.449621
13.449621
13.449622
13.449622
13.449623
13.449624
13.449625
13.449621