/*--------------------------------*- C++ -*----------------------------------*\
| =========                 |                                                 |
| \\      /  F ield         | OpenFOAM: The Open Source CFD Toolbox           |
|  \\    /   O peration     | Version:  2406                                  |
|   \\  /    A nd           | Website:  www.openfoam.com                      |
|    \\/     M anipulation  |                                                 |
\*---------------------------------------------------------------------------*/
FoamFile
{
    version     2.0;
    format      ascii;
    arch        "LSB;label=32;scalar=64";
    class       surfaceScalarField;
    location    "9";
    object      phi;
}
// * * * * * * * * * * * * * * * * * * * * * * * * * * * * * * * * * * * * * //

dimensions      [0 3 -1 0 0 0 0];

oriented        oriented;

internalField   nonuniform List<scalar> 
101088
(
0.00014157319
-2.3225411e-05
1.7724963e-05
2.0189288e-05
0.00029632422
-9.9298886e-05
7.5763679e-05
8.7456016e-05
0.0004405786
-0.00023698404
0.00017948013
0.00021066646
0.00054363922
-0.00044461194
0.00033127256
0.00039886318
0.0005850948
-0.00069686895
0.00050396884
0.00063206909
0.00057439873
-0.00092810626
0.00064082018
0.0008516552
0.0005467575
-0.0010683591
0.00068937954
0.00099174179
0.00053430109
-0.0010880533
0.0006411763
0.0010209355
-0.00099965356
0.00052977173
0.00094550761
0.00054761094
0.00017210579
-2.5681388e-05
2.2037539e-05
0.00035568371
-0.00010832393
9.3338993e-05
0.00051856076
-0.0002552496
0.00021927581
0.00062038264
-0.0004724292
0.00040103822
0.00063739874
-0.00073037521
0.00060435044
0.00058598751
-0.00096026191
0.00076284532
0.0005140351
-0.0010933201
0.00081986056
0.00046025351
-0.0011006193
0.00076890832
-0.0010001655
0.00064729767
0.00043657918
0.00020256265
-2.7245295e-05
2.6442125e-05
0.00041396077
-0.0001134441
0.00011105119
0.00059440461
-0.00026429568
0.00025880133
0.00069650705
-0.00048312864
0.00046909286
0.00069490129
-0.00073642036
0.00070020645
0.00061184567
-0.00095389811
0.00087673053
0.00050414636
-0.0010714007
0.0009388848
0.0004173588
-0.0010641356
0.0008834494
-0.00095415922
0.00075199275
0.00036445814
0.00023211043
-2.7847949e-05
3.0829902e-05
0.00047017378
-0.00011457689
0.00012845359
0.00066719542
-0.00026413842
0.0002971043
0.00076964013
-0.00047720962
0.00053405406
0.00075202205
-0.00071719547
0.00079025205
0.00064330014
-0.00091416473
0.00098203153
0.00050724356
-0.0010096776
0.0010473029
0.00039441986
-0.00098640249
0.00098641696
-0.00087100276
0.0008448432
0.00032002459
0.00025986054
-2.7289779e-05
3.5026021e-05
0.00052251044
-0.0001113764
0.00014497057
0.00073455767
-0.00025481417
0.00033321457
0.000837381
-0.00045592373
0.00059488402
0.00080597393
-0.0006759158
0.0008739762
0.00067550561
-0.0008463514
0.0010791737
0.00051582301
-0.00091522303
0.001146432
0.00038190037
-0.00087561164
0.0010795228
-0.00075893693
0.00092772898
0.00029065024
0.0002857319
-2.5887451e-05
3.9001111e-05
0.00057155073
-0.00010489919
0.00016052233
0.00079809139
-0.00023831676
0.0003670508
0.00090178941
-0.00042225663
0.00065168948
0.0008577118
-0.00061645307
0.00095194482
0.00070678081
-0.00075526775
0.0011692691
0.000525272
-0.00079432658
0.0012377103
0.00037285611
-0.00073952153
0.001164389
-0.0006262644
0.0010023569
0.00026788672
0.0003084287
-2.3585091e-05
4.2675453e-05
0.00061380858
-9.5090031e-05
0.00017485619
0.00085130159
-0.0002148873
0.00039819337
0.00095297321
-0.00037731086
0.0007040213
0.00089447745
-0.00054164536
0.0010239055
0.00072298871
-0.00064632152
0.0012523641
0.00052201246
-0.00065565706
0.0013214868
0.00035534726
-0.00058910535
0.0012417971
-0.00048458748
0.0010698918
0.00024182674
0.00032767756
-2.0411351e-05
4.5976625e-05
0.00064879335
-8.2060163e-05
0.00018780789
0.0008931351
-0.00018478576
0.00042657511
0.00098853103
-0.00032177154
0.00075212653
0.00091180122
-0.00045361692
0.0010906189
0.00071783435
-0.00052460084
0.0013296278
0.00049921179
-0.00050874153
0.0013992196
0.00032279725
-0.00043669819
0.0013133515
-0.00034618316
0.0011318433
0.00020590618
0.00034313503
-1.6374415e-05
4.8851233e-05
0.00067571379
-6.5794849e-05
0.00019921994
0.00092207073
-0.00014787555
0.00045196424
0.0010057272
-0.00025558612
0.00079588682
0.00090585427
-0.00035375523
0.0011519213
0.00068737889
-0.00039522087
0.0014008889
0.00045359878
-0.00036375245
0.0014709156
0.00027275917
-0.00029505571
0.001379057
-0.00022334096
0.0011884578
0.00015816207
0.00035465998
-1.1560702e-05
5.1216484e-05
0.00069453733
-4.6442964e-05
0.00020876107
0.00093854841
-0.00010418113
0.00047358949
0.0010059733
-0.00017880277
0.00083394206
0.00087950974
-0.00024327198
0.0012057438
0.00063637528
-0.00026272079
0.0014634261
0.00039103901
-0.00022921882
0.0015338161
0.00021102417
-0.00017449588
0.0014368443
-0.00012518393
0.001238423
0.00010306883
0.0003620084
-6.0075117e-06
5.2973847e-05
0.0007051479
-2.4111871e-05
0.00021588328
0.00094388361
-5.4024995e-05
0.00048985884
0.00099431592
-9.2297832e-05
0.00086288494
0.00084287679
-0.00012408031
0.0012472483
0.00057925786
-0.00013054035
0.0015114672
0.00032713692
-0.00010913725
0.0015820927
0.00015160594
-7.8610228e-05
0.001481715
-5.3756504e-05
0.001277464
5.2201078e-05
0.00036564433
1.019158e-11
5.3856948e-05
0.00071006353
-3.9753293e-11
0.00021957102
0.0009450615
-2.2270561e-10
0.00049853772
0.00098473406
-4.9397188e-10
0.00087878023
0.0008177734
-9.9014756e-10
0.0012705937
0.00054196009
-1.5405623e-09
0.001539
0.00028661667
-2.0155961e-09
0.0016098305
0.00011475458
-2.4407503e-09
0.0015076763
-2.5114961e-09
0.0012997235
2.117338e-05
0.00036564404
6.0075043e-06
5.3856937e-05
0.00071006306
2.4111734e-05
0.00021957098
0.0009450614
5.4024517e-05
0.00049853762
0.00098473372
9.2296844e-05
0.00087878001
0.00081777323
0.00012407837
0.0012705935
0.00054196001
0.00013053733
0.0015389997
0.00028661663
0.00010913319
0.0016098302
0.00011475463
7.8605304e-05
0.0015076761
5.3751534e-05
0.0012997233
2.1173445e-05
0.00036200799
1.1560671e-05
5.297384e-05
0.00070514732
4.6442787e-05
0.00021588325
0.00094388383
0.00010418071
0.00048985874
0.00099431521
0.00017880184
0.00086288467
0.00084287641
0.00024327015
0.001247248
0.00057925762
0.00026271792
0.0015114668
0.0003271368
0.00022921471
0.0015820923
0.00015160615
0.00017449086
0.0014817146
0.00012517906
0.0012774635
5.2201311e-05
0.00035465965
1.6374435e-05
5.1216465e-05
0.00069453684
6.5794816e-05
0.00020876099
0.00093854848
0.00014787535
0.00047358928
0.0010059719
0.00025558525
0.0008339416
0.00087950889
0.00035375356
0.0012057433
0.00063637454
0.0003952182
0.0014634254
0.00039103868
0.00036374836
0.0015338154
0.00021102458
0.0002950507
0.0014368437
0.00022333615
0.0012384223
0.00010306922
0.0003431346
2.0411372e-05
4.8851218e-05
0.0006757127
8.206018e-05
0.00019921988
0.00092206995
0.00018478562
0.0004519641
0.0010057255
0.00032177073
0.00079588652
0.00090585311
0.00045361567
0.001151921
0.00068737755
0.00052459873
0.0014008884
0.00045359822
0.0005087381
0.0014709151
0.00027275973
0.00043669378
0.0013790564
0.00034617836
0.001188457
0.00015816241
0.00032767718
2.3585147e-05
4.5976622e-05
0.00064879203
9.5090202e-05
0.00018780787
0.00089313405
0.00021488736
0.00042657508
0.00098852988
0.00037731046
0.00075212641
0.00091179976
0.0005416446
0.0010906187
0.00071783251
0.00064632016
0.0013296275
0.00049921102
0.00065565506
0.0013992194
0.0003227976
0.00058910225
0.0013133511
0.00048458258
0.0011318427
0.00020590627
0.00030842871
2.5887477e-05
4.2675453e-05
0.00061380799
0.00010489925
0.00017485619
0.000851301
0.00023831664
0.00039819338
0.00095297266
0.00042225601
0.00070402126
0.00089447592
0.00061645184
0.0010239053
0.00072298692
0.00075526674
0.0012523639
0.00052201145
0.00079432586
0.0013214867
0.00035534679
0.00073951954
0.0012417967
0.0006262594
0.0010698913
0.00024182659
0.00028573171
2.7289712e-05
3.9001115e-05
0.00057154997
0.0001113762
0.00016052235
0.00079809077
0.00025481396
0.00036705089
0.00090178956
0.00045592348
0.00065168963
0.00085771138
0.00067591526
0.0009519449
0.00070677988
0.00084635107
0.0011692692
0.00052527085
0.00091522254
0.0012377102
0.00037285481
0.00087560985
0.0011643888
0.00075893286
0.0010023566
0.00026788633
0.00025986037
2.7847902e-05
3.5026018e-05
0.00052250998
0.00011457675
0.00014497055
0.00073455728
0.00026413817
0.00033321455
0.0008373813
0.00047720914
0.00059488397
0.00080597384
0.00071719459
0.00087397603
0.00067550469
0.00091416356
0.0010791735
0.00051582151
0.0010096767
0.0011464319
0.00038189903
0.00098640119
0.0010795227
0.00087100085
0.00092772871
0.00029064899
0.00023211029
2.7245219e-05
3.082989e-05
0.00047017329
0.00011344385
0.00012845353
0.00066719496
0.00026429514
0.00029710419
0.00076964038
0.00048312775
0.00053405393
0.00075202212
0.00073641897
0.00079025192
0.0006432994
0.00095389618
0.00098203134
0.00050724248
0.0010713994
0.0010473028
0.00039441952
0.001064136
0.0009864168
0.00095415926
0.00084484301
0.0003200228
0.00020256249
2.5681326e-05
2.6442114e-05
0.00041396026
0.00010832373
0.00011105114
0.00059440394
0.00025524919
0.00025880122
0.00069650666
0.00047242856
0.0004690927
0.00069490097
0.0007303744
0.0007002063
0.00061184513
0.0009602606
0.00087673036
0.00050414562
0.0010933181
0.00093888452
0.0004173579
0.0011006181
0.00088344906
0.0010001669
0.00075199261
0.00036445613
0.00017210572
2.3225416e-05
2.2037536e-05
0.00035568336
9.9298898e-05
9.3338978e-05
0.00051856027
0.00023698402
0.00021927577
0.00062038229
0.00044461196
0.00040103816
0.00063739802
0.00069686905
0.00060435042
0.00058598568
0.00092810559
0.00076284536
0.00051403145
0.0010683577
0.00081986047
0.00046024929
0.0010880517
0.00076890829
0.00099965384
0.00064729751
0.00043657562
0.00014157313
1.7724963e-05
2.01893e-05
0.000296324
7.5763677e-05
8.7456075e-05
0.00044057835
0.00017948012
0.00021066664
0.00054363884
0.00033127255
0.00039886361
0.00058509346
0.00050396883
0.00063206986
0.00057439598
0.00064082024
0.00085165603
0.00054675211
0.00068937958
0.00099174186
0.00053429756
0.00064117644
0.0010209339
0.00052977161
0.00094550497
0.00054760987
2.4193038e-06
-4.2626631e-06
1.6624482e-05
2.943833e-06
1.0848754e-05
-2.1368555e-05
7.33127e-05
1.538998e-05
2.8225832e-05
-6.0123715e-05
0.00017754722
4.4679184e-05
5.7413939e-05
-0.00013454077
0.00033379186
0.0001028326
9.7091712e-05
-0.00025053017
0.00051787353
0.00019694669
0.00014016153
-0.00038822316
0.0006726828
0.00031328992
0.0001819592
-0.00050432173
0.00073845908
0.00041344425
0.00022160412
-0.00056392547
0.00069783698
0.00046761974
-0.0005585059
0.00058140958
0.00047021144
0.0002582612
3.2066266e-06
-5.4224173e-06
1.9990691e-05
1.4294773e-05
-2.7002635e-05
8.7885115e-05
3.6361486e-05
-7.4973771e-05
0.0002120595
7.0847913e-05
-0.00016458969
0.00039660094
0.00011291283
-0.00029968124
0.00061143709
0.00015228893
-0.00045431748
0.000789565
0.00018320575
-0.00058018031
0.00086480419
0.00020742149
-0.0006406246
0.00082139275
-0.00062737214
0.00069528601
0.00022829957
4.2964098e-06
-6.511685e-06
2.3234955e-05
1.8645522e-05
-3.2196164e-05
0.00010189557
4.5937299e-05
-8.8494419e-05
0.00024502984
8.5996236e-05
-0.00019140761
0.00045585079
0.00013048525
-0.0003418741
0.00069790937
0.00016615186
-0.0005078206
0.00089456662
0.00018728195
-0.00063705641
0.00097463083
0.00019857694
-0.00069412674
0.00092565772
-0.0006725
0.00079000383
0.00020569308
5.5691983e-06
-7.5526553e-06
2.6301784e-05
2.376254e-05
-3.7003911e-05
0.00011506814
5.7082103e-05
-0.00010051199
0.00027580191
0.00010323312
-0.00021406883
0.00051056355
0.00015024806
-0.00037521808
0.00077658243
0.00018247496
-0.00054630809
0.00098829324
0.00019494687
-0.00067280564
0.0010705819
0.00019511883
-0.00072268521
0.0010148042
-0.00069237324
0.00086939846
0.0001904365
6.8318412e-06
-8.4197165e-06
2.9061476e-05
2.8862407e-05
-4.1012364e-05
0.00012694925
6.8176539e-05
-0.0001101757
0.00030356464
0.00012040225
-0.00023121893
0.0005598076
0.00017011802
-0.00039792576
0.00084696801
0.00019941839
-0.00056774925
0.0010713156
0.00020429389
-0.00068576088
0.0011545121
0.00019468805
-0.00072510444
0.001091549
-0.00068657253
0.00093651822
0.00018009855
8.1668697e-06
-9.1268264e-06
3.1541298e-05
3.4185398e-05
-4.4136716e-05
0.00013762821
7.9869564e-05
-0.00011730889
0.00032850005
0.00013845152
-0.0002420525
0.00060394239
0.0001909728
-0.00040827191
0.00090977086
0.00021721692
-0.00056953864
0.0011448155
0.00021440221
-0.00067324387
0.0012280082
0.00019548204
-0.00069962517
0.0011578302
-0.00065427547
0.00099344139
0.00017210091
9.3047754e-06
-9.4948458e-06
3.3739109e-05
3.8552771e-05
-4.5603415e-05
0.0001470753
8.9178924e-05
-0.0001202746
0.00035053218
0.00015212011
-0.00024385928
0.00064288718
0.00020542325
-0.00040266938
0.00096500161
0.0002274148
-0.00054813658
0.0012089713
0.00021718663
-0.00063300254
0.0012914734
0.00019072393
-0.00064574273
0.0012143767
-0.00059615813
0.0010413738
0.0001611251
1.0158491e-05
-9.3059049e-06
3.5629754e-05
4.1531314e-05
-4.4421437e-05
0.00015525395
9.4289067e-05
-0.00011619739
0.00036974019
0.00015871901
-0.00023325579
0.00067709337
0.0002097607
-0.00037677095
0.0010136795
0.00022547175
-0.00049947484
0.001265255
0.00020798195
-0.0005628439
0.0013465503
0.00017605816
-0.00056330257
0.0012628345
-0.00051326528
0.0010819875
0.0001430218
1.0816974e-05
-8.4860636e-06
3.7214548e-05
4.3546494e-05
-4.0109275e-05
0.00016217864
9.6881709e-05
-0.00010374538
0.00038617728
0.00015790253
-0.00020511651
0.00070672756
0.00020110029
-0.00032426391
0.0010562168
0.000207422
-0.00041921035
0.0013143023
0.0001829504
-0.00046145306
0.0013939963
0.00014788381
-0.00045324525
0.0013040661
-0.00040739819
0.0011161913
0.00011428385
1.0946177e-05
-6.7062427e-06
3.8490322e-05
4.3078517e-05
-3.1294741e-05
0.00016781437
9.3209208e-05
-7.9982042e-05
0.00039969577
0.00014683716
-0.00015611004
0.00073130846
0.00017932173
-0.00024271507
0.0010917104
0.00017340735
-0.00030506218
0.0013551921
0.00014226786
-0.00032965986
0.0014331629
0.00010496215
-0.00031683093
0.001337736
-0.00028070918
0.0011438586
7.2837853e-05
1.0579722e-05
-3.7814391e-06
3.9469252e-05
4.0553608e-05
-1.7447089e-05
0.00017206205
8.4791052e-05
-4.4122043e-05
0.00040976187
0.00012727753
-8.5157306e-05
0.00074944633
0.00014501749
-0.00013086238
0.0011176557
0.00012922018
-0.00016260573
0.0013848081
9.2512122e-05
-0.00017215205
0.0014612939
5.7774895e-05
-0.00016212248
0.001361744
-0.00014319521
0.0011634299
3.4294879e-05
1.0142063e-05
5.1123613e-11
3.9933411e-05
3.8101897e-05
1.595256e-10
0.00017416411
7.7610854e-05
2.6827956e-10
0.00041490689
0.0001122997
3.0820276e-10
0.00075893422
0.00012062798
2.4818194e-10
0.0011314032
9.6405143e-05
4.4853682e-10
0.0014006171
5.7782067e-05
8.760082e-10
0.0014763016
2.8770263e-05
8.3653127e-10
0.0013745647
5.1168272e-10
0.0011738926
1.1405051e-05
1.0142039e-05
3.7815236e-06
3.9933403e-05
3.81017e-05
1.7447367e-05
0.00017416408
7.7610699e-05
4.4122534e-05
0.00041490681
0.00011229953
8.5157911e-05
0.00075893405
0.00012062803
0.00013086295
0.001131403
9.6405246e-05
0.00016260667
0.0014006168
5.7781963e-05
0.00017215367
0.0014763014
2.8770114e-05
0.00016212395
0.0013745645
0.00014319622
0.0011738924
1.1404862e-05
1.0579741e-05
6.7063165e-06
3.9469247e-05
4.0553283e-05
3.1294992e-05
0.00017206203
8.4790853e-05
7.9982489e-05
0.0004097618
0.00012727711
0.00015611065
0.00074944614
0.00014501749
0.00024271577
0.0011176555
0.00012922033
0.00030506311
0.0013848078
9.2511853e-05
0.00032966104
0.0014612936
5.7774581e-05
0.00031683196
0.0013617437
0.0002807102
0.0011634295
3.4294502e-05
1.0946283e-05
8.4861684e-06
3.8490308e-05
4.3078386e-05
4.0109591e-05
0.0001678143
9.3209242e-05
0.00010374586
0.00039969562
0.00014683653
0.00020511708
0.00073130812
0.00017932127
0.00032426466
0.00109171
0.00017340704
0.00041921111
0.0013551917
0.0001422673
0.00046145372
0.0014331624
0.00010496193
0.00045324582
0.0013377355
0.0004073991
0.0011438581
7.2837656e-05
1.0816883e-05
9.3059898e-06
3.7214535e-05
4.3546104e-05
4.4421668e-05
0.00016217859
9.6881487e-05
0.00011619772
0.00038617718
0.00015790158
0.00023325617
0.00070672733
0.00020109922
0.00037677161
0.0010562166
0.0002074211
0.00049947561
0.0013143021
0.00018294957
0.00056284459
0.001393996
0.00014788374
0.00056330309
0.0013040658
0.00051326569
0.0011161909
0.00011428377
1.0158042e-05
9.4948385e-06
3.562975e-05
4.1530254e-05
4.560337e-05
0.00015525393
9.4288435e-05
0.00012027461
0.00036974018
0.00015871822
0.00024385952
0.00067709331
0.00020975939
0.00040267
0.0010136795
0.00022547041
0.00054813764
0.0012652548
0.00020798096
0.00063300378
0.0013465501
0.00017605808
0.00064574343
0.0012628342
0.00059615751
0.0010819871
0.00014302155
9.3043893e-06
9.1268018e-06
3.3739111e-05
3.8551987e-05
4.413669e-05
0.00014707531
8.917901e-05
0.00011730905
0.00035053222
0.00015212011
0.00024205289
0.00064288719
0.00020542219
0.00040827235
0.00096500153
0.00022741333
0.00056953971
0.0012089712
0.00021718546
0.00067324536
0.0012914733
0.00019072336
0.0006996258
0.0012143765
0.000654274
0.0010413735
0.00016112449
8.166923e-06
8.4197353e-06
3.1541303e-05
3.418544e-05
4.1012455e-05
0.00013762823
7.9869867e-05
0.00011017581
0.0003285001
0.00013845146
0.00023121895
0.00060394245
0.00019097224
0.00039792601
0.00090977091
0.00021721568
0.00056775017
0.0011448156
0.00021440095
0.0006857621
0.0012280083
0.00019548084
0.00072510475
0.0011578301
0.00068657129
0.00099344121
0.00017210018
6.831741e-06
7.5526337e-06
2.9061472e-05
2.8861852e-05
3.7003847e-05
0.00012694923
6.8175947e-05
0.00010051186
0.0003035646
0.00012040245
0.00021406888
0.00055980755
0.00017011796
0.00037521845
0.00084696796
0.00019941746
0.00054630868
0.0010713155
0.00020429269
0.00067280675
0.0011545121
0.00019468671
0.00072268552
0.0010915489
0.00069237271
0.00093651799
0.00018009751
5.5691426e-06
6.5116686e-06
2.6301776e-05
2.3762343e-05
3.2196142e-05
0.0001150681
5.7082159e-05
8.8494421e-05
0.00027580184
0.00010323388
0.00019140766
0.00051056346
0.00015024821
0.0003418741
0.00077658229
0.00018247483
0.00050782106
0.00098829308
0.00019494599
0.00063705745
0.0010705817
0.00019511798
0.00069412789
0.001014804
0.0006725007
0.0008693983
0.00019043513
4.296394e-06
5.422412e-06
2.3234946e-05
1.864527e-05
2.7002652e-05
0.00010189553
4.5936935e-05
7.4973873e-05
0.00024502975
8.599642e-05
0.00016459002
0.00045585065
0.00013048579
0.00029968198
0.0006979092
0.00016615217
0.00045431865
0.00089456645
0.00018728202
0.00058018137
0.00097463057
0.00019857645
0.00064062445
0.00092565736
0.00062737284
0.00079000365
0.00020569148
3.2065381e-06
4.2626697e-06
1.9990688e-05
1.4294415e-05
2.1368607e-05
8.7885103e-05
3.6361059e-05
6.0123884e-05
0.00021205947
7.0848046e-05
0.00013454122
0.00039660089
0.0001129132
0.00025053099
0.00061143705
0.00015228855
0.00038822388
0.000789565
0.00018320476
0.00050432237
0.00086480412
0.00020742013
0.00056392525
0.00082139265
0.00055850532
0.00069528582
0.0002282972
2.4192105e-06
1.6624483e-05
2.943847e-06
1.0848493e-05
7.3312701e-05
1.5390063e-05
2.8225681e-05
0.00017754721
4.4679442e-05
5.7414139e-05
0.00033379185
0.00010283322
9.7091784e-05
0.00051787352
0.00019694786
0.00014016157
0.00067268288
0.00031329176
0.00018195814
0.00073845913
0.00041344619
0.00022160255
0.00069783716
0.00046762009
0.00058140956
0.00047021102
0.00025826068
2.4143465e-07
-1.5569819e-06
1.6586294e-05
1.3537292e-06
1.6929246e-06
-7.9345573e-06
7.2910319e-05
6.8854315e-06
5.3228005e-06
-2.2884376e-05
0.00017716249
1.9639114e-05
1.1563622e-05
-5.3078011e-05
0.00033564929
4.4979398e-05
2.0752081e-05
-0.00010382325
0.00052497858
8.7528966e-05
3.3677346e-05
-0.0001702168
0.00068561584
0.00014435755
5.1931383e-05
-0.0002320729
0.00075281925
0.00019945842
7.6744661e-05
-0.00026736195
0.00070727533
0.00023311021
-0.00026731442
0.00058372293
0.00023658959
0.00010515632
2.9148283e-07
-1.6825186e-06
1.9824796e-05
2.1663233e-06
-8.7946235e-06
8.6870593e-05
6.7280228e-06
-2.5843824e-05
0.00021045774
1.3831086e-05
-6.0677524e-05
0.00039709781
2.2579119e-05
-0.0001189739
0.00061784005
3.2351014e-05
-0.00019322464
0.00080280217
4.4291656e-05
-0.00025892444
0.00087971666
6.0381155e-05
-0.00029260404
0.00083054595
-0.00028840734
0.00069588321
8.0877059e-05
4.3271044e-07
-1.7879051e-06
2.2907635e-05
2.9655092e-06
-9.5535495e-06
0.00010012177
8.8414577e-06
-2.8564003e-05
0.000241874
1.7398243e-05
-6.7759472e-05
0.00045437528
2.6408538e-05
-0.00013269931
0.00070262372
3.3718654e-05
-0.00021261583
0.0009066476
4.0097074e-05
-0.0002789256
0.00098825322
4.8770351e-05
-0.000308272
0.00093265349
-0.00029879205
0.00078750244
6.1655912e-05
6.4079584e-07
-1.899754e-06
2.5772929e-05
4.07443e-06
-1.029094e-05
0.00011237204
1.1699367e-05
-3.1105681e-05
0.00027071845
2.2197986e-05
-7.4111327e-05
0.00050641631
3.187934e-05
-0.00014427415
0.00077847725
3.7157328e-05
-0.00022723916
0.00099763927
3.8794049e-05
-0.00029105925
0.0010810801
4.1323302e-05
-0.00031397551
0.0010179792
-0.00029869583
0.00086273752
4.788792e-05
8.7386858e-07
-2.0059145e-06
2.8293963e-05
5.2592166e-06
-1.0900622e-05
0.00012317434
1.4775865e-05
-3.3225465e-05
0.00029616841
2.7479513e-05
-7.923347e-05
0.00055222558
3.8158628e-05
-0.00015279722
0.0008448119
4.180429e-05
-0.00023590532
0.0010763369
3.9357808e-05
-0.00029435962
0.0011602593
3.6736528e-05
-0.00030946205
0.0010896579
-0.00028882541
0.00092498161
3.8403318e-05
1.1861318e-06
-2.1508683e-06
3.050006e-05
6.802777e-06
-1.1508094e-05
0.00013261893
1.8489439e-05
-3.4801694e-05
0.00031838963
3.3806611e-05
-8.2702892e-05
0.00059209594
4.5798795e-05
-0.00015723259
0.00090221474
4.7947476e-05
-0.0002370854
0.001143848
4.1561609e-05
-0.00028745188
0.0012274867
3.4279072e-05
-0.00029415752
0.0011498088
-0.00026946868
0.00097645412
3.1910133e-05
1.4879575e-06
-2.2832646e-06
3.2383978e-05
8.3254456e-06
-1.1924196e-05
0.00014065427
2.2013537e-05
-3.5199927e-05
0.0003372415
3.9537605e-05
-8.3135579e-05
0.00062579611
5.2282798e-05
-0.00015546983
0.00095049467
5.2516401e-05
-0.00022856944
0.0012002226
4.238623e-05
-0.00026900867
0.0012831606
3.1328863e-05
-0.00026795277
0.0011992293
-0.00024142169
0.001018335
2.6321149e-05
1.7577858e-06
-2.3333129e-06
3.3922501e-05
9.7101825e-06
-1.1860157e-05
0.00014723816
2.5733818e-05
-3.4219408e-05
0.00035273587
4.4459092e-05
-7.8451751e-05
0.00065368456
5.6689139e-05
-0.00014460514
0.00099058534
5.4333753e-05
-0.0002079111
0.0012469522
4.0679768e-05
-0.00023781011
0.0013290057
2.6930764e-05
-0.00023095661
0.0012395873
-0.00020559577
0.0010521849
2.0908094e-05
1.7820536e-06
-2.0292167e-06
3.5128517e-05
9.951756e-06
-1.0277976e-05
0.00015242704
2.6449466e-05
-2.9571965e-05
0.00036503212
4.6197143e-05
-6.7478602e-05
0.00067600727
5.8041269e-05
-0.00012330078
0.0010230687
5.3136849e-05
-0.00017366002
0.0012849556
3.6629804e-05
-0.00019339068
0.0013660841
2.1884335e-05
-0.00018402432
0.0012718795
-0.00016331063
0.0010788952
1.6895952e-05
1.8809797e-06
-1.4383904e-06
3.6018372e-05
1.0552782e-05
-7.4148012e-06
0.00015627955
2.8005961e-05
-2.1546832e-05
0.00037421758
4.8212144e-05
-4.917731e-05
0.00069280135
5.8009537e-05
-8.9350501e-05
0.0010479628
5.1362608e-05
-0.00012618541
0.0013143645
3.3475138e-05
-0.00013694233
0.0013946025
2.1069814e-05
-0.00013019397
0.0012963113
-0.00011651187
0.001098586
1.9544058e-05
2.1172094e-06
-7.4452533e-07
3.6658072e-05
1.1675176e-05
-3.8847982e-06
0.00015897435
3.0776825e-05
-1.1384387e-05
0.00038049815
5.3050251e-05
-2.6075123e-05
0.00070407099
6.4198464e-05
-4.7156435e-05
0.0010643136
5.4527055e-05
-6.5688767e-05
0.0013339831
3.6741612e-05
-7.1384372e-05
0.0014135221
2.5035648e-05
-6.8708965e-05
0.0013119652
-6.0843438e-05
0.0011107129
2.2084264e-05
2.2607659e-06
2.1560448e-11
3.6928087e-05
1.2359489e-05
8.4034731e-11
0.00016018063
3.2432618e-05
2.1033038e-10
0.00038344946
5.5714524e-05
4.0303956e-10
0.00070957704
6.7489609e-05
6.8803588e-10
0.0010724713
5.8751359e-05
1.0921781e-09
0.0013436659
4.0709618e-05
1.4583776e-09
0.0014229583
2.687623e-05
1.2702664e-09
0.001319688
6.3382252e-10
0.0011167775
2.3147147e-05
2.26079e-06
7.4456708e-07
3.6928081e-05
1.2359365e-05
3.8849649e-06
0.00016018061
3.2432419e-05
1.1384804e-05
0.00038344939
5.5714323e-05
2.6075957e-05
0.00070957691
6.7489482e-05
4.7157887e-05
0.0010724711
5.8751249e-05
6.5690919e-05
0.0013436657
4.0709406e-05
7.1387102e-05
0.0014229581
2.6875997e-05
6.8711333e-05
0.0013196878
6.0844709e-05
0.0011167774
2.3146885e-05
2.1172989e-06
1.4384396e-06
3.6658069e-05
1.1674952e-05
7.4149883e-06
0.00015897434
3.0776489e-05
2.1547265e-05
0.00038049811
5.304981e-05
4.9178216e-05
0.00070407089
6.419811e-05
8.9352086e-05
0.0010643134
5.4526676e-05
0.00012618749
0.0013339829
3.6740955e-05
0.00013694467
0.0014135219
2.5035061e-05
0.00013019591
0.0013119651
0.0001165131
0.0011107128
2.2083682e-05
1.8810852e-06
2.0293016e-06
3.6018362e-05
1.0552647e-05
1.0278254e-05
0.00015627951
2.8005854e-05
2.95725e-05
0.00037421747
4.821163e-05
6.7479585e-05
0.00069280113
5.8008917e-05
0.00012330237
0.0010479626
5.1361968e-05
0.000173662
0.0013143641
3.347425e-05
0.00019339275
0.0013946022
2.1069149e-05
0.000184026
0.001296311
0.00016331164
0.0010985857
1.954356e-05
1.7819527e-06
2.3333904e-06
3.5128509e-05
9.9514096e-06
1.1860407e-05
0.00015242701
2.6449295e-05
3.4219886e-05
0.00036503207
4.6196438e-05
7.8452633e-05
0.00067600714
5.8040301e-05
0.00014460666
0.0010230686
5.3135905e-05
0.00020791325
0.0012849555
3.6628853e-05
0.00023781241
0.0013660839
2.1883828e-05
0.0002309583
0.0012718793
0.00020559616
0.0010788949
1.6895706e-05
1.7573669e-06
2.2832795e-06
3.39225e-05
9.7092812e-06
1.192426e-05
0.00014723816
2.5733366e-05
3.5200195e-05
0.00035273588
4.4458457e-05
8.31364e-05
0.00065368454
5.6688148e-05
0.00015547146
0.00099058536
5.4332642e-05
0.00022857202
0.0012469521
4.067877e-05
0.00026901148
0.0013290056
2.6930212e-05
0.00026795448
0.0012395871
0.00024142109
0.0010521846
2.0907653e-05
1.487545e-06
2.1508711e-06
3.2383982e-05
8.3247011e-06
1.1508183e-05
0.00014065429
2.2013674e-05
3.4802164e-05
0.00033724155
3.9537561e-05
8.2704011e-05
0.00062579615
5.2282155e-05
0.00015723434
0.00095049469
5.2515243e-05
0.00023708804
0.0012002226
4.2385098e-05
0.00028745469
0.0012831605
3.1327901e-05
0.00029415894
0.0011992291
0.00026946738
0.0010183348
2.6320202e-05
1.1861571e-06
2.0059861e-06
3.0500068e-05
6.8028505e-06
1.0900904e-05
0.00013261897
1.8489773e-05
3.3226027e-05
0.0003183897
3.380637e-05
7.9234364e-05
0.00059209603
4.579835e-05
0.00015279888
0.00090221488
4.7946382e-05
0.00023590778
0.0011438481
4.1560477e-05
0.00029436219
0.0012274869
3.4277798e-05
0.00030946325
0.0011498088
0.00028882433
0.00097645404
3.1909085e-05
8.7379666e-07
1.8997745e-06
2.8293961e-05
5.2587133e-06
1.0291045e-05
0.00012317432
1.4775195e-05
3.1105966e-05
0.00029616838
2.7479464e-05
7.4112195e-05
0.00055222554
3.8158476e-05
0.00014427593
0.00084481189
4.1803538e-05
0.00022724148
0.0010763369
3.9357011e-05
0.00029106196
0.0011602593
3.6735456e-05
0.00031397685
0.0010896578
0.00029869528
0.00092498146
3.8402376e-05
6.4074129e-07
1.787942e-06
2.5772924e-05
4.0742244e-06
9.5537291e-06
0.00011237202
1.1699295e-05
2.8564464e-05
0.00027071839
2.2198513e-05
6.7760398e-05
0.00050641623
3.1879345e-05
0.00013270073
0.0007784771
3.7157439e-05
0.00021261811
0.00099763911
3.8793836e-05
0.00027892822
0.0010810799
4.1322692e-05
0.00030827415
0.0010179791
0.00029879279
0.00086273742
4.7886653e-05
4.3268403e-07
1.6825599e-06
2.2907628e-05
2.9652504e-06
8.7948112e-06
0.00010012174
8.8410238e-06
2.5844322e-05
0.00024187393
1.7398336e-05
6.067858e-05
0.00045437515
2.6409222e-05
0.00011897574
0.00070262354
3.371929e-05
0.00019322719
0.00090664741
4.009781e-05
0.00025892724
0.00098825298
4.8770382e-05
0.00029260548
0.0009326532
0.00028840798
0.00078750232
6.1654591e-05
2.9140925e-07
1.5570214e-06
1.9824795e-05
2.1660258e-06
7.9347336e-06
8.6870585e-05
6.72765e-06
2.2884835e-05
0.00021045772
1.3831245e-05
5.3078983e-05
0.00039709777
2.2579898e-05
0.00010382489
0.00061783999
3.2351783e-05
0.00017021857
0.00080280211
4.4292478e-05
0.00023207488
0.00087971658
6.0382013e-05
0.00026736331
0.00083054582
0.00026731426
0.00069588311
8.087686e-05
2.4139102e-07
1.6586297e-05
1.3537617e-06
1.6927965e-06
7.2910325e-05
6.8855854e-06
5.3227781e-06
0.0001771625
1.9639522e-05
1.1563881e-05
0.0003356493
4.4980234e-05
2.0752501e-05
0.0005249786
8.7530411e-05
3.3678633e-05
0.0006856159
0.00014435982
5.1932788e-05
0.00075281928
0.00019946113
7.674545e-05
0.00070727546
0.0002331116
0.000583723
0.00023659039
0.00010515809
1.0999431e-07
-9.7409494e-07
1.6776071e-05
6.7432182e-07
4.8214561e-07
-4.6437107e-06
7.3861301e-05
3.3205793e-06
1.7149821e-06
-1.2621133e-05
0.0001793025
9.2482591e-06
5.4728211e-06
-2.781565e-05
0.00033888546
2.0821466e-05
1.3798265e-05
-5.2660461e-05
0.00052905242
4.026069e-05
2.7198778e-05
-8.5463457e-05
0.00069085413
6.6823948e-05
4.3345012e-05
-0.00011685398
0.0007599128
9.3613939e-05
5.8684145e-05
-0.00013470964
0.00071609678
0.00011054893
-0.00013354166
0.00059278087
0.00011268843
7.0479454e-05
9.2292121e-08
-1.2252002e-06
1.9983645e-05
4.3689e-07
-5.8151444e-06
8.7697592e-05
1.7630276e-06
-1.5678169e-05
0.00021218896
5.9819869e-06
-3.4166418e-05
0.00039922989
1.5133423e-05
-6.3781999e-05
0.00061981029
2.8959315e-05
-0.00010160025
0.00080511375
4.4004876e-05
-0.00013579487
0.00088361287
5.6369996e-05
-0.00015304386
0.00083651525
-0.00014897267
0.00070306677
6.4617508e-05
8.6334435e-08
-1.4198079e-06
2.3015912e-05
3.9377116e-07
-6.7312983e-06
0.00010073054
1.7544544e-06
-1.8116708e-05
0.00024295186
6.3659713e-06
-3.9335094e-05
0.00045493203
1.627712e-05
-7.2837442e-05
0.00070176747
3.0515857e-05
-0.00011425491
0.00090506349
4.4736038e-05
-0.00014949744
0.00098773523
5.4934577e-05
-0.00016495694
0.00093436871
-0.00015814254
0.00079128748
6.0319022e-05
9.6178676e-08
-1.5579576e-06
2.5814954e-05
4.3824914e-07
-7.3850153e-06
0.00011268377
1.969426e-06
-1.9870454e-05
0.00027094087
7.1123648e-06
-4.308938e-05
0.00050502736
1.7843294e-05
-7.9355523e-05
0.00077426526
3.2525433e-05
-0.00012281356
0.00099151607
4.6171302e-05
-0.00015750297
0.0010754404
5.4769431e-05
-0.00017029095
0.0010147156
-0.00016094234
0.00086239672