/*--------------------------------*- C++ -*----------------------------------*\
| =========                 |                                                 |
| \\      /  F ield         | OpenFOAM: The Open Source CFD Toolbox           |
|  \\    /   O peration     | Version:  2406                                  |
|   \\  /    A nd           | Website:  www.openfoam.com                      |
|    \\/     M anipulation  |                                                 |
\*---------------------------------------------------------------------------*/
FoamFile
{
    version     2.0;
    format      ascii;
    arch        "LSB;label=32;scalar=64";
    class       volVectorField;
    location    "9";
    object      U;
}
// * * * * * * * * * * * * * * * * * * * * * * * * * * * * * * * * * * * * * //

dimensions      [0 1 -1 0 0 0 0];

internalField   nonuniform List<vector> 
34560
(
(0.089018737 -0.0072252809 -0.0210146)
(0.27484631 -0.02175784 -0.065356112)
(0.48496657 -0.040848927 -0.11242157)
(0.6972207 -0.064828697 -0.15457799)
(0.87965752 -0.091916835 -0.18289143)
(1.0024561 -0.11875102 -0.19080278)
(1.0579331 -0.14149891 -0.18043721)
(1.0664404 -0.1585681 -0.16024914)
(1.0544029 -0.16711254 -0.14126168)
(0.10261174 -0.0084591094 -0.023514833)
(0.31198378 -0.024566429 -0.072515573)
(0.54183958 -0.044647568 -0.12274862)
(0.7647248 -0.068695328 -0.16504905)
(0.94452008 -0.094524529 -0.18988929)
(1.0525294 -0.11872202 -0.19181454)
(1.09011 -0.13808011 -0.17529478)
(1.0851543 -0.15067152 -0.15080873)
(1.0680688 -0.1555148 -0.12875937)
(0.11653815 -0.0089832686 -0.024996694)
(0.34957311 -0.025545989 -0.076890046)
(0.59886291 -0.045651193 -0.12878205)
(0.83218442 -0.069034749 -0.17051572)
(1.010268 -0.093131008 -0.19248719)
(1.106302 -0.11447008 -0.19031237)
(1.1295168 -0.1307031 -0.16963602)
(1.1147609 -0.13977414 -0.14260912)
(1.0957669 -0.14179327 -0.11910886)
(0.13066609 -0.0094457639 -0.026315195)
(0.38727448 -0.026286153 -0.080722568)
(0.6556594 -0.046027302 -0.13382701)
(0.89943151 -0.068141834 -0.1746116)
(1.0768905 -0.089802022 -0.19361943)
(1.1633665 -0.10768494 -0.18768382)
(1.1749968 -0.12018154 -0.16368987)
(1.1526715 -0.12580297 -0.13465427)
(1.1319418 -0.12524646 -0.11016308)
(0.1444642 -0.0094700578 -0.027251702)
(0.42396882 -0.025969667 -0.083555716)
(0.7110574 -0.04486427 -0.13743491)
(0.96577512 -0.065359596 -0.17715917)
(1.1442982 -0.084321921 -0.19342903)
(1.2236865 -0.098547286 -0.18414093)
(1.2260071 -0.10710769 -0.15715754)
(1.1974415 -0.1094444 -0.12632409)
(1.1749215 -0.10683692 -0.10085109)
(0.15782797 -0.0092657224 -0.02783325)
(0.45948636 -0.025174745 -0.085414822)
(0.76499848 -0.042968154 -0.13965308)
(1.0314238 -0.061564074 -0.1782072)
(1.2129056 -0.077572194 -0.19186876)
(1.2875463 -0.087984519 -0.17941763)
(1.2824144 -0.092528989 -0.14951905)
(1.248618 -0.091841727 -0.11696318)
(1.2243712 -0.087711118 -0.090518871)
(0.17060823 -0.0087950046 -0.028220437)
(0.49361754 -0.023760367 -0.086680763)
(0.8174473 -0.040182358 -0.1408926)
(1.0966313 -0.056697457 -0.17796828)
(1.2831183 -0.069682872 -0.18876436)
(1.3552375 -0.076371527 -0.17289654)
(1.3442244 -0.077089758 -0.13993907)
(1.3061747 -0.073818158 -0.10574739)
(1.2804318 -0.068709907 -0.078519962)
(0.18241149 -0.008009489 -0.028399718)
(0.52556966 -0.021619115 -0.087324874)
(0.86757836 -0.036376305 -0.14109225)
(1.1607935 -0.050678245 -0.17626599)
(1.354488 -0.060746104 -0.18370984)
(1.4262827 -0.064060382 -0.16390442)
(1.4109358 -0.061488737 -0.1277184)
(1.3697659 -0.056282791 -0.092093177)
(1.3427217 -0.050773794 -0.064530992)
(0.19290417 -0.0068667729 -0.028402241)
(0.55451636 -0.018598578 -0.087400341)
(0.91416052 -0.03126377 -0.14026596)
(1.2222993 -0.043139239 -0.17298682)
(1.42504 -0.050503639 -0.17641853)
(1.4983724 -0.05111965 -0.15208451)
(1.4804139 -0.046290215 -0.11269572)
(1.4373915 -0.040090834 -0.07608595)
(1.4090848 -0.03478835 -0.048934651)
(0.20164111 -0.0053612998 -0.028274959)
(0.5791267 -0.014611016 -0.087021837)
(0.95477213 -0.024580519 -0.13861775)
(1.2773918 -0.033655662 -0.16846287)
(1.4898266 -0.038579731 -0.1674628)
(1.5658665 -0.037500655 -0.13832584)
(1.54726 -0.031952947 -0.096130778)
(1.5036248 -0.025964798 -0.059153114)
(1.4741342 -0.021521023 -0.03312828)
(0.20819035 -0.0034835859 -0.028140329)
(0.59775849 -0.0095333023 -0.086535226)
(0.98592362 -0.016015313 -0.13681303)
(1.3202346 -0.021754503 -0.16389359)
(1.5409547 -0.024504796 -0.1588019)
(1.6199892 -0.023013616 -0.12538856)
(1.6021719 -0.018595921 -0.081137368)
(1.5588528 -0.014201627 -0.044311313)
(1.5282849 -0.011242769 -0.019741364)
(0.21150108 -0.0011630035 -0.028031669)
(0.60742799 -0.003184417 -0.086171632)
(1.0024974 -0.0053883691 -0.13563758)
(1.3435481 -0.0073554766 -0.16104919)
(1.5693436 -0.0082682265 -0.15347085)
(1.6506478 -0.0076525965 -0.11746853)
(1.6337372 -0.0060058336 -0.072078054)
(1.5909134 -0.0044190973 -0.035501926)
(1.5596041 -0.0034074597 -0.011943649)
(0.21150106 0.0011630039 -0.028031652)
(0.60742794 0.0031843606 -0.086171583)
(1.0024973 0.0053882127 -0.13563753)
(1.3435479 0.0073552328 -0.16104916)
(1.5693434 0.0082678467 -0.15347081)
(1.6506476 0.0076520982 -0.1174685)
(1.6337369 0.0060052396 -0.07207803)
(1.5909131 0.0044183982 -0.035501912)
(1.5596038 0.0034067145 -0.011943641)
(0.20819032 0.003483571 -0.028140299)
(0.59775838 0.0095332265 -0.086535138)
(0.98592334 0.016015156 -0.13681296)
(1.320234 0.02175426 -0.16389352)
(1.5409542 0.024504428 -0.15880176)
(1.6199886 0.023013126 -0.12538845)
(1.6021712 0.01859531 -0.081137284)
(1.5588521 0.014200906 -0.044311275)
(1.528284 0.011242032 -0.019741359)
(0.20164107 0.0053613048 -0.02827494)
(0.57912655 0.014610983 -0.087021785)
(0.95477177 0.024580407 -0.1386177)
(1.2773912 0.033655433 -0.16846276)
(1.4898261 0.038579397 -0.16746259)
(1.5658658 0.037500196 -0.13832565)
(1.5472592 0.03195233 -0.096130604)
(1.5036239 0.025964061 -0.059153048)
(1.4741329 0.021520287 -0.033128294)
(0.19290413 0.0068667951 -0.02840221)
(0.55451622 0.018598586 -0.087400255)
(0.91416025 0.03126372 -0.1402658)
(1.2222988 0.043139059 -0.17298661)
(1.4250396 0.050503394 -0.17641826)
(1.4983718 0.051119282 -0.15208422)
(1.4804132 0.04628967 -0.11269545)
(1.4373906 0.040090142 -0.076085856)
(1.4090835 0.034787601 -0.048934656)
(0.18241148 0.0080095006 -0.028399696)
(0.52556962 0.021619123 -0.087324788)
(0.86757827 0.036376293 -0.14109208)
(1.1607931 0.050678144 -0.1762658)
(1.3544875 0.060745967 -0.18370958)
(1.4262821 0.064060165 -0.16390405)
(1.4109352 0.061488387 -0.12771807)
(1.3697651 0.05628225 -0.092093043)
(1.3427205 0.050773051 -0.064530921)
(0.1706082 0.0087950264 -0.028220434)
(0.49361745 0.023760386 -0.086680736)
(0.81744716 0.040182341 -0.14089249)
(1.096631 0.056697344 -0.17796813)
(1.2831178 0.069682721 -0.1887641)
(1.355237 0.076371419 -0.17289616)
(1.3442238 0.077089623 -0.13993874)
(1.3061739 0.073817797 -0.10574718)
(1.2804308 0.068709189 -0.078519772)
(0.15782795 0.0092657293 -0.027833204)
(0.45948629 0.025174766 -0.08541469)
(0.76499848 0.042968164 -0.13965287)
(1.0314238 0.061563998 -0.17820705)
(1.2129053 0.077572056 -0.1918686)
(1.287546 0.087984473 -0.17941743)
(1.2824138 0.092528946 -0.14951878)
(1.2486174 0.091841468 -0.11696284)
(1.2243704 0.087710497 -0.090518576)
(0.14446419 0.0094700316 -0.027251659)
(0.42396879 0.025969636 -0.083555596)
(0.71105736 0.04486423 -0.13743473)
(0.96577498 0.065359494 -0.17715903)
(1.1442977 0.08432176 -0.19342892)
(1.2236861 0.098547163 -0.18414078)
(1.2260067 0.10710757 -0.15715725)
(1.1974412 0.10944416 -0.12632368)
(1.1749208 0.10683655 -0.10085074)
(0.13066606 0.009445751 -0.026315137)
(0.38727436 0.026286132 -0.080722424)
(0.65565922 0.046027268 -0.13382677)
(0.89943137 0.068141697 -0.17461143)
(1.0768904 0.089801785 -0.19361933)
(1.1633663 0.10768462 -0.18768363)
(1.1749967 0.12018119 -0.1636896)
(1.1526712 0.12580267 -0.13465404)
(1.1319412 0.12524633 -0.11016282)
(0.11653813 0.0089832319 -0.024996647)
(0.34957305 0.025545928 -0.076889924)
(0.5988628 0.045651124 -0.12878186)
(0.83218433 0.069034605 -0.17051553)
(1.010268 0.093130747 -0.19248704)
(1.1063019 0.11446966 -0.19031218)
(1.1295165 0.13070245 -0.16963586)
(1.1147604 0.13977349 -0.14260915)
(1.0957665 0.14179313 -0.11910879)
(0.10261173 0.0084590904 -0.023514819)
(0.31198375 0.024566406 -0.072515527)
(0.54183949 0.044647559 -0.12274851)
(0.76472467 0.068695292 -0.16504891)
(0.94452008 0.094524439 -0.18988915)
(1.0525295 0.11872181 -0.19181437)
(1.0901097 0.13807958 -0.1752947)
(1.0851541 0.15067049 -0.15080899)
(1.0680682 0.15551387 -0.12875929)
(0.089018728 0.0072252997 -0.021014612)
(0.27484627 0.021757884 -0.065356141)
(0.48496649 0.040849 -0.11242158)
(0.69722057 0.064828762 -0.15457803)
(0.87965743 0.091916894 -0.1828915)
(1.002456 0.118751 -0.19080283)
(1.0579329 0.14149871 -0.18043708)
(1.0664402 0.15856733 -0.16024914)
(1.0544021 0.16711162 -0.1412619)
(0.10952172 -0.0022379731 -0.0022151355)
(0.34880819 -0.0080507726 -0.0082073258)
(0.63331738 -0.016616423 -0.017439803)
(0.93621251 -0.028415848 -0.030328846)
(1.2136234 -0.043088013 -0.04528096)
(1.4225478 -0.05874745 -0.058358135)
(1.5447787 -0.072889623 -0.06572486)
(1.5945454 -0.084573587 -0.066903299)
(1.5981907 -0.093751928 -0.06444287)
(0.12154398 -0.0030941211 -0.002742819)
(0.3842107 -0.010827832 -0.0099375505)
(0.69128066 -0.021649297 -0.020793467)
(1.0093575 -0.03570623 -0.035493994)
(1.2882198 -0.052023024 -0.051675048)
(1.4839675 -0.068112699 -0.064729609)
(1.5848572 -0.081666774 -0.071029431)
(1.6137997 -0.092123733 -0.070794941)
(1.6033534 -0.099699539 -0.066619213)
(0.13267374 -0.0036428859 -0.0028773745)
(0.41694937 -0.012718772 -0.010527025)
(0.74465516 -0.025180332 -0.022258323)
(1.0761292 -0.040869076 -0.038074114)
(1.3555425 -0.058240858 -0.055005196)
(1.5390108 -0.074341626 -0.067972471)
(1.6213199 -0.086995917 -0.07353271)
(1.6335496 -0.095969435 -0.07247108)
(1.6136371 -0.10180234 -0.067545489)
(0.14308755 -0.0042609302 -0.0030006106)
(0.44741101 -0.01470708 -0.011015014)
(0.79402479 -0.028673599 -0.023464628)
(1.137567 -0.045645628 -0.04012316)
(1.4174982 -0.063536201 -0.057437333)
(1.5905164 -0.079047632 -0.070017738)
(1.6574679 -0.090217913 -0.074721406)
(1.6561096 -0.097486493 -0.072930259)
(1.628083 -0.1015443 -0.067520748)
(0.15235149 -0.0048027046 -0.003015654)
(0.47463766 -0.01644961 -0.011164724)
(0.83836462 -0.031695454 -0.024051937)
(1.1931162 -0.049641348 -0.041267971)
(1.4742372 -0.06765201 -0.058727732)
(1.6389879 -0.08214502 -0.07079089)
(1.6935011 -0.09148928 -0.074591517)
(1.6808244 -0.096771595 -0.072027185)
(1.645594 -0.099088378 -0.066140806)
(0.1607066 -0.0052845397 -0.0028962777)
(0.49926673 -0.017979315 -0.010913308)
(0.8786178 -0.03424261 -0.023842834)
(1.2439407 -0.052790541 -0.041252747)
(1.5269458 -0.070437964 -0.058544446)
(1.6852323 -0.083424977 -0.069867251)
(1.7294239 -0.090605443 -0.072630666)
(1.7071326 -0.093789335 -0.069238085)
(1.6654389 -0.09445111 -0.062869349)
(0.16838637 -0.0056650939 -0.0026829836)
(0.52197177 -0.019141311 -0.010310751)
(0.91587785 -0.036131155 -0.023052915)
(1.2914644 -0.054748915 -0.039978131)
(1.5770821 -0.071473042 -0.056603219)
(1.7302454 -0.082453672 -0.066746322)
(1.7655111 -0.087235186 -0.068228584)
(1.7347255 -0.088337991 -0.063977638)
(1.6873126 -0.087529658 -0.057227583)
(0.1752861 -0.0057698035 -0.0023346649)
(0.5426862 -0.019417287 -0.0092071088)
(0.95054587 -0.036469542 -0.021313687)
(1.3364182 -0.054480313 -0.037023974)
(1.6255692 -0.069757892 -0.052314014)
(1.7747071 -0.078404827 -0.060796026)
(1.8019796 -0.080810738 -0.060794246)
(1.7634864 -0.080077684 -0.055758812)
(1.7111414 -0.078095216 -0.048853736)
(0.18142153 -0.0055320266 -0.0019065373)
(0.56148914 -0.018515945 -0.0077780546)
(0.98279379 -0.034595215 -0.018611083)
(1.3794391 -0.051348898 -0.03343962)
(1.6727043 -0.064064089 -0.045492208)
(1.8185494 -0.070228321 -0.051691165)
(1.8384218 -0.070600739 -0.050118149)
(1.7929556 -0.068520259 -0.044442907)
(1.7365051 -0.065810197 -0.037658923)
(0.1867016 -0.0048054613 -0.0014037034)
(0.57803464 -0.01592096 -0.0060562695)
(1.0118849 -0.029460275 -0.015091654)
(1.4194279 -0.04319981 -0.027432584)
(1.7169973 -0.053336097 -0.037545096)
(1.8597541 -0.056808261 -0.039837474)
(1.8729063 -0.055840224 -0.036853654)
(1.8215508 -0.053096229 -0.030625689)
(1.7622209 -0.050166813 -0.02383812)
(0.19104347 -0.0033803571 -0.00090494451)
(0.59150536 -0.011072875 -0.0043140718)
(1.035503 -0.020290363 -0.011463895)
(1.4520955 -0.029406651 -0.021145764)
(1.7540784 -0.035762188 -0.028020689)
(1.893663 -0.037475137 -0.027494273)
(1.9013623 -0.036162164 -0.02332701)
(1.8462793 -0.033646053 -0.016127539)
(1.7854336 -0.031416386 -0.011261242)
(0.19315823 -0.0012336606 -0.00059677334)
(0.5983964 -0.0040145374 -0.0032255743)
(1.0480835 -0.0073111449 -0.0091441835)
(1.4701061 -0.010523391 -0.017116044)
(1.7751775 -0.01269706 -0.021932342)
(1.9140451 -0.013242848 -0.019870058)
(1.9186766 -0.012566342 -0.013798587)
(1.8615975 -0.01151465 -0.0076059657)
(1.7993401 -0.010703098 -0.003969923)
(0.19315822 0.0012337192 -0.00059677685)
(0.59839636 0.0040146705 -0.0032255619)
(1.0480834 0.0073113156 -0.0091441599)
(1.4701059 0.010523551 -0.017116019)
(1.7751773 0.012697174 -0.021932332)
(1.9140449 0.013243003 -0.019870075)
(1.9186764 0.012566597 -0.013798595)
(1.8615973 0.011514888 -0.0076059432)
(1.7993399 0.010703261 -0.0039698902)
(0.19104345 0.0033804 -0.00090494985)
(0.59150528 0.011072974 -0.0043140619)
(1.0355029 0.020290506 -0.011463863)
(1.4520951 0.029406803 -0.021145721)
(1.7540781 0.035762312 -0.028020655)
(1.8936625 0.037475293 -0.027494293)
(1.9013618 0.036162379 -0.023327022)
(1.8462788 0.033646236 -0.016127484)
(1.785433 0.031416554 -0.011261184)
(0.18670157 0.0048055117 -0.0014037057)
(0.57803455 0.015921063 -0.0060563004)
(1.0118847 0.029460415 -0.015091663)
(1.4194274 0.04319995 -0.027432561)
(1.716997 0.053336232 -0.03754502)
(1.8597537 0.056808397 -0.039837423)
(1.8729059 0.055840359 -0.036853587)
(1.8215503 0.053096357 -0.030625618)
(1.7622202 0.05016697 -0.023838103)
(0.18142149 0.0055320907 -0.0019065251)
(0.56148904 0.018516062 -0.0077780669)
(0.98279364 0.034595347 -0.018611052)
(1.3794388 0.051349012 -0.033439566)
(1.6727041 0.064064245 -0.045492073)
(1.8185491 0.07022847 -0.051691011)
(1.8384215 0.070600852 -0.050118)
(1.7929552 0.068520345 -0.044442836)
(1.7365043 0.065810296 -0.037658922)
(0.17528608 0.005769837 -0.0023346258)
(0.54268615 0.01941735 -0.0092070175)
(0.95054585 0.036469619 -0.021313548)
(1.3364181 0.054480391 -0.03702389)
(1.6255691 0.069758049 -0.052313869)
(1.7747069 0.078405037 -0.060795818)
(1.8019794 0.080810927 -0.060794056)
(1.7634861 0.080077785 -0.055758728)
(1.7111408 0.078095192 -0.048853688)
(0.16838637 0.0056650946 -0.0026829546)
(0.52197177 0.019141341 -0.010310669)
(0.91587788 0.036131216 -0.023052859)
(1.2914643 0.054748972 -0.039978153)
(1.5770819 0.071473169 -0.056603147)
(1.7302451 0.082453921 -0.066746139)
(1.7655109 0.087235453 -0.068228384)
(1.7347253 0.088338108 -0.063977484)
(1.6873122 0.087529528 -0.057227417)
(0.16070657 0.005284543 -0.0028962857)
(0.49926664 0.017979355 -0.010913321)
(0.87861769 0.034242668 -0.023842849)
(1.2439406 0.052790573 -0.041252753)
(1.5269455 0.070438052 -0.058544404)
(1.6852322 0.083425196 -0.069867133)
(1.7294238 0.090605699 -0.072630476)
(1.7071325 0.093789421 -0.069237854)
(1.6654387 0.094450979 -0.062869104)
(0.15235147 0.0048027103 -0.0030156382)
(0.47463759 0.016449655 -0.01116465)
(0.83836453 0.031695523 -0.024051799)
(1.1931161 0.049641387 -0.041267912)
(1.4742371 0.067652069 -0.058727749)
(1.6389879 0.082145175 -0.070790846)
(1.6935012 0.091489481 -0.07459138)
(1.6808244 0.096771657 -0.072027012)
(1.6455937 0.099088316 -0.0661406)
(0.14308752 0.0042609215 -0.0030005935)
(0.44741095 0.014707091 -0.011014961)
(0.79402472 0.02867363 -0.02346458)
(1.137567 0.045645646 -0.040123198)
(1.4174982 0.063536203 -0.057437424)
(1.5905164 0.079047706 -0.070017791)
(1.657468 0.090218068 -0.074721418)
(1.6561095 0.097486637 -0.072930329)
(1.6280829 0.10154429 -0.067520655)
(0.13267373 0.0036428848 -0.0028773661)
(0.41694932 0.012718813 -0.010526996)
(0.74465509 0.025180424 -0.022258286)
(1.0761292 0.040869169 -0.038074125)
(1.3555425 0.058240899 -0.055005335)
(1.5390109 0.074341633 -0.067972712)
(1.6213198 0.086995915 -0.073533028)
(1.6335493 0.095969437 -0.072471335)
(1.613637 0.10180234 -0.067545427)
(0.12154398 0.0030941292 -0.0027428169)
(0.38421069 0.010827887 -0.0099375479)
(0.69128065 0.021649414 -0.020793469)
(1.0093575 0.035706367 -0.035494072)
(1.2882199 0.052023118 -0.051675264)
(1.4839677 0.068112678 -0.064729935)
(1.5848573 0.081666587 -0.071029819)
(1.6137997 0.092123348 -0.070795293)
(1.603353 0.099699008 -0.066619122)
(0.10952171 0.0022379879 -0.0022151394)
(0.34880817 0.008050822 -0.0082073459)
(0.63331733 0.016616519 -0.017439846)
(0.93621242 0.028415967 -0.030328964)
(1.2136233 0.043088135 -0.045281186)
(1.4225479 0.058747491 -0.05835849)
(1.5447788 0.072889505 -0.065725327)
(1.5945459 0.084573341 -0.066903765)
(1.5981906 0.093751689 -0.06444301)
(0.091125735 -0.0009313866 -0.0008608276)
(0.29365977 -0.0033808554 -0.0031514499)
(0.54136396 -0.0071598073 -0.0066031323)
(0.81594904 -0.012735933 -0.01140406)
(1.0800231 -0.020426631 -0.017085157)
(1.2872816 -0.029681676 -0.02233798)
(1.4071359 -0.038848991 -0.025590079)
(1.4450655 -0.046245195 -0.026463913)
(1.4290546 -0.050836765 -0.02588389)
(0.099383381 -0.0010619171 -0.00087978756)
(0.31855136 -0.0038663732 -0.0032536981)
(0.58341651 -0.008184507 -0.0069265925)
(0.87090959 -0.014491103 -0.012113526)
(1.137203 -0.022938063 -0.018129039)
(1.3322371 -0.032531376 -0.023296358)
(1.4292119 -0.041290182 -0.025902693)
(1.4432613 -0.047692609 -0.025925832)
(1.4111225 -0.05136596 -0.02456091)
(0.10691196 -0.0010779658 -0.00079158197)
(0.34136968 -0.0040401516 -0.0030519699)
(0.62208696 -0.0087156222 -0.0067604468)
(0.92137935 -0.015591645 -0.012174945)
(1.18935 -0.024609599 -0.018421265)
(1.3729069 -0.034311063 -0.023482919)
(1.44968 -0.042443816 -0.025528841)
(1.4440856 -0.047728694 -0.024809831)
(1.4011343 -0.050414732 -0.022905924)
(0.11382681 -0.0011353244 -0.00074220659)
(0.36230854 -0.0043106714 -0.0029450883)
(0.65755495 -0.0093624336 -0.0067219624)
(0.96767282 -0.016764452 -0.01234455)
(1.2373635 -0.026197281 -0.018728278)
(1.4111829 -0.035737501 -0.02355335)
(1.4711469 -0.042963247 -0.024959604)
(1.4497481 -0.046979044 -0.02354356)
(1.3982225 -0.048564536 -0.02114074)
(0.11975552 -0.0011889579 -0.00069187919)
(0.38045939 -0.0045567983 -0.0028181393)
(0.68863147 -0.0099543104 -0.0066402881)
(1.0087111 -0.017818111 -0.012412547)
(1.2806156 -0.02751729 -0.018857872)
(1.4468879 -0.036661109 -0.02337385)
(1.4934822 -0.042763216 -0.024110814)
(1.459516 -0.045406631 -0.022009864)
(1.4009539 -0.045917788 -0.01918931)
(0.12489916 -0.0012592118 -0.00064427205)
(0.39628911 -0.0048028423 -0.002639023)
(0.71594017 -0.01050481 -0.0064902493)
(1.045116 -0.018703183 -0.012290375)
(1.3195808 -0.02844241 -0.018649353)
(1.4801433 -0.036911597 -0.022744986)
(1.5161827 -0.041701603 -0.022776419)
(1.4722701 -0.042970363 -0.020035712)
(1.407849 -0.042524914 -0.016889163)
(0.12943002 -0.0013470233 -0.0006075364)
(0.41022936 -0.0050367174 -0.002474715)
(0.74012553 -0.010853586 -0.0061350633)
(1.0776507 -0.019214151 -0.011981028)
(1.3549608 -0.028691483 -0.018004878)
(1.5112667 -0.036209946 -0.021484932)
(1.5388687 -0.039579875 -0.020754816)
(1.4869679 -0.039574573 -0.01744335)
(1.4176729 -0.038373181 -0.014118877)
(0.1331988 -0.0014301721 -0.0005616329)
(0.42195235 -0.005189005 -0.0022946288)
(0.76072268 -0.010895674 -0.0056100642)
(1.1062376 -0.019057395 -0.011403291)
(1.3870125 -0.027799799 -0.016815812)
(1.5404736 -0.034104058 -0.019420244)
(1.561283 -0.036100175 -0.017913434)
(1.5027748 -0.035059475 -0.014181261)
(1.4292921 -0.033399503 -0.010937953)
(0.13620076 -0.0013721602 -0.00045199081)
(0.43141859 -0.0048900612 -0.0019148808)
(0.77764701 -0.01009032 -0.0048697543)
(1.130369 -0.017185196 -0.009364168)
(1.4154368 -0.025164424 -0.015080208)
(1.5674276 -0.030118139 -0.016720043)
(1.5827987 -0.030932871 -0.01443803)
(1.5186568 -0.029277334 -0.010568555)
(1.4413538 -0.027534809 -0.0078367908)
(0.13846293 -0.001087719 -0.00031651195)
(0.43863621 -0.0039238502 -0.0014548514)
(0.79069161 -0.0081717436 -0.0040776292)
(1.1491578 -0.013932359 -0.008187886)
(1.4386838 -0.019912781 -0.012246226)
(1.5906323 -0.02382958 -0.014150354)
(1.6019279 -0.023890777 -0.011140252)
(1.5329278 -0.022264224 -0.0075985868)
(1.451769 -0.020913037 -0.006253816)
(0.14026282 -0.00068101678 -0.00021841451)
(0.444153 -0.0025021218 -0.0011320501)
(0.80033984 -0.0052764232 -0.0035232924)
(1.1626373 -0.0090640916 -0.0074287057)
(1.4546341 -0.012967712 -0.011264853)
(1.60751 -0.015337605 -0.012749654)
(1.6161627 -0.01515535 -0.0092601329)
(1.5429044 -0.014168594 -0.0069514347)
(1.4581089 -0.013300939 -0.0054147825)
(0.14098389 -0.00023292926 -0.00017200923)
(0.44655582 -0.00086213306 -0.00097816694)
(0.80483303 -0.0018259899 -0.0032588871)
(1.1692418 -0.00314269 -0.0070442591)
(1.4626004 -0.0044919633 -0.010778126)
(1.6155372 -0.0052281309 -0.011886272)
(1.6230118 -0.0051995259 -0.0093514391)
(1.547461 -0.0049050071 -0.0064493089)
(1.4611518 -0.004578779 -0.0048657054)
(0.14098388 0.00023295298 -0.00017201436)
(0.44655579 0.00086220063 -0.00097816352)
(0.80483297 0.0018261216 -0.0032588675)
(1.1692417 0.0031428948 -0.0070442304)
(1.4626003 0.0044922462 -0.010778105)
(1.6155371 0.0052285027 -0.011886265)
(1.6230117 0.0051999635 -0.0093514185)
(1.5474609 0.0049053713 -0.0064492751)
(1.4611517 0.004578979 -0.0048656597)
(0.1402628 0.00068104026 -0.00021842293)
(0.44415294 0.0025021853 -0.0011320494)
(0.8003397 0.0052765532 -0.0035232602)
(1.162637 0.0090643071 -0.0074286579)
(1.4546339 0.01296801 -0.011264809)
(1.6075097 0.015337947 -0.012749625)
(1.6161624 0.015155721 -0.0092600551)
(1.5429041 0.014168919 -0.0069513406)
(1.4581086 0.013301147 -0.0054146735)
(0.1384629 0.0010877578 -0.00031651382)
(0.43863615 0.0039239376 -0.0014548733)
(0.79069149 0.0081718973 -0.0040776304)
(1.1491575 0.013932594 -0.0081878802)
(1.4386836 0.019913094 -0.012246181)
(1.590632 0.023829911 -0.014150296)
(1.6019276 0.023891106 -0.011140151)
(1.5329274 0.022264491 -0.0075984721)
(1.4517685 0.02091323 -0.0062537029)
(0.13620073 0.0013722145 -0.00045198012)
(0.43141852 0.0048901749 -0.0019148943)
(0.77764692 0.010090494 -0.0048697468)
(1.1303688 0.017185428 -0.0093641715)
(1.4154367 0.025164733 -0.015080142)
(1.5674275 0.030118499 -0.01671995)
(1.5827985 0.030933217 -0.014437917)
(1.5186564 0.029277597 -0.010568456)
(1.4413533 0.027534925 -0.0078367216)
(0.13319878 0.0014302076 -0.00056160452)
(0.42195231 0.0051890895 -0.0022945736)
(0.76072266 0.010895815 -0.0056099965)
(1.1062375 0.019057597 -0.011403289)
(1.3870124 0.027800122 -0.016815774)
(1.5404735 0.034104493 -0.019420166)
(1.5612828 0.0361006 -0.017913329)
(1.5027744 0.035059755 -0.014181157)
(1.4292916 0.033399507 -0.010937834)
(0.12943001 0.0013470372 -0.000607515)
(0.41022935 0.005036788 -0.0024746589)
(0.74012554 0.010853728 -0.0061350624)
(1.0776506 0.019214361 -0.011981128)
(1.3549606 0.028691818 -0.018004938)
(1.5112665 0.036210426 -0.02148491)
(1.5388685 0.039580353 -0.02075472)
(1.4869676 0.03957485 -0.017443187)
(1.4176725 0.038373107 -0.014118615)
(0.12489915 0.001259241 -0.00064428825)
(0.39628907 0.004802946 -0.0026390797)
(0.71594008 0.010504983 -0.0064903464)
(1.0451158 0.018703408 -0.012290485)
(1.3195806 0.028442751 -0.018649432)
(1.4801431 0.036912061 -0.022745004)
(1.5161825 0.041702075 -0.022776336)
(1.4722699 0.042970615 -0.020035507)
(1.4078487 0.042524867 -0.016888834)
(0.1197555 0.0011889913 -0.00069188718)
(0.3804593 0.0045569147 -0.0028181407)
(0.68863133 0.0099545131 -0.0066402522)
(1.008711 0.017818362 -0.012412586)
(1.2806155 0.027517631 -0.018858002)
(1.4468877 0.036661546 -0.023373939)
(1.4934822 0.042763669 -0.024110807)
(1.4595159 0.045406897 -0.022009742)
(1.4009536 0.04591782 -0.019189063)
(0.11382679 0.0011353442 -0.00074221005)
(0.36230848 0.004310748 -0.0029451082)
(0.65755487 0.0093625933 -0.0067220071)
(0.96767274 0.016764678 -0.012344698)
(1.2373633 0.026197585 -0.018728483)
(1.4111828 0.035737921 -0.023553535)
(1.4711468 0.042963705 -0.024959761)
(1.4497479 0.046979434 -0.023543667)
(1.3982223 0.048564665 -0.021140584)
(0.10691195 0.0010779941 -0.00079159432)
(0.34136964 0.0040402587 -0.0030520105)
(0.6220869 0.0087158432 -0.0067605045)
(0.92137927 0.015591941 -0.012175078)
(1.1893499 0.024609928 -0.018421537)
(1.3729068 0.034311453 -0.02348331)
(1.4496798 0.042444225 -0.02552932)
(1.4440851 0.047729024 -0.024810126)
(1.401134 0.050414742 -0.022905685)
(0.099383375 0.0010619495 -0.00087980614)
(0.31855133 0.0038664878 -0.0032537533)
(0.58341645 0.0081847324 -0.0069266805)
(0.87090949 0.0144914 -0.01211372)
(1.1372029 0.02293837 -0.01812941)
(1.332237 0.032531633 -0.023296873)
(1.4292117 0.041290347 -0.025903191)
(1.4432611 0.04769251 -0.02592585)
(1.4111221 0.051365486 -0.024560536)
(0.091125731 0.00093141795 -0.00086085023)
(0.29365974 0.0033809454 -0.0031515265)
(0.54136389 0.0071599727 -0.0066032601)
(0.81594891 0.01273614 -0.011404286)
(1.0800229 0.020426855 -0.017085501)
(1.2872816 0.029681877 -0.022338422)
(1.4071358 0.03884917 -0.02559047)
(1.4450657 0.046245188 -0.026463949)
(1.4290546 0.050836542 -0.025883828)
(0.10098077 -0.00053281415 -0.00048859247)
(0.3237266 -0.0018523321 -0.0016753481)
(0.59291263 -0.003779873 -0.0033202318)
(0.88666517 -0.0064419849 -0.0055532047)
(1.1649955 -0.0098052046 -0.0084585348)
(1.3824366 -0.013550527 -0.011786704)
(1.5109002 -0.017022418 -0.014763636)
(1.5567985 -0.019662544 -0.01651652)
(1.5472237 -0.021206715 -0.017026501)
(0.10984835 -0.00072973524 -0.00059132378)
(0.34997986 -0.0024751531 -0.0019847785)
(0.63621123 -0.0049248497 -0.0038541105)
(0.94151817 -0.0081578076 -0.0063495082)
(1.2200937 -0.012038997 -0.0095528979)
(1.4239894 -0.016057146 -0.013121491)
(1.5293359 -0.019383789 -0.016112046)
(1.5517404 -0.02151672 -0.01765879)
(1.5265761 -0.022465602 -0.017663163)
(0.11773231 -0.00084291906 -0.00059306137)
(0.3733556 -0.0028593295 -0.0019975634)
(0.67470513 -0.0056695779 -0.0038875473)
(0.98993484 -0.0093198293 -0.0064550191)
(1.267979 -0.013575276 -0.0098129329)
(1.4590577 -0.01772781 -0.01355086)
(1.5439212 -0.020800481 -0.01659859)
(1.5470035 -0.022398305 -0.018098094)
(1.5113812 -0.022838787 -0.018014098)
(0.12480091 -0.00093989418 -0.00057489982)
(0.39421814 -0.0031767917 -0.0019378063)
(0.70890383 -0.0062643713 -0.0037831275)
(1.0327604 -0.010224404 -0.0063488789)
(1.3102686 -0.014730346 -0.0097810079)
(1.4903897 -0.018881911 -0.013611002)
(1.5583009 -0.021587801 -0.016686232)
(1.5459723 -0.02260646 -0.018194413)
(1.5022491 -0.022557622 -0.018133424)
(0.13066919 -0.00099263419 -0.00052638702)
(0.41166266 -0.0033596072 -0.0017842219)
(0.73769468 -0.0066213379 -0.0035188346)
(1.0690871 -0.010786828 -0.0060233124)
(1.3465559 -0.015440832 -0.0094809577)
(1.5180497 -0.019491558 -0.013366675)
(1.5725948 -0.021763284 -0.016464563)
(1.5482866 -0.02220413 -0.018013672)
(1.498157 -0.021705412 -0.018041707)
(0.13558539 -0.0010104273 -0.00045339695)
(0.42628482 -0.0034264981 -0.0015509935)
(0.76185841 -0.0067561817 -0.0031162326)
(1.0996801 -0.011005921 -0.0055000164)
(1.3773971 -0.015682637 -0.0089279734)
(1.5421932 -0.019521688 -0.012829657)
(1.586395 -0.021307041 -0.015945962)
(1.5529291 -0.021203001 -0.017566317)
(1.49779 -0.020324568 -0.017726402)
(0.13974365 -0.00098882192 -0.0003702226)
(0.43858292 -0.0033598291 -0.0012788386)
(0.78210322 -0.0066342234 -0.002630191)
(1.125305 -0.010826797 -0.0048353467)
(1.4034174 -0.015382084 -0.0081604492)
(1.563058 -0.018899382 -0.012023131)
(1.5993004 -0.02016997 -0.015148393)
(1.5589087 -0.019589324 -0.016870223)
(1.4998953 -0.018434691 -0.017208608)
(0.1430281 -0.00090905936 -0.00027657998)
(0.44835851 -0.0031058814 -0.00096989942)
(0.7983218 -0.0061654027 -0.0020648985)
(1.1460861 -0.010117437 -0.0040278382)
(1.4249324 -0.014374473 -0.0071777382)
(1.5808756 -0.017479227 -0.010962866)
(1.6110986 -0.018266439 -0.014113094)
(1.5654632 -0.017329979 -0.015986585)
(1.5034461 -0.016022797 -0.016563917)
(0.14550811 -0.00075043627 -0.00017750505)
(0.45580877 -0.0026004504 -0.00064126404)
(0.81083405 -0.0052277884 -0.0014519581)
(1.1624037 -0.0086831264 -0.0031013101)
(1.442286 -0.0124528 -0.006071927)
(1.5957854 -0.015071249 -0.0097638967)
(1.6215279 -0.015486361 -0.012968828)
(1.5718903 -0.014390604 -0.015071423)
(1.5074996 -0.013093913 -0.015953856)
(0.14727156 -0.00053556233 -9.5428792e-05)
(0.4611777 -0.0019054097 -0.00037384369)
(0.81998394 -0.0039262164 -0.00097147935)
(1.1745829 -0.00673146 -0.0024283781)
(1.4557037 -0.009808234 -0.005190693)
(1.6077154 -0.011892612 -0.0088155247)
(1.630119 -0.011821799 -0.011944523)
(1.5774416 -0.010807053 -0.014366022)
(1.5111736 -0.0097146675 -0.015590684)
(0.14866357 -0.00031385462 -4.3919524e-05)
(0.46521284 -0.0011416477 -0.00020790974)
(0.82659297 -0.0023963386 -0.0006828846)
(1.1831588 -0.0041836759 -0.0020068042)
(1.4649644 -0.0061396038 -0.0046088024)
(1.6160569 -0.007460282 -0.0081562436)
(1.6362253 -0.0075320948 -0.011425217)
(1.5813622 -0.0067215892 -0.01405399)
(1.5137708 -0.0059875522 -0.015445023)
(0.1491276 -0.00010424345 -2.127752e-05)
(0.46672907 -0.00038276407 -0.00013355812)
(0.82933663 -0.00080974531 -0.000553534)
(1.1870334 -0.0014229798 -0.0018165887)
(1.4693963 -0.0020910106 -0.0043572889)
(1.62016 -0.0025287278 -0.0078680745)
(1.6393231 -0.0025538157 -0.011281463)
(1.5833527 -0.0022763499 -0.013905694)
(1.5151 -0.0020220609 -0.015375676)
(0.1491276 0.00010427919 -2.1281935e-05)
(0.46672906 0.0003828586 -0.0001335605)
(0.82933661 0.00080990835 -0.00055352733)
(1.1870333 0.0014232137 -0.0018165781)
(1.4693963 0.002091329 -0.0043572851)
(1.62016 0.0025291433 -0.0078680714)
(1.639323 0.0025542689 -0.011281441)
(1.5833526 0.0022766762 -0.013905652)
(1.5151 0.0020221633 -0.015375624)
(0.14866357 0.00031388881 -4.3927526e-05)