/*--------------------------------*- C++ -*----------------------------------*\
  =========                 |
  \\      /  F ield         | OpenFOAM: The Open Source CFD Toolbox
   \\    /   O peration     | Website:  https://openfoam.org
    \\  /    A nd           | Version:  10
     \\/     M anipulation  |
\*---------------------------------------------------------------------------*/
FoamFile
{
    format      ascii;
    class       volScalarField;
    location    "2.5";
    object      T;
}
// * * * * * * * * * * * * * * * * * * * * * * * * * * * * * * * * * * * * * //

dimensions      [0 0 -1 0 0 0 0];

internalField   nonuniform List<scalar> 
100
(
-0.05463
-0.161954
-0.26354
-0.35579
-0.435436
-0.499657
-0.546177
-0.573348
-0.580209
-0.566515
-0.532752
-0.480116
-0.410472
-0.326286
-0.230542
-0.126631
-0.0182334
0.0908098
0.196636
0.295496
0.383889
0.458682
0.517225
0.557446
0.577919
0.577919
0.557446
0.517225
0.458681
0.383888
0.295496
0.196635
0.0908091
-0.0182342
-0.126632
-0.230543
-0.326287
-0.410473
-0.480117
-0.532753
-0.566515
-0.580209
-0.573349
-0.546177
-0.499657
-0.435436
-0.355789
-0.263539
-0.161953
-0.0546289
0.0546301
0.161954
0.26354
0.35579
0.435437
0.499657
0.546177
0.573349
0.580209
0.566515
0.532752
0.480116
0.410472
0.326286
0.230542
0.12663
0.018233
-0.0908103
-0.196637
-0.295497
-0.383889
-0.458682
-0.517226
-0.557446
-0.577919
-0.577919
-0.557446
-0.517225
-0.458681
-0.383888
-0.295495
-0.196635
-0.0908086
0.0182346
0.126632
0.230543
0.326287
0.410473
0.480117
0.532752
0.566515
0.580209
0.573348
0.546176
0.499656
0.435435
0.355789
0.263539
0.161952
0.0546288
)
;

boundaryField
{
    inlet
    {
        type            cyclic;
    }
    outlet
    {
        type            cyclic;
    }
    bottom
    {
        type            slip;
    }
    top
    {
        type            slip;
    }
    frontAndBack
    {
        type            empty;
    }
}


// ************************************************************************* //
