/*--------------------------------*- C++ -*----------------------------------*\
  =========                 |
  \\      /  F ield         | OpenFOAM: The Open Source CFD Toolbox
   \\    /   O peration     | Website:  https://openfoam.org
    \\  /    A nd           | Version:  10
     \\/     M anipulation  |
\*---------------------------------------------------------------------------*/
FoamFile
{
    format      ascii;
    class       volScalarField;
    location    "7.7";
    object      T_0;
}
// * * * * * * * * * * * * * * * * * * * * * * * * * * * * * * * * * * * * * //

dimensions      [0 0 -1 0 0 0 0];

internalField   nonuniform List<scalar> 
100
(
-0.012448
-0.0369028
-0.0600503
-0.0810705
-0.0992187
-0.113852
-0.124452
-0.130643
-0.132207
-0.129086
-0.121393
-0.109399
-0.0935303
-0.0743478
-0.0525314
-0.0288541
-0.00415469
0.0206919
0.0448055
0.0673319
0.087473
0.104515
0.117855
0.12702
0.131685
0.131685
0.12702
0.117855
0.104515
0.0874728
0.0673317
0.0448054
0.0206918
-0.00415478
-0.0288542
-0.0525314
-0.0743476
-0.0935301
-0.109399
-0.121393
-0.129086
-0.132206
-0.130643
-0.124452
-0.113852
-0.0992182
-0.08107
-0.0600499
-0.0369024
-0.0124477
0.012448
0.0369027
0.0600501
0.0810702
0.0992184
0.113852
0.124452
0.130643
0.132206
0.129086
0.121393
0.109399
0.0935299
0.0743474
0.0525311
0.0288539
0.00415452
-0.0206921
-0.0448056
-0.0673319
-0.087473
-0.104515
-0.117855
-0.12702
-0.131685
-0.131685
-0.12702
-0.117855
-0.104515
-0.0874727
-0.0673316
-0.0448053
-0.0206917
0.00415498
0.0288544
0.0525317
0.074348
0.0935305
0.1094
0.121393
0.129086
0.132207
0.130643
0.124452
0.113852
0.0992186
0.0810703
0.0600501
0.0369026
0.0124478
)
;

boundaryField
{
    inlet
    {
        type            cyclic;
    }
    outlet
    {
        type            cyclic;
    }
    bottom
    {
        type            slip;
    }
    top
    {
        type            slip;
    }
    frontAndBack
    {
        type            empty;
    }
}


// ************************************************************************* //
