/*--------------------------------*- C++ -*----------------------------------*\
  =========                 |
  \\      /  F ield         | OpenFOAM: The Open Source CFD Toolbox
   \\    /   O peration     | Website:  https://openfoam.org
    \\  /    A nd           | Version:  10
     \\/     M anipulation  |
\*---------------------------------------------------------------------------*/
FoamFile
{
    format      ascii;
    class       volScalarField;
    location    "13.5";
    object      ddt0(T);
}
// * * * * * * * * * * * * * * * * * * * * * * * * * * * * * * * * * * * * * //

dimensions      [0 0 -1 1 0 0 0];

internalField   nonuniform List<scalar> 
10000
(
3168.6
1097.71
1203.03
1226.69
1227.95
1228
1228.11
1228.16
1228.19
1228.2
1228.21
1228.21
1228.22
1228.22
1228.23
1228.23
1228.24
1228.24
1228.25
1228.25
1228.26
1228.26
1228.27
1228.27
1228.27
1228.28
1228.28
1228.28
1228.29
1228.29
1228.29
1228.29
1228.3
1228.3
1228.3
1228.3
1228.31
1228.31
1228.31
1228.31
1228.31
1228.31
1228.32
1228.32
1228.32
1228.32
1228.32
1228.32
1228.32
1228.32
1228.32
1228.32
1228.32
1228.32
1228.32
1228.32
1228.32
1228.32
1228.32
1228.32
1228.32
1228.32
1228.32
1228.32
1228.32
1228.32
1228.32
1228.32
1228.32
1228.32
1228.32
1228.32
1228.31
1228.31
1228.31
1228.31
1228.31
1228.31
1228.31
1228.31
1228.31
1228.31
1228.31
1228.31
1228.31
1228.31
1228.31
1228.3
1228.3
1228.3
1228.3
1228.3
1228.3
1228.3
1228.3
1228.28
1227.93
1223.71
1194.61
1285.58
1308.71
-612.479
-345.128
-303.078
-303.085
-303.793
-303.805
-303.742
-303.705
-303.683
-303.666
-303.649
-303.633
-303.618
-303.603
-303.588
-303.574
-303.56
-303.546
-303.533
-303.52
-303.508
-303.496
-303.485
-303.473
-303.463
-303.452
-303.442
-303.433
-303.424
-303.415
-303.407
-303.399
-303.391
-303.384
-303.378
-303.372
-303.366
-303.36
-303.355
-303.351
-303.346
-303.343
-303.339
-303.336
-303.333
-303.331
-303.329
-303.327
-303.325
-303.324
-303.323
-303.322
-303.322
-303.322
-303.322
-303.322
-303.323
-303.324
-303.324
-303.325
-303.327
-303.328
-303.329
-303.331
-303.333
-303.335
-303.336
-303.338
-303.34
-303.342
-303.345
-303.347
-303.349
-303.351
-303.353
-303.355
-303.357
-303.359
-303.361
-303.363
-303.365
-303.367
-303.369
-303.371
-303.373
-303.374
-303.376
-303.377
-303.378
-303.38
-303.381
-303.382
-303.381
-303.371
-303.321
-303.327
-305.601
-323.416
-294.571
1383.6
-383.366
-78.6511
-34.0329
-34.7372
-35.6761
-35.705
-35.6273
-35.5773
-35.5437
-35.5153
-35.4884
-35.4623
-35.4366
-35.4115
-35.3869
-35.3629
-35.3395
-35.3167
-35.2946
-35.2732
-35.2524
-35.2323
-35.2129
-35.1942
-35.1762
-35.1589
-35.1422
-35.1263
-35.111
-35.0964
-35.0826
-35.0694
-35.0569
-35.0451
-35.034
-35.0235
-35.0138
-35.0047
-34.9963
-34.9885
-34.9814
-34.9749
-34.969
-34.9638
-34.9591
-34.955
-34.9514
-34.9483
-34.9458
-34.9438
-34.9422
-34.9411
-34.9404
-34.9402
-34.9403
-34.9408
-34.9416
-34.9428
-34.9442
-34.9459
-34.9479
-34.9502
-34.9526
-34.9553
-34.9581
-34.961
-34.9642
-34.9674
-34.9707
-34.9741
-34.9776
-34.9811
-34.9846
-34.9882
-34.9917
-34.9952
-34.9987
-35.0022
-35.0056
-35.0089
-35.0122
-35.0153
-35.0183
-35.0213
-35.0241
-35.0267
-35.0293
-35.0316
-35.0338
-35.0359
-35.038
-35.0402
-35.0422
-35.0354
-34.9695
-34.7392
-35.1964
-43.9008
-29.6202
1402.46
-346.695
-39.4296
4.39023
3.26726
2.24574
2.22082
2.3126
2.37516
2.41999
2.45913
2.49642
2.5328
2.56847
2.60343
2.63765
2.67109
2.7037
2.73543
2.76627
2.7962
2.82519
2.85324
2.88035
2.90651
2.93171
2.95596
2.97925
3.00157
3.02293
3.04332
3.06273
3.08118
3.09865
3.11515
3.13069
3.14527
3.1589
3.17159
3.18335
3.1942
3.20414
3.21321
3.22141
3.22878
3.23532
3.24107
3.24605
3.25029
3.25381
3.25664
3.25881
3.26035
3.26129
3.26165
3.26147
3.26078
3.25961
3.25798
3.25594
3.2535
3.2507
3.24757
3.24414
3.24044
3.23649
3.23233
3.22797
3.22345
3.2188
3.21404
3.20919
3.20427
3.19932
3.19435
3.18938
3.18444
3.17954
3.17471
3.16996
3.16531
3.16077
3.15636
3.1521
3.148
3.14407
3.14032
3.13677
3.13343
3.1303
3.12735
3.12446
3.12097
3.11516
3.10692
3.12525
3.31894
3.77892
2.20183
6.89234
1403.44
-346.602
-39.98
3.43035
2.18936
1.15877
1.1462
1.25099
1.32518
1.38088
1.43055
1.47817
1.52473
1.57041
1.6152
1.65907
1.70196
1.74379
1.78453
1.82413
1.86256
1.89982
1.93588
1.97072
2.00435
2.03675
2.06793
2.09786
2.12655
2.154
2.18019
2.20513
2.22882
2.25126
2.27245
2.29239
2.31111
2.3286
2.34487
2.35996
2.37387
2.38663
2.39825
2.40877
2.41821
2.42659
2.43396
2.44034
2.44576
2.45026
2.45388
2.45665
2.45861
2.45979
2.46024
2.46
2.45909
2.45757
2.45547
2.45282
2.44968
2.44607
2.44204
2.43762
2.43285
2.42777
2.4224
2.4168
2.41099
2.405
2.39887
2.39263
2.38631
2.37994
2.37355
2.36716
2.36081
2.35452
2.3483
2.34219
2.33621
2.33038
2.32471
2.31923
2.31396
2.3089
2.30409
2.29952
2.29522
2.2912
2.28745
2.28392
2.2801
2.27401
2.26051
2.2393
2.2683
2.5109
2.68429
4.09116
1403.48
-347.196
-40.7873
2.54303
1.2931
0.273861
0.274508
0.391276
0.476545
0.542909
0.603007
0.660908
0.717585
0.773221
0.827805
0.881274
0.93355
0.984563
1.03425
1.08257
1.12948
1.17495
1.21896
1.2615
1.30256
1.34212
1.38018
1.41672
1.45174
1.48524
1.5172
1.54763
1.57653
1.6039
1.62974
1.65407
1.67688
1.69821
1.71805
1.73644
1.75339
1.76893
1.78308
1.79589
1.80738
1.81759
1.82655
1.83431
1.8409
1.84637
1.85076
1.85412
1.85648
1.8579
1.85843
1.8581
1.85698
1.8551
1.85251
1.84926
1.8454
1.84098
1.83604
1.83063
1.82479
1.81856
1.812
1.80515
1.79804
1.79071
1.78322
1.77559
1.76786
1.76008
1.75226
1.74446
1.73669
1.729
1.7214
1.71394
1.70663
1.6995
1.69258
1.68588
1.67944
1.67326
1.66738
1.6618
1.65655
1.65163
1.64708
1.64289
1.63895
1.63426
1.62494
1.6034
1.57583
1.60799
1.7899
2.26412
1403.57
-347.202
-40.8087
2.52551
1.28778
0.281709
0.294452
0.422436
0.518456
0.595328
0.665771
0.733872
0.800599
0.866125
0.930424
0.993418
1.05502
1.11514
1.17371
1.23067
1.28598
1.3396
1.39152
1.44169
1.49012
1.53678
1.58167
1.62476
1.66606
1.70556
1.74325
1.77913
1.81319
1.84545
1.87591
1.90457
1.93145
1.95657
1.97994
2.00159
2.02155
2.03984
2.05651
2.07158
2.08509
2.0971
2.10763
2.11675
2.12449
2.1309
2.13605
2.13997
2.14272
2.14437
2.14495
2.14454
2.14318
2.14093
2.13784
2.13398
2.1294
2.12415
2.1183
2.11188
2.10497
2.0976
2.08984
2.08173
2.07332
2.06466
2.05579
2.04677
2.03764
2.02843
2.0192
2.00997
2.0008
1.9917
1.98273
1.97391
1.96527
1.95685
1.94867
1.94077
1.93315
1.92586
1.91891
1.91232
1.90612
1.90031
1.89492
1.88999
1.88557
1.88147
1.87614
1.86444
1.8398
1.81221
1.85704
2.08064
1403.62
-347.145
-40.7377
2.61032
1.38547
0.391342
0.415295
0.554063
0.660629
0.747889
0.828585
0.906801
0.983496
1.05883
1.13276
1.20519
1.27603
1.34518
1.41255
1.47808
1.54172
1.60342
1.66316
1.7209
1.77663
1.83033
1.88198
1.93157
1.97909
2.02453
2.06789
2.10916
2.14834
2.18544
2.22046
2.25341
2.28431
2.31318
2.34004
2.36492
2.38785
2.40886
2.428
2.4453
2.46081
2.47458
2.48666
2.4971
2.50597
2.51331
2.51918
2.52365
2.52677
2.52862
2.52925
2.52873
2.52712
2.52448
2.52089
2.51641
2.5111
2.50502
2.49824
2.49082
2.48282
2.4743
2.46533
2.45596
2.44625
2.43625
2.42601
2.4156
2.40505
2.39443
2.38377
2.37313
2.36254
2.35205
2.3417
2.33152
2.32156
2.31185
2.30242
2.2933
2.28452
2.27611
2.2681
2.2605
2.25334
2.24665
2.24043
2.23471
2.22957
2.2251
2.22102
2.21523
2.20145
2.16943
2.14338
2.31987
1403.64
-347.111
-40.6907
2.66978
1.45653
0.473465
0.508171
0.657488
0.77446
0.872001
0.962853
1.05109
1.13766
1.2227
1.30617
1.38795
1.46794
1.54602
1.6221
1.69611
1.76799
1.83769
1.90517
1.9704
2.03336
2.09402
2.15237
2.20838
2.26205
2.31338
2.36234
2.40894
2.45318
2.49505
2.53458
2.57177
2.60664
2.63922
2.66952
2.69758
2.72343
2.74712
2.76869
2.78818
2.80565
2.82116
2.83475
2.84649
2.85645
2.86468
2.87126
2.87625
2.87973
2.88176
2.88241
2.88177
2.87989
2.87686
2.87275
2.86763
2.86157
2.85465
2.84693
2.8385
2.82941
2.81974
2.80956
2.79892
2.7879
2.77655
2.76495
2.75314
2.74118
2.72914
2.71706
2.70499
2.69299
2.68111
2.66938
2.65785
2.64657
2.63557
2.62489
2.61456
2.60462
2.59509
2.58602
2.57742
2.56931
2.56173
2.55469
2.5482
2.54231
2.53714
2.53284
2.52905
2.52185
2.49417
2.42766
2.62454
1403.65
-347.09
-40.658
2.71382
1.51143
0.53904
0.584264
0.743979
0.871238
0.978952
1.07985
1.17801
1.27434
1.36899
1.46189
1.55292
1.64194
1.72886
1.81355
1.89595
1.97597
2.05357
2.12871
2.20134
2.27144
2.33898
2.40394
2.4663
2.52605
2.58318
2.63767
2.68954
2.73876
2.78536
2.82933
2.8707
2.90949
2.94571
2.97939
3.01058
3.03931
3.06563
3.08959
3.11123
3.13062
3.14782
3.16289
3.1759
3.18692
3.19602
3.20327
3.20876
3.21256
3.21475
3.21541
3.21462
3.21246
3.20901
3.20436
3.19859
3.19178
3.184
3.17534
3.16588
3.1557
3.14487
3.13346
3.12155
3.10922
3.09653
3.08354
3.07034
3.05697
3.0435
3.03
3.01652
3.00311
2.98983
2.97673
2.96385
2.95124
2.93896
2.92703
2.91549
2.90439
2.89376
2.88362
2.87402
2.86497
2.85651
2.84865
2.84141
2.83482
2.82894
2.82404
2.82054
2.81663
2.79279
2.69293
2.93152
1403.66
-347.072
-40.6297
2.75286
1.56104
0.599102
0.654691
0.824675
0.962102
1.07987
1.19071
1.29866
1.40465
1.50879
1.611
1.71115
1.80911
1.90474
1.99793
2.0886
2.17667
2.26207
2.34476
2.42469
2.50184
2.57616
2.64765
2.71627
2.78202
2.84487
2.90482
2.96187
3.01601
3.06726
3.11561
3.16109
3.20372
3.24353
3.28054
3.3148
3.34636
3.37526
3.40155
3.4253
3.44656
3.46541
3.48192
3.49616
3.5082
3.51813
3.52603
3.53199
3.53609
3.53841
3.53905
3.53809
3.53563
3.53175
3.52654
3.52011
3.51252
3.50388
3.49427
3.48377
3.47248
3.46048
3.44784
3.43466
3.42101
3.40696
3.3926
3.37799
3.36321
3.34833
3.3334
3.3185
3.30368
3.289
3.27453
3.2603
3.24638
3.23281
3.21963
3.2069
3.19464
3.1829
3.17171
3.16111
3.15112
3.14178
3.13311
3.12513
3.11785
3.11132
3.10579
3.10204
3.09991
3.07919
2.94919
3.23238
1403.66
-347.056
-40.6027
2.79028
1.60883
0.657199
0.723017
0.903143
1.05061
1.17831
1.29896
1.41658
1.53209
1.64559
1.75698
1.86614
1.97289
2.07712
2.1787
2.27752
2.37351
2.4666
2.55673
2.64386
2.72795
2.80897
2.88688
2.96167
3.03332
3.10181
3.16713
3.22928
3.28825
3.34407
3.39672
3.44624
3.49265
3.53598
3.57625
3.61353
3.64785
3.67927
3.70784
3.73364
3.75674
3.77719
3.79509
3.81052
3.82355
3.83428
3.84279
3.84918
3.85354
3.85597
3.85656
3.85542
3.85263
3.84829
3.84252
3.8354
3.82702
3.8175
3.80692
3.79538
3.78297
3.76979
3.75592
3.74146
3.72648
3.71108
3.69534
3.67933
3.66313
3.64682
3.63047
3.61415
3.59792
3.58185
3.56601
3.55043
3.5352
3.52034
3.50593
3.49199
3.47858
3.46574
3.4535
3.4419
3.43098
3.42077
3.41129
3.40257
3.39462
3.38747
3.38132
3.37717
3.37605
3.35809
3.20247
3.52558
1403.67
-347.04
-40.5765
2.82687
1.65564
0.714174
0.790083
0.980212
1.13758
1.27508
1.40539
1.53255
1.65744
1.78015
1.9006
2.01861
2.13403
2.24672
2.35655
2.4634
2.56719
2.66785
2.76531
2.85952
2.95044
3.03804
3.12227
3.20312
3.28057
3.3546
3.4252
3.49236
3.55608
3.61638
3.67326
3.72674
3.77685
3.82362
3.86709
3.90731
3.94433
3.97821
4.00902
4.03681
4.06168
4.08369
4.10294
4.1195
4.13348
4.14496
4.15405
4.16084
4.16544
4.16794
4.16846
4.1671
4.16396
4.15915
4.15278
4.14496
4.13578
4.12536
4.1138
4.1012
4.08767
4.0733
4.05819
4.04243
4.02613
4.00937
3.99224
3.97482
3.95721
3.93947
3.9217
3.90396
3.88632
3.86886
3.85165
3.83473
3.81818
3.80205
3.7864
3.77126
3.75671
3.74276
3.72948
3.7169
3.70505
3.69396
3.68368
3.67422
3.6656
3.65784
3.65111
3.64649
3.64591
3.63026
3.45476
3.81029
1403.67
-347.024
-40.5507
2.86279
1.70164
0.770184
0.856033
1.05601
1.22314
1.37028
1.5101
1.64664
1.78076
1.91254
2.04188
2.16861
2.29256
2.41357
2.5315
2.64625
2.75771
2.8658
2.97046
3.07163
3.16926
3.26332
3.35376
3.44057
3.52371
3.60318
3.67895
3.75102
3.8194
3.88409
3.9451
4.00246
4.05619
4.10633
4.15292
4.19602
4.23567
4.27194
4.30491
4.33464
4.36122
4.38474
4.40528
4.42294
4.43782
4.45002
4.45964
4.46679
4.47159
4.47414
4.47455
4.47294
4.46943
4.46412
4.45714
4.44859
4.4386
4.42727
4.41471
4.40104
4.38637
4.3708
4.35444
4.33739
4.31975
4.30162
4.2831
4.26428
4.24524
4.22608
4.20689
4.18773
4.16869
4.14984
4.13125
4.113
4.09513
4.07773
4.06084
4.04452
4.02882
4.01378
3.99946
3.98589
3.97312
3.96117
3.95008
3.93989
3.9306
3.92224
3.91496
3.90984
3.90944
3.89557
3.70619
4.08599
1403.68
-347.009
-40.5253
2.89805
1.74681
0.825212
0.920839
1.13051
1.30722
1.46384
1.61302
1.75877
1.90195
2.04265
2.18072
2.31601
2.44832
2.5775
2.7034
2.82589
2.94488
3.06027
3.17199
3.27999
3.38421
3.4846
3.58113
3.67377
3.7625
3.84729
3.92813
4.00502
4.07795
4.14693
4.21198
4.27313
4.33039
4.38382
4.43345
4.47934
4.52155
4.56015
4.59521
4.62682
4.65506
4.68002
4.7018
4.72051
4.73624
4.7491
4.75922
4.7667
4.77165
4.77421
4.77449
4.77261
4.76869
4.76286
4.75524
4.74595
4.73512
4.72286
4.70929
4.69454
4.67872
4.66194
4.64432
4.62596
4.60698
4.58749
4.56757
4.54734
4.52688
4.50629
4.48567
4.46509
4.44465
4.42441
4.40446
4.38486
4.3657
4.34702
4.3289
4.3114
4.29456
4.27843
4.26308
4.24853
4.23484
4.22203
4.21015
4.19923
4.18928
4.18032
4.17249
4.16687
4.16637
4.15373
3.95612
4.35237
1403.68
-346.994
-40.5005
2.93263
1.79112
0.879198
0.984426
1.20361
1.38974
1.55565
1.71401
1.8688
2.02088
2.17031
2.31696
2.46063
2.60115
2.73834
2.87204
3.00213
3.12849
3.25103
3.36968
3.48436
3.59503
3.70163
3.80412
3.90248
3.99666
4.08666
4.17245
4.25404
4.33142
4.4046
4.47359
4.53842
4.59913
4.65575
4.70834
4.75694
4.80164
4.84249
4.87958
4.91299
4.94283
4.96917
4.99214
5.01183
5.02837
5.04185
5.05242
5.06018
5.06526
5.06779
5.0679
5.06571
5.06137
5.05498
5.0467
5.03665
5.02496
5.01175
4.99716
4.98131
4.96432
4.94632
4.92743
4.90777
4.88744
4.86657
4.84525
4.8236
4.80172
4.77971
4.75766
4.73567
4.71382
4.69219
4.67088
4.64995
4.62948
4.60954
4.5902
4.57151
4.55353
4.53633
4.51994
4.50443
4.48982
4.47617
4.4635
4.45186
4.44125
4.43171
4.42335
4.41721
4.41642
4.40451
4.20363
4.60929
1403.69
-346.98
-40.4762
2.96647
1.83451
0.93207
1.04671
1.27522
1.47057
1.6456
1.81295
1.9766
2.13739
2.29538
2.45042
2.60231
2.75086
2.89589
3.03723
3.17475
3.30833
3.43787
3.56329
3.68452
3.80149
3.91416
4.02247
4.12641
4.22593
4.32101
4.41164
4.49781
4.57952
4.65678
4.72962
4.79804
4.86209
4.92182
4.97727
5.02851
5.0756
5.11862
5.15767
5.19282
5.22418
5.25185
5.27594
5.29657
5.31385
5.32791
5.33887
5.34687
5.35204
5.3545
5.35441
5.35188
5.34707
5.34012
5.33115
5.32031
5.30773
5.29356
5.27793
5.26096
5.2428
5.22358
5.20341
5.18242
5.16074
5.13848
5.11577
5.0927
5.0694
5.04595
5.02248
4.99907
4.97582
4.95281
4.93013
4.90787
4.88611
4.8649
4.84434
4.82447
4.80537
4.78709
4.76968
4.7532
4.73769
4.72319
4.70975
4.69739
4.68614
4.67602
4.66713
4.6605
4.65925
4.6477
4.44771
4.85669
1403.69
-346.965
-40.4525
2.99953
1.87691
0.98376
1.10761
1.34525
1.54963
1.73357
1.90971
2.08203
2.25134
2.4177
2.58094
2.74087
2.89728
3.04997
3.19878
3.34357
3.4842
3.62058
3.75261
3.88023
4.00336
4.12194
4.23595
4.34532
4.45004
4.55008
4.64542
4.73605
4.82198
4.90322
4.97977
5.05168
5.11898
5.18171
5.23994
5.29372
5.34312
5.38824
5.42916
5.46598
5.49879
5.52772
5.55287
5.57437
5.59235
5.60693
5.61824
5.62644
5.63164
5.634
5.63367
5.63077
5.62547
5.61791
5.60823
5.59658
5.5831
5.56794
5.55125
5.53316
5.51381
5.49334
5.47188
5.44957
5.42653
5.40288
5.37876
5.35427
5.32954
5.30467
5.27977
5.25494
5.23029
5.2059
5.18187
5.15828
5.13522
5.11276
5.09098
5.06994
5.04971
5.03036
5.01194
4.9945
4.97809
4.96275
4.94854
4.93547
4.92359
4.9129
4.9035
4.89637
4.89456
4.88308
4.68735
5.09457
1403.7
-346.951
-40.4294
3.03177
1.91828
1.03421
1.16706
1.41361
1.62681
1.81947
2.0042
2.18498
2.36262
2.53715
2.70841
2.87618
3.04025
3.20043
3.35653
3.5084
3.65592
3.79896
3.93745
4.07129
4.20042
4.32478
4.44432
4.55899
4.66877
4.77363
4.87355
4.96852
5.05855
5.14363
5.22381
5.29909
5.36953
5.43517
5.49606
5.55229
5.60393
5.65105
5.69377
5.73217
5.76637
5.79649
5.82264
5.84495
5.86356
5.87861
5.89022
5.89856
5.90376
5.90598
5.90536
5.90206
5.89624
5.88804
5.87762
5.86513
5.85073
5.83457
5.8168
5.79757
5.77701
5.75529
5.73253
5.70888
5.68447
5.65944
5.6339
5.60799
5.58183
5.55553
5.52921
5.50296
5.47691
5.45114
5.42576
5.40084
5.37649
5.35278
5.32979
5.30759
5.28624
5.26583
5.2464
5.228
5.2107
5.19454
5.17955
5.16579
5.15327
5.14202
5.13213
5.12451
5.12206
5.11046
4.92161
5.32294
1403.7
-346.938
-40.4069
3.06318
1.9586
1.08338
1.22501
1.48026
1.70206
1.90321
2.09633
2.28536
2.47112
2.65362
2.83269
3.00811
3.17966
3.34712
3.51033
3.6691
3.82332
3.97287
4.11763
4.25754
4.39251
4.52248
4.6474
4.76723
4.88192
4.99146
5.09582
5.195
5.28899
5.37781
5.46148
5.54002
5.61349
5.68193
5.74541
5.80399
5.85776
5.9068
5.95123
5.99114
6.02665
6.05788
6.08496
6.10803
6.12721
6.14267
6.15453
6.16297
6.16812
6.17015
6.16921
6.16547
6.15909
6.15022
6.13904
6.12569
6.11034
6.09316
6.07429
6.0539
6.03213
6.00914
5.98507
5.96008
5.93429
5.90786
5.88091
5.85357
5.82598
5.79825
5.7705
5.74284
5.71539
5.68825
5.66151
5.63528
5.60964
5.58468
5.56048
5.53712
5.51467
5.4932
5.47276
5.45342
5.43524
5.41825
5.40251
5.38806
5.37492
5.36311
5.35274
5.34462
5.34148
5.32964
5.14961
5.54182
1403.71
-346.925
-40.385
3.09372
1.99782
1.13122
1.28141
1.54513
1.77531
1.98474
2.18602
2.38309
2.57675
2.76701
2.95368
3.13655
3.31537
3.48993
3.66005
3.82555
3.98629
4.14215
4.29302
4.43881
4.57946
4.71488
4.84503
4.96985
5.08931
5.20338
5.31205
5.41529
5.51312
5.60555
5.69259
5.77428
5.85066
5.92179
5.98774
6.04857
6.10438
6.15526
6.20131
6.24265
6.27939
6.31167
6.33961
6.36336
6.38306
6.39886
6.41092
6.4194
6.42446
6.42626
6.42496
6.42074
6.41377
6.40421
6.39222
6.37799
6.36168
6.34345
6.32347
6.30189
6.2789
6.25463
6.22924
6.20289
6.17573
6.14789
6.11952
6.09075
6.06173
6.03256
6.00339
5.97432
5.94548
5.91696
5.88888
5.86133
5.83441
5.80821
5.78281
5.7583
5.73474
5.71222
5.69078
5.67051
5.65144
5.63364
5.61715
5.60201
5.58826
5.57591
5.56506
5.55646
5.5526
5.54042
5.37056
5.75128
1403.71
-346.912
-40.3637
3.12339
2.03593
1.17772
1.33623
1.60818
1.84652
2.06399
2.27321
2.47809
2.67944
2.87724
3.07131
3.26142
3.44731
3.62877
3.80559
3.97762
4.14469
4.30668
4.46347
4.61498
4.76113
4.90183
5.03704
5.1667
5.29078
5.40923
5.52206
5.62923
5.73076
5.82666
5.91695
6.00166
6.08085
6.15456
6.22287
6.28586
6.34361
6.39623
6.44381
6.48649
6.52439
6.55763
6.58636
6.61073
6.63088
6.64698
6.65918
6.66765
6.67257
6.67409
6.67239
6.66766
6.66006
6.64976
6.63696
6.62181
6.6045
6.58521
6.56409
6.54133
6.51709
6.49153
6.46481
6.4371
6.40854
6.3793
6.3495
6.31931
6.28885
6.25825
6.22766
6.19718
6.16694
6.13705
6.10763
6.07877
6.05057
6.02314
5.99655
5.97089
5.94623
5.92266
5.90024
5.87903
5.8591
5.84049
5.82325
5.80744
5.79308
5.78019
5.76887
5.7598
5.7552
5.74264
5.58375
5.95133
1403.72
-346.9
-40.3431
3.15218
2.07291
1.22285
1.38943
1.66939
1.91564
2.14093
2.35786
2.57033
2.77913
2.98426
3.18551
3.38263
3.57538
3.76353
3.94687
4.12522
4.29842
4.46635
4.62889
4.78593
4.9374
5.08322
5.22332
5.35765
5.48618
5.60887
5.7257
5.83667
5.94176
6.041
6.13441
6.22202
6.30389
6.38007
6.45063
6.51567
6.57526
6.62952
6.67855
6.72249
6.76145
6.79559
6.82503
6.84995
6.87049
6.88682
6.89911
6.90752
6.91224
6.91344
6.9113
6.90601
6.89775
6.88669
6.87303
6.85695
6.83863
6.81824
6.79597
6.772
6.7465
6.71964
6.69158
6.6625
6.63255
6.60189
6.57067
6.53904
6.50714
6.47511
6.44309
6.41121
6.37958
6.34833
6.31757
6.2874
6.25793
6.22927
6.20149
6.17469
6.14894
6.12434
6.10093
6.0788
6.058
6.03859
6.02062
6.00414
5.98918
5.97576
5.96398
5.95445
5.94911
5.93615
5.78859
6.14201
1403.72
-346.888
-40.3232
3.18007
2.10875
1.26659
1.44101
1.72873
1.98264
2.21551
2.43991
2.65974
2.87577
3.088
3.2962
3.50013
3.69952
3.89414
4.08379
4.26826
4.4474
4.62108
4.78917
4.95156
5.10817
5.25892
5.40374
5.54259
5.67541
5.80218
5.92286
6.03747
6.14598
6.24842
6.34482
6.4352
6.51963
6.59816
6.67087
6.73784
6.79918
6.85498
6.90537
6.95047
6.99043
7.02537
7.05546
7.08086
7.10172
7.11822
7.13053
7.13883
7.14331
7.14415
7.14152
7.13564
7.12667
7.11483
7.10028
7.08323
7.06387
7.04237
7.01894
6.99374
6.96696
6.93878
6.90938
6.87891
6.84756
6.81548
6.78283
6.74976
6.71643
6.68297
6.64953
6.61624
6.58323
6.55061
6.51852
6.48705
6.45632
6.42643
6.39747
6.36954
6.34271
6.31707
6.29269
6.26965
6.24799
6.22779
6.20909
6.19194
6.17639
6.16245
6.15021
6.14023
6.13416
6.12079
5.98457
6.32334
1403.72
-346.876
-40.3039
3.20707
2.14345
1.30893
1.49094
1.78617
2.04751
2.28772
2.51934
2.74629
2.96932
3.18842
3.40334
3.61385
3.81967
4.02055
4.21629
4.40668
4.59156
4.77078
4.94422
5.11177
5.27334
5.42885
5.57822
5.7214
5.85835
5.98903
6.11342
6.23151
6.34331
6.44881
6.54806
6.64109
6.72795
6.80872
6.88345
6.95226
7.01523
7.07248
7.12413
7.17031
7.21117
7.24684
7.2775
7.3033
7.32442
7.34103
7.35331
7.36145
7.36563
7.36605
7.3629
7.35638
7.34668
7.33401
7.31855
7.30051
7.28008
7.25745
7.23282
7.20638
7.17832
7.14881
7.11804
7.08619
7.05343
7.01993
6.98584
6.95134
6.91657
6.88168
6.84682
6.81213
6.77773
6.74376
6.71033
6.67757
6.64559
6.61448
6.58434
6.55528
6.52738
6.50072
6.47538
6.45142
6.42892
6.40793
6.38851
6.37071
6.35457
6.34012
6.32743
6.31701
6.31024
6.29646
6.17129
6.49534
1403.73
-346.865
-40.2852
3.23317
2.17698
1.34986
1.5392
1.84169
2.11021
2.35751
2.59613
2.82995
3.05974
3.28547
3.50689
3.72375
3.93577
4.1427
4.34431
4.54041
4.73081
4.91538
5.09398
5.2665
5.43284
5.59291
5.74666
5.89401
6.03492
6.16935
6.29729
6.41871
6.53363
6.64206
6.74403
6.83957
6.92874
7.01162
7.08827
7.15879
7.2233
7.28189
7.33471
7.38188
7.42355
7.45988
7.49103
7.51717
7.53847
7.55513
7.56731
7.57523
7.57907
7.57903
7.57531
7.56811
7.55764
7.54411
7.52771
7.50864
7.48712
7.46335
7.43751
7.40981
7.38044
7.3496
7.31746
7.28421
7.25003
7.2151
7.17958
7.14363
7.10743
7.07111
7.03483
6.99874
6.96296
6.92764
6.89289
6.85884
6.8256
6.79328
6.76199
6.73181
6.70284
6.67516
6.64886
6.624
6.60066
6.57889
6.55876
6.54031
6.52359
6.50863
6.49551
6.48466
6.47721
6.46305
6.34842
6.65801
1403.73
-346.855
-40.2672
3.25836
2.20936
1.38937
1.58578
1.89528
2.17073
2.42487
2.67023
2.91069
3.147
3.37912
3.60681
3.82979
4.04779
4.26053
4.4678
4.66939
4.86512
5.05483
5.23838
5.41567
5.58659
5.75105
5.90898
6.06032
6.20502
6.34305
6.47437
6.59898
6.71688
6.82808
6.93263
7.03055
7.1219
7.20677
7.28522
7.35735
7.42328
7.48312
7.537
7.58507
7.62747
7.66437
7.69594
7.72234
7.74376
7.7604
7.77244
7.78008
7.78352
7.78297
7.77864
7.77073
7.75945
7.74502
7.72764
7.70753
7.6849
7.65995
7.63288
7.60391
7.57322
7.54103
7.50751
7.47286
7.43726
7.40089
7.36393
7.32654
7.2889
7.25116
7.21346
7.17597
7.13882
7.10215
7.06609
7.03075
6.99627
6.96275
6.93029
6.899
6.86897
6.84029
6.81304
6.78729
6.76312
6.74058
6.71975
6.70066
6.68337
6.66791
6.65435
6.64308
6.635
6.62047
6.51573
6.81134
1403.73
-346.844
-40.2499
3.28264
2.24056
1.42745
1.63068
1.94692
2.22905
2.48977
2.74163
2.98848
3.23107
3.46934
3.70306
3.93193
4.15567
4.37402
4.58672
4.79359
4.99442
5.18906
5.37737
5.55924
5.73454
5.9032
6.06514
6.22029
6.36861
6.51005
6.6446
6.77223
6.89296
7.0068
7.11378
7.21395
7.30736
7.39409
7.47422
7.54785
7.61509
7.67607
7.73093
7.7798
7.82285
7.86024
7.89214
7.91873
7.94021
7.95676
7.96859
7.9759
7.97889
7.97779
7.9728
7.96413
7.95201
7.93665
7.91827
7.89709
7.87332
7.84717
7.81886
7.78859
7.75658
7.72302
7.68811
7.65205
7.61502
7.57722
7.53881
7.49999
7.46091
7.42173
7.38263
7.34375
7.30523
7.26721
7.22984
7.19323
7.15751
7.12279
7.08919
7.0568
7.02571
6.99603
6.96784
6.94121
6.91621
6.89292
6.87138
6.85167
6.83381
6.81786
6.80387
6.7922
6.78352
6.76866
6.67306
6.95534
1403.74
-346.834
-40.2332
3.30601
2.27058
1.46409
1.67387
1.99661
2.28516
2.55222
2.81031
3.0633
3.31192
3.55611
3.79562
4.03014
4.2594
4.48311
4.70104
4.91295
5.11868
5.31805
5.51091
5.69714
5.87664
6.04931
6.21507
6.37386
6.52562
6.67031
6.80792
6.93842
7.06183
7.17816
7.28744
7.38971
7.48505
7.57351
7.6552
7.73022
7.79867
7.86069
7.91642
7.96601
8.00961
8.0474
8.07956
8.10628
8.12774
8.14414
8.1557
8.16262
8.16512
8.16341
8.15772
8.14826
8.13526
8.11894
8.09953
8.07724
8.05231
8.02494
7.99537
7.9638
7.93044
7.8955
7.85919
7.82171
7.78326
7.74401
7.70416
7.6639
7.62338
7.58278
7.54227
7.502
7.46211
7.42276
7.38409
7.34621
7.30926
7.27335
7.23861
7.20512
7.173
7.14233
7.1132
7.0857
7.05989
7.03584
7.01362
6.99328
6.97487
6.95843
6.94403
6.93197
6.92272
6.90757
6.82031
7.09001
1403.74
-346.825
-40.2171
3.32846
2.29943
1.49928
1.71536
2.04433
2.33904
2.61218
2.87626
3.13514
3.38955
3.63941
3.88446
4.1244
4.35894
4.58779
4.81071
5.02747
5.23787
5.44175
5.63895
5.82936
6.01286
6.18934
6.35874
6.52098
6.67601
6.82378
6.96429
7.0975
7.22344
7.3421
7.45354
7.55779
7.65492
7.745
7.82813
7.90441
7.97397
8.03693
8.09343
8.14364
8.18771
8.22583
8.25817
8.28492
8.3063
8.3225
8.33372
8.3402
8.34215
8.33979
8.33335
8.32306
8.30914
8.29183
8.27135
8.24794
8.22182
8.19322
8.16237
8.12947
8.09476
8.05844
8.02072
7.98181
7.94192
7.90123
7.85994
7.81823
7.77628
7.73426
7.69234
7.65069
7.60944
7.56876
7.52879
7.48965
7.45148
7.4144
7.37852
7.34395
7.31079
7.27914
7.24909
7.22072
7.19411
7.16932
7.14642
7.12546
7.1065
7.08959
7.07478
7.06233
7.05256
7.03716
6.95744
7.21533
1403.74
-346.815
-40.2017
3.35
2.32709
1.53303
1.75514
2.09008
2.39069
2.66965
2.93947
3.20399
3.46393
3.71921
3.96957
4.2147
4.45428
4.68804
4.91573
5.1371
5.35196
5.56014
5.76149
5.95586
6.14316
6.32327
6.49611
6.66163
6.81975
6.97044
7.11368
7.24945
7.37775
7.49861
7.61206
7.71815
7.81694
7.90851
7.99296
8.0704
8.14095
8.20474
8.26192
8.31266
8.35711
8.39547
8.42791
8.45464
8.47586
8.49179
8.50263
8.50861
8.50996
8.5069
8.49967
8.4885
8.47364
8.4553
8.43373
8.40917
8.38184
8.35198
8.31982
8.28559
8.24951
8.21179
8.17266
8.13233
8.09099
8.04886
8.00612
7.96297
7.91958
7.87615
7.83283
7.78979
7.7472
7.70519
7.66393
7.62354
7.58415
7.5459
7.5089
7.47325
7.43907
7.40645
7.37549
7.34626
7.31885
7.29333
7.26976
7.2482
7.2287
7.21132
7.1961
7.18329
7.17304
7.15742
7.08447
7.33132
1403.75
-346.807
-40.187
3.37061
2.35356
1.56532
1.7932
2.13385
2.4401
2.72462
2.99992
3.26983
3.53506
3.79552
4.05094
4.30101
4.54541
4.78385
5.01607
5.24184
5.46095
5.67322
5.87849
6.07663
6.26753
6.45108
6.62719
6.79579
6.95683
7.11026
7.25607
7.39423
7.52475
7.64766
7.76298
7.87077
7.97109
8.06403
8.14968
8.22816
8.2996
8.36412
8.42188
8.47305
8.5178
8.55631
8.58878
8.61542
8.63642
8.652
8.6624
8.66783
8.66852
8.66472
8.65666
8.64459
8.62873
8.60934
8.58665
8.5609
8.53235
8.50121
8.46774
8.43216
8.39469
8.35557
8.31502
8.27325
8.23047
8.18688
8.1427
8.0981
8.05329
8.00844
7.96373
7.91932
7.87537
7.83206
7.78951
7.74787
7.70728
7.66787
7.62975
7.59304
7.55785
7.52427
7.49241
7.46233
7.43414
7.40789
7.38366
7.3615
7.34148
7.32363
7.30802
7.29485
7.28415
7.26836
7.20143
7.438
1403.75
-346.798
-40.1729
3.39029
2.37884
1.59615
1.82954
2.17564
2.48727
2.7771
3.05762
3.33267
3.60294
3.86833
4.12857
4.38335
4.63233
4.87522
5.11175
5.34169
5.56482
5.78097
5.98996
6.19167
6.38597
6.57276
6.75195
6.92346
7.08724
7.24325
7.39146
7.53185
7.66444
7.78924
7.9063
8.01565
8.11738
8.21156
8.2983
8.37771
8.44991
8.51506
8.57331
8.62483
8.66978
8.70837
8.74079
8.76725
8.78796
8.80315
8.81304
8.81786
8.81786
8.81327
8.80434
8.79131
8.77443
8.75395
8.73011
8.70317
8.67336
8.64093
8.60613
8.56918
8.53032
8.48979
8.4478
8.40459
8.36036
8.31533
8.2697
8.22367
8.17743
8.13116
8.08506
8.03928
7.994
7.94937
7.90555
7.86268
7.8209
7.78033
7.74111
7.70335
7.66715
7.63262
7.59986
7.56895
7.53998
7.51302
7.48814
7.4654
7.44485
7.42654
7.41055
7.39704
7.38592
7.36999
7.3084
7.53541
1403.75
-346.79
-40.1595
3.40906
2.40293
1.62553
1.86416
2.21544
2.5322
2.82708
3.11258
3.3925
3.66756
3.93764
4.20247
4.4617
4.71503
4.96214
5.20276
5.43664
5.66359
5.8834
6.09591
6.30098
6.49849
6.68833
6.87041
7.04465
7.211
7.36941
7.51986
7.66233
7.79683
7.92339
8.04203
8.15281
8.25581
8.35111
8.43882
8.51904
8.59192
8.6576
8.71623
8.768
8.81308
8.85166
8.88396
8.91017
8.93053
8.94525
8.95458
8.95875
8.958
8.95257
8.94273
8.92871
8.91078
8.88918
8.86417
8.836
8.80492
8.77118
8.73502
8.69669
8.65644
8.61448
8.57106
8.5264
8.48072
8.43424
8.38716
8.33969
8.29203
8.24436
8.19687
8.14973
8.10312
8.05719
8.01211
7.96801
7.92504
7.88333
7.84302
7.80421
7.76702
7.73155
7.69791
7.66618
7.63644
7.60877
7.58325
7.55993
7.53887
7.52012
7.50375
7.4899
7.47841
7.46236
7.4055
7.62359
1403.75
-346.783
-40.1467
3.4269
2.42583
1.65346
1.89707
2.25328
2.57489
2.87457
3.16478
3.44935
3.72894
4.00347
4.27263
4.5361
4.79353
5.04463
5.28911
5.52673
5.75726
5.98053
6.19635
6.40458
6.6051
6.7978
6.98258
7.15938
7.32812
7.48877
7.64129
7.78569
7.92195
8.05011
8.1702
8.28228
8.38643
8.48272
8.57128
8.65221
8.72565
8.79175
8.85068
8.90261
8.94772
8.98622
9.01832
9.04422
9.06416
9.07836
9.08707
9.09053
9.08898
9.08268
9.07188
9.05684
9.03782
9.01507
8.98886
8.95944
8.92707
8.892
8.85448
8.81476
8.77309
8.72971
8.68485
8.63874
8.59161
8.54367
8.49515
8.44625
8.39717
8.34809
8.29922
8.25073
8.2028
8.15558
8.10924
8.06392
8.01978
7.97694
7.93554
7.8957
7.85753
7.82113
7.78662
7.75407
7.72357
7.69521
7.66906
7.64517
7.62361
7.60442
7.58768
7.5735
7.56166
7.54555
7.49286
7.70262
1403.76
-346.775
-40.1346
3.44382
2.44755
1.67994
1.92827
2.28915
2.61537
2.91958
3.21426
3.50321
3.7871
4.06582
4.33908
4.60654
4.86785
5.12271
5.37083
5.61196
5.84588
6.07238
6.29131
6.50251
6.70584
6.90121
7.08852
7.26768
7.43865
7.60136
7.7558
7.90196
8.03984
8.16946
8.29086
8.40411
8.50927
8.60644
8.69573
8.77725
8.85115
8.91758
8.97671
9.02871
9.07378
9.11212
9.14394
9.16946
9.18892
9.20254
9.21057
9.21327
9.21088
9.20366
9.19187
9.17577
9.15563
9.1317
9.10427
9.07357
9.03989
9.00347
8.96458
8.92346
8.88037
8.83555
8.78924
8.74168
8.6931
8.64371
8.59375
8.54342
8.49292
8.44245
8.39221
8.34237
8.29312
8.24462
8.19703
8.15051
8.1052
8.06124
8.01877
7.9779
7.93876
7.90145
7.86607
7.83272
7.80148
7.77244
7.74566
7.72121
7.69916
7.67954
7.66243
7.64795
7.63579
7.61962
7.57062
7.77257
1403.76
-346.768
-40.1232
3.45983
2.4681
1.70499
1.95778
2.32306
2.65363
2.96213
3.26103
3.55411
3.84205
4.12473
4.40185
4.67307
4.93803
5.19642
5.44796
5.69238
5.92946
6.159
6.38083
6.59479
6.80076
6.99861
7.18825
7.36961
7.54262
7.70724
7.86344
8.01121
8.15055
8.28149
8.40407
8.51835
8.62441
8.72233
8.81224
8.89425
8.9685
9.03516
9.0944
9.14638
9.19133
9.22942
9.2609
9.28597
9.30488
9.31786
9.32517
9.32705
9.32377
9.31559
9.30277
9.28558
9.26429
9.23916
9.21048
9.17849
9.14348
9.1057
9.06541
9.02288
8.97836
8.9321
8.88435
8.83533
8.78529
8.73446
8.68306
8.6313
8.57939
8.52753
8.47593