/*--------------------------------*- C++ -*----------------------------------*\
  =========                 |
  \\      /  F ield         | OpenFOAM: The Open Source CFD Toolbox
   \\    /   O peration     | Website:  https://openfoam.org
    \\  /    A nd           | Version:  10
     \\/     M anipulation  |
\*---------------------------------------------------------------------------*/
FoamFile
{
    format      ascii;
    class       volScalarField;
    location    "13.5";
    object      T;
}
// * * * * * * * * * * * * * * * * * * * * * * * * * * * * * * * * * * * * * //

dimensions      [0 0 0 1 0 0 0];

internalField   nonuniform List<scalar> 
10000
(
374.968
361.227
356.503
354.409
353.253
352.508
351.976
351.569
351.241
350.968
350.734
350.528
350.344
350.178
350.025
349.883
349.751
349.627
349.509
349.397
349.291
349.189
349.091
348.997
348.907
348.819
348.735
348.653
348.575
348.498
348.424
348.352
348.282
348.215
348.149
348.086
348.024
347.964
347.906
347.85
347.795
347.742
347.691
347.641
347.593
347.546
347.501
347.458
347.416
347.375
347.336
347.298
347.261
347.226
347.192
347.16
347.128
347.098
347.069
347.041
347.014
346.988
346.964
346.94
346.917
346.896
346.875
346.855
346.837
346.819
346.802
346.785
346.77
346.755
346.741
346.728
346.716
346.704
346.693
346.683
346.673
346.664
346.656
346.648
346.641
346.634
346.628
346.622
346.617
346.613
346.609
346.605
346.602
346.6
346.597
346.596
346.595
346.594
346.594
346.594
388.552
374.657
366.871
362.278
359.338
357.301
355.793
354.617
353.661
352.857
352.164
351.554
351.007
350.511
350.055
349.632
349.237
348.865
348.513
348.179
347.86
347.555
347.262
346.981
346.709
346.448
346.195
345.95
345.714
345.484
345.262
345.047
344.838
344.635
344.438
344.248
344.063
343.883
343.709
343.54
343.376
343.218
343.064
342.915
342.771
342.631
342.496
342.366
342.239
342.118
342
341.886
341.777
341.671
341.569
341.471
341.377
341.286
341.199
341.115
341.034
340.957
340.883
340.812
340.744
340.68
340.618
340.558
340.502
340.448
340.397
340.348
340.302
340.258
340.217
340.178
340.14
340.105
340.072
340.041
340.012
339.985
339.96
339.937
339.915
339.895
339.876
339.86
339.844
339.831
339.819
339.808
339.799
339.791
339.785
339.78
339.777
339.774
339.774
339.774
393.124
381.988
374.051
368.498
364.524
361.57
359.285
357.452
355.934
354.642
353.518
352.523
351.627
350.811
350.06
349.361
348.707
348.092
347.508
346.954
346.425
345.918
345.432
344.964
344.513
344.078
343.657
343.25
342.856
342.475
342.105
341.746
341.399
341.061
340.734
340.416
340.108
339.809
339.519
339.238
338.965
338.701
338.445
338.197
337.957
337.724
337.499
337.282
337.072
336.869
336.672
336.483
336.301
336.125
335.955
335.792
335.634
335.483
335.338
335.198
335.064
334.936
334.812
334.694
334.581
334.473
334.37
334.272
334.178
334.088
334.003
333.922
333.845
333.772
333.702
333.637
333.575
333.517
333.462
333.41
333.362
333.317
333.275
333.236
333.199
333.166
333.135
333.107
333.082
333.059
333.039
333.021
333.006
332.993
332.983
332.975
332.969
332.965
332.964
332.965
395.067
386.127
378.846
373.142
368.693
365.173
362.329
359.975
357.984
356.263
354.75
353.398
352.174
351.053
350.018
349.053
348.148
347.293
346.484
345.713
344.976
344.27
343.592
342.94
342.311
341.704
341.116
340.548
339.998
339.465
338.949
338.448
337.961
337.49
337.032
336.588
336.157
335.739
335.334
334.941
334.559
334.19
333.832
333.485
333.149
332.824
332.51
332.205
331.911
331.627
331.353
331.088
330.833
330.587
330.349
330.121
329.901
329.689
329.486
329.291
329.103
328.923
328.751
328.586
328.428
328.277
328.132
327.994
327.863
327.738
327.618
327.505
327.397
327.295
327.198
327.107
327.02
326.938
326.862
326.79
326.722
326.659
326.6
326.545
326.494
326.448
326.405
326.366
326.33
326.299
326.27
326.246
326.224
326.206
326.191
326.18
326.172
326.167
326.165
326.167
396.071
388.614
382.064
376.535
371.935
368.105
364.886
362.142
359.768
357.683
355.826
354.152
352.625
351.219
349.915
348.695
347.547
346.462
345.431
344.449
343.509
342.608
341.741
340.907
340.102
339.324
338.572
337.844
337.139
336.456
335.794
335.151
334.527
333.922
333.335
332.765
332.212
331.676
331.156
330.651
330.162
329.687
329.227
328.782
328.351
327.933
327.53
327.139
326.761
326.397
326.044
325.704
325.376
325.06
324.755
324.462
324.18
323.908
323.647
323.396
323.155
322.924
322.703
322.491
322.288
322.094
321.908
321.731
321.562
321.401
321.248
321.102
320.964
320.832
320.708
320.59
320.479
320.375
320.276
320.183
320.096
320.015
319.939
319.869
319.804
319.744
319.689
319.639
319.593
319.552
319.516
319.484
319.457
319.434
319.415
319.4
319.39
319.383
319.381
319.383
396.666
390.198
384.265
379
374.41
370.431
366.972
363.945
361.271
358.883
356.729
354.768
352.965
351.296
349.739
348.277
346.898
345.59
344.346
343.158
342.02
340.927
339.875
338.862
337.884
336.938
336.024
335.138
334.279
333.447
332.64
331.857
331.097
330.36
329.644
328.949
328.275
327.621
326.986
326.371
325.774
325.195
324.634
324.091
323.565
323.055
322.562
322.086
321.625
321.18
320.75
320.335
319.935
319.549
319.177
318.819
318.474
318.142
317.824
317.518
317.224
316.942
316.671
316.412
316.165
315.928
315.701
315.485
315.279
315.082
314.895
314.717
314.549
314.388
314.236
314.093
313.957
313.829
313.709
313.596
313.49
313.39
313.298
313.212
313.133
313.059
312.992
312.931
312.875
312.825
312.781
312.742
312.709
312.681
312.658
312.64
312.627
312.619
312.616
312.618
397.047
391.255
385.799
380.794
376.28
372.241
368.634
365.404
362.495
359.859
357.451
355.237
353.186
351.274
349.482
347.792
346.193
344.673
343.223
341.835
340.505
339.225
337.993
336.804
335.656
334.545
333.47
332.428
331.419
330.44
329.489
328.567
327.672
326.804
325.96
325.142
324.347
323.576
322.828
322.102
321.398
320.716
320.054
319.414
318.793
318.192
317.611
317.049
316.505
315.98
315.473
314.984
314.511
314.056
313.617
313.194
312.788
312.396
312.02
311.659
311.312
310.98
310.661
310.355
310.063
309.783
309.516
309.261
309.017
308.786
308.565
308.355
308.156
307.966
307.787
307.618
307.458
307.307
307.164
307.031
306.906
306.789
306.68
306.578
306.484
306.398
306.319
306.246
306.181
306.122
306.07
306.024
305.984
305.951
305.924
305.902
305.887
305.878
305.875
305.877
397.305
391.982
386.884
382.101
377.679
373.627
369.928
366.55
363.459
360.617
357.993
355.556
353.282
351.149
349.139
347.236
345.429
343.706
342.058
340.479
338.962
337.501
336.093
334.732
333.417
332.144
330.912
329.717
328.558
327.433
326.342
325.283
324.254
323.255
322.286
321.344
320.43
319.543
318.682
317.847
317.037
316.252
315.491
314.753
314.039
313.347
312.678
312.031
311.405
310.801
310.217
309.653
309.109
308.585
308.079
307.593
307.124
306.674
306.24
305.824
305.425
305.042
304.674
304.322
303.986
303.664
303.356
303.062
302.782
302.514
302.26
302.018
301.789
301.571
301.364
301.169
300.985
300.811
300.647
300.493
300.349
300.214
300.088
299.972
299.864
299.764
299.672
299.589
299.514
299.446
299.385
299.333
299.287
299.249
299.217
299.193
299.175
299.165
299.161
299.164
397.483
392.492
387.658
383.052
378.716
374.669
370.909
367.421
364.183
361.172
358.361
355.729
353.255
350.92
348.708
346.606
344.602
342.687
340.85
339.087
337.389
335.753
334.173
332.645
331.167
329.736
328.348
327.002
325.696
324.429
323.198
322.004
320.843
319.716
318.621
317.558
316.526
315.524
314.552
313.609
312.693
311.806
310.946
310.112
309.305
308.523
307.767
307.035
306.327
305.644
304.983
304.346
303.731
303.138
302.567
302.016
301.487
300.977
300.487
300.017
299.565
299.131
298.716
298.318
297.937
297.573
297.224
296.892
296.575
296.273
295.985
295.712
295.452
295.205
294.972
294.751
294.542
294.345
294.16
293.986
293.823
293.67
293.528
293.396
293.274
293.161
293.058
292.963
292.878
292.801
292.733
292.673
292.622
292.578
292.543
292.515
292.495
292.483
292.479
292.482
397.608
392.851
388.21
383.737
379.47
375.432
371.628
368.054
364.696
361.54
358.568
355.763
353.108
350.588
348.19
345.902
343.713
341.614
339.598
337.657
335.786
333.979
332.233
330.543
328.906
327.319
325.78
324.286
322.836
321.428
320.06
318.732
317.441
316.187
314.969
313.786
312.637
311.522
310.439
309.388
308.369
307.38
306.422
305.493
304.593
303.722
302.879
302.064
301.275
300.513
299.777
299.066
298.381
297.72
297.083
296.469
295.879
295.31
294.764
294.239
293.736
293.252
292.789
292.345
291.92
291.514
291.126
290.755
290.402
290.065
289.744
289.439
289.149
288.874
288.614
288.367
288.134
287.915
287.708
287.514
287.332
287.162
287.003
286.856
286.72
286.594
286.478
286.373
286.278
286.192
286.116
286.049
285.992
285.943
285.904
285.873
285.851
285.837
285.832
285.836
397.695
393.103
388.598
384.221
380.005
375.971
372.13
368.482
365.022
361.741
358.626
355.666
352.847
350.158
347.587
345.125
342.762
340.49
338.301
336.191
334.152
332.181
330.273
328.425
326.633
324.894
323.207
321.568
319.977
318.43
316.928
315.468
314.049
312.67
311.33
310.029
308.764
307.537
306.345
305.188
304.065
302.976
301.921
300.898
299.907
298.947
298.018
297.12
296.251
295.411
294.6
293.817
293.061
292.333
291.631
290.954
290.303
289.677
289.075
288.496
287.941
287.408
286.897
286.408
285.94
285.492
285.063
284.655
284.265
283.893
283.54
283.203
282.884
282.58
282.293
282.021
281.765
281.523
281.295
281.081
280.88
280.692
280.518
280.355
280.205
280.066
279.938
279.822
279.717
279.623
279.539
279.465
279.402
279.348
279.304
279.27
279.246
279.231
279.226
279.229
397.755
393.274
388.862
384.55
380.366
376.329
372.452
368.738
365.187
361.794
358.551
355.45
352.481
349.635
346.904
344.278
341.75
339.313
336.961
334.688
332.488
330.359
328.294
326.292
324.35
322.463
320.631
318.85
317.12
315.438
313.803
312.214
310.668
309.167
307.707
306.288
304.91
303.571
302.272
301.01
299.785
298.598
297.446
296.33
295.248
294.201
293.187
292.206
291.258
290.341
289.456
288.601
287.776
286.98
286.213
285.475
284.764
284.08
283.422
282.79
282.184
281.602
281.044
280.51
279.998
279.509
279.041
278.594
278.169
277.763
277.376
277.009
276.66
276.328
276.015
275.718
275.437
275.173
274.924
274.69
274.471
274.266
274.075
273.897
273.733
273.581
273.442
273.315
273.2
273.097
273.005
272.925
272.855
272.796
272.749
272.711
272.685
272.668
272.662
272.667
397.793
393.385
389.032
384.759
380.589
376.54
372.624
368.847
365.212
361.716
358.356
355.125
352.018
349.027
346.145
343.365
340.682
338.088
335.579
333.15
330.796
328.513
326.297
324.146
322.057
320.026
318.052
316.133
314.267
312.452
310.687
308.971
307.301
305.678
304.1
302.567
301.076
299.628
298.222
296.857
295.532
294.246
292.999
291.791
290.62
289.486
288.388
287.326
286.299
285.306
284.346
283.42
282.527
281.665
280.834
280.034
279.263
278.522
277.81
277.125
276.468
275.837
275.233
274.653
274.099
273.569
273.062
272.578
272.116
271.676
271.257
270.859
270.481
270.122
269.782
269.46
269.156
268.869
268.599
268.345
268.108
267.886
267.678
267.486
267.307
267.143
266.992
266.855
266.73
266.618
266.519
266.431
266.356
266.292
266.24
266.2
266.171
266.153
266.147
266.151
397.816
393.45
389.129
384.872
380.701
376.63
372.672
368.833
365.117
361.525
358.055
354.704
351.467
348.34
345.316
342.391
339.56
336.817
334.158
331.579
329.076
326.645
324.283
321.987
319.755
317.584
315.473
313.418
311.419
309.474
307.581
305.74
303.949
302.207
300.513
298.866
297.265
295.709
294.198
292.73
291.306
289.924
288.583
287.284
286.025
284.805
283.624
282.481
281.376
280.308
279.276
278.279
277.317
276.39
275.496
274.634
273.805
273.008
272.241
271.504
270.796
270.117
269.466
268.843
268.246
267.675
267.129
266.608
266.111
265.638
265.187
264.758
264.35
263.964
263.597
263.251
262.923
262.615
262.324
262.051
261.795
261.556
261.332
261.125
260.933
260.756
260.593
260.445
260.311
260.19
260.083
259.989
259.908
259.839
259.783
259.74
259.708
259.689
259.682
259.687
397.826
393.477
389.167
384.91
380.723
376.621
372.616
368.714
364.92
361.236
357.662
354.197
350.838
347.581
344.423
341.36
338.388
335.503
332.7
329.977
327.331
324.757
322.253
319.817
317.447
315.139
312.893
310.706
308.577
306.505
304.488
302.524
300.613
298.754
296.946
295.187
293.477
291.816
290.201
288.633
287.111
285.633
284.2
282.811
281.464
280.16
278.897
277.675
276.493
275.35
274.246
273.18
272.151
271.158
270.201
269.28
268.392
267.539
266.718
265.929
265.172
264.445
263.749
263.081
262.442
261.831
261.247
260.689
260.157
259.65
259.167
258.708
258.272
257.858
257.466
257.095
256.744
256.414
256.102
255.81
255.536
255.279
255.04
254.818
254.613
254.423
254.249
254.09
253.946
253.817
253.702
253.602
253.514
253.441
253.381
253.334
253.301
253.28
253.272
253.277
397.826
393.476
389.158
384.885
380.672
376.532
372.474
368.507
364.635
360.861
357.188
353.614
350.138
346.759
343.473
340.279
337.172
334.15
331.21
328.348
325.563
322.851
320.21
317.638
315.133
312.693
310.315
308
305.744
303.547
301.407
299.324
297.296
295.322
293.401
291.533
289.716
287.95
286.234
284.567
282.948
281.377
279.853
278.375
276.942
275.554
274.21
272.909
271.651
270.435
269.26
268.125
267.029
265.973
264.954
263.973
263.028
262.119
261.245
260.405
259.598
258.825
258.083
257.372
256.691
256.04
255.418
254.824
254.257
253.717
253.203
252.713
252.249
251.808
251.39
250.995
250.621
250.269
249.937
249.626
249.334
249.061
248.806
248.569
248.35
248.148
247.962
247.793
247.64
247.502
247.38
247.272
247.179
247.101
247.037
246.987
246.951
246.929
246.921
246.926
397.818
393.451
389.112
384.811
380.562
376.375
372.26
368.225
364.275
360.414
356.643
352.964
349.377
345.88
342.472
339.151
335.915
332.762
329.689
326.694
323.775
320.93
318.156
315.452
312.816
310.246
307.741
305.3
302.92
300.601
298.342
296.142
293.998
291.912
289.881
287.905
285.983
284.115
282.299
280.534
278.82
277.157
275.543
273.977
272.46
270.989
269.566
268.188
266.854
265.565
264.32
263.117
261.956
260.836
259.756
258.716
257.714
256.751
255.824
254.934
254.078
253.258
252.471
251.717
250.996
250.305
249.646
249.016
248.414
247.841
247.296
246.777
246.284
245.817
245.373
244.954
244.558
244.184
243.832
243.502
243.192
242.902
242.632
242.381
242.148
241.934
241.737
241.558
241.395
241.249
241.119
241.005
240.906
240.823
240.755
240.702
240.664
240.64
240.632
240.637
397.804
393.407
389.035
384.696
380.402
376.162
371.986
367.881
363.852
359.904
356.038
352.257
348.562
344.951
341.425
337.983
334.623
331.343
328.143
325.019
321.971
318.996
316.093
313.261
310.498
307.803
305.173
302.609
300.108
297.67
295.294
292.979
290.723
288.526
286.387
284.306
282.281
280.311
278.397
276.536
274.729
272.975
271.272
269.621
268.02
266.469
264.966
263.512
262.105
260.744
259.429
258.159
256.934
255.751
254.611
253.513
252.455
251.437
250.459
249.518
248.615
247.748
246.917
246.121
245.359
244.63
243.933
243.267
242.632
242.027
241.45
240.902
240.382
239.887
239.419
238.976
238.558
238.163
237.791
237.442
237.114
236.808
236.522
236.257
236.011
235.785
235.577
235.387
235.215
235.06
234.923
234.802
234.698
234.61
234.538
234.482
234.442
234.417
234.407
234.413
397.784
393.348
388.933
384.548
380.202
375.904
371.662
367.485
363.376
359.34
355.381
351.5
347.7
343.979
340.34
336.78
333.3
329.898
326.574
323.325
320.152
317.052
314.024
311.068
308.181
305.363
302.612
299.928
297.31
294.756
292.265
289.837
287.471
285.167
282.922
280.737
278.61
276.542
274.531
272.576
270.677
268.834
267.044
265.308
263.625
261.994
260.414
258.884
257.404
255.973
254.59
253.254
251.964
250.72
249.521
248.365
247.252
246.181
245.151
244.161
243.211
242.299
241.424
240.586
239.784
239.016
238.282
237.582
236.913
236.276
235.669
235.092
234.544
234.023
233.53
233.064
232.623
232.207
231.816
231.448
231.103
230.781
230.48
230.201
229.942
229.703
229.484
229.284
229.103
228.94
228.795
228.668
228.558
228.465
228.389
228.33
228.288
228.261
228.251
228.257
397.761
393.276
388.811
384.372
379.968
375.607
371.296
367.044
362.854
358.732
354.68
350.701
346.798
342.97
339.22
335.547
331.95
328.43
324.986
321.617
318.322
315.101
311.952
308.874
305.867
302.93
300.061
297.261
294.527
291.859
289.257
286.719
284.246
281.835
279.486
277.2
274.974
272.809
270.703
268.656
266.667
264.735
262.86
261.041
259.277
257.567
255.911
254.307
252.755
251.255
249.805
248.404
247.051
245.746
244.488
243.276
242.108
240.985
239.904
238.866
237.869
236.912
235.994
235.115
234.273
233.467
232.697
231.962
231.26
230.592
229.955
229.349
228.774
228.228
227.71
227.22
226.758
226.321
225.91
225.524
225.162
224.824
224.508
224.214
223.943
223.692
223.462
223.252
223.062
222.89
222.738
222.605
222.489
222.392
222.312
222.25
222.205
222.177
222.166
222.172
397.733
393.193
388.672
384.173
379.706
375.278
370.896
366.566
362.294
358.085
353.941
349.866
345.862
341.93
338.072
334.288
330.579
326.944
323.384
319.897
316.485
313.145
309.879
306.683
303.56
300.506
297.522
294.608
291.762
288.983
286.272
283.627
281.047
278.533
276.083
273.697
271.374
269.113
266.914
264.777
262.699
260.681
258.722
256.821
254.978
253.191
251.459
249.783
248.161
246.592
245.076
243.611
242.196
240.832
239.516
238.248
237.027
235.851
234.721
233.635
232.591
231.59
230.63
229.71
228.829
227.986
227.18
226.411
225.677
224.977
224.31
223.676
223.074
222.503
221.961
221.448
220.964
220.507
220.077
219.673
219.294
218.939
218.609
218.302
218.017
217.755
217.514
217.294
217.094
216.915
216.756
216.616
216.495
216.393
216.309
216.244
216.197
216.168
216.156
216.162
397.703
393.102
388.519
383.956
379.421
374.922
370.466
366.058
361.703
357.406
353.171
349.001
344.897
340.863
336.9
333.008
329.189
325.443
321.77
318.17
314.643
311.188
307.807
304.497
301.26
298.093
294.997
291.972
289.016
286.129
283.311
280.561
277.879
275.263
272.714
270.23
267.812
265.458
263.168
260.941
258.777
256.674
254.632
252.651
250.73
248.867
247.062
245.314
243.623
241.987
240.405
238.877
237.402
235.978
234.606
233.283
232.009
230.783
229.603
228.47
227.381
226.336
225.334
224.374
223.455
222.575
221.734
220.931
220.165
219.434
218.738
218.077
217.448
216.851
216.286
215.751
215.245
214.768
214.319
213.897
213.501
213.131
212.786
212.465
212.168
211.894
211.642
211.412
211.204
211.017
210.85
210.704
210.578
210.471
210.384
210.315
210.266
210.235
210.223
210.229
397.671
393.004
388.354
383.723
379.118
374.546
370.013
365.524
361.086
356.702
352.375
348.111
343.91
339.775
335.709
331.712
327.786
323.931
320.148
316.437
312.799
309.233
305.74
302.319
298.97
295.693
292.488
289.354
286.292
283.299
280.377
277.525
274.741
272.027
269.38
266.801
264.289
261.844
259.465
257.151
254.901
252.716
250.593
248.533
246.535
244.598
242.72
240.902
239.143
237.441
235.795
234.205
232.67
231.189
229.76
228.384
227.057
225.781
224.554
223.374
222.24
221.153
220.109
219.11
218.152
217.237
216.361
215.525
214.727
213.966
213.242
212.552
211.898
211.276
210.687
210.13
209.603
209.107
208.639
208.199
207.787
207.401
207.042
206.707
206.398
206.112
205.85
205.61
205.393
205.198
205.025
204.872
204.74
204.629
204.538
204.467
204.415
204.383
204.37
204.376
397.636
392.901
388.18
383.478
378.799
374.151
369.54
364.97
360.447
355.976
351.559
347.201
342.904
338.671
334.503
330.403
326.372
322.411
318.521
314.702
310.955
307.281
303.679
300.15
296.693
293.309
289.997
286.758
283.591
280.496
277.472
274.519
271.637
268.826
266.084
263.412
260.809
258.274
255.807
253.408
251.075
248.808
246.606
244.469
242.395
240.385
238.437
236.55
234.723
232.956
231.248
229.597
228.004
226.465
224.982
223.552
222.175
220.849
219.574
218.349
217.171
216.042
214.958
213.919
212.925
211.973
211.063
210.195
209.365
208.575
207.822
207.106
206.426
205.78
205.168
204.589
204.041
203.525
203.039
202.582
202.153
201.752
201.379
201.031
200.709
200.412
200.139
199.89
199.665
199.462
199.281
199.123
198.986
198.87
198.775
198.7
198.646
198.613
198.599
198.606
397.6
392.792
387.999
383.223
378.468
373.743
369.051
364.399
359.792
355.232
350.726
346.275
341.883
337.553
333.286
329.085
324.952
320.888
316.893
312.969
309.116
305.336
301.628
297.993
294.431
290.943
287.527
284.185
280.916
277.72
274.597
271.546
268.568
265.662
262.827
260.064
257.372
254.749
252.197
249.714
247.299
244.952
242.673
240.46
238.313
236.231
234.213
232.258
230.366
228.536
226.766
225.055
223.404
221.81
220.272
218.79
217.363
215.989
214.667
213.397
212.177
211.005
209.882
208.805
207.774
206.787
205.844
204.943
204.083
203.263
202.483
201.74
201.034
200.365
199.73
199.129
198.561
198.026
197.521
197.047
196.603
196.187
195.799
195.438
195.104
194.796
194.513
194.255
194.021
193.81
193.623
193.458
193.315
193.195
193.096
193.019
192.963
192.928
192.914
192.92
397.563
392.681
387.812
382.959
378.128
373.323
368.55
363.815
359.123
354.476
349.88
345.337
340.852
336.426
332.062
327.762
323.529
319.363
315.266
311.239
307.284
303.4
299.589
295.851
292.187
288.596
285.079
281.637
278.268
274.974
271.754
268.608
265.536
262.537
259.612
256.76
253.98
251.272
248.636
246.071
243.576
241.151
238.796
236.508
234.289
232.137
230.051
228.03
226.073
224.18
222.35
220.581
218.873
217.224
215.634
214.101
212.624
211.202
209.835
208.52
207.258
206.045
204.883
203.769
202.701
201.68
200.704
199.771
198.882
198.033
197.225
196.456
195.726
195.033
194.375
193.753
193.166
192.611
192.089
191.598
191.138
190.707
190.305
189.932
189.586
189.267
188.974
188.706
188.463
188.245
188.051
187.88
187.732
187.608
187.505
187.425
187.367
187.33
187.315
187.321
397.525
392.566
387.621
382.69
377.779
372.894
368.04
363.222
358.443
353.71
349.024
344.391
339.813
335.293
330.833
326.437
322.105
317.84
313.644
309.517
305.461
301.476
297.564
293.726
289.961
286.271
282.656
279.115
275.65
272.26
268.946
265.706
262.542
259.454
256.439
253.5
250.635
247.843
245.125
242.48
239.907
237.406
234.976
232.616
230.326
228.105
225.952
223.866
221.846
219.892
218.003
216.176
214.412
212.71
211.068
209.484
207.959
206.491
205.079
203.721
202.417
201.164
199.963
198.812
197.71
196.655
195.646
194.683
193.763
192.886
192.051
191.257
190.502
189.786
189.107
188.464
187.856
187.283
186.743
186.236
185.76
185.315
184.9
184.513
184.156
183.826
183.523
183.246
182.995
182.769
182.568
182.392
182.239
182.109
182.003
181.92
181.86
181.822
181.806
181.812
397.486
392.449
387.426
382.416
377.426
372.46
367.523
362.621
357.757
352.937
348.163
343.44
338.77
334.157
329.604
325.112
320.684
316.322
312.028
307.803
303.649
299.566
295.556
291.62
287.758
283.971
280.259
276.623
273.063
269.58
266.173
262.843
259.589
256.412
253.311
250.287
247.338
244.465
241.666
238.943
236.293
233.718
231.215
228.784
226.425
224.136
221.918
219.768
217.687
215.673
213.725
211.843
210.024
208.269
206.576
204.944
203.371
201.857
200.401
199.001
197.655
196.364
195.125
193.938
192.801
191.712
190.672
189.678
188.729
187.825
186.964
186.144
185.365
184.626
183.925
183.262
182.635
182.043
181.486
180.963
180.472
180.012
179.584
179.185
178.816
178.475
178.162
177.876
177.617
177.384
177.177
176.994
176.836
176.703
176.593
176.507
176.444
176.405
176.388
176.395
397.447
392.331
387.228
382.139
377.068
372.02
367.001
362.015
357.067
352.16
347.298
342.486
337.726
333.022
328.376
323.791
319.269
314.812
310.422
306.102
301.851
297.673
293.567
289.535
285.577
281.696
277.89
274.161
270.509
266.935
263.438
260.019
256.678
253.415
250.229
247.121
244.091
241.138
238.262
235.462
232.737
230.088
227.514
225.014
222.587
220.233
217.95
215.739
213.597
211.524
209.52
207.582
205.71
203.903
202.16
200.48
198.861
197.302
195.802
194.361
192.975
191.646
190.37
189.147
187.976
186.855
185.783
184.76
183.783
182.851
181.963
181.119
180.317
179.555
178.833
178.15
177.504
176.894
176.32
175.781
175.275
174.801
174.36
173.949
173.568
173.217
172.894
172.6
172.333
172.092
171.878
171.69
171.527
171.389
171.276
171.187
171.122
171.081
171.064
171.07
397.407
392.212
387.029
381.86
376.707
371.578
366.476
361.407
356.374
351.381
346.433
341.532
336.683
331.889
327.152
322.475
317.861
313.311
308.828
304.414
300.07
295.797
291.598
287.473
283.422
279.448
275.551
271.731
267.989
264.326
260.742
257.236
253.81
250.462
247.195
244.006
240.896
237.865
234.912
232.037
229.24
226.52
223.876
221.308
218.815
216.396
214.051
211.778
209.577
207.447
205.387
203.395
201.471
199.614
197.822
196.095
194.43
192.827
191.285
189.803
188.378
187.011
185.699
184.441
183.237
182.084
180.982
179.929
178.924
177.965
177.053
176.184
175.359
174.575
173.832
173.129
172.464
171.837
171.247
170.691
170.171
169.683
169.229
168.806
168.414
168.053
167.721
167.417
167.142
166.895
166.674
166.48
166.312
166.17
166.053
165.962
165.895
165.852
165.834
165.84
397.367
392.092
386.829
381.579
376.346
371.135
365.951
360.798
355.68
350.603
345.568
340.581
335.644
330.761
325.935
321.168
316.463
311.822
307.248
302.742
298.306
293.942
289.652
285.435
281.295
277.23
273.244
269.335
265.506
261.756
258.086
254.496
250.986
247.557
244.209
240.941
237.753
234.646
231.619
228.671
225.802
223.012
220.3
217.666
215.108
212.627
210.22
207.888
205.629
203.443
201.328
199.284
197.309
195.403
193.563
191.789
190.08
188.434
186.851
185.329
183.866
182.461
181.114
179.822
178.585
177.401
176.269
175.187
174.155
173.17
172.232
171.34
170.492
169.687
168.924
168.201
167.518
166.874
166.267
165.696
165.161
164.66
164.193
163.758
163.356
162.984
162.643
162.331
162.048
161.793
161.566
161.367
161.194
161.048
160.928
160.833
160.764
160.72
160.701
160.707
397.327
391.972
386.629
381.298
375.984
370.692
365.425
360.19
354.989
349.827
344.707
339.634
334.611
329.64
324.726
319.871
315.077
310.347
305.684
301.088
296.563
292.11
287.73
283.425
279.195
275.044
270.97
266.975
263.06
259.226
255.472
251.8
248.209
244.7
241.273
237.928
234.665
231.483
228.383
225.364
222.426
219.568
216.79
214.09
211.47
208.926
206.46
204.07
201.755
199.514
197.346
195.25
193.225
191.27
189.384
187.565
185.812
184.125
182.501
180.939
179.439
177.998
176.616
175.291
174.022
172.807
171.646
170.536
169.477
168.466
167.504
166.589
165.718
164.892
164.109
163.368
162.667
162.005
161.382
160.797
160.247
159.733
159.254
158.807
158.394
158.012
157.662
157.341
157.051
156.789
156.556
156.351
156.174
156.023
155.9
155.802
155.731
155.686
155.666
155.672
397.287
391.852
386.429
381.018
375.624
370.25
364.902
359.584
354.3
349.055
343.851
338.693
333.585
328.529
323.528
318.586
313.705
308.888
304.137
299.454
294.842
290.301
285.834
281.442
277.127
272.889
268.731
264.652
260.654
256.737
252.902
249.149
245.479
241.892
238.389
234.969
231.631
228.377
225.206
222.118
219.112
216.187
213.344
210.582
207.899
205.296
202.772
200.325
197.954
195.66
193.44
191.294
189.22
187.218
185.286
183.423
181.628
179.899
178.235
176.636
175.098
173.623
172.207
170.849
169.548
168.304
167.114
165.976
164.891
163.856
162.869
161.931
161.039
160.192
159.389
158.629
157.911
157.233
156.594
155.994
155.431
154.903
154.412
153.954
153.53
153.139
152.779
152.451
152.152
151.884
151.645
151.435
151.252
151.098
150.971
150.871
150.797
150.751
150.73
150.736
397.247
391.733
386.23
380.739
375.265
369.81
364.382
358.982
353.616
348.288
343.002
337.761
332.568
327.428
322.342
317.315
312.349
307.447
302.61
297.842
293.143
288.518
283.966
279.489
275.09
270.769
266.527
262.367
258.287
254.29
250.376
246.545
242.798
239.135
235.557
232.063
228.654
225.33
222.09
218.933
215.861
212.872
209.966
207.141
204.399
201.737
199.156
196.653
194.229
191.882
189.611
187.416
185.295
183.247
181.27
179.364
177.527
175.758
174.056
172.419
170.846
169.336
167.886
166.497
165.166
163.892
162.673
161.509
160.398
159.338
158.329
157.368
156.455
155.588
154.766
153.988
153.252
152.558
151.904
151.289
150.712
150.172
149.668
149.2
148.765
148.364
147.996
147.659
147.354
147.079
146.834
146.618
146.431
146.273
146.142
146.039
145.964
145.916
145.894
145.9
397.208
391.615
386.033
380.463
374.908
369.374
363.865
358.385
352.939
347.529
342.161
336.838
331.562
326.339
321.171
316.06
311.01
306.024
301.104
296.252
291.47
286.761
282.126
277.568
273.086
268.684
264.362
260.121
255.962
251.887
247.895
243.988
240.166
236.43
232.779
229.214
225.735
222.341
219.034
215.811
212.674
209.622
206.654
203.77
200.969
198.25
195.613
193.056
190.58
188.182
185.862
183.618
181.451
179.357
177.337
175.389
173.512
171.704
169.964
168.29
166.682
165.138
163.656
162.236
160.875
159.572
158.326
157.136
156
154.916
153.883
152.901
151.967
151.08
150.24
149.444
148.691
147.981
147.312
146.683
146.092
145.54
145.025
144.545
144.101
143.69
143.313
142.969
142.656
142.374
142.123
141.902
141.711
141.548
141.415
141.309
141.232
141.182
141.16
141.165
397.169
391.497
385.837
380.188
374.555
368.942
363.354
357.794
352.268
346.778
341.329
335.925
330.569
325.264
320.014
314.822
309.691
304.622
299.62
294.687
289.823
285.033
280.317
275.678
271.117
266.635
262.235
257.916
253.68
249.529
245.462
241.481
237.586
233.777
230.055
226.421
222.873
219.413
216.039
212.753
209.553
206.439
203.411
200.468
197.61
194.836
192.144
189.535
187.007
184.56
182.191
179.901
177.688
175.551
173.488
171.499
169.582
167.736
165.959
164.25
162.608
161.031
159.517
158.066
156.676
155.346
154.073
152.857
151.696
150.589
149.534
148.53
147.576
146.67
145.811
144.998
144.229
143.503
142.819
142.176
141.573
141.008
140.481
139.991
139.537
139.117
138.732
138.379
138.06
137.772
137.515
137.289
137.093
136.926
136.789
136.681
136.602
136.551
136.528
136.532
397.13
391.381
385.643
379.917
374.206
368.515
362.848
357.21
351.605
346.037
340.509
335.025
329.589
324.205
318.875
313.602
308.391
303.242
298.16
293.147
288.204
283.335
278.54
273.822
269.183
264.624
260.147
255.752
251.442
247.216
243.076
239.023
235.056
231.178
227.387
223.684
220.07
216.545
213.108
209.759
206.497
203.324
200.237
197.237
194.324
191.495
188.751
186.09
183.512
181.016
178.601
176.265
174.008
171.828
169.724
167.695
165.739
163.856
162.043
160.299
158.623
157.014
155.47
153.989
152.571
151.213
149.914
148.673
147.488
146.358
145.281
144.257
143.283
142.358
141.481
140.651
139.866
139.124
138.426
137.77
137.154
136.577
136.039
135.539
135.075
134.646
134.252
133.892
133.565
133.271
133.009
132.777
132.577
132.407
132.267
132.156
132.074
132.022
131.998
132.002
397.092
391.266
385.452
379.649
373.861
368.093
362.349
356.634
350.951
345.305
339.699
334.138
328.624
323.161
317.753
312.402
307.112