/*--------------------------------*- C++ -*----------------------------------*\
  =========                 |
  \\      /  F ield         | OpenFOAM: The Open Source CFD Toolbox
   \\    /   O peration     | Website:  https://openfoam.org
    \\  /    A nd           | Version:  10
     \\/     M anipulation  |
\*---------------------------------------------------------------------------*/
FoamFile
{
    format      ascii;
    class       volScalarField;
    location    "13.5";
    object      T_0;
}
// * * * * * * * * * * * * * * * * * * * * * * * * * * * * * * * * * * * * * //

dimensions      [0 0 0 1 0 0 0];

internalField   nonuniform List<scalar> 
10000
(
374.956
361.221
356.497
354.402
353.246
352.501
351.969
351.562
351.234
350.961
350.727
350.521
350.337
350.17
350.018
349.876
349.744
349.619
349.502
349.39
349.283
349.181
349.084
348.99
348.899
348.812
348.727
348.646
348.567
348.49
348.416
348.344
348.274
348.207
348.141
348.077
348.016
347.956
347.898
347.841
347.787
347.734
347.683
347.633
347.585
347.538
347.493
347.45
347.408
347.367
347.328
347.29
347.253
347.218
347.184
347.151
347.12
347.09
347.06
347.033
347.006
346.98
346.955
346.932
346.909
346.888
346.867
346.847
346.828
346.81
346.793
346.777
346.762
346.747
346.733
346.72
346.708
346.696
346.685
346.675
346.665
346.656
346.648
346.64
346.633
346.626
346.62
346.614
346.609
346.605
346.601
346.597
346.594
346.592
346.589
346.588
346.587
346.586
346.586
346.585
388.544
374.659
366.872
362.278
359.338
357.301
355.793
354.617
353.66
352.857
352.163
351.553
351.006
350.51
350.053
349.63
349.235
348.863
348.511
348.177
347.858
347.553
347.26
346.978
346.707
346.445
346.192
345.947
345.711
345.481
345.259
345.043
344.834
344.632
344.435
344.244
344.059
343.879
343.705
343.536
343.372
343.214
343.06
342.911
342.767
342.627
342.492
342.362
342.235
342.113
341.996
341.882
341.772
341.667
341.565
341.467
341.372
341.282
341.194
341.111
341.03
340.953
340.879
340.808
340.74
340.676
340.614
340.554
340.498
340.444
340.393
340.345
340.298
340.254
340.213
340.174
340.137
340.102
340.069
340.038
340.009
339.982
339.956
339.933
339.911
339.891
339.873
339.856
339.841
339.827
339.815
339.805
339.795
339.788
339.781
339.777
339.773
339.771
339.77
339.771
393.116
381.989
374.051
368.498
364.524
361.569
359.284
357.45
355.932
354.64
353.516
352.52
351.625
350.808
350.056
349.358
348.703
348.087
347.504
346.949
346.42
345.913
345.426
344.958
344.507
344.072
343.651
343.244
342.85
342.468
342.098
341.74
341.392
341.054
340.727
340.409
340.101
339.802
339.511
339.23
338.957
338.693
338.437
338.189
337.949
337.716
337.491
337.274
337.064
336.86
336.664
336.475
336.292
336.116
335.947
335.783
335.626
335.475
335.33
335.19
335.056
334.928
334.804
334.686
334.573
334.465
334.362
334.264
334.17
334.08
333.995
333.914
333.837
333.764
333.695
333.629
333.567
333.509
333.454
333.403
333.355
333.309
333.267
333.228
333.192
333.159
333.128
333.1
333.075
333.052
333.032
333.014
332.999
332.986
332.976
332.968
332.962
332.958
332.957
332.958
395.059
386.128
378.845
373.141
368.691
365.171
362.327
359.973
357.98
356.259
354.746
353.393
352.169
351.048
350.012
349.047
348.142
347.287
346.477
345.706
344.969
344.263
343.584
342.932
342.302
341.695
341.108
340.539
339.989
339.456
338.939
338.438
337.951
337.479
337.022
336.578
336.147
335.728
335.323
334.93
334.548
334.179
333.82
333.473
333.137
332.812
332.498
332.194
331.899
331.615
331.341
331.076
330.821
330.575
330.337
330.109
329.889
329.677
329.474
329.279
329.091
328.912
328.739
328.574
328.416
328.265
328.121
327.983
327.851
327.726
327.607
327.493
327.386
327.284
327.187
327.095
327.009
326.927
326.851
326.778
326.711
326.648
326.589
326.534
326.484
326.437
326.394
326.355
326.32
326.288
326.26
326.235
326.214
326.196
326.181
326.17
326.161
326.156
326.155
326.156
396.064
388.614
382.063
376.533
371.932
368.102
364.882
362.138
359.764
357.678
355.821
354.146
352.619
351.213
349.908
348.687
347.539
346.454
345.423
344.44
343.499
342.598
341.731
340.896
340.091
339.313
338.561
337.833
337.127
336.444
335.781
335.138
334.514
333.909
333.322
332.752
332.199
331.662
331.141
330.636
330.147
329.672
329.213
328.767
328.336
327.918
327.514
327.124
326.746
326.381
326.029
325.689
325.361
325.045
324.74
324.447
324.164
323.892
323.631
323.381
323.14
322.909
322.687
322.475
322.272
322.078
321.893
321.716
321.547
321.386
321.233
321.087
320.949
320.818
320.694
320.576
320.465
320.36
320.261
320.169
320.082
320.001
319.925
319.855
319.79
319.73
319.675
319.625
319.579
319.539
319.502
319.471
319.443
319.42
319.401
319.387
319.376
319.37
319.367
319.369
396.658
390.198
384.264
378.998
374.407
370.427
366.968
363.941
361.266
358.877
356.723
354.761
352.958
351.288
349.73
348.268
346.888
345.58
344.335
343.147
342.008
340.915
339.863
338.849
337.87
336.925
336.009
335.123
334.265
333.432
332.625
331.841
331.081
330.344
329.627
328.933
328.258
327.604
326.969
326.353
325.756
325.177
324.616
324.073
323.546
323.037
322.544
322.067
321.606
321.161
320.731
320.316
319.916
319.53
319.158
318.8
318.455
318.124
317.805
317.499
317.205
316.923
316.653
316.394
316.146
315.909
315.683
315.467
315.261
315.064
314.877
314.699
314.531
314.37
314.219
314.075
313.939
313.812
313.691
313.578
313.472
313.373
313.281
313.195
313.116
313.042
312.975
312.914
312.858
312.809
312.764
312.726
312.692
312.664
312.641
312.623
312.61
312.602
312.6
312.602
397.039
391.255
385.797
380.791
376.277
372.237
368.63
365.399
362.489
359.852
357.444
355.229
353.177
351.265
349.472
347.782
346.182
344.661
343.21
341.822
340.491
339.211
337.978
336.789
335.64
334.529
333.453
332.411
331.401
330.422
329.471
328.549
327.654
326.785
325.941
325.122
324.327
323.556
322.807
322.081
321.377
320.695
320.033
319.392
318.771
318.171
317.589
317.027
316.483
315.958
315.451
314.961
314.489
314.034
313.595
313.172
312.765
312.374
311.998
311.637
311.29
310.958
310.639
310.333
310.041
309.761
309.494
309.239
308.996
308.764
308.543
308.334
308.134
307.945
307.766
307.597
307.437
307.286
307.144
307.01
306.885
306.768
306.659
306.558
306.464
306.378
306.299
306.226
306.161
306.102
306.05
306.004
305.964
305.931
305.904
305.883
305.868
305.859
305.855
305.858
397.297
391.982
386.883
382.098
377.676
373.623
369.923
366.544
363.451
360.609
357.984
355.547
353.272
351.138
349.127
347.224
345.416
343.692
342.044
340.464
338.946
337.485
336.076
334.715
333.399
332.126
330.892
329.697
328.538
327.413
326.321
325.261
324.232
323.233
322.263
321.321
320.407
319.52
318.659
317.823
317.013
316.228
315.466
314.728
314.014
313.322
312.653
312.006
311.38
310.775
310.191
309.627
309.083
308.559
308.054
307.567
307.099
306.648
306.215
305.799
305.399
305.016
304.649
304.297
303.961
303.638
303.331
303.037
302.757
302.49
302.236
301.994
301.764
301.547
301.34
301.145
300.961
300.787
300.623
300.469
300.325
300.191
300.065
299.948
299.84
299.741
299.649
299.566
299.491
299.423
299.363
299.31
299.264
299.226
299.195
299.17
299.153
299.142
299.138
299.141
397.475
392.492
387.657
383.048
378.711
374.664
370.903
367.414
364.175
361.163
358.351
355.719
353.243
350.907
348.695
346.592
344.588
342.671
340.834
339.07
337.372
335.734
334.154
332.626
331.147
329.715
328.326
326.98
325.674
324.406
323.175
321.979
320.818
319.691
318.596
317.533
316.5
315.498
314.525
313.582
312.666
311.778
310.918
310.084
309.277
308.495
307.738
307.006
306.299
305.615
304.955
304.317
303.702
303.109
302.538
301.987
301.458
300.948
300.458
299.988
299.536
299.103
298.687
298.289
297.909
297.544
297.196
296.864
296.547
296.245
295.957
295.684
295.424
295.178
294.945
294.724
294.515
294.319
294.133
293.959
293.796
293.644
293.502
293.37
293.248
293.135
293.032
292.938
292.852
292.775
292.707
292.648
292.596
292.553
292.517
292.49
292.47
292.458
292.453
292.457
397.6
392.851
388.208
383.733
379.466
375.427
371.622
368.046
364.687
361.53
358.557
355.751
353.095
350.574
348.175
345.886
343.697
341.597
339.58
337.638
335.766
333.959
332.212
330.521
328.883
327.295
325.756
324.261
322.811
321.402
320.034
318.705
317.413
316.159
314.941
313.757
312.608
311.492
310.409
309.358
308.338
307.349
306.391
305.462
304.562
303.691
302.847
302.032
301.243
300.481
299.745
299.034
298.349
297.688
297.051
296.437
295.846
295.278
294.732
294.207
293.704
293.221
292.757
292.314
291.889
291.483
291.095
290.724
290.37
290.034
289.713
289.408
289.118
288.844
288.583
288.337
288.104
287.885
287.678
287.484
287.303
287.133
286.974
286.827
286.691
286.565
286.45
286.344
286.249
286.164
286.088
286.021
285.963
285.915
285.875
285.845
285.822
285.809
285.804
285.808
397.687
393.102
388.595
384.217
380
375.965
372.123
368.474
365.013
361.73
358.614
355.653
352.833
350.143
347.571
345.108
342.744
340.471
338.281
336.17
334.131
332.159
330.25
328.401
326.608
324.869
323.181
321.541
319.949
318.402
316.899
315.438
314.019
312.639
311.299
309.997
308.732
307.504
306.312
305.155
304.032
302.943
301.887
300.864
299.872
298.913
297.984
297.085
296.216
295.376
294.565
293.782
293.026
292.297
291.595
290.919
290.268
289.642
289.039
288.461
287.906
287.373
286.862
286.373
285.905
285.457
285.029
284.62
284.231
283.859
283.506
283.169
282.85
282.547
282.26
281.988
281.732
281.49
281.262
281.048
280.848
280.66
280.485
280.323
280.173
280.034
279.907
279.791
279.686
279.591
279.507
279.434
279.37
279.317
279.273
279.239
279.215
279.2
279.195
279.198
397.746
393.274
388.86
384.546
380.36
376.322
372.444
368.729
365.177
361.782
358.538
355.436
352.466
349.619
346.886
344.26
341.731
339.293
336.939
334.665
332.465
330.334
328.269
326.266
324.322
322.435
320.602
318.821
317.09
315.407
313.772
312.181
310.636
309.133
307.673
306.254
304.875
303.536
302.236
300.974
299.749
298.561
297.409
296.292
295.211
294.163
293.149
292.168
291.22
290.303
289.417
288.562
287.737
286.942
286.175
285.436
284.725
284.041
283.384
282.752
282.146
281.564
281.006
280.472
279.96
279.471
279.003
278.557
278.131
277.726
277.339
276.972
276.623
276.292
275.978
275.682
275.401
275.137
274.888
274.654
274.435
274.231
274.04
273.862
273.698
273.546
273.407
273.281
273.166
273.063
272.971
272.891
272.821
272.763
272.715
272.678
272.651
272.635
272.629
272.633
397.785
393.384
389.029
384.754
380.582
376.532
372.615
368.837
365.201
361.704
358.342
355.11
352.002
349.009
346.126
343.345
340.66
338.066
335.556
333.125
330.77
328.486
326.27
324.118
322.027
319.996
318.021
316.101
314.234
312.419
310.653
308.936
307.266
305.642
304.064
302.529
301.038
299.59
298.183
296.818
295.492
294.206
292.959
291.751
290.579
289.445
288.347
287.285
286.257
285.264
284.305
283.379
282.485
281.623
280.792
279.992
279.222
278.481
277.768
277.084
276.427
275.796
275.191
274.612
274.058
273.528
273.021
272.537
272.076
271.636
271.218
270.819
270.441
270.082
269.742
269.421
269.117
268.83
268.561
268.307
268.07
267.848
267.641
267.448
267.27
267.106
266.955
266.818
266.693
266.581
266.482
266.395
266.319
266.256
266.204
266.164
266.135
266.117
266.11
266.115
397.808
393.449
389.126
384.867
380.694
376.622
372.662
368.822
365.105
361.512
358.04
354.688
351.45
348.321
345.296
342.369
339.537
336.793
334.133
331.553
329.048
326.616
324.253
321.957
319.723
317.552
315.439
313.384
311.384
309.438
307.545
305.703
303.911
302.168
300.473
298.826
297.224
295.668
294.156
292.688
291.264
289.881
288.54
287.241
285.981
284.761
283.58
282.437
281.332
280.263
279.231
278.234
277.273
276.345
275.451
274.59
273.761
272.963
272.196
271.459
270.752
270.073
269.422
268.799
268.202
267.631
267.086
266.565
266.068
265.595
265.144
264.715
264.308
263.921
263.555
263.209
262.882
262.573
262.283
262.01
261.754
261.515
261.292
261.085
260.893
260.716
260.553
260.405
260.271
260.151
260.044
259.95
259.869
259.8
259.744
259.701
259.669
259.65
259.643
259.648
397.818
393.476
389.163
384.904
380.716
376.613
372.606
368.702
364.907
361.221
357.646
354.179
350.819
347.561
344.402
341.337
338.364
335.477
332.673
329.949
327.301
324.726
322.222
319.785
317.413
315.104
312.857
310.67
308.54
306.467
304.448
302.484
300.573
298.713
296.904
295.144
293.434
291.772
290.157
288.588
287.066
285.588
284.155
282.765
281.418
280.113
278.85
277.628
276.445
275.302
274.198
273.132
272.103
271.11
270.154
269.232
268.345
267.491
266.67
265.882
265.125
264.398
263.702
263.034
262.396
261.785
261.201
260.643
260.111
259.604
259.122
258.663
258.227
257.813
257.421
257.05
256.7
256.369
256.058
255.766
255.492
255.236
254.997
254.775
254.57
254.38
254.206
254.048
253.904
253.775
253.66
253.56
253.473
253.399
253.339
253.293
253.259
253.239
253.231
253.236
397.818
393.475
389.155
384.88
380.665
376.523
372.463
368.494
364.621
360.846
357.171
353.595
350.118
346.737
343.45
340.254
337.146
334.123
331.181
328.318
325.532
322.819
320.177
317.604
315.097
312.656
310.277
307.961
305.704
303.506
301.366
299.281
297.253
295.278
293.357
291.488
289.67
287.904
286.187
284.519
282.9
281.329
279.804
278.326
276.893
275.504
274.16
272.859
271.601
270.385
269.209
268.074
266.979
265.922
264.903
263.922
262.977
262.068
261.194
260.355
259.548
258.775
258.033
257.322
256.642
255.991
255.369
254.775
254.208
253.668
253.154
252.665
252.201
251.76
251.343
250.947
250.574
250.222
249.891
249.579
249.287
249.015
248.76
248.524
248.305
248.103
247.917
247.748
247.595
247.458
247.335
247.228
247.135
247.057
246.993
246.943
246.907
246.885
246.877
246.882
397.81
393.45
389.108
384.805
380.554
376.365
372.249
368.212
364.26
360.397
356.625
352.945
349.356
345.857
342.448
339.125
335.888
332.733
329.659
326.663
323.742
320.896
318.121
315.415
312.778
310.207
307.701
305.259
302.878
300.558
298.298
296.097
293.953
291.865
289.834
287.857
285.935
284.066
282.249
280.484
278.77
277.106
275.491
273.925
272.408
270.937
269.513
268.135
266.801
265.512
264.267
263.064
261.903
260.783
259.703
258.663
257.661
256.697
255.771
254.88
254.025
253.205
252.418
251.665
250.943
250.253
249.594
248.964
248.363
247.79
247.245
246.726
246.234
245.766
245.323
244.904
244.508
244.135
243.783
243.453
243.143
242.854
242.584
242.333
242.1
241.886
241.69
241.51
241.348
241.202
241.072
240.958
240.859
240.776
240.708
240.656
240.617
240.594
240.585
240.591
397.795
393.406
389.031
384.69
380.394
376.152
371.974
367.867
363.837
359.886
356.019
352.236
348.539
344.927
341.4
337.956
334.594
331.313
328.111
324.986
321.936
318.96
316.056
313.223
310.458
307.761
305.131
302.565
300.064
297.625
295.248
292.931
290.675
288.477
286.338
284.256
282.23
280.26
278.344
276.483
274.676
272.921
271.218
269.566
267.965
266.413
264.911
263.456
262.049
260.688
259.373
258.103
256.877
255.695
254.555
253.456
252.399
251.381
250.403
249.462
248.559
247.693
246.862
246.066
245.304
244.575
243.878
243.213
242.578
241.973
241.397
240.849
240.328
239.834
239.366
238.924
238.505
238.111
237.739
237.39
237.063
236.757
236.472
236.206
235.961
235.734
235.527
235.337
235.165
235.011
234.873
234.753
234.649
234.561
234.489
234.433
234.393
234.368
234.358
234.364
397.776
393.346
388.929
384.541
380.193
375.893
371.65
367.47
363.36
359.322
355.361
351.479
347.676
343.954
340.313
336.751
333.27
329.866
326.54
323.29
320.116
317.014
313.985
311.027
308.139
305.32
302.568
299.883
297.263
294.708
292.216
289.788
287.421
285.115
282.87
280.684
278.557
276.488
274.476
272.521
270.621
268.777
266.987
265.251
263.567
261.936
260.355
258.826
257.346
255.914
254.531
253.195
251.906
250.661
249.462
248.306
247.193
246.122
245.092
244.103
243.152
242.24
241.366
240.528
239.726
238.958
238.225
237.525
236.856
236.219
235.613
235.036
234.488
233.968
233.475
233.009
232.568
232.153
231.762
231.394
231.05
230.727
230.427
230.148
229.889
229.65
229.431
229.232
229.051
228.888
228.743
228.616
228.506
228.414
228.338
228.279
228.236
228.21
228.2
228.206
397.752
393.274
388.806
384.365
379.958
375.595
371.283
367.029
362.837
358.713
354.659
350.678
346.773
342.944
339.192
335.517
331.919
328.397
324.951
321.581
318.284
315.061
311.911
308.832
305.824
302.885
300.015
297.213
294.478
291.809
289.206
286.667
284.193
281.781
279.432
277.145
274.918
272.752
270.645
268.598
266.608
264.676
262.8
260.981
259.216
257.506
255.85
254.246
252.694
251.194
249.743
248.342
246.99
245.685
244.427
243.214
242.047
240.923
239.843
238.805
237.808
236.851
235.933
235.054
234.212
233.407
232.637
231.902
231.201
230.533
229.896
229.291
228.715
228.17
227.652
227.163
226.701
226.264
225.854
225.468
225.106
224.768
224.452
224.159
223.887
223.637
223.407
223.197
223.007
222.836
222.684
222.551
222.436
222.338
222.259
222.197
222.152
222.124
222.113
222.119
397.725
393.191
388.667
384.166
379.696
375.266
370.882
366.55
362.277
358.065
353.919
349.842
345.836
341.902
338.042
334.257
330.546
326.909
323.347
319.859
316.445
313.104
309.836
306.639
303.514
300.459
297.474
294.558
291.711
288.931
286.219
283.572
280.992
278.477
276.026
273.639
271.316
269.054
266.855
264.716
262.638
260.62
258.66
256.759
254.915
253.127
251.396
249.719
248.097
246.528
245.012
243.546
242.132
240.767
239.452
238.184
236.962
235.787
234.657
233.571
232.528
231.527
230.567
229.647
228.766
227.923
227.118
226.349
225.615
224.915
224.249
223.616
223.014
222.442
221.901
221.389
220.905
220.448
220.018
219.614
219.236
218.881
218.551
218.244
217.96
217.697
217.457
217.237
217.038
216.859
216.7
216.56
216.439
216.337
216.254
216.188
216.141
216.112
216.101
216.107
397.694
393.1
388.514
383.948
379.411
374.91
370.452
366.042
361.685
357.386
353.149
348.976
344.871
340.835
336.869
332.976
329.155
325.407
321.732
318.13
314.601
311.146
307.762
304.451
301.212
298.044
294.947
291.92
288.963
286.075
283.256
280.505
277.821
275.205
272.655
270.17
267.751
265.396
263.106
260.878
258.713
256.61
254.568
252.586
250.664
248.801
246.996
245.248
243.556
241.92
240.339
238.81
237.335
235.912
234.539
233.216
231.942
230.716
229.537
228.404
227.315
226.27
225.269
224.309
223.389
222.51
221.669
220.867
220.101
219.37
218.675
218.014
217.385
216.789
216.224
215.689
215.184
214.707
214.258
213.836
213.441
213.071
212.726
212.405
212.108
211.835
211.583
211.354
211.146
210.959
210.792
210.646
210.52
210.413
210.326
210.258
210.208
210.178
210.166
210.172
397.662
393.002
388.349
383.715
379.108
374.533
369.998
365.507
361.067
356.68
352.352
348.085
343.882
339.746
335.677
331.678
327.75
323.893
320.108
316.396
312.756
309.188
305.693
302.271
298.921
295.643
292.436
289.301
286.237
283.243
280.32
277.466
274.682
271.966
269.319
266.739
264.226
261.78
259.4
257.086
254.835
252.649
250.526
248.466
246.467
244.53
242.652
240.834
239.074
237.372
235.726
234.136
232.601
231.12
229.691
228.315
226.989
225.712
224.485
223.305
222.172
221.085
220.042
219.042
218.085
217.169
216.294
215.458
214.66
213.9
213.176
212.487
211.833
211.212
210.623
210.066
209.54
209.043
208.576
208.136
207.724
207.339
206.98
206.646
206.336
206.051
205.789
205.55
205.333
205.138
204.965
204.812
204.681
204.569
204.478
204.407
204.355
204.323
204.311
204.317
397.627
392.898
388.175
383.47
378.789
374.138
369.524
364.952
360.427
355.953
351.535
347.174
342.875
338.64
334.47
330.368
326.335
322.372
318.48
314.66
310.911
307.235
303.631
300.1
296.642
293.257
289.944
286.703
283.534
280.438
277.413
274.459
271.576
268.763
266.021
263.348
260.744
258.208
255.741
253.34
251.007
248.739
246.537
244.399
242.326
240.315
238.366
236.479
234.652
232.885
231.177
229.526
227.932
226.394
224.91
223.481
222.104
220.778
219.503
218.278
217.101
215.971
214.888
213.849
212.855
211.904
210.994
210.126
209.297
208.507
207.754
207.039
206.359
205.713
205.102
204.523
203.976
203.46
202.974
202.517
202.089
201.688
201.315
200.967
200.646
200.349
200.076
199.828
199.602
199.4
199.219
199.061
198.924
198.808
198.713
198.639
198.585
198.552
198.538
198.544
397.591
392.79
387.994
383.214
378.457
373.729
369.035
364.381
359.771
355.209
350.701
346.247
341.853
337.521
333.252
329.049
324.914
320.847
316.851
312.925
309.071
305.288
301.579
297.942
294.379
290.888
287.471
284.128
280.857
277.66
274.536
271.484
268.505
265.598
262.762
259.998
257.304
254.681
252.128
249.644
247.229
244.882
242.602
240.388
238.241
236.158
234.14
232.185
230.293
228.462
226.692
224.982
223.33
221.736
220.199
218.717
217.29
215.916
214.594
213.324
212.104
210.933
209.809
208.733
207.702
206.716
205.773
204.872
204.012
203.193
202.413
201.671
200.965
200.296
199.661
199.061
198.494
197.958
197.454
196.981
196.536
196.121
195.733
195.373
195.039
194.731
194.448
194.19
193.956
193.746
193.559
193.394
193.252
193.132
193.033
192.956
192.9
192.865
192.851
192.857
397.554
392.678
387.807
382.951
378.116
373.309
368.534
363.797
359.101
354.452
349.854
345.309
340.821
336.393
332.027
327.725
323.49
319.322
315.223
311.194
307.237
303.351
299.538
295.799
292.132
288.54
285.022
281.578
278.208
274.913
271.691
268.544
265.471
262.471
259.545
256.691
253.91
251.202
248.565
245.999
243.504
241.078
238.722
236.435
234.215
232.062
229.976
227.955
225.998
224.105
222.274
220.505
218.797
217.148
215.558
214.025
212.548
211.127
209.76
208.445
207.183
205.971
204.809
203.694
202.628
201.607
200.631
199.699
198.809
197.961
197.153
196.385
195.655
194.962
194.305
193.683
193.096
192.542
192.02
191.529
191.069
190.639
190.238
189.865
189.519
189.2
188.907
188.64
188.397
188.179
187.985
187.815
187.667
187.543
187.44
187.36
187.302
187.266
187.251
187.257
397.516
392.563
387.615
382.681
377.768
372.88
368.023
363.202
358.422
353.686
348.998
344.362
339.782
335.259
330.797
326.399
322.065
317.798
313.599
309.47
305.412
301.426
297.512
293.672
289.906
286.214
282.597
279.055
275.588
272.197
268.881
265.641
262.475
259.385
256.37
253.43
250.563
247.771
245.052
242.406
239.833
237.331
234.9
232.54
230.25
228.028
225.875
223.789
221.769
219.815
217.925
216.099
214.335
212.632
210.99
209.407
207.882
206.414
205.002
203.644
202.34
201.088
199.887
198.736
197.634
196.579
195.571
194.608
193.689
192.812
191.978
191.184
190.429
189.713
189.034
188.392
187.785
187.212
186.672
186.165
185.69
185.245
184.83
184.445
184.087
183.757
183.454
183.178
182.927
182.702
182.501
182.325
182.172
182.043
181.937
181.854
181.793
181.756
181.74
181.746
397.477
392.447
387.42
382.407
377.414
372.445
367.506
362.601
357.735
352.912
348.136
343.41
338.738
334.123
329.567
325.073
320.643
316.279
311.983
307.756
303.599
299.515
295.503
291.564
287.7
283.912
280.198
276.561
273
269.515
266.107
262.775
259.52
256.342
253.24
250.215
247.265
244.391
241.592
238.867
236.217
233.641
231.137
228.706
226.347
224.058
221.839
219.689
217.608
215.594
213.646
211.763
209.945
208.189
206.496
204.864
203.292
201.778
200.322
198.922
197.577
196.286
195.047
193.86
192.723
191.635
190.595
189.602
188.653
187.749
186.888
186.069
185.291
184.552
183.851
183.188
182.562
181.971
181.414
180.891
180.4
179.941
179.513
179.115
178.746
178.405
178.093
177.807
177.548
177.315
177.108
176.926
176.768
176.635
176.525
176.439
176.376
176.337
176.321
176.327
397.438
392.328
387.222
382.129
377.056
372.005
366.984
361.995
357.044
352.134
347.27
342.455
337.693
332.986
328.338
323.75
319.226
314.767
310.375
306.053
301.8
297.62
293.512
289.478
285.519
281.635
277.828
274.097
270.444
266.868
263.37
259.949
256.607
253.343
250.156
247.048
244.016
241.062
238.185
235.384
232.659
230.01
227.435
224.934
222.507
220.152
217.87
215.658
213.516
211.443
209.438
207.5
205.629
203.822
202.079
200.398
198.78
197.221
195.722
194.28
192.895
191.565
190.29
189.067
187.897
186.776
185.705
184.681
183.705
182.773
181.886
181.043
180.241
179.479
178.758
178.075
177.429
176.82
176.247
175.707
175.202
174.729
174.287
173.877
173.496
173.145
172.823
172.529
172.262
172.022
171.808
171.62
171.457
171.319
171.206
171.118
171.053
171.012
170.995
171.001
397.398
392.209
387.023
381.85
376.695
371.563
366.458
361.386
356.35
351.355
346.404
341.501
336.65
331.853
327.113
322.434
317.817
313.265
308.78
304.364
300.017
295.743
291.542
287.414
283.362
279.386
275.488
271.666
267.923
264.258
260.672
257.165
253.737
250.389
247.12
243.93
240.819
237.787
234.834
231.958
229.16
226.439
223.795
221.226
218.733
216.314
213.968
211.695
209.494
207.364
205.304
203.312
201.388
199.531
197.739
196.011
194.347
192.745
191.203
189.72
188.296
186.929
185.617
184.36
183.156
182.004
180.902
179.849
178.844
177.886
176.974
176.106
175.281
174.498
173.755
173.053
172.388
171.762
171.171
170.617
170.096
169.609
169.155
168.733
168.341
167.98
167.648
167.345
167.07
166.823
166.603
166.409
166.241
166.099
165.983
165.891
165.824
165.782
165.764
165.77
397.358
392.089
386.823
381.569
376.333
371.119
365.932
360.777
355.656
350.576
345.539
340.549
335.61
330.724
325.895
321.126
316.418
311.775
307.199
302.691
298.253
293.887
289.594
285.376
281.233
277.167
273.179
269.269
265.438
261.686
258.015
254.423
250.913
247.482
244.133
240.864
237.675
234.567
231.539
228.59
225.721
222.93
220.218
217.583
215.025
212.543
210.136
207.804
205.545
203.358
201.244
199.199
197.224
195.318
193.478
191.704
189.995
188.35
186.767
185.245
183.782
182.378
181.031
179.74
178.503
177.319
176.187
175.106
174.074
173.09
172.152
171.26
170.413
169.608
168.845
168.123
167.441
166.797
166.19
165.62
165.085
164.585
164.118
163.684
163.281
162.91
162.569
162.257
161.975
161.72
161.494
161.294
161.122
160.976
160.856
160.761
160.692
160.648
160.63
160.636
397.318
391.969
386.622
381.288
375.971
370.676
365.407
360.168
354.964
349.799
344.677
339.601
334.575
329.602
324.686
319.828
315.032
310.299
305.634
301.036
296.508
292.053
287.671
283.364
279.133
274.979
270.904
266.907
262.991
259.155
255.4
251.726
248.134
244.624
241.196
237.849
234.585
231.403
228.302
225.282
222.343
219.484
216.705
214.006
211.384
208.841
206.374
203.984
201.668
199.427
197.259
195.163
193.138
191.183
189.297
187.478
185.726
184.038
182.415
180.854
179.353
177.913
176.531
175.207
173.938
172.724
171.563
170.453
169.394
168.385
167.423
166.508
165.638
164.812
164.029
163.288
162.588
161.927
161.304
160.719
160.17
159.657
159.177
158.731
158.318
157.937
157.587
157.267
156.976
156.715
156.482
156.278
156.1
155.95
155.826
155.729
155.658
155.613
155.594
155.599
397.278
391.849
386.422
381.008
375.61
370.234
364.883
359.562
354.275
349.027
343.821
338.66
333.549
328.49
323.487
318.542
313.659
308.839
304.086
299.401
294.786
290.243
285.774
281.38
277.063
272.824
268.663
264.583
260.583
256.664
252.828
249.074
245.403
241.815
238.31
234.888
231.55
228.295
225.123
222.034
219.027
216.102
213.259
210.496
207.813
205.209
202.684
200.237
197.866
195.572
193.352
191.205
189.132
187.13
185.198
183.335
181.54
179.811
178.148
176.549
175.012
173.536
172.12
170.763
169.463
168.219
167.029
165.892
164.807
163.772
162.787
161.849
160.957
160.111
159.309
158.549
157.831
157.153
156.515
155.915
155.352
154.826
154.334
153.877
153.453
153.062
152.703
152.375
152.077
151.809
151.57
151.36
151.178
151.024
150.897
150.797
150.723
150.677
150.657
150.662
397.238
391.73
386.223
380.729
375.251
369.794
364.362
358.96
353.591
348.26
342.971
337.727
332.532
327.388
322.301
317.271
312.302
307.397
302.558
297.787
293.087
288.459
283.905
279.426
275.025
270.702
266.459
262.296
258.215
254.216
250.301
246.468
242.72
239.056
235.477
231.982
228.572
225.246
222.005
218.848
215.775
212.785
209.878
207.054
204.311
201.649
199.067
196.564
194.14
191.793
189.522
187.327
185.205
183.157
181.181
179.275
177.438
175.669
173.967
172.331
170.758
169.248
167.799
166.41
165.079
163.806
162.588
161.424
160.313
159.254
158.245
157.285
156.372
155.506
154.684
153.906
153.171
152.477
151.824
151.209
150.633
150.093
149.59
149.122
148.688
148.287
147.919
147.583
147.277
147.003
146.758
146.542
146.356
146.197
146.067
145.964
145.889
145.841
145.82
145.825
397.199
391.611
386.026
380.452
374.894
369.357
363.845
358.362
352.913
347.5
342.129
336.803
331.525
326.299
321.128
316.015
310.963
305.974
301.051
296.197
291.413
286.701
282.064
277.504
273.02
268.616
264.292
260.049
255.889
251.812
247.819
243.911
240.087
236.349
232.697
229.131
225.651
222.256
218.948
215.725
212.587
209.534
206.566
203.681
200.879
198.16
195.523
192.966
190.489
188.091
185.771
183.528
181.36
179.267
177.247
175.299
173.421
171.613
169.874
168.201
166.593
165.049
163.568
162.148
160.787
159.485
158.239
157.05
155.914
154.83
153.799
152.816
151.883
150.997
150.157
149.361
148.609
147.899
147.231
146.602
146.012
145.46
144.945
144.466
144.022
143.612
143.235
142.891
142.579
142.297
142.047
141.826
141.635
141.472
141.339
141.233
141.156
141.107
141.085
141.089
397.16
391.494
385.83
380.177
374.541
368.925
363.334
357.771
352.242
346.749
341.297
335.89
330.531
325.224
319.971
314.776
309.642
304.571
299.567
294.631
289.765
284.973
280.255
275.613
271.05
266.566
262.164
257.843
253.606
249.453
245.384
241.402
237.505
233.695
229.972
226.337
222.788
219.327
215.952
212.665
209.464
206.35
203.322
200.378
197.519
194.745
192.053
189.443
186.915
184.468
182.099
179.809
177.596
175.459
173.397
171.408
169.491
167.645
165.868
164.159
162.517
160.941
159.428
157.977
156.587
155.257
153.985
152.77
151.609
150.502
149.448
148.445
147.491
146.586
145.727
144.914
144.146
143.42
142.737
142.095
141.492
140.928
140.401
139.912
139.457
139.038
138.653
138.301
137.982
137.694
137.437
137.211
137.016
136.85
136.713
136.605
136.525
136.474
136.451
136.456
397.121
391.377
385.636
379.906
374.191
368.497
362.828
357.187
351.578
346.007
340.476
334.989
329.551
324.163
318.831
313.556
308.341
303.191
298.106
293.09
288.145
283.273
278.476
273.757
269.115
264.554
260.075
255.679
251.366
247.139
242.997
238.943
234.975
231.095
227.303
223.599
219.984
216.458
213.019
209.67
206.408
203.233
200.146
197.146
194.232
191.403
188.658
185.997
183.419
180.923
178.508
176.172
173.915
171.735
169.631
167.602
165.647
163.763
161.951
160.207
158.532
156.923
155.379
153.899
152.481
151.123
149.825
148.585
147.4
146.271
145.195
144.171
143.197
142.273
141.396
140.566
139.782
139.041
138.344
137.688
137.072
136.496
135.958
135.458
134.994
134.566
134.173
133.813
133.487
133.193
132.93
132.7
132.499
132.329
132.189
132.079
131.997
131.945
131.921
131.925
397.083
391.262
385.444
379.637
373.846
368.075
362.329
356.61
350.924
345.275
339.666