/*--------------------------------*- C++ -*----------------------------------*\
  =========                 |
  \\      /  F ield         | OpenFOAM: The Open Source CFD Toolbox
   \\    /   O peration     | Website:  https://openfoam.org
    \\  /    A nd           | Version:  10
     \\/     M anipulation  |
\*---------------------------------------------------------------------------*/
FoamFile
{
    format      ascii;
    class       volScalarField;
    location    "0.1";
    object      T;
}
// * * * * * * * * * * * * * * * * * * * * * * * * * * * * * * * * * * * * * //

dimensions      [0 0 0 1 0 0 0];

internalField   nonuniform List<scalar> 
12225
(
1.00694
1.00397
1.00144
1.00053
1.00001
0.99965
0.999458
0.99937
0.999324
0.999294
0.999273
0.999243
0.99919
0.999061
0.998738
0.997981
0.995905
0.991436
0.994965
0.99447
0.996349
0.997908
0.99867
0.998979
0.999136
0.99924
0.999303
0.999336
0.999348
0.999343
0.999302
0.999184
0.998875
0.998148
0.996294
0.992101
0.999592
0.99992
1
0.999967
0.999819
0.999637
0.999514
0.999449
0.999411
0.999381
0.999355
0.999323
0.999267
0.999144
0.998849
0.998174
0.996564
0.9932
1.00032
1.00007
0.999547
0.99942
0.999421
0.999388
0.999355
0.999342
0.999335
0.999327
0.999315
0.999294
0.999247
0.999139
0.998877
0.998286
0.996967
0.994366
1.00013
0.999833
0.999434
0.999387
0.999436
0.999423
0.999388
0.999365
0.99935
0.999334
0.999316
0.99929
0.999242
0.99914
0.998909
0.998409
0.997364
0.995425
0.999993
0.999846
0.999578
0.999496
0.999494
0.99946
0.999412
0.999377
0.999351
0.999328
0.999304
0.999274
0.999225
0.999131
0.998934
0.998528
0.997729
0.996326
0.999975
0.999925
0.999719
0.999592
0.999547
0.999499
0.999444
0.999399
0.999363
0.999332
0.999301
0.999265
0.999216
0.999131
0.998966
0.998647
0.998055
0.997065
0.999983
0.999963
0.999798
0.999661
0.999596
0.999539
0.999477
0.999423
0.999379
0.999339
0.999302
0.999261
0.999209
0.999131
0.998991
0.998735
0.998284
0.997555
0.999986
0.999973
0.99984
0.999706
0.999627
0.99956
0.999491
0.99943
0.999378
0.999332
0.999288
0.999243
0.999191
0.999118
0.998998
0.998791
0.998442
0.997896
0.999984
0.999963
0.999852
0.999723
0.999631
0.999554
0.999478
0.99941
0.999351
0.999299
0.999249
0.9992
0.999147
0.999079
0.998977
0.998815
0.998554
0.998158
0.99998
0.999942
0.99984
0.999715
0.999612
0.999524
0.999441
0.999366
0.9993
0.999242
0.999188
0.999136
0.999082
0.999019
0.998933
0.998807
0.998618
0.998343
0.999976
0.999921
0.999818
0.999694
0.999583
0.999486
0.999398
0.999317
0.999246
0.999182
0.999124
0.999069
0.999016
0.998957
0.998884
0.998788
0.998655
0.99847
0.999975
0.999912
0.999811
0.99969
0.999577
0.999476
0.999384
0.9993
0.999224
0.999157
0.999098
0.999042
0.998988
0.998933
0.998873
0.998799
0.998706
0.998586
0.999978
0.999919
0.999828
0.999717
0.99961
0.999512
0.999421
0.999338
0.999264
0.999197
0.999138
0.999084
0.999032
0.998982
0.998933
0.998876
0.998812
0.998735
0.999982
0.999936
0.999861
0.999769
0.999677
0.99959
0.999511
0.999438
0.99937
0.999309
0.999255
0.999207
0.999163
0.999121
0.999079
0.999037
0.998994
0.998947
0.999987
0.999957
0.999905
0.99984
0.999774
0.999712
0.999654
0.9996
0.999549
0.999503
0.999462
0.999427
0.999396
0.999365
0.999335
0.999307
0.99928
0.999254
0.999993
0.999986
0.999968
0.999941
0.999912
0.999886
0.999864
0.999841
0.99982
0.999801
0.999783
0.999768
0.999756
0.999745
0.999733
0.999721
0.999711
0.999701
1
1.00003
1.00005
1.00007
1.00009
1.00011
1.00013
1.00015
1.00017
1.00018
1.0002
1.00021
1.00022
1.00023
1.00024
1.00025
1.00025
1.00026
1.00001
1.00006
1.00011
1.00017
1.00022
1.00028
1.00034
1.00039
1.00043
1.00048
1.00051
1.00055
1.00058
1.0006
1.00063
1.00065
1.00067
1.00068
1.00001
1.00006
1.00012
1.00019
1.00026
1.00033
1.00039
1.00046
1.00052
1.00057
1.00062
1.00067
1.00071
1.00075
1.00078
1.00081
1.00084
1.00086
1.00001
1.00006
1.00012
1.00018
1.00025
1.00031
1.00038
1.00045
1.00051
1.00057
1.00062
1.00068
1.00072
1.00077
1.00081
1.00085
1.00088
1.00091
1.00001
1.00006
1.00012
1.00017
1.00023
1.0003
1.00036
1.00043
1.00049
1.00055
1.00061
1.00067
1.00072
1.00077
1.00081
1.00085
1.00089
1.00092
1
1.00008
1.00013
1.00016
1.00021
1.00027
1.00034
1.00041
1.00048
1.00054
1.0006
1.00066
1.00071
1.00076
1.00081
1.00085
1.00089
1.00093
0.999997
1.0001
1.00014
1.00015
1.00019
1.00026
1.00033
1.0004
1.00047
1.00054
1.00061
1.00067
1.00072
1.00077
1.00082
1.00086
1.00091
1.00094
1
1.00009
1.0001
1.00012
1.00019
1.00028
1.00035
1.00042
1.00049
1.00056
1.00063
1.00069
1.00074
1.00079
1.00084
1.00088
1.00093
1.00097
1.00014
1.00014
0.999953
0.999972
1.00014
1.00029
1.00039
1.00047
1.00055
1.00062
1.00068
1.00074
1.0008
1.00084
1.00089
1.00093
1.00097
1.00101
1.0005
1.00058
1.0001
0.999927
1.00003
1.00018
1.00031
1.00042
1.00053
1.00062
1.0007
1.00076
1.00082
1.00088
1.00093
1.00097
1.00102
1.00106
1.00004
1.00088
1.00115
1.00111
1.00099
1.00088
1.00081
1.0008
1.00082
1.00085
1.00088
1.00092
1.00096
1.00099
1.00103
1.00106
1.0011
1.00113
0.994517
0.993822
0.99606
0.998048
0.999185
0.99978
1.00015
1.0004
1.00059
1.00072
1.00083
1.00091
1.00098
1.00104
1.00109
1.00114
1.00118
1.00121
1.00648
1.00454
1.00223
1.0015
1.00119
1.00097
1.00088
1.00087
1.00089
1.00092
1.00096
1.00099
1.00103
1.00107
1.0011
1.00114
1.00117
1.00122
0.805639
0.805651
0.805625
0.805589
0.80556
0.805534
0.805506
0.805478
0.805454
0.805433
0.805415
0.805401
0.80539
0.805382
0.805377
0.805375
0.805378
0.805385
0.805397
0.805416
0.805443
0.805477
0.80552
0.805573
0.805637
0.805712
0.805797
0.805891
0.805992
0.8061
0.80623
0.806411
0.806723
0.807307
0.807891
0.808273
0.808659
0.808996
0.809307
0.809599
0.809843
0.810134
0.810515
0.810855
0.811222
0.811668
0.812117
0.812584
0.813066
0.813563
0.814071
0.81459
0.815118
0.815656
0.8162
0.816752
0.81731
0.817874
0.818442
0.819014
0.81959
0.820168
0.820748
0.82133
0.821913
0.822497
0.82308
0.823662
0.824244
0.824824
0.825402
0.825978
0.826551
0.827121
0.827688
0.828252
0.828811
0.829366
0.829917
0.830463
0.831005
0.831542
0.832074
0.8326
0.833121
0.833637
0.834147
0.834652
0.835151
0.835645
0.836134
0.836616
0.837093
0.837564
0.838028
0.838485
0.838934
0.839372
0.839807
0.840239
0.840664
0.841083
0.841495
0.841901
0.8423
0.842692
0.843077
0.843455
0.843826
0.84419
0.844548
0.844898
0.845241
0.845576
0.845905
0.846226
0.846541
0.846847
0.847146
0.847438
0.847721
0.847997
0.848264
0.848522
0.848771
0.849011
0.849243
0.849466
0.84968
0.849886
0.850084
0.850273
0.850454
0.850626
0.85079
0.850946
0.851093
0.851231
0.851362
0.851484
0.851599
0.851704
0.851801
0.851888
0.851965
0.852033
0.852091
0.852139
0.852177
0.852204
0.852222
0.852229
0.852226
0.852213
0.85219
0.852157
0.852114
0.85206
0.851996
0.851922
0.851837
0.851739
0.851621
0.851468
0.851285
0.851088
0.850883
0.850671
0.850452
0.850227
0.849994
0.849753
0.849503
0.849242
0.848969
0.848673
0.848377
0.847943
0.84777
0.846182
0.806134
0.806134
0.806137
0.806132
0.806129
0.806128
0.806126
0.80612
0.80611
0.806096
0.806079
0.806062
0.806046
0.806033
0.806024
0.806021
0.806023
0.806033
0.80605
0.806077
0.806114
0.806164
0.806228
0.80631
0.806412
0.80654
0.806698
0.80689
0.80712
0.807389
0.807687
0.807994
0.808286
0.808365
0.808325
0.808461
0.808682
0.808978
0.809327
0.809702
0.810121
0.81054
0.810908
0.811324
0.81179
0.812234
0.812684
0.813145
0.813619
0.814106
0.814606
0.815117
0.815638
0.816168
0.816706
0.817251
0.817802
0.81836
0.818921
0.819487
0.820056
0.820629
0.821203
0.821779
0.822356
0.822933
0.82351
0.824086
0.824661
0.825235
0.825807
0.826376
0.826943
0.827507
0.828068
0.828625
0.829178
0.829727
0.830271
0.830811
0.831346
0.831876
0.8324
0.83292
0.833434
0.833943
0.834445
0.834943
0.835434
0.83592
0.8364
0.836873
0.837341
0.837802
0.838258
0.838708
0.839153
0.839595
0.840029
0.840453
0.84087
0.84128
0.841683
0.84208
0.842469
0.84285
0.843225
0.843593
0.843954
0.844307
0.844654
0.844992
0.845324
0.845649
0.845966
0.846275
0.846578
0.846872
0.847159
0.847438
0.847709
0.847972
0.848226
0.848471
0.848706
0.848933
0.849151
0.849361
0.849561
0.849754
0.849937
0.850112
0.850278
0.850436
0.850585
0.850725
0.850857
0.85098
0.851095
0.851201
0.851299
0.851388
0.851468
0.851538
0.851598
0.851649
0.851689
0.851718
0.851738
0.851747
0.851745
0.851733
0.851711
0.851678
0.851634
0.85158
0.851516
0.851441
0.851355
0.851258
0.85115
0.851029
0.850899
0.850762
0.850616
0.850458
0.85029
0.850112
0.849926
0.849731
0.849527
0.849314
0.849091
0.848857
0.848612
0.848347
0.848078
0.847704
0.847491
0.846383
0.807237
0.807187
0.80717
0.807161
0.807154
0.807143
0.807128
0.80711
0.807088
0.807065
0.80704
0.807016
0.806993
0.806973
0.806957
0.806946
0.806942
0.806944
0.806955
0.806976
0.807008
0.807053
0.807111
0.807186
0.807277
0.807388
0.807516
0.80766
0.807819
0.807987
0.808165
0.808354
0.808561
0.808765
0.808968
0.809197
0.809445
0.809721
0.810029
0.810368
0.810744
0.811155
0.811584
0.812026
0.812472
0.812919
0.813374
0.813838
0.814314
0.8148
0.815296
0.815803
0.816319
0.816844
0.817377
0.817917
0.818463
0.819015
0.819572
0.820132
0.820697
0.821264
0.821834
0.822405
0.822978
0.823551
0.824124
0.824696
0.825268
0.825839
0.826407
0.826973
0.827538
0.828099
0.828657
0.829211
0.829762
0.830309
0.830851
0.831389
0.831923
0.832451
0.832974
0.833493
0.834006
0.834513
0.835015
0.835512
0.836002
0.836488
0.836967
0.837441
0.837908
0.83837
0.838825
0.839273
0.839715
0.840152
0.840581
0.841004
0.841421
0.84183
0.842233
0.842629
0.843017
0.843399
0.843773
0.844141
0.844501
0.844854
0.845199
0.845538
0.845869
0.846193
0.846509
0.846818
0.847119
0.847413
0.847698
0.847976
0.848246
0.848507
0.848759
0.849003
0.849237
0.849462
0.849678
0.849885
0.850084
0.850274
0.850455
0.850627
0.85079
0.850945
0.851091
0.851228
0.851356
0.851476
0.851587
0.851689
0.851783
0.851867
0.851942
0.852007
0.852062
0.852106
0.85214
0.852164
0.852177
0.852179
0.852171
0.852152
0.852123
0.852082
0.852031
0.851969
0.851896
0.851813
0.851719
0.851614
0.851499
0.851373
0.851239
0.851101
0.850959
0.850807
0.850645
0.850474
0.850293
0.850103
0.849905
0.849696
0.849478
0.849248
0.849006
0.848744
0.848473
0.848112
0.847866
0.847045
0.808873
0.808775
0.808729
0.808707
0.808686
0.80866
0.80863
0.808597
0.808562
0.808527
0.808491
0.808455
0.808422
0.808392
0.808367
0.808346
0.808332
0.808326
0.808328
0.80834
0.808364
0.808399
0.808448
0.808511
0.808589
0.808682
0.808791
0.808915
0.809053
0.809206
0.809376
0.809565
0.809771
0.809987
0.810212
0.810459
0.810725
0.811009
0.811313
0.811636
0.811982
0.812349
0.812733
0.813136
0.813555
0.813985
0.814428
0.814882
0.815348
0.815824
0.816311
0.816808
0.817315
0.817829
0.818352
0.818881
0.819418
0.81996
0.820507
0.821059
0.821614
0.822173
0.822734
0.823297
0.823862
0.824427
0.824993
0.825559
0.826125
0.826689
0.827252
0.827813
0.828372
0.828929
0.829483
0.830033
0.830581
0.831124
0.831664
0.8322
0.832731
0.833258
0.83378
0.834297
0.83481
0.835317
0.835819
0.836315
0.836807
0.837293
0.837773
0.838248
0.838717
0.83918
0.839637
0.840088
0.840533
0.840972
0.841404
0.84183
0.842249
0.842661
0.843067
0.843465
0.843857
0.844242
0.844619
0.84499
0.845353
0.84571
0.846059
0.846401
0.846736
0.847063
0.847383
0.847695
0.848
0.848297
0.848586
0.848867
0.84914
0.849404
0.849659
0.849905
0.850142
0.85037
0.850589
0.850799
0.851
0.851192
0.851375
0.851549
0.851714
0.85187
0.852018
0.852156
0.852285
0.852405
0.852517
0.852619
0.852713
0.852796
0.852871
0.852934
0.852988
0.853031
0.853063
0.853085
0.853096
0.853096
0.853086
0.853064
0.853031
0.852988
0.852933
0.852868
0.852792
0.852705
0.852608
0.852499
0.852381
0.852253
0.852116
0.851973
0.851824
0.851666
0.851499
0.851323
0.851138
0.850944
0.850741
0.850528
0.850305
0.850071
0.849823
0.849555
0.849272
0.84891
0.84864
0.847954
0.810997
0.810855
0.810786
0.810752
0.810721
0.810682
0.810637
0.81059
0.81054
0.810489
0.810438
0.810388
0.81034
0.810296
0.810256
0.810221
0.810193
0.810172
0.81016
0.810158
0.810167
0.810187
0.810219
0.810266
0.810326
0.810401
0.810492
0.810599
0.810722
0.810862
0.81102
0.811196
0.811388
0.811594
0.811815
0.812054
0.812312
0.812589
0.812883
0.813196
0.813528
0.813876
0.814242
0.814624
0.815023
0.815435
0.815861
0.8163
0.816751
0.817213
0.817686
0.818169
0.818662
0.819163
0.819672
0.820189
0.820712
0.821241
0.821776
0.822316
0.822859
0.823406
0.823957
0.82451
0.825064
0.82562
0.826177
0.826734
0.827291
0.827848
0.828403
0.828958
0.82951
0.830061
0.830609
0.831155
0.831698
0.832238
0.832774
0.833306
0.833835
0.834359
0.834879
0.835395
0.835906
0.836413
0.836914
0.837411
0.837902
0.838388
0.83887
0.839346
0.839816
0.84028
0.840739
0.841192
0.841639
0.84208
0.842515
0.842944
0.843366
0.843781
0.84419
0.844592
0.844987
0.845376
0.845757
0.846131
0.846499
0.84686
0.847213
0.847559
0.847898
0.848229
0.848553
0.848869
0.849178
0.849479
0.849772
0.850057
0.850334
0.850602
0.85086
0.85111
0.85135
0.851581
0.851803
0.852016
0.85222
0.852415
0.8526
0.852776
0.852943
0.853101
0.853249
0.853389
0.853519
0.85364
0.853752
0.853854
0.853947
0.85403
0.854104
0.854166
0.854218
0.85426
0.85429
0.854309
0.854318
0.854315
0.854302
0.854277
0.854241
0.854194
0.854136
0.854067
0.853987
0.853895
0.853794
0.853681
0.853558
0.853426
0.853285
0.853136
0.852979
0.852815
0.852641
0.852459
0.852267
0.852067
0.851858
0.85164
0.851411
0.851171
0.850917
0.850642
0.85035
0.849985
0.849705
0.849065
0.813612
0.813438
0.813351
0.813308
0.813266
0.813214
0.813155
0.813092
0.813026
0.812959
0.812891
0.812824
0.812759
0.812696
0.812639
0.812586
0.81254
0.812502
0.812472
0.812452
0.812442
0.812444
0.812458
0.812485
0.812527
0.812584
0.812656
0.812745
0.812851
0.812975
0.813116
0.813275
0.813451
0.813642
0.813849
0.814074
0.814317
0.814579
0.814858
0.815156
0.815471
0.815803
0.816152
0.816516
0.816896
0.81729
0.817697
0.818118
0.81855
0.818994
0.81945
0.819915
0.82039
0.820874
0.821366
0.821866
0.822373
0.822886
0.823405
0.823929
0.824458
0.824991
0.825527
0.826066
0.826608
0.827151
0.827696
0.828242
0.828788
0.829334
0.82988
0.830425
0.830969
0.831512
0.832053
0.832592
0.833128
0.833662
0.834192
0.83472
0.835244
0.835765
0.836281
0.836794
0.837303
0.837807
0.838307
0.838802
0.839293
0.839779
0.84026
0.840736
0.841207
0.841672
0.842132
0.842586
0.843035
0.843478
0.843915
0.844346
0.844771
0.845189
0.845601
0.846006
0.846404
0.846796
0.847181
0.847559
0.847931
0.848295
0.848652
0.849002
0.849345
0.84968
0.850009
0.850329
0.850641
0.850946
0.851243
0.851532
0.851812
0.852083
0.852345
0.852598
0.852841
0.853076
0.8533
0.853516
0.853722
0.853919
0.854106
0.854284
0.854452
0.854611
0.85476
0.8549
0.855031
0.855152
0.855263
0.855365
0.855457
0.855539
0.85561
0.855671
0.855721
0.855759
0.855786
0.855803
0.855808
0.855801
0.855783
0.855754
0.855714
0.855662
0.855599
0.855525
0.855439
0.855343
0.855235
0.855117
0.854989
0.85485
0.854703
0.854547
0.854384
0.854212
0.854031
0.853842
0.853644
0.853437
0.853222
0.852997
0.852763
0.852516
0.852256
0.851975
0.851675
0.851308
0.851021
0.850382
0.816728
0.816539
0.816441
0.816388
0.816334
0.816268
0.816195
0.816116
0.816033
0.815948
0.815862
0.815776
0.815691
0.815609
0.815532
0.815459
0.815393
0.815334
0.815284
0.815244
0.815214
0.815195
0.815189
0.815197
0.815219
0.815256
0.815309
0.815378
0.815465
0.815569
0.815691
0.81583
0.815986
0.816159
0.816348
0.816555
0.81678
0.817023
0.817283
0.817561
0.817856
0.818168
0.818496
0.818839
0.819197
0.819569
0.819955
0.820353
0.820764
0.821187
0.82162
0.822064
0.822518
0.822981
0.823452
0.823932
0.824418
0.824912
0.825412
0.825917
0.826428
0.826943
0.827462
0.827984
0.828509
0.829037
0.829567
0.830098
0.830631
0.831164
0.831697
0.83223
0.832763
0.833295
0.833826
0.834355
0.834883
0.835408
0.835932
0.836452
0.83697
0.837485
0.837996
0.838504
0.839009
0.839509
0.840006
0.840499
0.840987
0.841471
0.84195
0.842425
0.842895
0.843361
0.84382
0.844275
0.844724
0.845168
0.845607
0.846039
0.846465
0.846886
0.8473
0.847707
0.848109
0.848503
0.848891
0.849272
0.849647
0.850015
0.850375
0.850729
0.851075
0.851414
0.851745
0.852069
0.852386
0.852694
0.852994
0.853286
0.853569
0.853844
0.854109
0.854364
0.85461
0.854847
0.855074
0.855292
0.8555
0.855698
0.855887
0.856066
0.856235
0.856395
0.856544
0.856684
0.856814
0.856935
0.857045
0.857146
0.857236
0.857316
0.857384
0.857442
0.857488
0.857524
0.857547
0.857559
0.85756
0.857548
0.857526
0.857491
0.857445
0.857388
0.857318
0.857238
0.857146
0.857043
0.856929
0.856804
0.856669
0.856524
0.856369
0.856206
0.856034
0.855854
0.855666
0.855469
0.855264
0.85505
0.854827
0.854596
0.854355
0.854102
0.853835
0.853547
0.853241
0.85287
0.852576
0.851917
0.820374
0.820179
0.820072
0.820009
0.819943
0.819864
0.819775
0.81968
0.819579
0.819476
0.81937
0.819264
0.819159
0.819056
0.818957
0.818863
0.818775
0.818694
0.818622
0.81856
0.818508
0.818468
0.81844
0.818426
0.818427
0.818442
0.818474
0.818522
0.818587
0.818669
0.818768
0.818885
0.819019
0.81917
0.819338
0.819523
0.819726
0.819946
0.820183
0.820438
0.820709
0.820997
0.8213
0.821619
0.821952
0.822298
0.822659
0.823032
0.823417
0.823814
0.824222
0.82464
0.825069
0.825507
0.825954
0.826409
0.826872
0.827342
0.827818
0.828301
0.82879
0.829283
0.829781
0.830283
0.830789
0.831297
0.831809
0.832322
0.832837
0.833354
0.833872
0.83439
0.834908
0.835426
0.835944
0.836462
0.836978
0.837492
0.838005
0.838516
0.839025
0.839531
0.840035
0.840536
0.841034
0.841529
0.84202
0.842508
0.842992
0.843472
0.843948
0.84442
0.844887
0.845351
0.845809
0.846262
0.846711
0.847154
0.847592
0.848025
0.848451
0.848872
0.849287
0.849696
0.850099
0.850495
0.850885
0.851268
0.851645
0.852015
0.852378
0.852734
0.853083
0.853425
0.853759
0.854085
0.854404
0.854716
0.855018
0.855313
0.855598
0.855875
0.856142
0.8564
0.856648
0.856887
0.857116
0.857335
0.857544
0.857743
0.857933
0.858112
0.858282
0.858441
0.85859
0.858729
0.858858
0.858977
0.859086
0.859184
0.859272
0.859349
0.859414
0.859468
0.859511
0.859542
0.85956
0.859567
0.859563
0.859546
0.859517
0.859477
0.859424
0.85936
0.859284
0.859196
0.859097
0.858986
0.858865
0.858732
0.858589
0.858436
0.858273
0.858102
0.857922
0.857733
0.857536
0.85733
0.857117
0.856895
0.856664
0.856426
0.856177
0.855917
0.855644
0.85535
0.855038
0.854662
0.85436
0.853673
0.824581
0.824383
0.824269
0.824196
0.824116
0.824023
0.823919
0.823807
0.823688
0.823565
0.823439
0.823312
0.823185
0.82306
0.822939
0.822822
0.822711
0.822608
0.822512
0.822427
0.822352
0.822288
0.822238
0.822201
0.822178
0.82217
0.822178
0.822203
0.822243
0.822301
0.822376
0.822468
0.822577
0.822703
0.822846
0.823006
0.823183
0.823377
0.823587
0.823815
0.824059
0.824318
0.824593
0.824883
0.825187
0.825504
0.825835
0.826179
0.826534
0.826902
0.82728
0.827669
0.828069
0.828478
0.828896
0.829322
0.829757
0.8302
0.830649
0.831105
0.831567
0.832035
0.832508
0.832986
0.833468
0.833954
0.834442
0.834934
0.835429
0.835925
0.836423
0.836923
0.837423
0.837924
0.838426
0.838927
0.839428
0.839928
0.840427
0.840926
0.841423
0.841918
0.842411
0.842901
0.84339
0.843876
0.844359
0.844839
0.845316
0.84579
0.84626
0.846726
0.847189
0.847648
0.848102
0.848552
0.848997
0.849438
0.849874
0.850304
0.85073
0.851149
0.851564
0.851972
0.852374
0.85277
0.853161
0.853544
0.853921
0.854292
0.854656
0.855013
0.855363
0.855706
0.856042
0.85637
0.85669
0.857002
0.857307
0.857602
0.857889
0.858167
0.858435
0.858694
0.858943
0.859183
0.859412
0.859632
0.859841
0.860041
0.86023
0.860409
0.860577
0.860736
0.860883
0.861021
0.861148
0.861265
0.861371
0.861466
0.86155
0.861623
0.861685
0.861734
0.861772
0.861797
0.861811
0.861812
0.861801
0.861778
0.861742
0.861695
0.861635
0.861563
0.861479
0.861384
0.861276
0.861157
0.861027
0.860886
0.860734
0.860573
0.860401
0.86022
0.860031
0.859832
0.859626
0.859412
0.859189
0.858958
0.85872
0.858473
0.858217
0.85795
0.85767
0.857371
0.857053
0.856671
0.85636
0.855645
0.829376
0.829179
0.829059
0.828974
0.828881
0.828773
0.828652
0.828523
0.828385
0.828242
0.828096
0.827947
0.827798
0.827651
0.827506
0.827366
0.827231
0.827103
0.826984
0.826874
0.826774
0.826686
0.826611
0.826549
0.826501
0.826469
0.826451
0.82645
0.826464
0.826496
0.826543
0.826608
0.826689
0.826787
0.826902
0.827033
0.82718
0.827344
0.827525
0.827721
0.827933
0.828161
0.828403
0.82866
0.828931
0.829216
0.829513
0.829823
0.830145
0.830478
0.830823
0.831178
0.831544
0.83192
0.832305
0.832698
0.833101
0.833511
0.833929
0.834354
0.834786
0.835223
0.835667
0.836116
0.83657
0.837028
0.83749
0.837956
0.838425
0.838897
0.839371
0.839848
0.840326
0.840806
0.841287
0.841768
0.84225
0.842732
0.843214
0.843696
0.844177
0.844657
0.845135
0.845612
0.846088
0.846561
0.847033
0.847502
0.847968
0.848432
0.848893
0.849351
0.849806
0.850257
0.850705
0.851148
0.851588
0.852023
0.852454
0.85288
0.853301
0.853717
0.854127
0.854533
0.854932
0.855326
0.855714
0.856096
0.856472
0.856841
0.857204
0.85756
0.857909
0.858251
0.858586
0.858913
0.859233
0.859546
0.859849
0.860145
0.860431
0.860708
0.860976
0.861235
0.861483
0.861722
0.861951
0.862169
0.862378
0.862576
0.862764
0.862941
0.863107
0.863263
0.863409
0.863543
0.863667
0.863781
0.863883
0.863974
0.864054
0.864122
0.864178
0.864222
0.864254
0.864273
0.86428
0.864275
0.864257
0.864226
0.864183
0.864128
0.86406
0.86398
0.863887
0.863783
0.863667
0.863539
0.863399
0.863249
0.863088
0.862917
0.862735
0.862545
0.862345
0.862137
0.861921
0.861697
0.861465
0.861225
0.860978
0.860723
0.860459
0.860185
0.859899
0.859594
0.859271
0.858884
0.858566
0.857824
0.834794
0.834599
0.834472
0.834374
0.834267
0.834143
0.834006
0.833858
0.833701
0.833538
0.83337
0.8332
0.833028
0.832857
0.832688
0.832523
0.832364
0.832211
0.832066
0.831931
0.831806
0.831692
0.831591
0.831503
0.831428
0.831368
0.831323
0.831294
0.83128
0.831282
0.8313
0.831335
0.831385
0.831452
0.831535
0.831634
0.831749
0.831879
0.832025
0.832187
0.832364
0.832555
0.832761
0.832981
0.833214
0.833461
0.83372
0.833992
0.834276
0.834571
0.834878
0.835195
0.835522
0.83586
0.836207
0.836563
0.836928
0.837302
0.837683
0.838072
0.838468
0.838871
0.839281
0.839696
0.840117
0.840543
0.840973
0.841408
0.841847
0.84229
0.842736
0.843185
0.843636
0.84409
0.844545
0.845003
0.845461
0.84592
0.84638
0.846841
0.847301
0.847761
0.848221
0.84868
0.849138
0.849595
0.850051
0.850505
0.850957
0.851407
0.851855
0.852301
0.852744
0.853184
0.85362
0.854054
0.854484
0.85491
0.855332
0.85575
0.856164
0.856573
0.856977
0.857376
0.85777
0.858159
0.858542
0.858919
0.85929
0.859655
0.860014
0.860367
0.860712
0.861051
0.861383
0.861708
0.862025
0.862334
0.862636
0.862928
0.863212
0.863487
0.863753
0.864008
0.864255
0.864491
0.864717
0.864933
0.865139
0.865334
0.865519
0.865692
0.865855
0.866008
0.866149
0.866279
0.866399
0.866508
0.866605
0.866691
0.866765
0.866827
0.866877
0.866914
0.866939
0.866951
0.866951
0.866937
0.866911
0.866873
0.866821
0.866757
0.86668
0.866591
0.866489
0.866376
0.86625
0.866112
0.865963
0.865803
0.865631
0.86545
0.865258
0.865058
0.864848
0.86463
0.864403
0.864169
0.863927
0.863678
0.863422
0.863159
0.862887
0.862606
0.862314
0.862004
0.861678
0.861287
0.860961
0.860197
0.840868
0.840676
0.840541
0.84043
0.840307
0.840167
0.840012
0.839846
0.839669
0.839485
0.839295
0.839101
0.838906
0.83871
0.838517
0.838326
0.838141
0.837963
0.837792
0.83763
0.837478
0.837337
0.837208
0.837092
0.836989
0.8369
0.836825
0.836766
0.836721
0.836692
0.836678
0.836679
0.836696
0.836728
0.836776
0.836839
0.836917
0.837011
0.837119
0.837241
0.837378
0.83753
0.837695
0.837873
0.838065
0.838269
0.838486
0.838715
0.838956
0.839208
0.839471
0.839745
0.84003
0.840324
0.840628
0.840942
0.841265
0.841596
0.841936
0.842284
0.842639
0.843002
0.843372
0.843748
0.844131
0.844519
0.844913
0.845312
0.845715
0.846123
0.846536
0.846951
0.847371
0.847793
0.848218
0.848645
0.849075
0.849506
0.849939
0.850373
0.850808
0.851243
0.851679
0.852115
0.852551
0.852987
0.853422
0.853856
0.854289
0.85472
0.855151
0.855579
0.856006
0.85643
0.856852
0.857271
0.857688
0.858101
0.85851
0.858916
0.859319
0.859717
0.86011
0.8605
0.860884
0.861264
0.861638
0.862007
0.862371
0.862728
0.86308
0.863426
0.863765
0.864098
0.864424
0.864742
0.865054
0.865358
0.865654
0.865941
0.86622
0.86649
0.866751
0.867002
0.867243
0.867475
0.867697
0.867908
0.868109
0.868299
0.868478
0.868647
0.868805
0.868951
0.869087
0.869212
0.869325
0.869428
0.869518
0.869597
0.869664
0.869719
0.869761
0.869791
0.869808
0.869812
0.869803
0.869781
0.869746
0.869698
0.869637
0.869564
0.869477
0.869378
0.869266
0.869142
0.869006
0.868858
0.868699
0.868528
0.868346
0.868154
0.867952
0.867741
0.86752
0.867292
0.867055
0.866811
0.866559
0.866301
0.866036
0.865764
0.865485
0.865197
0.8649
0.864586
0.864256
0.863863
0.863533
0.862751
0.847639
0.847448
0.847305
0.847179
0.84704
0.846882
0.846708
0.846521
0.846322
0.846116
0.845902
0.845684
0.845464
0.845243
0.845023
0.844807
0.844595
0.844389
0.844191
0.844001
0.843821
0.843651
0.843493
0.843347
0.843214
0.843094
0.842987
0.842895
0.842817
0.842754
0.842705
0.842671
0.842651
0.842646
0.842655
0.842678
0.842716
0.842768
0.842833
0.842913
0.843006
0.843113
0.843232
0.843365
0.84351
0.843668
0.843837
0.844018
0.844211
0.844415
0.84463
0.844855
0.845091
0.845337
0.845593
0.845859
0.846134
0.846418
0.84671
0.847011
0.84732
0.847637
0.847962
0.848294
0.848632
0.848977
0.849328
0.849685
0.850047
0.850414
0.850787
0.851164
0.851545
0.85193
0.852318
0.85271
0.853105
0.853502
0.853902
0.854304
0.854707
0.855113
0.855519
0.855926
0.856335
0.856743
0.857152
0.857561
0.857969
0.858377
0.858784
0.859191
0.859596
0.859999
0.860401
0.860801
0.861199
0.861594
0.861987
0.862376
0.862762
0.863145
0.863524
0.863899
0.86427
0.864636
0.864998
0.865355
0.865706
0.866053
0.866394
0.866729
0.867058
0.867381
0.867697
0.868007
0.86831
0.868605
0.868892
0.869171
0.869442
0.869704
0.869957
0.870201
0.870435
0.870659
0.870873
0.871077
0.871271
0.871454
0.871626
0.871787
0.871937
0.872077
0.872205
0.872322
0.872427
0.872522
0.872604
0.872675
0.872733
0.872779
0.872812
0.872833
0.87284
0.872835
0.872816
0.872785
0.87274
0.872682
0.872611
0.872527
0.872431
0.872321
0.872198
0.872064
0.871917
0.871758
0.871588
0.871406
0.871213
0.87101
0.870797
0.870575
0.870344
0.870105
0.869858
0.869603
0.869342
0.869074
0.868801
0.868521
0.868235
0.867941
0.867639
0.867321
0.866991
0.866596
0.866264
0.86547
0.855148
0.854957
0.854804
0.854661
0.854503
0.854325
0.85413
0.85392
0.853698
0.853466
0.853227
0.852983
0.852736
0.852488
0.85224
0.851996
0.851756
0.851521
0.851293
0.851074
0.850864
0.850664
0.850475
0.850298
0.850132
0.849979
0.849839
0.849712
0.849598
0.849498
0.849411
0.849337
0.849277
0.849231
0.849198
0.849178
0.849171
0.849177
0.849196
0.849228
0.849273
0.84933
0.849399
0.849481
0.849574
0.84968
0.849796
0.849924
0.850064
0.850214
0.850375
0.850546
0.850728
0.85092
0.851122
0.851334
0.851555
0.851785
0.852025
0.852273
0.852529
0.852794
0.853067
0.853348
0.853636
0.853931
0.854233
0.854542
0.854856
0.855177
0.855503
0.855835
0.856171
0.856512
0.856858
0.857208
0.857561
0.857918
0.858279
0.858642
0.859008
0.859377
0.859747
0.86012
0.860494
0.860869
0.861246
0.861623
0.862001
0.862379
0.862758
0.863136
0.863514
0.863891
0.864268
0.864643
0.865016
0.865388
0.865758
0.866126
0.866491
0.866853
0.867212
0.867568
0.86792
0.868269
0.868613
0.868953
0.869289
0.86962
0.869945
0.870266
0.87058
0.87089
0.871193
0.871489
0.871779
0.872062
0.872337
0.872605
0.872864
0.873115
0.873357
0.87359
0.873813
0.874027
0.874231
0.874425
0.874609
0.874782
0.874944
0.875096
0.875236
0.875366
0.875484
0.875591
0.875687
0.875771
0.875844
0.875904
0.875952
0.875988
0.876011
0.876021
0.876018
0.876002
0.875972
0.87593
0.875874
0.875805
0.875723
0.875628
0.87552
0.875399
0.875266
0.87512
0.874961
0.874791
0.87461
0.874417
0.874213
0.873999
0.873775
0.873542
0.8733
0.87305
0.872793
0.872529
0.872258
0.871981
0.871699
0.871412
0.871119
0.87082
0.870514
0.870195
0.869864
0.869471
0.869139
0.86834
0.863444
0.86325
0.863084
0.862921
0.862741
0.86254
0.862319
0.862083
0.861833
0.861573
0.861305
0.861031
0.860754
0.860475
0.860198
0.859923
0.859652
0.859386
0.859128
0.858877
0.858635
0.858403
0.858181
0.85797
0.85777
0.857582
0.857405
0.857241
0.857088
0.856948
0.85682
0.856704
0.8566
0.856509
0.856429
0.856361
0.856305
0.856261
0.856229
0.856209
0.856199
0.856202
0.856215
0.85624
0.856277
0.856324
0.856382
0.856451
0.856531
0.856622
0.856723
0.856834
0.856956
0.857088
0.857229
0.857381
0.857542
0.857712
0.857892
0.858081
0.858279
0.858485
0.8587
0.858924
0.859155
0.859393
0.85964
0.859893
0.860153
0.86042
0.860693
0.860972
0.861258
0.861548
0.861844
0.862145
0.86245
0.86276
0.863074
0.863392
0.863714
0.864039
0.864367
0.864698
0.865031
0.865367
0.865704
0.866044
0.866385
0.866727
0.86707
0.867414
0.867758
0.868103
0.868448
0.868792
0.869136
0.869479
0.86982
0.87016
0.870498
0.870834
0.871168
0.8715
0.871828
0.872154
0.872476
0.872794
0.873108
0.873419
0.873724
0.874025
0.874321
0.874612
0.874898
0.875177
0.87545
0.875716
0.875975
0.876227
0.876471
0.876707
0.876935
0.877153
0.877363
0.877563
0.877754
0.877935
0.878106
0.878266
0.878416
0.878555
0.878683
0.8788
0.878906
0.879002
0.879086
0.879158
0.879218
0.879266
0.879302
0.879326
0.879337
0.879335
0.87932
0.879292
0.87925
0.879196
0.879128
0.879047
0.878953
0.878846
0.878726
0.878593
0.878448
0.87829
0.87812
0.877939
0.877745
0.877541
0.877326
0.877101
0.876866
0.876622
0.87637
0.876109
0.875842
0.875568
0.875289
0.875003
0.874714
0.87442
0.874121
0.873818
0.873509
0.873189
0.872859
0.87247
0.872142
0.871345
0.872614
0.872412
0.872228
0.872041
0.871833
0.8716
0.871346
0.871074
0.870788
0.87049
0.870185
0.869873
0.869559
0.869243
0.868929
0.868618
0.868312
0.868011
0.867718
0.867432
0.867155
0.866888
0.86663
0.866382
0.866145
0.865918
0.865702
0.865497
0.865302
0.865118
0.864945
0.864782
0.86463
0.864489
0.864358
0.864237
0.864126
0.864026
0.863936
0.863857
0.863788
0.863729
0.863681
0.863643
0.863615
0.863598
0.863591
0.863594
0.863608
0.863632
0.863666
0.863711
0.863765
0.863829
0.863904
0.863988
0.864081
0.864185
0.864298
0.86442
0.864552
0.864693
0.864842
0.865001
0.865167
0.865342
0.865526
0.865716
0.865915
0.866121
0.866334
0.866554
0.86678
0.867013
0.867252
0.867496
0.867747
0.868002
0.868263
0.868529
0.868799
0.869073
0.869352
0.869634
0.86992
0.870209
0.870501