/*--------------------------------*- C++ -*----------------------------------*\
  =========                 |
  \\      /  F ield         | OpenFOAM: The Open Source CFD Toolbox
   \\    /   O peration     | Website:  https://openfoam.org
    \\  /    A nd           | Version:  10
     \\/     M anipulation  |
\*---------------------------------------------------------------------------*/
FoamFile
{
    format      ascii;
    class       volScalarField;
    location    "19";
    object      T;
}
// * * * * * * * * * * * * * * * * * * * * * * * * * * * * * * * * * * * * * //

dimensions      [0 0 -1 0 0 0 0];

internalField   nonuniform List<scalar> 
100
(
2.26715
6.7804
11.2335
15.5868
19.8018
23.8411
27.6687
31.2507
34.5554
37.5533
40.218
42.5256
44.4558
45.9914
47.1188
47.8279
48.1125
47.9701
47.4019
46.413
45.0121
43.2117
41.0277
38.4795
35.5899
32.3843
28.8913
25.1418
21.1692
17.0087
12.6972
8.27302
3.77541
-0.755705
-5.28011
-9.75765
-14.1486
-18.4139
-22.5158
-26.4179
-30.0854
-33.4859
-36.5892
-39.3677
-41.7968
-43.8549
-45.5238
-46.7885
-47.638
-48.0646
-48.0646
-47.638
-46.7885
-45.5237
-43.8549
-41.7968
-39.3677
-36.5892
-33.4859
-30.0854
-26.4178
-22.5158
-18.4139
-14.1485
-9.75759
-5.28004
-0.755635
3.77548
8.27309
12.6973
17.0088
21.1693
25.1419
28.8913
32.3844
35.5899
38.4796
41.0278
43.2117
45.0122
46.4131
47.402
47.9702
48.1126
47.828
47.1188
45.9914
44.4558
42.5256
40.218
37.5534
34.5554
31.2508
27.6687
23.8411
19.8018
15.5868
11.2335
6.7804
2.26715
)
;

boundaryField
{
    xmin
    {
        type            fixedValue;
        value           uniform 0;
    }
    xmax
    {
        type            fixedValue;
        value           uniform 0;
    }
    frontAndBack
    {
        type            empty;
    }
}


// ************************************************************************* //
