/*--------------------------------*- C++ -*----------------------------------*\
| =========                 |                                                 |
| \\      /  F ield         | OpenFOAM: The Open Source CFD Toolbox           |
|  \\    /   O peration     | Version:  2406                                  |
|   \\  /    A nd           | Website:  www.openfoam.com                      |
|    \\/     M anipulation  |                                                 |
\*---------------------------------------------------------------------------*/
FoamFile
{
    version     2.0;
    format      ascii;
    arch        "LSB;label=32;scalar=64";
    class       volScalarField;
    location    "18";
    object      p;
}
// * * * * * * * * * * * * * * * * * * * * * * * * * * * * * * * * * * * * * //

dimensions      [0 2 -2 0 0 0 0];

internalField   nonuniform List<scalar> 
34560
(
-9.0393263
-9.0472755
-9.0593188
-9.0764841
-9.0989242
-9.1255579
-9.1549185
-9.1864072
-9.2170121
-8.9992713
-9.0097178
-9.0256899
-9.0485052
-9.0782065
-9.1130764
-9.1506555
-9.1895656
-9.2266795
-8.9609487
-8.9739983
-8.9939433
-9.0221553
-9.0584859
-9.1005293
-9.1447298
-9.1891278
-9.2304558
-8.9213412
-8.9369853
-8.9609978
-8.9947808
-9.0378161
-9.0868591
-9.1372137
-9.186386
-9.2314772
-8.8817206
-8.8999896
-8.9280931
-8.9674265
-9.0170307
-9.0728391
-9.1291071
-9.1827545
-9.2312904
-8.8442682
-8.8648735
-8.8967283
-8.9412793
-8.9970578
-9.0591248
-9.1209035
-9.1786421
-9.2302555
-8.8097376
-8.832464
-8.8677489
-8.9170839
-8.9784982
-9.0461746
-9.112953
-9.1744292
-9.2287452
-8.7790319
-8.8036325
-8.8419502
-8.8955055
-8.9618607
-9.0343984
-9.1055116
-9.170313
-9.2270029
-8.7530238
-8.7792032
-8.8200804
-8.877188
-8.9476775
-9.0242506
-9.0989497
-9.1665355
-9.2252374
-8.7328039
-8.7601869
-8.8030376
-8.8628893
-8.936561
-9.0162252
-9.0936575
-9.1633816
-9.2236625
-8.7191132
-8.7473222
-8.7915172
-8.8532151
-8.9290058
-9.0107226
-9.0899628
-9.1611164
-9.2224836
-8.7118297
-8.7405025
-8.7854308
-8.8481144
-8.9250197
-9.0078073
-9.0879835
-9.1598782
-9.2218178
-8.7118295
-8.7405022
-8.7854306
-8.8481142
-8.9250197
-9.0078073
-9.0879835
-9.159878
-9.2218176
-8.719113
-8.7473221
-8.7915171
-8.8532151
-8.929006
-9.0107227
-9.0899627
-9.161116
-9.2224829
-8.7328039
-8.7601872
-8.8030381
-8.8628901
-8.9365619
-9.0162259
-9.0936577
-9.1633811
-9.2236613
-8.7530242
-8.779204
-8.8200818
-8.8771897
-8.9476793
-9.024252
-9.0989504
-9.1665352
-9.225236
-8.779034
-8.8036348
-8.8419529
-8.8955082
-8.961863
-9.0344002
-9.1055128
-9.1703132
-9.2270016
-8.8097413
-8.8324678
-8.8677524
-8.9170869
-8.9785007
-9.0461767
-9.1129547
-9.17443
-9.2287445
-8.8442723
-8.8648772
-8.8967316
-8.9412823
-8.9970606
-9.0591274
-9.1209056
-9.1786433
-9.2302558
-8.8817221
-8.8999914
-8.9280955
-8.9674296
-9.0170343
-9.0728427
-9.1291098
-9.1827558
-9.2312909
-8.9213427
-8.9369874
-8.9610009
-8.9947848
-9.0378207
-9.0868635
-9.1372171
-9.1863874
-9.2314772
-8.9609513
-8.9740015
-8.9939472
-9.0221598
-9.0584907
-9.1005341
-9.1447339
-9.1891298
-9.2304563
-8.9992754
-9.0097222
-9.0256946
-9.0485102
-9.0782117
-9.1130815
-9.1506607
-9.1895704
-9.2266815
-9.0393316
-9.0472809
-9.0593244
-9.0764898
-9.0989299
-9.1255633
-9.1549237
-9.1864133
-9.2170159
-9.0031271
-9.0010472
-8.9984932
-8.9947181
-8.9883949
-8.9789968
-8.9662585
-8.9504956
-8.935082
-9.0273589
-9.024515
-9.0206421
-9.0144799
-9.0042285
-8.9897887
-8.9723748
-8.9531815
-8.9356365
-9.0541741
-9.0506165
-9.0456524
-9.0374459
-9.0234956
-9.0038829
-8.9815207
-8.9587434
-8.938763
-9.0804217
-9.0761149
-9.0700827
-9.060022
-9.0427484
-9.0182853
-8.9911122
-8.964817
-8.9421343
-9.1057188
-9.100696
-9.0936091
-9.0817582
-9.0614331
-9.0324105
-9.0004934
-8.9707375
-8.9453644
-9.129407
-9.1237562
-9.1156999
-9.1021254
-9.0790524
-9.0460083
-9.009605
-8.9765538
-8.9486856
-9.1508729
-9.1446508
-9.1356957
-9.1205188
-9.0949689
-9.0585539
-9.0182314
-8.9820792
-8.9519292
-9.1696586
-9.1629546
-9.1532108
-9.136581
-9.1087945
-9.0696159
-9.0261117
-8.9870543
-8.954681
-9.1852809
-9.1781968
-9.1678103
-9.1499591
-9.1202719
-9.078828
-9.0327697
-8.9910997
-8.956613
-9.1973341
-9.1899821
-9.1791139
-9.1603075
-9.1291167
-9.0858972
-9.0378482
-8.9939888
-8.9578546
-9.205552
-9.1980142
-9.1868036
-9.1673152
-9.1350434
-9.0905286
-9.0411241
-8.9958639
-8.9586472
-9.2096779
-9.2020611
-9.1906919
-9.1708622
-9.138028
-9.0928236
-9.0427145
-8.9967786
-8.9590374
-9.2096781
-9.2020612
-9.190692
-9.1708624
-9.1380282
-9.0928237
-9.0427147
-8.9967787
-8.9590374
-9.2055526
-9.1980148
-9.1868042
-9.1673159
-9.1350441
-9.0905292
-9.0411245
-8.9958641
-8.9586472
-9.1973352
-9.1899833
-9.1791153
-9.1603089
-9.1291182
-9.0858986
-9.0378492
-8.9939893
-8.9578546
-9.1852823
-9.1781985
-9.1678123
-9.1499613
-9.1202742
-9.0788302
-9.0327714
-8.9911007
-8.956613
-9.1696607
-9.162957
-9.1532136
-9.1365839
-9.1087975
-9.0696187
-9.0261142
-8.987056
-8.9546814
-9.1508761
-9.1446541
-9.135699
-9.1205222
-9.0949723
-9.0585574
-9.0182347
-8.9820817
-8.9519304
-9.1294109
-9.1237599
-9.1157037
-9.1021293
-9.0790565
-9.0460125
-9.0096089
-8.9765569
-8.9486875
-9.1057226
-9.1007
-9.0936135
-9.081763
-9.0614383
-9.0324156
-9.0004981
-8.9707411
-8.9453666
-9.0804263
-9.0761199
-9.0700882
-9.060028
-9.0427547
-9.0182914
-8.9911175
-8.9648208
-8.9421363
-9.0541804
-9.0506231
-9.0456593
-9.0374531
-9.0235028
-9.0038899
-8.9815269
-8.9587475
-8.9387649
-9.0273666
-9.0245228
-9.02065
-9.0144879
-9.0042365
-8.9897966
-8.972382
-8.9531866
-8.9356387
-9.0031357
-9.0010559
-8.9985019
-8.9947268
-8.9884035
-8.9790052
-8.966266
-8.9505017
-8.935085
-8.3065893
-8.3060733
-8.305793
-8.3061837
-8.307277
-8.3083178
-8.3075751
-8.304459
-8.3006193
-8.3111257
-8.310416
-8.3099133
-8.3101895
-8.311323
-8.3123436
-8.3113501
-8.3077338
-8.3036569
-8.3151137
-8.3142399
-8.3136055
-8.3139678
-8.3155662
-8.317222
-8.3165396
-8.3128012
-8.3084134
-8.3178331
-8.316793
-8.3160214
-8.3164663
-8.3186006
-8.3211489
-8.321082
-8.3173393
-8.3125098
-8.3199824
-8.3188041
-8.3178987
-8.318327
-8.3207674
-8.3240586
-8.3246524
-8.3209842
-8.3158852
-8.3219637
-8.3206609
-8.3196532
-8.3200661
-8.3226038
-8.3263348
-8.3275003
-8.3239347
-8.3186673
-8.3237345
-8.3223274
-8.3212581
-8.3216977
-8.3242838
-8.3281794
-8.3297005
-8.3262761
-8.320943
-8.3253449
-8.3238583
-8.3227631
-8.3232803
-8.3259585
-8.329805
-8.3313842
-8.328181
-8.322979
-8.3267485
-8.3252053
-8.3241098
-8.3247186
-8.3275007
-8.3312547
-8.332767
-8.3298778
-8.3249893
-8.3278964
-8.326309
-8.3252251
-8.3259323
-8.3288159
-8.3324974
-8.3339586
-8.3314403
-8.3267707
-8.3287174
-8.3270971
-8.3260286
-8.3268246
-8.3298141
-8.3335085
-8.3349394
-8.3325951
-8.3280185
-8.3291329
-8.3275005
-8.3264435
-8.3272914
-8.3303511
-8.3340815
-8.3355116
-8.3332201
-8.3286559
-8.3291332
-8.3275008
-8.3264438
-8.3272918
-8.3303514
-8.3340818
-8.3355119
-8.3332203
-8.3286561
-8.3287185
-8.3270982
-8.3260297
-8.3268257
-8.3298153
-8.3335095
-8.3349402
-8.3325957
-8.3280189
-8.327898
-8.3263107
-8.3252269
-8.3259342
-8.3288178
-8.3324992
-8.3339601
-8.3314415
-8.3267713
-8.3267506
-8.3252076
-8.3241123
-8.3247213
-8.3275035
-8.3312573
-8.3327693
-8.3298796
-8.3249904
-8.3253476
-8.3238612
-8.3227662
-8.3232837
-8.3259619
-8.3298084
-8.3313874
-8.3281835
-8.3229806
-8.323738
-8.3223311
-8.3212619
-8.3217017
-8.324288
-8.3281837
-8.3297045
-8.3262794
-8.3209452
-8.3219682
-8.3206654
-8.3196578
-8.3200709
-8.3226089
-8.32634
-8.3275052
-8.3239388
-8.3186703
-8.3199878
-8.3188095
-8.3179043
-8.3183328
-8.3207736
-8.3240648
-8.3246582
-8.3209891
-8.3158888
-8.3178397
-8.3167997
-8.3160283
-8.3164735
-8.318608
-8.3211562
-8.3210889
-8.3173449
-8.3125139
-8.3151218
-8.3142482
-8.3136139
-8.3139764
-8.3155748
-8.3172305
-8.3165475
-8.3128076
-8.308418
-8.3111352
-8.3104256
-8.309923
-8.3101992
-8.3113327
-8.3123532
-8.3113589
-8.3077412
-8.3036624
-8.3065997
-8.3060838
-8.3058034
-8.3061941
-8.3072874
-8.308328
-8.3075846
-8.3044674
-8.3006261
-7.9442277
-7.9444415
-7.9446634
-7.9447499
-7.9444669
-7.9435414
-7.9424263
-7.9415608
-7.9402604
-7.9481436
-7.9483053
-7.9483972
-7.9482157
-7.9474458
-7.94569
-7.9432735
-7.9411619
-7.9393731
-7.9528075
-7.9529147
-7.9529033
-7.9525112
-7.9513537
-7.949009
-7.9457402
-7.9426855
-7.9404543
-7.9573582
-7.9574002
-7.9572943
-7.9567371
-7.955267
-7.952527
-7.9487718
-7.9451364
-7.9425223
-7.9617103
-7.9616875
-7.9614923
-7.9607912
-7.9590474
-7.9559553
-7.9518791
-7.9478934
-7.944984
-7.9656661
-7.9655952
-7.9653363
-7.9644784
-7.9624713
-7.9590358
-7.9546702
-7.9504099
-7.947221
-7.9689021
-7.9688112
-7.9685057
-7.9675169
-7.9652319
-7.9614615
-7.9568039
-7.9522886
-7.9488476
-7.9714199
-7.9713334
-7.9709922
-7.9698744
-7.967329
-7.96325
-7.9583313
-7.9536117
-7.9499766
-7.9732163
-7.973153
-7.9728074
-7.9715946
-7.9688423
-7.9645071
-7.9593863
-7.954535
-7.950771
-7.9744338
-7.9743897
-7.9740409
-7.9727615
-7.9698593
-7.9653269
-7.9600657
-7.9551606
-7.9513046
-7.9751834
-7.9751544
-7.9748028
-7.9734741
-7.9704686
-7.9658034
-7.9604561
-7.9555295
-7.9516175
-7.9755229
-7.975504
-7.9751549
-7.9738048
-7.9707496
-7.9660189
-7.9606345
-7.9556989
-7.9517574
-7.9755232
-7.9755042
-7.9751552
-7.9738051
-7.9707499
-7.9660193
-7.9606348
-7.9556991
-7.9517575
-7.9751841
-7.9751552
-7.9748037
-7.9734751
-7.9704697
-7.9658045
-7.9604571
-7.9555302
-7.9516178
-7.9744351
-7.9743911
-7.9740425
-7.9727633
-7.9698612
-7.9653288
-7.9600674
-7.9551619
-7.9513053
-7.9732183
-7.9731552
-7.9728097
-7.9715973
-7.9688451
-7.9645099
-7.9593889
-7.954537
-7.9507722
-7.9714228
-7.9713364
-7.9709955
-7.969878
-7.9673327
-7.9632537
-7.9583348
-7.9536146
-7.9499785
-7.968906
-7.9688153
-7.9685099
-7.9675214
-7.9652366
-7.9614662
-7.9568083
-7.9522924
-7.9488504
-7.965671
-7.9656003
-7.9653416
-7.9644839
-7.962477
-7.9590416
-7.9546756
-7.9504146
-7.9472248
-7.9617163
-7.9616937
-7.9614987
-7.9607979
-7.9590543
-7.9559623
-7.9518856
-7.9478992
-7.9449888
-7.9573655
-7.9574078
-7.9573021
-7.9567451
-7.9552753
-7.9525352
-7.9487796
-7.9451435
-7.9425285
-7.9528164
-7.9529238
-7.9529126
-7.9525206
-7.9513633
-7.9490185
-7.9457495
-7.9426945
-7.9404627
-7.9481541
-7.9483159
-7.9484078
-7.9482265
-7.9474567
-7.9457009
-7.9432846
-7.9411734
-7.9393845
-7.9442394
-7.9444533
-7.9446753
-7.9447619
-7.9444791
-7.943554
-7.9424395
-7.941575
-7.9402751
-7.5141977
-7.5142012
-7.5142469
-7.5143841
-7.5146644
-7.5151248
-7.5157355
-7.5163357
-7.5166486
-7.5163968
-7.5163565
-7.5163347
-7.5163784
-7.5165377
-7.5168617
-7.517287
-7.5176373
-7.5177717
-7.5186103
-7.5185382
-7.5184836
-7.5185011
-7.5186365
-7.5189198
-7.5192444
-7.5194349
-7.5194358
-7.5203033
-7.5202127
-7.5201422
-7.5201586
-7.5203216
-7.5206021
-7.5208701
-7.5209072
-7.5206809
-7.5214222
-7.5213378
-7.5212635
-7.5212542
-7.521378
-7.5216191
-7.5217993
-7.5216641
-7.5212139
-7.5221405
-7.5220692
-7.5219952
-7.5219744
-7.5220368
-7.5221964
-7.5222661
-7.5219714
-7.5213493
-7.5226311
-7.5225701
-7.5224959
-7.5224599
-7.5225082
-7.5226168
-7.5226013
-7.5221959
-7.5214457
-7.5229758
-7.5229184
-7.522855
-7.5228237
-7.522874
-7.522959
-7.5228873
-7.5223971
-7.5215354
-7.5232343
-7.5231724
-7.5231029
-7.5230778
-7.5231369
-7.5232173
-7.5231138
-7.5225597
-7.5215992
-7.5234145
-7.52335
-7.5232761
-7.5232492
-7.5233126
-7.5233973
-7.5232767
-7.5226715
-7.5216365
-7.5235292
-7.5234596
-7.523381
-7.5233525
-7.5234194
-7.5235108
-7.5233798
-7.522739
-7.5216566
-7.5235759
-7.5235053
-7.5234253
-7.5233969
-7.5234673
-7.5235649
-7.52343
-7.5227725
-7.5216682
-7.523576
-7.5235055
-7.5234255
-7.5233971
-7.5234676
-7.5235652
-7.5234303
-7.5227727
-7.5216682
-7.5235298
-7.5234603
-7.5233818
-7.5233534
-7.5234204
-7.5235118
-7.5233807
-7.5227396
-7.5216566
-7.5234156
-7.5233512
-7.5232775
-7.5232508
-7.5233144
-7.5233991
-7.5232783
-7.5226726
-7.5216367
-7.5232361
-7.5231743
-7.5231051
-7.5230803
-7.5231396
-7.52322
-7.5231162
-7.5225614
-7.5215998
-7.5229785
-7.5229213
-7.5228582
-7.5228272
-7.5228778
-7.5229628
-7.5228907
-7.5223996
-7.5215366
-7.522635
-7.5225742
-7.5225003
-7.5224647
-7.5225133
-7.5226218
-7.5226059
-7.5221994
-7.5214477
-7.5221458
-7.5220748
-7.5220011
-7.5219807
-7.5220433
-7.5222029
-7.522272
-7.521976
-7.5213522
-7.5214292
-7.521345
-7.5212711
-7.5212622
-7.5213862
-7.5216272
-7.5218067
-7.5216701
-7.521218
-7.5203122
-7.5202219
-7.5201518
-7.5201685
-7.5203317
-7.520612
-7.5208793
-7.5209149
-7.5206865
-7.5186215
-7.5185496
-7.5184953
-7.5185131
-7.5186486
-7.5189317
-7.5192556
-7.5194447
-7.5194432
-7.5164103
-7.5163701
-7.5163485
-7.5163924
-7.5165518
-7.5168757
-7.5173005
-7.5176498
-7.5177816
-7.5142129
-7.5142164
-7.5142622
-7.5143995
-7.5146798
-7.5151404
-7.5157511
-7.5163511
-7.5166622
-7.1319431
-7.1319901
-7.1320482
-7.1321044
-7.1321458
-7.1321517
-7.1321094
-7.1320269
-7.1318195
-7.1323255
-7.1323727
-7.1324163
-7.1324277
-7.1323731
-7.1322285
-7.1320201
-7.1317864
-7.1315217
-7.1329188
-7.1329612
-7.1329865
-7.1329504
-7.1328132
-7.1325638
-7.1322622
-7.1319687
-7.13173
-7.1336624
-7.1336908
-7.1336944
-7.1336202
-7.1334228
-7.133111
-7.1327545
-7.1324257
-7.1321892
-7.1345503
-7.1345616
-7.1345432
-7.1344423
-7.1342142
-7.1338699
-7.1334708
-7.1331033
-7.1328501
-7.1355247
-7.135519
-7.1354823
-7.1353716
-7.1351506
-7.1348025
-7.1343733
-7.1339618
-7.1336704
-7.1365081
-7.136488
-7.1364403
-7.1363353
-7.136132
-7.1357932
-7.1353476
-7.1348948
-7.1345484
-7.137432
-7.1374021
-7.1373494
-7.1372511
-7.1370635
-7.1367383
-7.1362825
-7.1357891
-7.1353778
-7.1382339
-7.138198
-7.1381426
-7.1380482
-7.1378759
-7.1375662
-7.1371024
-7.1365688
-7.1360904
-7.1388712
-7.1388314
-7.1387746
-7.1386856
-7.1385275
-7.1382311
-7.1377596
-7.1371883
-7.1366491
-7.1393152
-7.1392728
-7.1392156
-7.139131
-7.1389834
-7.138696
-7.1382178
-7.1376178
-7.1370334
-7.1395408
-7.1394972
-7.1394399
-7.139358
-7.1392166
-7.1389345
-7.138453
-7.137838
-7.1372302
-7.1395409
-7.1394973
-7.1394401
-7.1393583
-7.1392169
-7.1389349
-7.1384533
-7.1378382
-7.1372302
-7.1393157
-7.1392734
-7.1392163
-7.1391318
-7.1389844
-7.138697
-7.1382186
-7.1376182
-7.1370332
-7.1388722
-7.1388325
-7.1387759
-7.1386871
-7.1385293
-7.1382328
-7.137761
-7.1371891
-7.1366487
-7.1382355
-7.1381998
-7.1381446
-7.1380506
-7.1378786
-7.1375689
-7.1371047
-7.1365701
-7.1360901
-7.1374346
-7.137405
-7.1373525
-7.1372546
-7.1370673
-7.1367421
-7.1362858
-7.135791
-7.1353778
-7.1365121
-7.1364922
-7.1364449
-7.1363403
-7.1361373
-7.1357985
-7.1353521
-7.1348977
-7.1345489
-7.1355304
-7.135525
-7.1354888
-7.1353785
-7.1351578
-7.1348095
-7.1343794
-7.1339659
-7.1336718
-7.1345581
-7.1345698
-7.1345519
-7.1344515
-7.1342237
-7.1338791
-7.1334787
-7.1331089
-7.1328528
-7.133673
-7.1337018
-7.1337058
-7.133632
-7.1334347
-7.1331226
-7.1327647
-7.1324333
-7.1321934
-7.1329323
-7.1329751
-7.1330008
-7.132965
-7.1328279
-7.132578
-7.132275
-7.1319787
-7.1317362
-7.1323419
-7.1323894
-7.1324332
-7.1324448
-7.1323902
-7.1322452
-7.1320356
-7.1317994
-7.1315304
-7.1319617
-7.1320087
-7.1320668
-7.1321231
-7.1321644
-7.1321701
-7.1321272
-7.1320434
-7.1318321
-6.7383975
-6.7384002
-6.7384122
-6.7384434
-6.7385089
-6.7386218
-6.7387755
-6.7389464
-6.7390624
-6.7389165
-6.7389099
-6.7389067
-6.738917
-6.7389558
-6.7390346
-6.7391378
-6.7392352
-6.7392907
-6.7394347
-6.7394231
-6.7394139
-6.7394178
-6.7394491
-6.7395108
-6.7395787
-6.7396279
-6.7396524
-6.7398453
-6.7398307
-6.7398195
-6.7398252
-6.7398601
-6.7399095
-6.7399429
-6.7399434
-6.7399173
-6.7401379
-6.7401246
-6.7401151
-6.7401222
-6.7401481
-6.7401687
-6.7401581
-6.740106
-6.7400244
-6.7403202
-6.7403107
-6.7403038
-6.7403054
-6.7403058
-6.7402887
-6.7402328
-6.7401296
-6.7399965
-6.7404038
-6.7403982
-6.740391
-6.740379
-6.7403538
-6.7403039
-6.7402082
-6.7400603
-6.7398844
-6.7404342
-6.7404294
-6.7404182
-6.7403943
-6.7403493
-6.7402691
-6.740137
-6.7399506
-6.7397402
-6.7404405
-6.7404342
-6.7404189
-6.7403873
-6.7403254
-6.7402171
-6.7400536
-6.7398365
-6.7396001
-6.7404389
-6.7404307
-6.7404117
-6.7403726
-6.7402964
-6.7401663
-6.7399788
-6.7397392
-6.7394849
-6.7404352
-6.7404254
-6.7404034
-6.7403585
-6.7402719
-6.7401275
-6.7399242
-6.7396702
-6.7394049
-6.7404305
-6.7404202
-6.7403969
-6.7403492
-6.7402577
-6.7401067
-6.7398959
-6.7396351
-6.7393645
-6.7404306
-6.7404203
-6.7403971
-6.7403495
-6.7402581
-6.740107
-6.7398961
-6.7396352
-6.7393644
-6.7404357
-6.740426
-6.7404041
-6.7403593
-6.7402729
-6.7401286
-6.7399251
-6.7396706
-6.7394045
-6.7404398
-6.7404318
-6.7404131
-6.7403742
-6.7402982
-6.7401682
-6.7399803
-6.7397399
-6.7394843
-6.7404422
-6.7404361
-6.740421
-6.7403898
-6.7403282
-6.74022
-6.740056
-6.7398377
-6.7395996
-6.7404369
-6.7404323
-6.7404216
-6.7403981
-6.7403535
-6.7402732
-6.7401405
-6.7399526
-6.7397399
-6.7404079
-6.7404027
-6.7403959
-6.7403845
-6.7403596
-6.7403097
-6.7402131
-6.7400633
-6.7398846
-6.7403264
-6.7403173
-6.7403109
-6.740313
-6.7403137
-6.7402965
-6.7402394
-6.7401339
-6.7399977
-6.7401466
-6.7401337
-6.7401248
-6.7401325
-6.7401586
-6.7401788
-6.7401669
-6.7401121
-6.740027
-6.7398572
-6.739843
-6.7398323
-6.7398385
-6.7398735
-6.7399224
-6.7399542
-6.7399518
-6.7399218
-6.73945
-6.7394388
-6.73943
-6.7394343
-6.7394657
-6.7395268
-6.739593
-6.7396392
-6.7396595
-6.7389352
-6.7389289
-6.7389259
-6.7389364
-6.7389752
-6.7390536
-6.7391554
-6.7392503
-6.7393014
-6.7384185
-6.7384213
-6.7384333
-6.7384647
-6.7385302
-6.738643
-6.7387963
-6.7389657
-6.7390778
-6.3549551
-6.3549649
-6.3549778
-6.354992
-6.355006
-6.3550166
-6.3550261
-6.3550398
-6.3550315
-6.3550686
-6.3550772
-6.3550857
-6.3550891
-6.3550821
-6.3550623
-6.3550386
-6.3550196
-6.3549973
-6.3552278
-6.3552347
-6.3552388
-6.3552326
-6.3552099
-6.3551723
-6.3551322
-6.3551028
-6.3550896
-6.3554123
-6.355416
-6.3554152
-6.3554016
-6.3553691
-6.3553232
-6.3552765
-6.3552425
-6.3552297
-6.3556263
-6.3556261
-6.3556204
-6.355601
-6.355564
-6.3555139
-6.355462
-6.3554219
-6.3554042
-6.3558591
-6.3558554
-6.3558465
-6.3558262
-6.3557905
-6.3557402
-6.3556841
-6.355637
-6.3556106
-6.356091
-6.3560848
-6.3560741
-6.3560556
-6.3560238
-6.3559768
-6.3559199
-6.3558666
-6.3558289
-6.356308
-6.3563003
-6.3562891
-6.3562716
-6.3562437
-6.3562019
-6.3561462
-6.3560869
-6.3560361
-6.3564966
-6.356488
-6.3564766
-6.3564604
-6.3564362
-6.3563995
-6.3563451
-6.3562798
-6.3562158
-6.3566472
-6.3566382
-6.3566267
-6.3566119
-6.356591
-6.3565581
-6.3565044
-6.3564338
-6.3563581
-6.3567523
-6.356743
-6.3567317
-6.356718
-6.3566994
-6.3566691
-6.3566157
-6.356541
-6.3564567
-6.3568059
-6.3567964
-6.3567852
-6.3567722
-6.3567549
-6.3567261
-6.3566729
-6.356596
-6.3565072
-6.356806
-6.3567965
-6.3567854
-6.3567725
-6.3567553
-6.3567265
-6.3566732
-6.3565961
-6.356507
-6.3567527
-6.3567435
-6.3567323
-6.3567188
-6.3567004
-6.3566702
-6.3566166
-6.3565413
-6.3564562
-6.356648
-6.3566391
-6.3566279
-6.3566135
-6.3565928
-6.35656
-6.356506
-6.3564345
-6.3563574
-6.3564981
-6.3564898
-6.3564786
-6.3564629
-6.3564391
-6.3564024
-6.3563475
-6.3562811
-6.3562151
-6.3563105
-6.3563032
-6.3562924
-6.3562755
-6.356248
-6.3562062
-6.3561499
-6.3560889
-6.3560357
-6.3560951
-6.3560893
-6.3560792
-6.3560612
-6.3560298
-6.3559828
-6.355925
-6.3558697
-6.3558292
-6.3558653
-6.3558621
-6.3558537
-6.3558341
-6.3557987
-6.3557482
-6.3556911
-6.3556416
-6.3556119
-6.3556351
-6.3556354
-6.3556303
-6.3556116
-6.3555748
-6.3555245
-6.3554711
-6.3554284
-6.3554072
-6.3554245
-6.3554286
-6.3554283
-6.3554152
-6.3553829
-6.3553366
-6.3552884
-6.3552515
-6.355235
-6.3552435
-6.3552508
-6.3552553
-6.3552495
-6.355227
-6.3551888
-6.3551471
-6.3551151
-6.3550981
-6.3550877
-6.3550966
-6.3551053
-6.3551089
-6.355102
-6.3550819
-6.3550571
-6.3550359
-6.35501
-6.3549766
-6.3549865
-6.3549995
-6.3550138
-6.3550279
-6.3550387
-6.3550479
-6.3550607
-6.3550491
-5.9681506
-5.9681511
-5.968154
-5.9681615
-5.9681772
-5.9682038
-5.9682398
-5.9682805
-5.9683075
-5.9682702
-5.9682686
-5.9682678
-5.9682703
-5.9682791
-5.9682961
-5.9683176
-5.9683374
-5.9683471
-5.9683885
-5.9683858
-5.9683836
-5.9683842
-5.9683906
-5.9684018
-5.9684125
-5.9684194
-5.9684233
-5.9684835
-5.9684802
-5.9684775
-5.9684782
-5.9684841
-5.9684908
-5.968493
-5.9684897
-5.9684849
-5.9685545
-5.9685514
-5.9685488
-5.9685493
-5.9685519
-5.9685521
-5.9685459
-5.9685332
-5.9685189
-5.968604
-5.9686014
-5.9685987
-5.968597
-5.9685946
-5.9685885
-5.9685744
-5.9685523
-5.9685279
-5.9686348
-5.9686325
-5.9686293
-5.9686249
-5.9686181
-5.9686062
-5.9685845
-5.9685529
-5.9685185
-5.9686551
-5.9686525
-5.9686485
-5.9686423
-5.968632
-5.968614
-5.9685842
-5.9685434
-5.9684999
-5.9686691
-5.9686661
-5.9686612
-5.9686536
-5.9686402
-5.9686166
-5.9685796
-5.9685308
-5.9684797
-5.9686787
-5.9686752
-5.9686698
-5.9686609
-5.968645
-5.9686171
-5.9685744
-5.9685192
-5.9684622
-5.9686848
-5.9686811
-5.968675
-5.9686653
-5.9686476
-5.9686168
-5.9685703
-5.9685108
-5.9684498
-5.9686875
-5.9686836
-5.9686774
-5.9686672
-5.9686487
-5.9686165
-5.9685682
-5.9685065
-5.9684434
-5.9686875
-5.9686837
-5.9686775
-5.9686674
-5.968649
-5.9686169
-5.9685684
-5.9685065
-5.9684432
-5.9686851
-5.9686815
-5.9686756
-5.9686661
-5.9686486
-5.9686178
-5.9685711
-5.9685111
-5.9684492
-5.9686793
-5.9686761
-5.9686709
-5.9686624
-5.9686467
-5.9686189
-5.9685759
-5.9685198
-5.9684614
-5.9686704
-5.9686676
-5.9686632
-5.9686561
-5.968643
-5.9686195
-5.968582
-5.9685318
-5.9684788
-5.9686575
-5.9686553
-5.9686517
-5.9686461
-5.9686362
-5.9686182
-5.9685878
-5.9685452
-5.9684993
-5.9686388
-5.9686368
-5.9686342
-5.9686304
-5.968624
-5.9686122
-5.9685895
-5.9685558
-5.9685184
-5.9686101
-5.9686078
-5.9686058
-5.9686047
-5.9686027
-5.9685965
-5.9685813
-5.9685567
-5.9685288
-5.9685632
-5.9685605
-5.9685585
-5.9685596
-5.9685626
-5.9685626
-5.9685549
-5.9685396
-5.9685214
-5.9684954
-5.9684925
-5.9684903
-5.9684916
-5.9684977
-5.968504
-5.9685046
-5.9684984
-5.9684896
-5.9684038
-5.9684015
-5.9683997
-5.9684008
-5.9684073
-5.9684179
-5.9684271
-5.9684312
-5.9684309
-5.9682888
-5.9682874
-5.9682869
-5.9682896
-5.9682985
-5.968315
-5.9683353
-5.9683528
-5.9683585
-5.9681714
-5.968172
-5.9681749
-5.9681826
-5.9681983
-5.9682248
-5.9682603
-5.9682998
-5.9683234
-5.5834683
-5.5834702
-5.5834728
-5.583476
-5.5834799
-5.583485
-5.5834928
-5.5835044
-5.583512
-5.5835031
-5.5835042
-5.5835052
-5.5835054
-5.5835047
-5.5835039
-5.5835055
-5.5835104
-5.5835148
-5.5835502
-5.5835506
-5.5835504
-5.5835484
-5.5835443
-5.5835398
-5.5835377
-5.58354
-5.5835459
-5.5835991
-5.5835988
-5.5835976
-5.5835943
-5.5835886
-5.5835821
-5.5835775
-5.5835771
-5.5835815
-5.5836488
-5.5836479
-5.5836459
-5.5836419
-5.5836353
-5.5836269
-5.5836194
-5.5836155
-5.5836169
-5.5836976
-5.5836963
-5.5836939
-5.5836897
-5.5836825
-5.5836728
-5.5836626
-5.5836554
-5.5836535
-5.5837423
-5.5837408
-5.5837383
-5.5837339
-5.5837267
-5.5837164
-5.5837045
-5.5836947
-5.5836897
-5.583782
-5.5837804
-5.5837778
-5.5837734
-5.5837663
-5.5837557
-5.5837427
-5.5837308
-5.5837231
-5.5838154
-5.5838138
-5.5838112
-5.5838068
-5.5837997
-5.5837891
-5.5837753
-5.5837617
-5.5837515
-5.5838414
-5.5838398
-5.5838372
-5.5838329
-5.5838259
-5.5838152
-5.5838008
-5.583786
-5.5837737
-5.5838593
-5.5838576
-5.5838551
-5.5838509
-5.583844
-5.5838332
-5.5838184
-5.5838026
-5.5837888
-5.5838683
-5.5838667
-5.5838642
-5.58386
-5.5838532
-5.5838425
-5.5838274
-5.583811
-5.5837964
-5.5838683
-5.5838667
-5.5838643
-5.5838602
-5.5838534
-5.5838427
-5.5838276
-5.5838111
-5.5837961
-5.5838595
-5.583858
-5.5838556
-5.5838516
-5.5838448
-5.5838341
-5.5838191
-5.5838027
-5.5837881
-5.583842
-5.5838405
-5.5838382
-5.5838343
-5.5838275
-5.5838169
-5.5838021
-5.5837864
-5.5837727
-5.5838165
-5.5838152
-5.5838129
-5.583809
-5.5838023
-5.5837917
-5.5837774
-5.5837626
-5.5837504
-5.5837842
-5.5837829
-5.5837808
-5.5837769
-5.5837702
-5.5837597
-5.5837459
-5.5837323
-5.5837221
-5.583746
-5.5837449
-5.5837429
-5.5837391
-5.5837323
-5.583722
-5.5837091
-5.5836972
-5.5836892
-5.5837033
-5.5837024
-5.5837006
-5.583697
-5.5836902
-5.5836804
-5.583669
-5.5836593
-5.5836539
-5.583657
-5.5836565
-5.5836551
-5.5836518
-5.5836455
-5.5836369
-5.5836279
-5.5836213
-5.5836187
-5.5836104
-5.5836105
-5.5836099
-5.5836072
-5.5836017
-5.5835947
-5.5835886
-5.5835852
-5.5835853
-5.5835648
-5.5835657
-5.5835659
-5.5835642
-5.5835602
-5.5835552
-5.5835515
-5.5835508
-5.5835525
-5.5835209
-5.5835222
-5.5835235
-5.5835239
-5.5835232
-5.583522
-5.5835222
-5.5835246
-5.5835249
-5.5834881
-5.58349
-5.5834927
-5.583496
-5.5834999
-5.5835049
-5.5835121
-5.5835224
-5.5835266
-5.198161
-5.1981613
-5.1981622
-5.198164
-5.1981676
-5.1981733
-5.1981807
-5.1981889
-5.1981934
-5.1981869
-5.1981867
-5.1981867
-5.1981872
-5.1981889
-5.1981918
-5.1981952
-5.1981982
-5.1981992
-5.1982153
-5.1982147
-5.1982143
-5.1982142
-5.1982147
-5.1982152
-5.1982153
-5.1982152
-5.1982156
-5.1982399
-5.1982392
-5.1982385
-5.1982381
-5.1982379
-5.198237
-5.1982352
-5.1982333
-5.1982324
-5.1982607
-5.1982598
-5.1982589
-5.198258
-5.198257
-5.1982552
-5.1982523
-5.198249
-5.1982465
-5.1982783
-5.1982773
-5.198276
-5.1982746
-5.198273
-5.1982707
-5.1982671
-5.1982624
-5.1982581
-5.1982932
-5.198292
-5.1982904
-5.1982887
-5.1982867
-5.1982841
-5.1982798
-5.1982737
-5.1982673
-5.1983059
-5.1983045
-5.1983028
-5.1983008
-5.1982985
-5.1982956
-5.1982906
-5.1982831
-5.1982747
-5.1983164
-5.1983149
-5.1983129
-5.1983108
-5.1983084
-5.1983053
-5.1982997
-5.1982908
-5.1982805
-5.1983245
-5.1983228
-5.1983208
-5.1983186
-5.1983162
-5.198313
-5.1983069
-5.1982969
-5.198285
-5.19833
-5.1983283
-5.1983262
-5.198324
-5.1983216
-5.1983184
-5.198312
-5.1983011
-5.198288
-5.1983328
-5.1983311
-5.1983289
-5.1983267
-5.1983245
-5.1983213
-5.1983147
-5.1983033
-5.1982895
-5.1983328
-5.1983311
-5.198329
-5.1983269
-5.1983247
-5.1983215
-5.1983149
-5.1983033
-5.1982892
-5.1983302
-5.1983286
-5.1983266
-5.1983245
-5.1983223
-5.1983192
-5.1983126
-5.1983012
-5.1982873
-5.1983249
-5.1983234
-5.1983216
-5.1983197
-5.1983176
-5.1983144
-5.198308
-5.1982971
-5.1982839
-5.1983173
-5.198316
-5.1983144
-5.1983127
-5.1983106
-5.1983076
-5.1983015
-5.1982914
-5.1982792
-5.1983077
-5.1983066
-5.1983053
-5.1983038
-5.198302
-5.198299
-5.1982934
-5.1982842
-5.1982735
-5.1982963
-5.1982955
-5.1982944
-5.1982933
-5.1982917
-5.198289
-5.1982838
-5.1982757
-5.1982666
-5.1982833
-5.1982827
-5.198282
-5.1982811
-5.1982799
-5.1982775
-5.1982727
-5.1982657
-5.1982583
-5.1982681
-5.1982676
-5.1982672
-5.1982669
-5.1982662
-5.1982641
-5.1982599
-5.198254
-5.1982481
-5.1982502
-5.1982498
-5.1982496
-5.1982497
-5.1982498
-5.1982484
-5.1982452
-5.1982405
-5.1982359
-5.1982287
-5.1982285
-5.1982284
-5.1982287
-5.1982293
-5.1982294
-5.1982279
-5.1982253
-5.198222
-5.1982033
-5.1982033
-5.1982035
-5.1982043
-5.198206
-5.1982086
-5.1982108
-5.1982118
-5.1982091
-5.1981793
-5.1981797
-5.1981807
-5.1981826
-5.1981862
-5.198192
-5.1981991
-5.1982065
-5.1982078
-4.8131294
-4.8131295
-4.8131298
-4.8131304
-4.8131317
-4.8131339
-4.8131374
-4.8131421
-4.8131454
-4.8131413
-4.8131411
-4.8131409
-4.8131408
-4.813141
-4.813142
-4.8131442
-4.8131473
-4.81315
-4.8131545
-4.8131543
-4.8131539
-4.8131534
-4.813153
-4.8131531
-4.8131541
-4.8131562
-4.813159
-4.8131664
-4.8131662
-4.8131657
-4.8131651
-4.8131643
-4.8131637
-4.8131638
-4.8131649
-4.813167
-4.8131772
-4.8131769
-4.8131764
-4.8131756
-4.8131744
-4.813173
-4.813172
-4.8131718
-4.8131728
-4.8131869
-4.8131866
-4.8131861
-4.8131851
-4.8131836
-4.8131814
-4.813179
-4.8131774
-4.813177
-4.8131954
-4.8131951
-4.8131945
-4.8131934
-4.8131916
-4.8131886
-4.813185
-4.8131819
-4.8131802
-4.8132026
-4.8132022
-4.8132017
-4.8132005
-4.8131983
-4.8131946
-4.8131899
-4.8131855
-4.8131826
-4.8132084
-4.8132081
-4.8132075
-4.8132062
-4.8132038
-4.8131995
-4.8131938
-4.8131883
-4.8131843
-4.8132128
-4.8132125
-4.8132119
-4.8132106
-4.813208
-4.8132033
-4.8131968
-4.8131903
-4.8131856
-4.8132158
-4.8132155
-4.8132149
-4.8132136
-4.8132108
-4.8132058
-4.8131988
-4.8131917
-4.8131863
-4.8132173
-4.813217
-4.8132164
-4.8132151
-4.8132123
-4.8132072
-4.8131999
-4.8131924
-4.8131865
-4.8132173
-4.8132171
-4.8132165
-4.8132153
-4.8132125
-4.8132074
-4.8132001
-4.8131924
-4.8131863
-4.813216
-4.8132158
-4.8132153
-4.8132141
-4.8132115
-4.8132065
-4.8131993
-4.8131918
-4.8131857
-4.8132132
-4.8132131
-4.8132127
-4.8132116
-4.8132092
-4.8132045
-4.8131978
-4.8131906
-4.8131847
-4.8132092
-4.8132091
-4.8132088
-4.8132079
-4.8132057
-4.8132015
-4.8131954
-4.8131888
-4.8131834
-4.8132042
-4.8132041
-4.8132039
-4.8132031
-4.8132013
-4.8131976
-4.8131923
-4.8131865
-4.8131818
-4.8131981
-4.8131981
-4.813198
-4.8131974
-4.8131958
-4.8131928
-4.8131884
-4.8131837
-4.8131798
-4.8131913
-4.8131913
-4.8131912
-4.8131907
-4.8131895
-4.8131872
-4.8131839
-4.8131803
-4.8131774
-4.8131835
-4.8131836
-4.8131835
-4.8131832
-4.8131823
-4.8131807
-4.8131785
-4.8131762
-4.8131743
-4.8131752
-4.8131753
-4.8131753
-4.813175
-4.8131744
-4.8131735
-4.8131723
-4.8131711
-4.8131703
-4.8131659
-4.813166
-4.813166
-4.8131658
-4.8131654
-4.8131651
-4.8131649
-4.8131649
-4.8131648
-4.8131553
-4.8131553
-4.8131553
-4.8131554
-4.8131556
-4.8131563
-4.8131576
-4.8131591
-4.8131589
-4.813145
-4.8131452
-4.8131455
-4.8131463
-4.8131476
-4.81315
-4.8131534
-4.8131574
-4.813158
-4.4281098
-4.4281099
-4.4281101
-4.4281104
-4.4281111
-4.4281121
-4.4281136
-4.4281157
-4.428117
-4.4281158
-4.4281158
-4.4281157
-4.4281157
-4.4281157
-4.4281159
-4.4281165
-4.4281175
-4.4281185
-4.428123
-4.4281229
-4.4281227
-4.4281224
-4.428122
-4.4281216
-4.4281215
-4.428122
-4.4281231
-4.4281305
-4.4281302
-4.4281299
-4.4281294
-4.4281288
-4.4281281
-4.4281277
-4.4281278
-4.4281287
-4.4281382
-4.4281378
-4.4281373
-4.4281367
-4.428136
-4.4281353
-4.4281347
-4.4281345
-4.428135
-4.4281459
-4.4281454
-4.4281448
-4.4281442
-4.4281435
-4.4281429
-4.4281423
-4.4281418
-4.4281418
-4.4281531
-4.4281526
-4.428152
-4.4281513
-4.4281508
-4.4281503
-4.4281497
-4.4281491
-4.4281487
-4.4281596
-4.428159
-4.4281584
-4.4281578
-4.4281574
-4.4281571
-4.4281566
-4.4281559
-4.4281551
-4.428165
-4.4281645
-4.4281639
-4.4281633
-4.428163
-4.4281629
-4.4281625