/*--------------------------------*- C++ -*----------------------------------*\
| =========                 |                                                 |
| \\      /  F ield         | OpenFOAM: The Open Source CFD Toolbox           |
|  \\    /   O peration     | Version:  2406                                  |
|   \\  /    A nd           | Website:  www.openfoam.com                      |
|    \\/     M anipulation  |                                                 |
\*---------------------------------------------------------------------------*/
FoamFile
{
    version     2.0;
    format      ascii;
    arch        "LSB;label=32;scalar=64";
    class       surfaceScalarField;
    location    "18";
    object      phi;
}
// * * * * * * * * * * * * * * * * * * * * * * * * * * * * * * * * * * * * * //

dimensions      [0 3 -1 0 0 0 0];

oriented        oriented;

internalField   nonuniform List<scalar> 
101088
(
0.00015509489
-1.574465e-05
1.1123906e-05
1.3701601e-05
0.00034262225
-6.8033564e-05
5.0061003e-05
6.0191554e-05
0.00054709249
-0.0001643267
0.00012512017
0.00014721593
0.00073808906
-0.00031208773
0.00024613853
0.00028321706
0.00087798121
-0.00049651186
0.00040453129
0.00045705403
0.00094199681
-0.00067160874
0.00056200867
0.00062729769
0.00093505618
-0.00077215984
0.00066222226
0.00073163176
0.00088455473
-0.00077418863
0.00066884863
0.00074588502
-0.00069013927
0.00058976074
0.00068228749
0.00081634221
0.00018860423
-1.7347429e-05
1.4393769e-05
0.00041164552
-7.3835015e-05
6.4219253e-05
0.00064619881
-0.00017588238
0.00015931855
0.0008513656
-0.00032899385
0.00031084064
0.00098178019
-0.00051549832
0.00050620418
0.0010138999
-0.00068740566
0.00069735685
0.00096370607
-0.00078058914
0.0008181822
0.00086862441
-0.00077007777
0.00082911167
-0.00067610369
0.00074145061
0.00076780562
0.00022202183
-1.8263324e-05
1.7853424e-05
0.00047924037
-7.6605192e-05
7.8951576e-05
0.00074127366
-0.00018024483
0.0001943155
0.00095823765
-0.00033279405
0.00037571878
0.0010791602
-0.00051436476
0.00060557439
0.0010834769
-0.0006769129
0.00082574731
0.00099796879
-0.0007605855
0.00096181317
0.00087009215
-0.00074000282
0.00097314025
-0.00064210861
0.00087565117
0.00074328015
0.00025438483
-1.850061e-05
2.1475779e-05
0.00054404509
-7.6466466e-05
9.4089241e-05
0.0008312125
-0.00017772066
0.0002296241
0.0010576482
-0.00032412577
0.00043984915
0.0011685999
-0.00049487615
0.00070152103
0.0011482365
-0.00064381618
0.00094654851
0.0010334354
-0.00071709098
0.0010935495
0.0008805949
-0.000689963
0.0011023063
-0.00059326103
0.00099363167
0.00073495142
0.00028472996
-1.7895246e-05
2.5071685e-05
0.00060407832
-7.3126021e-05
0.00010893741
0.00091349288
-0.0001683227
0.00026386013
0.0011475307
-0.00030395445
0.00050119771
0.0012491036
-0.00045971342
0.00079187495
0.0012075493
-0.00059253214
0.0010582679
0.0010684714
-0.00065504797
0.0012129947
0.00089588512
-0.00062468744
0.0012172009
-0.00053286295
0.001096561
0.00073550913
0.0003128474
-1.6652685e-05
2.8561785e-05
0.00065961979
-6.7329188e-05
0.0001231809
0.00098950786
-0.00015356174
0.00029633685
0.0012306693
-0.00027476989
0.00055867067
0.0013242037
-0.00041229801
0.0008753693
0.0012643158
-0.00052707668
0.0011600393
0.0011042731
-0.00057830361
0.0013200093
0.00091467831
-0.00054725785
0.0013183711
-0.00046310964
0.0011854851
0.00074166679
0.00033763788
-1.4825993e-05
3.1839805e-05
0.00070814418
-5.9368561e-05
0.00013639548
0.0010552673
-0.00013430701
0.00032611775
0.0013019192
-0.00023842677
0.00061072329
0.0013879289
-0.00035543928
0.00095002772
0.0013121702
-0.00045116553
0.0012499252
0.0011349629
-0.00049143672
0.001413292
0.00093181638
-0.00046183257
0.0014053373
-0.00038747174
0.0012607882
0.00074904817
0.00035882155
-1.2485309e-05
3.4749673e-05
0.00074937872
-4.9590661e-05
0.0001480512
0.001110796
-0.00011143653
0.00035223368
0.0013616541
-0.00019657179
0.00065608407
0.0014408308
-0.00029153282
0.00101464
0.0013514413
-0.00036783004
0.0013271145
0.0011600202
-0.00039806145
0.001492791
0.00094564544
-0.00037151854
0.0014787033
-0.0003089284
0.0013235343
0.0007553342
0.00037611563
-9.7116747e-06
3.7189927e-05
0.0007829119
-3.8357578e-05
0.00015779014
0.0011557301
-8.5782969e-05
0.00037399477
0.0014096348
-0.0001506314
0.00069377835
0.0014827485
-0.00022256542
0.0010681673
0.0013818108
-0.00027948379
0.0013908199
0.0011785988
-0.00030079988
0.0015580724
0.00095512347
-0.0002788408
0.0015385136
-0.00022992593
0.0013741547
0.00075927394
0.00038933784
-6.6538051e-06
3.9093328e-05
0.00080853869
-2.6177921e-05
0.00016537553
0.0011899874
-5.8305471e-05
0.00039092435
0.00144597
-0.00010198797
0.00072306011
0.0015139843
-0.00015022141
0.0011096599
0.0014036837
-0.00018791656
0.0014400359
0.0011910202
-0.00020136128
0.0016083053
0.00096058964
-0.00018552141
0.0015842569
-0.00015191951
0.0014124549
0.00076097492
0.00039812917
-3.4044978e-06
4.0454272e-05
0.00082533796
-1.3314962e-05
0.00017072424
0.0012120564
-2.9541788e-05
0.00040270788
0.001468844
-5.1513176e-05
0.00074319365
0.0015329466
-7.568672e-05
0.0011378962
0.0014161245
-9.4419715e-05
0.0014732441
0.0011971719
-0.00010086577
0.0016419463
0.00096255741
-9.2527533e-05
0.0016146966
-7.5422876e-05
0.0014377296
0.00076109655
0.00040256046
-2.3816964e-11
4.109308e-05
0.00083384563
-1.1380299e-10
0.00017328548
0.00122329
-2.5186754e-10
0.00040845954
0.001480504
-4.657163e-10
0.00075321086
0.001542541
-7.4168217e-10
0.0011521654
0.0014222395
-1.1557617e-09
0.0014901924
0.001199928
-1.4832019e-09
0.0016591925
0.00096316704
-1.7484514e-09
0.0016302891
-1.6444147e-09
0.0014506435
0.00076080451
0.00040256037
3.4044731e-06
4.1093075e-05
0.00083384551
1.3314811e-05
0.00017328546
0.0012232899
2.9541436e-05
0.00040845949
0.0014805038
5.1512446e-05
0.00075321078
0.0015425407
7.5685379e-05
0.0011521652
0.0014222393
9.4417418e-05
0.0014901922
0.0011999278
0.00010086262
0.0016591924
0.0009631669
9.252384e-05
0.001630289
7.5419356e-05
0.0014506434
0.00076080461
0.00039812917
6.6537485e-06
4.0454272e-05
0.00082533786
2.6177654e-05
0.00017072424
0.0012120564
5.8305048e-05
0.00040270788
0.0014688439
0.00010198739
0.00074319366
0.0015329463
0.00015022032
0.0011378962
0.0014161243
0.00018791444
0.001473244
0.0011971716
0.00020135804
0.0016419462
0.00096255712
0.00018551757
0.0016146965
0.00015191571
0.0014377295
0.00076109673
0.00038933783
9.7115998e-06
3.9093321e-05
0.00080853842
3.8357158e-05
0.0001653755
0.001189987
8.5782464e-05
0.00039092427
0.0014459695
0.00015063108
0.00072305997
0.0015139838
0.0002225646
0.0011096597
0.0014036831
0.00027948187
0.0014400356
0.0011910197
0.0003007969
0.001608305
0.00096058921
0.00027883722
0.0015842567
0.00022992206
0.0014124547
0.00076097494
0.00037611539
1.2485313e-05
3.7189923e-05
0.00078291166
4.9590426e-05
0.00015779012
0.0011557297
0.00011143637
0.00037399473
0.0014096343
0.00019657182
0.00069377826
0.001482748
0.00029153206
0.0010681671
0.0013818102
0.00036782819
0.0013908197
0.0011785983
0.00039805896
0.0015580721
0.00095512292
0.00037151573
0.0015385134
0.00030892477
0.0013741546
0.00075927336
0.00035882132
1.4826018e-05
3.4749672e-05
0.00074937875
5.9368529e-05
0.0001480512
0.0011107958
0.00013430695
0.00035223367
0.0013616538
0.00023842665
0.00065608404
0.0014408306
0.00035543848
0.00101464
0.001351441
0.00045116399
0.0013271144
0.0011600196
0.0004914348
0.0014927909
0.00094564468
0.00046183042
0.0014787031
0.00038746867
0.0013235341
0.00075533266
0.00033763792
1.6652765e-05
3.1839807e-05
0.00070814401
6.7329413e-05
0.00013639548
0.0010552673
0.00015356181
0.00032611776
0.0013019192
0.00027476974
0.00061072332
0.0013879289
0.00041229764
0.00095002775
0.0013121701
0.00052707624
0.0012499252
0.0011349622
0.00057830242
0.0014132919
0.00093181516
0.00054725596
0.0014053372
0.00046310763
0.001260788
0.00074904606
0.00031284761
1.7895204e-05
2.8561792e-05
0.00065962002
7.3126039e-05
0.00012318093
0.00098950842
0.00016832256
0.00029633692
0.0012306698
0.00030395434
0.0005586708
0.0013242037
0.00045971366
0.00087536947
0.0012643151
0.00059253279
0.0011600395
0.0011042718
0.00065504736
0.0013200094
0.00091467675
0.0006246858
0.0013183711
0.00053286147
0.001185485
0.00074166484
0.00028472994
1.8500619e-05
2.5071687e-05
0.00060407832
7.6466524e-05
0.00010893741
0.00091349265
0.00017772074
0.00026386014
0.00114753
0.00032412604
0.00050119773
0.0012491021
0.00049487655
0.00079187495
0.0012075477
0.0006438171
0.0010582679
0.0010684695
0.00071709074
0.0012129946
0.00089588378
0.00068996141
0.0012172008
0.00059325921
0.0010965609
0.00073550804
0.00025438478
1.8263331e-05
2.1475778e-05
0.00054404498
7.6605174e-05
9.4089232e-05
0.00083121213
0.00018024494
0.00022962407
0.0010576476
0.00033279424
0.0004398491
0.001168599
0.00051436512
0.00070152095
0.0011482352
0.00067691362
0.0009465484
0.0010334337
0.00076058612
0.0010935493
0.00088059364
0.00074000098
0.0011023063
0.00064210586
0.00099363159
0.0007349515
0.00022202171
1.7347456e-05
1.7853423e-05
0.00047924006
7.3835097e-05
7.8951566e-05
0.00074127329
0.0001758826
0.00019431547
0.0009582371
0.000328994
0.00037571872
0.0010791594
0.00051549848
0.00060557431
0.0010834757
0.00068740654
0.00082574719
0.00099796655
0.00078059094
0.00096181303
0.00087008894
0.0007700769
0.00097314017
0.00067609798
0.00087565116
0.00074327911
0.00018860419
1.5744652e-05
1.4393772e-05
0.00041164534
6.8033574e-05
6.4219266e-05
0.00064619843
0.00016432672
0.00015931858
0.00085136491
0.00031208763
0.00031084069
0.00098177954
0.00049651177
0.00050620425
0.0010138999
0.00067160927
0.00069735693
0.00096370629
0.00077216089
0.00081818225
0.0008686247
0.00077418662
0.0008291117
0.00069013405
0.00074145067
0.00076780676
0.00015509486
1.1123913e-05
1.3701634e-05
0.00034262201
5.0061033e-05
6.0191672e-05
0.00054709191
0.00012512024
0.00014721615
0.00073808825
0.00024613866
0.0002832173
0.00087798042
0.00040453147
0.00045705424
0.00094199627
0.00056200889
0.00062729785
0.00093505747
0.00066222243
0.0007316319
0.00088455758
0.00066884872
0.00074588119
0.00058976081
0.00068228454
0.00081634306
3.3288185e-06
1.0718941e-06
8.2155749e-06
-1.4923825e-06
1.6499086e-05
4.0033493e-07
3.9390171e-05
-2.8997419e-06
4.5753964e-05
-1.2652075e-05
0.00010417877
4.3386219e-06
9.6778798e-05
-5.9033892e-05
0.00021655485
3.7592715e-05
0.00016920757
-0.00016142502
0.00037516579
0.0001183617
0.00025101691
-0.00031638485
0.00054593728
0.00025064695
0.00032419309
-0.00048022451
0.00066716916
0.00040210147
0.00038001368
-0.00058081393
0.00068994783
0.00050389428
-0.00058402035
0.00061435893
0.00052189487
0.00041754112
4.5203842e-06
1.0038247e-06
9.9414728e-06
2.2354202e-05
-1.1838702e-06
4.7969657e-05
6.1165953e-05
-1.9657156e-05
0.00012751181
0.00012547849
-7.8281283e-05
0.00026577532
0.00020893568
-0.00019887857
0.00046020033
0.00029099269
-0.00036881401
0.00066772876
0.0003493201
-0.00053473359
0.00081436389
0.00038021207
-0.00062809315
0.00084549927
-0.00061824592
0.00076411935
0.00039176844
6.2291658e-06
1.0529424e-06
1.157516e-05
2.9896953e-05
-2.0816701e-06
5.6181591e-05
7.9201137e-05
-2.4606679e-05
0.0001499608
0.00015614285
-9.2523476e-05
0.00031301933
0.00024783952
-0.0002257172
0.00054071652
0.00032706137
-0.00040253653
0.00078024819
0.00037030616
-0.00056228313
0.00094611787
0.00037983246
-0.00064551862
0.00098103947
-0.00062626527
0.00089277533
0.00037072772
8.2701948e-06
1.0775858e-06
1.3180905e-05
3.8786385e-05
-2.7303737e-06
6.4221668e-05
9.9888556e-05
-2.7896731e-05
0.00017181192
0.00018975826
-0.00010111023
0.00035856614
0.00028815079
-0.00023965951
0.00061707068
0.00036282651
-0.00041521587
0.0008845522
0.00039237973
-0.00056324774
0.0010649606
0.00038402831
-0.00063500482
0.0011001437
-0.00060975203
0.0010034849
0.00035766181
1.0369203e-05
1.1092186e-06
1.4670823e-05
4.7802381e-05
-2.9682216e-06
7.1742073e-05
0.0001205809
-2.9139006e-05
0.00019232394
0.00022294725
-0.00010356592
0.00040128721
0.00032735886
-0.00024030658
0.00068811077
0.00039765632
-0.00040748156
0.00098023586
0.00041597175
-0.00054043713
0.0011718686
0.00039359449
-0.00060034659
0.0012049198
-0.00057238842
0.0010987598
0.00035403192
1.2522695e-05
1.0883379e-06
1.6059941e-05
5.6982381e-05
-3.0057181e-06
7.8758765e-05
0.00014150104
-2.8750958e-05
0.00021142997
0.00025630761
-0.0001005858
0.00044088409
0.00036682612
-0.00022898611
0.00075353032
0.00043368037
-0.00038151834
0.0010672215
0.00044289416
-0.00049714213
0.0012675003
0.00040986609
-0.00054576652
0.0012968192
-0.00051849534
0.0011804866
0.00036097144
1.4562389e-05
1.006849e-06
1.7358929e-05
6.5572734e-05
-2.8677586e-06
8.5247155e-05
0.0001608058
-2.6793884e-05
0.00022892758
0.00028663242
-9.2492225e-05
0.00047680315
0.00040267104
-0.00020726873
0.00081227171
0.00046708977
-0.00034027567
0.0011442634
0.00046959961
-0.00043744187
0.0013510818
0.0004296336
-0.0004763024
0.0013758392
-0.0004526185
0.0012495025
0.00037504258
1.6391097e-05
8.6789887e-07
1.8497647e-05
7.3206731e-05
-2.5723574e-06
9.0939888e-05
0.00017780783
-2.3434872e-05
0.00024427365
0.00031307058
-7.9923326e-05
0.00050825234
0.00043368048
-0.00017672259
0.00086348402
0.00049634684
-0.00028669554
0.0012108681
0.0004942765
-0.00036518681
0.0014226064
0.00045015586
-0.00039618185
0.0014427033
-0.00037708346
0.0013070487
0.00039110649
1.7933867e-05
6.7956009e-07
1.9444446e-05
7.9593207e-05
-2.1317423e-06
9.5690126e-05
0.00019189556
-1.8856479e-05
0.00025711399
0.00033473045
-6.360871e-05
0.0005346287
0.00045899525
-0.00013913962
0.00090631945
0.00052039638
-0.0002235525
0.0012662757
0.00051481323
-0.00028318863
0.0014816574
0.00046704077
-0.00030737839
0.0014974826
-0.00029162738
0.0013536415
0.00040209783
1.9122447e-05
4.6591447e-07
2.0184507e-05
8.4482633e-05
-1.5334276e-06
9.9417183e-05
0.00020259281
-1.3249336e-05
0.0002672071
0.0003509716
-4.4296693e-05
0.00055536939
0.00047773197
-9.6116036e-05
0.00093987593
0.0005382718
-0.00015347184
0.0013094153
0.00052986938
-0.00019379529
0.0015273143
0.00047703773
-0.0002099042
0.0015396145
-0.00019809093
0.0013890908
0.00040686537
1.9939977e-05
2.1726602e-07
2.0762935e-05
8.7798372e-05
-8.7225266e-07
0.0001022047
0.00020970572
-6.9583935e-06
0.00027450953
0.00036150783
-2.2887151e-05
0.00056998205
0.00048952434
-4.9248799e-05
0.00096301248
0.0005488294
-7.8218109e-05
0.0013386853
0.00053762276
-9.8579067e-05
0.0015579368
0.00048120873
-0.00010648103
0.0015676876
-9.9978363e-05
0.0014125203
0.00040830555
2.0306313e-05
-7.0469684e-12
2.1004044e-05
8.9267675e-05
-6.5205363e-11
0.00010345191
0.00021282961
-1.7377034e-10
0.00027793928
0.00036606585
-3.9675187e-10
0.00057708773
0.00049448232
-7.6556936e-10
0.00097450081
0.00055307264
-1.2018148e-09
0.0013533853
0.00054027456
-1.5188324e-09
0.0015734133
0.0004821448
-1.749749e-09
0.0015819396
-1.5627691e-09
0.0014244327
0.00040837872
2.0306286e-05
-2.1726882e-07
2.1004041e-05
8.9267619e-05
8.7215934e-07
0.0001034519
0.00021282956
6.9581383e-06
0.00027793925
0.00036606578
2.288653e-05
0.00057708766
0.00049448222
4.9247429e-05
0.00097450071
0.00055307251
7.8215747e-05
0.0013533852
0.00054027437
9.8575921e-05
0.0015734131
0.00048214463
0.00010647741
0.0015819395
9.9975055e-05
0.0014244326
0.0004083787
1.9939969e-05
-4.659231e-07
2.0762935e-05
8.779829e-05
1.5333132e-06
0.0001022047
0.00020970567
1.3249113e-05
0.00027450952
0.00036150776
4.4296251e-05
0.00056998204
0.00048952421
9.6114892e-05
0.00096301244
0.00054882919
0.00015346964
0.0013386852
0.00053762238
0.00019379213
0.0015579367
0.00048120828
0.00020990053
0.0015676874
0.00019808739
0.0014125201
0.0004083054
1.9122472e-05
-6.7958117e-07
2.0184502e-05
8.4482532e-05
2.1315578e-06
9.941716e-05
0.00020259269
1.8856217e-05
0.00026720704
0.0003509714
6.3608344e-05
0.00055536926
0.00047773163
0.00013913859
0.00093987571
0.00053827135
0.00022355048
0.001309415
0.00052986879
0.00028318572
0.0015273139
0.00047703698
0.00030737499
0.0015396142
0.00029162386
0.0013890906
0.00040686487
1.7933786e-05
-8.6788693e-07
1.9444444e-05
7.9593119e-05
2.5722692e-06
9.5690115e-05
0.0001918954
2.3434806e-05
0.00025711395
0.00033473022
7.9923179e-05
0.00053462861
0.00045899489
0.00017672172
0.00090631928
0.00052039586
0.00028669375
0.0012662755
0.0005148125
0.00036518433
0.0014816571
0.00046703976
0.00039617905
0.0014974823
0.00037708026
0.0013536412
0.00040209663
1.6390936e-05
-1.0068025e-06
1.8497647e-05
7.32067e-05
2.8678311e-06
9.0939884e-05
0.00017780758
2.6793961e-05
0.00024427364
0.00031307033
9.2492135e-05
0.00050825231
0.00043368015
0.00020726801
0.00086348393
0.00049634635
0.00034027422
0.0012108679
0.00049427564
0.00043743989
0.0014226062
0.00045015457
0.00047630018
0.001442703
0.00045261573
0.0013070484
0.00039110462
1.4562362e-05
-1.088283e-06
1.735893e-05
6.5572667e-05
3.0058562e-06
8.524716e-05
0.00016080576
2.8751022e-05
0.0002289276
0.00028663238
0.0001005857
0.00047680316
0.00040267076
0.00022898575
0.00081227171
0.00046708926
0.00038151761
0.0011442634
0.00046959857
0.00049714079
0.0013510816
0.00042963198
0.00054576477
0.001375839
0.00051849322
0.0012495022
0.00037504044
1.2522778e-05
-1.1092088e-06
1.6059946e-05
5.6982497e-05
2.9682745e-06
7.8758787e-05
0.00014150136
2.913902e-05
0.00021143003
0.00025630767
0.00010356601
0.00044088419
0.00036682566
0.00024030678
0.00075353045
0.00043367959
0.00040748156
0.0010672215
0.00044289294
0.00054043634
0.0012675003
0.00040986443
0.00060034532
0.0012968191
0.00057238668
0.0011804864
0.00036096951
1.036923e-05
-1.0775796e-06
1.4670825e-05
4.7802422e-05
2.7303677e-06
7.1742079e-05
0.0001205808
2.7896726e-05
0.00019232396
0.00022294685
0.00010111038
0.00040128722
0.00032735795
0.00023965977
0.00068811076
0.00039765529
0.00041521613
0.00098023579
0.00041597042
0.00056324723
0.0011718684
0.0003935932
0.00063500392
0.0012049196
0.00060975043
0.0010987596
0.00035403053
8.2702086e-06
-1.0529272e-06
1.3180906e-05
3.878642e-05
2.0816678e-06
6.4221666e-05
9.9888478e-05
2.4606785e-05
0.00017181191
0.000189758
9.2523791e-05
0.00035856611
0.00028815029
0.00022571764
0.00061707062
0.00036282564
0.0004025368
0.00088455209
0.00039237857
0.0005622831
0.0010649605
0.00038402712
0.00064551806
0.0011001436
0.00062626344
0.0010034848
0.00035766115
6.2291383e-06
-1.0038184e-06
1.157516e-05
2.9896852e-05
1.1838724e-06
5.6181589e-05
7.9201014e-05
1.9657248e-05
0.00014996078
0.00015614259
7.8281423e-05
0.0003130193
0.00024783904
0.0001988787
0.00054071645
0.00032706067
0.00036881423
0.00078024808
0.00037030497
0.00053473415
0.00094611775
0.00037983071
0.00062809315
0.00098103941
0.00061824305
0.00089277531
0.0003707267
4.5203541e-06
-1.0718812e-06
9.941477e-06
2.2354072e-05
-4.0028743e-07
4.7969673e-05
6.1165765e-05
1.265218e-05
0.00012751185
0.00012547825
5.9033981e-05
0.00026577537
0.00020893564
0.00016142513
0.00046020039
0.0002909931
0.00031638514
0.00066772884
0.00034932053
0.00048022482
0.00081436396
0.00038021243
0.00058081335
0.00084549936
0.0005840182
0.00076411944
0.00039176887
3.3288077e-06
8.2155824e-06
-1.492373e-06
1.6498987e-05
3.93902e-05
-2.8997019e-06
4.575373e-05
0.00010417884
4.3386942e-06
9.6778563e-05
0.00021655496
3.7592762e-05
0.00016920764
0.00037516594
0.00011836169
0.00025101732
0.00054593746
0.00025064673
0.00032419474
0.00066716934
0.00040210099
0.00038001647
0.00068994799
0.00050389238
0.00061435905
0.00052189365
0.00041754303
7.36837e-07
1.852767e-07
7.9729597e-06
-6.7949841e-07
4.0708054e-06
-3.2009088e-07
3.8178745e-05
-1.8024464e-06
1.2220466e-05
-4.948995e-06
0.00010145763
-4.7952667e-07
2.7867336e-05
-2.2754831e-05
0.00021276923
1.0893539e-05
5.4148055e-05
-7.0605622e-05
0.00037241731
4.7073328e-05
9.2957767e-05
-0.00016255794
0.00054737335
0.00012231216
0.0001425084
-0.00028301975
0.00067376152
0.00022687678
0.00019420635
-0.00037439296
0.0006995204
0.00031312248
-0.00039668526
0.00062319331
0.00034436123
0.00023769602
9.8042558e-07
-2.7390017e-07
9.4202308e-06
5.6253825e-06
-2.4595491e-06
4.546416e-05
1.7021001e-05
-1.0550995e-05
0.00012171816
3.810955e-05
-3.4792935e-05
0.00025672481
7.0381539e-05
-9.3442912e-05
0.00045076559
0.00011167436
-0.00019915849
0.00066303644
0.00015477494
-0.00032848982
0.00081673336
0.00019248267
-0.00041894676
0.00085234542
-0.00043285836
0.00077100949
0.00022176541
1.3021723e-06
-7.1319363e-07
1.0712276e-05
7.398902e-06
-4.4463413e-06
5.2071614e-05
2.2159449e-05
-1.5645147e-05
0.00014029432
4.8705021e-05
-4.5477062e-05
0.00029715782
8.641893e-05
-0.00011281616
0.00052237585
0.00012855771
-0.00022793036
0.00076688129
0.00016424956
-0.00035972795
0.0009416641
0.0001881084
-0.00044429612
0.00098252992
-0.00044930763
0.00089537486
0.00020195808
1.6372287e-06
-1.1003921e-06
1.1930855e-05
9.2832854e-06
-6.158838e-06
5.8288061e-05
2.7602975e-05
-1.9869945e-05
0.00015771699
5.9773133e-05
-5.3920737e-05
0.00033483962
0.00010267003
-0.00012699888
0.00058835644
0.00014491523
-0.00024649578
0.0008608724
0.00017333813
-0.00037523085
0.0010520405
0.00018488164
-0.00045042342
0.0010947273
-0.00044673401
0.0010004587
0.00018533424
1.924198e-06
-1.3679734e-06
1.3014183e-05
1.0980444e-05
-7.3562124e-06
6.3883166e-05
3.2666954e-05
-2.2764809e-05
0.00017353227
7.0199607e-05
-5.9356047e-05
0.00036918985
0.00011793532
-0.00013498167
0.00064835794
0.00015995608
-0.00025376397
0.0009454831
0.00018163319
-0.0003747649
0.0011497254
0.00018308433
-0.00043886177
0.0011919069
-0.00042791895
0.0010894794
0.00017354952
2.2327878e-06
-1.5359932e-06
1.3995165e-05
1.2750167e-05
-8.0770487e-06
6.896224e-05
3.7859357e-05
-2.4352848e-05
0.00018790876
8.0673286e-05
-6.1706452e-05
0.00040042059
0.00013296218
-0.0001364926
0.00070275229
0.00017441513
-0.00024935407
0.0010213585
0.00018970514
-0.00035857862
0.0012360239
0.00018212611
-0.00041049708
0.0012760335
-0.00039374922
0.0011646942
0.00016374876
2.5143404e-06
-1.5866806e-06
1.489529e-05
1.435614e-05
-8.2361048e-06
7.3564402e-05
4.2510608e-05
-2.4396544e-05
0.00020081681
8.9799824e-05
-6.0471763e-05
0.00042827926
0.00014534932
-0.00013065316
0.00075088275
0.00018533954
-0.00023284104
0.00108776
0.00019431878
-0.00032699907
0.0013105229
0.00017871478
-0.00036647104
0.0013474172
-0.00034573336
0.0012271217
0.00015307968
2.746332e-06
-1.5005196e-06
1.56652e-05
1.5675185e-05
-7.7378491e-06
7.7512678e-05
4.6297772e-05
-2.266343e-05
0.00021191802
9.7090396e-05
-5.5302122e-05
0.00045229005
0.0001547995
-0.00011722478
0.00079234654
0.00019254944
-0.00020441517
0.0011446922
0.00019524437
-0.00028075539
0.0013736678
0.00017280235
-0.00030834046
0.0014070146
-0.00028647023
0.0012781327
0.00014245522
2.9258297e-06
-1.2712208e-06
1.6289352e-05
1.6691146e-05
-6.5476449e-06
8.0734588e-05
4.9175553e-05
-1.9066955e-05
0.00022103313
0.0001024334
-4.6043593e-05
0.00047211228
0.00016099996
-9.6141276e-05
0.00082666941
0.0001959365
-0.00016476117
0.0011916852
0.00019336561
-0.00022186053
0.0014253335
0.00016645576
-0.00023907294
0.0014551249
-0.00022045175
0.0013185163
0.00013556239
3.0681489e-06
-9.2208736e-07
1.6767233e-05
1.7473356e-05
-4.7525274e-06
8.3216919e-05
5.1327017e-05
-1.3799691e-05
0.00022808622
0.00010624279
-3.309472e-05
0.00048750481
0.00016496185
-6.8319491e-05
0.00085333517
0.00019695154
-0.00011539562
0.00122806
0.00019043012
-0.00015298567
0.0014649609
0.00016252313
-0.00016311937
0.001491568
-0.00014997584
0.0013486551
0.00013248297
3.1794296e-06
-4.8867499e-07
1.7150098e-05
1.8048969e-05
-2.5123846e-06
8.5095056e-05
5.2828568e-05
-7.2688445e-06
0.0002331991
0.00010873003
-1.7335261e-05
0.0004983212
0.00016725472
-3.5494441e-05
0.00087166285
0.00019728189
-5.9381204e-05
0.0012526438
0.00018876047
-7.7900185e-05
0.0014913729
0.00016040986
-8.2618983e-05
0.0015155379
-7.5928082e-05
0.0013682403
0.00013064215
3.2194982e-06
1.7437346e-12
1.7295883e-05
1.8272383e-05
-2.9996044e-11
8.5886705e-05
5.3427281e-05
-8.5559997e-11
0.00023551565
0.00010969531
-2.1527229e-10
0.0005034847
0.00016799017
-4.9443276e-10
0.00088071211
0.00019699217
-8.7631322e-10
0.0012650032
0.00018775926
-1.2193187e-09
0.0015047474
0.00015936694
-1.3900845e-09
0.0015277144
-1.2636485e-09
0.0013781841
0.00012968882
3.2194886e-06
4.8868232e-07
1.729588e-05
1.8272347e-05
2.5123423e-06
8.5886694e-05
5.3427235e-05
7.2687207e-06
0.00023551562
0.00010969523
1.733492e-05
0.00050348464
0.00016799003
3.5493534e-05
0.00088071202
0.00019699198
5.9379473e-05
0.0012650031
0.00018775903
7.7897715e-05
0.0015047473
0.00015936668
8.2616168e-05
0.0015277143
7.5925502e-05
0.001378184
0.00012968854
3.1794294e-06
9.2209353e-07
1.7150098e-05
1.8048924e-05
4.7524936e-06
8.5095056e-05
5.2828513e-05
1.3799611e-05
0.0002331991
0.0001087299
3.3094489e-05
0.00049832119
0.00016725446
6.8318712e-05
0.00087166283
0.00019728149
0.00011539398
0.0012526438
0.00018875991
0.00015298324
0.0014913728
0.00016040914
0.00016311659
0.0015155378
0.00014997333
0.0013682402
0.00013064127
3.0681387e-06
1.2712337e-06
1.6767229e-05
1.7473269e-05
6.5476283e-06
8.3216902e-05
5.1326846e-05
1.9066922e-05
0.00022808618
0.00010624247
4.6043457e-05
0.00048750471
0.00016496132
9.614061e-05
0.000853335
0.00019695082
0.00016475968
0.0012280598
0.00019042917
0.00022185825
0.0014649605
0.00016252194
0.00023907034
0.0014915677
0.00022044958
0.0013486548
0.00013248148
2.9257718e-06
1.5005559e-06
1.628935e-05
1.6691037e-05
7.7379022e-06
8.0734581e-05
4.9175285e-05
2.2663539e-05
0.00022103311
0.00010243297
5.5302169e-05
0.00047211223
0.00016099928
0.0001172243
0.0008266693
0.00019593556
0.0002044139
0.001191685
0.00019336436
0.00028075333
0.0014253332
0.00016645422
0.00030833816
0.0014551246
0.0002864685
0.001318516
0.00013556041
2.7462542e-06
1.586742e-06
1.5665201e-05
1.5675105e-05
8.2362538e-06
7.751268e-05
4.6297463e-05
2.4396805e-05
0.00021191803
9.7089935e-05
6.0471976e-05
0.00045229005
0.00015479878
0.0001306529
0.00079234651
0.00019254842
0.00023284002
0.0011446922
0.00019524296
0.00032699729
0.0013736676
0.00017280061
0.00036646902
0.0014070144
0.00034573195
0.0012781324
0.00014245303
2.5143132e-06
1.5360663e-06
1.4895292e-05
1.4356074e-05
8.0772452e-06
7.3564413e-05
4.2510465e-05
2.4353172e-05
0.00020081684
8.9799509e-05
6.1706787e-05
0.00042827931
0.00014534868
0.0001364926
0.00075088281
0.00018533853
0.00024935344
0.00108776
0.00019431733
0.00035857723
0.0013105228
0.00017871299
0.00041049527
0.001347417
0.00039374796
0.0012271215
0.00015307767
2.2328139e-06
1.3680319e-06
1.3995171e-05
1.2750195e-05
7.3563844e-06
6.8962266e-05
3.7859399e-05
2.2765138e-05
0.00018790883
8.0673081e-05
5.9356518e-05
0.00040042073
0.00013296159
0.00013498199
0.00070275248
0.00017441413
0.00025376375
0.0010213586
0.00018970378
0.00037476385
0.0012360239
0.00018212451
0.00043886012
0.0012760334
0.00042791753
0.001164694
0.00016374726
1.9242203e-06
1.1004488e-06
1.3014186e-05
1.0980469e-05
6.1590047e-06
6.3883177e-05
3.2666901e-05
1.9870289e-05
0.00017353229
7.0199369e-05
5.3921278e-05
0.0003691899
0.00011793473
0.00012699931
0.00064835799
0.00015995524
0.0002464958
0.00094548311
0.00018163202
0.00037523001
0.0011497253
0.00018308303
0.00045042197
0.0011919067
0.0004467323
0.0010894793
0.00017354848
1.6372414e-06
7.1324789e-07
1.1930856e-05
9.2833174e-06
4.4464912e-06
5.8288062e-05
2.7603002e-05
1.5645475e-05
0.00015771699
5.9773125e-05
4.5477606e-05
0.00033483961
0.00010266986
0.0001128167
0.00058835641
0.00014491478
0.00022793048
0.00086087233
0.00017333734
0.00035972743
0.0010520404
0.00018488065
0.00044429501
0.0010947272
0.00044930576
0.0010004585
0.0001853335
1.3021777e-06
2.7394427e-07
1.0712276e-05
7.3989309e-06
2.4596792e-06
5.2071612e-05
2.2159567e-05
1.0551282e-05
0.00014029431
4.8705211e-05
3.479336e-05
0.00029715779
8.6419115e-05
9.344327e-05
0.00052237577
0.00012855787
0.00019915853
0.00076688117
0.00016424947
0.00032848954
0.00094166398
0.00018810782
0.00041894619
0.00098252985
0.00043285665
0.00089537483
0.00020195722
9.804321e-07
-1.8524605e-07
9.4202341e-06
5.62541e-06
3.2019225e-07
4.5464171e-05
1.7021133e-05
4.9491906e-06
0.00012171818
3.8109859e-05
2.2755046e-05
0.00025672484
7.0382138e-05
7.0605726e-05
0.0004507656
0.00011167527
0.00016255787
0.00066303647
0.00015477587
0.00028301939
0.0008167334
0.00019248336
0.00037439248
0.00085234549
0.00039668483
0.00077100957
0.00022176511
7.3686942e-07
7.972966e-06
-6.7950424e-07
4.0709307e-06
3.8178769e-05
-1.8024666e-06
1.2220823e-05
0.00010145768
-4.7960526e-07
2.7868153e-05
0.00021276931
1.0893303e-05
5.414962e-05
0.00037241742
4.7072819e-05
9.2960075e-05
0.00054737347
0.00012231128
0.00014251146
0.00067376166
0.00022687583
0.00019420945
0.00069952054
0.00031312202
0.00062319342
0.00034436257
0.00023769733
-2.7428137e-07
-1.5763914e-07
8.3270714e-06
7.7808884e-08
-1.3215711e-06
-1.4031163e-06
3.9713776e-05
9.1537934e-07
-3.0225416e-06
-5.7862496e-06
0.00010493748
4.0073744e-06
-3.523547e-06
-1.8148525e-05
0.0002185845
1.2834265e-05
1.7447619e-06
-4.691111e-05
0.00038035973
3.3700383e-05
1.8692076e-05
-9.9512839e-05
0.00055718111
7.2757789e-05
4.752398e-05
-0.00016562072
0.00068529549
0.00012525487
8.2274403e-05
-0.00022151354
0.00071188483
0.0001743987
-0.00024305284
0.00063423425
0.00019931533
0.00011497098
-3.5103429e-07
-1.7180118e-07
9.7854292e-06
-1.5633361e-06
-1.7330017e-06
4.7006346e-05
-3.279632e-06
-7.3794511e-06
0.00012502765
-3.1222705e-06
-2.3291264e-05
0.00026171017
3.874782e-06
-5.9775173e-05
0.0004566326
2.2532203e-05
-0.00012474909
0.00066961528
5.1493452e-05
-0.00020263166
0.00082478304
8.2571896e-05
-0.00026197309
0.00086172655
-0.00027939584
0.00077987917
0.00011004515
-3.4099465e-07
-1.8030532e-07
1.1061773e-05
-1.4744178e-06
-2.0171841e-06
5.3489208e-05
-2.782903e-06
-8.8380386e-06
0.00014306137
-1.318129e-06
-2.8082939e-05
0.00030048473
8.2335399e-06
-7.1639324e-05
0.00052468837
2.907337e-05
-0.00014680998
0.00076810239
5.717681e-05
-0.00023280728
0.0009437363
8.3856664e-05
-0.00029245366
0.00098633061
-0.00030428068
0.00089962904
0.00010448733
-2.5980851e-07
-2.3068176e-07
1.2241031e-05
-1.0305882e-06
-2.4254088e-06
5.9467045e-05
-1.3540834e-06
-1.0425791e-05
0.00015962824
2.2481251e-06
-3.2681954e-05
0.00033583645
1.5318363e-05
-8.2322023e-05
0.00058596892
3.8592122e-05
-0.00016429182
0.0008550805
6.5230866e-05
-0.00025360526
0.0010461997
8.6845664e-05
-0.00031036175
0.0010910206
-0.00031556218
0.00099837465