/*--------------------------------*- C++ -*----------------------------------*\
| =========                 |                                                 |
| \\      /  F ield         | OpenFOAM: The Open Source CFD Toolbox           |
|  \\    /   O peration     | Version:  2406                                  |
|   \\  /    A nd           | Website:  www.openfoam.com                      |
|    \\/     M anipulation  |                                                 |
\*---------------------------------------------------------------------------*/
FoamFile
{
    version     2.0;
    format      ascii;
    arch        "LSB;label=32;scalar=64";
    class       volVectorField;
    location    "18";
    object      U;
}
// * * * * * * * * * * * * * * * * * * * * * * * * * * * * * * * * * * * * * //

dimensions      [0 1 -1 0 0 0 0];

internalField   nonuniform List<vector> 
34560
(
(0.073856889 -0.0020023236 -0.017544342)
(0.23492067 -0.0049297779 -0.056173878)
(0.4295673 -0.0088346089 -0.10028757)
(0.64804357 -0.013258071 -0.14565935)
(0.87216122 -0.018593817 -0.18472693)
(1.0778139 -0.024578078 -0.21003903)
(1.2410133 -0.029759942 -0.2168624)
(1.3561059 -0.034397354 -0.20921074)
(1.4310579 -0.037181491 -0.19417151)
(0.089358981 -0.002612774 -0.020301188)
(0.27958989 -0.006133429 -0.064572149)
(0.50281129 -0.010355819 -0.1137379)
(0.74438778 -0.014657525 -0.16235175)
(0.98173269 -0.019497641 -0.2014789)
(1.1883497 -0.024758966 -0.22330052)
(1.3422448 -0.029019161 -0.22429144)
(1.442505 -0.032125561 -0.21025482)
(1.5046228 -0.033772327 -0.18839148)
(0.10526935 -0.0027549802 -0.022318392)
(0.3244164 -0.0061487344 -0.070895028)
(0.57456316 -0.010131872 -0.12379295)
(0.83607164 -0.014114644 -0.17469745)
(1.0829878 -0.018627387 -0.2137195)
(1.287838 -0.023678361 -0.23291337)
(1.4320156 -0.027891806 -0.23002029)
(1.5191077 -0.030420385 -0.21162758)
(1.5708728 -0.031659189 -0.18680447)
(0.12163631 -0.0029698149 -0.024228354)
(0.36956417 -0.0063433611 -0.076802873)
(0.64530661 -0.010048577 -0.13294105)
(0.92438954 -0.013563378 -0.18554004)
(1.1784918 -0.017526606 -0.22397457)
(1.3801484 -0.022101504 -0.24050044)
(1.5147367 -0.026061297 -0.23436271)
(1.5899966 -0.0279768 -0.21276761)
(1.6322106 -0.028555424 -0.18610259)
(0.13766302 -0.0029492402 -0.025809167)
(0.41318517 -0.0060150373 -0.081793929)
(0.71278275 -0.0092530507 -0.14060273)
(1.0074217 -0.012236314 -0.19447655)
(1.2671692 -0.015648437 -0.23222606)
(1.4651839 -0.019687212 -0.24635103)
(1.5907016 -0.023229645 -0.23748359)
(1.6553984 -0.024587587 -0.21349915)
(1.6887533 -0.024654002 -0.18556003)
(0.15301735 -0.0028347677 -0.027072959)
(0.45445423 -0.0055805389 -0.085876978)
(0.77590671 -0.0083253787 -0.14685739)
(1.0843656 -0.010746024 -0.20165645)
(1.3483688 -0.013596596 -0.23881035)
(1.5426756 -0.017032825 -0.25085181)
(1.6598674 -0.020030942 -0.23968137)
(1.7152162 -0.020902055 -0.21389186)
(1.7404593 -0.020584325 -0.18494882)
(0.16736449 -0.0026169895 -0.028131422)
(0.49255835 -0.004983072 -0.089313204)
(0.83356577 -0.0072117256 -0.15206047)
(1.1539582 -0.0090861301 -0.20751799)
(1.421305 -0.011397885 -0.24404154)
(1.6121368 -0.014233576 -0.25419668)
(1.7217472 -0.016637536 -0.24091496)
(1.7690527 -0.017149427 -0.21381453)
(1.7869922 -0.01656657 -0.18402582)
(0.18001657 -0.0022988224 -0.028971221)
(0.52592868 -0.004250178 -0.092093888)
(0.88377895 -0.0059826826 -0.15625686)
(1.2143074 -0.0073743074 -0.21219037)
(1.4845196 -0.0091953302 -0.24810044)
(1.6725439 -0.011461033 -0.25657561)
(1.7758082 -0.013316861 -0.24147141)
(1.8162018 -0.013538973 -0.21325681)
(1.8276742 -0.012790453 -0.18271892)
(0.19055754 -0.001876227 -0.029605421)
(0.55360436 -0.0033760088 -0.094247291)
(0.92529745 -0.0046440283 -0.15950705)
(1.264139 -0.0056307667 -0.21577595)
(1.5368608 -0.0070173869 -0.25111538)
(1.7228466 -0.0087596293 -0.25812536)
(1.8210986 -0.010135396 -0.24146387)
(1.8557101 -0.010151893 -0.21225361)
(1.8616483 -0.0093633529 -0.18109769)
(0.19872845 -0.0013876838 -0.03005348)
(0.57499326 -0.0024579821 -0.09580919)
(0.95732153 -0.0033289928 -0.16187171)
(1.3025553 -0.0039923299 -0.21836409)
(1.5773452 -0.0049769995 -0.25319949)
(1.7619523 -0.0062119578 -0.25899497)
(1.8564784 -0.0071483595 -0.24106247)
(1.8865058 -0.0070394631 -0.21099741)
(1.8880467 -0.0063399865 -0.17941691)
(0.20453365 -0.00088622739 -0.030382962)
(0.59000911 -0.0015787447 -0.096916255)
(0.97957786 -0.0021102904 -0.16350145)
(1.3290408 -0.002488632 -0.22008977)
(1.6051655 -0.0030565446 -0.25448802)
(1.7887991 -0.0037673002 -0.2593687)
(1.8807825 -0.0042866083 -0.24051217)
(1.9075769 -0.0041458516 -0.20981966)
(1.906064 -0.003656349 -0.178015)
(0.20727122 -0.00027404501 -0.030526462)
(0.59719058 -0.00044259842 -0.097435511)
(0.99035884 -0.00057208709 -0.16428025)
(1.3420334 -0.00067381366 -0.22092126)
(1.6189835 -0.00087100491 -0.25509813)
(1.8022755 -0.0011366785 -0.25950313)
(1.8930696 -0.0013419449 -0.24015924)
(1.9182351 -0.0013152697 -0.20913359)
(1.9151736 -0.0011655257 -0.17723187)
(0.20727122 0.00027402852 -0.030526475)
(0.59719057 0.00044253347 -0.097435506)
(0.99035883 0.00057197443 -0.16428027)
(1.3420334 0.00067363647 -0.22092128)
(1.6189835 0.00087075329 -0.25509813)
(1.8022755 0.001136324 -0.25950312)
(1.8930696 0.0013415178 -0.24015922)
(1.9182351 0.0013147714 -0.20913356)
(1.9151735 0.001165007 -0.17723186)
(0.20453365 0.00088619693 -0.030382976)
(0.59000911 0.0015786573 -0.096916247)
(0.97957786 0.002110165 -0.16350146)
(1.3290408 0.0024884386 -0.22008977)
(1.6051655 0.0030562695 -0.25448798)
(1.788799 0.00376691 -0.25936865)
(1.8807824 0.0042861175 -0.2405121)
(1.9075768 0.0041453065 -0.20981958)
(1.9060639 0.0036558078 -0.17801501)
(0.19872845 0.0013876582 -0.03005346)
(0.57499326 0.0024578878 -0.095809222)
(0.95732153 0.0033288658 -0.16187171)
(1.3025553 0.0039921323 -0.21836408)
(1.5773451 0.0049767128 -0.25319944)
(1.7619522 0.0062115559 -0.25899486)
(1.8564782 0.0071478506 -0.24106235)
(1.8865057 0.0070389088 -0.2109973)
(1.8880466 0.0063394232 -0.17941694)
(0.19055754 0.0018762506 -0.029605341)
(0.55360437 0.0033759626 -0.09424732)
(0.92529746 0.0046439445 -0.159507)
(1.264139 0.0056305946 -0.2157759)
(1.5368607 0.0070171084 -0.25111528)
(1.7228465 0.0087592644 -0.2581252)
(1.8210985 0.010134968 -0.24146373)
(1.85571 0.010151413 -0.21225348)
(1.8616482 0.009362775 -0.18109767)
(0.18001657 0.0022988565 -0.028971124)
(0.52592868 0.0042501507 -0.092093844)
(0.88377894 0.0059826279 -0.15625672)
(1.2143074 0.0073741777 -0.21219025)
(1.4845195 0.0091951012 -0.24810035)
(1.6725438 0.011460757 -0.2565755)
(1.775808 0.013316557 -0.24147127)
(1.8162017 0.013538598 -0.21325658)
(1.827674 0.012789908 -0.18271873)
(0.16736449 0.0026170138 -0.028131378)
(0.49255835 0.0049830855 -0.089313201)
(0.83356575 0.0072117463 -0.15206039)
(1.1539582 0.0090860905 -0.20751795)
(1.4213049 0.011397807 -0.24404155)
(1.6121367 0.014233453 -0.25419665)
(1.721747 0.016637325 -0.24091478)
(1.7690525 0.017149106 -0.21381417)
(1.786992 0.016566149 -0.18402546)
(0.15301735 0.0028347739 -0.027073)
(0.45445421 0.0055805802 -0.085877045)
(0.77590668 0.0083254263 -0.1468574)
(1.0843656 0.010746071 -0.20165653)
(1.3483688 0.013596675 -0.23881042)
(1.5426755 0.017032864 -0.25085169)
(1.6598672 0.020030865 -0.23968106)
(1.715216 0.020901789 -0.21389142)
(1.7404591 0.020583967 -0.18494836)
(0.13766302 0.0029492268 -0.02580915)
(0.41318517 0.0060149926 -0.081793951)
(0.71278276 0.0092530117 -0.14060278)
(1.0074217 0.012236369 -0.19447665)
(1.2671692 0.01564856 -0.23222598)
(1.4651839 0.01968741 -0.24635081)
(1.5907015 0.023229733 -0.23748319)
(1.6553983 0.02458749 -0.21349862)
(1.6887531 0.024653575 -0.1855595)
(0.12163631 0.002969807 -0.02422833)
(0.36956417 0.0063432598 -0.076802983)
(0.6453066 0.010048495 -0.13294118)
(0.92438953 0.013563388 -0.18554011)
(1.1784918 0.017526693 -0.22397456)
(1.3801484 0.022101743 -0.24050028)
(1.5147366 0.02606166 -0.23436227)
(1.5899965 0.027976945 -0.21276693)
(1.6322105 0.028555207 -0.18610223)
(0.10526935 0.0027550058 -0.022318406)
(0.3244164 0.0061487324 -0.070895141)
(0.57456317 0.010131907 -0.12379304)
(0.83607167 0.014114709 -0.1746975)
(1.0829878 0.01862756 -0.2137195)
(1.287838 0.023678581 -0.23291327)
(1.4320155 0.02789233 -0.23001994)
(1.5191076 0.030421033 -0.21162707)
(1.5708727 0.031659283 -0.186804)
(0.089358992 0.0026127895 -0.020301181)
(0.27958992 0.0061334351 -0.064572151)
(0.50281135 0.010355868 -0.11373787)
(0.74438787 0.014657619 -0.16235171)
(0.9817328 0.019497806 -0.20147882)
(1.1883499 0.024759155 -0.22330051)
(1.3422449 0.029019285 -0.22429131)
(1.442505 0.03212618 -0.2102542)
(1.5046228 0.033772594 -0.18839059)
(0.073856912 0.002002329 -0.017544328)
(0.23492074 0.0049297729 -0.056173852)
(0.42956744 0.0088346452 -0.10028751)
(0.64804377 0.01325817 -0.14565923)
(0.87216148 0.01859396 -0.18472682)
(1.0778141 0.024578286 -0.21003881)
(1.2410134 0.029760037 -0.21686224)
(1.3561059 0.034397299 -0.20920993)
(1.431058 0.037181563 -0.19417002)
(0.055171437 0.0010321151 0.00067972954)
(0.18959032 0.0018034989 3.9754919e-05)
(0.37288915 0.00035993691 -0.0052747345)
(0.60351728 -0.0052025755 -0.01797511)
(0.86382584 -0.016118747 -0.038408159)
(1.1210309 -0.031598979 -0.062439169)
(1.3406603 -0.049028169 -0.083748099)
(1.4999651 -0.063925134 -0.09550543)
(1.5934712 -0.073555964 -0.097544529)
(0.062523791 0.00074040845 0.00024258762)
(0.21467829 0.00045625972 -0.0016531522)
(0.421037 -0.0027206924 -0.009282051)
(0.67657812 -0.010637766 -0.025366289)
(0.95562367 -0.023872425 -0.049203658)
(1.2176464 -0.040499779 -0.074584774)
(1.42724 -0.057328838 -0.094230657)
(1.5693853 -0.07040381 -0.10265515)
(1.6487181 -0.077652602 -0.10062026)
(0.069457919 0.00085956407 0.00013663603)
(0.23841937 0.00034473879 -0.0023443531)
(0.4666 -0.0036403746 -0.011524919)
(0.74526513 -0.01290101 -0.029963306)
(1.0401497 -0.02733449 -0.055936964)
(1.3037262 -0.043978971 -0.081556611)
(1.5014685 -0.059313314 -0.099060628)
(1.6275526 -0.070509151 -0.10507243)
(1.695695 -0.076075276 -0.10074597)
(0.07644532 0.00088366667 -5.5769601e-05)
(0.26208422 0.00011724473 -0.0031873896)
(0.51154341 -0.0044460531 -0.013859785)
(0.81223264 -0.014496584 -0.034289848)
(1.1212328 -0.029360417 -0.061703452)
(1.3849523 -0.045331809 -0.086877432)
(1.5708483 -0.058768227 -0.10193837)
(1.6821862 -0.068037263 -0.10594889)
(1.7399716 -0.072274679 -0.10008868)
(0.083015346 0.0009205208 -0.00022796511)
(0.2844169 4.7443876e-05 -0.0038938043)
(0.55402045 -0.0047770334 -0.015808115)
(0.87549928 -0.015083223 -0.037772281)
(1.1976437 -0.029758765 -0.066129515)
(1.4613841 -0.044650267 -0.090704562)
(1.636451 -0.056177762 -0.10357815)
(1.734468 -0.06360704 -0.10598744)
(1.7824265 -0.066679151 -0.099274374)
(0.089199159 0.00093644821 -0.0004029792)
(0.30539418 5.7117246e-05 -0.0045270775)
(0.59378188 -0.0047485463 -0.0174527)
(0.93433075 -0.014806696 -0.040589139)
(1.268714 -0.028649814 -0.069284328)
(1.5327125 -0.042057114 -0.093244147)
(1.698233 -0.051711492 -0.10430761)
(1.78445 -0.057504686 -0.10552229)
(1.8233076 -0.059660741 -0.098624554)
(0.095100749 0.00088972578 -0.00058510883)
(0.32519022 2.8184931e-05 -0.0051230903)
(0.63092973 -0.0045381793 -0.018874389)
(0.98878612 -0.013896411 -0.042860316)
(1.3340524 -0.026387041 -0.071548665)
(1.5983328 -0.037994517 -0.094840352)
(1.755814 -0.0458533 -0.10460474)
(1.8316551 -0.050262246 -0.10495961)
(1.8624755 -0.051821095 -0.098389875)
(0.10033161 0.00080088217 -0.00075337807)
(0.34275677 1.0445182e-05 -0.0056310772)
(0.66390364 -0.0040936423 -0.0200111)
(1.0371046 -0.012358022 -0.044568861)
(1.3920011 -0.023103531 -0.073077583)
(1.6566658 -0.032745439 -0.095545739)
(1.8077706 -0.038940975 -0.10446557)
(1.875152 -0.042331183 -0.10436288)
(1.899304 -0.043551913 -0.098322819)
(0.10471282 0.00066175974 -0.00090201195)
(0.35752805 -2.429126e-05 -0.0060477041)
(0.69172478 -0.003470245 -0.020876261)
(1.0779983 -0.010297632 -0.045766116)
(1.4411647 -0.018982984 -0.073976727)
(1.7064433 -0.026565549 -0.095693298)
(1.8526598 -0.031282495 -0.1039605)
(1.9135741 -0.033933561 -0.10359674)
(1.9324214 -0.034833828 -0.097665435)
(0.10815495 0.00049223372 -0.0010180327)
(0.36919644 -4.4422012e-05 -0.0063499613)
(0.7137773 -0.0026615284 -0.02145969)
(1.1104707 -0.00777519 -0.046484835)
(1.4802085 -0.01416915 -0.074341688)
(1.7460525 -0.019643804 -0.095336964)
(1.8887138 -0.023001007 -0.10322639)
(1.9450017 -0.024945557 -0.10258184)
(1.9596348 -0.025501615 -0.095740593)
(0.11087792 0.00030084611 -0.0010986672)
(0.37809539 -4.601073e-05 -0.0065490373)
(0.73010097 -0.0016894158 -0.021814748)
(1.1339162 -0.0048595849 -0.046847359)
(1.5078749 -0.0087742299 -0.074368165)
(1.773855 -0.012094412 -0.094784656)
(1.9139605 -0.014127272 -0.10223421)
(1.9672145 -0.015298202 -0.10117352)
(1.9789302 -0.015553962 -0.09379538)
(0.11202211 8.2111677e-05 -0.001136669)
(0.3820764 -7.23619e-05 -0.0066349772)
(0.73775202 -0.00065388575 -0.021949942)
(1.1453196 -0.0017376968 -0.046954656)
(1.521663 -0.0030550297 -0.074275424)
(1.7879221 -0.0041541512 -0.094364016)
(1.9268686 -0.0048142748 -0.1015881)
(1.978631 -0.0051797174 -0.10015683)
(1.9888767 -0.0052295994 -0.092607103)
(0.11202211 -8.2115432e-05 -0.0011366701)
(0.3820764 7.2318568e-05 -0.0066349728)
(0.73775202 0.00065379764 -0.021949943)
(1.1453196 0.0017375323 -0.046954659)
(1.521663 0.0030547589 -0.074275425)
(1.7879221 0.0041537801 -0.094364015)
(1.9268686 0.0048138441 -0.10158808)
(1.978631 0.0051792235 -0.10015679)
(1.9888767 0.0052291076 -0.092607073)
(0.11087792 -0.00030084887 -0.0010986677)
(0.37809538 4.5976218e-05 -0.0065490338)
(0.73010095 0.001689348 -0.02181475)
(1.1339162 0.0048594424 -0.046847362)
(1.5078748 0.0087739682 -0.074368152)
(1.7738549 0.012094024 -0.094784627)
(1.9139604 0.0141268 -0.10223413)
(1.9672143 0.015297683 -0.10117341)
(1.97893 0.015553458 -0.093795304)
(0.10815495 -0.00049223505 -0.0010180253)
(0.36919642 4.4391871e-05 -0.006349985)
(0.71377727 0.0026614724 -0.021459709)
(1.1104706 0.0077750551 -0.046484852)
(1.4802084 0.01416889 -0.074341657)
(1.7460524 0.019643413 -0.095336888)
(1.8887136 0.023000526 -0.10322626)
(1.9450014 0.024945045 -0.10258167)
(1.9596346 0.025501113 -0.095740486)
(0.10471281 -0.00066173886 -0.00090198644)
(0.35752805 2.4290592e-05 -0.0060477517)
(0.69172476 0.0034702182 -0.020876281)
(1.0779982 0.010297513 -0.045766131)
(1.4411645 0.018982742 -0.073976682)
(1.7064431 0.026565203 -0.095693193)
(1.8526596 0.031282081 -0.10396034)
(1.9135738 0.03393312 -0.10359652)
(1.9324211 0.034833346 -0.09766526)
(0.10033161 -0.00080084449 -0.00075333549)
(0.34275675 -1.0427424e-05 -0.0056311125)
(0.66390359 0.0040936375 -0.020011081)
(1.0371046 0.012357936 -0.04456885)
(1.392001 0.023103349 -0.073077543)
(1.6566656 0.032745183 -0.095545638)
(1.8077703 0.038940668 -0.10446538)
(1.8751517 0.042330843 -0.10436257)
(1.8993037 0.043551473 -0.098322502)
(0.095100742 -0.00088969304 -0.0005850906)
(0.3251902 -2.8157419e-05 -0.0051231327)
(0.63092968 0.0045382005 -0.01887439)
(0.98878605 0.013896379 -0.042860357)
(1.3340523 0.026386959 -0.071548677)
(1.5983326 0.037994371 -0.094840264)
(1.7558137 0.045853091 -0.1046045)
(1.8316548 0.050261996 -0.10495918)
(1.8624751 0.051820746 -0.09838942)
(0.089199155 -0.00093643227 -0.00040299838)
(0.30539416 -5.7089295e-05 -0.0045271357)
(0.59378184 0.0047485774 -0.017452754)
(0.93433069 0.014806716 -0.040589242)
(1.2687139 0.028649833 -0.069284348)
(1.5327123 0.042057082 -0.093244019)
(1.6982327 0.051711392 -0.10430731)
(1.7844497 0.057504517 -0.10552179)
(1.8233073 0.059660473 -0.098624041)
(0.08301535 -0.00092051972 -0.00022796453)
(0.2844169 -4.747501e-05 -0.0038938593)
(0.55402046 0.0047770242 -0.015808164)
(0.87549927 0.015083258 -0.037772356)
(1.1976436 0.029758838 -0.06612948)
(1.461384 0.044650346 -0.090704405)
(1.6364509 0.056177762 -0.10357782)
(1.7344679 0.063606945 -0.10598688)
(1.7824263 0.066678891 -0.099273838)
(0.076445331 -0.00088366553 -5.5767481e-05)
(0.26208424 -0.00011730571 -0.0031874679)
(0.51154345 0.0044460091 -0.013859876)
(0.81223267 0.014496601 -0.03428993)
(1.1212329 0.029360496 -0.06170346)
(1.3849523 0.045331942 -0.086877277)
(1.5708483 0.058768314 -0.10193799)
(1.6821861 0.068037233 -0.10594829)
(1.7399715 0.072274536 -0.10008823)
(0.069457938 -0.00085955054 0.00013663123)
(0.23841942 -0.00034475096 -0.0023444063)
(0.46660009 0.0036403884 -0.011524973)
(0.74526524 0.012901071 -0.029963351)
(1.0401498 0.027334628 -0.055936937)
(1.3037263 0.043979147 -0.08155642)
(1.5014686 0.05931349 -0.099060281)
(1.6275527 0.070509204 -0.10507199)
(1.6956951 0.076075189 -0.10074557)
(0.062523819 -0.00074040257 0.00024259014)
(0.21467837 -0.00045626655 -0.0016531605)
(0.42103714 0.0027207134 -0.0092820524)
(0.67657832 0.01063783 -0.025366277)
(0.9556239 0.023872548 -0.049203587)
(1.2176466 0.040499953 -0.074584628)
(1.4272402 0.057328961 -0.094230392)
(1.5693855 0.070403844 -0.10265476)
(1.6487184 0.077652434 -0.10061992)
(0.055171478 -0.0010321062 0.00067972962)
(0.18959044 -0.0018034804 3.975113e-05)
(0.37288935 -0.00035989513 -0.0052747308)
(0.60351757 0.0052026421 -0.017975077)
(0.86382618 0.016118831 -0.038408103)
(1.1210313 0.031599091 -0.062439001)
(1.3406607 0.04902816 -0.083747813)
(1.4999654 0.063924811 -0.095504973)
(1.5934716 0.073555569 -0.097544166)
(0.043494798 0.00036566562 0.0002685672)
(0.15365332 0.00070868728 0.00023624958)
(0.31166209 0.00024240856 -0.0012488797)
(0.52325179 -0.0022534203 -0.0054883395)
(0.77968716 -0.0085986006 -0.013824293)
(1.050845 -0.020003398 -0.026256156)
(1.2919694 -0.035190767 -0.040324131)
(1.4695246 -0.049165795 -0.050647153)
(1.572589 -0.058450418 -0.054909346)
(0.04689539 -2.090248e-05 -0.00010483555)
(0.16682745 -0.00050652635 -0.00092446069)
(0.34003128 -0.0019553364 -0.003425387)
(0.57150081 -0.0056159824 -0.0089741307)
(0.84773961 -0.013368124 -0.018883096)
(1.1300223 -0.026097053 -0.032739339)
(1.3677165 -0.041719646 -0.0467892)
(1.5307733 -0.054922975 -0.05549264)
(1.6201389 -0.062491913 -0.057507964)
(0.04958975 -0.00026401568 -0.00029468735)
(0.17772626 -0.0012923981 -0.0015537406)
(0.36415251 -0.0033903118 -0.0046971815)
(0.61305625 -0.00778681 -0.011112104)
(0.90621431 -0.016314039 -0.021980417)
(1.1966497 -0.029449085 -0.036497465)
(1.4288528 -0.044429758 -0.049924971)
(1.5783959 -0.056282063 -0.057006073)
(1.6574032 -0.062473396 -0.057219535)
(0.052191437 -0.00053158418 -0.00045448427)
(0.18812506 -0.0021089244 -0.0020703198)
(0.38696618 -0.0047894023 -0.0057492225)
(0.6520223 -0.0097482918 -0.012887238)
(0.960503 -0.018731566 -0.024453063)
(1.257878 -0.031837513 -0.039208785)
(1.4845004 -0.045765061 -0.051765412)
(1.6217587 -0.055987196 -0.057159762)
(1.6913809 -0.060814914 -0.055803544)
(0.054474358 -0.00073108142 -0.00053135454)
(0.19747502 -0.0027300562 -0.0023377031)
(0.40780609 -0.0058577587 -0.006374878)
(0.68802851 -0.011210952 -0.014089318)
(1.010881 -0.020384362 -0.026136916)
(1.3150055 -0.033164779 -0.040843682)
(1.5369205 -0.045808018 -0.052412197)
(1.6632786 -0.054330514 -0.056249104)
(1.724077 -0.057819127 -0.053630308)
(0.056598429 -0.00086290096 -0.00054365035)
(0.20616639 -0.0031437633 -0.002404155)
(0.42718844 -0.0065617131 -0.0066396022)
(0.72161851 -0.012110021 -0.014739924)
(1.0580823 -0.021182068 -0.027110146)
(1.368534 -0.033265791 -0.041338402)
(1.5866902 -0.044427895 -0.051794033)
(1.7035607 -0.051275761 -0.054218003)
(1.7561001 -0.05354481 -0.050496626)
(0.058733876 -0.00093814793 -0.00052054838)
(0.21459989 -0.003369551 -0.0023478181)
(0.44559298 -0.00690939 -0.0066540008)
(0.75315679 -0.012419088 -0.014941471)
(1.1023027 -0.021055917 -0.027406749)
(1.4184504 -0.032056562 -0.040837643)
(1.6334802 -0.041586164 -0.049989374)
(1.7421547 -0.046807047 -0.051014877)
(1.7870215 -0.047985864 -0.046295262)
(0.060641083 -0.00093666999 -0.00046471505)
(0.22213049 -0.0033415076 -0.0021769283)
(0.46204884 -0.0067817032 -0.0064212531)
(0.7814856 -0.011968574 -0.014689824)
(1.1422752 -0.019799649 -0.026972058)
(1.4638167 -0.029354244 -0.039564239)
(1.6761723 -0.037133528 -0.047167584)
(1.7778322 -0.040823325 -0.046891606)
(1.8156916 -0.041107301 -0.041389649)
(0.062243306 -0.00084686562 -0.00038872369)
(0.22849511 -0.0030185766 -0.0019314895)
(0.47606056 -0.0061017136 -0.0060147983)
(0.8058961 -0.010650979 -0.014120019)
(1.1768317 -0.017293624 -0.026009137)
(1.503178 -0.025076117 -0.037642776)
(1.7133666 -0.031021039 -0.043778986)
(1.8091298 -0.033360966 -0.042459098)
(1.8408545 -0.033110585 -0.036725347)
(0.063517733 -0.00067246925 -0.00030964417)
(0.23357837 -0.002403321 -0.0016701853)
(0.48729068 -0.0048574843 -0.0055501914)
(0.82556833 -0.0084281584 -0.013417745)
(1.2047047 -0.013502487 -0.024841439)
(1.5349465 -0.01923791 -0.035611777)
(1.743368 -0.023363579 -0.040392636)
(1.8344764 -0.024700692 -0.038420691)
(1.8613659 -0.024274316 -0.033475367)
(0.064670504 -0.00043478473 -0.00024723108)
(0.23777878 -0.001554864 -0.0014604323)
(0.49600676 -0.003142045 -0.0051654312)
(0.84019546 -0.0054277089 -0.012815694)
(1.2248405 -0.0086087186 -0.023835538)
(1.5574897 -0.012099853 -0.033930063)
(1.7644932 -0.014494491 -0.037883123)
(1.8522959 -0.015174802 -0.035684532)
(1.8758256 -0.014841802 -0.031226743)
(0.065065863 -0.00015280099 -0.00021385398)
(0.23945176 -0.00054429346 -0.0013459623)
(0.49983982 -0.001093416 -0.0049493012)
(0.8470804 -0.001877458 -0.012465973)
(1.2347139 -0.0029598191 -0.023258422)
(1.568785 -0.0041323049 -0.032999284)
(1.7751824 -0.0049155725 -0.036519539)
(1.8614099 -0.0051227992 -0.034340697)
(1.8832488 -0.0049998255 -0.030051332)
(0.065065863 0.00015280268 -0.00021385454)
(0.23945176 0.00054426716 -0.0013459647)
(0.49983983 0.0010933642 -0.0049493052)
(0.8470804 0.0018773593 -0.012465979)
(1.2347139 0.002959633 -0.023258422)
(1.568785 0.0041320248 -0.032999272)
(1.7751824 0.0049152214 -0.036519506)
(1.8614098 0.0051224063 -0.034340644)
(1.8832487 0.0049994393 -0.030051271)
(0.064670503 0.0004347885 -0.00024722964)
(0.23777878 0.0015548475 -0.0014604404)
(0.49600676 0.0031420124 -0.0051654411)
(0.84019544 0.0054276328 -0.012815704)
(1.2248404 0.0086085478 -0.023835528)
(1.5574896 0.012099573 -0.033930017)
(1.7644931 0.014494132 -0.037883023)
(1.8522957 0.015174409 -0.035684373)
(1.8758254 0.014841428 -0.031226567)
(0.063517732 0.00067247807 -0.00030963799)
(0.23357836 0.0024033195 -0.0016702095)
(0.48729067 0.0048574755 -0.005550215)
(0.82556829 0.0084281072 -0.013417764)
(1.2047046 0.013502337 -0.024841416)
(1.5349464 0.019237644 -0.03561169)
(1.7433677 0.023363232 -0.040392467)
(1.8344762 0.024700325 -0.038420435)
(1.8613656 0.024273993 -0.033475093)
(0.062243307 0.00084688895 -0.00038871675)
(0.22849511 0.0030186039 -0.0019315365)
(0.47606055 0.0061017401 -0.0060148379)
(0.80589605 0.010650961 -0.014120049)
(1.1768315 0.017293506 -0.026009106)
(1.5031778 0.025075891 -0.037642659)
(1.7133664 0.031020735 -0.043778757)
(1.8091295 0.033360656 -0.042458759)
(1.8408541 0.033110339 -0.036724993)
(0.060641082 0.00093670948 -0.00046471314)
(0.22213048 0.0033415622 -0.0021769971)
(0.46204882 0.0067817654 -0.006421305)
(0.78148555 0.011968593 -0.014689865)
(1.1422751 0.01979958 -0.02697203)
(1.4638165 0.029354077 -0.039564108)
(1.676172 0.037133288 -0.047167312)
(1.7778318 0.040823083 -0.046891196)
(1.8156912 0.04110712 -0.041389236)
(0.058733876 0.00093819329 -0.00052055857)
(0.21459988 0.0033696231 -0.0023478965)
(0.44559296 0.0069094839 -0.0066540703)
(0.75315677 0.012419147 -0.014941543)
(1.1023026 0.021055909 -0.027406741)
(1.4184503 0.032056462 -0.040837506)
(1.6334799 0.041585991 -0.049989073)
(1.7421543 0.046806863 -0.051014414)
(1.7870211 0.047985723 -0.046294837)
(0.056598432 0.00086294002 -0.00054367566)
(0.2061664 0.0031438311 -0.0024042443)
(0.42718844 0.0065618112 -0.006639692)
(0.72161851 0.012110105 -0.014740021)
(1.0580822 0.021182113 -0.027110144)
(1.3685338 0.033265756 -0.041338255)
(1.58669 0.044427792 -0.051793716)
(1.7035604 0.05127562 -0.054217513)
(1.7560997 0.053544677 -0.050496235)
(0.054474368 0.00073111329 -0.00053137481)
(0.19747505 0.0027300988 -0.0023377871)
(0.40780613 0.0058578434 -0.006374962)
(0.68802855 0.011211052 -0.014089416)
(1.010881 0.020384445 -0.026136916)
(1.3150054 0.033164812 -0.04084355)
(1.5369203 0.045807972 -0.052411885)
(1.6632784 0.054330412 -0.056248612)
(1.7240768 0.057818984 -0.053629955)
(0.052191452 0.00053161421 -0.0004544971)
(0.18812509 0.0021089532 -0.002070395)
(0.38696624 0.0047894714 -0.0057493167)
(0.65202237 0.0097483909 -0.012887346)
(0.96050306 0.018731658 -0.024453108)
(1.257878 0.031837572 -0.039208681)
(1.4845003 0.045765051 -0.051765105)
(1.6217586 0.055987148 -0.057159317)
(1.6913807 0.060814846 -0.055803273)
(0.049589771 0.00026404946 -0.00029470413)
(0.17772631 0.0012924401 -0.0015538168)
(0.3641526 0.0033903872 -0.0046972834)
(0.61305636 0.0077869045 -0.011112219)
(0.90621441 0.016314138 -0.021980471)
(1.1966498 0.029449145 -0.036497386)
(1.4288528 0.044429757 -0.049924759)
(1.5783959 0.056282064 -0.057005813)
(1.6574032 0.062473452 -0.057219346)
(0.046895419 2.0928242e-05 -0.00010485105)
(0.16682753 0.00050656727 -0.0009245134)
(0.34003141 0.0019554033 -0.0034254589)
(0.57150098 0.005616057 -0.0089742103)
(0.84773978 0.013368191 -0.018883133)
(1.1300224 0.026097101 -0.032739313)
(1.3677166 0.041719627 -0.046789145)
(1.5307734 0.054922997 -0.055492665)
(1.620139 0.062491994 -0.057507966)
(0.043494838 -0.00036565599 0.00026856081)
(0.15365344 -0.00070867169 0.0002362274)
(0.31166227 -0.00024239177 -0.0012489124)
(0.52325202 0.002253413 -0.0054883666)
(0.7796874 0.0085985457 -0.013824297)
(1.0508452 0.020003298 -0.026256119)
(1.2919696 0.035190545 -0.04032417)
(1.4695248 0.049165536 -0.050647238)
(1.5725892 0.058450393 -0.054909551)
(0.049113991 -7.059077e-05 -4.1212736e-05)
(0.17063358 -0.00055953648 -0.00035223745)
(0.34027274 -0.0018546845 -0.0010892198)
(0.56096896 -0.0045601623 -0.0026664945)
(0.82179632 -0.0093741333 -0.0058044088)
(1.0940029 -0.01659795 -0.011122316)
(1.336432 -0.025068152 -0.01735118)
(1.5168613 -0.033374802 -0.023119818)
(1.6208493 -0.039809684 -0.026851477)
(0.052767718 -0.00013768627 -8.7257218e-05)
(0.184088 -0.00086387822 -0.00051565826)
(0.36795643 -0.0026107517 -0.0014618323)
(0.60595294 -0.0061007476 -0.0034530495)
(0.88269439 -0.012113062 -0.0073401164)
(1.162725 -0.020791629 -0.013698345)
(1.4000451 -0.030289595 -0.02075466)
(1.5655246 -0.038459065 -0.02650843)
(1.6561512 -0.043865398 -0.029604493)
(0.055624118 -0.00011341189 -5.8168043e-05)
(0.1949163 -0.00090338473 -0.00046372512)
(0.39064287 -0.0029092707 -0.0014725252)
(0.64301584 -0.006938292 -0.0037118982)
(0.93245562 -0.013768818 -0.0081475415)
(1.2173475 -0.023335496 -0.015293102)
(1.448015 -0.033267617 -0.022964226)
(1.5996614 -0.040957711 -0.028612304)
(1.6802388 -0.045446634 -0.03111129)
(0.058325437 -0.00013019056 -6.4754341e-05)
(0.20500869 -0.0010318485 -0.00049979524)
(0.41154918 -0.0032912506 -0.0016070398)
(0.6768038 -0.0077680486 -0.004102926)
(0.97734412 -0.015222315 -0.0090833701)
(1.2660831 -0.025279464 -0.016855795)
(1.4904388 -0.035128737 -0.024771661)
(1.630049 -0.042108365 -0.030115123)
(1.7018638 -0.04567699 -0.031893578)
(0.060625588 -0.0001700595 -8.2736358e-05)
(0.21379427 -0.0012078212 -0.00056038464)
(0.43003636 -0.0037112313 -0.0017678917)
(0.70706428 -0.0085770955 -0.0045101269)
(1.0180476 -0.016550912 -0.010030914)
(1.3106462 -0.026686786 -0.018059555)
(1.5299175 -0.036063609 -0.025898796)
(1.6592841 -0.04213273 -0.030732269)
(1.7229861 -0.044691455 -0.031691545)
(0.062698822 -0.00025725024 -0.00011511404)
(0.22171988 -0.0014871826 -0.00064345593)
(0.44674046 -0.0042366276 -0.0019189311)
(0.73455151 -0.0094110484 -0.0048310008)
(1.0553666 -0.017491141 -0.0104579)
(1.3519106 -0.027252341 -0.018319257)
(1.567222 -0.035783375 -0.025733035)
(1.6878347 -0.040734436 -0.029865248)
(1.7439051 -0.042287272 -0.030080833)
(0.064720325 -0.00037633951 -0.00014271353)
(0.2292168 -0.0018203156 -0.00068796232)
(0.462247 -0.004757371 -0.0019343695)
(0.75986121 -0.010022784 -0.004783689)
(1.0894161 -0.017805549 -0.010133554)
(1.3898515 -0.026814307 -0.017541477)
(1.6020867 -0.034214574 -0.024290733)
(1.7152324 -0.037979644 -0.027671926)
(1.7642144 -0.038602485 -0.027311381)
(0.066457818 -0.00047634747 -0.00014395453)
(0.23568679 -0.0020639755 -0.00063749251)
(0.47569642 -0.0050469872 -0.0017408685)
(0.78196648 -0.010064794 -0.0042613672)
(1.1193729 -0.017188434 -0.0091119957)
(1.4236711 -0.025095399 -0.015865111)
(1.6336666 -0.031165798 -0.021842334)
(1.740574 -0.033757581 -0.024513444)
(1.7831445 -0.033619943 -0.023807321)
(0.06784815 -0.0005056428 -0.00011381999)
(0.24092153 -0.0020590642 -0.00048191296)
(0.48669505 -0.0048159273 -0.0013173588)
(0.80016764 -0.0092610669 -0.0033802241)
(1.1444876 -0.015354752 -0.0076116596)
(1.4524273 -0.021856727 -0.013602086)
(1.6608753 -0.026487938 -0.018812767)
(1.7627294 -0.028032193 -0.020930346)
(1.79977 -0.027441003 -0.020213274)
(0.068903172 -0.00044740273 -6.5287712e-05)
(0.24493838 -0.00176165 -0.00027622605)
(0.49520094 -0.004001357 -0.00081022237)
(0.81433239 -0.0075125983 -0.0023910383)
(1.1642237 -0.012205284 -0.0059909361)
(1.4752095 -0.017047938 -0.011250858)
(1.6825727 -0.020243047 -0.015758525)
(1.7804987 -0.021002213 -0.017554517)
(1.8131257 -0.020303288 -0.017193795)
(0.069874379 -0.00030832755 -1.7875156e-05)
(0.2482925 -0.0011892443 -8.6257525e-05)
(0.50180937 -0.0026557309 -0.00036800647)
(0.82478322 -0.004911868 -0.0015549365)
(1.1783302 -0.0078753551 -0.0046440262)
(1.4912133 -0.010858264 -0.00932298)
(1.6976825 -0.012704449 -0.013322957)
(1.7928129 -0.013000563 -0.015030673)
(1.8223743 -0.012472627 -0.01503979)
(0.070165818 -0.00011021098 9.3740021e-06)
(0.24950633 -0.00042135711 2.13997e-05)
(0.50452098 -0.00093401122 -0.00011864595)
(0.82946786 -0.0017150985 -0.0010843389)
(1.1850414 -0.0027306551 -0.0038900486)
(1.4990917 -0.0037379859 -0.0082581856)
(1.7052512 -0.0043368859 -0.011983297)
(1.7990178 -0.0044048473 -0.013721349)
(1.8270466 -0.004210077 -0.013923926)
(0.070165819 0.00011022259 9.3724876e-06)
(0.24950634 0.00042136754 2.1391702e-05)