/*--------------------------------*- C++ -*----------------------------------*\
  =========                 |
  \\      /  F ield         | OpenFOAM: The Open Source CFD Toolbox
   \\    /   O peration     | Website:  https://openfoam.org
    \\  /    A nd           | Version:  10
     \\/     M anipulation  |
\*---------------------------------------------------------------------------*/
FoamFile
{
    format      ascii;
    class       volScalarField;
    location    "9";
    object      T;
}
// * * * * * * * * * * * * * * * * * * * * * * * * * * * * * * * * * * * * * //

dimensions      [0 0 -1 0 0 0 0];

internalField   nonuniform List<scalar> 
100
(
5.9392
17.7624
29.428
40.8324
51.8743
62.4559
72.483
81.8668
90.5239
98.3776
105.358
111.403
116.46
120.483
123.436
125.294
126.039
125.666
124.178
121.587
117.917
113.201
107.479
100.804
93.2339
84.8363
75.6857
65.8633
55.4563
44.5571
33.2623
21.6724
9.89006
-1.98004
-13.8326
-25.5623
-37.0652
-48.239
-58.9847
-69.2069
-78.8147
-87.723
-95.8527
-103.132
-109.495
-114.887
-119.258
-122.572
-124.797
-125.915
-125.915
-124.797
-122.572
-119.258
-114.886
-109.495
-103.131
-95.8526
-87.7229
-78.8146
-69.2068
-58.9846
-48.2389
-37.0651
-25.5622
-13.8324
-1.97991
9.8902
21.6725
33.2625
44.5572
55.4564
65.8634
75.6858
84.8364
93.234
100.804
107.479
113.201
117.917
121.587
124.178
125.666
126.039
125.294
123.436
120.483
116.46
111.403
105.358
98.3776
90.524
81.8668
72.483
62.4559
51.8744
40.8324
29.428
17.7624
5.9392
)
;

boundaryField
{
    xmin
    {
        type            fixedValue;
        value           uniform 0;
    }
    xmax
    {
        type            fixedValue;
        value           uniform 0;
    }
    frontAndBack
    {
        type            empty;
    }
}


// ************************************************************************* //
