/*--------------------------------*- C++ -*----------------------------------*\
| =========                 |                                                 |
| \\      /  F ield         | OpenFOAM: The Open Source CFD Toolbox           |
|  \\    /   O peration     | Version:  2406                                  |
|   \\  /    A nd           | Website:  www.openfoam.com                      |
|    \\/     M anipulation  |                                                 |
\*---------------------------------------------------------------------------*/
FoamFile
{
    version     2.0;
    format      ascii;
    arch        "LSB;label=32;scalar=64";
    class       volScalarField;
    location    "4";
    object      p;
}
// * * * * * * * * * * * * * * * * * * * * * * * * * * * * * * * * * * * * * //

dimensions      [0 2 -2 0 0 0 0];

internalField   nonuniform List<scalar> 
34560
(
26.603079
26.589557
26.571616
26.550094
26.525433
26.499572
26.474628
26.451959
26.433217
26.684552
26.667784
26.645038
26.616985
26.584042
26.548813
26.514897
26.48446
26.459059
26.760815
26.741027
26.714036
26.680625
26.641137
26.598547
26.557199
26.519915
26.488833
26.836928
26.814253
26.783085
26.744325
26.698415
26.648861
26.600535
26.556639
26.519688
26.910915
26.885458
26.850263
26.806352
26.754276
26.698122
26.643025
26.59257
26.549706
26.97921
26.951459
26.912811
26.864348
26.806709
26.744582
26.68315
26.626422
26.577878
27.041302
27.011448
26.969633
26.917014
26.854311
26.786759
26.719559
26.657051
26.603257
27.095693
27.063973
27.01935
26.963056
26.895892
26.823476
26.751187
26.683571
26.625115
27.141123
27.107794
27.060756
27.00132
26.9304
26.853829
26.777232
26.705303
26.642929
27.176134
27.141538
27.092593
27.030693
26.956874
26.877073
26.79709
26.721783
26.656365
27.199915
27.164377
27.114069
27.050468
26.974701
26.892722
26.810415
26.732772
26.665288
27.212251
27.176188
27.125129
27.060601
26.983789
26.90064
26.817109
26.738241
26.669717
27.212251
27.176189
27.125129
27.060601
26.98379
26.90064
26.817109
26.738241
26.669717
27.199915
27.164378
27.114069
27.050468
26.974702
26.892722
26.810415
26.732772
26.665287
27.176135
27.141539
27.092594
27.030693
26.956873
26.877072
26.79709
26.721782
26.656364
27.141124
27.107795
27.060756
27.00132
26.930399
26.853829
26.777231
26.705302
26.642928
27.095693
27.063973
27.01935
26.963056
26.895892
26.823475
26.751186
26.68357
26.625113
27.041302
27.011448
26.969633
26.917015
26.854312
26.786759
26.719558
26.65705
26.603255
26.979211
26.95146
26.912812
26.864349
26.80671
26.744583
26.68315
26.626421
26.577878
26.910917
26.885459
26.850265
26.806354
26.754278
26.698123
26.643025
26.59257
26.549706
26.836931
26.814255
26.783087
26.744326
26.698416
26.648863
26.600537
26.55664
26.519689
26.760818
26.74103
26.714039
26.680628
26.641139
26.598551
26.557202
26.519918
26.488835
26.684556
26.667788
26.645042
26.616989
26.584046
26.548818
26.514902
26.484467
26.459063
26.603083
26.589561
26.57162
26.550098
26.525437
26.499577
26.474634
26.451967
26.433224
24.446219
24.447245
24.448643
24.451157
24.455583
24.461672
24.468405
24.473903
24.478264
24.43569
24.43728
24.439569
24.443484
24.44989
24.458156
24.466463
24.473027
24.477997
24.42339
24.425537
24.428655
24.433977
24.442516
24.453258
24.463702
24.47173
24.477382
24.412302
24.415067
24.419011
24.425563
24.435963
24.448927
24.461384
24.470867
24.477295
24.402185
24.405573
24.410439
24.418269
24.430495
24.445623
24.46003
24.470883
24.478025
24.392487
24.396489
24.402488
24.411914
24.426038
24.443353
24.459695
24.471803
24.479559
24.38396
24.388414
24.395447
24.406733
24.422874
24.44228
24.460432
24.473635
24.481883
24.376268
24.380977
24.388651
24.402062
24.421031
24.442414
24.462158
24.476315
24.484914
24.370191
24.375014
24.383088
24.398015
24.419898
24.443613
24.464747
24.479669
24.48849
24.365384
24.370256
24.378462
24.394039
24.418705
24.445768
24.468025
24.483399
24.492314
24.362587
24.36741
24.375727
24.391785
24.417577
24.447144
24.471229
24.486876
24.495715
24.361567
24.36629
24.374623
24.390975
24.417328
24.447853
24.473129
24.489118
24.497773
24.361567
24.36629
24.374622
24.390975
24.417328
24.447853
24.473129
24.489117
24.497772
24.362587
24.36741
24.375726
24.391785
24.417577
24.447143
24.471228
24.486875
24.495714
24.365383
24.370255
24.378461
24.394038
24.418704
24.445767
24.468024
24.483398
24.492312
24.37019
24.375013
24.383086
24.398014
24.419897
24.443612
24.464745
24.479668
24.488488
24.376267
24.380976
24.38865
24.402061
24.42103
24.442412
24.462156
24.476313
24.484912
24.383959
24.388413
24.395446
24.406732
24.422873
24.442278
24.46043
24.473633
24.48188
24.392486
24.396488
24.402487
24.411913
24.426037
24.443352
24.459693
24.471801
24.479556
24.402185
24.405572
24.410439
24.418269
24.430494
24.445622
24.460029
24.470881
24.478022
24.412301
24.415066
24.41901
24.425563
24.435963
24.448926
24.461384
24.470866
24.477293
24.42339
24.425537
24.428655
24.433977
24.442516
24.453258
24.463702
24.47173
24.477379
24.43569
24.43728
24.439569
24.443485
24.449891
24.458158
24.466465
24.473027
24.477994
24.446219
24.447246
24.448643
24.451158
24.455584
24.461673
24.468406
24.473904
24.478264
23.85993
23.860024
23.85996
23.859572
23.858987
23.858518
23.858526
23.858956
23.859178
23.856219
23.856476
23.856609
23.856422
23.856092
23.855947
23.856279
23.856989
23.857493
23.85127
23.851674
23.851979
23.85198
23.851921
23.852174
23.852993
23.854179
23.855124
23.846484
23.846973
23.847362
23.847485
23.847607
23.848167
23.849436
23.851163
23.852692
23.842056
23.842565
23.842889
23.84305
23.843337
23.844181
23.845875
23.84813
23.85026
23.838401
23.838915
23.838944
23.838817
23.839196
23.84029
23.84237
23.845127
23.847819
23.835769
23.836332
23.836029
23.835206
23.83539
23.836635
23.839013
23.842203
23.845427
23.834492
23.835171
23.834795
23.832897
23.831941
23.833222
23.835844
23.839398
23.843129
23.833974
23.834762
23.834392
23.831853
23.829456
23.83014
23.832874
23.836743
23.840968
23.834357
23.835191
23.834959
23.832481
23.828569
23.827348
23.830086
23.834308
23.839034
23.83462
23.83551
23.835339
23.832946
23.828874
23.826173
23.827856
23.832313
23.837526
23.834759
23.835684
23.835531
23.833126
23.829025
23.825915
23.826758
23.831111
23.836683
23.834758
23.835684
23.835531
23.833125
23.829025
23.825915
23.826758
23.831111
23.836682
23.83462
23.835509
23.835339
23.832945
23.828874
23.826173
23.827856
23.832313
23.837525
23.834356
23.83519
23.834958
23.83248
23.828568
23.827347
23.830085
23.834307
23.839033
23.833973
23.83476
23.834391
23.831852
23.829455
23.830139
23.832873
23.836742
23.840966
23.83449
23.83517
23.834793
23.832896
23.83194
23.833221
23.835843
23.839396
23.843128
23.835767
23.83633
23.836027
23.835204
23.835389
23.836633
23.839011
23.842201
23.845424
23.838399
23.838913
23.838942
23.838816
23.839194
23.840288
23.842368
23.845125
23.847816
23.842054
23.842563
23.842887
23.843048
23.843335
23.844179
23.845873
23.848128
23.850257
23.846482
23.846971
23.84736
23.847483
23.847605
23.848165
23.849434
23.851161
23.852689
23.851268
23.851672
23.851977
23.851978
23.851919
23.852172
23.85299
23.854177
23.85512
23.856217
23.856473
23.856607
23.85642
23.85609
23.855945
23.856277
23.856985
23.857489
23.859928
23.860021
23.859957
23.85957
23.858985
23.858515
23.858523
23.858953
23.859174
22.590912
22.590802
22.590716
22.590752
22.590937
22.591162
22.591212
22.590899
22.590512
22.590982
22.590892
22.590863
22.591012
22.591359
22.591729
22.591814
22.591415
22.590748
22.590671
22.590599
22.590623
22.590889
22.591423
22.59199
22.59219
22.591783
22.590931
22.590464
22.590417
22.590491
22.590855
22.591541
22.592269
22.592564
22.592161
22.591196
22.590279
22.590257
22.590387
22.590861
22.591714
22.592617
22.593008
22.592602
22.591548
22.590014
22.590026
22.590224
22.590833
22.591898
22.593016
22.593496
22.59307
22.591926
22.58973
22.589773
22.590037
22.590797
22.592141
22.593524
22.594047
22.593541
22.592285
22.589247
22.589324
22.589652
22.590518
22.592035
22.593724
22.594559
22.593976
22.592586
22.588428
22.588538
22.588907
22.589822
22.591417
22.593301
22.59454
22.594254
22.592771
22.587569
22.587699
22.588097
22.589055
22.590704
22.592687
22.594063
22.5941
22.592759
22.586868
22.587019
22.587439
22.58845
22.590188
22.592253
22.593662
22.593722
22.592609
22.58649
22.586658
22.587093
22.588121
22.589893
22.591998
22.593436
22.593477
22.592451
22.58649
22.586658
22.587093
22.588121
22.589893
22.591998
22.593436
22.593477
22.592451
22.586867
22.587018
22.587439
22.58845
22.590187
22.592253
22.593662
22.593721
22.592609
22.587568
22.587698
22.588096
22.589054
22.590703
22.592686
22.594062
22.594099
22.592758
22.588426
22.588537
22.588905
22.589821
22.591416
22.5933
22.594538
22.594252
22.59277
22.589245
22.589322
22.58965
22.590516
22.592033
22.593722
22.594557
22.593974
22.592585
22.589728
22.589771
22.590034
22.590794
22.592138
22.593522
22.594044
22.593538
22.592283
22.590011
22.590024
22.590221
22.59083
22.591895
22.593013
22.593493
22.593067
22.591923
22.590276
22.590254
22.590384
22.590858
22.591711
22.592613
22.593004
22.592599
22.591545
22.59046
22.590413
22.590487
22.590851
22.591537
22.592265
22.59256
22.592158
22.591193
22.590667
22.590595
22.590619
22.590885
22.591418
22.591986
22.592186
22.591779
22.590928
22.590977
22.590887
22.590858
22.591007
22.591354
22.591724
22.59181
22.591411
22.590745
22.590906
22.590797
22.590711
22.590747
22.590931
22.591156
22.591207
22.590895
22.590509
21.573395
21.573388
21.573347
21.573231
21.573041
21.572843
21.572755
21.572811
21.572892
21.572778
21.572792
21.572777
21.572686
21.572529
21.572382
21.572357
21.572491
21.572661
21.57196
21.57199
21.571993
21.571921
21.571797
21.57171
21.571779
21.572029
21.572304
21.57115
21.571194
21.571208
21.571142
21.571032
21.570992
21.571153
21.571528
21.571943
21.570355
21.570411
21.570433
21.570369
21.570268
21.570267
21.570527
21.571038
21.571597
21.5696
21.569666
21.569692
21.569618
21.569498
21.56952
21.569902
21.570568
21.571272
21.569001
21.569072
21.56909
21.568976
21.568764
21.568746
21.569277
21.57013
21.570978
21.568731
21.5688
21.568809
21.568674
21.568451
21.568349
21.568751
21.569753
21.570737
21.568895
21.568962
21.568983
21.568888
21.56874
21.568647
21.568796
21.569539
21.570579
21.569268
21.569339
21.569379
21.569335
21.569227
21.569163
21.5693
21.569726
21.570546
21.569581
21.569659
21.569718
21.569693
21.569608
21.569563
21.569712
21.570082
21.570595
21.569755
21.569831
21.569896
21.569886
21.569816
21.569781
21.569926
21.570283
21.570666
21.569754
21.569831
21.569896
21.569886
21.569816
21.56978
21.569925
21.570283
21.570666
21.56958
21.569658
21.569717
21.569692
21.569607
21.569563
21.569711
21.570081
21.570594
21.569267
21.569338
21.569377
21.569334
21.569226
21.569162
21.569298
21.569725
21.570545
21.568894
21.568961
21.568982
21.568886
21.568738
21.568646
21.568794
21.569537
21.570578
21.56873
21.568798
21.568807
21.568672
21.568449
21.568347
21.568748
21.569751
21.570735
21.568998
21.569069
21.569087
21.568973
21.568761
21.568743
21.569275
21.570128
21.570976
21.569597
21.569663
21.569689
21.569615
21.569494
21.569516
21.569898
21.570565
21.571269
21.570351
21.570407
21.570429
21.570365
21.570263
21.570263
21.570523
21.571035
21.571594
21.571145
21.571189
21.571204
21.571137
21.571027
21.570987
21.571149
21.571523
21.571939
21.571955
21.571985
21.571988
21.571916
21.571791
21.571705
21.571774
21.572024
21.5723
21.572772
21.572786
21.572771
21.57268
21.572523
21.572376
21.572351
21.572485
21.572656
21.573389
21.573382
21.57334
21.573224
21.573034
21.572836
21.572748
21.572805
21.572886
20.429559
20.42954
20.429522
20.429521
20.429532
20.429526
20.429459
20.429304
20.429136
20.429447
20.429431
20.429424
20.429444
20.429487
20.429511
20.429452
20.42928
20.429057
20.429289
20.429274
20.429274
20.429312
20.429386
20.429442
20.429402
20.429226
20.428969
20.429156
20.429144
20.429149
20.429201
20.429294
20.429372
20.429344
20.429173
20.428904
20.429026
20.429017
20.42903
20.429094
20.429207
20.429305
20.429293
20.42913
20.428859
20.428875
20.428871
20.428893
20.428972
20.429105
20.429225
20.429235
20.429088
20.428824
20.428718
20.42872
20.428748
20.428839
20.428988
20.42913
20.429166
20.429042
20.428793
20.428567
20.428572
20.428605
20.428706
20.428871
20.429036
20.42909
20.428989
20.428762
20.428428
20.428435
20.428472
20.428578
20.428752
20.428945
20.429025
20.428932
20.428731
20.428289
20.428297
20.428337
20.428443
20.428616
20.428805
20.428922
20.428873
20.428701
20.428158
20.428167
20.428206
20.428307
20.428471
20.428648
20.42879
20.428817
20.428674
20.428083
20.428092
20.42813
20.428226
20.42838
20.428562
20.428716
20.428776
20.428658
20.428082
20.428092
20.42813
20.428226
20.42838
20.428562
20.428716
20.428776
20.428658
20.428157
20.428167
20.428206
20.428307
20.42847
20.428647
20.428789
20.428816
20.428673
20.428288
20.428296
20.428336
20.428441
20.428615
20.428803
20.42892
20.428872
20.4287
20.428427
20.428433
20.428471
20.428576
20.42875
20.428943
20.429023
20.428931
20.42873
20.428565
20.428569
20.428603
20.428703
20.428868
20.429033
20.429087
20.428987
20.428761
20.428716
20.428717
20.428745
20.428835
20.428984
20.429126
20.429163
20.429039
20.428791
20.428871
20.428867
20.428889
20.428968
20.429101
20.429221
20.429231
20.429084
20.428822
20.429022
20.429013
20.429025
20.429089
20.429202
20.429299
20.429287
20.429125
20.428856
20.42915
20.429138
20.429143
20.429194
20.429288
20.429365
20.429338
20.429168
20.428899
20.429281
20.429267
20.429266
20.429305
20.429378
20.429434
20.429394
20.429219
20.428963
20.429439
20.429423
20.429415
20.429436
20.429479
20.429502
20.429444
20.429271
20.429048
20.429549
20.42953
20.429512
20.429512
20.429523
20.429516
20.429449
20.429293
20.429125
19.344985
19.344988
19.344986
19.344966
19.344928
19.344886
19.344869
19.344887
19.344913
19.344866
19.344874
19.344876
19.34486
19.344827
19.344793
19.344789
19.344827
19.34488
19.344702
19.344714
19.344719
19.344707
19.344678
19.344655
19.344669
19.344734
19.344812
19.344536
19.344551
19.344559
19.344547
19.34452
19.344505
19.344539
19.34463
19.344741
19.344369
19.344386
19.344396
19.344384
19.344359
19.344353
19.344406
19.344527
19.34467
19.344202
19.344221
19.344233
19.344222
19.344199
19.344201
19.344275
19.344426
19.344601
19.34405
19.34407
19.344082
19.34407
19.344047
19.344056
19.344149
19.34433
19.344534
19.34392
19.34394
19.343952
19.343939
19.343913
19.34392
19.344031
19.344243
19.344473
19.343822
19.343843
19.343854
19.343839
19.34381
19.34381
19.343927
19.344171
19.344423
19.343762
19.343783
19.343795
19.34378
19.343754
19.343776
19.343895
19.344131
19.344389
19.343738
19.343759
19.343772
19.343762
19.34375
19.343795
19.343919
19.344118
19.34437
19.343733
19.343754
19.343767
19.343762
19.343762
19.343809
19.343933
19.344121
19.344362
19.343733
19.343754
19.343767
19.343762
19.343761
19.343809
19.343933
19.344121
19.344362
19.343738
19.343759
19.343771
19.343762
19.343749
19.343794
19.343918
19.344117
19.344369
19.343761
19.343782
19.343793
19.343778
19.343753
19.343774
19.343893
19.34413
19.344388
19.34382
19.343841
19.343852
19.343837
19.343807
19.343807
19.343925
19.34417
19.344422
19.343917
19.343938
19.34395
19.343936
19.34391
19.343916
19.344028
19.344241
19.344472
19.344047
19.344066
19.344078
19.344066
19.344043
19.344051
19.344146
19.344327
19.344532
19.344198
19.344216
19.344228
19.344216
19.344193
19.344196
19.34427
19.344422
19.344598
19.344363
19.34438
19.344389
19.344378
19.344352
19.344346
19.3444
19.344522
19.344666
19.344529
19.344543
19.344551
19.344539
19.344512
19.344497
19.344531
19.344624
19.344736
19.344693
19.344704
19.34471
19.344697
19.344668
19.344646
19.34466
19.344726
19.344806
19.344855
19.344863
19.344865
19.344849
19.344815
19.344782
19.344778
19.344817
19.344872
19.344972
19.344976
19.344973
19.344953
19.344915
19.344874
19.344856
19.344875
19.344902
18.230489
18.230483
18.230478
18.230477
18.230482
18.230485
18.230474
18.230441
18.230405
18.230461
18.230455
18.230452
18.230457
18.23047
18.23048
18.230472
18.230436
18.230388
18.230427
18.230421
18.230419
18.230429
18.230449
18.230467
18.230463
18.230425
18.230368
18.230403
18.230397
18.230397
18.23041
18.230435
18.230458
18.230455
18.230416
18.230354
18.230384
18.230379
18.23038
18.230396
18.230425
18.230452
18.230451
18.230411
18.230345
18.230365
18.230361
18.230363
18.230383
18.230416
18.230448
18.230449
18.230409
18.23034
18.230349
18.230346
18.23035
18.230371
18.230409
18.230445
18.23045
18.230409
18.230338
18.230334
18.230332
18.230337
18.230361
18.230402
18.230443
18.230452
18.230409
18.230336
18.23032
18.230318
18.230324
18.23035
18.230393
18.230435
18.230444
18.230408
18.230334
18.230307
18.230305
18.230312
18.230338
18.230381
18.230419
18.230428
18.230398
18.230329
18.230298
18.230296
18.230304
18.23033
18.230372
18.230408
18.230417
18.230386
18.230325
18.230293
18.230292
18.2303
18.230326
18.230367
18.230402
18.230411
18.230381
18.230322
18.230293
18.230292
18.230299
18.230326
18.230367
18.230402
18.230411
18.230381
18.230322
18.230297
18.230296
18.230303
18.230329
18.230371
18.230407
18.230416
18.230386
18.230325
18.230306
18.230304
18.230311
18.230337
18.230379
18.230418
18.230427
18.230397
18.230329
18.230318
18.230316
18.230322
18.230347
18.23039
18.230432
18.230442
18.230406
18.230334
18.230332
18.230329
18.230334
18.230358
18.230399
18.23044
18.230449
18.230407
18.230335
18.230346
18.230342
18.230345
18.230367
18.230404
18.23044
18.230445
18.230406
18.230337
18.23036
18.230355
18.230358
18.230376
18.23041
18.230441
18.230444
18.230405
18.230338
18.230377
18.230372
18.230372
18.230388
18.230417
18.230444
18.230444
18.230406
18.230342
18.230393
18.230388
18.230387
18.230399
18.230424
18.230447
18.230446
18.230409
18.230349
18.230415
18.230409
18.230407
18.230416
18.230436
18.230455
18.230451
18.230416
18.230362
18.230446
18.23044
18.230437
18.230442
18.230455
18.230465
18.230458
18.230424
18.23038
18.230473
18.230467
18.230461
18.230461
18.230466
18.230469
18.230458
18.230426
18.230393
17.129482
17.129484
17.129484
17.12948
17.129471
17.129459
17.12945
17.129448
17.129451
17.129451
17.129454
17.129455
17.129452
17.129444
17.129434
17.129429
17.129433
17.129443
17.129409
17.129412
17.129414
17.129412
17.129404
17.129397
17.129398
17.12941
17.129427
17.129366
17.12937
17.129372
17.12937
17.129363
17.129358
17.129364
17.129383
17.129408
17.129322
17.129327
17.12933
17.129327
17.129321
17.129318
17.129328
17.129355
17.129389
17.129279
17.129284
17.129288
17.129285
17.129279
17.129277
17.129292
17.129327
17.129369
17.12924
17.129245
17.129249
17.129246
17.129239
17.129238
17.129257
17.1293
17.129351
17.129206
17.129212
17.129215
17.129212
17.129204
17.129202
17.129223
17.129275
17.129334
17.12918
17.129186
17.129189
17.129185
17.129178
17.129177
17.129203
17.129256
17.12932
17.129163
17.129168
17.129171
17.129168
17.129163
17.129168
17.129198
17.12925
17.129313
17.129152
17.129158
17.129161
17.129158
17.129154
17.129164
17.129197
17.129252
17.12931
17.129147
17.129153
17.129156
17.129153
17.12915
17.129162
17.129197
17.129253
17.12931
17.129147
17.129152
17.129156
17.129153
17.12915
17.129162
17.129196
17.129252
17.12931
17.129151
17.129157
17.12916
17.129157
17.129153
17.129163
17.129197
17.129251
17.12931
17.129162
17.129167
17.12917
17.129167
17.129161
17.129166
17.129197
17.129249
17.129313
17.129178
17.129184
17.129187
17.129183
17.129175
17.129174
17.1292
17.129255
17.12932
17.129204
17.129209
17.129212
17.129208
17.1292
17.129198
17.12922
17.129273
17.129333
17.129236
17.129241
17.129244
17.129241
17.129234
17.129233
17.129253
17.129297
17.12935
17.129274
17.129279
17.129282
17.129279
17.129272
17.129271
17.129287
17.129323
17.129368
17.129315
17.129319
17.129322
17.129319
17.129312
17.12931
17.129321
17.129349
17.129386
17.129356
17.12936
17.129362
17.129359
17.129352
17.129347
17.129354
17.129375
17.129404
17.129396
17.1294
17.129401
17.129398
17.129391
17.129384
17.129386
17.1294
17.12942
17.129436
17.129439
17.12944
17.129436
17.129428
17.129418
17.129415
17.129421
17.129434
17.129465
17.129467
17.129467
17.129463
17.129454
17.129442
17.129433
17.129432
17.129438
16.023009
16.023007
16.023006
16.023006
16.023007
16.023008
16.023006
16.022999
16.022991
16.023
16.022999
16.022998
16.022999
16.023002
16.023004
16.023002
16.022994
16.022983
16.02299
16.022989
16.022989
16.022991
16.022995
16.022998
16.022996
16.022986
16.022973
16.022983
16.022982
16.022982
16.022985
16.022989
16.022993
16.02299
16.02298
16.022965
16.022979
16.022978
16.022978
16.022981
16.022987
16.02299
16.022988
16.022976
16.02296
16.022976
16.022975
16.022975
16.022979
16.022985
16.02299
16.022988
16.022977
16.022959
16.022975
16.022974
16.022975
16.022979
16.022986
16.022993
16.022993
16.022981
16.022961
16.022976
16.022975
16.022976
16.022981
16.022989
16.022998
16.022999
16.022987
16.022966
16.022978
16.022977
16.022978
16.022984
16.022994
16.023004
16.023005
16.022994
16.022972
16.02298
16.022979
16.02298
16.022986
16.022997
16.023009
16.023011
16.023
16.022978
16.022982
16.022981
16.022982
16.022988
16.023
16.023012
16.023015
16.023004
16.022982
16.022983
16.022982
16.022983
16.02299
16.023002
16.023014
16.023017
16.023006
16.022985
16.022983
16.022982
16.022983
16.022989
16.023002
16.023014
16.023017
16.023006
16.022985
16.022981
16.02298
16.022982
16.022988
16.023
16.023011
16.023014
16.023004
16.022982
16.022979
16.022978
16.022979
16.022985
16.022996
16.023007
16.02301
16.022999
16.022978
16.022977
16.022975
16.022976
16.022981
16.022991
16.023001
16.023003
16.022992
16.022972
16.022974
16.022973
16.022973
16.022978
16.022986
16.022995
16.022996
16.022985
16.022966
16.022972
16.02297
16.022971
16.022974
16.022982
16.022989
16.022989
16.022978
16.02296
16.022971
16.022969
16.02297
16.022973
16.022979
16.022984
16.022983
16.022973
16.022957
16.022972
16.02297
16.02297
16.022973
16.022978
16.022982
16.02298
16.022971
16.022957
16.022974
16.022972
16.022972
16.022974
16.022979
16.022983
16.022981
16.022973
16.02296
16.022978
16.022977
16.022976
16.022978
16.022982
16.022986
16.022984
16.022976
16.022966
16.022986
16.022984
16.022984
16.022984
16.022987
16.022989
16.022988
16.022981
16.022973
16.022992
16.022991
16.02299
16.022989
16.02299
16.022991
16.022989
16.022983
16.022977
14.918312
14.918312
14.918313
14.918312
14.918311
14.918309
14.918307
14.918306
14.918307
14.91831
14.918311
14.918311
14.918311
14.918309
14.918307
14.918306
14.918308
14.918311
14.918304
14.918305
14.918305
14.918305
14.918304
14.918302
14.918303
14.918306
14.918311
14.918297
14.918298
14.918299
14.918299
14.918297
14.918297
14.918298
14.918303
14.918309
14.91829
14.918291
14.918292
14.918292
14.918291
14.918291
14.918294
14.9183
14.918307
14.918282
14.918283
14.918284
14.918284
14.918284
14.918284
14.918288
14.918295
14.918304
14.918274
14.918275
14.918276
14.918276
14.918276
14.918276
14.91828
14.918288
14.9183
14.918266
14.918267
14.918268
14.918268
14.918268
14.918267
14.918271
14.91828
14.918293
14.918259
14.91826
14.918261
14.918261
14.91826
14.918259
14.918263
14.918273
14.918287
14.918253
14.918255
14.918256
14.918255
14.918254
14.918252
14.918256
14.918266
14.918281
14.918249
14.918251
14.918252
14.918251
14.918249
14.918247
14.918251
14.918262
14.918277
14.918247
14.918249
14.91825
14.918249
14.918246
14.918245
14.918248
14.918259
14.918275
14.918247
14.918248
14.918249
14.918249
14.918246
14.918245
14.918248
14.918259
14.918275
14.918249
14.91825
14.918251
14.91825
14.918248
14.918247
14.91825
14.918261
14.918277
14.918252
14.918254
14.918255
14.918254
14.918252
14.918251
14.918254
14.918266
14.918281
14.918257
14.918259
14.91826
14.918259
14.918258
14.918257
14.91826
14.918271
14.918287
14.918263
14.918265
14.918266
14.918265
14.918264
14.918264
14.918268
14.918278
14.918293
14.91827
14.918271
14.918272
14.918272
14.918271
14.918272
14.918276
14.918286
14.918299
14.918277
14.918278
14.918279
14.918278
14.918277
14.918278
14.918282
14.918291
14.918303
14.918283
14.918284
14.918284
14.918284
14.918283
14.918283
14.918287
14.918295
14.918304
14.918288
14.918289
14.918289
14.918289
14.918287
14.918287
14.91829
14.918296
14.918304
14.918293
14.918293
14.918293
14.918293
14.918291
14.91829
14.918292
14.918297
14.918304
14.918296
14.918297
14.918297
14.918296
14.918295
14.918293
14.918293
14.918295
14.918301
14.918296
14.918297
14.918297
14.918297
14.918295
14.918293
14.918291
14.918291
14.918295
13.813335
13.813335
13.813335
13.813334
13.813334
13.813334
13.813333
13.813332
13.813332
13.813336
13.813335
13.813335
13.813335
13.813335
13.813335
13.813334
13.813333
13.813332
13.813336
13.813336
13.813336
13.813337
13.813337
13.813338
13.813337
13.813336
13.813335
13.813338
13.813338
13.813338
13.813338
13.813339
13.813341
13.813341
13.81334
13.813339
13.81334
13.81334
13.81334
13.813341
13.813342
13.813344
13.813345
13.813345
13.813343
13.813342
13.813342
13.813342
13.813343
13.813344
13.813347
13.813348
13.813348
13.813347
13.813344
13.813343
13.813344
13.813345
13.813347
13.813349
13.813352
13.813352
13.813351
13.813345
13.813345
13.813345
13.813347
13.813349
13.813352
13.813355
13.813355
13.813354
13.813347
13.813347
13.813347
13.813348
13.813351
13.813354
13.813357
13.813358
13.813357
13.813348
13.813348
13.813348
13.813349
13.813352
13.813356
13.813359
13.813361
13.81336
13.813349
13.813348
13.813349
13.81335
13.813353
13.813357
13.813361
13.813362
13.813361
13.813349
13.813349
13.813349
13.813351
13.813353
13.813357
13.813361
13.813363
13.813362
13.813349
13.813349
13.813349
13.81335
13.813353
13.813357
13.813361
13.813363
13.813362
13.813348
13.813348
13.813348
13.81335
13.813352
13.813356
13.81336
13.813362
13.813361
13.813347
13.813347
13.813347
13.813348
13.813351
13.813354
13.813358
13.81336
13.81336
13.813345
13.813345
13.813345
13.813346
13.813349
13.813352
13.813355
13.813357
13.813357
13.813343
13.813343
13.813343
13.813344
13.813346
13.813349
13.813352
13.813354
13.813354
13.81334
13.81334
13.81334
13.813341
13.813342
13.813345
13.813348
13.813349
13.81335
13.813337
13.813337
13.813337
13.813337
13.813339
13.813341
13.813343
13.813345
13.813345
13.813334
13.813333
13.813333
13.813333
13.813335
13.813336
13.813338
13.81334
13.813341
13.81333
13.813329
13.813329
13.813329
13.81333
13.813332
13.813333
13.813334
13.813335
13.813326
13.813326
13.813325
13.813326
13.813326
13.813327
13.813327
13.813328
13.813329
13.813323
13.813323
13.813323
13.813322
13.813323
13.813323
13.813322
13.813322
13.813324
13.813321
13.813321
13.813321
13.81332
13.81332
13.81332
13.813319
13.813319
13.813321
12.708152
12.708152
12.708152
12.708152
12.708152
12.708152
12.708151
12.70815
12.708149
12.70815
12.70815
12.70815
12.70815
12.70815
12.70815
12.708149
12.708148
12.708146
12.708147
12.708147
12.708147
12.708147
12.708148
12.708147
12.708147
12.708145
12.708144
12.708144
12.708144
12.708144
12.708145
12.708145
12.708145
12.708144
12.708143
12.708142
12.708141
12.708141
12.708142
12.708142
12.708142
12.708142
12.708142
12.708141
12.708139
12.708139
12.708139
12.708139
12.708139
12.70814
12.70814
12.708139
12.708138
12.708137
12.708136
12.708137
12.708137
12.708137
12.708137
12.708137
12.708137
12.708136
12.708135
12.708134
12.708135
12.708135
12.708135
12.708135
12.708135
12.708135
12.708134
12.708133
12.708133
12.708133
12.708133
12.708133
12.708133
12.708133
12.708133
12.708133
12.708132
12.708131
12.708131
12.708131
12.708132
12.708132
12.708132
12.708131
12.708131
12.708131
12.70813
12.70813
12.70813
12.70813
12.708131
12.70813
12.70813
12.70813
12.70813
12.708129
12.70813
12.70813
12.70813
12.70813
12.70813
12.708129
12.708129
12.708129
12.708129
12.708129
12.70813
12.70813
12.70813
12.708129
12.708129
12.708129
12.708129
12.70813
12.70813
12.70813
12.70813
12.70813
12.70813
12.70813
12.70813
12.70813
12.70813
12.70813
12.70813
12.70813
12.70813
12.70813
12.70813
12.70813
12.70813
12.708131
12.708131
12.708131
12.708131
12.708131
12.708131
12.708131
12.708131
12.708131
12.708132
12.708132
12.708132
12.708133
12.708133
12.708133
12.708133
12.708133
12.708133
12.708134
12.708134
12.708134
12.708134
12.708134
12.708134
12.708134
12.708134
12.708134
12.708135
12.708135
12.708135
12.708135
12.708135
12.708135
12.708135
12.708135
12.708135
12.708136
12.708136
12.708136
12.708136
12.708136
12.708136
12.708136
12.708136
12.708137
12.708137
12.708137
12.708137
12.708137
12.708137
12.708137
12.708137
12.708137
12.708138
12.708138
12.708138
12.708138
12.708138
12.708138
12.708138
12.708138
12.708138
12.708138
12.708139
12.708139
12.708139
12.708139
12.708139
12.708139
12.708139
12.708139
12.708139
12.70814
12.70814
12.70814
12.70814
12.70814
12.70814
12.708139
12.708139
12.708139
11.603199
11.603199
11.603199
11.603199
11.603199
11.603199
11.603199
11.603199
11.603199
11.603198
11.603198
11.603198
11.603198
11.603198
11.603198
11.603198
11.603198
11.603197
11.603196
11.603196
11.603196
11.603196
11.603196
11.603196
11.603196
11.603196
11.603196
11.603194
11.603194
11.603195
11.603195
11.603195
11.603195
11.603195
11.603195
11.603195
11.603193
11.603193
11.603193
11.603193
11.603193
11.603193
11.603193
11.603194
11.603194
11.603192
11.603192
11.603192
11.603192
11.603192
11.603192
11.603192
11.603193
11.603194
11.60319
11.603191
11.603191
11.603191
11.603191
11.603191
11.603191
11.603192
11.603193
11.60319
11.60319
11.60319
11.60319
11.60319
11.60319
11.60319
11.603191
11.603192
11.603189
11.603189
11.603189
11.603189
11.603189
11.603189
11.60319
11.603191
11.603192
11.603189
11.603189
11.603189
11.603189
11.603189
11.603189
11.60319
11.60319
11.603191
11.603188
11.603188
11.603188
11.603188
11.603188
11.603189
11.60319
11.60319
11.603191
11.603188
11.603188
11.603188
11.603188
11.603188
11.603189
11.603189
11.60319
11.603191
11.603188
11.603188
11.603188
11.603188
11.603188
11.603188
11.603189
11.60319
11.603191
11.603188
11.603188
11.603188
11.603188
11.603188
11.603188
11.603189
11.60319
11.603191
11.603188
11.603188
11.603188
11.603188
11.603188
11.603188
11.603189
11.603189
11.603191
11.603188
11.603188