/*--------------------------------*- C++ -*----------------------------------*\
| =========                 |                                                 |
| \\      /  F ield         | OpenFOAM: The Open Source CFD Toolbox           |
|  \\    /   O peration     | Version:  2406                                  |
|   \\  /    A nd           | Website:  www.openfoam.com                      |
|    \\/     M anipulation  |                                                 |
\*---------------------------------------------------------------------------*/
FoamFile
{
    version     2.0;
    format      ascii;
    arch        "LSB;label=32;scalar=64";
    class       surfaceScalarField;
    location    "4";
    object      phi;
}
// * * * * * * * * * * * * * * * * * * * * * * * * * * * * * * * * * * * * * //

dimensions      [0 3 -1 0 0 0 0];

oriented        oriented;

internalField   nonuniform List<scalar> 
101088
(
0.00015297037
-2.3604897e-05
1.7810333e-05
2.0479712e-05
0.00032325654
-0.00010092862
7.6478152e-05
8.8780278e-05
0.00048718346
-0.00024110684
0.00018209887
0.00021418415
0.0006125091
-0.0004534018
0.00033837676
0.00040661769
0.00067523786
-0.00071370271
0.00051959722
0.00064704597
0.00068000645
-0.00095615349
0.0006687745
0.00087665414
0.0006582164
-0.0011069787
0.00072945451
0.0010270982
0.00064277055
-0.0011328804
0.00068791191
0.0010629635
-0.0010425238
0.00057498833
0.00098798087
0.00064690834
0.00018595043
-2.6129339e-05
2.2237958e-05
0.0003880045
-0.00011017435
9.4616482e-05
0.00057369497
-0.00025981344
0.00022343586
0.00070049905
-0.00048203785
0.00041151254
0.00074010309
-0.00074876987
0.00062618754
0.00070316986
-0.00099070603
0.0008002929
0.00063409826
-0.001134164
0.00087191449
0.00057373202
-0.001147558
0.00082882823
-0.0010445907
0.00070567452
0.00053866968
0.00021882464
-2.7708253e-05
2.6778538e-05
0.00045144023
-0.00011527448
0.00011295119
0.00065734562
-0.00026873373
0.00026458181
0.00078629012
-0.0004925799
0.00048296248
0.00080758309
-0.00075509214
0.00072808281
0.00073774797
-0.00098565862
0.00092316052
0.00063093378
-0.0011141693
0.0010021253
0.00053473595
-0.0011127239
0.00095525428
-0.0010005732
0.00082188045
0.00046826459
0.00025069836
-2.8269611e-05
3.1328203e-05
0.00051254174
-0.00011614029
0.00013104713
0.00073740291
-0.00026786186
0.00030459022
0.00086821981
-0.00048546183
0.00055132573
0.00087352636
-0.00073473865
0.00082393629
0.00077647756
-0.00094581429
0.0010368178
0.00063946922
-0.0010539821
0.0011207305
0.00051564414
-0.0010369694
0.0010687613
-0.00092003574
0.00092467902
0.00042627226
0.00028060884
-2.7591009e-05
3.5698654e-05
0.00056933042
-0.00011236397
0.00014827659
0.00081127571
-0.00025714952
0.00034236484
0.00094376939
-0.00046187656
0.00061533847
0.00093534763
-0.0006909527
0.00091292729
0.00081544672
-0.00087665122
0.0011413713
0.00065333069
-0.0009606008
0.0012287715
0.00050724669
-0.00092836815
0.0011708984
-0.00081128494
0.001015858
0.00040034358
0.00030847361
-2.5998387e-05
3.9847819e-05
0.00062248076
-0.00010504583
0.00016450819
0.00088087799
-0.00023869269
0.00037771894
0.0010156973
-0.0004250033
0.00067489543
0.00099519212
-0.00062791279
0.00099532515
0.00085450437
-0.0007832817
0.0012376303
0.00066949931
-0.00084011402
0.0013274411
0.00050426524
-0.00079447357
0.0012631119
-0.00068199555
0.0010970377
0.00038310305
0.00033296034
-2.34652e-05
4.3680503e-05
0.00066851567
-9.4252401e-05
0.00017942572
0.00093989465
-0.00021300821
0.00041011029
0.0010746255
-0.00037637648
0.0007293025
0.0010411789
-0.00054892283
0.0010705166
0.00088056582
-0.00067134969
0.0013252549
0.00067568357
-0.00070097343
0.0014167338
0.00049578577
-0.00064556426
0.0013458967
-0.00054258761
0.0011692127
0.00036527559
0.00035379899
-2.006071e-05
4.7099481e-05
0.00070706388
-8.0273682e-05
0.00019276608
0.00098773356
-0.0001807674
0.00043922169
0.0011190547
-0.00031733454
0.00077854254
0.0010702062
-0.00045671614
0.001138903
0.00088900547
-0.00054614468
0.0014050567
0.00066674223
-0.00055213327
0.0014977313
0.00047644997
-0.00049248896
0.0014205724
-0.00040385577
0.0012338798
0.00034128926
0.00037066287
-1.5863249e-05
5.0037281e-05
0.0007374811
-6.339014e-05
0.00020432251
0.0010233176
-0.00014249295
0.00046472886
0.0011471719
-0.00024882026
0.00082231464
0.0010797475
-0.00035350861
0.0012001171
0.00087705034
-0.00041268413
0.0014766774
0.0006401283
-0.00040254744
0.0015702374
0.00044412
-0.00034616958
0.0014872418
-0.00027607712
0.0012913732
0.00030892543
0.00038339804
-1.104144e-05
5.2414786e-05
0.0007597147
-4.408909e-05
0.00021378656
0.0010470449
-9.8942299e-05
0.00048592231
0.0011603229
-0.00017191553
0.00085928507
0.0010722585
-0.00024133903
0.001252408
0.00084863527
-0.00027531405
0.0015376811
0.00060035004
-0.00025935141
0.001631859
0.00040275418
-0.00021481399
0.001544058
-0.00016655048
0.0013403166
0.0002711176
0.00039168091
-5.6808716e-06
5.4156139e-05
0.00077325766
-2.2650171e-05
0.00022072632
0.0010590952
-5.0778796e-05
0.00050153017
0.0011611329
-8.795067e-05
0.00088671737
0.0010542295
-0.00012242384
0.001291578
0.00081353482
-0.00013722232
0.0015832532
0.00055808663
-0.00012586577
0.0016777426
0.00036214087
-0.00010117556
0.001586605
-7.6757444e-05
0.0013769899
0.00023594795
0.00039583539
-3.8643629e-11
5.5017162e-05
0.00077991214
-1.5589551e-10
0.00022425511
0.0010644205
-4.0520033e-10
0.00050969656
0.0011594295
-8.7958024e-10
0.00090148687
0.0010410665
-1.3690035e-09
0.001313168
0.00079023978
-1.938857e-09
0.0016089518
0.00053108822
-2.3890203e-09
0.0017036262
0.0003368321
-2.5239711e-09
0.0016106342
-1.9048983e-09
0.0013974241
0.0002144114
0.00039583536
5.6808008e-06
5.5017151e-05
0.000779912
2.2649872e-05
0.00022425507
0.0010644204
5.0778023e-05
0.00050969647
0.0011594296
8.7949009e-05
0.00090148667
0.0010410666
0.00012242128
0.0013131678
0.00079023987
0.0001372187
0.0016089516
0.00053108838
0.00012586136
0.0017036259
0.00033683246
0.00010117078
0.0016106339
7.6753608e-05
0.0013974239
0.00021441185
0.00039168093
1.1041378e-05
5.4156134e-05
0.00077325752
4.4088837e-05
0.0002207263
0.0010590953
9.8941681e-05
0.0005015301
0.0011611337
0.00017191418
0.00088671714
0.00105423
0.00024133691
0.0012915777
0.00081353525
0.00027531104
0.0015832529
0.00055808703
0.00025934785
0.0016777422
0.00036214177
0.00021480981
0.0015866045
0.00016654647
0.0013769893
0.00023594898
0.00038339815
1.58632e-05
5.2414771e-05
0.00075971468
6.3389918e-05
0.00021378649
0.0010470448
0.00014249245
0.00048592214
0.0011603236
0.00024881914
0.00085928465
0.001072259
0.00035350667
0.0012524076
0.00084863588
0.00041268141
0.0015376806
0.00060035034
0.00040254433
0.0016318584
0.00040275509
0.00034616577
0.0015440574
0.00027607276
0.0013403158
0.00027111858
0.0003706633
2.0060692e-05
5.0037269e-05
0.0007374816
8.0273463e-05
0.00020432246
0.0010233174
0.00018076694
0.00046472874
0.0011471727
0.00031733353
0.00082231437
0.0010797485
0.00045671413
0.0012001169
0.00087705129
0.00054614178
0.0014766771
0.00064012835
0.00055212977
0.0015702371
0.00044412042
0.00049248504
0.0014872414
0.00040385116
0.0012913724
0.00030892601
0.00035379928
2.3465173e-05
4.7099479e-05
0.00070706437
9.425223e-05
0.00019276607
0.0009877337
0.00021300788
0.00043922168
0.0011190563
0.00037637578
0.00077854246
0.0010702077
0.00054892101
0.0011389029
0.00088900667
0.00067134665
0.0014050566
0.00066674222
0.00070096938
0.0014977312
0.00047644988
0.00064556028
0.0014205722
0.00054258296
0.0012338792
0.00034128939
0.00033296071
2.5998379e-05
4.3680506e-05
0.00066851646
0.00010504582
0.00017942572
0.00093989504
0.00023869233
0.00041011033
0.0010746266
0.00042500244
0.0007293025
0.0010411801
0.00062791102
0.0010705165
0.0008805668
0.00078327885
0.0013252549
0.00067568377
0.00084011041
0.0014167338
0.00049578532
0.00079447027
0.0013458966
0.00068199064
0.0011692123
0.0003652747
0.00030847406
2.7590952e-05
3.9847828e-05
0.00062248159
0.00011236374
0.00016450822
0.00088087818
0.00025714876
0.00037771903
0.0010156976
0.00046187538
0.00067489557
0.00099519283
0.00069095115
0.00099532529
0.00085450528
0.00087664903
0.0012376305
0.00066949996
0.00096059857
0.0013274413
0.00050426439
0.00092836585
0.0012631119
0.00081128009
0.0010970375
0.00038310061
0.00028060897
2.8269532e-05
3.5698653e-05
0.00056933077
0.00011614003
0.00014827658
0.00081127587
0.00026786143
0.00034236482
0.00094376938
0.00048546141
0.00061533845
0.00093534768
0.00073473814
0.00091292723
0.00081544753
0.00094581294
0.0011413712
0.00065333128
0.00105398
0.0012287715
0.00050724528
0.0010369669
0.0011708984
0.0009200333
0.0010158579
0.00040033984
0.00025069839
2.7708195e-05
3.1328198e-05
0.00051254198
0.00011527427
0.0001310471
0.00073740296
0.00026873324
0.00030459015
0.00086821896
0.00049257906
0.00055132563
0.00087352504
0.00075509121
0.00082393615
0.00077647701
0.00098565729
0.0010368176
0.00063946871
0.0011141671
0.0011207304
0.00051564291
0.0011127219
0.0010687612
0.0010005735
0.00092467898
0.00042626818
0.00021882452
2.6129275e-05
2.6778532e-05
0.00045143999
0.00011017412
0.00011295116
0.00065734512
0.000259813
0.00026458174
0.00078628892
0.00048203715
0.00048296236
0.00080758088
0.00074876908
0.00072808266
0.00073774518
0.00099070497
0.00092316038
0.00063093112
0.001134162
0.0010021251
0.00053473522
0.0011475575
0.00095525405
0.0010445918
0.00082188043
0.00046826075
0.00018595031
2.3604873e-05
2.2237961e-05
0.00038800417
0.00010092854
9.4616487e-05
0.00057369428
0.00024110669
0.00022343586
0.00070049772
0.00045340157
0.00041151253
0.00074010042
0.00071370254
0.00062618752
0.00070316579
0.0009561534
0.00080029292
0.0006340937
0.0011069778
0.00087191447
0.00057372812
0.0011328809
0.00082882823
0.0010425249
0.00070567446
0.00053866565
0.00015297032
1.7810338e-05
2.0479755e-05
0.00032325622
7.6478169e-05
8.8780436e-05
0.0004871824
0.0001820989
0.0002141845
0.00061250709
0.00033837679
0.00040661835
0.00067523449
0.00051959726
0.00064704685
0.00068000153
0.00066877459
0.00087665468
0.00065821183
0.00072945459
0.0010270977
0.00064276711
0.00068791215
0.0010629635
0.00057498836
0.00098797936
0.0006469096
2.6840468e-06
-3.9884764e-06
1.6429033e-05
2.6857267e-06
1.2229739e-05
-2.0658542e-05
7.2906758e-05
1.4684276e-05
3.2110892e-05
-5.9881975e-05
0.0001778629
4.4236876e-05
6.5604143e-05
-0.00013777926
0.00033745881
0.00010520403
0.00011142222
-0.00026272145
0.00052933082
0.00020716976
0.00016144406
-0.00041434672
0.00069613114
0.0003369682
0.000209624
-0.00054323413
0.00077406285
0.00045044562
0.00025397152
-0.00060773185
0.00074032323
0.00051097307
-0.00059811393
0.00062293644
0.00051108771
0.00029304938
3.5647412e-06
-5.0744242e-06
1.9759224e-05
1.6140442e-05
-2.6099472e-05
8.7481948e-05
4.143017e-05
-7.4554104e-05
0.00021281879
8.1081371e-05
-0.00016796467
0.00040204769
0.00012978317
-0.00031246139
0.00062722671
0.0001758709
-0.00048083316
0.00082069188
0.00021161729
-0.0006181382
0.0009110724
0.00023777404
-0.00068127905
0.00087621831
-0.00066247934
0.00074944471
0.00025836985
4.8020516e-06
-6.0590188e-06
2.2961051e-05
2.1147854e-05
-3.0966453e-05
0.00010147231
5.2459065e-05
-8.7467549e-05
0.00024618419
9.842399e-05
-0.00019393345
0.00046296664
0.00014971694
-0.00035342014
0.0007177486
0.00019138485
-0.0005320703
0.00093273018
0.00021596248
-0.00067103235
0.0010304415
0.00022732741
-0.00072871883
0.00099132871
-0.0007011744
0.0008551121
0.00023279063
6.2428663e-06
-6.9684957e-06
2.5994868e-05
2.6991479e-05
-3.5330482e-05
0.0001146627
6.5187198e-05
-9.8496008e-05
0.00027742354
0.00011785414
-0.00021468267
0.00051940876
0.00017154253
-0.00038354981
0.00080037745
0.0002088377
-0.0005655907
0.0010330434
0.00022356919
-0.00070002378
0.0011349897
0.00022264882
-0.0007490613
0.0010900239
-0.00071303784
0.00094400035
0.00021519088
7.6582123e-06
-7.6580887e-06
2.8730032e-05
3.2657576e-05
-3.8646381e-05
0.00012659312
7.7631013e-05
-0.00010681133
0.00030570684
0.00013673448
-0.00022885421
0.00057040633
0.00019275915
-0.00040123367
0.00087458714
0.00022620213
-0.00057988406
0.0011222206
0.00023239227
-0.00070412825
0.0012266854
0.00022116545
-0.00074213312
0.0011751967
-0.00069852344
0.0010192891
0.00020321931
9.1667997e-06
-8.170034e-06
3.1192917e-05
3.858024e-05
-4.0897136e-05
0.00013734541
9.0346983e-05
-0.00011205103
0.00033119223
0.00015591936
-0.00023580868
0.0006162771
0.0002142469
-0.00040527169
0.00094103582
0.00024385865
-0.00057330976
0.0012014442
0.00024182797
-0.0006819023
0.0013072457
0.00022102448
-0.0007071165
0.0012488983
-0.0006577913
0.0010832269
0.00019410276
1.0433237e-05
-8.3056243e-06
3.3382866e-05
4.3366957e-05
-4.1291386e-05
0.00014688602
9.9835597e-05
-0.00011217589
0.00035376616
0.00017015926
-0.00023366871
0.00065683829
0.00022897579
-0.00039315898
0.0009995866
0.00025377505
-0.00054361434
0.0012707595
0.00024413693
-0.00063254778
0.0013770175
0.00021567216
-0.00064465601
0.0013119009
-0.00059257003
0.0011371021
0.00018256163
1.1544894e-05
-8.0141611e-06
3.5262847e-05
4.7417583e-05
-3.9524973e-05
0.00015512708
0.00010747209
-0.00010638969
0.00037338146
0.00017936187
-0.00021933523
0.00069231902
0.00023459914
-0.0003605028
0.0010510096
0.0002524479
-0.00048782262
0.0013314159
0.00023547191
-0.00055537164
0.0014375316
0.00020146505
-0.00055596851
0.0013658917
-0.00050489411
0.0011826574
0.00016501178
1.2272745e-05
-7.0830733e-06
3.6832929e-05
4.9680649e-05
-3.4682654e-05
0.00016207205
0.00011033981
-9.2385744e-05
0.0003900662
0.0001783033
-0.00018776668
0.00072278207
0.00022748309
-0.00030502205
0.0010954572
0.00023714093
-0.00040458261
0.0013837799
0.00021332114
-0.00045063931
0.0014893254
0.00017601745
-0.00044303617
0.0014116129
-0.00039735106
0.0012208057
0.00013904203
1.2730227e-05
-5.4806595e-06
3.8082001e-05
5.0685097e-05
-2.6508966e-05
0.00016765808
0.00011044455
-6.9835717e-05
0.00040361331
0.00017449227
-0.00014022745
0.00074769758
0.00021395684
-0.00022407086
0.0011319927
0.00021070123
-0.00029045495
0.0014268095
0.00017962428
-0.00031925721
0.0015315541
0.00014055235
-0.0003084526
0.001448546
-0.00027317558
0.0012513692
0.00010532432
1.2704109e-05
-3.0636802e-06
3.9035142e-05
4.9718415e-05
-1.4631491e-05
0.00017183465
0.0001059374
-3.8117905e-05
0.0004135937
0.00016229281
-7.5702725e-05
0.00076583724
0.00019117363
-0.0001196301
0.0011582567
0.00017948221
-0.00015295188
0.0014574417
0.00014212366
-0.00016554939
0.0015613933
0.00010401522
-0.00015823173
0.0014744923
-0.00013903248
0.0012727262
7.4135986e-05
1.2475919e-05
1.1438825e-11
3.9477626e-05
4.8235613e-05
2.5511956e-11
0.00017386388
0.00010120457
7.4656359e-11
0.00041860967
0.00015180937
8.1994841e-11
0.00077517958
0.00017337845
2.3622113e-11
0.0011719689
0.00015584986
-9.7021313e-11
0.0014735286
0.00011682874
-4.8473546e-11
0.001577098
8.103902e-05
1.493682e-10
0.0014881922
6.9362918e-10
0.0012840095
5.5420911e-05
1.2475908e-05
3.0637098e-06
3.9477618e-05
4.8235667e-05
1.463157e-05
0.00017386384
0.00010120452
3.8118102e-05
0.00041860959
0.00015180934
7.5702833e-05
0.00077517942
0.00017337835
0.00011962999
0.0011719688
0.00015584983
0.00015295159
0.0014735284
0.00011682882
0.00016554942
0.0015770977
8.1039256e-05
0.00015823204
0.001488192
0.00013903369
0.0012840093
5.542117e-05
1.2704126e-05
5.4806803e-06
3.9035137e-05
4.9718475e-05
2.6509032e-05
0.00017183463
0.00010593711
6.9835877e-05
0.00041359363
0.00016229282
0.00014022741
0.00076583707
0.00019117335
0.00022407061
0.0011582565
0.00017948193
0.00029045458
0.0014574415
0.00014212384
0.00031925718
0.001561393
0.00010401584
0.00030845275
0.001474492
0.00027317621
0.0012727259
7.4136604e-05
1.2730471e-05
7.0830974e-06
3.8081987e-05
5.068533e-05
3.4682741e-05
0.00016765802
0.0001104442
9.2385863e-05
0.00040361316
0.0001744927
0.00018776653
0.00074769725
0.00021395705
0.00030502164
0.0011319923
0.00021070134
0.00040458214
0.0014268091
0.0001796245
0.00045063906
0.0015315536
0.00014055314
0.0004430358
0.0014485455
0.00039735083
0.0012513687
0.00010532502
1.2273299e-05
8.0142201e-06
3.6832916e-05
4.9681312e-05
3.9525189e-05
0.000162072
0.0001103398
0.00010638987
0.0003900661
0.00017830403
0.00021933504
0.00072278185
0.00022748343
0.00036050225
0.0010954571
0.00023714121
0.0004878219
0.0013837797
0.00021332107
0.00055537087
0.0014893252
0.00017601786
0.00055596749
0.0014116126
0.00050489308
0.0012208052
0.00013904253
1.154524e-05
8.3056527e-06
3.5262842e-05
4.7417872e-05
4.1291521e-05
0.00015512706
0.00010747192
0.00011217591
0.00037338144
0.00017936218
0.00023366832
0.00069231896
0.00023459925
0.00039315835
0.0010510096
0.00025244815
0.00054361361
0.0013314158
0.00023547155
0.00063254671
0.0014375316
0.00020146507
0.00064465463
0.0013658916
0.0005925684
0.001182657
0.00016501217
1.0433241e-05
8.1700567e-06
3.3382868e-05
4.3367072e-05
4.0897302e-05
0.00014688603
9.9835658e-05
0.00011205125
0.0003537662
0.00017015937
0.00023580861
0.00065683831
0.00022897576
0.00040527165
0.00099958655
0.00025377506
0.00057330952
0.0012707595
0.0002441364
0.00068190156
0.0013770176
0.00021567194
0.00070711516
0.0013119009
0.00065778901
0.0011371019
0.00018256155
9.1668599e-06
7.6580787e-06
3.1192924e-05
3.858038e-05
3.8646436e-05
0.00013734544
9.0346709e-05
0.00010681147
0.0003311923
0.00015591923
0.00022885438
0.00061627716
0.00021424639
0.00040123385
0.0009410359
0.00024385817
0.00057988403
0.0012014443
0.00024182738
0.00070412792
0.0013072459
0.00022102404
0.00074213196
0.0012488984
0.00069852077
0.0010832269
0.00019410195
7.6581495e-06
6.9685213e-06
2.873003e-05
3.2657374e-05
3.5330587e-05
0.00012659311
7.7630506e-05
9.8496261e-05
0.00030570681
0.00013673394
0.00021468304
0.00057040629
0.00019275792
0.0003835499
0.0008745871
0.0002262014
0.00056559104
0.0011222205
0.00023239161
0.00070002353
0.0012266854
0.00022116445
0.0007490602
0.0011751967
0.00071303602
0.0010192891
0.0002032177
6.2428562e-06
6.0590009e-06
2.5994862e-05
2.6991501e-05
3.096645e-05
0.00011466267
6.5186989e-05
8.7467638e-05
0.00027742348
0.00011785347
0.00019393368
0.00051940866
0.00017154169
0.00035342047
0.00080037727
0.00020883648
0.00053207059
0.0010330432
0.00022356816
0.00067103242
0.0011349896
0.00022264751
0.00072871795
0.0010900238
0.00070117367
0.00094400033
0.00021518908
4.8020842e-06
5.0744149e-06
2.2961045e-05
2.1147948e-05
2.6099487e-05
0.00010147228
5.2458908e-05
7.4554182e-05
0.00024618412
9.8423178e-05
0.00016796485
0.00046296653
0.0001497157
0.00031246166
0.00071774845
0.00019138339
0.00048083337
0.00093273002
0.00021596109
0.00061813828
0.0010304413
0.00022732618
0.00068127872
0.00099132844
0.00066247987
0.000855112
0.00023278866
3.5647199e-06
3.9884642e-06
1.9759224e-05
1.6140298e-05
2.0658522e-05
8.7481946e-05
4.1429518e-05
5.9881979e-05
0.00021281879
8.1079865e-05
0.00013777934
0.00040204766
0.00012978099
0.00026272166
0.00062722665
0.00017586842
0.00041434733
0.00082069183
0.00021161411
0.00054323417
0.00091107234
0.0002377715
0.00060773277
0.00087621818
0.00059811519
0.00074944458
0.00025836786
2.683989e-06
1.6429037e-05
2.6857708e-06
1.2229384e-05
7.2906773e-05
1.4684453e-05
3.2109809e-05
0.00017786293
4.4237297e-05
6.5602347e-05
0.00033745885
0.00010520483
0.00011141962
0.00052933085
0.00020717084
0.00016144034
0.00069613123
0.00033696901
0.00020962083
0.00077406289
0.00045044563
0.00025396902
0.0007403234
0.00051097328
0.0006229365
0.00051108637
0.00029304877
3.377524e-07
-1.3827781e-06
1.6335367e-05
1.1386886e-06
2.1653506e-06
-7.325352e-06
7.2316657e-05
6.0878404e-06
6.6979678e-06
-2.1951878e-05
0.00017709474
1.818739e-05
1.4782614e-05
-5.2961909e-05
0.00033871007
4.3625962e-05
2.7110112e-05
-0.00010757985
0.0005358723
8.8710834e-05
4.4173931e-05
-0.00018213073
0.00070925521
0.00015194286
6.6421194e-05
-0.00025405069
0.00079011181
0.00021575444
9.4297754e-05
-0.00029627422
0.00075287074
0.00025585055
-0.0002976298
0.00062878649
0.00026149538
0.00012458222
4.061558e-07
-1.5311684e-06
1.9501479e-05
2.7499199e-06
-8.3216471e-06
8.6134569e-05
8.465779e-06
-2.5351574e-05
0.00021050289
1.7888782e-05
-6.1700442e-05
0.00040136385
3.0345792e-05
-0.00012513447
0.00063232515
4.4503031e-05
-0.00020905607
0.00083346033
6.0024186e-05
-0.00028581004
0.00092731119
7.8178225e-05
-0.0003265686
0.00088835883
-0.0003232795
0.00075353076
9.9742569e-05
5.9110941e-07
-1.6597845e-06
2.2498516e-05
3.7320844e-06
-9.1783375e-06
9.9187928e-05
1.1093452e-05
-2.8432862e-05
0.00024190413
2.2496178e-05
-6.973187e-05
0.00045959551
3.5713986e-05
-0.00014082102
0.00072021733
4.7473777e-05
-0.00023149317
0.0009434081
5.6862701e-05
-0.00030938173
0.0010446245
6.6631704e-05
-0.00034574786
0.001000739
-0.00033678817
0.00085562147
7.9631015e-05
8.5884724e-07
-1.8078859e-06
2.5284165e-05
5.0914503e-06
-1.000896e-05
0.00011126082
1.4564434e-05
-3.1244844e-05
0.00027076293
2.8473472e-05
-7.6813311e-05
0.00051258164
4.2805162e-05
-0.00015377002
0.00079899453
5.2477579e-05
-0.00024803958
0.001039918
5.6481995e-05
-0.00032348691
0.0011450901
5.9142476e-05
-0.00035311714
0.0010947327
-0.00033800937
0.00093951372
6.485048e-05
1.1626268e-06
-1.9743094e-06
2.773385e-05
6.6371553e-06
-1.0800611e-05
0.00012191027
1.8274099e-05
-3.344286e-05
0.00029626797
3.4883599e-05
-8.2360344e-05
0.00055934376
5.053497e-05
-0.00016294034
0.00086810705
5.8405308e-05
-0.00025734838
0.0011236586
5.7681364e-05
-0.00032705744
0.0012309798
5.4395349e-05
-0.00034837894
0.0011737444
-0.00032758788
0.001008853
5.4409766e-05
1.5096722e-06
-2.1715065e-06
2.9880459e-05
8.4220487e-06
-1.1606735e-05
0.00013123917
2.2694741e-05
-3.5116826e-05
0.00031859373
4.2363502e-05
-8.5950926e-05
0.00060019858
5.9525376e-05
-0.0001672541
0.00092818829
6.5597336e-05
-0.00025781675
0.0011958408
6.028767e-05
-0.00031868424
0.0013041824
5.1629741e-05
-0.00033097287
0.0012401499
-0.00030582377
0.0010661441
4.6948388e-05
1.8726733e-06
-2.3820512e-06
3.1720794e-05
1.0271651e-05
-1.2326555e-05
0.00013920686
2.7558505e-05
-3.622855e-05
0.00033759091
4.9371031e-05
-8.5832717e-05
0.0006349074
6.7072096e-05
-0.00016438799
0.00097901926
7.074948e-05
-0.00024723094
0.0012564959
6.1061609e-05
-0.00029712994
0.0013651514
4.804402e-05
-0.00030094234
0.001294888
-0.00027371602
0.0011127626
4.0276042e-05
2.0684828e-06
-2.4181358e-06
3.3230208e-05
1.1310177e-05
-1.2208003e-05
0.00014576706
3.0224946e-05
-3.5063471e-05
0.00035330221
5.3635244e-05
-8.0663551e-05
0.00066373975
7.1838208e-05
-0.00015302041
0.0010214397
7.2748254e-05
-0.00022379429
0.0013070692
5.884659e-05
-0.00026135534
0.0014156593
4.2652098e-05
-0.00025862826
0.0013397723
-0.00023241155
0.0011504671
3.3538237e-05
2.2128988e-06
-2.2142284e-06
3.4415711e-05
1.20951e-05
-1.0968056e-05
0.00015094987
3.2419255e-05
-3.1123059e-05
0.00036580226
5.8387283e-05
-7.0723395e-05
0.00068687374
7.4707014e-05
-0.00012992241
0.0010560404
7.1338878e-05
-0.00018516736
0.0013485217
5.363829e-05
-0.00021112612
0.0014567975
3.5939329e-05
-0.00020516782
0.0013758514
-0.00018337746
0.0011802517
2.7459352e-05
2.2084813e-06
-1.635762e-06
3.5294967e-05
1.2210878e-05
-8.1319391e-06
0.00015481975
3.2549019e-05
-2.3050403e-05
0.00037520324
5.7149333e-05
-5.2059157e-05
0.00070443295
7.1701155e-05
-9.4973604e-05
0.0010824928
6.7201208e-05
-0.00013446252
0.0013806053
4.7703986e-05
-0.00014867515
0.0014886008
3.0851818e-05
-0.0001430863
0.0014033165
-0.00012816225
0.001202225
2.4780827e-05
2.32901e-06
-8.6281603e-07
3.5933297e-05
1.2793826e-05
-4.3107283e-06
0.00015754877
3.3914564e-05
-1.2254919e-05
0.00038167802
5.9064913e-05
-2.7655833e-05
0.00071628395
7.2431386e-05
-5.0145259e-05
0.0011000625
6.3918094e-05
-7.0555208e-05
0.0014020482
4.4340804e-05
-7.743978e-05
0.0015097355
2.8532595e-05
-7.3874757e-05
0.001421089
-6.6117156e-05
0.0012159599
2.3253917e-05
2.4153706e-06
2.2984662e-11
3.6199521e-05
1.3208883e-05
7.8674771e-11
0.0001587596
3.4863102e-05
2.1414539e-10
0.00038470061
6.0342086e-05
4.061184e-10
0.00072204496
7.3351492e-05
6.3950957e-10
0.0011088142
6.3645221e-05
7.3849118e-10
0.0014126792
4.2946377e-05
6.3045656e-10
0.0015203567
2.7338325e-05
5.7768489e-10
0.0014299252
6.1558316e-10
0.0012228684
2.2361913e-05
2.4153375e-06
8.6286731e-07
3.6199515e-05
1.3208927e-05
4.3109079e-06
0.00015875958
3.486307e-05
1.2255382e-05
0.00038470056
6.0342017e-05
2.7656617e-05
0.00072204486
7.3351301e-05
5.0146478e-05
0.0011088141
6.3645012e-05
7.0556684e-05
0.0014126791
4.2946284e-05
7.7441076e-05
0.0015203565
2.7338286e-05
7.3875958e-05
0.001429925
6.6118312e-05
0.0012228683
2.2361873e-05
2.3289884e-06
1.6358013e-06
3.5933296e-05
1.2793897e-05
8.1320993e-06
0.00015754876
3.3914355e-05
2.3050829e-05
0.000381678
5.9064875e-05
5.2059799e-05
0.0007162839
7.2431236e-05
9.49746e-05
0.0011000625
6.3917886e-05
0.00013446397
0.0014020481
4.4340503e-05
0.00014867675
0.0015097353
2.8532416e-05
0.00014308751
0.0014210888
0.00012816306
0.0012159597
2.325376e-05
2.2086513e-06
2.2142649e-06
3.5294958e-05
1.2211031e-05
1.0968227e-05
0.00015481971
3.2548616e-05
3.1123486e-05
0.00037520316
5.714937e-05
7.0724051e-05
0.00070443276
7.1700842e-05
0.00012992342
0.0010824926
6.7200711e-05
0.00018516877
0.001380605
4.7703289e-05
0.00021112769
0.0014886005
3.0851295e-05
0.00020516879
0.0014033162
0.00018337761
0.0012022247
2.4780433e-05
2.2133341e-06
2.4182134e-06
3.4415705e-05
1.2095548e-05
1.2208321e-05
0.00015094984
3.2419081e-05
3.5064047e-05
0.00036580221
5.8387501e-05
8.0664312e-05
0.00068687362
7.4706692e-05
0.00015302139
0.0010560403
7.1338297e-05
0.0002237956
0.0013485216
5.3637251e-05
0.00026135663
0.0014567974
3.5938522e-05
0.00025862884
0.0013758512
0.00023241107
0.0011802514
2.7458852e-05
2.0687881e-06
2.3821127e-06
3.3230205e-05
1.1310374e-05
1.2326835e-05
0.00014576705
3.0224746e-05
3.6229005e-05
0.00035330221
5.3635185e-05
8.583328e-05
0.00066373975
7.1837646e-05
0.00016438892
0.0010214397
7.2747587e-05
0.00024723236
0.0013070692
5.8845314e-05
0.00029713123
0.0014156593
4.2651018e-05
0.00030094284
0.0013397722
0.00027371521
0.0011504669
3.3537502e-05
1.8726533e-06
2.1715577e-06
3.1720798e-05
1.0271627e-05
1.1607031e-05
0.00013920687
2.755843e-05
3.5117405e-05
0.00033759096
4.9370845e-05
8.5951688e-05
0.00063490745
6.7071427e-05
0.00016725554
0.00097901931
7.074869e-05
0.0002578187
0.0012564959
6.1060256e-05
0.00031868596
0.0013651515
4.8042815e-05
0.00033097354
0.001294888
0.00030582261
0.0011127625
4.0274891e-05
1.5096579e-06
1.9743495e-06
2.9880468e-05
8.4220306e-06
1.0800848e-05
0.0001312392
2.269443e-05
3.3443443e-05
0.00031859381
4.2363278e-05
8.2361385e-05
0.00060019867
5.9524469e-05
0.000162942
0.00092818843
6.5596321e-05
0.00025735045
0.0011958409
6.0286433e-05
0.00032705939
0.0013041826
5.1628591e-05
0.0003483797
0.0012401501
0.00032758656
0.0010661441
4.6946819e-05
1.1625663e-06
1.8079475e-06
2.7733849e-05
6.6369829e-06
1.0009224e-05
0.00012191026
1.8273743e-05
3.124553e-05
0.00029626794
3.4883265e-05
7.6814504e-05
0.00055934373
5.0533881e-05
0.0001537715
0.00086810705
5.8404471e-05
0.00024804183
0.0011236585
5.7680484e-05
0.00032348884
0.0012309799
5.4394179e-05
0.00035311803
0.0011737444
0.0003380088
0.0010088529
5.4407885e-05
8.5883599e-07
1.6598252e-06
2.528416e-05
5.0914417e-06
9.1785496e-06
0.0001112608
1.4564299e-05
2.8433421e-05
0.00027076287
2.8473117e-05
6.9732935e-05
0.00051258154
4.2804758e-05
0.00014082269
0.00079899434
5.2476713e-05
0.00023149526
0.0010399178
5.6481208e-05
0.00030938386
0.0011450899
5.9141193e-05
0.00034574905
0.0010947326
0.00033678853
0.00093951371
6.4848692e-05
5.9115877e-07
1.5312187e-06
2.249851e-05
3.7322479e-06
8.3218722e-06
9.9187901e-05
1.1093563e-05
2.5352099e-05
0.00024190407
2.2495979e-05
6.1701414e-05
0.00045959539
3.5713721e-05
0.00012513596
0.00072021713
4.747336e-05
0.00020905795
0.00094340788
5.6862049e-05
0.00028581213
0.0010446242
6.6630635e-05
0.00032657021
0.0010007387
0.00032328089
0.00085562138
7.9629329e-05
4.061754e-07
1.3828086e-06
1.9501479e-05
2.7499663e-06
7.325486e-06
8.6134566e-05
8.4656517e-06
2.195221e-05
0.00021050288
1.7888305e-05
5.2962556e-05
0.00040136381
3.0345235e-05
0.00010758089
0.00063232506
4.4502616e-05
0.00018213243
0.00083346021
6.002324e-05
0.00025405228
0.00092731109
7.817795e-05
0.00029627636
0.00088835868
0.00029763171
0.00075353069
9.9742503e-05
3.37725e-07
1.6335372e-05
1.1387425e-06
2.1651845e-06
7.231667e-05
6.0880677e-06
6.6974497e-06
0.00017709477
1.8187945e-05
1.4781864e-05
0.00033871011
4.3627028e-05
2.710907e-05
0.00053587233
8.8712354e-05
4.4172336e-05
0.00070925526
0.00015194427
6.6420447e-05
0.00079011181
0.00021575536
9.4297786e-05
0.00075287085
0.00025585175
0.00062878661
0.00026149514
0.0001245831
5.8647452e-08
-9.1709599e-07
1.6565743e-05
6.2807157e-07
2.673784e-07
-4.4776009e-06
7.3401628e-05
3.1838754e-06
1.2184278e-06
-1.2501451e-05
0.00017951614
9.1289533e-06
4.6703032e-06
-2.8406536e-05
0.00034246484
2.1199838e-05
1.3020221e-05
-5.554714e-05
0.00054075136
4.2318152e-05
2.7338421e-05
-9.298939e-05
0.00071552309
7.2403323e-05
4.5587406e-05
-0.00013048311
0.00079822665
0.0001041192
6.3840335e-05
-0.00015327988
0.00076235889
0.0001255391
-0.00015373124
0.00063799957
0.0001296608
7.869782e-05
3.4510498e-08
-1.1603407e-06
1.9710214e-05
2.1716176e-07
-5.6443584e-06
8.7118682e-05
1.3049701e-06
-1.5633581e-05
0.00021254729
5.3355059e-06
-3.5119567e-05
0.00040404663
1.4686318e-05
-6.7695722e-05
0.00063512338
2.9484128e-05
-0.00011115626
0.00083682951
4.6331926e-05
-0.00015229129
0.00093227196
6.099433e-05
-0.00017456899
0.0008949857
-0.00017169145
0.00076077727
7.1708407e-05
2.7581063e-08
-1.3542995e-06
2.2664865e-05
1.8441177e-07
-6.5826731e-06
9.996935e-05
1.3549207e-06
-1.8200629e-05
0.00024330069
5.8863764e-06
-4.0724426e-05
0.00046066906
1.6137534e-05
-7.7819932e-05
0.0007200904
3.1353286e-05
-0.00012570599
0.00094274249
4.7032421e-05
-0.00016836518
0.0010450195
5.8956893e-05
-0.0001886278
0.0010028733
-0.00018247779
0.00085919949
6.6165296e-05
3.8254109e-08
-1.4989658e-06
2.5390599e-05
2.4690523e-07
-7.2819138e-06
0.00011175145
1.6455669e-06
-2.0117508e-05
0.0002712813
6.8254044e-06
-4.4932704e-05
0.00051161027
1.8033847e-05
-8.5333608e-05
0.00079529951
3.3689173e-05
-0.00013585919
0.0010344162
4.846919e-05
-0.00017806903
0.0011400137
5.8286345e-05
-0.00019517944
0.0010914673
-0.00018584633
0.000938532
6.2636831e-05
4.2439931e-08
-1.5704105e-06
2.7762888e-05