/*--------------------------------*- C++ -*----------------------------------*\
| =========                 |                                                 |
| \\      /  F ield         | OpenFOAM: The Open Source CFD Toolbox           |
|  \\    /   O peration     | Version:  2406                                  |
|   \\  /    A nd           | Website:  www.openfoam.com                      |
|    \\/     M anipulation  |                                                 |
\*---------------------------------------------------------------------------*/
FoamFile
{
    version     2.0;
    format      ascii;
    arch        "LSB;label=32;scalar=64";
    class       volVectorField;
    location    "4";
    object      U;
}
// * * * * * * * * * * * * * * * * * * * * * * * * * * * * * * * * * * * * * //

dimensions      [0 1 -1 0 0 0 0];

internalField   nonuniform List<vector> 
34560
(
(0.092723038 -0.0068802103 -0.021847984)
(0.28713131 -0.020507739 -0.068164683)
(0.50894611 -0.038364477 -0.11787394)
(0.73722298 -0.06079207 -0.16349362)
(0.94127445 -0.086312168 -0.19593114)
(1.0910555 -0.11191685 -0.20807621)
(1.1746806 -0.13405677 -0.20102477)
(1.2077127 -0.15108765 -0.18263042)
(1.2125939 -0.16007745 -0.16356989)
(0.10766855 -0.0081385515 -0.024581898)
(0.32820263 -0.023355948 -0.076064781)
(0.57252734 -0.042230089 -0.12950901)
(0.81435015 -0.064803976 -0.17587883)
(1.0186523 -0.089271511 -0.20535578)
(1.155618 -0.11262186 -0.21159196)
(1.2210755 -0.13146308 -0.19817435)
(1.2391916 -0.14456695 -0.17472406)
(1.2371292 -0.1499237 -0.15178285)
(0.12297236 -0.0086519362 -0.026246111)
(0.36961039 -0.024277657 -0.081025645)
(0.63574654 -0.043160473 -0.13656498)
(0.89025589 -0.065155288 -0.18280868)
(1.0949207 -0.08815312 -0.20974706)
(1.2212515 -0.1091189 -0.21181043)
(1.2723473 -0.12497993 -0.19425314)
(1.279054 -0.13478585 -0.16754846)
(1.2732208 -0.13744114 -0.14282867)
(0.13850517 -0.009106785 -0.027734535)
(0.4110278 -0.024964611 -0.085395835)
(0.69827757 -0.043460184 -0.14252433)
(0.96493522 -0.064267487 -0.18817622)
(1.1704089 -0.085098152 -0.21239202)
(1.288001 -0.10304638 -0.21065031)
(1.3275469 -0.11560481 -0.18965962)
(1.3250491 -0.12211463 -0.16056534)
(1.3157127 -0.12228896 -0.13473396)
(0.15363744 -0.0090952927 -0.028807628)
(0.45108782 -0.024523266 -0.088668563)
(0.7585927 -0.042113827 -0.14687425)
(1.0372809 -0.061371291 -0.1917499)
(1.2446548 -0.079787416 -0.21343093)
(1.3555899 -0.094506585 -0.20839708)
(1.385878 -0.10370949 -0.18429841)
(1.375637 -0.10705998 -0.15326651)
(1.3628557 -0.10527023 -0.12644865)
(0.16819645 -0.0088289944 -0.029500691)
(0.48943549 -0.023540366 -0.090895605)
(0.81634354 -0.03993569 -0.14972223)
(1.107142 -0.057344638 -0.193688)
(1.3177242 -0.073096524 -0.21298456)
(1.4240351 -0.084428104 -0.2050169)
(1.4468742 -0.090240775 -0.17788677)
(1.430117 -0.090723104 -0.14519262)
(1.4141043 -0.087501823 -0.11748798)
(0.18196321 -0.0082773551 -0.029986605)
(0.52568102 -0.021895138 -0.092494433)
(0.87122464 -0.036799627 -0.15155689)
(1.1744551 -0.052158138 -0.19434513)
(1.3896974 -0.065172092 -0.21109859)
(1.4933112 -0.07321129 -0.20011423)
(1.5101771 -0.075751779 -0.1699133)
(1.4880887 -0.073862228 -0.13575443)
(1.4691923 -0.069724575 -0.1073778)
(0.19445699 -0.0074106488 -0.030261107)
(0.55881923 -0.019535365 -0.093471253)
(0.9221074 -0.032664226 -0.152403)
(1.2382633 -0.04583332 -0.19370814)
(1.459821 -0.056176931 -0.20761216)
(1.5626342 -0.061236622 -0.19324944)
(1.5749823 -0.060915409 -0.1600462)
(1.5487241 -0.057284469 -0.12462226)
(1.5273223 -0.05275069 -0.095959722)
(0.2053036 -0.0062177048 -0.030364526)
(0.58794945 -0.016404505 -0.093912147)
(0.96770093 -0.027406688 -0.15235528)
(1.2969479 -0.038205238 -0.19181643)
(1.526116 -0.046022175 -0.20247417)
(1.6298238 -0.048629386 -0.18433937)
(1.6391274 -0.046271532 -0.14827202)
(1.6098965 -0.041719817 -0.11196786)
(1.5863142 -0.037335825 -0.083556867)
(0.21411335 -0.0047421859 -0.030346786)
(0.6119559 -0.012564574 -0.093938877)
(1.0060357 -0.021017249 -0.1516275)
(1.3475057 -0.029157556 -0.18901356)
(1.5845023 -0.034589305 -0.19623187)
(1.6902816 -0.035466601 -0.17417758)
(1.6978949 -0.032249002 -0.13566418)
(1.6670138 -0.027783196 -0.098934718)
(1.6415683 -0.024102892 -0.071265634)
(0.2205807 -0.003026221 -0.030319073)
(0.62967539 -0.0080432865 -0.093845071)
(1.0346112 -0.013437581 -0.15073464)
(1.3856703 -0.018527585 -0.18617574)
(1.6290965 -0.021676043 -0.1903096)
(1.7372388 -0.021658339 -0.16483167)
(1.7442919 -0.018936003 -0.12450105)
(1.7128429 -0.015653254 -0.087712983)
(1.685909 -0.0131975 -0.061033804)
(0.22378496 -0.00099303835 -0.030274763)
(0.63866585 -0.0026326146 -0.093721863)
(1.0494618 -0.004435454 -0.15012954)
(1.405972 -0.0061648583 -0.18442799)
(1.6532803 -0.0072250089 -0.18673535)
(1.7631693 -0.0071611265 -0.15921872)
(1.7703095 -0.0061472142 -0.11786649)
(1.7387967 -0.0049743327 -0.081124009)
(1.7109594 -0.0041359609 -0.055142055)
(0.22378495 0.00099299162 -0.030274758)
(0.63866581 0.0026324804 -0.093721856)
(1.0494618 0.0044352031 -0.15012952)
(1.4059718 0.0061644464 -0.18442799)
(1.6532801 0.007224498 -0.18673537)
(1.763169 0.007160515 -0.15921873)
(1.7703093 0.0061465401 -0.1178665)
(1.7387964 0.0049736304 -0.081124048)
(1.710959 0.0041353836 -0.055142133)
(0.22058068 0.0030261734 -0.030319071)
(0.62967532 0.0080431498 -0.093845069)
(1.034611 0.013437347 -0.15073461)
(1.3856699 0.018527206 -0.18617576)
(1.6290961 0.021675564 -0.19030966)
(1.7372383 0.02165777 -0.1648317)
(1.7442913 0.018935394 -0.12450108)
(1.7128422 0.015652593 -0.087713075)
(1.685908 0.013196896 -0.061033974)
(0.21411332 0.0047421443 -0.03034679)
(0.6119558 0.012564436 -0.093938925)
(1.0060355 0.021017036 -0.1516275)
(1.3475052 0.029157207 -0.1890136)
(1.584502 0.034588848 -0.19623196)
(1.6902811 0.035466075 -0.17417763)
(1.6978943 0.032248466 -0.13566421)
(1.6670129 0.027782588 -0.098934789)
(1.641567 0.024102238 -0.071265769)
(0.20530356 0.0062176877 -0.030364516)
(0.58794934 0.016404388 -0.093912236)
(0.96770074 0.027406498 -0.15235531)
(1.2969476 0.038204898 -0.19181646)
(1.5261157 0.046021705 -0.20247428)
(1.6298234 0.048628862 -0.18433945)
(1.6391269 0.046271001 -0.14827204)
(1.6098958 0.041719232 -0.11196784)
(1.5863129 0.037335126 -0.083556902)
(0.19445698 0.0074106409 -0.030261082)
(0.5588192 0.019535284 -0.093471273)
(0.92210734 0.032664082 -0.15240296)
(1.2382631 0.045833042 -0.19370813)
(1.4598208 0.056176477 -0.20761228)
(1.5626339 0.061236082 -0.19324953)
(1.5749821 0.060914816 -0.16004618)
(1.5487235 0.057283882 -0.12462212)
(1.5273211 0.052749999 -0.095959645)
(0.18196319 0.0082773409 -0.029986598)
(0.52568095 0.021895062 -0.092494462)
(0.87122454 0.0367995 -0.15155686)
(1.1744549 0.052157928 -0.1943451)
(1.3896971 0.06517169 -0.21109863)
(1.493311 0.073210758 -0.20011423)
(1.5101769 0.075751154 -0.16991322)
(1.4880882 0.073861644 -0.13575423)
(1.4691914 0.069723904 -0.10737755)
(0.16819642 0.0088289717 -0.029500662)
(0.48943542 0.023540284 -0.090895588)
(0.81634348 0.039935555 -0.14972216)
(1.1071419 0.057344469 -0.19368789)
(1.3177241 0.073096218 -0.21298447)
(1.424035 0.084427658 -0.20501684)
(1.446874 0.090240246 -0.1778867)
(1.4301166 0.090722562 -0.14519239)
(1.4141037 0.087501121 -0.11748743)
(0.15363742 0.0090952526 -0.02880759)
(0.45108778 0.024523178 -0.088668501)
(0.75859263 0.04211369 -0.14687416)
(1.0372808 0.061371165 -0.19174978)
(1.2446546 0.079787239 -0.21343081)
(1.3555896 0.094506223 -0.20839701)
(1.3858778 0.103709 -0.18429833)
(1.3756368 0.10705942 -0.15326611)
(1.3628552 0.10526968 -0.12644784)
(0.13850515 0.0091067596 -0.027734496)
(0.41102774 0.02496452 -0.085395817)
(0.69827747 0.04346006 -0.14252427)
(0.96493513 0.064267385 -0.18817609)
(1.1704088 0.08509809 -0.21239179)
(1.2880008 0.10304614 -0.21065006)
(1.3275468 0.11560421 -0.18965935)
(1.3250489 0.12211385 -0.16056492)
(1.3157124 0.12228874 -0.13473333)
(0.12297235 0.0086519034 -0.026246076)
(0.36961036 0.024277568 -0.081025582)
(0.63574646 0.043160358 -0.13656484)
(0.8902558 0.065155157 -0.18280847)
(1.0949206 0.088153035 -0.20974676)
(1.2212514 0.10911873 -0.21181001)
(1.272347 0.1249793 -0.19425265)
(1.2790537 0.13478486 -0.16754839)
(1.2732206 0.13744083 -0.14282855)
(0.10766857 0.0081385251 -0.024581869)
(0.32820266 0.0233559 -0.076064704)
(0.57252736 0.042230057 -0.12950886)
(0.81435018 0.064803967 -0.17587861)
(1.0186524 0.089271555 -0.20535544)
(1.1556181 0.1126219 -0.21159145)
(1.2210754 0.13146277 -0.19817399)
(1.2391915 0.14456599 -0.17472448)
(1.237129 0.14992253 -0.15178295)
(0.09272305 0.0068802212 -0.021847987)
(0.28713133 0.020507762 -0.068164687)
(0.50894613 0.038364557 -0.11787389)
(0.73722297 0.060792222 -0.1634935)
(0.94127443 0.086312359 -0.19593096)
(1.0910555 0.11191694 -0.20807595)
(1.1746805 0.13405659 -0.20102454)
(1.2077129 0.151087 -0.18263086)
(1.2125937 0.16007656 -0.16357067)
(0.10768755 -0.0020481283 -0.0020627264)
(0.34494994 -0.0076288363 -0.0079629718)
(0.63033942 -0.016210691 -0.017557921)
(0.93906654 -0.028493799 -0.031554514)
(1.2285464 -0.044280783 -0.048404839)
(1.454856 -0.061511446 -0.063736896)
(1.5963172 -0.077064159 -0.072878242)
(1.6637165 -0.089411223 -0.074883797)
(1.6808857 -0.098348338 -0.07242376)
(0.11963792 -0.0028906336 -0.0026083767)
(0.38060124 -0.01041334 -0.0097758698)
(0.68963324 -0.021328181 -0.021138357)
(1.0154539 -0.03599902 -0.037155191)
(1.3086594 -0.053540559 -0.055399625)
(1.5235104 -0.071140184 -0.070680191)
(1.6442184 -0.085797786 -0.078507593)
(1.6906132 -0.096519247 -0.07869349)
(1.6938279 -0.10361179 -0.074041937)
(0.13070506 -0.0033705937 -0.002727969)
(0.41358789 -0.012141254 -0.01034513)
(0.74426647 -0.024638883 -0.022642323)
(1.0851953 -0.040918728 -0.039864013)
(1.3808601 -0.059476154 -0.058877045)
(1.5847163 -0.076950864 -0.073926912)
(1.687148 -0.09046934 -0.080801481)
(1.7164298 -0.099449598 -0.079908389)
(1.7099618 -0.10474941 -0.074360616)
(0.14113265 -0.0039216466 -0.00284638)
(0.44449292 -0.013960329 -0.010854763)
(0.79513908 -0.027842823 -0.023884326)
(1.1497565 -0.045287563 -0.041987903)
(1.4476005 -0.064234518 -0.061315588)
(1.6420005 -0.080955733 -0.075766109)
(1.7291095 -0.092818447 -0.081554256)
(1.7444994 -0.099825713 -0.07977043)
(1.7296865 -0.10333782 -0.073670359)
(0.15047641 -0.0043722867 -0.0028442729)
(0.47233914 -0.015460243 -0.01099476)
(0.84115977 -0.03045925 -0.024470671)
(1.2085149 -0.048673868 -0.043070132)
(1.5090281 -0.067549443 -0.062423883)
(1.6960035 -0.08309684 -0.07613111)
(1.7706063 -0.093012793 -0.080814952)
(1.7744344 -0.097949384 -0.078211591)
(1.7521134 -0.099716659 -0.07167339)
(0.15895958 -0.0047436185 -0.0027130473)
(0.49770668 -0.016666098 -0.010690313)
(0.88324 -0.032532998 -0.024380559)
(1.2625255 -0.051033636 -0.042865051)
(1.5662223 -0.069317937 -0.061911774)
(1.747508 -0.083231183 -0.074683539)
(1.8118093 -0.090916202 -0.07818305)
(1.8057109 -0.093827594 -0.074782318)
(1.7766164 -0.093972991 -0.067864389)
(0.16679805 -0.0049816646 -0.0024936012)
(0.52119583 -0.01737493 -0.010017173)
(0.92241273 -0.033639211 -0.023494444)
(1.3130071 -0.05197848 -0.041407605)
(1.6204003 -0.069201657 -0.059614842)
(1.7973328 -0.081062463 -0.071115219)
(1.8528812 -0.086376904 -0.073242437)
(1.8380058 -0.087295738 -0.069035334)
(1.8028724 -0.08608959 -0.061855389)
(0.1737949 -0.0049769623 -0.0021816038)
(0.54243752 -0.017272063 -0.0090033145)
(0.95837858 -0.033260746 -0.021739938)
(1.3602865 -0.051003536 -0.039359558)
(1.6720229 -0.066366405 -0.055187404)
(1.8457366 -0.075916789 -0.065005318)
(1.8937091 -0.078943693 -0.065627193)
(1.8710452 -0.078161963 -0.060679355)
(1.8306033 -0.075935677 -0.05345704)
(0.17994144 -0.0046566621 -0.0017899875)
(0.56143281 -0.01607077 -0.0076804076)
(0.99123081 -0.03074822 -0.019184051)
(1.4046629 -0.046690664 -0.035408589)
(1.7209652 -0.05966957 -0.048632859)
(1.8921822 -0.066984844 -0.05622538)
(1.9334472 -0.068107417 -0.055369869)
(1.9039788 -0.066091685 -0.049840953)
(1.8591823 -0.063283388 -0.042823338)
(0.18512008 -0.0039326569 -0.0013678941)
(0.57775752 -0.013457455 -0.0062326282)
(1.0200504 -0.02554178 -0.016253187)
(1.4444733 -0.038394285 -0.030386315)
(1.7657816 -0.048692863 -0.042613037)
(1.9344295 -0.053345791 -0.045772524)
(1.9698325 -0.053242133 -0.043398163)
(1.9348442 -0.050714475 -0.03743712)
(1.8873117 -0.047834823 -0.030766654)
(0.18932824 -0.002726184 -0.00096919799)
(0.59084533 -0.0092152822 -0.0048325424)
(1.0429972 -0.017312468 -0.01335193)
(1.4761969 -0.025714794 -0.025317739)
(1.801944 -0.032104432 -0.034843084)
(1.9681512 -0.034761662 -0.03641381)
(1.9987866 -0.034156254 -0.031891653)
(1.960416 -0.032023012 -0.025642055)
(1.9114618 -0.029834353 -0.020092055)
(0.1913278 -0.00099287114 -0.00072626545)
(0.5973869 -0.0033282376 -0.0039658009)
(1.0549482 -0.0062062569 -0.011504995)
(1.493305 -0.009146945 -0.022101414)
(1.8220481 -0.011309025 -0.029907678)
(1.9878699 -0.012115924 -0.030152112)
(2.0157569 -0.01180502 -0.024752071)
(1.9757023 -0.010958851 -0.018487249)
(1.9255114 -0.010142784 -0.013896701)
(0.19132779 0.00099288738 -0.00072626883)
(0.59738685 0.003328269 -0.0039658047)
(1.0549481 0.0062063128 -0.011505008)
(1.4933048 0.0091469761 -0.022101417)
(1.822048 0.011309019 -0.029907676)
(1.9878697 0.012115893 -0.030152097)
(2.0157567 0.01180502 -0.024752076)
(1.9757022 0.010958907 -0.018487279)
(1.9255112 0.010142987 -0.01389677)
(0.18932822 0.0027262007 -0.00096919837)
(0.59084524 0.009215318 -0.004832554)
(1.042997 0.017312517 -0.01335193)
(1.4761964 0.025714782 -0.025317716)
(1.8019436 0.032104374 -0.034843075)
(1.9681508 0.034761587 -0.036413705)
(1.9987861 0.034156257 -0.031891663)
(1.9604156 0.032023037 -0.02564213)
(1.9114613 0.029834482 -0.020092221)
(0.18512005 0.0039326741 -0.001367892)
(0.57775742 0.013457483 -0.0062326887)
(1.0200502 0.025541807 -0.016253178)
(1.4444729 0.038394233 -0.030386292)
(1.7657813 0.048692757 -0.042613075)
(1.9344292 0.053345698 -0.045772534)
(1.9698321 0.053242095 -0.043398184)
(1.9348437 0.050714447 -0.037437203)
(1.8873109 0.047834827 -0.030766834)
(0.1799414 0.004656685 -0.0017899918)
(0.56143271 0.016070783 -0.0076805141)
(0.99123067 0.030748225 -0.019184049)
(1.4046625 0.046690612 -0.035408593)
(1.7209651 0.059669462 -0.048632922)
(1.8921821 0.066984715 -0.05622541)
(1.933447 0.068107321 -0.055369868)
(1.9039785 0.066091567 -0.049840964)
(1.8591815 0.063283266 -0.0428234)
(0.17379488 0.0049769713 -0.0021815947)
(0.54243747 0.01727204 -0.0090033532)
(0.95837855 0.033260721 -0.021739893)
(1.3602863 0.0510035 -0.039359538)
(1.6720229 0.066366316 -0.055187412)
(1.8457365 0.075916658 -0.065005313)
(1.8937091 0.078943551 -0.06562714)
(1.871045 0.078161787 -0.060679274)
(1.8306026 0.075935458 -0.05345702)
(0.16679805 0.0049816627 -0.0024935888)
(0.52119582 0.017374924 -0.010017173)
(0.92241276 0.033639214 -0.023494459)
(1.3130071 0.051978477 -0.04140761)
(1.6204001 0.069201639 -0.059614819)
(1.7973327 0.081062392 -0.071115177)
(1.8528812 0.08637677 -0.073242336)
(1.8380057 0.087295553 -0.069035186)
(1.8028721 0.086089292 -0.061855279)
(0.15895957 0.004743614 -0.0027130642)
(0.49770663 0.016666109 -0.010690367)
(0.88323993 0.032533023 -0.024380579)
(1.2625253 0.051033678 -0.042865034)
(1.5662221 0.069318008 -0.06191172)
(1.7475079 0.083231189 -0.074683424)
(1.8118094 0.090916118 -0.078182904)
(1.8057109 0.093827411 -0.074782098)
(1.7766164 0.09397262 -0.067864082)
(0.1504764 0.0043722954 -0.0028442766)
(0.47233908 0.015460263 -0.010994783)
(0.84115969 0.030459287 -0.024470639)
(1.2085148 0.048673936 -0.043070102)
(1.5090281 0.067549533 -0.062423754)
(1.6960034 0.083096926 -0.076130953)
(1.7706064 0.093012731 -0.080814799)
(1.7744346 0.097949182 -0.078211298)
(1.7521134 0.099716341 -0.071672919)
(0.14113264 0.0039216483 -0.0028463702)
(0.44449289 0.013960338 -0.01085475)
(0.79513904 0.027842866 -0.023884282)
(1.1497565 0.045287665 -0.041987832)
(1.4476005 0.064234624 -0.061315498)
(1.6420005 0.080955834 -0.075766001)
(1.7291096 0.092818398 -0.081554067)
(1.7444995 0.099825504 -0.079770227)
(1.7296867 0.10333762 -0.073670068)
(0.13070507 0.0033705856 -0.002727959)
(0.4135879 0.012141255 -0.010345121)
(0.74426648 0.024638922 -0.022642307)
(1.0851954 0.040918836 -0.039863976)
(1.3808602 0.059476329 -0.058876971)
(1.5847165 0.076950939 -0.073926756)
(1.687148 0.090469266 -0.08080139)
(1.7164296 0.099449381 -0.079908476)
(1.7099618 0.10474927 -0.07436054)
(0.11963794 0.0028906303 -0.0026083631)
(0.38060129 0.010413353 -0.0097758517)
(0.6896333 0.021328248 -0.021138315)
(1.0154539 0.03599916 -0.037155095)
(1.3086595 0.053540774 -0.055399456)
(1.5235105 0.071140303 -0.070680118)
(1.6442185 0.085797645 -0.078507797)
(1.6906131 0.096518786 -0.07869387)
(1.6938276 0.10361115 -0.074042038)
(0.10768757 0.0020481403 -0.0020627262)
(0.34494999 0.0076288664 -0.0079629838)
(0.63033947 0.016210789 -0.017557896)
(0.93906655 0.028493956 -0.031554458)
(1.2285464 0.044280946 -0.048404815)
(1.4548562 0.061511508 -0.063736979)
(1.5963173 0.077063956 -0.072878431)
(1.663717 0.089410839 -0.074884347)
(1.6808858 0.098347896 -0.072424145)
(0.090208688 -0.00079734206 -0.00074717434)
(0.29281254 -0.003015775 -0.0028733181)
(0.54420246 -0.0066296251 -0.0063240716)
(0.82841339 -0.012255697 -0.011472061)
(1.1097355 -0.020399759 -0.018026523)
(1.3412558 -0.030590715 -0.024625007)
(1.4885623 -0.040959511 -0.029224492)
(1.5518397 -0.049422939 -0.030889753)
(1.5545811 -0.054813044 -0.030447653)
(0.098288081 -0.00095579907 -0.00080426959)
(0.31761969 -0.0036023455 -0.0030980159)
(0.58703797 -0.0078685063 -0.0068852375)
(0.8860248 -0.014393269 -0.012580088)
(1.1721839 -0.023508792 -0.019656979)
(1.3939647 -0.034220963 -0.026294113)
(1.5197383 -0.044238936 -0.030217301)
(1.5590574 -0.051658479 -0.030884853)
(1.5450135 -0.05600643 -0.029447555)
(0.10558136 -0.0009853676 -0.00073819913)
(0.34014532 -0.0038278289 -0.0029716503)
(0.62605291 -0.0085137495 -0.0068714433)
(0.93835654 -0.015710423 -0.012904805)
(1.2283004 -0.025528883 -0.020334532)
(1.4404401 -0.036449088 -0.02692405)
(1.5467523 -0.045853032 -0.030235124)
(1.566224 -0.052111376 -0.030042912)
(1.5407916 -0.055411617 -0.027954146)
(0.11229369 -0.0010597128 -0.00071192247)
(0.36085996 -0.0041410487 -0.0029136451)
(0.66191252 -0.0092610449 -0.0069804215)
(0.98641669 -0.017062268 -0.013308494)
(1.2798835 -0.027380467 -0.020956617)
(1.4837068 -0.038183415 -0.02731929)
(1.5736056 -0.046648086 -0.029905)
(1.5768482 -0.051575115 -0.028891752)
(1.5422769 -0.053711637 -0.026201729)
(0.11804158 -0.0011406196 -0.00069203229)
(0.37881637 -0.0044387004 -0.0028388424)
(0.69342218 -0.0099213659 -0.0070018074)
(1.0291774 -0.018235422 -0.0135729)
(1.3264715 -0.028864954 -0.021303199)
(1.5239333 -0.039277402 -0.027318598)
(1.6006518 -0.046567352 -0.029130308)
(1.5908115 -0.050044619 -0.027317382)
(1.5485163 -0.051043729 -0.0241363)
(0.12303129 -0.0012406181 -0.00067044638)
(0.39449586 -0.0047434445 -0.0027456069)
(0.72116178 -0.01044707 -0.0067844084)
(1.0672898 -0.019153709 -0.013644347)
(1.3686393 -0.029826691 -0.02123453)
(1.5614302 -0.03953971 -0.026721656)
(1.6276805 -0.045449869 -0.027699736)
(1.6072934 -0.047468704 -0.025135687)
(1.5584114 -0.047420314 -0.021561625)
(0.12744815 -0.0013770413 -0.00065644186)
(0.40835553 -0.005107314 -0.00268702)
(0.74569563 -0.010951539 -0.0065686691)
(1.1014838 -0.019717461 -0.013497198)
(1.4070835 -0.029999253 -0.020701764)
(1.5965619 -0.038680422 -0.02537008)
(1.6544418 -0.043092647 -0.025431176)
(1.6254404 -0.043749232 -0.02218397)
(1.5709159 -0.042856142 -0.018382435)
(0.13113948 -0.0014789267 -0.00060209803)
(0.42007616 -0.0053106763 -0.0024877361)
(0.76674983 -0.011055696 -0.0061669978)
(1.1314208 -0.019245889 -0.012100659)
(1.4418501 -0.028920936 -0.019576148)
(1.6293922 -0.036266246 -0.023158651)
(1.6806257 -0.039189195 -0.022223826)
(1.6444529 -0.03873437 -0.018442156)
(1.5849659 -0.037299384 -0.014680377)
(0.13408801 -0.0014529849 -0.00050417845)
(0.429566 -0.0051008765 -0.0021442968)
(0.78406066 -0.010423454 -0.0055362265)
(1.1564852 -0.01776533 -0.010773014)
(1.4724473 -0.026222793 -0.017924338)
(1.6594026 -0.031837156 -0.020327379)
(1.7054385 -0.033422952 -0.018314998)
(1.6632055 -0.032289072 -0.014225242)
(1.5991595 -0.030697465 -0.010901698)
(0.13631541 -0.0012140692 -0.00036149137)
(0.43683463 -0.0042460198 -0.0016456311)
(0.79750017 -0.0086418805 -0.0046130056)
(1.1762523 -0.014585263 -0.0093109977)
(1.4970962 -0.020889341 -0.014071893)
(1.684932 -0.025159895 -0.017251518)
(1.727175 -0.025717699 -0.014395694)
(1.6798287 -0.024432431 -0.010346578)
(1.6111942 -0.023109673 -0.007951732)
(0.13810592 -0.00078488754 -0.00024501301)
(0.44242956 -0.0027658613 -0.0012501175)
(0.80749398 -0.0056599088 -0.0038734557)
(1.1905318 -0.0095769957 -0.0081972117)
(1.5143473 -0.01371331 -0.012475739)
(1.7033875 -0.016195904 -0.014134812)
(1.7432009 -0.016294153 -0.011589105)
(1.6915516 -0.015346675 -0.0078912422)
(1.6189867 -0.014503998 -0.0059348891)
(0.13880482 -0.00027116133 -0.00018670282)
(0.44482136 -0.00095893689 -0.0010533948)
(0.81208269 -0.0019655763 -0.0035058891)
(1.1974542 -0.0033279734 -0.0076062608)
(1.5229221 -0.0047746464 -0.011658474)
(1.7122239 -0.0056247061 -0.012821098)
(1.7511085 -0.0055994243 -0.010158913)
(1.6971078 -0.0052579515 -0.0066829354)
(1.6228463 -0.0049573861 -0.0048201633)
(0.13880481 0.00027119298 -0.00018670627)
(0.44482135 0.0009590172 -0.0010533973)
(0.81208266 0.0019657263 -0.0035059056)
(1.1974541 0.0033281744 -0.0076062669)
(1.522922 0.0047748932 -0.011658465)
(1.7122238 0.005624951 -0.01282108)
(1.7511084 0.0055996286 -0.010158889)
(1.6971077 0.0052581289 -0.006682927)
(1.6228462 0.0049575718 -0.0048201666)
(0.13810591 0.0007849167 -0.00024501766)
(0.44242953 0.0027659394 -0.0012501295)
(0.80749391 0.005660047 -0.0038734708)
(1.1905316 0.0095771601 -0.0081972077)
(1.5143472 0.013713517 -0.012475729)
(1.7033873 0.016196144 -0.014134853)
(1.7432006 0.016294361 -0.01158905)
(1.6915513 0.015346858 -0.0078912063)
(1.6189864 0.014504155 -0.0059348655)
(0.13631539 0.0012140929 -0.00036149425)
(0.43683459 0.0042460823 -0.0016456825)
(0.7975001 0.0086420014 -0.0046130053)
(1.1762521 0.014585408 -0.0093109848)
(1.4970961 0.020889522 -0.014071898)
(1.6849318 0.025160104 -0.017251487)
(1.7271748 0.025717931 -0.014395612)
(1.6798284 0.024432589 -0.010346482)
(1.6111937 0.023109762 -0.0079516112)
(0.13408799 0.0014530164 -0.00050418601)
(0.42956592 0.005100937 -0.0021443989)
(0.78406055 0.010423578 -0.0055362487)
(1.156485 0.017765501 -0.010773039)
(1.4724472 0.02622298 -0.017924371)
(1.6594026 0.031837372 -0.020327351)
(1.7054384 0.033423184 -0.018314892)
(1.6632052 0.032289212 -0.014225079)
(1.5991589 0.030697466 -0.010901518)
(0.13113946 0.0014789548 -0.0006020982)
(0.42007609 0.0053107212 -0.0024877994)
(0.76674977 0.011055808 -0.0061670051)
(1.1314207 0.01924608 -0.012100693)
(1.4418501 0.028921157 -0.019576164)
(1.6293923 0.036266491 -0.023158613)
(1.6806257 0.039189428 -0.022223695)
(1.6444528 0.03873451 -0.018441936)
(1.5849654 0.037299341 -0.014680144)
(0.12744814 0.0013770591 -0.00065644114)
(0.40835551 0.0051073669 -0.0026870457)
(0.74569563 0.01095166 -0.0065687244)
(1.1014838 0.019717666 -0.013497278)
(1.4070834 0.029999539 -0.020701792)
(1.5965618 0.038680737 -0.025370045)
(1.6544418 0.043092922 -0.025431044)
(1.6254403 0.043749404 -0.022183725)
(1.5709157 0.042856071 -0.018382133)
(0.12303128 0.0012406393 -0.00067046342)
(0.39449584 0.0047435266 -0.0027456626)
(0.72116171 0.010447219 -0.0067844871)
(1.0672896 0.019153943 -0.013644423)
(1.3686391 0.029827037 -0.021234566)
(1.56143 0.039540092 -0.026721609)
(1.6276805 0.04545021 -0.027699618)
(1.6072934 0.047468905 -0.025135415)
(1.5584114 0.047420216 -0.021561187)
(0.11804157 0.0011406556 -0.00069205334)
(0.37881631 0.0044388025 -0.0028389117)
(0.69342208 0.0099215362 -0.0070018873)
(1.0291772 0.018235683 -0.013573007)
(1.3264714 0.028865307 -0.021303239)
(1.5239332 0.039277837 -0.027318593)
(1.6006518 0.04656771 -0.029130237)
(1.5908115 0.050044833 -0.027317082)
(1.5485162 0.051043704 -0.024135769)
(0.11229368 0.0010597473 -0.00071193908)
(0.36085993 0.004141144 -0.0029137042)
(0.66191247 0.0092612231 -0.0069804992)
(0.98641662 0.017062553 -0.013308588)
(1.2798833 0.027380825 -0.020956723)
(1.4837067 0.038183853 -0.027319374)
(1.5736054 0.046648454 -0.029904968)
(1.5768481 0.051575351 -0.028891552)
(1.542277 0.053711735 -0.02620134)
(0.10558136 0.00098539577 -0.00073821534)
(0.34014531 0.0038279172 -0.0029717127)
(0.62605291 0.0085139172 -0.0068715588)
(0.93835653 0.015710697 -0.012904962)
(1.2283003 0.025529269 -0.020334705)
(1.44044 0.036449489 -0.026924175)
(1.5467522 0.045853402 -0.030235244)
(1.5662237 0.05211161 -0.030042924)
(1.5407914 0.055411608 -0.027953792)
(0.098288089 0.00095582305 -0.0008042833)
(0.3176197 0.0036024231 -0.0030980716)
(0.58703798 0.0078686597 -0.0068853323)
(0.88602478 0.014393507 -0.012580204)
(1.1721838 0.023509114 -0.019657103)
(1.3939645 0.03422128 -0.026294328)
(1.5197381 0.044239137 -0.030217559)
(1.5590571 0.051658383 -0.030884726)
(1.5450132 0.05600603 -0.029447278)
(0.090208702 0.00079737412 -0.00074719737)
(0.29281256 0.0030158616 -0.0028733933)
(0.54420249 0.006629791 -0.0063241734)
(0.82841338 0.012255913 -0.011472205)
(1.1097355 0.020399975 -0.018026755)
(1.3412557 0.030590915 -0.024625259)
(1.4885621 0.040959657 -0.029224537)
(1.5518399 0.049422864 -0.030889705)
(1.5545813 0.054812732 -0.030447682)
(0.099275246 -0.00049758153 -0.00045183626)
(0.32035872 -0.0017791137 -0.0015887172)
(0.59117177 -0.003750808 -0.0032227422)
(0.892336 -0.0066140331 -0.0055421413)
(1.1857779 -0.010429158 -0.008690822)
(1.4255864 -0.014908717 -0.012447545)
(1.5797161 -0.019278897 -0.015949718)
(1.6490248 -0.022758753 -0.018152767)
(1.6562457 -0.024859518 -0.018911649)
(0.10786397 -0.00069261934 -0.00055670312)
(0.34620219 -0.0024077479 -0.0019089547)
(0.63465483 -0.004930176 -0.0037891867)
(0.94894088 -0.008426793 -0.0064176897)
(1.2449695 -0.012862398 -0.0099416925)
(1.473519 -0.0177367 -0.014020902)
(1.6057383 -0.022039419 -0.017555243)
(1.6512617 -0.024977751 -0.019480349)
(1.6422607 -0.026389135 -0.019645442)
(0.11542356 -0.00080220626 -0.0005599797)
(0.36898584 -0.0027928704 -0.00192973)
(0.67292499 -0.0056991819 -0.0038446246)
(0.99834869 -0.009664061 -0.0065722198)
(1.2956863 -0.014550335 -0.010292226)
(1.5130734 -0.019629728 -0.014572947)
(1.6253934 -0.023689679 -0.018145935)
(1.6511519 -0.026022721 -0.019948547)
(1.6310639 -0.026842134 -0.019953201)
(0.12221249 -0.00090226197 -0.0005476687)
(0.3893512 -0.0031280272 -0.0018876844)
(0.70697263 -0.0063406093 -0.0037731393)
(1.0420908 -0.010664458 -0.006519748)
(1.3404319 -0.015864276 -0.010339699)
(1.5481048 -0.020983389 -0.014719727)
(1.6436865 -0.024642899 -0.01827514)
(1.6534823 -0.026297594 -0.020008125)
(1.624618 -0.026529526 -0.01996302)
(0.12784904 -0.00096083182 -0.00050509635)
(0.40640503 -0.0033341082 -0.0017491107)
(0.73571612 -0.0067489468 -0.0035308121)
(1.0793421 -0.0113224 -0.0062242297)
(1.3789912 -0.016723392 -0.010080026)
(1.5790419 -0.021761316 -0.014510332)
(1.6612873 -0.024917416 -0.018031602)
(1.6584178 -0.025876478 -0.01973598)
(1.6224322 -0.02554655 -0.019713587)
(0.13259078 -0.00098278918 -0.00043582107)
(0.42077234 -0.0034178803 -0.0015217236)
(0.75998765 -0.0069215005 -0.0031255681)
(1.1109494 -0.011615796 -0.00568921)
(1.4120574 -0.017082547 -0.0095062944)
(1.60627 -0.021906772 -0.013944819)
(1.6780958 -0.024476954 -0.017431212)
(1.6653274 -0.024749301 -0.019129277)
(1.6235512 -0.023934773 -0.019185547)
(0.13663988 -0.00095892805 -0.00035290109)
(0.43297248 -0.0033507799 -0.0012444085)
(0.78052631 -0.0068076336 -0.0026123351)
(1.1377187 -0.011452387 -0.0049576105)
(1.4403082 -0.016801558 -0.0086468044)
(1.6301116 -0.021277048 -0.013035843)
(1.6938553 -0.023226138 -0.01647876)
(1.6734036 -0.022891002 -0.01821194)
(1.6269447 -0.021700619 -0.018402662)
(0.13986077 -0.00086844185 -0.00025819672)
(0.44275089 -0.003072471 -0.00093072049)
(0.79714197 -0.0063019082 -0.0020352305)
(1.1596698 -0.010702755 -0.0041159897)
(1.4639686 -0.015932687 -0.0077321115)
(1.6507563 -0.020013039 -0.01195177)
(1.7083782 -0.021066044 -0.015151078)
(1.6819484 -0.020247586 -0.017014195)
(1.6316762 -0.018836977 -0.017444923)
(0.14230267 -0.00072480222 -0.00016903228)
(0.45024739 -0.0026082694 -0.00063596507)
(0.81007231 -0.005437241 -0.0014999708)
(1.1771653 -0.0094411164 -0.0033541873)
(1.4835584 -0.013992757 -0.0066506049)
(1.6685714 -0.01738893 -0.010534578)
(1.7214881 -0.018227864 -0.01372395)
(1.690256 -0.016825218 -0.015649476)
(1.6368078 -0.015363596 -0.016458879)
(0.14405748 -0.00053870306 -9.1895899e-05)
(0.45571091 -0.0019744494 -0.00037361721)
(0.81964578 -0.0041948532 -0.0010082335)
(1.1904153 -0.0073062246 -0.0025323003)
(1.4987314 -0.010848847 -0.0053990975)
(1.6828437 -0.013441535 -0.0091284236)
(1.7324949 -0.013921856 -0.01223303)
(1.6975501 -0.012872488 -0.014503938)
(1.6413928 -0.011389147 -0.015641586)
(0.14546755 -0.00032418882 -3.8465373e-05)
(0.4598769 -0.0012088902 -0.00018857993)
(0.82664709 -0.0026074754 -0.00065163557)
(1.1997725 -0.0045985958 -0.0019637827)
(1.5092593 -0.0068866283 -0.0046157196)
(1.6928153 -0.0085022694 -0.008145615)
(1.740301 -0.0087362701 -0.011287056)
(1.7027917 -0.0080004365 -0.013770051)
(1.6446478 -0.0070049864 -0.015092237)
(0.1459314 -0.00010751442 -1.4714593e-05)
(0.46143063 -0.00040586011 -0.00010641417)
(0.82954234 -0.00088366528 -0.00049595597)
(1.2039824 -0.0015698452 -0.0017179477)
(1.5142924 -0.0023639956 -0.0042792686)
(1.6977206 -0.0029231209 -0.0077372726)
(1.744234 -0.0029844974 -0.010908466)
(1.7054468 -0.0027190923 -0.013441849)
(1.6463057 -0.0024118515 -0.014894067)
(0.1459314 0.00010754072 -1.4716801e-05)
(0.46143063 0.00040592819 -0.00010641709)
(0.82954233 0.00088380298 -0.00049596784)
(1.2039824 0.0015700473 -0.0017179501)
(1.5142923 0.0023642482 -0.0042792597)
(1.6977205 0.0029233951 -0.007737255)
(1.744234 0.002984748 -0.010908442)
(1.7054468 0.00271926 -0.01344182)
(1.6463057 0.0024119174 -0.014894042)
(0.14546755 0.00032421942 -3.8468521e-05)