/*--------------------------------*- C++ -*----------------------------------*\
  =========                 |
  \\      /  F ield         | OpenFOAM: The Open Source CFD Toolbox
   \\    /   O peration     | Website:  https://openfoam.org
    \\  /    A nd           | Version:  10
     \\/     M anipulation  |
\*---------------------------------------------------------------------------*/
FoamFile
{
    format      ascii;
    class       volScalarField;
    location    "34.5";
    object      T;
}
// * * * * * * * * * * * * * * * * * * * * * * * * * * * * * * * * * * * * * //

dimensions      [0 0 -1 0 0 0 0];

internalField   nonuniform List<scalar> 
100
(
0.509563
1.52395
2.52482
3.50328
4.45064
5.35849
6.21879
7.02388
7.76664
8.44045
9.03935
9.55802
9.99185
10.337
10.5904
10.7498
10.8138
10.7818
10.6541
10.4318
10.1169
9.71227
9.22141
8.6487
7.99923
7.27875
6.49367
5.65096
4.75809
3.82298
2.85395
1.85959
0.848718
-0.169681
-1.18657
-2.19293
-3.17982
-4.13849
-5.06042
-5.93743
-6.76174
-7.52603
-8.22351
-8.848
-9.39396
-9.85653
-10.2316
-10.5159
-10.7068
-10.8027
-10.8027
-10.7068
-10.5159
-10.2316
-9.85652
-9.39394
-8.84799
-8.22349
-7.52601
-6.76171
-5.9374
-5.06039
-4.13846
-3.17979
-2.1929
-1.18654
-0.169648
0.848753
1.85962
2.85399
3.82302
4.75813
5.651
6.49371
7.27879
7.99926
8.64874
9.22145
9.71231
10.117
10.4318
10.6541
10.7818
10.8138
10.7498
10.5904
10.337
9.99188
9.55805
9.03938
8.44048
7.76666
7.0239
6.2188
5.35851
4.45065
3.50328
2.52483
1.52396
0.509564
)
;

boundaryField
{
    xmin
    {
        type            fixedValue;
        value           uniform 0;
    }
    xmax
    {
        type            fixedValue;
        value           uniform 0;
    }
    frontAndBack
    {
        type            empty;
    }
}


// ************************************************************************* //
