/*--------------------------------*- C++ -*----------------------------------*\
  =========                 |
  \\      /  F ield         | OpenFOAM: The Open Source CFD Toolbox
   \\    /   O peration     | Website:  https://openfoam.org
    \\  /    A nd           | Version:  10
     \\/     M anipulation  |
\*---------------------------------------------------------------------------*/
FoamFile
{
    format      ascii;
    class       volScalarField;
    location    "34.5";
    object      T_0;
}
// * * * * * * * * * * * * * * * * * * * * * * * * * * * * * * * * * * * * * //

dimensions      [0 0 -1 0 0 0 0];

internalField   nonuniform List<scalar> 
100
(
0.510054
1.52542
2.52725
3.50665
4.45492
5.36366
6.22478
7.03065
7.77412
8.44859
9.04806
9.56723
10.0015
10.347
10.6006
10.7601
10.8242
10.7921
10.6643
10.4418
10.1267
9.72163
9.23029
8.65703
8.00693
7.28577
6.49993
5.6564
4.76267
3.82667
2.8567
1.86138
0.849536
-0.169845
-1.18772
-2.19504
-3.18289
-4.14247
-5.06529
-5.94315
-6.76825
-7.53328
-8.23143
-8.85653
-9.40301
-9.86602
-10.2415
-10.526
-10.7171
-10.8131
-10.8131
-10.7171
-10.526
-10.2415
-9.86601
-9.40299
-8.85651
-8.23142
-7.53326
-6.76823
-5.94312
-5.06527
-4.14245
-3.18286
-2.19501
-1.18768
-0.169811
0.84957
1.86141
2.85674
3.82671
4.76271
5.65644
6.49997
7.2858
8.00697
8.65707
9.23033
9.72166
10.1267
10.4419
10.6644
10.7922
10.8242
10.7602
10.6006
10.347
10.0015
9.56725
9.04809
8.44861
7.77414
7.03067
6.22479
5.36367
4.45493
3.50666
2.52726
1.52543
0.510055
)
;

boundaryField
{
    xmin
    {
        type            fixedValue;
        value           uniform 0;
    }
    xmax
    {
        type            fixedValue;
        value           uniform 0;
    }
    frontAndBack
    {
        type            empty;
    }
}


// ************************************************************************* //
