/*--------------------------------*- C++ -*----------------------------------*\
| =========                 |                                                 |
| \\      /  F ield         | OpenFOAM: The Open Source CFD Toolbox           |
|  \\    /   O peration     | Version:  2406                                  |
|   \\  /    A nd           | Website:  www.openfoam.com                      |
|    \\/     M anipulation  |                                                 |
\*---------------------------------------------------------------------------*/
FoamFile
{
    version     2.0;
    format      ascii;
    arch        "LSB;label=32;scalar=64";
    class       volScalarField;
    location    "0.085";
    object      T;
}
// * * * * * * * * * * * * * * * * * * * * * * * * * * * * * * * * * * * * * //

dimensions      [0 0 0 1 0 0 0];

internalField   nonuniform List<scalar> 
12225
(
1.00694
1.00397
1.00144
1.00053
1.00001
0.99965
0.999458
0.99937
0.999324
0.999293
0.99927
0.999235
0.999168
0.999003
0.998591
0.997613
0.994988
0.989083
0.994965
0.99447
0.996349
0.997908
0.99867
0.998979
0.999136
0.99924
0.999303
0.999335
0.999345
0.999335
0.99928
0.999129
0.998733
0.997797
0.995435
0.99001
0.999592
0.99992
1
0.999967
0.999819
0.999637
0.999514
0.999449
0.99941
0.99938
0.999352
0.999315
0.999246
0.999091
0.998717
0.997851
0.995797
0.991455
1.00032
1.00007
0.999547
0.99942
0.999421
0.999388
0.999355
0.999341
0.999335
0.999326
0.999312
0.999287
0.999228
0.99909
0.998757
0.998
0.996314
0.992968
1.00013
0.999833
0.999434
0.999387
0.999436
0.999423
0.999388
0.999365
0.999349
0.999333
0.999313
0.999283
0.999225
0.999096
0.998803
0.998165
0.996828
0.99434
0.999993
0.999846
0.999578
0.999496
0.999494
0.99946
0.999412
0.999377
0.999351
0.999327
0.999301
0.999268
0.999209
0.999093
0.998844
0.998327
0.997306
0.995509
0.999975
0.999925
0.999719
0.999592
0.999547
0.999499
0.999444
0.999399
0.999363
0.999331
0.999299
0.99926
0.999202
0.999099
0.998892
0.998488
0.997733
0.996466
0.999983
0.999963
0.999798
0.999661
0.999596
0.999539
0.999477
0.999423
0.999379
0.999339
0.9993
0.999256
0.999198
0.999104
0.998931
0.998608
0.998034
0.997103
0.999986
0.999973
0.99984
0.999706
0.999627
0.99956
0.999491
0.99943
0.999378
0.999331
0.999287
0.999239
0.999181
0.999095
0.998948
0.99869
0.998248
0.997551
0.999984
0.999963
0.999852
0.999723
0.999631
0.999554
0.999478
0.99941
0.999351
0.999298
0.999248
0.999197
0.999139
0.999061
0.998939
0.998738
0.998409
0.997907
0.99998
0.999942
0.99984
0.999715
0.999612
0.999524
0.999441
0.999366
0.9993
0.999242
0.999187
0.999133
0.999076
0.999005
0.998904
0.998751
0.998515
0.998168
0.999976
0.999921
0.999818
0.999694
0.999583
0.999486
0.999398
0.999317
0.999246
0.999181
0.999123
0.999067
0.999011
0.998947
0.998864
0.99875
0.998586
0.998355
0.999975
0.999912
0.999811
0.99969
0.999577
0.999476
0.999384
0.9993
0.999224
0.999157
0.999098
0.999041
0.998984
0.998927
0.99886
0.998775
0.998663
0.998515
0.999978
0.999919
0.999828
0.999717
0.99961
0.999512
0.999421
0.999338
0.999264
0.999197
0.999138
0.999083
0.99903
0.998978
0.998925
0.998862
0.998787
0.998695
0.999982
0.999936
0.999861
0.999769
0.999677
0.99959
0.999511
0.999438
0.99937
0.999309
0.999255
0.999206
0.999162
0.999119
0.999075
0.99903
0.998981
0.998926
0.999987
0.999957
0.999905
0.99984
0.999774
0.999712
0.999654
0.9996
0.999548
0.999503
0.999462
0.999427
0.999395
0.999364
0.999333
0.999304
0.999274
0.999244
0.999993
0.999986
0.999968
0.999941
0.999912
0.999886
0.999864
0.999841
0.99982
0.999801
0.999783
0.999768
0.999755
0.999744
0.999732
0.999719
0.999708
0.999697
1
1.00003
1.00005
1.00007
1.00009
1.00011
1.00013
1.00015
1.00017
1.00018
1.0002
1.00021
1.00022
1.00023
1.00024
1.00025
1.00025
1.00026
1.00001
1.00006
1.00011
1.00017
1.00022
1.00028
1.00034
1.00039
1.00043
1.00048
1.00051
1.00055
1.00058
1.0006
1.00063
1.00065
1.00067
1.00068
1.00001
1.00006
1.00012
1.00019
1.00026
1.00033
1.00039
1.00046
1.00052
1.00057
1.00062
1.00067
1.00071
1.00075
1.00078
1.00081
1.00084
1.00086
1.00001
1.00006
1.00012
1.00018
1.00025
1.00031
1.00038
1.00045
1.00051
1.00057
1.00062
1.00068
1.00072
1.00077
1.00081
1.00085
1.00088
1.00091
1.00001
1.00006
1.00012
1.00017
1.00023
1.0003
1.00036
1.00043
1.00049
1.00055
1.00061
1.00067
1.00072
1.00077
1.00081
1.00085
1.00089
1.00092
1
1.00008
1.00013
1.00016
1.00021
1.00027
1.00034
1.00041
1.00048
1.00054
1.0006
1.00066
1.00071
1.00076
1.00081
1.00085
1.00089
1.00093
0.999997
1.0001
1.00014
1.00015
1.00019
1.00026
1.00033
1.0004
1.00047
1.00054
1.00061
1.00067
1.00072
1.00077
1.00082
1.00086
1.00091
1.00094
1
1.00009
1.0001
1.00012
1.00019
1.00028
1.00035
1.00042
1.00049
1.00056
1.00063
1.00069
1.00074
1.00079
1.00084
1.00088
1.00093
1.00097
1.00014
1.00014
0.999953
0.999972
1.00014
1.00029
1.00039
1.00047
1.00055
1.00062
1.00068
1.00074
1.0008
1.00084
1.00089
1.00093
1.00097
1.00101
1.0005
1.00058
1.0001
0.999927
1.00003
1.00018
1.00031
1.00042
1.00053
1.00062
1.0007
1.00076
1.00082
1.00088
1.00093
1.00097
1.00102
1.00106
1.00004
1.00088
1.00115
1.00111
1.00099
1.00088
1.00081
1.0008
1.00082
1.00085
1.00088
1.00092
1.00096
1.00099
1.00103
1.00106
1.0011
1.00113
0.994517
0.993822
0.99606
0.998048
0.999185
0.99978
1.00015
1.0004
1.00059
1.00072
1.00083
1.00091
1.00098
1.00104
1.00109
1.00114
1.00118
1.00121
1.00648
1.00454
1.00223
1.0015
1.00119
1.00097
1.00088
1.00087
1.00089
1.00092
1.00096
1.00099
1.00103
1.00107
1.0011
1.00114
1.00117
1.00122
0.738896
0.7389
0.738864
0.738812
0.738761
0.738706
0.738643
0.738574
0.738503
0.738431
0.738357
0.738282
0.738206
0.738129
0.738052
0.737975
0.737901
0.73783
0.737763
0.737702
0.737649
0.737604
0.737569
0.737546
0.737536
0.737541
0.737559
0.737591
0.737634
0.737691
0.737775
0.737913
0.738179
0.738702
0.739234
0.73959
0.739959
0.740293
0.740613
0.740926
0.741204
0.741536
0.74196
0.742356
0.742787
0.743299
0.743824
0.744374
0.744948
0.745543
0.746158
0.746791
0.74744
0.748105
0.748784
0.749476
0.75018
0.750895
0.751621
0.752355
0.753097
0.753846
0.754602
0.755362
0.756127
0.756895
0.757666
0.758438
0.759211
0.759984
0.760757
0.761529
0.762299
0.763067
0.763832
0.764594
0.765351
0.766104
0.766852
0.767595
0.768333
0.769065
0.76979
0.770509
0.771222
0.771927
0.772625
0.773317
0.774
0.774677
0.775346
0.776007
0.77666
0.777305
0.777941
0.778568
0.779183
0.779786
0.780384
0.780975
0.781557
0.78213
0.782695
0.783249
0.783794
0.784329
0.784855
0.78537
0.785876
0.786372
0.786857
0.787333
0.787798
0.788253
0.788697
0.789131
0.789555
0.789967
0.790368
0.790759
0.791138
0.791505
0.79186
0.792203
0.792532
0.79285
0.793155
0.793447
0.793727
0.793994
0.794249
0.794491
0.79472
0.794936
0.79514
0.795331
0.795508
0.795673
0.795824
0.795963
0.796088
0.7962
0.796298
0.796382
0.79645
0.796503
0.796541
0.796564
0.796572
0.796564
0.79654
0.7965
0.796444
0.796372
0.796285
0.796181
0.796061
0.795925
0.795773
0.795604
0.795418
0.795213
0.794983
0.794713
0.794408
0.794083
0.793743
0.79339
0.793024
0.792644
0.79225
0.791842
0.791417
0.790975
0.790515
0.790029
0.789537
0.788916
0.788543
0.786872
0.739572
0.739565
0.739554
0.73953
0.739501
0.739467
0.739426
0.739377
0.739318
0.73925
0.739175
0.739096
0.739013
0.738931
0.738849
0.738769
0.738694
0.738623
0.73856
0.738504
0.73846
0.738427
0.738411
0.738413
0.738437
0.738489
0.738573
0.738693
0.738855
0.739058
0.739294
0.739547
0.739794
0.739854
0.739815
0.739945
0.740162
0.740458
0.740812
0.7412
0.741638
0.742086
0.742497
0.742962
0.743482
0.743992
0.744516
0.74506
0.745625
0.746211
0.746817
0.747441
0.748082
0.748739
0.74941
0.750095
0.750792
0.7515
0.752218
0.752945
0.753681
0.754423
0.755171
0.755925
0.756683
0.757444
0.758208
0.758974
0.75974
0.760507
0.761273
0.762039
0.762802
0.763564
0.764322
0.765077
0.765828
0.766575
0.767316
0.768053
0.768784
0.769509
0.770228
0.770941
0.771647
0.772345
0.773037
0.773721
0.774398
0.775066
0.775728
0.776381
0.777025
0.777662
0.77829
0.77891
0.779524
0.780131
0.780727
0.781313
0.781888
0.782453
0.783009
0.783556
0.784092
0.784618
0.785135
0.785642
0.786138
0.786624
0.787101
0.787566
0.788022
0.788467
0.788901
0.789325
0.789738
0.79014
0.79053
0.79091
0.791278
0.791634
0.791977
0.792308
0.792626
0.792931
0.793224
0.793504
0.793772
0.794027
0.794268
0.794498
0.794714
0.794917
0.795107
0.795284
0.795447
0.795598
0.795735
0.795859
0.79597
0.796066
0.796149
0.796216
0.796268
0.796306
0.796327
0.796333
0.796324
0.796298
0.796256
0.796198
0.796124
0.796034
0.795927
0.795804
0.795664
0.795508
0.795335
0.795145
0.794937
0.794711
0.794469
0.794213
0.793943
0.793654
0.793348
0.793027
0.792691
0.79234
0.791972
0.791589
0.79119
0.790773
0.790338
0.78988
0.789413
0.788846
0.788434
0.787205
0.741027
0.740973
0.740943
0.740913
0.740877
0.740832
0.740777
0.740713
0.740641
0.740562
0.740477
0.740387
0.740296
0.740204
0.740112
0.740023
0.739938
0.739859
0.739787
0.739724
0.739671
0.739632
0.739608
0.739601
0.739614
0.739647
0.739702
0.739777
0.739871
0.739981
0.740106
0.740249
0.740416
0.740589
0.74077
0.740984
0.741225
0.741501
0.741816
0.742169
0.742566
0.743004
0.743469
0.743955
0.744456
0.744965
0.745492
0.746037
0.746601
0.747183
0.747783
0.748401
0.749035
0.749684
0.750348
0.751025
0.751715
0.752416
0.753126
0.753846
0.754575
0.75531
0.756052
0.7568
0.757551
0.758307
0.759065
0.759825
0.760587
0.761349
0.76211
0.762871
0.763631
0.764388
0.765143
0.765895
0.766643
0.767387
0.768126
0.76886
0.76959
0.770313
0.77103
0.771742
0.772446
0.773144
0.773835
0.774519
0.775195
0.775864
0.776525
0.777179
0.777824
0.778461
0.77909
0.77971
0.780321
0.780923
0.781517
0.782102
0.782678
0.783244
0.783801
0.784348
0.784885
0.785412
0.78593
0.786437
0.786935
0.787422
0.787899
0.788365
0.788822
0.789267
0.789702
0.790127
0.79054
0.790942
0.791333
0.791713
0.792081
0.792437
0.79278
0.79311
0.793428
0.793733
0.794025
0.794305
0.794571
0.794825
0.795065
0.795293
0.795507
0.795708
0.795896
0.796071
0.796232
0.79638
0.796514
0.796635
0.796742
0.796834
0.796912
0.796975
0.797023
0.797055
0.797071
0.797072
0.797056
0.797024
0.796976
0.796912
0.79683
0.796733
0.796619
0.796488
0.79634
0.796175
0.795994
0.795796
0.795581
0.795349
0.795103
0.794846
0.794578
0.794295
0.793994
0.793678
0.793346
0.792999
0.792636
0.792256
0.79186
0.791446
0.791013
0.790557
0.790085
0.789528
0.789081
0.788111
0.743193
0.743094
0.743035
0.74299
0.74294
0.742877
0.742805
0.742723
0.742635
0.74254
0.74244
0.742337
0.742232
0.742126
0.742022
0.74192
0.741823
0.741731
0.741647
0.741572
0.741509
0.741458
0.741421
0.741401
0.741397
0.741413
0.741447
0.7415
0.741573
0.741665
0.741781
0.741921
0.742086
0.742267
0.742466
0.742694
0.742948
0.743229
0.743537
0.743873
0.744239
0.744634
0.745054
0.745502
0.745973
0.746465
0.746977
0.747509
0.74806
0.748629
0.749217
0.749821
0.750442
0.751078
0.751729
0.752393
0.753069
0.753757
0.754456
0.755163
0.75588
0.756604
0.757334
0.758071
0.758812
0.759557
0.760306
0.761057
0.76181
0.762564
0.763318
0.764072
0.764825
0.765577
0.766326
0.767072
0.767816
0.768556
0.769292
0.770023
0.77075
0.771471
0.772187
0.772897
0.7736
0.774298
0.774989
0.775673
0.77635
0.77702
0.777683
0.778338
0.778986
0.779625
0.780257
0.78088
0.781495
0.782101
0.782699
0.783287
0.783867
0.784437
0.784998
0.785549
0.786091
0.786623
0.787145
0.787658
0.78816
0.788652
0.789134
0.789606
0.790067
0.790518
0.790959
0.791388
0.791806
0.792214
0.79261
0.792994
0.793367
0.793727
0.794075
0.79441
0.794732
0.795041
0.795337
0.795621
0.795891
0.796148
0.796392
0.796623
0.79684
0.797044
0.797234
0.79741
0.797573
0.797723
0.797858
0.79798
0.798087
0.79818
0.798258
0.79832
0.798367
0.798398
0.798413
0.798411
0.798394
0.79836
0.798309
0.798241
0.798157
0.798056
0.797938
0.797804
0.797652
0.797483
0.797298
0.797096
0.796877
0.796642
0.796392
0.79613
0.795855
0.795564
0.795258
0.794936
0.794599
0.794246
0.793877
0.793492
0.79309
0.79267
0.792231
0.791766
0.791282
0.79072
0.790245
0.789391
0.746033
0.745891
0.745807
0.745749
0.745685
0.745606
0.745516
0.745417
0.745309
0.745196
0.745077
0.744955
0.744832
0.744707
0.744584
0.744464
0.744349
0.744239
0.744137
0.744044
0.743963
0.743893
0.743838
0.743798
0.743775
0.74377
0.743783
0.743817
0.743872
0.74395
0.744051
0.744176
0.744325
0.744494
0.744685
0.744902
0.745146
0.745415
0.745711
0.746034
0.746382
0.746757
0.747156
0.74758
0.748028
0.748498
0.74899
0.749502
0.750035
0.750586
0.751156
0.751742
0.752345
0.752964
0.753597
0.754243
0.754903
0.755574
0.756256
0.756948
0.757648
0.758357
0.759073
0.759795
0.760523
0.761255
0.761992
0.762731
0.763473
0.764216
0.76496
0.765705
0.766449
0.767192
0.767934
0.768674
0.769411
0.770146
0.770876
0.771604
0.772326
0.773044
0.773757
0.774465
0.775167
0.775864
0.776554
0.777238
0.777916
0.778587
0.779251
0.779907
0.780557
0.781199
0.781833
0.782459
0.783077
0.783687
0.784289
0.784881
0.785465
0.78604
0.786606
0.787162
0.78771
0.788247
0.788775
0.789293
0.789801
0.7903
0.790788
0.791265
0.791733
0.79219
0.792636
0.793072
0.793496
0.793909
0.794311
0.794701
0.79508
0.795446
0.795799
0.796139
0.796466
0.796781
0.797082
0.797369
0.797644
0.797905
0.798153
0.798387
0.798608
0.798814
0.799007
0.799186
0.799351
0.799502
0.799639
0.799761
0.799869
0.799962
0.800039
0.800101
0.800146
0.800176
0.800189
0.800186
0.800165
0.800128
0.800075
0.800004
0.799916
0.799811
0.799689
0.79955
0.799393
0.79922
0.799029
0.798822
0.798598
0.798358
0.798102
0.797833
0.797549
0.79725
0.796936
0.796607
0.796262
0.795902
0.795526
0.795134
0.794725
0.794298
0.79385
0.793376
0.79288
0.792312
0.791821
0.791001
0.74955
0.749377
0.749274
0.749204
0.749125
0.74903
0.748922
0.748803
0.748675
0.748541
0.7484
0.748257
0.748111
0.747964
0.747819
0.747676
0.747539
0.747407
0.747283
0.747168
0.747064
0.746973
0.746895
0.746833
0.746788
0.746761
0.746754
0.746767
0.746802
0.74686
0.746942
0.747047
0.747176
0.747327
0.747502
0.747701
0.747927
0.748178
0.748455
0.748757
0.749086
0.74944
0.749818
0.75022
0.750645
0.751092
0.751561
0.75205
0.752559
0.753087
0.753634
0.754198
0.754778
0.755374
0.755985
0.75661
0.757248
0.757897
0.758559
0.75923
0.759911
0.7606
0.761298
0.762002
0.762713
0.763428
0.764148
0.764872
0.765599
0.766329
0.76706
0.767792
0.768524
0.769257
0.769988
0.770719
0.771447
0.772173
0.772897
0.773617
0.774334
0.775047
0.775756
0.77646
0.777159
0.777853
0.778541
0.779223
0.7799
0.78057
0.781234
0.781892
0.782543
0.783186
0.783822
0.78445
0.785071
0.785684
0.786289
0.786885
0.787473
0.788053
0.788623
0.789184
0.789736
0.790279
0.790813
0.791336
0.79185
0.792355
0.792849
0.793333
0.793806
0.794269
0.794722
0.795163
0.795594
0.796013
0.796421
0.796817
0.797201
0.797573
0.797931
0.798277
0.798609
0.798928
0.799234
0.799526
0.799805
0.80007
0.800321
0.800559
0.800782
0.800991
0.801186
0.801367
0.801534
0.801686
0.801823
0.801946
0.802053
0.802145
0.802222
0.802282
0.802325
0.802352
0.802363
0.802356
0.802332
0.802292
0.802233
0.802158
0.802065
0.801955
0.801827
0.801682
0.80152
0.80134
0.801142
0.800928
0.800697
0.80045
0.800187
0.799909
0.799617
0.79931
0.798987
0.798649
0.798296
0.797928
0.797544
0.797144
0.796727
0.796292
0.795836
0.795353
0.794846
0.794271
0.793769
0.792939
0.753761
0.753572
0.753455
0.753372
0.753278
0.753165
0.753038
0.752899
0.752749
0.752592
0.752428
0.75226
0.75209
0.751919
0.751748
0.751581
0.751418
0.751261
0.751112
0.750972
0.750844
0.750728
0.750626
0.75054
0.750471
0.75042
0.75039
0.75038
0.750393
0.750428
0.750486
0.750568
0.750673
0.750802
0.750955
0.751133
0.751335
0.751564
0.751817
0.752096
0.752399
0.752727
0.75308
0.753455
0.753853
0.754273
0.754715
0.755176
0.755658
0.756158
0.756677
0.757214
0.757767
0.758335
0.758919
0.759517
0.760129
0.760753
0.761389
0.762035
0.762692
0.763358
0.764032
0.764714
0.765403
0.766097
0.766797
0.767502
0.768211
0.768922
0.769636
0.770352
0.771069
0.771787
0.772506
0.773223
0.77394
0.774655
0.775369
0.77608
0.776788
0.777493
0.778195
0.778892
0.779586
0.780275
0.780959
0.781638
0.782312
0.78298
0.783642
0.784299
0.784949
0.785592
0.786228
0.786858
0.78748
0.788095
0.788702
0.789301
0.789892
0.790475
0.791049
0.791614
0.792171
0.792718
0.793256
0.793785
0.794304
0.794813
0.795313
0.795802
0.796281
0.79675
0.797208
0.797656
0.798092
0.798517
0.798931
0.799332
0.799721
0.800098
0.800461
0.800812
0.801149
0.801473
0.801783
0.802079
0.802362
0.80263
0.802885
0.803125
0.803351
0.803562
0.803759
0.803941
0.804108
0.804261
0.804398
0.80452
0.804627
0.804718
0.804792
0.80485
0.804891
0.804914
0.804921
0.80491
0.804882
0.804836
0.804773
0.804691
0.804592
0.804476
0.804341
0.804189
0.804019
0.803831
0.803626
0.803404
0.803165
0.802909
0.802638
0.802351
0.802049
0.801732
0.801399
0.801052
0.80069
0.800312
0.799919
0.79951
0.799085
0.798641
0.798176
0.797684
0.797167
0.796584
0.796069
0.795212
0.758701
0.758502
0.758375
0.758277
0.758167
0.758037
0.75789
0.75773
0.757558
0.757376
0.757188
0.756994
0.756797
0.756599
0.756402
0.756207
0.756017
0.755833
0.755656
0.75549
0.755334
0.755192
0.755064
0.754952
0.754857
0.75478
0.754724
0.754689
0.754675
0.754684
0.754716
0.754771
0.75485
0.754953
0.755079
0.75523
0.755405
0.755606
0.755831
0.756081
0.756355
0.756653
0.756975
0.75732
0.757686
0.758075
0.758484
0.758913
0.759362
0.75983
0.760317
0.76082
0.761341
0.761878
0.76243
0.762996
0.763576
0.76417
0.764775
0.765392
0.766019
0.766657
0.767303
0.767958
0.76862
0.76929
0.769965
0.770646
0.771331
0.772021
0.772714
0.77341
0.774107
0.774807
0.775508
0.776209
0.77691
0.777611
0.77831
0.779008
0.779704
0.780398
0.78109
0.781778
0.782463
0.783144
0.783821
0.784494
0.785162
0.785825
0.786483
0.787136
0.787783
0.788424
0.789058
0.789687
0.790308
0.790923
0.79153
0.79213
0.792722
0.793307
0.793883
0.79445
0.795009
0.79556
0.796101
0.796633
0.797156
0.79767
0.798174
0.798667
0.799151
0.799624
0.800087
0.800539
0.80098
0.80141
0.801828
0.802234
0.802628
0.803008
0.803376
0.803731
0.804072
0.804399
0.804713
0.805013
0.805298
0.80557
0.805826
0.806069
0.806296
0.806509
0.806706
0.806889
0.807056
0.807208
0.807345
0.807466
0.807571
0.807659
0.807731
0.807785
0.807822
0.807842
0.807844
0.807828
0.807794
0.807743
0.807673
0.807585
0.807479
0.807355
0.807212
0.807052
0.806873
0.806677
0.806463
0.806231
0.805983
0.805718
0.805436
0.805139
0.804826
0.804499
0.804156
0.803798
0.803425
0.803037
0.802634
0.802216
0.801781
0.801328
0.800854
0.800353
0.799827
0.799234
0.798705
0.797814
0.764405
0.764201
0.764063
0.763951
0.763825
0.763676
0.763509
0.763326
0.76313
0.762924
0.762709
0.762489
0.762264
0.762038
0.761813
0.761589
0.76137
0.761157
0.760952
0.760756
0.760572
0.760401
0.760245
0.760104
0.759981
0.759876
0.759792
0.759728
0.759685
0.759665
0.759667
0.759693
0.759741
0.759813
0.759909
0.760029
0.760173
0.760341
0.760534
0.76075
0.76099
0.761254
0.76154
0.761849
0.762179
0.762531
0.762903
0.763295
0.763707
0.764137
0.764586
0.765052
0.765535
0.766034
0.766549
0.767079
0.767622
0.76818
0.76875
0.769331
0.769924
0.770528
0.771141
0.771764
0.772395
0.773033
0.773679
0.774331
0.774988
0.77565
0.776317
0.776988
0.777662
0.778338
0.779017
0.779697
0.780378
0.781059
0.78174
0.782421
0.783101
0.78378
0.784456
0.785131
0.785803
0.786473
0.787139
0.787801
0.78846
0.789115
0.789765
0.790411
0.791052
0.791687
0.792317
0.792941
0.793559
0.79417
0.794775
0.795373
0.795964
0.796547
0.797123
0.79769
0.798249
0.798801
0.799343
0.799877
0.800401
0.800916
0.801422
0.801919
0.802405
0.802881
0.803346
0.803801
0.804245
0.804678
0.805099
0.805508
0.805905
0.806288
0.806659
0.807016
0.80736
0.80769
0.808006
0.808308
0.808595
0.808868
0.809126
0.809369
0.809597
0.809809
0.810007
0.810189
0.810355
0.810506
0.810641
0.810759
0.810861
0.810946
0.811014
0.811064
0.811097
0.811111
0.811108
0.811086
0.811046
0.810987
0.81091
0.810814
0.8107
0.810567
0.810416
0.810246
0.810059
0.809853
0.809629
0.809387
0.809128
0.808852
0.80856
0.808251
0.807927
0.807588
0.807234
0.806865
0.806481
0.806082
0.805668
0.80524
0.804795
0.804332
0.803848
0.803339
0.802804
0.802202
0.801659
0.800734
0.770913
0.770706
0.770558
0.77043
0.770286
0.770118
0.769929
0.769723
0.769503
0.769271
0.76903
0.768782
0.768529
0.768273
0.768018
0.767764
0.767515
0.767271
0.767035
0.766809
0.766595
0.766393
0.766206
0.766035
0.765882
0.765746
0.76563
0.765535
0.76546
0.765408
0.765377
0.765369
0.765384
0.765422
0.765483
0.765568
0.765676
0.765807
0.765962
0.766141
0.766342
0.766565
0.766811
0.767079
0.767368
0.767678
0.768008
0.768358
0.768727
0.769114
0.76952
0.769943
0.770383
0.770839
0.771311
0.771799
0.7723
0.772816
0.773344
0.773885
0.774438
0.775002
0.775577
0.776161
0.776755
0.777357
0.777967
0.778584
0.779208
0.779838
0.780473
0.781113
0.781757
0.782404
0.783055
0.783709
0.784364
0.78502
0.785678
0.786337
0.786995
0.787653
0.788311
0.788967
0.789622
0.790274
0.790925
0.791573
0.792218
0.792859
0.793497
0.794132
0.794762
0.795388
0.796008
0.796624
0.797234
0.797839
0.798437
0.79903
0.799615
0.800194
0.800766
0.80133
0.801886
0.802435
0.802975
0.803507
0.80403
0.804545
0.80505
0.805546
0.806032
0.806508
0.806973
0.807429
0.807873
0.808307
0.808728
0.809138
0.809535
0.80992
0.810291
0.810649
0.810994
0.811324
0.81164
0.811942
0.81223
0.812502
0.81276
0.813002
0.813229
0.81344
0.813636
0.813816
0.81398
0.814128
0.81426
0.814375
0.814473
0.814553
0.814616
0.814661
0.814687
0.814696
0.814685
0.814656
0.814609
0.814542
0.814457
0.814352
0.814229
0.814087
0.813926
0.813746
0.813548
0.813331
0.813097
0.812844
0.812574
0.812286
0.811982
0.811662
0.811326
0.810975
0.810609
0.810228
0.809832
0.809422
0.808997
0.808557
0.808102
0.807629
0.807137
0.806619
0.806077
0.805466
0.804911
0.803954
0.778267
0.778058
0.777899
0.777755
0.777592
0.777403
0.777192
0.776962
0.776717
0.776458
0.776189
0.775912
0.775629
0.775343
0.775057
0.774772
0.774491
0.774215
0.773947
0.773689
0.773443
0.773209
0.772989
0.772785
0.772598
0.772429
0.77228
0.77215
0.77204
0.771952
0.771885
0.771841
0.771818
0.771818
0.77184
0.771885
0.771953
0.772043
0.772156
0.772291
0.772448
0.772627
0.772828
0.773049
0.773292
0.773554
0.773837
0.774138
0.774459
0.774798
0.775155
0.775529
0.77592
0.776328
0.776751
0.77719
0.777643
0.778111
0.778592
0.779086
0.779593
0.780111
0.780641
0.781181
0.781731
0.78229
0.782858
0.783434
0.784018
0.784609
0.785206
0.785808
0.786416
0.787029
0.787646
0.788266
0.788889
0.789515
0.790143
0.790773
0.791404
0.792036
0.792668
0.793299
0.793931
0.794561
0.79519
0.795818
0.796443
0.797066
0.797687
0.798305
0.798919
0.79953
0.800137
0.800739
0.801337
0.80193
0.802517
0.803099
0.803675
0.804245
0.804808
0.805365
0.805914
0.806456
0.80699
0.807516
0.808035
0.808544
0.809045
0.809537
0.810019
0.810492
0.810954
0.811407
0.811849
0.81228
0.812699
0.813107
0.813502
0.813884
0.814254
0.81461
0.814952
0.815281
0.815595
0.815895
0.81618
0.816451
0.816705
0.816945
0.817169
0.817377
0.817569
0.817745
0.817905
0.818049
0.818176
0.818285
0.818378
0.818452
0.818509
0.818547
0.818566
0.818567
0.818549
0.818511
0.818455
0.81838
0.818285
0.818171
0.818038
0.817885
0.817713
0.817523
0.817314
0.817086
0.816839
0.816575
0.816293
0.815993
0.815677
0.815344
0.814996
0.814632
0.814253
0.81386
0.813452
0.81303
0.812594
0.812144
0.811678
0.811196
0.810695
0.81017
0.809621
0.809002
0.808437
0.807452
0.786515
0.786304
0.786133
0.785971
0.785787
0.785576
0.785342
0.785087
0.784815
0.784528
0.784229
0.783922
0.783608
0.78329
0.782971
0.782654
0.782339
0.78203
0.781729
0.781437
0.781156
0.780887
0.780633
0.780394
0.780171
0.779966
0.779779
0.779612
0.779465
0.779337
0.779231
0.779146
0.779082
0.779039
0.779018
0.779019
0.779042
0.779086
0.779151
0.779238
0.779346
0.779476
0.779625
0.779796
0.779986
0.780196
0.780425
0.780673
0.780939
0.781223
0.781526
0.781845
0.782181
0.782533
0.782902
0.783286
0.783684
0.784097
0.784525
0.784965
0.785418
0.785884
0.786362
0.786851
0.78735
0.78786
0.788379
0.788907
0.789443
0.789988
0.790539
0.791098
0.791662
0.792233
0.792808
0.793389
0.793973
0.794561
0.795152
0.795747
0.796343
0.796941
0.797541
0.798141
0.798743
0.799344
0.799945
0.800546
0.801145
0.801744
0.80234
0.802935
0.803528
0.804117
0.804704
0.805287
0.805867
0.806442
0.807013
0.807579
0.80814
0.808695
0.809245
0.809789
0.810326
0.810856
0.811379
0.811895
0.812404
0.812904
0.813396
0.813879
0.814353
0.814819
0.815274
0.81572
0.816155
0.81658
0.816993
0.817395
0.817785
0.818162
0.818526
0.818877
0.819215
0.819538
0.819848
0.820143
0.820423
0.820688
0.820938
0.821172
0.82139
0.821593
0.821779
0.82195
0.822103
0.822241
0.822361
0.822463
0.822548
0.822615
0.822663
0.822693
0.822704
0.822696
0.822669
0.822622
0.822556
0.82247
0.822365
0.822241
0.822096
0.821933
0.82175
0.821547
0.821326
0.821086
0.820828
0.820551
0.820256
0.819944
0.819615
0.81927
0.818909
0.818532
0.818141
0.817735
0.817315
0.816881
0.816434
0.815973
0.815497
0.815006
0.814498
0.813965
0.81341
0.812786
0.812213
0.811207
0.79571
0.795496
0.795311
0.795129
0.794923
0.794688
0.794427
0.794145
0.793843
0.793526
0.793196
0.792856
0.792509
0.792158
0.791804
0.791452
0.791102
0.790758
0.79042
0.790092
0.789774
0.789469
0.789177
0.7889
0.788639
0.788395
0.788169
0.787961
0.787772
0.787602
0.787452
0.787322
0.787213
0.787124
0.787055
0.787007
0.78698
0.786973
0.786986
0.78702
0.787073
0.787147
0.787241
0.787354
0.787486
0.787637
0.787806
0.787994
0.7882
0.788424
0.788665
0.788922
0.789197
0.789487
0.789794
0.790116
0.790453
0.790804
0.79117
0.79155
0.791943
0.792348
0.792767
0.793197
0.793638
0.79409
0.794552
0.795024
0.795506
0.795996
0.796495
0.797001
0.797514
0.798035
0.798561
0.799093
0.799631
0.800173
0.80072
0.801271
0.801825
0.802382
0.802941
0.803503
0.804066
0.804631
0.805196
0.805763
0.806329
0.806895
0.807461
0.808025
0.808589
0.809151
0.80971
0.810267
0.810822
0.811373
0.811921
0.812465
0.813004
0.813539
0.814069
0.814594
0.815113
0.815626
0.816133
0.816633
0.817126
0.817611
0.818089
0.818559
0.81902
0.819473
0.819917
0.820351
0.820775
0.821189
0.821592
0.821984
0.822364
0.822732
0.823087
0.823429
0.823758
0.824073
0.824374
0.82466
0.824932
0.825189
0.825431
0.825657
0.825867
0.826062
0.82624
0.826402
0.826547
0.826675
0.826787
0.82688
0.826955
0.827013
0.827051
0.827071
0.827072
0.827053
0.827016
0.826958
0.826881
0.826784
0.826668
0.826531
0.826376
0.8262
0.826005
0.82579
0.825556
0.825304
0.825033
0.824743
0.824435
0.82411
0.823768
0.82341
0.823036
0.822646
0.822242
0.821824
0.821392
0.820947
0.820488
0.820017
0.819532
0.819033
0.818517
0.81798
0.817421
0.816793
0.816215
0.815194
0.805909
0.805689
0.805489
0.805284
0.805052
0.80479
0.8045
0.804186
0.803852
0.803501
0.803136
0.802761
0.802377
0.801988
0.801598
0.801207
0.800819
0.800437
0.800061
0.799693
0.799337
0.798992
0.79866
0.798342
0.79804
0.797753
0.797484
0.797232
0.796998
0.796782
0.796585
0.796406
0.796247
0.796106
0.795985
0.795883
0.795801
0.795737
0.795693
0.795668
0.795661
0.795674
0.795705
0.795754
0.795822
0.795908
0.796012
0.796133
0.796271
0.796427
0.7966
0.796789
0.796994
0.797216
0.797453
0.797706
0.797973
0.798256
0.798553
0.798864
0.799188
0.799526
0.799876
0.800239
0.800614
0.801001
0.801398
0.801806
0.802224
0.802652
0.803088
0.803534
0.803988
0.804449
0.804918
0.805393
0.805875
0.806363
0.806857
0.807355
0.807858
0.808365
0.808876
0.80939
0.809907
0.810427
0.810949
0.811472
0.811997
0.812523
0.813049
0.813576
0.814102
0.814628
0.815153
0.815677
0.816199
0.816718
0.817236
0.81775
0.818261
0.818769
0.819272
0.819771
0.820265
0.820754
0.821238
0.821716
0.822187
0.822652
0.82311
0.823561
0.824003
0.824438
0.824865
0.825282
0.82569
0.826088
0.826476
0.826853
0.827218
0.827572
0.827914
0.828243
0.828559
0.828861
0.82915
0.829424
0.829685
0.82993
0.83016
0.830374
0.830573
0.830756
0.830923
0.831074
0.831208
0.831325
0.831425
0.831507
0.831571
0.831617
0.831644
0.831652
0.831641
0.83161
0.83156
0.83149
0.831401
0.831292
0.831162
0.831014
0.830845
0.830656
0.830448
0.830221
0.829974
0.829708
0.829424
0.829121
0.8288
0.828462
0.828107
0.827736
0.827349
0.826947
0.82653
0.8261
0.825656
0.8252
0.824731
0.82425
0.823756
0.82325
0.822728
0.822186
0.821625
0.820997
0.820418
0.819389
0.817178
0.816948
0.816728
0.816497
0.816234
0.815939
0.815614
0.815264
0.814892
0.814501
0.814096
0.813679
0.813254
0.812824
0.812391
0.811959
0.811529
0.811104
0.810686
0.810277
0.809878
0.80949
0.809115
0.808753
0.808406
0.808074
0.807758
0.807458
0.807175
0.806908
0.806659
0.806428
0.806214
0.806017
0.805838
0.805677
0.805534
0.805408
0.8053
0.805209
0.805136
0.805081
0.805043
0.805022
0.805019
0.805032
0.805063
0.80511
0.805174
0.805254
0.805351
0.805464
0.805593
0.805738
0.805898
0.806073
0.806263
0.806468
0.806688
0.806922
0.80717
0.807431
0.807705
0.807993
0.808292
0.808604
0.808927
0.809262
0.809608
0.809963
0.810329
0.810705
0.81109
0.811483
0.811885
0.812294
0.812711
0.813135
0.813566
0.814003
0.814446
0.814894
0.815347
0.815804
0.816266
0.816731
0.8172
0.817672
0.818146
0.818623
0.819101
0.819581
0.820062
0.820544
0.821026
0.821508
0.821989
0.822469
0.822948
0.823425
0.8239
0.824372
0.824841
0.825307
0.82577
0.826228
0.826681
0.82713
0.827573
0.828011
0.828442
0.828867
0.829285
0.829696
0.830099
0.830493
0.83088
0.831256
0.831623
0.83198
0.832326
0.832661
0.832984
0.833295
0.833594
0.833879
0.834151
0.83441
0.834654
0.834883
0.835098
0.835298
0.835482
0.83565
0.835803
0.835939
0.836059
0.836162
0.836248
0.836316
0.836366
0.836398
0.836411
0.836405
0.83638
0.836336
0.836272
0.836189
0.836086
0.835963
0.83582
0.835657
0.835475
0.835273
0.835051
0.83481
0.834549
0.83427
0.833972
0.833656
0.833322
0.832971
0.832603
0.832219
0.831819
0.831404
0.830976
0.830534
0.830079
0.829612
0.829134
0.828644
0.828143
0.82763
0.827104
0.826559
0.825998
0.825372
0.824795
0.823765
0.829621
0.829377
0.829131
0.828865
0.828564
0.828226
0.827855
0.827457
0.827034
0.826593
0.826136
0.825667
0.825191
0.82471
0.824228
0.823746
0.823267
0.822795
0.822329
0.821872
0.821425
0.82099
0.820567
0.820157
0.819761
0.819379
0.819011
0.818659
0.818322
0.818
0.817694
0.817404
0.817129
0.81687
0.816627
0.8164
0.816189
0.815994
0.815815
0.815652
0.815505
0.815374
0.815258
0.81516
0.815077
0.81501
0.814959
0.814924
0.814905
0.814901
0.814914
0.814942
0.814985
0.815044
0.815118
0.815206
0.81531
0.815429
0.815562
0.815709
0.815871
0.816046
0.816235
0.816437
0.816652