/*--------------------------------*- C++ -*----------------------------------*\
| =========                 |                                                 |
| \\      /  F ield         | OpenFOAM: The Open Source CFD Toolbox           |
|  \\    /   O peration     | Version:  2406                                  |
|   \\  /    A nd           | Website:  www.openfoam.com                      |
|    \\/     M anipulation  |                                                 |
\*---------------------------------------------------------------------------*/
FoamFile
{
    version     2.0;
    format      ascii;
    arch        "LSB;label=32;scalar=64";
    class       volScalarField;
    location    "8.25";
    object      p;
}
// * * * * * * * * * * * * * * * * * * * * * * * * * * * * * * * * * * * * * //

dimensions      [0 2 -2 0 0 0 0];

internalField   nonuniform List<scalar> 
34560
(
-42.15264
-42.141901
-42.128732
-42.114495
-42.099944
-42.087758
-42.080483
-42.078528
-42.080572
-42.22252
-42.209973
-42.19405
-42.175889
-42.156439
-42.139068
-42.126775
-42.120565
-42.119625
-42.283719
-42.269824
-42.252105
-42.23164
-42.209213
-42.188215
-42.171881
-42.161419
-42.15627
-42.341858
-42.326737
-42.307311
-42.284622
-42.259406
-42.235049
-42.21481
-42.199818
-42.189802
-42.396054
-42.379858
-42.358929
-42.334272
-42.306508
-42.278983
-42.254944
-42.235443
-42.22059
-42.443971
-42.427125
-42.405201
-42.379099
-42.349279
-42.31903
-42.291504
-42.267811
-42.24842
-42.486423
-42.468996
-42.446198
-42.418833
-42.387226
-42.354574
-42.323898
-42.296441
-42.2728
-42.522528
-42.504664
-42.481184
-42.452804
-42.419711
-42.385
-42.351607
-42.320941
-42.293444
-42.551847
-42.533669
-42.509671
-42.480503
-42.446206
-42.409811
-42.374207
-42.340979
-42.310239
-42.573886
-42.555521
-42.531178
-42.501473
-42.466276
-42.428607
-42.391338
-42.356171
-42.322968
-42.588635
-42.570133
-42.545556
-42.515479
-42.47969
-42.441171
-42.402782
-42.366202
-42.331469
-42.596137
-42.577559
-42.552849
-42.522545
-42.486418
-42.447434
-42.408456
-42.371133
-42.335637
-42.596137
-42.577559
-42.552849
-42.522545
-42.486419
-42.447435
-42.408456
-42.371133
-42.335638
-42.588637
-42.570134
-42.545557
-42.515479
-42.479691
-42.441172
-42.402783
-42.366204
-42.331469
-42.573887
-42.555522
-42.531178
-42.501474
-42.466278
-42.428609
-42.39134
-42.356173
-42.32297
-42.551848
-42.53367
-42.509672
-42.480505
-42.446208
-42.409813
-42.374209
-42.340982
-42.310241
-42.522531
-42.504667
-42.481187
-42.452807
-42.419713
-42.385002
-42.351609
-42.320943
-42.293447
-42.486427
-42.469
-42.446201
-42.418835
-42.387228
-42.354576
-42.3239
-42.296444
-42.272803
-42.443974
-42.427128
-42.405204
-42.379103
-42.349282
-42.319033
-42.291507
-42.267814
-42.248423
-42.396059
-42.379863
-42.358934
-42.334276
-42.306511
-42.278987
-42.254948
-42.235447
-42.220593
-42.341862
-42.32674
-42.307314
-42.284624
-42.259409
-42.235053
-42.214815
-42.199823
-42.189806
-42.283723
-42.269828
-42.252109
-42.231643
-42.209217
-42.18822
-42.171886
-42.161424
-42.156274
-42.222524
-42.209977
-42.194054
-42.175893
-42.156444
-42.139074
-42.12678
-42.12057
-42.119627
-42.152644
-42.141905
-42.128736
-42.114499
-42.099949
-42.087764
-42.080488
-42.078534
-42.080576
-39.267634
-39.267166
-39.266579
-39.266
-39.265252
-39.263959
-39.261533
-39.257089
-39.2507
-39.272449
-39.271944
-39.271253
-39.270433
-39.269168
-39.266926
-39.262971
-39.256579
-39.24825
-39.27652
-39.275999
-39.275269
-39.274355
-39.272787
-39.269801
-39.264431
-39.25625
-39.246157
-39.28051
-39.279983
-39.279204
-39.278149
-39.276229
-39.272433
-39.265646
-39.25577
-39.244027
-39.284151
-39.283641
-39.282837
-39.281649
-39.279347
-39.274702
-39.266505
-39.254963
-39.24164
-39.287128
-39.286673
-39.285884
-39.28459
-39.281916
-39.276473
-39.266998
-39.253883
-39.239159
-39.289608
-39.28919
-39.288392
-39.286969
-39.28397
-39.277835
-39.267177
-39.252619
-39.237054
-39.291616
-39.291233
-39.290434
-39.288922
-39.285672
-39.278857
-39.267067
-39.251216
-39.2354
-39.29318
-39.292835
-39.292048
-39.290491
-39.286993
-39.279545
-39.266795
-39.24977
-39.234042
-39.294366
-39.29406
-39.293297
-39.291707
-39.287978
-39.280017
-39.266531
-39.248651
-39.233117
-39.295133
-39.294854
-39.29411
-39.2925
-39.288631
-39.28033
-39.266355
-39.24811
-39.232579
-39.295559
-39.295291
-39.294555
-39.292936
-39.289001
-39.28053
-39.266298
-39.247898
-39.232336
-39.295559
-39.295291
-39.294555
-39.292936
-39.289001
-39.28053
-39.266298
-39.247898
-39.232337
-39.295134
-39.294855
-39.294111
-39.292501
-39.288632
-39.28033
-39.266356
-39.24811
-39.232579
-39.294367
-39.294061
-39.293297
-39.291707
-39.287979
-39.280018
-39.266532
-39.248653
-39.233118
-39.293181
-39.292836
-39.292049
-39.290492
-39.286995
-39.279547
-39.266797
-39.249772
-39.234044
-39.291618
-39.291235
-39.290436
-39.288923
-39.285673
-39.278859
-39.267069
-39.251218
-39.235401
-39.28961
-39.289192
-39.288394
-39.28697
-39.283971
-39.277837
-39.267179
-39.252621
-39.237056
-39.28713
-39.286675
-39.285886
-39.284591
-39.281918
-39.276476
-39.267
-39.253886
-39.239161
-39.284154
-39.283644
-39.28284
-39.281652
-39.279349
-39.274704
-39.266507
-39.254965
-39.241642
-39.280513
-39.279986
-39.279206
-39.278152
-39.276231
-39.272435
-39.265649
-39.255773
-39.24403
-39.276523
-39.276001
-39.275272
-39.274358
-39.27279
-39.269803
-39.264433
-39.256253
-39.24616
-39.272452
-39.271947
-39.271256
-39.270435
-39.269171
-39.266929
-39.262973
-39.256582
-39.248253
-39.267636
-39.267169
-39.266582
-39.266002
-39.265255
-39.263962
-39.261536
-39.257092
-39.250702
-38.096365
-38.096203
-38.095995
-38.09572
-38.095592
-38.096039
-38.097427
-38.099966
-38.102861
-38.103351
-38.103131
-38.102783
-38.102238
-38.101739
-38.101794
-38.102856
-38.105089
-38.107893
-38.109658
-38.109412
-38.109009
-38.10835
-38.107694
-38.10759
-38.108538
-38.11065
-38.113444
-38.115509
-38.115241
-38.11479
-38.114041
-38.11328
-38.113084
-38.113954
-38.115929
-38.118564
-38.120895
-38.120611
-38.120123
-38.119298
-38.118446
-38.118158
-38.118935
-38.120778
-38.123274
-38.125739
-38.125461
-38.124967
-38.124112
-38.123215
-38.122817
-38.123455
-38.12519
-38.127581
-38.130026
-38.129757
-38.129268
-38.128401
-38.127426
-38.126879
-38.127415
-38.129101
-38.13125
-38.133618
-38.133365
-38.132888
-38.131996
-38.130916
-38.130292
-38.130817
-38.132492
-38.134214
-38.136516
-38.136279
-38.13581
-38.134879
-38.133743
-38.1331
-38.133604
-38.135313
-38.136381
-38.138646
-38.138426
-38.137963
-38.137012
-38.135876
-38.135231
-38.135693
-38.137383
-38.137811
-38.140079
-38.139869
-38.139412
-38.138451
-38.137305
-38.13665
-38.137075
-38.138665
-38.138696
-38.140796
-38.140591
-38.140136
-38.139171
-38.138016
-38.137352
-38.137762
-38.139288
-38.139132
-38.140796
-38.140591
-38.140136
-38.139171
-38.138016
-38.137353
-38.137763
-38.139288
-38.139133
-38.140079
-38.139869
-38.139412
-38.138452
-38.137306
-38.13665
-38.137075
-38.138665
-38.138697
-38.138647
-38.138427
-38.137964
-38.137012
-38.135876
-38.135232
-38.135693
-38.137384
-38.137812
-38.136517
-38.13628
-38.135811
-38.13488
-38.133744
-38.133101
-38.133605
-38.135314
-38.136382
-38.133619
-38.133366
-38.132889
-38.131998
-38.130917
-38.130293
-38.130818
-38.132493
-38.134215
-38.130027
-38.129758
-38.12927
-38.128402
-38.127427
-38.12688
-38.127416
-38.129103
-38.131251
-38.12574
-38.125462
-38.124968
-38.124114
-38.123216
-38.122818
-38.123457
-38.125192
-38.127583
-38.120896
-38.120612
-38.120124
-38.1193
-38.118447
-38.118159
-38.118937
-38.120779
-38.123277
-38.11551
-38.115242
-38.114791
-38.114042
-38.113281
-38.113086
-38.113956
-38.115931
-38.118567
-38.109658
-38.109413
-38.10901
-38.108352
-38.107695
-38.107592
-38.108539
-38.110652
-38.113447
-38.103352
-38.103132
-38.102784
-38.102239
-38.10174
-38.101795
-38.102858
-38.105091
-38.107896
-38.096366
-38.096204
-38.095996
-38.095721
-38.095593
-38.09604
-38.097429
-38.099967
-38.102864
-36.051142
-36.051049
-36.050969
-36.050971
-36.051033
-36.05102
-36.050758
-36.050044
-36.048662
-36.052786
-36.052658
-36.052517
-36.052411
-36.052282
-36.051977
-36.051263
-36.04996
-36.048096
-36.054638
-36.054469
-36.054279
-36.054117
-36.053902
-36.053435
-36.05246
-36.050816
-36.048662
-36.056506
-36.056296
-36.056054
-36.055836
-36.055547
-36.054963
-36.053785
-36.051851
-36.049349
-36.058295
-36.05805
-36.057763
-36.057492
-36.05713
-36.056432
-36.055062
-36.052847
-36.050005
-36.059919
-36.059653
-36.059338
-36.05903
-36.058611
-36.057816
-36.056274
-36.053808
-36.050653
-36.061351
-36.061068
-36.060729
-36.060392
-36.059928
-36.059055
-36.057376
-36.054692
-36.051244
-36.062563
-36.062268
-36.061913
-36.061556
-36.061059
-36.060128
-36.058339
-36.055478
-36.051773
-36.063537
-36.063235
-36.062869
-36.062497
-36.061978
-36.061008
-36.059136
-36.056159
-36.052378
-36.064269
-36.063961
-36.063587
-36.063204
-36.062669
-36.06167
-36.059744
-36.056688
-36.052882
-36.064754
-36.064443
-36.064063
-36.063672
-36.063128
-36.062111
-36.060151
-36.057048
-36.053268
-36.064998
-36.064685
-36.064302
-36.063907
-36.063357
-36.062333
-36.060358
-36.057231
-36.053459
-36.064998
-36.064685
-36.064302
-36.063907
-36.063357
-36.062333
-36.060358
-36.057231
-36.053459
-36.064755
-36.064443
-36.064063
-36.063672
-36.063128
-36.062111
-36.060151
-36.057048
-36.053268
-36.064269
-36.063961
-36.063587
-36.063204
-36.06267
-36.061671
-36.059744
-36.056688
-36.052882
-36.063537
-36.063235
-36.062869
-36.062497
-36.061979
-36.061008
-36.059136
-36.056159
-36.052379
-36.062563
-36.062268
-36.061913
-36.061556
-36.061059
-36.060128
-36.058339
-36.055479
-36.051774
-36.061351
-36.061068
-36.060729
-36.060392
-36.059928
-36.059056
-36.057376
-36.054693
-36.051244
-36.059919
-36.059653
-36.059338
-36.05903
-36.058611
-36.057816
-36.056274
-36.053808
-36.050654
-36.058295
-36.05805
-36.057763
-36.057492
-36.05713
-36.056432
-36.055062
-36.052848
-36.050006
-36.056506
-36.056296
-36.056054
-36.055836
-36.055547
-36.054963
-36.053785
-36.051851
-36.04935
-36.054638
-36.054469
-36.054278
-36.054117
-36.053902
-36.053435
-36.05246
-36.050816
-36.048663
-36.052786
-36.052658
-36.052516
-36.052411
-36.052282
-36.051977
-36.051263
-36.049961
-36.048098
-36.051142
-36.051048
-36.050969
-36.050971
-36.051033
-36.05102
-36.050758
-36.050044
-36.048663
-34.383775
-34.383847
-34.383937
-34.384032
-34.384162
-34.384376
-34.384725
-34.385218
-34.385557
-34.384651
-34.384715
-34.384777
-34.384814
-34.384852
-34.384943
-34.385128
-34.385388
-34.385573
-34.385558
-34.385611
-34.385654
-34.385658
-34.385651
-34.385692
-34.385823
-34.386026
-34.386251
-34.386343
-34.386383
-34.386409
-34.386389
-34.386359
-34.386383
-34.386495
-34.386671
-34.386882
-34.387016
-34.387048
-34.387059
-34.387017
-34.386963
-34.386965
-34.387053
-34.387194
-34.387372
-34.387609
-34.387632
-34.38763
-34.38757
-34.387493
-34.38747
-34.387528
-34.387628
-34.387762
-34.388101
-34.388119
-34.388106
-34.388031
-34.387933
-34.38789
-34.38792
-34.38798
-34.388059
-34.388504
-34.388516
-34.388495
-34.388405
-34.388291
-34.38823
-34.388235
-34.388257
-34.388282
-34.388821
-34.388829
-34.3888
-34.388701
-34.388574
-34.388497
-34.388478
-34.388466
-34.388451
-34.389061
-34.389065
-34.389031
-34.388923
-34.388785
-34.388695
-34.388654
-34.388615
-34.38858
-34.389224
-34.389225
-34.389186
-34.389072
-34.388926
-34.388824
-34.388767
-34.388701
-34.388603
-34.389299
-34.3893
-34.38926
-34.389143
-34.388994
-34.388885
-34.388819
-34.38874
-34.388613
-34.389299
-34.389299
-34.38926
-34.389143
-34.388994
-34.388885
-34.388819
-34.38874
-34.388613
-34.389223
-34.389224
-34.389186
-34.389072
-34.388926
-34.388824
-34.388766
-34.388701
-34.388602
-34.389061
-34.389064
-34.38903
-34.388922
-34.388785
-34.388694
-34.388653
-34.388614
-34.38858
-34.38882
-34.388827
-34.388799
-34.388699
-34.388573
-34.388496
-34.388476
-34.388465
-34.38845
-34.388502
-34.388514
-34.388493
-34.388404
-34.38829
-34.388229
-34.388233
-34.388256
-34.388281
-34.3881
-34.388117
-34.388105
-34.388029
-34.387932
-34.387888
-34.387918
-34.387978
-34.388057
-34.387607
-34.38763
-34.387628
-34.387568
-34.387491
-34.387468
-34.387526
-34.387626
-34.38776
-34.387014
-34.387046
-34.387056
-34.387015
-34.386961
-34.386963
-34.387051
-34.387192
-34.387369
-34.38634
-34.386381
-34.386406
-34.386387
-34.386356
-34.38638
-34.386493
-34.386668
-34.386879
-34.385556
-34.385609
-34.385652
-34.385655
-34.385648
-34.38569
-34.38582
-34.386023
-34.386248
-34.384649
-34.384712
-34.384775
-34.384811
-34.384849
-34.38494
-34.385126
-34.385384
-34.385569
-34.383773
-34.383845
-34.383935
-34.38403
-34.38416
-34.384373
-34.384722
-34.385215
-34.385553
-32.584073
-32.584103
-32.584154
-32.584238
-32.584352
-32.584475
-32.58458
-32.584641
-32.584534
-32.584664
-32.584687
-32.584724
-32.584779
-32.584839
-32.584874
-32.584842
-32.584715
-32.58447
-32.585376
-32.585392
-32.585417
-32.585455
-32.585488
-32.585479
-32.585385
-32.58519
-32.584929
-32.586072
-32.586077
-32.586091
-32.586115
-32.586131
-32.586101
-32.585976
-32.585739
-32.585434
-32.586734
-32.58673
-32.58673
-32.586738
-32.586737
-32.586685
-32.58653
-32.586248
-32.585891
-32.587349
-32.587337
-32.587326
-32.587321
-32.587304
-32.587232
-32.587046
-32.586721
-32.58631
-32.587899
-32.587881
-32.587862
-32.587848
-32.587816
-32.587724
-32.58751
-32.587146
-32.586685
-32.588378
-32.588355
-32.58833
-32.588308
-32.588263
-32.588152
-32.587912
-32.587514
-32.587009
-32.588767
-32.588742
-32.588713
-32.588683
-32.588628
-32.588502
-32.588244
-32.587818
-32.587276
-32.589061
-32.589033
-32.589002
-32.588967
-32.588905
-32.58877
-32.588498
-32.588052
-32.587481
-32.589258
-32.589229
-32.589196
-32.589158
-32.589092
-32.58895
-32.58867
-32.58821
-32.587619
-32.589356
-32.589326
-32.589292
-32.589253
-32.589185
-32.589041
-32.588756
-32.58829
-32.587689
-32.589355
-32.589326
-32.589291
-32.589253
-32.589184
-32.58904
-32.588755
-32.58829
-32.587689
-32.589257
-32.589228
-32.589195
-32.589157
-32.589091
-32.58895
-32.588669
-32.588209
-32.587619
-32.589059
-32.589031
-32.589
-32.588966
-32.588904
-32.588768
-32.588496
-32.588051
-32.58748
-32.588765
-32.588739
-32.588711
-32.588681
-32.588626
-32.5885
-32.588241
-32.587816
-32.587274
-32.588375
-32.588352
-32.588328
-32.588305
-32.58826
-32.588149
-32.587909
-32.587511
-32.587007
-32.587896
-32.587877
-32.587859
-32.587844
-32.587813
-32.587721
-32.587506
-32.587142
-32.586682
-32.587345
-32.587333
-32.587322
-32.587317
-32.5873
-32.587228
-32.587042
-32.586716
-32.586306
-32.586729
-32.586725
-32.586726
-32.586734
-32.586732
-32.58668
-32.586525
-32.586243
-32.585886
-32.586066
-32.586072
-32.586086
-32.58611
-32.586126
-32.586095
-32.585971
-32.585733
-32.585429
-32.58537
-32.585386
-32.585412
-32.58545
-32.585482
-32.585473
-32.58538
-32.585184
-32.584923
-32.584658
-32.584681
-32.584718
-32.584773
-32.584833
-32.584868
-32.584836
-32.584708
-32.584462
-32.584066
-32.584096
-32.584147
-32.584232
-32.584346
-32.584469
-32.584573
-32.584634
-32.584526
-30.824302
-30.824328
-30.824363
-30.824405
-30.824455
-30.82451
-30.82457
-30.824632
-30.824625
-30.824585
-30.824608
-30.824634
-30.824657
-30.824674
-30.824677
-30.824661
-30.824621
-30.824542
-30.824908
-30.824928
-30.824947
-30.824959
-30.824959
-30.82494
-30.824895
-30.82483
-30.824764
-30.825207
-30.825221
-30.825234
-30.825239
-30.825231
-30.825201
-30.825146
-30.825072
-30.825003
-30.825481
-30.825491
-30.825498
-30.825496
-30.825478
-30.825435
-30.825368
-30.825284
-30.825206
-30.82573
-30.825737
-30.825738
-30.825728
-30.825699
-30.825645
-30.825567
-30.825472
-30.825382
-30.82594
-30.825943
-30.82594
-30.825923
-30.825886
-30.825825
-30.825739
-30.825635
-30.825532
-30.826114
-30.826114
-30.826107
-30.826084
-30.826042
-30.825976
-30.825884
-30.825771
-30.825655
-30.826253
-30.826251
-30.82624
-30.826213
-30.826166
-30.826097
-30.826
-30.82588
-30.825752
-30.82636
-30.826355
-30.826341
-30.826311
-30.826261
-30.826188
-30.826088
-30.825961
-30.825824
-30.826432
-30.826426
-30.82641
-30.826378
-30.826326
-30.82625
-30.826146
-30.826015
-30.825871
-30.826468
-30.826461
-30.826444
-30.82641
-30.826357
-30.826281
-30.826175
-30.826042
-30.825894
-30.826467
-30.82646
-30.826443
-30.82641
-30.826357
-30.82628
-30.826174
-30.826041
-30.825893
-30.826431
-30.826425
-30.826409
-30.826376
-30.826324
-30.826249
-30.826145
-30.826014
-30.825869
-30.826357
-30.826353
-30.826339
-30.826309
-30.826259
-30.826186
-30.826085
-30.825959
-30.825822
-30.82625
-30.826248
-30.826237
-30.82621
-30.826163
-30.826093
-30.825997
-30.825877
-30.825749
-30.82611
-30.82611
-30.826102
-30.82608
-30.826037
-30.825971
-30.825879
-30.825767
-30.825652
-30.825935
-30.825938
-30.825935
-30.825918
-30.825881
-30.82582
-30.825734
-30.82563
-30.825527
-30.825724
-30.82573
-30.825732
-30.825722
-30.825693
-30.825639
-30.825561
-30.825466
-30.825377
-30.825474
-30.825484
-30.825491
-30.825489
-30.82547
-30.825428
-30.825361
-30.825277
-30.8252
-30.825198
-30.825212
-30.825225
-30.82523
-30.825222
-30.825193
-30.825137
-30.825064
-30.824996
-30.824899
-30.824918
-30.824937
-30.824949
-30.824949
-30.82493
-30.824886
-30.824821
-30.824756
-30.824574
-30.824597
-30.824623
-30.824646
-30.824663
-30.824666
-30.824651
-30.824612
-30.824533
-30.82429
-30.824316
-30.82435
-30.824393
-30.824443
-30.824499
-30.824558
-30.824622
-30.824615
-29.062705
-29.062717
-29.062735
-29.06276
-29.062793
-29.062833
-29.06288
-29.062932
-29.062946
-29.062891
-29.062901
-29.062914
-29.062929
-29.062945
-29.062957
-29.062962
-29.062957
-29.06293
-29.063103
-29.063111
-29.063122
-29.063131
-29.063138
-29.063138
-29.063128
-29.063109
-29.063089
-29.063305
-29.06331
-29.063317
-29.063322
-29.063325
-29.06332
-29.063306
-29.063282
-29.06326
-29.063493
-29.063496
-29.063499
-29.0635
-29.063497
-29.063488
-29.063469
-29.06344
-29.063411
-29.063668
-29.063668
-29.063667
-29.063664
-29.063657
-29.063643
-29.063619
-29.063584
-29.063546
-29.063824
-29.063821
-29.063817
-29.06381
-29.0638
-29.063783
-29.063754
-29.063712
-29.063665
-29.063961
-29.063956
-29.06395
-29.06394
-29.063926
-29.063905
-29.063871
-29.063822
-29.063765
-29.064076
-29.06407
-29.064062
-29.06405
-29.064033
-29.064006
-29.063968
-29.063913
-29.063846
-29.064165
-29.064158
-29.064148
-29.064134
-29.064113
-29.064084
-29.064042
-29.063982
-29.063908
-29.064225
-29.064217
-29.064206
-29.064191
-29.064168
-29.064136
-29.064092
-29.064028
-29.063949
-29.064254
-29.064246
-29.064234
-29.064218
-29.064194
-29.064162
-29.064116
-29.064051
-29.06397
-29.064253
-29.064245
-29.064234
-29.064217
-29.064194
-29.064161
-29.064116
-29.064051
-29.063969
-29.064223
-29.064215
-29.064204
-29.064189
-29.064166
-29.064134
-29.06409
-29.064026
-29.063948
-29.064162
-29.064155
-29.064145
-29.064131
-29.06411
-29.064081
-29.064039
-29.063979
-29.063905
-29.064072
-29.064066
-29.064058
-29.064046
-29.064028
-29.064002
-29.063963
-29.063909
-29.063843
-29.063956
-29.063951
-29.063945
-29.063935
-29.063921
-29.0639
-29.063866
-29.063817
-29.06376
-29.063817
-29.063815
-29.063811
-29.063804
-29.063793
-29.063776
-29.063747
-29.063706
-29.063659
-29.06366
-29.06366
-29.063659
-29.063656
-29.063649
-29.063635
-29.063612
-29.063577
-29.06354
-29.063484
-29.063486
-29.063489
-29.06349
-29.063488
-29.063479
-29.06346
-29.063431
-29.063404
-29.063294
-29.063299
-29.063305
-29.063311
-29.063313
-29.063309
-29.063295
-29.063272
-29.063252
-29.063091
-29.063099
-29.063109
-29.063118
-29.063125
-29.063125
-29.063116
-29.063097
-29.063079
-29.062876
-29.062887
-29.0629
-29.062915
-29.06293
-29.062943
-29.062949
-29.062944
-29.062918
-29.062689
-29.062701
-29.062719
-29.062744
-29.062778
-29.062818
-29.062865
-29.062918
-29.062933
-27.298755
-27.29876
-27.298767
-27.298778
-27.298793
-27.298809
-27.298825
-27.298839
-27.29883
-27.298857
-27.298861
-27.298866
-27.298871
-27.298875
-27.298874
-27.298865
-27.298845
-27.29881
-27.298971
-27.298974
-27.298977
-27.298979
-27.298978
-27.29897
-27.298951
-27.298923
-27.298891
-27.29908
-27.299081
-27.299082
-27.299082
-27.299078
-27.299067
-27.299045
-27.299014
-27.298981
-27.299181
-27.299181
-27.29918
-27.299178
-27.299171
-27.299156
-27.299132
-27.299098
-27.299061
-27.299272
-27.299271
-27.299269
-27.299264
-27.299255
-27.299239
-27.299211
-27.299175
-27.299134
-27.299352
-27.299349
-27.299345
-27.29934
-27.299329
-27.299311
-27.299283
-27.299243
-27.299198
-27.299418
-27.299415
-27.29941
-27.299403
-27.299392
-27.299373
-27.299344
-27.299302
-27.299252
-27.299472
-27.299469
-27.299463
-27.299455
-27.299443
-27.299424
-27.299394
-27.29935
-27.299296
-27.299514
-27.299509
-27.299503
-27.299494
-27.299482
-27.299463
-27.299432
-27.299386
-27.299329
-27.299542
-27.299537
-27.29953
-27.299521
-27.299508
-27.299489
-27.299457
-27.299411
-27.299351
-27.299555
-27.29955
-27.299543
-27.299534
-27.299521
-27.299501
-27.29947
-27.299423
-27.299362
-27.299555
-27.29955
-27.299542
-27.299533
-27.29952
-27.299501
-27.299469
-27.299422
-27.299362
-27.29954
-27.299535
-27.299528
-27.299519
-27.299506
-27.299487
-27.299455
-27.299409
-27.29935
-27.299511
-27.299506
-27.2995
-27.299491
-27.299478
-27.299459
-27.299428
-27.299383
-27.299326
-27.299468
-27.299464
-27.299458
-27.29945
-27.299438
-27.299419
-27.299389
-27.299345
-27.299292
-27.299412
-27.299409
-27.299404
-27.299397
-27.299385
-27.299367
-27.299337
-27.299296
-27.299247
-27.299344
-27.299342
-27.299338
-27.299332
-27.299321
-27.299303
-27.299275
-27.299236
-27.299191
-27.299263
-27.299262
-27.299259
-27.299255
-27.299246
-27.299229
-27.299202
-27.299166
-27.299126
-27.299171
-27.29917
-27.299169
-27.299166
-27.299159
-27.299145
-27.299121
-27.299087
-27.299052
-27.299068
-27.299069
-27.299069
-27.299069
-27.299065
-27.299054
-27.299032
-27.299002
-27.29897
-27.298957
-27.29896
-27.298962
-27.298964
-27.298963
-27.298955
-27.298937
-27.298909
-27.298878
-27.298841
-27.298845
-27.29885
-27.298855
-27.298859
-27.298858
-27.298849
-27.29883
-27.298795
-27.298737
-27.298742
-27.298749
-27.29876
-27.298775
-27.298791
-27.298807
-27.298821
-27.298813
-25.538271
-25.538273
-25.538278
-25.538284
-25.538292
-25.538302
-25.538315
-25.538332
-25.538339
-25.538326
-25.538328
-25.538331
-25.538334
-25.538337
-25.538339
-25.538341
-25.53834
-25.538334
-25.538387
-25.538388
-25.53839
-25.538391
-25.538392
-25.538391
-25.538388
-25.538384
-25.538381
-25.538443
-25.538444
-25.538445
-25.538445
-25.538444
-25.538442
-25.538439
-25.538435
-25.538432
-25.538496
-25.538496
-25.538496
-25.538495
-25.538493
-25.53849
-25.538486
-25.538481
-25.538476
-25.538544
-25.538543
-25.538542
-25.53854
-25.538537
-25.538534
-25.538529
-25.538522
-25.538516
-25.538587
-25.538586
-25.538584
-25.538581
-25.538577
-25.538573
-25.538567
-25.538559
-25.53855
-25.538625
-25.538623
-25.538621
-25.538617
-25.538612
-25.538606
-25.538599
-25.53859
-25.538579
-25.538656
-25.538654
-25.538651
-25.538646
-25.538641
-25.538634
-25.538626
-25.538616
-25.538602
-25.538679
-25.538676
-25.538673
-25.538668
-25.538662
-25.538655
-25.538647
-25.538635
-25.53862
-25.538694
-25.538692
-25.538688
-25.538683
-25.538676
-25.538669
-25.53866
-25.538648
-25.538631
-25.538701
-25.538699
-25.538695
-25.53869
-25.538683
-25.538676
-25.538667
-25.538654
-25.538636
-25.538701
-25.538698
-25.538694
-25.538689
-25.538682
-25.538675
-25.538666
-25.538653
-25.538636
-25.538692
-25.538689
-25.538686
-25.538681
-25.538674
-25.538667
-25.538658
-25.538645
-25.538629
-25.538675
-25.538673
-25.53867
-25.538665
-25.538658
-25.538651
-25.538643
-25.538631
-25.538616
-25.538651
-25.538648
-25.538646
-25.538641
-25.538635
-25.538629
-25.538621
-25.538611
-25.538598
-25.538618
-25.538617
-25.538614
-25.53861
-25.538605
-25.538599
-25.538593
-25.538584
-25.538573
-25.538579
-25.538578
-25.538576
-25.538573
-25.538569
-25.538564
-25.538558
-25.538551
-25.538543
-25.538534
-25.538534
-25.538532
-25.53853
-25.538527
-25.538523
-25.538518
-25.538512
-25.538507
-25.538484
-25.538484
-25.538484
-25.538483
-25.538481
-25.538478
-25.538474
-25.538469
-25.538466
-25.53843
-25.53843
-25.538431
-25.538431
-25.53843
-25.538428
-25.538425
-25.538422
-25.53842
-25.538371
-25.538373
-25.538374
-25.538375
-25.538376
-25.538375
-25.538373
-25.53837
-25.538367
-25.538308
-25.538311
-25.538313
-25.538316
-25.538319
-25.538321
-25.538323
-25.538323
-25.538318
-25.538251
-25.538254
-25.538258
-25.538264
-25.538272
-25.538283
-25.538296
-25.538313
-25.53832
-23.776296
-23.776297
-23.776299
-23.776302
-23.776305
-23.77631
-23.776314
-23.776319
-23.776317
-23.776328
-23.776329
-23.77633
-23.776331
-23.776331
-23.776331
-23.776329
-23.776324
-23.776314
-23.776363
-23.776363
-23.776363
-23.776363
-23.776363
-23.776361
-23.776356
-23.776348
-23.77634
-23.776395
-23.776395
-23.776395
-23.776395
-23.776393
-23.77639
-23.776385
-23.776377
-23.776368
-23.776426
-23.776425
-23.776425
-23.776423
-23.776421
-23.776418
-23.776412
-23.776403
-23.776393
-23.776453
-23.776452
-23.776451
-23.77645
-23.776447
-23.776443
-23.776436
-23.776427
-23.776415
-23.776477
-23.776476
-23.776474
-23.776473
-23.77647
-23.776465
-23.776458
-23.776448
-23.776435
-23.776497
-23.776496
-23.776494
-23.776492
-23.776489
-23.776484
-23.776477
-23.776466
-23.776452
-23.776514
-23.776512
-23.77651
-23.776508
-23.776505
-23.7765
-23.776492
-23.776481
-23.776466
-23.776526
-23.776525
-23.776522
-23.77652
-23.776516
-23.776512
-23.776504
-23.776492
-23.776476
-23.776534
-23.776533
-23.77653
-23.776528
-23.776524
-23.776519
-23.776512
-23.776499
-23.776483
-23.776538
-23.776536
-23.776534
-23.776531
-23.776528
-23.776523
-23.776515
-23.776503
-23.776486
-23.776537
-23.776536
-23.776533
-23.776531
-23.776527
-23.776522
-23.776514
-23.776502
-23.776485
-23.776532
-23.776531
-23.776528
-23.776525
-23.776522
-23.776517
-23.776509
-23.776497
-23.776481
-23.776523
-23.776521
-23.776519
-23.776516
-23.776513
-23.776508
-23.7765
-23.776488
-23.776473
-23.776509
-23.776507
-23.776505
-23.776503
-23.776499
-23.776495
-23.776487
-23.776476
-23.776461
-23.776491
-23.776489
-23.776488
-23.776485
-23.776482
-23.776477
-23.77647
-23.77646
-23.776446
-23.776469
-23.776468
-23.776466
-23.776464
-23.776461
-23.776457
-23.77645
-23.77644
-23.776428
-23.776443
-23.776442
-23.776441
-23.776439
-23.776437
-23.776433
-23.776426
-23.776417
-23.776407
-23.776414
-23.776414
-23.776413
-23.776411
-23.776409
-23.776406
-23.7764
-23.776392
-23.776382
-23.776382
-23.776382
-23.776381
-23.776381
-23.776379
-23.776376
-23.776371
-23.776364
-23.776356
-23.776347
-23.776347
-23.776347
-23.776348
-23.776347
-23.776345
-23.77634
-23.776334
-23.776326
-23.776311
-23.776311
-23.776312
-23.776313
-23.776314
-23.776314
-23.776312
-23.776307
-23.776299
-23.776277
-23.776278
-23.776279
-23.776282
-23.776286
-23.77629
-23.776295
-23.7763
-23.7763
-22.015233
-22.015234
-22.015235
-22.015236
-22.015238
-22.015241
-22.015244
-22.015248
-22.015249
-22.01525
-22.01525
-22.015251
-22.015251
-22.015252
-22.015252
-22.015252
-22.015251
-22.015248
-22.015267
-22.015267
-22.015267
-22.015268
-22.015267
-22.015267
-22.015266
-22.015264
-22.015262
-22.015283
-22.015283
-22.015283
-22.015283
-22.015282
-22.015281
-22.01528
-22.015278
-22.015276
-22.015298
-22.015297
-22.015297
-22.015297
-22.015296
-22.015295
-22.015293
-22.015291
-22.015289
-22.015311
-22.015311
-22.01531
-22.015309
-22.015308
-22.015307
-22.015305
-22.015303
-22.0153
-22.015323
-22.015322
-22.015322
-22.015321
-22.015319
-22.015318
-22.015316
-22.015313
-22.01531
-22.015333
-22.015332
-22.015331
-22.01533
-22.015329
-22.015327
-22.015325
-22.015322
-22.015318
-22.015341
-22.01534
-22.015339
-22.015338
-22.015336
-22.015335
-22.015333
-22.015329
-22.015325
-22.015346
-22.015346
-22.015345
-22.015344
-22.015342
-22.01534
-22.015338
-22.015334
-22.015329
-22.01535
-22.01535
-22.015349
-22.015347
-22.015346
-22.015344
-22.015341
-22.015338
-22.015332
-22.015352
-22.015351
-22.01535
-22.015349
-22.015347
-22.015345
-22.015343
-22.015339
-22.015333
-22.015351
-22.015351
-22.015349
-22.015348
-22.015346
-22.015345
-22.015342
-22.015338
-22.015333
-22.015348
-22.015348
-22.015347
-22.015345
-22.015344
-22.015342
-22.01534
-22.015336
-22.015331
-22.015343
-22.015343
-22.015342
-22.01534
-22.015339
-22.015337
-22.015335
-22.015331
-22.015327
-22.015336
-22.015336
-22.015335
-22.015333
-22.015332
-22.01533
-22.015328
-22.015325
-22.015321
-22.015327
-22.015326
-22.015326
-22.015324
-22.015323
-22.015321
-22.015319
-22.015317
-22.015313
-22.015316
-22.015315
-22.015314
-22.015313
-22.015312
-22.015311
-22.015309
-22.015307
-22.015304
-22.015302
-22.015302
-22.015301
-22.0153
-22.015299
-22.015298
-22.015297
-22.015295
-22.015293
-22.015287
-22.015287
-22.015287
-22.015286
-22.015285
-22.015284
-22.015283
-22.015282
-22.01528
-22.015271
-22.015271
-22.015271
-22.015271
-22.01527
-22.015269
-22.015268
-22.015267
-22.015266
-22.015253
-22.015253
-22.015254
-22.015254
-22.015253
-22.015253
-22.015252
-22.015251
-22.01525
-22.015234
-22.015235
-22.015235
-22.015236
-22.015236
-22.015237
-22.015237
-22.015236
-22.015234
-22.015216
-22.015217
-22.015218
-22.015219
-22.015221
-22.015224
-22.015227
-22.015232
-22.015234
-20.253866
-20.253866
-20.253867
-20.253868
-20.253868
-20.25387
-20.253871
-20.253872
-20.253872
-20.253875
-20.253875
-20.253875
-20.253876
-20.253876
-20.253876
-20.253875
-20.253874
-20.253871
-20.253884
-20.253884
-20.253884
-20.253884
-20.253884
-20.253883
-20.253882
-20.25388
-20.253878
-20.253893
-20.253893
-20.253893
-20.253892
-20.253892
-20.253891
-20.25389
-20.253888
-20.253885
-20.253901
-20.253901
-20.2539
-20.2539
-20.2539
-20.253899
-20.253897
-20.253895
-20.253892
-20.253908
-20.253908
-20.253908
-20.253907
-20.253906
-20.253905
-20.253904
-20.253901
-20.253898
-20.253914
-20.253914
-20.253914
-20.253913
-20.253912
-20.253911
-20.25391
-20.253907
-20.253904
-20.25392
-20.25392
-20.253919
-20.253918
-20.253918
-20.253916
-20.253915
-20.253912
-20.253908
-20.253924
-20.253924
-20.253923
-20.253923
-20.253922
-20.253921
-20.253919
-20.253916
-20.253912
-20.253927
-20.253927