/*--------------------------------*- C++ -*----------------------------------*\
| =========                 |                                                 |
| \\      /  F ield         | OpenFOAM: The Open Source CFD Toolbox           |
|  \\    /   O peration     | Version:  2406                                  |
|   \\  /    A nd           | Website:  www.openfoam.com                      |
|    \\/     M anipulation  |                                                 |
\*---------------------------------------------------------------------------*/
FoamFile
{
    version     2.0;
    format      ascii;
    arch        "LSB;label=32;scalar=64";
    class       surfaceScalarField;
    location    "8.25";
    object      phi;
}
// * * * * * * * * * * * * * * * * * * * * * * * * * * * * * * * * * * * * * //

dimensions      [0 3 -1 0 0 0 0];

oriented        oriented;

internalField   nonuniform List<scalar> 
101088
(
-6.2211596e-05
2.1812818e-05
-1.367066e-05
-1.9013462e-05
-0.0001187039
9.4182122e-05
-5.727035e-05
-8.2691232e-05
-0.00015197467
0.00022601984
-0.00013266158
-0.00019918819
-0.00014567795
0.0004265075
-0.00023773634
-0.00037680753
-0.00010115807
0.00067773841
-0.00034670032
-0.00060034394
-5.0444432e-05
0.0009342897
-0.00041546686
-0.00082848574
-4.2345237e-05
0.0011382962
-0.00041312159
-0.0010069324
-0.00010436545
0.0012439828
-0.00035032876
-0.0010942937
0.0012349129
-0.00026373471
-0.0010787131
-0.00022550329
-7.5447755e-05
2.4099633e-05
-1.649017e-05
-0.00014145156
0.00010325066
-6.8356518e-05
-0.00017481862
0.00024585761
-0.00015665897
-0.00015389345
0.00046061537
-0.00027720788
-8.1280662e-05
0.0007285504
-0.00039836297
2.1603318e-06
0.0010035767
-0.00047042239
4.1404212e-05
0.0012243371
-0.00046340374
8.8533276e-06
0.0013410507
-0.00039309882
0.0013323487
-0.00029897048
-8.1038655e-05
-8.8644458e-05
2.5600279e-05
-1.9228886e-05
-0.00016369781
0.00010888001
-7.8988912e-05
-0.00019733028
0.00025754557
-0.000179257
-0.00016486783
0.00047926819
-0.00031325583
-7.0913291e-05
0.00075393444
-0.00044324282
3.7368596e-05
0.0010358228
-0.00051470228
0.00010121345
0.0012628881
-0.00050138653
9.2351342e-05
0.0013830764
-0.00042282153
0.001373109
-0.00032244236
2.5553569e-05
-0.00010149308
2.614633e-05
-2.1746633e-05
-0.0001854011
0.0001104982
-8.8598078e-05
-0.00021965978
0.00025986726
-0.00019923733
-0.00017754307
0.00048077928
-0.00034408519
-6.7216891e-05
0.0007529406
-0.00047968088
5.8574401e-05
0.0010314585
-0.00054845122
0.00013847711
0.001255586
-0.00052765265
0.00014519541
0.0013731703
-0.00044174138
0.0013612389
-0.00033650221
9.4341132e-05
-0.00011360767
2.5522377e-05
-2.3945884e-05
-0.00020589045
0.0001075182
-9.6873424e-05
-0.00024130367
0.00025201349
-0.00021610607
-0.00019204405
0.00046452263
-0.00036927217
-7.0207294e-05
0.00072542232
-0.00050769185
6.6793366e-05
0.00099138873
-0.00057234945
0.00015577738
0.0012050118
-0.00054408364
0.00017144396
0.0013155738
-0.00045213813
0.0013013991
-0.0003433387
0.00013099244
-0.0001251915
2.4014672e-05
-2.5832825e-05
-0.0002263976
0.00010080134
-0.00010385849
-0.00026512968
0.00023543101
-0.00023002087
-0.00021275605
0.00043238615
-0.00038927358
-8.4666416e-05
0.00067317881
-0.00052825887
5.842772e-05
0.00091777866
-0.00058835111
0.00015180223
0.0011138061
-0.00055269192
0.00017269354
0.0012136183
-0.00045588084
0.0011971414
-0.00034433786
0.00013953444
-0.00013543619
2.1537851e-05
-2.737249e-05
-0.0002445623
9.0189829e-05
-0.00010945205
-0.00028666932
0.00021014373
-0.00024086993
-0.0002329673
0.00038500636
-0.00040416409
-0.00010186787
0.00059813167
-0.00054255707
4.3029159e-05
0.00081398081
-0.00059757177
0.00013646532
0.00098647014
-0.00055501284
0.00015832184
0.0010729534
-0.00045437589
0.0010551828
-0.00034276494
0.00012949371
-0.0001443333
1.8213062e-05
-2.8582944e-05
-0.00026063442
7.6161396e-05
-0.00011378459
-0.00030648643
0.00017721496
-0.00024907985
-0.0002531532
0.00032423221
-0.00041491675
-0.00012153476
0.00050305946
-0.00055190802
2.2377016e-05
0.00068379821
-0.00060180164
0.00011348834
0.00082788302
-0.000553395
0.00013369464
0.00089923063
-0.0004495032
0.00088208853
-0.00034034964
0.00010772023
-0.0001517159
1.4209153e-05
-2.9498685e-05
-0.00027425216
5.9394165e-05
-0.00011702369
-0.00032392063
0.00013811817
-0.00025509888
-0.00027209836
0.00025255803
-0.00042246005
-0.000141572
0.00039156764
-0.00055777571
-1.4729405e-07
0.00053191717
-0.00060306409
8.7566531e-05
0.00064358046
-0.00054982299
0.00010487587
0.00069819405
-0.00044291669
0.00068368488
-0.00033709731
8.0685819e-05
-0.00015746944
9.7533277e-06
-3.0151463e-05
-0.00028514597
4.0736804e-05
-0.00011931169
-0.00033843854
9.4636401e-05
-0.00025928118
-0.00028873228
0.00017286149
-0.00042748631
-0.00016013457
0.00026779452
-0.00056126915
-2.1667989e-05
0.00036359942
-0.00060284296
6.255601e-05
0.00043966123
-0.00054583984
7.7074913e-05
0.00047613454
-0.00043665507
0.00046610094
-0.00033397325
5.401101e-05
-0.00016131137
4.9572189e-06
-3.0573875e-05
-0.00029240907
2.0690183e-05
-0.00012075111
-0.00034822153
4.8051093e-05
-0.00026182126
-0.00030037539
8.7736036e-05
-0.00043033308
-0.00017375562
0.00013585459
-0.00056292815
-3.8020879e-05
0.00018438138
-0.00060194869
4.3030407e-05
0.00022285655
-0.00054242872
5.5777261e-05
0.00024113348
-0.00043348476
0.00023596535
-0.00033157276
3.3107131e-05
-0.00016328586
3.2168247e-11
-3.0765341e-05
-0.00029622224
4.8255477e-11
-0.00012142597
-0.00035344934
-8.6096379e-11
-0.0002630601
-0.00030663297
-2.3164335e-10
-0.00043180218
-0.00018102999
6.4660162e-11
-0.00056394241
-4.670344e-05
-5.2471282e-11
-0.00060178277
3.2606128e-05
5.7631388e-11
-0.00054098231
4.4365657e-05
2.4803698e-10
-0.0004321433
-5.7805375e-11
-0.0003305686
2.1652564e-05
-0.00016328617
-4.9571398e-06
-3.0765338e-05
-0.00029622284
-2.0690034e-05
-0.00012142596
-0.00035344928
-4.8051141e-05
-0.00026306007
-0.00030663184
-8.773627e-05
-0.00043180214
-0.00018102974
-0.00013585441
-0.00056394235
-4.6703128e-05
-0.00018438172
-0.00060178272
3.2606225e-05
-0.00022285686
-0.00054098229
4.4365337e-05
-0.00024113337
-0.00043214329
-0.00023596544
-0.00033056861
2.1652641e-05
-0.00016131234
-9.753318e-06
-3.0573877e-05
-0.00029241077
-4.0736786e-05
-0.00012075111
-0.00034822138
-9.4636351e-05
-0.00026182126
-0.00030037262
-0.00017286132
-0.0004303331
-0.00017375521
-0.00026779447
-0.00056292816
-3.8020044e-05
-0.00036360053
-0.00060194872
4.3030743e-05
-0.00043966267
-0.00054242877
5.5776495e-05
-0.00047613546
-0.00043348479
-0.00046610102
-0.00033157279
3.3107394e-05
-0.00015747022
-1.4209215e-05
-3.0151457e-05
-0.000285147
-5.939424e-05
-0.00011931166
-0.00033843763
-0.0001381178
-0.00025928114
-0.00028872911
-0.00025255743
-0.00042748628
-0.00016013455
-0.00039156813
-0.00056126907
-2.1666879e-05
-0.0005319192
-0.00060284294
6.2556608e-05
-0.00064358313
-0.00054583985
7.7074178e-05
-0.00069819623
-0.0004366551
-0.000683685
-0.0003339733
5.4011626e-05
-0.0001517153
-1.8212957e-05
-2.9498682e-05
-0.00027425101
-7.6161048e-05
-0.00011702368
-0.00032391953
-0.00017721417
-0.00025509888
-0.00027209654
-0.00032423192
-0.00042246006
-0.00014157253
-0.00050306084
-0.00055777569
-1.4608806e-07
-0.00068380053
-0.00060306412
8.7567439e-05
-0.00082788624
-0.00054982302
0.0001048758
-0.00089923371
-0.00044291674
-0.00088208888
-0.00033709738
8.0687094e-05
-0.00014433253
-2.1537741e-05
-2.8582947e-05
-0.00026063398
-9.0189556e-05
-0.0001137846
-0.00030648775
-0.00021014363
-0.00024907985
-0.00025315334
-0.00038500703
-0.00041491677
-0.00012153511
-0.00059813302
-0.00055190806
2.2377991e-05
-0.00081398217
-0.00060180173
0.00011348934
-0.00098647285
-0.00055339506
0.00013369543
-0.0010729565
-0.00044950327
-0.0010551837
-0.00034034974
0.00010772177
-0.00013543683
-2.4014772e-05
-2.7372495e-05
-0.00024456411
-0.00010080149
-0.00010945207
-0.00028667184
-0.00023543111
-0.00024086996
-0.00023296761
-0.00043238606
-0.00040416416
-0.00010186747
-0.00067317898
-0.00054255722
4.302942e-05
-0.00091777911
-0.00059757193
0.00013646614
-0.0011138078
-0.00055501297
0.0001583231
-0.0012136205
-0.00045437603
-0.0011971432
-0.00034276506
0.00012949473
-0.00012519136
-2.5522228e-05
-2.5832837e-05
-0.00022639707
-0.0001075177
-0.00010385854
-0.00026512993
-0.00025201286
-0.00023002096
-0.00021275625
-0.0004645228
-0.00038927371
-8.4665945e-05
-0.000725424
-0.00052825909
5.8427167e-05
-0.00099139033
-0.00058835134
0.00015180274
-0.0012050132
-0.00055269216
0.00017269432
-0.0013155753
-0.00045588103
-0.0013014016
-0.00034433797
0.00013953495
-0.00011360766
-2.6146524e-05
-2.3945885e-05
-0.0002058918
-0.00011049891
-9.6873421e-05
-0.00024130708
-0.00025986865
-0.00021610605
-0.00019204588
-0.00048078102
-0.00036927214
-7.0206076e-05
-0.00075294216
-0.00050769189
6.6793771e-05
-0.0010314603
-0.00057234951
0.00015577822
-0.0012555879
-0.00054408376
0.0001714438
-0.0013731721
-0.00045213824
-0.0013612406
-0.00034333877
0.00013099317
-0.0001014934
-2.5600314e-05
-2.174663e-05
-0.0001854021
-0.00010888015
-8.8598068e-05
-0.00021966061
-0.00025754573
-0.00019923732
-0.00017754204
-0.00047926815
-0.00034408516
-6.7215037e-05
-0.00075393433
-0.00047968083
5.8575739e-05
-0.0010358233
-0.00054845122
0.00013847808
-0.0012628893
-0.00052765269
0.00014519478
-0.0013830781
-0.00044174142
-0.0013731102
-0.00033650227
9.4340862e-05
-8.8644573e-05
-2.4099699e-05
-1.9228879e-05
-0.00016369828
-0.00010325091
-7.8988884e-05
-0.00019733061
-0.00024585805
-0.00017925694
-0.00016486698
-0.00046061572
-0.00031325574
-7.0912228e-05
-0.00072855026
-0.00044324269
3.7369741e-05
-0.0010035766
-0.00051470221
0.00010121381
-0.001224339
-0.00050138657
9.2350325e-05
-0.0013410531
-0.00042282155
-0.0013323528
-0.00032244233
2.5553363e-05
-7.5447719e-05
-2.1812835e-05
-1.6490166e-05
-0.00014145139
-9.41822e-05
-6.8356505e-05
-0.0001748179
-0.00022602
-0.00015665895
-0.00015389147
-0.00042650787
-0.00027720784
-8.1279202e-05
-0.00067773934
-0.0003983629
2.1610563e-06
-0.00093429116
-0.00047042232
4.1405655e-05
-0.0011382986
-0.00046340378
8.8518711e-06
-0.0012439856
-0.00039309882
-0.0012349131
-0.00029897049
-8.1036697e-05
-6.2211647e-05
-1.3670659e-05
-1.9013459e-05
-0.00011870392
-5.7270346e-05
-8.2691225e-05
-0.0001519741
-0.00013266158
-0.00019918818
-0.00014567576
-0.00023773634
-0.00037680757
-0.00010115567
-0.00034670035
-0.00060034442
-5.0442954e-05
-0.0004154669
-0.00082848696
-4.2344165e-05
-0.00041312161
-0.0010069336
-0.00010436648
-0.00035032876
-0.0010942953
-0.00026373475
-0.001078714
-0.00022550135
-1.4775055e-07
2.7128542e-06
-1.4099107e-05
-2.1366505e-06
4.5746258e-07
1.2026137e-05
-6.0327839e-05
-9.5738124e-06
2.9155335e-06
2.927935e-05
-0.00014090405
-2.3494832e-05
7.3666487e-06
5.4926545e-05
-0.00025265668
-4.445725e-05
1.4000048e-05
8.3689401e-05
-0.00036863529
-6.8387665e-05
2.2562016e-05
0.00010442889
-0.00044272939
-8.572754e-05
3.1123296e-05
0.00010840521
-0.00044227668
-8.7811297e-05
3.6277384e-05
9.7530531e-05
-0.00037702227
-7.5992428e-05
7.7503525e-05
-0.00028553292
-5.8284695e-05
3.8856038e-05
-1.7963529e-07
3.1838777e-06
-1.6781567e-05
7.0942145e-07
1.4035682e-05
-7.1255242e-05
4.3490824e-06
3.3863876e-05
-0.00016488337
1.1374416e-05
6.2678999e-05
-0.00029198585
2.2074616e-05
9.4076971e-05
-0.00041945025
3.5136262e-05
0.00011608658
-0.00049514121
4.6440228e-05
0.00012085488
-0.00048715809
5.1910388e-05
0.00011027329
-0.00041131015
9.0712973e-05
-0.0003128939
5.2623859e-05
-1.8566145e-07
3.4831477e-06
-1.9342356e-05
1.1569959e-06
1.5300446e-05
-8.1596119e-05
6.2765827e-06
3.671441e-05
-0.00018722692
1.6007838e-05
6.7319365e-05
-0.00032762746
3.0372074e-05
9.979785e-05
-0.00046332806
4.6846125e-05
0.00012187948
-0.00053696965
5.8334206e-05
0.00012645686
-0.00051847553
6.1681316e-05
0.00011620197
-0.00043209786
9.8213759e-05
-0.00032792524
5.9662786e-05
-1.9758215e-07
3.5976431e-06
-2.1663383e-05
1.5738442e-06
1.5774301e-05
-9.0843158e-05
8.1514561e-06
3.7720442e-05
-0.00020682098
2.0599854e-05
6.8713415e-05
-0.00035792827
3.8495579e-05
0.00010094971
-0.00049872899
5.7375018e-05
0.00012246831
-0.00056791877
6.7617294e-05
0.00012676663
-0.00053820453
6.7707103e-05
0.00011695305
-0.0004425821
0.00010106016
-0.00033431546
6.2674159e-05
-2.1769445e-07
3.5162e-06
-2.3646611e-05
1.9145225e-06
1.5438813e-05
-9.8669333e-05
9.7608564e-06
3.6893977e-05
-0.00022312418
2.45619e-05
6.699024e-05
-0.0003823492
4.5509885e-05
9.7922241e-05
-0.00052561313
6.5972677e-05
0.00011867307
-0.00058901587
7.4352098e-05
0.00012276206
-0.0005484588
7.1212273e-05
0.00011340175
-0.00044544737
9.9816174e-05
-0.00033520714
6.4324217e-05
-3.0381865e-07
3.300751e-06
-2.5313697e-05
1.9392098e-06
1.4495338e-05
-0.00010515843
1.0557119e-05
3.459951e-05
-0.00023634451
2.7000165e-05
6.2631085e-05
-0.00040135778
5.0470065e-05
9.1119735e-05
-0.00054492557
7.1779585e-05
0.00011071288
-0.00060169891
7.8285114e-05
0.00011473859
-0.00055117397
7.2628341e-05
0.00010601229
-0.00044283573
9.5796458e-05
-0.0003335459
6.5855174e-05
-3.7072593e-07
2.9515668e-06
-2.6652361e-05
1.9743721e-06
1.297251e-05
-0.0001102735
1.1209014e-05
3.0964525e-05
-0.0002464686
2.8855302e-05
5.5971305e-05
-0.00041515132
5.3677523e-05
8.10855e-05
-0.00055734517
7.4807837e-05
9.8622633e-05
-0.0006066126
8.0018999e-05
0.00010253231
-0.00054801767
7.3382794e-05
9.4765855e-05
-0.00043649386
8.8056591e-05
-0.00032810935
6.6466626e-05
-4.3323508e-07
2.481891e-06
-2.7680301e-05
1.9727445e-06
1.0927487e-05
-0.00011414543
1.1682932e-05
2.6104998e-05
-0.00025392974
3.0350563e-05
4.7118683e-05
-0.0004247318
5.5801926e-05
6.840911e-05
-0.00056468242
7.5899659e-05
8.3279526e-05
-0.00060655797
7.9865852e-05
8.6687061e-05
-0.00054151577
7.3785445e-05
8.0100969e-05
-0.00042875737
7.6028865e-05
-0.00032058459
6.6048326e-05
-5.0889581e-07
1.9290947e-06
-2.8437065e-05
1.8474598e-06
8.5074699e-06
-0.00011696014
1.1722806e-05
2.0344717e-05
-0.00025921435
3.081138e-05
3.6657663e-05
-0.00043108799
5.6473908e-05
5.3486763e-05
-0.00056851474
7.550276e-05
6.529572e-05
-0.00060411015
7.8124523e-05
6.8044887e-05
-0.00053380214
7.3664774e-05
6.3545494e-05
-0.00042190009
6.1083941e-05
-0.0003130775
6.4590415e-05
-5.7748601e-07
1.3181927e-06
-2.8962681e-05
1.693097e-06
5.8206884e-06
-0.00011889508
1.1582458e-05
1.3930978e-05
-0.00026275746
3.0685541e-05
2.5122223e-05
-0.00043505469
5.6265007e-05
3.6794439e-05
-0.00057015541
7.4370429e-05
4.5092693e-05
-0.00060074533
7.5942598e-05
4.7168106e-05
-0.0005265346
7.290583e-05
4.5151407e-05
-0.00041522257
4.3065436e-05
-0.00030536174
6.2313396e-05
-6.1799435e-07
6.7375494e-07
-2.9311228e-05
1.6026757e-06
2.9709129e-06
-0.00012012172
1.1477014e-05
7.10757e-06
-0.00026487257
3.056523e-05
1.2825291e-05
-0.00043712464
5.5940028e-05
1.8830447e-05
-0.00057033851
7.3326102e-05
2.3149013e-05
-0.00059739032
7.4496484e-05
2.4288275e-05
-0.00052071864
7.1581917e-05
2.3481118e-05
-0.00040889845
2.2315699e-05
-0.00029929203
6.0051461e-05
-6.3734588e-07
3.2145997e-11
-2.9454406e-05
1.5582442e-06
9.130727e-11
-0.0001206509
1.1422233e-05
1.1393823e-10
-0.00026581678
3.0500346e-05
4.8510878e-11
-0.00043805456
5.5739326e-05
-3.4020862e-11
-0.00057035074
7.2718758e-05
-3.3136232e-10
-0.00059561183
7.3732001e-05
-4.1071357e-10
-0.00051770646
7.0678394e-05
-4.9159534e-11
-0.00040560754
3.1401512e-10
-0.00029626268
5.8688339e-05
-6.3740326e-07
-6.7368804e-07
-2.9454403e-05
1.5580626e-06
-2.9707242e-06
-0.00012065089
1.1422165e-05
-7.1073529e-06
-0.00026581675
3.0500668e-05
-1.2825216e-05
-0.00043805451
5.5739414e-05
-1.8830595e-05
-0.0005703507
7.2718896e-05
-2.3149895e-05
-0.0005956118
7.3732106e-05
-2.428939e-05
-0.00051770647
7.0678261e-05
-2.3481503e-05
-0.00040560757
-2.2315171e-05
-0.0002962627
5.8688305e-05
-6.1824469e-07
-1.3181513e-06
-2.931123e-05
1.6020701e-06
-5.8205705e-06
-0.00012012173
1.1476817e-05
-1.3930835e-05
-0.00026487258
3.0566088e-05
-2.5122187e-05
-0.00043712465
5.5940179e-05
-3.6794827e-05
-0.00057033855
7.3326531e-05
-4.509417e-05
-0.00059739039
7.4496849e-05
-4.7169967e-05
-0.00052071874
7.1581614e-05
-4.5152539e-05
-0.00040889855
-4.3065158e-05
-0.0002992921
6.0051409e-05
-5.7780546e-07
-1.9291073e-06
-2.8962677e-05
1.6924491e-06
-8.5074924e-06
-0.00011889506
1.158237e-05
-2.0344627e-05
-0.00026275742
3.0686615e-05
-3.6657615e-05
-0.00043505464
5.6264917e-05
-5.3487512e-05
-0.00057015539
7.4371083e-05
-6.529785e-05
-0.00060074535
7.5943224e-05
-6.8047544e-05
-0.00052653468
7.2905561e-05
-6.3547526e-05
-0.00041522268
-6.1083981e-05
-0.00030536184
6.2313454e-05
-5.0883934e-07
-2.4818691e-06
-2.8437062e-05
1.8474959e-06
-1.0927431e-05
-0.00011696013
1.1722898e-05
-2.6104766e-05
-0.00025921434
3.0812155e-05
-4.711867e-05
-0.00043108798
5.6473479e-05
-6.8410235e-05
-0.00056851477
7.5503609e-05
-8.3281853e-05
-0.0006041102
7.8125364e-05
-8.6690073e-05
-0.00053380225
7.3664784e-05
-8.0103636e-05
-0.00042190022
-7.6029251e-05
-0.00031307762
6.4590739e-05
-4.3298493e-07
-2.9515216e-06
-2.7680302e-05
1.9728297e-06
-1.2972415e-05
-0.00011414544
1.1682336e-05
-3.0964421e-05
-0.00025392976
3.0350663e-05
-5.5971573e-05
-0.00042473183
5.5801475e-05
-8.1086615e-05
-0.00056468248
7.5900545e-05
-9.8624346e-05
-0.00060655805
7.9866699e-05
-0.00010253499
-0.00054151589
7.3785792e-05
-9.4768487e-05
-0.00042875752
-8.8057249e-05
-0.00032058473
6.6048821e-05
-3.7083802e-07
-3.3007846e-06
-2.6652367e-05
1.9737362e-06
-1.4495447e-05
-0.00011027352
1.1207848e-05
-3.4599689e-05
-0.00024646865
2.8855301e-05
-6.2631297e-05
-0.00041515138
5.3677526e-05
-9.1120375e-05
-0.00055734527
7.4808404e-05
-0.00011071397
-0.00060661274
8.0019603e-05
-0.00011474076
-0.00054801784
7.3383244e-05
-0.00010601431
-0.00043649403
-9.5797243e-05
-0.00032810949
6.6467046e-05
-3.0373266e-07
-3.5161131e-06
-2.5313706e-05
1.9394412e-06
-1.5438529e-05
-0.00010515847
1.0557233e-05
-3.6893539e-05
-0.00023634459
2.7000724e-05
-6.6990039e-05
-0.0004013579
5.047068e-05
-9.7923127e-05
-0.00054492576
7.1779716e-05
-0.00011867478
-0.00060169918
7.8285466e-05
-0.00012276421
-0.00055117422
7.262855e-05
-0.00011340323
-0.00044283594
-9.9816968e-05
-0.000333546
6.5855736e-05
-2.17635e-07
-3.597669e-06
-2.3646613e-05
1.9142799e-06
-1.5774422e-05
-9.8669339e-05
9.7598979e-06
-3.7720799e-05
-0.00022312419
2.4561387e-05
-6.8714115e-05
-0.00038234923
4.5510658e-05
-0.00010095091
-0.00052561321
6.5972826e-05
-0.00012247043
-0.00058901604
7.4352417e-05
-0.00012676887
-0.000548459
7.1212172e-05
-0.00011695443
-0.00044544752
-0.00010106047
-0.0003352072
6.4324977e-05
-1.977283e-07
-3.4831442e-06
-2.1663381e-05
1.5734052e-06
-1.5300475e-05
-9.084315e-05
8.1509669e-06
-3.6714557e-05
-0.00020682097
2.0600089e-05
-6.7319797e-05
-0.00035792826
3.8496395e-05
-9.9798936e-05
-0.00049872898
5.7375406e-05
-0.0001218816
-0.00056791885
6.7617483e-05
-0.00012645888
-0.00053820464
6.7707027e-05
-0.00011620304
-0.00044258218
-9.82137e-05
-0.00033431549
6.267415e-05
-1.8578238e-07
-3.1839009e-06
-1.934235e-05
1.1566346e-06
-1.4035784e-05
-8.1596092e-05
6.2762744e-06
-3.3864116e-05
-0.00018722686
1.6008197e-05
-6.2679434e-05
-0.00032762738
3.0372663e-05
-9.4077635e-05
-0.000463328
4.684684e-05
-0.00011608775
-0.00053696966
5.8334164e-05
-0.00012085701
-0.00051847559
6.1680608e-05
-0.00011027441
-0.00043209789
-9.0714383e-05
-0.00032792524
5.9662591e-05
-1.7964052e-07
-2.7128707e-06
-1.6781563e-05
7.0943235e-07
-1.2026216e-05
-7.125523e-05
4.3493927e-06
-2.9279551e-05
-0.00016488335
1.1375477e-05
-5.4927022e-05
-0.00029198584
2.2075329e-05
-8.3690427e-05
-0.00041945027
3.5136202e-05
-0.00010443057
-0.00049514125
4.6440547e-05
-0.00010840762
-0.00048715815
5.1908366e-05
-9.7532643e-05
-0.0004113102
-7.7503027e-05
-0.00031289386
5.2624568e-05
-1.4773632e-07
-1.4099106e-05
-2.1366786e-06
4.5751827e-07
-6.0327835e-05
-9.5739408e-06
2.9157985e-06
-0.00014090404
-2.3495146e-05
7.3674845e-06
-0.00025265669
-4.4457863e-05
1.4000703e-05
-0.00036863534
-6.8388805e-05
2.2561838e-05
-0.00044272947
-8.572929e-05
3.1122943e-05
-0.00044227673
-8.7813314e-05
3.627562e-05
-0.00037702233
-7.5994106e-05
-0.00028553288
-5.8285101e-05
3.885802e-05
1.3051555e-07
1.3965342e-06
-1.4208245e-05
-1.4179125e-06
3.7565251e-07
5.7159163e-06
-6.038739e-05
-5.9014997e-06
1.3087163e-06
1.2703508e-05
-0.00014111897
-1.3421637e-05
5.1002292e-06
2.0853272e-05
-0.00025428786
-2.3013557e-05
1.4553787e-05
2.4965267e-05
-0.00037267775
-3.0376208e-05
3.0799057e-05
1.7141098e-05
-0.00044799359
-2.8122004e-05
5.1483362e-05
-6.7003664e-06
-0.00044494607
-1.1314715e-05
7.1131466e-05
-3.840306e-05
-0.00037389834
1.5630747e-05
-6.0383503e-05
-0.00027738569
4.0753072e-05
8.2614603e-05
2.2380991e-07
1.3730295e-06
-1.6981879e-05
8.3765646e-07
5.4618136e-06
-7.1615032e-05
2.9249497e-06
1.168472e-05
-0.00016595201
9.6130289e-06
1.7974767e-05
-0.00029579559
2.4192311e-05
1.8567898e-05
-0.00042763224
4.6780617e-05
5.5955108e-06
-0.0005061836
7.2040037e-05
-2.3558958e-05
-0.00049555822
9.265681e-05
-5.7440813e-05
-0.00041288949
-7.7848679e-05
-0.00030659762
0.00010382502
3.5032444e-07
1.3264111e-06
-1.9646088e-05
1.4078897e-06
5.1205091e-06
-8.231247e-05
4.6689914e-06
1.0502918e-05
-0.00018930629
1.403406e-05
1.4932739e-05
-0.00033395022
3.3146803e-05
1.2340226e-05
-0.00047621255
6.1033294e-05
-4.7395485e-06
-0.0005545213
8.97427e-05
-3.7072722e-05
-0.00053367182
0.0001100202
-7.0875953e-05
-0.00043894011
-8.8782271e-05
-0.00032414871
0.00011717706
4.8710571e-07
1.2489409e-06
-2.2073081e-05
2.024258e-06
4.6825166e-06
-9.194246e-05
6.5068084e-06
9.200445e-06
-0.00021000115
1.8491084e-05
1.1965371e-05
-0.00036694486
4.1798694e-05
6.8985636e-06
-0.00051659415
7.4093777e-05
-1.277119e-05
-0.0005921818
0.00010547563
-4.6002467e-05
-0.00056065663
0.00012452847
-7.8084763e-05
-0.00045442628
-9.3162555e-05
-0.000332747
0.00012733987
6.2083123e-07
1.1404351e-06
-2.415904e-05
2.6204999e-06
4.165417e-06
-0.00010015217
8.2616094e-06
7.8567663e-06
-0.00022742171
2.2689588e-05
9.2866359e-06
-0.0003940978
4.9788673e-05
2.6744252e-06
-0.00054848752
8.5763804e-05
-1.8038262e-05
-0.00061972428
0.00011928653
-5.0406704e-05
-0.00057757696
0.00013690866
-7.9497876e-05
-0.00046165654
-9.1984363e-05
-0.00033496873
0.00013549209
7.4174103e-07
1.0065268e-06
-2.5921564e-05
3.166547e-06
3.5873782e-06
-0.00010700512
9.8864001e-06
6.5066987e-06
-0.00024171395
2.6595735e-05
6.953979e-06
-0.0004157336
5.7080878e-05
-1.5995444e-07
-0.00057257619
9.6333653e-05
-2.0630348e-05
-0.00063836035
0.00013176053
-5.0766061e-05
-0.00058624142
0.0001479347
-7.6018251e-05
-0.00046248934
-8.6777655e-05
-0.00033257435
0.00014175695
8.5124474e-07
8.4404322e-07
-2.734126e-05
3.6592098e-06
2.9438932e-06
-0.0001124382
1.1357097e-05
5.1352956e-06
-0.00025279508
3.0159741e-05
4.8788097e-06
-0.00043187809
6.3854509e-05
-1.9758506e-06
-0.00058922391
0.00010622947
-2.0614769e-05
-0.00064900288
0.00014274435
-4.7253028e-05
-0.00058804547
0.00015707249
-6.8420938e-05
-0.00045841911
-7.7962664e-05
-0.00032657608
0.0001467247
9.2448809e-07
6.7504252e-07
-2.8435635e-05
3.9882643e-06
2.3111726e-06
-0.00011657639
1.2364168e-05
3.9023236e-06
-0.00026107272
3.2627629e-05
3.3644923e-06
-0.00044348053
6.9041206e-05
-2.9276524e-06
-0.00060014433
0.00011453714
-1.8692221e-05
-0.00065397556
0.0001519865
-4.0748135e-05
-0.00058546979
0.00016415876
-5.7798227e-05
-0.0004515524
-6.6474685e-05
-0.00031867109
0.00015075752
9.8407686e-07
4.9862243e-07
-2.9244491e-05
4.2556273e-06
1.6829575e-06
-0.00011960319
1.3196532e-05
2.7657182e-06
-0.00026701853
3.4739535e-05
2.2205183e-06
-0.00045148673
7.3244622e-05
-3.0471477e-06
-0.00060690057
0.00012112314
-1.5496578e-05
-0.00065518356
0.00015950661
-3.2249046e-05
-0.0005806844
0.00016903554
-4.5511524e-05
-0.00044371592
-5.2553509e-05
-0.00031230225
0.00015433922
1.0139641e-06
3.3023265e-07
-2.980825e-05
4.3968767e-06
1.100543e-06
-0.00012169549
1.3697847e-05
1.7672838e-06
-0.00027105977
3.6276545e-05
1.2961396e-06
-0.00045670869
7.6279843e-05
-2.4560314e-06
-0.00061074977
0.00012599463
-1.1030144e-05
-0.00065492615
0.00016499191
-2.2348802e-05
-0.00057543174
0.00017232904
-3.1686826e-05
-0.00043638448
-3.6284634e-05
-0.00030670612
0.00015740473
1.0362108e-06
1.6367319e-07
-3.0180959e-05
4.5013911e-06
5.4016728e-07
-0.00012302651
1.4056382e-05
8.5139384e-07
-0.00027351139
3.7284356e-05
5.7201655e-07
-0.00045962819
7.8261464e-05
-1.3791722e-06
-0.00061239201
0.0001290891
-5.7494293e-06
-0.00065349849
0.00016831018
-1.1454453e-05
-0.00057083358
0.00017452481
-1.6214197e-05
-0.00043058552
-1.8467117e-05
-0.00030214638
0.00015956194
1.0452594e-06
8.3122523e-12
-3.0335983e-05
4.5404844e-06
2.6420213e-11
-0.00012360582
1.4196235e-05
5.4198968e-11
-0.00027462086
3.7703759e-05
-2.9733721e-11
-0.00046098984
7.9132063e-05
-4.0712336e-10
-0.00061315712
0.00013050538
-9.7230914e-10
-0.00065273346
0.0001698245
-1.2779079e-09
-0.00056847817
0.00017559562
-9.1291935e-10
-0.00042759155
3.1642801e-10
-0.00029977938
0.00016064516
1.0453258e-06
-1.6364578e-07
-3.0335979e-05
4.5406135e-06
-5.4008956e-07
-0.00012360581
1.4196324e-05
-8.5125699e-07
-0.00027462083
3.770373e-05
-5.7206077e-07
-0.00046098978
7.9132051e-05
1.3783495e-06
-0.00061315706
0.00013050543
5.7475019e-06
-0.00065273342
0.00016982456
1.1451889e-05
-0.00056847816
0.00017559574
1.6212342e-05
-0.00042759157
1.8467664e-05
-0.0002997794
0.0001606452
1.0363482e-06
-3.3018027e-07
-3.0180959e-05
4.5016447e-06
-1.1004043e-06
-0.00012302651
1.4056546e-05
-1.7670845e-06
-0.00027351139
3.7284255e-05
-1.2961481e-06
-0.00045962819
7.8261507e-05
2.45521e-06
-0.00061239203
0.00012908924
1.1028269e-05
-0.00065349854
0.00016831037
2.234623e-05
-0.00057083366
0.00017452514
3.1684929e-05
-0.00043058562
3.6285021e-05
-0.00030214645
0.00015956203
1.0139864e-06
-4.9855939e-07
-2.9808245e-05
4.3968896e-06
-1.6827942e-06
-0.00012169547
1.3697815e-05
-2.7655161e-06
-0.00027105973
3.6276304e-05
-2.2205374e-06
-0.00045670862
7.628002e-05
3.0463222e-06
-0.00061074972
0.00012599479
1.5494676e-05
-0.00065492615
0.00016499213
3.2246393e-05
-0.00057543181
0.00017232945
4.5509605e-05
-0.0004363846
5.2553824e-05
-0.00030670622
0.00015740481
9.838915e-07
-6.7501236e-07
-2.924449e-05
4.2552948e-06
-2.3110941e-06
-0.00011960319
1.3196334e-05
-3.9022216e-06
-0.00026701852
3.4739261e-05
-3.3645626e-06
-0.00045148672
7.3244974e-05
2.9267844e-06
-0.00060690059
0.00012112329
1.8690076e-05
-0.00065518362
0.00015950682
4.0745287e-05
-0.00058068453
0.00016903592
5.7796376e-05
-0.00044371609
6.6475198e-05
-0.00031230237
0.00015433918
9.2436171e-07
-8.4403402e-07
-2.8435639e-05
3.9881293e-06
-2.9438653e-06
-0.00011657641
1.236424e-05
-5.1352313e-06
-0.00026107275
3.2627492e-05
-4.878926e-06
-0.00044348058
6.9041585e-05
1.9748047e-06
-0.00060014441
0.00011453731
2.0612165e-05
-0.00065397568
0.00015198675
4.7249948e-05
-0.00058546997
0.00016415913
6.8419261e-05
-0.00045155259
7.7963609e-05
-0.00031867125
0.00015075738
8.5135912e-07
-1.0064913e-06
-2.7341266e-05
3.6595052e-06
-3.5872826e-06
-0.00011243823
1.1357453e-05
-6.506605e-06
-0.00025279514
3.0159653e-05
-6.9542291e-06
-0.00043187819
6.3854685e-05
1.586426e-07
-0.00058922404
0.00010622983
2.0627484e-05
-0.00064900305
0.00014274474
5.0762969e-05
-0.00058804568
0.00015707292
7.6016846e-05
-0.00045841933
8.6778914e-05
-0.00032657625
0.00014672454
7.4180308e-07
-1.1404304e-06
-2.5921574e-05
3.166671e-06
-4.1654238e-06
-0.00010700516
9.8865095e-06
-7.8568913e-06
-0.00024171404
2.6595443e-05
-9.2871432e-06
-0.00041573376
5.7080741e-05
-2.6757616e-06
-0.00057257642
9.6334226e-05
1.8035777e-05
-0.00063836063
0.00013176102
5.0403937e-05
-0.00058624171
0.00014793517
7.9496777e-05
-0.00046248958
9.1985586e-05
-0.0003325745
0.00014175667
6.2091423e-07
-1.2489232e-06
-2.4159042e-05
2.6208569e-06
-4.6824828e-06
-0.00010015218
8.2621401e-06
-9.2005246e-06
-0.00022742174
2.2689703e-05
-1.1965922e-05
-0.00039409786
4.9788594e-05
-6.8999835e-06
-0.00054848763
8.5764254e-05
1.2768775e-05
-0.00061972447
0.00011928678
4.5999719e-05
-0.00057757718
0.00013690886
7.8083787e-05
-0.00046165671
9.316369e-05
-0.00033496881
0.00013549154
4.8718074e-07
-1.3264e-06
-2.2073077e-05
2.0245879e-06
-5.1205029e-06
-9.1942445e-05
6.5074034e-06
-1.0503033e-05
-0.00021000112
1.8491552e-05
-1.493336e-05
-0.00036694485
4.179876e-05
-1.2341924e-05
-0.00051659419
7.4093751e-05
4.7366318e-06
-0.0005921819
0.00010547552
3.7069716e-05
-0.00056065677
0.00012452816
7.087479e-05
-0.00045442638
8.8783683e-05
-0.00033274703
0.00012733929
3.5036928e-07
-1.3730256e-06
-1.9646082e-05
1.4081393e-06
-5.4618363e-06
-8.2312446e-05
4.6694767e-06
-1.1684894e-05
-0.00018930624
1.4034366e-05
-1.7975484e-05
-0.00033395016
3.3146572e-05
-1.8569666e-05
-0.00047621253
6.1032723e-05
-5.5981054e-06
-0.00055452133
8.9741832e-05
2.3556648e-05
-0.00053367186
0.00011001938
5.7439857e-05
-0.00043894013
7.7850249e-05
-0.00032414869
0.00011717635
2.2385308e-07
-1.3965509e-06
-1.6981877e-05
8.3783529e-07
-5.7160083e-06
-7.1615024e-05
2.9252473e-06
-1.2703803e-05
-0.00016595199
9.6131033e-06
-2.0854064e-05
-0.00029579559
2.4191918e-05
-2.4966964e-05
-0.00042763227
4.6779593e-05
-1.7143696e-05
-0.00050618368
7.2037968e-05
6.6979546e-06
-0.00049555828
9.2655831e-05
3.8401997e-05
-0.00041288951
6.0383444e-05
-0.00030659756
0.00010382352
1.3052848e-07
-1.4208246e-05
-1.4179201e-06
3.7569906e-07
-6.0387392e-05
-5.9015505e-06
1.3086919e-06
-0.00014111898
-1.3421797e-05
5.0997636e-06
-0.00025428788
-2.3013997e-05
1.4552752e-05
-0.00037267781
-3.0377213e-05
3.0797614e-05
-0.00044799367
-2.8123853e-05
5.1481211e-05
-0.00044494612
-1.1316742e-05
7.1131683e-05
-0.00037389834
1.5629197e-05
-0.00027738561
4.0752828e-05
8.2613796e-05
-4.0015205e-08
5.0779479e-07
-1.4259714e-05
-4.1631194e-07
-3.4656949e-09
2.0374268e-06
-6.0769742e-05
-1.6916168e-06
1.681443e-07
4.1962999e-06
-0.00014191708
-3.5697687e-06
3.9501314e-07
5.4314938e-06
-0.00025499265
-4.9535064e-06
1.339291e-06
1.7560761e-06
-0.00037256263
-2.8154703e-06
5.5022403e-06
-1.2630761e-05
-0.00044690062
7.3746158e-06
1.602257e-05
-3.9973558e-05
-0.00044368334
2.8190333e-05
3.3579466e-05
-7.2980139e-05
-0.00037361869
5.5143743e-05
-9.7952424e-05
-0.00027831104
7.8302897e-05
5.4154302e-05
-3.6595171e-08
5.9262972e-07