/*--------------------------------*- C++ -*----------------------------------*\
| =========                 |                                                 |
| \\      /  F ield         | OpenFOAM: The Open Source CFD Toolbox           |
|  \\    /   O peration     | Version:  2406                                  |
|   \\  /    A nd           | Website:  www.openfoam.com                      |
|    \\/     M anipulation  |                                                 |
\*---------------------------------------------------------------------------*/
FoamFile
{
    version     2.0;
    format      ascii;
    arch        "LSB;label=32;scalar=64";
    class       volVectorField;
    location    "8.25";
    object      U;
}
// * * * * * * * * * * * * * * * * * * * * * * * * * * * * * * * * * * * * * //

dimensions      [0 1 -1 0 0 0 0];

internalField   nonuniform List<vector> 
34560
(
(-0.056459882 0.010304095 0.015786027)
(-0.17291736 0.032583678 0.048331239)
(-0.30039836 0.061421893 0.081156221)
(-0.42024951 0.09709171 0.10702752)
(-0.50714172 0.13741915 0.11958443)
(-0.54164713 0.17980423 0.11618262)
(-0.52341203 0.22017497 0.10111941)
(-0.473429 0.25418232 0.082621476)
(-0.41820075 0.27878335 0.069334221)
(-0.061385927 0.011680079 0.016818601)
(-0.18537895 0.036153806 0.050962665)
(-0.31665632 0.066836082 0.083853327)
(-0.433477 0.10363444 0.10737089)
(-0.50907893 0.14406848 0.11553374)
(-0.52691191 0.185578 0.1073894)
(-0.49304406 0.22397079 0.089132905)
(-0.43325211 0.25531937 0.069994713)
(-0.37370437 0.27704612 0.057720688)
(-0.065953473 0.012351075 0.016945016)
(-0.19691839 0.037881224 0.051113322)
(-0.33158254 0.069384736 0.082787874)
(-0.44515422 0.10638656 0.10343106)
(-0.5095866 0.1460861 0.10766875)
(-0.51163574 0.18589293 0.095903755)
(-0.46423759 0.22158195 0.075628633)
(-0.39665876 0.24971181 0.056505157)
(-0.33447581 0.26828783 0.045433688)
(-0.069877611 0.012808211 0.016913576)
(-0.20659633 0.038875825 0.050729664)
(-0.34355065 0.070429352 0.080764667)
(-0.4533239 0.10663453 0.098212066)
(-0.50721197 0.14458564 0.098588853)
(-0.49545093 0.18169556 0.083701887)
(-0.43707861 0.21395286 0.06217718)
(-0.36395528 0.23838024 0.043689167)
(-0.3004765 0.25368835 0.034325204)
(-0.073033898 0.012699767 0.016575071)
(-0.21417448 0.038332056 0.049530798)
(-0.35235304 0.06899705 0.07761614)
(-0.45794426 0.10356668 0.091942512)
(-0.50201785 0.13912177 0.088885658)
(-0.4785247 0.17294066 0.071509824)
(-0.41137476 0.20145458 0.049365289)
(-0.3345803 0.2221555 0.03200229)
(-0.27100651 0.23438979 0.024611003)
(-0.075528159 0.012190918 0.015971968)
(-0.21994378 0.036647241 0.047603597)
(-0.35844298 0.065553355 0.073520385)
(-0.45962317 0.097605813 0.084893512)
(-0.49461053 0.12996141 0.078921458)
(-0.46118953 0.1599711 0.059683334)
(-0.38714909 0.18458148 0.037494748)
(-0.30815845 0.20168583 0.021616066)
(-0.24545611 0.21109829 0.016266172)
(-0.077408499 0.011247178 0.015295132)
(-0.22406804 0.033685592 0.045467177)
(-0.36217643 0.059935164 0.06919385)
(-0.45894829 0.088638698 0.077815376)
(-0.4858422 0.11712476 0.069324654)
(-0.44411547 0.14298808 0.048703437)
(-0.36474875 0.16366352 0.026845308)
(-0.28464897 0.17741086 0.012654559)
(-0.22344978 0.18434388 0.0092187683)
(-0.078761839 0.0098410092 0.014576858)
(-0.2268755 0.029413306 0.043254236)
(-0.36420998 0.052151909 0.064928734)
(-0.45690959 0.07676561 0.071148092)
(-0.47685328 0.10086483 0.060598121)
(-0.42828106 0.12234811 0.03899996)
(-0.34485486 0.1391253 0.017671017)
(-0.26432482 0.14982382 0.0052017205)
(-0.20490662 0.15472217 0.0034564236)
(-0.079705635 0.0080370725 0.01389653)
(-0.22873118 0.024000789 0.04118585)
(-0.36519496 0.042472208 0.061066505)
(-0.45443501 0.06233645 0.06530064)
(-0.46875304 0.08158887 0.053144212)
(-0.41465775 0.098515675 0.030888846)
(-0.32814066 0.11147743 0.010154328)
(-0.2475407 0.11943023 -0.00072930864)
(-0.18989561 0.12276205 -0.0010504319)
(-0.080329286 0.0059534501 0.013319096)
(-0.22988696 0.017770977 0.039443249)
(-0.3655431 0.031396807 0.057885921)
(-0.45205982 0.04597153 0.060602804)
(-0.46210334 0.059984476 0.04728669)
(-0.40385837 0.072185051 0.02462894)
(-0.31510835 0.081379797 0.0044576758)
(-0.23460508 0.086813589 -0.0051258714)
(-0.17849546 0.088973292 -0.0043486587)
(-0.080717618 0.0036807668 0.012918635)
(-0.23052879 0.010970928 0.038228063)
(-0.3655156 0.019332654 0.055671472)
(-0.45008677 0.028219575 0.057353585)
(-0.45725567 0.036710466 0.043282969)
(-0.39628717 0.044052997 0.020416623)
(-0.30613477 0.049522518 0.00070861169)
(-0.225789 0.052652749 -0.0079704658)
(-0.17082292 0.053881885 -0.0064744787)
(-0.080875919 0.0012139843 0.012715379)
(-0.23079832 0.003623715 0.037622346)
(-0.36547648 0.0064140998 0.054588676)
(-0.44910531 0.0094059414 0.055772816)
(-0.45485903 0.012274721 0.041330916)
(-0.39251799 0.014756033 0.018358436)
(-0.30164568 0.016597891 -0.0011123707)
(-0.22136793 0.017638558 -0.0093390104)
(-0.16698529 0.018051924 -0.0074987157)
(-0.080875924 -0.001213945 0.012715385)
(-0.23079833 -0.0036236718 0.037622428)
(-0.36547648 -0.0064141453 0.054588724)
(-0.44910532 -0.0094060297 0.055772736)
(-0.45485902 -0.012274688 0.041330795)
(-0.39251799 -0.014756058 0.01835839)
(-0.30164568 -0.016597894 -0.0011124089)
(-0.22136793 -0.017638501 -0.0093389871)
(-0.1669853 -0.018051928 -0.0074986908)
(-0.080717624 -0.0036807306 0.012918677)
(-0.2305288 -0.010970867 0.038228285)
(-0.36551561 -0.019332641 0.055671608)
(-0.45008681 -0.028219601 0.057353365)
(-0.45725564 -0.036710462 0.043282675)
(-0.39628719 -0.044053116 0.020416528)
(-0.30613479 -0.049522653 0.00070851653)
(-0.22578901 -0.052652797 -0.0079704089)
(-0.17082295 -0.053881888 -0.0064744298)
(-0.080329279 -0.0059534459 0.013319161)
(-0.22988695 -0.017770927 0.039443408)
(-0.36554312 -0.0313967 0.057885954)
(-0.45205989 -0.045971473 0.060602477)
(-0.46210331 -0.059984549 0.047286402)
(-0.40385842 -0.072185311 0.024628887)
(-0.31510839 -0.081380127 0.0044575602)
(-0.2346051 -0.086813809 -0.0051258157)
(-0.1784955 -0.088973303 -0.0043486541)
(-0.07970563 -0.0080370526 0.0138965)
(-0.22873118 -0.024000703 0.041185681)
(-0.36519498 -0.04247203 0.061066298)
(-0.45443506 -0.062336395 0.065300422)
(-0.46875303 -0.081589066 0.053144149)
(-0.41465783 -0.098516033 0.030888873)
(-0.32814071 -0.11147791 0.01015422)
(-0.24754072 -0.11943063 -0.00072929801)
(-0.18989565 -0.12276209 -0.0010505458)
(-0.078761836 -0.0098409581 0.014576768)
(-0.22687548 -0.029413209 0.043254073)
(-0.36420992 -0.052151785 0.064928781)
(-0.45690956 -0.076765626 0.071148284)
(-0.47685332 -0.10086507 0.060598242)
(-0.42828119 -0.12234843 0.038999968)
(-0.34485493 -0.1391258 0.01767094)
(-0.26432486 -0.1498243 0.0052016612)
(-0.20490668 -0.15472227 0.0034561997)
(-0.077408489 -0.011247184 0.015295158)
(-0.224068 -0.033685603 0.045467332)
(-0.36217638 -0.059935111 0.069194176)
(-0.45894832 -0.088638667 0.077815589)
(-0.48584239 -0.11712488 0.069324652)
(-0.44411564 -0.14298825 0.048703401)
(-0.36474887 -0.16366388 0.02684531)
(-0.28464906 -0.17741127 0.012654461)
(-0.22344986 -0.18434407 0.0092185594)
(-0.075528177 -0.012190938 0.015971947)
(-0.21994384 -0.03664728 0.047603542)
(-0.35844301 -0.065553368 0.07352028)
(-0.45962317 -0.097605807 0.084893498)
(-0.49461066 -0.12996157 0.078921497)
(-0.46118962 -0.15997127 0.059683411)
(-0.38714924 -0.18458169 0.037494843)
(-0.30815857 -0.20168607 0.021616046)
(-0.24545618 -0.21109859 0.016266109)
(-0.073033888 -0.012699792 0.01657508)
(-0.21417444 -0.038332087 0.049530956)
(-0.35235292 -0.068997064 0.077616565)
(-0.45794413 -0.10356673 0.091943056)
(-0.50201786 -0.13912206 0.088885885)
(-0.47852468 -0.17294099 0.071509823)
(-0.41137484 -0.20145484 0.04936533)
(-0.33458036 -0.22215566 0.032002418)
(-0.27100656 -0.23439004 0.02461108)
(-0.069877617 -0.012808263 0.016913615)
(-0.20659635 -0.038875942 0.050729838)
(-0.34355069 -0.07042955 0.080764889)
(-0.45332393 -0.10663476 0.09821215)
(-0.50721196 -0.14458591 0.098588679)
(-0.49545095 -0.18169588 0.083701747)
(-0.43707864 -0.21395311 0.06217711)
(-0.36395529 -0.23838046 0.043689306)
(-0.30047657 -0.25368862 0.034325468)
(-0.065953474 -0.01235111 0.016945048)
(-0.1969184 -0.03788128 0.051113449)
(-0.33158255 -0.069384807 0.082788)
(-0.4451542 -0.10638661 0.10343108)
(-0.50958649 -0.14608615 0.10766859)
(-0.51163567 -0.18589308 0.095903585)
(-0.46423767 -0.22158223 0.075628628)
(-0.39665875 -0.24971214 0.056505497)
(-0.33447573 -0.26828831 0.045434194)
(-0.061385916 -0.011680114 0.016818626)
(-0.18537892 -0.036153896 0.050962738)
(-0.31665628 -0.066836264 0.083853357)
(-0.4334769 -0.1036347 0.10737079)
(-0.50907869 -0.14406871 0.11553356)
(-0.52691165 -0.18557816 0.10738939)
(-0.49304407 -0.2239712 0.089133189)
(-0.43325201 -0.25531976 0.069995288)
(-0.37370443 -0.27704671 0.057720992)
(-0.05645987 -0.010304086 0.015786022)
(-0.17291733 -0.032583648 0.048331238)
(-0.30039831 -0.061421893 0.081156194)
(-0.42024945 -0.097091827 0.10702744)
(-0.50714165 -0.13741942 0.11958437)
(-0.54164704 -0.17980451 0.11618275)
(-0.52341198 -0.22017531 0.10111964)
(-0.47342887 -0.2541828 0.082621793)
(-0.41820093 -0.27878374 0.069334106)
(-0.093424374 0.0015904838 0.0014662553)
(-0.28949386 0.0051530151 0.0045789971)
(-0.50960309 0.0096463173 0.007786863)
(-0.72462099 0.014673565 0.010284333)
(-0.89343909 0.019430983 0.011008396)
(-0.98121511 0.023018699 0.0091561896)
(-0.98293504 0.025139384 0.004910858)
(-0.92688823 0.026274336 -0.00037800973)
(-0.85396554 0.026543992 -0.0057835051)
(-0.10222116 0.0019365677 0.0015882951)
(-0.31306652 0.0061671046 0.0048929798)
(-0.54344496 0.011293725 0.0081238963)
(-0.75867838 0.016719837 0.010305254)
(-0.91415698 0.021480016 0.01029351)
(-0.97781431 0.02469714 0.0074661353)
(-0.95341057 0.026320458 0.0024925058)
(-0.87881913 0.026772017 -0.0028560799)
(-0.79781073 0.026529815 -0.0078472792)
(-0.11027708 0.0021198631 0.0015179815)
(-0.33454204 0.0067221865 0.0046521191)
(-0.57394325 0.012208996 0.0075708765)
(-0.78863955 0.017837362 0.0092378803)
(-0.93115565 0.022526866 0.0085334012)
(-0.97306984 0.025459851 0.0050287872)
(-0.92691271 0.026667927 -0.00014856486)
(-0.8387395 0.026492484 -0.0048911127)
(-0.7533715 0.025766276 -0.0087438274)
(-0.11733271 0.0022253739 0.0013926813)
(-0.3529993 0.0070212086 0.0042324677)
(-0.59941729 0.012652525 0.0067030846)
(-0.81229335 0.018274296 0.0077462033)
(-0.94222349 0.022756107 0.0063136232)
(-0.96501504 0.025393644 0.002201376)
(-0.90134974 0.026172499 -0.002906201)
(-0.8038692 0.025462576 -0.0067392383)
(-0.71652495 0.02441253 -0.0092298987)
(-0.1231111 0.0022074214 0.0012088576)
(-0.36785603 0.0069622559 0.0036493092)
(-0.61927069 0.012507394 0.0055982325)
(-0.82929919 0.017950122 0.0060111037)
(-0.9472977 0.022165946 0.0039117503)
(-0.95332881 0.024542804 -0.00065356269)
(-0.87602132 0.02493758 -0.0055561428)
(-0.77275953 0.023789599 -0.0084224662)
(-0.68533215 0.022623403 -0.0097449958)
(-0.12780885 0.0021069144 0.00099143248)
(-0.37964074 0.006647249 0.00296866)
(-0.63432588 0.011910165 0.0043657046)
(-0.84069585 0.017010992 0.0041880617)
(-0.94746917 0.02089483 0.0015191295)
(-0.93897044 0.023044928 -0.0033502231)
(-0.8510856 0.023132653 -0.0079304768)
(-0.744599 0.021713349 -0.0099091831)
(-0.65845634 0.020690521 -0.010375318)
(-0.13154087 0.0019327313 0.00077716605)
(-0.3887135 0.006095376 0.0022914196)
(-0.64525064 0.010893511 0.0031424067)
(-0.84751287 0.015485124 0.002391067)
(-0.94410242 0.018818198 -0.00072664348)
(-0.92326482 0.020678332 -0.0057065283)
(-0.82719885 0.020698244 -0.0099270091)
(-0.71922422 0.019231934 -0.011236331)
(-0.63512505 0.018546552 -0.011080017)
(-0.13435143 0.0016796516 0.00057204451)
(-0.39535801 0.0053045547 0.0016450009)
(-0.65275393 0.0094790706 0.0019863261)
(-0.85094633 0.013453362 0.00072731188)
(-0.93873885 0.01629154 -0.0027449515)
(-0.90769824 0.017824378 -0.0077291782)
(-0.80545602 0.017700133 -0.011507941)
(-0.69699307 0.016339033 -0.012393213)
(-0.6150231 0.01599769 -0.011840121)
(-0.13638172 0.0013622861 0.00039213155)
(-0.40003095 0.0043088119 0.0010786708)
(-0.65767545 0.0076962496 0.00098736064)
(-0.85222771 0.010865989 -0.00066053503)
(-0.93269564 0.013227175 -0.0043942792)
(-0.89361065 0.014433318 -0.0093369059)
(-0.78686632 0.014219941 -0.012648438)
(-0.67841169 0.013151156 -0.013286226)
(-0.59829433 0.01302882 -0.012521433)
(-0.13776523 0.0010032059 0.00024744077)
(-0.40314045 0.003178636 0.00062366848)
(-0.66071304 0.0056811907 0.00019594945)
(-0.85230232 0.0080190465 -0.0017378427)
(-0.9271322 0.0097704768 -0.005640064)
(-0.88207333 0.0106531 -0.01052885)
(-0.77220194 0.010455187 -0.013452608)
(-0.66397437 0.0097804241 -0.013910503)
(-0.58538516 0.0097078249 -0.012988727)
(-0.13874045 0.00061930415 0.00014629036)
(-0.40521281 0.0019611626 0.00030384967)
(-0.6625275 0.0035017641 -0.00036197062)
(-0.85186723 0.0049402702 -0.0024965668)
(-0.92276186 0.0060249407 -0.0065071169)
(-0.87374874 0.0065715949 -0.011343317)
(-0.76196524 0.0064516707 -0.014030972)
(-0.65405637 0.0061052251 -0.014308259)
(-0.57658977 0.006019105 -0.01322531)
(-0.13909586 0.00020770176 9.7209622e-05)
(-0.4059979 0.00065711995 0.00014858346)
(-0.66319983 0.0011733826 -0.00063344741)
(-0.85151635 0.0016550011 -0.002867281)
(-0.92053526 0.0020194358 -0.0069326226)
(-0.869577 0.0022034101 -0.011741989)
(-0.75682982 0.0021648156 -0.014322977)
(-0.64906502 0.0020651816 -0.014502314)
(-0.57215121 0.0020338564 -0.013319783)
(-0.13909586 -0.00020766516 9.7206801e-05)
(-0.40599791 -0.0006570471 0.00014860133)
(-0.66319983 -0.0011733187 -0.00063342823)
(-0.85151635 -0.0016549828 -0.0028672949)
(-0.92053528 -0.0020194556 -0.0069326574)
(-0.86957703 -0.0022035341 -0.011742008)
(-0.75682986 -0.0021649556 -0.014323001)
(-0.64906506 -0.0020652113 -0.014502312)
(-0.57215124 -0.0020337661 -0.013319768)
(-0.13874046 -0.00061926737 0.00014629592)
(-0.40521282 -0.0019610874 0.00030391639)
(-0.66252751 -0.0035016971 -0.00036190759)
(-0.85186726 -0.0049402522 -0.00249661)
(-0.92276192 -0.0060249909 -0.0065072037)
(-0.87374884 -0.0065717859 -0.011343353)
(-0.76196535 -0.0064518946 -0.014031033)
(-0.65405648 -0.0061053316 -0.014308256)
(-0.57658985 -0.0060190377 -0.013225279)
(-0.13776523 -0.0010031891 0.00024746057)
(-0.40314047 -0.0031785884 0.00062374671)
(-0.66071307 -0.0056811285 0.0001960038)
(-0.8523024 -0.008019037 -0.0017379223)
(-0.9271323 -0.0097705918 -0.0056401478)
(-0.88207346 -0.010653396 -0.010528861)
(-0.77220209 -0.010455538 -0.013452686)
(-0.66397452 -0.0097806563 -0.013910508)
(-0.58538528 -0.0097077985 -0.012988717)
(-0.13638172 -0.0013622793 0.00039212856)
(-0.40003096 -0.004308781 0.0010786434)
(-0.65767551 -0.0076961878 0.00098732012)
(-0.85222781 -0.010866006 -0.00066060848)
(-0.93269575 -0.013227368 -0.0043942824)
(-0.89361077 -0.014433686 -0.0093368697)
(-0.78686645 -0.014220394 -0.012648516)
(-0.67841185 -0.013151513 -0.013286248)
(-0.59829448 -0.013028853 -0.012521479)
(-0.13435144 -0.0016796265 0.00057201251)
(-0.39535804 -0.0053045084 0.0016449226)
(-0.65275398 -0.0094790114 0.0019863307)
(-0.85094638 -0.013453409 0.0007273744)
(-0.93873893 -0.016291758 -0.0027448698)
(-0.90769833 -0.017824721 -0.0077291372)
(-0.80545613 -0.017700603 -0.011508)
(-0.69699323 -0.016339449 -0.012393243)
(-0.6150233 -0.015997787 -0.011840208)
(-0.13154089 -0.0019327308 0.00077717082)
(-0.38871354 -0.0060953828 0.0022914756)
(-0.64525068 -0.010893505 0.0031425611)
(-0.84751291 -0.015485175 0.0023911869)
(-0.94410252 -0.018818374 -0.00072661069)
(-0.92326495 -0.020678583 -0.0057065213)
(-0.82719899 -0.020698637 -0.0099270126)
(-0.71922442 -0.019232295 -0.011236336)
(-0.63512525 -0.018546681 -0.011080096)
(-0.12780886 -0.002106914 0.00099141703)
(-0.37964077 -0.0066472513 0.0029686245)
(-0.63432593 -0.011910154 0.0043656508)
(-0.84069587 -0.01701102 0.0041879922)
(-0.94746929 -0.020895012 0.0015190796)
(-0.93897064 -0.023045184 -0.0033502027)
(-0.85108582 -0.023132975 -0.0079303998)
(-0.74459923 -0.021713594 -0.0099091148)
(-0.6584565 -0.020690634 -0.010375367)
(-0.1231111 -0.0022074077 0.0012088326)
(-0.36785602 -0.0069622153 0.0036492959)
(-0.61927066 -0.012507333 0.0055983001)
(-0.82929917 -0.017950117 0.0060112451)
(-0.94729779 -0.022166149 0.0039118372)
(-0.95332901 -0.024543157 -0.00065349856)
(-0.87602158 -0.02493793 -0.0055560217)
(-0.77275976 -0.023789784 -0.008422294)
(-0.68533227 -0.022623409 -0.0097449861)
(-0.11733272 -0.0022253826 0.0013926831)
(-0.35299932 -0.007021228 0.004232518)
(-0.59941734 -0.012652586 0.0067031796)
(-0.81229342 -0.018274441 0.0077462981)
(-0.94222357 -0.022756394 0.0063136677)
(-0.96501523 -0.025394062 0.0022014724)
(-0.90134996 -0.026172856 -0.002906059)
(-0.80386936 -0.025462736 -0.0067390373)
(-0.71652507 -0.024412466 -0.0092297452)
(-0.11027707 -0.0021198697 0.0015179903)
(-0.334542 -0.0067222012 0.0046521667)
(-0.57394321 -0.012209036 0.0075709631)
(-0.78863953 -0.017837481 0.009237953)
(-0.9311557 -0.02252709 0.0085334415)
(-0.97307004 -0.025460187 0.0050288448)
(-0.92691298 -0.026668287 -0.00014843713)
(-0.83873967 -0.026492667 -0.0048908027)
(-0.75337153 -0.025766382 -0.0087434449)
(-0.10222115 -0.0019365728 0.0015883002)
(-0.31306648 -0.0061671247 0.0048930009)
(-0.54344493 -0.011293792 0.00812392)
(-0.75867839 -0.016720013 0.010305236)
(-0.91415703 -0.02148029 0.010293501)
(-0.97781438 -0.024697434 0.0074662972)
(-0.95341072 -0.026320803 0.0024928326)
(-0.87881924 -0.026772261 -0.0028555179)
(-0.79781071 -0.026530159 -0.0078467231)
(-0.093424355 -0.0015905055 0.0014662729)
(-0.28949381 -0.0051530803 0.0045790495)
(-0.50960302 -0.009646438 0.0077869407)
(-0.72462095 -0.014673782 0.010284408)
(-0.89343912 -0.019431314 0.011008533)
(-0.9812152 -0.023019069 0.0091564807)
(-0.98293509 -0.025139719 0.0049112368)
(-0.92688831 -0.026274464 -0.00037734788)
(-0.85396552 -0.026544006 -0.0057832018)
(-0.07786909 0.00093957317 0.00083932694)
(-0.24245658 0.002807905 0.0024516431)
(-0.42898416 0.0048008983 0.0038894739)
(-0.61287258 0.0065840877 0.0045204986)
(-0.75702349 0.0077354154 0.0034070437)
(-0.82702036 0.0077949346 -0.0001654275)
(-0.81447546 0.006454571 -0.0060022279)
(-0.74541382 0.0038580032 -0.012338816)
(-0.66042133 0.0011141037 -0.017126688)
(-0.084626311 0.00090820723 0.00070734116)
(-0.26077924 0.0026285971 0.0020086113)
(-0.45561132 0.0043430314 0.0029862748)
(-0.63974228 0.0056910349 0.0029306481)
(-0.77215147 0.0062751409 0.0008138309)
(-0.81944096 0.005704853 -0.004009132)
(-0.78074652 0.0038089191 -0.010982388)
(-0.69162719 0.0010139644 -0.01792162)
(-0.59604597 -0.0016077445 -0.022501469)
(-0.090787904 0.00087119964 0.00057700953)
(-0.27748891 0.0024499182 0.0015829434)
(-0.47980867 0.003915578 0.0021492179)
(-0.66387744 0.0049016933 0.001527576)
(-0.78520329 0.0050722133 -0.0013659014)
(-0.81201808 0.0041496751 -0.0071161954)
(-0.75103124 0.0021129162 -0.014904632)
(-0.64607711 -0.00044306148 -0.022163803)
(-0.54379456 -0.0027200158 -0.026343001)
(-0.096126098 0.00082263207 0.00045871912)
(-0.29176449 0.0022495975 0.001202299)
(-0.50004093 0.0034782387 0.0014065367)
(-0.6831699 0.0041524151 0.00029372872)
(-0.79392088 0.0040056517 -0.0032529438)
(-0.80261144 0.002857342 -0.0097706579)
(-0.723173 0.00084184333 -0.018162798)
(-0.60617222 -0.0014204495 -0.025585722)
(-0.49958227 -0.0034350864 -0.029364519)
(-0.10038669 0.00075854834 0.00035096526)
(-0.30301305 0.0020232314 0.00086670914)
(-0.51556724 0.0030331816 0.00076995224)
(-0.69693583 0.0034560829 -0.00074296009)
(-0.79775667 0.0030885525 -0.0048271219)
(-0.79060954 0.0018278947 -0.011948814)
(-0.69613751 -5.8175511e-05 -0.020797272)
(-0.57040493 -0.0019790005 -0.028299551)
(-0.46160976 -0.0037399999 -0.031639364)
(-0.10374279 0.00068148992 0.00024932188)
(-0.31165934 0.0017790327 0.00056086103)
(-0.52696726 0.0025934169 0.00021345705)
(-0.70578344 0.0028245585 -0.0016136889)
(-0.79719854 0.0023264413 -0.0061147706)
(-0.77622689 0.0010386063 -0.013710302)
(-0.66960506 -0.00063458315 -0.022903512)
(-0.53787594 -0.0021903944 -0.030424136)
(-0.42865512 -0.0037950002 -0.033275121)
(-0.10631024 0.0005873143 0.00015985848)
(-0.318037 0.0015046001 0.00029896319)
(-0.53479977 0.0021397356 -0.00024658833)
(-0.71047201 0.002246735 -0.0023068869)
(-0.79308064 0.0018369364 -0.0071466911)
(-0.76023597 0.00065855223 -0.015172847)
(-0.64397063 -0.00089281421 -0.024603952)
(-0.50837181 -0.0021397246 -0.032044143)
(-0.40009098 -0.0036756993 -0.034400179)
(-0.1081429 0.00048158097 8.5574395e-05)
(-0.32242269 0.0012118746 8.9993129e-05)
(-0.53971779 0.001677749 -0.00059286736)
(-0.71212155 0.0016817381 -0.0028037143)
(-0.78696922 0.0012882624 -0.0078910816)
(-0.74421486 0.00030845834 -0.016260252)
(-0.62033857 -0.00093007942 -0.025932853)
(-0.48235867 -0.0019198529 -0.033198235)
(-0.37592136 -0.0033988098 -0.035091398)
(-0.10938332 0.00037338033 2.7360071e-05)
(-0.32526437 0.00092821823 -6.8469543e-05)
(-0.54252504 0.0012678693 -0.0008463457)
(-0.71188316 0.0012824129 -0.0031746208)
(-0.78028109 0.00087170819 -0.0084286736)
(-0.72955801 9.7073022e-05 -0.017044795)
(-0.59982757 -0.00080336308 -0.026938298)
(-0.4604764 -0.0016332334 -0.033955707)
(-0.35632207 -0.0029634292 -0.0354565)
(-0.11017176 0.0002634003 -1.4923113e-05)
(-0.32698639 0.00064700413 -0.00018018424)
(-0.54394585 0.00086864045 -0.0010195277)
(-0.71076395 0.00085826185 -0.0034250258)
(-0.77414268 0.00053948442 -0.008792318)
(-0.71741886 -2.3213962e-05 -0.017571993)
(-0.58341287 -0.00062935507 -0.027626026)
(-0.44334272 -0.0013034859 -0.034406348)
(-0.34128387 -0.0023201255 -0.035631157)
(-0.11073987 0.00015747656 -4.231999e-05)
(-0.32812367 0.00038335099 -0.00025212561)
(-0.54468125 0.00050784706 -0.0011301792)
(-0.70952259 0.00049145457 -0.003580579)
(-0.76933326 0.00028738604 -0.0090145082)
(-0.70856189 -5.5538009e-05 -0.017887486)
(-0.57183752 -0.00041810782 -0.028006428)
(-0.43149899 -0.00085919957 -0.034642734)
(-0.33103947 -0.0014706122 -0.035706394)
(-0.11090172 5.1784788e-05 -5.5050464e-05)
(-0.32844807 0.0001247689 -0.00028460532)
(-0.54480248 0.000163414 -0.0011777696)
(-0.70874227 0.00015489815 -0.0036445683)
(-0.76685942 8.4832389e-05 -0.0091052761)
(-0.7040968 -2.9561416e-05 -0.018022544)
(-0.56600306 -0.00014857112 -0.028169245)
(-0.4255227 -0.00030027504 -0.034738942)
(-0.32587267 -0.00050130634 -0.035731071)
(-0.11090172 -5.1770349e-05 -5.5054338e-05)
(-0.32844807 -0.00012473689 -0.00028462186)
(-0.54480247 -0.00016337016 -0.0011777886)
(-0.70874227 -0.00015490884 -0.003644575)
(-0.76685943 -8.4992168e-05 -0.0091052688)
(-0.70409682 2.9241384e-05 -0.01802254)
(-0.5660031 0.00014818832 -0.028169246)
(-0.42552274 0.00030000502 -0.034738956)
(-0.3258727 0.00050139014 -0.035731095)
(-0.11073988 -0.00015745236 -4.2331453e-05)
(-0.32812367 -0.00038330222 -0.00025216583)
(-0.54468125 -0.00050779059 -0.0011302203)
(-0.70952259 -0.00049146191 -0.0035805881)
(-0.76933331 -0.00028754876 -0.0090144888)
(-0.70856197 5.5221304e-05 -0.017887477)
(-0.57183763 0.00041772203 -0.028006427)
(-0.43149912 0.00085892166 -0.034642767)
(-0.33103957 0.0014706735 -0.035706453)
(-0.11017177 -0.00026336486 -1.4932404e-05)
(-0.32698641 -0.00064693749 -0.00018021088)
(-0.54394587 -0.0008685732 -0.0010195438)
(-0.71076398 -0.00085826694 -0.0034250151)
(-0.77414277 -0.00053964915 -0.0087922942)
(-0.71741897 2.2896912e-05 -0.017571984)
(-0.58341304 0.00062896277 -0.027626011)
(-0.44334291 0.0013032009 -0.034406381)
(-0.34128402 0.002320165 -0.035631221)
(-0.10938333 -0.0003733488 2.7368062e-05)
(-0.3252644 -0.00092815966 -6.8449629e-05)
(-0.54252508 -0.0012678086 -0.00084631587)
(-0.71188322 -0.0012824187 -0.003174597)
(-0.78028122 -0.00087187705 -0.0084286575)
(-0.72955814 -9.7412631e-05 -0.017044779)
(-0.59982776 0.0008029529 -0.026938258)
(-0.46047663 0.0016329503 -0.033955721)
(-0.35632227 0.0029634782 -0.035456554)
(-0.10814291 -0.00048156653 8.5587604e-05)
(-0.32242272 -0.0012118453 9.0008062e-05)
(-0.53971786 -0.0016777113 -0.0005928709)
(-0.71212164 -0.0016817572 -0.0028037212)
(-0.78696933 -0.001288456 -0.0078910616)
(-0.74421498 -0.00030885704 -0.016260202)
(-0.62033876 0.00092963492 -0.025932787)
(-0.48235891 0.00191958 -0.033198234)
(-0.37592159 0.0033989103 -0.035091448)
(-0.10631025 -0.00058730023 0.00015984969)
(-0.31803705 -0.0015045745 0.00029891468)
(-0.53479986 -0.0021397163 -0.00024665765)
(-0.7104721 -0.0022467872 -0.0023068981)
(-0.79308073 -0.0018371753 -0.0071466194)
(-0.7602361 -0.00065901895 -0.015172746)
(-0.64397083 0.00089232603 -0.024603881)
(-0.50837205 0.0021394598 -0.032044149)
(-0.40009121 0.0036758563 -0.034400231)
(-0.1037428 -0.00068147556 0.00024931634)
(-0.31165936 -0.0017790141 0.00056083557)
(-0.5269673 -0.0025934233 0.00021344423)
(-0.70578351 -0.0028246473 -0.001613634)
(-0.79719866 -0.0023266944 -0.006114635)
(-0.77622709 -0.0010390722 -0.01371017)
(-0.6696053 0.00063408942 -0.022903456)
(-0.53787619 0.002190143 -0.030424151)
(-0.42865532 0.003795171 -0.033275135)
(-0.1003867 -0.00075854202 0.00035096157)
(-0.30301307 -0.0020232426 0.00086667801)
(-0.5155673 -0.0030332424 0.00076990451)
(-0.69693594 -0.0034562349 -0.00074295674)
(-0.79775683 -0.0030888313 -0.004827007)
(-0.79060981 -0.0018283312 -0.011948672)
(-0.6961378 5.7706279e-05 -0.020797187)
(-0.57040519 0.001978769 -0.028299497)
(-0.4616099 0.0037401506 -0.031639268)
(-0.096126103 -0.00082262459 0.0004587133)
(-0.29176451 -0.0022496063 0.0012022685)
(-0.50004097 -0.0034783064 0.0014064911)
(-0.68316999 -0.0041526059 0.00029372933)
(-0.79392104 -0.0040059943 -0.003252826)
(-0.80261169 -0.0028578155 -0.0097704617)
(-0.72317328 -0.00084232303 -0.018162597)
(-0.60617243 0.0014202043 -0.025585497)
(-0.49958236 0.0034352761 -0.029364349)
(-0.090787903 -0.00087119391 0.00057700491)
(-0.2774889 -0.0024499334 0.0015829223)
(-0.47980868 -0.0039156525 0.0021492008)
(-0.6638775 -0.0049018988 0.0015276169)
(-0.78520345 -0.0050725817 -0.0013657205)
(-0.81201832 -0.0041501607 -0.0071158966)
(-0.75103146 -0.002113371 -0.014904275)
(-0.64607726 0.00044282627 -0.022163466)
(-0.54379462 0.002720278 -0.026342859)
(-0.084626307 -0.00090821299 0.00070734185)
(-0.26077923 -0.0026286387 0.0020086159)
(-0.45561132 -0.0043431378 0.0029863075)
(-0.63974233 -0.0056912617 0.0029307573)
(-0.77215162 -0.0062755201 0.00081408496)
(-0.81944117 -0.0057053266 -0.0040087378)
(-0.78074668 -0.0038093312 -0.010981883)
(-0.69162732 -0.0010141749 -0.017921201)
(-0.59604589 0.0016078863 -0.022501126)
(-0.077869082 -0.00093958444 0.00083933517)
(-0.24245656 -0.0028079527 0.0024516718)
(-0.42898414 -0.0048009965 0.0038895436)
(-0.61287258 -0.006584256 0.0045206544)
(-0.75702358 -0.0077356736 0.0034073369)
(-0.82702051 -0.0077952632 -0.00016497468)
(-0.81447555 -0.0064548158 -0.0060016516)
(-0.74541389 -0.0038580184 -0.012338301)
(-0.66042116 -0.0011140109 -0.017126359)
(-0.085963153 0.00031141325 0.00028473745)
(-0.26686086 0.0009136108 0.0008132257)
(-0.47080121 0.0014603383 0.0012002226)
(-0.67081824 0.0016070864 0.0011781409)
(-0.8273444 0.00081655693 0.00042947866)
(-0.90485001 -0.001421246 -0.001337806)
(-0.89542853 -0.0051822794 -0.0042094955)
(-0.82643191 -0.0098081271 -0.0078035388)
(-0.74001178 -0.014320199 -0.011515513)
(-0.093695166 0.00035866986 0.00028971069)
(-0.28785165 0.0010213275 0.00080459814)
(-0.50153641 0.0015616419 0.0011063833)
(-0.70275198 0.0015519968 0.00087239143)
(-0.84805726 0.0003684393 -0.00026570459)
(-0.90313713 -0.0025124846 -0.0025979411)
(-0.86767566 -0.0070280261 -0.0061124678)
(-0.77805271 -0.012215329 -0.010222344)
(-0.68000207 -0.016798139 -0.01423137)
(-0.10079719 0.00039796157 0.00027622476)
(-0.3071601 0.0011055571 0.00073816245)
(-0.52979552 0.0016318339 0.00091194098)
(-0.7320429 0.0014894067 0.0004485641)
(-0.86708564 1.344057e-05 -0.0010251755)
(-0.90234813 -0.0032826042 -0.0037753499)
(-0.84487053 -0.0081696551 -0.0076974637)
(-0.73877877 -0.013484602 -0.011990944)
(-0.63290869 -0.017891076 -0.015690242)
(-0.1070007 0.00040321178 0.00023812608)
(-0.32383822 0.0010928804 0.00060124979)
(-0.55382869 0.001550047 0.00060289545)
(-0.75628781 0.0012537933 -0.00011889995)
(-0.8817652 -0.00046668611 -0.0019187333)
(-0.89976327 -0.0040392801 -0.0050185814)
(-0.82401365 -0.0090887035 -0.0091760507)
(-0.70513214 -0.014323151 -0.013401406)
(-0.59372232 -0.018415312 -0.016575449)
(-0.11202783 0.0003783585 0.0001884119)
(-0.33723565 0.00099667194 0.00043607739)
(-0.57281105 0.0013414269 0.00026365782)
(-0.77468547 0.00088477034 -0.0006908213)
(-0.89135903 -0.0010199585 -0.0027556978)
(-0.89446456 -0.0047258039 -0.0060936744)
(-0.80373651 -0.0097472053 -0.010338831)
(-0.6751869 -0.014703367 -0.014341076)
(-0.56024604 -0.018309175 -0.016942504)
(-0.116063 0.00033350435 0.00013466447)
(-0.34779919 0.0008477521 0.00026592355)
(-0.58733637 0.0010589332 -6.070599e-05)
(-0.78781488 0.00045921421 -0.0011926464)
(-0.89624839 -0.0015409081 -0.0034224346)
(-0.88644367 -0.0052082518 -0.0068666003)
(-0.78346793 -0.0099877636 -0.011062044)
(-0.647825 -0.01449719 -0.014749201)
(-0.53105634 -0.017524716 -0.016845012)
(-0.11922201 0.00027576316 8.6401304e-05)
(-0.35586186 0.00066874323 0.00011803956)
(-0.59795669 0.0007468738 -0.00032859207)
(-0.79640675 4.6963428e-05 -0.0015771369)
(-0.89721706 -0.0019388169 -0.003881183)
(-0.87631252 -0.0053902029 -0.0073217572)
(-0.76341951 -0.0097295023 -0.011366507)
(-0.62274452 -0.013660433 -0.014697732)
(-0.50545308 -0.01608693 -0.016397694)
(-0.12155075 0.00021438323 4.7430287e-05)
(-0.36167858 0.00049050655 3.9575009e-06)
(-0.60528244 0.00046275746 -0.00052155899)
(-0.80149538 -0.00026914377 -0.0018257459)
(-0.89560538 -0.0021177843 -0.0041276045)
(-0.86541476 -0.005187867 -0.0074890131)
(-0.74459669 -0.0089207742 -0.011335107)
(-0.60038581 -0.012175088 -0.014329908)
(-0.48336606 -0.014008284 -0.015716154)
(-0.12319105 0.00015658026 1.8999242e-05)
(-0.36568908 0.0003348333 -7.4711364e-05)
(-0.61008967 0.00024409705 -0.00064286376)
(-0.80417648 -0.00043837417 -0.0019570227)
(-0.89271807 -0.0020266045 -0.0042052204)
(-0.85505408 -0.0045637693 -0.0074476044)
(-0.72806682 -0.0075743181 -0.011100006)
(-0.58139491 -0.010104286 -0.013837013)