/*--------------------------------*- C++ -*----------------------------------*\
  =========                 |
  \\      /  F ield         | OpenFOAM: The Open Source CFD Toolbox
   \\    /   O peration     | Website:  https://openfoam.org
    \\  /    A nd           | Version:  10
     \\/     M anipulation  |
\*---------------------------------------------------------------------------*/
FoamFile
{
    format      ascii;
    class       volScalarField;
    location    "9.6";
    object      T;
}
// * * * * * * * * * * * * * * * * * * * * * * * * * * * * * * * * * * * * * //

dimensions      [0 0 -1 0 0 0 0];

internalField   nonuniform List<scalar> 
100
(
-0.0330432
-0.0979584
-0.159403
-0.215201
-0.263376
-0.30222
-0.330358
-0.346793
-0.350942
-0.342659
-0.322238
-0.2904
-0.248276
-0.197356
-0.139444
-0.0765932
-0.0110285
0.0549268
0.118936
0.178732
0.232197
0.277436
0.312846
0.337174
0.349557
0.349557
0.337174
0.312846
0.277435
0.232197
0.178732
0.118936
0.0549263
-0.011029
-0.0765936
-0.139445
-0.197356
-0.248276
-0.290401
-0.322238
-0.342659
-0.350942
-0.346792
-0.330357
-0.302219
-0.263375
-0.215201
-0.159403
-0.0979577
-0.0330425
0.0330432
0.0979584
0.159403
0.215201
0.263376
0.30222
0.330358
0.346792
0.350942
0.342659
0.322237
0.2904
0.248276
0.197356
0.139444
0.0765929
0.0110283
-0.054927
-0.118937
-0.178733
-0.232197
-0.277436
-0.312846
-0.337174
-0.349557
-0.349557
-0.337174
-0.312846
-0.277435
-0.232196
-0.178732
-0.118936
-0.0549261
0.0110293
0.0765939
0.139445
0.197356
0.248276
0.290401
0.322238
0.342659
0.350942
0.346792
0.330358
0.30222
0.263375
0.215201
0.159403
0.0979577
0.0330425
)
;

boundaryField
{
    inlet
    {
        type            cyclic;
    }
    outlet
    {
        type            cyclic;
    }
    bottom
    {
        type            slip;
    }
    top
    {
        type            slip;
    }
    frontAndBack
    {
        type            empty;
    }
}


// ************************************************************************* //
