/*--------------------------------*- C++ -*----------------------------------*\
  =========                 |
  \\      /  F ield         | OpenFOAM: The Open Source CFD Toolbox
   \\    /   O peration     | Website:  https://openfoam.org
    \\  /    A nd           | Version:  10
     \\/     M anipulation  |
\*---------------------------------------------------------------------------*/
FoamFile
{
    format      ascii;
    class       volScalarField;
    location    "3.1";
    object      T;
}
// * * * * * * * * * * * * * * * * * * * * * * * * * * * * * * * * * * * * * //

dimensions      [0 0 -1 0 0 0 0];

internalField   nonuniform List<scalar> 
100
(
0.0673653
0.199708
0.324976
0.438731
0.536945
0.616136
0.673501
0.707007
0.715466
0.69858
0.656946
0.59204
0.50616
0.402349
0.284285
0.15615
0.0224834
-0.11198
-0.242476
-0.364383
-0.473381
-0.565609
-0.6378
-0.687397
-0.712643
-0.712643
-0.687397
-0.637799
-0.565608
-0.473379
-0.364381
-0.242474
-0.111978
0.0224852
0.156152
0.284287
0.402351
0.506161
0.592041
0.656947
0.698581
0.715466
0.707007
0.673501
0.616136
0.536944
0.43873
0.324975
0.199707
0.0673639
-0.0673653
-0.199708
-0.324976
-0.438732
-0.536945
-0.616136
-0.673501
-0.707007
-0.715466
-0.69858
-0.656946
-0.59204
-0.50616
-0.40235
-0.284286
-0.15615
-0.0224837
0.11198
0.242476
0.364382
0.47338
0.565609
0.6378
0.687397
0.712643
0.712643
0.687397
0.6378
0.565608
0.47338
0.364381
0.242475
0.111978
-0.0224849
-0.156152
-0.284287
-0.402351
-0.506161
-0.592041
-0.656947
-0.69858
-0.715466
-0.707006
-0.673501
-0.616136
-0.536944
-0.43873
-0.324975
-0.199707
-0.0673638
)
;

boundaryField
{
    inlet
    {
        type            cyclic;
    }
    outlet
    {
        type            cyclic;
    }
    bottom
    {
        type            slip;
    }
    top
    {
        type            slip;
    }
    frontAndBack
    {
        type            empty;
    }
}


// ************************************************************************* //
