/*--------------------------------*- C++ -*----------------------------------*\
| =========                 |                                                 |
| \\      /  F ield         | OpenFOAM: The Open Source CFD Toolbox           |
|  \\    /   O peration     | Version:  2406                                  |
|   \\  /    A nd           | Website:  www.openfoam.com                      |
|    \\/     M anipulation  |                                                 |
\*---------------------------------------------------------------------------*/
FoamFile
{
    version     2.0;
    format      ascii;
    arch        "LSB;label=32;scalar=64";
    class       volScalarField;
    location    "15";
    object      p;
}
// * * * * * * * * * * * * * * * * * * * * * * * * * * * * * * * * * * * * * //

dimensions      [0 2 -2 0 0 0 0];

internalField   nonuniform List<scalar> 
1176
(
0.79699967
0.79702255
0.79704621
0.79705387
0.79702235
0.79692765
0.79677042
0.79658425
0.79640505
0.7962379
0.79608327
0.79598767
0.79598767
0.79608327
0.79623789
0.79640504
0.79658423
0.79677038
0.79692759
0.79702225
0.79705375
0.79704604
0.79702235
0.79699947
0.77385124
0.77380429
0.77375653
0.77373963
0.77380213
0.77400449
0.77436981
0.77483421
0.77526507
0.77555117
0.77567057
0.77570483
0.77570483
0.77567057
0.77555118
0.77526509
0.77483425
0.77436987
0.77400458
0.77380225
0.77373977
0.77375669
0.77380445
0.77385141
0.75676649
0.7567885
0.7568083
0.75680639
0.75674732
0.75658615
0.75631438
0.75598643
0.75568022
0.75546743
0.75535663
0.75530781
0.75530781
0.75535662
0.75546742
0.75568021
0.75598642
0.75631436
0.75658613
0.7567473
0.75680636
0.75680827
0.75678848
0.75676647
0.7400946
0.74010373
0.74011578
0.74013218
0.74015473
0.7401723
0.74014006
0.74000665
0.73977454
0.73950198
0.73927777
0.73915727
0.73915727
0.73927777
0.73950198
0.73977454
0.74000665
0.74014006
0.74017229
0.74015472
0.74013217
0.74011577
0.74010371
0.74009458
0.72367555
0.72367951
0.7236845
0.72369056
0.72370026
0.72372054
0.72375672
0.72379823
0.7238199
0.72379603
0.72373391
0.72368128
0.72368128
0.72373391
0.72379603
0.7238199
0.72379823
0.72375672
0.72372054
0.72370026
0.72369056
0.7236845
0.72367951
0.72367556
0.7072139
0.70721631
0.70721956
0.7072236
0.70722851
0.70723534
0.70724951
0.70728083
0.70733081
0.70738806
0.70743077
0.70744742
0.70744742
0.70743077
0.70738806
0.70733081
0.70728082
0.70724951
0.70723534
0.70722851
0.7072236
0.70721956
0.70721631
0.7072139
0.69080809
0.69081023
0.69081304
0.69081647
0.69082036
0.69082388
0.69082594
0.69082812
0.69083667
0.6908539
0.6908718
0.69088351
0.69088351
0.6908718
0.6908539
0.69083667
0.69082812
0.69082594
0.69082388
0.69082037
0.69081647
0.69081304
0.69081023
0.6908081
0.67442823
0.67442999
0.67443231
0.67443523
0.67443891
0.67444328
0.67444773
0.67445089
0.67445212
0.67445374
0.67445078
0.67444827
0.67444827
0.67445078
0.67445374
0.67445212
0.67445088
0.67444773
0.67444328
0.67443891
0.67443524
0.67443232
0.67442999
0.67442823
0.65807395
0.6580754
0.65807733
0.65807974
0.65808276
0.65808654
0.65809159
0.65809864
0.65810732
0.65811735
0.65812512
0.6581287
0.6581287
0.65812512
0.65811735
0.65810732
0.65809863
0.65809159
0.65808654
0.65808276
0.65807975
0.65807733
0.65807541
0.65807395
0.64173626
0.64173746
0.64173907
0.6417411
0.64174367
0.64174685
0.64175101
0.6417574
0.64176756
0.64178069
0.64179502
0.64180432
0.64180432
0.64179502
0.64178069
0.64176755
0.6417574
0.64175101
0.64174685
0.64174367
0.64174111
0.64173907
0.64173746
0.64173626
0.62541188
0.62541291
0.62541428
0.62541603
0.62541824
0.62542097
0.62542436
0.62542921
0.62543707
0.62544773
0.62546029
0.62546943
0.62546943
0.62546029
0.62544773
0.62543707
0.62542921
0.62542436
0.62542097
0.62541824
0.62541603
0.62541428
0.62541291
0.62541188
0.60909841
0.6090993
0.6091005
0.60910202
0.60910397
0.60910636
0.60910933
0.60911334
0.60911955
0.60912821
0.60913878
0.60914623
0.60914623
0.60913878
0.60912821
0.60911955
0.60911333
0.60910933
0.60910637
0.60910397
0.60910203
0.6091005
0.6090993
0.60909841
0.59279422
0.592795
0.59279606
0.59279741
0.59279913
0.59280126
0.59280389
0.59280743
0.59281283
0.59282058
0.59283027
0.59283695
0.59283695
0.59283027
0.59282058
0.59281283
0.59280743
0.59280389
0.59280126
0.59279913
0.59279741
0.59279606
0.59279501
0.59279422
0.576498
0.5764987
0.57649964
0.57650084
0.57650238
0.57650429
0.57650663
0.57650977
0.57651454
0.57652151
0.57653018
0.57653627
0.57653627
0.57653018
0.57652151
0.57651454
0.57650977
0.57650663
0.57650429
0.57650238
0.57650085
0.57649964
0.5764987
0.576498
0.56020873
0.56020936
0.56021021
0.56021129
0.56021267
0.56021439
0.56021649
0.56021925
0.56022341
0.56022954
0.56023707
0.56024247
0.56024247
0.56023707
0.56022954
0.56022341
0.56021925
0.56021649
0.56021439
0.56021268
0.56021129
0.56021021
0.56020937
0.56020874
0.54392562
0.54392618
0.54392695
0.54392793
0.54392918
0.54393074
0.54393263
0.54393509
0.54393872
0.5439441
0.54395064
0.54395543
0.54395543
0.54395064
0.5439441
0.54393872
0.54393509
0.54393263
0.54393074
0.54392919
0.54392793
0.54392695
0.54392619
0.54392562
0.52764799
0.52764851
0.5276492
0.5276501
0.52765124
0.52765266
0.52765438
0.52765658
0.5276598
0.52766456
0.52767029
0.52767458
0.52767458
0.52767029
0.52766456
0.5276598
0.52765658
0.52765438
0.52765266
0.52765124
0.5276501
0.52764921
0.52764852
0.527648
0.51137532
0.51137579
0.51137643
0.51137724
0.51137829
0.51137959
0.51138116
0.51138315
0.51138602
0.51139027
0.51139532
0.51139919
0.51139919
0.51139532
0.51139027
0.51138602
0.51138315
0.51138116
0.51137959
0.51137829
0.51137725
0.51137643
0.5113758
0.51137533
0.49510712
0.49510756
0.49510814
0.49510889
0.49510985
0.49511105
0.49511249
0.49511429
0.49511687
0.49512068
0.49512517
0.49512866
0.49512866
0.49512517
0.49512067
0.49511687
0.49511429
0.49511249
0.49511105
0.49510986
0.4951089
0.49510815
0.49510757
0.49510714
0.47884302
0.47884342
0.47884395
0.47884464
0.47884553
0.47884663
0.47884796
0.4788496
0.47885193
0.47885535
0.47885939
0.47886254
0.47886254
0.47885939
0.47885535
0.47885192
0.4788496
0.47884796
0.47884664
0.47884554
0.47884466
0.47884397
0.47884343
0.47884303
0.46258265
0.46258302
0.46258351
0.46258415
0.46258498
0.46258599
0.46258722
0.46258873
0.46259083
0.46259393
0.46259757
0.46260044
0.46260044
0.46259757
0.46259393
0.46259082
0.46258872
0.46258722
0.462586
0.46258499
0.46258417
0.46258354
0.46258304
0.46258267
0.44632572
0.44632606
0.44632652
0.44632711
0.44632788
0.44632882
0.44632995
0.44633134
0.44633326
0.44633607
0.44633939
0.446342
0.446342
0.44633939
0.44633607
0.44633325
0.44633134
0.44632995
0.44632883
0.44632789
0.44632714
0.44632655
0.44632609
0.44632574
0.43007195
0.43007227
0.4300727
0.43007325
0.43007396
0.43007484
0.43007589
0.43007717
0.43007892
0.43008149
0.43008453
0.43008692
0.43008692
0.43008453
0.43008149
0.43007892
0.43007717
0.43007589
0.43007485
0.43007398
0.43007328
0.43007273
0.43007231
0.43007199
0.41382112
0.41382142
0.41382182
0.41382233
0.41382299
0.41382381
0.41382479
0.41382597
0.41382758
0.41382994
0.41383273
0.41383491
0.41383491
0.41383272
0.41382993
0.41382757
0.41382597
0.41382479
0.41382382
0.41382302
0.41382236
0.41382185
0.41382146
0.41382116
0.39757301
0.39757328
0.39757366
0.39757414
0.39757475
0.39757552
0.39757643
0.39757753
0.39757901
0.39758117
0.39758375
0.39758576
0.39758576
0.39758374
0.39758117
0.397579
0.39757752
0.39757643
0.39757553
0.39757478
0.39757417
0.3975737
0.39757333
0.39757306
0.38132742
0.38132768
0.38132802
0.38132847
0.38132905
0.38132976
0.38133061
0.38133164
0.38133301
0.381335
0.38133738
0.38133923
0.38133923
0.38133738
0.38133499
0.38133299
0.38133163
0.38133062
0.38132978
0.38132908
0.38132852
0.38132807
0.38132773
0.38132747
0.36508418
0.36508442
0.36508474
0.36508516
0.3650857
0.36508637
0.36508717
0.36508812
0.36508939
0.36509124
0.36509345
0.36509516
0.36509515
0.36509344
0.36509122
0.36508937
0.36508811
0.36508717
0.36508639
0.36508574
0.36508522
0.3650848
0.36508448
0.36508424
0.34884313
0.34884335
0.34884366
0.34884405
0.34884456
0.34884518
0.34884593
0.34884682
0.348848
0.34884971
0.34885176
0.34885335
0.34885335
0.34885176
0.34884969
0.34884798
0.34884681
0.34884593
0.34884521
0.3488446
0.34884411
0.34884373
0.34884343
0.3488432
0.33260413
0.33260434
0.33260462
0.33260499
0.33260547
0.33260606
0.33260675
0.33260759
0.33260868
0.33261027
0.33261219
0.33261366
0.33261366
0.33261218
0.33261025
0.33260866
0.33260757
0.33260676
0.33260608
0.33260552
0.33260506
0.3326047
0.33260442
0.33260421
0.31636704
0.31636724
0.31636751
0.31636785
0.3163683
0.31636885
0.31636951
0.31637029
0.31637131
0.31637278
0.31637457
0.31637594
0.31637594
0.31637456
0.31637276
0.31637128
0.31637027
0.31636951
0.31636888
0.31636836
0.31636793
0.31636759
0.31636733
0.31636713
0.30013174
0.30013193
0.30013218
0.30013251
0.30013293
0.30013344
0.30013406
0.30013479
0.30013575
0.30013712
0.3001388
0.30014007
0.30014007
0.30013879
0.3001371
0.30013572
0.30013477
0.30013407
0.30013348
0.30013299
0.30013259
0.30013228
0.30013203
0.30013184
0.28389813
0.2838983
0.28389854
0.28389885
0.28389924
0.28389973
0.28390031
0.283901
0.28390189
0.28390317
0.28390474
0.28390593
0.28390592
0.28390473
0.28390314
0.28390186
0.28390097
0.28390031
0.28389977
0.28389931
0.28389894
0.28389864
0.28389841
0.28389824
0.26766609
0.26766625
0.26766648
0.26766677
0.26766714
0.2676676
0.26766814
0.26766879
0.26766962
0.26767082
0.2676723
0.26767341
0.2676734
0.26767228
0.26767079
0.26766959
0.26766876
0.26766815
0.26766764
0.26766721
0.26766687
0.26766659
0.26766637
0.26766621
0.25143553
0.25143569
0.2514359
0.25143617
0.25143652
0.25143695
0.25143746
0.25143807
0.25143885
0.25143997
0.25144136
0.2514424
0.25144239
0.25144134
0.25143994
0.25143882
0.25143804
0.25143747
0.251437
0.2514366
0.25143628
0.25143602
0.25143582
0.25143566
0.23520637
0.23520651
0.23520671
0.23520697
0.2352073
0.2352077
0.23520819
0.23520876
0.23520949
0.23521054
0.23521185
0.23521282
0.23521282
0.23521183
0.23521051
0.23520945
0.23520873
0.23520819
0.23520775
0.23520739
0.23520708
0.23520684
0.23520665
0.23520651
0.21897851
0.21897865
0.21897884
0.21897908
0.21897939
0.21897977
0.21898023
0.21898077
0.21898145
0.21898244
0.21898366
0.21898458
0.21898457
0.21898365
0.2189824
0.21898141
0.21898073
0.21898023
0.21897983
0.21897948
0.2189792
0.21897897
0.21897879
0.21897866
0.20275189
0.20275202
0.2027522
0.20275242
0.20275272
0.20275308
0.20275351
0.20275401
0.20275466
0.20275559
0.20275674
0.2027576
0.2027576
0.20275673
0.20275555
0.20275461
0.20275398
0.20275351
0.20275313
0.20275281
0.20275255
0.20275234
0.20275217
0.20275204
0.18652643
0.18652655
0.18652672
0.18652693
0.18652721
0.18652755
0.18652796
0.18652843
0.18652904
0.18652991
0.18653099
0.1865318
0.18653179
0.18653097
0.18652987
0.18652899
0.1865284
0.18652796
0.18652761
0.18652731
0.18652707
0.18652687
0.18652671
0.18652659
0.17030206
0.17030218
0.17030234
0.17030254
0.1703028
0.17030312
0.1703035
0.17030395
0.17030452
0.17030534
0.17030637
0.17030713
0.17030713
0.17030635
0.1703053
0.17030447
0.17030391
0.17030351
0.17030318
0.1703029
0.17030267
0.17030249
0.17030234
0.17030223
0.15407873
0.15407884
0.15407899
0.15407918
0.15407943
0.15407973
0.15408009
0.15408051
0.15408105
0.15408181
0.15408277
0.15408348
0.15408348
0.15408275
0.15408177
0.154081
0.15408048
0.1540801
0.15407979
0.15407953
0.15407932
0.15407914
0.154079
0.1540789
0.13785637
0.13785647
0.13785661
0.13785679
0.13785702
0.13785731
0.13785765
0.13785805
0.13785855
0.13785927
0.13786018
0.13786085
0.13786085
0.13786016
0.13785923
0.1378585
0.13785801
0.13785766
0.13785737
0.13785713
0.13785693
0.13785676
0.13785663
0.13785653
0.12163494
0.12163504
0.12163517
0.12163534
0.12163556
0.12163583
0.12163615
0.12163653
0.121637
0.12163766
0.12163849
0.1216391
0.1216391
0.12163847
0.12163762
0.12163694
0.12163649
0.12163616
0.12163589
0.12163567
0.12163548
0.12163532
0.1216352
0.1216351
0.10541436
0.10541445
0.10541458
0.10541474
0.10541494
0.1054152
0.1054155
0.10541585
0.10541629
0.10541692
0.1054177
0.10541827
0.10541827
0.10541768
0.10541687
0.10541624
0.10541582
0.10541551
0.10541526
0.10541505
0.10541487
0.10541472
0.10541461
0.10541452
0.089194643
0.089194731
0.08919485
0.089195003
0.0891952
0.089195442
0.089195726
0.089196053
0.089196455
0.089197001
0.089197671
0.089198155
0.089198152
0.089197654
0.089196961
0.089196402
0.089196017
0.089195732
0.089195499
0.089195301
0.089195134
0.089194993
0.089194882
0.089194797
0.072975638
0.072975721
0.072975833
0.072975977
0.072976165
0.072976397
0.07297667
0.072976981
0.072977356
0.072977857
0.072978457
0.072978872
0.07297887
0.072978442
0.072977819
0.072977306
0.072976947
0.072976677
0.072976452
0.072976262
0.072976102
0.072975968
0.072975863
0.072975784
0.056757518
0.056757598
0.056757707
0.056757845
0.05675802
0.056758234
0.056758483
0.056758763
0.056759082
0.056759463
0.056759855
0.056760087
0.056760086
0.056759843
0.056759428
0.056759036
0.056758732
0.056758489
0.056758285
0.056758109
0.056757959
0.056757831
0.056757729
0.056757651
0.040539731
0.040539802
0.0405399
0.04054003
0.040540205
0.040540428
0.040540689
0.040540977
0.0405413
0.040541711
0.040542194
0.040542518
0.040542517
0.040542183
0.040541681
0.040541258
0.040540948
0.040540694
0.040540472
0.040540282
0.040540129
0.040540006
0.040539914
0.040539844
0.024323462
0.024323545
0.024323653
0.02432378
0.024323927
0.024324087
0.024324257
0.024324436
0.024324599
0.02432468
0.024324605
0.024324389
0.024324388
0.024324596
0.024324654
0.024324564
0.024324412
0.024324262
0.024324124
0.024323989
0.024323858
0.024323735
0.024323629
0.024323547
0.0081053688
0.0081054391
0.0081055318
0.0081056529
0.0081058132
0.0081060116
0.0081062306
0.0081064674
0.0081068432
0.00810768
0.008109165
0.0081105413
0.0081105409
0.0081091602
0.0081076654
0.0081068232
0.0081064546
0.0081062352
0.0081060355
0.0081058516
0.0081056993
0.0081055802
0.0081054879
0.0081054173
)
;

boundaryField
{
    INLET
    {
        type            zeroGradient;
    }
    OUTLET
    {
        type            fixedValue;
        value           uniform 0;
    }
    WALL
    {
        type            zeroGradient;
    }
    frontAndBackPlanes
    {
        type            empty;
    }
}


// ************************************************************************* //
