/*--------------------------------*- C++ -*----------------------------------*\
| =========                 |                                                 |
| \\      /  F ield         | OpenFOAM: The Open Source CFD Toolbox           |
|  \\    /   O peration     | Version:  2406                                  |
|   \\  /    A nd           | Website:  www.openfoam.com                      |
|    \\/     M anipulation  |                                                 |
\*---------------------------------------------------------------------------*/
FoamFile
{
    version     2.0;
    format      ascii;
    arch        "LSB;label=32;scalar=64";
    class       surfaceScalarField;
    location    "15";
    object      phi;
}
// * * * * * * * * * * * * * * * * * * * * * * * * * * * * * * * * * * * * * //

dimensions      [0 3 -1 0 0 0 0];

oriented        oriented;

internalField   nonuniform List<scalar> 
2279
(
2.3617523e-08
1.0148926e-05
2.0509784e-07
4.982375e-05
6.9331819e-07
0.00014252872
1.5784729e-06
0.00034353082
2.6788502e-06
0.00075378089
3.3472951e-06
0.0015415573
3.0435243e-06
0.0029497096
2.1516881e-06
0.005249171
1.4318071e-06
0.008582269
9.895953e-07
0.012685995
5.1267091e-07
0.016666385
4.5043419e-12
0.01918202
-5.1265924e-07
0.01918202
-9.8957272e-07
0.016666385
-1.4317597e-06
0.012685995
-2.1516195e-06
0.008582269
-3.0434326e-06
0.0052491709
-3.3471774e-06
0.0029497095
-2.6787151e-06
0.0015415572
-1.5783469e-06
0.00075378081
-6.9322066e-07
0.00034353078
-2.0503813e-07
0.0001425287
-2.3591333e-08
4.9823745e-05
1.0148925e-05
-9.5248451e-08
1.0244175e-05
-5.3793995e-07
5.0266441e-05
-1.6230008e-06
0.00014361378
-3.5389515e-06
0.00034544677
-5.9201849e-06
0.00075616212
-7.4054999e-06
0.0015430426
-6.5847237e-06
0.0029488888
-3.9361554e-06
0.0052465224
-1.3883841e-06
0.0085797213
-6.5113233e-08
0.012684671
2.4241367e-07
0.016666078
6.1888826e-12
0.019182263
-2.4240472e-07
0.019182263
6.5106798e-08
0.016666078
1.388341e-06
0.012684671
3.9360574e-06
0.0085797213
6.5845717e-06
0.0052465225
7.4053237e-06
0.0029488889
5.9200247e-06
0.0015430427
3.5388409e-06
0.00075616217
1.6229421e-06
0.00034544679
5.3791707e-07
0.00014361379
9.5245108e-08
5.0266445e-05
1.0244176e-05
5.0139835e-08
1.0194035e-05
2.6334503e-07
5.0053236e-05
7.4910736e-07
0.00014312802
1.5314589e-06
0.00034466442
2.3366565e-06
0.00075535693
2.5476632e-06
0.0015428316
1.8390982e-06
0.0029495974
9.7567767e-07
0.0052473858
6.769621e-07
0.00858002
6.717914e-07
0.012684677
4.841721e-07
0.016666266
1.4760525e-11
0.019182747
-4.841401e-07
0.019182747
-6.7175458e-07
0.016666265
-6.7692458e-07
0.012684677
-9.7562658e-07
0.0085800199
-1.8390305e-06
0.0052473858
-2.547599e-06
0.0029495974
-2.3366151e-06
0.0015428316
-1.5314407e-06
0.00075535691
-7.4910462e-07
0.00034466441
-2.6334793e-07
0.00014312802
-5.0143196e-08
5.0053235e-05
1.0194035e-05
1.9586686e-08
1.0174448e-05
1.1184923e-07
4.9960973e-05
3.6128436e-07
0.00014287858
9.0504808e-07
0.00034412066
1.8716606e-06
0.00075439031
3.0948247e-06
0.0015416085
3.8987252e-06
0.0029487935
3.728556e-06
0.005247556
2.9242114e-06
0.0085808243
1.9733751e-06
0.012685627
1.0127707e-06
0.016667226
-9.7462769e-13
0.01918376
-1.0127761e-06
0.01918376
-1.9733879e-06
0.016667226
-2.924226e-06
0.012685627
-3.7285605e-06
0.0085808243
-3.8987151e-06
0.005247556
-3.0948064e-06
0.0029487935
-1.8716409e-06
0.0015416085
-9.0503403e-07
0.00075439031
-3.6127621e-07
0.00034412066
-1.1184535e-07
0.00014287858
-1.9585404e-08
4.9960973e-05
1.0174448e-05
8.0838895e-09
1.0166364e-05
4.7141409e-08
4.9921916e-05
1.5494688e-07
0.00014277078
3.9846328e-07
0.00034387714
8.7979494e-07
0.00075390898
1.7015168e-06
0.0015407867
2.751276e-06
0.0029477437
3.4623628e-06
0.0052468449
3.470864e-06
0.0085808158
2.8006893e-06
0.012686298
1.5505187e-06
0.016668476
4.6157775e-12
0.01918531
-1.5505113e-06
0.01918531
-2.8006861e-06
0.016668476
-3.4708639e-06
0.012686298
-3.4623592e-06
0.0085808158
-2.7512745e-06
0.0052468449
-1.7015222e-06
0.0029477437
-8.7980343e-07
0.0015407867
-3.9847024e-07
0.00075390898
-1.5495078e-07
0.00034387714
-4.7142945e-08
0.00014277078
-8.0841487e-09
4.9921916e-05
1.0166364e-05
4.9358314e-09
1.0161428e-05
2.8698809e-08
4.9898153e-05
9.5121462e-08
0.00014270435
2.4921451e-07
0.00034372305
5.636097e-07
0.00075359458
1.1213753e-06
0.001540229
1.9184582e-06
0.0029469466
2.6588218e-06
0.0052461045
2.8930608e-06
0.0085805816
2.4787695e-06
0.012686712
1.4344305e-06
0.016669521
5.3600151e-12
0.019186745
-1.4344215e-06
0.019186745
-2.4787636e-06
0.016669521
-2.893055e-06
0.012686712
-2.6588158e-06
0.0085805816
-1.9184555e-06
0.0052461045
-1.1213755e-06
0.0029469466
-5.6361117e-07
0.001540229
-2.4921599e-07
0.00075359458
-9.5122316e-08
0.00034372305
-2.8699085e-08
0.00014270435
-4.9358266e-09
4.9898153e-05
1.0161428e-05
4.4123155e-09
1.0157016e-05
2.5525614e-08
4.9877039e-05
8.3830081e-08
0.00014264605
2.1689415e-07
0.00034358998
4.8450107e-07
0.00075332698
9.5636054e-07
0.0015397571
1.6413733e-06
0.0029462616
2.3245824e-06
0.0052454213
2.5939542e-06
0.0085803122
2.2393655e-06
0.012687066
1.306678e-06
0.016670453
6.0575558e-12
0.019188051
-1.3066671e-06
0.019188051
-2.2393562e-06
0.016670453
-2.593945e-06
0.012687066
-2.3245761e-06
0.0085803122
-1.6413723e-06
0.0052454213
-9.563636e-07
0.0029462616
-4.8450494e-07
0.0015397571
-2.1689677e-07
0.00075332698
-8.3831069e-08
0.00034358998
-2.5525648e-08
0.00014264605
-4.4120658e-09
4.9877039e-05
1.0157016e-05
3.6255067e-09
1.0153391e-05
2.1036535e-08
4.9859628e-05
6.9438035e-08
0.00014259765
1.8114131e-07
0.00034347828
4.0971389e-07
0.0007530984
8.2390282e-07
0.0015393429
1.4539909e-06
0.0029456315
2.1430742e-06
0.0052447322
2.4674731e-06
0.0085799878
2.1883952e-06
0.012687345
1.2866465e-06
0.016671355
5.8450433e-12
0.019189338
-1.2866351e-06
0.019189338
-2.1883839e-06
0.016671355
-2.4674622e-06
0.012687345
-2.1430683e-06
0.0085799878
-1.4539913e-06
0.0052447322
-8.2390701e-07
0.0029456315
-4.0971848e-07
0.0015393429
-1.8114437e-07
0.0007530984
-6.9439288e-08
0.00034347828
-2.1036717e-08
0.00014259765
-3.625316e-09
4.9859628e-05
1.0153391e-05
2.9831152e-09
1.0150407e-05
1.7346964e-08
4.9845264e-05
5.7377202e-08
0.00014255762
1.5007359e-07
0.00034338558
3.4097047e-07
0.0007529075
6.9193035e-07
0.001538992
1.2441066e-06
0.0029450794
1.9041839e-06
0.0052440722
2.3015998e-06
0.0085795904
2.0975092e-06
0.01268755
1.2520136e-06
0.016672201
5.2624472e-12
0.01919059
-1.2520029e-06
0.01919059
-2.0974981e-06
0.016672201
-2.3015895e-06
0.01268755
-1.9041787e-06
0.0085795904
-1.2441067e-06
0.0052440722
-6.9193331e-07
0.0029450794
-3.4097377e-07
0.001538992
-1.5007581e-07
0.0007529075
-5.7378112e-08
0.00034338558
-1.7347087e-08
0.00014255762
-2.9829667e-09
4.9845264e-05
1.0150407e-05
2.4654145e-09
1.0147942e-05
1.4363087e-08
4.9833366e-05
4.7626395e-08
0.00014252435
1.2502843e-07
0.00034330818
2.8558822e-07
0.00075274694
5.8417791e-07
0.0015386934
1.064182e-06
0.0029445993
1.6641554e-06
0.0052434722
2.089873e-06
0.0085791646
1.9528948e-06
0.012687687
1.1802471e-06
0.016672973
4.6525354e-12
0.01919177
-1.1802374e-06
0.01919177
-1.9528848e-06
0.016672973
-2.0898643e-06
0.012687687
-1.6641508e-06
0.0085791646
-1.0641815e-06
0.0052434722
-5.8417968e-07
0.0029445993
-2.8559046e-07
0.0015386934
-1.2502999e-07
0.00075274694
-4.7627052e-08
0.00034330818
-1.4363174e-08
0.00014252435
-2.4653014e-09
4.9833366e-05
1.0147942e-05
2.1024381e-09
1.0145839e-05
1.2258033e-08
4.9823211e-05
4.0688179e-08
0.00014249592
1.0698994e-07
0.00034324188
2.4507774e-07
0.00075260885
5.0385141e-07
0.0015384346
9.2623225e-07
0.002944177
1.4715084e-06
0.0052429269
1.8909061e-06
0.0085787452
1.8050219e-06
0.012687772
1.1036915e-06
0.016673675
4.0219638e-12
0.019192874
-1.103683e-06
0.019192874
-1.8050132e-06
0.016673675
-1.8908987e-06
0.012687772
-1.4715041e-06
0.0085787452
-9.2623106e-07
0.0052429269
-5.0385214e-07
0.002944177
-2.4507911e-07
0.0015384346
-1.0699104e-07
0.00075260885
-4.0688688e-08
0.00034324188
-1.2258125e-08
0.00014249592
-2.1023653e-09
4.9823211e-05
1.0145839e-05
1.8282238e-09
1.0144011e-05
1.0665468e-08
4.9814373e-05
3.5430218e-08
0.00014247116
9.3282739e-08
0.00034318402
2.141384e-07
0.000752488
4.4192591e-07
0.0015382068
8.1811087e-07
0.0029438008
1.3163775e-06
0.0052424286
1.7244913e-06
0.0085783371
1.6780415e-06
0.012687819
1.0378053e-06
0.016674315
3.6024892e-12
0.019193912
-1.0377979e-06
0.019193912
-1.6780339e-06
0.016674315
-1.7244848e-06
0.012687819
-1.3163734e-06
0.0085783371
-8.1810913e-07
0.0052424286
-4.4192585e-07
0.0029438008
-2.1413916e-07
0.0015382068
-9.3283535e-08
0.000752488
-3.5430645e-08
0.00034318402
-1.0665567e-08
0.00014247116
-1.8281753e-09
4.9814373e-05
1.0144011e-05
1.6104816e-09
1.0142401e-05
9.3996467e-09
4.9806584e-05
3.1244343e-08
0.00014244931
8.2340138e-08
0.00034313293
1.8931991e-07
0.00075238102
3.9182132e-07
0.0015380043
7.2923871e-07
0.0029434634
1.1851422e-06
0.0052419727
1.5781723e-06
0.0085779441
1.5623375e-06
0.012687835
9.766985e-07
0.0166749
3.3308515e-12
0.019194888
-9.7669169e-07
0.019194888
-1.5623307e-06
0.0166749
-1.5781664e-06
0.012687835
-1.1851382e-06
0.0085779441
-7.2923663e-07
0.0052419727
-3.9182086e-07
0.0029434634
-1.8932046e-07
0.0015380043
-8.2340903e-08
0.00075238102
-3.1244803e-08
0.00034313293
-9.3997723e-09
0.00014244931
-1.6104422e-09
4.9806584e-05
1.0142401e-05
1.4323127e-09
1.0140968e-05
8.363016e-09
4.9799654e-05
2.7812572e-08
0.00014242986
7.3352558e-08
0.00034308739
1.6886805e-07
0.0007522855
3.5026633e-07
0.0015378229
6.5458023e-07
0.002943159
1.0720557e-06
0.0052415553
1.4464301e-06
0.0085775697
1.454874e-06
0.012687826
9.1880949e-07
0.016675436
3.147708e-12
0.019195807
-9.1880315e-07
0.019195807
-1.4548677e-06
0.016675436
-1.4464246e-06
0.012687826
-1.0720517e-06
0.0085775697
-6.5457811e-07
0.0052415553
-3.5026594e-07
0.002943159
-1.6886884e-07
0.0015378229
-7.3353593e-08
0.0007522855
-2.7813198e-08
0.00034308739
-8.3631993e-09
0.00014242986
-1.432273e-09
4.9799653e-05
1.0140968e-05
1.2850074e-09
1.0139683e-05
7.505093e-09
4.9793433e-05
2.4968824e-08
0.0001424124
6.5890922e-08
0.00034304646
1.5183734e-07
0.00075219955
3.154837e-07
0.0015376592
5.9149381e-07
0.002942883
9.7478328e-07
0.005241172
1.329701e-06
0.0085772148
1.3567844e-06
0.012687799
8.6525168e-07
0.016675928
2.9421726e-12
0.019196672
-8.6524581e-07
0.019196672
-1.3567787e-06
0.016675928
-1.3296959e-06
0.012687799
-9.7477964e-07
0.0085772148
-5.9149203e-07
0.005241172
-3.1548388e-07
0.002942883
-1.5183883e-07
0.0015376592
-6.5892537e-08
0.00075219955
-2.4969762e-08
0.00034304646
-7.5053701e-09
0.0001424124
-1.2849599e-09
4.9793433e-05
1.0139683e-05
1.1614962e-09
1.0138522e-05
6.7852216e-09
4.978781e-05
2.2580436e-08
0.0001423966
5.9615177e-08
0.00034300943
1.3748033e-07
0.00075212169
2.860449e-07
0.0015375107
5.3770805e-07
0.0029426314
8.907021e-07
0.005240819
1.2263936e-06
0.0085768791
1.2674866e-06
0.012687758
8.15926e-07
0.01667638
2.6182365e-12
0.019197488
-8.1592078e-07
0.019197488
-1.2674814e-06
0.01667638
-1.2263891e-06
0.012687758
-8.9069905e-07
0.0085768791
-5.3770703e-07
0.005240819
-2.8604614e-07
0.0029426314
-1.3748298e-07
0.0015375107
-5.9617685e-08
0.00075212169
-2.2581828e-08
0.00034300943
-6.7856295e-09
0.0001423966
-1.1614339e-09
4.9787809e-05
1.0138522e-05
1.0561576e-09
1.0137466e-05
6.1709939e-09
4.9782695e-05
2.05413e-08
0.00014238223
5.4251832e-08
0.00034297572
1.2518987e-07
0.00075205075
2.60766e-07
0.0015373751
4.9124844e-07
0.0029424009
8.1722081e-07
0.005240493
1.1341789e-06
0.0085765621
1.185787e-06
0.012687706
7.7021355e-07
0.016676795
2.1481454e-12
0.019198258
-7.7020922e-07
0.019198258
-1.1857827e-06
0.016676795
-1.1341753e-06
0.012687706
-8.1721865e-07
0.0085765621
-4.9124858e-07
0.005240493
-2.6076877e-07
0.0029424009
-1.2519412e-07
0.0015373751
-5.4255537e-08
0.00075205075
-2.0543288e-08
0.00034297572
-6.1715676e-09
0.00014238223
-1.0560718e-09
4.9782695e-05
1.0137466e-05
9.6515703e-10
1.0136501e-05
5.6401728e-09
4.977802e-05
1.8778193e-08
0.0001423691
4.961088e-08
0.00034294488
1.145406e-07
0.00075198582
2.3880876e-07
0.0015372508
4.5070037e-07
0.002942189
7.5247803e-07
0.0052401912
1.0514947e-06
0.0085762631
1.1108274e-06
0.012687647
7.2768678e-07
0.016677178
1.5668162e-12
0.019198986
-7.2768355e-07
0.019198986
-1.110824e-06
0.016677178
-1.051492e-06
0.012687647
-7.5247693e-07
0.0085762631
-4.5070196e-07
0.0052401912
-2.3881348e-07
0.002942189
-1.1454687e-07
0.0015372508
-4.9616081e-08
0.00075198582
-1.8780917e-08
0.00034294488
-5.6409461e-09
0.0001423691
-9.6503813e-10
4.9778019e-05
1.01365e-05
8.8581492e-10
1.0135615e-05
5.1771949e-09
4.9773728e-05
1.7239733e-08
0.00014235703
4.5558453e-08
0.00034291656
1.0523104e-07
0.00075192614
2.1957406e-07
0.0015371365
4.1503836e-07
0.0029419935
6.9508402e-07
0.0052399111
9.7708859e-07
0.0085759811
1.0418626e-06
0.012687582
6.8800253e-07
0.016677532
9.4208051e-13
0.019199674
-6.8800048e-07
0.019199674
-1.0418603e-06
0.016677532
-9.7708688e-07
0.012687582
-6.9508406e-07
0.0085759811
-4.1504163e-07
0.0052399111
-2.1958112e-07
0.0029419935
-1.0523975e-07
0.0015371365
-4.5565453e-08
0.00075192614
-1.7243334e-08
0.00034291657
-5.1782011e-09
0.00014235703
-8.8565216e-10
4.9773728e-05
1.0135615e-05
8.1603466e-10
1.0134799e-05
4.7698964e-09
4.9769774e-05
1.5885793e-08
0.00014234592
4.1990026e-08
0.00034289046
9.7025508e-08
0.00075187111
2.0259102e-07
0.0015370309
3.834448e-07
0.0029418127
6.4389026e-07
0.0052396507
9.0983681e-07
0.0085757151
9.7823066e-07
0.012687514
6.5086317e-07
0.016677859
3.3381745e-13
0.019200325
-6.5086224e-07
0.019200325
-9.7822937e-07
0.016677859
-9.0983598e-07
0.012687514
-6.438914e-07
0.0085757151
-3.8344992e-07
0.0052396507
-2.0260078e-07
0.0029418126
-9.703708e-08
0.0015370309
-4.1999134e-08
0.00075187111
-1.5890417e-08
0.00034289046
-4.7711696e-09
0.00014234592
-8.1581654e-10
4.9769774e-05
1.0134799e-05
7.5416506e-10
1.0134044e-05
4.4086884e-09
4.976612e-05
1.4684708e-08
0.00014233564
3.8822981e-08
0.00034286632
8.9737168e-08
0.00075182019
1.8748434e-07
0.0015369332
3.5526123e-07
0.0029416449
5.9795282e-07
0.005239408
8.4878228e-07
0.0085754643
9.1936115e-07
0.012687443
6.1600691e-07
0.016678163
-2.1164097e-13
0.019200941
-6.1600692e-07
0.019200941
-9.1936059e-07
0.016678163
-8.4878207e-07
0.012687443
-5.9795495e-07
0.0085754643
-3.5526835e-07
0.005239408
-1.8749718e-07
0.0029416449
-8.9752034e-08
0.0015369332
-3.8834517e-08
0.00075182019
-1.4690505e-08
0.00034286632
-4.4102635e-09
0.00014233564
-7.5387939e-10
4.9766119e-05
1.0134044e-05
6.9891691e-10
1.0133346e-05
4.0860749e-09
4.9762732e-05
1.3611684e-08
0.00014232611
3.5992481e-08
0.00034284394
8.3218901e-08
0.00075177296
1.739569e-07
0.0015368424
3.2996109e-07
0.0029414889
5.5650189e-07
0.0052391815
7.931146e-07
0.0085752277
8.6476258e-07
0.012687372
5.8322782e-07
0.016678444
-5.4131579e-13
0.019201524
-5.8322838e-07
0.019201524
-8.6476237e-07
0.016678444
-7.9311467e-07
0.012687372
-5.5650484e-07
0.0085752277
-3.2997035e-07
0.0052391814
-1.7397321e-07
0.0029414889
-8.3237516e-08
0.0015368424
-3.6006779e-08
0.00075177296
-1.361881e-08
0.00034284394
-4.0879875e-09
0.00014232612
-6.9855077e-10
4.9762732e-05
1.0133346e-05
6.4927395e-10
1.0132696e-05
3.7961422e-09
4.9759585e-05
1.2647142e-08
0.00014231726
3.3447256e-08
0.00034282314
7.7354112e-08
0.00075172905
1.6177231e-07
0.001536758
3.071228e-07
0.0029413435
5.1891422e-07
0.0052389697
7.4216691e-07
0.0085750044
8.1400842e-07
0.0126873
5.5233879e-07
0.016678706
-6.8591915e-13
0.019202077
-5.5233951e-07
0.019202077
-8.1400812e-07
0.016678706
-7.4216688e-07
0.0126873
-5.1891783e-07
0.0085750044
-3.0713434e-07
0.0052389696
-1.617925e-07
0.0029413435
-7.7376948e-08
0.001536758
-3.3464661e-08
0.00075172906
-1.2655756e-08
0.00034282314
-3.7984281e-09
0.00014231726
-6.4881366e-10
4.9759585e-05
1.0132696e-05
6.044221e-10
1.0132092e-05
3.5341512e-09
4.9756656e-05
1.1775382e-08
0.00014230902
3.1146146e-08
0.00034280377
7.2049021e-08
0.00075168815
1.5073982e-07
0.0015366793
2.8640392e-07
0.0029412078
4.8467666e-07
0.0052387714
6.953752e-07
0.0085747937
7.667387e-07
0.012687228
5.2320108e-07
0.01667895
-6.3627221e-13
0.0192026
-5.2320153e-07
0.0192026
-7.6673785e-07
0.01667895
-6.9537468e-07
0.012687228
-4.8468078e-07
0.0085747937
-2.8641792e-07
0.0052387714
-1.5076434e-07
0.0029412078
-7.2076567e-08
0.0015366793
-3.116701e-08
0.00075168815
-1.1785645e-08
0.00034280377
-3.5368458e-09
0.00014230902
-6.0385338e-10
4.9756656e-05
1.0132092e-05
5.6370265e-10
1.0131528e-05
3.2962662e-09
4.9753923e-05
1.0983691e-08
0.00014230133
2.9055803e-08
0.0003427857
6.7227559e-08
0.00075164998
1.4070438e-07
0.0015366058
2.6752502e-07
0.002941081
4.5336772e-07
0.0052385855
6.5227055e-07
0.0085745948
7.2263151e-07
0.012687158
4.9567112e-07
0.016679176
-3.522321e-13
0.019203095
-4.9567086e-07
0.019203095
-7.2262967e-07
0.016679176
-6.5226918e-07
0.012687158
-4.5337222e-07
0.0085745948
-2.6754169e-07
0.0052385855
-1.4073367e-07
0.002941081
-6.7260311e-08
0.0015366058
-2.9080477e-08
0.00075164998
-1.0995762e-08
0.0003427857
-3.2994039e-09
0.00014230134
-5.630109e-10
4.9753923e-05
1.0131528e-05
5.2657621e-10
1.0131002e-05
3.0793458e-09
4.975137e-05
1.0261653e-08
0.00014229415
2.7148877e-08
0.00034276881
6.2827251e-08
0.0007516143
1.3153831e-07
0.0015365371
2.5025477e-07
0.0029409623
4.2463382e-07
0.0052384112
6.1244878e-07
0.008574407
6.8141899e-07
0.012687089
4.6965492e-07
0.016679388
1.130031e-13
0.019203565
-4.6965359e-07
0.019203565
-6.8141579e-07
0.016679388
-6.1244626e-07
0.012687089
-4.2463861e-07
0.008574407
-2.5027432e-07
0.0052384111
-1.3157284e-07
0.0029409623
-6.2865702e-08
0.0015365371
-2.7177704e-08
0.0007516143
-1.0275685e-08
0.00034276881
-3.0829583e-09
0.00014229415
-5.2574676e-10
4.975137e-05
1.0131002e-05
4.9259806e-10
1.0130509e-05
2.880799e-09
4.9748982e-05
9.6006744e-09
0.00014228743
2.5402803e-08
0.00034275301
5.8796535e-08
0.0007515809
1.2313614e-07
0.0015364728
2.3440173e-07
0.002940851
3.9818202e-07
0.0052382474
5.755734e-07
0.0085742296
6.4284896e-07
0.012687022
4.4503107e-07
0.016679586
6.7280256e-13
0.01920401
-4.4502842e-07
0.01920401
-6.4284408e-07
0.016679586
-5.7556945e-07
0.012687022
-3.9818703e-07
0.0085742296
-2.344244e-07
0.0052382473
-1.2317636e-07
0.002940851
-5.8841153e-08
0.0015364728
-2.5436104e-08
0.00075158091
-9.6168079e-09
0.00034275301
-2.8849145e-09
0.00014228743
-4.9161655e-10
4.9748982e-05
1.0130509e-05
4.6139653e-10
1.0130048e-05
2.6984607e-09
4.9746745e-05
8.9935721e-09
0.00014228114
2.3798701e-08
0.0003427382
5.5092197e-08
0.00075154961
1.1540924e-07
0.0015364125
2.1980414e-07
0.0029407466
3.7376094e-07
0.0052380934
5.4134687e-07
0.008574062
6.0672116e-07
0.012686956
4.2173999e-07
0.016679771
1.2845059e-12
0.019204432
-4.2173586e-07
0.019204432
-6.0671437e-07
0.016679771
-5.4134129e-07
0.012686956
-3.7376613e-07
0.008574062
-2.1983016e-07
0.0052380934
-1.1545557e-07
0.0029407466
-5.5143411e-08
0.0015364125
-2.3836762e-08
0.00075154962
-9.0119294e-09
0.0003427382
-2.703102e-09
0.00014228114
-4.6024921e-10
4.9746745e-05
1.0130048e-05
4.3265912e-10
1.0129615e-05
2.5305092e-09
4.9744647e-05
8.4343021e-09
0.00014227523
2.2320694e-08
0.00034272431
5.1677928e-08
0.00075152025
1.0828317e-07
0.0015363559
2.0632624e-07
0.0029406486
3.5116052e-07
0.0052379486
5.0952106e-07
0.0085739037
5.7282778e-07
0.012686893
3.9966708e-07
0.016679944
1.9030561e-12
0.019204831
-3.9966141e-07
0.019204831
-5.7281893e-07
0.016679944
-5.0951366e-07
0.012686893
-3.5116587e-07
0.0085739036
-2.0635582e-07
0.0052379485
-1.08336e-07
0.0029406486
-5.1736103e-08
0.0015363559
-2.2363753e-08
0.00075152026
-8.4549803e-09
0.00034272432
-2.535692e-09
0.00014227523
-4.3133328e-10
4.9744647e-05
1.0129615e-05
4.0612048e-10
1.0129209e-05
2.3753995e-09
4.9742678e-05
7.9177357e-09
0.00014226969
2.0955283e-08
0.00034271128
4.8522766e-08
0.00075149268
1.0169425e-07
0.0015363027
1.9385101e-07
0.0029405564
3.3019619e-07
0.0052378122
4.7987089e-07
0.008573754
5.4102218e-07
0.012686832
3.787845e-07
0.016680106
2.4963396e-12
0.01920521
-3.7877728e-07
0.01920521
-5.4101115e-07
0.016680106
-4.7986154e-07
0.012686832
-3.3020165e-07
0.0085737539
-1.9388431e-07
0.0052378122
-1.0175385e-07
0.0029405564
-4.8588186e-08
0.0015363027
-2.1003513e-08
0.00075149269
-7.9408003e-09
0.00034271128
-2.3811308e-09
0.00014226969
-4.0460499e-10
4.9742678e-05
1.0129209e-05
3.8155294e-10
1.0128827e-05
2.2318025e-09
4.9740827e-05
7.4394627e-09
0.00014226448
1.9690889e-08
0.00034269902
4.5600243e-08
0.00075146678
9.5588142e-08
0.0015362527
1.8227901e-07
0.0029404697
3.1071274e-07
0.0052376838
4.5220793e-07
0.0085736125
5.1112112e-07
0.012686773
3.5897102e-07
0.016680259
3.0441908e-12
0.019205569
-3.5896227e-07
0.019205569
-5.1110784e-07
0.016680259
-4.5219649e-07
0.012686773
-3.1071827e-07
0.0085736124
-1.8231615e-07
0.0052376837
-9.5654739e-08
0.0029404697
-4.5673083e-08
0.0015362527
-1.9744384e-08
0.00075146679
-7.46494e-09
0.00034269903
-2.2380793e-09
0.00014226449
-3.7983869e-10
4.9740828e-05
1.0128827e-05
3.5876229e-10
1.0128469e-05
2.0985894e-09
4.9739088e-05
6.995734e-09
0.00014225959
1.8517619e-08
0.0003426875
4.2887581e-08
0.00075144241
8.9917784e-08
0.0015362057
1.7152325e-07
0.0029403881
2.9257121e-07
0.0052375627
4.2635935e-07
0.0085734787
4.8302682e-07
0.012686716
3.4023452e-07
0.016680401
3.529887e-12
0.019205909
-3.402243e-07
0.019205909
-4.8301121e-07
0.016680401
-4.2634568e-07
0.012686716
-2.9257673e-07
0.0085734786
-1.7156426e-07
0.0052375627
-8.9991459e-08
0.0029403881
-4.2967892e-08
0.0015362057
-1.8576381e-08
0.00075144242
-7.0236064e-09
0.00034268751
-2.1053976e-09
0.00014225959
-3.5684296e-10
4.9739088e-05
1.0128469e-05
3.3757637e-10
1.0128131e-05
1.9747517e-09
4.9737451e-05
6.5832026e-09
0.00014225498
1.742671e-08
0.00034267666
4.0364818e-08
0.00075141947
8.4642289e-08
0.0015361614
1.6150864e-07
0.0029403113
2.7565321e-07
0.0052374486
4.0217602e-07
0.0085733522
4.5656202e-07
0.012686662
3.2243243e-07
0.016680535
3.9515631e-12
0.019206232
-3.2242077e-07
0.019206232
-4.5654403e-07
0.016680536
-4.0215999e-07
0.012686662
-2.7565863e-07
0.0085733521
-1.6155349e-07
0.0052374485
-8.4722994e-08
0.0029403112
-4.0452507e-08
0.0015361614
-1.7490634e-08
0.00075141948
-6.6134023e-09
0.00034267667
-1.9820646e-09
0.00014225498
-3.3544886e-10
4.9737451e-05
1.0128131e-05
3.1785225e-10
1.0127813e-05
1.8594637e-09
4.9735909e-05
6.1991233e-09
0.00014225064
1.6410868e-08
0.00034266645
3.8014995e-08
0.00075139786
7.9726301e-08
0.0015361197
1.521695e-07
0.0029402388
2.5985324e-07
0.0052373409
3.7952731e-07
0.0085732325
4.3168204e-07
0.01268661
3.0561932e-07
0.016680662
4.3128502e-12
0.019206538
-3.0560627e-07
0.019206538
-4.3166159e-07
0.016680662
-3.7950878e-07
0.01268661
-2.5985842e-07
0.0085732324
-1.5221806e-07
0.0052373408
-7.981384e-08
0.0029402388
-3.810981e-08
0.0015361197
-1.6479735e-08
0.00075139788
-6.2315288e-09
0.00034266646
-1.8672419e-09
0.00014225064
-3.1551744e-10
4.973591e-05
1.0127813e-05
2.9945275e-10
1.0127514e-05
1.7519133e-09
4.9734457e-05
5.8408028e-09
0.00014224655
1.5463102e-08
0.00034265683
3.5822391e-08
0.00075137751
7.5137882e-08
0.0015360804
1.4344692e-07
0.0029401705
2.4507642e-07
0.0052372393
3.5828551e-07
0.0085731193
4.0819324e-07
0.01268656
2.8961185e-07
0.01668078
4.5890718e-12
0.019206827
-2.8959744e-07
0.019206827
-4.0817028e-07
0.01668078
-3.5826438e-07
0.01268656
-2.4508122e-07
0.0085731192
-1.4349897e-07
0.0052372392
-7.5231896e-08
0.0029401705
-3.5923904e-08
0.0015360804
-1.553657e-08
0.00075137752
-5.8752341e-09
0.00034265684
-1.7601036e-09
0.00014224655
-2.9691577e-10
4.9734458e-05
1.0127514e-05
2.8227799e-10
1.0127231e-05
1.6515365e-09
4.9733087e-05
5.5063603e-09
0.0001422427
1.4578298e-08
0.00034264775
3.3774738e-08
0.00075135831
7.0850864e-08
0.0015360433
1.3529213e-07
0.0029401061
2.3124583e-07
0.0052371433
3.3836253e-07
0.0085730121
3.8612013e-07
0.012686512
2.7453135e-07
0.016680892
4.8509026e-12
0.019207102
-2.7451569e-07
0.019207102
-3.8609468e-07
0.016680892
-3.3833873e-07
0.012686512
-2.312501e-07
0.0085730121
-1.3534734e-07
0.0052371432
-7.0950826e-08
0.002940106
-3.3882344e-08
0.0015360433
-1.4655894e-08
0.00075135833
-5.5425786e-09
0.00034264777
-1.6600725e-09
0.0001422427
-2.7954892e-10
4.9733089e-05
1.0127232e-05
2.6620679e-10
1.0126965e-05
1.5575973e-09
4.9731796e-05
5.1933588e-09
0.00014223906
1.375028e-08
0.0003426392
3.1858621e-08
0.0007513402
6.6838692e-08
0.0015360083
1.2765575e-07
0.0029400453
2.1827752e-07
0.0052370527
3.1963041e-07
0.0085729108
3.6522032e-07
0.012686467
2.6012545e-07
0.016680997
5.1325138e-12
0.019207362
-2.6010871e-07
0.019207362
-3.6519246e-07
0.016680997
-3.1960393e-07
0.012686467
-2.182811e-07
0.0085729107
-1.2771372e-07
0.0052370526
-6.6943905e-08
0.0029400452
-3.1971534e-08
0.0015360083
-1.3831407e-08
0.00075134022
-5.2310691e-09
0.00034263921
-1.5664013e-09
0.00014223906
-2.6330169e-10
4.9731798e-05
1.0126965e-05
2.5118911e-10
1.0126714e-05
1.469848e-09
4.9730578e-05
4.9009565e-09
0.00014223563
1.2976432e-08
0.00034263112
3.0066766e-08
0.00075132312
6.308433e-08
0.0015359753
1.2050602e-07
0.0029399878
2.0612711e-07
0.0052369671
3.0205946e-07
0.0085728148
3.4562255e-07
0.012686423
2.4661611e-07
0.016681096
5.3498099e-12
0.019207608
-2.4659841e-07
0.019207608
-3.4559243e-07
0.016681096
-3.0203035e-07
0.012686423
-2.0612987e-07
0.0085728148
-1.2056626e-07
0.005236967
-6.3193925e-08
0.0029399878
-3.0184017e-08
0.0015359753
-1.3060361e-08
0.00075132314
-4.9398054e-09
0.00034263114
-1.4788295e-09
0.00014223563
-2.48129e-10
4.9730579e-05
1.0126714e-05
2.370913e-10
1.0126477e-05
1.3874381e-09
4.9729427e-05
4.6263535e-09
0.00014223239
1.2249987e-08
0.0003426235
2.8385537e-08
0.00075130698
5.9562493e-08
0.0015359441
1.1379536e-07
0.0029399336
1.9470423e-07
0.0052368862
2.8548674e-07
0.0085727241
3.2698423e-07
0.012686382
2.3363955e-07
0.016681189
5.4442387e-12
0.019207842
-2.3362108e-07
0.019207842
-3.2695203e-07
0.016681189
-2.8545513e-07
0.012686382
-1.9470604e-07
0.008572724
-1.1385728e-07
0.0052368861
-5.9675432e-08
0.0029399336
-2.850598e-08
0.0015359441
-1.2335871e-08
0.000751307
-4.6659338e-09
0.00034262352
-1.3964955e-09
0.0001422324
-2.3390244e-10
4.9729429e-05
1.0126477e-05
2.2395462e-10
1.0126253e-05
1.3107142e-09
4.9728341e-05
4.3706396e-09
0.00014222933
1.1572784e-08
0.0003426163
2.6815925e-08
0.00075129174
5.6270042e-08
0.0015359147
1.0751762e-07
0.0029398824
1.8401796e-07
0.0052368097
2.6998622e-07
0.0085726381
3.0960637e-07
0.012686342
2.2157404e-07
0.016681277
5.3929853e-12
0.019208064
-2.2155506e-07
0.019208064
-3.0957238e-07
0.016681277
-2.699523e-07
0.012686342
-1.8401871e-07
0.008572638
-1.0758054e-07
0.0052368096
-5.6385135e-08
0.0029398823
-2.6938261e-08
0.0015359147
-1.1659674e-08
0.00075129176
-4.4105059e-09
0.00034261632
-1.3197422e-09
0.00014222934
-2.2067048e-10
4.9728343e-05
1.0126253e-05
2.1156024e-10
1.0126041e-05
1.238228e-09
4.9727314e-05
4.1290964e-09
0.00014222644
1.093403e-08
0.0003426095
2.5338234e-08
0.00075127734
5.3174338e-08
0.0015358868
1.0161197e-07
0.0029398339
1.7393826e-07
0.0052367373
2.5529567e-07
0.0085725567
2.9296284e-07
0.012686304
2.0988168e-07
0.01668136
5.223034e-12
0.019208273
-2.0986261e-07
0.019208274
-2.9292749e-07
0.01668136
-2.5525977e-07
0.012686304
-1.7393789e-07
0.0085725567
-1.016752e-07
0.0052367373
-5.3290267e-08
0.0029398339
-2.5461038e-08
0.0015358868
-1.10209e-08
0.00075127736
-4.1687751e-09
0.00034260951
-1.2471197e-09
0.00014222645
-2.0822014e-10
4.9727316e-05
1.0126041e-05
2.0019005e-10
1.0125841e-05
1.1718827e-09
4.9726343e-05
3.9078296e-09
0.00014222371
1.0346927e-08
0.00034260306
2.3973831e-08
0.00075126372
5.0304588e-08
0.0015358605
9.6128647e-08
0.0029397881
1.6458835e-07
0.0052366689
2.4169942e-07
0.0085724796
2.7765631e-07
0.012686268
1.9919163e-07
0.016681439
4.8519439e-12
0.019208473
-1.9917299e-07
0.019208473
-2.7762012e-07
0.016681439
-2.4166196e-07
0.012686268
-1.6458687e-07
0.0085724795
-9.619144e-08
0.0052366688
-5.0419966e-08
0.0029397881
-2.4095593e-08
0.0015358605
-1.0432689e-08
0.00075126374
-3.9468139e-09
0.00034260308
-1.1805186e-09
0.00014222371
-1.9683188e-10
4.9726345e-05
1.0125841e-05
1.8924184e-10
1.0125651e-05
1.107755e-09
4.9725424e-05
3.6942466e-09
0.00014222112
9.7833846e-09
0.00034259697
2.2673995e-08
0.00075125083
4.75874e-08
0.0015358356
9.0944213e-08
0.0029397447
1.5571508e-07
0.0052366041
2.2870975e-07
0.0085724066
2.6285398e-07
0.012686234
1.8871036e-07
0.016681513
4.1133691e-12
0.019208661
-1.8869279e-07
0.019208661
-2.6281767e-07
0.016681513
-2.2867131e-07
0.012686234
-1.557126e-07
0.0085724065
-9.1005903e-08
0.005236604
-4.7700866e-08
0.0029397447
-2.2793202e-08
0.0015358356
-9.8669284e-09
0.00075125085
-3.7320064e-09
0.00034259699
-1.1160038e-09
0.00014222113
-1.8590256e-10
4.9725427e-05
1.0125652e-05
1.7985269e-10
1.0125471e-05
1.0530987e-09
4.9724551e-05
3.5114047e-09
0.00014221866
9.2945286e-09
0.00034259119
2.1526631e-08
0.0007512386
4.5152079e-08
0.001535812
8.6264689e-08
0.0029397036
1.477165e-07
0.0052365426
2.1705895e-07
0.0085723372
2.4970742e-07
0.012686201
1.7948842e-07
0.016681583
2.9371858e-12
0.019208841
-1.7947276e-07
0.019208841
-2.4967195e-07
0.016681583
-2.1702025e-07
0.012686201
-1.4771316e-07
0.0085723372
-8.6324585e-08
0.0052365426
-4.5262211e-08
0.0029397036
-2.1641655e-08
0.001535812
-9.3746024e-09
0.00075123862
-3.5473059e-09
0.00034259121
-1.0607797e-09
0.00014221867
-1.7655832e-10
4.9724554e-05
1.0125472e-05
1.6873563e-10
1.0125303e-05
9.8817634e-10
4.9723732e-05
3.2980548e-09
0.00014221635
8.745183e-09
0.00034258575
2.0299877e-08
0.00075122705
4.2672297e-08
0.0015357896
8.165355e-08
0.0029396647
1.3993524e-07
0.0052364844
2.0572452e-07
0.0085722714
2.3676098e-07
0.01268617
1.703099e-07
0.016681649
1.3206219e-12
0.019209011
-1.7029725e-07
0.019209011
-2.3672774e-07
0.01668165
-2.0568655e-07
0.01268617
-1.3993105e-07
0.0085722714
-8.1710722e-08
0.0052364843
-4.2777557e-08
0.0029396646
-2.0409092e-08
0.0015357896
-8.8206236e-09
0.00075122707
-3.3315938e-09
0.00034258576
-9.9522051e-10
0.00014221636
-1.65573e-10
4.9723734e-05
1.0125303e-05
1.6393537e-10
1.0125139e-05
9.6028089e-10
4.9722936e-05
3.1989582e-09
0.00014221412