/*--------------------------------*- C++ -*----------------------------------*\
| =========                 |                                                 |
| \\      /  F ield         | OpenFOAM: The Open Source CFD Toolbox           |
|  \\    /   O peration     | Version:  2406                                  |
|   \\  /    A nd           | Website:  www.openfoam.com                      |
|    \\/     M anipulation  |                                                 |
\*---------------------------------------------------------------------------*/
FoamFile
{
    version     2.0;
    format      ascii;
    arch        "LSB;label=32;scalar=64";
    class       volVectorField;
    location    "15";
    object      U;
}
// * * * * * * * * * * * * * * * * * * * * * * * * * * * * * * * * * * * * * //

dimensions      [0 1 -1 0 0 0 0];

internalField   nonuniform List<vector> 
1176
(
(0.019493789 7.0786633e-07 0)
(0.066677318 8.1696622e-06 0)
(0.13357994 3.9503198e-05 0)
(0.22724701 0.00010873584 0)
(0.35591522 0.00021176044 0)
(0.52772023 0.00030396315 0)
(0.74780387 0.00031818058 0)
(1.0136216 0.00024904627 0)
(1.3093323 0.00016667027 0)
(1.6017081 0.00011264706 0)
(1.8421723 7.0214342e-05 0)
(1.9793239 2.394109e-05 0)
(1.9793239 -2.3940125e-05 0)
(1.8421723 -7.0212707e-05 0)
(1.6017081 -0.00011264358 0)
(1.3093323 -0.00016666423 0)
(1.0136215 -0.0002490376 0)
(0.74780385 -0.00031816866 0)
(0.5277202 -0.00030394808 0)
(0.3559152 -0.00021174573 0)
(0.22724699 -0.00010872366 0)
(0.13357993 -3.9501092e-05 0)
(0.066677315 -8.1610367e-06 0)
(0.019493788 -7.0960167e-07 0)
(0.020187017 -3.7419156e-06 0)
(0.068813532 -2.4638636e-05 0)
(0.13732107 -9.6548527e-05 0)
(0.23247391 -0.00024839454 0)
(0.36204617 -0.00047268769 0)
(0.53373556 -0.00067421164 0)
(0.75267407 -0.00069486915 0)
(1.0170176 -0.00049687332 0)
(1.3116385 -0.00023345881 0)
(1.6034438 -4.9824014e-05 0)
(1.8436588 1.9765211e-05 0)
(1.9807026 1.3428283e-05 0)
(1.9807026 -1.342734e-05 0)
(1.8436588 -1.9765106e-05 0)
(1.6034438 4.9821887e-05 0)
(1.3116385 0.00023345216 0)
(1.0170177 0.00049686059 0)
(0.75267408 0.00069485193 0)
(0.53373556 0.00067419385 0)
(0.36204617 0.00047267406 0)
(0.23247391 0.00024838645 0)
(0.13732107 9.6546488e-05 0)
(0.068813534 2.4636259e-05 0)
(0.020187018 3.74239e-06 0)
(0.020018442 2.0918394e-06 0)
(0.068327405 1.2720771e-05 0)
(0.13655404 4.6877273e-05 0)
(0.23159544 0.00011389742 0)
(0.36138708 0.00019769274 0)
(0.53366968 0.00023903245 0)
(0.75344344 0.00020559825 0)
(1.0184881 0.00011361135 0)
(1.3134639 7.4313789e-05 0)
(1.6053464 7.9533118e-05 0)
(1.8455118 7.0516956e-05 0)
(1.9825245 2.7826597e-05 0)
(1.9825245 -2.7823733e-05 0)
(1.8455118 -7.0513659e-05 0)
(1.6053464 -7.9529521e-05 0)
(1.3134639 -7.4309692e-05 0)
(1.0184881 -0.00011360608 0)
(0.75344344 -0.00020559063 0)
(0.53366969 -0.00023902759 0)
(0.36138709 -0.00019769016 0)
(0.23159544 -0.00011389669 0)
(0.13655404 -4.6877009e-05 0)
(0.068327404 -1.2721397e-05 0)
(0.020018441 -2.0917069e-06 0)
(0.019966547 7.0076859e-07 0)
(0.068159231 4.6870376e-06 0)
(0.13624021 1.9355453e-05 0)
(0.2311194 5.6456183e-05 0)
(0.36078093 0.00013444569 0)
(0.53306293 0.00025829324 0)
(0.75295637 0.00035344749 0)
(1.0181104 0.00036912001 0)
(1.313184 0.0003075887 0)
(1.6051633 0.00022777242 0)
(1.8453995 0.00014555943 0)
(1.9824491 4.9997223e-05 0)
(1.9824491 -4.9997423e-05 0)
(1.8453995 -0.00014556016 0)
(1.6051633 -0.00022777412 0)
(1.313184 -0.00030758958 0)
(1.0181104 -0.00036911946 0)
(0.75295636 -0.00035344666 0)
(0.53306292 -0.00025829088 0)
(0.36078092 -0.00013444383 0)
(0.2311194 -5.6455054e-05 0)
(0.13624021 -1.9355199e-05 0)
(0.068159231 -4.6865745e-06 0)
(0.019966547 -7.0086011e-07 0)
(0.019942203 2.9077285e-07 0)
(0.068078702 1.9871923e-06 0)
(0.13608628 8.2361282e-06 0)
(0.23087699 2.3699332e-05 0)
(0.36044744 5.6881639e-05 0)
(0.53266448 0.00012306886 0)
(0.75256877 0.00022681816 0)
(1.017808 0.00032272218 0)
(1.3129044 0.00034572468 0)
(1.604912 0.00030729992 0)
(1.8452029 0.00021095339 0)
(1.9822898 7.4614947e-05 0)
(1.9822898 -7.4614089e-05 0)
(1.8452029 -0.00021095282 0)
(1.604912 -0.00030729977 0)
(1.3129044 -0.00034572481 0)
(1.0178079 -0.00032272166 0)
(0.75256877 -0.00022681851 0)
(0.53266448 -0.00012306948 0)
(0.36044744 -5.6882421e-05 0)
(0.23087699 -2.369987e-05 0)
(0.13608628 -8.2363588e-06 0)
(0.068078702 -1.9872773e-06 0)
(0.019942203 -2.9077011e-07 0)
(0.019933131 1.7181945e-07 0)
(0.068047754 1.194064e-06 0)
(0.13602488 5.0652108e-06 0)
(0.23077535 1.4968868e-05 0)
(0.36029898 3.6219562e-05 0)
(0.5324792 7.6944253e-05 0)
(0.75239427 0.00014713771 0)
(1.0177222 0.0002374903 0)
(1.3129292 0.00028525603 0)
(1.6049746 0.00027441511 0)
(1.8452865 0.00019644657 0)
(1.9823834 7.1177506e-05 0)
(1.9823834 -7.1176482e-05 0)
(1.8452865 -0.0001964458 0)
(1.6049746 -0.00027441456 0)
(1.3129292 -0.0002852556 0)
(1.0177222 -0.00023748986 0)
(0.75239427 -0.00014713754 0)
(0.5324792 -7.6944268e-05 0)
(0.36029898 -3.6219689e-05 0)
(0.23077535 -1.4968973e-05 0)
(0.13602488 -5.0653562e-06 0)
(0.068047755 -1.1939937e-06 0)
(0.019933131 -1.718515e-07 0)
(0.0199234 1.5588005e-07 0)
(0.068015506 1.0700624e-06 0)
(0.13596286 4.4934731e-06 0)
(0.23067606 1.319546e-05 0)
(0.36015773 3.185712e-05 0)
(0.53230177 6.6958203e-05 0)
(0.75221429 0.00012411881 0)
(1.0176105 0.00019917046 0)
(1.3129358 0.00025490851 0)
(1.6050904 0.0002459519 0)
(1.8454579 0.00018127939 0)
(1.9825798 6.6549114e-05 0)
(1.9825798 -6.6547941e-05 0)
(1.8454579 -0.00018127842 0)
(1.6050904 -0.00024595104 0)
(1.3129358 -0.00025490782 0)
(1.0176105 -0.00019917008 0)
(0.75221429 -0.00012411888 0)
(0.53230177 -6.6958485e-05 0)
(0.36015773 -3.1857405e-05 0)
(0.23067606 -1.3195606e-05 0)
(0.13596286 -4.4936383e-06 0)
(0.068015506 -1.0699442e-06 0)
(0.0199234 -1.5592454e-07 0)
(0.019915697 1.2758975e-07 0)
(0.067989791 8.7800574e-07 0)
(0.13591293 3.6960049e-06 0)
(0.23059502 1.0901591e-05 0)
(0.36003987 2.6613312e-05 0)
(0.53214753 5.7237025e-05 0)
(0.75204132 0.00010911032 0)
(1.0174723 0.00017936609 0)
(1.3128926 0.00023802471 0)
(1.6051414 0.00023746765 0)
(1.8455877 0.00017750715 0)
(1.9827513 6.5539961e-05 0)
(1.9827513 -6.5538812e-05 0)
(1.8455877 -0.00017750609 0)
(1.6051414 -0.0002374666 0)
(1.3128926 -0.00023802391 0)
(1.0174723 -0.0001793658 0)
(0.75204132 -0.00010911052 0)
(0.53214753 -5.7237425e-05 0)
(0.36003987 -2.6613666e-05 0)
(0.23059502 -1.0901774e-05 0)
(0.13591293 -3.696157e-06 0)
(0.067989792 -8.7792283e-07 0)
(0.019915697 -1.2762383e-07 0)
(0.019909217 1.0466049e-07 0)
(0.06796814 7.2312965e-07 0)
(0.13587083 3.0521057e-06 0)
(0.23052654 9.0118166e-06 0)
(0.35993984 2.1999833e-05 0)
(0.53201541 4.7473315e-05 0)
(0.751889 9.2013839e-05 0)
(1.0173341 0.00015618161 0)
(1.3128278 0.00021699658 0)
(1.6051595 0.0002270963 0)
(1.8456699 0.00017232658 0)
(1.982868 6.4148171e-05 0)
(1.982868 -6.4147115e-05 0)
(1.8456699 -0.00017232555 0)
(1.6051595 -0.00022709529 0)
(1.3128278 -0.00021699582 0)
(1.0173341 -0.00015618135 0)
(0.751889 -9.2013967e-05 0)
(0.53201541 -4.74736e-05 0)
(0.35993984 -2.2000088e-05 0)
(0.23052654 -9.0119479e-06 0)
(0.13587083 -3.0522202e-06 0)
(0.06796814 -7.2306486e-07 0)
(0.019909217 -1.04687e-07 0)
(0.019903971 8.6128487e-08 0)
(0.067950551 5.9695829e-07 0)
(0.13583649 2.5273788e-06 0)
(0.2304703 7.4916027e-06 0)
(0.35985692 1.8376258e-05 0)
(0.53190435 3.9835577e-05 0)
(0.75175836 7.7711943e-05 0)
(1.0172122 0.00013432407 0)
(1.3127613 0.00019323347 0)
(1.6051771 0.00021058344 0)
(1.8457533 0.0001627299 0)
(1.9829863 6.1084641e-05 0)
(1.9829863 -6.1083698e-05 0)
(1.8457533 -0.00016272897 0)
(1.6051771 -0.00021058256 0)
(1.3127613 -0.00019323283 0)
(1.0172122 -0.00013432381 0)
(0.75175836 -7.7711989e-05 0)
(0.53190435 -3.9835757e-05 0)
(0.35985692 -1.8376433e-05 0)
(0.2304703 -7.4916947e-06 0)
(0.13583649 -2.527464e-06 0)
(0.067950551 -5.9690873e-07 0)
(0.019903971 -8.6148683e-08 0)
(0.019899543 7.3358253e-08 0)
(0.067935687 5.089579e-07 0)
(0.13580742 2.1568885e-06 0)
(0.23042258 6.4027534e-06 0)
(0.35978626 1.5747555e-05 0)
(0.53180889 3.4277722e-05 0)
(0.75164408 6.7204403e-05 0)
(1.017102 0.00011722966 0)
(1.3126976 0.00017262438 0)
(1.6051928 0.00019308893 0)
(1.8458371 0.00015219875 0)
(1.9831061 5.7545097e-05 0)
(1.9831061 -5.754428e-05 0)
(1.8458371 -0.00015219794 0)
(1.6051928 -0.00019308817 0)
(1.3126976 -0.00017262381 0)
(1.017102 -0.00011722938 0)
(0.75164408 -6.7204368e-05 0)
(0.53180889 -3.4277814e-05 0)
(0.35978626 -1.5747668e-05 0)
(0.23042258 -6.4028199e-06 0)
(0.13580742 -2.1569549e-06 0)
(0.067935687 -5.0892195e-07 0)
(0.019899543 -7.3373407e-08 0)
(0.019895721 6.3728626e-08 0)
(0.067922849 4.4251698e-07 0)
(0.13578228 1.8767384e-06 0)
(0.23038125 5.5765188e-06 0)
(0.35972483 1.373865e-05 0)
(0.53172534 2.9997913e-05 0)
(0.75154264 5.9111368e-05 0)
(1.0170011 0.00010388791 0)
(1.3126344 0.00015540253 0)
(1.6052015 0.00017849513 0)
(1.8459125 0.00014271557 0)
(1.9832185 5.4330857e-05 0)
(1.9832185 -5.4330131e-05 0)
(1.8459125 -0.00014271485 0)
(1.6052015 -0.00017849447 0)
(1.3126344 -0.00015540201 0)
(1.0170011 -0.00010388762 0)
(0.75154264 -5.911127e-05 0)
(0.53172534 -2.9997936e-05 0)
(0.35972483 -1.373872e-05 0)
(0.23038125 -5.576569e-06 0)
(0.13578228 -1.8767978e-06 0)
(0.067922849 -4.4248616e-07 0)
(0.019895721 -6.3741953e-08 0)
(0.01989237 5.6091404e-08 0)
(0.067911585 3.8977403e-07 0)
(0.13576021 1.6541255e-06 0)
(0.2303449 4.9187577e-06 0)
(0.35967068 1.2131982e-05 0)
(0.53165135 2.6542347e-05 0)
(0.75145189 5.2498583e-05 0)
(1.0169086 9.2875403e-05 0)
(1.3125728 0.00014061458 0)
(1.605205 0.000165296 0)
(1.8459798 0.00013398926 0)
(1.9833221 5.1387657e-05 0)
(1.9833221 -5.1386991e-05 0)
(1.8459798 -0.00013398861 0)
(1.605205 -0.0001652954 0)
(1.3125728 -0.0001406141 0)
(1.0169086 -9.2875104e-05 0)
(0.75145189 -5.2498447e-05 0)
(0.53165135 -2.6542337e-05 0)
(0.35967068 -1.2132039e-05 0)
(0.2303449 -4.9188078e-06 0)
(0.13576021 -1.6541927e-06 0)
(0.067911585 -3.8974035e-07 0)
(0.01989237 -5.6106359e-08 0)
(0.019889403 4.9850016e-08 0)
(0.067901605 3.466145e-07 0)
(0.13574064 1.4717645e-06 0)
(0.23031263 4.3793822e-06 0)
(0.35962252 1.0812278e-05 0)
(0.5315853 2.3691311e-05 0)
(0.75137028 4.6983933e-05 0)
(1.016824 8.3545988e-05 0)
(1.3125139 0.00012773712 0)
(1.6052051 0.00015293324 0)
(1.8460415 0.00012582031 0)
(1.9834196 4.8616683e-05 0)
(1.9834196 -4.8616059e-05 0)
(1.8460415 -0.00012581971 0)
(1.6052051 -0.00015293267 0)
(1.3125139 -0.00012773667 0)
(1.016824 -8.3545695e-05 0)
(0.75137028 -4.6983794e-05 0)
(0.5315853 -2.3691309e-05 0)
(0.35962252 -1.0812357e-05 0)
(0.23031263 -4.3794509e-06 0)
(0.13574064 -1.4718551e-06 0)
(0.067901605 -3.4657129e-07 0)
(0.019889403 -4.9869921e-08 0)
(0.019886751 4.4699577e-08 0)
(0.067892683 3.1094175e-07 0)
(0.13572313 1.3208173e-06 0)
(0.23028375 3.9321966e-06 0)
(0.35957935 9.7158432e-06 0)
(0.53152591 2.1315487e-05 0)
(0.75129647 4.2360042e-05 0)
(1.0167465 7.561956e-05 0)
(1.3124581 0.00011654197 0)
(1.6052027 0.00014169844 0)
(1.8460982 0.00011827091 0)
(1.9835117 4.6031719e-05 0)
(1.9835117 -4.6031139e-05 0)
(1.8460982 -0.00011827035 0)
(1.6052027 -0.00014169791 0)
(1.3124581 -0.00011654155 0)
(1.0167465 -7.5619301e-05 0)
(0.75129647 -4.235994e-05 0)
(0.53152591 -2.1315535e-05 0)
(0.35957935 -9.7159793e-06 0)
(0.23028375 -3.9323036e-06 0)
(0.13572313 -1.3209474e-06 0)
(0.067892683 -3.1088272e-07 0)
(0.019886751 -4.4727703e-08 0)
(0.019884362 4.0386781e-08 0)
(0.067884642 2.8103812e-07 0)
(0.13570735 1.1941537e-06 0)
(0.23025769 3.5564742e-06 0)
(0.35954034 8.7928506e-06 0)
(0.53147215 1.9309917e-05 0)
(0.75122933 3.8439933e-05 0)
(1.0166753 6.8838593e-05 0)
(1.3124053 0.00010678313 0)
(1.6051982 0.00013155195 0)
(1.8461503 0.00011132786 0)
(1.9835985 4.3631261e-05 0)
(1.9835985 -4.3630746e-05 0)
(1.8461503 -0.00011132737 0)
(1.6051982 -0.00013155149 0)
(1.3124053 -0.00010678278 0)
(1.0166753 -6.8838403e-05 0)
(0.75122933 -3.8439909e-05 0)
(0.53147215 -1.9310059e-05 0)
(0.35954034 -8.7930792e-06 0)
(0.23025769 -3.5566391e-06 0)
(0.13570735 -1.1943398e-06 0)
(0.067884642 -2.8095696e-07 0)
(0.019884362 -4.0426411e-08 0)
(0.019882195 3.6711457e-08 0)
(0.067877347 2.5553793e-07 0)
(0.13569302 1.0860749e-06 0)
(0.23023402 3.2356134e-06 0)
(0.35950489 8.0035313e-06 0)
(0.53142319 1.7590802e-05 0)
(0.75116795 3.5066976e-05 0)
(1.0166096 6.2963766e-05 0)
(1.3123553 9.8202772e-05 0)
(1.6051923 0.00012233322 0)
(1.8461982 0.00010491295 0)
(1.9836803 4.1390513e-05 0)
(1.9836803 -4.1390091e-05 0)
(1.8461982 -0.00010491253 0)
(1.6051923 -0.00012233284 0)
(1.3123553 -9.8202517e-05 0)
(1.0166096 -6.2963677e-05 0)
(0.75116795 -3.5067068e-05 0)
(0.53142319 -1.7591078e-05 0)
(0.35950489 -8.0038862e-06 0)
(0.23023402 -3.2358555e-06 0)
(0.13569302 -1.0863334e-06 0)
(0.067877347 -2.5542781e-07 0)
(0.019882195 -3.6765982e-08 0)
(0.019880219 3.3538457e-08 0)
(0.067870694 2.335107e-07 0)
(0.13567996 9.9266778e-07 0)
(0.23021243 2.958134e-06 0)
(0.35947251 7.3202364e-06 0)
(0.53137841 1.6099995e-05 0)
(0.75111163 3.2132735e-05 0)
(1.0165488 5.7822988e-05 0)
(1.3123082 9.0601998e-05 0)
(1.6051852 0.00011395297 0)
(1.8462423 9.89557e-05 0)
(1.9837576 3.9288939e-05 0)
(1.9837576 -3.9288627e-05 0)
(1.8462423 -9.8955388e-05 0)
(1.6051852 -0.0001139527 0)
(1.3123082 -9.0601859e-05 0)
(1.0165488 -5.7823022e-05 0)
(0.75111163 -3.2132973e-05 0)
(0.53137841 -1.6100441e-05 0)
(0.35947251 -7.3207504e-06 0)
(0.23021243 -2.958472e-06 0)
(0.13567996 -9.9301562e-07 0)
(0.067870694 -2.3336426e-07 0)
(0.019880219 -3.3611428e-08 0)
(0.019878409 3.077367e-08 0)
(0.067864598 2.1430728e-07 0)
(0.13566798 9.1119575e-07 0)
(0.23019263 2.7159678e-06 0)
(0.35944281 6.7233657e-06 0)
(0.53133727 1.4795865e-05 0)
(0.75105975 2.9559405e-05 0)
(1.0164925 5.3292115e-05 0)
(1.3122638 8.3831079e-05 0)
(1.6051772 0.00010632357 0)
(1.846283 9.3402908e-05 0)
(1.9838307 3.7312342e-05 0)
(1.9838307 -3.7312147e-05 0)
(1.846283 -9.3402707e-05 0)
(1.6051772 -0.00010632341 0)
(1.3122638 -8.3831062e-05 0)
(1.0164925 -5.3292286e-05 0)
(0.75105975 -2.9559814e-05 0)
(0.53133727 -1.4796515e-05 0)
(0.35944281 -6.7240713e-06 0)
(0.23019263 -2.7164208e-06 0)
(0.13566798 -9.1165037e-07 0)
(0.067864598 -2.1411668e-07 0)
(0.019878409 -3.0868807e-08 0)
(0.019876744 2.8343293e-08 0)
(0.067858991 1.9741956e-07 0)
(0.13565696 8.3951985e-07 0)
(0.2301744 2.5028144e-06 0)
(0.35941546 6.1975955e-06 0)
(0.53129935 1.3645656e-05 0)
(0.75101182 2.7285033e-05 0)
(1.0164401 4.9271305e-05 0)
(1.3122219 7.7767201e-05 0)
(1.6051687 9.9355628e-05 0)
(1.8463207 8.8213184e-05 0)
(1.9838998 3.5449357e-05 0)
(1.9838998 -3.5449267e-05 0)
(1.8463207 -8.821309e-05 0)
(1.6051687 -9.9355579e-05 0)
(1.3122219 -7.7767301e-05 0)
(1.0164401 -4.9271617e-05 0)
(0.75101182 -2.7285635e-05 0)
(0.53129935 -1.3646544e-05 0)
(0.35941546 -6.1985259e-06 0)
(0.23017441 -2.5034018e-06 0)
(0.13565696 -8.4009937e-07 0)
(0.067858991 -1.9717654e-07 0)
(0.019876744 -2.8464488e-08 0)
(0.019875208 2.6189293e-08 0)
(0.067853816 1.824473e-07 0)
(0.13564679 7.7595343e-07 0)
(0.23015758 2.3137019e-06 0)
(0.35939019 5.7308256e-06 0)
(0.53126429 1.2623436e-05 0)
(0.75096741 2.5260088e-05 0)
(1.0163914 4.5679143e-05 0)
(1.3121824 7.2307573e-05 0)
(1.6051599 9.2972886e-05 0)
(1.8463555 8.3349923e-05 0)
(1.9839652 3.3689335e-05 0)
(1.9839652 -3.3689326e-05 0)
(1.8463555 -8.3349918e-05 0)
(1.6051599 -9.2972925e-05 0)
(1.3121824 -7.2307773e-05 0)
(1.0163914 -4.5679596e-05 0)
(0.7509674 -2.5260904e-05 0)
(0.53126429 -1.2624597e-05 0)
(0.35939019 -5.7320151e-06 0)
(0.23015758 -2.3144438e-06 0)
(0.13564679 -7.7667667e-07 0)
(0.067853816 -1.821432e-07 0)
(0.019875208 -2.6340601e-08 0)
(0.019873786 2.4266471e-08 0)
(0.067849025 1.6907814e-07 0)
(0.13563738 7.1917777e-07 0)
(0.230142 2.1447351e-06 0)
(0.35936678 5.3135524e-06 0)
(0.53123177 1.170878e-05 0)
(0.75092615 2.3445344e-05 0)
(1.016346 4.2450175e-05 0)
(1.3121451 6.7367161e-05 0)
(1.6051509 8.7107068e-05 0)
(1.8463878 7.8784789e-05 0)
(1.9840271 3.20237e-05 0)
(1.9840271 -3.202374e-05 0)
(1.8463878 -7.8784841e-05 0)
(1.6051509 -8.7107163e-05 0)
(1.3121451 -6.7367438e-05 0)
(1.016346 -4.2450767e-05 0)
(0.75092615 -2.3446395e-05 0)
(0.53123177 -1.171025e-05 0)
(0.35936678 -5.3150368e-06 0)
(0.230142 -2.1456525e-06 0)
(0.13563738 -7.2006421e-07 0)
(0.067849025 -1.6870395e-07 0)
(0.019873786 -2.44521e-08 0)
(0.019872466 2.2539244e-08 0)
(0.067844579 1.5706592e-07 0)
(0.13562864 6.6815247e-07 0)
(0.23012753 1.9928366e-06 0)
(0.35934504 4.9382529e-06 0)
(0.53120155 1.0885479e-05 0)
(0.75088775 2.1809577e-05 0)
(1.0163035 3.9531879e-05 0)
(1.31211 6.2876095e-05 0)
(1.6051418 8.170167e-05 0)
(1.8464178 7.4491549e-05 0)
(1.9840857 3.0444311e-05 0)
(1.9840857 -3.0444361e-05 0)
(1.8464178 -7.4491619e-05 0)
(1.6051418 -8.1701784e-05 0)
(1.31211 -6.2876425e-05 0)
(1.0163035 -3.9532609e-05 0)
(0.75088775 -2.1810886e-05 0)
(0.53120155 -1.0887295e-05 0)
(0.35934504 -4.9400694e-06 0)
(0.23012753 -1.9939511e-06 0)
(0.13562864 -6.6922205e-07 0)
(0.067844579 -1.5661234e-07 0)
(0.019872466 -2.2763515e-08 0)
(0.019871239 2.0979143e-08 0)
(0.067840444 1.4621349e-07 0)
(0.13562051 6.2204389e-07 0)
(0.23011407 1.8555383e-06 0)
(0.3593248 4.5988831e-06 0)
(0.53117341 1.0140471e-05 0)
(0.75085193 2.0327531e-05 0)
(1.0162638 3.6881561e-05 0)
(1.3120768 5.877666e-05 0)
(1.6051327 7.6706416e-05 0)
(1.8464457 7.0451088e-05 0)
(1.9841412 2.8945125e-05 0)
(1.9841412 -2.8945144e-05 0)
(1.8464457 -7.0451134e-05 0)
(1.6051327 -7.670651e-05 0)
(1.3120768 -5.877702e-05 0)
(1.0162638 -3.6882429e-05 0)
(0.75085193 -2.0329123e-05 0)
(0.53117341 -1.0142675e-05 0)
(0.3593248 -4.60107e-06 0)
(0.23011407 -1.8568718e-06 0)
(0.13562051 -6.2331666e-07 0)
(0.067840444 -1.4567109e-07 0)
(0.019871239 -2.1246411e-08 0)
(0.019870096 1.9563157e-08 0)
(0.06783659 1.363613e-07 0)
(0.13561293 5.8017722e-07 0)
(0.23010152 1.7308414e-06 0)
(0.35930593 4.2905444e-06 0)
(0.53114715 9.4631576e-06 0)
(0.75081848 1.8978649e-05 0)
(1.0162266 3.4464228e-05 0)
(1.3120455 5.5020723e-05 0)
(1.6051237 7.2080515e-05 0)
(1.8464718 6.664263e-05 0)
(1.9841938 2.7519706e-05 0)
(1.9841938 -2.7519656e-05 0)
(1.8464718 -6.6642611e-05 0)
(1.6051237 -7.2080555e-05 0)
(1.3120455 -5.5021092e-05 0)
(1.0162266 -3.4465236e-05 0)
(0.75081847 -1.8980551e-05 0)
(0.53114715 -9.4657905e-06 0)
(0.35930593 -4.2931404e-06 0)
(0.23010152 -1.7324158e-06 0)
(0.13561293 -5.8167289e-07 0)
(0.06783659 -1.3572075e-07 0)
(0.019870095 -1.9877707e-08 0)
(0.019869028 1.8272463e-08 0)
(0.067832992 1.2737873e-07 0)
(0.13560585 5.4199986e-07 0)
(0.23008981 1.6171078e-06 0)
(0.35928831 4.0092171e-06 0)
(0.53112261 8.8448229e-06 0)
(0.75078718 1.774598e-05 0)
(1.0161917 3.2250937e-05 0)
(1.3120159 5.1568083e-05 0)
(1.6051149 6.7786124e-05 0)
(1.846496 6.305295e-05 0)
(1.9842436 2.616402e-05 0)
(1.9842436 -2.616387e-05 0)
(1.846496 -6.305283e-05 0)
(1.6051149 -6.778608e-05 0)
(1.3120159 -5.1568445e-05 0)
(1.0161917 -3.2252091e-05 0)
(0.75078717 -1.7748221e-05 0)
(0.53112261 -8.8479262e-06 0)
(0.35928831 -4.0122602e-06 0)
(0.23008981 -1.6189442e-06 0)
(0.13560585 -5.4373723e-07 0)
(0.067832992 -1.2663108e-07 0)
(0.019869028 -1.8638381e-08 0)
(0.01986803 1.7091555e-08 0)
(0.067829629 1.1915807e-07 0)
(0.13559924 5.07056e-07 0)
(0.23007885 1.5129859e-06 0)
(0.35927182 3.7515847e-06 0)
(0.53109964 8.2782742e-06 0)
(0.75075786 1.6615514e-05 0)
(1.0161589 3.0217602e-05 0)
(1.311988 4.8384709e-05 0)
(1.6051063 6.3793629e-05 0)
(1.8465186 5.9663849e-05 0)
(1.9842909 2.4872704e-05 0)
(1.9842909 -2.487243e-05 0)
(1.8465186 -5.9663602e-05 0)
(1.6051063 -6.3793476e-05 0)
(1.311988 -4.838505e-05 0)
(1.0161589 -3.0218908e-05 0)
(0.75075786 -1.6618123e-05 0)
(0.53109964 -8.2818885e-06 0)
(0.35927182 -3.7551111e-06 0)
(0.23007885 -1.5151041e-06 0)
(0.13559924 -5.0905224e-07 0)
(0.067829629 -1.1829501e-07 0)
(0.01986803 -1.7512581e-08 0)
(0.019867096 1.600748e-08 0)
(0.06782648 1.1160933e-07 0)
(0.13559304 4.7496486e-07 0)
(0.23006859 1.4173458e-06 0)
(0.35925638 3.5148695e-06 0)
(0.53107813 7.7574721e-06 0)
(0.75073037 1.557546e-05 0)
(1.0161281 2.8343965e-05 0)
(1.3119616 4.5441945e-05 0)
(1.6050979 6.0073511e-05 0)
(1.8465398 5.6466875e-05 0)
(1.9843356 2.3643434e-05 0)
(1.9843356 -2.3643022e-05 0)
(1.8465398 -5.6466484e-05 0)
(1.6050979 -6.0073233e-05 0)
(1.3119616 -4.5442255e-05 0)
(1.0161281 -2.8345431e-05 0)
(0.75073036 -1.5578465e-05 0)
(0.53107813 -7.7616351e-06 0)
(0.35925638 -3.518912e-06 0)
(0.23006859 -1.4197633e-06 0)
(0.13559305 -4.7723479e-07 0)
(0.06782648 -1.1062354e-07 0)
(0.019867096 -1.6486853e-08 0)
(0.01986622 1.5009351e-08 0)
(0.067823528 1.0465679e-07 0)
(0.13558724 4.4540588e-07 0)
(0.23005897 1.3292368e-06 0)
(0.3592419 3.2967377e-06 0)
(0.53105794 7.2773491e-06 0)
(0.75070456 1.4615914e-05 0)
(1.0160992 2.6612839e-05 0)
(1.3119367 4.2714951e-05 0)
(1.6050897 5.6604099e-05 0)
(1.8465596 5.3444449e-05 0)
(1.984378 2.2471229e-05 0)
(1.984378 -2.2470672e-05 0)
(1.8465596 -5.3443905e-05 0)
(1.6050897 -5.6603682e-05 0)
(1.3119367 -4.2715222e-05 0)
(1.0160992 -2.6614473e-05 0)
(0.75070455 -1.4619339e-05 0)
(0.53105794 -7.2820939e-06 0)
(0.3592419 -3.301324e-06 0)
(0.23005898 -1.3319679e-06 0)
(0.13558724 -4.4796114e-07 0)
(0.067823529 -1.0354222e-07 0)
(0.01986622 -1.5549645e-08 0)
(0.019865399 1.4087928e-08 0)
(0.067820759 9.823628e-08 0)
(0.13558179 4.1810739e-07 0)
(0.23004995 1.2478517e-06 0)
(0.35922831 3.0952008e-06 0)
(0.53103899 6.8335691e-06 0)
(0.7506803 1.3728383e-05 0)
(1.0160719 2.5009593e-05 0)
(1.3119132 4.0182833e-05 0)
(1.6050818 5.3361458e-05 0)
(1.8465781 5.0592753e-05 0)
(1.9844182 2.135533e-05 0)
(1.9844182 -2.135463e-05 0)
(1.8465781 -5.0592051e-05 0)
(1.6050818 -5.3360893e-05 0)
(1.3119132 -4.0183057e-05 0)
(1.0160719 -2.5011397e-05 0)
(0.7506803 -1.3732248e-05 0)
(0.53103899 -6.8389222e-06 0)
(0.35922831 -3.1003521e-06 0)
(0.23004995 -1.2509066e-06 0)
(0.13558179 -4.2095568e-07 0)
(0.06782076 -9.6988554e-08 0)
(0.019865399 -1.4690875e-08 0)
(0.019864627 1.3235285e-08 0)
(0.067818158 9.2292546e-08 0)
(0.13557668 3.9283541e-07 0)
(0.23004147 1.172497e-06 0)
(0.35921554 2.908558e-06 0)
(0.53102118 6.4224404e-06 0)
(0.7506575 1.2905629e-05 0)
(1.0160463 2.3521524e-05 0)
(1.3118909 3.7826773e-05 0)
(1.6050742 5.0329764e-05 0)
(1.8465955 4.7893043e-05 0)
(1.9844563 2.0290424e-05 0)
(1.9844563 -2.0289586e-05 0)
(1.8465955 -4.7892185e-05 0)
(1.6050742 -5.0329042e-05 0)
(1.3118909 -3.7826941e-05 0)
(1.0160463 -2.35235e-05 0)
(0.75065749 -1.2909949e-05 0)
(0.53102118 -6.4284198e-06 0)
(0.35921555 -2.9142869e-06 0)
(0.23004147 -1.1758808e-06 0)
(0.13557668 -3.9597965e-07 0)
(0.067818159 -9.0909276e-08 0)
(0.019864627 -1.3901617e-08 0)
(0.019863902 1.2444665e-08 0)
(0.067815714 8.6778738e-08 0)
(0.13557187 3.6939167e-07 0)
(0.2300335 1.1025822e-06 0)
(0.35920354 2.7353486e-06 0)
(0.53100443 6.0407623e-06 0)
(0.75063604 1.2141366e-05 0)
(1.0160221 2.2137825e-05 0)
(1.3118699 3.5631388e-05 0)
(1.6050669 4.7488973e-05 0)
(1.8466118 4.5346836e-05 0)
(1.9844924 1.9277466e-05 0)
(1.9844924 -1.9276497e-05 0)
(1.8466118 -4.5345822e-05 0)
(1.6050669 -4.7488088e-05 0)
(1.3118699 -3.5631489e-05 0)
(1.0160221 -2.213997e-05 0)
(0.75063603 -1.2146146e-05 0)
(0.53100443 -6.0473754e-06 0)
(0.35920355 -2.741658e-06 0)
(0.2300335 -1.1062941e-06 0)
(0.13557187 -3.7282928e-07 0)
(0.067815715 -8.5259928e-08 0)
(0.019863902 -1.3173943e-08 0)
(0.01986322 1.1710079e-08 0)
(0.067813414 8.1652902e-08 0)
(0.13556734 3.4759829e-07 0)
(0.230026 1.0375812e-06 0)
(0.35919224 2.5742886e-06 0)
(0.53098867 5.6857593e-06 0)
(0.75061583 1.1430137e-05 0)
(1.0159993 2.0848751e-05 0)
(1.31185 3.3581723e-05 0)
(1.6050599 4.4827562e-05 0)
(1.8466271 4.2932225e-05 0)
(1.9845266 1.8310026e-05 0)
(1.9845266 -1.8308936e-05 0)
(1.8466271 -4.2931054e-05 0)
(1.6050599 -4.4826504e-05 0)
(1.31185 -3.3581744e-05 0)
(1.0159993 -2.0851056e-05 0)
(0.75061583 -1.1435375e-05 0)
(0.53098867 -5.6930017e-06 0)
(0.35919225 -2.58117e-06 0)
(0.23002601 -1.0416139e-06 0)
(0.13556734 -3.5132054e-07 0)
(0.067813415 -8.0001225e-08 0)
(0.01986322 -1.2500559e-08 0)
(0.019862578 1.1026561e-08 0)
(0.06781125 7.6880839e-08 0)
(0.13556308 3.2731074e-07 0)
(0.23001894 9.7706101e-07 0)
(0.35918161 2.4242947e-06 0)
(0.53097382 5.355031e-06 0)
(0.75059679 1.0767214e-05 0)
(1.0159778 1.9646288e-05 0)
(1.3118311 3.1666704e-05 0)
(1.6050531 4.232855e-05 0)
(1.8466415 4.065763e-05 0)
(1.984559 1.7391284e-05 0)
(1.984559 -1.7390082e-05 0)
(1.8466415 -4.0656302e-05 0)
(1.6050531 -4.2327309e-05 0)
(1.3118311 -3.1666629e-05 0)
(1.0159778 -1.9648738e-05 0)
(0.75059679 -1.0772896e-05 0)
(0.53097383 -5.3628852e-06 0)
(0.35918162 -2.4317272e-06 0)
(0.23001895 -9.8139977e-07 0)
(0.13556309 -3.313022e-07 0)
(0.067811251 -7.5101988e-08 0)
(0.019862578 -1.1875064e-08 0)
(0.019861973 1.0389335e-08 0)
(0.067809211 7.2428702e-08 0)
(0.13555907 3.0838509e-07 0)
(0.23001229 9.2059925e-07 0)
(0.35917159 2.2843511e-06 0)
(0.53095983 5.0464112e-06 0)
(0.75057884 1.0148329e-05 0)
(1.0159575 1.8522566e-05 0)
(1.3118133 2.9873519e-05 0)
(1.6050467 3.9983171e-05 0)
(1.846655 3.8495341e-05 0)
(1.9845898 1.6512678e-05 0)
(1.9845898 -1.6511378e-05 0)
(1.8466551 -3.8493855e-05 0)
(1.6050467 -3.9981738e-05 0)
(1.3118133 -2.9873331e-05 0)
(1.0159575 -1.8525141e-05 0)
(0.75057884 -1.0154432e-05 0)
(0.53095983 -5.0548449e-06 0)
(0.3591716 -2.2923002e-06 0)
(0.2300123 -9.252216e-07 0)
(0.13555907 -3.1262317e-07 0)
(0.067809212 -7.0531551e-08 0)
(0.019861974 -1.1291164e-08 0)
(0.019861404 9.7949382e-09 0)
(0.067807289 6.8273293e-08 0)
(0.13555529 2.9072371e-07 0)
(0.23000603 8.6789731e-07 0)
(0.35916215 2.1536837e-06 0)
(0.53094664 4.7581288e-06 0)
(0.75056192 9.5699746e-06 0)
(1.0159384 1.7471896e-05 0)
(1.3117965 2.8195118e-05 0)
(1.6050405 3.777774e-05 0)
(1.8466677 3.6463391e-05 0)
(1.9846188 1.5680632e-05 0)
(1.9846188 -1.5679243e-05 0)
(1.8466677 -3.6461749e-05 0)
(1.6050405 -3.777611e-05 0)
(1.3117965 -2.8194803e-05 0)
(1.0159384 -1.7474574e-05 0)
(0.75056191 -9.5764627e-06 0)
(0.53094665 -4.7670951e-06 0)
(0.35916216 -2.1621011e-06 0)
(0.23000603 -8.7277274e-07 0)
(0.13555529 -2.951785e-07 0)
(0.067807291 -6.6270157e-08 0)
(0.019861404 -1.0743801e-08 0)
(0.019860866 9.2391384e-09 0)
(0.067805477 6.4383749e-08 0)
(0.13555172 2.7419463e-07 0)
(0.23000011 8.1857555e-07 0)
(0.35915324 2.0314139e-06 0)
(0.5309342 4.4883799e-06 0)
(0.75054594 9.0286052e-06 0)
(1.0159203 1.6487339e-05 0)
(1.3117806 2.6619033e-05 0)
(1.6050346 3.5704018e-05 0)
(1.8466798 3.4524518e-05 0)
(1.9846465 1.4882994e-05 0)
(1.9846465 -1.4881521e-05 0)
(1.8466798 -3.4522732e-05 0)
(1.6050346 -3.5702193e-05 0)
(1.3117805 -2.6618576e-05 0)
(1.0159203 -1.6490091e-05 0)
(0.75054593 -9.0354333e-06 0)
(0.5309342 -4.4978166e-06 0)
(0.35915325 -2.0402372e-06 0)
(0.23000012 -8.2366578e-07 0)
(0.13555173 -2.78829e-07 0)
(0.067805479 -6.2290568e-08 0)
(0.019860867 -1.0227152e-08 0)
(0.019860359 8.7202317e-09 0)
(0.067803768 6.0750339e-08 0)
(0.13554836 2.5875807e-07 0)
(0.22999454 7.7249513e-07 0)
(0.35914484 1.9171085e-06 0)
(0.53092246 4.2360303e-06 0)
(0.75053087 8.5219162e-06 0)
(1.0159032 1.5565708e-05 0)
(1.3117655 2.5143169e-05 0)
(1.605029 3.3753654e-05 0)
(1.846691 3.2710743e-05 0)
(1.9846726 1.4131174e-05 0)
(1.9846726 -1.4129629e-05 0)
(1.846691 -3.2708828e-05 0)
(1.605029 -3.3751636e-05 0)
(1.3117655 -2.5142559e-05 0)
(1.0159032 -1.5568503e-05 0)
(0.75053086 -8.529028e-06 0)
(0.53092247 -4.2458597e-06 0)
(0.35914485 -1.9262611e-06 0)
(0.22999455 -7.7775381e-07 0)
(0.13554837 -2.6352789e-07 0)
(0.06780377 -5.8586236e-08 0)
(0.01986036 -9.7380392e-09 0)
(0.019859881 8.2335033e-09 0)
(0.067802154 5.7336979e-08 0)
(0.13554518 2.4425844e-07 0)
(0.22998927 7.2922509e-07 0)
(0.3591369 1.8098435e-06 0)
(0.53091137 3.9993404e-06 0)
(0.75051662 8.0465555e-06 0)
(1.0158871 1.4699797e-05 0)
(1.3117512 2.3752787e-05 0)
(1.6050236 3.1914924e-05 0)
(1.8467017 3.0969805e-05 0)
(1.9846975 1.3407214e-05 0)
(1.9846975 -1.3405619e-05 0)
(1.8467017 -3.0967779e-05 0)
(1.6050236 -3.1912723e-05 0)
(1.3117512 -2.3752014e-05 0)
(1.0158871 -1.4702601e-05 0)
(0.75051661 -8.0538836e-06 0)
(0.53091138 -4.0094696e-06 0)
(0.35913691 -1.8192353e-06 0)
(0.22998928 -7.3459837e-07 0)
(0.13554519 -2.4911294e-07 0)
(0.067802156 -5.5124328e-08 0)
(0.019859881 -9.2703172e-09 0)
(0.019859429 7.7804882e-09 0)
(0.067800632 5.415961e-08 0)
(0.13554219 2.3076584e-07 0)
(0.22998431 6.8892115e-07 0)
(0.35912942 1.7097754e-06 0)
(0.53090092 3.7781809e-06 0)
(0.75050318 7.6020213e-06 0)
(1.0158718 1.38903e-05 0)
(1.3117377 2.2453942e-05 0)
(1.6050185 3.0190274e-05 0)
(1.8467116 2.9354706e-05 0)
(1.9847208 1.273044e-05 0)
(1.9847208 -1.2728823e-05 0)
(1.8467116 -2.9352589e-05 0)
(1.6050185 -3.0187905e-05 0)
(1.3117377 -2.2453003e-05 0)
(1.0158718 -1.3893078e-05 0)
(0.75050318 -7.6094893e-06 0)
(0.53090092 -3.7885041e-06 0)
(0.35912943 -1.7193048e-06 0)
(0.22998432 -6.9434949e-07 0)
(0.1355422 -2.3564898e-07 0)
(0.067800635 -5.1924106e-08 0)
(0.01985943 -8.8242344e-09 0)
(0.019859002 7.3533187e-09 0)
(0.06779919 5.1155817e-08 0)
(0.13553935 2.1801065e-07 0)
(0.2299796 6.5086583e-07 0)
(0.35912233 1.6154953e-06 0)
(0.53089101 3.5702124e-06 0)
(0.75049045 7.1840878e-06 0)
(1.0158574 1.3127478e-05 0)
(1.3117249 2.122485e-05 0)
(1.6050136 2.8556968e-05 0)
(1.8467212 2.7790366e-05 0)
(1.9847433 1.2073794e-05 0)
(1.9847433 -1.2072189e-05 0)
(1.8467212 -2.7788198e-05 0)
(1.6050136 -2.8554457e-05 0)
(1.3117249 -2.1223747e-05 0)
(1.0158574 -1.3130193e-05 0)
(0.75049044 -7.1916113e-06 0)
(0.53089101 -3.5806122e-06 0)
(0.35912234 -1.6250514e-06 0)
(0.22997961 -6.5628503e-07 0)
(0.13553936 -2.228631e-07 0)
(0.067799193 -4.8925208e-08 0)
(0.019859002 -8.3911983e-09 0)
(0.019858599 6.9622954e-09 0)
(0.067797834 4.8409356e-08 0)
(0.13553668 2.0635123e-07 0)
(0.22997518 6.1597784e-07 0)
(0.35911565 1.5286522e-06 0)
(0.53088168 3.3777424e-06 0)
(0.75047847 6.7963473e-06 0)
(1.0158438 1.2420271e-05 0)
(1.3117128 2.0087885e-05 0)
(1.6050089 2.7040495e-05 0)
(1.84673 2.636219e-05 0)
(1.9847641 1.1469488e-05 0)
(1.9847642 -1.1467937e-05 0)
(1.84673 -2.6360016e-05 0)
(1.6050089 -2.7037879e-05 0)
(1.3117128 -2.0086631e-05 0)
(1.0158438 -1.2422892e-05 0)
(0.75047846 -6.8038393e-06 0)