/*--------------------------------*- C++ -*----------------------------------*\
| =========                 |                                                 |
| \\      /  F ield         | OpenFOAM: The Open Source CFD Toolbox           |
|  \\    /   O peration     | Version:  2406                                  |
|   \\  /    A nd           | Website:  www.openfoam.com                      |
|    \\/     M anipulation  |                                                 |
\*---------------------------------------------------------------------------*/
FoamFile
{
    version     2.0;
    format      ascii;
    arch        "LSB;label=32;scalar=64";
    class       volScalarField;
    location    "41";
    object      p;
}
// * * * * * * * * * * * * * * * * * * * * * * * * * * * * * * * * * * * * * //

dimensions      [0 2 -2 0 0 0 0];

internalField   nonuniform List<scalar> 
1176
(
0.79699977
0.79702264
0.7970463
0.79705397
0.79702244
0.79692774
0.79677051
0.79658435
0.79640515
0.79623799
0.79608337
0.79598776
0.79598776
0.79608336
0.79623798
0.79640513
0.79658432
0.79677047
0.79692767
0.79702234
0.79705383
0.79704612
0.79702243
0.79699954
0.77385134
0.77380438
0.77375662
0.77373972
0.77380222
0.77400458
0.7743699
0.7748343
0.77526516
0.77555126
0.77567066
0.77570492
0.77570492
0.77567066
0.77555127
0.77526518
0.77483435
0.77436998
0.77400471
0.77380239
0.77373992
0.77375684
0.77380461
0.77385156
0.75676658
0.75678859
0.75680839
0.75680648
0.75674741
0.75658624
0.75631447
0.75598652
0.75568031
0.75546752
0.75535672
0.7553079
0.75530789
0.75535671
0.7554675
0.75568029
0.7559865
0.75631445
0.75658622
0.7567474
0.75680647
0.75680838
0.75678859
0.75676658
0.74009469
0.74010381
0.74011587
0.74013227
0.74015482
0.74017239
0.74014015
0.74000674
0.73977463
0.73950207
0.73927786
0.73915736
0.73915736
0.73927786
0.73950206
0.73977462
0.74000673
0.74014015
0.74017239
0.74015482
0.74013227
0.74011587
0.74010381
0.74009469
0.72367564
0.72367959
0.72368458
0.72369065
0.72370035
0.72372062
0.72375681
0.72379832
0.72381999
0.72379612
0.723734
0.72368137
0.72368137
0.723734
0.72379611
0.72381998
0.72379831
0.72375681
0.72372063
0.72370036
0.72369067
0.72368461
0.72367962
0.72367566
0.70721398
0.7072164
0.70721964
0.70722368
0.7072286
0.70723543
0.7072496
0.70728091
0.7073309
0.70738815
0.70743086
0.70744751
0.70744751
0.70743086
0.70738814
0.70733089
0.7072809
0.7072496
0.70723543
0.70722861
0.7072237
0.70721966
0.70721641
0.707214
0.69080817
0.69081031
0.69081312
0.69081655
0.69082045
0.69082396
0.69082603
0.6908282
0.69083675
0.69085398
0.69087188
0.6908836
0.6908836
0.69087188
0.69085398
0.69083674
0.6908282
0.69082603
0.69082396
0.69082046
0.69081656
0.69081313
0.69081033
0.69080819
0.67442831
0.67443007
0.67443239
0.67443531
0.67443899
0.67444336
0.67444781
0.67445097
0.6744522
0.67445382
0.67445087
0.67444836
0.67444835
0.67445086
0.67445381
0.67445219
0.67445096
0.67444781
0.67444336
0.674439
0.67443533
0.67443241
0.67443008
0.67442832
0.65807403
0.65807548
0.65807741
0.65807982
0.65808284
0.65808662
0.65809167
0.65809871
0.6581074
0.65811743
0.6581252
0.65812878
0.65812878
0.65812519
0.65811742
0.65810739
0.65809871
0.65809167
0.65808663
0.65808284
0.65807983
0.65807742
0.65807549
0.65807404
0.64173633
0.64173754
0.64173914
0.64174118
0.64174375
0.64174692
0.64175108
0.64175747
0.64176763
0.64178077
0.6417951
0.6418044
0.6418044
0.6417951
0.64178076
0.64176763
0.64175747
0.64175108
0.64174693
0.64174375
0.64174119
0.64173916
0.64173755
0.64173635
0.62541195
0.62541298
0.62541436
0.6254161
0.62541832
0.62542104
0.62542444
0.62542928
0.62543714
0.62544781
0.62546037
0.6254695
0.6254695
0.62546037
0.6254478
0.62543714
0.62542928
0.62542444
0.62542104
0.62541832
0.62541611
0.62541437
0.62541299
0.62541197
0.60909848
0.60909937
0.60910057
0.6091021
0.60910404
0.60910644
0.6091094
0.60911341
0.60911962
0.60912829
0.60913885
0.6091463
0.6091463
0.60913885
0.60912828
0.60911962
0.6091134
0.6091094
0.60910644
0.60910405
0.60910211
0.60910058
0.60909939
0.60909849
0.59279428
0.59279507
0.59279613
0.59279748
0.5927992
0.59280133
0.59280396
0.5928075
0.5928129
0.59282065
0.59283034
0.59283702
0.59283702
0.59283034
0.59282065
0.5928129
0.5928075
0.59280396
0.59280133
0.59279921
0.59279749
0.59279614
0.59279509
0.5927943
0.57649806
0.57649877
0.57649971
0.57650091
0.57650245
0.57650435
0.5765067
0.57650983
0.57651461
0.57652158
0.57653025
0.57653634
0.57653634
0.57653024
0.57652158
0.5765146
0.57650983
0.5765067
0.57650436
0.57650246
0.57650092
0.57649972
0.57649878
0.57649808
0.5602088
0.56020942
0.56021027
0.56021135
0.56021274
0.56021445
0.56021655
0.56021932
0.56022347
0.56022961
0.56023713
0.56024254
0.56024253
0.56023713
0.5602296
0.56022347
0.56021931
0.56021655
0.56021446
0.56021275
0.56021137
0.56021029
0.56020945
0.56020882
0.54392567
0.54392624
0.54392701
0.54392799
0.54392924
0.5439308
0.54393269
0.54393514
0.54393878
0.54394416
0.5439507
0.54395549
0.54395549
0.54395069
0.54394415
0.54393878
0.54393514
0.54393269
0.54393081
0.54392926
0.54392801
0.54392703
0.54392627
0.5439257
0.52764805
0.52764856
0.52764926
0.52765015
0.5276513
0.52765271
0.52765443
0.52765664
0.52765986
0.52766462
0.52767035
0.52767464
0.52767464
0.52767034
0.52766462
0.52765985
0.52765663
0.52765444
0.52765272
0.52765132
0.52765018
0.52764929
0.5276486
0.52764808
0.51137537
0.51137584
0.51137648
0.51137729
0.51137834
0.51137964
0.51138121
0.5113832
0.51138607
0.51139032
0.51139538
0.51139924
0.51139924
0.51139537
0.51139032
0.51138607
0.51138319
0.51138121
0.51137965
0.51137837
0.51137733
0.51137651
0.51137588
0.51137541
0.49510717
0.49510761
0.49510819
0.49510894
0.4951099
0.4951111
0.49511254
0.49511434
0.49511692
0.49512073
0.49512522
0.49512871
0.49512871
0.49512522
0.49512072
0.49511691
0.49511434
0.49511254
0.49511111
0.49510993
0.49510898
0.49510823
0.49510765
0.49510722
0.47884306
0.47884346
0.478844
0.47884469
0.47884558
0.47884668
0.478848
0.47884965
0.47885197
0.4788554
0.47885944
0.47886259
0.47886259
0.47885943
0.47885539
0.47885196
0.47884964
0.47884801
0.4788467
0.47884561
0.47884473
0.47884405
0.47884351
0.47884311
0.46258269
0.46258306
0.46258356
0.4625842
0.46258502
0.46258604
0.46258726
0.46258877
0.46259087
0.46259397
0.46259762
0.46260049
0.46260049
0.46259762
0.46259396
0.46259086
0.46258876
0.46258726
0.46258606
0.46258505
0.46258424
0.46258361
0.46258311
0.46258275
0.44632576
0.4463261
0.44632656
0.44632715
0.44632792
0.44632886
0.44632999
0.44633138
0.4463333
0.44633611
0.44633943
0.44634205
0.44634204
0.44633943
0.4463361
0.44633328
0.44633137
0.44633
0.44632888
0.44632795
0.4463272
0.44632662
0.44632616
0.44632582
0.43007199
0.43007231
0.43007274
0.43007329
0.430074
0.43007488
0.43007593
0.43007721
0.43007896
0.43008153
0.43008457
0.43008696
0.43008695
0.43008456
0.43008152
0.43007894
0.4300772
0.43007593
0.4300749
0.43007404
0.43007334
0.4300728
0.43007237
0.43007206
0.41382116
0.41382145
0.41382185
0.41382237
0.41382303
0.41382384
0.41382482
0.41382601
0.41382762
0.41382997
0.41383276
0.41383495
0.41383495
0.41383276
0.41382996
0.4138276
0.413826
0.41382483
0.41382387
0.41382307
0.41382242
0.41382191
0.41382152
0.41382123
0.39757304
0.39757331
0.39757369
0.39757417
0.39757478
0.39757555
0.39757646
0.39757756
0.39757904
0.39758121
0.39758378
0.39758579
0.39758579
0.39758377
0.39758119
0.39757902
0.39757755
0.39757646
0.39757557
0.39757483
0.39757423
0.39757375
0.39757339
0.39757311
0.38132745
0.3813277
0.38132805
0.3813285
0.38132908
0.38132979
0.38133064
0.38133167
0.38133303
0.38133503
0.38133741
0.38133926
0.38133926
0.3813374
0.38133501
0.38133301
0.38133165
0.38133065
0.38132982
0.38132912
0.38132856
0.38132812
0.38132778
0.38132752
0.3650842
0.36508444
0.36508477
0.36508519
0.36508573
0.3650864
0.36508719
0.36508815
0.36508941
0.36509126
0.36509347
0.36509518
0.36509518
0.36509346
0.36509124
0.36508939
0.36508813
0.3650872
0.36508642
0.36508578
0.36508526
0.36508484
0.36508452
0.36508428
0.34884315
0.34884338
0.34884368
0.34884407
0.34884458
0.34884521
0.34884595
0.34884684
0.34884802
0.34884973
0.34885179
0.34885337
0.34885337
0.34885178
0.34884971
0.348848
0.34884683
0.34884596
0.34884524
0.34884463
0.34884414
0.34884376
0.34884346
0.34884323
0.33260415
0.33260436
0.33260464
0.33260501
0.33260549
0.33260607
0.33260677
0.33260761
0.3326087
0.33261029
0.33261221
0.33261368
0.33261368
0.3326122
0.33261027
0.33260868
0.33260759
0.33260678
0.33260611
0.33260554
0.33260508
0.33260472
0.33260444
0.33260423
0.31636706
0.31636726
0.31636752
0.31636787
0.31636832
0.31636887
0.31636952
0.3163703
0.31637133
0.3163728
0.31637459
0.31637596
0.31637596
0.31637458
0.31637278
0.3163713
0.31637029
0.31636953
0.3163689
0.31636837
0.31636794
0.3163676
0.31636734
0.31636714
0.30013176
0.30013195
0.3001322
0.30013252
0.30013294
0.30013346
0.30013408
0.30013481
0.30013576
0.30013714
0.30013881
0.30014009
0.30014009
0.30013881
0.30013712
0.30013574
0.3001348
0.30013408
0.30013349
0.300133
0.3001326
0.30013228
0.30013203
0.30013185
0.28389814
0.28389832
0.28389856
0.28389886
0.28389926
0.28389974
0.28390032
0.28390101
0.2839019
0.28390318
0.28390475
0.28390594
0.28390594
0.28390474
0.28390317
0.28390188
0.283901
0.28390033
0.28389978
0.28389931
0.28389894
0.28389864
0.28389841
0.28389823
0.2676661
0.26766627
0.26766649
0.26766678
0.26766715
0.26766761
0.26766816
0.2676688
0.26766964
0.26767083
0.26767231
0.26767342
0.26767342
0.2676723
0.26767082
0.26766961
0.26766879
0.26766816
0.26766764
0.26766721
0.26766686
0.26766657
0.26766636
0.26766619
0.25143555
0.2514357
0.25143591
0.25143618
0.25143653
0.25143697
0.25143748
0.25143809
0.25143887
0.25143999
0.25144137
0.2514424
0.2514424
0.25144136
0.25143997
0.25143885
0.25143807
0.25143749
0.251437
0.25143659
0.25143626
0.25143599
0.25143579
0.25143563
0.23520638
0.23520653
0.23520673
0.23520698
0.23520731
0.23520772
0.2352082
0.23520877
0.23520951
0.23521056
0.23521186
0.23521283
0.23521283
0.23521185
0.23521054
0.23520949
0.23520876
0.23520821
0.23520775
0.23520736
0.23520705
0.2352068
0.2352066
0.23520646
0.21897853
0.21897867
0.21897885
0.21897909
0.2189794
0.21897979
0.21898024
0.21898078
0.21898147
0.21898245
0.21898367
0.21898458
0.21898458
0.21898366
0.21898244
0.21898145
0.21898077
0.21898025
0.21897981
0.21897945
0.21897915
0.21897892
0.21897873
0.21897859
0.2027519
0.20275203
0.20275221
0.20275244
0.20275273
0.20275309
0.20275352
0.20275403
0.20275468
0.2027556
0.20275675
0.20275761
0.20275761
0.20275674
0.20275559
0.20275466
0.20275402
0.20275353
0.20275312
0.20275277
0.20275249
0.20275226
0.20275209
0.20275196
0.18652644
0.18652657
0.18652673
0.18652695
0.18652722
0.18652757
0.18652797
0.18652845
0.18652906
0.18652992
0.186531
0.1865318
0.1865318
0.18653099
0.18652991
0.18652904
0.18652844
0.18652797
0.18652758
0.18652725
0.18652698
0.18652677
0.1865266
0.18652648
0.17030208
0.17030219
0.17030235
0.17030255
0.17030281
0.17030314
0.17030352
0.17030397
0.17030454
0.17030535
0.17030637
0.17030713
0.17030713
0.17030637
0.17030535
0.17030453
0.17030396
0.17030352
0.17030314
0.17030282
0.17030256
0.17030236
0.1703022
0.17030208
0.15407875
0.15407886
0.154079
0.1540792
0.15407944
0.15407975
0.15408011
0.15408053
0.15408107
0.15408182
0.15408277
0.15408347
0.15408348
0.15408277
0.15408182
0.15408106
0.15408053
0.15408011
0.15407974
0.15407943
0.15407918
0.15407899
0.15407883
0.15407872
0.13785638
0.13785649
0.13785663
0.13785681
0.13785704
0.13785733
0.13785767
0.13785807
0.13785857
0.13785928
0.13786018
0.13786084
0.13786085
0.13786019
0.13785929
0.13785857
0.13785807
0.13785766
0.13785731
0.13785701
0.13785676
0.13785657
0.13785642
0.13785632
0.12163495
0.12163505
0.12163518
0.12163536
0.12163557
0.12163585
0.12163617
0.12163654
0.12163701
0.12163767
0.12163849
0.12163909
0.12163909
0.12163849
0.12163768
0.12163703
0.12163655
0.12163616
0.12163581
0.12163551
0.12163527
0.12163509
0.12163494
0.12163484
0.10541437
0.10541446
0.10541459
0.10541475
0.10541496
0.10541522
0.10541552
0.10541587
0.10541631
0.10541692
0.10541769
0.10541825
0.10541825
0.1054177
0.10541695
0.10541634
0.10541589
0.10541551
0.10541516
0.10541486
0.10541462
0.10541444
0.1054143
0.1054142
0.089194656
0.089194745
0.089194864
0.089195017
0.089195214
0.089195456
0.089195742
0.08919607
0.08919647
0.089197008
0.089197661
0.08919813
0.089198136
0.08919768
0.089197041
0.08919651
0.089196097
0.089195727
0.089195381
0.089195078
0.089194836
0.089194664
0.089194528
0.08919443
0.072975651
0.072975734
0.072975846
0.072975991
0.072976178
0.072976411
0.072976685
0.072976998
0.072977371
0.072977862
0.072978443
0.072978841
0.072978849
0.072978468
0.072977908
0.072977427
0.072977035
0.072976667
0.072976315
0.072976005
0.072975762
0.072975594
0.072975463
0.072975371
0.05675753
0.056757611
0.056757719
0.056757857
0.056758033
0.056758248
0.056758498
0.05675878
0.056759097
0.056759466
0.056759838
0.056760051
0.056760059
0.056759868
0.056759524
0.056759169
0.05675883
0.05675848
0.056758136
0.056757831
0.056757592
0.056757431
0.056757303
0.056757213
0.040539742
0.040539813
0.040539911
0.040540041
0.040540216
0.04054044
0.040540704
0.040540992
0.040541313
0.040541713
0.040542174
0.040542477
0.040542487
0.040542208
0.040541781
0.0405414
0.040541053
0.040540687
0.04054032
0.04054
0.040539759
0.040539605
0.04053949
0.040539411
0.024323471
0.024323554
0.024323661
0.024323789
0.024323936
0.024324097
0.024324268
0.024324449
0.02432461
0.024324681
0.024324584
0.024324348
0.024324357
0.024324619
0.024324752
0.024324701
0.02432451
0.02432425
0.024323979
0.024323734
0.024323536
0.024323398
0.024323284
0.0243232
0.0081053721
0.0081054423
0.0081055351
0.0081056564
0.0081058171
0.0081060165
0.0081062368
0.0081064749
0.0081068502
0.008107681
0.0081091527
0.0081105157
0.0081105197
0.0081091718
0.0081077261
0.0081069115
0.0081065166
0.0081062209
0.008105929
0.0081056707
0.0081054769
0.0081053504
0.0081052566
0.0081051892
)
;

boundaryField
{
    INLET
    {
        type            zeroGradient;
    }
    OUTLET
    {
        type            fixedValue;
        value           uniform 0;
    }
    WALL
    {
        type            zeroGradient;
    }
    frontAndBackPlanes
    {
        type            empty;
    }
}


// ************************************************************************* //
