/*--------------------------------*- C++ -*----------------------------------*\
| =========                 |                                                 |
| \\      /  F ield         | OpenFOAM: The Open Source CFD Toolbox           |
|  \\    /   O peration     | Version:  2406                                  |
|   \\  /    A nd           | Website:  www.openfoam.com                      |
|    \\/     M anipulation  |                                                 |
\*---------------------------------------------------------------------------*/
FoamFile
{
    version     2.0;
    format      ascii;
    arch        "LSB;label=32;scalar=64";
    class       surfaceScalarField;
    location    "41";
    object      phi;
}
// * * * * * * * * * * * * * * * * * * * * * * * * * * * * * * * * * * * * * //

dimensions      [0 3 -1 0 0 0 0];

oriented        oriented;

internalField   nonuniform List<scalar> 
2279
(
2.36175e-08
1.0148926e-05
2.0509768e-07
4.982375e-05
6.9331768e-07
0.00014252872
1.5784717e-06
0.00034353082
2.6788479e-06
0.00075378089
3.3472917e-06
0.0015415573
3.0435207e-06
0.0029497096
2.1516854e-06
0.005249171
1.4318058e-06
0.008582269
9.89595e-07
0.012685995
5.1267175e-07
0.016666385
6.5500717e-12
0.01918202
-5.1265649e-07
0.01918202
-9.8956936e-07
0.016666385
-1.4317544e-06
0.012685995
-2.1516004e-06
0.008582269
-3.043392e-06
0.0052491709
-3.3471196e-06
0.0029497095
-2.6786501e-06
0.0015415572
-1.5782818e-06
0.00075378081
-6.9316356e-07
0.00034353078
-2.0499946e-07
0.00014252871
-2.3572937e-08
4.9823746e-05
1.0148926e-05
-9.5248455e-08
1.0244175e-05
-5.3794004e-07
5.0266441e-05
-1.6230011e-06
0.00014361378
-3.5389523e-06
0.00034544677
-5.9201864e-06
0.00075616213
-7.405502e-06
0.0015430426
-6.5847264e-06
0.0029488888
-3.9361579e-06
0.0052465224
-1.3883859e-06
0.0085797213
-6.5113982e-08
0.012684671
2.4241394e-07
0.016666078
7.6809091e-12
0.019182263
-2.4240239e-07
0.019182263
6.5108058e-08
0.016666078
1.3883361e-06
0.012684671
3.9360388e-06
0.0085797214
6.5845295e-06
0.0052465225
7.4052622e-06
0.0029488889
5.9199652e-06
0.0015430427
3.5387981e-06
0.00075616219
1.6229182e-06
0.0003454468
5.3790705e-07
0.0001436138
9.5243015e-08
5.0266447e-05
1.0244176e-05
5.0139857e-08
1.0194035e-05
2.6334502e-07
5.0053236e-05
7.4910722e-07
0.00014312802
1.5314584e-06
0.00034466442
2.3366558e-06
0.00075535693
2.5476623e-06
0.0015428316
1.839097e-06
0.0029495974
9.7567622e-07
0.0052473858
6.7696087e-07
0.00858002
6.7179087e-07
0.012684677
4.8417235e-07
0.016666266
1.6234207e-11
0.019182747
-4.8413628e-07
0.019182747
-6.7174718e-07
0.016666266
-6.7691454e-07
0.012684677
-9.7562764e-07
0.0085800199
-1.8390547e-06
0.0052473858
-2.5476373e-06
0.0029495974
-2.3366495e-06
0.0015428316
-1.5314626e-06
0.00075535692
-7.4911412e-07
0.00034466442
-2.633501e-07
0.00014312802
-5.0142642e-08
5.0053235e-05
1.0194035e-05
1.9586726e-08
1.0174448e-05
1.1184926e-07
4.9960974e-05
3.6128428e-07
0.00014287858
9.0504776e-07
0.00034412066
1.87166e-06
0.00075439032
3.0948238e-06
0.0015416085
3.8987244e-06
0.0029487935
3.7285555e-06
0.005247556
2.9242103e-06
0.0085808243
1.9733733e-06
0.012685627
1.0127687e-06
0.016667226
-2.1808154e-12
0.01918376
-1.0127744e-06
0.01918376
-1.9733821e-06
0.016667226
-2.9242196e-06
0.012685627
-3.7285646e-06
0.0085808243
-3.8987321e-06
0.005247556
-3.0948278e-06
0.0029487935
-1.8716583e-06
0.0015416085
-9.0504214e-07
0.00075439031
-3.6127638e-07
0.00034412066
-1.1184244e-07
0.00014287858
-1.9582825e-08
4.9960973e-05
1.0174448e-05
8.0839626e-09
1.0166364e-05
4.7141513e-08
4.9921916e-05
1.5494693e-07
0.00014277078
3.9846321e-07
0.00034387714
8.7979484e-07
0.00075390899
1.7015169e-06
0.0015407867
2.7512762e-06
0.0029477437
3.4623626e-06
0.0052468449
3.4708626e-06
0.0085808158
2.8006867e-06
0.012686298
1.5505149e-06
0.016668476
1.172401e-12
0.01918531
-1.5505118e-06
0.01918531
-2.8006822e-06
0.016668476
-3.4708603e-06
0.012686298
-3.462366e-06
0.0085808158
-2.751291e-06
0.0052468449
-1.7015411e-06
0.0029477437
-8.7981879e-07
0.0015407867
-3.9847883e-07
0.00075390899
-1.5495295e-07
0.00034387714
-4.7141934e-08
0.00014277078
-8.0826023e-09
4.9921916e-05
1.0166364e-05
4.9359224e-09
1.0161429e-05
2.8698953e-08
4.9898153e-05
9.5121591e-08
0.00014270436
2.4921458e-07
0.00034372305
5.6360987e-07
0.00075359459
1.1213759e-06
0.001540229
1.918459e-06
0.0029469467
2.6588221e-06
0.0052461046
2.89306e-06
0.0085805816
2.4787666e-06
0.012686712
1.4344258e-06
0.016669521
9.2025673e-13
0.019186745
-1.4344227e-06
0.019186745
-2.4787605e-06
0.016669521
-2.8930524e-06
0.012686712
-2.6588192e-06
0.0085805816
-1.9184649e-06
0.0052461046
-1.1213879e-06
0.0029469467
-5.6362208e-07
0.001540229
-2.49222e-07
0.00075359459
-9.5123186e-08
0.00034372305
-2.869754e-08
0.00014270436
-4.9341792e-09
4.9898153e-05
1.0161429e-05
4.412403e-09
1.0157016e-05
2.5525755e-08
4.987704e-05
8.3830233e-08
0.00014264605
2.1689432e-07
0.00034358999
4.8450155e-07
0.00075332698
9.5636175e-07
0.0015397571
1.6413752e-06
0.0029462616
2.324584e-06
0.0052454214
2.5939543e-06
0.0085803122
2.2393627e-06
0.012687066
1.3066727e-06
0.016670453
7.0767191e-13
0.019188051
-1.3066694e-06
0.019188051
-2.2393552e-06
0.016670453
-2.5939451e-06
0.012687066
-2.3245808e-06
0.0085803122
-1.6413813e-06
0.0052454214
-9.5637469e-07
0.0029462616
-4.8451456e-07
0.0015397571
-2.1690183e-07
0.00075332698
-8.3831492e-08
0.00034358999
-2.5524021e-08
0.00014264605
-4.4104791e-09
4.987704e-05
1.0157016e-05
3.6255806e-09
1.0153391e-05
2.103666e-08
4.9859629e-05
6.9438198e-08
0.00014259765
1.8114159e-07
0.00034347828
4.0971465e-07
0.00075309841
8.2390461e-07
0.0015393429
1.4539937e-06
0.0029456316
2.1430771e-06
0.0052447323
2.4674742e-06
0.0085799878
2.1883932e-06
0.012687346
1.2866416e-06
0.016671355
2.5833184e-13
0.019189338
-1.286639e-06
0.019189338
-2.1883865e-06
0.016671355
-2.4674665e-06
0.012687346
-2.1430756e-06
0.0085799878
-1.4540011e-06
0.0052447323
-8.2391847e-07
0.0029456316
-4.0972842e-07
0.0015393429
-1.8114992e-07
0.00075309841
-6.944036e-08
0.00034347828
-2.1035644e-08
0.00014259765
-3.6240454e-09
4.9859629e-05
1.0153391e-05
2.9831682e-09
1.0150408e-05
1.7347057e-08
4.9845265e-05
5.7377348e-08
0.00014255762
1.500739e-07
0.00034338559
3.4097133e-07
0.00075290751
6.9193231e-07
0.001538992
1.2441097e-06
0.0029450794
1.9041872e-06
0.0052440722
2.3016015e-06
0.0085795904
2.097508e-06
0.01268755
1.2520095e-06
0.016672201
-3.172507e-13
0.01919059
-1.2520085e-06
0.01919059
-2.0975041e-06
0.016672201
-2.3015972e-06
0.01268755
-1.9041877e-06
0.0085795904
-1.2441171e-06
0.0052440722
-6.9194475e-07
0.0029450794
-3.4098357e-07
0.001538992
-1.5008143e-07
0.00075290751
-5.7379461e-08
0.00034338559
-1.73463e-08
0.00014255762
-2.9818754e-09
4.9845265e-05
1.0150408e-05
2.4654432e-09
1.0147942e-05
1.4363141e-08
4.9833367e-05
4.7626502e-08
0.00014252436
1.2502871e-07
0.00034330818
2.8558905e-07
0.00075274695
5.8417976e-07
0.0015386934
1.064185e-06
0.0029445994
1.6641585e-06
0.0052434722
2.0898748e-06
0.0085791647
1.9528941e-06
0.012687687
1.1802437e-06
0.016672973
-6.4518508e-13
0.01919177
-1.1802439e-06
0.01919177
-1.9528927e-06
0.016672973
-2.0898737e-06
0.012687687
-1.6641606e-06
0.0085791647
-1.0641922e-06
0.0052434722
-5.8419125e-07
0.0029445994
-2.8560034e-07
0.0015386934
-1.2503579e-07
0.00075274695
-4.7628596e-08
0.00034330818
-1.4362519e-08
0.00014252436
-2.4642676e-09
4.9833367e-05
1.0147942e-05
2.1024449e-09
1.014584e-05
1.2258052e-08
4.9823212e-05
4.0688249e-08
0.00014249593
1.069902e-07
0.00034324188
2.4507852e-07
0.00075260886
5.0385314e-07
0.0015384346
9.2623501e-07
0.002944177
1.4715114e-06
0.0052429269
1.8909082e-06
0.0085787453
1.8050219e-06
0.012687772
1.1036891e-06
0.016673675
-3.5817931e-13
0.019192874
-1.1036893e-06
0.019192874
-1.8050213e-06
0.016673675
-1.890908e-06
0.012687772
-1.4715136e-06
0.0085787453
-9.2624194e-07
0.005242927
-5.0386417e-07
0.002944177
-2.4508962e-07
0.0015384346
-1.0699737e-07
0.00075260887
-4.069051e-08
0.00034324188
-1.2257532e-08
0.00014249593
-2.1013004e-09
4.9823212e-05
1.014584e-05
1.8282148e-09
1.0144011e-05
1.0665463e-08
4.9814374e-05
3.5430266e-08
0.00014247116
9.3282988e-08
0.00034318403
2.1413917e-07
0.00075248801
4.419276e-07
0.0015382068
8.1811356e-07
0.0029438008
1.3163805e-06
0.0052424287
1.7244934e-06
0.0085783372
1.6780421e-06
0.012687819
1.0378041e-06
0.016674315
3.6276007e-13
0.019193912
-1.037803e-06
0.019193912
-1.6780407e-06
0.016674315
-1.7244924e-06
0.012687819
-1.3163819e-06
0.0085783372
-8.1812011e-07
0.0052424287
-4.4193878e-07
0.0029438008
-2.1415082e-07
0.0015382068
-9.3290712e-08
0.00075248801
-3.5432773e-08
0.00034318403
-1.0664935e-08
0.00014247116
-1.8269796e-09
4.9814374e-05
1.0144011e-05
1.6104638e-09
1.0142401e-05
9.3996309e-09
4.9806585e-05
3.1244392e-08
0.00014244932
8.2340414e-08
0.00034313293
1.8932074e-07
0.00075238103
3.9182311e-07
0.0015380043
7.2924159e-07
0.0029434634
1.1851456e-06
0.0052419728
1.578175e-06
0.0085779441
1.562339e-06
0.012687835
9.7669825e-07
0.0166749
1.2757362e-12
0.019194888
-9.7669546e-07
0.019194888
-1.5623357e-06
0.0166749
-1.5781721e-06
0.012687835
-1.1851459e-06
0.0085779442
-7.2924819e-07
0.0052419728
-3.9183539e-07
0.0029434634
-1.8933388e-07
0.0015380043
-8.2349237e-08
0.00075238103
-3.1247256e-08
0.00034313293
-9.3989959e-09
0.00014244932
-1.6090179e-09
4.9806585e-05
1.0142401e-05
1.4322923e-09
1.0140969e-05
8.3630024e-09
4.9799655e-05
2.7812642e-08
0.00014242987
7.3352899e-08
0.00034308739
1.6886902e-07
0.00075228551
3.5026839e-07
0.0015378229
6.5458355e-07
0.0029431591
1.0720597e-06
0.0052415553
1.4464337e-06
0.0085775698
1.4548764e-06
0.012687826
9.1881023e-07
0.016675437
2.1602956e-12
0.019195807
-9.1880555e-07
0.019195807
-1.454871e-06
0.016675437
-1.4464288e-06
0.012687826
-1.0720591e-06
0.0085775698
-6.5459092e-07
0.0052415553
-3.5028278e-07
0.0029431591
-1.6888456e-07
0.0015378229
-7.3363333e-08
0.00075228551
-2.7815973e-08
0.00034308739
-8.3621779e-09
0.00014242987
-1.4305316e-09
4.9799654e-05
1.0140969e-05
1.2849893e-09
1.0139684e-05
7.5050912e-09
4.9793434e-05
2.496893e-08
0.0001424124
6.589135e-08
0.00034304647
1.518385e-07
0.00075219957
3.1548612e-07
0.0015376593
5.9149772e-07
0.0029428831
9.7478815e-07
0.005241172
1.3297056e-06
0.0085772149
1.3567878e-06
0.012687799
8.6525332e-07
0.016675928
2.8794134e-12
0.019196672
-8.6524701e-07
0.019196672
-1.3567805e-06
0.016675928
-1.329699e-06
0.012687799
-9.7478713e-07
0.0085772149
-5.9150656e-07
0.005241172
-3.1550346e-07
0.0029428831
-1.5185718e-07
0.0015376593
-6.5903805e-08
0.00075219956
-2.4972811e-08
0.00034304647
-7.5040056e-09
0.0001424124
-1.2828276e-09
4.9793434e-05
1.0139684e-05
1.1614836e-09
1.0138522e-05
6.7852362e-09
4.9787811e-05
2.258058e-08
0.00014239661
5.961569e-08
0.00034300944
1.3748167e-07
0.0007521217
2.8604766e-07
0.0015375107
5.3771252e-07
0.0029426314
8.9070777e-07
0.005240819
1.2263992e-06
0.0085768792
1.2674909e-06
0.012687758
8.1592843e-07
0.01667638
3.3761933e-12
0.019197488
-8.1592087e-07
0.019197488
-1.2674819e-06
0.01667638
-1.2263912e-06
0.012687758
-8.9070672e-07
0.0085768792
-5.3772336e-07
0.005240819
-2.8606861e-07
0.0029426314
-1.3750404e-07
0.0015375107
-5.9630468e-08
0.0007521217
-2.2585071e-08
0.00034300943
-6.7838374e-09
0.00014239661
-1.1588583e-09
4.978781e-05
1.0138522e-05
1.0561511e-09
1.0137466e-05
6.1710242e-09
4.9782696e-05
2.0541477e-08
0.00014238224
5.4252412e-08
0.00034297572
1.2519135e-07
0.00075205076
2.6076903e-07
0.0015373751
4.9125336e-07
0.0029424009
8.1722712e-07
0.005240493
1.1341854e-06
0.0085765622
1.185792e-06
0.012687707
7.7021663e-07
0.016676795
3.6530072e-12
0.019198259
-7.7020823e-07
0.019198259
-1.1857817e-06
0.016676795
-1.1341762e-06
0.012687707
-8.1722627e-07
0.0085765622
-4.9126655e-07
0.005240493
-2.60794e-07
0.0029424009
-1.2521778e-07
0.0015373751
-5.4269708e-08
0.00075205076
-2.0546618e-08
0.00034297572
-6.1692816e-09
0.00014238224
-1.0530238e-09
4.9782696e-05
1.0137466e-05
9.651552e-10
1.0136501e-05
5.6402138e-09
4.9778021e-05
1.8778389e-08
0.0001423691
4.9611498e-08
0.00034294489
1.1454215e-07
0.00075198583
2.3881193e-07
0.0015372509
4.5070553e-07
0.002942189
7.5248468e-07
0.0052401913
1.0515015e-06
0.0085762632
1.1108329e-06
0.012687647
7.2769034e-07
0.016677178
3.7354003e-12
0.019198986
-7.2768144e-07
0.019198986
-1.1108215e-06
0.016677178
-1.0514914e-06
0.012687647
-7.5248417e-07
0.0085762632
-4.5072124e-07
0.0052401913
-2.3884117e-07
0.002942189
-1.1457283e-07
0.0015372509
-4.9631417e-08
0.00075198583
-1.8784204e-08
0.00034294489
-5.6381148e-09
0.0001423691
-9.6150875e-10
4.977802e-05
1.0136501e-05
8.8581483e-10
1.0135615e-05
5.1772395e-09
4.9773729e-05
1.7239936e-08
0.00014235704
4.5559084e-08
0.00034291657
1.0523262e-07
0.00075192616
2.1957728e-07
0.0015371365
4.1504358e-07
0.0029419936
6.9509075e-07
0.0052399112
9.7709554e-07
0.0085759812
1.0418683e-06
0.012687582
6.8800635e-07
0.016677532
3.6557495e-12
0.019199674
-6.8799724e-07
0.019199674
-1.041856e-06
0.016677532
-9.7708457e-07
0.012687582
-6.9509065e-07
0.0085759812
-4.1506189e-07
0.0052399112
-2.1961086e-07
0.0029419936
-1.0526762e-07
0.0015371365
-4.5581657e-08
0.00075192616
-1.7246432e-08
0.00034291657
-5.1747855e-09
0.00014235704
-8.8164858e-10
4.9773729e-05
1.0135615e-05
8.1603282e-10
1.0134799e-05
4.7699375e-09
4.9769775e-05
1.5885991e-08
0.00014234592
4.1990651e-08
0.00034289047
9.7027081e-08
0.00075187112
2.0259421e-07
0.0015370309
3.8344995e-07
0.0029418127
6.4389687e-07
0.0052396508
9.0984363e-07
0.0085757152
9.7823627e-07
0.012687514
6.5086703e-07
0.01667786
3.4449346e-12
0.019200325
-6.5085796e-07
0.019200325
-9.7822336e-07
0.01667786
-9.0983192e-07
0.012687514
-6.4389723e-07
0.0085757152
-3.8347087e-07
0.0052396508
-2.0263211e-07
0.0029418127
-9.7066358e-08
0.0015370309
-4.201585e-08
0.00075187112
-1.5893166e-08
0.00034289047
-4.7671387e-09
0.00014234592
-8.1135799e-10
4.9769775e-05
1.0134799e-05
7.5415811e-10
1.0134045e-05
4.4087199e-09
4.9766121e-05
1.4684894e-08
0.00014233564
3.8823591e-08
0.00034286633
8.9738713e-08
0.00075182021
1.8748746e-07
0.0015369332
3.5526622e-07
0.0029416449
5.9795917e-07
0.0052394081
8.4878874e-07
0.0085754644
9.1936642e-07
0.012687443
6.1601059e-07
0.016678163
3.1322083e-12
0.019200941
-6.1600174e-07
0.019200941
-9.19353e-07
0.016678163
-8.487764e-07
0.012687443
-5.9796002e-07
0.0085754644
-3.5528972e-07
0.0052394081
-1.875296e-07
0.0029416449
-8.9782163e-08
0.0015369332
-3.8851342e-08
0.00075182021
-1.4692729e-08
0.00034286633
-4.405592e-09
0.00014233564
-7.4899412e-10
4.9766121e-05
1.0134045e-05
6.9890196e-10
1.0133346e-05
4.0860921e-09
4.9762734e-05
1.3611853e-08
0.00014232612
3.5993074e-08
0.00034284395
8.3220415e-08
0.00075177298
1.7395993e-07
0.0015368425
3.2996588e-07
0.0029414889
5.5650787e-07
0.0052391815
7.9312055e-07
0.0085752278
8.6476729e-07
0.012687372
5.8323105e-07
0.016678444
2.7464462e-12
0.019201524
-5.8322258e-07
0.019201524
-8.6475352e-07
0.016678444
-7.9310767e-07
0.012687372
-5.5650923e-07
0.0085752278
-3.2999188e-07
0.0052391815
-1.7400614e-07
0.0029414889
-8.3267868e-08
0.0015368425
-3.6023268e-08
0.00075177298
-1.3620324e-08
0.00034284395
-4.0826543e-09
0.00014232612
-6.9327392e-10
4.9762734e-05
1.0133346e-05
6.4924869e-10
1.0132697e-05
3.7961418e-09
4.9759587e-05
1.2647292e-08
0.00014231727
3.3447834e-08
0.00034282315
7.7355599e-08
0.00075172907
1.6177525e-07
0.001536758
3.0712736e-07
0.0029413436
5.1891978e-07
0.0052389697
7.4217223e-07
0.0085750045
8.1401239e-07
0.0126873
5.5234136e-07
0.016678706
2.3141794e-12
0.019202077
-5.5233337e-07
0.019202077
-8.1399838e-07
0.016678706
-7.4215891e-07
0.0126873
-5.1892166e-07
0.0085750046
-3.0715574e-07
0.0052389698
-1.6182533e-07
0.0029413436
-7.7406842e-08
0.001536758
-3.3480338e-08
0.00075172907
-1.2656366e-08
0.00034282315
-3.7924152e-09
0.00014231727
-6.4318547e-10
4.9759587e-05
1.0132697e-05
6.0438489e-10
1.0132092e-05
3.5341312e-09
4.9756657e-05
1.1775513e-08
0.00014230903
3.1146713e-08
0.00034280378
7.205049e-08
0.00075168817
1.5074269e-07
0.0015366793
2.8640825e-07
0.0029412079
4.8468176e-07
0.0052387715
6.953798e-07
0.0085747938
7.6674179e-07
0.012687229
5.2320282e-07
0.01667895
1.854809e-12
0.0192026
-5.2319539e-07
0.0192026
-7.6672765e-07
0.01667895
-6.9536612e-07
0.012687229
-4.8468415e-07
0.0085747939
-2.8643887e-07
0.0052387715
-1.5079639e-07
0.0029412079
-7.2105276e-08
0.0015366793
-3.1181375e-08
0.00075168817
-1.1785151e-08
0.00034280378
-3.5301378e-09
0.00014230903
-5.9791751e-10
4.9756657e-05
1.0132092e-05
5.6365258e-10
1.0131528e-05
3.2962257e-09
4.9753925e-05
1.0983803e-08
0.00014230134
2.9056361e-08
0.0003427857
6.7229014e-08
0.00075165
1.4070717e-07
0.0015366059
2.6752912e-07
0.0029410811
4.5337232e-07
0.0052385856
6.5227437e-07
0.0085745949
7.226336e-07
0.012687158
4.9567186e-07
0.016679177
1.3777093e-12
0.019203096
-4.9566504e-07
0.019203096
-7.2261942e-07
0.016679177
-6.5226039e-07
0.012687158
-4.5337519e-07
0.008574595
-2.6756181e-07
0.0052385856
-1.4076422e-07
0.0029410811
-6.7287073e-08
0.0015366059
-2.9093014e-08
0.00075165
-1.0993962e-08
0.00034278571
-3.2919864e-09
0.00014230134
-5.568128e-10
4.9753924e-05
1.0131528e-05
5.2651309e-10
1.0131002e-05
3.0792846e-09
4.9751372e-05
1.0261745e-08
0.00014229416
2.7149426e-08
0.00034276882
6.2828687e-08
0.00075161432
1.3154101e-07
0.0015365372
2.502586e-07
0.0029409624
4.246379e-07
0.0052384112
6.1245177e-07
0.0085744071
6.8142001e-07
0.012687089
4.6965452e-07
0.016679388
8.7966641e-13
0.019203565
-4.6964839e-07
0.019203565
-6.8140588e-07
0.016679388
-6.1243757e-07
0.012687089
-4.2464122e-07
0.0085744071
-2.5029318e-07
0.0052384113
-1.3160112e-07
0.0029409624
-6.2889735e-08
0.0015365372
-2.7187892e-08
0.00075161432
-1.0272374e-08
0.00034276882
-3.074818e-09
0.00014229416
-5.1933251e-10
4.9751372e-05
1.0131002e-05
4.9252231e-10
1.0130509e-05
2.8807175e-09
4.9748984e-05
9.6007459e-09
0.00014228744
2.5403336e-08
0.00034275302
5.8797933e-08
0.00075158093
1.231387e-07
0.0015364728
2.3440524e-07
0.0029408511
3.9818551e-07
0.0052382475
5.7557549e-07
0.0085742297
6.4284884e-07
0.012687022
4.4502946e-07
0.016679586
3.4646609e-13
0.01920401
-4.450241e-07
0.01920401
-6.4283487e-07
0.016679586
-5.7556115e-07
0.012687022
-3.9818926e-07
0.0085742297
-2.3444155e-07
0.0052382475
-1.2320158e-07
0.0029408511
-5.8861668e-08
0.0015364728
-2.5443422e-08
0.00075158092
-9.6117858e-09
0.00034275302
-2.8760389e-09
0.00014228744
-4.850325e-10
4.9748984e-05
1.0130509e-05
4.6130906e-10
1.0130048e-05
2.6983595e-09
4.9746747e-05
8.99362e-09
0.00014228114
2.3799204e-08
0.00034273821
5.5093524e-08
0.00075154963
1.1541161e-07
0.0015364125
2.1980725e-07
0.0029407467
3.7376375e-07
0.0052380935
5.41348e-07
0.0085740621
6.0671984e-07
0.012686957
4.217371e-07
0.016679771
-2.4794163e-13
0.019204432
-4.2173266e-07
0.019204432
-6.0670618e-07
0.016679771
-5.4133364e-07
0.012686957
-3.7376795e-07
0.0085740622
-2.1984511e-07
0.0052380935
-1.1547693e-07
0.0029407467
-5.5159617e-08
0.0015364125
-2.3840691e-08
0.00075154963
-9.0049974e-09
0.00034273821
-2.6934812e-09
0.00014228114
-4.5354317e-10
4.9746746e-05
1.0130048e-05
4.3256112e-10
1.0129615e-05
2.5303888e-09
4.9744649e-05
8.4343214e-09
0.00014227524
2.2321148e-08
0.00034272432
5.1679135e-08
0.00075152027
1.0828527e-07
0.0015363559
2.0632884e-07
0.0029406487
3.5116255e-07
0.0052379487
5.0952112e-07
0.0085739038
5.728252e-07
0.012686893
3.9966286e-07
0.016679944
-9.3893501e-13
0.019204832
-3.9965954e-07
0.019204832
-5.7281209e-07
0.016679944
-5.0950693e-07
0.012686893
-3.5116722e-07
0.0085739038
-2.0636808e-07
0.0052379487
-1.083527e-07
0.0029406487
-5.1747207e-08
0.0015363559
-2.2363772e-08
0.00075152027
-8.4459427e-09
0.00034272432
-2.5253211e-09
0.00014227524
-4.2455725e-10
4.9744649e-05
1.0129615e-05
4.0601327e-10
1.0129209e-05
2.3752598e-09
4.9742679e-05
7.9177194e-09
0.0001422697
2.0955663e-08
0.00034271129
4.8523797e-08
0.00075149271
1.0169597e-07
0.0015363027
1.9385296e-07
0.0029405565
3.3019729e-07
0.0052378123
4.7986981e-07
0.0085737541
5.4101828e-07
0.012686832
3.787789e-07
0.016680107
-1.7803617e-12
0.01920521
-3.78777e-07
0.01920521
-5.4100601e-07
0.016680107
-4.7985602e-07
0.012686832
-3.3020253e-07
0.0085737541
-1.938934e-07
0.0052378123
-1.0176509e-07
0.0029405565
-4.8593373e-08
0.0015363027
-2.0999088e-08
0.00075149271
-7.9294617e-09
0.00034271129
-2.370014e-09
0.0001422697
-3.9781981e-10
4.9742679e-05
1.0129209e-05
3.8143776e-10
1.0128828e-05
2.231643e-09
4.9740829e-05
7.4394019e-09
0.00014226449
1.9691165e-08
0.00034269904
4.5601031e-08
0.0007514668
9.5589375e-08
0.0015362527
1.8228017e-07
0.0029404698
3.1071277e-07
0.0052376839
4.5220558e-07
0.0085736126
5.1111583e-07
0.012686773
3.5896396e-07
0.016680259
-2.8103092e-12
0.019205569
-3.5896386e-07
0.019205569
-5.1110482e-07
0.016680259
-4.5219254e-07
0.012686773
-3.1071869e-07
0.0085736126
-1.8232159e-07
0.0052376839
-9.5659649e-08
0.0029404698
-4.5671486e-08
0.0015362527
-1.9734943e-08
0.0007514668
-7.4511022e-09
0.00034269904
-2.2262364e-09
0.00014226449
-3.7312117e-10
4.9740829e-05
1.0128828e-05
3.5864024e-10
1.0128469e-05
2.0984092e-09
4.9739089e-05
6.9956187e-09
0.00014225959
1.851776e-08
0.00034268751
4.2888058e-08
0.00075144243
8.9918416e-08
0.0015362057
1.7152347e-07
0.0029403882
2.9257003e-07
0.0052375628
4.2635562e-07
0.0085734788
4.8302008e-07
0.012686717
3.4022593e-07
0.016680402
-4.0666382e-12
0.01920591
-3.4022812e-07
0.01920591
-4.8301081e-07
0.016680402
-4.2634376e-07
0.012686717
-2.9257678e-07
0.0085734788
-1.7156554e-07
0.0052375629
-8.9989101e-08
0.0029403882
-4.2958535e-08
0.0015362057
-1.8561281e-08
0.00075144243
-7.0070576e-09
0.00034268751
-2.0928691e-09
0.00014225959
-3.502937e-10
4.9739089e-05
1.0128469e-05
3.3744828e-10
1.0128131e-05
1.9745491e-09
4.9737452e-05
6.5830223e-09
0.00014225498
1.7426685e-08
0.00034267667
4.0364919e-08
0.00075141949
8.4642213e-08
0.0015361614
1.6150778e-07
0.0029403113
2.7565068e-07
0.0052374487
4.0217083e-07
0.0085733523
4.5655376e-07
0.012686662
3.224222e-07
0.016680536
-5.593886e-12
0.019206232
-3.2242726e-07
0.019206232
-4.5654687e-07
0.016680536
-4.0216066e-07
0.012686662
-2.7565841e-07
0.0085733523
-1.6155004e-07
0.0052374487
-8.4712271e-08
0.0029403113
-4.0434236e-08
0.0015361614
-1.7469113e-08
0.00075141949
-6.5939076e-09
0.00034267667
-1.96892e-09
0.00014225498
-3.2920274e-10
4.9737452e-05
1.0128131e-05
3.1771863e-10
1.0127813e-05
1.8592366e-09
4.9735911e-05
6.1988675e-09
0.00014225064
1.6410648e-08
0.00034266646
3.8014662e-08
0.00075139789
7.9725425e-08
0.0015361197
1.5216745e-07
0.0029402389
2.5984925e-07
0.005237341
3.7952058e-07
0.0085732326
4.3167222e-07
0.01268661
3.0560735e-07
0.016680662
-7.5015668e-12
0.019206538
-3.0561594e-07
0.019206538
-4.3166839e-07
0.016680662
-3.795127e-07
0.01268661
-2.5985807e-07
0.0085732326
-1.5220918e-07
0.005237341
-7.9793415e-08
0.0029402389
-3.8081213e-08
0.0015361197
-1.6450868e-08
0.00075139789
-6.2088223e-09
0.00034266646
-1.8535914e-09
0.00014225064
-3.097564e-10
4.9735911e-05
1.0127814e-05
2.9931379e-10
1.0127514e-05
1.7516595e-09
4.9734458e-05
5.8404617e-09
0.00014224655
1.5462662e-08
0.00034265684
3.5821575e-08
0.00075137753
7.5136134e-08
0.0015360804
1.434436e-07
0.0029401706
2.4507092e-07
0.0052372394
3.5827723e-07
0.0085731194
4.0818186e-07
0.01268656
2.8959811e-07
0.01668078
-9.6293863e-12
0.019206827
-2.8961083e-07
0.019206827
-4.0818186e-07
0.01668078
-3.5827229e-07
0.01268656
-2.4508087e-07
0.0085731194
-1.4348378e-07
0.0052372394
-7.5200091e-08
0.0029401706
-3.5883215e-08
0.0015360804
-1.549921e-08
0.00075137753
-5.8490055e-09
0.00034265684
-1.7461066e-09
0.00014224656
-2.9188076e-10
4.9734459e-05
1.0127514e-05
2.8213356e-10
1.0127232e-05
1.6512537e-09
4.9733089e-05
5.5059254e-09
0.0001422427
1.4577617e-08
0.00034264777
3.3773405e-08
0.00075135833
7.0848199e-08
0.0015360433
1.3528749e-07
0.0029401061
2.3123881e-07
0.0052371434
3.3835275e-07
0.0085730123
3.8610731e-07
0.012686512
2.7451593e-07
0.016680892
-1.1937304e-11
0.019207102
-2.7453333e-07
0.019207102
-3.861119e-07
0.016680892
-3.3835146e-07
0.012686512
-2.3124982e-07
0.0085730123
-1.3532471e-07
0.0052371434
-7.0905513e-08
0.0029401061
-3.3827334e-08
0.0015360433
-1.4608603e-08
0.00075135833
-5.5124507e-09
0.00034264777
-1.6459417e-09
0.0001422427
-2.755496e-10
4.973309e-05
1.0127232e-05
2.6605655e-10
1.0126965e-05
1.5572831e-09
4.9731798e-05
5.1928232e-09
0.00014223906
1.3749346e-08
0.00034263921
3.1856751e-08
0.00075134023
6.6835088e-08
0.0015360084
1.276498e-07
0.0029400453
2.1826903e-07
0.0052370528
3.1961928e-07
0.0085729109
3.6520625e-07
0.012686467
2.6010847e-07
0.016680997
-1.4503156e-11
0.019207362
-2.6013118e-07
0.019207362
-3.6521629e-07
0.016680997
-3.1962235e-07
0.012686467
-2.182809e-07
0.0085729109
-1.2768217e-07
0.0052370528
-6.6882432e-08
0.0029400453
-3.1899457e-08
0.0015360083
-1.3772443e-08
0.00075134023
-5.1966161e-09
0.00034263921
-1.5524281e-09
0.00014223907
-2.6073382e-10
4.9731799e-05
1.0126966e-05
2.5103268e-10
1.0126714e-05
1.4695007e-09
4.9730579e-05
4.9003159e-09
0.00014223563
1.2975235e-08
0.00034263114
3.0064351e-08
0.00075132314
6.3079796e-08
0.0015359753
1.204988e-07
0.0029399879
2.0611727e-07
0.0052369672
3.0204719e-07
0.008572815
3.4560758e-07
0.012686423
2.4659788e-07
0.016681096
-1.7062827e-11
0.019207609
-2.4662623e-07
0.019207609
-3.4562383e-07
0.016681096
-3.0205538e-07
0.012686423
-2.0612961e-07
0.008572815
-1.2052392e-07
0.0052369672
-6.3113036e-08
0.0029399879
-3.009155e-08
0.0015359753
-1.2987658e-08
0.00075132314
-4.9005613e-09
0.00034263114
-1.4653987e-09
0.00014223564
-2.4748429e-10
4.973058e-05
1.0126715e-05
2.3692838e-10
1.0126477e-05
1.3870567e-09
4.9729429e-05
4.625606e-09
0.0001422324
1.2248529e-08
0.00034262351
2.8382585e-08
0.00075130701
5.9557061e-08
0.0015359442
1.1378695e-07
0.0029399337
1.9469322e-07
0.0052368863
2.8547365e-07
0.0085727242
3.2696876e-07
0.012686382
2.3362044e-07
0.016681189
-1.9537614e-11
0.019207842
-2.336547e-07
0.019207842
-3.2699205e-07
0.016681189
-2.8548773e-07
0.012686382
-1.9470549e-07
0.0085727242
-1.1380187e-07
0.0052368863
-5.957122e-08
0.0029399337
-2.8389169e-08
0.0015359442
-1.2246984e-08
0.00075130701
-4.6213452e-09
0.00034262352
-1.3840528e-09
0.0001422324
-2.3575233e-10
4.9729431e-05
1.0126478e-05
2.2378514e-10
1.0126253e-05
1.3102984e-09
4.9728343e-05
4.3697853e-09
0.00014222934
1.1571067e-08
0.00034261631
2.6812453e-08
0.00075129177
5.6263762e-08
0.0015359147
1.0750814e-07
0.0029398824
1.8400602e-07
0.0052368098
2.6997271e-07
0.0085726383
3.09591e-07
0.012686342
2.2155465e-07
0.016681277
-2.1947289e-11
0.019208064
-2.2159481e-07
0.019208064
-3.0962195e-07
0.016681277
-2.6999338e-07
0.012686342
-1.840175e-07
0.0085726382
-1.0750949e-07
0.0052368098
-5.6253262e-08
0.0029398824
-2.6792801e-08
0.0015359147
-1.1552037e-08
0.00075129177
-4.3601056e-09
0.00034261632
-1.3088774e-09
0.00014222934
-2.2568952e-10
4.9728344e-05
1.0126254e-05
2.1138472e-10
1.0126041e-05
1.2377789e-09
4.9727316e-05
4.1281379e-09
0.00014222645
1.0932062e-08
0.00034260951
2.5334267e-08
0.00075127736
5.3167273e-08
0.0015358869
1.0160158e-07
0.002939834
1.7392568e-07
0.0052367375
2.5528227e-07
0.0085725569
2.9294829e-07
0.012686304
2.0986279e-07
0.01668136
-2.4036376e-11
0.019208274
-2.099086e-07
0.019208274
-2.9298741e-07
0.01668136
-2.5531012e-07
0.012686304
-1.7393542e-07
0.0085725569
-1.0158556e-07
0.0052367374
-5.3126045e-08
0.002939834
-2.5282436e-08
0.0015358869
-1.0891985e-08
0.00075127737
-4.1122565e-09
0.00034260951
-1.2385715e-09
0.00014222645
-2.1716566e-10
4.9727318e-05
1.0126042e-05
2.0001029e-10
1.0125841e-05
1.1714039e-09
4.9726345e-05
3.906772e-09
0.00014222371
1.0344717e-08
0.00034260307
2.3969391e-08
0.00075126374
5.0296802e-08
0.0015358606
9.6117484e-08
0.0029397882
1.6457544e-07
0.005236669
2.4168671e-07
0.0085724798
2.7764351e-07
0.012686268
1.9917441e-07
0.016681439
-2.5449249e-11
0.019208473
-1.9922497e-07
0.019208473
-2.7769097e-07
0.016681439
-2.417222e-07
0.012686268
-1.6458233e-07
0.0085724797
-9.6079989e-08
0.005236669
-5.021834e-08
0.0029397882
-2.3878997e-08
0.0015358606
-1.0279661e-08
0.00075126374
-3.8836218e-09
0.00034260308
-1.1748514e-09
0.00014222371
-2.1036936e-10
4.9726347e-05
1.0125842e-05
1.8906212e-10
1.0125652e-05
1.1072547e-09
4.9725426e-05
3.6931011e-09
0.00014222113
9.7809476e-09
0.00034259699
2.2669109e-08
0.00075125085
4.7578961e-08
0.0015358356
9.0932448e-08
0.0029397448
1.557022e-07
0.0052366042
2.2869834e-07
0.0085724068
2.6284385e-07
0.012686234
1.8869601e-07
0.016681513
-2.5884174e-11
0.019208662
-1.8874991e-07
0.019208662
-2.6289937e-07
0.016681513
-2.2874161e-07
0.012686234
-1.5570514e-07
0.0085724067
-9.0869992e-08
0.0052366042
-4.7458335e-08
0.0029397448
-2.2536161e-08
0.0015358356
-9.6894568e-09
0.00075125086
-3.6634056e-09
0.00034259699
-1.1147081e-09
0.00014222113
-2.0497062e-10
4.9725429e-05
1.0125653e-05
1.7967979e-10
1.0125472e-05
1.0525889e-09
4.9724553e-05
3.5101848e-09
0.00014221867
9.2918715e-09
0.0003425912
2.1521301e-08
0.00075123863
4.5143012e-08
0.001535812
8.6252437e-08
0.0029397037
1.4770395e-07
0.0052365428
2.1704945e-07
0.0085723374
2.4970099e-07
0.012686202
1.7947835e-07
0.016681583
-2.4964533e-11
0.019208841
-1.7953335e-07
0.019208841
-2.4976348e-07
0.016681583
-2.1710032e-07
0.012686202
-1.4770187e-07
0.0085723374
-8.6161765e-08
0.0052365427
-4.4975752e-08
0.0029397037
-2.1342493e-08
0.001535812
-9.1729726e-09
0.00075123863
-3.4745147e-09
0.00034259121
-1.0648867e-09
0.00014221867
-2.0165312e-10
4.9724556e-05
1.0125473e-05
1.6857762e-10
1.0125303e-05
9.8767104e-10
4.9723734e-05
3.2967743e-09
0.00014221636
8.7423067e-09
0.00034258576
2.0294084e-08
0.00075122707
4.2662581e-08
0.0015357897
8.1640861e-08
0.0029396647
1.3992323e-07
0.0052364845
2.0571737e-07
0.0085722716
2.3675895e-07
0.012686171
1.7030524e-07
0.01668165
-2.2584713e-11
0.019209011
-1.7035869e-07
0.019209011
-2.3682666e-07
0.01668165
-2.0577511e-07
0.012686171
-1.3991568e-07
0.0085722716
-8.1521364e-08
0.0052364844
-4.2448868e-08
0.0029396647
-2.0071158e-08
0.0015357897
-8.5983164e-09
0.00075122708
-3.2564842e-09
0.00034258576
-1.0050498e-09
0.00014221636
-1.9635503e-10
4.9723736e-05
1.0125304e-05
1.6380053e-10
1.0125139e-05
9.5979314e-10
4.9722938e-05