/*--------------------------------*- C++ -*----------------------------------*\
| =========                 |                                                 |
| \\      /  F ield         | OpenFOAM: The Open Source CFD Toolbox           |
|  \\    /   O peration     | Version:  2406                                  |
|   \\  /    A nd           | Website:  www.openfoam.com                      |
|    \\/     M anipulation  |                                                 |
\*---------------------------------------------------------------------------*/
FoamFile
{
    version     2.0;
    format      ascii;
    arch        "LSB;label=32;scalar=64";
    class       volVectorField;
    location    "41";
    object      U;
}
// * * * * * * * * * * * * * * * * * * * * * * * * * * * * * * * * * * * * * //

dimensions      [0 1 -1 0 0 0 0];

internalField   nonuniform List<vector> 
1176
(
(0.019493789 7.0786387e-07 0)
(0.066677318 8.1696579e-06 0)
(0.13357994 3.9503166e-05 0)
(0.22724701 0.00010873576 0)
(0.35591522 0.00021176027 0)
(0.52772023 0.00030396288 0)
(0.74780387 0.00031818024 0)
(1.0136216 0.00024904596 0)
(1.3093323 0.00016667008 0)
(1.6017081 0.00011264698 0)
(1.8421723 7.0214372e-05 0)
(1.9793239 2.394123e-05 0)
(1.9793239 -2.3939896e-05 0)
(1.8421723 -7.0212423e-05 0)
(1.6017081 -0.00011264321 0)
(1.3093323 -0.00016666311 0)
(1.0136215 -0.00024903447 0)
(0.74780384 -0.00031816309 0)
(0.52772021 -0.00030394118 0)
(0.35591521 -0.00021173899 0)
(0.227247 -0.00010871766 0)
(0.13357994 -3.9497278e-05 0)
(0.066677319 -8.1575243e-06 0)
(0.01949379 -7.0908534e-07 0)
(0.020187017 -3.7419182e-06 0)
(0.068813532 -2.4638636e-05 0)
(0.13732107 -9.6548551e-05 0)
(0.23247391 -0.0002483946 0)
(0.36204617 -0.0004726878 0)
(0.53373556 -0.00067421182 0)
(0.75267407 -0.00069486939 0)
(1.0170176 -0.00049687359 0)
(1.3116385 -0.00023345902 0)
(1.6034438 -4.9824129e-05 0)
(1.8436588 1.9765196e-05 0)
(1.9807026 1.3428392e-05 0)
(1.9807026 -1.3427125e-05 0)
(1.8436588 -1.9764926e-05 0)
(1.6034438 4.9821573e-05 0)
(1.3116385 0.00023345085 0)
(1.0170177 0.00049685764 0)
(0.75267408 0.00069484684 0)
(0.53373556 0.00067418787 0)
(0.36204617 0.00047266914 0)
(0.23247391 0.00024838344 0)
(0.13732107 9.6544516e-05 0)
(0.068813536 2.4636073e-05 0)
(0.020187019 3.7420489e-06 0)
(0.020018442 2.0918364e-06 0)
(0.068327405 1.2720778e-05 0)
(0.13655404 4.6877259e-05 0)
(0.23159544 0.00011389739 0)
(0.36138709 0.00019769269 0)
(0.53366969 0.00023903238 0)
(0.75344344 0.00020559817 0)
(1.0184881 0.00011361118 0)
(1.3134639 7.4313647e-05 0)
(1.6053464 7.9533034e-05 0)
(1.8455118 7.0516949e-05 0)
(1.9825245 2.7826691e-05 0)
(1.9825245 -2.7823507e-05 0)
(1.8455118 -7.0513245e-05 0)
(1.6053464 -7.9528853e-05 0)
(1.3134639 -7.4309151e-05 0)
(1.0184881 -0.00011360688 0)
(0.75344344 -0.00020559398 0)
(0.53366969 -0.00023903108 0)
(0.36138709 -0.00019769281 0)
(0.23159545 -0.00011389805 0)
(0.13655405 -4.687797e-05 0)
(0.068327405 -1.2721013e-05 0)
(0.020018442 -2.0918865e-06 0)
(0.019966547 7.0076397e-07 0)
(0.068159232 4.6870513e-06 0)
(0.13624021 1.935544e-05 0)
(0.2311194 5.6456169e-05 0)
(0.36078093 0.00013444565 0)
(0.53306293 0.00025829316 0)
(0.75295637 0.00035344739 0)
(1.0181104 0.00036911997 0)
(1.313184 0.00030758865 0)
(1.6051633 0.00022777227 0)
(1.8453995 0.00014555926 0)
(1.9824491 4.9997074e-05 0)
(1.9824491 -4.9997451e-05 0)
(1.8453995 -0.00014555993 0)
(1.6051633 -0.00022777352 0)
(1.313184 -0.0003075894 0)
(1.0181104 -0.00036912048 0)
(0.75295636 -0.00035344833 0)
(0.53306293 -0.00025829276 0)
(0.36078093 -0.000134445 0)
(0.2311194 -5.6455284e-05 0)
(0.13624021 -1.9355427e-05 0)
(0.068159231 -4.6858914e-06 0)
(0.019966547 -7.0093659e-07 0)
(0.019942203 2.9076701e-07 0)
(0.068078703 1.9872152e-06 0)
(0.13608628 8.2361183e-06 0)
(0.23087699 2.3699335e-05 0)
(0.36044744 5.6881637e-05 0)
(0.53266448 0.00012306887 0)
(0.75256878 0.00022681818 0)
(1.017808 0.00032272219 0)
(1.3129044 0.00034572459 0)
(1.604912 0.00030729975 0)
(1.8452029 0.00021095311 0)
(1.9822898 7.4614593e-05 0)
(1.9822898 -7.4614344e-05 0)
(1.8452029 -0.00021095278 0)
(1.604912 -0.00030729937 0)
(1.3129044 -0.00034572484 0)
(1.017808 -0.00032272293 0)
(0.75256878 -0.00022682019 0)
(0.53266448 -0.00012307114 0)
(0.36044744 -5.6883499e-05 0)
(0.23087699 -2.370022e-05 0)
(0.13608628 -8.236715e-06 0)
(0.068078703 -1.9868048e-06 0)
(0.019942203 -2.9086883e-07 0)
(0.019933132 1.718128e-07 0)
(0.068047755 1.1940926e-06 0)
(0.13602489 5.0652025e-06 0)
(0.23077535 1.4968881e-05 0)
(0.36029899 3.6219579e-05 0)
(0.5324792 7.69443e-05 0)
(0.75239427 0.00014713779 0)
(1.0177222 0.00023749036 0)
(1.3129292 0.00028525602 0)
(1.6049746 0.00027441493 0)
(1.8452865 0.00019644622 0)
(1.9823834 7.1177053e-05 0)
(1.9823834 -7.1176821e-05 0)
(1.8452865 -0.00019644583 0)
(1.6049746 -0.00027441423 0)
(1.3129292 -0.00028525556 0)
(1.0177222 -0.00023749051 0)
(0.75239427 -0.0001471386 0)
(0.5324792 -7.6945362e-05 0)
(0.36029899 -3.6220433e-05 0)
(0.23077535 -1.4969162e-05 0)
(0.13602489 -5.0656033e-06 0)
(0.068047755 -1.1935175e-06 0)
(0.019933132 -1.7192898e-07 0)
(0.0199234 1.558735e-07 0)
(0.068015507 1.0700907e-06 0)
(0.13596286 4.4934658e-06 0)
(0.23067607 1.3195479e-05 0)
(0.36015773 3.1857157e-05 0)
(0.53230178 6.6958293e-05 0)
(0.75221429 0.00012411898 0)
(1.0176105 0.00019917065 0)
(1.3129358 0.00025490859 0)
(1.6050904 0.00024595181 0)
(1.8454579 0.00018127901 0)
(1.9825798 6.6548572e-05 0)
(1.9825798 -6.6548376e-05 0)
(1.8454579 -0.00018127855 0)
(1.6050904 -0.00024595099 0)
(1.3129358 -0.00025490795 0)
(1.0176105 -0.00019917079 0)
(0.75221429 -0.00012411986 0)
(0.53230178 -6.6959446e-05 0)
(0.36015773 -3.1858041e-05 0)
(0.23067607 -1.3195742e-05 0)
(0.13596286 -4.4938277e-06 0)
(0.068015507 -1.069503e-06 0)
(0.0199234 -1.5598796e-07 0)
(0.019915697 1.275844e-07 0)
(0.067989792 8.7802985e-07 0)
(0.13591293 3.6960005e-06 0)
(0.23059503 1.0901615e-05 0)
(0.36003987 2.6613365e-05 0)
(0.53214753 5.7237155e-05 0)
(0.75204133 0.00010911055 0)
(1.0174723 0.00017936639 0)
(1.3128926 0.00023802493 0)
(1.6051414 0.00023746765 0)
(1.8455877 0.00017750682 0)
(1.9827514 6.5539415e-05 0)
(1.9827514 -6.5539331e-05 0)
(1.8455877 -0.00017750643 0)
(1.6051414 -0.00023746693 0)
(1.3128926 -0.00023802444 0)
(1.0174723 -0.00017936666 0)
(0.75204133 -0.00010911156 0)
(0.53214753 -5.7238426e-05 0)
(0.36003987 -2.6614355e-05 0)
(0.23059503 -1.0901984e-05 0)
(0.13591293 -3.696369e-06 0)
(0.067989793 -8.7756041e-07 0)
(0.019915697 -1.2768157e-07 0)
(0.019909217 1.0465688e-07 0)
(0.067968141 7.2314699e-07 0)
(0.13587084 3.052104e-06 0)
(0.23052654 9.0118396e-06 0)
(0.35993984 2.199989e-05 0)
(0.53201542 4.7473456e-05 0)
(0.75188901 9.2014096e-05 0)
(1.0173341 0.00015618194 0)
(1.3128278 0.00021699685 0)
(1.6051595 0.00022709635 0)
(1.8456699 0.00017232632 0)
(1.982868 6.4147672e-05 0)
(1.982868 -6.4147698e-05 0)
(1.8456699 -0.00017232612 0)
(1.6051595 -0.00022709594 0)
(1.3128278 -0.00021699666 0)
(1.0173341 -0.00015618231 0)
(0.75188901 -9.2015018e-05 0)
(0.53201542 -4.7474589e-05 0)
(0.35993984 -2.2000779e-05 0)
(0.23052654 -9.0121846e-06 0)
(0.13587084 -3.052447e-06 0)
(0.067968141 -7.2273915e-07 0)
(0.019909217 -1.0474326e-07 0)
(0.019903971 8.6126399e-08 0)
(0.067950552 5.9696811e-07 0)
(0.13583649 2.5273784e-06 0)
(0.2304703 7.491621e-06 0)
(0.35985692 1.837631e-05 0)
(0.53190436 3.9835708e-05 0)
(0.75175836 7.7712185e-05 0)
(1.0172122 0.00013432438 0)
(1.3127613 0.00019323374 0)
(1.6051772 0.00021058351 0)
(1.8457533 0.00016272971 0)
(1.9829863 6.1084207e-05 0)
(1.9829863 -6.1084297e-05 0)
(1.8457533 -0.00016272968 0)
(1.6051772 -0.00021058341 0)
(1.3127613 -0.00019323381 0)
(1.0172122 -0.00013432482 0)
(0.75175836 -7.7713054e-05 0)
(0.53190436 -3.9836753e-05 0)
(0.35985692 -1.8377137e-05 0)
(0.2304703 -7.4919498e-06 0)
(0.13583649 -2.5277139e-06 0)
(0.067950553 -5.9658539e-07 0)
(0.019903971 -8.6208737e-08 0)
(0.019899543 7.3357229e-08 0)
(0.067935688 5.0896124e-07 0)
(0.13580742 2.1568887e-06 0)
(0.23042259 6.4027671e-06 0)
(0.35978626 1.5747601e-05 0)
(0.5318089 3.4277843e-05 0)
(0.75164409 6.7204628e-05 0)
(1.0171021 0.00011722996 0)
(1.3126976 0.00017262465 0)
(1.6051928 0.00019308905 0)
(1.8458371 0.00015219865 0)
(1.9831061 5.7544766e-05 0)
(1.9831061 -5.7544811e-05 0)
(1.8458371 -0.00015219865 0)
(1.6051928 -0.00019308906 0)
(1.3126976 -0.00017262477 0)
(1.0171021 -0.00011723037 0)
(0.75164409 -6.7205459e-05 0)
(0.5318089 -3.4278858e-05 0)
(0.35978626 -1.5748425e-05 0)
(0.23042259 -6.4031068e-06 0)
(0.13580742 -2.1572452e-06 0)
(0.067935688 -5.0857398e-07 0)
(0.019899543 -7.3442276e-08 0)
(0.019895721 6.3728303e-08 0)
(0.06792285 4.425157e-07 0)
(0.13578228 1.8767391e-06 0)
(0.23038125 5.5765298e-06 0)
(0.35972483 1.3738694e-05 0)
(0.53172535 2.9998029e-05 0)
(0.75154264 5.9111588e-05 0)
(1.0170011 0.00010388821 0)
(1.3126344 0.00015540281 0)
(1.6052015 0.00017849527 0)
(1.8459125 0.00014271555 0)
(1.9832185 5.4330641e-05 0)
(1.9832185 -5.4330548e-05 0)
(1.8459125 -0.00014271546 0)
(1.6052015 -0.00017849521 0)
(1.3126345 -0.00015540284 0)
(1.0170011 -0.00010388856 0)
(0.75154264 -5.9112407e-05 0)
(0.53172535 -2.9999075e-05 0)
(0.35972483 -1.3739567e-05 0)
(0.23038125 -5.5768959e-06 0)
(0.13578228 -1.8771413e-06 0)
(0.06792285 -4.4208469e-07 0)
(0.019895721 -6.3823903e-08 0)
(0.019892371 5.6091596e-08 0)
(0.067911586 3.8976996e-07 0)
(0.13576021 1.6541274e-06 0)
(0.2303449 4.9187691e-06 0)
(0.35967069 1.2132029e-05 0)
(0.53165136 2.654247e-05 0)
(0.7514519 5.2498816e-05 0)
(1.0169086 9.2875727e-05 0)
(1.3125728 0.00014061491 0)
(1.605205 0.0001652962 0)
(1.8459798 0.00013398933 0)
(1.9833221 5.1387552e-05 0)
(1.9833221 -5.1387281e-05 0)
(1.8459798 -0.00013398907 0)
(1.605205 -0.00016529595 0)
(1.3125728 -0.00014061478 0)
(1.0169086 -9.2876024e-05 0)
(0.7514519 -5.2499692e-05 0)
(0.53165136 -2.6543632e-05 0)
(0.35967069 -1.2133017e-05 0)
(0.2303449 -4.9191832e-06 0)
(0.13576021 -1.6546002e-06 0)
(0.067911586 -3.8925846e-07 0)
(0.01989237 -5.6205074e-08 0)
(0.019889403 4.9850598e-08 0)
(0.067901607 3.4660928e-07 0)
(0.13574064 1.4717682e-06 0)
(0.23031264 4.379397e-06 0)
(0.35962253 1.0812334e-05 0)
(0.53158531 2.3691452e-05 0)
(0.75137029 4.69842e-05 0)
(1.016824 8.3546367e-05 0)
(1.3125139 0.00012773752 0)
(1.6052051 0.00015293354 0)
(1.8460415 0.00012582048 0)
(1.9834196 4.8616677e-05 0)
(1.9834196 -4.8616233e-05 0)
(1.8460415 -0.00012582003 0)
(1.6052051 -0.00015293308 0)
(1.3125139 -0.00012773724 0)
(1.016824 -8.3546658e-05 0)
(0.75137029 -4.6985213e-05 0)
(0.53158531 -2.3692818e-05 0)
(0.35962253 -1.0813498e-05 0)
(0.23031264 -4.3798801e-06 0)
(0.13574064 -1.4723333e-06 0)
(0.067901606 -3.4598607e-07 0)
(0.019889403 -4.9988134e-08 0)
(0.019886752 4.4700403e-08 0)
(0.067892685 3.1093675e-07 0)
(0.13572313 1.3208233e-06 0)
(0.23028375 3.9322169e-06 0)
(0.35957935 9.7159124e-06 0)
(0.53152592 2.1315653e-05 0)
(0.75129648 4.2360353e-05 0)
(1.0167465 7.5620008e-05 0)
(1.3124581 0.00011654246 0)
(1.6052027 0.00014169884 0)
(1.8460982 0.00011827116 0)
(1.9835117 4.6031799e-05 0)
(1.9835117 -4.6031214e-05 0)
(1.8460982 -0.00011827055 0)
(1.6052027 -0.0001416982 0)
(1.3124581 -0.00011654207 0)
(1.0167465 -7.5620349e-05 0)
(0.75129648 -4.2361577e-05 0)
(0.53152592 -2.1317295e-05 0)
(0.35957935 -9.7173041e-06 0)
(0.23028375 -3.9327854e-06 0)
(0.13572313 -1.3214971e-06 0)
(0.067892684 -3.1017688e-07 0)
(0.019886751 -4.4866807e-08 0)
(0.019884362 4.0387705e-08 0)
(0.067884644 2.8103427e-07 0)
(0.13570735 1.194162e-06 0)
(0.23025769 3.5565002e-06 0)
(0.35954035 8.7929324e-06 0)
(0.53147216 1.9310108e-05 0)
(0.75122934 3.8440287e-05 0)
(1.0166753 6.8839108e-05 0)
(1.3124053 0.00010678371 0)
(1.6051983 0.00013155246 0)
(1.8461504 0.0001113282 0)
(1.9835985 4.3631417e-05 0)
(1.9835985 -4.3630732e-05 0)
(1.8461504 -0.00011132744 0)
(1.6051983 -0.00013155167 0)
(1.3124053 -0.00010678325 0)
(1.0166753 -6.8839543e-05 0)
(0.75122934 -3.8441775e-05 0)
(0.53147216 -1.931208e-05 0)
(0.35954035 -8.7945896e-06 0)
(0.23025769 -3.5571667e-06 0)
(0.13570735 -1.1949558e-06 0)
(0.067884643 -2.8012036e-07 0)
(0.019884362 -4.0586266e-08 0)
(0.019882195 3.6712392e-08 0)
(0.067877349 2.5553552e-07 0)
(0.13569303 1.0860848e-06 0)
(0.23023403 3.2356442e-06 0)
(0.3595049 8.003623e-06 0)
(0.5314232 1.7591013e-05 0)
(0.75116797 3.5067364e-05 0)
(1.0166096 6.2964332e-05 0)
(1.3123553 9.820342e-05 0)
(1.6051923 0.00012233382 0)
(1.8461982 0.00010491335 0)
(1.9836803 4.1390738e-05 0)
(1.9836803 -4.1389993e-05 0)
(1.8461982 -0.00010491249 0)
(1.6051923 -0.00012233291 0)
(1.3123553 -9.820291e-05 0)
(1.0166096 -6.2964887e-05 0)
(0.75116797 -3.506915e-05 0)
(0.5314232 -1.7593351e-05 0)
(0.3595049 -8.0055707e-06 0)
(0.23023403 -3.236417e-06 0)
(0.13569303 -1.0870052e-06 0)
(0.067877348 -2.5445757e-07 0)
(0.019882195 -3.6944972e-08 0)
(0.019880219 3.35394e-08 0)
(0.067870695 2.3350941e-07 0)
(0.13567996 9.9267877e-07 0)
(0.23021243 2.9581678e-06 0)
(0.35947252 7.3203337e-06 0)
(0.53137842 1.6100217e-05 0)
(0.75111164 3.2133141e-05 0)
(1.0165488 5.7823581e-05 0)
(1.3123082 9.0602684e-05 0)
(1.6051852 0.00011395361 0)
(1.8462423 9.8956154e-05 0)
(1.9837576 3.9289219e-05 0)
(1.9837576 -3.928845e-05 0)
(1.8462423 -9.8955227e-05 0)
(1.6051852 -0.00011395261 0)
(1.3123082 -9.0602144e-05 0)
(1.0165488 -5.7824269e-05 0)
(0.75111164 -3.2135243e-05 0)
(0.53137842 -1.610294e-05 0)
(0.35947252 -7.3225856e-06 0)
(0.23021243 -2.9590518e-06 0)
(0.13567996 -9.9372837e-07 0)
(0.067870695 -2.322636e-07 0)
(0.019880219 -3.3806675e-08 0)
(0.019878409 3.0774695e-08 0)
(0.0678646 2.1430635e-07 0)
(0.13566798 9.1120725e-07 0)
(0.23019263 2.7160027e-06 0)
(0.35944282 6.7234648e-06 0)
(0.53133728 1.479609e-05 0)
(0.75105977 2.9559814e-05 0)
(1.0164925 5.3292714e-05 0)
(1.3122638 8.3831775e-05 0)
(1.6051772 0.00010632422 0)
(1.846283 9.3403388e-05 0)
(1.9838307 3.7312662e-05 0)
(1.9838307 -3.7311896e-05 0)
(1.846283 -9.3402418e-05 0)
(1.6051772 -0.00010632314 0)
(1.3122638 -8.3831213e-05 0)
(1.0164925 -5.3293542e-05 0)
(0.75105977 -2.9562241e-05 0)
(0.53133728 -1.4799206e-05 0)
(0.35944282 -6.7260258e-06 0)
(0.23019263 -2.7169999e-06 0)
(0.13566798 -9.1238559e-07 0)
(0.067864599 -2.1289367e-07 0)
(0.019878409 -3.1076414e-08 0)
(0.019876745 2.8344523e-08 0)
(0.067858993 1.9741803e-07 0)
(0.13565697 8.3953153e-07 0)
(0.23017441 2.5028489e-06 0)
(0.35941547 6.1976939e-06 0)
(0.53129936 1.3645878e-05 0)
(0.75101183 2.7285437e-05 0)
(1.0164401 4.9271893e-05 0)
(1.3122219 7.7767884e-05 0)
(1.6051688 9.935627e-05 0)
(1.8463207 8.8213666e-05 0)
(1.9838998 3.5449694e-05 0)
(1.9838998 -3.5448955e-05 0)
(1.8463207 -8.8212675e-05 0)
(1.6051688 -9.9355125e-05 0)
(1.3122219 -7.776731e-05 0)
(1.0164401 -4.9272863e-05 0)
(0.75101183 -2.7288187e-05 0)
(0.53129936 -1.3649387e-05 0)
(0.35941547 -6.2005616e-06 0)
(0.23017441 -2.5039589e-06 0)
(0.13565697 -8.4083568e-07 0)
(0.067858992 -1.9584291e-07 0)
(0.019876745 -2.8679751e-08 0)
(0.019875208 2.6190863e-08 0)
(0.067853818 1.8244423e-07 0)
(0.1356468 7.7596517e-07 0)
(0.23015758 2.313735e-06 0)
(0.3593902 5.7309217e-06 0)
(0.5312643 1.2623653e-05 0)
(0.75096742 2.5260481e-05 0)
(1.0163914 4.5679709e-05 0)
(1.3121824 7.2308225e-05 0)
(1.6051599 9.2973493e-05 0)
(1.8463555 8.3350382e-05 0)
(1.9839652 3.3689666e-05 0)
(1.9839652 -3.3688972e-05 0)
(1.8463555 -8.3349387e-05 0)
(1.6051599 -9.2972301e-05 0)
(1.3121824 -7.2307644e-05 0)
(1.0163914 -4.5680821e-05 0)
(0.75096742 -2.5263548e-05 0)
(0.5312643 -1.2627544e-05 0)
(0.3593902 -5.7340884e-06 0)
(0.23015758 -2.3149552e-06 0)
(0.1356468 -7.7739033e-07 0)
(0.067853817 -1.8071349e-07 0)
(0.019875208 -2.6558176e-08 0)
(0.019873787 2.426851e-08 0)
(0.067849027 1.6907271e-07 0)
(0.13563738 7.1918961e-07 0)
(0.230142 2.1447661e-06 0)
(0.35936679 5.3136458e-06 0)
(0.53123178 1.1708991e-05 0)
(0.75092616 2.3445722e-05 0)
(1.016346 4.2450712e-05 0)
(1.3121452 6.7367768e-05 0)
(1.6051509 8.7107622e-05 0)
(1.8463878 7.8785201e-05 0)
(1.9840271 3.2024002e-05 0)
(1.9840271 -3.2023367e-05 0)
(1.8463878 -7.8784218e-05 0)
(1.6051509 -8.7106396e-05 0)
(1.3121452 -6.7367187e-05 0)
(1.016346 -4.2451962e-05 0)
(0.75092616 -2.3449095e-05 0)
(0.53123178 -1.171325e-05 0)
(0.35936679 -5.3170994e-06 0)
(0.230142 -2.1460924e-06 0)
(0.13563738 -7.2072959e-07 0)
(0.067849027 -1.6719484e-07 0)
(0.019873786 -2.4666137e-08 0)
(0.019872467 2.2541866e-08 0)
(0.067844581 1.5705746e-07 0)
(0.13562864 6.6816454e-07 0)
(0.23012754 1.9928655e-06 0)
(0.35934505 4.9383439e-06 0)
(0.53120156 1.0885684e-05 0)
(0.75088776 2.180994e-05 0)
(1.0163035 3.9532384e-05 0)
(1.31211 6.2876649e-05 0)
(1.6051418 8.1702154e-05 0)
(1.8464178 7.4491893e-05 0)
(1.9840857 3.0444561e-05 0)
(1.9840857 -3.0443993e-05 0)
(1.8464178 -7.4490933e-05 0)
(1.6051418 -8.1700906e-05 0)
(1.31211 -6.2876073e-05 0)
(1.0163035 -3.9533769e-05 0)
(0.75088776 -2.1813604e-05 0)
(0.53120156 -1.0890292e-05 0)
(0.35934505 -4.9420692e-06 0)
(0.23012754 -1.9942925e-06 0)
(0.13562864 -6.6981225e-07 0)
(0.067844581 -1.5504199e-07 0)
(0.019872467 -2.2967809e-08 0)
(0.01987124 2.0982434e-08 0)
(0.067840446 1.4620151e-07 0)
(0.13562051 6.2205636e-07 0)
(0.23011408 1.8555651e-06 0)
(0.35932481 4.5989721e-06 0)
(0.53117342 1.0140671e-05 0)
(0.75085195 2.032788e-05 0)
(1.0162638 3.6882033e-05 0)
(1.3120768 5.8777155e-05 0)
(1.6051327 7.670682e-05 0)
(1.8464458 7.0451345e-05 0)
(1.9841412 2.8945303e-05 0)
(1.9841412 -2.8944806e-05 0)
(1.8464458 -7.0450416e-05 0)
(1.6051327 -7.6705558e-05 0)
(1.3120768 -5.8776588e-05 0)
(1.0162638 -3.6883543e-05 0)
(0.75085195 -2.0331815e-05 0)
(0.53117342 -1.0145606e-05 0)
(0.35932481 -4.6029515e-06 0)
(0.23011408 -1.8570866e-06 0)
(0.13562051 -6.2380404e-07 0)
(0.067840446 -1.4405859e-07 0)
(0.01987124 -2.1434558e-08 0)
(0.019870096 1.9567159e-08 0)
(0.067836592 1.3634552e-07 0)
(0.13561293 5.801902e-07 0)
(0.23010153 1.7308662e-06 0)
(0.35930594 4.2906317e-06 0)
(0.53114716 9.4633529e-06 0)
(0.75081849 1.8978983e-05 0)
(1.0162266 3.4464665e-05 0)
(1.3120455 5.5021155e-05 0)
(1.6051237 7.2080829e-05 0)
(1.8464718 6.6642785e-05 0)
(1.9841938 2.7519794e-05 0)
(1.9841938 -2.7519373e-05 0)
(1.8464718 -6.6641895e-05 0)
(1.6051237 -7.2079561e-05 0)
(1.3120455 -5.5020598e-05 0)
(1.0162266 -3.4466291e-05 0)
(0.75081849 -1.898317e-05 0)
(0.53114716 -9.4685907e-06 0)
(0.35930594 -4.294846e-06 0)
(0.23010153 -1.7324749e-06 0)
(0.13561293 -5.8202963e-07 0)
(0.067836592 -1.3408551e-07 0)
(0.019870096 -2.0043261e-08 0)
(0.019869029 1.8277171e-08 0)
(0.067832994 1.2735912e-07 0)
(0.13560586 5.4201335e-07 0)
(0.23008981 1.6171304e-06 0)
(0.35928831 4.0093025e-06 0)
(0.53112262 8.8450128e-06 0)
(0.75078719 1.7746298e-05 0)
(1.0161917 3.2251337e-05 0)
(1.312016 5.1568447e-05 0)
(1.6051149 6.778634e-05 0)
(1.846496 6.3052991e-05 0)
(1.9842436 2.6164003e-05 0)
(1.9842436 -2.6163661e-05 0)
(1.846496 -6.3052147e-05 0)
(1.6051149 -6.7785074e-05 0)
(1.312016 -5.1567902e-05 0)
(1.0161917 -3.225307e-05 0)
(0.75078719 -1.7750715e-05 0)
(0.53112262 -8.8505267e-06 0)
(0.35928831 -4.0137309e-06 0)
(0.23008981 -1.6188184e-06 0)
(0.13560586 -5.4393579e-07 0)
(0.067832994 -1.2499241e-07 0)
(0.019869029 -1.8774995e-08 0)
(0.019868031 1.7096913e-08 0)
(0.067829631 1.1913477e-07 0)
(0.13559924 5.0706983e-07 0)
(0.23007886 1.513006e-06 0)
(0.35927183 3.7516671e-06 0)
(0.53109966 8.2784562e-06 0)
(0.75075788 1.6615812e-05 0)
(1.0161589 3.0217959e-05 0)
(1.311988 4.8384999e-05 0)
(1.6051063 6.379374e-05 0)
(1.8465187 5.9663765e-05 0)
(1.9842909 2.4872569e-05 0)
(1.9842909 -2.4872314e-05 0)
(1.8465187 -5.9662977e-05 0)
(1.6051063 -6.3792485e-05 0)
(1.311988 -4.838447e-05 0)
(1.0161589 -3.021979e-05 0)
(0.75075788 -1.6620437e-05 0)
(0.53109966 -8.284219e-06 0)
(0.35927183 -3.7562874e-06 0)
(0.23007886 -1.5147642e-06 0)
(0.13559924 -5.090656e-07 0)
(0.067829631 -1.1667203e-07 0)
(0.019868031 -1.7614084e-08 0)
(0.019867097 1.6013385e-08 0)
(0.067826482 1.1158265e-07 0)
(0.13559305 4.7497867e-07 0)
(0.2300686 1.4173626e-06 0)
(0.35925639 3.5149468e-06 0)
(0.53107814 7.757642e-06 0)
(0.75073038 1.5575732e-05 0)
(1.0161281 2.8344272e-05 0)
(1.3119617 4.5442154e-05 0)
(1.6050979 6.0073509e-05 0)
(1.8465398 5.646666e-05 0)
(1.9843356 2.3643172e-05 0)
(1.9843356 -2.3643016e-05 0)
(1.8465398 -5.6465942e-05 0)
(1.6050979 -6.0072279e-05 0)
(1.3119617 -4.5441646e-05 0)
(1.0161281 -2.8346194e-05 0)
(0.75073038 -1.5580542e-05 0)
(0.53107814 -7.763624e-06 0)
(0.35925639 -3.5197343e-06 0)
(0.2300686 -1.4191806e-06 0)
(0.13559305 -4.7703639e-07 0)
(0.067826482 -1.0903558e-07 0)
(0.019867096 -1.654724e-08 0)
(0.019866221 1.5015661e-08 0)
(0.067823531 1.0462717e-07 0)
(0.13558724 4.4541911e-07 0)
(0.23005898 1.3292493e-06 0)
(0.35924191 3.2968068e-06 0)
(0.53105796 7.2775008e-06 0)
(0.75070457 1.4616149e-05 0)
(1.0160992 2.6613085e-05 0)
(1.3119367 4.2715069e-05 0)
(1.6050897 5.6603975e-05 0)
(1.8465596 5.3444093e-05 0)
(1.984378 2.2470828e-05 0)
(1.984378 -2.247079e-05 0)
(1.8465596 -5.3443466e-05 0)
(1.6050897 -5.6602788e-05 0)
(1.3119367 -4.2714593e-05 0)
(1.0160992 -2.6615092e-05 0)
(0.75070457 -1.4621121e-05 0)
(0.53105796 -7.2836687e-06 0)
(0.35924191 -3.3017322e-06 0)
(0.23005898 -1.3311138e-06 0)
(0.13558724 -4.4752448e-07 0)
(0.067823531 -1.0200975e-07 0)
(0.019866221 -1.5562957e-08 0)
(0.0198654 1.4094473e-08 0)
(0.067820762 9.8204173e-08 0)
(0.1355818 4.1811931e-07 0)
(0.23004996 1.2478586e-06 0)
(0.35922832 3.0952579e-06 0)
(0.53103901 6.8336951e-06 0)
(0.75068032 1.3728571e-05 0)
(1.0160719 2.5009765e-05 0)
(1.3119132 4.0182848e-05 0)
(1.6050818 5.3361204e-05 0)
(1.8465781 5.059225e-05 0)
(1.9844182 2.1354782e-05 0)
(1.9844182 -2.1354888e-05 0)
(1.8465781 -5.059174e-05 0)
(1.6050818 -5.3360085e-05 0)
(1.3119132 -4.0182421e-05 0)
(1.0160719 -2.5011853e-05 0)
(0.75068032 -1.3733676e-05 0)
(0.531039 -6.8400081e-06 0)
(0.35922832 -3.1002844e-06 0)
(0.23004996 -1.2497529e-06 0)
(0.1355818 -4.2025336e-07 0)
(0.067820762 -9.5534775e-08 0)
(0.019865399 -1.4650957e-08 0)
(0.019864628 1.3241877e-08 0)
(0.067818161 9.2258442e-08 0)
(0.13557668 3.9284515e-07 0)
(0.23004148 1.1724965e-06 0)
(0.35921555 2.9085987e-06 0)
(0.5310212 6.4225327e-06 0)
(0.75065752 1.2905758e-05 0)
(1.0160463 2.3521608e-05 0)
(1.3118909 3.7826673e-05 0)
(1.6050743 5.032937e-05 0)
(1.8465955 4.7892385e-05 0)
(1.9844563 2.0289718e-05 0)
(1.9844563 -2.0290003e-05 0)
(1.8465955 -4.789203e-05 0)
(1.6050743 -5.0328355e-05 0)
(1.3118909 -3.7826316e-05 0)
(1.0160463 -2.3523773e-05 0)
(0.75065752 -1.2910961e-05 0)
(0.5310212 -6.4289373e-06 0)
(0.35921555 -2.9136777e-06 0)
(0.23004148 -1.1743986e-06 0)
(0.13557668 -3.9498212e-07 0)
(0.067818161 -8.9562454e-08 0)
(0.019864628 -1.3801728e-08 0)
(0.019863903 1.245111e-08 0)
(0.067815716 8.6743087e-08 0)
(0.13557187 3.6939829e-07 0)
(0.23003351 1.1025724e-06 0)
(0.35920355 2.7353683e-06 0)
(0.53100445 6.0408122e-06 0)
(0.75063606 1.2141423e-05 0)
(1.0160221 2.2137807e-05 0)
(1.3118699 3.5631159e-05 0)
(1.6050669 4.7488429e-05 0)
(1.8466118 4.5346014e-05 0)
(1.9844924 1.9276591e-05 0)
(1.9844924 -1.9277093e-05 0)
(1.8466118 -4.534586e-05 0)
(1.6050669 -4.7487563e-05 0)
(1.3118699 -3.5630903e-05 0)
(1.0160221 -2.2140044e-05 0)
(0.75063606 -1.2146675e-05 0)
(0.53100445 -6.0472355e-06 0)
(0.35920355 -2.7404336e-06 0)
(0.23003351 -1.1044527e-06 0)
(0.13557187 -3.7150282e-07 0)
(0.067815716 -8.4056031e-08 0)
(0.019863903 -1.3006278e-08 0)
(0.019863221 1.1716181e-08 0)
(0.067813417 8.1616094e-08 0)
(0.13556735 3.4760081e-07 0)
(0.23002601 1.0375604e-06 0)
(0.35919226 2.5742828e-06 0)
(0.53098868 5.6857588e-06 0)
(0.75061585 1.1430111e-05 0)
(1.0159993 2.0848619e-05 0)
(1.31185 3.3581355e-05 0)
(1.6050599 4.482686e-05 0)
(1.8466272 4.2931226e-05 0)
(1.9845266 1.8308969e-05 0)
(1.9845266 -1.8309736e-05 0)
(1.8466272 -4.2931333e-05 0)
(1.6050599 -4.4826197e-05 0)
(1.31185 -3.3581233e-05 0)
(1.0159993 -2.0850912e-05 0)
(0.75061585 -1.1435342e-05 0)
(0.53098868 -5.6920994e-06 0)
(0.35919226 -2.5792437e-06 0)
(0.23002601 -1.0393786e-06 0)
(0.13556735 -3.4962492e-07 0)
(0.067813417 -7.8987409e-08 0)
(0.019863221 -1.22556e-08 0)
(0.019862579 1.1032135e-08 0)
(0.067811252 7.6843185e-08 0)
(0.13556309 3.2730817e-07 0)
(0.23001895 9.770274e-07 0)
(0.35918162 2.4242594e-06 0)
(0.53097384 5.3549732e-06 0)
(0.75059681 1.0767095e-05 0)
(1.0159778 1.9646031e-05 0)
(1.3118312 3.1666188e-05 0)
(1.6050532 4.2327683e-05 0)
(1.8466415 4.0656448e-05 0)
(1.984559 1.7390035e-05 0)
(1.984559 -1.7391116e-05 0)
(1.8466415 -4.0656878e-05 0)
(1.6050532 -4.2327284e-05 0)
(1.3118312 -3.1666236e-05 0)
(1.0159778 -1.9648356e-05 0)
(0.75059681 -1.0772204e-05 0)
(0.53097384 -5.3610921e-06 0)
(0.35918162 -2.4289937e-06 0)
(0.23001895 -9.7873111e-07 0)
(0.13556309 -3.2918833e-07 0)
(0.067811252 -7.4340587e-08 0)
(0.019862579 -1.154085e-08 0)
(0.019861974 1.039421e-08 0)
(0.067809213 7.2390423e-08 0)
(0.13555908 3.0837651e-07 0)
(0.2300123 9.205512e-07 0)
(0.3591716 2.2842828e-06 0)
(0.53095985 5.0462904e-06 0)
(0.75057886 1.0148111e-05 0)
(1.0159575 1.8522177e-05 0)
(1.3118134 2.9872852e-05 0)
(1.6050467 3.9982139e-05 0)
(1.8466551 3.849397e-05 0)
(1.9845898 1.6511221e-05 0)
(1.9845898 -1.6512681e-05 0)
(1.8466551 -3.8494788e-05 0)
(1.6050467 -3.998207e-05 0)
(1.3118134 -2.9873106e-05 0)
(1.0159575 -1.852449e-05 0)
(0.75057886 -1.0152958e-05 0)
(0.53095985 -5.0520006e-06 0)
(0.3591716 -2.2886291e-06 0)
(0.2300123 -9.2207236e-07 0)
(0.13555908 -3.1003046e-07 0)
(0.067809213 -7.0103755e-08 0)
(0.019861974 -1.0852553e-08 0)
(0.019861404 9.7989612e-09 0)
(0.067807292 6.8234527e-08 0)
(0.13555529 2.9070834e-07 0)
(0.23000603 8.6783349e-07 0)
(0.35916216 2.1535798e-06 0)
(0.53094666 4.7579413e-06 0)
(0.75056194 9.5696533e-06 0)
(1.0159384 1.7471374e-05 0)
(1.3117965 2.8194303e-05 0)
(1.6050405 3.777655e-05 0)
(1.8466678 3.6461842e-05 0)
(1.9846188 1.5678953e-05 0)
(1.9846188 -1.5680856e-05 0)
(1.8466677 -3.6463105e-05 0)
(1.6050405 -3.7776882e-05 0)
(1.3117965 -2.8194796e-05 0)
(1.0159384 -1.7473607e-05 0)
(0.75056194 -9.5740485e-06 0)
(0.53094666 -4.7629964e-06 0)
(0.35916216 -2.1573284e-06 0)
(0.23000603 -8.6908491e-07 0)
(0.1355553 -2.9203165e-07 0)
(0.067807292 -6.6279152e-08 0)
(0.019861405 -1.01817e-08 0)
(0.019860867 9.242177e-09 0)
(0.067805479 6.4344568e-08 0)
(0.13555173 2.7417177e-07 0)
(0.23000012 8.1849494e-07 0)
(0.35915325 2.0312727e-06 0)
(0.53093422 4.4881238e-06 0)
(0.75054596 9.0281795e-06 0)
(1.0159203 1.6486686e-05 0)
(1.3117806 2.6618078e-05 0)
(1.6050346 3.5702689e-05 0)
(1.8466798 3.4522804e-05 0)
(1.9846465 1.4881082e-05 0)
(1.9846465 -1.4883487e-05 0)
(1.8466798 -3.4524576e-05 0)
(1.6050346 -3.5703493e-05 0)
(1.3117806 -2.661884e-05 0)
(1.0159203 -1.6488744e-05 0)
(0.75054596 -9.0318797e-06 0)
(0.53093421 -4.4922131e-06 0)
(0.35915325 -2.0341635e-06 0)
(0.23000012 -8.1937186e-07 0)
(0.13555173 -2.7503738e-07 0)
(0.06780548 -6.2866134e-08 0)
(0.019860867 -9.5176557e-09 0)
(0.01986036 8.7221653e-09 0)
(0.067803771 6.0710804e-08 0)
(0.13554837 2.587272e-07 0)
(0.22999455 7.7239716e-07 0)
(0.35914485 1.9169292e-06 0)
(0.53092248 4.2357056e-06 0)
(0.75053089 8.5213889e-06 0)
(1.0159032 1.5564932e-05 0)
(1.3117655 2.5142092e-05 0)
(1.605029 3.3752208e-05 0)
(1.846691 3.27089e-05 0)
(1.9846726 1.4129036e-05 0)
(1.9846726 -1.4131976e-05 0)
(1.846691 -3.2711225e-05 0)
(1.605029 -3.3753558e-05 0)
(1.3117655 -2.5143144e-05 0)
(1.0159032 -1.5566686e-05 0)
(0.75053089 -8.5240878e-06 0)
(0.53092248 -4.2384468e-06 0)
(0.35914485 -1.9186484e-06 0)
(0.22999455 -7.7277691e-07 0)
(0.13554837 -2.5898585e-07 0)
(0.067803772 -5.9886325e-08 0)
(0.019860361 -8.8520463e-09 0)
(0.019859881 8.2342238e-09 0)
(0.067802156 5.7297165e-08 0)
(0.13554519 2.4421922e-07 0)
(0.22998928 7.2910958e-07 0)
(0.35913691 1.8096266e-06 0)
(0.53091139 3.9989492e-06 0)
(0.75051664 8.0459323e-06 0)
(1.0158871 1.4698911e-05 0)
(1.3117512 2.375161e-05 0)
(1.6050236 3.19134e-05 0)
(1.8467017 3.096787e-05 0)
(1.9846975 1.3404869e-05 0)
(1.9846975 -1.3408364e-05 0)
(1.8467017 -3.0970793e-05 0)
(1.6050236 -3.1915365e-05 0)
(1.3117512 -2.3752966e-05 0)
(1.0158871 -1.4700199e-05 0)
(0.75051664 -8.0472578e-06 0)
(0.53091139 -3.9998835e-06 0)
(0.35913691 -1.8098005e-06 0)
(0.22998928 -7.2884626e-07 0)
(0.13554519 -2.4369841e-07 0)
(0.067802158 -5.7329984e-08 0)
(0.019859882 -8.1739145e-09 0)
(0.01985943 7.7798977e-09 0)
(0.067800634 5.4119635e-08 0)
(0.13554219 2.3071805e-07 0)
(0.22998431 6.8878825e-07 0)
(0.35912943 1.7095217e-06 0)
(0.53090093 3.7777263e-06 0)
(0.7505032 7.6013104e-06 0)
(1.0158719 1.3889322e-05 0)
(1.3117377 2.2452698e-05 0)
(1.6050185 3.0188717e-05 0)
(1.8467117 2.9352739e-05 0)
(1.9847208 1.2727945e-05 0)
(1.9847208 -1.2731954e-05 0)
(1.8467117 -2.9356276e-05 0)
(1.6050185 -3.0191357e-05 0)
(1.3117377 -2.2454362e-05 0)
(1.0158719 -1.3889955e-05 0)
(0.7505032 -7.6008447e-06 0)
(0.53090093 -3.7763476e-06 0)
(0.35912943 -1.7077473e-06 0)
(0.22998432 -6.8773524e-07 0)
(0.1355422 -2.2923572e-07 0)
(0.067800637 -5.5242921e-08 0)
(0.019859431 -7.4791196e-09 0)
(0.019859003 7.3513179e-09 0)
(0.067799193 5.1115928e-08 0)
(0.13553936 2.1795422e-07 0)
(0.22997961 6.5071602e-07 0)
(0.35912234 1.6152063e-06 0)
(0.53089102 3.5696985e-06 0)
(0.75049047 7.1832992e-06 0)
(1.0158574 1.3126428e-05 0)
(1.3117249 2.1223576e-05 0)
(1.6050136 2.855544e-05 0)
(1.8467212 2.7788435e-05 0)
(1.9847433 1.2071216e-05 0)
(1.9847433 -1.2075674e-05 0)
(1.8467212 -2.7792591e-05 0)
(1.6050136 -2.8558797e-05 0)
(1.3117249 -2.1225532e-05 0)
(1.0158574 -1.3126185e-05 0)
(0.75049046 -7.1805811e-06 0)
(0.53089102 -3.5654659e-06 0)
(0.35912234 -1.6110686e-06 0)
(0.22997961 -6.487356e-07 0)
(0.13553936 -2.1533445e-07 0)
(0.067799196 -5.3579545e-08 0)
(0.019859004 -6.7577081e-09 0)
(0.0198586 6.9587441e-09 0)
(0.067797836 4.8370135e-08 0)
(0.13553669 2.0628615e-07 0)
(0.22997518 6.1581188e-07 0)
(0.35911566 1.5283295e-06 0)
(0.5308817 3.3771735e-06 0)
(0.75047849 6.7954913e-06 0)
(1.0158438 1.2419172e-05 0)
(1.3117128 2.0086625e-05 0)
(1.605009 2.7039065e-05 0)
(1.84673 2.6360399e-05 0)
(1.9847642 1.1466934e-05 0)
(1.9847642 -1.1471712e-05 0)
(1.84673 -2.6365124e-05 0)
(1.6050089 -2.7043163e-05 0)
(1.3117128 -2.0088845e-05 0)
(1.0158438 -1.2417807e-05 0)
(0.75047849 -6.7900212e-06 0)