/*--------------------------------*- C++ -*----------------------------------*\
| =========                 |                                                 |
| \\      /  F ield         | OpenFOAM: The Open Source CFD Toolbox           |
|  \\    /   O peration     | Version:  2406                                  |
|   \\  /    A nd           | Website:  www.openfoam.com                      |
|    \\/     M anipulation  |                                                 |
\*---------------------------------------------------------------------------*/
FoamFile
{
    version     2.0;
    format      ascii;
    arch        "LSB;label=32;scalar=64";
    class       volScalarField;
    location    "10";
    object      p;
}
// * * * * * * * * * * * * * * * * * * * * * * * * * * * * * * * * * * * * * //

dimensions      [0 2 -2 0 0 0 0];

internalField   nonuniform List<scalar> 
34560
(
37.421939
37.416537
37.409809
37.401898
37.392461
37.383862
37.380229
37.385176
37.396473
37.467789
37.461429
37.452781
37.441787
37.428643
37.416919
37.411508
37.415884
37.427451
37.520532
37.513491
37.503443
37.489609
37.472105
37.455653
37.446444
37.448108
37.457658
37.57322
37.56544
37.554084
37.537747
37.516539
37.495443
37.481573
37.478686
37.484197
37.626543
37.618184
37.605492
37.586241
37.560594
37.534205
37.514881
37.506754
37.507676
37.681729
37.672791
37.658786
37.636486
37.605434
37.572414
37.546575
37.532702
37.528885
37.7393
37.729451
37.713644
37.688144
37.651055
37.610322
37.57688
37.556465
37.547525
37.80051
37.789202
37.770934
37.741479
37.697024
37.647109
37.605017
37.577725
37.564008
37.865512
37.851908
37.830109
37.795564
37.743194
37.682705
37.631142
37.597066
37.579391
37.931891
37.915803
37.889553
37.848387
37.788434
37.716673
37.655437
37.615231
37.594336
37.992174
37.973028
37.942059
37.894566
37.827805
37.746077
37.676216
37.631133
37.607502
38.029585
38.008016
37.973775
37.922527
37.85166
37.764465
37.689044
37.641038
37.61586
38.029586
38.008017
37.973775
37.922528
37.85166
37.764465
37.689044
37.641038
37.61586
37.992176
37.973029
37.942061
37.894568
37.827807
37.746078
37.676217
37.631134
37.607503
37.931891
37.915804
37.889555
37.848389
37.788436
37.716675
37.655439
37.615232
37.594337
37.865511
37.851908
37.830111
37.795566
37.743197
37.682707
37.631144
37.597068
37.579393
37.800511
37.789204
37.770937
37.741483
37.697027
37.647112
37.605021
37.577728
37.56401
37.739304
37.729455
37.713648
37.688147
37.651058
37.610326
37.576884
37.556469
37.547529
37.681735
37.672797
37.658791
37.63649
37.605439
37.572419
37.54658
37.532706
37.528891
37.626549
37.61819
37.605498
37.586246
37.5606
37.534211
37.514886
37.506759
37.507682
37.573227
37.565447
37.55409
37.537753
37.516545
37.49545
37.481579
37.478693
37.484204
37.520539
37.513498
37.50345
37.489617
37.472113
37.45566
37.446451
37.448115
37.457665
37.467796
37.461436
37.452789
37.441795
37.428652
37.416928
37.411516
37.415891
37.42746
37.421947
37.416545
37.409818
37.401907
37.39247
37.383873
37.380239
37.385187
37.396486
34.609682
34.610202
34.610624
34.610778
34.610534
34.610351
34.61096
34.612634
34.615752
34.602523
34.603288
34.604002
34.604497
34.604715
34.605372
34.607321
34.610558
34.614539
34.595539
34.596589
34.597512
34.598122
34.598437
34.599508
34.602281
34.606318
34.610354
34.589914
34.59132
34.592417
34.593072
34.593227
34.594309
34.597425
34.60177
34.60569
34.586261
34.588063
34.589331
34.589838
34.589568
34.590305
34.593353
34.597652
34.601339
34.58478
34.587055
34.588483
34.58866
34.587671
34.587674
34.590321
34.594375
34.597806
34.58669
34.589465
34.591017
34.590397
34.588334
34.58719
34.589109
34.592744
34.595931
34.592552
34.595805
34.597357
34.595662
34.592321
34.589807
34.590808
34.593973
34.59697
34.603128
34.606776
34.608282
34.605388
34.599976
34.596156
34.596419
34.599231
34.602057
34.617157
34.621118
34.622566
34.618521
34.610388
34.605816
34.605939
34.608747
34.611462
34.631257
34.635418
34.636838
34.631781
34.621587
34.616681
34.617317
34.620509
34.623186
34.641203
34.645337
34.646687
34.641089
34.629686
34.624119
34.625486
34.629126
34.631807
34.641203
34.645337
34.646688
34.641089
34.629686
34.624119
34.625486
34.629126
34.631807
34.631257
34.635419
34.636838
34.631782
34.621587
34.616682
34.617317
34.620509
34.623187
34.617157
34.621118
34.622567
34.618522
34.610389
34.605817
34.605941
34.608748
34.611463
34.603128
34.606777
34.608284
34.60539
34.599979
34.596159
34.596422
34.599233
34.602059
34.592554
34.595807
34.59736
34.595665
34.592325
34.589811
34.590812
34.593976
34.596972
34.586694
34.589469
34.591021
34.590402
34.588339
34.587195
34.589114
34.592748
34.595936
34.584786
34.587061
34.588489
34.588666
34.587677
34.58768
34.590327
34.594381
34.597812
34.586269
34.588071
34.589338
34.589845
34.589575
34.590312
34.59336
34.597658
34.601345
34.589922
34.591328
34.592426
34.593081
34.593236
34.594317
34.597432
34.601777
34.605697
34.595549
34.596598
34.597522
34.598133
34.598447
34.599517
34.602291
34.606326
34.610361
34.602534
34.603299
34.604013
34.604509
34.604726
34.605383
34.607331
34.610567
34.614546
34.609694
34.610214
34.610636
34.610791
34.610546
34.610364
34.610971
34.612644
34.615761
33.659685
33.65974
33.659738
33.659576
33.659299
33.659079
33.659114
33.659577
33.660232
33.66441
33.664465
33.664404
33.664089
33.663563
33.66301
33.662653
33.662725
33.663143
33.668829
33.668923
33.668878
33.668506
33.667828
33.667006
33.66627
33.665932
33.666093
33.673216
33.673353
33.673342
33.672932
33.672134
33.671062
33.669945
33.669166
33.668988
33.677605
33.677791
33.677827
33.677385
33.676472
33.675139
33.673617
33.672364
33.671782
33.681903
33.682161
33.68228
33.681829
33.680814
33.679213
33.677257
33.6755
33.674479
33.686161
33.686492
33.686711
33.686251
33.685126
33.683245
33.680832
33.678564
33.677097
33.690324
33.690737
33.691069
33.690591
33.689347
33.687174
33.684305
33.681545
33.679649
33.694237
33.694737
33.695171
33.694698
33.693333
33.690879
33.687601
33.684398
33.682113
33.697741
33.698338
33.698888
33.698426
33.696899
33.694166
33.690534
33.686974
33.684371
33.700513
33.701204
33.701868
33.701421
33.699709
33.696717
33.692808
33.688988
33.686178
33.702115
33.702858
33.703594
33.703155
33.701309
33.698123
33.694045
33.690086
33.687186
33.702116
33.702858
33.703594
33.703156
33.701309
33.698124
33.694046
33.690087
33.687186
33.700514
33.701204
33.701869
33.701422
33.69971
33.696718
33.692809
33.688989
33.686179
33.697742
33.69834
33.69889
33.698428
33.696901
33.694168
33.690536
33.686976
33.684373
33.694239
33.694739
33.695174
33.694701
33.693336
33.690882
33.687604
33.684401
33.682115
33.690327
33.69074
33.691073
33.690595
33.689351
33.687179
33.684309
33.681549
33.679652
33.686166
33.686497
33.686717
33.686256
33.685131
33.683251
33.680837
33.678569
33.677101
33.681909
33.682167
33.682286
33.681836
33.68082
33.67922
33.677263
33.675505
33.674484
33.677612
33.677798
33.677835
33.677393
33.676479
33.675147
33.673624
33.672371
33.671788
33.673225
33.673362
33.673351
33.672941
33.672143
33.67107
33.669953
33.669174
33.668996
33.668839
33.668934
33.668889
33.668516
33.667838
33.667016
33.66628
33.665941
33.666101
33.664422
33.664477
33.664416
33.664101
33.663575
33.663023
33.662665
33.662735
33.663151
33.659698
33.659754
33.659752
33.65959
33.659313
33.659093
33.659127
33.659589
33.660242
31.829877
31.829757
31.829647
31.829597
31.82959
31.829557
31.829426
31.829166
31.829003
31.830269
31.830129
31.830013
31.829978
31.830003
31.830008
31.829917
31.829716
31.82955
31.830692
31.83054
31.830422
31.830409
31.83047
31.830513
31.830441
31.830227
31.829953
31.831239
31.831084
31.830965
31.830967
31.831055
31.831118
31.831041
31.830773
31.830373
31.831855
31.831704
31.831588
31.831611
31.831725
31.831806
31.831711
31.831374
31.830839
31.83246
31.832325
31.832226
31.832282
31.83243
31.832527
31.83241
31.831996
31.831332
31.833081
31.832961
31.832881
31.832968
31.833147
31.833258
31.833115
31.832624
31.831837
31.833692
31.833588
31.833527
31.833645
31.833855
31.833976
31.833805
31.833239
31.832339
31.834272
31.834183
31.834139
31.834285
31.834524
31.83465
31.834454
31.833816
31.83282
31.834778
31.834707
31.83468
31.834854
31.835109
31.835241
31.835022
31.834322
31.833252
31.83516
31.835105
31.835095
31.835291
31.835559
31.835693
31.835461
31.834724
31.83359
31.835386
31.835338
31.835335
31.835538
31.835811
31.835945
31.835711
31.834961
31.833783
31.835387
31.835338
31.835335
31.835538
31.835811
31.835946
31.835712
31.834961
31.833783
31.835161
31.835106
31.835096
31.835293
31.83556
31.835695
31.835463
31.834725
31.833591
31.83478
31.834709
31.834682
31.834856
31.835111
31.835243
31.835024
31.834324
31.833254
31.834275
31.834186
31.834142
31.834288
31.834527
31.834654
31.834457
31.833819
31.832822
31.833696
31.833592
31.833531
31.833649
31.833859
31.83398
31.833809
31.833243
31.832342
31.833086
31.832966
31.832886
31.832973
31.833153
31.833264
31.83312
31.832629
31.831841
31.832466
31.832331
31.832233
31.832288
31.832436
31.832534
31.832416
31.832002
31.831337
31.831862
31.831711
31.831596
31.831619
31.831733
31.831814
31.831718
31.83138
31.830844
31.831248
31.831094
31.830974
31.830977
31.831064
31.831128
31.831049
31.830781
31.830379
31.830703
31.830551
31.830433
31.83042
31.830481
31.830524
31.830452
31.830236
31.829962
31.830281
31.830142
31.830025
31.829991
31.830016
31.830021
31.82993
31.829728
31.829561
31.829891
31.829771
31.829661
31.829611
31.829604
31.829572
31.829441
31.829181
31.829016
30.376634
30.37665
30.376651
30.376608
30.376525
30.376437
30.3764
30.376458
30.376594
30.377193
30.377209
30.377201
30.377136
30.377022
30.376905
30.376852
30.376912
30.377052
30.377594
30.377614
30.377609
30.377535
30.377404
30.377267
30.377199
30.377255
30.377408
30.377923
30.37795
30.377947
30.377869
30.377726
30.377574
30.377497
30.377553
30.377721
30.378196
30.378228
30.37823
30.378151
30.378002
30.377843
30.377759
30.377805
30.377974
30.378417
30.378457
30.378465
30.378389
30.378239
30.378076
30.377982
30.378015
30.378183
30.378609
30.378655
30.378671
30.378598
30.378449
30.37828
30.378177
30.378204
30.378373
30.37877
30.378826
30.378851
30.378784
30.378636
30.378464
30.378354
30.378374
30.378538
30.378904
30.378969
30.379005
30.378945
30.378799
30.378625
30.378506
30.378515
30.378666
30.379007
30.37908
30.379124
30.379071
30.378929
30.378752
30.378625
30.37862
30.37875
30.379076
30.379155
30.379206
30.379157
30.379018
30.378839
30.378704
30.378685
30.378796
30.379113
30.379194
30.379248
30.379202
30.379063
30.378883
30.378744
30.378716
30.378815
30.379113
30.379195
30.379249
30.379203
30.379064
30.378883
30.378745
30.378717
30.378816
30.379077
30.379156
30.379207
30.379159
30.379019
30.37884
30.378706
30.378687
30.378797
30.379009
30.379082
30.379127
30.379073
30.378931
30.378755
30.378628
30.378622
30.378752
30.378907
30.378973
30.379008
30.378948
30.378803
30.378628
30.37851
30.378519
30.378669
30.378775
30.37883
30.378856
30.378789
30.378641
30.378469
30.378359
30.378378
30.378541
30.378615
30.378661
30.378677
30.378605
30.378455
30.378286
30.378183
30.37821
30.378378
30.378424
30.378464
30.378473
30.378396
30.378247
30.378083
30.377989
30.378022
30.378189
30.378204
30.378237
30.378239
30.37816
30.378011
30.377853
30.377768
30.377813
30.377981
30.377933
30.37796
30.377958
30.37788
30.377737
30.377585
30.377507
30.377562
30.37773
30.377606
30.377626
30.377621
30.377548
30.377417
30.377279
30.377211
30.377266
30.377419
30.377207
30.377223
30.377215
30.37715
30.377036
30.376919
30.376866
30.376924
30.377064
30.376649
30.376666
30.376666
30.376623
30.37654
30.376452
30.376415
30.376473
30.376607
28.78472
28.7847
28.784681
28.784673
28.784674
28.784669
28.78464
28.784573
28.784493
28.784855
28.784834
28.784815
28.78481
28.784813
28.784808
28.784772
28.784695
28.784594
28.784982
28.784961
28.784943
28.784942
28.784949
28.784942
28.784894
28.784789
28.784642
28.785126
28.785105
28.785089
28.78509
28.785098
28.785085
28.78502
28.784884
28.784707
28.785276
28.785256
28.785242
28.785246
28.785254
28.785237
28.785158
28.785008
28.784814
28.785419
28.785402
28.785391
28.785399
28.785412
28.785396
28.785314
28.785167
28.784967
28.78556
28.785544
28.785537
28.78555
28.78557
28.785561
28.785488
28.78534
28.785136
28.785689
28.785676
28.785672
28.785692
28.785719
28.785719
28.785655
28.785504
28.785287
28.785801
28.785789
28.785789
28.785815
28.78585
28.785858
28.785796
28.785641
28.785413
28.785887
28.785877
28.78588
28.78591
28.785951
28.785965
28.785906
28.785749
28.785513
28.785945
28.785937
28.785942
28.785976
28.786021
28.786039
28.785982
28.785824
28.785582
28.785977
28.785969
28.785975
28.786009
28.786057
28.786077
28.786022
28.785863
28.785618
28.785977
28.78597
28.785975
28.78601
28.786057
28.786078
28.786022
28.785863
28.785618
28.785947
28.785939
28.785944
28.785977
28.786022
28.786041
28.785983
28.785825
28.785583
28.785889
28.78588
28.785883
28.785913
28.785954
28.785968
28.785908
28.785751
28.785514
28.785804
28.785793
28.785793
28.785818
28.785854
28.785862
28.7858
28.785644
28.785415
28.785694
28.785681
28.785677
28.785697
28.785725
28.785725
28.78566
28.785508
28.78529
28.785566
28.78555
28.785543
28.785557
28.785577
28.785568
28.785494
28.785346
28.78514
28.785427
28.78541
28.785399
28.785408
28.785421
28.785405
28.785322
28.785174
28.784972
28.785286
28.785266
28.785252
28.785256
28.785265
28.785247
28.785168
28.785016
28.784821
28.785138
28.785117
28.785102
28.785103
28.78511
28.785098
28.785032
28.784894
28.784715
28.784996
28.784975
28.784958
28.784957
28.784963
28.784956
28.784907
28.784801
28.784653
28.784871
28.78485
28.784831
28.784827
28.78483
28.784824
28.784788
28.78471
28.784607
28.784738
28.784717
28.784699
28.784691
28.784691
28.784686
28.784657
28.784589
28.784508
27.234424
27.234425
27.234422
27.234413
27.234395
27.234373
27.234354
27.234346
27.23436
27.234516
27.234517
27.234513
27.2345
27.23448
27.234457
27.234441
27.23444
27.23446
27.234567
27.234569
27.234566
27.234554
27.234534
27.234513
27.234501
27.234507
27.234532
27.234603
27.234606
27.234604
27.234593
27.234574
27.234556
27.23455
27.234564
27.234596
27.234625
27.234629
27.234628
27.234619
27.234602
27.234588
27.234588
27.234611
27.234651
27.234632
27.234638
27.234639
27.234632
27.234618
27.234608
27.234613
27.234633
27.234665
27.23463
27.234637
27.23464
27.234634
27.234623
27.234614
27.234613
27.234624
27.234643
27.234618
27.234626
27.234631
27.234627
27.234616
27.234604
27.234596
27.234601
27.234618
27.234601
27.234611
27.234617
27.234614
27.234603
27.234589
27.234579
27.234581
27.234597
27.234586
27.234597
27.234605
27.234602
27.234592
27.234577
27.234566
27.234566
27.234581
27.234575
27.234587
27.234596
27.234594
27.234584
27.234569
27.234557
27.234556
27.23457
27.234569
27.234582
27.234591
27.23459
27.23458
27.234565
27.234553
27.234551
27.234564
27.23457
27.234583
27.234592
27.234591
27.234581
27.234566
27.234553
27.234551
27.234564
27.234576
27.234589
27.234597
27.234596
27.234585
27.23457
27.234558
27.234557
27.234571
27.234588
27.2346
27.234607
27.234605
27.234594
27.23458
27.234568
27.234568
27.234583
27.234605
27.234615
27.234621
27.234618
27.234607
27.234593
27.234583
27.234584
27.234599
27.234622
27.234631
27.234636
27.234632
27.234622
27.23461
27.234601
27.234605
27.234621
27.234636
27.234643
27.234647
27.234642
27.234631
27.234621
27.23462
27.234629
27.234647
27.234641
27.234646
27.234648
27.234641
27.234628
27.234617
27.234621
27.23464
27.234671
27.234636
27.23464
27.23464
27.23463
27.234614
27.234599
27.234599
27.23462
27.234658
27.234617
27.23462
27.234618
27.234607
27.234588
27.23457
27.234562
27.234574
27.234605
27.234583
27.234585
27.234582
27.23457
27.234551
27.234529
27.234517
27.234521
27.234543
27.234535
27.234535
27.234532
27.23452
27.234499
27.234476
27.234459
27.234456
27.234473
27.234444
27.234445
27.234443
27.234433
27.234416
27.234394
27.234374
27.234365
27.234377
25.679917
25.679916
25.679914
25.679913
25.679912
25.67991
25.679906
25.6799
25.679895
25.679958
25.679956
25.679955
25.679953
25.679952
25.679949
25.679944
25.67994
25.679936
25.679994
25.679993
25.679992
25.679991
25.67999
25.679986
25.679981
25.679973
25.679966
25.680034
25.680032
25.680032
25.680032
25.680031
25.680027
25.68002
25.68001
25.68
25.680073
25.680072
25.680073
25.680073
25.680073
25.680069
25.680061
25.68005
25.680038
25.680111
25.68011
25.680112
25.680113
25.680114
25.680111
25.680103
25.68009
25.680076
25.680146
25.680147
25.680149
25.680151
25.680153
25.680151
25.680144
25.68013
25.680114
25.680179
25.68018
25.680182
25.680186
25.680189
25.680189
25.680182
25.680168
25.680149
25.680207
25.680208
25.680212
25.680216
25.68022
25.680221
25.680216
25.680202
25.680184
25.68023
25.680231
25.680235
25.68024
25.680246
25.680248
25.680244
25.680232
25.680215
25.680246
25.680247
25.680252
25.680257
25.680263
25.680267
25.680264
25.680254
25.680237
25.680254
25.680256
25.68026
25.680266
25.680273
25.680277
25.680275
25.680266
25.680248
25.680255
25.680257
25.680261
25.680267
25.680273
25.680277
25.680276
25.680266
25.680248
25.680247
25.680249
25.680253
25.680259
25.680265
25.680268
25.680266
25.680256
25.680238
25.680232
25.680234
25.680238
25.680243
25.680248
25.680251
25.680247
25.680234
25.680217
25.680211
25.680212
25.680215
25.68022
25.680225
25.680226
25.68022
25.680205
25.680186
25.680184
25.680185
25.680188
25.680192
25.680195
25.680194
25.680187
25.680172
25.680152
25.680153
25.680153
25.680156
25.680159
25.68016
25.680159
25.680151
25.680136
25.680118
25.680119
25.680119
25.68012
25.680122
25.680123
25.68012
25.680112
25.680098
25.680082
25.680084
25.680083
25.680084
25.680085
25.680084
25.680081
25.680072
25.680059
25.680045
25.680047
25.680046
25.680046
25.680046
25.680045
25.680041
25.680033
25.680021
25.680009
25.68001
25.680009
25.680008
25.680008
25.680006
25.680003
25.679996
25.679987
25.679978
25.679976
25.679975
25.679974
25.679972
25.679971
25.679967
25.679962
25.679956
25.67995
25.679938
25.679936
25.679935
25.679934
25.679933
25.67993
25.679926
25.67992
25.679912
24.120015
24.120014
24.120012
24.12001
24.120008
24.120004
24.119999
24.119994
24.119994
24.120038
24.120036
24.120034
24.120032
24.12003
24.120027
24.120024
24.120021
24.120021
24.120052
24.120051
24.120049
24.120047
24.120046
24.120044
24.120042
24.12004
24.12004
24.120064
24.120063
24.120062
24.120061
24.12006
24.120059
24.120058
24.120057
24.120057
24.120075
24.120074
24.120073
24.120072
24.120072
24.120072
24.120072
24.120072
24.120072
24.120082
24.120082
24.120081
24.120081
24.120082
24.120083
24.120085
24.120085
24.120085
24.120088
24.120088
24.120088
24.120089
24.12009
24.120093
24.120095
24.120096
24.120096
24.120092
24.120093
24.120093
24.120094
24.120097
24.1201
24.120103
24.120104
24.120104
24.120094
24.120095
24.120096
24.120098
24.120102
24.120105
24.120108
24.120109
24.120105
24.120096
24.120097
24.120098
24.120101
24.120105
24.120109
24.120111
24.120109
24.120102
24.120096
24.120098
24.1201
24.120103
24.120107
24.120111
24.120112
24.120108
24.120099
24.120097
24.120099
24.1201
24.120104
24.120108
24.120112
24.120113
24.120108
24.120098
24.120097
24.120099
24.120101
24.120104
24.120109
24.120113
24.120114
24.120108
24.120098
24.120098
24.120099
24.120101
24.120104
24.120108
24.120113
24.120114
24.120109
24.1201
24.120098
24.120099
24.120101
24.120104
24.120108
24.120112
24.120114
24.120112
24.120103
24.120098
24.120099
24.1201
24.120102
24.120106
24.12011
24.120112
24.120112
24.120107
24.120096
24.120097
24.120098
24.1201
24.120102
24.120106
24.120108
24.120108
24.120107
24.120094
24.120095
24.120095
24.120096
24.120098
24.1201
24.120102
24.120101
24.120099
24.12009
24.12009
24.12009
24.12009
24.120091
24.120093
24.120093
24.120092
24.12009
24.120085
24.120084
24.120084
24.120083
24.120083
24.120083
24.120083
24.120081
24.120079
24.120077
24.120076
24.120075
24.120074
24.120073
24.120072
24.12007
24.120068
24.120066
24.120067
24.120066
24.120064
24.120063
24.120061
24.120059
24.120057
24.120053
24.120052
24.120055
24.120054
24.120052
24.12005
24.120048
24.120044
24.12004
24.120036
24.120035
24.120034
24.120033
24.120031
24.120029
24.120027
24.120023
24.120018
24.120012
24.12001
22.566308
22.566308
22.566308
22.566308
22.566307
22.566306
22.566305
22.566306
22.566306
22.566313
22.566313
22.566314
22.566313
22.566312
22.566311
22.56631
22.566311
22.566312
22.566316
22.566316
22.566317
22.566317
22.566315
22.566314
22.566313
22.566313
22.566314
22.566319
22.56632
22.566321
22.56632
22.566319
22.566318
22.566316
22.566316
22.566317
22.566323
22.566323
22.566324
22.566324
22.566323
22.566322
22.56632
22.56632
22.566321
22.566326
22.566327
22.566328
22.566328
22.566327
22.566326
22.566324
22.566323
22.566324
22.566328
22.56633
22.566331
22.566331
22.566331
22.566329
22.566328
22.566327
22.566328
22.566331
22.566332
22.566334
22.566334
22.566334
22.566333
22.566331
22.56633
22.566331
22.566333
22.566335
22.566336
22.566337
22.566337
22.566336
22.566334
22.566333
22.566334
22.566335
22.566337
22.566338
22.566339
22.566339
22.566338
22.566337
22.566336
22.566336
22.566337
22.566338
22.56634
22.566341
22.566341
22.56634
22.566339
22.566338
22.566338
22.566338
22.566339
22.566341
22.566342
22.566342
22.566342
22.56634
22.566339
22.566339
22.566338
22.56634
22.566341
22.566343
22.566343
22.566342
22.566341
22.566339
22.566339
22.566338
22.566339
22.566341
22.566342
22.566343
22.566342
22.56634
22.566339
22.566339
22.566337
22.566339
22.566341
22.566342
22.566342
22.566341
22.566339
22.566338
22.566337
22.566336
22.566338
22.56634
22.566341
22.566341
22.56634
22.566338
22.566336
22.566335
22.566335
22.566337
22.566338
22.566339
22.566339
22.566338
22.566336
22.566334
22.566333
22.566334
22.566335
22.566337
22.566338
22.566337
22.566336
22.566334
22.566332
22.566331
22.566333
22.566334
22.566336
22.566336
22.566336
22.566334
22.566332
22.56633
22.566329
22.566332
22.566333
22.566334
22.566335
22.566334
22.566332
22.56633
22.566328
22.566327
22.566331
22.566332
22.566333
22.566333
22.566332
22.56633
22.566328
22.566326
22.566325
22.566331
22.566331
22.566332
22.566332
22.566331
22.566329
22.566327
22.566326
22.566325
22.56633
22.56633
22.566331
22.56633
22.566329
22.566328
22.566326
22.566325
22.566325
22.566327
22.566327
22.566327
22.566327
22.566326
22.566325
22.566324
22.566323
22.566322
21.008091
21.008091
21.00809
21.00809
21.00809
21.00809
21.00809
21.008089
21.008089
21.008098
21.008097
21.008096
21.008096
21.008096
21.008096
21.008096
21.008096
21.008096
21.008102
21.008102
21.008101
21.008101
21.008101
21.008101
21.008101
21.008101
21.008102
21.008107
21.008107
21.008106
21.008106
21.008106
21.008107
21.008107
21.008107
21.008106
21.008112
21.008111
21.008111
21.008111
21.008111
21.008112
21.008113
21.008112
21.008111
21.008116
21.008115
21.008115
21.008115
21.008116
21.008117
21.008118
21.008117
21.008116
21.008119
21.008119
21.008119
21.008119
21.00812
21.008122
21.008123
21.008122
21.00812
21.008122
21.008122
21.008122
21.008123
21.008124
21.008126
21.008127
21.008126
21.008124
21.008125
21.008124
21.008124
21.008125
21.008127
21.008129
21.00813
21.00813
21.008127
21.008126
21.008126
21.008126
21.008128
21.00813
21.008132
21.008133
21.008132
21.008129
21.008127
21.008128
21.008128
21.008129
21.008131
21.008134
21.008135
21.008134
21.008131
21.008128
21.008128
21.008129
21.00813
21.008132
21.008135
21.008136
21.008135
21.008132
21.008129
21.008129
21.008129
21.008131
21.008133
21.008135
21.008137
21.008135
21.008132
21.008128
21.008129
21.008129
21.00813
21.008133
21.008135
21.008136
21.008135
21.008131
21.008128
21.008128
21.008128
21.00813
21.008132
21.008134
21.008135
21.008134
21.00813
21.008127
21.008127
21.008127
21.008129
21.008131
21.008133
21.008133
21.008132
21.008128
21.008126
21.008126
21.008126
21.008127
21.008129
21.00813
21.008131
21.00813
21.008126
21.008124
21.008124
21.008124
21.008125
21.008126
21.008128
21.008128
21.008127
21.008123
21.008122
21.008122
21.008122
21.008123
21.008124
21.008125
21.008125
21.008123
21.00812
21.00812
21.00812
21.00812
21.00812
21.008121
21.008122
21.008121
21.00812
21.008117
21.008118
21.008118
21.008117
21.008118
21.008118
21.008118
21.008118
21.008116
21.008114
21.008116
21.008115
21.008115
21.008115
21.008115
21.008115
21.008114
21.008112
21.008111
21.008113
21.008113
21.008112
21.008112
21.008112
21.008112
21.008111
21.008109
21.008108
21.008109
21.008108
21.008108
21.008107
21.008107
21.008107
21.008107
21.008105
21.008103
19.452739
19.452739
19.452739
19.452739
19.452739
19.452739
19.452739
19.45274
19.452741
19.45274
19.45274
19.45274
19.45274
19.45274
19.452739
19.45274
19.452741
19.452742
19.45274
19.452741
19.452741
19.452741
19.45274
19.45274
19.45274
19.452741
19.452742
19.452741
19.452741
19.452742
19.452741
19.452741
19.45274
19.45274
19.452741
19.452743
19.452742
19.452742
19.452742
19.452742
19.452742
19.452741
19.452741
19.452741
19.452743
19.452742
19.452742
19.452743
19.452743
19.452742
19.452742
19.452741
19.452742
19.452743
19.452742
19.452743
19.452743
19.452743
19.452743
19.452742
19.452742
19.452742
19.452744
19.452743
19.452743
19.452744
19.452744
19.452743
19.452743
19.452742
19.452743
19.452744
19.452743
19.452744
19.452744
19.452744
19.452744
19.452743
19.452743
19.452743
19.452745
19.452743
19.452744
19.452744
19.452744
19.452744
19.452744
19.452743
19.452744
19.452745
19.452744
19.452744
19.452745
19.452745
19.452745
19.452744
19.452744
19.452744
19.452745
19.452744
19.452744
19.452745
19.452745
19.452745
19.452745
19.452744
19.452745
19.452746
19.452744
19.452745
19.452745
19.452746
19.452745
19.452745
19.452745
19.452745
19.452746
19.452744
19.452745
19.452746
19.452746
19.452746
19.452745
19.452745
19.452745
19.452746
19.452745
19.452745
19.452746
19.452746
19.452746
19.452746
19.452745
19.452745
19.452746
19.452745
19.452746
19.452746
19.452747
19.452746
19.452746
19.452746
19.452745
19.452746
19.452746
19.452746
19.452747
19.452747
19.452747
19.452747
19.452746
19.452746
19.452746
19.452746
19.452747
19.452748
19.452748
19.452748
19.452747
19.452747
19.452746
19.452746
19.452747
19.452748
19.452749
19.452749
19.452749
19.452748
19.452747
19.452747
19.452747
19.452749
19.452749
19.45275
19.45275
19.45275
19.452749
19.452748
19.452747
19.452747
19.45275
19.45275
19.452751
19.452751
19.452751
19.45275
19.452749
19.452748
19.452748
19.452751
19.452752
19.452752
19.452752
19.452752
19.452751
19.45275
19.45275
19.45275
19.452753
19.452753
19.452753
19.452753
19.452753
19.452752
19.452752
19.452752
19.452752
19.452753
19.452753
19.452753
19.452753
19.452753
19.452753
19.452753
19.452753
19.452752
17.895738
17.895737
17.895737
17.895737
17.895737
17.895737
17.895737
17.895737
17.895737
17.89574
17.895739
17.895739
17.895739
17.895739
17.895739
17.895739
17.895739
17.895739
17.895742
17.895741
17.895741
17.895741
17.895741
17.895742
17.895742
17.895742
17.895742
17.895744
17.895744
17.895743
17.895743
17.895743
17.895744
17.895744
17.895744
17.895744
17.895746
17.895746
17.895745
17.895745
17.895746
17.895746
17.895746
17.895746
17.895746
17.895748
17.895747
17.895747
17.895747
17.895748
17.895748
17.895748
17.895748
17.895748
17.895749
17.895749
17.895749
17.895749
17.895749
17.89575
17.89575
17.89575
17.895749
17.895751
17.89575
17.89575
17.895751
17.895751
17.895752
17.895752
17.895751
17.895751
17.895752
17.895752
17.895752
17.895752
17.895752
17.895753
17.895753
17.895753
17.895752
17.895753
17.895752
17.895752
17.895753
17.895753
17.895754
17.895754
17.895754
17.895753
17.895753
17.895753
17.895753
17.895753
17.895754
17.895755
17.895755
17.895755
17.895753
17.895754
17.895754
17.895754
17.895754
17.895755
17.895755
17.895756
17.895755
17.895754
17.895754
17.895754
17.895754
17.895754
17.895755
17.895756
17.895756
17.895755
17.895754
17.895754
17.895754
17.895754
17.895754
17.895755
17.895756
17.895756
17.895755
17.895754
17.895754
17.895754
17.895754
17.895754
17.895755
17.895756
17.895756
17.895755
17.895753
17.895753
17.895753
17.895753
17.895754
17.895755
17.895755
17.895755
17.895754
17.895753
17.895753
17.895753
17.895753
17.895753
17.895754
17.895754
17.895755
17.895754
17.895752
17.895752
17.895752
17.895752
17.895753
17.895753
17.895754
17.895754
17.895753
17.895751
17.895752
17.895752
17.895752
17.895752
17.895752
17.895753
17.895753
17.895752
17.89575
17.895751
17.895751
17.895751
17.895751
17.895752
17.895752
17.895752
17.895751
17.895749
17.89575
17.89575
17.89575
17.89575
17.895751
17.895751
17.89575
17.89575
17.895748
17.89575
17.89575
17.895749
17.895749
17.89575
17.89575
17.895749
17.895749
17.895748
17.895749
17.895749
17.895749
17.895749
17.895749
17.895749
17.895748
17.895748
17.895747
17.895748
17.895748
17.895748
17.895748
17.895748
17.895748
17.895747
17.895746
17.895745
16.339632
16.339632
16.339632
16.339632
16.339632
16.339632
16.339632
16.339633
16.339633
16.339633
16.339633
16.339633
16.339633
16.339633
16.339633
16.339633
16.339633
16.339633
16.339633
16.339633
16.339633
16.339633
16.339633
16.339633
16.339633
16.339633
16.339634
16.339634
16.339634
16.339634
16.339634
16.339634
16.339633
16.339633
16.339634
16.339634
16.339634
16.339634
16.339634
16.339634
16.339634
16.339634
16.339634
16.339634
16.339634
16.339634
16.339634
16.339634
16.339634
16.339634
16.339634
16.339634
16.339634
16.339635
16.339634
16.339635
16.339635
16.339635
16.339634
16.339634
16.339634
16.339635
16.339635
16.339635
16.339635
16.339635
16.339635
16.339635
16.339635
16.339635
16.339635
16.339635
16.339635
16.339635
16.339635
16.339635
16.339635
16.339635
16.339635
16.339635
16.339636
16.339635
16.339635
16.339635
16.339635
16.339635
16.339635
16.339635
16.339635
16.339636
16.339635
16.339635
16.339635
16.339635
16.339635
16.339635
16.339635
16.339636
16.339636
16.339635
16.339635
16.339636
16.339636
16.339636
16.339635
16.339636
16.339636
16.339636
16.339636
16.339636
16.339636
16.339636
16.339636
16.339636
16.339636
16.339636
16.339636
16.339636
16.339636
16.339636
16.339636
16.339636
16.339636
16.339636
16.339636
16.339637
16.339636
16.339636
16.339636
16.339636