/*--------------------------------*- C++ -*----------------------------------*\
| =========                 |                                                 |
| \\      /  F ield         | OpenFOAM: The Open Source CFD Toolbox           |
|  \\    /   O peration     | Version:  2406                                  |
|   \\  /    A nd           | Website:  www.openfoam.com                      |
|    \\/     M anipulation  |                                                 |
\*---------------------------------------------------------------------------*/
FoamFile
{
    version     2.0;
    format      ascii;
    arch        "LSB;label=32;scalar=64";
    class       surfaceScalarField;
    location    "10";
    object      phi;
}
// * * * * * * * * * * * * * * * * * * * * * * * * * * * * * * * * * * * * * //

dimensions      [0 3 -1 0 0 0 0];

oriented        oriented;

internalField   nonuniform List<scalar> 
101088
(
-5.5029449e-05
3.9946459e-06
5.1031209e-06
-2.2514696e-06
-0.00014876541
2.5883946e-05
1.7402607e-05
-1.6977597e-05
-0.00029547146
8.5928521e-05
2.9789528e-05
-6.0719659e-05
-0.00049698698
0.00021290772
2.742085e-05
-0.00015863186
-0.00072147578
0.00041084289
-1.2881123e-05
-0.00032167221
-0.00090398761
0.00062518008
-9.9461896e-05
-0.00051393019
-0.00099405162
0.00078072535
-0.00020293537
-0.0006681467
-0.00099902579
0.0008449619
-0.00027322718
-0.00073993088
0.00081946029
-0.00028119885
-0.00073202124
-0.00095602943
-6.652076e-05
4.8511582e-06
6.55775e-06
-0.0001775072
3.2400063e-05
2.1866108e-05
-0.00034743337
0.00010768876
3.5961206e-05
-0.00057264194
0.00026267251
2.8963252e-05
-0.00080711825
0.00049143813
-2.738699e-05
-0.00097457822
0.00072188199
-0.00013869622
-0.0010306539
0.00087895575
-0.00026507424
-0.00099755971
0.00094306879
-0.00034783492
0.00091966659
-0.00035804598
-0.00093185496
-7.8588204e-05
4.9792894e-06
8.3292896e-06
-0.00020724115
3.5632143e-05
2.7573467e-05
-0.00039869507
0.00012187489
4.4616941e-05
-0.00064262007
0.00029922398
3.454539e-05
-0.00088137211
0.00055280203
-3.6159884e-05
-0.0010324018
0.00079529307
-0.00016907303
-0.0010597423
0.00095718281
-0.0003139398
-0.00099856221
0.0010309542
-0.00040596324
0.0010205301
-0.00041763556
-0.00091153942
-9.0587306e-05
4.3601294e-06
1.0314955e-05
-0.00023706683
3.5125796e-05
3.4320148e-05
-0.00044881726
0.00012617288
5.5040576e-05
-0.0007081351
0.00031646428
4.3988757e-05
-0.00094614571
0.00058515845
-3.8511874e-05
-0.0010811393
0.00083819593
-0.00018944496
-0.0010874003
0.0010124803
-0.00034904789
-0.0010082633
0.0011065396
-0.00044806215
0.0011155378
-0.00046077364
-0.00090570549
-0.00010159582
2.324453e-06
1.253146e-05
-0.00026370696
2.8320218e-05
4.224062e-05
-0.0004925634
0.00011534213
6.8681307e-05
-0.00076376659
0.00030754011
5.8427013e-05
-0.0010016134
0.00058339654
-3.2926919e-05
-0.001127477
0.00084913683
-0.00019851684
-0.0011237027
0.0010455508
-0.00037023153
-0.00103679
0.0011687787
-0.0004748875
0.0011999848
-0.00048797512
-0.00092574389
-0.00011208631
-1.1804876e-06
1.5027957e-05
-0.00028983923
1.4931627e-05
5.1516214e-05
-0.00053699266
8.8478223e-05
8.5897523e-05
-0.00082302619
0.00027114401
7.9127339e-05
-0.0010681113
0.00054827702
-1.8071114e-05
-0.0011944313
0.00082898988
-0.00019562201
-0.0011903367
0.0010551523
-0.00037665338
-0.0011017396
0.0012111107
-0.00048493162
0.0012635307
-0.00049830823
-0.00098459506
-0.00012193849
-6.062243e-06
1.784759e-05
-0.00031586359
-4.7035969e-06
6.2456086e-05
-0.00058548788
4.6195482e-05
0.000108671
-0.00089252407
0.00020825432
0.00010763373
-0.001155134
0.00048048643
9.6529683e-06
-0.0012949564
0.00077808325
-0.00017614888
-0.0013010695
0.0010369532
-0.00036395574
-0.0012165337
0.0012236875
-0.00047500864
0.0012930609
-0.0004894137
-0.001095233
-0.00013173323
-1.161345e-05
2.1090722e-05
-0.00034519663
-2.7836934e-05
7.5652633e-05
-0.00064710754
-5.110686e-06
0.0001370578
-0.00099123782
0.00012735801
0.0001465683
-0.001290871
0.00038644871
5.3895309e-05
-0.0014603523
0.00069559169
-0.00013573771
-0.0014852514
0.00098002249
-0.00032750845
-0.0014055743
0.0011870441
-0.00044060162
0.0012652629
-0.00045736982
-0.0012760431
-0.00014237313
-1.6114505e-05
2.4762393e-05
-0.00038242624
-4.7920904e-05
9.1142803e-05
-0.00073376232
-5.1725961e-05
0.00017124257
-0.0011443218
4.5554327e-05
0.00020075037
-0.0015067581
0.00027764515
0.00011604741
-0.0017228568
0.00057822395
-7.1024223e-05
-0.0017706946
0.0008642512
-0.00026256861
-0.0016901745
0.0010699266
-0.00037654612
0.0011450545
-0.00039773265
-0.001541235
-0.00015461088
-1.6766111e-05
2.8627322e-05
-0.00043185038
-5.3706836e-05
0.00010788627
-0.00085504347
-7.2473503e-05
0.00020919465
-0.0013651633
-1.1676385e-05
0.00026574128
-0.0018148784
0.00017052959
0.00018996751
-0.0020904158
0.00042117881
1.5449932e-05
-0.0021592052
0.00066439722
-0.0001701414
-0.0020668002
0.00083601717
-0.00028321085
0.0008941954
-0.00031106445
-0.0018837207
-0.00016756167
-1.0933282e-05
3.2057139e-05
-0.0004875809
-3.5901895e-05
0.00012295456
-0.00099230381
-5.2058427e-05
0.00024417957
-0.0016140998
-2.3311581e-05
0.00032513756
-0.0021620638
7.8629856e-05
0.00026521918
-0.002497613
0.00022375127
0.00010744651
-0.0025807875
0.00036736702
-6.6916829e-05
-0.002466785
0.00046691387
-0.00017722478
0.00049785357
-0.00021323444
-0.0022424861
-0.00017628672
-2.0358184e-10
3.4148344e-05
-0.00052580661
-8.8537954e-10
0.00013227894
-0.0010868967
-2.2965217e-09
0.00026619049
-0.0017851337
-4.1005891e-09
0.00036326534
-0.0024038317
-5.6638988e-09
0.00031876971
-0.0027801308
-6.0251604e-09
0.00017030336
-0.0028701851
-5.5643551e-09
6.121563e-06
-0.0027374452
-5.0012202e-09
-0.00010195609
-4.7269463e-09
-0.00014396239
-0.0024841125
-0.00017628656
1.0932874e-05
3.4148331e-05
-0.00052580668
3.5900061e-05
0.00013227889
-0.0010868965
5.2053871e-05
0.00026619037
-0.0017851335
2.330387e-05
0.00036326514
-0.0024038314
-7.8640506e-05
0.00031876943
-0.0027801306
-0.00022376284
0.00017030312
-0.0028701854
-0.00036737797
6.1213688e-06
-0.0027374459
-0.00046692371
-0.00010195623
-0.00049786268
-0.00014396251
-0.0024841136
-0.0001675616
1.6765799e-05
3.2057123e-05
-0.00048758117
5.3705186e-05
0.00012295448
-0.00099230313
7.2469392e-05
0.00024417937
-0.0016141002
1.1669841e-05
0.00032513715
-0.002162064
-0.00017053898
0.00026521863
-0.0024976135
-0.00042118932
0.00010744594
-0.0025807889
-0.00066440772
-6.6917291e-05
-0.0024667872
-0.00083602675
-0.00017722512
-0.00089420389
-0.00021323475
-0.0022424887
-0.00015461153
1.6114207e-05
2.8627294e-05
-0.00043185111
4.791928e-05
0.00010788615
-0.00085504287
5.1722295e-05
0.00020919435
-0.0013651645
-4.5560445e-05
0.00026574068
-0.0018148791
-0.00027765348
0.00018996685
-0.0020904171
-0.00057823257
1.5449225e-05
-0.0021592072
-0.0008642602
-0.00017014195
-0.002066803
-0.0010699354
-0.00028321125
-0.0011450625
-0.00031106486
-0.0018837231
-0.00014237441
1.1613029e-05
2.4762366e-05
-0.00038242786
2.7835271e-05
9.1142688e-05
-0.0007337628
5.1072776e-06
0.00017124229
-0.0011443238
-0.00012736368
0.00020074979
-0.0015067593
-0.00038645526
0.00011604675
-0.0017228594
-0.00069559774
-7.102489e-05
-0.0017706973
-0.00098002942
-0.00026256915
-0.0016901778
-0.0011870522
-0.0003765465
-0.0012652716
-0.00039773305
-0.0015412364
-0.00013173401
6.0619662e-06
2.1090702e-05
-0.0003451975
4.7027368e-06
7.5652547e-05
-0.00064710824
-4.619765e-05
0.00013705759
-0.00099123943
-0.00020825842
0.00014656787
-0.0012908729
-0.00048049113
5.3894735e-05
-0.0014603563
-0.00077808776
-0.00013573829
-0.001485255
-0.0010369588
-0.00032750893
-0.0014055785
-0.001223695
-0.00044060194
-0.0012930711
-0.00045737014
-0.0012760451
-0.0001219383
1.1802614e-06
1.7847576e-05
-0.00031586379
-1.4932298e-05
6.2456019e-05
-0.00058548929
-8.8480095e-05
0.00010867082
-0.00089252656
-0.00027114749
0.0001076334
-0.0011551371
-0.0005482818
9.6524857e-06
-0.0012949609
-0.00082899414
-0.00017614935
-0.0013010735
-0.0010551571
-0.00036395615
-0.001216539
-0.0012111175
-0.00047500891
-0.0012635407
-0.00048941396
-0.0010952371
-0.00011208641
-2.324497e-06
1.5027949e-05
-0.00028983975
-2.8320516e-05
5.151617e-05
-0.00053699366
-0.00011534318
8.5897401e-05
-0.0008230293
-0.00030754285
7.9127071e-05
-0.001068114
-0.00058340028
-1.8071521e-05
-0.0011944349
-0.00084913959
-0.00019562243
-0.0011903405
-0.0010455544
-0.00037665375
-0.0011017447
-0.0011687847
-0.00048493188
-0.0011999932
-0.00049830847
-0.00098460001
-0.00010159552
-4.3602462e-06
1.2531447e-05
-0.00026370628
-3.5126045e-05
4.2240565e-05
-0.00049256295
-0.00012617316
6.8681178e-05
-0.00076376758
-0.00031646531
5.8426771e-05
-0.0010016136
-0.00058515956
-3.2927272e-05
-0.0011274787
-0.00083819786
-0.00019851719
-0.0011237051
-0.0010124824
-0.00037023184
-0.0010367926
-0.001106545
-0.00047488773
-0.0011155451
-0.00048797531
-0.00092574673
-9.0587211e-05
-4.9793173e-06
1.0314942e-05
-0.00023706677
-3.5632241e-05
3.4320093e-05
-0.00044881705
-0.00012187519
5.5040463e-05
-0.00070813484
-0.0002992252
4.3988539e-05
-0.00094614625
-0.00055280414
-3.8512172e-05
-0.0010811389
-0.00079529463
-0.00018944527
-0.0010874012
-0.00095718481
-0.00034904816
-0.0010082646
-0.0010309583
-0.00044806242
-0.0010205361
-0.00046077386
-0.00090570888
-7.8588378e-05
-4.8512161e-06
8.3292761e-06
-0.00020724169
-3.2400235e-05
2.7573414e-05
-0.00039869531
-0.00010768914
4.4616829e-05
-0.00064261923
-0.0002626733
3.4545194e-05
-0.00088137094
-0.00049143925
-3.6160163e-05
-0.0010324008
-0.00072188194
-0.00016907334
-0.0010597422
-0.00087895576
-0.00031394011
-0.00099856318
-0.00094307089
-0.00040596347
-0.00091967245
-0.00041763576
-0.00091154285
-6.6520895e-05
-3.9946924e-06
6.5577395e-06
-0.00017750757
-2.5884051e-05
2.1866067e-05
-0.00034743343
-8.5928644e-05
3.5961115e-05
-0.00057264099
-0.00021290772
2.8963087e-05
-0.00080711672
-0.00041084288
-2.7387244e-05
-0.00097457705
-0.00062518028
-0.00013869652
-0.0010306512
-0.00078072485
-0.00026507454
-0.00099755728
-0.00084496525
-0.00034783523
-0.00081946617
-0.0003580462
-0.00093185625
-5.5029448e-05
5.1031135e-06
-2.2514879e-06
-0.00014876523
1.7402577e-05
-1.6977649e-05
-0.0002954708
2.9789456e-05
-6.0719756e-05
-0.00049698656
2.7420715e-05
-0.00015863198
-0.00072147601
-1.2881329e-05
-0.00032167192
-0.00090398714
-9.946216e-05
-0.00051392832
-0.00099405163
-0.00020293564
-0.00066814455
-0.00099902509
-0.0002732274
-0.00073993236
-0.00028119907
-0.00073202266
-0.00095602911
1.2093176e-06
2.2526103e-07
4.8838621e-06
-1.2153133e-06
4.8859375e-06
-2.7081623e-07
1.8351344e-05
-4.354452e-06
1.2158257e-05
-4.7453254e-06
3.4735844e-05
-7.4730739e-06
2.3972693e-05
-2.1317139e-05
4.1776236e-05
-4.8523894e-06
3.9632272e-05
-6.2913907e-05
1.9633123e-05
1.4740224e-05
5.8889834e-05
-0.00013651591
-4.3449915e-05
6.1246392e-05
8.3709332e-05
-0.00022712096
-0.0001289638
0.00012833036
0.00011380445
-0.00030232186
-0.00019394585
0.00019294499
-0.00033960868
-0.00020833191
0.00023563893
0.00014490676
1.9635707e-06
-1.1757115e-06
5.9951746e-06
8.3283688e-06
-6.9259193e-06
2.2156419e-05
2.102675e-05
-2.2177142e-05
4.0694441e-05
4.0401752e-05
-5.7346168e-05
4.5616287e-05
6.241899e-05
-0.00012513855
1.2818824e-05
8.365269e-05
-0.00022668989
-6.9756065e-05
0.00010538363
-0.00033732854
-0.00017659747
0.00013019615
-0.00041959994
-0.00025536971
-0.00045225612
-0.00027306561
0.00015786252
3.0388464e-06
-3.0952558e-06
7.2101004e-06
1.3066636e-05
-1.5804908e-05
2.6424911e-05
3.2525267e-05
-4.4804764e-05
4.7786096e-05
6.049618e-05
-0.00010241059
5.1638883e-05
8.8255995e-05
-0.00019904582
9.988263e-06
0.00010900458
-0.00032737464
-8.9136811e-05
0.00012482934
-0.00045358834
-0.00021350455
0.00014157771
-0.00053907276
-0.0003032381
-0.00056579439
-0.00032367763
0.0001611579
4.3723157e-06
-5.5384362e-06
8.3857832e-06
1.9141289e-05
-2.6829432e-05
3.0575587e-05
4.6712862e-05
-7.2124188e-05
5.4787792e-05
8.4903092e-05
-0.00015456552
5.7952495e-05
0.00011876941
-0.00028023997
8.8167331e-06
0.00013811489
-0.0004320945
-0.00010407063
0.00014680609
-0.0005690842
-0.00024224197
0.00015405423
-0.00065442685
-0.00033995604
-0.00067400959
-0.00036222837
0.00016372375
5.8244429e-06
-8.3163762e-06
9.4849377e-06
2.5911824e-05
-3.9155569e-05
3.4479494e-05
6.2910586e-05
-0.00010192433
6.1482902e-05
0.00011220982
-0.00020965912
6.4221998e-05
0.0001524949
-0.00036219599
8.7431484e-06
0.0001703106
-0.00053279366
-0.00011563214
0.00017186771
-0.00067621469
-0.00026465795
0.00016970246
-0.00075921571
-0.00036793316
-0.00077070985
-0.00039105709
0.00016948496
7.5270541e-06
-1.131152e-05
1.0496039e-05
3.3875087e-05
-5.2050775e-05
3.8063441e-05
8.2106737e-05
-0.00013203467
6.7775989e-05
0.00014422966
-0.00026292466
7.0270979e-05
0.00019183239
-0.00043724652
9.3763765e-06
0.00020821741
-0.00062005973
-0.0001247409
0.00020289838
-0.00076507752
-0.00028247213
0.00019169584
-0.00084341784
-0.00038952669
-0.00084619124
-0.00041258486
0.00018145383
9.2300282e-06
-1.4095053e-05
1.1401079e-05
4.1978338e-05
-6.359753e-05
4.1254662e-05
0.00010267641
-0.00015768513
7.3623802e-05
0.00017707416
-0.00030576049
7.6072535e-05
0.00023188426
-0.00049307559
1.0672614e-05
0.00024715485
-0.00067978071
-0.0001316975
0.00023631316
-0.00082165736
-0.00029653512
0.0002178114
-0.00089372107
-0.00040620389
-0.00088800897
-0.00042861561
0.00019883058
1.0806521e-05
-1.6052883e-05
1.2242438e-05
4.9679875e-05
-7.1107968e-05
4.4289495e-05
0.00012230548
-0.00017273783
7.9484326e-05
0.00020789441
-0.00032703274
8.2251918e-05
0.00026965831
-0.00051422088
1.3275987e-05
0.00028466189
-0.00069430412
-0.00013621768
0.00027020735
-0.00082751246
-0.00030719995
0.00024659915
-0.00089176217
-0.00041895253
-0.00087885968
-0.00044048021
0.00022056001
1.1877142e-05
-1.6212067e-05
1.3045165e-05
5.5316144e-05
-7.06836e-05
4.7279721e-05
0.00013721622
-0.00016865625
8.526037e-05
0.00023438844
-0.00031253556
8.9082011e-05
0.00030118769
-0.00048238837
1.741462e-05
0.00031656754
-0.00064268257
-0.00013802641
0.0003007644
-0.00075990213
-0.00031437672
0.00027467791
-0.00081419766
-0.00042802382
-0.00079696093
-0.00044882287
0.00024386968
1.2260668e-05
-1.3648685e-05
1.3803495e-05
5.7977949e-05
-5.8726273e-05
5.0211689e-05
0.0001453551
-0.00013804641
9.1206953e-05
0.00025314096
-0.00025130057
9.6721331e-05
0.00032130696
-0.0003835423
2.2955065e-05
0.00033820403
-0.00050670188
-0.00013742837
0.00032372265
-0.00059726438
-0.00031829794
0.00029794186
-0.00063799516
-0.00043363182
-0.00062100867
-0.00045392941
0.00026485506
1.2007111e-05
-8.0336495e-06
1.443487e-05
5.7667441e-05
-3.4149931e-05
5.2718099e-05
0.00014667454
-7.9353974e-05
9.6479776e-05
0.00025940778
-0.00014279998
0.00010390388
0.0003282484
-0.00021574045
2.8576723e-05
0.00034695051
-0.00028257782
-0.00013537949
0.00033558034
-0.00033333162
-0.00031947887
0.00031211792
-0.00035570453
-0.00043605225
-0.00034493423
-0.0004560649
0.0002788742
1.1287963e-05
4.5295517e-11
1.4826577e-05
5.5097889e-05
2.182288e-10
5.4319256e-05
0.00014196737
4.7094035e-10
9.9966832e-05
0.0002535601
9.5380812e-10
0.00010887157
0.00032380921
1.7237141e-09
3.2778778e-05
0.00034513667
2.5362007e-09
-0.00013360376
0.0003375792
2.995943e-09
-0.00031965483
0.00031689238
2.8391332e-09
-0.00043697625
2.1474309e-09
-0.0004568579
0.00028485135
1.1288043e-05
8.0337168e-06
1.4826573e-05
5.5097806e-05
3.4150256e-05
5.4319242e-05
0.00014196734
7.9354765e-05
9.9966806e-05
0.00025356005
0.00014280187
0.00010887154
0.00032380923
0.00021574386
3.2778757e-05
0.00034513668
0.00028258265
-0.00013360376
0.00033757909
0.00033333715
-0.00031965483
0.00031689221
0.00035570983
-0.00043697625
0.00034493847
-0.00045685792
0.00028485101
1.2007171e-05
1.3648749e-05
1.4434866e-05
5.7667274e-05
5.8726509e-05
5.2718083e-05
0.00014667471
0.0001380471
9.6479745e-05
0.00025940748
0.0002513025
0.00010390383
0.00032824821
0.00038354554
2.8576668e-05
0.00034695033
0.00050670619
-0.00013537955
0.00033558002
0.00059726902
-0.00031947892
0.00031211753
0.0006379997
-0.00043605231
0.00062101272
-0.00045606498
0.00027887375
1.2260334e-05
1.6212133e-05
1.3803487e-05
5.7977472e-05
7.0683792e-05
5.0211659e-05
0.00014535527
0.00016865687
9.1206896e-05
0.00025313992
0.00031253716
9.6721241e-05
0.00032130621
0.00048239101
2.2954989e-05
0.00033820343
0.0006426864
-0.00013742842
0.00032372224
0.00075990629
-0.00031829796
0.00029794154
0.0008142016
-0.00043363185
0.00079696432
-0.00045392951
0.00026485538
1.1876419e-05
1.605283e-05
1.3045156e-05
5.5315225e-05
7.1107905e-05
4.7279691e-05
0.00013721599
0.00017273808
8.5260314e-05
0.00023438701
0.00032703364
8.9081921e-05
0.00030118678
0.00051422315
1.7414541e-05
0.00031656654
0.00069430815
-0.00013802646
0.00030076394
0.00082751697
-0.00031437676
0.00027467763
0.00089176581
-0.00042802387
0.00087886169
-0.00044882297
0.00024387059
1.0806047e-05
1.4094991e-05
1.2242431e-05
4.9679382e-05
6.3597575e-05
4.4289472e-05
0.00012230532
0.00015768549
7.9484281e-05
0.0002078935
0.0003057614
8.2251843e-05
0.00026965759
0.00049307805
1.3275902e-05
0.00028466051
0.00067978503
-0.00013621775
0.0002702067
0.00082166222
-0.0003072
0.00024659854
0.00089372436
-0.00041895258
0.00088800944
-0.00044048026
0.00022056047
9.2300059e-06
1.1311471e-05
1.1401073e-05
4.197813e-05
5.2050844e-05
4.1254643e-05
0.00010267604
0.00013203489
7.3623762e-05
0.00017707334
0.0002629254
7.6072463e-05
0.00023188333
0.00043724857
1.0672513e-05
0.00024715324
0.00062006371
-0.00013169761
0.00023631215
0.00076508223
-0.0002965352
0.00021781015
0.00084342092
-0.00040620394
0.00084619134
-0.00042861563
0.00019883
7.5270546e-06
8.316388e-06
1.0496037e-05
3.3875028e-05
3.9155764e-05
3.8063433e-05
8.2106888e-05
0.00010192477
6.7775963e-05
0.00014422884
0.00020965987
7.027091e-05
0.00019183171
0.00036219795
9.3762607e-06
0.00020821616
0.00053279768
-0.00012474105
0.00020289727
0.00067621932
-0.00028247226
0.00019169463
0.00075921875
-0.00038952676
0.00077071048
-0.00041258489
0.00018145333
5.8245826e-06
5.5384151e-06
9.4849326e-06
2.5912119e-05
2.6829535e-05
3.4479471e-05
6.2910895e-05
7.2124604e-05
6.148285e-05
0.00011220951
0.00015456634
6.4221908e-05
0.00015249496
0.0002802423
8.7430142e-06
0.00017030968
0.00043209824
-0.0001156323
0.00017186683
0.00056908884
-0.00026465808
0.00016970229
0.00065442979
-0.00036793323
0.00067401007
-0.00039105712
0.00016948578
4.3723454e-06
3.0952607e-06
8.3857757e-06
1.9141256e-05
1.5805072e-05
3.0575556e-05
4.6712992e-05
4.4805311e-05
5.4787725e-05
8.4903574e-05
0.0001024116
5.7952384e-05
0.00011876923
0.00019904775
8.8165681e-06
0.0001381148
0.0003273783
-0.00010407081
0.00014680584
0.00045359237
-0.00024224212
0.00015405445
0.00053907572
-0.00033995614
0.00056579442
-0.00036222844
0.00016372448
3.0387147e-06
1.1757073e-06
7.2100913e-06
1.3066186e-05
6.9260185e-06
2.6424874e-05
3.2524794e-05
2.2177478e-05
4.7786016e-05
6.0496254e-05
5.7346918e-05
5.1638757e-05
8.8255929e-05
0.00012514024
9.9880904e-06
0.00010900434
0.00022669366
-8.9137006e-05
0.00012482899
0.0003373329
-0.00021350473
0.00014157693
0.00041960284
-0.00030323822
0.00045225521
-0.00032367773
0.000161158
1.963435e-06
-2.252392e-07
5.9951678e-06
8.3279067e-06
2.7099267e-07
2.2156391e-05
2.1026188e-05
4.7458667e-06
4.0694379e-05
4.0401613e-05
2.1318441e-05
4.5616182e-05
6.2419081e-05
6.2916472e-05
1.2818669e-05
8.3652365e-05
0.0001365199
-6.9756265e-05
0.00010538406
0.00022712534
-0.00017659768
0.0001301968
0.0003023236
-0.00025536991
0.00033960709
-0.00027306572
0.00015786248
1.2092895e-06
4.8838577e-06
-1.215294e-06
4.885876e-06
1.8351325e-05
-4.3543208e-06
1.2158312e-05
3.47358e-05
-7.4726828e-06
2.3972534e-05
4.1776157e-05
-4.8514624e-06
3.9632097e-05
1.9633008e-05
1.4742315e-05
5.8890909e-05
-4.3450052e-05
6.1250651e-05
8.371031e-05
-0.00012896396
0.0001283348
0.00011380604
-0.00019394599
0.00019294717
-0.000208332
0.00023563934
0.00014490765
8.1065607e-08
-9.3481536e-07
4.833536e-06
9.0407763e-07
8.7971566e-07
-3.8205517e-06
1.7621189e-05
3.7520703e-06
2.4189489e-06
-8.5736763e-06
3.3187854e-05
8.5824532e-06
3.4953062e-06
-1.4811804e-05
4.0222566e-05
1.528908e-05
2.4168867e-06
-2.077435e-05
1.8892086e-05
2.2593637e-05
-1.1016571e-06
-2.3683776e-05
-4.4277606e-05
2.8029824e-05
-4.9259598e-06
-2.1996269e-05
-0.00013247657
2.9333368e-05
-6.1320708e-06
-1.7579418e-05
-0.00020208289
2.6922397e-05
-1.4742239e-05
-0.00021967733
2.2717181e-05
-2.7618053e-06
8.8501232e-08
-1.0046814e-06
5.9765431e-06
1.0619506e-06
-4.0157136e-06
2.137812e-05
2.7995851e-06
-8.7518787e-06
3.9134902e-05
3.6013776e-06
-1.4458892e-05
4.4461192e-05
1.4183526e-06
-1.8879768e-05
1.3106711e-05
-3.8041659e-06
-1.907837e-05
-6.9139053e-05
-9.3329605e-06
-1.4350743e-05
-0.00017871427
-1.1665418e-05
-7.977714e-06
-0.00026263927
-4.8998856e-06
-0.00028483301
-9.740845e-06
1.0272672e-07
-1.1113624e-06
7.2140708e-06
1.3346987e-06
-4.3655087e-06
2.5542729e-05
3.5793882e-06
-9.2824453e-06
4.6071819e-05
4.7126585e-06
-1.4658677e-05
5.0705075e-05
2.2919786e-06
-1.756007e-05
1.1089165e-05
-3.8276646e-06
-1.4858918e-05
-8.7236811e-05
-1.0655491e-05
-6.868472e-06
-0.00021415903
-1.4487184e-05
1.8243148e-06
-0.00030920838
6.0532339e-06
-0.00033499051
-1.4127562e-05
1.221602e-07
-1.2454033e-06
8.3976508e-06
1.6310373e-06
-4.85081e-06
2.9551937e-05
4.550138e-06
-1.0157286e-05
5.2743203e-05
6.3357099e-06
-1.5470981e-05
5.6978744e-05
4.2117228e-06
-1.7019883e-05
1.0400575e-05
-2.2297872e-06
-1.1378134e-05
-0.00010111008
-1.0021718e-05
4.5325505e-08
-0.00024136358
-1.5248713e-05
1.1300381e-05
-0.00034420518
1.6903084e-05
-0.00037228104
-1.6046053e-05
1.4692215e-07
-1.3926897e-06
9.4852821e-06
1.9611649e-06
-5.4279844e-06
3.32424e-05
5.7048614e-06
-1.1305685e-05
5.8887526e-05
8.3949277e-06
-1.6842697e-05
6.2903637e-05
6.9514326e-06
-1.7333338e-05
1.0499704e-05
5.760553e-07
-8.9681083e-06
-0.00011166652
-7.9497607e-06
5.7702037e-06
-0.00026185696
-1.444154e-05
1.9507885e-05
-0.0003696489
2.6428556e-05
-0.0003987304
-1.6293618e-05
1.9404301e-07
-1.5473086e-06
1.0456592e-05
2.3611242e-06
-6.0558255e-06
3.6524101e-05
7.1037811e-06
-1.2614226e-05
6.4341689e-05
1.0915414e-05
-1.8586422e-05
6.8203271e-05
1.0410226e-05
-1.8376208e-05
1.0924222e-05
4.2811448e-06
-7.7992953e-06
-0.00011978072
-4.9235871e-06
9.6817393e-06
-0.0002771791
-1.2678143e-05
2.5403754e-05
-0.00038766798
3.3328143e-05
-0.00041657816
-1.5584384e-05
2.5255445e-07
-1.6734457e-06
1.1274672e-05
2.7631665e-06
-6.590714e-06
3.9278965e-05
8.644763e-06
-1.3778263e-05
6.8906289e-05
1.3747083e-05
-2.0265437e-05
7.2649355e-05
1.4372182e-05
-1.9774804e-05
1.1446293e-05
8.5731168e-06
-7.853495e-06
-0.00012584396
-1.334483e-06
1.1266435e-05
-0.00028821249
-1.0429729e-05
2.8064699e-05
-0.00039976971
3.6474293e-05
-0.00042772741
-1.4464162e-05
3.2313172e-07
-1.7189456e-06
1.1964882e-05
3.2139491e-06
-6.8126289e-06
4.1620556e-05
1.0390078e-05
-1.4301515e-05
7.2831373e-05
1.6878938e-05
-2.1136295e-05
7.6634002e-05
1.8683006e-05
-2.0746474e-05
1.2443464e-05
1.3122942e-05
-8.6749283e-06
-0.00012983602
2.395465e-06
1.0432924e-05
-0.00029563928
-8.1208445e-06
2.7002359e-05
-0.00040737399
3.5248538e-05
-0.00043404717
-1.3328161e-05
4.146989e-07
-1.6268902e-06
1.2538603e-05
3.7670269e-06
-6.4825744e-06
4.3597459e-05
1.2188743e-05
-1.3683506e-05
7.6220652e-05
2.0194024e-05
-2.0364715e-05
8.0305586e-05
2.3103766e-05
-2.0250758e-05
1.4009022e-05
1.7665461e-05
-9.3396045e-06
-0.0001319235
5.960695e-06
7.8509748e-06
-0.00030009024
-5.972821e-06
2.2536694e-05
-0.00041162456
2.9811884e-05
-0.0004370353
-1.2323645e-05
5.0692848e-07
-1.3200141e-06
1.2989799e-05
4.3371418e-06
-5.2778626e-06
4.5176847e-05
1.406212e-05
-1.1188893e-05
7.898735e-05
2.3705169e-05
-1.6765317e-05
8.3479425e-05
2.747782e-05
-1.68847e-05
1.5816474e-05
2.1838357e-05
-8.4994177e-06
-0.00013262907
9.0898549e-06
4.6459222e-06
-0.00030234435
-4.132619e-06
1.5692151e-05
-0.00041356456
2.1181e-05
-0.00043792974
-1.150125e-05
5.8428556e-07
-7.5785843e-07
1.3288458e-05
4.8345482e-06
-3.0305696e-06
4.6220711e-05
1.5738983e-05
-6.4358879e-06
8.0822472e-05
2.6932574e-05
-9.6803014e-06
8.5625688e-05
3.1270061e-05
-9.8209994e-06
1.7175812e-05
2.5252659e-05
-5.1423804e-06
-0.00013271884
1.1585518e-05
2.0478855e-06
-0.00030321338
-2.7086966e-06
7.9908041e-06
-0.00041405641
1.0941831e-05
-0.00043766728
-1.0867066e-05
6.1466934e-07
-1.9687437e-11
1.3454093e-05
5.0822518e-06
-4.6281611e-11
4.6821397e-05
1.6692598e-05
-7.7324567e-11
8.1920988e-05
2.8877337e-05
-3.5313352e-11
8.7006928e-05
3.3600532e-05
1.4697632e-10
1.8234844e-05
2.7252221e-05
4.2368457e-10
-0.00013239773
1.2986524e-05
5.9209364e-10
-0.0003033414
-1.9416186e-06
4.7103431e-10
-0.00041405756
1.2975185e-10
-0.00043733303
-1.052482e-05
6.1468528e-07
7.5781177e-07
1.345409e-05
5.0822342e-06
3.0304507e-06
4.6821389e-05
1.6692609e-05
6.4357031e-06
8.1920973e-05
2.887733e-05
9.6802612e-06
8.7006911e-05
3.3600552e-05
9.8213655e-06
1.8234833e-05
2.7252216e-05
5.1432891e-06
-0.00013239773
1.2986414e-05
-2.0466823e-06
-0.00030334139
-1.941797e-06
-7.9898768e-06
-0.00041405755
-1.0941553e-05
-0.00043733303
-1.0525051e-05
5.8428119e-07
1.3199691e-06
1.3288456e-05
4.8344907e-06
5.2777433e-06
4.6220704e-05
1.5739014e-05
1.1188735e-05
8.0822459e-05
2.6932425e-05
1.676538e-05
8.5625666e-05
3.1269919e-05
1.6885215e-05
1.7175783e-05
2.5252435e-05
8.5004854e-06
-0.00013271887
1.1585095e-05
-4.6446555e-06
-0.00030321341
-2.7092456e-06
-1.5691233e-05
-0.00041405643
-2.118074e-05
-0.0004376673
-1.0867606e-05
5.0683599e-07
1.626841e-06
1.2989794e-05
4.3370419e-06
6.4824519e-06
4.5176828e-05
1.4062195e-05
1.3683364e-05
7.8987315e-05
2.3704882e-05
2.036479e-05
8.3479377e-05
2.7477534e-05
2.0251377e-05
1.5816432e-05
2.1837901e-05
9.3409825e-06
-0.00013262909
9.0892032e-06
-7.8493857e-06
-0.00030234436
-4.1333974e-06
-2.2535624e-05
-0.00041356457
-2.9811723e-05
-0.00043792976
-1.1501817e-05
4.1453811e-07
1.7188644e-06
1.2538599e-05
3.7668393e-06
6.8124399e-06
4.3597443e-05
1.2188709e-05
1.4301295e-05
7.6220621e-05
2.0193654e-05
2.1136306e-05
8.0305539e-05
2.3103403e-05
2.07473e-05
1.4008975e-05
1.766475e-05
8.6768348e-06
-0.00013192353
5.9598411e-06
-1.0430726e-05
-0.00030009026
-5.9737616e-06
-2.7001027e-05
-0.00041162458
-3.5248657e-05
-0.00043703531
-1.2324218e-05
3.2304746e-07
1.6733659e-06
1.1964879e-05
3.2138732e-06
6.5905529e-06
4.1620546e-05
1.0390067e-05
1.3778101e-05
7.2831351e-05
1.6878715e-05
2.0265602e-05
7.6633963e-05
1.8682612e-05
1.9776009e-05
1.244341e-05
1.3121947e-05
7.8559577e-06
-0.00012983608
2.3944054e-06
-1.1263707e-05
-0.00029563933
-8.1219551e-06
-2.8063214e-05
-0.00040737402
-3.6474791e-05
-0.00043404718
-1.3328897e-05
2.525364e-07
1.5472323e-06
1.1274671e-05
2.7631143e-06
6.0556802e-06
3.9278957e-05
8.644708e-06
1.2614089e-05
6.8906272e-05
1.3746876e-05
1.8586693e-05
7.2649317e-05
1.4371694e-05
1.8377588e-05
1.1446227e-05
8.5720348e-06
7.8020936e-06
-0.00012584405
-1.3357183e-06
-9.6786588e-06
-0.00028821257
-1.0430988e-05
-2.5402225e-05
-0.00039976975
-3.3328921e-05
-0.00042772741
-1.4464946e-05
1.9405007e-07
1.3926426e-06
1.0456593e-05
2.3611705e-06
5.4279315e-06
3.6524101e-05
7.1039046e-06
1.1305697e-05
6.4341682e-05
1.0915141e-05
1.684312e-05
6.8203235e-05
1.0409715e-05
1.7335003e-05
1.0924136e-05
4.2801174e-06
8.9712975e-06
-0.00011978086
-4.9249178e-06
-5.7668234e-06
-0.00027717925
-1.2679377e-05
-1.9506363e-05
-0.00038766806
-2.6429731e-05
-0.00041657816
-1.5584784e-05
1.4696121e-07
1.2453573e-06
9.4852798e-06
1.9612405e-06
4.850768e-06
3.3242388e-05
5.7049092e-06
1.0157372e-05
5.8887495e-05
8.3946917e-06
1.5471553e-05
6.2903572e-05
6.9510854e-06
1.7021821e-05
1.0499588e-05
5.7514501e-07
1.1381439e-05
-0.00011166668
-7.9509879e-06
-4.1699938e-08
-0.0002618571
-1.4442483e-05
-1.1298867e-05
-0.00036964895
-1.6905087e-05
-0.00039873038
-1.6293392e-05
1.2215265e-07
1.1113332e-06
8.3976466e-06
1.6309642e-06
4.3655329e-06
2.9551917e-05
4.5500353e-06
9.2826875e-06
5.2743159e-05
6.335583e-06
1.465948e-05
5.697866e-05
4.2112451e-06
1.7562052e-05
1.040044e-05
-2.2303948e-06
1.4862326e-05
-0.00010111024
-1.002256e-05
6.8720953e-06
-0.00024136372
-1.5249443e-05
-1.8226644e-06
-0.00034420523
-6.0560242e-06
-0.00037228103
-1.6045881e-05
1.0266526e-07
1.0046738e-06
7.2140657e-06
1.334461e-06
4.0158096e-06
2.5542707e-05
3.5789972e-06
8.752254e-06
4.6071771e-05
4.7122461e-06
1.4459891e-05
5.070499e-05
2.2913104e-06
1.8881904e-05
1.1089033e-05
-3.8284647e-06
1.9081834e-05
-8.7236969e-05
-1.0656238e-05
1.4354325e-05
-0.00021415916
-1.4487846e-05
7.9792301e-06
-0.00030920844
4.8967776e-06
-0.00033499052
-1.412792e-05
8.8426006e-08
9.3484398e-07
5.9765404e-06
1.061666e-06
3.8207589e-06
2.1378108e-05
2.7990669e-06
8.574281e-06
3.9134875e-05
3.6007232e-06
1.4813188e-05
4.4461139e-05
1.417458e-06
2.0776939e-05
1.3106619e-05
-3.8054584e-06
2.3687484e-05
-6.9139177e-05
-9.334246e-06
2.20001e-05
-0.00017871439
-1.1666662e-05
1.7580803e-05
-0.00026263937
1.4739385e-05
-0.00028483305
-9.7424727e-06
8.1032443e-08
4.8335357e-06
9.0411741e-07
8.796049e-07
1.7621187e-05
3.7522883e-06
2.418762e-06
3.3187849e-05
8.5830492e-06
3.4949141e-06
4.0222552e-05
1.5290422e-05
2.416219e-06
1.8892058e-05
2.2596332e-05
-1.102407e-06
-4.4277647e-05
2.8034118e-05
-4.9274747e-06
-0.00013247662
2.9337934e-05
-6.1345158e-06
-0.00020208295
2.6924845e-05
-0.00021967736
2.2715234e-05
-2.7648249e-06
-4.19203e-08
-2.922464e-07
5.0365564e-06
1.3114648e-07
-4.597877e-07
-1.3579755e-06
1.8742585e-05
6.5443463e-07
-1.3401936e-06
-3.5702214e-06
3.5808973e-05
1.8294617e-06
-2.2491476e-06
-7.5887387e-06
4.4581155e-05
4.1390006e-06
-2.3513374e-06
-1.3922831e-05
2.4835525e-05
8.0814115e-06
-9.6122988e-07
-2.2402354e-05
-3.7025082e-05
1.3759525e-05
2.0647004e-06
-3.1745643e-05
-0.00012420322
2.0446213e-05
6.2488682e-06
-3.9601522e-05
-0.00019328386
2.6618169e-05
-4.3340811e-05
-0.0002113546
3.0789397e-05
1.0477438e-05
-4.9761701e-08
-4.5315892e-07
6.1872106e-06
-5.5487802e-07
-2.0791406e-06
2.2604367e-05
-1.574141e-06
-5.3662902e-06
4.1950136e-05
-2.5492852e-06
-1.1107791e-05
4.895519e-05
-2.5367321e-06
-1.9739997e-05
1.8911039e-05
-9.0280524e-07
-3.0748067e-05
-6.2427534e-05
2.30095e-06
-4.2324754e-05
-0.00017133916
6.4382328e-06
-5.1500661e-05
-0.00025487761
-5.5183544e-05
-0.00027725949
1.0707251e-05