/*--------------------------------*- C++ -*----------------------------------*\
| =========                 |                                                 |
| \\      /  F ield         | OpenFOAM: The Open Source CFD Toolbox           |
|  \\    /   O peration     | Version:  2406                                  |
|   \\  /    A nd           | Website:  www.openfoam.com                      |
|    \\/     M anipulation  |                                                 |
\*---------------------------------------------------------------------------*/
FoamFile
{
    version     2.0;
    format      ascii;
    arch        "LSB;label=32;scalar=64";
    class       volVectorField;
    location    "10";
    object      U;
}
// * * * * * * * * * * * * * * * * * * * * * * * * * * * * * * * * * * * * * //

dimensions      [0 1 -1 0 0 0 0];

internalField   nonuniform List<vector> 
34560
(
(0.0081764173 -0.00067196773 0.0047352215)
(0.0065141411 -0.00013643832 0.019769991)
(-0.031692386 0.0028365372 0.046283012)
(-0.13307159 0.0078105789 0.087238454)
(-0.31267844 0.013123043 0.13774442)
(-0.54861059 0.015676378 0.18479179)
(-0.7888337 0.01698318 0.21558305)
(-0.98724321 0.022342997 0.22599152)
(-1.1216395 0.032347435 0.2206087)
(0.010618867 0.00031970868 0.0064741621)
(0.0090644713 0.0039428927 0.025910004)
(-0.038280054 0.011581128 0.058664306)
(-0.1622496 0.021946072 0.10674021)
(-0.37262198 0.031129315 0.16173136)
(-0.63208803 0.034960241 0.20767615)
(-0.87757904 0.036486771 0.23272474)
(-1.0652988 0.042744685 0.23610488)
(-1.1851095 0.054377737 0.22429645)
(0.015123062 0.00019465271 0.0071446672)
(0.018204606 0.0048710041 0.028831547)
(-0.033346129 0.015443953 0.065576238)
(-0.17540552 0.030462658 0.11881684)
(-0.41205426 0.043654175 0.1771182)
(-0.68942841 0.049449146 0.22216866)
(-0.93559777 0.052331432 0.24347391)
(-1.1125123 0.060515568 0.24298655)
(-1.2204646 0.074680453 0.22868898)
(0.021533636 9.961104e-05 0.0078301608)
(0.033765714 0.0055357745 0.031398923)
(-0.016593731 0.018293698 0.071222714)
(-0.17125195 0.036802518 0.12783704)
(-0.42866008 0.053429175 0.1879449)
(-0.71965876 0.061367969 0.23174252)
(-0.965122 0.066201491 0.25080438)
(-1.132921 0.076472292 0.2489651)
(-1.2310865 0.09291756 0.2344243)
(0.030237193 -0.00064000054 0.008085248)
(0.057149827 0.0042237565 0.032475553)
(0.014640957 0.017893096 0.074010147)
(-0.14660536 0.039143396 0.13279716)
(-0.42021101 0.058585496 0.19357064)
(-0.72212477 0.069328823 0.23728278)
(-0.96757187 0.077134236 0.25650659)
(-1.1284207 0.090703359 0.25605748)
(-1.2166442 0.10952539 0.24337577)
(0.04163211 -0.002208577 0.0079911257)
(0.089788594 0.00027266502 0.032338943)
(0.063195706 0.012949942 0.074497692)
(-0.097919774 0.035841713 0.13476233)
(-0.38481229 0.058906968 0.19726418)
(-0.69685839 0.073759292 0.2426285)
(-0.94108726 0.085702819 0.26432491)
(-1.0934089 0.10228526 0.26696727)
(-1.1716317 0.12248753 0.25720594)
(0.056294223 -0.0045740245 0.0077497435)
(0.1337423 -0.0062361911 0.03187694)
(0.13329365 0.0033517289 0.07439827)
(-0.018534321 0.026361038 0.13651176)
(-0.3135925 0.052856627 0.20184135)
(-0.6337093 0.072830789 0.25110024)
(-0.87603222 0.089803865 0.27761864)
(-1.0197773 0.10966811 0.28500054)
(-1.0879417 0.13101983 0.2789893)
(0.074789911 -0.0076362968 0.0076034885)
(0.19132604 -0.01506702 0.031831153)
(0.22923687 -0.010382404 0.075569464)
(0.098468329 0.011343466 0.14152592)
(-0.19838313 0.040942234 0.212593)
(-0.52361255 0.066570588 0.26874452)
(-0.76224428 0.088785735 0.30229169)
(-0.89619649 0.1114489 0.31533742)
(-0.95361591 0.13320193 0.31285449)
(0.097018808 -0.010680538 0.0079098409)
(0.26234719 -0.024253663 0.033382055)
(0.35067561 -0.025276415 0.08073275)
(0.25463049 -0.0064299389 0.15418183)
(-0.035656266 0.024934608 0.23584452)
(-0.36012029 0.055182843 0.3020611)
(-0.59041661 0.081373149 0.34425607)
(-0.71154846 0.10529628 0.36288827)
(-0.75706664 0.1261688 0.36260986)
(0.12113996 -0.012282566 0.0089491674)
(0.34081081 -0.029696836 0.037269544)
(0.48672097 -0.034970208 0.092721492)
(0.43636795 -0.020438924 0.17761498)
(0.16383875 0.009280059 0.274922)
(-0.14992786 0.040137451 0.35362033)
(-0.36413912 0.066650775 0.40498382)
(-0.46822751 0.088996345 0.42794337)
(-0.50107631 0.10667874 0.42798928)
(0.14286801 -0.010312309 0.010565712)
(0.4120118 -0.025551348 0.043210803)
(0.61307214 -0.031555451 0.10896968)
(0.60885191 -0.022367324 0.20746268)
(0.36258994 -0.00027007856 0.32241106)
(0.069258813 0.023691274 0.41411635)
(-0.12230878 0.044274439 0.47360103)
(-0.20693397 0.060801507 0.49889557)
(-0.22887373 0.072535939 0.49766575)
(0.15609883 -0.0040324156 0.01182218)
(0.45579124 -0.010057068 0.047930519)
(0.69184121 -0.012618854 0.12089466)
(0.71786844 -0.0094492293 0.2292298)
(0.49231194 -0.0012211805 0.35613752)
(0.21701468 0.0080222773 0.45746523)
(0.043049546 0.015929445 0.52183613)
(-0.028539493 0.021958054 0.54782121)
(-0.043671914 0.026289111 0.54473673)
(0.15609877 0.0040321655 0.011822194)
(0.45579104 0.01005628 0.047930525)
(0.69184087 0.012617372 0.12089472)
(0.71786796 0.009447241 0.22922985)
(0.49231138 0.0012189907 0.35613759)
(0.21701416 -0.0080242502 0.45746529)
(0.043049154 -0.015931079 0.52183623)
(-0.028539781 -0.02195945 0.54782138)
(-0.04367218 -0.026290448 0.54473698)
(0.14286788 0.010312103 0.010565732)
(0.41201133 0.025550635 0.043210887)
(0.6130713 0.031554104 0.1089698)
(0.60885062 0.022365525 0.20746283)
(0.36258847 0.0002680792 0.32241132)
(0.069257498 -0.023693097 0.4141166)
(-0.12230975 -0.044276004 0.47360135)
(-0.20693466 -0.060802858 0.49889604)
(-0.22887441 -0.072537229 0.49766641)
(0.12113979 0.012282379 0.0089491917)
(0.34081023 0.0296962 0.03726985)
(0.48671988 0.034969004 0.09272178)
(0.43636625 0.020437308 0.17761538)
(0.1638369 -0.0092817997 0.27492256)
(-0.1499295 -0.040139005 0.35362083)
(-0.36414034 -0.066652174 0.40498438)
(-0.46822839 -0.088997613 0.42794404)
(-0.50107723 -0.10667995 0.42799012)
(0.097018637 0.010680327 0.0079098824)
(0.26234663 0.02425308 0.033382482)
(0.35067456 0.025275367 0.080733293)
(0.25462887 0.0064285179 0.15418254)
(-0.035658031 -0.024935997 0.23584528)
(-0.36012184 -0.055184004 0.30206178)
(-0.5904178 -0.08137425 0.34425683)
(-0.71154929 -0.10529741 0.36288906)
(-0.75706755 -0.12616997 0.36261076)
(0.074789769 0.0076360869 0.0076035324)
(0.19132557 0.015066521 0.031831481)
(0.22923598 0.010381578 0.075570033)
(0.098466956 -0.011344538 0.14152667)
(-0.19838465 -0.040943166 0.21259371)
(-0.52361386 -0.066571343 0.26874529)
(-0.76224531 -0.088786492 0.3022926)
(-0.89619716 -0.11144985 0.31533832)
(-0.95361665 -0.13320314 0.31285553)
(0.056294107 0.004573845 0.0077497834)
(0.13374191 0.0062357191 0.031877104)
(0.13329292 -0.0033524367 0.074398731)
(-0.01853543 -0.026361781 0.13651239)
(-0.31359373 -0.052857282 0.20184205)
(-0.63371032 -0.07283131 0.2511011)
(-0.87603305 -0.089804364 0.2776196)
(-1.0197778 -0.10966886 0.28500153)
(-1.0879423 -0.13102105 0.27899059)
(0.041632019 0.0022084747 0.0079912445)
(0.089788288 -0.00027304571 0.032339123)
(0.063195123 -0.012950546 0.074497982)
(-0.097920666 -0.035842315 0.13476283)
(-0.38481333 -0.05890752 0.19726492)
(-0.69685923 -0.07375965 0.2426292)
(-0.94108792 -0.085703149 0.26432568)
(-1.0934093 -0.10228585 0.26696824)
(-1.1716323 -0.12248868 0.2572072)
(0.030237116 0.00063994002 0.0080852781)
(0.05714957 -0.0042239874 0.032475538)
(0.014640475 -0.017893487 0.074010193)
(-0.14660611 -0.039143884 0.13279745)
(-0.42021188 -0.058585853 0.19357094)
(-0.72212546 -0.069329137 0.23728307)
(-0.96757246 -0.077134413 0.25650711)
(-1.1284212 -0.09070394 0.25605834)
(-1.2166447 -0.10952642 0.24337665)
(0.021533575 -9.9638538e-05 0.007830156)
(0.033765517 -0.0055358379 0.031398938)
(-0.016594095 -0.018293889 0.071222791)
(-0.1712525 -0.0368029 0.12783716)
(-0.42866066 -0.053429446 0.18794506)
(-0.71965932 -0.061368288 0.23174269)
(-0.96512248 -0.066201776 0.2508047)
(-1.1329216 -0.076473036 0.24896579)
(-1.2310871 -0.092918452 0.23442499)
(0.015123011 -0.0001946944 0.0071446921)
(0.018204447 -0.0048710716 0.02883168)
(-0.033346416 -0.015444086 0.065576486)
(-0.17540595 -0.030462951 0.11881704)
(-0.41205482 -0.0436546 0.17711824)
(-0.68942896 -0.049449548 0.22216852)
(-0.93559837 -0.052331995 0.24347414)
(-1.1125128 -0.060516087 0.24298652)
(-1.2204653 -0.074681672 0.2286893)
(0.010618824 -0.00031976394 0.0064741902)
(0.0090643373 -0.0039429662 0.025910145)
(-0.038280291 -0.011581221 0.058664495)
(-0.16224995 -0.021946214 0.10674024)
(-0.37262246 -0.031129562 0.16173117)
(-0.63208851 -0.034960696 0.207676)
(-0.87757959 -0.03648756 0.23272448)
(-1.0652996 -0.042745621 0.23610501)
(-1.1851103 -0.054379302 0.22429779)
(0.0081763796 0.00067195311 0.004735225)
(0.006514024 0.0001364123 0.019769995)
(-0.031692595 -0.0028365703 0.046282988)
(-0.13307189 -0.0078105914 0.087238357)
(-0.31267883 -0.013122965 0.1377444)
(-0.54861115 -0.015676451 0.18479166)
(-0.78883438 -0.016983536 0.21558281)
(-0.98724389 -0.022344146 0.22599226)
(-1.1216406 -0.032348485 0.22060953)
(0.041159571 0.00062117741 0.00044084202)
(0.11536734 0.0015108868 0.00082331056)
(0.1769036 0.0018581555 -8.4343415e-05)
(0.20065891 0.00041722844 -0.0032562363)
(0.16094102 -0.0043357214 -0.0094446585)
(0.049011433 -0.013252923 -0.017816961)
(-0.11170407 -0.025254992 -0.025966111)
(-0.27494105 -0.037920578 -0.03186098)
(-0.39786164 -0.050304967 -0.034705975)
(0.046662964 -0.00018547199 -0.00033964728)
(0.12858571 -0.0011789064 -0.0017578752)
(0.19260354 -0.0031985309 -0.0051000851)
(0.21029758 -0.0074771168 -0.011173915)
(0.15584268 -0.015374829 -0.020119309)
(0.025859828 -0.027280852 -0.03006129)
(-0.14765636 -0.041385901 -0.038036133)
(-0.31365656 -0.054929453 -0.042492813)
(-0.43417041 -0.066690441 -0.044218021)
(0.052520243 -0.0011702728 -0.0010923152)
(0.14317476 -0.0044359176 -0.0043033615)
(0.21131939 -0.009233621 -0.010120325)
(0.2254721 -0.016559794 -0.019036886)
(0.15992401 -0.027295929 -0.03032952)
(0.016535744 -0.041179583 -0.041030445)
(-0.16525696 -0.055988655 -0.048066727)
(-0.33182828 -0.069309703 -0.050994374)
(-0.44991301 -0.080454796 -0.051288182)
(0.057989149 -0.0025139243 -0.0018994739)
(0.15684961 -0.0087317677 -0.0070079974)
(0.22909002 -0.016927353 -0.015423841)
(0.24058472 -0.027594237 -0.027226843)
(0.16601771 -0.040890708 -0.040689148)
(0.012135591 -0.055946523 -0.051736794)
(-0.17530757 -0.070553092 -0.057499083)
(-0.34132433 -0.083125509 -0.058790591)
(-0.45719742 -0.093713827 -0.057763062)
(0.062956649 -0.0041079126 -0.0026340819)
(0.16932109 -0.013756827 -0.0094945243)
(0.24542619 -0.025761826 -0.02039121)
(0.25474276 -0.039876338 -0.034945273)
(0.17234146 -0.055379789 -0.050344894)
(0.0094504742 -0.070917774 -0.061520874)
(-0.18258232 -0.084722604 -0.06599856)
(-0.34785527 -0.096234434 -0.065815886)
(-0.46165534 -0.10604149 -0.063638099)
(0.067459785 -0.0058996407 -0.0031962208)
(0.18064163 -0.019295678 -0.011435173)
(0.26028217 -0.035259489 -0.024434615)
(0.26781914 -0.052656039 -0.041463305)
(0.17827558 -0.06980268 -0.058512209)
(0.0069325123 -0.085106703 -0.069677687)
(-0.18970187 -0.097616925 -0.073006843)
(-0.3547144 -0.10778745 -0.071671447)
(-0.4666831 -0.11655208 -0.068649086)
(0.071533544 -0.0077606284 -0.0035423534)
(0.19097526 -0.02487929 -0.012671395)
(0.27397876 -0.044497274 -0.027237509)
(0.28018157 -0.064597947 -0.046247172)
(0.18396168 -0.082591682 -0.064464586)
(0.004192197 -0.09699135 -0.075523183)
(-0.19762282 -0.10786774 -0.077981083)
(-0.36324725 -0.11650829 -0.075917329)
(-0.47380458 -0.12396541 -0.072408393)
(0.075439888 -0.0093519329 -0.0035614803)
(0.20119713 -0.029466213 -0.012857656)
(0.28804931 -0.051731424 -0.028146741)
(0.29345122 -0.073361053 -0.048339977)
(0.19089738 -0.091006315 -0.067201346)
(0.0022773209 -0.10393278 -0.078169293)
(-0.20568767 -0.11310539 -0.080209707)
(-0.37299477 -0.12018102 -0.077952727)
(-0.48258685 -0.12616702 -0.074374847)
(0.079350085 -0.010182087 -0.0031796158)
(0.21186566 -0.03158392 -0.011744552)
(0.30342355 -0.054523658 -0.026680673)
(0.30831481 -0.075648803 -0.047001697)
(0.20001477 -0.091865669 -0.06647226)
(0.0026173744 -0.10294506 -0.077192939)
(-0.21218546 -0.11036735 -0.079185382)
(-0.38207655 -0.11593673 -0.077277713)
(-0.49136842 -0.12036349 -0.074054535)
(0.08329912 -0.0095768668 -0.0024183201)
(0.22315896 -0.029332927 -0.0094007088)
(0.32069336 -0.0499221 -0.022926315)
(0.32619424 -0.067992372 -0.042422878)
(0.2120566 -0.081325171 -0.062198388)
(0.0058523255 -0.090055806 -0.072482737)
(-0.21585778 -0.095780883 -0.074824677)
(-0.38865793 -0.09982182 -0.07375633)
(-0.49798782 -0.1026741 -0.071253595)
(0.08685922 -0.007084736 -0.001523533)
(0.2336488 -0.021452464 -0.0066063076)
(0.33746065 -0.036067287 -0.018214281)
(0.34459985 -0.048409616 -0.036209508)
(0.22501758 -0.057205505 -0.055791689)
(0.011455097 -0.062724612 -0.065830172)
(-0.21597725 -0.066434564 -0.068617484)
(-0.39123589 -0.068914493 -0.068578017)
(-0.50073201 -0.070417449 -0.066930885)
(0.089118872 -0.002652458 -0.0009124197)
(0.24054366 -0.0079718236 -0.0046587325)
(0.34894907 -0.013290866 -0.014745312)
(0.35792245 -0.017675884 -0.031313948)
(0.23514718 -0.020689519 -0.050021201)
(0.016696247 -0.022593969 -0.060778123)
(-0.21424254 -0.023910118 -0.063860697)
(-0.39104764 -0.024744336 -0.064554501)
(-0.50071557 -0.025192097 -0.063512766)
(0.089118866 0.0026525093 -0.00091241952)
(0.24054364 0.0079720001 -0.0046587439)
(0.34894904 0.01329115 -0.014745308)
(0.35792243 0.01767633 -0.03131396)
(0.23514717 0.020690154 -0.050021216)
(0.01669623 0.022594749 -0.060778139)
(-0.21424256 0.023910944 -0.063860699)
(-0.39104766 0.024745108 -0.064554483)
(-0.50071562 0.025192733 -0.063512709)
(0.086859209 0.0070847869 -0.0015235372)
(0.23364876 0.021452625 -0.0066063152)
(0.33746059 0.036067556 -0.01821429)
(0.34459978 0.048410071 -0.036209532)
(0.22501754 0.057206136 -0.055791684)
(0.011455062 0.062725353 -0.065830176)
(-0.21597727 0.066435312 -0.068617474)
(-0.39123593 0.068915199 -0.068577977)
(-0.50073215 0.070418065 -0.066930772)
(0.083299104 0.0095769134 -0.0024183296)
(0.22315892 0.029333078 -0.0094006403)
(0.3206933 0.049922339 -0.022926297)
(0.32619414 0.06799277 -0.042422825)
(0.21205655 0.081325737 -0.062198253)
(0.0058522959 0.090056489 -0.072482669)
(-0.2158578 0.095781551 -0.074824642)
(-0.38865799 0.099822436 -0.073756307)
(-0.49798801 0.10267466 -0.071253528)
(0.079350062 0.010182095 -0.0031796219)
(0.2118656 0.031584028 -0.011744389)
(0.30342348 0.054523841 -0.026680539)
(0.30831471 0.075649101 -0.047001499)
(0.20001472 0.091866186 -0.066472042)
(0.0026173496 0.10294575 -0.07719284)
(-0.21218548 0.11036802 -0.079185341)
(-0.3820766 0.11593729 -0.077277726)
(-0.49136859 0.12036391 -0.074054519)
(0.075439867 0.0093519058 -0.0035614893)
(0.20119708 0.02946628 -0.012857524)
(0.28804925 0.051731577 -0.028146598)
(0.29345114 0.07336133 -0.048339787)
(0.19089731 0.091006861 -0.067201217)
(0.0022772845 0.10393352 -0.078169223)
(-0.20568768 0.11310614 -0.080209667)
(-0.37299478 0.12018156 -0.077952749)
(-0.48258693 0.12616729 -0.074374775)
(0.071533522 0.0077605853 -0.0035423535)
(0.19097521 0.024879294 -0.012671324)
(0.27397869 0.044497374 -0.027237391)
(0.28018147 0.064598245 -0.046247056)
(0.18396158 0.082592233 -0.064464527)
(0.0041921482 0.096992103 -0.075523129)
(-0.19762282 0.10786854 -0.077981054)
(-0.36324722 0.11650884 -0.075917329)
(-0.47380458 0.12396557 -0.072408234)
(0.067459765 0.0058996111 -0.0031961956)
(0.18064157 0.019295658 -0.011435137)
(0.2602821 0.03525954 -0.024434631)
(0.26781902 0.052656292 -0.041463315)
(0.17827548 0.069803194 -0.058512214)
(0.006932441 0.08510745 -0.069677746)
(-0.18970189 0.097617734 -0.073006903)
(-0.35471438 0.107788 -0.071671458)
(-0.4666831 0.11655218 -0.068649006)
(0.062956623 0.0041078954 -0.0026340703)
(0.16932102 0.013756826 -0.0094945503)
(0.24542608 0.025761887 -0.020391292)
(0.25474264 0.039876548 -0.034945336)
(0.17234131 0.055380291 -0.050345058)
(0.0094503284 0.070918464 -0.061521087)
(-0.18258242 0.084723401 -0.065998724)
(-0.34785532 0.096234901 -0.065815945)
(-0.46165537 0.10604154 -0.063638241)
(0.057989115 0.0025139182 -0.0018994854)
(0.15684951 0.0087318268 -0.0070080282)
(0.22908987 0.016927473 -0.015423915)
(0.24058452 0.027594434 -0.027227003)
(0.16601745 0.040891156 -0.040689406)
(0.012135338 0.055947139 -0.051737102)
(-0.17530778 0.070553731 -0.057499337)
(-0.34132449 0.083125856 -0.058790786)
(-0.45719754 0.093713866 -0.057763432)
(0.0525202 0.0011702678 -0.0010923163)
(0.14317464 0.0044359976 -0.0043033298)
(0.21131919 0.0092337845 -0.010120296)
(0.22547183 0.016560041 -0.019036963)
(0.15992369 0.02729629 -0.030329786)
(0.016535386 0.041180105 -0.041030867)
(-0.1652573 0.055989106 -0.048067134)
(-0.33182853 0.069310053 -0.050995089)
(-0.44991319 0.080454625 -0.051288896)
(0.046662919 0.00018546968 -0.00033964845)
(0.12858558 0.0011789892 -0.0017578526)
(0.19260332 0.0031987178 -0.0051000879)
(0.21029729 0.0074774279 -0.011174088)
(0.15584231 0.01537522 -0.02011975)
(0.025859408 0.027281204 -0.030061874)
(-0.14765676 0.041386134 -0.038037033)
(-0.31365693 0.054929337 -0.04249369)
(-0.43417063 0.066689732 -0.044218233)
(0.04115953 -0.00062115431 0.0004408152)
(0.11536721 -0.0015107861 0.00082322145)
(0.17690338 -0.0018579568 -8.4516405e-05)
(0.2006586 -0.0004169137 -0.0032565473)
(0.16094064 0.0043361964 -0.0094450629)
(0.049011066 0.013253339 -0.017817776)
(-0.11170442 0.025255242 -0.025967221)
(-0.27494133 0.037920283 -0.03186178)
(-0.39786187 0.050304513 -0.034706335)
(0.022326538 -0.00060128643 -0.00055045844)
(0.057664334 -0.0017643484 -0.0016380141)
(0.076213996 -0.0029144356 -0.0027677554)
(0.058198396 -0.0039373076 -0.0036771512)
(-0.015698729 -0.0047971847 -0.0039558112)
(-0.15060245 -0.0054774381 -0.0032740185)
(-0.32436926 -0.0059091362 -0.0017890004)
(-0.49521307 -0.0059871412 -0.00033510004)
(-0.62295467 -0.0059280362 0.00023634382)
(0.025106008 -0.00062156825 -0.00050240508)
(0.063276903 -0.0017633457 -0.0014809693)
(0.080064977 -0.002788121 -0.0024776021)
(0.053398 -0.0035508574 -0.0031887957)
(-0.035743947 -0.0040126132 -0.0031496116)
(-0.18768519 -0.0041916722 -0.0020649404)
(-0.37258264 -0.0041185279 -0.00026302761)
(-0.54427717 -0.0038436655 0.001299837)
(-0.66797845 -0.0036125283 0.001651513)
(0.028262131 -0.00066544868 -0.00046698707)
(0.070430974 -0.0018407532 -0.0013773564)
(0.087402212 -0.002801343 -0.0023194015)
(0.055130113 -0.0033432401 -0.0029624364)
(-0.04493484 -0.0034078697 -0.0027709853)
(-0.20856636 -0.003070431 -0.0014523134)
(-0.39948685 -0.0025091449 0.00056588947)
(-0.56950755 -0.0019185429 0.0022888536)
(-0.68885204 -0.0014898377 0.0027893144)
(0.031207864 -0.000732584 -0.00044560575)
(0.077268899 -0.0019965185 -0.0013261878)
(0.09491642 -0.0029591093 -0.0022748343)
(0.05856108 -0.0033296257 -0.0029375657)
(-0.049645345 -0.0030020898 -0.0026968758)
(-0.22126915 -0.0021167726 -0.0012484236)
(-0.41483045 -0.0010388838 0.00092440449)
(-0.58148107 -0.00010491503 0.002844184)
(-0.69623012 0.00054677044 0.0035728027)
(0.033896791 -0.00081484246 -0.00042923464)
(0.083641219 -0.0022134333 -0.0013019666)
(0.10227236 -0.0032416911 -0.002303593)
(0.062944963 -0.0035002832 -0.0030627044)
(-0.051437656 -0.0028067755 -0.0028679336)
(-0.22860835 -0.001366599 -0.001384276)
(-0.4227634 0.00024331583 0.00089036768)
(-0.58503965 0.0015281589 0.003004658)
(-0.69488441 0.0023851313 0.0039997386)
(0.036304855 -0.00090861924 -0.00040532255)
(0.089437132 -0.0024803531 -0.0012651553)
(0.10919887 -0.0036297723 -0.0023400999)
(0.067714498 -0.0038358657 -0.0032613078)
(-0.051378385 -0.0028247876 -0.0032118911)
(-0.23241272 -0.00086516653 -0.0017982183)
(-0.42593635 0.0012433297 0.00051066886)
(-0.58338991 0.0028431422 0.0028001671)
(-0.68814295 0.0038662294 0.0040822671)
(0.03839817 -0.0010001978 -0.00037342871)
(0.094563501 -0.0027526233 -0.00120772)
(0.11555447 -0.0040481782 -0.0023591087)
(0.072637721 -0.0042518801 -0.0034865471)
(-0.049914821 -0.0030033978 -0.0036664791)
(-0.23355957 -0.00063138036 -0.0024264879)
(-0.42581284 0.0018667783 -0.00015071256)
(-0.57850923 0.0037015577 0.0022930687)
(-0.67832088 0.0048170981 0.0038681993)
(0.040299842 -0.0010611791 -0.00032431849)
(0.099372778 -0.0029466499 -0.0011021073)
(0.12187024 -0.0043668642 -0.0023212008)
(0.078278513 -0.0046119122 -0.0036863059)
(-0.046687502 -0.0032491591 -0.0041671847)
(-0.23214868 -0.0006469415 -0.0031837599)
(-0.42307047 0.0020543388 -0.00099503097)
(-0.57157175 0.0039900705 0.0015793522)
(-0.66697366 0.0051177296 0.0034348591)
(0.042043074 -0.0010575405 -0.00025725977)
(0.10393949 -0.0029605284 -0.00094371595)
(0.12821218 -0.0044250289 -0.002202524)
(0.084603561 -0.004725098 -0.0038063383)
(-0.041945594 -0.0033872297 -0.0046336813)
(-0.22866078 -0.00080742175 -0.0039570118)
(-0.4184388 0.0018383235 -0.0018980505)
(-0.56356962 0.003697335 0.00077344747)
(-0.65534648 0.0047344312 0.0028745549)
(0.043556775 -0.00094515351 -0.00017341958)
(0.10801181 -0.0026625542 -0.00073334944)
(0.13409284 -0.0040084176 -0.0020061472)
(0.090882696 -0.0043251394 -0.0038492615)
(-0.036604145 -0.003166131 -0.0050372197)
(-0.2241264 -0.00092252212 -0.0046616007)
(-0.41300575 0.001353448 -0.0027326946)
(-0.55564116 0.0029177685 2.0232589e-06)
(-0.64468622 0.0037572664 0.0023033179)
(0.044663963 -0.00067683569 -8.9025079e-05)
(0.11100988 -0.0019122759 -0.0005145568)
(0.13849111 -0.0028914239 -0.0017817691)
(0.095741421 -0.0031433501 -0.0038344398)
(-0.032192569 -0.0023399571 -0.0053417653)
(-0.22008408 -0.00077617487 -0.005210166)
(-0.40823699 0.00078574726 -0.0033835885)
(-0.54919745 0.0018234465 -0.00062013238)
(-0.63636508 0.0023848157 0.0018432357)
(0.04532499 -0.00025016413 -3.6010619e-05)
(0.11285174 -0.00070728837 -0.00037512738)
(0.14128215 -0.0010696473 -0.0016334155)
(0.098921058 -0.0011625873 -0.0038113335)
(-0.029207376 -0.00086803443 -0.0055157312)
(-0.21736639 -0.00029906433 -0.0055261028)
(-0.40529668 0.00025314468 -0.0037460124)
(-0.54544891 0.00062483282 -0.00095235694)
(-0.63171987 0.00081732299 0.0015927367)
(0.045324985 0.00025013671 -3.6009571e-05)
(0.11285173 0.00070723932 -0.00037512083)
(0.14128213 0.0010695864 -0.001633404)
(0.098921033 0.0011625613 -0.0038113197)
(-0.029207403 0.00086808202 -0.0055157158)
(-0.21736642 0.0002991908 -0.0055260891)
(-0.40529671 -0.00025298421 -0.00374599)
(-0.54544893 -0.00062470898 -0.00095231968)
(-0.63171989 -0.00081728634 0.0015927999)
(0.044663951 0.0006768081 -8.9024388e-05)
(0.11100985 0.0019122274 -0.00051453611)
(0.13849106 0.0028913676 -0.0017817464)
(0.095741348 0.0031433407 -0.0038344063)
(-0.03219265 0.0023400305 -0.0053417176)
(-0.22008416 0.00077632965 -0.0052101202)
(-0.40823706 -0.00078556782 -0.0033835203)
(-0.54919751 -0.0018233132 -0.00062002904)
(-0.63636514 -0.0023847708 0.0018434038)
(0.043556757 0.00094512368 -0.00017341931)
(0.10801176 0.0026625103 -0.00073329602)
(0.13409276 0.0040083688 -0.002006104)
(0.090882584 0.0043251444 -0.0038491912)
(-0.036604261 0.0031662401 -0.0050371258)
(-0.2241265 0.00092273169 -0.0046615161)
(-0.41300585 -0.0013532222 -0.0027325846)
(-0.55564124 -0.0029176103 2.1696246e-06)
(-0.64468631 -0.0037572164 0.0023035422)
(0.042043049 0.0010575003 -0.00025725546)
(0.10393943 0.0029604818 -0.00094363038)
(0.12821208 0.004424983 -0.0022024401)
(0.084603422 0.0047251126 -0.0038062208)
(-0.041945731 0.0033873887 -0.0046335663)
(-0.2286609 0.00080771764 -0.0039569146)
(-0.41843891 -0.0018380109 -0.0018979219)
(-0.56356971 -0.0036971318 0.0007736042)
(-0.65534657 -0.0047343924 0.0028747976)
(0.040299817 0.0010611333 -0.00032431134)
(0.099372705 0.0029466062 -0.0011020239)
(0.12187012 0.0043668319 -0.0023211099)
(0.078278362 0.0046119633 -0.0036861929)
(-0.046687663 0.0032493945 -0.0041671057)
(-0.23214883 0.00064734077 -0.0031836851)
(-0.4230706 -0.002053923 -0.00099491217)
(-0.57157184 -0.003989824 0.0015794915)
(-0.66697374 -0.005117734 0.003435108)
(0.038398144 0.0010001505 -0.00037341741)
(0.094563421 0.0027525768 -0.0012076447)
(0.11555435 0.004048156 -0.0023590221)
(0.072637549 0.0042519809 -0.0034864612)
(-0.049915019 0.0030037032 -0.00366644)
(-0.23355976 0.00063186691 -0.0024264477)
(-0.425813 -0.0018662764 -0.00015063089)
(-0.57850933 -0.0037012899 0.0022931617)
(-0.67832094 -0.0048171842 0.0038684276)
(0.03630483 0.00090857911 -0.00040530362)
(0.089437052 0.0024803161 -0.0012650908)
(0.10919873 0.0036297647 -0.0023400573)
(0.067714298 0.0038360028 -0.0032612711)
(-0.051378629 0.0028251496 -0.0032118982)
(-0.23241297 0.00086572379 -0.0017982549)
(-0.42593656 -0.0012427662 0.00051066686)
(-0.58339004 -0.0028428836 0.002800177)
(-0.68814301 -0.0038664343 0.0040824026)
(0.033896764 0.00081481001 -0.00042921694)
(0.083641134 0.0022134167 -0.0013019201)
(0.10227221 0.003241714 -0.0023035732)
(0.062944736 0.0035004486 -0.0030626961)
(-0.051437943 0.0028071893 -0.002868013)
(-0.22860867 0.0013671911 -0.0013844127)
(-0.42276367 -0.00024272042 0.00089025528)
(-0.58503983 -0.0015279488 0.0030045588)
(-0.69488452 -0.0023854588 0.003999712)
(0.031207836 0.00073256052 -0.00044559593)
(0.077268808 0.0019965347 -0.0013261579)
(0.094916255 0.0029591831 -0.002274828)
(0.058560831 0.0033298314 -0.0029376086)
(-0.049645677 0.0030025286 -0.0026970276)
(-0.22126952 0.0021173581 -0.0012486679)
(-0.41483078 0.0010394165 0.00092416202)
(-0.58148131 0.00010506434 0.0028439221)
(-0.69623028 -0.00054712476 0.0035725613)
(0.0282621 0.00066543445 -0.00046697821)
(0.070430876 0.0018408038 -0.0013773237)
(0.087402037 0.0028014797 -0.0023193913)
(0.055129856 0.0033435245 -0.0029624971)
(-0.04493519 0.003408337 -0.0027711942)
(-0.20856676 0.0030709989 -0.0014526715)
(-0.39948722 0.0025095533 0.00056547431)
(-0.56950782 0.0019186459 0.002288234)
(-0.68885223 0.0014895089 0.0027887715)
(0.025105982 0.00062157457 -0.00050240919)
(0.06327682 0.0017634433 -0.0014809852)
(0.080064829 0.00278834 -0.0024776714)
(0.05339778 0.0035512525 -0.0031889769)
(-0.03574425 0.0040131828 -0.0031499749)
(-0.18768555 0.0041922617 -0.0020654593)
(-0.37258301 0.0041188447 -0.00026376032)
(-0.54427752 0.0038434666 0.0012989482)
(-0.66797867 0.0036120685 0.0016509593)
(0.022326519 0.0006013181 -0.00055048795)
(0.057664277 0.0017644775 -0.0016381184)
(0.076213896 0.0029146858 -0.0027679568)
(0.05819825 0.0039377037 -0.0036774946)
(-0.015698911 0.0047977513 -0.0039563158)
(-0.15060265 0.0054780467 -0.003274754)
(-0.32436949 0.0059095383 -0.0017899382)
(-0.49521331 0.005986927 -0.00033632591)
(-0.62295487 0.0059276177 0.00023591305)
(0.03152587 -0.00013774974 -0.00012184329)
(0.085821865 -0.00048825751 -0.00039228632)
(0.1252812 -0.0010356115 -0.00069003013)
(0.12744018 -0.0018254859 -0.0010123485)
(0.069523697 -0.0028429369 -0.0013894234)
(-0.055926448 -0.0040280728 -0.0018393301)
(-0.22643309 -0.0053288103 -0.0023143607)
(-0.39799451 -0.0067172504 -0.0026809136)
(-0.52793558 -0.0081234082 -0.0028293477)
(0.035400416 -0.00024787305 -0.0001961361)
(0.094409434 -0.00083452963 -0.00061368451)
(0.13357939 -0.001663886 -0.0010539712)
(0.12765177 -0.0027536064 -0.0014999162)
(0.053922076 -0.004044081 -0.0019800124)
(-0.089885668 -0.0054432636 -0.0025161426)
(-0.27296381 -0.0068937587 -0.0030600349)
(-0.44663892 -0.0083488138 -0.0034789512)
(-0.57371091 -0.0096626579 -0.003678337)
(0.039510177 -0.00033898271 -0.00023430611)
(0.10409692 -0.0011263772 -0.00072969854)
(0.14459033 -0.0021959979 -0.0012409602)
(0.13330197 -0.0035324524 -0.0017437841)
(0.047854437 -0.0050249392 -0.0022751878)
(-0.10901599 -0.0065459053 -0.0028699335)
(-0.29945116 -0.0080343185 -0.00348426)
(-0.47251983 -0.0094447125 -0.0039922974)
(-0.59618957 -0.010639098 -0.0042737369)
(0.043205475 -0.00043034861 -0.00025986243)
(0.11283232 -0.0014112383 -0.00080502002)
(0.15467535 -0.0026969506 -0.0013561985)
(0.13913817 -0.0042346475 -0.0018837756)
(0.044527991 -0.0058625971 -0.0024394924)
(-0.12172722 -0.0074259435 -0.0030762096)
(-0.31602847 -0.0088757008 -0.003758466)
(-0.48664439 -0.010193974 -0.0043616932)
(-0.60652434 -0.01127299 -0.0047309246)
(0.046392813 -0.00050648372 -0.00026629015)
(0.12034968 -0.0016491589 -0.00082304215)
(0.16334226 -0.0031103201 -0.0013771639)
(0.14425904 -0.0047975403 -0.0019003379)
(0.042270766 -0.0065014154 -0.0024655264)
(-0.13090277 -0.0080502708 -0.0031437559)
(-0.32691662 -0.00941679 -0.0039005969)
(-0.49398387 -0.010610839 -0.0045934688)
(-0.60963274 -0.011544285 -0.0050292945)
(0.049054563 -0.00056672803 -0.00025326045)
(0.12655138 -0.0018339323 -0.00078104782)
(0.17033804 -0.0034174475 -0.0012998422)
(0.14813341 -0.0051870555 -0.0017913864)
(0.040070445 -0.0068972776 -0.002353873)
(-0.13830111 -0.0083743231 -0.0030720222)
(-0.33472966 -0.0096106262 -0.0038971414)
(-0.49771604 -0.010634543 -0.0046597296)
(-0.60880357 -0.01140684 -0.0051600506)
(0.051143546 -0.00060478946 -0.00022668107)
(0.13132026 -0.0019432587 -0.0006951891)
(0.17550015 -0.0035780814 -0.0011457021)
(0.15054221 -0.0053461363 -0.001576779)
(0.03752923 -0.006983169 -0.0021171467)
(-0.14472237 -0.0083202798 -0.0028593849)
(-0.34081112 -0.009378282 -0.0037413713)
(-0.49964878 -0.010221029 -0.0045779887)
(-0.60615248 -0.010839299 -0.0051532001)
(0.052788226 -0.00060521423 -0.00018558929)
(0.13504526 -0.0019335312 -0.00056459743)
(0.17946044 -0.0035244186 -0.00091642948)
(0.15222723 -0.0051924027 -0.0012622475)
(0.035254068 -0.0066678685 -0.0017654907)
(-0.14995456 -0.0078154284 -0.0025298934)
(-0.3454695 -0.0086831109 -0.003477207)
(-0.50057709 -0.0093468958 -0.0043983036)
(-0.60287669 -0.0098123102 -0.0050502192)
(0.054068168 -0.00055562479 -0.0001345738)
(0.13795925 -0.0017685249 -0.00040432403)
(0.18259038 -0.0032003772 -0.00063966974)
(0.15363182 -0.0046656229 -0.00088876938)
(0.033627141 -0.0059111365 -0.0013538674)
(-0.15384892 -0.0068351342 -0.002145247)
(-0.34884711 -0.0074982341 -0.003161776)
(-0.50091964 -0.0079809888 -0.0041663813)
(-0.59968419 -0.0083102758 -0.0048894615)
(0.05500624 -0.00045131165 -8.167589e-05)
(0.14010725 -0.0014332479 -0.00023945512)
(0.1849214 -0.0025805973 -0.00035869372)
(0.15473054 -0.0037335109 -0.00051664801)