/*--------------------------------*- C++ -*----------------------------------*\
  =========                 |
  \\      /  F ield         | OpenFOAM: The Open Source CFD Toolbox
   \\    /   O peration     | Website:  https://openfoam.org
    \\  /    A nd           | Version:  10
     \\/     M anipulation  |
\*---------------------------------------------------------------------------*/
FoamFile
{
    format      ascii;
    class       volScalarField;
    location    "33.5";
    object      T;
}
// * * * * * * * * * * * * * * * * * * * * * * * * * * * * * * * * * * * * * //

dimensions      [0 0 0 1 0 0 0];

internalField   nonuniform List<scalar> 
10000
(
374.986
361.294
356.616
354.567
353.457
352.758
352.272
351.91
351.627
351.399
351.208
351.046
350.906
350.782
350.672
350.572
350.481
350.397
350.319
350.247
350.179
350.115
350.054
349.997
349.942
349.889
349.839
349.79
349.743
349.698
349.655
349.612
349.571
349.532
349.493
349.455
349.419
349.383
349.348
349.314
349.281
349.249
349.217
349.187
349.157
349.127
349.099
349.071
349.043
349.017
348.99
348.965
348.94
348.916
348.892
348.869
348.846
348.824
348.803
348.782
348.762
348.742
348.723
348.704
348.686
348.668
348.651
348.635
348.619
348.603
348.588
348.574
348.56
348.546
348.533
348.521
348.509
348.498
348.487
348.476
348.466
348.457
348.448
348.44
348.432
348.425
348.418
348.412
348.406
348.401
348.396
348.392
348.388
348.385
348.382
348.379
348.378
348.376
348.376
348.375
388.618
374.866
367.218
362.762
359.96
358.06
356.689
355.648
354.826
354.156
353.596
353.117
352.7
352.332
352.003
351.705
351.434
351.183
350.951
350.735
350.532
350.34
350.159
349.986
349.821
349.664
349.513
349.368
349.227
349.092
348.961
348.835
348.712
348.593
348.477
348.364
348.254
348.147
348.043
347.942
347.842
347.746
347.651
347.559
347.469
347.381
347.295
347.211
347.129
347.049
346.97
346.894
346.819
346.746
346.675
346.606
346.538
346.472
346.408
346.345
346.284
346.225
346.167
346.111
346.057
346.004
345.953
345.903
345.855
345.808
345.763
345.72
345.678
345.638
345.599
345.562
345.526
345.492
345.459
345.428
345.399
345.371
345.344
345.319
345.296
345.274
345.253
345.235
345.217
345.201
345.187
345.174
345.163
345.153
345.145
345.138
345.132
345.129
345.126
345.126
393.236
382.335
374.628
369.305
365.56
362.834
360.777
359.169
357.875
356.806
355.903
355.126
354.447
353.845
353.305
352.815
352.367
351.953
351.57
351.211
350.875
350.557
350.256
349.97
349.696
349.435
349.183
348.942
348.709
348.484
348.266
348.056
347.851
347.653
347.46
347.272
347.09
346.912
346.738
346.569
346.404
346.243
346.085
345.932
345.782
345.635
345.492
345.352
345.215
345.082
344.951
344.824
344.7
344.578
344.46
344.344
344.232
344.122
344.015
343.91
343.809
343.71
343.614
343.52
343.43
343.341
343.256
343.173
343.093
343.016
342.941
342.868
342.798
342.731
342.667
342.605
342.545
342.488
342.434
342.382
342.333
342.286
342.242
342.201
342.161
342.125
342.091
342.059
342.03
342.004
341.98
341.959
341.94
341.923
341.909
341.898
341.889
341.883
341.879
341.878
395.225
386.612
379.653
374.271
370.142
366.941
364.415
362.377
360.699
359.29
358.085
357.039
356.118
355.297
354.557
353.884
353.266
352.695
352.164
351.668
351.2
350.759
350.34
349.942
349.561
349.196
348.846
348.509
348.185
347.871
347.567
347.273
346.987
346.71
346.441
346.178
345.923
345.674
345.432
345.195
344.964
344.739
344.519
344.304
344.094
343.889
343.689
343.493
343.302
343.115
342.933
342.754
342.581
342.411
342.245
342.083
341.926
341.772
341.622
341.476
341.334
341.196
341.061
340.931
340.804
340.68
340.561
340.445
340.333
340.224
340.119
340.018
339.921
339.827
339.736
339.649
339.566
339.487
339.411
339.338
339.269
339.204
339.142
339.084
339.029
338.978
338.93
338.886
338.846
338.809
338.775
338.745
338.719
338.696
338.676
338.661
338.648
338.639
338.634
338.632
396.276
389.236
383.1
377.983
373.795
370.375
367.564
365.226
363.255
361.57
360.11
358.828
357.69
356.669
355.744
354.898
354.12
353.399
352.727
352.097
351.503
350.941
350.407
349.899
349.413
348.947
348.499
348.068
347.652
347.25
346.862
346.484
346.119
345.763
345.418
345.081
344.754
344.434
344.123
343.82
343.523
343.234
342.952
342.676
342.406
342.143
341.886
341.634
341.389
341.149
340.915
340.686
340.463
340.245
340.032
339.824
339.621
339.424
339.232
339.044
338.861
338.684
338.511
338.343
338.18
338.022
337.868
337.719
337.575
337.435
337.301
337.171
337.045
336.924
336.808
336.697
336.59
336.488
336.39
336.297
336.208
336.124
336.045
335.97
335.9
335.834
335.773
335.716
335.664
335.617
335.573
335.535
335.501
335.472
335.447
335.426
335.41
335.399
335.392
335.39
396.915
390.958
385.529
380.768
376.681
373.202
370.241
367.709
365.527
363.627
361.957
360.475
359.147
357.947
356.853
355.849
354.92
354.057
353.25
352.492
351.776
351.098
350.452
349.837
349.248
348.683
348.139
347.616
347.11
346.622
346.148
345.69
345.244
344.811
344.39
343.98
343.581
343.192
342.813
342.442
342.081
341.728
341.384
341.047
340.718
340.397
340.083
339.777
339.477
339.184
338.898
338.619
338.346
338.08
337.82
337.567
337.319
337.078
336.843
336.614
336.391
336.174
335.963
335.758
335.559
335.366
335.178
334.996
334.82
334.65
334.485
334.326
334.173
334.026
333.884
333.748
333.617
333.492
333.373
333.259
333.151
333.048
332.951
332.86
332.774
332.694
332.619
332.55
332.486
332.428
332.376
332.329
332.287
332.251
332.221
332.196
332.176
332.163
332.154
332.151
397.343
392.151
387.29
382.88
378.959
375.511
372.491
369.845
367.517
365.456
363.619
361.97
360.479
359.121
357.875
356.726
355.659
354.663
353.728
352.848
352.016
351.225
350.472
349.753
349.063
348.402
347.765
347.15
346.557
345.983
345.427
344.887
344.363
343.854
343.358
342.875
342.405
341.947
341.499
341.063
340.637
340.221
339.815
339.418
339.03
338.651
338.281
337.919
337.566
337.22
336.883
336.553
336.232
335.917
335.611
335.311
335.019
334.735
334.457
334.187
333.924
333.668
333.419
333.177
332.942
332.713
332.492
332.277
332.069
331.868
331.674
331.486
331.305
331.131
330.964
330.803
330.649
330.501
330.36
330.226
330.098
329.977
329.863
329.755
329.654
329.559
329.47
329.389
329.314
329.245
329.183
329.127
329.078
329.036
329
328.971
328.948
328.931
328.921
328.918
397.645
393.014
388.602
384.503
380.764
377.392
374.37
371.665
369.241
367.063
365.096
363.311
361.681
360.185
358.805
357.524
356.329
355.21
354.156
353.161
352.218
351.32
350.463
349.643
348.857
348.101
347.373
346.67
345.99
345.332
344.694
344.075
343.474
342.889
342.32
341.765
341.225
340.697
340.183
339.681
339.191
338.713
338.245
337.788
337.342
336.906
336.479
336.063
335.656
335.258
334.869
334.49
334.119
333.757
333.404
333.059
332.723
332.395
332.075
331.764
331.46
331.165
330.878
330.599
330.328
330.065
329.81
329.562
329.323
329.091
328.867
328.651
328.443
328.242
328.049
327.863
327.686
327.516
327.353
327.198
327.051
326.912
326.78
326.655
326.538
326.429
326.327
326.233
326.147
326.067
325.996
325.932
325.875
325.826
325.785
325.751
325.725
325.706
325.694
325.69
397.869
393.658
389.601
385.768
382.204
378.926
375.932
373.204
370.722
368.46
366.394
364.498
362.753
361.138
359.639
358.239
356.928
355.695
354.531
353.428
352.379
351.379
350.423
349.506
348.626
347.779
346.962
346.172
345.409
344.669
343.951
343.254
342.576
341.917
341.275
340.649
340.039
339.444
338.864
338.297
337.743
337.203
336.674
336.158
335.653
335.16
334.678
334.207
333.747
333.297
332.858
332.428
332.009
331.599
331.2
330.81
330.429
330.058
329.696
329.344
329.001
328.667
328.342
328.026
327.72
327.422
327.133
326.853
326.582
326.319
326.066
325.821
325.585
325.358
325.14
324.93
324.728
324.536
324.352
324.177
324.01
323.852
323.703
323.562
323.43
323.306
323.191
323.084
322.986
322.897
322.816
322.743
322.679
322.624
322.577
322.538
322.508
322.487
322.474
322.47
398.038
394.152
390.375
386.765
383.36
380.179
377.228
374.501
371.986
369.666
367.523
365.539
363.696
361.98
360.376
358.871
357.455
356.117
354.85
353.645
352.497
351.4
350.349
349.34
348.369
347.434
346.531
345.657
344.811
343.991
343.195
342.421
341.668
340.936
340.222
339.527
338.848
338.187
337.54
336.909
336.293
335.691
335.102
334.527
333.965
333.415
332.878
332.353
331.84
331.338
330.848
330.369
329.902
329.445
328.999
328.564
328.14
327.726
327.322
326.929
326.546
326.173
325.811
325.459
325.116
324.784
324.462
324.149
323.847
323.554
323.271
322.998
322.734
322.481
322.237
322.003
321.778
321.563
321.358
321.162
320.976
320.8
320.633
320.476
320.328
320.19
320.062
319.943
319.833
319.733
319.643
319.562
319.49
319.429
319.376
319.333
319.3
319.276
319.262
319.257
398.17
394.536
390.984
387.559
384.292
381.203
378.302
375.589
373.058
370.698
368.497
366.441
364.518
362.714
361.019
359.42
357.908
356.474
355.111
353.812
352.571
351.382
350.24
349.143
348.085
347.065
346.078
345.123
344.197
343.298
342.425
341.577
340.751
339.946
339.163
338.398
337.652
336.924
336.213
335.519
334.84
334.177
333.529
332.896
332.276
331.671
331.079
330.5
329.934
329.382
328.841
328.313
327.798
327.294
326.802
326.322
325.854
325.398
324.953
324.519
324.097
323.685
323.286
322.897
322.519
322.152
321.797
321.452
321.118
320.795
320.483
320.181
319.891
319.611
319.341
319.083
318.835
318.598
318.371
318.156
317.95
317.756
317.571
317.398
317.235
317.083
316.941
316.809
316.688
316.578
316.478
316.389
316.31
316.242
316.184
316.137
316.1
316.074
316.058
316.052
398.273
394.839
391.468
388.195
385.047
382.042
379.191
376.498
373.961
371.574
369.328
367.215
365.225
363.346
361.57
359.887
358.288
356.767
355.316
353.928
352.599
351.323
350.096
348.914
347.773
346.67
345.603
344.568
343.565
342.59
341.642
340.72
339.823
338.948
338.095
337.262
336.45
335.657
334.882
334.125
333.385
332.662
331.955
331.264
330.588
329.927
329.281
328.649
328.031
327.427
326.837
326.261
325.697
325.147
324.61
324.085
323.574
323.075
322.588
322.114
321.653
321.203
320.766
320.341
319.928
319.527
319.139
318.762
318.397
318.043
317.702
317.372
317.055
316.749
316.454
316.172
315.901
315.641
315.394
315.157
314.933
314.72
314.519
314.329
314.151
313.984
313.829
313.685
313.553
313.432
313.323
313.226
313.139
313.065
313.001
312.95
312.909
312.881
312.863
312.857
398.355
395.081
391.856
388.708
385.66
382.728
379.925
377.254
374.717
372.311
370.032
367.872
365.824
363.88
362.033
360.275
358.598
356.996
355.463
353.994
352.582
351.224
349.915
348.652
347.431
346.249
345.104
343.993
342.914
341.866
340.845
339.851
338.883
337.939
337.018
336.12
335.242
334.385
333.547
332.728
331.928
331.145
330.38
329.632
328.9
328.184
327.484
326.8
326.13
325.476
324.836
324.211
323.601
323.004
322.422
321.853
321.299
320.758
320.23
319.716
319.215
318.728
318.254
317.793
317.345
316.91
316.488
316.079
315.683
315.3
314.93
314.572
314.227
313.895
313.576
313.269
312.975
312.694
312.425
312.169
311.925
311.694
311.476
311.27
311.076
310.895
310.727
310.571
310.428
310.297
310.178
310.072
309.979
309.898
309.829
309.773
309.729
309.698
309.679
309.672
398.421
395.274
392.167
389.122
386.158
383.29
380.528
377.88
375.346
372.927
370.62
368.421
366.324
364.324
362.414
360.588
358.84
357.164
355.556
354.009
352.52
351.085
349.698
348.358
347.06
345.803
344.583
343.397
342.245
341.125
340.033
338.97
337.933
336.921
335.934
334.97
334.028
333.107
332.208
331.328
330.468
329.627
328.804
327.999
327.212
326.442
325.689
324.952
324.232
323.528
322.839
322.166
321.509
320.866
320.239
319.627
319.029
318.446
317.878
317.324
316.785
316.26
315.749
315.252
314.769
314.301
313.846
313.405
312.979
312.566
312.166
311.781
311.409
311.051
310.707
310.377
310.06
309.756
309.466
309.19
308.928
308.679
308.443
308.221
308.012
307.817
307.636
307.468
307.313
307.172
307.044
306.93
306.829
306.742
306.668
306.607
306.56
306.526
306.506
306.499
398.473
395.43
392.418
389.457
386.562
383.747
381.022
378.394
375.864
373.435
371.106
368.873
366.734
364.683
362.717
360.829
359.016
357.273
355.594
353.976
352.414
350.905
349.445
348.031
346.66
345.33
344.037
342.781
341.558
340.367
339.206
338.075
336.971
335.893
334.84
333.812
332.807
331.825
330.864
329.925
329.006
328.107
327.228
326.367
325.525
324.702
323.896
323.108
322.337
321.583
320.846
320.126
319.422
318.734
318.062
317.406
316.766
316.142
315.533
314.94
314.362
313.799
313.252
312.72
312.203
311.7
311.213
310.741
310.283
309.841
309.413
309
308.602
308.218
307.849
307.494
307.155
306.829
306.519
306.223
305.941
305.674
305.422
305.184
304.96
304.751
304.556
304.376
304.211
304.059
303.922
303.8
303.692
303.598
303.519
303.454
303.403
303.367
303.345
303.337
398.516
395.554
392.619
389.726
386.888
384.118
381.423
378.811
376.286
373.849
371.5
369.238
367.06
364.965
362.948
361.005
359.132
357.325
355.581
353.896
352.265
350.687
349.157
347.673
346.232
344.831
343.469
342.143
340.851
339.592
338.365
337.167
335.997
334.855
333.738
332.647
331.581
330.537
329.517
328.519
327.542
326.586
325.65
324.735
323.839
322.963
322.105
321.266
320.445
319.642
318.857
318.09
317.34
316.607
315.891
315.192
314.51
313.845
313.196
312.563
311.947
311.347
310.764
310.196
309.645
309.109
308.59
308.086
307.598
307.126
306.67
306.229
305.804
305.395
305.002
304.624
304.261
303.914
303.583
303.267
302.967
302.682
302.413
302.159
301.92
301.697
301.49
301.297
301.12
300.959
300.813
300.682
300.567
300.467
300.382
300.313
300.259
300.22
300.197
300.189
398.549
395.654
392.78
389.942
387.15
384.415
381.746
379.147
376.624
374.178
371.812
369.523
367.312
365.176
363.112
361.117
359.189
357.324
355.519
353.77
352.075
350.431
348.834
347.283
345.775
344.307
342.877
341.484
340.126
338.802
337.509
336.246
335.012
333.807
332.628
331.475
330.348
329.245
328.166
327.109
326.075
325.064
324.073
323.103
322.154
321.225
320.316
319.427
318.557
317.705
316.873
316.059
315.263
314.486
313.727
312.985
312.261
311.555
310.866
310.195
309.541
308.905
308.285
307.682
307.097
306.528
305.977
305.442
304.924
304.423
303.938
303.47
303.019
302.584
302.166
301.765
301.38
301.012
300.66
300.324
300.005
299.703
299.416
299.147
298.893
298.656
298.436
298.232
298.044
297.872
297.717
297.578
297.456
297.35
297.26
297.186
297.129
297.088
297.063
297.054
398.576
395.732
392.908
390.113
387.357
384.651
382
379.411
376.889
374.435
372.051
369.738
367.496
365.322
363.215
361.173
359.193
357.273
355.41
353.602
351.846
350.139
348.479
346.863
345.29
343.757
342.263
340.806
339.383
337.994
336.638
335.312
334.016
332.749
331.509
330.297
329.11
327.948
326.811
325.698
324.608
323.54
322.496
321.472
320.471
319.49
318.531
317.591
316.672
315.773
314.894
314.034
313.193
312.372
311.569
310.785
310.02
309.274
308.546
307.836
307.144
306.471
305.816
305.179
304.56
303.958
303.375
302.809
302.261
301.731
301.218
300.723
300.246
299.786
299.344
298.919
298.512
298.122
297.75
297.395
297.057
296.737
296.434
296.149
295.881
295.63
295.396
295.18
294.982
294.8
294.636
294.489
294.359
294.247
294.152
294.074
294.013
293.97
293.944
293.934
398.597
395.794
393.007
390.246
387.518
384.833
382.197
379.614
377.09
374.627
372.226
369.89
367.618
365.408
363.261
361.174
359.146
357.175
355.258
353.393
351.579
349.812
348.091
346.414
344.779
343.184
341.627
340.107
338.623
337.172
335.753
334.366
333.009
331.682
330.383
329.111
327.866
326.647
325.453
324.283
323.138
322.017
320.918
319.843
318.789
317.758
316.748
315.76
314.793
313.846
312.92
312.015
311.13
310.265
309.419
308.594
307.788
307.001
306.234
305.486
304.758
304.048
303.358
302.686
302.033
301.399
300.784
300.188
299.61
299.051
298.511
297.989
297.486
297.001
296.535
296.087
295.657
295.246
294.853
294.479
294.123
293.786
293.466
293.165
292.883
292.618
292.372
292.144
291.934
291.743
291.57
291.415
291.278
291.159
291.059
290.977
290.913
290.867
290.84
290.83
398.613
395.841
393.083
390.347
387.64
384.97
382.343
379.763
377.235
374.761
372.344
369.985
367.684
365.441
363.256
361.127
359.053
357.033
355.064
353.146
351.276
349.452
347.674
345.938
344.243
342.588
340.971
339.39
337.845
336.334
334.855
333.408
331.992
330.606
329.248
327.919
326.617
325.341
324.091
322.867
321.668
320.493
319.342
318.215
317.11
316.029
314.97
313.933
312.918
311.925
310.953
310.003
309.073
308.165
307.277
306.411
305.564
304.738
303.932
303.147
302.381
301.636
300.91
300.205
299.519
298.853
298.206
297.58
296.972
296.385
295.817
295.268
294.739
294.23
293.739
293.269
292.817
292.385
291.972
291.579
291.204
290.85
290.514
290.197
289.9
289.622
289.363
289.124
288.903
288.702
288.52
288.357
288.213
288.088
287.983
287.896
287.829
287.781
287.752
287.742
398.624
395.875
393.139
390.421
387.729
385.069
382.446
379.866
377.331
374.846
372.411
370.029
367.7
365.425
363.203
361.034
358.917
356.85
354.832
352.863
350.94
349.062
347.227
345.434
343.682
341.969
340.294
338.655
337.051
335.481
333.944
332.439
330.965
329.521
328.107
326.721
325.363
324.032
322.728
321.45
320.197
318.969
317.767
316.588
315.434
314.303
313.195
312.11
311.049
310.009
308.992
307.998
307.025
306.074
305.144
304.236
303.35
302.485
301.641
300.818
300.016
299.235
298.475
297.735
297.017
296.319
295.641
294.984
294.348
293.732
293.137
292.562
292.007
291.473
290.959
290.466
289.992
289.539
289.107
288.694
288.302
287.929
287.578
287.246
286.934
286.643
286.371
286.12
285.889
285.678
285.487
285.316
285.165
285.034
284.924
284.833
284.763
284.712
284.682
284.671
398.632
395.899
393.177
390.471
387.788
385.133
382.512
379.928
377.385
374.886
372.433
370.028
367.672
365.365
363.108
360.9
358.741
356.629
354.565
352.546
350.573
348.642
346.754
344.906
343.099
341.33
339.598
337.902
336.241
334.614
333.02
331.459
329.929
328.429
326.958
325.517
324.104
322.719
321.362
320.031
318.726
317.447
316.193
314.964
313.76
312.581
311.425
310.293
309.185
308.1
307.039
306
304.984
303.991
303.02
302.072
301.146
300.242
299.36
298.5
297.662
296.846
296.052
295.279
294.528
293.798
293.09
292.403
291.738
291.094
290.472
289.87
289.291
288.732
288.195
287.679
287.184
286.71
286.257
285.826
285.415
285.026
284.658
284.311
283.985
283.68
283.396
283.134
282.892
282.671
282.471
282.293
282.135
281.998
281.882
281.788
281.714
281.661
281.629
281.618
398.638
395.914
393.2
390.501
387.822
385.168
382.544
379.954
377.4
374.886
372.414
369.986
367.603
365.265
362.974
360.728
358.529
356.374
354.265
352.199
350.176
348.195
346.255
344.355
342.494
340.67
338.884
337.133
335.417
333.735
332.085
330.469
328.883
327.329
325.804
324.309
322.842
321.404
319.994
318.611
317.255
315.925
314.621
313.343
312.09
310.863
309.66
308.482
307.328
306.198
305.093
304.011
302.952
301.918
300.906
299.918
298.953
298.01
297.091
296.195
295.321
294.47
293.641
292.836
292.052
291.291
290.553
289.837
289.143
288.471
287.822
287.195
286.59
286.007
285.446
284.908
284.392
283.897
283.425
282.975
282.547
282.141
281.756
281.394
281.054
280.736
280.44
280.166
279.913
279.683
279.474
279.288
279.123
278.981
278.86
278.761
278.684
278.629
278.596
278.584
398.64
395.921
393.211
390.514
387.835
385.178
382.548
379.948
377.382
374.852
372.36
369.908
367.498
365.129
362.804
360.522
358.284
356.088
353.934
351.823
349.753
347.723
345.733
343.782
341.869
339.993
338.153
336.348
334.579
332.843
331.14
329.469
327.83
326.222
324.644
323.096
321.577
320.087
318.625
317.191
315.784
314.404
313.052
311.725
310.424
309.15
307.9
306.676
305.478
304.304
303.155
302.03
300.93
299.854
298.802
297.774
296.77
295.79
294.834
293.901
292.992
292.107
291.245
290.406
289.591
288.799
288.031
287.285
286.563
285.864
285.188
284.535
283.906
283.299
282.715
282.155
281.617
281.102
280.611
280.142
279.696
279.273
278.873
278.496
278.142
277.811
277.502
277.217
276.954
276.714
276.497
276.303
276.131
275.983
275.857
275.754
275.674
275.616
275.582
275.57
398.64
395.922
393.211
390.511
387.828
385.165
382.527
379.915
377.334
374.786
372.273
369.797
367.359
364.961
362.603
360.285
358.008
355.772
353.576
351.42
349.304
347.227
345.189
343.188
341.225
339.298
337.406
335.55
333.728
331.939
330.184
328.461
326.769
325.109
323.479
321.879
320.309
318.768
317.255
315.771
314.315
312.886
311.485
310.111
308.763
307.442
306.147
304.878
303.635
302.417
301.225
300.058
298.917
297.8
296.709
295.642
294.6
293.583
292.59
291.621
290.678
289.758
288.863
287.992
287.145
286.323
285.524
284.75
284
283.273
282.571
281.893
281.239
280.608
280.002
279.419
278.861
278.326
277.815
277.328
276.865
276.425
276.009
275.618
275.249
274.905
274.584
274.288
274.015
273.765
273.54
273.338
273.16
273.005
272.874
272.767
272.684
272.624
272.588
272.576
398.638
395.916
393.201
390.496
387.805
385.133
382.483
379.858
377.26
374.693
372.158
369.657
367.192
364.763
362.372
360.02
357.705
355.429
353.192
350.993
348.833
346.71
344.624
342.576
340.563
338.587
336.645
334.738
332.865
331.026
329.219
327.444
325.702
323.99
322.309
320.659
319.038
317.447
315.885
314.352
312.847
311.371
309.922
308.501
307.107
305.74
304.4
303.086
301.799
300.539
299.305
298.096
296.914
295.757
294.627
293.521
292.442
291.388
290.359
289.355
288.377
287.424
286.496
285.593
284.715
283.862
283.034
282.231
281.453
280.7
279.972
279.268
278.59
277.936
277.307
276.703
276.123
275.569
275.039
274.533
274.053
273.597
273.166
272.759
272.377
272.02
271.687
271.379
271.096
270.837
270.603
270.394
270.209
270.049
269.913
269.802
269.715
269.653
269.616
269.603
398.635
395.905
393.182
390.468
387.768
385.084
382.42
379.779
377.163
374.576
372.018
369.491
366.998
364.54
362.116
359.728
357.377
355.063
352.785
350.544
348.34
346.173
344.041
341.946
339.886
337.861
335.871
333.915
331.992
330.103
328.246
326.421
324.628
322.867
321.137
319.437
317.767
316.127
314.516
312.935
311.382
309.858
308.363
306.895
305.456
304.044
302.66
301.303
299.973
298.67
297.394
296.145
294.922
293.726
292.557
291.413
290.297
289.206
288.141
287.103
286.091
285.104
284.144
283.209
282.301
281.418
280.561
279.73
278.924
278.145
277.391
276.662
275.96
275.283
274.631
274.006
273.406
272.831
272.282
271.759
271.261
270.789
270.342
269.921
269.526
269.156
268.811
268.492
268.199
267.931
267.688
267.471
267.28
267.114
266.973
266.858
266.769
266.705
266.666
266.652
398.63
395.89
393.156
390.431
387.718
385.02
382.34
379.681
377.046
374.436
371.855
369.302
366.781
364.292
361.836
359.414
357.027
354.674
352.357
350.075
347.829
345.618
343.442
341.301
339.194
337.122
335.084
333.08
331.109
329.171
327.265
325.392
323.55
321.74
319.961
318.212
316.494
314.806
313.148
311.519
309.92
308.35
306.808
305.296
303.811
302.355
300.927
299.527
298.155
296.81
295.493
294.204
292.942
291.707
290.499
289.319
288.165
287.038
285.939
284.866
283.82
282.801
281.808
280.843
279.904
278.991
278.105
277.246
276.414
275.608
274.828
274.075
273.349
272.649
271.976
271.329
270.708
270.114
269.547
269.006
268.491
268.003
267.541
267.105
266.696
266.313
265.957
265.627
265.324
265.047
264.796
264.571
264.373
264.202
264.056
263.937
263.845
263.778
263.738
263.724
398.623
395.871
393.124
390.384
387.656
384.942
382.245
379.567
376.91
374.278
371.672
369.093
366.543
364.023
361.535
359.079
356.656
354.266
351.91
349.588
347.3
345.046
342.826
340.641
338.489
336.371
334.287
332.236
330.218
328.232
326.279
324.357
322.468
320.61
318.783
316.987
315.221
313.486
311.782
310.107
308.461
306.846
305.259
303.702
302.173
300.674
299.203
297.761
296.347
294.961
293.604
292.275
290.973
289.7
288.455
287.237
286.047
284.885
283.751
282.644
281.565
280.514
279.49
278.493
277.524
276.582
275.668
274.781
273.922
273.09
272.286
271.508
270.758
270.036
269.341
268.673
268.032
267.419
266.833
266.274
265.742
265.238
264.761
264.312
263.889
263.494
263.126
262.785
262.472
262.186
261.927
261.695
261.49
261.313
261.163
261.04
260.944
260.876
260.835
260.82
398.616
395.848
393.085
390.33
387.585
384.853
382.136
379.437
376.759
374.103
371.471
368.865
366.286
363.736
361.215
358.725
356.266
353.84
351.445
349.084
346.755
344.46
342.197
339.968
337.773
335.61
333.48
331.383
329.318
327.286
325.286
323.318
321.382
319.477
317.604
315.761
313.949
312.168
310.418
308.697
307.007
305.346
303.716
302.115
300.543
299.001
297.488
296.004
294.549
293.123
291.726
290.357
289.017
287.706
286.424
285.17
283.945
282.748
281.579
280.439
279.327
278.243
277.188
276.161
275.163
274.192
273.25
272.336
271.45
270.592
269.763
268.962
268.188
267.443
266.727
266.038
265.377
264.745
264.141
263.565
263.016
262.497
262.005
261.541
261.105
260.698
260.318
259.967
259.644
259.349
259.081
258.842
258.631
258.449
258.294
258.167
258.068
257.998
257.955
257.94
398.607
395.822
393.042
390.269
387.505
384.753
382.015
379.295
376.593
373.912
371.254
368.62
366.012
363.431
360.878
358.355
355.861
353.397
350.965
348.565
346.196
343.86
341.556
339.284
337.045
334.838
332.664
330.522
328.413
326.335
324.29
322.276
320.294
318.343
316.424
314.536
312.678
310.852
309.057
307.292
305.557
303.853
302.179
300.534
298.92
297.336
295.781
294.257
292.761
291.295
289.859
288.452
287.075
285.726
284.407
283.118
281.857
280.626
279.423
278.25
277.106
275.991
274.905
273.848
272.82
271.821
270.851
269.91
268.998
268.115
267.261
266.436
265.64
264.873
264.135
263.426
262.745
262.094
261.472
260.878
260.314
259.778
259.272
258.794
258.346
257.926
257.535
257.173
256.84
256.536
256.261
256.015
255.797
255.609
255.449
255.319
255.217
255.144
255.1
255.085
398.598
395.794
392.995
390.202
387.417
384.644
381.885
379.141
376.415
373.708
371.023
368.361
365.724
363.112
360.527
357.969
355.44
352.941
350.472
348.033
345.625
343.249
340.903
338.59
336.309
334.059
331.841
329.655
327.501
325.379
323.289
321.231
319.204
317.208
315.244
313.311
311.41
309.539
307.699
305.891
304.113
302.365
300.648
298.962
297.306
295.681
294.085
292.52
290.985
289.48
288.005
286.561
285.146
283.761
282.406
281.081
279.785
278.52
277.284
276.079
274.903
273.757
272.64
271.554
270.497
269.47
268.472
267.505
266.567
265.659
264.781
263.932
263.114
262.325
261.566
260.836
260.136
259.467
258.826
258.216
257.635
257.084
256.563
256.072
255.61
255.179
254.776
254.404
254.062
253.749
253.466
253.212
252.989
252.795
252.631
252.496
252.392
252.317
252.272
252.256
398.588
395.763
392.943
390.129
387.323
384.528
381.745
378.977
376.226
373.493
370.78
368.09
365.422
362.779
360.161
357.571
355.007
352.472
349.966
347.489
345.043
342.627
340.241
337.887
335.564
333.272
331.012
328.783
326.586
324.42
322.286
320.184
318.113
316.073
314.065
312.089
310.144
308.229
306.347
304.495
302.674
300.885
299.126
297.398
295.701
294.035
292.4
290.795
289.221
287.677
286.165
284.683
283.231
281.81
280.42
279.06
277.73
276.431
275.163
273.925
272.718
271.541
270.395
269.279
268.194
267.139
266.115
265.121
264.158
263.225
262.323
261.451
260.61
259.8
259.02
258.27
257.551
256.863
256.205
255.578
254.981
254.415
253.88
253.375
252.901
252.457
252.044
251.661
251.309
250.987
250.697
250.436
250.206
250.007
249.839
249.7
249.593
249.516
249.469
249.453
398.577
395.731
392.888
390.052
387.223
384.404
381.597
378.804
376.027
373.267
370.526
367.807
365.109
362.435
359.785
357.16
354.563
351.992
349.45
346.936
344.451
341.996
339.571
337.176
334.812
332.479
330.177
327.906
325.667
323.458
321.281
319.136
317.022
314.939
312.888
310.869
308.881
306.924
304.999
303.105
301.243
299.412
297.612
295.843
294.106
292.4
290.725
289.081
287.469
285.888
284.338
282.819
281.331
279.875
278.449
277.055
275.692
274.36
273.06
271.79
270.552
269.345
268.169
267.025
265.911
264.829
263.778
262.759
261.77
260.813
259.888
258.993
258.13
257.298
256.498
255.729
254.991
254.284
253.609
252.965
252.353
251.772
251.222
250.704
250.217
249.761
249.337
248.944
248.583
248.253
247.954
247.687
247.451
247.246
247.073
246.932
246.821
246.742
246.694
246.678
398.565
395.696
392.831
389.97
387.118
384.274
381.442
378.623
375.819
373.032
370.263
367.514
364.786
362.08
359.398
356.74
354.108
351.502
348.924
346.373
343.851
341.358
338.894
336.459
334.055
331.682
329.338
327.026
324.745
322.495
320.276
318.088
315.932
313.807
311.714
309.652
307.622
305.624
303.657
301.722
299.818
297.947
296.106
294.298
292.521
290.776
289.062
287.38
285.73
284.112
282.525
280.97
279.447
277.955
276.496
275.068
273.672
272.307
270.975
269.674
268.406
267.169
265.964
264.791
263.65
262.541
261.464
260.419
259.406
258.425
257.476
256.559
255.674
254.821
254
253.212
252.455
251.731
251.038
250.378
249.75
249.155
248.591
248.059
247.56
247.093
246.658
246.255
245.884
245.546
245.239
244.965
244.723
244.514
244.336
244.191
244.077
243.996
243.947
243.93
398.553
395.66
392.77
389.886
387.008
384.139
381.281
378.436
375.604
372.789
369.991
367.212
364.454
361.716
359.002
356.311
353.645
351.004
348.39
345.803
343.244
340.713
338.21
335.737
333.294
330.88
328.497
326.144
323.822
321.53
319.27
317.041
314.844
312.678
310.543
308.44
306.369
304.33
302.322
300.346
298.402
296.49
294.611
292.763
290.947
289.163
287.412
285.692
284.005
282.35
280.727
279.137
277.578
276.053
274.559
273.098
271.669
270.273
268.909
267.578
266.28
265.013
263.78
262.579
261.411
260.275
259.172
258.102
257.065
256.06
255.088
254.149
253.242
252.369
251.528
250.72
249.945
249.203
248.494
247.818
247.175
246.564
245.987
245.442
244.93
244.452
244.006
243.593
243.213
242.867
242.553
242.272
242.024
241.809
241.627
241.478
241.362
241.279
241.229
241.211
398.541
395.623
392.708
389.798
386.894
383.999
381.115
378.242
375.383
372.539
369.712
366.903
364.114
361.345
358.598
355.875
353.175
350.499
347.85
345.227
342.631
340.062
337.522
335.011
332.528
330.075
327.653
325.26
322.898
320.566
318.266
315.996
313.758
311.551
309.376
307.233
305.121
303.041
300.994
298.978
296.995
295.044
293.125
291.238
289.384
287.563
285.774
284.018
282.294
280.603
278.945
277.319
275.727
274.167
272.64
271.147
269.686
268.258
266.864
265.502
264.174
262.879
261.617
260.389
259.194
258.032
256.904
255.809
254.747
253.719
252.725
251.764
250.836
249.942
249.082
248.255
247.462
246.703
245.977
245.285
244.626
244.001
243.41
242.853
242.329
241.839
241.383
240.96
240.571
240.216
239.895
239.607
239.354
239.134
238.947
238.795
238.676
238.591
238.539
238.522
398.528
395.584
392.643
389.707
386.777
383.856
380.944
378.044
375.156
372.284
369.427
366.588
363.768
360.968
358.188
355.432
352.698
349.988
347.304
344.645