/*--------------------------------*- C++ -*----------------------------------*\
  =========                 |
  \\      /  F ield         | OpenFOAM: The Open Source CFD Toolbox
   \\    /   O peration     | Website:  https://openfoam.org
    \\  /    A nd           | Version:  10
     \\/     M anipulation  |
\*---------------------------------------------------------------------------*/
FoamFile
{
    format      ascii;
    class       volScalarField;
    location    "33.5";
    object      T_0;
}
// * * * * * * * * * * * * * * * * * * * * * * * * * * * * * * * * * * * * * //

dimensions      [0 0 0 1 0 0 0];

internalField   nonuniform List<scalar> 
10000
(
374.984
361.293
356.615
354.567
353.456
352.757
352.271
351.909
351.626
351.398
351.208
351.046
350.905
350.781
350.671
350.571
350.48
350.396
350.318
350.246
350.178
350.114
350.053
349.996
349.941
349.888
349.837
349.789
349.742
349.697
349.653
349.611
349.57
349.53
349.492
349.454
349.418
349.382
349.347
349.313
349.28
349.248
349.216
349.186
349.155
349.126
349.097
349.069
349.042
349.015
348.989
348.964
348.939
348.915
348.891
348.868
348.845
348.823
348.802
348.781
348.761
348.741
348.721
348.703
348.685
348.667
348.65
348.633
348.617
348.602
348.587
348.572
348.558
348.545
348.532
348.52
348.508
348.496
348.485
348.475
348.465
348.456
348.447
348.439
348.431
348.424
348.417
348.41
348.405
348.399
348.395
348.39
348.386
348.383
348.38
348.378
348.376
348.375
348.374
348.374
388.617
374.866
367.218
362.762
359.96
358.06
356.689
355.648
354.826
354.156
353.596
353.117
352.7
352.332
352.003
351.705
351.433
351.183
350.951
350.735
350.531
350.34
350.158
349.986
349.821
349.663
349.512
349.367
349.227
349.092
348.961
348.834
348.711
348.592
348.476
348.363
348.254
348.147
348.042
347.941
347.842
347.745
347.65
347.558
347.468
347.38
347.294
347.21
347.128
347.048
346.969
346.893
346.818
346.745
346.674
346.605
346.537
346.471
346.407
346.344
346.283
346.224
346.166
346.11
346.056
346.003
345.952
345.902
345.854
345.807
345.762
345.719
345.677
345.637
345.598
345.561
345.525
345.491
345.458
345.427
345.397
345.369
345.343
345.318
345.294
345.273
345.252
345.233
345.216
345.2
345.186
345.173
345.161
345.152
345.143
345.136
345.131
345.127
345.125
345.124
393.235
382.335
374.627
369.305
365.56
362.834
360.776
359.169
357.874
356.805
355.903
355.126
354.446
353.844
353.304
352.814
352.366
351.953
351.569
351.21
350.874
350.556
350.255
349.968
349.695
349.433
349.182
348.94
348.708
348.483
348.265
348.054
347.85
347.651
347.458
347.271
347.088
346.91
346.736
346.567
346.402
346.241
346.083
345.93
345.78
345.633
345.49
345.35
345.213
345.08
344.949
344.822
344.697
344.576
344.458
344.342
344.229
344.119
344.012
343.908
343.806
343.707
343.611
343.518
343.427
343.339
343.254
343.171
343.091
343.013
342.938
342.866
342.796
342.729
342.664
342.602
342.543
342.486
342.431
342.38
342.33
342.284
342.239
342.198
342.159
342.122
342.088
342.057
342.028
342.001
341.977
341.956
341.937
341.921
341.907
341.895
341.886
341.88
341.876
341.875
395.224
386.612
379.652
374.27
370.141
366.941
364.414
362.376
360.698
359.289
358.084
357.038
356.117
355.296
354.556
353.882
353.265
352.694
352.163
351.666
351.199
350.758
350.339
349.94
349.559
349.195
348.845
348.508
348.183
347.869
347.565
347.271
346.985
346.708
346.438
346.176
345.921
345.672
345.429
345.192
344.962
344.736
344.516
344.301
344.091
343.886
343.686
343.49
343.299
343.112
342.93
342.751
342.577
342.408
342.242
342.08
341.923
341.769
341.619
341.473
341.331
341.192
341.058
340.927
340.8
340.677
340.557
340.441
340.329
340.221
340.116
340.015
339.917
339.823
339.732
339.646
339.562
339.483
339.407
339.334
339.265
339.2
339.138
339.08
339.025
338.974
338.926
338.882
338.842
338.805
338.771
338.741
338.715
338.692
338.673
338.657
338.644
338.635
338.63
338.628
396.275
389.236
383.1
377.983
373.795
370.375
367.563
365.225
363.254
361.569
360.109
358.827
357.689
356.668
355.742
354.897
354.119
353.398
352.725
352.095
351.501
350.939
350.405
349.897
349.411
348.945
348.497
348.066
347.65
347.248
346.859
346.482
346.116
345.76
345.415
345.078
344.751
344.431
344.12
343.816
343.52
343.231
342.948
342.672
342.403
342.139
341.882
341.631
341.385
341.145
340.911
340.682
340.459
340.241
340.028
339.82
339.617
339.42
339.227
339.04
338.857
338.679
338.507
338.339
338.175
338.017
337.863
337.715
337.57
337.431
337.296
337.166
337.041
336.92
336.804
336.692
336.585
336.483
336.385
336.292
336.203
336.119
336.04
335.965
335.895
335.829
335.768
335.711
335.659
335.612
335.569
335.53
335.496
335.467
335.442
335.421
335.405
335.394
335.387
335.385
396.914
390.958
385.529
380.768
376.68
373.201
370.241
367.709
365.526
363.626
361.956
360.474
359.146
357.945
356.851
355.847
354.919
354.055
353.248
352.49
351.774
351.095
350.45
349.834
349.245
348.68
348.137
347.613
347.107
346.619
346.145
345.686
345.241
344.808
344.387
343.977
343.578
343.188
342.809
342.439
342.077
341.724
341.38
341.043
340.714
340.393
340.079
339.772
339.472
339.18
338.894
338.614
338.341
338.075
337.815
337.562
337.314
337.073
336.838
336.609
336.386
336.169
335.958
335.753
335.554
335.36
335.173
334.991
334.815
334.644
334.48
334.321
334.168
334.02
333.878
333.742
333.611
333.486
333.367
333.253
333.145
333.043
332.946
332.854
332.768
332.688
332.613
332.544
332.48
332.422
332.37
332.323
332.281
332.245
332.215
332.19
332.17
332.156
332.148
332.145
397.342
392.151
387.29
382.879
378.958
375.51
372.49
369.844
367.516
365.455
363.618
361.969
360.478
359.119
357.873
356.724
355.656
354.66
353.726
352.846
352.013
351.222
350.469
349.75
349.06
348.398
347.761
347.147
346.553
345.979
345.423
344.883
344.359
343.849
343.354
342.871
342.401
341.942
341.495
341.058
340.632
340.216
339.81
339.413
339.025
338.646
338.276
337.914
337.56
337.215
336.877
336.548
336.226
335.912
335.605
335.305
335.014
334.729
334.451
334.181
333.918
333.662
333.413
333.17
332.935
332.707
332.485
332.271
332.063
331.862
331.667
331.48
331.299
331.125
330.957
330.796
330.642
330.494
330.353
330.219
330.091
329.97
329.856
329.748
329.646
329.552
329.463
329.382
329.306
329.238
329.176
329.12
329.071
329.029
328.993
328.963
328.94
328.924
328.914
328.911
397.644
393.014
388.602
384.503
380.764
377.392
374.369
371.663
369.24
367.061
365.094
363.309
361.679
360.183
358.803
357.522
356.327
355.207
354.154
353.158
352.215
351.317
350.46
349.64
348.853
348.097
347.369
346.666
345.986
345.328
344.69
344.071
343.469
342.884
342.315
341.76
341.22
340.692
340.178
339.676
339.186
338.707
338.239
337.783
337.336
336.9
336.473
336.057
335.649
335.252
334.863
334.483
334.112
333.75
333.397
333.052
332.716
332.388
332.068
331.757
331.453
331.158
330.871
330.592
330.321
330.058
329.802
329.555
329.315
329.084
328.86
328.643
328.435
328.234
328.041
327.856
327.678
327.508
327.345
327.19
327.043
326.904
326.772
326.647
326.53
326.421
326.319
326.225
326.138
326.059
325.988
325.924
325.867
325.818
325.777
325.743
325.716
325.697
325.686
325.682
397.868
393.659
389.6
385.768
382.204
378.925
375.931
373.203
370.721
368.459
366.392
364.496
362.75
361.136
359.636
358.237
356.926
355.692
354.528
353.424
352.375
351.375
350.419
349.503
348.622
347.775
346.957
346.168
345.404
344.664
343.946
343.249
342.571
341.911
341.269
340.643
340.033
339.438
338.858
338.291
337.737
337.196
336.668
336.151
335.647
335.154
334.672
334.2
333.74
333.29
332.85
332.421
332.001
331.592
331.192
330.802
330.421
330.05
329.689
329.336
328.993
328.659
328.334
328.018
327.711
327.413
327.124
326.844
326.573
326.311
326.057
325.813
325.576
325.349
325.131
324.921
324.72
324.527
324.343
324.168
324.001
323.843
323.694
323.553
323.42
323.297
323.181
323.075
322.977
322.887
322.806
322.734
322.67
322.614
322.567
322.529
322.499
322.478
322.465
322.46
398.037
394.152
390.375
386.765
383.359
380.178
377.227
374.5
371.985
369.664
367.521
365.536
363.694
361.978
360.373
358.868
357.452
356.114
354.846
353.641
352.493
351.396
350.345
349.336
348.365
347.429
346.526
345.652
344.806
343.986
343.189
342.415
341.663
340.93
340.216
339.521
338.842
338.18
337.534
336.903
336.286
335.684
335.095
334.52
333.958
333.408
332.871
332.345
331.832
331.33
330.84
330.361
329.893
329.437
328.991
328.555
328.131
327.717
327.313
326.92
326.537
326.164
325.802
325.449
325.107
324.775
324.452
324.14
323.837
323.544
323.261
322.988
322.725
322.471
322.227
321.993
321.768
321.553
321.348
321.152
320.966
320.79
320.623
320.466
320.318
320.18
320.051
319.932
319.823
319.723
319.632
319.551
319.48
319.418
319.366
319.323
319.289
319.266
319.251
319.246
398.169
394.536
390.984
387.558
384.291
381.202
378.301
375.588
373.056
370.696
368.494
366.439
364.515
362.712
361.016
359.417
357.904
356.471
355.108
353.808
352.567
351.377
350.236
349.138
348.08
347.059
346.073
345.117
344.191
343.292
342.42
341.571
340.745
339.94
339.156
338.391
337.645
336.917
336.206
335.511
334.833
334.17
333.521
332.888
332.268
331.663
331.071
330.492
329.926
329.373
328.832
328.304
327.789
327.285
326.793
326.313
325.845
325.388
324.943
324.509
324.087
323.675
323.275
322.887
322.509
322.142
321.786
321.441
321.107
320.784
320.472
320.17
319.88
319.6
319.331
319.072
318.824
318.587
318.36
318.144
317.939
317.744
317.56
317.387
317.224
317.071
316.929
316.798
316.677
316.567
316.467
316.377
316.299
316.23
316.173
316.125
316.088
316.062
316.046
316.041
398.272
394.839
391.468
388.194
385.046
382.041
379.19
376.496
373.959
371.571
369.326
367.213
365.222
363.343
361.566
359.883
358.285
356.763
355.312
353.924
352.595
351.318
350.091
348.909
347.767
346.664
345.597
344.562
343.559
342.584
341.636
340.714
339.816
338.941
338.087
337.255
336.443
335.649
334.874
334.117
333.377
332.654
331.947
331.255
330.579
329.918
329.272
328.64
328.022
327.418
326.828
326.251
325.687
325.137
324.6
324.075
323.563
323.064
322.578
322.104
321.642
321.192
320.755
320.33
319.917
319.516
319.127
318.75
318.385
318.032
317.69
317.361
317.043
316.737
316.442
316.16
315.889
315.629
315.381
315.145
314.921
314.708
314.506
314.317
314.138
313.972
313.816
313.673
313.54
313.42
313.311
313.213
313.127
313.052
312.989
312.937
312.897
312.868
312.85
312.844
398.354
395.081
391.855
388.707
385.659
382.727
379.923
377.252
374.715
372.309
370.029
367.869
365.821
363.877
362.029
360.271
358.594
356.992
355.459
353.989
352.577
351.219
349.91
348.646
347.425
346.243
345.098
343.987
342.908
341.859
340.838
339.844
338.876
337.932
337.011
336.112
335.234
334.376
333.538
332.719
331.919
331.136
330.371
329.622
328.89
328.174
327.474
326.789
326.12
325.466
324.826
324.201
323.59
322.993
322.411
321.842
321.287
320.746
320.219
319.704
319.204
318.716
318.242
317.781
317.333
316.898
316.476
316.067
315.671
315.287
314.917
314.559
314.214
313.882
313.563
313.256
312.962
312.681
312.412
312.155
311.912
311.681
311.462
311.256
311.063
310.882
310.713
310.557
310.414
310.283
310.165
310.059
309.965
309.884
309.815
309.759
309.715
309.684
309.665
309.659
398.42
395.274
392.167
389.121
386.157
383.288
380.527
377.878
375.344
372.925
370.617
368.418
366.321
364.32
362.41
360.584
358.835
357.16
355.551
354.004
352.515
351.079
349.692
348.352
347.054
345.796
344.576
343.391
342.238
341.117
340.025
338.962
337.925
336.913
335.925
334.961
334.019
333.098
332.198
331.319
330.458
329.617
328.794
327.989
327.202
326.432
325.678
324.941
324.221
323.517
322.828
322.155
321.497
320.855
320.227
319.615
319.017
318.434
317.866
317.312
316.772
316.247
315.736
315.239
314.756
314.288
313.833
313.392
312.965
312.552
312.153
311.767
311.396
311.037
310.693
310.362
310.045
309.742
309.452
309.176
308.913
308.664
308.429
308.206
307.998
307.803
307.621
307.453
307.299
307.157
307.03
306.915
306.814
306.727
306.653
306.592
306.545
306.511
306.491
306.484
398.472
395.429
392.417
389.456
386.561
383.746
381.021
378.391
375.862
373.432
371.103
368.87
366.73
364.679
362.713
360.825
359.012
357.268
355.589
353.971
352.409
350.899
349.439
348.025
346.654
345.323
344.03
342.773
341.55
340.359
339.198
338.066
336.962
335.884
334.831
333.803
332.798
331.815
330.854
329.915
328.996
328.096
327.217
326.356
325.514
324.69
323.884
323.096
322.325
321.571
320.834
320.113
319.409
318.721
318.049
317.393
316.753
316.129
315.52
314.926
314.348
313.786
313.238
312.706
312.188
311.686
311.199
310.726
310.269
309.826
309.398
308.985
308.587
308.203
307.834
307.479
307.14
306.814
306.504
306.207
305.926
305.659
305.406
305.168
304.945
304.735
304.541
304.361
304.195
304.043
303.906
303.784
303.676
303.582
303.503
303.438
303.387
303.351
303.329
303.322
398.515
395.554
392.619
389.725
386.887
384.116
381.422
378.809
376.283
373.846
371.496
369.234
367.057
364.961
362.943
361
359.127
357.32
355.576
353.89
352.259
350.681
349.15
347.666
346.224
344.824
343.461
342.135
340.843
339.584
338.356
337.158
335.988
334.845
333.729
332.637
331.57
330.527
329.506
328.508
327.531
326.575
325.639
324.723
323.827
322.95
322.093
321.253
320.432
319.629
318.844
318.076
317.326
316.593
315.877
315.178
314.496
313.831
313.182
312.549
311.933
311.333
310.749
310.181
309.63
309.094
308.575
308.071
307.583
307.111
306.654
306.214
305.789
305.379
304.986
304.608
304.245
303.898
303.567
303.251
302.95
302.666
302.396
302.142
301.904
301.68
301.473
301.281
301.104
300.942
300.796
300.665
300.55
300.45
300.365
300.296
300.242
300.203
300.18
300.172
398.548
395.653
392.779
389.941
387.149
384.413
381.743
379.145
376.621
374.175
371.808
369.52
367.308
365.171
363.107
361.112
359.184
357.319
355.513
353.764
352.069
350.424
348.827
347.276
345.767
344.299
342.869
341.476
340.118
338.793
337.499
336.236
335.002
333.797
332.618
331.465
330.337
329.234
328.154
327.098
326.064
325.052
324.061
323.091
322.142
321.213
320.303
319.414
318.543
317.692
316.859
316.045
315.249
314.472
313.712
312.97
312.246
311.54
310.851
310.18
309.526
308.889
308.269
307.667
307.081
306.512
305.961
305.426
304.907
304.406
303.921
303.454
303.002
302.567
302.149
301.748
301.363
300.994
300.642
300.307
299.988
299.685
299.399
299.129
298.876
298.639
298.418
298.214
298.026
297.854
297.699
297.56
297.438
297.332
297.242
297.168
297.111
297.07
297.045
297.036
398.575
395.732
392.907
390.111
387.356
384.649
381.998
379.409
376.886
374.432
372.048
369.734
367.491
365.317
363.21
361.167
359.187
357.267
355.404
353.596
351.839
350.132
348.471
346.855
345.282
343.749
342.255
340.797
339.374
337.985
336.628
335.302
334.006
332.738
331.498
330.285
329.098
327.936
326.799
325.685
324.595
323.528
322.483
321.459
320.458
319.477
318.517
317.577
316.658
315.759
314.879
314.019
313.178
312.357
311.554
310.77
310.005
309.258
308.53
307.82
307.128
306.455
305.799
305.162
304.543
303.941
303.358
302.792
302.244
301.713
301.201
300.706
300.228
299.768
299.326
298.901
298.494
298.104
297.731
297.376
297.039
296.718
296.416
296.13
295.862
295.611
295.378
295.162
294.963
294.781
294.617
294.47
294.34
294.228
294.133
294.055
293.994
293.951
293.924
293.915
398.596
395.794
393.006
390.244
387.517
384.831
382.194
379.611
377.087
374.623
372.223
369.886
367.613
365.403
363.256
361.169
359.14
357.168
355.251
353.386
351.571
349.804
348.083
346.406
344.771
343.175
341.618
340.098
338.613
337.162
335.743
334.356
332.998
331.671
330.371
329.099
327.854
326.634
325.44
324.271
323.125
322.003
320.905
319.829
318.775
317.744
316.734
315.745
314.778
313.831
312.905
311.999
311.114
310.249
309.403
308.577
307.771
306.984
306.217
305.469
304.74
304.031
303.34
302.668
302.015
301.381
300.766
300.17
299.592
299.033
298.492
297.97
297.467
296.982
296.516
296.068
295.638
295.227
294.834
294.46
294.104
293.766
293.447
293.146
292.863
292.598
292.352
292.124
291.914
291.723
291.55
291.395
291.258
291.139
291.039
290.957
290.893
290.847
290.819
290.81
398.611
395.84
393.082
390.346
387.639
384.968
382.341
379.76
377.232
374.758
372.34
369.981
367.679
365.436
363.25
361.121
359.047
357.026
355.057
353.139
351.268
349.444
347.665
345.929
344.234
342.578
340.961
339.38
337.834
336.323
334.844
333.397
331.981
330.594
329.236
327.906
326.604
325.328
324.078
322.854
321.654
320.479
319.328
318.2
317.095
316.014
314.954
313.917
312.902
311.909
310.937
309.986
309.057
308.148
307.26
306.393
305.547
304.72
303.915
303.129
302.363
301.617
300.892
300.186
299.5
298.834
298.187
297.56
296.953
296.365
295.797
295.249
294.72
294.21
293.72
293.249
292.797
292.365
291.952
291.558
291.184
290.829
290.493
290.177
289.879
289.601
289.342
289.103
288.882
288.681
288.499
288.336
288.192
288.067
287.962
287.875
287.808
287.76
287.731
287.721
398.623
395.875
393.138
390.419
387.727
385.066
382.444
379.863
377.328
374.842
372.407
370.025
367.696
365.42
363.198
361.028
358.91
356.843
354.825
352.855
350.932
349.053
347.218
345.425
343.673
341.959
340.284
338.644
337.04
335.47
333.932
332.427
330.953
329.509
328.094
326.708
325.349
324.018
322.714
321.435
320.182
318.955
317.752
316.573
315.418
314.287
313.179
312.094
311.032
309.993
308.975
307.98
307.007
306.056
305.126
304.218
303.332
302.466
301.622
300.799
299.997
299.216
298.455
297.716
296.997
296.299
295.621
294.964
294.328
293.712
293.116
292.541
291.987
291.452
290.938
290.445
289.971
289.518
289.085
288.673
288.28
287.908
287.556
287.224
286.912
286.621
286.349
286.098
285.867
285.656
285.465
285.294
285.143
285.012
284.902
284.811
284.74
284.69
284.659
284.649
398.631
395.899
393.176
390.47
387.786
385.131
382.509
379.924
377.381
374.882
372.429
370.023
367.667
365.36
363.102
360.894
358.734
356.622
354.557
352.539
350.564
348.633
346.745
344.897
343.089
341.319
339.587
337.891
336.23
334.603
333.009
331.447
329.916
328.416
326.945
325.504
324.091
322.705
321.347
320.016
318.711
317.431
316.177
314.948
313.744
312.564
311.408
310.276
309.168
308.083
307.021
305.982
304.966
303.973
303.002
302.053
301.127
300.223
299.341
298.481
297.642
296.826
296.031
295.258
294.507
293.777
293.069
292.382
291.717
291.073
290.45
289.849
289.269
288.71
288.173
287.657
287.162
286.688
286.235
285.803
285.393
285.004
284.636
284.288
283.962
283.657
283.374
283.111
282.869
282.648
282.448
282.27
282.112
281.975
281.859
281.764
281.691
281.638
281.606
281.595
398.636
395.914
393.199
390.5
387.82
385.166
382.541
379.95
377.396
374.882
372.41
369.981
367.598
365.26
362.968
360.722
358.522
356.367
354.257
352.191
350.167
348.186
346.246
344.345
342.484
340.66
338.873
337.121
335.405
333.722
332.073
330.456
328.87
327.315
325.79
324.295
322.828
321.389
319.979
318.595
317.239
315.909
314.605
313.326
312.073
310.845
309.642
308.464
307.31
306.18
305.074
303.992
302.933
301.898
300.887
299.898
298.933
297.99
297.071
296.174
295.3
294.449
293.62
292.814
292.031
291.27
290.531
289.815
289.121
288.449
287.8
287.172
286.567
285.984
285.424
284.885
284.369
283.874
283.402
282.952
282.523
282.117
281.733
281.371
281.031
280.712
280.416
280.142
279.889
279.659
279.45
279.264
279.099
278.957
278.836
278.737
278.66
278.605
278.571
278.56
398.639
395.921
393.21
390.512
387.833
385.176
382.545
379.945
377.378
374.847
372.355
369.903
367.492
365.123
362.798
360.515
358.276
356.08
353.926
351.814
349.744
347.713
345.723
343.772
341.858
339.982
338.141
336.337
334.566
332.83
331.127
329.456
327.816
326.208
324.629
323.081
321.562
320.071
318.609
317.175
315.768
314.388
313.034
311.708
310.407
309.132
307.882
306.658
305.459
304.285
303.135
302.01
300.91
299.834
298.782
297.754
296.75
295.769
294.813
293.88
292.971
292.085
291.223
290.384
289.569
288.777
288.008
287.263
286.54
285.841
285.165
284.512
283.882
283.275
282.692
282.131
281.593
281.078
280.587
280.118
279.672
279.249
278.849
278.472
278.117
277.786
277.477
277.192
276.929
276.689
276.472
276.278
276.106
275.958
275.832
275.729
275.649
275.591
275.557
275.545
398.639
395.921
393.21
390.51
387.826
385.163
382.524
379.912
377.33
374.782
372.268
369.792
367.354
364.955
362.596
360.278
358
355.764
353.567
351.411
349.295
347.217
345.179
343.177
341.214
339.286
337.394
335.538
333.715
331.926
330.17
328.447
326.755
325.094
323.464
321.864
320.293
318.752
317.239
315.754
314.298
312.869
311.467
310.093
308.745
307.423
306.128
304.859
303.615
302.397
301.205
300.038
298.896
297.779
296.688
295.621
294.578
293.561
292.568
291.599
290.655
289.735
288.84
287.969
287.122
286.299
285.501
284.726
283.976
283.249
282.547
281.869
281.214
280.584
279.977
279.395
278.836
278.301
277.79
277.303
276.839
276.4
275.984
275.592
275.224
274.879
274.559
274.262
273.989
273.739
273.514
273.312
273.133
272.979
272.848
272.741
272.658
272.598
272.562
272.55
398.637
395.915
393.199
390.494
387.803
385.131
382.48
379.854
377.256
374.688
372.153
369.652
367.186
364.757
362.365
360.012
357.697
355.421
353.183
350.984
348.823
346.7
344.614
342.565
340.552
338.575
336.633
334.726
332.852
331.012
329.205
327.43
325.687
323.975
322.294
320.643
319.022
317.431
315.868
314.335
312.83
311.353
309.904
308.482
307.088
305.72
304.38
303.066
301.779
300.518
299.284
298.075
296.893
295.736
294.605
293.499
292.419
291.365
290.336
289.332
288.354
287.4
286.472
285.569
284.691
283.838
283.01
282.207
281.429
280.675
279.947
279.243
278.565
277.911
277.281
276.677
276.098
275.543
275.013
274.507
274.026
273.57
273.139
272.732
272.35
271.993
271.66
271.352
271.069
270.81
270.576
270.367
270.182
270.021
269.886
269.775
269.688
269.626
269.589
269.576
398.634
395.905
393.181
390.467
387.766
385.081
382.417
379.775
377.159
374.571
372.012
369.486
366.992
364.533
362.109
359.721
357.369
355.054
352.776
350.535
348.33
346.162
344.03
341.935
339.874
337.849
335.858
333.901
331.978
330.089
328.231
326.406
324.613
322.851
321.12
319.42
317.75
316.109
314.499
312.917
311.364
309.84
308.344
306.876
305.436
304.024
302.639
301.282
299.952
298.649
297.372
296.123
294.9
293.704
292.534
291.391
290.273
289.183
288.118
287.079
286.067
285.08
284.119
283.185
282.276
281.393
280.536
279.704
278.899
278.119
277.365
276.636
275.933
275.256
274.605
273.979
273.379
272.804
272.255
271.732
271.234
270.762
270.315
269.894
269.498
269.128
268.784
268.464
268.171
267.903
267.66
267.443
267.252
267.086
266.945
266.83
266.741
266.676
266.638
266.624
398.629
395.889
393.155
390.429
387.715
385.017
382.336
379.677
377.041
374.431
371.849
369.296
366.775
364.285
361.829
359.406
357.018
354.665
352.347
350.065
347.818
345.607
343.43
341.289
339.182
337.11
335.071
333.066
331.095
329.156
327.25
325.376
323.534
321.724
319.944
318.195
316.477
314.788
313.13
311.501
309.901
308.331
306.789
305.276
303.791
302.335
300.906
299.506
298.133
296.788
295.471
294.181
292.919
291.684
290.476
289.295
288.141
287.014
285.914
284.841
283.795
282.776
281.783
280.817
279.878
278.965
278.079
277.22
276.387
275.581
274.802
274.048
273.322
272.622
271.948
271.301
270.681
270.086
269.519
268.978
268.463
267.974
267.512
267.077
266.668
266.285
265.929
265.599
265.295
265.018
264.767
264.543
264.345
264.173
264.027
263.908
263.816
263.749
263.709
263.695
398.622
395.87
393.122
390.382
387.654
384.939
382.241
379.563
376.906
374.273
371.666
369.087
366.536
364.016
361.527
359.071
356.647
354.257
351.9
349.577
347.289
345.035
342.815
340.629
338.477
336.358
334.273
332.222
330.203
328.217
326.263
324.341
322.451
320.593
318.766
316.969
315.203
313.468
311.763
310.087
308.442
306.826
305.239
303.681
302.152
300.653
299.181
297.739
296.324
294.939
293.581
292.251
290.95
289.676
288.431
287.213
286.023
284.86
283.726
282.619
281.54
280.488
279.463
278.467
277.497
276.556
275.641
274.754
273.895
273.063
272.258
271.48
270.73
270.008
269.312
268.644
268.003
267.39
266.804
266.245
265.713
265.209
264.732
264.282
263.86
263.464
263.096
262.756
262.442
262.156
261.897
261.665
261.461
261.283
261.133
261.01
260.914
260.846
260.805
260.79
398.615
395.848
393.084
390.328
387.582
384.85
382.132
379.433
376.754
374.097
371.465
368.858
366.279
363.728
361.207
358.717
356.257
353.83
351.435
349.073
346.744
344.448
342.185
339.956
337.759
335.596
333.466
331.368
329.303
327.271
325.27
323.302
321.365
319.46
317.586
315.743
313.931
312.149
310.398
308.677
306.987
305.326
303.695
302.093
300.521
298.979
297.465
295.981
294.526
293.099
291.702
290.333
288.993
287.682
286.399
285.145
283.919
282.722
281.553
280.413
279.301
278.217
277.161
276.134
275.135
274.165
273.222
272.308
271.422
270.564
269.734
268.933
268.16
267.414
266.698
266.009
265.348
264.715
264.111
263.535
262.987
262.467
261.975
261.511
261.075
260.667
260.288
259.936
259.613
259.318
259.051
258.812
258.601
258.418
258.263
258.136
258.037
257.967
257.924
257.909
398.606
395.822
393.041
390.267
387.502
384.75
382.012
379.291
376.588
373.907
371.248
368.614
366.005
363.423
360.87
358.346
355.851
353.388
350.955
348.554
346.185
343.848
341.543
339.271
337.032
334.824
332.65
330.507
328.397
326.319
324.273
322.259
320.276
318.325
316.405
314.517
312.659
310.833
309.037
307.271
305.536
303.831
302.157
300.512
298.898
297.313
295.758
294.233
292.738
291.271
289.835
288.428
287.05
285.701
284.382
283.092
281.831
280.599
279.397
278.223
277.079
275.963
274.877
273.82
272.792
271.793
270.822
269.881
268.969
268.086
267.232
266.407
265.61
264.843
264.105
263.395
262.715
262.064
261.441
260.848
260.283
259.747
259.241
258.763
258.314
257.894
257.504
257.142
256.809
256.504
256.229
255.983
255.766
255.577
255.418
255.287
255.185
255.113
255.069
255.053
398.597
395.793
392.993
390.199
387.415
384.641
381.881
379.136
376.41
373.703
371.017
368.355
365.716
363.104
360.518
357.96
355.431
352.931
350.461
348.022
345.613
343.236
340.891
338.577
336.295
334.044
331.826
329.64
327.486
325.363
323.272
321.213
319.186
317.19
315.225
313.292
311.39
309.519
307.679
305.87
304.091
302.343
300.626
298.939
297.283
295.657
294.061
292.496
290.961
289.455
287.98
286.535
285.12
283.735
282.379
281.054
279.758
278.493
277.257
276.051
274.875
273.728
272.612
271.525
270.468
269.441
268.443
267.475
266.537
265.629
264.751
263.902
263.083
262.294
261.535
260.805
260.105
259.435
258.795
258.184
257.604
257.053
256.531
256.04
255.578
255.146
254.744
254.372
254.029
253.716
253.433
253.18
252.956
252.762
252.598
252.464
252.359
252.284
252.239
252.223
398.587
395.763
392.942
390.127
387.32
384.524
381.741
378.972
376.22
373.487
370.774
368.083
365.415
362.771
360.153
357.561
354.997
352.462
349.955
347.478
345.031
342.614
340.228
337.873
335.55
333.257
330.996
328.767
326.569
324.403
322.269
320.166
318.094
316.055
314.046
312.069
310.123
308.209
306.326
304.473
302.652
300.862
299.103
297.375
295.678
294.011
292.375
290.77
289.196
287.652
286.139
284.656
283.205
281.783
280.392
279.032
277.703
276.403
275.135
273.897
272.689
271.512
270.365
269.249
268.164
267.109
266.084
265.09
264.127
263.194
262.292
261.42
260.579
259.768
258.988
258.238
257.519
256.831
256.173
255.546
254.949
254.383
253.847
253.342
252.868
252.424
252.01
251.628
251.276
250.954
250.663
250.403
250.173
249.974
249.805
249.667
249.559
249.482
249.436
249.42
398.576
395.73
392.887
390.05
387.22
384.4
381.593
378.799
376.021
373.261
370.52
367.8
365.101
362.426
359.776
357.151
354.553
351.981
349.438
346.924
344.439
341.983
339.558
337.162
334.798
332.464
330.161
327.89
325.65
323.441
321.264
319.118
317.003
314.92
312.869
310.849
308.86
306.903
304.977
303.083
301.22
299.389
297.588
295.819
294.082
292.375
290.7
289.056
287.443
285.862
284.311
282.792
281.304
279.847
278.421
277.027
275.664
274.332
273.031
271.761
270.522
269.315
268.139
266.994
265.881
264.798
263.747
262.727
261.739
260.782
259.856
258.961
258.098
257.266
256.465
255.696
254.958
254.251
253.576
252.932
252.319
251.738
251.189
250.67
250.183
249.727
249.303
248.91
248.549
248.219
247.92
247.653
247.417
247.212
247.039
246.897
246.787
246.708
246.66
246.643
398.564
395.695
392.829
389.968
387.115
384.271
381.438
378.618
375.814
373.026
370.256
367.506
364.778
362.071
359.389
356.73
354.098
351.491
348.912
346.361
343.838
341.344
338.88
336.445
334.04
331.666
329.322
327.009
324.728
322.477
320.257
318.069
315.913
313.788
311.694
309.632
307.601
305.602
303.635
301.699
299.795
297.923
296.082
294.273
292.496
290.75
289.036
287.354
285.704
284.085
282.498
280.943
279.419
277.927
276.467
275.039
273.643
272.278
270.945
269.644
268.375
267.138
265.933
264.76
263.619
262.509
261.432
260.387
259.374
258.392
257.443
256.526
255.641
254.788
253.967
253.178
252.421
251.697
251.005
250.344
249.716
249.12
248.556
248.025
247.525
247.058
246.623
246.22
245.849
245.511
245.204
244.93
244.688
244.478
244.301
244.155
244.042
243.961
243.912
243.895
398.552
395.659
392.769
389.883
387.005
384.135
381.277
378.431
375.599
372.783
369.984
367.205
364.445
361.708
358.993
356.301
353.634
350.993
348.378
345.791
343.231
340.699
338.196
335.722
333.278
330.864
328.48
326.127
323.804
321.512
319.251
317.022
314.824
312.657
310.522
308.419
306.347
304.307
302.299
300.323
298.379
296.466
294.586
292.738
290.921
289.137
287.385
285.666
283.978
282.323
280.699
279.109
277.55
276.024
274.53
273.069
271.64
270.243
268.879
267.547
266.249
264.982
263.748
262.547
261.379
260.243
259.14
258.069
257.032
256.027
255.054
254.115
253.209
252.335
251.494
250.686
249.911
249.169
248.459
247.783
247.139
246.529
245.951
245.407
244.895
244.416
243.97
243.557
243.178
242.831
242.517
242.236
241.988
241.773
241.591
241.442
241.326
241.243
241.193
241.175
398.54
395.622
392.706
389.795
386.891
383.996
381.11
378.237
375.377
372.533
369.705
366.896
364.106
361.336
358.589
355.864
353.164
350.488
347.838
345.214
342.617
340.048
337.508
334.995
332.513
330.059
327.636
325.242
322.88
320.548
318.246
315.976
313.738
311.53
309.355
307.211
305.099
303.019
300.971
298.954
296.971
295.019
293.1
291.213
289.358
287.537
285.747
283.99
282.266
280.575
278.916
277.291
275.698
274.138
272.611
271.116
269.655
268.227
266.833
265.471
264.142
262.847
261.585
260.356
259.161
257.999
256.87
255.775
254.714
253.685
252.691
251.729
250.802
249.908
249.047
248.22
247.427
246.667
245.941
245.249
244.59
243.965
243.374
242.816
242.293
241.802
241.346
240.924
240.535
240.18
239.858
239.571
239.317
239.097
238.91
238.758
238.639
238.554
238.502
238.485
398.527
395.583
392.642
389.705
386.774
383.852
380.94
378.038
375.151
372.277
369.42
366.58
363.759
360.958