/*--------------------------------*- C++ -*----------------------------------*\
  =========                 |
  \\      /  F ield         | OpenFOAM: The Open Source CFD Toolbox
   \\    /   O peration     | Website:  https://openfoam.org
    \\  /    A nd           | Version:  10
     \\/     M anipulation  |
\*---------------------------------------------------------------------------*/
FoamFile
{
    format      ascii;
    class       volScalarField;
    location    "0.1";
    object      T;
}
// * * * * * * * * * * * * * * * * * * * * * * * * * * * * * * * * * * * * * //

dimensions      [0 0 0 1 0 0 0];

internalField   nonuniform List<scalar> 
100
(
1
1
0.999998
0.999981
0.999839
0.998931
0.994045
0.971066
0.877924
0.665718
0.376589
0.113159
0.00271702
3.39979e-05
4.27845e-07
5.40345e-09
6.83758e-11
8.6608e-13
1.1023e-14
7.5353e-17
-1.73058e-16
-1.71407e-16
-8.87455e-17
-1.95296e-17
9.46838e-18
1.13544e-17
5.06397e-18
5.05036e-19
-8.16884e-19
-5.62897e-19
-1.36146e-19
3.93095e-20
4.46997e-20
1.40826e-20
-1.32041e-21
-2.93073e-21
-1.02898e-21
3.58085e-23
1.69663e-22
5.99154e-23
-1.78454e-24
-8.90785e-24
-2.88989e-24
1.7359e-25
4.24152e-25
1.15894e-25
-1.44661e-26
-1.80508e-26
-3.7661e-27
9.12659e-28
6.72742e-28
9.11503e-29
-4.51967e-29
-2.14273e-29
-1.11395e-30
1.80897e-30
5.62876e-31
-3.06691e-32
-5.92406e-32
-1.13264e-32
2.60054e-33
1.58056e-33
1.34132e-34
-1.02731e-34
-3.33828e-35
1.16886e-36
2.89918e-36
5.08432e-37
-1.19305e-37
-6.23406e-38
-3.42276e-39
3.89888e-39
9.92651e-40
-8.95365e-41
-8.60022e-41
-9.58313e-42
4.10329e-42
1.3709e-42
-2.96665e-44
-9.41772e-44
-1.41915e-44
3.55533e-45
1.47582e-45
2.39435e-47
-8.56201e-47
-1.51483e-47
2.66142e-48
1.29938e-48
4.73898e-50
-6.66535e-50
-1.27119e-50
1.80272e-51
9.62218e-52
4.25594e-53
-4.53521e-53
-8.71093e-54
1.14302e-54
6.09378e-55
2.55031e-56
-2.60102e-56
)
;

boundaryField
{
    top
    {
        type            zeroGradient;
    }
    bottom
    {
        type            zeroGradient;
    }
    in
    {
        type            fixedValue;
        value           uniform 1;
    }
    out
    {
        type            zeroGradient;
    }
    frontAndBack
    {
        type            empty;
    }
}


// ************************************************************************* //
