/*--------------------------------*- C++ -*----------------------------------*\
| =========                 |                                                 |
| \\      /  F ield         | OpenFOAM: The Open Source CFD Toolbox           |
|  \\    /   O peration     | Version:  2406                                  |
|   \\  /    A nd           | Website:  www.openfoam.com                      |
|    \\/     M anipulation  |                                                 |
\*---------------------------------------------------------------------------*/
FoamFile
{
    version     2.0;
    format      ascii;
    arch        "LSB;label=32;scalar=64";
    class       volScalarField;
    location    "39";
    object      p;
}
// * * * * * * * * * * * * * * * * * * * * * * * * * * * * * * * * * * * * * //

dimensions      [0 2 -2 0 0 0 0];

internalField   nonuniform List<scalar> 
1176
(
0.79699976
0.79702263
0.7970463
0.79705396
0.79702243
0.79692774
0.79677051
0.79658434
0.79640514
0.79623799
0.79608336
0.79598776
0.79598776
0.79608337
0.79623799
0.79640516
0.79658437
0.79677057
0.79692783
0.79702257
0.79705414
0.79704652
0.79702286
0.79699999
0.77385133
0.77380437
0.77375661
0.77373971
0.77380222
0.77400457
0.77436989
0.7748343
0.77526516
0.77555126
0.77567066
0.77570492
0.77570492
0.77567066
0.77555126
0.77526514
0.77483424
0.77436979
0.77400443
0.77380203
0.7737395
0.77375638
0.77380414
0.77385111
0.75676657
0.75678859
0.75680838
0.75680647
0.75674741
0.75658623
0.75631447
0.75598652
0.75568031
0.75546752
0.75535672
0.7553079
0.75530791
0.75535673
0.75546754
0.75568033
0.75598655
0.75631451
0.75658629
0.75674747
0.75680654
0.75680845
0.75678866
0.75676665
0.74009468
0.74010381
0.74011586
0.74013227
0.74015481
0.74017238
0.74014015
0.74000673
0.73977462
0.73950206
0.73927786
0.73915736
0.73915736
0.73927786
0.73950206
0.73977462
0.74000673
0.74014015
0.7401724
0.74015483
0.74013229
0.7401159
0.74010384
0.74009471
0.72367563
0.72367958
0.72368458
0.72369064
0.72370034
0.72372062
0.7237568
0.72379831
0.72381998
0.72379611
0.72373399
0.72368136
0.72368136
0.723734
0.72379611
0.72381998
0.72379831
0.7237568
0.72372062
0.72370034
0.72369064
0.72368458
0.72367958
0.72367563
0.70721398
0.70721639
0.70721963
0.70722368
0.70722859
0.70723542
0.70724959
0.7072809
0.70733089
0.70738814
0.70743085
0.70744751
0.70744751
0.70743085
0.70738814
0.70733089
0.70728091
0.70724959
0.70723542
0.70722859
0.70722368
0.70721963
0.70721639
0.70721397
0.69080817
0.6908103
0.69081311
0.69081654
0.69082044
0.69082395
0.69082602
0.6908282
0.69083674
0.69085398
0.69087187
0.69088359
0.6908836
0.69087188
0.69085398
0.69083675
0.6908282
0.69082602
0.69082395
0.69082044
0.69081654
0.69081311
0.6908103
0.69080816
0.6744283
0.67443006
0.67443239
0.67443531
0.67443898
0.67444335
0.6744478
0.67445096
0.67445219
0.67445381
0.67445086
0.67444835
0.67444835
0.67445086
0.67445381
0.6744522
0.67445096
0.6744478
0.67444335
0.67443897
0.6744353
0.67443238
0.67443005
0.67442829
0.65807402
0.65807547
0.6580774
0.65807981
0.65808283
0.65808662
0.65809166
0.65809871
0.65810739
0.65811742
0.65812519
0.65812877
0.65812877
0.65812519
0.65811742
0.65810739
0.65809871
0.65809166
0.65808661
0.65808282
0.6580798
0.65807739
0.65807546
0.65807401
0.64173633
0.64173753
0.64173914
0.64174117
0.64174374
0.64174692
0.64175108
0.64175747
0.64176763
0.64178076
0.64179509
0.64180439
0.64180439
0.64179509
0.64178076
0.64176763
0.64175747
0.64175108
0.64174691
0.64174373
0.64174116
0.64173913
0.64173752
0.64173631
0.62541195
0.62541298
0.62541435
0.6254161
0.62541831
0.62542103
0.62542443
0.62542928
0.62543714
0.6254478
0.62546036
0.62546949
0.62546949
0.62546036
0.6254478
0.62543714
0.62542928
0.62542443
0.62542103
0.6254183
0.62541609
0.62541434
0.62541296
0.62541193
0.60909847
0.60909937
0.60910056
0.60910209
0.60910403
0.60910643
0.60910939
0.6091134
0.60911962
0.60912828
0.60913884
0.60914629
0.60914629
0.60913884
0.60912828
0.60911962
0.6091134
0.60910939
0.60910643
0.60910402
0.60910208
0.60910055
0.60909935
0.60909846
0.59279428
0.59279507
0.59279612
0.59279747
0.59279919
0.59280132
0.59280396
0.5928075
0.5928129
0.59282064
0.59283033
0.59283701
0.59283701
0.59283033
0.59282064
0.5928129
0.5928075
0.59280396
0.59280132
0.59279918
0.59279746
0.59279611
0.59279505
0.59279426
0.57649806
0.57649876
0.5764997
0.5765009
0.57650244
0.57650435
0.57650669
0.57650983
0.5765146
0.57652157
0.57653024
0.57653633
0.57653633
0.57653024
0.57652157
0.5765146
0.57650983
0.57650669
0.57650434
0.57650243
0.57650089
0.57649969
0.57649874
0.57649804
0.56020879
0.56020942
0.56021026
0.56021135
0.56021273
0.56021445
0.56021655
0.56021931
0.56022347
0.5602296
0.56023712
0.56024253
0.56024253
0.56023712
0.5602296
0.56022347
0.56021931
0.56021655
0.56021444
0.56021272
0.56021133
0.56021025
0.5602094
0.56020877
0.54392567
0.54392624
0.543927
0.54392798
0.54392924
0.54393079
0.54393269
0.54393514
0.54393878
0.54394415
0.54395069
0.54395548
0.54395548
0.54395069
0.54394416
0.54393878
0.54393514
0.54393269
0.54393079
0.54392923
0.54392797
0.54392699
0.54392622
0.54392565
0.52764804
0.52764856
0.52764926
0.52765015
0.52765129
0.52765271
0.52765443
0.52765663
0.52765985
0.52766462
0.52767034
0.52767463
0.52767463
0.52767034
0.52766462
0.52765986
0.52765664
0.52765443
0.5276527
0.52765128
0.52765014
0.52764924
0.52764855
0.52764803
0.51137536
0.51137584
0.51137647
0.51137729
0.51137834
0.51137963
0.51138121
0.5113832
0.51138607
0.51139032
0.51139537
0.51139923
0.51139923
0.51139537
0.51139032
0.51138607
0.5113832
0.5113812
0.51137963
0.51137833
0.51137728
0.51137646
0.51137582
0.51137535
0.49510717
0.4951076
0.49510819
0.49510894
0.4951099
0.49511109
0.49511253
0.49511434
0.49511692
0.49512072
0.49512522
0.49512871
0.49512871
0.49512522
0.49512072
0.49511692
0.49511434
0.49511253
0.49511109
0.49510989
0.49510893
0.49510818
0.49510759
0.49510715
0.47884306
0.47884346
0.478844
0.47884469
0.47884558
0.47884668
0.478848
0.47884965
0.47885197
0.4788554
0.47885943
0.47886259
0.47886259
0.47885943
0.4788554
0.47885197
0.47884965
0.478848
0.47884667
0.47884557
0.47884468
0.47884399
0.47884345
0.47884304
0.46258269
0.46258306
0.46258356
0.46258419
0.46258502
0.46258603
0.46258726
0.46258877
0.46259087
0.46259397
0.46259761
0.46260048
0.46260048
0.46259761
0.46259397
0.46259087
0.46258877
0.46258726
0.46258603
0.46258501
0.46258418
0.46258354
0.46258304
0.46258267
0.44632575
0.4463261
0.44632656
0.44632715
0.44632791
0.44632886
0.44632999
0.44633138
0.44633329
0.44633611
0.44633943
0.44634204
0.44634204
0.44633943
0.44633611
0.4463333
0.44633138
0.44632999
0.44632885
0.44632791
0.44632714
0.44632655
0.44632608
0.44632574
0.43007199
0.43007231
0.43007274
0.43007329
0.430074
0.43007488
0.43007593
0.43007721
0.43007896
0.43008153
0.43008456
0.43008695
0.43008695
0.43008456
0.43008153
0.43007896
0.43007721
0.43007593
0.43007487
0.43007399
0.43007328
0.43007272
0.43007229
0.43007197
0.41382116
0.41382145
0.41382185
0.41382237
0.41382303
0.41382384
0.41382482
0.41382601
0.41382762
0.41382997
0.41383276
0.41383494
0.41383494
0.41383276
0.41382997
0.41382762
0.41382601
0.41382482
0.41382384
0.41382302
0.41382235
0.41382184
0.41382144
0.41382114
0.39757304
0.39757332
0.39757369
0.39757417
0.39757478
0.39757555
0.39757646
0.39757756
0.39757904
0.39758121
0.39758378
0.39758578
0.39758578
0.39758378
0.39758121
0.39757905
0.39757756
0.39757646
0.39757554
0.39757477
0.39757415
0.39757367
0.3975733
0.39757302
0.38132745
0.38132771
0.38132805
0.3813285
0.38132908
0.38132979
0.38133064
0.38133167
0.38133304
0.38133503
0.38133741
0.38133926
0.38133926
0.38133741
0.38133503
0.38133304
0.38133167
0.38133064
0.38132979
0.38132907
0.38132849
0.38132804
0.38132769
0.38132743
0.36508421
0.36508445
0.36508477
0.36508519
0.36508573
0.3650864
0.3650872
0.36508815
0.36508942
0.36509126
0.36509347
0.36509518
0.36509518
0.36509347
0.36509126
0.36508942
0.36508816
0.3650872
0.36508639
0.36508572
0.36508518
0.36508475
0.36508443
0.36508418
0.34884315
0.34884338
0.34884369
0.34884408
0.34884458
0.34884521
0.34884596
0.34884685
0.34884803
0.34884973
0.34885178
0.34885336
0.34885336
0.34885178
0.34884973
0.34884803
0.34884685
0.34884596
0.34884521
0.34884457
0.34884406
0.34884367
0.34884336
0.34884313
0.33260415
0.33260436
0.33260465
0.33260502
0.33260549
0.33260608
0.33260678
0.33260761
0.33260871
0.33261029
0.33261221
0.33261367
0.33261367
0.33261221
0.3326103
0.33260871
0.33260762
0.33260678
0.33260607
0.33260548
0.332605
0.33260463
0.33260434
0.33260413
0.31636706
0.31636726
0.31636753
0.31636787
0.31636832
0.31636887
0.31636953
0.31637031
0.31637133
0.3163728
0.31637459
0.31637595
0.31637595
0.31637459
0.31637281
0.31637134
0.31637032
0.31636953
0.31636887
0.31636831
0.31636786
0.31636751
0.31636724
0.31636704
0.30013176
0.30013195
0.3001322
0.30013253
0.30013295
0.30013347
0.30013408
0.30013482
0.30013577
0.30013714
0.30013881
0.30014008
0.30014008
0.30013881
0.30013714
0.30013577
0.30013482
0.30013408
0.30013346
0.30013294
0.30013252
0.30013219
0.30013193
0.30013175
0.28389815
0.28389832
0.28389856
0.28389886
0.28389926
0.28389975
0.28390033
0.28390102
0.28390191
0.28390319
0.28390475
0.28390593
0.28390593
0.28390475
0.28390319
0.28390191
0.28390102
0.28390033
0.28389974
0.28389925
0.28389886
0.28389855
0.28389831
0.28389814
0.26766611
0.26766627
0.26766649
0.26766678
0.26766715
0.26766761
0.26766816
0.2676688
0.26766964
0.26767084
0.2676723
0.26767341
0.2676734
0.2676723
0.26767084
0.26766964
0.26766881
0.26766816
0.26766761
0.26766715
0.26766678
0.26766649
0.26766627
0.2676661
0.25143555
0.2514357
0.25143591
0.25143618
0.25143653
0.25143697
0.25143748
0.25143809
0.25143887
0.25143999
0.25144136
0.25144239
0.25144239
0.25144136
0.25143999
0.25143887
0.25143809
0.25143748
0.25143697
0.25143654
0.25143619
0.25143592
0.25143571
0.25143555
0.23520638
0.23520653
0.23520672
0.23520698
0.23520731
0.23520772
0.2352082
0.23520877
0.23520951
0.23521055
0.23521185
0.23521281
0.23521281
0.23521185
0.23521055
0.23520951
0.23520877
0.2352082
0.23520772
0.23520732
0.23520699
0.23520674
0.23520655
0.2352064
0.21897852
0.21897866
0.21897885
0.21897909
0.2189794
0.21897978
0.21898024
0.21898078
0.21898147
0.21898245
0.21898366
0.21898456
0.21898456
0.21898366
0.21898245
0.21898147
0.21898078
0.21898024
0.21897979
0.21897942
0.21897911
0.21897888
0.2189787
0.21897856
0.2027519
0.20275203
0.2027522
0.20275243
0.20275272
0.20275309
0.20275352
0.20275402
0.20275467
0.20275559
0.20275674
0.20275759
0.20275759
0.20275674
0.20275559
0.20275467
0.20275402
0.20275352
0.2027531
0.20275275
0.20275247
0.20275225
0.20275209
0.20275196
0.18652643
0.18652656
0.18652672
0.18652694
0.18652722
0.18652756
0.18652796
0.18652844
0.18652905
0.18652991
0.18653098
0.18653178
0.18653178
0.18653098
0.18652991
0.18652905
0.18652844
0.18652797
0.18652758
0.18652726
0.186527
0.1865268
0.18652665
0.18652653
0.17030206
0.17030218
0.17030234
0.17030254
0.1703028
0.17030313
0.17030351
0.17030396
0.17030453
0.17030535
0.17030636
0.17030711
0.17030711
0.17030636
0.17030534
0.17030452
0.17030395
0.17030352
0.17030316
0.17030286
0.17030263
0.17030244
0.1703023
0.1703022
0.15407873
0.15407884
0.15407899
0.15407918
0.15407943
0.15407974
0.1540801
0.15408052
0.15408106
0.15408182
0.15408276
0.15408346
0.15408346
0.15408276
0.15408181
0.15408104
0.15408051
0.15408011
0.15407978
0.15407951
0.1540793
0.15407913
0.154079
0.15407891
0.13785637
0.13785647
0.13785661
0.13785679
0.13785703
0.13785731
0.13785766
0.13785806
0.13785856
0.13785928
0.13786017
0.13786083
0.13786083
0.13786017
0.13785926
0.13785854
0.13785804
0.13785766
0.13785737
0.13785713
0.13785694
0.13785679
0.13785667
0.13785659
0.12163494
0.12163504
0.12163517
0.12163534
0.12163556
0.12163583
0.12163616
0.12163653
0.121637
0.12163766
0.12163848
0.12163908
0.12163908
0.12163847
0.12163764
0.12163697
0.12163651
0.12163616
0.1216359
0.12163568
0.12163552
0.12163538
0.12163529
0.12163521
0.10541436
0.10541445
0.10541457
0.10541474
0.10541494
0.1054152
0.10541551
0.10541586
0.1054163
0.10541692
0.10541769
0.10541825
0.10541825
0.10541768
0.10541689
0.10541626
0.10541583
0.10541551
0.10541528
0.10541509
0.10541495
0.10541483
0.10541475
0.10541468
0.089194641
0.089194729
0.089194848
0.089195001
0.089195199
0.089195442
0.089195729
0.08919606
0.089196462
0.089197005
0.089197664
0.089198137
0.089198135
0.089197652
0.08919697
0.089196407
0.089196013
0.089195732
0.089195526
0.089195372
0.089195252
0.089195149
0.089195078
0.089195022
0.072975636
0.072975719
0.072975831
0.072975976
0.072976164
0.072976398
0.072976673
0.072976987
0.072977364
0.072977861
0.072978451
0.072978856
0.072978855
0.072978437
0.072977818
0.072977295
0.072976928
0.072976672
0.072976492
0.07297636
0.07297626
0.072976171
0.072976112
0.072976065
0.056757516
0.056757597
0.056757705
0.056757843
0.056758019
0.056758235
0.056758486
0.056758769
0.05675909
0.056759467
0.056759851
0.056760075
0.056760074
0.056759837
0.056759418
0.056759009
0.056758698
0.05675848
0.056758333
0.05675823
0.056758147
0.056758067
0.056758013
0.056757969
0.040539729
0.0405398
0.040539898
0.040540029
0.040540204
0.040540428
0.040540692
0.040540982
0.040541306
0.040541715
0.040542191
0.04054251
0.04054251
0.040542178
0.040541663
0.040541219
0.040540903
0.040540681
0.040540525
0.040540415
0.040540331
0.040540254
0.040540205
0.040540166
0.024323461
0.024323544
0.024323651
0.024323779
0.024323926
0.024324087
0.024324259
0.024324439
0.024324604
0.024324683
0.024324604
0.024324386
0.024324387
0.024324594
0.024324633
0.024324517
0.024324362
0.02432425
0.02432418
0.024324119
0.024324047
0.02432396
0.024323887
0.024323825
0.0081053674
0.0081054377
0.0081055304
0.0081056517
0.0081058123
0.0081060114
0.0081062312
0.0081064689
0.008106845
0.0081076808
0.0081091642
0.0081105413
0.0081105448
0.0081091627
0.0081076521
0.0081067876
0.0081064149
0.0081062244
0.0081060761
0.0081059445
0.008105831
0.0081057321
0.0081056565
0.0081055963
)
;

boundaryField
{
    INLET
    {
        type            zeroGradient;
    }
    OUTLET
    {
        type            fixedValue;
        value           uniform 0;
    }
    WALL
    {
        type            zeroGradient;
    }
    frontAndBackPlanes
    {
        type            empty;
    }
}


// ************************************************************************* //
