/*--------------------------------*- C++ -*----------------------------------*\
| =========                 |                                                 |
| \\      /  F ield         | OpenFOAM: The Open Source CFD Toolbox           |
|  \\    /   O peration     | Version:  2406                                  |
|   \\  /    A nd           | Website:  www.openfoam.com                      |
|    \\/     M anipulation  |                                                 |
\*---------------------------------------------------------------------------*/
FoamFile
{
    version     2.0;
    format      ascii;
    arch        "LSB;label=32;scalar=64";
    class       surfaceScalarField;
    location    "39";
    object      phi;
}
// * * * * * * * * * * * * * * * * * * * * * * * * * * * * * * * * * * * * * //

dimensions      [0 3 -1 0 0 0 0];

oriented        oriented;

internalField   nonuniform List<scalar> 
2279
(
2.3617505e-08
1.0148926e-05
2.0509768e-07
4.982375e-05
6.9331764e-07
0.00014252872
1.5784715e-06
0.00034353082
2.6788475e-06
0.00075378089
3.3472909e-06
0.0015415573
3.0435191e-06
0.0029497096
2.1516829e-06
0.005249171
1.431802e-06
0.008582269
9.8958972e-07
0.012685995
5.1266451e-07
0.016666385
-4.0688517e-12
0.01918202
-5.1267596e-07
0.01918202
-9.8961631e-07
0.016666385
-1.4318679e-06
0.012685995
-2.151823e-06
0.0085822692
-3.0437463e-06
0.0052491712
-3.3475768e-06
0.0029497098
-2.6791344e-06
0.0015415575
-1.5787071e-06
0.00075378099
-6.9347917e-07
0.00034353086
-2.0518658e-07
0.00014252873
-2.3652674e-08
4.9823751e-05
1.0148926e-05
-9.5248471e-08
1.0244175e-05
-5.3794009e-07
5.0266441e-05
-1.6230012e-06
0.00014361378
-3.5389525e-06
0.00034544677
-5.9201869e-06
0.00075616213
-7.405503e-06
0.0015430426
-6.5847283e-06
0.0029488888
-3.9361612e-06
0.0052465224
-1.3883911e-06
0.0085797213
-6.512194e-08
0.012684671
2.4240325e-07
0.016666078
-2.6852083e-12
0.019182263
-2.4240042e-07
0.019182263
6.515264e-08
0.016666078
1.3884785e-06
0.012684671
3.9363409e-06
0.0085797212
6.5850129e-06
0.0052465223
7.4058434e-06
0.0029488887
5.9204877e-06
0.0015430425
3.5391522e-06
0.00075616204
1.6231024e-06
0.00034544673
5.3797705e-07
0.00014361376
9.5252746e-08
5.0266434e-05
1.0244173e-05
5.0139842e-08
1.0194035e-05
2.6334497e-07
5.0053236e-05
7.4910711e-07
0.00014312802
1.5314582e-06
0.00034466442
2.3366554e-06
0.00075535693
2.5476614e-06
0.0015428316
1.8390953e-06
0.0029495974
9.7567326e-07
0.0052473858
6.769557e-07
0.00858002
6.7178128e-07
0.012684677
4.8415388e-07
0.016666266
-1.8827955e-11
0.019182747
-4.8419761e-07
0.019182747
-6.7183953e-07
0.016666266
-6.7702944e-07
0.012684677
-9.7575205e-07
0.00858002
-1.8391701e-06
0.0052473859
-2.5477289e-06
0.0029495974
-2.3367046e-06
0.0015428317
-1.5314802e-06
0.00075535695
-7.4910821e-07
0.00034466443
-2.6333848e-07
0.00014312802
-5.0133451e-08
5.0053239e-05
1.0194036e-05
1.958673e-08
1.0174448e-05
1.1184927e-07
4.9960974e-05
3.612843e-07
0.00014287858
9.0504777e-07
0.00034412066
1.8716599e-06
0.00075439032
3.0948235e-06
0.0015416085
3.8987239e-06
0.0029487935
3.7285547e-06
0.005247556
2.9242097e-06
0.0085808243
1.9733737e-06
0.012685627
1.012771e-06
0.016667226
3.872295e-12
0.01918376
-1.0127613e-06
0.01918376
-1.9733597e-06
0.016667226
-2.9241929e-06
0.012685627
-3.728542e-06
0.0085808243
-3.8987301e-06
0.005247556
-3.09485e-06
0.0029487935
-1.8716915e-06
0.0015416085
-9.0507217e-07
0.00075439033
-3.6129808e-07
0.00034412067
-1.1185506e-07
0.00014287859
-1.9588023e-08
4.9960975e-05
1.0174449e-05
8.0839294e-09
1.0166364e-05
4.7141443e-08
4.9921916e-05
1.5494683e-07
0.00014277078
3.9846309e-07
0.00034387714
8.7979464e-07
0.00075390899
1.7015165e-06
0.0015407867
2.7512751e-06
0.0029477437
3.4623607e-06
0.0052468449
3.4708599e-06
0.0085808158
2.8006834e-06
0.012686298
1.5505109e-06
0.016668476
-4.6337846e-12
0.01918531
-1.55052e-06
0.01918531
-2.8006915e-06
0.016668476
-3.4708657e-06
0.012686298
-3.4623631e-06
0.0085808158
-2.7512764e-06
0.0052468449
-1.7015168e-06
0.0029477437
-8.7979291e-07
0.0015407867
-3.9846039e-07
0.00075390899
-1.5494486e-07
0.00034387714
-4.7140519e-08
0.00014277078
-8.0837994e-09
4.9921916e-05
1.0166364e-05
4.93587e-09
1.0161429e-05
2.8698845e-08
4.9898153e-05
9.5121436e-08
0.00014270436
2.4921439e-07
0.00034372305
5.636096e-07
0.00075359459
1.1213753e-06
0.001540229
1.918458e-06
0.0029469467
2.6588204e-06
0.0052461046
2.8930576e-06
0.0085805816
2.4787637e-06
0.012686712
1.4344222e-06
0.016669521
-4.5841489e-12
0.019186745
-1.4344309e-06
0.019186745
-2.4787715e-06
0.016669521
-2.8930641e-06
0.012686712
-2.658826e-06
0.0085805816
-1.9184629e-06
0.0052461046
-1.1213782e-06
0.0029469467
-5.6360932e-07
0.001540229
-2.4921245e-07
0.00075359459
-9.5119711e-08
0.00034372305
-2.8697983e-08
0.00014270436
-4.9356505e-09
4.9898153e-05
1.0161429e-05
4.4123575e-09
1.0157016e-05
2.5525676e-08
4.987704e-05
8.383015e-08
0.00014264605
2.1689428e-07
0.00034358999
4.8450152e-07
0.00075332698
9.5636162e-07
0.0015397571
1.6413747e-06
0.0029462616
2.3245831e-06
0.0052454214
2.593953e-06
0.0085803122
2.2393613e-06
0.012687066
1.306671e-06
0.016670453
-2.4106162e-12
0.019188051
-1.3066752e-06
0.019188051
-2.2393637e-06
0.016670453
-2.5939526e-06
0.012687066
-2.3245808e-06
0.0085803122
-1.6413714e-06
0.0052454214
-9.5635677e-07
0.0029462616
-4.8449614e-07
0.0015397571
-2.168902e-07
0.00075332698
-8.382822e-08
0.00034358999
-2.5525267e-08
0.00014264605
-4.4125816e-09
4.987704e-05
1.0157016e-05
3.6255359e-09
1.0153391e-05
2.1036591e-08
4.9859629e-05
6.9438151e-08
0.00014259765
1.8114164e-07
0.00034347828
4.0971484e-07
0.00075309841
8.2390492e-07
0.0015393429
1.4539941e-06
0.0029456316
2.1430774e-06
0.0052447323
2.4674745e-06
0.0085799878
2.1883938e-06
0.012687346
1.2866421e-06
0.016671355
-6.5620664e-13
0.019189338
-1.2866429e-06
0.019189338
-2.1883932e-06
0.016671355
-2.4674723e-06
0.012687346
-2.1430736e-06
0.0085799878
-1.4539881e-06
0.0052447323
-8.2389624e-07
0.0029456316
-4.0970579e-07
0.0015393429
-1.8113502e-07
0.00075309841
-6.9434882e-08
0.00034347828
-2.1035664e-08
0.00014259765
-3.6256686e-09
4.9859629e-05
1.0153391e-05
2.9831275e-09
1.0150408e-05
1.7346997e-08
4.9845265e-05
5.7377312e-08
0.00014255762
1.5007397e-07
0.00034338559
3.4097157e-07
0.00075290751
6.9193283e-07
0.001538992
1.2441106e-06
0.0029450794
1.9041887e-06
0.0052440722
2.3016034e-06
0.0085795904
2.0975104e-06
0.01268755
1.2520119e-06
0.016672201
1.0901082e-12
0.01919059
-1.2520095e-06
0.01919059
-2.0975074e-06
0.016672201
-2.3015998e-06
0.01268755
-1.9041847e-06
0.0085795904
-1.2441045e-06
0.0052440722
-6.9192408e-07
0.0029450794
-3.4096246e-07
0.001538992
-1.5006719e-07
0.00075290751
-5.7373856e-08
0.00034338558
-1.7345931e-08
0.00014255762
-2.9831847e-09
4.9845265e-05
1.0150408e-05
2.4654233e-09
1.0147942e-05
1.4363118e-08
4.9833367e-05
4.7626501e-08
0.00014252436
1.2502878e-07
0.00034330818
2.8558924e-07
0.00075274695
5.8418023e-07
0.0015386934
1.064186e-06
0.0029445994
1.6641606e-06
0.0052434722
2.0898778e-06
0.0085791647
1.9528976e-06
0.012687687
1.1802473e-06
0.016672973
2.0265605e-12
0.01919177
-1.1802433e-06
0.01919177
-1.9528937e-06
0.016672973
-2.0898738e-06
0.012687687
-1.6641563e-06
0.0085791647
-1.0641796e-06
0.0052434722
-5.841714e-07
0.0029445994
-2.8558014e-07
0.0015386934
-1.2502198e-07
0.00075274695
-4.7623005e-08
0.00034330818
-1.4362027e-08
0.00014252436
-2.4654726e-09
4.9833367e-05
1.0147942e-05
2.1024528e-09
1.014584e-05
1.2258075e-08
4.9823212e-05
4.0688288e-08
0.00014249593
1.0699026e-07
0.00034324188
2.4507862e-07
0.00075260887
5.0385346e-07
0.0015384346
9.2623598e-07
0.002944177
1.4715135e-06
0.0052429269
1.8909115e-06
0.0085787453
1.8050258e-06
0.012687772
1.103693e-06
0.016673675
2.3723223e-12
0.019192874
-1.1036885e-06
0.019192874
-1.8050219e-06
0.016673675
-1.8909079e-06
0.012687772
-1.4715094e-06
0.0085787453
-9.2622954e-07
0.0052429269
-5.0384452e-07
0.002944177
-2.4506928e-07
0.0015384346
-1.069832e-07
0.00075260886
-4.068463e-08
0.00034324188
-1.2256924e-08
0.00014249593
-2.1024994e-09
4.9823212e-05
1.014584e-05
1.8282431e-09
1.0144011e-05
1.0665514e-08
4.9814374e-05
3.5430318e-08
0.00014247116
9.3283007e-08
0.00034318403
2.1413917e-07
0.00075248801
4.4192776e-07
0.0015382068
8.1811431e-07
0.0029438008
1.3163824e-06
0.0052424287
1.7244966e-06
0.0085783372
1.6780458e-06
0.012687819
1.0378075e-06
0.016674315
2.4375457e-12
0.019193912
-1.0378031e-06
0.019193912
-1.6780425e-06
0.016674315
-1.7244938e-06
0.012687819
-1.3163788e-06
0.0085783372
-8.1810805e-07
0.0052424287
-4.4191867e-07
0.0029438008
-2.1412951e-07
0.0015382068
-9.327567e-08
0.00075248801
-3.5426522e-08
0.00034318403
-1.0664331e-08
0.00014247116
-1.8283037e-09
4.9814374e-05
1.0144011e-05
1.6105002e-09
1.0142401e-05
9.3996866e-09
4.9806585e-05
3.1244428e-08
0.00014244932
8.2340377e-08
0.00034313293
1.8932064e-07
0.00075238103
3.918231e-07
0.0015380043
7.2924204e-07
0.0029434634
1.185147e-06
0.0052419728
1.5781776e-06
0.0085779441
1.5623421e-06
0.012687835
9.7670095e-07
0.0166749
2.3340038e-12
0.019194888
-9.7669695e-07
0.019194888
-1.5623394e-06
0.0166749
-1.5781756e-06
0.012687835
-1.1851439e-06
0.0085779441
-7.2923584e-07
0.0052419728
-3.9181368e-07
0.0029434634
-1.8931054e-07
0.0015380043
-8.2332749e-08
0.00075238103
-3.124052e-08
0.00034313293
-9.3984951e-09
0.00014244932
-1.6105838e-09
4.9806585e-05
1.0142401e-05
1.4323279e-09
1.0140969e-05
8.3630487e-09
4.9799655e-05
2.781265e-08
0.00014242987
7.3352803e-08
0.00034308739
1.6886881e-07
0.00075228551
3.5026818e-07
0.0015378229
6.5458363e-07
0.0029431591
1.0720605e-06
0.0052415553
1.4464355e-06
0.0085775698
1.4548787e-06
0.012687826
9.1881206e-07
0.016675437
2.151395e-12
0.019195807
-9.1880851e-07
0.019195807
-1.4548766e-06
0.016675437
-1.4464341e-06
0.012687826
-1.0720578e-06
0.0085775698
-6.5457736e-07
0.0052415553
-3.5025839e-07
0.0029431591
-1.6885832e-07
0.0015378229
-7.3344944e-08
0.00075228551
-2.7808665e-08
0.00034308739
-8.3618551e-09
0.00014242987
-1.4324285e-09
4.9799654e-05
1.0140969e-05
1.2850193e-09
1.0139684e-05
7.5051227e-09
4.9793434e-05
2.4968908e-08
0.0001424124
6.5891198e-08
0.00034304647
1.5183817e-07
0.00075219957
3.1548566e-07
0.0015376593
5.9149734e-07
0.0029428831
9.7478825e-07
0.005241172
1.3297066e-06
0.0085772149
1.3567894e-06
0.012687799
8.6525437e-07
0.016675928
1.9659043e-12
0.019196672
-8.6525118e-07
0.019196672
-1.3567876e-06
0.016675928
-1.3297055e-06
0.012687799
-9.7478568e-07
0.0085772149
-5.9149099e-07
0.005241172
-3.1547563e-07
0.0029428831
-1.5182747e-07
0.0015376593
-6.5883235e-08
0.00075219957
-2.4964899e-08
0.00034304647
-7.5039318e-09
0.0001424124
-1.2851262e-09
4.9793434e-05
1.0139684e-05
1.1615062e-09
1.0138522e-05
6.7852519e-09
4.9787811e-05
2.2580531e-08
0.00014239661
5.9615486e-08
0.00034300944
1.3748122e-07
0.0007521217
2.8604694e-07
0.0015375107
5.3771166e-07
0.0029426314
8.9070718e-07
0.005240819
1.2263994e-06
0.0085768792
1.2674917e-06
0.012687758
8.1592886e-07
0.01667638
1.7966899e-12
0.019197488
-8.1592594e-07
0.019197488
-1.2674901e-06
0.01667638
-1.2263984e-06
0.012687758
-8.9070469e-07
0.0085768792
-5.3770532e-07
0.005240819
-2.8603687e-07
0.0029426314
-1.3747052e-07
0.0015375107
-5.9607551e-08
0.0007521217
-2.2576542e-08
0.00034300943
-6.7840653e-09
0.00014239661
-1.1616091e-09
4.9787811e-05
1.0138522e-05
1.0561666e-09
1.0137466e-05
6.1710257e-09
4.9782696e-05
2.0541404e-08
0.00014238224
5.4252162e-08
0.00034297572
1.2519079e-07
0.00075205076
2.6076807e-07
0.0015373751
4.9125208e-07
0.0029424009
8.1722593e-07
0.005240493
1.1341848e-06
0.0085765622
1.1857923e-06
0.012687707
7.7021662e-07
0.016676795
1.6082258e-12
0.019198259
-7.70214e-07
0.019198259
-1.1857909e-06
0.016676795
-1.1341841e-06
0.012687707
-8.1722361e-07
0.0085765622
-4.9124589e-07
0.005240493
-2.6075818e-07
0.0029424009
-1.2518026e-07
0.0015373751
-5.4244335e-08
0.00075205076
-2.0537454e-08
0.00034297572
-6.1698387e-09
0.00014238224
-1.0562584e-09
4.9782696e-05
1.0137466e-05
9.6516535e-10
1.0136501e-05
5.6402049e-09
4.9778021e-05
1.8778299e-08
0.0001423691
4.9611212e-08
0.00034294489
1.1454151e-07
0.00075198583
2.3881079e-07
0.0015372509
4.5070393e-07
0.002942189
7.5248306e-07
0.0052401913
1.0515005e-06
0.0085762632
1.1108328e-06
0.012687647
7.2769007e-07
0.016677178
1.37109e-12
0.019198986
-7.2768783e-07
0.019198986
-1.1108316e-06
0.016677178
-1.0515e-06
0.012687647
-7.52481e-07
0.0085762632
-4.5069802e-07
0.0052401913
-2.3880118e-07
0.002942189
-1.1453119e-07
0.0015372509
-4.9603493e-08
0.00075198583
-1.8774371e-08
0.00034294489
-5.639006e-09
0.0001423691
-9.652429e-10
4.9778021e-05
1.0136501e-05
8.8582244e-10
1.0135615e-05
5.1772254e-09
4.9773729e-05
1.7239835e-08
0.00014235704
4.5558775e-08
0.00034291657
1.0523192e-07
0.00075192616
2.1957602e-07
0.0015371365
4.1504179e-07
0.0029419936
6.9508888e-07
0.0052399112
9.7709431e-07
0.0085759812
1.041868e-06
0.012687582
6.88006e-07
0.016677532
1.0747203e-12
0.019199674
-6.8800429e-07
0.019199674
-1.0418673e-06
0.016677532
-9.7709421e-07
0.012687582
-6.9508718e-07
0.0085759812
-4.1503619e-07
0.0052399112
-2.1956666e-07
0.0029419936
-1.0522174e-07
0.0015371365
-4.5551076e-08
0.00075192616
-1.7235876e-08
0.00034291657
-5.1759967e-09
0.00014235704
-8.8588631e-10
4.9773729e-05
1.0135615e-05
8.1604095e-10
1.0134799e-05
4.7699239e-09
4.9769775e-05
1.5885889e-08
0.00014234592
4.1990331e-08
0.00034289047
9.7026346e-08
0.00075187112
2.0259288e-07
0.0015370309
3.8344808e-07
0.0029418127
6.4389493e-07
0.0052396508
9.0984238e-07
0.0085757152
9.7823603e-07
0.012687514
6.5086676e-07
0.01667786
7.2003642e-13
0.019200325
-6.5086573e-07
0.019200325
-9.78236e-07
0.01667786
-9.0984283e-07
0.012687514
-6.4389362e-07
0.0085757152
-3.8344272e-07
0.0052396508
-2.0258362e-07
0.0029418127
-9.7016111e-08
0.0015370309
-4.1982503e-08
0.00075187112
-1.5881822e-08
0.00034289047
-4.7686433e-09
0.00014234592
-8.1609453e-10
4.9769775e-05
1.0134799e-05
7.5416952e-10
1.0134045e-05
4.4087115e-09
4.9766121e-05
1.4684795e-08
0.00014233564
3.8823264e-08
0.00034286633
8.9737957e-08
0.00075182021
1.8748611e-07
0.0015369332
3.5526434e-07
0.0029416449
5.9795726e-07
0.0052394081
8.4878761e-07
0.0085754644
9.1936639e-07
0.012687443
6.1601053e-07
0.016678163
3.1043047e-13
0.019200941
-6.1601029e-07
0.019200941
-9.1936712e-07
0.016678163
-8.4878868e-07
0.012687443
-5.9795633e-07
0.0085754644
-3.5525909e-07
0.0052394081
-1.8747671e-07
0.0029416449
-8.9727425e-08
0.0015369332
-3.8815129e-08
0.00075182021
-1.4680535e-08
0.00034286633
-4.4073571e-09
0.00014233564
-7.5421806e-10
4.9766121e-05
1.0134045e-05
6.9891896e-10
1.0133346e-05
4.0860923e-09
4.9762734e-05
1.3611759e-08
0.00014232612
3.5992739e-08
0.00034284395
8.3219632e-08
0.00075177298
1.7395854e-07
0.0015368425
3.2996399e-07
0.0029414889
5.5650604e-07
0.0052391815
7.9311961e-07
0.0085752278
8.6476759e-07
0.012687372
5.8323131e-07
0.016678444
-1.1520907e-13
0.019201524
-5.8323193e-07
0.019201524
-8.6476913e-07
0.016678444
-7.9312132e-07
0.012687372
-5.5650541e-07
0.0085752278
-3.2995869e-07
0.0052391815
-1.7394877e-07
0.0029414889
-8.3208551e-08
0.0015368425
-3.5984121e-08
0.00075177298
-1.3607227e-08
0.00034284395
-4.0846462e-09
0.00014232612
-6.9896869e-10
4.9762734e-05
1.0133346e-05
6.4927319e-10
1.0132697e-05
3.7961529e-09
4.9759587e-05
1.2647204e-08
0.00014231727
3.3447484e-08
0.00034282315
7.7354771e-08
0.00075172907
1.617738e-07
0.001536758
3.0712544e-07
0.0029413436
5.1891802e-07
0.0052389697
7.4217153e-07
0.0085750045
8.1401308e-07
0.0126873
5.5234202e-07
0.016678706
-5.1817979e-13
0.019202077
-5.5234346e-07
0.019202077
-8.1401543e-07
0.016678706
-7.4217383e-07
0.0126873
-5.1891763e-07
0.0085750045
-3.0711993e-07
0.0052389697
-1.6176343e-07
0.0029413436
-7.7342927e-08
0.001536758
-3.3438244e-08
0.00075172907
-1.2642341e-08
0.00034282315
-3.7946047e-09
0.00014231727
-6.4933068e-10
4.9759587e-05
1.0132697e-05
6.0441841e-10
1.0132092e-05
3.5341547e-09
4.9756657e-05
1.1775427e-08
0.00014230903
3.1146335e-08
0.00034280378
7.2049588e-08
0.00075168817
1.5074113e-07
0.0015366793
2.8640625e-07
0.0029412079
4.8468003e-07
0.0052387715
6.9537933e-07
0.0085747938
7.6674291e-07
0.012687229
5.2320394e-07
0.01667895
-8.6252356e-13
0.0192026
-5.2320611e-07
0.0192026
-7.6674598e-07
0.01667895
-6.9538217e-07
0.012687229
-4.8467981e-07
0.0085747938
-2.8640042e-07
0.0052387715
-1.5073e-07
0.0029412079
-7.2036845e-08
0.0015366793
-3.1136396e-08
0.00075168817
-1.1770209e-08
0.00034280378
-3.5325049e-09
0.00014230903
-6.0449027e-10
4.9756657e-05
1.0132092e-05
5.6369626e-10
1.0131528e-05
3.2962621e-09
4.9753924e-05
1.0983717e-08
0.00014230134
2.9055943e-08
0.0003427857
6.7228008e-08
0.00075165
1.4070545e-07
0.0015366059
2.6752697e-07
0.0029410811
4.5337058e-07
0.0052385856
6.5227411e-07
0.0085745949
7.2263519e-07
0.012687158
4.9567351e-07
0.016679177
-1.1232328e-12
0.019203096
-4.9567624e-07
0.019203096
-7.2263886e-07
0.016679177
-6.5227743e-07
0.012687158
-4.533705e-07
0.0085745949
-2.6752078e-07
0.0052385856
-1.4069351e-07
0.0029410811
-6.7214334e-08
0.0015366059
-2.9045306e-08
0.00075165
-1.0978162e-08
0.0003427857
-3.2945255e-09
0.00014230134
-5.6378903e-10
4.9753924e-05
1.0131528e-05
5.2656765e-10
1.0131002e-05
3.0793339e-09
4.9751372e-05
1.0261655e-08
0.00014229416
2.7148953e-08
0.00034276882
6.2827552e-08
0.00075161432
1.3153909e-07
0.0015365372
2.5025626e-07
0.0029409624
4.246361e-07
0.0052384112
6.1245172e-07
0.0085744071
6.8142209e-07
0.012687089
4.6965677e-07
0.016679388
-1.2885893e-12
0.019203565
-4.696599e-07
0.019203565
-6.8142623e-07
0.016679388
-6.1245546e-07
0.012687089
-4.2463617e-07
0.0085744071
-2.5024976e-07
0.0052384112
-1.3152641e-07
0.0029409624
-6.2813042e-08
0.0015365372
-2.7137721e-08
0.00075161432
-1.0255833e-08
0.00034276882
-3.0775422e-09
0.00014229416
-5.2668775e-10
4.9751372e-05
1.0131002e-05
4.9258806e-10
1.0130509e-05
2.880779e-09
4.9748983e-05
9.6006477e-09
0.00014228744
2.54028e-08
0.00034275301
5.8796651e-08
0.00075158092
1.2313657e-07
0.0015364728
2.3440269e-07
0.0029408511
3.9818365e-07
0.0052382475
5.7557567e-07
0.0085742297
6.4285146e-07
0.012687022
4.4503239e-07
0.016679586
-1.3584117e-12
0.01920401
-4.4503574e-07
0.01920401
-6.4285594e-07
0.016679586
-5.7557979e-07
0.012687022
-3.9818393e-07
0.0085742297
-2.34396e-07
0.0052382475
-1.2312334e-07
0.0029408511
-5.8781548e-08
0.0015364728
-2.5391186e-08
0.00075158092
-9.5946891e-09
0.00034275301
-2.878984e-09
0.00014228744
-4.9274186e-10
4.9748983e-05
1.0130509e-05
4.6138594e-10
1.0130048e-05
2.6984324e-09
4.9746746e-05
8.9935111e-09
0.00014228114
2.37986e-08
0.00034273821
5.5092091e-08
0.00075154963
1.1540926e-07
0.0015364125
2.1980451e-07
0.0029407467
3.7376187e-07
0.0052380935
5.4134846e-07
0.0085740621
6.0672308e-07
0.012686957
4.2174083e-07
0.016679771
-1.3394703e-12
0.019204432
-4.2174422e-07
0.019204432
-6.0672778e-07
0.016679771
-5.4135293e-07
0.012686957
-3.7376243e-07
0.0085740621
-2.1979785e-07
0.0052380935
-1.1539584e-07
0.0029407467
-5.5076804e-08
0.0015364125
-2.3786949e-08
0.00075154963
-8.9876163e-09
0.00034273821
-2.6967087e-09
0.00014228114
-4.6157968e-10
4.9746746e-05
1.0130048e-05
4.3264891e-10
1.0129615e-05
2.5304723e-09
4.9744649e-05
8.4342008e-09
0.00014227524
2.2320476e-08
0.00034272432
5.1677561e-08
0.00075152027
1.0828273e-07
0.0015363559
2.0632595e-07
0.0029406487
3.5116071e-07
0.0052379487
5.0952197e-07
0.0085739038
5.7282919e-07
0.012686893
3.9966752e-07
0.016679944
-1.2403733e-12
0.019204832
-3.9967081e-07
0.019204832
-5.7283399e-07
0.016679944
-5.0952676e-07
0.012686893
-3.511617e-07
0.0085739038
-2.0631966e-07
0.0052379487
-1.0826964e-07
0.0029406487
-5.1662687e-08
0.0015363559
-2.2309281e-08
0.00075152027
-8.4286492e-09
0.00034272432
-2.5289207e-09
0.00014227524
-4.3288856e-10
4.9744648e-05
1.0129615e-05
4.0611174e-10
1.0129209e-05
2.3753539e-09
4.9742679e-05
7.9175882e-09
0.0001422697
2.095493e-08
0.00034271129
4.8522101e-08
0.00075149271
1.0169328e-07
0.0015363027
1.9385e-07
0.0029405565
3.3019561e-07
0.0052378123
4.7987116e-07
0.0085737541
5.4102315e-07
0.012686832
3.7878466e-07
0.016680107
-1.0678748e-12
0.01920521
-3.7878769e-07
0.01920521
-5.4102793e-07
0.016680107
-4.7987625e-07
0.012686832
-3.3019717e-07
0.0085737541
-1.938445e-07
0.0052378123
-1.0168122e-07
0.0029405565
-4.8508447e-08
0.0015363027
-2.094485e-08
0.0007514927
-7.9127485e-09
0.00034271128
-2.3741042e-09
0.00014226969
-4.0640273e-10
4.9742679e-05
1.0129209e-05
3.815469e-10
1.0128828e-05
2.2317483e-09
4.9740829e-05
7.4392633e-09
0.00014226449
1.9690382e-08
0.00034269903
4.5599243e-08
0.0007514668
9.5586607e-08
0.0015362527
1.8227724e-07
0.0029404698
3.1071137e-07
0.0052376839
4.5220758e-07
0.0085736126
5.1112174e-07
0.012686773
3.58971e-07
0.016680259
-8.2492429e-13
0.019205569
-3.5897364e-07
0.019205569
-5.1112638e-07
0.016680259
-4.5221292e-07
0.012686773
-3.1071369e-07
0.0085736126
-1.8227308e-07
0.0052376839
-9.5576489e-08
0.0029404698
-4.5587858e-08
0.0015362527
-1.9682268e-08
0.00075146679
-7.4356061e-09
0.00034269903
-2.2309634e-09
0.00014226449
-3.818939e-10
4.9740829e-05
1.0128828e-05
3.5876035e-10
1.0128469e-05
2.098527e-09
4.9739089e-05
6.9954778e-09
0.00014225959
1.8516943e-08
0.00034268751
4.2886213e-08
0.00075144243
8.9915634e-08
0.0015362057
1.7152068e-07
0.0029403882
2.9256904e-07
0.0052375628
4.2635843e-07
0.0085734788
4.830272e-07
0.012686717
3.4023446e-07
0.016680402
-5.1787455e-13
0.01920591
-3.4023655e-07
0.01920591
-4.8303152e-07
0.016680402
-4.2636394e-07
0.012686717
-2.9257233e-07
0.0085734788
-1.7151854e-07
0.0052375628
-8.9908607e-08
0.0029403882
-4.2878419e-08
0.0015362057
-1.8511861e-08
0.00075144242
-6.9935895e-09
0.00034268751
-2.0984077e-09
0.00014225959
-3.5916723e-10
4.9739089e-05
1.0128469e-05
3.3758009e-10
1.0128131e-05
1.9746821e-09
4.9737452e-05
6.5828857e-09
0.00014225498
1.7425849e-08
0.00034267667
4.0363054e-08
0.00075141949
8.4639483e-08
0.0015361614
1.6150523e-07
0.0029403113
2.7565023e-07
0.0052374487
4.0217456e-07
0.0085733523
4.5656224e-07
0.012686662
3.2243244e-07
0.016680536
-1.5929038e-13
0.019206232
-3.2243382e-07
0.019206232
-4.5656606e-07
0.016680536
-4.0218016e-07
0.012686662
-2.7565472e-07
0.0085733523
-1.6150594e-07
0.0052374487
-8.4636968e-08
0.0029403113
-4.0360479e-08
0.0015361614
-1.7425104e-08
0.00075141949
-6.5834777e-09
0.00034267667
-1.975468e-09
0.00014225498
-3.3804865e-10
4.9737451e-05
1.0128131e-05
3.1786332e-10
1.0127813e-05
1.8593881e-09
4.9735911e-05
6.1987428e-09
0.00014225064
1.6409808e-08
0.00034266646
3.801281e-08
0.00075139789
7.9722805e-08
0.0015361197
1.5216521e-07
0.0029402389
2.5984943e-07
0.005237341
3.7952534e-07
0.0085732326
4.3168216e-07
0.01268661
3.056195e-07
0.016680662
2.8737945e-13
0.019206538
-3.0562e-07
0.019206538
-4.3168527e-07
0.016680662
-3.7953088e-07
0.01268661
-2.5985541e-07
0.0085732326
-1.5216979e-07
0.005237341
-7.9726539e-08
0.0029402389
-3.8017434e-08
0.0015361197
-1.641498e-08
0.00075139788
-6.2026696e-09
0.00034266646
-1.8613645e-09
0.00014225064
-3.1839369e-10
4.973591e-05
1.0127813e-05
2.9947298e-10
1.0127514e-05
1.7518335e-09
4.9734458e-05
5.8403567e-09
0.00014224655
1.5461835e-08
0.00034265684
3.5819762e-08
0.00075137753
7.5133667e-08
0.0015360804
1.4344173e-07
0.0029401706
2.4507177e-07
0.0052372394
3.5828304e-07
0.0085731194
4.081933e-07
0.01268656
2.8961225e-07
0.01668078
7.7109929e-13
0.019206827
-2.8961172e-07
0.019206827
-4.0819545e-07
0.01668078
-3.5828839e-07
0.01268656
-2.450796e-07
0.0085731194
-1.434514e-07
0.0052372394
-7.5145735e-08
0.0029401706
-3.5833955e-08
0.0015360804
-1.5474804e-08
0.00075137752
-5.8486344e-09
0.00034265683
-1.7553387e-09
0.00014224655
-3.0006508e-10
4.9734457e-05
1.0127514e-05
2.8230923e-10
1.0127232e-05
1.6514546e-09
4.9733089e-05
5.5058478e-09
0.0001422427
1.4576815e-08
0.00034264777
3.377165e-08
0.00075135833
7.0845909e-08
0.0015360433
1.3528602e-07
0.0029401061
2.3124033e-07
0.0052371434
3.3835956e-07
0.0085730123
3.8612015e-07
0.012686512
2.7453202e-07
0.016680892
1.2778696e-12
0.019207102
-2.7453035e-07
0.019207102
-3.8612112e-07
0.016680892
-3.3836459e-07
0.012686512
-2.3125041e-07
0.0085730123
-1.3530222e-07
0.0052371434
-7.0868746e-08
0.0029401061
-3.3798158e-08
0.0015360433
-1.4599741e-08
0.00075135833
-5.5196272e-09
0.00034264776
-1.6568615e-09
0.0001422427
-2.8295427e-10
4.9733088e-05
1.0127231e-05
2.6625091e-10
1.0126965e-05
1.5575155e-09
4.9731798e-05
5.1927802e-09
0.00014223906
1.3748577e-08
0.00034263921
3.1855064e-08
0.00075134023
6.6832983e-08
0.0015360084
1.276487e-07
0.0029400453
2.1827116e-07
0.0052370528
3.1962694e-07
0.0085729109
3.652203e-07
0.012686467
2.6012643e-07
0.016680997
1.7803421e-12
0.019207362
-2.6012354e-07
0.019207362
-3.6521986e-07
0.016680997
-3.1963148e-07
0.012686467
-2.1828399e-07
0.0085729109
-1.2767312e-07
0.0052370528
-6.6869436e-08
0.0029400453
-3.1897077e-08
0.0015360083
-1.3783951e-08
0.00075134022
-5.213378e-09
0.00034263921
-1.5652462e-09
0.00014223906
-2.6693593e-10
4.9731796e-05
1.0126965e-05
2.5124795e-10
1.0126714e-05
1.469769e-09
4.9730579e-05
4.9003137e-09
0.00014223563
1.2974507e-08
0.00034263114
3.0062736e-08
0.00075132314
6.3077868e-08
0.0015359753
1.2049804e-07
0.0029399879
2.0611988e-07
0.0052369672
3.0205547e-07
0.008572815
3.4562248e-07
0.012686423
2.4661735e-07
0.016681096
2.2097054e-12
0.019207609
-2.4661322e-07
0.019207609
-3.4562038e-07
0.016681096
-3.0205933e-07
0.012686423
-2.0613599e-07
0.008572815
-1.2053256e-07
0.0052369672
-6.3131157e-08
0.0029399879
-3.0123879e-08
0.0015359753
-1.3025166e-08
0.00075132313
-4.9292386e-09
0.00034263113
-1.4803157e-09
0.00014223563
-2.5196652e-10
4.9730577e-05
1.0126714e-05
2.3716656e-10
1.0126477e-05
1.3873647e-09
4.9729429e-05
4.6256501e-09
0.0001422324
1.2247846e-08
0.00034262351
2.8381044e-08
0.00075130701
5.9555294e-08
0.0015359442
1.1378648e-07
0.0029399337
1.9469616e-07
0.0052368863
2.8548222e-07
0.0085727242
3.2698403e-07
0.012686382
2.3364099e-07
0.016681189
2.6400312e-12
0.019207842
-2.3363557e-07
0.019207842
-3.2698001e-07
0.016681189
-2.8548517e-07
0.012686382
-1.9471606e-07
0.0085727242
-1.1383307e-07
0.0052368863
-5.9628803e-08
0.0029399336
-2.8465071e-08
0.0015359441
-1.2316653e-08
0.00075130699
-4.664354e-09
0.00034262351
-1.4011488e-09
0.00014223239
-2.378673e-10
4.9729427e-05
1.0126476e-05
2.2404767e-10
1.0126253e-05
1.3106493e-09
4.9728343e-05
4.3698809e-09
0.00014222934
1.1570436e-08
0.00034261631
2.681099e-08
0.00075129177
5.6262146e-08
0.0015359147
1.0750788e-07
0.0029398824
1.8400909e-07
0.0052368098
2.6998115e-07
0.0085726383
3.09606e-07
0.012686342
2.215756e-07
0.016681277
2.9619782e-12
0.019208064
-2.2156889e-07
0.019208064
-3.0959967e-07
0.016681277
-2.6998279e-07
0.012686342
-1.840332e-07
0.0085726383
-1.0756865e-07
0.0052368098
-5.635959e-08
0.0029398824
-2.6922014e-08
0.0015359147
-1.1660498e-08
0.00075129175
-4.4199334e-09
0.00034261631
-1.3281322e-09
0.00014222933
-2.2468302e-10
4.972834e-05
1.0126252e-05
2.1167211e-10
1.0126041e-05
1.2381747e-09
4.9727316e-05
4.1282911e-09
0.00014222645
1.0931496e-08
0.00034260951
2.5332902e-08
0.00075127736
5.3165825e-08
0.0015358869
1.0160149e-07
0.002939834
1.7392869e-07
0.0052367375
2.5529013e-07
0.0085725569
2.9296228e-07
0.012686304
2.0988335e-07
0.01668136
3.2480048e-12
0.019208274
-2.0987523e-07
0.019208274
-2.9295315e-07
0.01668136
-2.5528984e-07
0.012686304
-1.7395716e-07
0.0085725569
-1.0167827e-07
0.0052367374
-5.3290759e-08
0.0029398339
-2.5475026e-08
0.0015358868
-1.1046003e-08
0.00075127735
-4.1913628e-09
0.0003426095
-1.2598935e-09
0.00014222644
-2.1223203e-10
4.9727313e-05
1.0126041e-05
2.0032141e-10
1.0125841e-05
1.1718449e-09
4.9726345e-05
3.9069909e-09
0.00014222371
1.0344242e-08
0.00034260307
2.3968175e-08
0.00075126374
5.0295584e-08
0.0015358606
9.6117594e-08
0.0029397882
1.6457825e-07
0.005236669
2.4169351e-07
0.0085724798
2.7765559e-07
0.012686268
1.9919344e-07
0.016681439
3.4335133e-12
0.019208473
-1.9918374e-07
0.019208473
-2.7764278e-07
0.016681439
-2.4169009e-07
0.012686269
-1.646106e-07
0.0085724798
-9.6211497e-08
0.005236669
-5.0450619e-08
0.0029397881
-2.4144338e-08
0.0015358605
-1.0485255e-08
0.00075126372
-3.9839191e-09
0.00034260307
-1.1978797e-09
0.00014222371
-2.0063194e-10
4.9726342e-05
1.012584e-05
1.8939301e-10
1.0125652e-05
1.1077379e-09
4.9725426e-05
3.6933951e-09
0.00014222113
9.7806022e-09
0.00034259699
2.2668129e-08
0.00075125085
4.7578107e-08
0.0015358356
9.0932877e-08
0.0029397448
1.5570479e-07
0.0052366042
2.2870376e-07
0.0085724068
2.6285328e-07
0.012686234
1.887124e-07
0.016681513
3.5943913e-12
0.019208662
-1.8870089e-07
0.019208662
-2.6283584e-07
0.016681513
-2.2869562e-07
0.012686234
-1.5573992e-07
0.0085724068
-9.1044362e-08
0.0052366042
-4.7765031e-08
0.0029397447
-2.2880156e-08
0.0015358356
-9.9490035e-09
0.00075125083
-3.7841666e-09
0.00034259698
-1.1377592e-09
0.00014222112
-1.8918098e-10
4.9725424e-05
1.0125651e-05
1.8002239e-10
1.0125472e-05
1.0531057e-09
4.9724553e-05
3.5105626e-09
0.00014221867
9.2917123e-09
0.0003425912
2.1520691e-08
0.00075123862
4.5142734e-08
0.001535812
8.6253416e-08
0.0029397037
1.4770642e-07
0.0052365428
2.1705324e-07
0.0085723374
2.4970699e-07
0.012686202
1.7949081e-07
0.016681583
3.6331743e-12
0.019208841
-1.7947738e-07
0.019208841
-2.4968367e-07
0.016681583
-2.1703769e-07
0.012686202
-1.4774134e-07
0.0085723374
-8.6380958e-08
0.0052365427
-4.5361533e-08
0.0029397036
-2.1768701e-08
0.001535812
-9.4869828e-09
0.00075123861
-3.6143903e-09
0.0003425912
-1.086564e-09
0.00014221867
-1.7907641e-10
4.9724551e-05
1.0125471e-05
1.6891862e-10
1.0125303e-05
9.8820448e-10
4.9723734e-05
3.297239e-09
0.00014221636
8.742398e-09
0.00034258576
2.0294013e-08
0.00075122707
4.266317e-08
0.0015357897
8.1642758e-08
0.0029396647
1.3992593e-07
0.0052364845
2.0571972e-07
0.0085722716
2.367614e-07
0.012686171
1.703132e-07
0.01668165
3.7521727e-12
0.019209011
-1.7029793e-07
0.019209011
-2.367318e-07
0.01668165
-2.0569438e-07
0.012686171
-1.3995594e-07
0.0085722716
-8.1780948e-08
0.0052364844
-4.2908837e-08
0.0029396646
-2.0573208e-08
0.0015357896
-8.9603245e-09
0.00075122706
-3.4113728e-09
0.00034258576
-1.0239123e-09
0.00014221636
-1.6704703e-10
4.9723733e-05
1.0125303e-05
1.6412222e-10
1.0125139e-05
9.6032217e-10
4.9722938e-05