/*--------------------------------*- C++ -*----------------------------------*\
| =========                 |                                                 |
| \\      /  F ield         | OpenFOAM: The Open Source CFD Toolbox           |
|  \\    /   O peration     | Version:  2406                                  |
|   \\  /    A nd           | Website:  www.openfoam.com                      |
|    \\/     M anipulation  |                                                 |
\*---------------------------------------------------------------------------*/
FoamFile
{
    version     2.0;
    format      ascii;
    arch        "LSB;label=32;scalar=64";
    class       volVectorField;
    location    "39";
    object      U;
}
// * * * * * * * * * * * * * * * * * * * * * * * * * * * * * * * * * * * * * //

dimensions      [0 1 -1 0 0 0 0];

internalField   nonuniform List<vector> 
1176
(
(0.019493789 7.0786329e-07 0)
(0.066677318 8.1696606e-06 0)
(0.13357994 3.9503163e-05 0)
(0.22724701 0.00010873576 0)
(0.35591522 0.00021176025 0)
(0.52772023 0.00030396282 0)
(0.74780387 0.00031818012 0)
(1.0136216 0.00024904576 0)
(1.3093323 0.00016666977 0)
(1.6017081 0.00011264655 0)
(1.8421723 7.0213775e-05 0)
(1.9793239 2.3940414e-05 0)
(1.9793239 -2.3941283e-05 0)
(1.8421723 -7.0215569e-05 0)
(1.6017081 -0.00011265095 0)
(1.3093323 -0.00016667992 0)
(1.0136216 -0.00024906474 0)
(0.74780389 -0.00031820796 0)
(0.52772025 -0.00030399486 0)
(0.35591523 -0.00021178809 0)
(0.227247 -0.00010875651 0)
(0.13357993 -3.9506564e-05 0)
(0.06667731 -8.1831697e-06 0)
(0.019493787 -7.0620342e-07 0)
(0.020187017 -3.741918e-06 0)
(0.068813532 -2.463864e-05 0)
(0.13732107 -9.6548556e-05 0)
(0.23247391 -0.00024839461 0)
(0.36204617 -0.00047268784 0)
(0.53373557 -0.00067421189 0)
(0.75267407 -0.00069486953 0)
(1.0170176 -0.00049687384 0)
(1.3116385 -0.00023345942 0)
(1.6034438 -4.9824752e-05 0)
(1.8436588 1.9764306e-05 0)
(1.9807026 1.3427383e-05 0)
(1.9807026 -1.3427578e-05 0)
(1.8436588 -1.976283e-05 0)
(1.6034438 4.9830524e-05 0)
(1.3116385 0.0002334725 0)
(1.0170177 0.00049689689 0)
(0.75267408 0.00069490175 0)
(0.53373558 0.00067424555 0)
(0.36204618 0.0004727129 0)
(0.23247391 0.00024840895 0)
(0.13732107 9.6551631e-05 0)
(0.068813527 2.4643111e-05 0)
(0.020187015 3.7414214e-06 0)
(0.020018442 2.0918364e-06 0)
(0.068327405 1.2720775e-05 0)
(0.13655404 4.6877253e-05 0)
(0.23159544 0.00011389738 0)
(0.36138709 0.00019769266 0)
(0.53366969 0.00023903231 0)
(0.75344344 0.00020559805 0)
(1.0184881 0.00011361096 0)
(1.3134639 7.4313265e-05 0)
(1.6053464 7.9532359e-05 0)
(1.8455118 7.0515676e-05 0)
(1.9825245 2.7824265e-05 0)
(1.9825245 -2.7827923e-05 0)
(1.8455118 -7.0520407e-05 0)
(1.6053464 -7.9538787e-05 0)
(1.3134639 -7.4321131e-05 0)
(1.0184881 -0.00011361919 0)
(0.75344342 -0.00020560432 0)
(0.53366967 -0.00023903796 0)
(0.36138707 -0.00019769567 0)
(0.23159543 -0.00011389791 0)
(0.13655404 -4.6877903e-05 0)
(0.068327404 -1.2719149e-05 0)
(0.020018441 -2.0920996e-06 0)
(0.019966547 7.0076292e-07 0)
(0.068159232 4.6870565e-06 0)
(0.13624021 1.9355437e-05 0)
(0.2311194 5.645617e-05 0)
(0.36078093 0.00013444565 0)
(0.53306293 0.00025829315 0)
(0.75295637 0.00035344735 0)
(1.0181104 0.0003691199 0)
(1.313184 0.00030758857 0)
(1.6051633 0.00022777224 0)
(1.8453995 0.00014555936 0)
(1.9824491 4.9997437e-05 0)
(1.9824491 -4.9996593e-05 0)
(1.8453995 -0.00014555822 0)
(1.6051633 -0.00022777092 0)
(1.313184 -0.00030758721 0)
(1.0181104 -0.00036911928 0)
(0.75295638 -0.00035344946 0)
(0.53306294 -0.00025829608 0)
(0.36078094 -0.00013444854 0)
(0.23111941 -5.6458068e-05 0)
(0.13624021 -1.9355963e-05 0)
(0.068159235 -4.6876883e-06 0)
(0.019966549 -7.0070163e-07 0)
(0.019942203 2.9076717e-07 0)
(0.068078703 1.9872104e-06 0)
(0.13608628 8.236111e-06 0)
(0.23087699 2.3699323e-05 0)
(0.36044744 5.688162e-05 0)
(0.53266448 0.00012306884 0)
(0.75256878 0.00022681811 0)
(1.017808 0.00032272205 0)
(1.3129044 0.00034572436 0)
(1.604912 0.00030729946 0)
(1.8452029 0.00021095277 0)
(1.9822898 7.4614168e-05 0)
(1.9822898 -7.4614948e-05 0)
(1.8452029 -0.00021095358 0)
(1.604912 -0.00030730039 0)
(1.3129044 -0.00034572487 0)
(1.017808 -0.00032272201 0)
(0.75256878 -0.00022681824 0)
(0.53266449 -0.00012306868 0)
(0.36044744 -5.6881394e-05 0)
(0.23087699 -2.3699128e-05 0)
(0.13608628 -8.2360127e-06 0)
(0.068078703 -1.9871555e-06 0)
(0.019942204 -2.9077232e-07 0)
(0.019933132 1.7181392e-07 0)
(0.068047755 1.1940815e-06 0)
(0.13602489 5.0651948e-06 0)
(0.23077535 1.4968864e-05 0)
(0.36029899 3.6219556e-05 0)
(0.5324792 7.6944261e-05 0)
(0.75239427 0.00014713772 0)
(1.0177222 0.00023749022 0)
(1.3129292 0.00028525582 0)
(1.6049746 0.00027441469 0)
(1.8452865 0.00019644593 0)
(1.9823834 7.1176655e-05 0)
(1.9823834 -7.1177442e-05 0)
(1.8452865 -0.00019644673 0)
(1.6049746 -0.00027441551 0)
(1.3129292 -0.00028525657 0)
(1.0177222 -0.00023749051 0)
(0.75239427 -0.00014713815 0)
(0.5324792 -7.6944465e-05 0)
(0.36029899 -3.6219464e-05 0)
(0.23077535 -1.4968707e-05 0)
(0.13602489 -5.0649115e-06 0)
(0.068047756 -1.1941995e-06 0)
(0.019933132 -1.7177444e-07 0)
(0.0199234 1.5587486e-07 0)
(0.068015507 1.0700806e-06 0)
(0.13596286 4.493463e-06 0)
(0.23067607 1.3195472e-05 0)
(0.36015773 3.1857152e-05 0)
(0.53230178 6.6958285e-05 0)
(0.75221429 0.00012411895 0)
(1.0176105 0.00019917058 0)
(1.3129358 0.00025490847 0)
(1.6050904 0.00024595167 0)
(1.8454579 0.00018127887 0)
(1.9825798 6.6548381e-05 0)
(1.9825798 -6.6548781e-05 0)
(1.8454579 -0.00018127922 0)
(1.6050904 -0.00024595182 0)
(1.3129358 -0.0002549083 0)
(1.0176105 -0.00019917026 0)
(0.75221429 -0.0001241186 0)
(0.53230178 -6.6957878e-05 0)
(0.36015773 -3.1856743e-05 0)
(0.23067607 -1.319525e-05 0)
(0.13596286 -4.493108e-06 0)
(0.068015507 -1.0703304e-06 0)
(0.0199234 -1.5580966e-07 0)
(0.019915697 1.2758629e-07 0)
(0.067989792 8.78018e-07 0)
(0.13591293 3.6960016e-06 0)
(0.23059503 1.0901611e-05 0)
(0.36003987 2.6613373e-05 0)
(0.53214753 5.7237178e-05 0)
(0.75204133 0.00010911059 0)
(1.0174723 0.00017936642 0)
(1.3128926 0.00023802494 0)
(1.6051414 0.00023746768 0)
(1.8455877 0.00017750688 0)
(1.9827514 6.5539437e-05 0)
(1.9827514 -6.5539524e-05 0)
(1.8455877 -0.00017750692 0)
(1.6051414 -0.00023746754 0)
(1.3128926 -0.00023802456 0)
(1.0174723 -0.00017936593 0)
(0.75204133 -0.00010910992 0)
(0.53214753 -5.7236375e-05 0)
(0.36003987 -2.661265e-05 0)
(0.23059503 -1.0901205e-05 0)
(0.13591293 -3.6955943e-06 0)
(0.067989792 -8.7821483e-07 0)
(0.019915697 -1.2752501e-07 0)
(0.019909217 1.0465913e-07 0)
(0.067968141 7.2313376e-07 0)
(0.13587084 3.0521076e-06 0)
(0.23052654 9.0118364e-06 0)
(0.35993984 2.19999e-05 0)
(0.53201542 4.747349e-05 0)
(0.75188901 9.2014169e-05 0)
(1.0173341 0.00015618206 0)
(1.3128278 0.000216997 0)
(1.6051595 0.00022709653 0)
(1.8456699 0.00017232655 0)
(1.982868 6.4147877e-05 0)
(1.982868 -6.414766e-05 0)
(1.8456699 -0.00017232631 0)
(1.6051595 -0.00022709618 0)
(1.3128278 -0.00021699656 0)
(1.0173341 -0.00015618159 0)
(0.75188901 -9.2013493e-05 0)
(0.53201542 -4.7472674e-05 0)
(0.35993984 -2.1999161e-05 0)
(0.23052654 -9.0114107e-06 0)
(0.13587084 -3.0516888e-06 0)
(0.067968141 -7.2331785e-07 0)
(0.019909217 -1.0459853e-07 0)
(0.019903971 8.6127931e-08 0)
(0.067950552 5.9695984e-07 0)
(0.13583649 2.5273828e-06 0)
(0.2304703 7.4916201e-06 0)
(0.35985692 1.8376319e-05 0)
(0.53190436 3.9835738e-05 0)
(0.75175836 7.7712261e-05 0)
(1.0172122 0.00013432454 0)
(1.3127613 0.00019323398 0)
(1.6051772 0.00021058381 0)
(1.8457533 0.00016273005 0)
(1.9829863 6.1084499e-05 0)
(1.9829863 -6.1084138e-05 0)
(1.8457533 -0.00016272966 0)
(1.6051772 -0.00021058337 0)
(1.3127613 -0.00019323352 0)
(1.0172122 -0.00013432403 0)
(0.75175836 -7.7711557e-05 0)
(0.53190436 -3.9834921e-05 0)
(0.35985692 -1.8375583e-05 0)
(0.2304703 -7.4911947e-06 0)
(0.13583649 -2.52695e-06 0)
(0.067950552 -5.9715395e-07 0)
(0.019903971 -8.6064795e-08 0)
(0.019899543 7.335729e-08 0)
(0.067935688 5.0896178e-07 0)
(0.13580742 2.1568915e-06 0)
(0.23042259 6.4027698e-06 0)
(0.35978626 1.5747607e-05 0)
(0.5318089 3.4277863e-05 0)
(0.75164409 6.7204692e-05 0)
(1.0171021 0.00011723011 0)
(1.3126976 0.00017262491 0)
(1.6051928 0.00019308939 0)
(1.8458371 0.00015219901 0)
(1.9831061 5.7545062e-05 0)
(1.9831061 -5.7544649e-05 0)
(1.8458371 -0.0001521986 0)
(1.6051928 -0.00019308897 0)
(1.3126976 -0.0001726245 0)
(1.0171021 -0.00011722961 0)
(0.75164409 -6.7203981e-05 0)
(0.5318089 -3.4277036e-05 0)
(0.35978626 -1.5746851e-05 0)
(0.23042259 -6.4023274e-06 0)
(0.13580742 -2.1564359e-06 0)
(0.067935688 -5.0916659e-07 0)
(0.019899543 -7.3291013e-08 0)
(0.019895721 6.3726992e-08 0)
(0.06792285 4.4252361e-07 0)
(0.13578228 1.8767386e-06 0)
(0.23038125 5.5765334e-06 0)
(0.35972483 1.3738696e-05 0)
(0.53172535 2.9998038e-05 0)
(0.75154264 5.9111633e-05 0)
(1.0170011 0.00010388834 0)
(1.3126344 0.00015540305 0)
(1.6052015 0.00017849559 0)
(1.8459125 0.00014271589 0)
(1.9832185 5.4330877e-05 0)
(1.9832185 -5.4330463e-05 0)
(1.8459125 -0.00014271549 0)
(1.6052015 -0.00017849524 0)
(1.3126344 -0.00015540271 0)
(1.0170011 -0.00010388786 0)
(0.75154264 -5.9110925e-05 0)
(0.53172535 -2.9997196e-05 0)
(0.35972483 -1.3737914e-05 0)
(0.23038125 -5.5760743e-06 0)
(0.13578228 -1.8762608e-06 0)
(0.06792285 -4.4274249e-07 0)
(0.019895721 -6.3657037e-08 0)
(0.019892371 5.6089537e-08 0)
(0.067911586 3.8978134e-07 0)
(0.13576021 1.6541239e-06 0)
(0.2303449 4.9187707e-06 0)
(0.35967069 1.2132024e-05 0)
(0.53165136 2.6542467e-05 0)
(0.7514519 5.2498839e-05 0)
(1.0169086 9.2875819e-05 0)
(1.3125728 0.00014061511 0)
(1.605205 0.00016529647 0)
(1.8459798 0.0001339896 0)
(1.9833221 5.1387698e-05 0)
(1.9833221 -5.1387311e-05 0)
(1.8459798 -0.00013398926 0)
(1.605205 -0.0001652962 0)
(1.3125728 -0.00014061482 0)
(1.0169086 -9.2875364e-05 0)
(0.7514519 -5.2498121e-05 0)
(0.53165136 -2.6541593e-05 0)
(0.35967069 -1.213121e-05 0)
(0.2303449 -4.9182952e-06 0)
(0.13576021 -1.6536295e-06 0)
(0.067911586 -3.9001204e-07 0)
(0.019892371 -5.6016567e-08 0)
(0.019889403 4.9848404e-08 0)
(0.067901607 3.4662081e-07 0)
(0.13574064 1.4717628e-06 0)
(0.23031264 4.3793952e-06 0)
(0.35962253 1.0812322e-05 0)
(0.53158531 2.3691434e-05 0)
(0.75137029 4.6984194e-05 0)
(1.016824 8.3546411e-05 0)
(1.3125139 0.00012773765 0)
(1.6052051 0.00015293374 0)
(1.8460415 0.00012582067 0)
(1.9834196 4.8616729e-05 0)
(1.9834196 -4.861638e-05 0)
(1.8460415 -0.00012582037 0)
(1.6052051 -0.00015293352 0)
(1.3125139 -0.00012773741 0)
(1.016824 -8.3545967e-05 0)
(0.75137029 -4.6983459e-05 0)
(0.53158531 -2.3690526e-05 0)
(0.35962253 -1.0811478e-05 0)
(0.23031264 -4.3789061e-06 0)
(0.13574064 -1.4712606e-06 0)
(0.067901607 -3.4685642e-07 0)
(0.019889403 -4.977403e-08 0)
(0.019886752 4.4698419e-08 0)
(0.067892685 3.1094665e-07 0)
(0.13572313 1.320817e-06 0)
(0.23028375 3.9322111e-06 0)
(0.35957935 9.7158917e-06 0)
(0.53152592 2.1315618e-05 0)
(0.75129648 4.2360314e-05 0)
(1.0167465 7.5619996e-05 0)
(1.3124581 0.00011654252 0)
(1.6052027 0.00014169896 0)
(1.8460982 0.00011827127 0)
(1.9835117 4.6031771e-05 0)
(1.9835117 -4.6031456e-05 0)
(1.8460982 -0.00011827102 0)
(1.6052027 -0.00014169877 0)
(1.3124581 -0.0001165423 0)
(1.0167465 -7.5619556e-05 0)
(0.75129648 -4.2359564e-05 0)
(0.53152592 -2.1314686e-05 0)
(0.35957935 -9.7150319e-06 0)
(0.23028375 -3.9317155e-06 0)
(0.13572313 -1.3203159e-06 0)
(0.067892685 -3.1118042e-07 0)
(0.019886752 -4.4624305e-08 0)
(0.019884362 4.0386029e-08 0)
(0.067884644 2.81042e-07 0)
(0.13570735 1.194155e-06 0)
(0.23025769 3.5564905e-06 0)
(0.35954035 8.7929036e-06 0)
(0.53147216 1.9310055e-05 0)
(0.75122934 3.8440212e-05 0)
(1.0166753 6.8839037e-05 0)
(1.3124053 0.00010678369 0)
(1.6051983 0.0001315525 0)
(1.8461504 0.00011132824 0)
(1.9835985 4.3631327e-05 0)
(1.9835985 -4.3631044e-05 0)
(1.8461504 -0.00011132801 0)
(1.6051983 -0.00013155232 0)
(1.3124053 -0.00010678348 0)
(1.0166753 -6.8838604e-05 0)
(0.75122934 -3.8439461e-05 0)
(0.53147216 -1.9309117e-05 0)
(0.35954035 -8.7920431e-06 0)
(0.23025769 -3.5559958e-06 0)
(0.13570735 -1.1936611e-06 0)
(0.067884644 -2.8126959e-07 0)
(0.019884362 -4.0313299e-08 0)
(0.019882195 3.6710974e-08 0)
(0.067877349 2.5554129e-07 0)
(0.13569303 1.0860773e-06 0)
(0.23023403 3.235631e-06 0)
(0.3595049 8.0035866e-06 0)
(0.5314232 1.7590943e-05 0)
(0.75116797 3.5067257e-05 0)
(1.0166096 6.2964212e-05 0)
(1.3123553 9.8203335e-05 0)
(1.6051923 0.00012233379 0)
(1.8461982 0.00010491334 0)
(1.9836803 4.1390604e-05 0)
(1.9836803 -4.1390356e-05 0)
(1.8461982 -0.00010491312 0)
(1.6051923 -0.00012233363 0)
(1.3123553 -9.8203137e-05 0)
(1.0166096 -6.2963797e-05 0)
(0.75116797 -3.5066521e-05 0)
(0.5314232 -1.7590018e-05 0)
(0.3595049 -8.0027371e-06 0)
(0.23023403 -3.2351417e-06 0)
(0.13569303 -1.0855916e-06 0)
(0.067877349 -2.5576178e-07 0)
(0.019882195 -3.6639874e-08 0)
(0.019880219 3.3538124e-08 0)
(0.067870695 2.3351389e-07 0)
(0.13567996 9.926706e-07 0)
(0.23021243 2.9581518e-06 0)
(0.35947252 7.3202914e-06 0)
(0.53137842 1.6100134e-05 0)
(0.75111164 3.213301e-05 0)
(1.0165488 5.7823425e-05 0)
(1.3123082 9.0602554e-05 0)
(1.6051852 0.00011395355 0)
(1.8462423 9.8956109e-05 0)
(1.9837576 3.9289057e-05 0)
(1.9837576 -3.9288853e-05 0)
(1.8462423 -9.8955924e-05 0)
(1.6051852 -0.00011395341 0)
(1.3123082 -9.0602384e-05 0)
(1.0165488 -5.7823039e-05 0)
(0.75111164 -3.2132299e-05 0)
(0.53137842 -1.6099229e-05 0)
(0.35947252 -7.3194559e-06 0)
(0.23021243 -2.9576676e-06 0)
(0.13567996 -9.9218892e-07 0)
(0.067870695 -2.3372971e-07 0)
(0.019880219 -3.3467976e-08 0)
(0.019878409 3.0773429e-08 0)
(0.0678646 2.1431037e-07 0)
(0.13566798 9.1119847e-07 0)
(0.23019263 2.715985e-06 0)
(0.35944282 6.7234185e-06 0)
(0.53133728 1.4795998e-05 0)
(0.75105977 2.955967e-05 0)
(1.0164925 5.3292537e-05 0)
(1.3122638 8.383162e-05 0)
(1.6051772 0.00010632414 0)
(1.846283 9.3403327e-05 0)
(1.9838307 3.7312484e-05 0)
(1.9838307 -3.7312335e-05 0)
(1.846283 -9.3403187e-05 0)
(1.6051772 -0.00010632404 0)
(1.3122638 -8.3831492e-05 0)
(1.0164925 -5.3292184e-05 0)
(0.75105977 -2.9558984e-05 0)
(0.53133728 -1.4795111e-05 0)
(0.35944282 -6.7225899e-06 0)
(0.23019263 -2.7155007e-06 0)
(0.13566798 -9.1071214e-07 0)
(0.0678646 -2.1452647e-07 0)
(0.019878409 -3.0702835e-08 0)
(0.019876745 2.8343152e-08 0)
(0.067858993 1.9742243e-07 0)
(0.13565697 8.3952231e-07 0)
(0.23017441 2.5028305e-06 0)
(0.35941547 6.1976456e-06 0)
(0.53129936 1.3645783e-05 0)
(0.75101183 2.7285287e-05 0)
(1.0164401 4.9271709e-05 0)
(1.3122219 7.7767723e-05 0)
(1.6051688 9.935618e-05 0)
(1.8463207 8.8213607e-05 0)
(1.9838998 3.5449512e-05 0)
(1.9838998 -3.544943e-05 0)
(1.8463207 -8.8213528e-05 0)
(1.6051688 -9.9356142e-05 0)
(1.3122219 -7.7767644e-05 0)
(1.0164401 -4.9271387e-05 0)
(0.75101183 -2.7284616e-05 0)
(0.53129936 -1.36449e-05 0)
(0.35941547 -6.1968089e-06 0)
(0.23017441 -2.502337e-06 0)
(0.13565697 -8.3902007e-07 0)
(0.067858993 -1.9764505e-07 0)
(0.019876745 -2.8270306e-08 0)
(0.019875208 2.6189296e-08 0)
(0.067853818 1.8244968e-07 0)
(0.1356468 7.7595564e-07 0)
(0.23015758 2.3137166e-06 0)
(0.3593902 5.7308723e-06 0)
(0.5312643 1.2623556e-05 0)
(0.75096742 2.5260329e-05 0)
(1.0163914 4.5679527e-05 0)
(1.3121824 7.230807e-05 0)
(1.6051599 9.2973415e-05 0)
(1.8463555 8.335034e-05 0)
(1.9839652 3.3689488e-05 0)
(1.9839652 -3.3689483e-05 0)
(1.8463555 -8.3350335e-05 0)
(1.6051599 -9.2973448e-05 0)
(1.3121824 -7.2308042e-05 0)
(1.0163914 -4.5679226e-05 0)
(0.75096742 -2.5259657e-05 0)
(0.5312643 -1.2622655e-05 0)
(0.3593902 -5.7300084e-06 0)
(0.23015758 -2.3132032e-06 0)
(0.1356468 -7.7542571e-07 0)
(0.067853818 -1.8268532e-07 0)
(0.019875208 -2.6112311e-08 0)
(0.019873786 2.4266675e-08 0)
(0.067849027 1.6907971e-07 0)
(0.13563738 7.1917982e-07 0)
(0.230142 2.144748e-06 0)
(0.35936679 5.3135951e-06 0)
(0.53123178 1.1708891e-05 0)
(0.75092616 2.3445569e-05 0)
(1.016346 4.2450534e-05 0)
(1.3121452 6.7367625e-05 0)
(1.6051509 8.7107565e-05 0)
(1.8463878 7.8785186e-05 0)
(1.9840271 3.2023837e-05 0)
(1.9840271 -3.2023912e-05 0)
(1.8463878 -7.8785263e-05 0)
(1.6051509 -8.7107672e-05 0)
(1.3121452 -6.7367643e-05 0)
(1.016346 -4.2450242e-05 0)
(0.75092616 -2.3444877e-05 0)
(0.53123178 -1.1707951e-05 0)
(0.35936679 -5.3126846e-06 0)
(0.230142 -2.1442043e-06 0)
(0.13563738 -7.186118e-07 0)
(0.067849027 -1.6933413e-07 0)
(0.019873787 -2.418388e-08 0)
(0.019872467 2.2539695e-08 0)
(0.067844581 1.5706643e-07 0)
(0.13562864 6.6815441e-07 0)
(0.23012754 1.9928473e-06 0)
(0.35934505 4.9382907e-06 0)
(0.53120156 1.0885579e-05 0)
(0.75088776 2.1809783e-05 0)
(1.0163035 3.9532209e-05 0)
(1.31211 6.287652e-05 0)
(1.6051418 8.1702124e-05 0)
(1.8464178 7.4491913e-05 0)
(1.9840857 3.0444415e-05 0)
(1.9840857 -3.0444567e-05 0)
(1.8464178 -7.4492071e-05 0)
(1.6051418 -8.1702301e-05 0)
(1.31211 -6.2876576e-05 0)
(1.0163035 -3.9531915e-05 0)
(0.75088776 -2.1809054e-05 0)
(0.53120156 -1.088458e-05 0)
(0.35934505 -4.9373175e-06 0)
(0.23012754 -1.9922652e-06 0)
(0.13562864 -6.6754095e-07 0)
(0.067844581 -1.5734392e-07 0)
(0.019872467 -2.2449884e-08 0)
(0.01987124 2.0979853e-08 0)
(0.067840446 1.4621283e-07 0)
(0.13562051 6.2204566e-07 0)
(0.23011408 1.8555463e-06 0)
(0.35932481 4.5989146e-06 0)
(0.53117342 1.0140558e-05 0)
(0.75085195 2.0327714e-05 0)
(1.0162638 3.6881855e-05 0)
(1.3120768 5.8777038e-05 0)
(1.6051327 7.6706816e-05 0)
(1.8464458 7.0451405e-05 0)
(1.9841412 2.8945181e-05 0)
(1.9841412 -2.8945401e-05 0)
(1.8464458 -7.0451635e-05 0)
(1.6051327 -7.6707056e-05 0)
(1.3120768 -5.8777125e-05 0)
(1.0162638 -3.6881551e-05 0)
(0.75085195 -2.0326936e-05 0)
(0.53117342 -1.0139487e-05 0)
(0.35932481 -4.5978689e-06 0)
(0.23011408 -1.8549216e-06 0)
(0.13562051 -6.2138379e-07 0)
(0.067840446 -1.4651562e-07 0)
(0.01987124 -2.0882477e-08 0)
(0.019870096 1.9564091e-08 0)
(0.067836592 1.3635951e-07 0)
(0.13561293 5.801786e-07 0)
(0.23010153 1.730846e-06 0)
(0.35930594 4.2905679e-06 0)
(0.53114716 9.4632282e-06 0)
(0.75081849 1.8978803e-05 0)
(1.0162266 3.4464479e-05 0)
(1.3120455 5.5021046e-05 0)
(1.6051237 7.2080853e-05 0)
(1.8464718 6.6642889e-05 0)
(1.9841938 2.7519705e-05 0)
(1.9841938 -2.7519976e-05 0)
(1.8464718 -6.6643178e-05 0)
(1.6051237 -7.2081144e-05 0)
(1.3120455 -5.5021158e-05 0)
(1.0162266 -3.4464162e-05 0)
(0.75081849 -1.8977973e-05 0)
(0.53114716 -9.462081e-06 0)
(0.35930594 -4.2894485e-06 0)
(0.23010153 -1.7301794e-06 0)
(0.13561293 -5.7947084e-07 0)
(0.067836592 -1.3668736e-07 0)
(0.019870096 -1.9459416e-08 0)
(0.019869029 1.8273543e-08 0)
(0.067832994 1.2737603e-07 0)
(0.13560586 5.4200045e-07 0)
(0.23008981 1.6171082e-06 0)
(0.35928831 4.0092305e-06 0)
(0.53112262 8.8448729e-06 0)
(0.75078719 1.7746099e-05 0)
(1.0161917 3.225114e-05 0)
(1.3120159 5.1568345e-05 0)
(1.6051149 6.7786395e-05 0)
(1.846496 6.3053143e-05 0)
(1.9842436 2.6163955e-05 0)
(1.9842436 -2.6164261e-05 0)
(1.846496 -6.3053475e-05 0)
(1.6051149 -6.7786725e-05 0)
(1.3120159 -5.1568479e-05 0)
(1.0161917 -3.2250813e-05 0)
(0.75078719 -1.7745223e-05 0)
(0.53112262 -8.843657e-06 0)
(0.35928831 -4.0080465e-06 0)
(0.23008981 -1.6164068e-06 0)
(0.13560586 -5.4125591e-07 0)
(0.067832994 -1.2772581e-07 0)
(0.019869029 -1.8162794e-08 0)
(0.019868031 1.7092663e-08 0)
(0.067829631 1.1915477e-07 0)
(0.13559924 5.0705523e-07 0)
(0.23007886 1.5129811e-06 0)
(0.35927183 3.7515856e-06 0)
(0.53109966 8.2782994e-06 0)
(0.75075787 1.6615592e-05 0)
(1.0161589 3.0217749e-05 0)
(1.311988 4.8384905e-05 0)
(1.6051063 6.3793828e-05 0)
(1.8465187 5.9663972e-05 0)
(1.9842909 2.4872571e-05 0)
(1.9842909 -2.4872894e-05 0)
(1.8465187 -5.9664331e-05 0)
(1.6051063 -6.3794188e-05 0)
(1.311988 -4.8385062e-05 0)
(1.0161589 -3.0217422e-05 0)
(0.75075788 -1.6614686e-05 0)
(0.53109966 -8.2770348e-06 0)
(0.35927183 -3.7503583e-06 0)
(0.23007886 -1.5122591e-06 0)
(0.13559924 -5.0629062e-07 0)
(0.067829631 -1.1952004e-07 0)
(0.019868031 -1.697817e-08 0)
(0.019867097 1.6008472e-08 0)
(0.067826482 1.1160584e-07 0)
(0.13559305 4.7496205e-07 0)
(0.2300686 1.4173347e-06 0)
(0.35925639 3.5148554e-06 0)
(0.53107814 7.7574681e-06 0)
(0.75073038 1.5575493e-05 0)
(1.0161281 2.8344051e-05 0)
(1.3119617 4.5442072e-05 0)
(1.6050979 6.0073639e-05 0)
(1.8465398 5.6466931e-05 0)
(1.9843356 2.3643235e-05 0)
(1.9843356 -2.3643561e-05 0)
(1.8465398 -5.6467302e-05 0)
(1.6050979 -6.0074021e-05 0)
(1.3119617 -4.5442255e-05 0)
(1.0161281 -2.8343742e-05 0)
(0.75073038 -1.5574583e-05 0)
(0.53107814 -7.756189e-06 0)
(0.35925639 -3.5136196e-06 0)
(0.2300686 -1.4166147e-06 0)
(0.13559305 -4.7420278e-07 0)
(0.067826482 -1.1197633e-07 0)
(0.019867097 -1.5893829e-08 0)
(0.019866221 1.5010059e-08 0)
(0.067823531 1.0465356e-07 0)
(0.13558724 4.4540027e-07 0)
(0.23005898 1.3292183e-06 0)
(0.35924191 3.2967058e-06 0)
(0.53105796 7.2773114e-06 0)
(0.75070457 1.4615895e-05 0)
(1.0160992 2.6612861e-05 0)
(1.3119367 4.2715007e-05 0)
(1.6050897 5.6604157e-05 0)
(1.8465596 5.3444441e-05 0)
(1.984378 2.2470968e-05 0)
(1.984378 -2.2471281e-05 0)
(1.8465596 -5.344481e-05 0)
(1.6050897 -5.6604554e-05 0)
(1.3119367 -4.2715224e-05 0)
(1.0160992 -2.6612592e-05 0)
(0.75070457 -1.4615022e-05 0)
(0.53105796 -7.276068e-06 0)
(0.35924191 -3.2955119e-06 0)
(0.23005898 -1.3285321e-06 0)
(0.13558724 -4.4468176e-07 0)
(0.06782353 -1.0501458e-07 0)
(0.019866221 -1.4900316e-08 0)
(0.0198654 1.408817e-08 0)
(0.067820761 9.8233795e-08 0)
(0.1355818 4.180982e-07 0)
(0.23004995 1.2478246e-06 0)
(0.35922832 3.0951485e-06 0)
(0.531039 6.8334934e-06 0)
(0.75068032 1.3728307e-05 0)
(1.0160719 2.5009546e-05 0)
(1.3119132 4.0182819e-05 0)
(1.6050818 5.3361451e-05 0)
(1.8465781 5.0592687e-05 0)
(1.9844182 2.1355016e-05 0)
(1.9844182 -2.1355301e-05 0)
(1.8465781 -5.0593042e-05 0)
(1.6050818 -5.3361857e-05 0)
(1.3119132 -4.0183077e-05 0)
(1.0160719 -2.5009347e-05 0)
(0.75068032 -1.3727523e-05 0)
(0.53103901 -6.8323535e-06 0)
(0.35922832 -3.0940643e-06 0)
(0.23004995 -1.2472147e-06 0)
(0.1355818 -4.1746725e-07 0)
(0.067820761 -9.8565562e-08 0)
(0.019865399 -1.3990037e-08 0)
(0.019864628 1.3234863e-08 0)
(0.067818161 9.2291365e-08 0)
(0.13557668 3.9282182e-07 0)
(0.23004148 1.1724602e-06 0)
(0.35921555 2.9084827e-06 0)
(0.5310212 6.4223229e-06 0)
(0.75065752 1.2905492e-05 0)
(1.0160463 2.3521404e-05 0)
(1.3118909 3.7826689e-05 0)
(1.6050743 5.0329697e-05 0)
(1.8465955 4.7892931e-05 0)
(1.9844563 2.0290067e-05 0)
(1.9844563 -2.0290311e-05 0)
(1.8465955 -4.7893257e-05 0)
(1.6050743 -5.0330105e-05 0)
(1.3118909 -3.7826998e-05 0)
(1.0160463 -2.3521314e-05 0)
(0.75065752 -1.2904866e-05 0)
(0.5310212 -6.4213745e-06 0)
(0.35921555 -2.9075959e-06 0)
(0.23004148 -1.1719811e-06 0)
(0.13557668 -3.923382e-07 0)
(0.06781816 -9.2568219e-08 0)
(0.019864628 -1.3156945e-08 0)
(0.019863903 1.2443372e-08 0)
(0.067815716 8.6779473e-08 0)
(0.13557187 3.6937289e-07 0)
(0.23003351 1.1025348e-06 0)
(0.35920355 2.735248e-06 0)
(0.53100445 6.0405994e-06 0)
(0.75063606 1.2141163e-05 0)
(1.0160221 2.2137632e-05 0)
(1.3118699 3.5631236e-05 0)
(1.6050669 4.7488854e-05 0)
(1.8466118 4.5346686e-05 0)
(1.9844924 1.9277077e-05 0)
(1.9844924 -1.9277266e-05 0)
(1.8466118 -4.534697e-05 0)
(1.6050669 -4.7489254e-05 0)
(1.3118699 -3.5631605e-05 0)
(1.0160221 -2.2137695e-05 0)
(0.75063606 -1.2140781e-05 0)
(0.53100445 -6.0399534e-06 0)
(0.35920355 -2.7346689e-06 0)
(0.23003351 -1.1022547e-06 0)
(0.13557187 -3.6911108e-07 0)
(0.067815715 -8.6969127e-08 0)
(0.019863903 -1.239641e-08 0)
(0.019863221 1.1707693e-08 0)
(0.067813417 8.1656226e-08 0)
(0.13556735 3.4757354e-07 0)
(0.23002601 1.0375225e-06 0)
(0.35919226 2.5741607e-06 0)
(0.53098868 5.6855478e-06 0)
(0.75061585 1.1429866e-05 0)
(1.0159993 2.0848482e-05 0)
(1.31185 3.3581505e-05 0)
(1.6050599 4.4827395e-05 0)
(1.8466272 4.2932045e-05 0)
(1.9845266 1.8309617e-05 0)
(1.9845266 -1.8309734e-05 0)
(1.8466272 -4.2932271e-05 0)
(1.6050599 -4.4827778e-05 0)
(1.31185 -3.3581945e-05 0)
(1.0159993 -2.0848752e-05 0)
(0.75061585 -1.1429831e-05 0)
(0.53098868 -5.6853409e-06 0)
(0.35919225 -2.5740246e-06 0)
(0.23002601 -1.0375245e-06 0)
(0.13556734 -3.4762423e-07 0)
(0.067813416 -8.1718681e-08 0)
(0.019863221 -1.1704827e-08 0)
(0.019862579 1.1022851e-08 0)
(0.067811252 7.6887481e-08 0)
(0.13556309 3.2727926e-07 0)
(0.23001895 9.7699024e-07 0)
(0.35918162 2.4241378e-06 0)
(0.53097384 5.3547683e-06 0)
(0.75059681 1.0766871e-05 0)
(1.0159778 1.9645941e-05 0)
(1.3118312 3.1666419e-05 0)
(1.6050532 4.232834e-05 0)
(1.8466415 4.0657428e-05 0)
(1.984559 1.7390865e-05 0)
(1.984559 -1.7390899e-05 0)
(1.8466415 -4.0657579e-05 0)
(1.6050532 -4.2328692e-05 0)
(1.3118312 -3.1666944e-05 0)
(1.0159778 -1.9646484e-05 0)
(0.75059681 -1.0767311e-05 0)
(0.53097384 -5.3551673e-06 0)
(0.35918162 -2.4246088e-06 0)
(0.23001895 -9.7737465e-07 0)
(0.13556309 -3.2775108e-07 0)
(0.067811251 -7.6774562e-08 0)
(0.019862578 -1.1079782e-08 0)
(0.019861974 1.0384066e-08 0)
(0.067809213 7.2439427e-08 0)
(0.13555908 3.0834618e-07 0)
(0.2300123 9.2051597e-07 0)
(0.3591716 2.2841639e-06 0)
(0.53095985 5.0460952e-06 0)
(0.75057886 1.0147913e-05 0)
(1.0159575 1.8522139e-05 0)
(1.3118134 2.9873169e-05 0)
(1.6050467 3.998292e-05 0)
(1.8466551 3.8495119e-05 0)
(1.9845898 1.6512261e-05 0)
(1.9845898 -1.6512197e-05 0)
(1.8466551 -3.8495178e-05 0)
(1.6050467 -3.9983229e-05 0)
(1.3118134 -2.9873795e-05 0)
(1.0159575 -1.8523035e-05 0)
(0.75057886 -1.014898e-05 0)
(0.53095984 -5.0472998e-06 0)
(0.3591716 -2.2854382e-06 0)
(0.2300123 -9.2140256e-07 0)
(0.13555907 -3.0936769e-07 0)
(0.067809211 -7.2094261e-08 0)
(0.019861974 -1.0519238e-08 0)
(0.019861404 9.7878722e-09 0)
(0.067807292 6.8288889e-08 0)
(0.13555529 2.9067674e-07 0)
(0.23000603 8.6780124e-07 0)
(0.35916216 2.1534651e-06 0)
(0.53094666 4.7577579e-06 0)
(0.75056194 9.569483e-06 0)
(1.0159384 1.7471388e-05 0)
(1.3117965 2.8194703e-05 0)
(1.6050405 3.7777451e-05 0)
(1.8466678 3.6463154e-05 0)
(1.9846188 1.5680223e-05 0)
(1.9846188 -1.5680052e-05 0)
(1.8466678 -3.6463105e-05 0)
(1.6050405 -3.7777705e-05 0)
(1.3117965 -2.8195452e-05 0)
(1.0159384 -1.7472731e-05 0)
(0.75056193 -9.5713568e-06 0)
(0.53094666 -4.7600001e-06 0)
(0.35916216 -2.1557684e-06 0)
(0.23000603 -8.6932617e-07 0)
(0.13555529 -2.9239574e-07 0)
(0.06780729 -6.7643077e-08 0)
(0.019861404 -1.0022682e-08 0)
(0.019860867 9.2300443e-09 0)
(0.067805479 6.4405001e-08 0)
(0.13555173 2.7413904e-07 0)
(0.23000012 8.1846661e-07 0)
(0.35915325 2.0311632e-06 0)
(0.53093422 4.4879533e-06 0)
(0.75054596 9.028037e-06 0)
(1.0159203 1.648675e-05 0)
(1.3117806 2.6618552e-05 0)
(1.6050346 3.5703692e-05 0)
(1.8466798 3.4524267e-05 0)
(1.9846465 1.4882597e-05 0)
(1.9846465 -1.488231e-05 0)
(1.8466798 -3.4524099e-05 0)
(1.6050346 -3.5703882e-05 0)
(1.3117806 -2.661945e-05 0)
(1.0159203 -1.6488649e-05 0)
(0.75054596 -9.0309267e-06 0)
(0.53093421 -4.4915035e-06 0)
(0.35915325 -2.034757e-06 0)
(0.23000012 -8.2078687e-07 0)
(0.13555173 -2.7672281e-07 0)
(0.067805477 -6.3380865e-08 0)
(0.019860866 -9.5882139e-09 0)
(0.01986036 8.7088861e-09 0)
(0.067803771 6.0778021e-08 0)
(0.13554837 2.5869342e-07 0)
(0.22999455 7.7237353e-07 0)
(0.35914485 1.9168258e-06 0)
(0.53092248 4.2355479e-06 0)
(0.75053089 8.5212715e-06 0)
(1.0159032 1.5565036e-05 0)
(1.3117655 2.5142622e-05 0)
(1.605029 3.3753289e-05 0)
(1.846691 3.271048e-05 0)
(1.9846726 1.4130791e-05 0)
(1.9846726 -1.4130387e-05 0)
(1.846691 -3.2710184e-05 0)
(1.605029 -3.3753402e-05 0)
(1.3117655 -2.5143696e-05 0)
(1.0159032 -1.5567613e-05 0)
(0.75053088 -8.5254125e-06 0)
(0.53092247 -4.2407135e-06 0)
(0.35914484 -1.9220082e-06 0)
(0.22999454 -7.7566997e-07 0)
(0.13554836 -2.6233026e-07 0)
(0.067803768 -5.928997e-08 0)
(0.019860359 -9.2159103e-09 0)
(0.019859881 8.219707e-09 0)
(0.067802156 5.7371797e-08 0)
(0.13554519 2.4418446e-07 0)
(0.22998928 7.2909136e-07 0)
(0.35913691 1.8095296e-06 0)
(0.53091139 3.9988035e-06 0)
(0.75051664 8.0458362e-06 0)
(1.0158871 1.4699045e-05 0)
(1.3117512 2.3752174e-05 0)
(1.6050236 3.191452e-05 0)
(1.8467017 3.0969526e-05 0)
(1.9846975 1.3406851e-05 0)
(1.9846975 -1.3406324e-05 0)
(1.8467017 -3.0969094e-05 0)
(1.6050236 -3.1914545e-05 0)
(1.3117512 -2.3753451e-05 0)
(1.0158871 -1.4702424e-05 0)
(0.75051663 -8.0514724e-06 0)
(0.53091138 -4.0058998e-06 0)
(0.35913691 -1.8166017e-06 0)
(0.22998928 -7.3353983e-07 0)
(0.13554519 -2.4906875e-07 0)
(0.067802154 -5.5313059e-08 0)
(0.01985988 -8.9020555e-09 0)
(0.01985943 7.7640869e-09 0)
(0.067800635 5.4202137e-08 0)
(0.13554219 2.3068249e-07 0)
(0.22998432 6.8877621e-07 0)
(0.35912943 1.709432e-06 0)
(0.53090093 3.7775928e-06 0)
(0.7505032 7.6012319e-06 0)
(1.0158719 1.3889473e-05 0)
(1.3117377 2.2453266e-05 0)
(1.6050185 3.0189828e-05 0)
(1.8467117 2.9354409e-05 0)
(1.9847208 1.2730102e-05 0)
(1.9847208 -1.2729457e-05 0)
(1.8467117 -2.9353825e-05 0)
(1.6050185 -3.0189742e-05 0)
(1.3117377 -2.2454762e-05 0)
(1.0158719 -1.3893782e-05 0)
(0.75050319 -7.6086297e-06 0)
(0.53090092 -3.7869691e-06 0)
(0.35912942 -1.7187243e-06 0)
(0.22998431 -6.9457303e-07 0)
(0.13554219 -2.3700938e-07 0)
(0.067800631 -5.1464911e-08 0)
(0.019859429 -8.6419631e-09 0)
(0.019859003 7.3342217e-09 0)
(0.067799193 5.1206447e-08 0)
(0.13553936 2.1791824e-07 0)
(0.22997961 6.5071124e-07 0)
(0.35912234 1.6151257e-06 0)
(0.53089102 3.569579e-06 0)
(0.75049047 7.183237e-06 0)
(1.0158574 1.3126586e-05 0)
(1.3117249 2.1224118e-05 0)
(1.6050136 2.8556487e-05 0)
(1.8467212 2.7790052e-05 0)
(1.9847433 1.2073493e-05 0)
(1.9847433 -1.2072717e-05 0)
(1.8467212 -2.7789298e-05 0)
(1.6050136 -2.8556253e-05 0)
(1.3117249 -2.1225828e-05 0)
(1.0158574 -1.3131923e-05 0)
(0.75049045 -7.1926389e-06 0)
(0.53089101 -3.5815775e-06 0)
(0.35912233 -1.626976e-06 0)
(0.22997961 -6.5806536e-07 0)
(0.13553935 -2.2588723e-07 0)
(0.067799189 -4.7682001e-08 0)
(0.019859001 -8.4225632e-09 0)
(0.0198586 6.9404834e-09 0)
(0.067797836 4.8468297e-08 0)
(0.13553669 2.0625053e-07 0)
(0.22997518 6.1581601e-07 0)
(0.35911566 1.5282616e-06 0)
(0.5308817 3.3770731e-06 0)
(0.75047849 6.7954491e-06 0)
(1.0158438 1.2419329e-05 0)
(1.3117128 2.0087113e-05 0)
(1.605009 2.7039986e-05 0)
(1.84673 2.6361872e-05 0)
(1.9847642 1.1469237e-05 0)
(1.9847642 -1.1468327e-05 0)
(1.84673 -2.63609e-05 0)
(1.605009 -2.7039524e-05 0)
(1.3117128 -2.0088971e-05 0)
(1.0158438 -1.2425726e-05 0)