/*--------------------------------*- C++ -*----------------------------------*\
  =========                 |
  \\      /  F ield         | OpenFOAM: The Open Source CFD Toolbox
   \\    /   O peration     | Website:  https://openfoam.org
    \\  /    A nd           | Version:  10
     \\/     M anipulation  |
\*---------------------------------------------------------------------------*/
FoamFile
{
    format      ascii;
    class       volScalarField;
    location    "10.5";
    object      ddt0(T);
}
// * * * * * * * * * * * * * * * * * * * * * * * * * * * * * * * * * * * * * //

dimensions      [0 0 -1 1 0 0 0];

internalField   nonuniform List<scalar> 
10000
(
4030.23
1572.7
1657.05
1689.5
1693.29
1693.76
1693.94
1694.03
1694.06
1694.08
1694.09
1694.1
1694.11
1694.12
1694.13
1694.14
1694.15
1694.15
1694.16
1694.17
1694.17
1694.18
1694.19
1694.19
1694.2
1694.2
1694.21
1694.21
1694.22
1694.22
1694.22
1694.23
1694.23
1694.23
1694.24
1694.24
1694.24
1694.24
1694.24
1694.25
1694.25
1694.25
1694.25
1694.25
1694.25
1694.25
1694.25
1694.25
1694.25
1694.25
1694.25
1694.25
1694.25
1694.25
1694.25
1694.25
1694.25
1694.25
1694.24
1694.24
1694.24
1694.24
1694.24
1694.24
1694.24
1694.24
1694.23
1694.23
1694.23
1694.23
1694.23
1694.23
1694.23
1694.22
1694.22
1694.22
1694.22
1694.22
1694.22
1694.22
1694.22
1694.21
1694.21
1694.21
1694.21
1694.21
1694.21
1694.21
1694.21
1694.21
1694.21
1694.21
1694.21
1694.2
1694.2
1694.13
1693.43
1687.79
1659.72
1836.2
1853.78
-706.921
-442.525
-375.264
-369.012
-368.802
-368.68
-368.569
-368.506
-368.467
-368.437
-368.41
-368.384
-368.36
-368.336
-368.312
-368.29
-368.268
-368.247
-368.227
-368.207
-368.189
-368.171
-368.154
-368.138
-368.122
-368.108
-368.094
-368.081
-368.069
-368.057
-368.046
-368.037
-368.027
-368.019
-368.011
-368.004
-367.998
-367.992
-367.987
-367.983
-367.979
-367.976
-367.974
-367.972
-367.97
-367.97
-367.969
-367.969
-367.97
-367.971
-367.972
-367.974
-367.976
-367.978
-367.981
-367.984
-367.987
-367.99
-367.993
-367.997
-368.001
-368.005
-368.009
-368.013
-368.017
-368.021
-368.025
-368.03
-368.034
-368.038
-368.042
-368.046
-368.05
-368.054
-368.058
-368.062
-368.066
-368.069
-368.073
-368.076
-368.08
-368.083
-368.086
-368.089
-368.091
-368.094
-368.096
-368.099
-368.101
-368.103
-368.105
-368.106
-368.106
-368.102
-368.11
-368.537
-372.87
-395.598
-357.19
1907.01
-484.772
-160.634
-83.0464
-75.8692
-75.6459
-75.5036
-75.3641
-75.277
-75.2186
-75.1708
-75.1267
-75.0844
-75.0432
-75.0031
-74.9641
-74.9263
-74.8897
-74.8545
-74.8205
-74.7879
-74.7567
-74.7268
-74.6983
-74.6711
-74.6453
-74.6208
-74.5976
-74.5758
-74.5552
-74.536
-74.518
-74.5013
-74.4859
-74.4716
-74.4587
-74.4469
-74.4363
-74.4268
-74.4185
-74.4113
-74.4051
-74.3999
-74.3957
-74.3925
-74.3902
-74.3887
-74.388
-74.3882
-74.389
-74.3905
-74.3927
-74.3955
-74.3988
-74.4027
-74.407
-74.4117
-74.4169
-74.4223
-74.4281
-74.4342
-74.4405
-74.447
-74.4536
-74.4604
-74.4673
-74.4742
-74.4812
-74.4882
-74.4953
-74.5022
-74.5091
-74.516
-74.5227
-74.5294
-74.5359
-74.5422
-74.5484
-74.5544
-74.5603
-74.5659
-74.5713
-74.5766
-74.5815
-74.5863
-74.5908
-74.595
-74.599
-74.6028
-74.6063
-74.6095
-74.6127
-74.6159
-74.618
-74.6088
-74.5512
-74.4891
-75.9802
-87.3554
-71.0566
1932.44
-427.044
-92.9138
-13.9242
-6.72219
-6.51012
-6.34658
-6.18233
-6.07402
-5.99689
-5.93157
-5.87063
-5.81183
-5.7546
-5.69885
-5.64463
-5.59201
-5.5411
-5.49195
-5.44462
-5.39913
-5.35551
-5.31376
-5.27389
-5.23589
-5.19975
-5.16546
-5.13303
-5.10244
-5.07367
-5.04672
-5.02157
-4.9982
-4.9766
-4.95674
-4.9386
-4.92214
-4.90733
-4.89413
-4.8825
-4.8724
-4.86378
-4.85658
-4.85076
-4.84626
-4.84302
-4.84098
-4.84009
-4.84028
-4.84149
-4.84366
-4.84673
-4.85064
-4.85532
-4.86072
-4.86678
-4.87343
-4.88062
-4.8883
-4.89641
-4.90489
-4.9137
-4.92279
-4.93211
-4.94161
-4.95125
-4.96099
-4.97079
-4.98061
-4.99042
-5.00018
-5.00987
-5.01944
-5.02888
-5.03817
-5.04727
-5.05616
-5.06483
-5.07325
-5.08141
-5.0893
-5.0969
-5.10419
-5.11117
-5.11782
-5.12413
-5.1301
-5.13572
-5.14099
-5.1459
-5.15053
-5.15513
-5.16047
-5.16804
-5.1751
-5.14645
-4.9621
-4.77264
-7.1356
-0.881672
1935.43
-421.638
-86.6222
-7.60958
-0.438685
-0.216311
-0.0299206
0.156162
0.283833
0.378845
0.4613
0.538931
0.614059
0.687266
0.758629
0.828072
0.895483
0.960752
1.02379
1.08453
1.14293
1.19895
1.25259
1.30383
1.35268
1.39913
1.44319
1.48487
1.52418
1.56114
1.59576
1.62805
1.65805
1.68577
1.71125
1.73452
1.75563
1.77461
1.79152
1.80642
1.81935
1.83038
1.83958
1.84701
1.85275
1.85687
1.85945
1.86056
1.86028
1.85868
1.85586
1.85188
1.84683
1.84079
1.83382
1.82602
1.81745
1.80819
1.7983
1.78786
1.77695
1.76561
1.75392
1.74193
1.72971
1.71731
1.70479
1.69219
1.67956
1.66695
1.6544
1.64195
1.62964
1.61751
1.60558
1.59388
1.58246
1.57132
1.56049
1.55
1.53987
1.53011
1.52074
1.51177
1.50323
1.49511
1.48744
1.48021
1.47344
1.46713
1.46123
1.45555
1.44924
1.43974
1.42242
1.40263
1.44615
1.68116
1.83797
4.07883
1935.8
-421.448
-86.4179
-7.41662
-0.235615
0.00838339
0.216807
0.422778
0.568731
0.681144
0.780498
0.874667
0.966002
1.05508
1.14195
1.22651
1.30862
1.38814
1.46498
1.53904
1.61026
1.67861
1.74405
1.80658
1.86619
1.92287
1.97664
2.0275
2.07546
2.12054
2.16276
2.20214
2.2387
2.27249
2.30354
2.33188
2.35758
2.38069
2.40127
2.41938
2.4351
2.44851
2.45967
2.46868
2.47563
2.4806
2.48369
2.48499
2.48459
2.4826
2.4791
2.4742
2.468
2.46057
2.45203
2.44247
2.43197
2.42063
2.40853
2.39576
2.3824
2.36853
2.35424
2.33958
2.32464
2.30949
2.29418
2.27878
2.26334
2.24793
2.2326
2.21739
2.20235
2.18753
2.17296
2.15867
2.14471
2.13111
2.11789
2.10508
2.09271
2.08079
2.06934
2.0584
2.04796
2.03805
2.02868
2.01986
2.0116
2.0039
1.99677
1.99011
1.98349
1.97513
1.96001
1.93126
1.90191
1.95037
2.23703
3.07054
1935.96
-421.338
-86.2887
-7.26685
-0.0633339
0.202599
0.431079
0.655568
0.819117
0.948591
1.06464
1.17518
1.28258
1.38738
1.48961
1.58914
1.6858
1.77945
1.86994
1.95719
2.0411
2.12164
2.19878
2.27247
2.34273
2.40955
2.47292
2.53286
2.58937
2.64249
2.69222
2.7386
2.78165
2.82143
2.85797
2.89132
2.92155
2.94872
2.97291
2.99419
3.01264
3.02837
3.04145
3.052
3.06012
3.0659
3.06947
3.07093
3.07039
3.06796
3.06377
3.05793
3.05054
3.04173
3.03159
3.02025
3.00782
2.99438
2.98006
2.96495
2.94915
2.93275
2.91584
2.89851
2.88085
2.86294
2.84484
2.82664
2.80841
2.79021
2.77209
2.75413
2.73636
2.71885
2.70164
2.68478
2.66829
2.65223
2.63662
2.6215
2.60689
2.59282
2.57931
2.56639
2.55407
2.54237
2.53131
2.5209
2.51115
2.50207
2.49367
2.48596
2.47882
2.47155
2.46135
2.44147
2.40609
2.37585
2.48148
2.86732
1936.03
-421.238
-86.1618
-7.11586
0.109257
0.395003
0.641987
0.884141
1.06484
1.2111
1.34364
1.47038
1.59367
1.71402
1.83143
1.94576
2.05682
2.16442
2.26841
2.36868
2.46514
2.55773
2.64641
2.73114
2.81192
2.88874
2.9616
3.0305
3.09546
3.1565
3.21365
3.26693
3.31638
3.36205
3.404
3.44228
3.47696
3.50812
3.53585
3.56023
3.58136
3.59935
3.6143
3.62634
3.63557
3.64213
3.64613
3.64771
3.64699
3.64411
3.6392
3.63238
3.62379
3.61356
3.60182
3.58869
3.57429
3.55876
3.54221
3.52475
3.50649
3.48755
3.46803
3.44803
3.42765
3.40697
3.3861
3.3651
3.34407
3.32307
3.30218
3.28146
3.26098
3.24079
3.22095
3.20151
3.18251
3.16399
3.146
3.12857
3.11174
3.09553
3.07996
3.06507
3.05088
3.0374
3.02466
3.01266
3.00143
2.99097
2.9813
2.97243
2.96439
2.95705
2.9494
2.93758
2.91278
2.86653
2.8569
3.13834
1936.07
-421.18
-86.0803
-7.01339
0.230997
0.535
0.799583
1.05889
1.25642
1.41924
1.56806
1.7108
1.84977
1.98548
2.11789
2.24683
2.37208
2.49344
2.61075
2.72388
2.83271
2.93719
3.03725
3.13287
3.22402
3.3107
3.39291
3.47064
3.54392
3.61277
3.67721
3.73728
3.79303
3.8445
3.89175
3.93487
3.97392
4.00898
4.04017
4.06758
4.09131
4.1115
4.12826
4.14172
4.15202
4.1593
4.16369
4.16535
4.16442
4.16104
4.15537
4.14755
4.13773
4.12607
4.11269
4.09775
4.08139
4.06374
4.04494
4.02512
4.0044
3.98292
3.96078
3.9381
3.91499
3.89156
3.8679
3.84412
3.82029
3.7965
3.77284
3.74937
3.72618
3.70332
3.68085
3.65884
3.63733
3.61638
3.59601
3.57629
3.55724
3.53889
3.52128
3.50444
3.48838
3.47313
3.45871
3.44514
3.43244
3.42061
3.40967
3.39963
3.39052
3.38243
3.3752
3.36724
3.35117
3.30494
3.22865
3.52859
1936.08
-421.142
-86.0236
-6.93805
0.324224
0.645644
0.927311
1.20343
1.41752
1.59666
1.76154
1.92006
2.07451
2.22535
2.37254
2.51588
2.65511
2.79004
2.92046
3.04624
3.16726
3.28343
3.39471
3.50104
3.6024
3.69878
3.79018
3.8766
3.95806
4.03457
4.10618
4.17292
4.23484
4.29199
4.34445
4.3923
4.43561
4.47449
4.50905
4.5394
4.56566
4.58797
4.60647
4.6213
4.6326
4.64054
4.64528
4.64697
4.64577
4.64186
4.63539
4.62654
4.61547
4.60234
4.5873
4.57054
4.55218
4.53241
4.51135
4.48916
4.46597
4.44193
4.41717
4.39181
4.36598
4.33979
4.31335
4.28677
4.26015
4.23358
4.20715
4.18095
4.15505
4.12952
4.10444
4.07987
4.05586
4.03247
4.00975
3.98774
3.96648
3.94601
3.92637
3.90757
3.88966
3.87266
3.85658
3.84145
3.82728
3.81409
3.8019
3.7907
3.78053
3.77148
3.76375
3.75705
3.7461
3.70204
3.57608
3.93443
1936.09
-421.113
-85.9762
-6.87302
0.406437
0.744803
1.04321
1.33585
1.56625
1.76147
1.94217
2.11623
2.2859
2.45165
2.61338
2.77086
2.92385
3.07211
3.21543
3.35364
3.48664
3.61431
3.7366
3.85345
3.96484
4.07075
4.17117
4.26612
4.35559
4.43963
4.51826
4.59153
4.65949
4.7222
4.77974
4.8322
4.87967
4.92226
4.9601
4.99329
5.022
5.04635
5.06651
5.08263
5.09487
5.10342
5.10843
5.1101
5.1086
5.10411
5.09681
5.08689
5.07452
5.0599
5.04318
5.02456
5.0042
4.98228
4.95895
4.93437
4.90871
4.88212
4.85473
4.82668
4.79812
4.76917
4.73996
4.71059
4.68118
4.65183
4.62264
4.5937
4.5651
4.53693
4.50924
4.48212
4.45562
4.42981
4.40473
4.38045
4.357
4.33442
4.31275
4.29202
4.27227
4.25352
4.23579
4.2191
4.20349
4.18895
4.17551
4.16318
4.15196
4.14195
4.13343
4.12686
4.11884
4.07703
3.90905
4.33279
1936.1
-421.086
-85.932
-6.81187
0.484364
0.839336
1.15418
1.46308
1.70952
1.92055
2.11681
2.30614
2.49078
2.67115
2.84716
3.01855
3.18504
3.34638
3.50234
3.65277
3.7975
3.93646
4.06954
4.19671
4.31793
4.43318
4.54244
4.64573
4.74306
4.83445
4.91995
4.99959
5.07345
5.14158
5.20407
5.26102
5.31253
5.35872
5.39972
5.43567
5.46672
5.49303
5.51476
5.53209
5.54521
5.55429
5.55953
5.56112
5.55925
5.55413
5.54596
5.53493
5.52124
5.50509
5.48667
5.46617
5.44378
5.41969
5.39407
5.3671
5.33895
5.30979
5.27976
5.24904
5.21775
5.18604
5.15404
5.12189
5.08969
5.05757
5.02563
4.99397
4.96268
4.93186
4.90158
4.87191
4.84294
4.81472
4.7873
4.76076
4.73512
4.71045
4.68677
4.66412
4.64254
4.62205
4.60269
4.58447
4.56741
4.55154
4.53687
4.5234
4.51117
4.50021
4.49086
4.48396
4.47764
4.43805
4.23537
4.71828
1936.11
-421.06
-85.8894
-6.75266
0.560013
0.931287
1.26227
1.58713
1.84933
2.07588
2.28741
2.49172
2.69104
2.88576
3.07577
3.26077
3.44049
3.61465
3.78301
3.94538
4.10162
4.25161
4.39527
4.53254
4.66337
4.78774
4.90565
5.01709
5.12208
5.22066
5.31285
5.39871
5.4783
5.5517
5.61901
5.68031
5.73573
5.7854
5.82945
5.86805
5.90134
5.92951
5.95273
5.97119
5.9851
5.99464
6.00003
6.00148
5.9992
5.99341
5.98431
5.97213
5.95707
5.93936
5.9192
5.8968
5.87236
5.84608
5.81816
5.78878
5.75814
5.7264
5.69373
5.66031
5.6263
5.59183
5.55706
5.52212
5.48715
5.45226
5.41757
5.3832
5.34923
5.31577
5.2829
5.25071
5.21927
5.18865
5.15892
5.13012
5.10232
5.07556
5.04989
5.02533
5.00194
4.97974
4.95875
4.939
4.92052
4.90333
4.88744
4.87286
4.8596
4.84773
4.83754
4.83011
4.82474
4.78719
4.55801
5.08906
1936.12
-421.035
-85.8479
-6.6949
0.633885
1.02114
1.36796
1.70847
1.98611
2.22787
2.45435
2.67334
2.88703
3.09579
3.29949
3.49782
3.69047
3.87716
4.05764
4.23169
4.39917
4.55995
4.71393
4.86105
5.00127
5.13455
5.26089
5.38028
5.49274
5.5983
5.69701
5.78891
5.87407
5.95259
6.02455
6.09006
6.14926
6.20227
6.24926
6.29038
6.32581
6.35573
6.38034
6.39985
6.41446
6.42439
6.42987
6.43111
6.42836
6.42183
6.41176
6.39838
6.38192
6.36261
6.34068
6.31635
6.28984
6.26135
6.23111
6.19931
6.16615
6.13183
6.09652
6.06041
6.02366
5.98644
5.94889
5.91118
5.87343
5.83578
5.79836
5.76128
5.72464
5.68856
5.65312
5.61841
5.58452
5.55152
5.51947
5.48844
5.45849
5.42966
5.40201
5.37556
5.35037
5.32647
5.30388
5.28262
5.26274
5.24423
5.22713
5.21145
5.1972
5.18442
5.1734
5.16535
5.16037
5.12456
4.87724
5.44419
1936.13
-421.01
-85.8074
-6.63852
0.706037
1.10894
1.47125
1.82708
2.11982
2.37646
2.61755
2.85088
3.07861
3.30109
3.51815
3.72949
3.93478
4.1337
4.32599
4.51144
4.68988
4.86118
5.02523
5.18195
5.33131
5.47326
5.6078
5.73492
5.85464
5.967
6.07202
6.16978
6.26034
6.3438
6.42025
6.48983
6.55265
6.60888
6.65866
6.70218
6.73963
6.7712
6.79711
6.81756
6.83279
6.84303
6.84852
6.84949
6.84619
6.83887
6.82777
6.81315
6.79525
6.77431
6.75057
6.72428
6.69567
6.66496
6.63237
6.59814
6.56246
6.52555
6.48759
6.44878
6.40929
6.36931
6.329
6.28851
6.248
6.2076
6.16745
6.12767
6.08838
6.04968
6.01168
5.97448
5.93815
5.90278
5.86843
5.83519
5.8031
5.77222
5.7426
5.71428
5.68731
5.66172
5.63754
5.6148
5.59352
5.57373
5.55544
5.53867
5.52343
5.50976
5.49794
5.48921
5.48423
5.4498
5.1921
5.78316
1936.14
-420.987
-85.7679
-6.58357
0.776393
1.19458
1.57202
1.94279
2.25029
2.52143
2.77679
3.02411
3.26553
3.50138
3.73147
3.95549
4.17308
4.38391
4.58771
4.78426
4.97337
5.1549
5.32874
5.49481
5.65305
5.80343
5.94593
6.08055
6.20731
6.32623
6.43738
6.54079
6.63657
6.72479
6.80557
6.87904
6.94534
7.00463
7.05708
7.10288
7.14222
7.17533
7.20242
7.22372
7.23948
7.24994
7.25535
7.25598
7.25207
7.2439
7.23173
7.21581
7.19642
7.17381
7.14823
7.11995
7.08921
7.05625
7.02131
6.98462
6.94641
6.9069
6.86628
6.82477
6.78255
6.73982
6.69674
6.65349
6.61021
6.56707
6.5242
6.48174
6.4398
6.3985
6.35796
6.31827
6.27952
6.24179
6.20517
6.16972
6.13551
6.1026
6.07103
6.04086
6.01213
5.98487
5.95912
5.9349
5.91225
5.89119
5.87173
5.85389
5.83769
5.82315
5.81054
5.8011
5.79582
5.76249
5.50121
6.10568
1936.15
-420.964
-85.7295
-6.53012
0.844847
1.27794
1.67012
2.05545
2.3773
2.66259
2.93183
3.19276
3.4475
3.69636
3.93913
4.17548
4.40503
4.62744
4.84244
5.04977
5.24924
5.4407
5.62405
5.79917
5.96603
6.12458
6.27479
6.41667
6.55023
6.67551
6.79256
6.90143
7.00222
7.09502
7.17995
7.25715
7.32676
7.38896
7.44393
7.49187
7.53299
7.56751
7.59568
7.61772
7.63391
7.6445
7.64976
7.64997
7.64539
7.6363
7.62299
7.60573
7.5848
7.56048
7.53303
7.50273
7.46983
7.4346
7.39728
7.35813
7.31737
7.27525
7.23197
7.18775
7.14281
7.09732
7.05148
7.00546
6.95944
6.91356
6.86798
6.82285
6.77828
6.7344
6.69133
6.64916
6.60801
6.56794
6.52906
6.49143
6.45512
6.42019
6.38669
6.35469
6.32421
6.2953
6.268
6.24233
6.21832
6.196
6.17539
6.1565
6.13935
6.12397
6.11059
6.10043
6.09466
6.0622
5.80302
6.41161
1936.15
-420.941
-85.6923
-6.47827
0.911296
1.35887
1.76539
2.16488
2.50069
2.79971
3.08244
3.3566
3.62427
3.88577
4.14085
4.38916
4.63032
4.86397
5.08982
5.3076
5.51712
5.71821
5.91075
6.09465
6.26985
6.43629
6.59395
6.74284
6.88297
7.01437
7.13709
7.25121
7.35681
7.45399
7.54289
7.62364
7.6964
7.76136
7.8187
7.86863
7.91139
7.94721
7.97633
7.99901
8.01553
8.02616
8.03119
8.03089
8.02556
8.0155
8.00099
7.98233
7.95982
7.93374
7.90438
7.87202
7.83695
7.79942
7.75971
7.71807
7.67476
7.63002
7.58407
7.53715
7.48947
7.44123
7.39263
7.34386
7.29509
7.2465
7.19822
7.15042
7.10324
7.05679
7.0112
6.96659
6.92304
6.88066
6.83953
6.79974
6.76134
6.72441
6.68901
6.65518
6.62298
6.59244
6.56361
6.5365
6.51116
6.48761
6.46586
6.44595
6.42787
6.41165
6.39753
6.38666
6.38024
6.34853
6.09602
6.70093
1936.16
-420.92
-85.6563
-6.42807
0.975656
1.43728
1.85771
2.27093
2.62028
2.93262
3.22843
3.51541
3.79563
4.06936
4.33637
4.59628
4.84868
5.09321
5.32955
5.55745
5.77668
5.98709
6.18852
6.38089
6.56413
6.73818
6.90303
7.05867
7.20511
7.34239
7.47056
7.5897
7.6999
7.80126
7.89393
7.97805
8.05379
8.12133
8.18089
8.23268
8.27695
8.31392
8.34388
8.3671
8.38385
8.39442
8.39912
8.39824
8.39209
8.38098
8.36522
8.34511
8.32096
8.29309
8.26178
8.22733
8.19005
8.1502
8.10808
8.06394
8.01806
7.97069
7.92208
7.87245
7.82203
7.77104
7.71969
7.66818
7.61667
7.56536
7.51441
7.46396
7.41417
7.36517
7.31709
7.27003
7.22412
7.17944
7.13609
7.09415
7.05369
7.01478
6.97749
6.94186
6.90795
6.87581
6.84545
6.81694
6.79028
6.76551
6.74265
6.72172
6.70273
6.68571
6.67087
6.65928
6.65212
6.6211
6.3788
6.97368
1936.17
-420.899
-85.6215
-6.37958
1.03786
1.5131
1.94698
2.3735
2.73595
3.06118
3.36965
3.66904
3.96138
4.24696
4.5255
4.79661
5.05987
5.31491
5.5614
5.79906
6.02767
6.24705
6.45706
6.65759
6.84857
7.02995
7.2017
7.36381
7.51631
7.65922
7.7926
7.91653
8.03111
8.13645
8.23269
8.31999
8.39853
8.4685
8.53012
8.58361
8.62924
8.66725
8.69793
8.72155
8.73842
8.74884
8.75312
8.75158
8.74454
8.73231
8.71523
8.69362
8.66779
8.63807
8.60477
8.56821
8.52869
8.4865
8.44194
8.39529
8.34684
8.29683
8.24553
8.19319
8.14005
8.08632
8.03222
7.97796
7.92374
7.86973
7.8161
7.76303
7.71065
7.65911
7.60855
7.55908
7.51081
7.46385
7.4183
7.37423
7.33173
7.29086
7.2517
7.2143
7.1787
7.14496
7.11312
7.0832
7.05525
7.02929
7.00533
6.98341
6.96353
6.94572
6.93018
6.91789
6.90992
6.87957
6.65005
7.22994
1936.17
-420.879
-85.588
-6.33282
1.09787
1.58625
2.03313
2.47249
2.8476
3.18528
3.50597
3.81733
4.12139
4.41839
4.70806
4.98997
5.26371
5.52888
5.78515
6.03221
6.26985
6.49786
6.71612
6.92449
7.12291
7.31131
7.48968
7.65799
7.81627
7.96456
8.10291
8.2314
8.35014
8.45924
8.55885
8.64914
8.73029
8.80251
8.86602
8.92107
8.96792
9.00683
9.03809
9.06201
9.0789
9.08907
9.09284
9.09055
9.08253
9.06912
9.05066
9.02748
8.99992
8.96832
8.933
8.89428
8.85249
8.80794
8.76093
8.71175
8.6607
8.60805
8.55408
8.49903
8.44315
8.38668
8.32985
8.27286
8.21592
8.15922
8.10294
8.04725
7.9923
7.93824
7.88522
7.83335
7.78275
7.73353
7.68579
7.63962
7.5951
7.5523
7.51129
7.47213
7.43487
7.39956
7.36624
7.33495
7.30572
7.27858
7.25356
7.23066
7.20991
7.19133
7.1751
7.16212
7.15332
7.12362
6.90863
7.46982
1936.18
-420.86
-85.5558
-6.28782
1.15564
1.65669
2.11611
2.56785
2.95515
3.30483
3.63731
3.9602
4.27554
4.58354
4.88392
5.17624
5.46006
5.73497
6.00063
6.25673
6.50304
6.73934
6.9655
7.18139
7.38693
7.58206
7.76674
7.94097
8.10477
8.25817
8.40123
8.53404
8.65671
8.76935
8.87213
8.96521
9.04879
9.12308
9.18833
9.24477
9.29269
9.33236
9.36409
9.38819
9.40498
9.41479
9.41796
9.41484
9.40577
9.39111
9.3712
9.3464
9.31706
9.28352
9.24613
9.20523
9.16115
9.11421
9.06472
9.01301
8.95936
8.90406
8.8474
8.78963
8.73103
8.67183
8.61226
8.55255
8.49291
8.43354
8.37462
8.31633
8.25883
8.20227
8.14681
8.09256
8.03965
7.9882
7.93829
7.89004
7.84352
7.7988
7.75597
7.71507
7.67617
7.63931
7.60454
7.5719
7.54141
7.51311
7.48703
7.46318
7.44158
7.42225
7.40535
7.3917
7.38205
7.35298
7.15355
7.69347
1936.19
-420.841
-85.5248
-6.24458
1.21117
1.72441
2.19589
2.65952
3.05856
3.41978
3.76358
4.09756
4.42374
4.74232
5.05298
5.35529
5.64878
5.93305
6.20772
6.47248
6.72709
6.97133
7.20505
7.42813
7.64046
7.842
8.0327
8.21256
8.3816
8.53985
8.68737
8.82426
8.95061
9.06658
9.17231
9.26798
9.3538
9.42999
9.49679
9.55447
9.60331
9.64361
9.67567
9.69982
9.71641
9.72576
9.72824
9.7242
9.714
9.69801
9.67659
9.65011
9.61894
9.58343
9.54394
9.50082
9.45441
9.40506
9.35308
9.29881
9.24255
9.1846
9.12524
9.06477
9.00344
8.94151
8.87922
8.8168
8.75448
8.69244
8.6309
8.57002
8.50999
8.45096
8.39307
8.33647
8.28127
8.2276
8.17556
8.12525
8.07675
8.03014
7.9855
7.94289
7.90237
7.86399
7.82779
7.79381
7.76209
7.73265
7.70553
7.68074
7.65831
7.63825
7.6207
7.60639
7.59589
7.56746
7.38399
7.90101
1936.19
-420.824
-85.4952
-6.2031
1.26443
1.78937
2.27243
2.74749
3.15779
3.53007
3.88474
4.22936
4.56593
4.89464
5.21517
5.52704
5.82981
6.12302
6.40631
6.67935
6.94189
7.19371
7.43465
7.66456
7.88337
8.091
8.28742
8.47262
8.64661
8.80943
8.96115
9.10187
9.23168
9.35074
9.45921
9.55727
9.64514
9.72304
9.79123
9.84999
9.8996
9.94038
9.97264
9.99673
10.013
10.0218
10.0235
10.0184
10.007
9.98963
9.96664
9.93843
9.90537
9.86784
9.82621
9.78084
9.73208
9.68029
9.62581
9.56897
9.51008
9.44947
9.38743
9.32425
9.2602
9.19555
9.13054
9.06543
9.00042
8.93575
8.87159
8.80816
8.74561
8.68412
8.62383
8.56489
8.50743
8.45157
8.39741
8.34506
8.29461
8.24614
8.19972
8.15542
8.1133
8.07341
8.0358
8.00051
7.96758
7.93702
7.90889
7.88318
7.85993
7.83915
7.82098
7.80604
7.79471
7.76687
7.59927
8.0926
1936.2
-420.807
-85.4668
-6.1634
1.31543
1.85158
2.34572
2.83173
3.2528
3.63569
4.00075
4.35555
4.70207
5.04047
5.37042
5.69144
6.00305
6.30481
6.59632
6.87726
7.14736
7.40639
7.65418
7.8906
8.11555
8.32896
8.53078
8.72101
8.89967
9.0668
9.22246
9.36675
9.49979
9.62171
9.7327
9.83295
9.92266
10.0021
10.0715
10.1312
10.1814
10.2225
10.2549
10.2788
10.2946
10.3027
10.3035
10.2974
10.2847
10.2658
10.2412
10.2112
10.1762
10.1366
10.0928
10.0451
9.99401
9.93976
9.88276
9.82333
9.76182
9.69854
9.63381
9.56792
9.50116
9.43379
9.36609
9.29829
9.23062
9.16332
9.09658
9.03059
8.96555
8.90162
8.83896
8.77771
8.71801
8.65998
8.60373
8.54937
8.49699
8.44667
8.3985
8.35253
8.30884
8.26747
8.22847
8.19189
8.15776
8.12611
8.09698
8.07038
8.04633
8.02485
8.00607
7.99051
7.97838
7.95112
7.7989
8.26838
1936.2
-420.79
-85.4397
-6.12547
1.36417
1.91103
2.41576
2.91222
3.34359
3.7366
4.11159
4.47611
4.83212
5.17977
5.51871
5.84845
6.16849
6.47837
6.77771
7.06616
7.34343
7.60931
7.8636
8.10618
8.33693
8.55578
8.7627
8.95768
9.14072
9.31187
9.4712
9.61882
9.75483
9.87939
9.99268
10.0949
10.1863
10.2671
10.3375
10.3979
10.4486
10.4899
10.5222
10.5458
10.5611
10.5685
10.5683
10.561
10.5469
10.5265
10.5002
10.4683
10.4313
10.3896
10.3436
10.2936
10.2401
10.1834
10.1238
10.0618
9.99767
9.93172
9.8643
9.7957
9.72623
9.65616
9.58576
9.51529
9.44498
9.37507
9.30576
9.23725
9.16974
9.10339
9.03838
8.97484
8.91292
8.85275
8.79443
8.73809
8.6838
8.63167
8.58176
8.53416
8.48891
8.44609
8.40573
8.36787
8.33257
8.29985
8.26974
8.24226
8.21743
8.19527
8.17589
8.15975
8.14686
8.12014
7.98251
8.42849
1936.21
-420.775
-85.4138
-6.08929
1.41064
1.96771
2.48254
2.98897
3.43015
3.83281
4.21725
4.59103
4.95607
5.31252
5.66001
5.99803
6.32607
6.64368
6.95044
7.246
7.53007
7.80242
8.06286
8.31124
8.54746
8.77144
8.98314
9.18255
9.36968
9.54458
9.70732
9.858
9.99675
10.1237
10.2391
10.3431
10.4359
10.5179
10.5892
10.6502
10.7012
10.7426
10.7747
10.7978
10.8125
10.8189
10.8177
10.8091
10.7936
10.7716
10.7435
10.7097
10.6707
10.6269
10.5786
10.5263
10.4703
10.4111
10.349
10.2844
10.2176
10.149
10.0788
10.0075
9.93537
9.86261
9.78953
9.7164
9.64347
9.57096
9.4991
9.42809
9.35813
9.28939
9.22205
9.15625
9.09214
9.02985
8.96949
8.91119
8.85502
8.8011
8.74949
8.70026
8.65349
8.60923
8.56753
8.52843
8.49198
8.4582
8.42713
8.39879
8.3732
8.35038
8.33043
8.31372
8.30012
8.2739
8.14989
8.57309
1936.21
-420.76
-85.3892
-6.05487
1.45486
2.02164
2.54607
3.06197
3.51249
3.9243
4.31774
4.7003
5.07392
5.43871
5.7943
6.14017
6.4758
6.80072
7.11449
7.41677
7.70726
7.9857
8.25192
8.50576
8.74711
8.97589
9.19206
9.3956
9.58654
9.76491
9.93079
10.0843
10.2255
10.3547
10.4719
10.5775
10.6716
10.7545
10.8265
10.8879
10.9391
10.9804
11.0122
11.0348
11.0486
11.0541
11.0517
11.0418
11.0247
11.0011
10.9711
10.9354
10.8943
10.8483
10.7977
10.743
10.6846
10.6229
10.5582
10.491
10.4215
10.3502
10.2774
10.2034
10.1286
10.0531
9.97739
9.90162
9.82607
9.75099
9.6766
9.60312
9.53073
9.45963
9.38998
9.32194
9.25567
9.19129
9.12892
9.06868
9.01066
8.95497
8.90168
8.85087
8.8026
8.75693
8.71391
8.67359
8.63601
8.6012
8.56919
8.54001
8.51368
8.49021
8.4697
8.45245
8.43818
8.41243
8.30093
8.70232
1936.22
-420.746
-85.3659
-6.02219
1.49682
2.07282
2.60635
3.13124
3.5906
4.0111
4.41304
4.80393
5.18566
5.55835
5.92161
6.27489
6.61769
6.94949
7.26988
7.57848
7.875
8.15917
8.43081
8.68976
8.9359
9.16915
9.38947
9.59685
9.79129
9.97285
10.1416
10.2977
10.4412
10.5722
10.6911
10.798
10.8932
10.9769
11.0495
11.1112
11.1624
11.2034
11.2347
11.2567
11.2696
11.2741
11.2704
11.259
11.2404
11.2149
11.1831
11.1454
11.1022
11.0539
11.001
10.9439
10.8831
10.8188
10.7515
10.6817
10.6096
10.5356
10.4601
10.3835
10.3059
10.2278
10.1494
10.071
9.99286
9.91522
9.83833
9.76238
9.6876
9.61415
9.54223
9.47198
9.40357
9.33712
9.27276
9.21062
9.15078
9.09335
9.03841
8.98603
8.93628
8.88923
8.84492
8.8034
8.76471
8.72889
8.69597
8.66596
8.63891
8.61482
8.59376
8.576
8.56111
8.5358
8.43565
8.81635
1936.22
-420.733
-85.3437
-5.99126
1.53655
2.12126
2.66341
3.19679
3.6645
4.09321
4.5032
4.90194
5.29133
5.67146
6.04194
6.40221
6.75174
7.09002
7.41662
7.73115
8.03331
8.32285
8.59955
8.86325
9.11385
9.35125
9.57541
9.78631
9.98397
10.1684
10.3398
10.4982
10.6437
10.7765
10.8968
11.0049
11.1009
11.1852
11.2581
11.3199
11.371
11.4117
11.4424
11.4635
11.4755
11.4788
11.4737
11.4608
11.4406
11.4133
11.3796
11.3398
11.2944
11.2439
11.1886
11.1291
11.0657
10.9989
10.929
10.8565
10.7818
10.7052
10.627
10.5476
10.4674
10.3866
10.3056
10.2246
10.1439
10.0637
9.98436
9.90598
9.82882
9.75306
9.67888
9.60645
9.53593
9.46744
9.40113
9.33711
9.27547
9.21633
9.15976
9.10584
9.05465
9.00623
8.96066
8.91796
8.87819
8.84138
8.80756
8.77676
8.749
8.7243
8.70272
8.68447
8.66902
8.64411
8.55414
8.91536
1936.23
-420.721
-85.3229
-5.96205
1.57405
2.16698
2.71725
3.25863
3.73423
4.17066
4.58822
4.99435
5.39094
5.77808
6.15533
6.52216
6.878
7.22235
7.55475
7.87482
8.18225
8.47677
8.75817
9.02629
9.28101
9.52223
9.74991
9.96405
10.1646
10.3518
10.5255
10.6859
10.8332
10.9675
11.089
11.198
11.2947
11.3795
11.4526
11.5143
11.5651
11.6053
11.6353
11.6555
11.6664
11.6684
11.6619
11.6474
11.6254
11.5963
11.5605
11.5186
11.471
11.4182
11.3605
11.2986
11.2327
11.1633
11.0908
11.0157
10.9383
10.859
10.7782
10.6961
10.6132
10.5298
10.4462
10.3626
10.2793
10.1967
10.1148
10.034
9.95452
9.87648
9.80008
9.72549
9.65289
9.5824
9.51415
9.44828
9.38488
9.32405
9.26588
9.21046
9.15784
9.10809
9.06127
9.01742
8.97659
8.93882
8.90412
8.87254
8.84409
8.8188
8.79672
8.77801
8.76203
8.73751
8.65659
8.99955
1936.23
-420.709
-85.3032
-5.93456
1.60934
2.20999
2.76789
3.3168
3.79979
4.24349
4.66814
5.08121
5.48454
5.87823
6.26183
6.63478
6.99652
7.34652
7.68433
8.00956
8.32188
8.62102
8.90676
9.17895
9.43745
9.68217
9.91308
10.1301
10.3334
10.5229
10.6987
10.8609
11.0097
11.1453
11.2678
11.3776
11.4748
11.5598
11.6329
11.6944
11.7448
11.7843
11.8135
11.8327
11.8424
11.843
11.835
11.8188
11.795
11.7639
11.7261
11.6821
11.6322
11.577
11.517
11.4525
11.3841
11.3121
11.2371
11.1593
11.0793
10.9973
10.9138
10.8291
10.7436
10.6575
10.5713
10.4851
10.3993
10.3142
10.2299
10.1467
10.0649
9.98459
9.90599
9.82928
9.75462
9.68215
9.61201
9.54431
9.47918
9.41669
9.35696
9.30004
9.24603
9.19498
9.14694
9.10196
9.0601
9.02138
8.98583
8.95349
8.92437
8.8985
8.87594
8.85678
8.84034
8.81618
8.74325
9.06912
1936.23
-420.698
-85.2848
-5.90877
1.64243
2.25032
2.81538
3.37133
3.86124
4.31172
4.74301
5.16255
5.57219
5.97199
6.3615
6.74016
7.10737
7.46263
7.80545
8.13544
8.45227
8.75567
9.04541
9.32132
9.58327
9.83118
10.065
10.2847
10.4903
10.6819
10.8595
11.0233
11.1734
11.31
11.4334
11.5437
11.6412
11.7263
11.7992
11.8604
11.9102
11.949
11.9772
11.9953
12.0037
12.0028
11.9932
11.9753
11.9495
11.9165
11.8766
11.8303
11.7782
11.7206
11.6581
11.5912
11.5202
11.4456
11.368
11.2876
11.2049
11.1202
11.0341
10.9467
10.8586
10.7699
10.6811
10.5924
10.5041
10.4165
10.3298
10.2443
10.1601
10.0776
9.99684
9.91804
9.84135
9.76693
9.69492
9.62543
9.55858
9.49447
9.43319
9.37483
9.31944
9.26711
9.21788
9.1718
9.12892
9.08928
9.0529
9.01982
8.99006
8.96363
8.94059
8.92102
8.90416
8.88034
8.81442
9.12433
1936.24
-420.688
-85.2675
-5.88467
1.67336
2.28801
2.85973
3.42225
3.91861
4.37542
4.81289
5.23846
5.65395
6.05942
6.45442
6.83835
7.21064
7.57074
7.91818
8.25256
8.57354
8.88083
9.17422
9.45352
9.71861
9.96939
10.2058
10.4279
10.6356
10.829
11.0082
11.1733
11.3245
11.4619
11.5859
11.6965
11.7942
11.8792
11.9518
12.0125
12.0616
12.0995
12.1266
12.1434
12.1504
12.148
12.1367
12.1169
12.0893
12.0541
12.0121
11.9636
11.9091
11.8491
11.7842
11.7147
11.6412
11.564
11.4837
11.4007
11.3153
11.2281
11.1392
11.0493
10.9585
10.8672
10.7759
10.6846
10.5939
10.5038
10.4148
10.3269
10.2405
10.1558
10.0729
9.992
9.91333
9.83699
9.76314
9.69189
9.62336
9.55765
9.49486
9.43506
9.37834
9.32475
9.27435
9.2272
9.18333
9.14279
9.1056
9.0718
9.0414
9.01444
8.99095
8.97099
8.95374
8.93025
8.87046
9.16544
1936.24
-420.678
-85.2515
-5.86223
1.70214
2.32307
2.90099
3.46961
3.97196
4.43464
4.87784
5.30898
5.72989
6.14061
6.54067
6.92947
7.30642
7.67098
8.02266
8.36105
8.6858
8.99664
9.29333
9.57569
9.84359
10.0969
10.3357
10.5598
10.7693
10.9643
11.1448
11.311
11.4631
11.6011
11.7254
11.8363
11.9339
12.0186
12.0908
12.1508
12.1991
12.2359
12.2619
12.2774
12.2829
12.2788
12.2657
12.2441
12.2144
12.1772
12.1329
12.0821
12.0252
11.9629
11.8954
11.8234
11.7473
11.6676
11.5846
11.499
11.411
11.321
11.2296
11.137
11.0436
10.9498
10.8559
10.7622
10.6689
10.5765
10.4851
10.3949
10.3063
10.2194
10.1344
10.0515
9.97084
9.89261
9.81695
9.74397
9.67379
9.60652
9.54224
9.48104
9.42301
9.36819
9.31665
9.26844
9.22361
9.18219
9.14421
9.10971
9.07871
9.05122
9.0273
9.00696
8.98937
8.9662
8.91175
9.19277
1936.24
-420.669
-85.2366
-5.84144
1.72881
2.35555
2.9392
3.51346
4.02135
4.48944
4.93793
5.37421
5.80011
6.21565
6.62035
7.01362
7.39484
7.76346
8.119
8.46103
8.78921
9.10324
9.4029
9.68799
9.9584
10.214
10.4548
10.6807
10.8918
11.0881
11.2697
11.4367
11.5894
11.7279
11.8524
11.9632
12.0606
12.1449
12.2165
12.2757
12.3229
12.3587
12.3833
12.3974
12.4013
12.3955
12.3806
12.357
12.3252
12.2858
12.2393
12.1862
12.1269
12.0621
11.9921
11.9176
11.8389
11.7566
11.671
11.5827
11.4921
11.3995
11.3054
11.2103
11.1143
11.0179
10.9215
10.8253
10.7296
10.6348
10.5411
10.4487
10.3578
10.2688
10.1817
10.0968
10.0142
9.93413
9.85669
9.78201
9.71021
9.6414
9.57567
9.5131
9.45378
9.39776
9.3451
9.29587
9.25009
9.20782
9.16907
9.13389
9.1023
9.07431
9.04996
9.02928
9.01138
8.98852
8.93872
9.20664
1936.25
-420.661
-85.2229
-5.82226
1.7534
2.38549
2.97442
3.55387
4.06685
4.53991
4.99324
5.43424
5.8647
6.28465
6.69359
7.09092
7.47602
7.84833
8.20735
8.55267
8.88392
9.20081
9.5031
9.79062
10.0632
10.3208
10.5633
10.7907
11.0031
11.2005
11.3829
11.5506
11.7037
11.8424
11.9669
12.0775
12.1745
12.2582
12.329
12.3873
12.4335
12.468
12.4913
12.5037
12.506
12.4984
12.4815
12.4559
12.422
12.3804
12.3316
12.2761
12.2145
12.1471
12.0747
11.9976
11.9163
11.8313