/*--------------------------------*- C++ -*----------------------------------*\
  =========                 |
  \\      /  F ield         | OpenFOAM: The Open Source CFD Toolbox
   \\    /   O peration     | Website:  https://openfoam.org
    \\  /    A nd           | Version:  10
     \\/     M anipulation  |
\*---------------------------------------------------------------------------*/
FoamFile
{
    format      ascii;
    class       volScalarField;
    location    "0.5";
    object      T;
}
// * * * * * * * * * * * * * * * * * * * * * * * * * * * * * * * * * * * * * //

dimensions      [0 0 0 1 0 0 0];

internalField   nonuniform List<scalar> 
100
(
1
1
1
1
1
1
1
1
1
1
1
1
1
1
1
1
1
1
1
1
1
1
1
1
1
1
1
1
1
1
1
1
1
1
1
1
1
0.999999
0.999995
0.99998
0.999923
0.999698
0.998826
0.995467
0.983322
0.95384
0.900363
0.818619
0.709199
0.578623
0.43851
0.302977
0.185179
0.0942849
0.0342699
0.0059706
0.000822151
0.00011343
1.56656e-05
2.16463e-06
2.99161e-07
4.13463e-08
5.71407e-09
7.89604e-10
1.09102e-10
1.50724e-11
2.08239e-12
2.87533e-13
3.96384e-14
5.2684e-15
4.68523e-16
-2.6112e-16
-4.0088e-16
-3.29067e-16
-2.02162e-16
-9.27212e-17
-2.41676e-17
7.33362e-18
1.52063e-17
1.22208e-17
6.66122e-18
2.32418e-18
4.90408e-20
-6.70437e-19
-6.1033e-19
-3.34085e-19
-1.08803e-19
4.127e-21
3.43741e-20
2.71562e-20
1.2568e-20
2.68355e-21
-1.24338e-21
-1.67332e-21
-9.60453e-22
-2.98715e-22
1.89655e-23
8.80239e-23
5.99381e-23
1.43152e-23
)
;

boundaryField
{
    top
    {
        type            zeroGradient;
    }
    bottom
    {
        type            zeroGradient;
    }
    in
    {
        type            fixedValue;
        value           uniform 1;
    }
    out
    {
        type            zeroGradient;
    }
    frontAndBack
    {
        type            empty;
    }
}


// ************************************************************************* //
