/*--------------------------------*- C++ -*----------------------------------*\
| =========                 |                                                 |
| \\      /  F ield         | OpenFOAM: The Open Source CFD Toolbox           |
|  \\    /   O peration     | Version:  2406                                  |
|   \\  /    A nd           | Website:  www.openfoam.com                      |
|    \\/     M anipulation  |                                                 |
\*---------------------------------------------------------------------------*/
FoamFile
{
    version     2.0;
    format      ascii;
    arch        "LSB;label=32;scalar=64";
    class       volScalarField;
    location    "14";
    object      p;
}
// * * * * * * * * * * * * * * * * * * * * * * * * * * * * * * * * * * * * * //

dimensions      [0 2 -2 0 0 0 0];

internalField   nonuniform List<scalar> 
34560
(
34.471883
34.458747
34.441891
34.422492
34.400995
34.379398
34.359505
34.34219
34.329111
34.550705
34.53471
34.51368
34.488653
34.460063
34.430592
34.402677
34.378276
34.359722
34.623793
34.605248
34.580746
34.551431
34.517554
34.482048
34.447797
34.417294
34.393678
34.695908
34.674955
34.647071
34.613514
34.574527
34.533339
34.493099
34.456738
34.427608
34.765544
34.742304
34.711195
34.673575
34.629679
34.582992
34.536925
34.494723
34.459941
34.829618
34.804537
34.770718
34.729558
34.681245
34.629469
34.577907
34.530091
34.489858
34.888067
34.861252
34.824895
34.780429
34.728008
34.67148
34.614795
34.561745
34.516473
34.939653
34.91124
34.87256
34.825074
34.768913
34.708019
34.646642
34.588864
34.53914
34.983315
34.953426
34.912633
34.862457
34.803047
34.738313
34.672748
34.610884
34.557458
35.017607
34.986448
34.943871
34.89148
34.829547
34.761772
34.692751
34.62752
34.571199
35.041477
35.009278
34.965331
34.911344
34.847688
34.777845
34.706341
34.638626
34.580277
35.054042
35.021239
34.976518
34.92165
34.85704
34.786091
34.713236
34.644142
34.58475
35.054043
35.021239
34.976518
34.92165
34.85704
34.786091
34.713236
34.644142
34.58475
35.041477
35.009279
34.965332
34.911345
34.847688
34.777845
34.706341
34.638626
34.580278
35.017607
34.986448
34.943871
34.89148
34.829547
34.761772
34.692751
34.62752
34.5712
34.983315
34.953425
34.912633
34.862456
34.803046
34.738312
34.672747
34.610884
34.557459
34.939651
34.911238
34.872558
34.825073
34.768911
34.708017
34.64664
34.588863
34.53914
34.888065
34.86125
34.824894
34.780428
34.728007
34.671478
34.614793
34.561744
34.516472
34.829618
34.804536
34.770717
34.729556
34.681244
34.629467
34.577906
34.530089
34.489857
34.765545
34.742305
34.711195
34.673576
34.629679
34.582992
34.536923
34.494721
34.45994
34.695911
34.674958
34.647074
34.613516
34.574529
34.533339
34.493099
34.456736
34.427606
34.623798
34.605252
34.58075
34.551434
34.517557
34.482051
34.447799
34.417294
34.393677
34.550712
34.534716
34.513686
34.488658
34.460069
34.430597
34.402681
34.378279
34.359721
34.47189
34.458754
34.441898
34.422499
34.401002
34.379404
34.359512
34.342195
34.329114
31.830901
31.831477
31.832319
31.833967
31.836639
31.839571
31.841423
31.841241
31.840352
31.827648
31.828608
31.830033
31.832523
31.836215
31.840011
31.842312
31.8425
31.84176
31.823033
31.824399
31.826434
31.829909
31.83494
31.840071
31.843312
31.84405
31.843406
31.819498
31.821283
31.823902
31.828272
31.834521
31.840915
31.845095
31.846381
31.845873
31.817024
31.819207
31.822405
31.827683
31.835166
31.842813
31.847881
31.849617
31.849114
31.815278
31.817905
31.821734
31.827988
31.83678
31.845706
31.851623
31.853697
31.85305
31.814692
31.817793
31.822333
31.829548
31.83958
31.849683
31.85631
31.858558
31.857601
31.814637
31.818127
31.823606
31.832256
31.843577
31.854683
31.861821
31.864062
31.862646
31.815167
31.818761
31.82473
31.835032
31.84844
31.860476
31.867903
31.870031
31.868066
31.81706
31.820573
31.826673
31.837693
31.852903
31.866413
31.874091
31.876159
31.873687
31.819693
31.823027
31.829209
31.840841
31.85711
31.871591
31.87967
31.881423
31.878222
31.821803
31.824949
31.831117
31.843116
31.860062
31.875202
31.883099
31.884328
31.880995
31.821803
31.824949
31.831117
31.843116
31.860062
31.875202
31.883099
31.884328
31.880995
31.819693
31.823027
31.829209
31.840842
31.85711
31.871591
31.87967
31.881423
31.878222
31.81706
31.820573
31.826672
31.837693
31.852903
31.866412
31.874091
31.876158
31.873687
31.815167
31.818761
31.82473
31.835031
31.848438
31.860475
31.867901
31.87003
31.868065
31.814636
31.818125
31.823605
31.832254
31.843575
31.854681
31.861819
31.864059
31.862644
31.81469
31.817791
31.822331
31.829546
31.839578
31.84968
31.856307
31.858555
31.857598
31.815277
31.817904
31.821733
31.827987
31.836779
31.845704
31.85162
31.853694
31.853047
31.817025
31.819208
31.822405
31.827683
31.835165
31.842811
31.847878
31.849614
31.84911
31.8195
31.821284
31.823903
31.828273
31.834521
31.840915
31.845093
31.846378
31.845869
31.823035
31.824401
31.826436
31.829911
31.834941
31.840071
31.843311
31.844048
31.843402
31.827651
31.828612
31.830036
31.832526
31.836218
31.840013
31.842313
31.842498
31.841756
31.830906
31.831482
31.832324
31.833971
31.836643
31.839574
31.841425
31.84124
31.840349
30.992165
30.992149
30.992003
30.991589
30.991078
30.990827
30.991206
30.992159
30.993134
30.991034
30.991144
30.991123
30.990776
30.990316
30.990142
30.990633
30.991753
30.99305
30.988583
30.988816
30.988924
30.988699
30.988404
30.988479
30.989306
30.990763
30.992442
30.985892
30.986244
30.986455
30.986304
30.986125
30.986431
30.987613
30.989462
30.991552
30.982978
30.983438
30.983745
30.983664
30.983601
30.984142
30.985662
30.987928
30.990456
30.979864
30.980416
30.980812
30.980809
30.980866
30.981637
30.983496
30.986178
30.989145
30.97711
30.977628
30.977933
30.977933
30.978081
30.979037
30.981196
30.984245
30.987677
30.975361
30.975814
30.975695
30.975154
30.975262
30.976391
30.978787
30.982175
30.986113
30.974699
30.975217
30.974972
30.973538
30.972662
30.973789
30.976333
30.97997
30.984457
30.974009
30.974635
30.974501
30.973002
30.971232
30.971515
30.973926
30.977664
30.982708
30.973147
30.973886
30.973821
30.972275
30.970222
30.969895
30.971833
30.975866
30.981691
30.972594
30.973395
30.973353
30.971726
30.969421
30.968639
30.970675
30.975167
30.981138
30.972594
30.973395
30.973353
30.971726
30.969421
30.968639
30.970675
30.975167
30.981138
30.973147
30.973886
30.973821
30.972275
30.970222
30.969894
30.971832
30.975866
30.98169
30.974009
30.974635
30.9745
30.973002
30.971231
30.971514
30.973925
30.977663
30.982707
30.974699
30.975216
30.974971
30.973537
30.972661
30.973788
30.976332
30.979968
30.984456
30.97536
30.975812
30.975693
30.975153
30.97526
30.976389
30.978785
30.982173
30.986111
30.977108
30.977626
30.97793
30.977931
30.978079
30.979035
30.981194
30.984243
30.987675
30.979863
30.980415
30.980811
30.980807
30.980864
30.981636
30.983494
30.986175
30.989143
30.982978
30.983437
30.983744
30.983663
30.983599
30.98414
30.985659
30.987925
30.990453
30.985892
30.986243
30.986455
30.986304
30.986124
30.98643
30.987611
30.98946
30.991549
30.988583
30.988817
30.988924
30.988699
30.988403
30.988479
30.989305
30.990761
30.992439
30.991035
30.991145
30.991124
30.990777
30.990316
30.990142
30.990632
30.991751
30.993047
30.992167
30.992151
30.992005
30.99159
30.991079
30.990828
30.991206
30.992158
30.993132
29.310621
29.310534
29.310465
29.310503
29.31059
29.310528
29.310071
29.309115
29.308066
29.311588
29.311505
29.311465
29.311561
29.311718
29.311672
29.3111
29.309918
29.308496
29.312267
29.312193
29.312188
29.312365
29.312636
29.31267
29.31207
29.310752
29.309078
29.313013
29.312957
29.312988
29.31323
29.313586
29.313676
29.313051
29.311626
29.30977
29.31373
29.313697
29.31377
29.314085
29.314531
29.314683
29.314039
29.312516
29.310496
29.314291
29.314297
29.314431
29.314835
29.315389
29.315622
29.314982
29.313372
29.311204
29.314777
29.314817
29.315006
29.315496
29.316157
29.316473
29.315843
29.314155
29.311854
29.315141
29.315209
29.315445
29.316016
29.316788
29.317198
29.316588
29.314831
29.31241
29.315373
29.315468
29.315747
29.316383
29.317253
29.317771
29.317191
29.315371
29.312841
29.315404
29.31553
29.315855
29.316566
29.317548
29.318177
29.317634
29.315741
29.313098
29.315263
29.315423
29.315786
29.316547
29.317633
29.318401
29.317894
29.315929
29.313195
29.315105
29.315285
29.315659
29.316419
29.317575
29.318464
29.317984
29.315996
29.313209
29.315105
29.315284
29.315659
29.316419
29.317575
29.318464
29.317984
29.315996
29.313209
29.315263
29.315423
29.315786
29.316547
29.317633
29.318401
29.317894
29.315928
29.313195
29.315403
29.315529
29.315854
29.316565
29.317547
29.318176
29.317633
29.31574
29.313097
29.315372
29.315467
29.315746
29.316382
29.317251
29.31777
29.31719
29.31537
29.31284
29.315139
29.315207
29.315444
29.316014
29.316786
29.317196
29.316586
29.314829
29.312409
29.314775
29.314815
29.315004
29.315494
29.316155
29.31647
29.31584
29.314152
29.311852
29.314289
29.314296
29.314429
29.314833
29.315387
29.31562
29.314979
29.31337
29.311202
29.313729
29.313696
29.313769
29.314083
29.314529
29.31468
29.314036
29.312513
29.310493
29.313011
29.312956
29.312986
29.313228
29.313584
29.313674
29.313049
29.311624
29.309767
29.312266
29.312192
29.312186
29.312363
29.312634
29.312668
29.312068
29.310749
29.309076
29.311587
29.311503
29.311463
29.311559
29.311717
29.31167
29.311097
29.309916
29.308494
29.31062
29.310532
29.310463
29.310502
29.310589
29.310526
29.31007
29.309114
29.308064
28.008112
28.008102
28.008062
28.007956
28.007807
28.007725
28.007844
28.008176
28.008486
28.00794
28.007945
28.00792
28.007813
28.007663
28.007593
28.007744
28.008135
28.008555
28.007522
28.007541
28.007529
28.007431
28.007299
28.007273
28.0075
28.007985
28.008518
28.007045
28.007076
28.007073
28.006977
28.006858
28.006877
28.007194
28.007792
28.008456
28.006524
28.006563
28.006568
28.006476
28.006373
28.006444
28.006858
28.007575
28.008365
28.005973
28.006021
28.006032
28.005946
28.005864
28.005993
28.006508
28.007342
28.008247
28.00545
28.005502
28.005518
28.005436
28.005374
28.005557
28.006165
28.007106
28.008111
28.00497
28.005026
28.005044
28.004966
28.004923
28.005155
28.005846
28.006878
28.007968
28.004557
28.004616
28.004636
28.004563
28.004532
28.004805
28.005565
28.006674
28.007832
28.004226
28.004288
28.004311
28.004242
28.004216
28.004523
28.005339
28.006506
28.007716
28.004001
28.004067
28.004094
28.00403
28.003992
28.004313
28.005177
28.006386
28.007629
28.003932
28.003999
28.004035
28.003994
28.003923
28.004179
28.005082
28.00632
28.007581
28.003932
28.003998
28.004035
28.003994
28.003923
28.004178
28.005081
28.00632
28.007581
28.004
28.004066
28.004093
28.004029
28.003991
28.004313
28.005177
28.006385
28.007629
28.004225
28.004287
28.00431
28.004241
28.004215
28.004522
28.005338
28.006505
28.007715
28.004556
28.004615
28.004635
28.004561
28.00453
28.004804
28.005564
28.006672
28.007831
28.004968
28.005024
28.005042
28.004964
28.004921
28.005153
28.005844
28.006876
28.007966
28.005447
28.0055
28.005515
28.005433
28.005372
28.005555
28.006163
28.007103
28.008108
28.005971
28.006018
28.006029
28.005943
28.005861
28.00599
28.006505
28.007339
28.008244
28.006521
28.00656
28.006565
28.006472
28.00637
28.00644
28.006854
28.007572
28.008361
28.007042
28.007072
28.007069
28.006973
28.006854
28.006873
28.00719
28.007788
28.008452
28.007518
28.007537
28.007526
28.007427
28.007295
28.007269
28.007496
28.00798
28.008513
28.007936
28.007941
28.007915
28.007809
28.007659
28.007589
28.00774
28.00813
28.008549
28.008108
28.008097
28.008058
28.007951
28.007802
28.00772
28.007839
28.00817
28.00848
26.505435
26.505417
26.505406
26.505424
26.505455
26.50544
26.505307
26.505037
26.504762
26.50561
26.505591
26.505585
26.505616
26.505663
26.505651
26.50549
26.505169
26.504808
26.505761
26.505742
26.505741
26.505787
26.505855
26.505852
26.505675
26.505311
26.504882
26.505946
26.505928
26.505931
26.505988
26.506069
26.506068
26.505872
26.505471
26.504987
26.506137
26.506121
26.50613
26.506198
26.506291
26.506292
26.506079
26.505644
26.505115
26.506303
26.506293
26.506311
26.506393
26.5065
26.506506
26.506281
26.505819
26.505251
26.506457
26.506451
26.506477
26.50657
26.50669
26.506702
26.506469
26.505986
26.505387
26.506588
26.506586
26.506619
26.506723
26.506854
26.506872
26.506635
26.506136
26.505514
26.506694
26.506696
26.506735
26.506847
26.506988
26.507013
26.506775
26.506265
26.505624
26.50677
26.506776
26.50682
26.50694
26.507088
26.507119
26.506883
26.506365
26.505712
26.506818
26.506826
26.506875
26.507
26.507154
26.507191
26.506956
26.506435
26.505773
26.506849
26.506858
26.506908
26.507035
26.50719
26.507226
26.506993
26.50647
26.505804
26.506848
26.506858
26.506907
26.507035
26.507189
26.507225
26.506993
26.50647
26.505804
26.506817
26.506826
26.506874
26.506999
26.507153
26.50719
26.506955
26.506434
26.505772
26.506769
26.506774
26.506819
26.506938
26.507087
26.507118
26.506881
26.506364
26.505711
26.506692
26.506694
26.506733
26.506845
26.506986
26.507011
26.506773
26.506263
26.505622
26.506586
26.506584
26.506617
26.506721
26.506851
26.50687
26.506633
26.506134
26.505512
26.506455
26.506449
26.506474
26.506567
26.506687
26.506699
26.506466
26.505983
26.505385
26.5063
26.506289
26.506307
26.506389
26.506496
26.506502
26.506277
26.505816
26.505248
26.506133
26.506117
26.506126
26.506194
26.506287
26.506288
26.506075
26.50564
26.505111
26.505941
26.505923
26.505926
26.505983
26.506064
26.506063
26.505867
26.505466
26.504983
26.505756
26.505737
26.505735
26.505782
26.505849
26.505847
26.50567
26.505306
26.504877
26.505604
26.505585
26.505579
26.50561
26.505657
26.505645
26.505484
26.505162
26.504802
26.505428
26.505411
26.5054
26.505417
26.505448
26.505433
26.5053
26.50503
26.504755
25.106088
25.106093
25.106088
25.106062
25.106019
25.105987
25.106009
25.106096
25.106196
25.106018
25.106026
25.106024
25.105997
25.105953
25.105926
25.105963
25.106078
25.10622
25.105887
25.105898
25.105899
25.105873
25.10583
25.105814
25.105875
25.106022
25.106202
25.105741
25.105754
25.105756
25.105729
25.105687
25.105682
25.105767
25.10595
25.106171
25.105586
25.105601
25.105604
25.105577
25.105535
25.105541
25.105653
25.10587
25.106129
25.105429
25.105446
25.10545
25.105422
25.105382
25.1054
25.105537
25.105787
25.10608
25.105284
25.105301
25.105304
25.105276
25.105239
25.105267
25.105426
25.105704
25.106027
25.105153
25.105171
25.105174
25.105145
25.105111
25.105148
25.105325
25.105628
25.105974
25.105044
25.105062
25.105064
25.105034
25.105002
25.105047
25.105239
25.105561
25.105926
25.104958
25.104976
25.104978
25.104948
25.104918
25.104969
25.105172
25.105508
25.105886
25.104899
25.104917
25.10492
25.104889
25.10486
25.104915
25.105126
25.105471
25.105858
25.10487
25.104888
25.104891
25.10486
25.104831
25.104887
25.105102
25.105452
25.105843
25.10487
25.104888
25.10489
25.10486
25.104831
25.104887
25.105102
25.105451
25.105843
25.104899
25.104917
25.104919
25.104888
25.104859
25.104914
25.105125
25.10547
25.105858
25.104957
25.104975
25.104977
25.104947
25.104916
25.104967
25.105171
25.105507
25.105885
25.105042
25.10506
25.105062
25.105032
25.105
25.105045
25.105237
25.105559
25.105925
25.105151
25.105169
25.105172
25.105142
25.105108
25.105145
25.105322
25.105625
25.105972
25.10528
25.105298
25.105301
25.105272
25.105235
25.105263
25.105422
25.105701
25.106024
25.105425
25.105442
25.105445
25.105417
25.105377
25.105395
25.105532
25.105783
25.106076
25.10558
25.105596
25.105598
25.105571
25.105529
25.105535
25.105647
25.105865
25.106125
25.105734
25.105747
25.105749
25.105722
25.105679
25.105674
25.105761
25.105944
25.106166
25.105879
25.10589
25.10589
25.105864
25.105821
25.105805
25.105867
25.106015
25.106197
25.106008
25.106016
25.106014
25.105987
25.105943
25.105916
25.105954
25.106069
25.106213
25.106077
25.106081
25.106077
25.106051
25.106008
25.105976
25.105998
25.106086
25.106187
23.657041
23.657035
23.657032
23.657037
23.657047
23.657048
23.657021
23.656958
23.656888
23.657062
23.657057
23.657055
23.657064
23.657078
23.65708
23.657047
23.656973
23.656883
23.657084
23.657078
23.657077
23.65709
23.65711
23.657115
23.657077
23.656991
23.656883
23.657117
23.657112
23.657112
23.657128
23.657151
23.657156
23.657113
23.657016
23.656892
23.657155
23.65715
23.657152
23.65717
23.657196
23.657201
23.657153
23.657046
23.656909
23.65719
23.657186
23.65719
23.657211
23.657239
23.657245
23.657194
23.657079
23.65693
23.657223
23.65722
23.657226
23.657249
23.65728
23.657287
23.657232
23.657111
23.656954
23.657252
23.65725
23.657257
23.657283
23.657316
23.657323
23.657267
23.657141
23.656977
23.657276
23.657275
23.657283
23.65731
23.657346
23.657354
23.657297
23.657167
23.656998
23.657294
23.657293
23.657303
23.657331
23.657368
23.657377
23.657319
23.657188
23.657015
23.657306
23.657305
23.657316
23.657345
23.657383
23.657392
23.657335
23.657202
23.657027
23.657312
23.657312
23.657322
23.657352
23.65739
23.6574
23.657342
23.657209
23.657033
23.657312
23.657312
23.657322
23.657352
23.65739
23.6574
23.657342
23.657209
23.657033
23.657305
23.657305
23.657315
23.657344
23.657382
23.657391
23.657334
23.657201
23.657027
23.657293
23.657292
23.657301
23.65733
23.657366
23.657375
23.657318
23.657187
23.657014
23.657274
23.657273
23.657281
23.657308
23.657343
23.657351
23.657294
23.657166
23.656997
23.65725
23.657247
23.657254
23.657279
23.657313
23.65732
23.657264
23.657139
23.656975
23.65722
23.657216
23.657221
23.657245
23.657276
23.657282
23.657228
23.657108
23.656951
23.657185
23.657181
23.657184
23.657205
23.657234
23.65724
23.657189
23.657075
23.656927
23.657149
23.657143
23.657145
23.657163
23.657189
23.657194
23.657147
23.657041
23.656905
23.657109
23.657103
23.657104
23.657119
23.657142
23.657147
23.657105
23.657009
23.656887
23.657074
23.657068
23.657067
23.657079
23.657099
23.657104
23.657067
23.656982
23.656876
23.65705
23.657044
23.657043
23.657051
23.657066
23.657068
23.657036
23.656962
23.656875
23.657027
23.657022
23.657019
23.657023
23.657033
23.657034
23.657008
23.656946
23.656877
22.228851
22.228852
22.228852
22.228847
22.228837
22.228829
22.22883
22.228844
22.228865
22.228833
22.228835
22.228835
22.22883
22.228821
22.228814
22.228819
22.228841
22.228872
22.228799
22.228802
22.228803
22.228798
22.22879
22.228786
22.228797
22.228827
22.228866
22.228762
22.228765
22.228767
22.228762
22.228754
22.228753
22.22877
22.228808
22.228857
22.228723
22.228727
22.228728
22.228724
22.228716
22.228717
22.22874
22.228787
22.228845
22.228683
22.228688
22.22869
22.228685
22.228678
22.228682
22.22871
22.228764
22.22883
22.228647
22.228652
22.228653
22.228648
22.228642
22.228648
22.228681
22.228742
22.228815
22.228614
22.228619
22.228621
22.228616
22.228609
22.228617
22.228655
22.228722
22.228801
22.228586
22.228591
22.228593
22.228588
22.228582
22.228591
22.228633
22.228704
22.228787
22.228565
22.228569
22.228571
22.228566
22.22856
22.228571
22.228615
22.228689
22.228776
22.228549
22.228554
22.228556
22.228551
22.228545
22.228557
22.228602
22.228679
22.228768
22.228542
22.228547
22.228548
22.228543
22.228538
22.22855
22.228596
22.228673
22.228763
22.228541
22.228547
22.228548
22.228543
22.228537
22.228549
22.228595
22.228673
22.228763
22.228549
22.228554
22.228555
22.22855
22.228544
22.228556
22.228601
22.228678
22.228767
22.228563
22.228568
22.22857
22.228564
22.228559
22.228569
22.228613
22.228688
22.228775
22.228584
22.228589
22.228591
22.228585
22.228579
22.228589
22.22863
22.228702
22.228786
22.228611
22.228616
22.228617
22.228612
22.228606
22.228614
22.228652
22.228719
22.228799
22.228643
22.228648
22.228649
22.228644
22.228637
22.228643
22.228677
22.228739
22.228813
22.228678
22.228683
22.228684
22.228679
22.228672
22.228676
22.228705
22.22876
22.228827
22.228716
22.22872
22.228721
22.228716
22.228709
22.22871
22.228733
22.228781
22.22884
22.228753
22.228757
22.228758
22.228753
22.228745
22.228744
22.228761
22.228801
22.228851
22.228789
22.228792
22.228792
22.228787
22.228779
22.228775
22.228787
22.228818
22.228859
22.22882
22.228823
22.228823
22.228818
22.228808
22.228802
22.228807
22.22883
22.228861
22.228837
22.228839
22.228838
22.228833
22.228824
22.228815
22.228816
22.22883
22.228853
20.792899
20.792898
20.792897
20.792897
20.792898
20.792899
20.792895
20.792884
20.79287
20.792902
20.792901
20.7929
20.792901
20.792904
20.792904
20.792899
20.792886
20.792869
20.792905
20.792904
20.792904
20.792906
20.792909
20.792911
20.792904
20.792889
20.792869
20.792913
20.792911
20.792911
20.792914
20.792918
20.792919
20.792912
20.792894
20.792871
20.792923
20.792921
20.792921
20.792924
20.792929
20.792931
20.792923
20.792903
20.792876
20.792935
20.792933
20.792934
20.792937
20.792943
20.792947
20.792939
20.792916
20.792886
20.792948
20.792947
20.792947
20.792952
20.792959
20.792964
20.792956
20.792932
20.792899
20.79296
20.792959
20.79296
20.792966
20.792974
20.79298
20.792972
20.792947
20.792913
20.792971
20.79297
20.792972
20.792978
20.792988
20.792993
20.792986
20.792961
20.792925
20.79298
20.792979
20.792981
20.792988
20.792998
20.793004
20.792997
20.792971
20.792935
20.792986
20.792985
20.792987
20.792994
20.793005
20.793012
20.793004
20.792979
20.792942
20.792989
20.792988
20.79299
20.792997
20.793008
20.793016
20.793008
20.792982
20.792945
20.792989
20.792988
20.79299
20.792997
20.793008
20.793015
20.793008
20.792982
20.792945
20.792985
20.792984
20.792986
20.792993
20.793004
20.793011
20.793003
20.792978
20.792941
20.792979
20.792978
20.792979
20.792986
20.792996
20.793002
20.792995
20.79297
20.792934
20.792969
20.792968
20.792969
20.792975
20.792985
20.792991
20.792983
20.792959
20.792924
20.792957
20.792956
20.792957
20.792962
20.792971
20.792976
20.792968
20.792944
20.792911
20.792944
20.792942
20.792943
20.792947
20.792955
20.792959
20.792951
20.792929
20.792897
20.792929
20.792928
20.792928
20.792931
20.792937
20.79294
20.792933
20.792912
20.792882
20.792916
20.792914
20.792914
20.792917
20.792921
20.792923
20.792916
20.792897
20.792871
20.792904
20.792903
20.792902
20.792904
20.792908
20.79291
20.792903
20.792887
20.792864
20.792895
20.792893
20.792893
20.792895
20.792898
20.7929
20.792894
20.792879
20.79286
20.79289
20.792888
20.792887
20.792889
20.792891
20.792892
20.792887
20.792874
20.792858
20.792886
20.792884
20.792883
20.792883
20.792885
20.792885
20.792881
20.79287
20.792857
19.359142
19.359142
19.359142
19.359142
19.35914
19.359137
19.359136
19.359136
19.359138
19.359146
19.359147
19.359147
19.359146
19.359145
19.359142
19.359141
19.359143
19.359147
19.359146
19.359146
19.359147
19.359146
19.359145
19.359144
19.359145
19.359147
19.359152
19.359143
19.359143
19.359144
19.359144
19.359143
19.359143
19.359145
19.359149
19.359155
19.359137
19.359138
19.359139
19.359139
19.359138
19.359138
19.359141
19.359147
19.359154
19.359129
19.35913
19.359131
19.359131
19.35913
19.35913
19.359133
19.35914
19.35915
19.359121
19.359122
19.359123
19.359123
19.359121
19.35912
19.359123
19.359131
19.359142
19.359112
19.359114
19.359115
19.359114
19.359112
19.359112
19.359115
19.359123
19.359135
19.359105
19.359106
19.359107
19.359107
19.359105
19.359104
19.359108
19.359117
19.359129
19.359099
19.3591
19.359101
19.3591
19.359099
19.359098
19.359102
19.359111
19.359124
19.359095
19.359096
19.359097
19.359096
19.359094
19.359094
19.359098
19.359107
19.359121
19.359093
19.359094
19.359095
19.359094
19.359092
19.359091
19.359095
19.359105
19.359119
19.359092
19.359094
19.359095
19.359094
19.359092
19.359091
19.359095
19.359105
19.359119
19.359094
19.359095
19.359096
19.359095
19.359093
19.359093
19.359097
19.359107
19.35912
19.359098
19.359099
19.3591
19.359099
19.359097
19.359096
19.3591
19.35911
19.359123
19.359103
19.359104
19.359105
19.359104
19.359102
19.359101
19.359105
19.359115
19.359128
19.359109
19.359111
19.359111
19.359111
19.359109
19.359108
19.359112
19.359121
19.359133
19.359117
19.359118
19.359119
19.359118
19.359116
19.359116
19.359119
19.359128
19.35914
19.359124
19.359125
19.359126
19.359125
19.359124
19.359124
19.359127
19.359135
19.359146
19.35913
19.359131
19.359132
19.359131
19.359131
19.359131
19.359134
19.359141
19.35915
19.359134
19.359135
19.359135
19.359134
19.359134
19.359134
19.359137
19.359142
19.359149
19.359135
19.359136
19.359136
19.359135
19.359134
19.359134
19.359135
19.359139
19.359145
19.359134
19.359135
19.359135
19.359134
19.359132
19.35913
19.359129
19.359132
19.359137
19.359128
19.359129
19.359129
19.359128
19.359126
19.359124
19.359122
19.359123
19.359127
17.925349
17.925349
17.925349
17.925348
17.925349
17.925349
17.92535
17.92535
17.92535
17.925347
17.925347
17.925347
17.925347
17.925347
17.925348
17.925348
17.925349
17.925349
17.925346
17.925346
17.925346
17.925346
17.925346
17.925346
17.925347
17.925347
17.925347
17.925347
17.925347
17.925347
17.925347
17.925347
17.925347
17.925348
17.925348
17.925347
17.925348
17.925348
17.925348
17.925349
17.925349
17.92535
17.925351
17.925351
17.925351
17.925349
17.925349
17.92535
17.92535
17.925351
17.925353
17.925354
17.925354
17.925354
17.925351
17.925351
17.925351
17.925352
17.925353
17.925355
17.925357
17.925357
17.925357
17.925352
17.925352
17.925353
17.925354
17.925355
17.925357
17.925359
17.92536
17.925359
17.925354
17.925354
17.925354
17.925355
17.925357
17.925359
17.925361
17.925362
17.925362
17.925355
17.925355
17.925355
17.925356
17.925358
17.92536
17.925363
17.925364
17.925364
17.925355
17.925355
17.925356
17.925357
17.925359
17.925361
17.925364
17.925365
17.925365
17.925355
17.925355
17.925356
17.925357
17.925359
17.925362
17.925364
17.925366
17.925365
17.925355
17.925355
17.925356
17.925357
17.925359
17.925361
17.925364
17.925366
17.925365
17.925354
17.925354
17.925355
17.925356
17.925358
17.92536
17.925363
17.925365
17.925364
17.925353
17.925353
17.925354
17.925354
17.925356
17.925359
17.925361
17.925363
17.925363
17.925352
17.925352
17.925352
17.925353
17.925354
17.925357
17.925359
17.92536
17.925361
17.92535
17.92535
17.92535
17.92535
17.925352
17.925354
17.925356
17.925358
17.925358
17.925347
17.925347
17.925347
17.925348
17.925349
17.925351
17.925353
17.925354
17.925355
17.925345
17.925345
17.925345
17.925345
17.925346
17.925347
17.925349
17.92535
17.925351
17.925342
17.925342
17.925342
17.925342
17.925343
17.925344
17.925345
17.925346
17.925347
17.925339
17.925339
17.925339
17.925339
17.925339
17.925339
17.92534
17.925341
17.925342
17.925337
17.925337
17.925337
17.925337
17.925337
17.925337
17.925338
17.925339
17.92534
17.925336
17.925336
17.925336
17.925336
17.925336
17.925337
17.925338
17.925339
17.92534
17.925337
17.925337
17.925336
17.925336
17.925336
17.925337
17.925338
17.925338
17.92534
16.491106
16.491106
16.491106
16.491106
16.491106
16.491106
16.491105
16.491104
16.491102
16.491105
16.491105
16.491105
16.491105
16.491105
16.491105
16.491104
16.491102
16.491101
16.491103
16.491103
16.491103
16.491103
16.491103
16.491103
16.491102
16.491101
16.491099
16.491101
16.491101
16.491101
16.491101
16.491102
16.491101
16.4911
16.491099
16.491097
16.491099
16.491099
16.491099
16.4911
16.4911
16.4911
16.491099
16.491097
16.491096
16.491097
16.491097
16.491097
16.491098
16.491098
16.491098
16.491097
16.491096
16.491094
16.491095
16.491096
16.491096
16.491096
16.491097
16.491096
16.491096
16.491094
16.491093
16.491094
16.491094
16.491094
16.491095
16.491095
16.491095
16.491094
16.491093
16.491092
16.491093
16.491093
16.491093
16.491094
16.491094
16.491094
16.491093
16.491092
16.49109
16.491092
16.491092
16.491092
16.491093
16.491093
16.491093
16.491092
16.491091
16.491089
16.491091
16.491091
16.491092
16.491092
16.491092
16.491092
16.491091
16.49109
16.491089
16.491091
16.491091
16.491091
16.491091
16.491092
16.491092
16.491091
16.49109
16.491088
16.49109
16.491091
16.491091
16.491091
16.491091
16.491091
16.491091
16.49109
16.491088
16.49109
16.491091
16.491091
16.491091
16.491091
16.491091
16.491091
16.49109
16.491088
16.491091
16.491091
16.491091
16.491091
16.491092
16.491092
16.491091
16.49109
16.491089
16.491091
16.491091
16.491091
16.491092
16.491092
16.491092
16.491091
16.49109
16.491089
16.491092
16.491092
16.491092
16.491092
16.491092
16.491092
16.491092
16.491091
16.49109
16.491092
16.491092
16.491092
16.491093
16.491093
16.491093
16.491092
16.491092
16.491091
16.491093
16.491093
16.491093
16.491093
16.491094
16.491094
16.491093
16.491092
16.491092
16.491094
16.491094
16.491094
16.491094
16.491094
16.491094
16.491094
16.491093
16.491092
16.491094
16.491094
16.491094
16.491095
16.491095
16.491095
16.491094
16.491094
16.491093
16.491095
16.491095
16.491095
16.491095
16.491095
16.491095
16.491095
16.491094
16.491093
16.491096
16.491096
16.491096
16.491096
16.491096
16.491096
16.491095
16.491094
16.491093
16.491096
16.491096
16.491096
16.491096
16.491096
16.491095
16.491095
16.491093
16.491093
15.057249
15.057249
15.057249
15.057249
15.057249
15.057249
15.057249
15.05725
15.05725
15.057248
15.057248
15.057248
15.057248
15.057248
15.057248
15.057248
15.057248
15.057249
15.057246
15.057246
15.057246
15.057246
15.057246
15.057246
15.057247
15.057247
15.057248
15.057245
15.057245
15.057245
15.057245
15.057245
15.057245
15.057245
15.057246
15.057247
15.057243
15.057243
15.057244
15.057244
15.057244
15.057244
15.057244
15.057245
15.057246
15.057242
15.057242
15.057242
15.057242
15.057242
15.057243
15.057244
15.057245
15.057246
15.057241
15.057241
15.057241
15.057241
15.057241
15.057242
15.057243
15.057244
15.057245
15.05724
15.05724
15.05724
15.05724
15.05724
15.057241
15.057242
15.057243
15.057245
15.057239
15.057239
15.05724
15.05724
15.05724
15.05724
15.057241
15.057243
15.057244
15.057239
15.057239
15.057239
15.057239
15.057239
15.05724
15.057241
15.057242
15.057244
15.057238
15.057238
15.057238
15.057238
15.057239
15.057239
15.05724
15.057242
15.057244
15.057238
15.057238
15.057238
15.057238
15.057238
15.057239
15.05724
15.057242
15.057243
15.057238
15.057238
15.057238
15.057238
15.057238
15.057239
15.05724
15.057242
15.057243
15.057238
15.057238
15.057238
15.057238
15.057238
15.057238
15.05724
15.057241
15.057243
15.057238
15.057238
15.057238
15.057238
15.057238
15.057238