/*--------------------------------*- C++ -*----------------------------------*\
| =========                 |                                                 |
| \\      /  F ield         | OpenFOAM: The Open Source CFD Toolbox           |
|  \\    /   O peration     | Version:  2406                                  |
|   \\  /    A nd           | Website:  www.openfoam.com                      |
|    \\/     M anipulation  |                                                 |
\*---------------------------------------------------------------------------*/
FoamFile
{
    version     2.0;
    format      ascii;
    arch        "LSB;label=32;scalar=64";
    class       surfaceScalarField;
    location    "14";
    object      phi;
}
// * * * * * * * * * * * * * * * * * * * * * * * * * * * * * * * * * * * * * //

dimensions      [0 3 -1 0 0 0 0];

oriented        oriented;

internalField   nonuniform List<scalar> 
101088
(
0.00012766751
-2.2443973e-05
1.7340912e-05
1.9554745e-05
0.0002640762
-9.5890534e-05
7.3767304e-05
8.4595043e-05
0.00038588083
-0.00022837958
0.00017380865
0.00020326503
0.0004642879
-0.00042666097
0.00031847553
0.00038319324
0.00048253219
-0.00066401002
0.00047951523
0.00060337467
0.00045464286
-0.00087608894
0.00060131618
0.00080622354
0.00042052388
-0.0010000967
0.00063637399
0.00093000541
0.000411501
-0.001012646
0.00058212488
0.00095031622
-0.00092833287
0.0004741974
0.00087632505
0.00043399303
0.00015521162
-2.4793828e-05
2.1476577e-05
0.0003169742
-0.00010453638
9.052884e-05
0.00045386287
-0.00024581059
0.00021149467
0.00052824063
-0.00045285208
0.00038386084
0.00052130403
-0.00069461334
0.00057219453
0.00045521048
-0.00090414166
0.00071194515
0.0003805776
-0.0010203389
0.00075238816
0.00033473016
-0.0010219859
0.00069415986
-0.00092633042
0.00057632831
0.00032311537
0.00018270407
-2.6328084e-05
2.5685978e-05
0.00036901259
-0.00010962034
0.00010738386
0.00052041073
-0.00025482317
0.00024887757
0.00059302166
-0.00046329346
0.00044759832
0.0005673127
-0.00069966531
0.00066063661
0.00047186387
-0.00089617772
0.00081511555
0.00036545289
-0.00099627466
0.00085823874
0.00028981279
-0.00098339854
0.00079479172
-0.0008777224
0.00066767438
0.00025119268
0.00020939825
-2.6989921e-05
2.9857406e-05
0.00041930886
-0.00011109975
0.00012388185
0.00058455886
-0.0002555399
0.00028501309
0.00065592683
-0.00045873315
0.0005083471
0.0006144346
-0.00068162998
0.00074364705
0.00049516423
-0.00085707832
0.00091057495
0.00036303009
-0.00093406756
0.00095483511
0.00026353431
-0.00090415108
0.00088547415
-0.00079195012
0.00074892752
0.00020518376
0.00023449206
-2.6611605e-05
3.3834115e-05
0.0004662321
-0.00010872067
0.00013951914
0.00064412676
-0.00024813182
0.0003190897
0.00071451277
-0.0004405374
0.00056533815
0.00065942543
-0.0006437689
0.00082107862
0.00051966355
-0.0007918357
0.00099903423
0.00036563881
-0.00084038113
0.0010436854
0.00024643476
-0.00079223554
0.00096806891
-0.00067748002
0.00082203522
0.00017262455
0.00025790299
-2.5497939e-05
3.7600241e-05
0.00051023494
-0.00010348945
0.00015427061
0.00070029882
-0.00023448267
0.00035115935
0.00076998927
-0.00041150323
0.00061891745
0.00070188079
-0.00058970228
0.00089382193
0.00054209
-0.00070491814
0.0010818863
0.00036711293
-0.0007213229
0.001126482
0.00023028272
-0.00065561944
0.00104437
-0.00054303953
0.00088876148
0.00014391324
0.00027838959
-2.355954e-05
4.1092528e-05
0.00054785463
-9.5211481e-05
0.00016794867
0.00074640518
-0.00021452835
0.00038095629
0.00081187965
-0.00037225685
0.00066892848
0.00072793329
-0.00052174455
0.0009620567
0.00054692463
-0.00060139528
0.0011596204
0.00035254849
-0.00058573282
0.0012040042
0.00020207145
-0.00050593542
0.0011154223
-0.00040095221
0.00095045011
0.00010820122
0.00029565988
-2.0760998e-05
4.4263794e-05
0.00057839894
-8.3722832e-05
0.00018048504
0.00078076944
-0.00018789819
0.00040857195
0.00083643051
-0.00032249758
0.00071590886
0.00073100828
-0.00044106543
0.0010269302
0.00052556795
-0.00048616457
0.0012337898
0.00031320282
-0.00044383692
0.0012778358
0.00015395246
-0.00035690781
0.0011828741
-0.00026534157
0.0010090158
5.829517e-05
0.00030934735
-1.7005189e-05
4.7076761e-05
0.00060086722
-6.8570354e-05
0.00019178752
0.00080117902
-0.00015348784
0.00043396607
0.00083961832
-0.00026070128
0.00075989767
0.0007055201
-0.00034776575
0.0010884553
0.00047241613
-0.00036450326
0.0013045105
0.00024475125
-0.00030735417
0.0013482166
8.2950683e-05
-0.00022387133
0.0012473578
-0.00015094059
0.0010649948
-8.0534121e-06
0.00031932341
-1.2251466e-05
4.9442771e-05
0.00061524487
-4.9394165e-05
0.00020148622
0.00080815747
-0.00011025851
0.00045625095
0.00082308364
-0.00018545092
0.00079944245
0.0006548091
-0.00024167237
0.0011442644
0.00039308598
-0.0002410244
0.0013685995
0.00015426116
-0.00018627671
0.0014119681
-4.0290043e-06
-0.00011946382
0.001306608
-6.9213341e-05
0.0011165497
-8.4881805e-05
0.00032544668
-6.4585704e-06
5.1234183e-05
0.00062192003
-2.6017953e-05
0.00020888808
0.00080446869
-5.7984176e-05
0.00047344572
0.00079492032
-9.6931275e-05
0.00083035822
0.00059396552
-0.00012420131
0.0011885187
0.00030783718
-0.00011918749
0.001419418
6.2961272e-05
-8.5489009e-05
0.0014629003
-8.7921729e-05
-4.8148625e-05
0.0013547394
-2.2888239e-05
0.0011586758
-0.00015652479
0.00032838534
-6.2008954e-11
5.2152966e-05
0.0006244374
-2.1257946e-10
0.00021280475
0.00079990954
-5.0269349e-10
0.00048282509
0.0007745318
-1.1276595e-09
0.00084771705
0.00055311602
-1.8215751e-09
0.0012138118
0.00025259559
-2.6260582e-09
0.0014489191
5.1738848e-06
-3.3124836e-09
0.0014930886
-0.00013995002
-3.7987581e-09
0.0013833853
-3.9727408e-09
0.0011834294
-0.0002003981
0.00032838539
6.458481e-06
5.2152959e-05
0.00062443729
2.6017581e-05
0.00021280472
0.00079990934
5.7983197e-05
0.000482825
0.00077453205
9.6929157e-05
0.00084771691
0.00055311615
0.00012419797
0.0012138116
0.00025259566
0.00011918268
0.0014489189
5.1738904e-06
8.5482908e-05
0.0014930884
-0.00013995014
4.8141463e-05
0.0013833851
2.2880615e-05
0.0011834293
-0.00020039805
0.00032544684
1.2251398e-05
5.1234182e-05
0.00062191996
4.9393812e-05
0.00020888807
0.00080446854
0.00011025764
0.00047344566
0.00079492125
0.00018544927
0.00083035814
0.00059396588
0.0002416698
0.0011885185
0.00030783734
0.00024102061
0.0014194177
6.2961191e-05
0.00018627185
0.0014629
-8.7922129e-05
0.00011945776
0.0013547391
6.9206587e-05
0.0011586755
-0.00015652478
0.00031932347
1.7005099e-05
4.9442757e-05
0.00061524479
6.8569963e-05
0.00020148615
0.00080815729
0.00015348713
0.00045625079
0.00082308458
0.00026070006
0.0007994422
0.00065480906
0.00034776363
0.0011442639
0.00039308591
0.00036450027
0.0013685988
0.00015426071
0.00030735041
0.0014119675
-4.0298158e-06
0.00022386641
0.0013066075
0.00015093499
0.0011165493
-8.4882058e-05
0.00030934752
2.0760988e-05
4.7076751e-05
0.00060086751
8.3722697e-05
0.00019178748
0.00080117888
0.00018789776
0.00043396597
0.0008396188
0.00032249643
0.00075989747
0.00070551951
0.00044106322
0.0010884548
0.00047241566
0.00048616182
0.0013045098
0.00024475016
0.00044383346
0.0013482159
8.2949317e-05
0.00035690345
0.0012473572
0.00026533691
0.0010649944
-8.053963e-06
0.00029565989
2.3559491e-05
4.4263792e-05
0.00057839894
9.5211286e-05
0.00018048503
0.00078076878
0.00021452773
0.00040857191
0.0008364303
0.00037225553
0.00071590869
0.0007310076
0.0005217424
0.0010269298
0.00052556719
0.00060139276
0.0012337893
0.00031320121
0.00058572933
0.0012778351
0.00015395067
0.00050593137
0.0011828735
0.00040094791
0.0010090154
5.8294406e-05
0.00027838988
2.5497858e-05
4.1092527e-05
0.00054785531
0.00010348928
0.00016794866
0.00074640521
0.00023448235
0.00038095625
0.00081187955
0.00041150255
0.00066892834
0.00072793313
0.00058970083
0.0009620565
0.00054692368
0.00070491601
0.00115962
0.00035254674
0.00072131989
0.0012040037
0.00020206949
0.00065561615
0.0011154218
0.00054303504
0.00095044976
0.00010819996
0.00025790356
2.6611556e-05
3.7600254e-05
0.00051023607
0.00010872043
0.00015427066
0.00070029919
0.0002481312
0.00035115942
0.0007699889
0.00044053602
0.00061891748
0.0007018808
0.00064376664
0.00089382197
0.00054208913
0.00079183297
0.0010818863
0.00036711166
0.0008403787
0.0011264818
0.00023028071
0.00079223305
0.0010443697
0.00067747542
0.00088876116
0.00014391117
0.00023449229
2.698983e-05
3.3834114e-05
0.00046623256
0.00011109947
0.00013951913
0.00064412695
0.00025553939
0.00031908965
0.00071451273
0.00045873241
0.00056533803
0.00065942601
0.000681629
0.00082107844
0.0005196637
0.00085707663
0.0009990341
0.00036563816
0.00093406551
0.0010436851
0.00024643257
0.00090414833
0.00096806856
0.00079194679
0.00082203488
0.00017262166
0.00020939843
2.6328053e-05
2.9857402e-05
0.00041930965
0.00010962025
0.00012388183
0.00058456006
0.00025482289
0.00028501303
0.00065592762
0.00046329276
0.00050834698
0.00061443479
0.0006996641
0.00074364689
0.00049516445
0.00089617596
0.0009105749
0.00036302965
0.00099627196
0.0009548349
0.00026353318
0.00098339566
0.00088547377
0.00087772099
0.00074892725
0.00020518053
0.00018270405
2.4793784e-05
2.5685974e-05
0.00036901277
0.00010453624
0.00010738384
0.0005204113
0.00024581028
0.00024887753
0.00059302228
0.00045285143
0.00044759823
0.00056731254
0.00069461214
0.00066063645
0.00047186304
0.00090413974
0.00081511534
0.00036545194
0.0010203365
0.00085823861
0.00028981266
0.0010219845
0.00079479147
0.00092633015
0.00066767407
0.0002511898
0.00015521151
2.2443964e-05
2.1476578e-05
0.0003169741
9.5890524e-05
9.0528843e-05
0.00045386306
0.00022837955
0.00021149467
0.00052824105
0.00042666089
0.00038386083
0.00052130353
0.00066400979
0.00057219449
0.00045520821
0.00087608818
0.0007119451
0.00038057475
0.0010000957
0.00075238814
0.000334726
0.0010126453
0.00069415973
0.00092833322
0.00057632808
0.00032311104
0.00012766749
1.7340916e-05
1.9554791e-05
0.00026407622
7.3767317e-05
8.4595234e-05
0.00038588085
0.00017380867
0.00020326549
0.00046428779
0.00031847556
0.00038319407
0.00048253129
0.00047951528
0.00060337576
0.00045464008
0.00060131627
0.00080622441
0.00042052057
0.00063637405
0.00093000547
0.00041149679
0.00058212472
0.00095031501
0.0004741973
0.00087632389
0.00043399313
2.1203406e-06
-4.3170043e-06
1.6510713e-05
3.0268607e-06
9.3247556e-06
-2.1057673e-05
7.2359252e-05
1.5261419e-05
2.4006347e-05
-5.7765477e-05
0.00017394116
4.2951668e-05
4.8644506e-05
-0.00012620117
0.00032393778
9.6100979e-05
8.2013947e-05
-0.00023023976
0.00049682789
0.00017955746
0.00011818038
-0.00035171548
0.00063680234
0.00028006293
0.00015286745
-0.00045474238
0.00068919551
0.00036723447
0.00018729814
-0.00051076349
0.00064249359
0.00041596454
-0.00051088209
0.00052930128
0.00042188633
0.00022118948
2.814641e-06
-5.5082995e-06
1.9853236e-05
1.2322185e-05
-2.6710029e-05
8.6673513e-05
3.1060764e-05
-7.2421201e-05
0.00020741129
6.037976e-05
-0.00015555116
0.00038389092
9.603476e-05
-0.00027817567
0.00058447463
0.00012912217
-0.000416893
0.00074403487
0.00015506197
-0.00053099002
0.00080269518
0.00017706708
-0.0005902054
0.00075159581
-0.0005843524
0.00062874986
0.00019811667
3.7581855e-06
-6.6652665e-06
2.3084815e-05
1.6078139e-05
-3.2116477e-05
0.00010047039
3.9381645e-05
-8.62937e-05
0.00023944667
7.3761966e-05
-0.0001828556
0.00044052269
0.00011195189
-0.00032127182
0.00066554342
0.00014238205
-0.00047259338
0.0008403873
0.00016050679
-0.00059213754
0.00090126196
0.00017161895
-0.00064991767
0.00084339209
-0.00063661864
0.0007111288
0.00018043146
4.8661147e-06
-7.8081239e-06
2.6134029e-05
2.0541717e-05
-3.7324772e-05
0.00011341419
4.9239899e-05
-9.9252394e-05
0.00026927366
8.9392497e-05
-0.0002073456
0.00049268513
0.00013049656
-0.00035784973
0.0007391206
0.00015862263
-0.00051636654
0.00092622149
0.00016973314
-0.0006356405
0.00098722763
0.00017118566
-0.00068758407
0.00092168849
-0.00066580443
0.00077997747
0.00016932285
5.9833753e-06
-8.8312544e-06
2.8873682e-05
2.506481e-05
-4.1949964e-05
0.00012506238
5.9309198e-05
-0.00011051421
0.00029610708
0.00010555141
-0.00022773343
0.00053948445
0.00015006606
-0.00038601628
0.00080473129
0.00017641432
-0.00054569464
0.0010020142
0.0001810038
-0.000658735
0.0010621916
0.00017362424
-0.00070102781
0.00098889275
-0.00067057964
0.00083801719
0.00016241765
7.1900706e-06
-9.7522935e-06
3.1331063e-05
2.9995287e-05
-4.5991268e-05
0.00013550643
7.0306286e-05
-0.00011980346
0.00032013797
0.00012319558
-0.0002430037
0.00058129835
0.00017142864
-0.00040350759
0.00086308012
0.00019577921
-0.00055701511
0.0010688573
0.00019338392
-0.00065743626
0.00112758
0.0001771619
-0.00068707886
0.0010466437
-0.00064897467
0.00088700798
0.00015731041
8.1897319e-06
-1.0353973e-05
3.3504307e-05
3.3980001e-05
-4.8559462e-05
0.00014472657
7.9214475e-05
-0.00012540998
0.00034132934
0.00013708969
-0.00025007775
0.00061812749
0.00018710843
-0.00040576727
0.00091429707
0.00020801557
-0.00054533388
0.0011270324
0.0001985343
-0.00062777642
0.0011838272
0.00017486418
-0.00064362812
0.0010956429
-0.00060032313
0.0009280136
0.0001486494
8.9746475e-06
-1.0441029e-05
3.5375748e-05
3.6796639e-05
-4.8617323e-05
0.00015272075
8.4502943e-05
-0.00012439339
0.00035984998
0.00014424252
-0.00024449254
0.00065058417
0.00019251727
-0.00038669889
0.00095958774
0.00020757341
-0.00050476398
0.0011781645
0.00019095719
-0.00056599018
0.0012326673
0.00016175456
-0.00056914333
0.0011375932
-0.00052417608
0.0009626466
0.00013197695
9.4333875e-06
-9.7533905e-06
3.6955417e-05
3.7999894e-05
-4.4935565e-05
0.00015953925
8.5379699e-05
-0.00011364166
0.00037583521
0.00014148666
-0.00021967963
0.00067897752
0.00018260499
-0.00033889982
0.00099953905
0.00018889288
-0.00042960469
0.0012230643
0.00016554436
-0.00046944761
0.0012750234
0.0001333478
-0.00046313164
0.0011735433
-0.00042094801
0.00099197185
0.00010314262
9.2595839e-06
-7.8119655e-06
3.8241941e-05
3.6229812e-05
-3.5576372e-05
0.00016515719
7.862577e-05
-8.8952032e-05
0.00038916568
0.00012522026
-0.00016974695
0.00070291479
0.00015488378
-0.00025773657
0.0010334382
0.00015036474
-0.00031757541
0.0012610899
0.00012113664
-0.00033868377
0.0013104322
8.7541741e-05
-0.00032628812
0.0012033594
-0.00029204463
0.0010161084
5.9079318e-05
8.6260056e-06
-4.437848e-06
3.9234311e-05
3.2516809e-05
-2.0005123e-05
0.00016942626
6.7343632e-05
-4.953708e-05
0.00039920372
0.00010066745
-9.3546643e-05
0.0007208337
0.0001133037
-0.00014051046
0.0010586563
9.7261627e-05
-0.00017128565
0.0012891705
6.2949147e-05
-0.0001777379
0.0013362661
3.3630321e-05
-0.00016723477
0.0012250048
-0.0001498407
0.0010335519
1.6549955e-05
8.0007964e-06
1.4743585e-11
3.9714399e-05
2.922354e-05
5.5766767e-11
0.0001715768
5.8089766e-05
1.1097264e-10
0.0004044212
8.1897377e-05
7.1415309e-11
0.00073036269
8.2956893e-05
1.4309324e-10
0.0010722412
5.6199273e-05
3.3501501e-10
0.0013043908
2.1329941e-05
6.8425028e-10
0.0013502187
8.1225577e-07
9.9347583e-10
0.0012366672
9.6887794e-10
0.001042982
-8.5822538e-06
8.0007602e-06
4.4378876e-06
3.9714394e-05
2.9223509e-05
2.0005271e-05
0.00017157678
5.8089738e-05
4.9537358e-05
0.00040442115
8.1897655e-05
9.3546875e-05
0.00073036261
8.2957031e-05
0.00014051092
0.0010722411
5.6199313e-05
0.00017128661
0.0013043907
2.1330012e-05
0.00017773967
0.0013502186
8.1220919e-07
0.00016723697
0.0012366671
0.00014984261
0.0010429819
-8.5821833e-06
8.625937e-06
7.8119971e-06
3.9234311e-05
3.2516738e-05
3.5576516e-05
0.00016942626
6.7343501e-05
8.8952353e-05
0.00039920372
0.00010066819
0.00016974738
0.00072083371
0.00011330403
0.00025773742
0.0010586562
9.7261682e-05
0.00031757699
0.0012891704
6.2949311e-05
0.0003386863
0.0013362661
3.3630161e-05
0.00032629075
0.0012250047
0.00029204653
0.0010335518
1.6550034e-05
9.2596866e-06
9.7533755e-06
3.8241932e-05
3.6229944e-05
4.493559e-05
0.00016515715
7.8625536e-05
0.00011364189
0.0003891656
0.00012522113
0.00021968018
0.00070291466
0.00015488394
0.00033890086
0.0010334379
0.00015036455
0.00042960647
0.0012610895
0.00012113652
0.0004694503
0.0013104319
8.7541523e-05
0.00046313411
0.0012033592
0.00042094993
0.0010161083
5.9079499e-05
9.4338546e-06
1.044106e-05
3.6955412e-05
3.8000528e-05
4.861743e-05
0.00015953923
8.5379492e-05
0.00012439368
0.00037583515
0.00014148726
0.00024449312
0.0006789774
0.00018260481
0.00038669959
0.00099953876
0.00018889245
0.00050476523
0.0012230639
0.00016554362
0.00056599225
0.001275023
0.00013334676
0.00056914535
0.001173543
0.0005241779
0.00099197179
0.00010314238
8.9751521e-06
1.0354049e-05
3.5375749e-05
3.6797322e-05
4.8559635e-05
0.00015272075
8.4502587e-05
0.00012541024
0.00035984995
0.00014424254
0.00025007809
0.00065058407
0.00019251699
0.00040576748
0.00095958754
0.000207573
0.00054533462
0.0011781641
0.00019095612
0.00062777776
0.0012326668
0.00016175331
0.00064362954
0.0011375928
0.00060032448
0.00096264653
0.00013197674
8.1899941e-06
9.7522774e-06
3.3504307e-05
3.3980451e-05
4.5991218e-05
0.00014472656
7.921407e-05
0.00011980337
0.0003413293
0.00013708945
0.00024300374
0.0006181274
0.00018710856
0.00040350793
0.00091429702
0.0002080154
0.000557016
0.0011270322
0.00019853334
0.00065743745
0.0011838268
0.0001748631
0.00068707986
0.0010956426
0.00064897488
0.00092801345
0.000148649
7.1901984e-06
8.8312241e-06
3.1331071e-05
2.9995676e-05
4.1949903e-05
0.00013550645
7.0306372e-05
0.00011051417
0.00032013802
0.00012319593
0.00022773366
0.0005812984
0.00017142925
0.00038601684
0.00086308024
0.00019577928
0.0005456954
0.0010688574
0.00019338328
0.00065873603
0.0011275799
0.00017716105
0.00070102832
0.0010466435
0.00067057881
0.00088700773
0.00015730965
5.9835077e-06
7.8081269e-06
2.8873685e-05
2.5065426e-05
3.7324814e-05
0.00012506239
5.9310064e-05
9.9252515e-05
0.00029610707
0.00010555211
0.0002073459
0.00053948438
0.00015006655
0.00035785019
0.00080473121
0.00017641482
0.00051636736
0.0010020142
0.00018100352
0.00063564116
0.0010621914
0.00017362345
0.00068758382
0.0009888924
0.00066580403
0.0008380169
0.00016241662
4.8662735e-06
6.6652794e-06
2.6134026e-05
2.054242e-05
3.2116556e-05
0.00011341418
4.9240914e-05
8.6293867e-05
0.00026927361
8.9393158e-05
0.00018285586
0.00049268502
0.00013049724
0.00032127235
0.00073912045
0.00015862334
0.00047259437
0.00092622138
0.00016973331
0.00059213818
0.00098722739
0.00017118571
0.00064991694
0.00092168809
0.00063661814
0.00077997725
0.00016932193
3.7582089e-06
5.5083065e-06
2.3084812e-05
1.6078409e-05
2.6710096e-05
0.00010047038
3.9382214e-05
7.2421356e-05
0.00023944662
7.376264e-05
0.00015555136
0.00044052257
0.00011195256
0.00027817598
0.00066554317
0.00014238229
0.00041689368
0.00084038701
0.00016050703
0.000530991
0.00090126176
0.00017161989
0.00059020564
0.00084339183
0.00058435238
0.00071112853
0.00018043086
2.8146508e-06
4.3170258e-06
1.9853237e-05
1.2322285e-05
2.1057789e-05
8.6673516e-05
3.1060978e-05
5.7765757e-05
0.00020741129
6.0380229e-05
0.00012620165
0.0003838909
9.6035366e-05
0.00023024055
0.00058447458
0.00012912235
0.00035171661
0.00074403482
0.00015506176
0.00045474366
0.0008026951
0.00017706611
0.0005107648
0.00075159559
0.00051088312
0.00062874964
0.00019811577
2.1203876e-06
1.6510717e-05
3.0269016e-06
9.3248856e-06
7.2359264e-05
1.5261591e-05
2.4006472e-05
0.00017394119
4.2952066e-05
4.864508e-05
0.0003239378
9.61017e-05
8.2015127e-05
0.00049682791
0.00017955849
0.00011818095
0.00063680236
0.00028006411
0.00015286838
0.0006891955
0.00036723571
0.00018729668
0.00064249334
0.00041596522
0.00052930109
0.00042188604
0.00022118916
1.4811767e-07
-1.7019569e-06
1.6535264e-05
1.529285e-06
1.2353825e-06
-8.4029329e-06
7.2169548e-05
7.5054501e-06
3.9886505e-06
-2.3430341e-05
0.00017397526
2.0643268e-05
8.4531841e-06
-5.2378771e-05
0.00032639647
4.5456075e-05
1.4692396e-05
-9.8781723e-05
0.0005043425
8.5028406e-05
2.3824699e-05
-0.00015694746
0.0006491369
0.00013548077
3.844807e-05
-0.00020921648
0.00070123096
0.00018255769
6.043108e-05
-0.00023791592
0.00064812302
0.00021030424
-0.0002364786
0.00052740831
0.00021172733
8.7074992e-05
1.7732742e-07
-1.8139565e-06
1.9787892e-05
1.5845263e-06
-9.1563597e-06
8.601962e-05
4.9934308e-06
-2.5983125e-05
0.00020655488
9.803078e-06
-5.8827736e-05
0.00038552985
1.4982787e-05
-0.00011142739
0.00059194003
2.0688344e-05
-0.00017581508
0.00075719588
2.939417e-05
-0.00023079365
0.00081556618
4.3710439e-05
-0.00025758207
0.00075694482
-0.00025242371
0.00062495711
6.3448472e-05
2.744175e-07
-1.9055103e-06
2.2902e-05
2.1703343e-06
-9.8151422e-06
9.9233468e-05
6.5388473e-06
-2.8335159e-05
0.0002374307
1.2275778e-05
-6.4890877e-05
0.00044084957
1.725275e-05
-0.00012300796
0.00067214744
2.0518106e-05
-0.00019184179
0.00085314998
2.4255222e-05
-0.00024671037
0.00091344233
3.2100679e-05
-0.0002690859
0.00084705053
-0.00025909215
0.00070455626
4.5342051e-05
4.2553368e-07
-1.9939104e-06
2.5796865e-05
3.0162364e-06
-1.0438617e-05
0.00011144699
8.7181581e-06
-3.05246e-05
0.00026576166
1.5849835e-05
-7.0397921e-05
0.00049106117
2.1117221e-05
-0.00013297359
0.00074381825
2.2525934e-05
-0.00020416231
0.00093713368
2.2177512e-05
-0.00025625135
0.00099711703
2.478704e-05
-0.00027237738
0.0009223704
-0.00025701454
0.00076996707
3.2720877e-05
5.9436861e-07
-2.0599979e-06
2.8345413e-05
3.9526789e-06
-1.094744e-05
0.0001222128
1.1163307e-05
-3.2354534e-05
0.00029072636
2.0012024e-05
-7.4927525e-05
0.00053516579
2.6009771e-05
-0.0001405661
0.00080632763
2.6016077e-05
-0.0002117389
0.0010095849
2.2289224e-05
-0.00025871099
0.0010683792
2.059303e-05
-0.00026746405
0.0009856759
-0.00024699331
0.00082422269
2.4366683e-05
8.4344819e-07
-2.1453551e-06
3.0573102e-05
5.1697989e-06
-1.1376613e-05
0.00013160962
1.4243155e-05
-3.375535e-05
0.00031246591
2.5289257e-05
-7.8092151e-05
0.00057341629
3.2451855e-05
-0.00014483825
0.0008601903
3.134365e-05
-0.00021323982
0.0010714672
2.4437635e-05
-0.00025290771
0.001128684
1.8719937e-05
-0.00025385395
0.0010387517
-0.00022959168
0.00086919561
1.9130818e-05
1.1186857e-06
-2.2276898e-06
3.2467925e-05
6.4936439e-06
-1.159795e-05
0.00013957314
1.7226266e-05
-3.3980681e-05
0.00033082292
3.0087508e-05
-7.8401735e-05
0.00060557629
3.8052156e-05
-0.00014372642
0.00090522111
3.5605784e-05
-0.00020657535
0.0011228146
2.5669961e-05
-0.00023749863
0.0011783549
1.6782251e-05
-0.00023155288
0.0010822302
-0.00020553877
0.00090581628
1.4927027e-05
1.3132691e-06
-2.178068e-06
3.4012609e-05
7.5384828e-06
-1.118577e-05
0.00014608335
1.9927978e-05
-3.2412725e-05
0.00034589317
3.3897253e-05
-7.3873063e-05
0.00063208669
4.1907814e-05
-0.00013457209
0.00094242397
3.770791e-05
-0.00018934362
0.0011651333
2.5056345e-05
-0.00021122348
0.0012190446
1.3910378e-05
-0.00020043745
0.0011176245
-0.0001755412
0.00093541075
1.1149102e-05
1.3767959e-06
-1.817986e-06
3.5218262e-05
7.9900369e-06
-9.4477381e-06
0.000151188
2.1232208e-05
-2.7592703e-05
0.00035777363
3.6281162e-05
-6.3194507e-05
0.00065324997
4.3891483e-05
-0.00011508383
0.00097244132
3.7670291e-05
-0.00015944633
0.0011993889
2.2792896e-05
-0.00017313608
0.001251814
1.0968773e-05
-0.00016094426
0.0011458748
-0.00014063523
0.00095876487
9.2700137e-06
1.5827286e-06
-1.2623625e-06
3.6103552e-05
9.0792259e-06
-6.7444869e-06
0.00015495764
2.4092148e-05
-2.0027941e-05
0.00036658867
4.0868285e-05
-4.6059061e-05
0.00066900323
4.7117201e-05
-8.3153733e-05
0.00099525957
3.8525718e-05
-0.0001154886
0.0012257241
2.2402452e-05
-0.00012349504
0.0012769146
1.3155683e-05
-0.00011553206
0.0011671941
-0.00010249714
0.00097599955
1.5126376e-05
1.8850061e-06
-6.4612539e-07
3.6733177e-05
1.0512531e-05
-3.5161233e-06
0.00015757038
2.7685033e-05
-1.0560077e-05
0.00037256346
4.7372972e-05
-2.4373893e-05
0.00067946057
5.650467e-05
-4.3664603e-05
0.0010100355
4.6703048e-05
-5.9556871e-05
0.0012430404
3.1203447e-05
-6.5102704e-05
0.0012933731
2.2399182e-05
-6.2390069e-05
0.0011806669
-5.4141239e-05
0.00098650855
2.1086443e-05
2.0664806e-06
1.8342429e-11
3.7001882e-05
1.1377748e-05
6.6813681e-11
0.00015874924
2.9851275e-05
1.8796864e-10
0.00037538714
5.1249725e-05
3.8179413e-10
0.00068458991
6.2404044e-05
7.0977413e-10
0.0010174214
5.5727312e-05
1.1181167e-09
0.0012515094
3.9461707e-05
1.2993347e-09
0.00130138
2.6453312e-05
1.1541497e-09
0.0011872843
7.0017332e-10
0.00099176388
2.3529296e-05
2.0664048e-06
6.4616353e-07
3.7001878e-05
1.1377692e-05
3.51628e-06
0.00015874923
2.9851234e-05
1.0560503e-05
0.0003753871
5.1249754e-05
2.437474e-05
0.00068458984
6.2403997e-05
4.3666183e-05
0.0010174213
5.572716e-05
5.9559327e-05
0.0012515093
3.9461574e-05
6.5105516e-05
0.0013013799
2.645314e-05
6.2392494e-05
0.0011872842
5.4142599e-05
0.00099176385
2.352919e-05
1.8849284e-06
1.2623922e-06
3.6733179e-05
1.0512507e-05
6.7446512e-06
0.00015757039
2.7684893e-05
2.0028401e-05
0.00037256348
4.7373058e-05
4.6060038e-05
0.0006794606
5.6504545e-05
8.3155661e-05
0.0010100355
4.6702638e-05
0.0001154915
0.0012430404
3.1202942e-05
0.00012349833
0.0012933731
2.239858e-05
0.00011553466
0.0011806669
0.00010249838
0.0009865085
2.1086028e-05
1.5828622e-06
1.8179862e-06
3.6103545e-05
9.0794099e-06
9.447836e-06
0.00015495762
2.4091916e-05
2.7593086e-05
0.00036658861
4.0868415e-05
6.3195555e-05
0.00066900314
4.7116997e-05
0.00011508597
0.00099525937
3.8525135e-05
0.0001594494
0.0012257238
2.2401563e-05
0.00017313966
0.0012769144
1.3154424e-05
0.00016094713
0.0011671939
0.00014063636
0.0009759995
1.5125409e-05
1.3771261e-06
2.1781053e-06
3.5218258e-05
7.9904631e-06
1.1185962e-05
0.00015118799
2.1232089e-05
3.2413253e-05
0.00035777358
3.6281289e-05
7.3874279e-05
0.00065324989
4.3891031e-05
0.00013457414
0.00097244112
3.7669512e-05
0.00018934639
0.0011993886
2.2791804e-05
0.00021122678
0.0012518138
1.096766e-05
0.00020044009
0.0011458745
0.00017554221
0.00095876482
9.2693576e-06
1.3135344e-06
2.2277762e-06
3.4012609e-05
7.5388198e-06
1.1598225e-05
0.00014608335
1.9927782e-05
3.3981252e-05
0.00034589315
3.3897019e-05
7.8402778e-05
0.00063208661
4.1907072e-05
0.00014372804
0.00094242385
3.7707159e-05
0.0002065778
0.001165133
2.5055249e-05
0.00023750172
0.0012190443
1.3909334e-05
0.00023155533
0.0011176243
0.00020553941
0.00093541069
1.1148604e-05
1.1187881e-06
2.1453894e-06
3.2467927e-05
6.4937406e-06
1.1376745e-05
0.00013957314
1.7225816e-05
3.3755654e-05
0.0003308229
3.0087147e-05
7.8092836e-05
0.00060557625
3.805168e-05
0.00014483983
0.00090522113
3.560542e-05
0.00021324246
0.0011228145
2.5669114e-05
0.00025291093
0.0011783547
1.6781418e-05
0.00025385623
0.00108223
0.00022959165
0.00090581616
1.4926385e-05
8.4336455e-07
2.0599904e-06
3.0573111e-05
5.1695095e-06
1.0947486e-05
0.00013160965
1.4242679e-05
3.2354814e-05
0.00031246597
2.5289596e-05
7.4928523e-05
0.00057341637
3.2451969e-05
0.00014056797
0.00086019047
3.1343725e-05
0.00021174148
0.0010714674
2.4437127e-05
0.00025871385
0.0011286841
1.871933e-05
0.00026746584
0.0010387516
0.00024699277
0.00086919543
1.9129934e-05
5.9433713e-07
1.9939431e-06
2.8345416e-05
3.9527849e-06
1.0438793e-05
0.0001222128
1.1163717e-05
3.0525086e-05
0.00029072635
2.0012684e-05
7.0398992e-05
0.00053516575
2.6009976e-05
0.00013297513
0.00080632759
2.6016588e-05
0.00020416476
0.0010095849
2.2289169e-05
0.00025625379
0.001068379
2.0592658e-05
0.00027237887
0.00098567565
0.00025701474
0.00082422249
2.4365347e-05
4.2563451e-07
1.9055369e-06
2.5796864e-05
3.0165605e-06
9.8152957e-06
0.00011144698
8.7184574e-06
2.833558e-05
0.00026576162
1.584997e-05
6.4891811e-05
0.00049106107
2.111799e-05
0.00012300961
0.00074381813
2.2526699e-05
0.00019184397
0.00093713352
2.2178063e-05
0.00024671286
0.00099711682
2.4787416e-05
0.0002690874
0.00092237012
0.00025909255
0.00076996695
3.2720067e-05
2.7444839e-07
1.8139834e-06
2.2901998e-05
2.170453e-06
9.1565006e-06
9.9233453e-05
6.5389524e-06
2.5983497e-05
0.00023743065
1.2275894e-05
5.8828502e-05
0.00044084944
1.7253388e-05
0.00011142873
0.00067214719
2.051863e-05
0.00017581684
0.0008531497
2.4255747e-05
0.00023079592
0.00091344213
3.2101376e-05
0.00025758418
0.00084705034
0.00025242523
0.00070455613
4.5341635e-05
1.7735047e-07
1.7020054e-06
1.9787893e-05
1.5846041e-06
8.4031461e-06
8.6019623e-05
4.9934741e-06
2.3430842e-05
0.00020655488
9.8030733e-06
5.23797e-05
0.00038552982
1.4982997e-05
9.8783273e-05
0.00059193997
2.0688832e-05
0.00015694957
0.00075719582
2.9394276e-05
0.00020921869
0.00081556611
4.371098e-05
0.00023791856
0.00075694468
0.0002364813
0.00062495702
6.3448701e-05
1.4813906e-07
1.6535268e-05
1.5293604e-06
1.235429e-06
7.2169561e-05
7.5057547e-06
3.9886353e-06
0.00017397528
2.064396e-05
8.4532869e-06
0.0003263965
4.5457288e-05
1.4692697e-05
0.00050434253
8.5030055e-05
2.382469e-05
0.00064913689
0.00013548236
3.8448906e-05
0.00070123098
0.00018255908
6.0432157e-05
0.00064812294
0.00021030474
0.00052740825
0.00021172694
8.7076602e-05
1.6865938e-07
-9.9332788e-07
1.6669054e-05
6.908768e-07
7.3225656e-07
-4.6472052e-06
7.2928224e-05
3.324974e-06
2.3049476e-06
-1.2357602e-05
0.00017571397
9.0463662e-06
6.4651292e-06
-2.6545337e-05
0.00032892974
1.9852158e-05
1.4924654e-05
-4.8836514e-05
0.0005073914
3.7328321e-05
2.7697112e-05
-7.6995433e-05
0.0006531533
6.0206629e-05
4.2197281e-05
-0.00010269566
0.00070722719
8.2199296e-05
5.5118835e-05
-0.00011635782
0.00065628112
9.5278718e-05
-0.00011419572
0.00053637222
9.6062761e-05
6.4287728e-05
1.6230654e-07
-1.246509e-06
1.9878758e-05
7.1750259e-07
-5.8049817e-06
8.662214e-05
2.3910767e-06
-1.5312261e-05
0.00020783581
6.9955635e-06
-3.2520332e-05
0.00038690011
1.6262764e-05
-5.8986585e-05
0.00059282252
2.9582885e-05
-9.1321313e-05
0.00075820104
4.3424489e-05
-0.00011921621
0.0008182451
5.4078029e-05
-0.00013225945
0.00076219241
-0.00012756747
0.00063212826
6.0278773e-05
1.6263246e-07
-1.4383317e-06
2.2931222e-05
6.898824e-07
-6.6908789e-06
9.9592216e-05
2.3951199e-06
-1.7618731e-05
0.00023803212
7.3628534e-06
-3.7279747e-05
0.00044064144
1.736605e-05
-6.7080724e-05
0.00067023848
3.1218383e-05
-0.00010234177
0.00085031892
4.4627361e-05
-0.00013097712
0.00091179474
5.3722967e-05
-0.00014247674
0.00084817221
-0.00013548145
0.00070858758
5.7605917e-05
1.7629615e-07
-1.568697e-06
2.5750936e-05
7.3747286e-07
-7.2984491e-06
0.00011149346
2.5904418e-06
-1.9219882e-05
0.00026551013
8.0358436e-06
-4.0629701e-05
0.00048896601
1.8822896e-05
-7.2742484e-05
0.00073869252
3.323368e-05
-0.00010958676
0.00092996813
4.6414662e-05
-0.0001376493