/*--------------------------------*- C++ -*----------------------------------*\
| =========                 |                                                 |
| \\      /  F ield         | OpenFOAM: The Open Source CFD Toolbox           |
|  \\    /   O peration     | Version:  2406                                  |
|   \\  /    A nd           | Website:  www.openfoam.com                      |
|    \\/     M anipulation  |                                                 |
\*---------------------------------------------------------------------------*/
FoamFile
{
    version     2.0;
    format      ascii;
    arch        "LSB;label=32;scalar=64";
    class       volVectorField;
    location    "14";
    object      U;
}
// * * * * * * * * * * * * * * * * * * * * * * * * * * * * * * * * * * * * * //

dimensions      [0 1 -1 0 0 0 0];

internalField   nonuniform List<vector> 
34560
(
(0.083825446 -0.0074508525 -0.019817215)
(0.25789967 -0.022623958 -0.061393752)
(0.4525266 -0.042556082 -0.10490602)
(0.64439528 -0.067489595 -0.1426425)
(0.80050862 -0.095340788 -0.16593156)
(0.89191088 -0.12241078 -0.16904056)
(0.9155164 -0.14543955 -0.15502863)
(0.89749213 -0.16170344 -0.13361201)
(0.8672793 -0.16944426 -0.11514643)
(0.095901778 -0.0086351745 -0.022035271)
(0.29066218 -0.025322694 -0.067670181)
(0.50199329 -0.046165839 -0.11369573)
(0.70135253 -0.071022069 -0.15092437)
(0.85184014 -0.097344497 -0.17025976)
(0.9266901 -0.12141516 -0.16740254)
(0.93190992 -0.1404509 -0.14759884)
(0.90198276 -0.15239415 -0.1228351)
(0.86878481 -0.15654022 -0.10226953)
(0.10829327 -0.009169366 -0.023313034)
(0.32402115 -0.026358395 -0.071392442)
(0.55217162 -0.04723229 -0.11860014)
(0.75945562 -0.071307766 -0.15481127)
(0.90590431 -0.095627653 -0.17096881)
(0.96749603 -0.11654974 -0.16398403)
(0.95839604 -0.13206892 -0.14068609)
(0.92052467 -0.14038259 -0.11378197)
(0.88725652 -0.14160535 -0.092060143)
(0.12087305 -0.0096418482 -0.024442844)
(0.35764571 -0.027162216 -0.07463369)
(0.60267263 -0.047698566 -0.1226511)
(0.81846086 -0.070403846 -0.15756129)
(0.96250947 -0.091992574 -0.17057069)
(1.0138631 -0.10918837 -0.15989141)
(0.99344336 -0.12063605 -0.13359193)
(0.94971606 -0.12535166 -0.10501357)
(0.9164167 -0.1238622 -0.082426564)
(0.13322725 -0.0097255274 -0.025236452)
(0.39072303 -0.027039299 -0.077008249)
(0.65278717 -0.046823951 -0.12549217)
(0.87824336 -0.067846775 -0.15907148)
(1.0221724 -0.086429936 -0.16919699)
(1.0660646 -0.099604332 -0.15514874)
(1.0367051 -0.1067336 -0.12600351)
(0.98830328 -0.10793999 -0.095734626)
(0.95477154 -0.10430638 -0.072155986)
(0.14532874 -0.0096249667 -0.02570855)
(0.42329905 -0.02655332 -0.078504402)
(0.70280705 -0.045402128 -0.12709278)
(0.93947276 -0.064511632 -0.15926096)
(1.0858173 -0.079842025 -0.16660718)
(1.1247665 -0.088742296 -0.14924669)
(1.0883789 -0.091418473 -0.11716637)
(1.0362379 -0.089352464 -0.085080886)
(1.0024523 -0.084134243 -0.060437936)
(0.1571108 -0.0092966602 -0.026002234)
(0.45538372 -0.025547445 -0.079450662)
(0.75304163 -0.043254109 -0.12775579)
(1.0028624 -0.060323962 -0.15815182)
(1.1544069 -0.072367057 -0.16233606)
(1.1906917 -0.077009186 -0.14121846)
(1.1489884 -0.075397582 -0.10589646)
(1.0940387 -0.070488212 -0.071952855)
(1.0601512 -0.064242933 -0.046428513)
(0.16829022 -0.0086663687 -0.026088535)
(0.4864637 -0.023839725 -0.079762858)
(0.80307185 -0.040133394 -0.12729348)
(1.0682754 -0.0550746 -0.15533314)
(1.228002 -0.064001147 -0.15561115)
(1.2637862 -0.064744023 -0.1299515)
(1.2185503 -0.059433212 -0.091093031)
(1.1617723 -0.052347956 -0.055515552)
(1.1280772 -0.045688976 -0.029631763)
(0.17856699 -0.0076438638 -0.025983181)
(0.51577694 -0.021133175 -0.079439424)
(0.85174423 -0.035510017 -0.12558616)
(1.134132 -0.048098689 -0.15044417)
(1.3044994 -0.054241218 -0.14581564)
(1.3417838 -0.051946165 -0.11472311)
(1.2949289 -0.044168253 -0.07234385)
(1.2376332 -0.035959283 -0.03569362)
(1.2041808 -0.029567919 -0.010359731)
(0.18742443 -0.0061452214 -0.025726327)
(0.54170103 -0.017103818 -0.078576426)
(0.89601674 -0.028721659 -0.12280847)
(1.195752 -0.038475102 -0.1437947)
(1.3776185 -0.042273522 -0.13354374)
(1.4185007 -0.038407843 -0.096508083)
(1.3716814 -0.030044031 -0.051050968)
(1.3154173 -0.022218252 -0.014142833)
(1.2820909 -0.016853872 0.0097339799)
(0.19425443 -0.0040858766 -0.025456864)
(0.56195244 -0.011419954 -0.077591113)
(0.93110974 -0.019138311 -0.11982719)
(1.245293 -0.025394789 -0.13700964)
(1.4370236 -0.027304216 -0.12142943)
(1.4822123 -0.023746891 -0.079035392)
(1.4372068 -0.017223973 -0.031316126)
(1.3828756 -0.011535194 0.0052298046)
(1.3493355 -0.0079701798 0.027239093)
(0.19780559 -0.0013902154 -0.025262688)
(0.57277367 -0.0038925258 -0.076907138)
(0.95031972 -0.0065600523 -0.11788877)
(1.2730048 -0.0087286057 -0.13270465)
(1.4709469 -0.00933144 -0.11377119)
(1.5189026 -0.0079404713 -0.068189784)
(1.4758966 -0.0055047927 -0.019226032)
(1.4229268 -0.003455086 0.016872988)
(1.3889025 -0.0022318618 0.037560898)
(0.19780559 0.0013901496 -0.025262688)
(0.57277366 0.0038923485 -0.076907137)
(0.95031964 0.0065597354 -0.11788875)
(1.2730047 0.0087280742 -0.13270465)
(1.4709468 0.0093307633 -0.11377121)
(1.5189024 0.0079396477 -0.068189783)
(1.4758963 0.0055038562 -0.019226018)
(1.4229265 0.0034540347 0.016873023)
(1.3889023 0.0022306996 0.037560937)
(0.19425442 0.0040858261 -0.025456864)
(0.56195239 0.01141979 -0.077591099)
(0.93110954 0.019138003 -0.11982713)
(1.2452928 0.025394312 -0.13700966)
(1.4370232 0.027303623 -0.12142948)
(1.4822117 0.023746172 -0.079035374)
(1.4372062 0.017223154 -0.031316075)
(1.3828749 0.011534243 0.0052299104)
(1.3493349 0.0079691097 0.02723921)
(0.1874244 0.0061451777 -0.025726324)
(0.54170092 0.017103663 -0.078576412)
(0.89601649 0.02872139 -0.12280842)
(1.1957517 0.038474715 -0.14379472)
(1.3776179 0.042273031 -0.13354375)
(1.4184999 0.038407267 -0.096507998)
(1.3716804 0.03004338 -0.051050842)
(1.3154164 0.022217464 -0.014142635)
(1.28209 0.016852962 0.0097341761)
(0.17856696 0.0076438292 -0.025983176)
(0.51577685 0.021133039 -0.079439452)
(0.85174405 0.035509797 -0.12558615)
(1.1341317 0.048098368 -0.15044414)
(1.3044986 0.054240777 -0.14581554)
(1.3417828 0.051945688 -0.11472292)
(1.2949278 0.044167723 -0.072343612)
(1.2376321 0.035958641 -0.035693297)
(1.2041797 0.029567174 -0.010359466)
(0.1682902 0.0086663293 -0.026088525)
(0.48646362 0.023839587 -0.07976285)
(0.80307165 0.040133178 -0.12729339)
(1.0682749 0.055074302 -0.15533298)
(1.2280012 0.064000727 -0.15561096)
(1.2637852 0.064743602 -0.12995125)
(1.2185491 0.059432732 -0.091092682)
(1.1617711 0.052347405 -0.055515124)
(1.1280761 0.045688344 -0.029631425)
(0.15711076 0.0092966148 -0.026002218)
(0.45538358 0.025547296 -0.079450692)
(0.75304137 0.0432539 -0.12775578)
(1.0028619 0.060323714 -0.15815172)
(1.1544063 0.07236671 -0.16233591)
(1.1906908 0.077008827 -0.14121821)
(1.1489872 0.075397156 -0.10589605)
(1.0940376 0.070487749 -0.071952379)
(1.0601501 0.064242349 -0.046428096)
(0.14532875 0.0096249261 -0.025708518)
(0.42329906 0.026553199 -0.078504404)
(0.70280696 0.045401927 -0.12709277)
(0.93947241 0.064511393 -0.15926078)
(1.0858169 0.079841694 -0.16660696)
(1.1247659 0.088741931 -0.14924642)
(1.0883781 0.091418129 -0.117166)
(1.0362371 0.089352115 -0.085080404)
(1.0024514 0.084133685 -0.060437396)
(0.13322723 0.009725479 -0.025236434)
(0.39072294 0.027039186 -0.077008198)
(0.65278693 0.046823734 -0.12549208)
(0.87824292 0.067846495 -0.1590713)
(1.0221719 0.086429594 -0.16919686)
(1.0660641 0.099603905 -0.15514863)
(1.0367045 0.10673321 -0.12600328)
(0.98830259 0.10793961 -0.095734106)
(0.95477066 0.10430594 -0.072155297)
(0.12087305 0.0096418384 -0.024442822)
(0.35764571 0.027162186 -0.074633662)
(0.60267259 0.047698436 -0.12265113)
(0.81846073 0.07040363 -0.1575613)
(0.96250928 0.091992325 -0.17057066)
(1.013863 0.10918799 -0.15989134)
(0.99344302 0.12063549 -0.1335917)
(0.94971541 0.12535107 -0.10501308)
(0.91641606 0.12386187 -0.082425928)
(0.10829328 0.009169338 -0.023313007)
(0.32402118 0.026358357 -0.071392382)
(0.55217167 0.047232181 -0.11860012)
(0.75945565 0.071307554 -0.15481127)
(0.90590425 0.095627344 -0.17096875)
(0.96749583 0.1165493 -0.16398383)
(0.95839597 0.13206822 -0.14068582)
(0.92052422 0.14038181 -0.11378172)
(0.88725579 0.14160493 -0.092059836)
(0.095901788 0.0086351539 -0.022035256)
(0.2906622 0.025322678 -0.067670135)
(0.50199329 0.046165789 -0.11369569)
(0.70135246 0.071021942 -0.15092434)
(0.85183996 0.097344261 -0.17025966)
(0.92668978 0.12141483 -0.16740229)
(0.93190974 0.14045034 -0.14759871)
(0.9019824 0.15239328 -0.12283526)
(0.86878421 0.15653914 -0.10226908)
(0.083825455 0.0074508762 -0.019817238)
(0.25789969 0.022624026 -0.061393812)
(0.45252661 0.042556165 -0.10490613)
(0.64439528 0.067489671 -0.14264264)
(0.80050862 0.095340802 -0.16593172)
(0.89191092 0.12241069 -0.16904067)
(0.91551635 0.14543929 -0.15502876)
(0.89749156 0.16170298 -0.13361209)
(0.86727902 0.16944396 -0.11514664)
(0.10945048 -0.0023008591 -0.0022504269)
(0.3466374 -0.0080456983 -0.0080553138)
(0.62546189 -0.016195997 -0.016588162)
(0.91760603 -0.027058176 -0.028021694)
(1.1787445 -0.040172077 -0.040842834)
(1.3674754 -0.053937001 -0.051678012)
(1.4690286 -0.066698121 -0.057519463)
(1.5010531 -0.077893327 -0.058049439)
(1.4919872 -0.087264993 -0.055823032)
(0.12138011 -0.0031403699 -0.0027483011)
(0.38133068 -0.010728771 -0.00967503)
(0.68140085 -0.021010506 -0.019691869)
(0.98675548 -0.033979566 -0.032768545)
(1.2472431 -0.048651987 -0.046742059)
(1.4213742 -0.062977368 -0.057682906)
(1.5011468 -0.075420603 -0.062745529)
(1.5131127 -0.085808229 -0.062376057)
(1.4905296 -0.093991546 -0.058906956)
(0.13243682 -0.0037345105 -0.0028992335)
(0.41345059 -0.012718768 -0.010296223)
(0.73298111 -0.024670604 -0.021164032)
(1.0500212 -0.039290709 -0.03532636)
(1.3093473 -0.055087603 -0.050103873)
(1.4702224 -0.069617946 -0.061160217)
(1.5314406 -0.081383404 -0.065767201)
(1.5273039 -0.090575902 -0.06486063)
(1.4957708 -0.097163067 -0.060806369)
(0.14272213 -0.0044036323 -0.0030329584)
(0.44316364 -0.014848346 -0.010816983)
(0.78042002 -0.028404702 -0.022409973)
(1.1079319 -0.044425068 -0.037454372)
(1.3662997 -0.060899203 -0.052765126)
(1.5160103 -0.075078892 -0.063705073)
(1.5619853 -0.085662478 -0.067747089)
(1.5446881 -0.09326563 -0.066289165)
(1.5054964 -0.09819258 -0.061840027)
(0.15182277 -0.0050262888 -0.0030682846)
(0.46956866 -0.016829279 -0.011032108)
(0.82276722 -0.031853801 -0.023127384)
(1.1599782 -0.049055264 -0.038839182)
(1.4181824 -0.065854839 -0.054518266)
(1.5589606 -0.079218028 -0.065225266)
(1.5925178 -0.088193602 -0.068597425)
(1.5641801 -0.0939304 -0.066460028)
(1.5181425 -0.097139971 -0.061523283)
(0.1599879 -0.0056181375 -0.0029778278)
(0.49332325 -0.018684916 -0.010838248)
(0.86103034 -0.035020328 -0.023125265)
(1.2074091 -0.05311543 -0.039194143)
(1.4662223 -0.069784159 -0.054967694)
(1.5997999 -0.081784322 -0.065211428)
(1.6229545 -0.088713525 -0.067721643)
(1.5849642 -0.09238949 -0.064760072)
(1.5327226 -0.093933469 -0.059268257)
(0.16746136 -0.0061315196 -0.002788255)
(0.51514047 -0.020268103 -0.010334385)
(0.89640483 -0.037602282 -0.022392965)
(1.2518199 -0.056168279 -0.038352819)
(1.5120813 -0.072147421 -0.053704584)
(1.6396976 -0.082205416 -0.062984339)
(1.6536619 -0.086735085 -0.06432319)
(1.6068886 -0.088295391 -0.060448319)
(1.5490143 -0.088339503 -0.054471575)
(0.17419756 -0.0064107896 -0.0024565447)
(0.53514296 -0.021107449 -0.0093318246)
(0.92943637 -0.038922385 -0.020839011)
(1.2942877 -0.05715368 -0.035745084)
(1.5570921 -0.071771633 -0.049931903)
(1.6797313 -0.079459042 -0.057670443)
(1.6852489 -0.081516891 -0.057570742)
(1.6303152 -0.081179541 -0.052854123)
(1.5673005 -0.07998432 -0.046621608)
(0.18028658 -0.0063226164 -0.0020064266)
(0.55366003 -0.02067952 -0.0078425162)
(0.96094388 -0.037900168 -0.018077169)
(1.3357791 -0.055105115 -0.031739807)
(1.6019588 -0.067203211 -0.043032476)
(1.720236 -0.072281686 -0.048616125)
(1.7177513 -0.072176557 -0.046990298)
(1.6553851 -0.070369626 -0.041606082)
(1.587846 -0.068295228 -0.035445785)
(0.18563779 -0.0055964892 -0.0014316043)
(0.57034803 -0.01812973 -0.0058826657)
(0.99018609 -0.03292063 -0.01408882)
(1.3757874 -0.047296629 -0.024999282)
(1.6455796 -0.05698255 -0.033649622)
(1.7597694 -0.059396922 -0.03598089)
(1.7496323 -0.057788353 -0.033004949)
(1.6810482 -0.055131891 -0.027117581)
(1.6101578 -0.052590332 -0.02101387)
(0.19008875 -0.0039735776 -0.0008450681)
(0.58414078 -0.012745437 -0.0038510862)
(1.0143833 -0.022941616 -0.0098804244)
(1.4092592 -0.032613897 -0.017803383)
(1.6832353 -0.038794313 -0.022890591)
(1.7936538 -0.039890657 -0.02176796)
(1.7769946 -0.037767232 -0.017956103)
(1.7045158 -0.035142855 -0.010875851)
(1.6317392 -0.033146278 -0.007166034)
(0.19230731 -0.001455754 -0.00047826771)
(0.59135085 -0.0046438243 -0.0025658883)
(1.027548 -0.0083139422 -0.007149857)
(1.4281117 -0.011742714 -0.01309365)
(1.7051447 -0.013863821 -0.015853522)
(1.8145656 -0.01413276 -0.012641617)
(1.7944479 -0.013155158 -0.0066526273)
(1.7194463 -0.012050282 -0.0014099122)
(1.6450575 -0.011335825 0.00081711057)
(0.19230731 0.0014557799 -0.00047826933)
(0.59135084 0.0046438923 -0.0025658837)
(1.027548 0.0083140421 -0.0071498559)
(1.4281117 0.011742784 -0.013093668)
(1.7051447 0.013863916 -0.015853559)
(1.8145655 0.014132912 -0.012641639)
(1.7944478 0.013155401 -0.0066526482)
(1.7194462 0.012050599 -0.0014099238)
(1.6450574 0.011336127 0.0008170999)
(0.19008875 0.0039735938 -0.00084507051)
(0.58414076 0.012745486 -0.0038510758)
(1.0143832 0.022941706 -0.0098804197)
(1.4092591 0.03261398 -0.017803431)
(1.6832351 0.038794437 -0.022890687)
(1.7936536 0.039890859 -0.021768011)
(1.7769944 0.037767561 -0.017956156)
(1.7045157 0.035143205 -0.010875876)
(1.631739 0.033146572 -0.0071660598)
(0.18563778 0.0055964899 -0.0014316065)
(0.57034799 0.018129749 -0.0058826903)
(0.99018602 0.032920703 -0.014088836)
(1.3757873 0.047296729 -0.024999347)
(1.6455793 0.056982701 -0.033649733)
(1.7597691 0.05939719 -0.035980924)
(1.749632 0.05778873 -0.033004969)
(1.681048 0.05513227 -0.027117562)
(1.6101576 0.05259064 -0.021013986)
(0.18028658 0.0063226216 -0.0020064285)
(0.55366001 0.020679523 -0.0078426228)
(0.96094385 0.037900221 -0.018077243)
(1.335779 0.05510522 -0.031739873)
(1.6019585 0.067203355 -0.043032549)
(1.7202355 0.072281928 -0.048616109)
(1.7177508 0.072176906 -0.046990249)
(1.6553848 0.070369967 -0.041605971)
(1.5878459 0.068295522 -0.035445726)
(0.17419757 0.0064108164 -0.0024565449)
(0.53514298 0.021107468 -0.0093319386)
(0.92943638 0.038922428 -0.02083907)
(1.2942876 0.057153767 -0.035745089)
(1.5570918 0.071771711 -0.0499319)
(1.6797308 0.079459213 -0.0576704)
(1.6852482 0.081517163 -0.057570653)
(1.6303147 0.081179827 -0.052853967)
(1.5673005 0.07998458 -0.046621528)
(0.16746135 0.0061315405 -0.0027882611)
(0.51514042 0.020268126 -0.010334452)
(0.89640472 0.037602306 -0.022392981)
(1.2518197 0.056168324 -0.038352774)
(1.512081 0.072147476 -0.05370458)
(1.6396972 0.082205557 -0.062984351)
(1.6536613 0.086735302 -0.064323121)
(1.6068882 0.088295613 -0.060448178)
(1.5490141 0.088339668 -0.054471469)
(0.15998789 0.0056181363 -0.002977824)
(0.49332321 0.018684916 -0.010838269)
(0.86103025 0.035020324 -0.023125272)
(1.2074089 0.053115458 -0.039194161)
(1.4662222 0.069784232 -0.05496779)
(1.5997997 0.081784445 -0.065211509)
(1.6229542 0.088713711 -0.06772162)
(1.5849638 0.092389642 -0.064759957)
(1.5327224 0.093933507 -0.059268094)
(0.15182278 0.0050262845 -0.0030682716)
(0.46956866 0.016829274 -0.011032118)
(0.8227672 0.031853792 -0.023127446)
(1.1599782 0.049055289 -0.038839297)
(1.4181823 0.065854903 -0.054518388)
(1.5589606 0.079218124 -0.065225397)
(1.5925175 0.088193706 -0.068597479)
(1.5641797 0.093930446 -0.066459943)
(1.5181422 0.09713998 -0.061523135)
(0.14272214 0.0044036375 -0.0030329578)
(0.44316364 0.014848371 -0.010817012)
(0.78042001 0.028404725 -0.022410085)
(1.1079319 0.044425102 -0.037454506)
(1.3662997 0.060899253 -0.052765281)
(1.5160104 0.075078968 -0.063705281)
(1.5619852 0.085662504 -0.067747212)
(1.5446877 0.093265547 -0.066289227)
(1.505496 0.098192501 -0.061839977)
(0.13243683 0.0037345203 -0.0028992367)
(0.41345064 0.012718827 -0.010296236)
(0.73298119 0.02467067 -0.021164118)
(1.0500212 0.039290752 -0.035326481)
(1.3093473 0.055087614 -0.050104054)
(1.4702224 0.069617932 -0.061160425)
(1.5314406 0.081383356 -0.065767394)
(1.5273037 0.090575818 -0.064860882)
(1.4957704 0.097162876 -0.060806422)
(0.12138013 0.0031403805 -0.0027483141)
(0.38133074 0.010728829 -0.0096750725)
(0.68140093 0.02101059 -0.019691972)
(0.98675558 0.033979639 -0.032768676)
(1.2472432 0.04865199 -0.046742253)
(1.4213743 0.062977299 -0.057683189)
(1.5011468 0.075420437 -0.062745928)
(1.5131125 0.085808084 -0.062376505)
(1.4905291 0.093991268 -0.058907119)
(0.1094505 0.0023008843 -0.0022504526)
(0.34663743 0.008045773 -0.0080553973)
(0.62546193 0.016196113 -0.016588309)
(0.91760605 0.027058315 -0.028021881)
(1.1787445 0.040172155 -0.040843131)
(1.3674755 0.053937014 -0.051678409)
(1.4690286 0.066698068 -0.057520082)
(1.5010526 0.077893308 -0.058050193)
(1.4919867 0.087264969 -0.055823406)
(0.090299604 -0.001042119 -0.00095382122)
(0.28884444 -0.0036679066 -0.003363712)
(0.52798108 -0.0075390521 -0.0067599413)
(0.78738695 -0.012972742 -0.011163042)
(1.0286787 -0.02012946 -0.015959148)
(1.2070365 -0.028431978 -0.019945885)
(1.2963048 -0.036444688 -0.021999421)
(1.3074955 -0.042766103 -0.022208813)
(1.2726268 -0.046511902 -0.021603732)
(0.098573653 -0.0011521837 -0.00094279616)
(0.31332868 -0.0040715133 -0.0033649898)
(0.56841743 -0.0083747497 -0.0068724501)
(0.83861117 -0.01437138 -0.011495718)
(1.0794711 -0.022071973 -0.016427978)
(1.2433786 -0.030534672 -0.020192877)
(1.3089435 -0.038080988 -0.021613051)
(1.2967475 -0.04345361 -0.021094058)
(1.2466898 -0.046345613 -0.0199106)
(0.10619462 -0.0011632192 -0.00083875729)
(0.33600783 -0.0042116099 -0.0031036373)
(0.60602088 -0.0088070399 -0.0065679338)
(0.88630431 -0.015257689 -0.011300029)
(1.126756 -0.023379946 -0.016335199)
(1.277607 -0.031831413 -0.0199293)
(1.3225768 -0.038712213 -0.0208357)
(1.2914128 -0.043018139 -0.019686383)
(1.2312789 -0.045004902 -0.018076746)
(0.11317993 -0.0012077151 -0.00077084511)
(0.35677991 -0.0044337245 -0.0029316763)
(0.64046227 -0.0093487548 -0.0063922228)
(0.9300532 -0.016237876 -0.011235478)
(1.170474 -0.024673343 -0.016324432)
(1.3104141 -0.032898499 -0.019679374)
(1.3384889 -0.038867062 -0.020034136)
(1.2922708 -0.041932164 -0.018284553)
(1.2243291 -0.042916493 -0.016274263)
(0.11916872 -0.0012403557 -0.00070163171)
(0.37475773 -0.0046236276 -0.0027506819)
(0.67056311 -0.0098403564 -0.0061946841)
(0.96873004 -0.01713533 -0.011127868)
(1.2098187 -0.025780377 -0.016242213)
(1.3412586 -0.033584342 -0.01933409)
(1.3559858 -0.038458968 -0.01913327)
(1.297989 -0.040233877 -0.016814721)
(1.223854 -0.04020481 -0.014441982)
(0.12435622 -0.0012844189 -0.00063001256)
(0.39039929 -0.0048227013 -0.002549797)
(0.69690395 -0.0103005 -0.005931585)
(1.0028739 -0.017910191 -0.010877056)
(1.2451164 -0.026593492 -0.015935556)
(1.3700103 -0.033748537 -0.018704051)
(1.3742594 -0.037379363 -0.017942382)
(1.307084 -0.037863756 -0.015092098)
(1.227985 -0.036966895 -0.012439527)
(0.12890429 -0.0013438058 -0.00057341968)
(0.40412357 -0.0049964443 -0.0023254203)
(0.72011106 -0.010654276 -0.0056377336)
(1.0332163 -0.018390862 -0.010448035)
(1.27701 -0.026861148 -0.015265197)
(1.3968865 -0.033148622 -0.017588109)
(1.3928005 -0.035457246 -0.016251001)
(1.318353 -0.034765032 -0.012950593)
(1.2352515 -0.033197746 -0.010147416)
(0.13268402 -0.0013712825 -0.00050713898)
(0.41565669 -0.0049998253 -0.0020573947)
(0.73999363 -0.010516111 -0.0049979194)
(1.0598805 -0.018188152 -0.0097542253)
(1.3059042 -0.026130072 -0.014098983)
(1.4221957 -0.031367737 -0.015792605)
(1.4113964 -0.032417811 -0.013904499)
(1.3309834 -0.030803063 -0.010316375)
(1.2444749 -0.028847623 -0.0076045488)
(0.13567795 -0.0012536639 -0.00039280749)
(0.42489836 -0.0045573485 -0.0016714534)
(0.75615298 -0.0095223616 -0.0042265741)
(1.0824906 -0.016273599 -0.0080886549)
(1.3316101 -0.023713379 -0.012574846)
(1.4457187 -0.027874539 -0.013487824)
(1.4295233 -0.027913152 -0.011062855)
(1.3440484 -0.025803391 -0.0074693635)
(1.2544156 -0.023841305 -0.0052572254)
(0.13792766 -0.00096315771 -0.00027267698)
(0.43191212 -0.0035889546 -0.0012756125)
(0.76851724 -0.007632798 -0.0035856801)
(1.0998391 -0.013122776 -0.0072156863)
(1.3526552 -0.018703042 -0.01074223)
(1.466112 -0.022092305 -0.011479516)
(1.4458364 -0.02166766 -0.0085187642)
(1.3559873 -0.019752717 -0.0054095424)
(1.2632031 -0.018298689 -0.0045828223)
(0.13969763 -0.00059444645 -0.00019082414)
(0.43723141 -0.0022727142 -0.0010120329)
(0.77760943 -0.0049115085 -0.0031660069)
(1.1122069 -0.008508103 -0.006699644)
(1.3669034 -0.012082703 -0.010199772)
(1.48081 -0.013990033 -0.011208497)
(1.4579206 -0.013804978 -0.0076101055)
(1.3640711 -0.012754329 -0.006227401)
(1.2682829 -0.011804678 -0.0048845125)
(0.14042391 -0.00020291338 -0.00015352793)
(0.43958873 -0.00078343418 -0.0008909827)
(0.78190109 -0.001701479 -0.0029817529)
(1.1183354 -0.00294923 -0.0064810669)
(1.374071 -0.0041745907 -0.0099968863)
(1.4876653 -0.0047945729 -0.011160629)
(1.463319 -0.0047719122 -0.0089159446)
(1.3676495 -0.0044617184 -0.0062878693)
(1.2707069 -0.0040883125 -0.0047864631)
(0.14042392 0.00020293964 -0.00015352879)
(0.43958875 0.00078350369 -0.00089096897)
(0.78190111 0.0017016179 -0.0029817547)
(1.1183354 0.0029494384 -0.0064810711)
(1.374071 0.0041748902 -0.0099968933)
(1.4876653 0.0047949651 -0.011160624)
(1.4633191 0.0047723263 -0.0089159287)
(1.3676495 0.0044620638 -0.0062878486)
(1.2707069 0.0040885275 -0.0047864367)
(0.13969764 0.00059446445 -0.00019082427)
(0.43723145 0.0022727744 -0.0010120214)
(0.77760948 0.0049116429 -0.0031660162)
(1.112207 0.0085083248 -0.0066996589)
(1.3669034 0.012083042 -0.010199798)
(1.48081 0.013990477 -0.011208491)
(1.4579207 0.013805425 -0.0076100533)
(1.364071 0.012754703 -0.0062273257)
(1.2682829 0.011804896 -0.004884407)
(0.13792767 0.00096316093 -0.00027267587)
(0.43191213 0.0035889873 -0.0012756485)
(0.76851726 0.0076329183 -0.0035857084)
(1.0998391 0.013123018 -0.0072157258)
(1.3526551 0.018703432 -0.01074229)
(1.4661118 0.022092784 -0.011479521)
(1.4458363 0.021668173 -0.0085187006)
(1.3559871 0.019753119 -0.0054094212)
(1.263203 0.018298893 -0.0045825246)
(0.13567795 0.0012536693 -0.00039281162)
(0.42489835 0.0045573761 -0.0016715347)
(0.75615294 0.0095224822 -0.0042266494)
(1.0824905 0.01627386 -0.0080887361)
(1.3316098 0.023713769 -0.012574917)
(1.4457183 0.027875028 -0.013487821)
(1.4295229 0.027913686 -0.011062782)
(1.3440481 0.025803821 -0.0074692271)
(1.2544155 0.023841505 -0.0052570462)
(0.13268402 0.0013713113 -0.00050715056)
(0.41565666 0.0049998932 -0.0020574647)
(0.73999349 0.010516249 -0.0049980062)
(1.0598803 0.018188397 -0.0097542846)
(1.3059039 0.026130424 -0.01409901)
(1.4221953 0.031368193 -0.015792589)
(1.4113959 0.032418325 -0.01390444)
(1.330983 0.030803477 -0.010316244)
(1.2444748 0.028847786 -0.0076044152)
(0.12890426 0.0013438444 -0.00057343585)
(0.40412348 0.0049965408 -0.0023254706)
(0.72011084 0.010654425 -0.005637776)
(1.0332161 0.018391069 -0.010448046)
(1.2770099 0.02686147 -0.015265231)
(1.3968862 0.033149067 -0.017588162)
(1.3928001 0.035457749 -0.016251014)
(1.3183526 0.034765411 -0.012950497)
(1.2352513 0.033197844 -0.010147287)
(0.12435621 0.0012844371 -0.00063001777)
(0.39039925 0.0048227799 -0.0025497912)
(0.69690382 0.010300642 -0.0059315683)
(1.0028736 0.017910399 -0.010877115)
(1.2451162 0.026593808 -0.015935723)
(1.3700102 0.033748968 -0.018704214)
(1.3742592 0.037379833 -0.017942469)
(1.3070837 0.037864071 -0.015092034)
(1.2279846 0.036966949 -0.012439346)
(0.11916872 0.0012403684 -0.00070163228)
(0.37475773 0.004623696 -0.0027506896)
(0.67056304 0.0098404877 -0.0061947685)
(0.9687298 0.017135562 -0.011128055)
(1.2098185 0.02578068 -0.016242422)
(1.3412584 0.033584756 -0.019334316)
(1.3559855 0.038459344 -0.019133425)
(1.2979885 0.040234112 -0.016814738)
(1.2238536 0.0402049 -0.014441818)
(0.11317994 0.0012077321 -0.00077085267)
(0.35677993 0.0044337939 -0.0029317212)
(0.64046227 0.009348897 -0.0063923501)
(0.9300531 0.01623813 -0.011235634)
(1.1704739 0.024673639 -0.016324662)
(1.310414 0.032898859 -0.019679678)
(1.3384886 0.038867392 -0.020034381)
(1.2922703 0.041932357 -0.018284775)
(1.2243289 0.042916543 -0.01627429)
(0.10619465 0.0011632366 -0.00083876568)
(0.33600789 0.0042116941 -0.0031036661)
(0.60602094 0.0088071793 -0.0065680454)
(0.88630423 0.015257919 -0.011300176)
(1.1267557 0.023380235 -0.016335445)
(1.2776067 0.031831682 -0.019929638)
(1.3225767 0.038712484 -0.02083611)
(1.2914125 0.04301829 -0.019686749)
(1.2312786 0.045004825 -0.018076767)
(0.098573666 0.0011522097 -0.0009428189)
(0.3133287 0.004071615 -0.0033650559)
(0.56841745 0.0083749112 -0.0068725917)
(0.83861111 0.014371608 -0.011495904)
(1.0794709 0.022072238 -0.01642826)
(1.2433784 0.030534906 -0.02019333)
(1.3089434 0.038081112 -0.021613547)
(1.2967471 0.043453587 -0.021094386)
(1.2466895 0.046345394 -0.019910665)
(0.090299613 0.0010421651 -0.00095386579)
(0.28884446 0.0036680415 -0.0033638378)
(0.52798107 0.0075392617 -0.0067601541)
(0.78738689 0.012973003 -0.011163331)
(1.0286786 0.020129714 -0.015959547)
(1.2070363 0.028432228 -0.01994631)
(1.2963047 0.036444866 -0.021999787)
(1.3074949 0.042766068 -0.022209129)
(1.2726264 0.046511857 -0.021603898)
(0.10086738 -0.00054497971 -0.00050529606)
(0.32128027 -0.0018525266 -0.0016995755)
(0.58403656 -0.0036719558 -0.0033168733)
(0.86515486 -0.0060688639 -0.005436862)
(1.1234271 -0.0089245161 -0.0081049913)
(1.3146438 -0.011899849 -0.011061205)
(1.4151726 -0.014467713 -0.013634008)
(1.4370013 -0.016322977 -0.015104195)
(1.4110778 -0.01735482 -0.015520662)
(0.10985699 -0.00073986945 -0.00060535754)
(0.34748364 -0.002460305 -0.0019996026)
(0.62640052 -0.0047711468 -0.003829022)
(0.91731785 -0.0076802361 -0.0061844392)
(1.1735126 -0.010965802 -0.0091076324)
(1.3491744 -0.014123971 -0.012269911)
(1.4258772 -0.01651305 -0.014879562)
(1.424891 -0.017897236 -0.01623407)
(1.3845434 -0.018423205 -0.016246267)
(0.11792929 -0.00085391747 -0.00060680804)
(0.37105351 -0.0028382988 -0.0020108409)
(0.66447341 -0.005487746 -0.003858254)
(0.96395222 -0.0087695598 -0.0062758732)
(1.2178237 -0.012365623 -0.009335849)
(1.3792861 -0.015609065 -0.012663315)
(1.4353273 -0.017757531 -0.015371509)
(1.4158704 -0.018678113 -0.01676005)
(1.366101 -0.018765888 -0.016750656)
(0.12515925 -0.00094705239 -0.00058537805)
(0.39206847 -0.0031382674 -0.0019425962)
(0.69826805 -0.0060406982 -0.0037412515)
(1.0051895 -0.0095920475 -0.0061507387)
(1.2570439 -0.013389134 -0.0092785824)
(1.4065416 -0.016608103 -0.012713042)
(1.4457689 -0.018435987 -0.015506669)
(1.4118415 -0.018876702 -0.016982536)
(1.3549153 -0.018565448 -0.017062223)
(0.13116556 -0.00099397764 -0.00053341742)
(0.40962782 -0.0032998254 -0.0017814374)
(0.72665851 -0.0063541169 -0.003468693)
(1.0400506 -0.010078406 -0.0058177681)
(1.2905762 -0.01398944 -0.0089767878)
(1.4306469 -0.01710578 -0.012497151)
(1.4567642 -0.018566113 -0.015379408)
(1.4118184 -0.018537799 -0.016972028)
(1.3494098 -0.017879156 -0.017188925)
(0.1361822 -0.0010043327 -0.00045738398)
(0.42428727 -0.0033434681 -0.0015436993)
(0.75035999 -0.0064476913 -0.0030664441)
(1.0692029 -0.010235296 -0.0053064398)
(1.3188279 -0.014155409 -0.0084565429)
(1.4515378 -0.017084904 -0.012038875)
(1.4675898 -0.018148368 -0.015013573)
(1.4144084 -0.01769622 -0.01674678)
(1.3479206 -0.016752475 -0.017129231)
(0.14038708 -0.00097613922 -0.00037285886)
(0.4365036 -0.0032581147 -0.0012731209)
(0.77002461 -0.0062974386 -0.002596121)
(1.0933521 -0.010019632 -0.0046768154)
(1.3423508 -0.013826603 -0.0077611834)
(1.4693412 -0.016487201 -0.011364177)
(1.4777153 -0.017149648 -0.014428259)
(1.4184634 -0.016342991 -0.016327107)
(1.3490027 -0.015207648 -0.016902093)
(0.14369198 -0.00089261999 -0.00027979716)
(0.44615298 -0.0029945852 -0.00097206883)
(0.78565427 -0.0058181036 -0.0020614139)
(1.1127374 -0.0093143004 -0.0039380515)
(1.3615527 -0.012867307 -0.0068987863)
(1.4843328 -0.015199569 -0.010487184)
(1.4869347 -0.015508162 -0.013652579)
(1.4231991 -0.014461507 -0.015759127)
(1.3515632 -0.013236775 -0.01656725)
(0.14617249 -0.00074341066 -0.00018551345)
(0.45345439 -0.0025176214 -0.00066517045)
(0.79760665 -0.0049373196 -0.0015070249)
(1.1278012 -0.0079846297 -0.0031352105)
(1.3768368 -0.011123581 -0.0059600577)
(1.496701 -0.013085777 -0.0095087415)
(1.495041 -0.013146005 -0.012797118)
(1.4279648 -0.012022863 -0.015165728)
(1.3546894 -0.010840356 -0.016249945)
(0.14792341 -0.00054112362 -0.00010471969)
(0.45867014 -0.0018617424 -0.00040325088)
(0.80625171 -0.0037047486 -0.0010389573)
(1.1388685 -0.0060744608 -0.0024626415)
(1.3883462 -0.0085312993 -0.0051261977)
(1.50633 -0.010070924 -0.0086716782)
(1.5016449 -0.010026423 -0.012091077)
(1.4321114 -0.0090436346 -0.01476666)
(1.3575911 -0.0080647613 -0.016126526)
(0.14928092 -0.00032095224 -5.1173608e-05)
(0.46252771 -0.0011224879 -0.00023157078)
(0.81239473 -0.0022641737 -0.00074150054)
(1.1464818 -0.0037577225 -0.002045786)
(1.3960955 -0.0053294162 -0.0046449094)
(1.5128421 -0.0063049728 -0.008251188)
(1.5061877 -0.0062689466 -0.011786257)
(1.4350041 -0.0056308521 -0.014738983)
(1.3596584 -0.0049821879 -0.016169022)
(0.1497394 -0.00010577024 -2.8164974e-05)
(0.46398667 -0.00037421701 -0.00016014329)
(0.81494878 -0.00076139729 -0.00062502728)
(1.1499106 -0.001276585 -0.0018939913)
(1.3997989 -0.0018528102 -0.0045626698)
(1.5160223 -0.0021456582 -0.0080968892)
(1.5084491 -0.0021290167 -0.01180037)
(1.4364804 -0.0019120618 -0.014757305)
(1.3607308 -0.0016836202 -0.016198654)
(0.1497394 0.00010580241 -2.8165155e-05)
(0.46398667 0.00037429976 -0.0001601393)
(0.81494879 0.00076155058 -0.00062502747)
(1.1499106 0.0012768161 -0.0018939959)
(1.3997989 0.0018531453 -0.0045626718)
(1.5160224 0.0021460762 -0.0080968798)