/*--------------------------------*- C++ -*----------------------------------*\
| =========                 |                                                 |
| \\      /  F ield         | OpenFOAM: The Open Source CFD Toolbox           |
|  \\    /   O peration     | Version:  2406                                  |
|   \\  /    A nd           | Website:  www.openfoam.com                      |
|    \\/     M anipulation  |                                                 |
\*---------------------------------------------------------------------------*/
FoamFile
{
    version     2.0;
    format      ascii;
    arch        "LSB;label=32;scalar=64";
    class       volScalarField;
    location    "12.5";
    object      p;
}
// * * * * * * * * * * * * * * * * * * * * * * * * * * * * * * * * * * * * * //

dimensions      [0 2 -2 0 0 0 0];

internalField   nonuniform List<scalar> 
34560
(
35.957444
35.952634
35.946559
35.939279
35.930627
35.923316
35.921617
35.928938
35.942626
35.999639
35.993933
35.986003
35.975802
35.963806
35.953944
35.951122
35.958387
35.972435
36.050255
36.043883
36.034478
36.02136
36.004959
35.990523
35.984236
35.989072
36.00116
36.101078
36.093961
36.083118
36.067456
36.047315
36.028271
36.017421
36.017698
36.025888
36.153036
36.145343
36.133041
36.114223
36.089473
36.065092
36.048829
36.04392
36.047627
36.207599
36.199269
36.185547
36.163253
36.132795
36.101609
36.078801
36.068286
36.067294
36.264996
36.255708
36.240099
36.214027
36.177226
36.138116
36.107615
36.090559
36.084552
36.326408
36.315573
36.297221
36.266769
36.222258
36.173752
36.13451
36.11059
36.099943
36.392522
36.379217
36.3572
36.321442
36.267829
36.208457
36.159699
36.129052
36.114613
36.460152
36.443932
36.417241
36.374837
36.312546
36.241728
36.183386
36.146778
36.12915
36.52116
36.502287
36.470804
36.421367
36.351802
36.270535
36.203753
36.162366
36.14221
36.559771
36.538434
36.50367
36.450197
36.376117
36.288325
36.216289
36.172047
36.150736
36.559771
36.538434
36.503671
36.450197
36.376118
36.288326
36.216289
36.172047
36.150737
36.521161
36.502288
36.470805
36.421368
36.351803
36.270536
36.203754
36.162367
36.142211
36.460152
36.443932
36.417242
36.374839
36.312548
36.24173
36.183387
36.14678
36.129152
36.392521
36.379217
36.357201
36.321444
36.267832
36.20846
36.159702
36.129055
36.114615
36.326408
36.315575
36.297224
36.266773
36.222262
36.173755
36.134513
36.110593
36.099946
36.265
36.255712
36.240104
36.214031
36.17723
36.13812
36.107619
36.090563
36.084557
36.207606
36.199275
36.185552
36.163257
36.132801
36.101615
36.078807
36.068291
36.0673
36.153042
36.14535
36.133048
36.11423
36.08948
36.065099
36.048835
36.043926
36.047635
36.101085
36.093969
36.083125
36.067464
36.047322
36.028278
36.017428
36.017706
36.025897
36.050262
36.043891
36.034486
36.021369
36.004968
35.990531
35.984244
35.98908
36.00117
35.999646
35.993941
35.986012
35.975812
35.963815
35.953954
35.951131
35.958396
35.972448
35.957453
35.952643
35.946568
35.939288
35.930637
35.923327
35.921629
35.928952
35.942643
33.241848
33.242452
33.242897
33.24302
33.242767
33.242655
33.243391
33.245131
33.248141
33.23367
33.234549
33.23531
33.235769
33.235972
33.236714
33.238819
33.242152
33.246062
33.226015
33.2272
33.228209
33.228732
33.228982
33.230121
33.233049
33.237176
33.24113
33.220193
33.221755
33.223004
33.223453
33.223441
33.224527
33.227753
33.232144
33.235945
33.216727
33.218682
33.220127
33.220394
33.219852
33.220507
33.223593
33.227866
33.231398
33.215794
33.218238
33.219822
33.219833
33.218465
33.218288
33.220895
33.224849
33.22808
33.218668
33.221594
33.223284
33.222702
33.220136
33.218718
33.220519
33.223973
33.226909
33.226078
33.229474
33.231234
33.229614
33.225675
33.222782
33.223602
33.22651
33.22918
33.237838
33.24164
33.243325
33.240479
33.235224
33.231055
33.231086
33.233577
33.235979
33.253335
33.257434
33.259044
33.255095
33.247806
33.242915
33.242775
33.245203
33.247394
33.268619
33.272919
33.274489
33.269621
33.260507
33.255869
33.256202
33.25894
33.261019
33.278815
33.283126
33.284597
33.279078
33.268996
33.26483
33.265704
33.26877
33.270819
33.278815
33.283126
33.284597
33.279078
33.268996
33.26483
33.265704
33.268771
33.270819
33.26862
33.272919
33.27449
33.269621
33.260508
33.25587
33.256203
33.258941
33.26102
33.253336
33.257435
33.259045
33.255096
33.247808
33.242917
33.242777
33.245205
33.247395
33.237838
33.241641
33.243326
33.240481
33.235227
33.231059
33.23109
33.23358
33.235981
33.22608
33.229476
33.231237
33.229618
33.225679
33.222786
33.223606
33.226514
33.229182
33.218672
33.221599
33.22329
33.222708
33.220142
33.218723
33.220525
33.223978
33.226914
33.215801
33.218245
33.219829
33.21984
33.218472
33.218295
33.220901
33.224855
33.228086
33.216735
33.21869
33.220135
33.220402
33.21986
33.220515
33.223601
33.227873
33.231405
33.220203
33.221765
33.223014
33.223463
33.22345
33.224537
33.227762
33.232152
33.235953
33.226026
33.22721
33.22822
33.228743
33.228993
33.230132
33.233059
33.237185
33.241138
33.233681
33.234561
33.235323
33.235782
33.235985
33.236726
33.23883
33.242161
33.24607
33.241861
33.242465
33.242911
33.243033
33.242781
33.242669
33.243404
33.245143
33.248152
32.323028
32.323069
32.323074
32.322926
32.32266
32.322455
32.322512
32.323011
32.323731
32.327363
32.327393
32.327345
32.327059
32.326571
32.326069
32.325784
32.325949
32.326482
32.331481
32.331541
32.331499
32.331158
32.330525
32.329764
32.329128
32.328927
32.329243
32.335599
32.335695
32.33567
32.335297
32.334542
32.333537
32.332537
32.33193
32.331946
32.339765
32.339906
32.339902
32.339501
32.338631
32.337362
32.335966
32.334911
32.334563
32.343925
32.344134
32.344171
32.343759
32.34278
32.341226
32.339398
32.337858
32.337105
32.348095
32.348377
32.348463
32.348046
32.346947
32.345098
32.342807
32.34077
32.339599
32.352202
32.352563
32.352714
32.352296
32.351071
32.348918
32.346161
32.343642
32.342066
32.356135
32.356583
32.356809
32.356378
32.355017
32.352563
32.349388
32.346427
32.344479
32.35968
32.360227
32.360541
32.360093
32.358566
32.355826
32.352292
32.348971
32.346714
32.362498
32.363142
32.363551
32.363087
32.361366
32.358374
32.354568
32.350994
32.348522
32.364127
32.364826
32.365294
32.36481
32.362937
32.35978
32.355821
32.352119
32.349541
32.364127
32.364826
32.365294
32.36481
32.362938
32.35978
32.355822
32.352119
32.349541
32.362499
32.363143
32.363552
32.363088
32.361368
32.358376
32.354569
32.350995
32.348523
32.359681
32.360229
32.360543
32.360095
32.358569
32.355829
32.352294
32.348973
32.346716
32.356137
32.356586
32.356812
32.356381
32.35502
32.352567
32.349391
32.34643
32.344481
32.352206
32.352567
32.352719
32.352301
32.351075
32.348922
32.346166
32.343646
32.342069
32.348101
32.348382
32.348469
32.348052
32.346953
32.345104
32.342813
32.340775
32.339603
32.343932
32.344142
32.344178
32.343767
32.342788
32.341233
32.339405
32.337865
32.337111
32.339774
32.339914
32.339911
32.339509
32.33864
32.337371
32.335974
32.334919
32.334569
32.335609
32.335705
32.33568
32.335307
32.334553
32.333547
32.332546
32.331938
32.331954
32.331492
32.331552
32.331511
32.33117
32.330537
32.329776
32.329139
32.328937
32.329251
32.327376
32.327407
32.327358
32.327073
32.326585
32.326082
32.325796
32.325961
32.326491
32.323043
32.323083
32.323089
32.32294
32.322675
32.32247
32.322526
32.323024
32.323742
30.576977
30.576863
30.576748
30.576692
30.576678
30.57664
30.576509
30.576261
30.576093
30.577363
30.577233
30.577111
30.577068
30.577081
30.577076
30.57698
30.576782
30.576609
30.577789
30.57765
30.577526
30.5775
30.577544
30.577569
30.577485
30.577264
30.576977
30.578342
30.5782
30.578079
30.578067
30.578133
30.578172
30.578073
30.57779
30.577371
30.578975
30.578834
30.578722
30.578729
30.578817
30.578865
30.578741
30.578379
30.577821
30.579614
30.579485
30.579395
30.579432
30.579549
30.579606
30.57945
30.579003
30.578311
30.580291
30.580175
30.580107
30.580174
30.580318
30.580382
30.580189
30.579657
30.578841
30.580972
30.580872
30.58083
30.580926
30.581097
30.581167
30.580941
30.580332
30.579406
30.581626
30.581542
30.581525
30.58165
30.581848
30.581925
30.581672
30.580996
30.579973
30.582199
30.582129
30.582139
30.582294
30.582512
30.582596
30.582327
30.581595
30.580491
30.582628
30.582573
30.582607
30.582784
30.583018
30.583111
30.582829
30.582057
30.580895
30.582877
30.582828
30.582872
30.583057
30.583297
30.583394
30.583108
30.582314
30.58112
30.582878
30.582829
30.582873
30.583057
30.583298
30.583395
30.583108
30.582315
30.581121
30.582629
30.582574
30.582608
30.582785
30.58302
30.583112
30.582831
30.582059
30.580896
30.582201
30.582132
30.582142
30.582296
30.582514
30.582599
30.582329
30.581597
30.580493
30.581629
30.581545
30.581528
30.581653
30.581852
30.581928
30.581675
30.580999
30.579975
30.580976
30.580876
30.580834
30.580931
30.581102
30.581172
30.580945
30.580336
30.579409
30.580296
30.580181
30.580113
30.58018
30.580324
30.580387
30.580194
30.579662
30.578845
30.57962
30.579491
30.579401
30.579439
30.579556
30.579614
30.579457
30.579009
30.578316
30.578983
30.578842
30.57873
30.578738
30.578825
30.578873
30.578749
30.578386
30.577827
30.578352
30.57821
30.578089
30.578078
30.578143
30.578182
30.578083
30.577799
30.577378
30.577801
30.577662
30.577538
30.577512
30.577556
30.577581
30.577496
30.577274
30.576986
30.577376
30.577247
30.577125
30.577082
30.577095
30.57709
30.576994
30.576795
30.57662
30.576993
30.576878
30.576763
30.576708
30.576693
30.576656
30.576525
30.576276
30.576107
29.172712
29.172725
29.172723
29.17268
29.172598
29.172511
29.172474
29.172531
29.17267
29.173214
29.173226
29.173216
29.173153
29.173044
29.172936
29.172893
29.172961
29.173111
29.173566
29.173583
29.173575
29.173504
29.173382
29.173258
29.173207
29.173277
29.173438
29.173848
29.173871
29.173866
29.173792
29.17366
29.173526
29.173466
29.173529
29.173697
29.174072
29.1741
29.1741
29.174026
29.173889
29.173746
29.173674
29.173726
29.173894
29.174239
29.174275
29.174281
29.174209
29.17407
29.173921
29.173841
29.173889
29.174064
29.174368
29.174411
29.174423
29.174354
29.174215
29.174064
29.17398
29.174022
29.174193
29.174466
29.174516
29.174535
29.174471
29.174333
29.174176
29.174081
29.174109
29.174267
29.174537
29.174595
29.174622
29.174563
29.174423
29.174256
29.174144
29.174152
29.174294
29.174585
29.174653
29.174688
29.174631
29.174488
29.174308
29.174176
29.174164
29.174289
29.174617
29.17469
29.174731
29.174677
29.174529
29.174338
29.174189
29.174159
29.17427
29.174632
29.174709
29.174752
29.174699
29.174549
29.174352
29.174191
29.174152
29.174255
29.174633
29.174709
29.174753
29.1747
29.17455
29.174352
29.174192
29.174152
29.174255
29.174618
29.174692
29.174733
29.174678
29.174531
29.174339
29.17419
29.17416
29.174271
29.174588
29.174655
29.17469
29.174634
29.17449
29.174311
29.174178
29.174166
29.174291
29.17454
29.174598
29.174626
29.174566
29.174427
29.17426
29.174147
29.174155
29.174297
29.174471
29.17452
29.174539
29.174476
29.174338
29.174181
29.174086
29.174114
29.174271
29.174374
29.174417
29.174429
29.17436
29.174222
29.174071
29.173986
29.174027
29.174197
29.174246
29.174282
29.174288
29.174217
29.174078
29.173929
29.173849
29.173896
29.174069
29.174081
29.174109
29.174109
29.174035
29.173899
29.173756
29.173684
29.173734
29.173902
29.173859
29.173881
29.173877
29.173803
29.173672
29.173537
29.173477
29.173539
29.173706
29.173579
29.173596
29.173588
29.173517
29.173395
29.173271
29.173219
29.173289
29.173449
29.173229
29.17324
29.173231
29.173168
29.173059
29.17295
29.172907
29.172974
29.173124
29.172728
29.172741
29.172739
29.172696
29.172614
29.172527
29.17249
29.172547
29.172684
27.649344
27.649326
27.649308
27.6493
27.649299
27.649292
27.649265
27.649204
27.649131
27.649473
27.649454
27.649436
27.649431
27.649431
27.649424
27.649391
27.64932
27.649227
27.649598
27.649578
27.649561
27.649559
27.649562
27.649552
27.649505
27.649407
27.649278
27.649743
27.649724
27.649709
27.649707
27.649711
27.649694
27.649633
27.649519
27.649376
27.649901
27.649882
27.649869
27.64987
27.649876
27.649859
27.649793
27.649673
27.649519
27.650057
27.650041
27.650031
27.650038
27.65005
27.650039
27.649973
27.64984
27.649674
27.650211
27.650198
27.650192
27.650205
27.650223
27.650217
27.650151
27.650021
27.649851
27.650353
27.650341
27.650339
27.650358
27.650384
27.650385
27.650329
27.650209
27.650033
27.650477
27.650467
27.650468
27.650493
27.650526
27.650538
27.650494
27.650372
27.650187
27.650576
27.650568
27.650572
27.650601
27.650643
27.650665
27.650625
27.650501
27.650309
27.650645
27.650638
27.650645
27.650678
27.650725
27.650753
27.650716
27.650591
27.650393
27.650682
27.650676
27.650684
27.650719
27.650768
27.650798
27.650763
27.650637
27.650436
27.650683
27.650676
27.650684
27.650719
27.650769
27.650798
27.650763
27.650638
27.650437
27.650646
27.65064
27.650647
27.65068
27.650727
27.650754
27.650717
27.650592
27.650394
27.650578
27.65057
27.650575
27.650604
27.650646
27.650668
27.650628
27.650503
27.65031
27.65048
27.65047
27.650472
27.650496
27.65053
27.650542
27.650498
27.650375
27.65019
27.650358
27.650346
27.650344
27.650363
27.650389
27.65039
27.650334
27.650213
27.650036
27.650218
27.650204
27.650198
27.650212
27.65023
27.650224
27.650158
27.650027
27.649855
27.650065
27.650049
27.65004
27.650047
27.650059
27.650048
27.649981
27.649847
27.649679
27.649911
27.649892
27.649879
27.649881
27.649887
27.64987
27.649803
27.649682
27.649526
27.649755
27.649736
27.649721
27.64972
27.649724
27.649707
27.649645
27.64953
27.649385
27.649612
27.649592
27.649576
27.649574
27.649577
27.649567
27.649519
27.64942
27.649289
27.64949
27.649471
27.649453
27.649448
27.649448
27.649441
27.649407
27.649335
27.64924
27.649363
27.649344
27.649327
27.649319
27.649317
27.64931
27.649283
27.649222
27.649147
26.157264
26.157264
26.157261
26.157251
26.157234
26.157213
26.157194
26.157184
26.157198
26.157364
26.157363
26.157358
26.157346
26.157326
26.157305
26.157289
26.157287
26.157306
26.157422
26.157422
26.157418
26.157406
26.157388
26.157368
26.157357
26.157361
26.157382
26.157465
26.157466
26.157463
26.157452
26.157435
26.157418
26.157411
26.157421
26.157448
26.157493
26.157495
26.157493
26.157484
26.157469
26.157456
26.157454
26.157471
26.157504
26.157505
26.157509
26.157509
26.157502
26.15749
26.15748
26.157484
26.157509
26.157539
26.157507
26.157513
26.157515
26.157509
26.1575
26.157493
26.157499
26.157513
26.157532
26.157501
26.157508
26.157512
26.157508
26.157501
26.157495
26.157492
26.15749
26.157499
26.157489
26.157498
26.157503
26.157501
26.157494
26.157485
26.157473
26.157467
26.157472
26.157476
26.157486
26.157492
26.157491
26.157484
26.157471
26.157457
26.157449
26.157451
26.157464
26.157475
26.157482
26.157482
26.157474
26.157461
26.157446
26.157436
26.157437
26.157458
26.157469
26.157477
26.157477
26.15747
26.157456
26.157441
26.15743
26.15743
26.157458
26.15747
26.157478
26.157478
26.15747
26.157456
26.157441
26.157431
26.15743
26.157465
26.157476
26.157484
26.157484
26.157476
26.157462
26.157448
26.157438
26.157438
26.157478
26.157488
26.157495
26.157494
26.157487
26.157473
26.157459
26.157451
26.157452
26.157493
26.157502
26.157507
26.157505
26.157499
26.157489
26.157477
26.15747
26.157474
26.157506
26.157513
26.157517
26.157514
26.157507
26.157501
26.157498
26.157495
26.157502
26.157514
26.15752
26.157522
26.157517
26.157508
26.157501
26.157506
26.157519
26.157536
26.157514
26.157518
26.157518
26.157511
26.1575
26.15749
26.157493
26.157516
26.157544
26.157504
26.157506
26.157505
26.157496
26.157481
26.157467
26.157465
26.157481
26.157511
26.157479
26.15748
26.157477
26.157466
26.157449
26.157432
26.157424
26.157433
26.157456
26.157439
26.157439
26.157435
26.157423
26.157405
26.157385
26.157373
26.157375
26.157393
26.157383
26.157383
26.157378
26.157366
26.157347
26.157325
26.157308
26.157304
26.157319
26.157286
26.157286
26.157283
26.157273
26.157256
26.157235
26.157215
26.157205
26.157216
24.665604
24.665603
24.665602
24.6656
24.665598
24.665595
24.665591
24.665586
24.665581
24.665641
24.66564
24.665639
24.665637
24.665634
24.66563
24.665626
24.665622
24.66562
24.665673
24.665672
24.665672
24.665671
24.665668
24.665664
24.665658
24.665652
24.665648
24.665709
24.665708
24.665708
24.665707
24.665705
24.6657
24.665693
24.665685
24.665678
24.665744
24.665744
24.665744
24.665744
24.665743
24.665738
24.66573
24.665721
24.665713
24.665777
24.665778
24.665779
24.66578
24.66578
24.665776
24.665768
24.665758
24.665748
24.66581
24.665811
24.665813
24.665815
24.665815
24.665812
24.665805
24.665795
24.665784
24.665839
24.66584
24.665843
24.665846
24.665848
24.665846
24.66584
24.66583
24.665817
24.665865
24.665866
24.66587
24.665874
24.665876
24.665876
24.665871
24.665862
24.665849
24.665885
24.665887
24.665891
24.665896
24.665899
24.6659
24.665897
24.665889
24.665878
24.6659
24.665902
24.665906
24.665911
24.665916
24.665918
24.665916
24.665909
24.665899
24.665908
24.66591
24.665914
24.66592
24.665925
24.665927
24.665926
24.665921
24.665911
24.665908
24.66591
24.665915
24.66592
24.665925
24.665928
24.665927
24.665921
24.665911
24.665901
24.665903
24.665908
24.665913
24.665917
24.66592
24.665918
24.66591
24.6659
24.665887
24.665889
24.665894
24.665898
24.665902
24.665903
24.6659
24.665891
24.665879
24.665868
24.66587
24.665874
24.665878
24.665881
24.66588
24.665875
24.665865
24.665851
24.665844
24.665845
24.665849
24.665852
24.665854
24.665852
24.665846
24.665834
24.66582
24.665816
24.665817
24.66582
24.665822
24.665823
24.66582
24.665812
24.665801
24.665788
24.665786
24.665787
24.665788
24.66579
24.66579
24.665786
24.665777
24.665765
24.665754
24.665755
24.665755
24.665756
24.665756
24.665755
24.66575
24.665741
24.66573
24.66572
24.665722
24.665722
24.665722
24.665722
24.66572
24.665715
24.665706
24.665697
24.665688
24.66569
24.665689
24.665689
24.665688
24.665685
24.665681
24.665674
24.665666
24.66566
24.66566
24.665659
24.665658
24.665657
24.665654
24.66565
24.665644
24.665639
24.665635
24.665626
24.665624
24.665623
24.665622
24.66562
24.665616
24.665612
24.665606
24.665599
23.166647
23.166646
23.166644
23.166642
23.16664
23.166637
23.166632
23.166627
23.166626
23.16667
23.166669
23.166667
23.166665
23.166663
23.16666
23.166657
23.166654
23.166655
23.166686
23.166684
23.166682
23.166681
23.16668
23.166678
23.166677
23.166675
23.166675
23.166699
23.166698
23.166696
23.166695
23.166695
23.166695
23.166694
23.166693
23.166693
23.166711
23.16671
23.166709
23.166708
23.166709
23.166709
23.16671
23.166709
23.166708
23.16672
23.16672
23.166719
23.166719
23.16672
23.166722
23.166723
23.166723
23.166722
23.166727
23.166727
23.166727
23.166728
23.16673
23.166733
23.166735
23.166735
23.166733
23.166732
23.166733
23.166733
23.166735
23.166738
23.166742
23.166744
23.166744
23.166741
23.166736
23.166737
23.166738
23.16674
23.166744
23.166748
23.166751
23.16675
23.166745
23.166738
23.166739
23.166741
23.166744
23.166748
23.166753
23.166755
23.166752
23.166743
23.166739
23.166741
23.166742
23.166746
23.166751
23.166756
23.166757
23.166753
23.166741
23.16674
23.166742
23.166744
23.166747
23.166752
23.166757
23.166758
23.166752
23.166739
23.16674
23.166742
23.166744
23.166748
23.166753
23.166758
23.166759
23.166752
23.166739
23.16674
23.166742
23.166744
23.166747
23.166752
23.166757
23.166759
23.166754
23.166741
23.16674
23.166741
23.166743
23.166746
23.166751
23.166756
23.166758
23.166755
23.166745
23.166739
23.16674
23.166741
23.166744
23.166748
23.166752
23.166755
23.166753
23.166746
23.166737
23.166737
23.166738
23.16674
23.166744
23.166747
23.166749
23.166748
23.166743
23.166733
23.166733
23.166733
23.166735
23.166737
23.16674
23.166742
23.16674
23.166736
23.166728
23.166728
23.166727
23.166728
23.16673
23.166731
23.166732
23.16673
23.166727
23.166721
23.166721
23.16672
23.16672
23.16672
23.166721
23.16672
23.166718
23.166715
23.166712
23.166711
23.16671
23.166709
23.166709
23.166708
23.166707
23.166704
23.166701
23.166701
23.1667
23.166698
23.166697
23.166696
23.166694
23.166692
23.166688
23.166686
23.166689
23.166687
23.166685
23.166683
23.166681
23.166679
23.166675
23.16667
23.166669
23.166667
23.166666
23.166664
23.166662
23.16666
23.166657
23.166652
23.166646
23.166644
21.674627
21.674627
21.674628
21.674627
21.674626
21.674625
21.674624
21.674624
21.674625
21.674632
21.674632
21.674632
21.674632
21.67463
21.674629
21.674628
21.674629
21.674631
21.674634
21.674635
21.674635
21.674635
21.674633
21.674632
21.674631
21.674631
21.674633
21.674637
21.674638
21.674638
21.674638
21.674637
21.674635
21.674633
21.674634
21.674636
21.67464
21.674641
21.674641
21.674641
21.67464
21.674638
21.674637
21.674637
21.674639
21.674642
21.674643
21.674644
21.674644
21.674643
21.674641
21.67464
21.67464
21.674642
21.674644
21.674646
21.674647
21.674647
21.674646
21.674645
21.674643
21.674643
21.674645
21.674647
21.674648
21.674649
21.67465
21.674649
21.674648
21.674646
21.674646
21.674648
21.674648
21.67465
21.674651
21.674652
21.674652
21.67465
21.674649
21.674648
21.67465
21.67465
21.674652
21.674653
21.674654
21.674654
21.674652
21.674651
21.674651
21.674653
21.674651
21.674653
21.674655
21.674655
21.674655
21.674654
21.674653
21.674653
21.674654
21.674652
21.674654
21.674656
21.674656
21.674656
21.674655
21.674654
21.674654
21.674655
21.674652
21.674654
21.674656
21.674657
21.674657
21.674656
21.674655
21.674654
21.674655
21.674652
21.674654
21.674656
21.674657
21.674657
21.674656
21.674654
21.674654
21.674655
21.674652
21.674653
21.674655
21.674656
21.674656
21.674655
21.674653
21.674653
21.674653
21.674651
21.674653
21.674655
21.674656
21.674655
21.674654
21.674652
21.674651
21.674652
21.674651
21.674652
21.674654
21.674655
21.674654
21.674653
21.674651
21.674649
21.67465
21.67465
21.674651
21.674653
21.674654
21.674653
21.674651
21.674649
21.674648
21.674648
21.674649
21.674651
21.674652
21.674653
21.674652
21.67465
21.674648
21.674646
21.674646
21.674649
21.67465
21.674652
21.674652
21.674651
21.674649
21.674647
21.674645
21.674645
21.674649
21.67465
21.674651
21.674651
21.67465
21.674648
21.674646
21.674644
21.674644
21.674649
21.67465
21.674651
21.674651
21.674649
21.674647
21.674645
21.674644
21.674643
21.674649
21.67465
21.67465
21.67465
21.674648
21.674647
21.674645
21.674644
21.674644
21.674647
21.674647
21.674647
21.674647
21.674646
21.674644
21.674643
21.674643
21.674641
20.177841
20.177841
20.17784
20.17784
20.17784
20.17784
20.17784
20.177839
20.177839
20.177848
20.177847
20.177846
20.177846
20.177846
20.177846
20.177846
20.177846
20.177847
20.177853
20.177852
20.177851
20.177851
20.177851
20.177852
20.177852
20.177852
20.177852
20.177858
20.177857
20.177856
20.177856
20.177857
20.177857
20.177858
20.177857
20.177857
20.177863
20.177862
20.177862
20.177862
20.177862
20.177863
20.177864
20.177863
20.177862
20.177867
20.177866
20.177866
20.177866
20.177867
20.177869
20.177869
20.177869
20.177867
20.177871
20.17787
20.17787
20.177871
20.177872
20.177874
20.177874
20.177873
20.177871
20.177874
20.177874
20.177873
20.177874
20.177876
20.177878
20.177879
20.177878
20.177875
20.177876
20.177876
20.177876
20.177877
20.177879
20.177881
20.177882
20.177881
20.177878
20.177878
20.177878
20.177878
20.17788
20.177882
20.177884
20.177885
20.177884
20.17788
20.177879
20.17788
20.17788
20.177881
20.177884
20.177886
20.177887
20.177886
20.177882
20.17788
20.17788
20.177881
20.177882
20.177885
20.177887
20.177888
20.177887
20.177883
20.177881
20.177881
20.177881
20.177883
20.177885
20.177888
20.177889
20.177887
20.177883
20.17788
20.17788
20.177881
20.177882
20.177885
20.177887
20.177888
20.177887
20.177882
20.17788
20.17788
20.17788
20.177882
20.177884
20.177886
20.177887
20.177885
20.177881
20.177879
20.177879
20.177879
20.17788
20.177882
20.177885
20.177885
20.177884
20.177879
20.177877
20.177877
20.177877
20.177879
20.177881
20.177882
20.177883
20.177881
20.177877
20.177876
20.177876
20.177876
20.177876
20.177878
20.17788
20.17788
20.177878
20.177874
20.177874
20.177873
20.177873
20.177874
20.177875
20.177876
20.177876
20.177874
20.177871
20.177871
20.177871
20.177871
20.177871
20.177872
20.177873
20.177873
20.17787
20.177867
20.177869
20.177869
20.177868
20.177868
20.177869
20.177869
20.177869
20.177867
20.177864
20.177866
20.177866
20.177865
20.177865
20.177866
20.177866
20.177865
20.177863
20.177861
20.177864
20.177863
20.177863
20.177862
20.177862
20.177862
20.177862
20.17786
20.177858
20.177859
20.177859
20.177858
20.177858
20.177858
20.177858
20.177857
20.177856
20.177853
18.683988
18.683988
18.683988
18.683988
18.683987
18.683987
18.683988
18.683989
18.68399
18.683989
18.683989
18.683989
18.683989
18.683988
18.683988
18.683988
18.68399
18.683991
18.683989
18.683989
18.68399
18.683989
18.683989
18.683988
18.683988
18.683989
18.683991
18.68399
18.68399
18.68399
18.68399
18.683989
18.683989
18.683989
18.683989
18.683991
18.68399
18.68399
18.683991
18.683991
18.68399
18.683989
18.683989
18.68399
18.683992
18.68399
18.683991
18.683991
18.683991
18.683991
18.68399
18.68399
18.68399
18.683992
18.683991
18.683991
18.683992
18.683992
18.683991
18.68399
18.68399
18.683991
18.683992
18.683991
18.683992
18.683992
18.683992
18.683992
18.683991
18.683991
18.683991
18.683993
18.683991
18.683992
18.683992
18.683992
18.683992
18.683991
18.683991
18.683992
18.683993
18.683992
18.683992
18.683993
18.683993
18.683992
18.683992
18.683992
18.683992
18.683994
18.683992
18.683993
18.683993
18.683993
18.683993
18.683992
18.683992
18.683993
18.683994
18.683992
18.683993
18.683993
18.683994
18.683993
18.683993
18.683992
18.683993
18.683994
18.683993
18.683993
18.683994
18.683994
18.683994
18.683993
18.683993
18.683993
18.683994
18.683993
18.683993
18.683994
18.683994
18.683994
18.683993
18.683993
18.683993
18.683994
18.683993
18.683994
18.683994
18.683995
18.683994
18.683994
18.683993
18.683993
18.683994
18.683994
18.683994
18.683995
18.683995
18.683995
18.683994
18.683994
18.683994
18.683994
18.683994
18.683995
18.683995
18.683996
18.683995
18.683995
18.683994
18.683994
18.683994
18.683995
18.683996
18.683996
18.683996
18.683996
18.683996
18.683995
18.683994
18.683995
18.683996
18.683997
18.683997
18.683997
18.683997
18.683996
18.683996
18.683995
18.683995
18.683997
18.683998
18.683998
18.683999
18.683998
18.683997
18.683996
18.683996
18.683996
18.683999
18.683999
18.684
18.684
18.683999
18.683998
18.683998
18.683997
18.683997
18.684
18.684001
18.684001
18.684001
18.684001
18.684
18.683999
18.683999
18.683999
18.684002
18.684002
18.684002
18.684002
18.684002
18.684001
18.684001
18.684001
18.684001
18.684002
18.684002
18.684002
18.684002
18.684002
18.684002
18.684002
18.684002
18.684001
17.18848
17.18848
17.18848
17.18848
17.18848
17.18848
17.18848
17.188479
17.18848
17.188483
17.188482
17.188482
17.188482
17.188482
17.188482
17.188482
17.188482
17.188482
17.188485
17.188484
17.188484
17.188484
17.188484
17.188485
17.188485
17.188485
17.188485
17.188487
17.188487
17.188486
17.188486
17.188487
17.188487
17.188487
17.188487
17.188487
17.188489
17.188489
17.188489
17.188489
17.188489
17.188489
17.188489
17.188489
17.188489
17.188491
17.188491
17.188491
17.188491
17.188491
17.188491
17.188492
17.188492
17.188491
17.188493
17.188493
17.188492
17.188493
17.188493
17.188493
17.188494
17.188493
17.188493
17.188494
17.188494
17.188494
17.188494
17.188495
17.188495
17.188495
17.188495
17.188494
17.188495
17.188495
17.188495
17.188495
17.188496
17.188497
17.188497
17.188496
17.188495
17.188496
17.188496
17.188496
17.188497
17.188497
17.188498
17.188498
17.188498
17.188496
17.188497
17.188497
17.188497
17.188497
17.188498
17.188499
17.188499
17.188498
17.188497
17.188497
17.188497
17.188497
17.188498
17.188499
17.188499
17.1885
17.188499
17.188497
17.188498
17.188498
17.188498
17.188498
17.188499
17.1885
17.1885
17.188499
17.188498
17.188498
17.188498
17.188498
17.188498
17.188499
17.1885
17.1885
17.188499
17.188497
17.188497
17.188497
17.188498
17.188498
17.188499
17.188499
17.1885
17.188499
17.188497
17.188497
17.188497
17.188497
17.188498
17.188498
17.188499
17.188499
17.188498
17.188496
17.188497
17.188497
17.188497
17.188497
17.188498
17.188498
17.188498
17.188497
17.188496
17.188496
17.188496
17.188496
17.188496
17.188497
17.188497
17.188497
17.188496
17.188495
17.188495
17.188495
17.188495
17.188496
17.188496
17.188496
17.188496
17.188495
17.188494
17.188495
17.188495
17.188495
17.188495
17.188495
17.188495
17.188495
17.188494
17.188493
17.188494
17.188494
17.188494
17.188494
17.188494
17.188494
17.188494
17.188493
17.188492
17.188493
17.188493
17.188493
17.188493
17.188493
17.188493
17.188493
17.188492
17.188491
17.188492
17.188492
17.188492
17.188492
17.188492
17.188492
17.188492
17.188491
17.18849
17.188491
17.188491
17.188491
17.188491
17.188491
17.188491
17.18849
17.18849
17.188489
15.693856
15.693856
15.693856
15.693856
15.693856
15.693856
15.693856
15.693856
15.693857
15.693857
15.693857
15.693857
15.693857
15.693857
15.693857
15.693857
15.693857
15.693857
15.693857
15.693857
15.693857
15.693857
15.693857
15.693857
15.693857
15.693857
15.693858
15.693858
15.693858
15.693858
15.693858
15.693858
15.693857
15.693857
15.693858
15.693858
15.693858
15.693858
15.693858
15.693858
15.693858
15.693858
15.693858
15.693858
15.693859
15.693858
15.693859
15.693859
15.693859
15.693858
15.693858
15.693858
15.693858
15.693859
15.693859
15.693859
15.693859
15.693859
15.693859
15.693859
15.693859
15.693859
15.693859
15.693859
15.693859
15.693859
15.693859
15.693859
15.693859
15.693859
15.693859
15.69386
15.693859
15.693859
15.693859
15.693859
15.693859
15.693859
15.693859
15.693859
15.69386
15.693859
15.693859
15.69386
15.69386
15.693859
15.693859
15.693859
15.69386
15.69386
15.69386
15.69386
15.69386
15.69386
15.69386
15.69386
15.69386
15.69386
15.69386
15.69386
15.69386
15.69386
15.69386
15.69386
15.69386
15.69386
15.69386
15.693861
15.69386
15.69386
15.69386
15.69386
15.69386
15.69386
15.69386
15.69386
15.693861
15.69386
15.69386
15.693861
15.693861
15.69386
15.69386
15.69386
15.693861
15.693861
15.69386
15.693861
15.693861
15.693861
15.693861
15.693861
15.693861
15.693861
15.693861
15.693861
15.693861
15.693861