/*--------------------------------*- C++ -*----------------------------------*\
| =========                 |                                                 |
| \\      /  F ield         | OpenFOAM: The Open Source CFD Toolbox           |
|  \\    /   O peration     | Version:  2406                                  |
|   \\  /    A nd           | Website:  www.openfoam.com                      |
|    \\/     M anipulation  |                                                 |
\*---------------------------------------------------------------------------*/
FoamFile
{
    version     2.0;
    format      ascii;
    arch        "LSB;label=32;scalar=64";
    class       surfaceScalarField;
    location    "12.5";
    object      phi;
}
// * * * * * * * * * * * * * * * * * * * * * * * * * * * * * * * * * * * * * //

dimensions      [0 3 -1 0 0 0 0];

oriented        oriented;

internalField   nonuniform List<scalar> 
101088
(
-6.6026685e-05
6.5850136e-06
4.0294984e-06
-4.4177123e-06
-0.00017316408
3.7657615e-05
1.2643322e-05
-2.6888908e-05
-0.00033450285
0.00011537343
1.7752871e-05
-8.5662731e-05
-0.00054929018
0.00026938085
3.6966075e-06
-0.00020707152
-0.00078215013
0.00049821803
-5.1249557e-05
-0.00039813041
-0.0009666406
0.0007382198
-0.00015097542
-0.00061474488
-0.0010553453
0.00090937199
-0.00026096393
-0.00078373487
-0.0010607043
0.00097936625
-0.00032916672
-0.00085986862
0.00094915137
-0.00032841824
-0.00084720272
-0.0010214399
-7.9851065e-05
7.7547013e-06
5.2877677e-06
-0.00020665044
4.5649663e-05
1.6236208e-05
-0.00039306449
0.00014073141
2.1729567e-05
-0.00063164877
0.00032531696
7.6097321e-07
-0.0008721063
0.00058652626
-7.2934099e-05
-0.0010375291
0.00084318923
-0.00019962967
-0.001088098
0.001016789
-0.00033365081
-0.0010511975
0.0010877685
-0.00041430058
0.0010601528
-0.00041498902
-0.00098578768
-9.4323523e-05
8.0992975e-06
6.8962133e-06
-0.00024121492
4.992149e-05
2.1120584e-05
-0.00045125029
0.00015746684
2.8584862e-05
-0.00070892705
0.0003659897
2.4000876e-06
-0.00095197823
0.0006524179
-8.8007074e-05
-0.0010978224
0.00092076956
-0.00023805726
-0.0011160567
0.0010996137
-0.00039122822
-0.0010473663
0.0011809816
-0.00048089814
0.0011671657
-0.00048234701
-0.00095731637
-0.00010868001
7.56868e-06
8.7662134e-06
-0.00027571112
4.9877997e-05
2.7175624e-05
-0.00050831118
0.00016290933
3.7904995e-05
-0.00078172271
0.00038487972
8.5508974e-06
-0.0010226064
0.00068577856
-9.5662808e-05
-0.0011499482
0.00096362333
-0.00026509946
-0.0011442491
0.0011547689
-0.00043338411
-0.0010552012
0.0012573969
-0.00052970851
0.0012637676
-0.00053155904
-0.00094707434
-0.00012192886
5.469303e-06
1.0907751e-05
-0.00030677846
4.2902582e-05
3.4529176e-05
-0.00055826604
0.00015185801
5.0197896e-05
-0.00084431707
0.00037522431
2.0417057e-05
-0.0010841661
0.00068162741
-9.4411441e-05
-0.0012006491
0.00097047623
-0.00027957357
-0.0011829681
0.0011832571
-0.00046014169
-0.0010842978
0.0013159261
-0.00056167154
0.0013452603
-0.00056318898
-0.00096578178
-0.00013458354
1.8129451e-06
1.3368701e-05
-0.00033765447
2.8871464e-05
4.3726762e-05
-0.00060898643
0.00012367719
6.592088e-05
-0.00091131704
0.00033608204
3.9359748e-05
-0.0011582423
0.00064114256
-8.2963925e-05
-0.0012740559
0.00094236946
-0.0002808573
-0.0012546255
0.0011837666
-0.00047063023
-0.0011523503
0.0013492802
-0.00057520098
0.001401137
-0.00057643046
-0.0010261881
-0.00014634603
-3.3444757e-06
1.6190296e-05
-0.0003678938
8.142181e-06
5.4648249e-05
-0.00066280196
7.8961348e-05
8.7261802e-05
-0.00098828109
0.00026845101
6.7417256e-05
-0.001252905
0.00056512324
-5.7634881e-05
-0.0013816704
0.00087982387
-0.0002642483
-0.0013714999
0.0011519477
-0.00046047062
-0.0012722173
0.0013479711
-0.000567214
0.0014181805
-0.00056899238
-0.0011406924
-0.00015777014
-9.3242075e-06
1.9470015e-05
-0.00040070918
-1.6675658e-05
6.7909904e-05
-0.00072974474
2.347513e-05
0.00011611311
-0.0010938877
0.00018027019
0.00010655742
-0.0013958366
0.00045996907
-1.4802168e-05
-0.0015541642
0.00078222167
-0.00022549777
-0.0015625145
0.0010771713
-0.00042515603
-0.001467664
0.0012927413
-0.00053328786
0.0013730462
-0.00053703119
-0.0013270986
-0.000169911
-1.4244748e-05
2.3202951e-05
-0.00044151523
-3.8525425e-05
8.3610757e-05
-0.00082235933
-2.7986251e-05
0.00015079729
-0.0012511861
8.9906995e-05
0.00015708894
-0.0016169935
0.00033751704
4.7211112e-05
-0.0018224465
0.00064670852
-0.00016129725
-0.0018544486
0.00094005348
-0.00036007258
-0.0017591274
0.0011528121
-0.00046839967
0.001230862
-0.00047626183
-0.0015988769
-0.00018323632
-1.5398101e-05
2.7144383e-05
-0.00049278346
-4.7085617e-05
0.00010063394
-0.00094558781
-5.5687246e-05
0.00018901745
-0.00147227
2.0625026e-05
0.00022145027
-0.0019272398
0.00021282065
0.00012412571
-0.0021932068
0.00046902528
-7.4310677e-05
-0.0022479002
0.0007164072
-0.0002665072
-0.0021418859
0.00089264269
-0.00037322138
0.00095440085
-0.00038751545
-0.001948327
-0.00019675122
-1.0309036e-05
3.0646499e-05
-0.0005497467
-3.2669572e-05
0.00011598944
-0.0010847489
-4.3332661e-05
0.00022447649
-0.0017223346
-7.175202e-06
0.00028257224
-0.0022735296
0.00010005958
0.00019875342
-0.0026010414
0.0002490533
1.909526e-05
-0.0026722602
0.00039404075
-0.00016161356
-0.0025466301
0.00049524777
-0.00026506166
0.00052925665
-0.00028714885
-0.0023127429
-0.000206016
-1.7441174e-10
3.2787239e-05
-0.00058936135
-7.5629264e-10
0.00012550341
-0.0011810793
-1.9914428e-09
0.00024684433
-0.0018965449
-3.5243312e-09
0.00032129508
-0.0025152409
-4.8409276e-09
0.00024869111
-0.002883576
-5.1400241e-09
8.3761471e-05
-0.0029626862
-4.8256037e-09
-8.7238052e-05
-0.002820691
-4.5616543e-09
-0.00018829961
-4.7167247e-09
-0.00021593915
-0.0025578829
-0.00020601582
1.0308683e-05
3.2787228e-05
-0.00058936142
3.2667988e-05
0.00012550336
-0.001181079
4.3328605e-05
0.00024684423
-0.0018965446
7.1686128e-06
0.00032129492
-0.0025152404
-0.00010006866
0.0002486909
-0.0028835755
-0.00024906322
8.3761257e-05
-0.0029626862
-0.00039405035
-8.7238231e-05
-0.0028206914
-0.00049525676
-0.00018829976
-0.00052926564
-0.0002159393
-0.0025578837
-0.00019675111
1.5397827e-05
3.0646485e-05
-0.00054974687
4.7084138e-05
0.00011598936
-0.0010847483
5.5683726e-05
0.00022447631
-0.0017223348
-2.0630698e-05
0.00028257188
-0.0022735295
-0.00021282874
0.00019875299
-0.0026010413
-0.00046903445
1.9094748e-05
-0.0026722607
-0.00071641664
-0.000161614
-0.0025466315
-0.00089265149
-0.00026506203
-0.00095440903
-0.00028714923
-0.0023127447
-0.00018323698
1.424448e-05
2.7144356e-05
-0.00049278437
3.8524093e-05
0.00010063382
-0.00094558709
2.7982904e-05
0.00018901717
-0.0014722711
-8.9912467e-05
0.00022144973
-0.0019272399
-0.00033752441
0.00012412508
-0.0021932071
-0.00064671612
-7.4311312e-05
-0.0022479009
-0.00094006164
-0.00026650772
-0.0021418876
-0.0011528202
-0.0003732218
-0.0012308695
-0.00038751592
-0.0019483282
-0.0001699124
9.3237983e-06
2.3202925e-05
-0.00044151685
1.6674077e-05
8.3610646e-05
-0.00082235957
-2.3478367e-05
0.00015079703
-0.0012511878
-0.00018027548
0.00015708845
-0.0016169942
-0.00045997497
4.7210505e-05
-0.0018224481
-0.0007822269
-0.00016129786
-0.0018544499
-0.0010771774
-0.00036007309
-0.0017591293
-0.0012927487
-0.00046840006
-0.0013730545
-0.00047626227
-0.001598877
-0.000157771
3.3441855e-06
1.9469995e-05
-0.00040071012
-8.1430431e-06
6.7909817e-05
-0.00072974526
-7.8963504e-05
0.00011611289
-0.0010938892
-0.00026845498
0.00010655703
-0.0013958381
-0.00056512752
-1.4802708e-05
-0.0015541675
-0.00087982772
-0.00022549831
-0.0015625169
-0.0011519525
-0.0004251565
-0.0014676669
-0.0013479781
-0.00053328816
-0.0014181903
-0.00053703149
-0.0013270994
-0.00014634593
-1.8131917e-06
1.6190282e-05
-0.00036789415
-2.8872181e-05
5.464818e-05
-0.00066280335
-0.00012367912
8.7261634e-05
-0.00098828353
-0.00033608551
6.741692e-05
-0.0012529079
-0.00064114714
-5.7635341e-05
-0.0013816744
-0.00094237326
-0.00026424873
-0.0013715032
-0.0011837709
-0.000460471
-0.0012722218
-0.0013492865
-0.00056721422
-0.0014011466
-0.00056899259
-0.0011406958
-0.00013458369
-5.4693487e-06
1.3368692e-05
-0.00033765506
-4.2902889e-05
4.3726714e-05
-0.00060898734
-0.00015185908
6.5920753e-05
-0.00091132005
-0.00037522708
3.9359473e-05
-0.0011582449
-0.00068163103
-8.2964332e-05
-0.0012740594
-0.00097047876
-0.0002808577
-0.0012546291
-0.0011832604
-0.00047063056
-0.0011523551
-0.0013159317
-0.00057520117
-0.0013452683
-0.00057643065
-0.0010261927
-0.00012192855
-7.56881e-06
1.0907739e-05
-0.00030677779
-4.9878282e-05
3.4529122e-05
-0.00055826554
-0.00016290964
5.0197773e-05
-0.00084431792
-0.00038488078
2.0416815e-05
-0.0010841663
-0.00068577961
-9.4411775e-05
-0.001200651
-0.00096362515
-0.00027957387
-0.0011829707
-0.0011547708
-0.00046014194
-0.0010843004
-0.0012574018
-0.00056167169
-0.0012637745
-0.00056318912
-0.00096578439
-0.00010867991
-8.099324e-06
8.7662006e-06
-0.00027571112
-4.9921579e-05
2.7175572e-05
-0.00050831101
-0.0001574671
3.7904881e-05
-0.00078172242
-0.00036599085
8.5506932e-06
-0.0010226071
-0.00065241996
-9.5663068e-05
-0.0011499483
-0.00092077101
-0.0002650997
-0.0011442505
-0.0010996154
-0.0004333843
-0.001055203
-0.0011809851
-0.0005297087
-0.0011671714
-0.00053155922
-0.00094707783
-9.4323695e-05
-7.7547508e-06
6.8962008e-06
-0.00024121551
-4.5649794e-05
2.1120536e-05
-0.00045125061
-0.00014073169
2.8584761e-05
-0.00070892627
-0.00032531756
2.399917e-06
-0.00095197721
-0.00058652711
-8.8007311e-05
-0.0010978218
-0.00084318889
-0.0002380575
-0.0011160571
-0.0010167887
-0.00039122844
-0.0010473682
-0.00108777
-0.00048089827
-0.0010601586
-0.00048234715
-0.00095732027
-7.9851211e-05
-6.5850482e-06
5.2877583e-06
-0.00020665086
-3.7657668e-05
1.6236172e-05
-0.00039306462
-0.00011537344
2.1729488e-05
-0.00063164784
-0.00026938061
7.6083188e-07
-0.00087210474
-0.00049821771
-7.2934315e-05
-0.001037528
-0.00073821972
-0.00019962991
-0.0010880956
-0.00090937123
-0.00033365103
-0.0010511954
-0.00097936915
-0.00041430085
-0.00094915723
-0.00041498919
-0.00098578923
-6.6026685e-05
4.0294918e-06
-4.4177218e-06
-0.00017316389
1.2643296e-05
-2.6888916e-05
-0.00033450209
1.7752809e-05
-8.5662715e-05
-0.00054928964
3.6964919e-06
-0.00020707141
-0.00078215025
-5.124973e-05
-0.00039812974
-0.00096663997
-0.00015097565
-0.00061474251
-0.0010553454
-0.00026096416
-0.00078373232
-0.0010607036
-0.0003291669
-0.00085987006
-0.00032841843
-0.0008472045
-0.0010214395
1.2887677e-06
2.3963927e-07
3.8013209e-06
-1.300223e-06
5.4257069e-06
-3.1004599e-07
1.3439215e-05
-4.6227048e-06
1.343797e-05
-5.1063797e-06
2.2703338e-05
-7.8561399e-06
2.5973679e-05
-2.2606757e-05
1.8686704e-05
-4.918811e-06
4.2129313e-05
-6.5990345e-05
-1.7139182e-05
1.5724378e-05
6.1627815e-05
-0.0001418049
-9.2644422e-05
6.3975338e-05
8.6634379e-05
-0.00023420988
-0.00018453432
0.00013277421
0.00011715284
-0.00031067792
-0.00024767536
0.00019866781
-0.00034859822
-0.00025373416
0.00024216438
0.0001489022
2.0912398e-06
-1.269776e-06
4.7059637e-06
9.1554972e-06
-7.4302153e-06
1.6292114e-05
2.3032552e-05
-2.3627039e-05
2.6372942e-05
4.3458665e-05
-6.0537524e-05
1.8264566e-05
6.5929524e-05
-0.00013087559
-3.0521386e-05
8.6971657e-05
-0.00023501792
-0.00012745888
0.00010826674
-0.00034751648
-0.00024163905
0.00013294153
-0.00043113193
-0.00031852168
-0.00046455134
-0.00032723572
0.00016114064
3.2323147e-06
-3.3357453e-06
5.7299785e-06
1.4157897e-05
-1.6913552e-05
1.967857e-05
3.5412205e-05
-4.7608046e-05
3.1311666e-05
6.472378e-05
-0.00010781825
2.0369096e-05
9.2779337e-05
-0.00020768675
-3.9250899e-05
0.00011284481
-0.00033890107
-0.00015423954
0.00012765973
-0.00046710057
-0.00028645876
0.00014378486
-0.00055418437
-0.00037397004
-0.00058192855
-0.00038477149
0.00016358633
4.635761e-06
-5.9375362e-06
6.7322058e-06
2.0424531e-05
-2.8563994e-05
2.3037177e-05
5.0643036e-05
-7.6258491e-05
3.6336221e-05
9.0320788e-05
-0.0001621166
2.3170381e-05
0.00012418605
-0.00029160142
-4.5612635e-05
0.00014231595
-0.00044660165
-0.00017552882
0.00014950724
-0.00058588673
-0.00032178791
0.00015572259
-0.00067329918
-0.00041680887
-0.00069419977
-0.00042878739
0.00016522171
6.1640099e-06
-8.8772626e-06
7.6834556e-06
2.7369963e-05
-4.15198e-05
2.6279169e-05
6.742658e-05
-0.00010739802
4.1280983e-05
0.00011848762
-0.00021916973
2.6409684e-05
0.00015848104
-0.00037588666
-5.0120458e-05
0.00017461551
-0.00054987214
-0.00019243626
0.00017432624
-0.00069610392
-0.00034963505
0.00017083059
-0.00078176108
-0.00044971377
-0.00079474356
-0.00046192364
0.00017010932
7.9455551e-06
-1.2026053e-05
8.5719352e-06
3.5754394e-05
-5.4976836e-05
2.937499e-05
8.6912391e-05
-0.00013868844
4.6053004e-05
0.00015119181
-0.00027398838
2.9900002e-05
0.00019818984
-0.00045262902
-5.3219886e-05
0.00021250958
-0.000639073
-0.0002059761
0.0002051341
-0.00078749088
-0.00037186843
0.00019243067
-0.00086902148
-0.00047523692
-0.00087334739
-0.00048680911
0.00018141319
9.7080439e-06
-1.491863e-05
9.3748431e-06
4.4059816e-05
-6.6879305e-05
3.2199106e-05
0.00010711276
-0.00016503979
5.0560556e-05
0.00018450156
-0.00031754958
3.3590426e-05
0.00023838624
-0.00050917097
-5.4976869e-05
0.00025135631
-0.00069979247
-0.00021649789
0.00023839678
-0.00084559197
-0.00038941098
0.00021834127
-0.00092124001
-0.00049494024
-0.00091703694
-0.00050537988
0.00019841787
1.1245346e-05
-1.6820097e-05
1.0126561e-05
5.1497407e-05
-7.41337e-05
3.4912032e-05
0.00012676026
-0.00017939129
5.5201137e-05
0.00021568859
-0.00033795461
3.8034441e-05
0.00027633528
-0.00052974146
-5.4879062e-05
0.00028892939
-0.00071400444
-0.00022387976
0.00027242257
-0.00085145958
-0.00040278284
0.00024730361
-0.00091943239
-0.00050997678
-0.00090788234
-0.00051911542
0.00022023302
1.243636e-05
-1.6910234e-05
1.0857482e-05
5.7620376e-05
-7.3355418e-05
3.7648775e-05
0.00014332971
-0.00017451502
6.021115e-05
0.00024165044
-0.00032264031
4.3454966e-05
0.00030815287
-0.00049632314
-5.2710705e-05
0.00032126224
-0.00066048774
-0.0002279242
0.00030359573
-0.00078184493
-0.00041202174
0.00027603502
-0.00083952849
-0.00052074257
-0.00082337122
-0.00052882383
0.00024408618
1.2838794e-05
-1.4161801e-05
1.1557373e-05
6.0389339e-05
-6.0641006e-05
4.0369008e-05
0.00015159829
-0.0001422223
6.5515102e-05
0.00025906949
-0.00025847441
4.9814074e-05
0.0003289922
-0.00039332776
-4.8792788e-05
0.00034397879
-0.00052073387
-0.0002290518
0.00032778558
-0.00061470096
-0.00041745822
0.00030040254
-0.00065781909
-0.00052754701
-0.00064161132
-0.00053486943
0.00026599707
1.2591573e-05
-8.2500149e-06
1.2143004e-05
6.0187873e-05
-3.4956331e-05
4.2708672e-05
0.00015316346
-8.1052535e-05
7.0330911e-05
0.00026677625
-0.00014552393
5.6009093e-05
0.00033693983
-0.00022032872
-4.4409245e-05
0.00035461376
-0.00029111264
-0.00022819981
0.00034135268
-0.00034343728
-0.00041961565
0.00031592189
-0.00036676665
-0.0005306826
-0.00035641657
-0.00053756504
0.0002811435
1.2025077e-05
4.4388434e-11
1.2511986e-05
5.8346638e-05
2.1948075e-10
4.4225696e-05
0.00015055707
4.8350712e-10
7.3581183e-05
0.00026596602
9.724871e-10
6.0361077e-05
0.00033551669
1.7129247e-09
-4.1189665e-05
0.00035522915
2.482417e-09
-0.00022706544
0.0003448127
2.9551155e-09
-0.00042026109
0.00032169714
2.8541426e-09
-0.00053195323
2.203183e-09
-0.00053863033
0.00028796928
1.2025156e-05
8.2500824e-06
1.2511983e-05
5.8346542e-05
3.4956667e-05
4.4225684e-05
0.00015055701
8.105337e-05
7.3581163e-05
0.00026596594
0.0001455259
6.0361056e-05
0.00033551674
0.00022033215
-4.1189675e-05
0.00035522921
0.0002911174
-0.00022706544
0.00034481264
0.00034344274
-0.00042026107
0.00032169699
0.00036677197
-0.00053195321
0.00035642091
-0.00053863034
0.00028796897
1.2591632e-05
1.416187e-05
1.2143e-05
6.0187684e-05
6.0641272e-05
4.2708658e-05
0.00015316358
0.00014222308
7.0330883e-05
0.00026677589
0.00025847648
5.6009049e-05
0.00033693968
0.00039333111
-4.4409293e-05
0.00035461369
0.00052073818
-0.00022819986
0.00034135247
0.00061470555
-0.00041961568
0.00031592157
0.00065782363
-0.00053068264
0.00064161544
-0.00053756511
0.00028114311
1.2838455e-05
1.6910307e-05
1.1557365e-05
6.0388839e-05
7.335565e-05
4.0368981e-05
0.00015159843
0.00017451573
6.5515052e-05
0.00025906846
0.00032264202
4.9814003e-05
0.0003289915
0.00049632589
-4.879284e-05
0.00034397834
0.00066049162
-0.00022905182
0.00032778533
0.00078184908
-0.00041745821
0.00030040234
0.00083953243
-0.00052754701
0.00082337467
-0.00053486951
0.00026599749
1.2435614e-05
1.6820047e-05
1.0857474e-05
5.7619397e-05
7.4133671e-05
3.7648747e-05
0.00014332944
0.00017939161
6.0211098e-05
0.00024164902
0.00033795559
4.3454891e-05
0.00030815202
0.00052974381
-5.2710762e-05
0.00032126138
0.00071400853
-0.00022792422
0.00030359546
0.00085146411
-0.00041202174
0.00027603488
0.00091943607
-0.00052074258
0.00090788441
-0.0005288239
0.00024408716
1.1244854e-05
1.4918567e-05
1.0126554e-05
5.1496874e-05
6.6879371e-05
3.4912008e-05
0.00012676012
0.00016504018
5.5201093e-05
0.00021568773
0.00031755052
3.8034374e-05
0.00027633463
0.00050917346
-5.4879129e-05
0.00028892815
0.00069979683
-0.0002238798
0.00027242212
0.00084559687
-0.00040278286
0.00024730316
0.00092124335
-0.00050997679
0.00091703751
-0.00051911544
0.00022023349
9.7079939e-06
1.2025999e-05
9.3748379e-06
4.4059564e-05
5.4976905e-05
3.2199085e-05
0.00010711244
0.00013868866
5.0560516e-05
0.00018450081
0.00027398911
3.3590357e-05
0.00023838539
0.00045263105
-5.4976958e-05
0.00025135483
0.00063907698
-0.00021649797
0.00023839598
0.00078749558
-0.00038941104
0.0002183402
0.00086902458
-0.00049494024
0.0008733477
-0.00050537986
0.00019841734
7.9455462e-06
8.8772753e-06
8.5719325e-06
3.5754348e-05
4.1520006e-05
2.9374977e-05
8.6912645e-05
0.00010739847
4.6052974e-05
0.00015119112
0.00021917046
2.9899929e-05
0.0001981893
0.00037588858
-5.3220004e-05
0.00021250848
0.00054987607
-0.00020597624
0.00020513317
0.00069610847
-0.00037186854
0.00019242966
0.00078176414
-0.00047523696
0.00079474445
-0.00048680911
0.00018141287
6.164155e-06
5.9375128e-06
7.6834508e-06
2.7370279e-05
2.8564094e-05
2.6279147e-05
6.7426988e-05
7.6258901e-05
4.1280935e-05
0.0001184875
0.00016211738
2.6409599e-05
0.00015848128
0.00029160365
-5.0120581e-05
0.00017461474
0.00044660523
-0.0001924364
0.00017432553
0.00058589127
-0.00034963514
0.00017083063
0.00067330222
-0.0004497138
0.00069420044
-0.00046192365
0.00017011053
4.6357969e-06
3.3357485e-06
6.7321988e-06
2.0424516e-05
1.6913714e-05
2.3037149e-05
5.0643234e-05
4.7608585e-05
3.6336162e-05
9.0321441e-05
0.00010781923
2.3170283e-05
0.00012418603
0.00020768858
-4.5612774e-05
0.00014231599
0.00033890458
-0.00017552896
0.0001495071
0.00046710453
-0.00032178801
0.00015572293
0.00055418751
-0.00041680893
0.00058192861
-0.00042878745
0.00016522288
3.2321863e-06
1.2697692e-06
5.7299703e-06
1.415745e-05
7.430309e-06
1.9678538e-05
3.5411753e-05
2.3627363e-05
3.1311598e-05
6.4723962e-05
6.0538251e-05
2.036899e-05
9.2779407e-05
0.00013087724
-3.9251039e-05
0.00011284466
0.00023502161
-0.00015423969
0.00012765942
0.00034752081
-0.00028645888
0.00014378408
0.00043113491
-0.00037397011
0.00046455024
-0.00038477156
0.00016358675
2.0911003e-06
-2.3961892e-07
4.7059576e-06
9.1550213e-06
3.1022099e-07
1.6292089e-05
2.303198e-05
5.1069208e-06
2.6372889e-05
4.3458591e-05
2.2608062e-05
1.8264476e-05
6.5929725e-05
6.5992919e-05
-3.0521518e-05
8.6971403e-05
0.00014180888
-0.00012745905
0.00010826718
0.00023421425
-0.00024163921
0.00013294223
0.00031067977
-0.00031852185
0.00034859643
-0.00032723582
0.00016114075
1.2887312e-06
3.801317e-06
-1.3002027e-06
5.4256175e-06
1.3439199e-05
-4.6225686e-06
1.3437987e-05
2.2703301e-05
-7.8557383e-06
2.5973488e-05
1.8686637e-05
-4.9178544e-06
4.2129116e-05
-1.7139278e-05
1.5726511e-05
6.1628913e-05
-9.2644534e-05
6.3979704e-05
8.6635301e-05
-0.00018453445
0.00013277875
0.00011715425
-0.00024767547
0.00019867015
-0.00025373424
0.00024216461
0.00014890281
5.6289726e-08
-7.3084883e-07
3.7543757e-06
7.2150606e-07
6.1829349e-07
-2.9113877e-06
1.2855939e-05
2.9326693e-06
1.7092721e-06
-6.3317145e-06
2.1393055e-05
6.551025e-06
2.0550649e-06
-1.0482064e-05
1.7477204e-05
1.1345703e-05
1.3484782e-08
-1.3834223e-05
-1.7482476e-05
1.6218874e-05
-4.5316993e-06
-1.4312241e-05
-9.3063391e-05
1.927615e-05
-9.3136214e-06
-1.1206244e-05
-0.00018759503
1.9048875e-05
-1.1377623e-05
-6.6836646e-06
-0.00025524831
1.632044e-05
-4.7753148e-06
-0.00026444115
1.2918923e-05
-8.8144539e-06
6.8858558e-08
-7.8450169e-07
4.6907609e-06
7.5554099e-07
-3.0387661e-06
1.5732792e-05
1.9872326e-06
-6.3586138e-06
2.5168024e-05
2.052089e-06
-9.8792799e-06
1.7596501e-05
-9.9452484e-07
-1.1612508e-05
-2.9697087e-05
-7.0238181e-06
-9.3996435e-06
-0.00012634232
-1.3182703e-05
-3.4036427e-06
-0.00024328287
-1.5999931e-05
2.858816e-06
-0.00032524726
4.8536528e-06
-0.00033835856
-1.4506521e-05
9.3596942e-08
-8.8305319e-07
5.7349473e-06
1.0064504e-06
-3.3555909e-06
1.9082523e-05
2.6677483e-06
-6.8162092e-06
3.0107772e-05
3.0288347e-06
-9.9661212e-06
2.0094461e-05
-2.2284871e-07
-1.0171733e-05
-3.7440147e-05
-7.0028813e-06
-5.1514159e-06
-0.00015170798
-1.4207505e-05
3.9254318e-06
-0.00028658328
-1.8214056e-05
1.2294726e-05
-0.00037939935
1.530083e-05
-0.00039544239
-1.7990482e-05
1.2244965e-07
-1.0160358e-06
6.7427244e-06
1.3163937e-06
-3.8370522e-06
2.2324609e-05
3.5402707e-06
-7.6872961e-06
3.4983069e-05
4.5010271e-06
-1.0789119e-05
2.3032086e-05
1.5623408e-06
-9.7096721e-06
-4.3136027e-05
-5.4347124e-06
-1.9020627e-06
-0.00017178136
-1.3423306e-05
1.0412991e-05
-0.00032028666
-1.8593023e-05
2.1143706e-05
-0.00042048822
2.5436379e-05
-0.0004381862
-1.9329939e-05
1.5523731e-07
-1.1709318e-06
7.6830921e-06
1.6945653e-06
-4.4418558e-06
2.5344606e-05
4.6019476e-06
-8.8989443e-06
3.9585132e-05
6.4157092e-06
-1.2285944e-05
2.6092667e-05
4.1524686e-06
-1.0267236e-05
-4.7300089e-05
-2.7204031e-06
6.9868199e-08
-0.00018753512
-1.130142e-05
1.5469874e-05
-0.00034611091
-1.7569265e-05
2.851207e-05
-0.00045081432
3.4090932e-05
-0.00046891946
-1.9227927e-05
2.0820279e-07
-1.3346105e-06
8.527385e-06
2.1891267e-06
-5.1038655e-06
2.8055953e-05
5.9056391e-06
-1.0298168e-05
4.3735489e-05
8.7685573e-06
-1.422249e-05
2.8973773e-05
7.3912043e-06
-1.1663227e-05
-5.0446802e-05
8.1285976e-07
6.150706e-07
-0.00019994311
-8.3371493e-06
1.8509173e-05
-0.00036575793
-1.5756125e-05
3.340858e-05
-0.00047271445
3.9998454e-05
-0.00049010476
-1.8367971e-05
2.7504228e-07
-1.4748617e-06
9.2400632e-06
2.7252777e-06
-5.6943593e-06
3.0339381e-05
7.3546427e-06
-1.1604229e-05
4.7237254e-05
1.1454884e-05
-1.6188094e-05
3.1455857e-05
1.1173941e-05
-1.3564351e-05
-5.2794653e-05
4.9023259e-06
-2.012679e-07
-0.00020940971
-4.9010321e-06
1.9070562e-05
-0.00038016931
-1.3572698e-05
3.4949436e-05
-0.00048780956
4.2084717e-05
-0.0005038028
-1.7236138e-05
3.5119344e-07
-1.547409e-06
9.8479797e-06
3.2900242e-06
-6.0260667e-06
3.2304865e-05
8.9475759e-06
-1.2394452e-05
5.0333708e-05
1.4401852e-05
-1.7508796e-05
3.3900902e-05
1.5207159e-05
-1.5214503e-05
-5.4034363e-05
9.1562142e-06
-1.9975375e-06
-0.00021603242
-1.401126e-06
1.7036679e-05
-0.00039019196
-1.1405458e-05
3.2673503e-05
-0.00049769665
3.9774434e-05
-0.00051203927
-1.6171372e-05
4.3544717e-07
-1.4854748e-06
1.0360286e-05
3.8961523e-06
-5.8257811e-06
3.3987898e-05
1.0689549e-05
-1.2081431e-05
5.3104729e-05
1.7523002e-05
-1.7292895e-05
3.6406015e-05
1.936165e-05
-1.5600169e-05
-5.4163845e-05
1.3408615e-05
-3.8632281e-06
-0.00022010558
1.9279437e-06
1.3079266e-05
-0.00039658392
-9.4216012e-06
2.6919346e-05
-0.00050363884
3.3234061e-05
-0.00051642985
-1.5275148e-05
5.20449e-07
-1.2163945e-06
1.076795e-05
4.5143747e-06
-4.7930965e-06
3.5342472e-05
1.2518935e-05
-1.0004261e-05
5.5433351e-05
2.0783916e-05
-1.4478075e-05
3.8734792e-05
2.3415236e-05
-1.3441952e-05
-5.3582231e-05
1.7279506e-05
-4.5449874e-06
-0.00022223433
4.8259835e-06
8.2879655e-06
-0.00040021341
-7.7514202e-06
1.8713716e-05
-0.00050676379
2.3478612e-05
-0.0005182938
-1.4571491e-05
5.9291399e-07
-7.0149184e-07
1.1035215e-05
5.050162e-06
-2.7665581e-06
3.6225047e-05
1.4192943e-05
-5.7877626e-06
5.6971761e-05
2.3817646e-05
-8.4149475e-06
4.0321653e-05
2.6889909e-05
-7.910016e-06
-5.3013207e-05
2.0404071e-05
-3.0429912e-06
-0.00022321573
7.0602003e-06
3.9390588e-06
-0.00040192261
-6.4789353e-06
9.5426789e-06
-0.0005079722
1.2081688e-05
-0.00051861466
-1.4032359e-05
6.2213209e-07
-1.9051207e-11
1.1188402e-05
5.3288871e-06
-4.1434961e-11
3.6752667e-05
1.5183646e-05
-6.3088943e-11
5.7939031e-05
2.5696271e-05
-1.4926816e-11
4.1433859e-05
2.8941481e-05
1.6535001e-10
-5.2344691e-05
2.2172005e-05
4.2454835e-10
-0.00022333891
8.3222047e-06
5.9202127e-10
-0.00040247242
-5.7551131e-06
4.7547797e-10
-0.00050833353
1.5945758e-10
-0.00051857416
-1.3729824e-05
6.2214856e-07
7.0144646e-07
1.11884e-05
5.3288698e-06
2.7664491e-06
3.675266e-05
1.5183656e-05
5.7876055e-06
5.793902e-05
2.5696265e-05
8.414947e-06
4.1433848e-05
2.8941515e-05
7.9104152e-06
-5.2344693e-05
2.2172026e-05
3.0439063e-06
-0.0002233389
8.3221359e-06
-3.937861e-06
-0.0004024724
-5.7552571e-06
-9.5417268e-06
-0.00050833351
-1.2081334e-05
-0.00051857415
-1.3730031e-05
5.9290974e-07
1.2163514e-06
1.1035213e-05
5.0501029e-06
4.7929896e-06
3.6225042e-05
1.4192968e-05
1.0004132e-05
5.6971749e-05
2.38175e-05
1.4478174e-05
4.0321635e-05
2.6889796e-05
1.3442495e-05
-5.3013228e-05
2.0403914e-05
4.5460584e-06
-0.00022321575
7.0598697e-06
-8.2867046e-06
-0.00040192262
-6.4793877e-06
-1.8712757e-05
-0.00050797221
-2.3478228e-05
-0.00051861467
-1.4032833e-05
5.2035894e-07
1.4854267e-06
1.0767945e-05
4.5142781e-06
5.8256707e-06
3.5342457e-05
1.2519015e-05
1.2081314e-05
5.5433324e-05
2.0783659e-05
1.7292993e-05
3.873476e-05
2.3415014e-05
1.5600797e-05
-5.358225e-05
1.7279168e-05
3.8645819e-06
-0.00022223432
4.8254876e-06
-1.3077706e-05
-0.00040021339
-7.7520309e-06
-2.6918228e-05
-0.00050676377
-3.3233711e-05
-0.0005182938
-1.457194e-05
4.3529458e-07
1.5473279e-06
1.0360282e-05
3.8959743e-06
6.0258866e-06
3.3987885e-05
1.0689533e-05
1.2394246e-05
5.3104704e-05
1.7522695e-05
1.7508807e-05
3.6405982e-05
1.9361386e-05
1.5215299e-05
-5.4163871e-05
1.3408054e-05
1.999369e-06
-0.00022010559
1.9273007e-06
-1.7034576e-05
-0.00039658392
-9.4222931e-06
-3.2672151e-05
-0.00050363883
-3.9774307e-05
-0.00051642985
-1.5275511e-05
3.5111952e-07
1.4747814e-06
9.8479779e-06
3.2899613e-06
5.6942008e-06
3.2304856e-05
8.9475991e-06
1.1604063e-05
5.0333691e-05
1.4401723e-05
1.6188228e-05
3.3900873e-05
1.5206893e-05
1.3565475e-05
-5.4034398e-05
9.1554131e-06
2.035767e-07
-0.00021603245
-1.4019308e-06
-1.9068009e-05
-0.00039019199
-1.1406245e-05
-3.4947998e-05
-0.00049769665
-4.2084972e-05
-0.00051203927
-1.617176e-05
2.7502563e-07
1.3345306e-06
9.2400623e-06
2.725234e-06
5.1037135e-06
3.0339374e-05
7.354634e-06
1.0298013e-05
4.7237239e-05
1.1454766e-05
1.4222711e-05
3.1455826e-05
1.1173576e-05
1.1664479e-05
-5.2794706e-05
4.9014368e-06
-6.1250005e-07
-0.00020940978
-4.9020062e-06
-1.850635e-05
-0.00038016938
-1.35736e-05
-3.3407196e-05
-0.00048780959
-3.9999092e-05
-0.00050380278
-1.723645e-05
2.0821082e-07
1.1708809e-06
8.5273857e-06
2.1891884e-06
4.4417922e-06
2.8055953e-05
5.9058099e-06
8.8989281e-06
4.3735481e-05
8.7683836e-06
1.2286288e-05
2.8973738e-05
7.3908152e-06
1.0268747e-05
-5.0446884e-05
8.120015e-07
-6.6946348e-08
-0.00019994323
-8.3382627e-06
-1.5466805e-05
-0.00036575805
-1.5757044e-05
-2.8510795e-05
-0.00047271451
-3.4092166e-05
-0.00049010474
-1.8367865e-05
1.552788e-07
1.0159843e-06
7.6830903e-06
1.6946532e-06
3.8369948e-06
2.5344596e-05
4.6020365e-06
7.6873459e-06
3.9585107e-05
6.4155523e-06
1.0789608e-05
2.6092612e-05
4.15222e-06
9.7114263e-06
-4.7300186e-05
-2.7211863e-06
1.9050862e-06
-0.00018753525
-1.1302507e-05
-1.0409694e-05
-0.00034611102
-1.7570007e-05
-2.1142506e-05
-0.00045081435
-2.5438676e-05
-0.00046891944
-1.9227262e-05
1.2244253e-07
8.8301862e-07
6.742721e-06
1.3163251e-06
3.3555993e-06
2.2324594e-05
3.5401915e-06
6.8164119e-06
3.4983034e-05
4.5009511e-06
9.9668341e-06
2.3032019e-05
1.5619144e-06
1.0173549e-05
-4.3136136e-05
-5.435265e-06
5.1545709e-06
-0.00017178149
-1.3424101e-05
-3.9221162e-06
-0.00032028676
-1.8593674e-05
-1.2293416e-05
-0.00042048825
-1.5304113e-05
-0.00043818618
-1.9329455e-05
9.3534071e-08
7.844915e-07
5.7349433e-06
1.0062073e-06
3.0388566e-06
1.9082507e-05
2.6673489e-06
6.358971e-06
3.0107735e-05
3.0284179e-06
9.8802236e-06
2.0094396e-05
-2.2353263e-07
1.1614527e-05
-3.7440248e-05
-7.003725e-06
9.4029e-06
-0.00015170809
-1.4208292e-05
3.4069213e-06
-0.00028658337
-1.8214695e-05
-2.8576946e-06
-0.00037939938
-4.8573529e-06
-0.00039544239
-1.7990726e-05
6.8781705e-08
7.3087631e-07
4.6907591e-06
7.5525274e-07
2.9115929e-06
1.5732784e-05
1.9867071e-06
6.3323128e-06
2.5168005e-05
2.0514191e-06
1.0483428e-05
1.7596462e-05
-9.9547987e-07
1.383677e-05
-2.9697157e-05
-7.0252437e-06
1.4315837e-05
-0.00012634242
-1.318417e-05
1.1209848e-05
-0.00024328296
-1.6001384e-05
6.6847381e-06
-0.00032524734
4.7719195e-06
-0.0003383586
-1.4508363e-05
5.6253405e-08
3.7543759e-06
7.2154619e-07
6.1817399e-07
1.2855939e-05
2.9328878e-06
1.7090676e-06
2.1393055e-05
6.5516233e-06
2.0546496e-06
1.7477199e-05
1.134705e-05
1.2813057e-08
-1.7482491e-05
1.6221532e-05
-4.5325172e-06
-9.3063416e-05
1.9280434e-05
-9.3152719e-06
-0.00018759507
1.9053332e-05
-1.1380401e-05
-0.00025524836
1.6322792e-05
-0.00026444118
1.2916733e-05
-8.8180884e-06
-5.1016813e-08
-2.8306416e-07
3.9622994e-06
1.2615733e-07
-4.4975577e-07
-1.3197955e-06
1.3939767e-05
6.346942e-07
-1.3408152e-06
-3.4831638e-06
2.3979228e-05
1.788004e-06
-2.2982121e-06
-7.4358016e-06
2.1796841e-05
4.0734572e-06
-2.5162443e-06
-1.3706692e-05
-1.1558841e-05
8.0009132e-06
-1.2803576e-06
-2.2189346e-05
-8.5824741e-05
1.3714603e-05
1.6460919e-06
-3.1622419e-05
-0.00017939155
2.0492318e-05
5.8769191e-06
-3.9669374e-05
-0.00024663346
2.6823532e-05
-4.3657181e-05
-0.00025639491
3.1165457e-05
1.0322281e-05
-6.3259248e-08
-4.4308687e-07
4.9140368e-06
-5.3313597e-07
-2.0351984e-06
1.6918038e-05
-1.5504637e-06
-5.2610066e-06
2.7963098e-05
-2.5694871e-06
-1.0913951e-05
2.2093473e-05
-2.6895709e-06
-1.9457007e-05
-2.382698e-05
-1.2560625e-06
-3.045404e-05
-0.00011951142
1.7905485e-06
-4.2136613e-05
-0.00023581556
5.9339713e-06