/*--------------------------------*- C++ -*----------------------------------*\
| =========                 |                                                 |
| \\      /  F ield         | OpenFOAM: The Open Source CFD Toolbox           |
|  \\    /   O peration     | Version:  2406                                  |
|   \\  /    A nd           | Website:  www.openfoam.com                      |
|    \\/     M anipulation  |                                                 |
\*---------------------------------------------------------------------------*/
FoamFile
{
    version     2.0;
    format      ascii;
    arch        "LSB;label=32;scalar=64";
    class       volVectorField;
    location    "12.5";
    object      U;
}
// * * * * * * * * * * * * * * * * * * * * * * * * * * * * * * * * * * * * * //

dimensions      [0 1 -1 0 0 0 0];

internalField   nonuniform List<vector> 
34560
(
(0.0031195359 0.00034851514 0.0067692559)
(-0.010655267 0.0031993286 0.026387943)
(-0.065096088 0.0091929818 0.058237749)
(-0.18629217 0.017533908 0.10441481)
(-0.38635429 0.025916905 0.15851894)
(-0.63962078 0.030880382 0.20656712)
(-0.89197085 0.034292575 0.2362241)
(-1.097531 0.041900257 0.24459349)
(-1.2347648 0.053911998 0.23717463)
(0.0054051391 0.0015482796 0.0087458207)
(-0.0088596196 0.0079201884 0.033269731)
(-0.073519984 0.019023984 0.071808907)
(-0.21868103 0.032984617 0.1252323)
(-0.45029549 0.04506325 0.18340222)
(-0.72677017 0.050971429 0.22967555)
(-0.98324474 0.054403937 0.25309213)
(-1.1766462 0.062840293 0.25418145)
(-1.2981196 0.07652971 0.2401953)
(0.0099686701 0.0015066992 0.0095043192)
(0.00013628924 0.0091626457 0.036514647)
(-0.0694599 0.023474405 0.079275472)
(-0.23387103 0.042235176 0.13795564)
(-0.49234965 0.058169035 0.19917646)
(-0.78623543 0.065770469 0.24415921)
(-1.0422473 0.070393224 0.26354306)
(-1.2237039 0.080633313 0.26060422)
(-1.3327055 0.096770713 0.24402284)
(0.016631094 0.0014869713 0.010262518)
(0.01612065 0.01008437 0.039325691)
(-0.05267474 0.0267426 0.085304593)
(-0.23060472 0.04896708 0.1473265)
(-0.5103093 0.068106626 0.21009799)
(-0.81736646 0.077583802 0.25353614)
(-1.0717383 0.084010017 0.27051813)
(-1.2432498 0.096119557 0.26615715)
(-1.3420745 0.11456943 0.24941286)
(0.025786903 0.00074495404 0.010540632)
(0.040529397 0.0088141657 0.040488008)
(-0.020513834 0.026450169 0.088218964)
(-0.20590017 0.051376077 0.15238535)
(-0.50229616 0.073031959 0.21561016)
(-0.81989103 0.085012889 0.25879182)
(-1.0734338 0.094235703 0.27587376)
(-1.2371862 0.10975379 0.27301712)
(-1.3253127 0.13028437 0.25812637)
(0.037788349 -0.00086742502 0.010438716)
(0.074672434 0.0047661891 0.040333162)
(0.029641562 0.021394015 0.088698406)
(-0.15629315 0.047815015 0.15424371)
(-0.46651171 0.072742296 0.2191286)
(-0.79378803 0.088500621 0.26390882)
(-1.0450687 0.10166143 0.28348148)
(-1.1992708 0.11996946 0.28370862)
(-1.2768192 0.14186308 0.27184347)
(0.053204339 -0.0033087299 0.010192889)
(0.12056947 -0.0019606249 0.039778509)
(0.1021081 0.01148585 0.088476824)
(-0.075108658 0.03777811 0.1557858)
(-0.39391313 0.065717959 0.22350329)
(-0.72864531 0.086216239 0.27218466)
(-0.97686743 0.10416677 0.29663678)
(-1.1214766 0.12560653 0.30168732)
(-1.1883499 0.14857818 0.29368654)
(0.072602697 -0.0065267306 0.0099671438)
(0.1805395 -0.011186008 0.039623226)
(0.20128969 -0.0029539163 0.089390605)
(0.044535501 0.021736893 0.16055667)
(-0.27635663 0.052467715 0.23398743)
(-0.61537954 0.078241289 0.28962313)
(-0.85860544 0.10113423 0.32121928)
(-0.992304 0.12517997 0.33208111)
(-1.0477343 0.14846543 0.32776795)
(0.095792199 -0.0097485935 0.010231561)
(0.25422002 -0.020887154 0.041112588)
(0.32659691 -0.018774894 0.094350197)
(0.20385496 0.0028253363 0.1731304)
(-0.11032605 0.034870555 0.25660589)
(-0.44755321 0.064825349 0.32253102)
(-0.6809978 0.091344432 0.36303746)
(-0.80061651 0.11639643 0.37973045)
(-0.84334402 0.13867339 0.37787479)
(0.12092357 -0.011509767 0.011224942)
(0.33559774 -0.026940623 0.045004114)
(0.4668799 -0.029754026 0.10559528)
(0.38987614 -0.012940543 0.19585811)
(0.093371844 0.01708231 0.29465707)
(-0.23214291 0.047436655 0.3733562)
(-0.44811424 0.073979996 0.42343922)
(-0.54929917 0.097233258 0.44479369)
(-0.57842937 0.11592447 0.44371003)
(0.14354044 -0.0098468319 0.012788998)
(0.40947446 -0.023874417 0.05056139)
(0.59668847 -0.028215305 0.12174137)
(0.56657065 -0.017563359 0.22509857)
(0.29656244 0.0046768847 0.34125892)
(-0.0077722447 0.028405 0.4328689)
(-0.19999324 0.048833334 0.49155164)
(-0.28056872 0.065545012 0.51586155)
(-0.29736298 0.078412191 0.51359197)
(0.15730329 -0.0038925733 0.01404045)
(0.4548442 -0.0095135352 0.055260426)
(0.67790817 -0.011503515 0.13355659)
(0.67885014 -0.0078383518 0.24675952)
(0.42989513 0.0005017306 0.37517764)
(0.14358957 0.009656138 0.47542484)
(-0.030500796 0.017472028 0.53939146)
(-0.097470657 0.023605285 0.56498291)
(-0.10592784 0.028366708 0.56089134)
(0.15730324 0.0038923599 0.014040466)
(0.45484403 0.0095128629 0.055260426)
(0.67790789 0.011502239 0.13355664)
(0.67884973 0.0078366469 0.24675955)
(0.42989466 -0.00050360588 0.37517768)
(0.14358912 -0.009657829 0.47542486)
(-0.030501174 -0.017473455 0.53939151)
(-0.097470998 -0.023606562 0.56498301)
(-0.1059282 -0.028368036 0.56089154)
(0.14354033 0.0098466584 0.012789017)
(0.40947404 0.023873804 0.050561453)
(0.59668774 0.028214136 0.12174148)
(0.56656954 0.01756181 0.22509869)
(0.29656119 -0.0046786005 0.34125911)
(-0.007773405 -0.028406582 0.43286903)
(-0.19999418 -0.048834729 0.4915518)
(-0.28056954 -0.065546256 0.51586184)
(-0.29736387 -0.07841347 0.51359246)
(0.12092342 0.011509601 0.011224964)
(0.33559721 0.02694005 0.045004422)
(0.46687892 0.029752938 0.10559557)
(0.38987462 0.012939109 0.19585846)
(0.093370189 -0.017083834 0.29465754)
(-0.23214441 -0.047438023 0.37335655)
(-0.44811545 -0.07398127 0.42343957)
(-0.54930016 -0.097234447 0.44479411)
(-0.57843051 -0.11592566 0.44371063)
(0.095792037 0.0097483902 0.010231595)
(0.25421949 0.020886612 0.041113029)
(0.32659593 0.018773918 0.094350718)
(0.20385346 -0.0028266389 0.17313106)
(-0.11032768 -0.034871791 0.25660657)
(-0.44755468 -0.064826378 0.32253155)
(-0.68099898 -0.091345446 0.36303799)
(-0.8006174 -0.1163975 0.37973096)
(-0.84334506 -0.13867453 0.37787541)
(0.072602557 0.0065265183 0.0099671782)
(0.18053904 0.011185534 0.039623576)
(0.20128883 0.0029531248 0.089391176)
(0.044534193 -0.0217379 0.16055739)
(-0.27635807 -0.052468549 0.23398809)
(-0.61538078 -0.078241944 0.28962378)
(-0.85860646 -0.10113491 0.32122)
(-0.99230467 -0.12518087 0.33208177)
(-1.047735 -0.1484666 0.32776874)
(0.053204224 0.0033085401 0.010192924)
(0.12056909 0.0019601501 0.039778696)
(0.10210739 -0.011486558 0.08847731)
(-0.075109721 -0.037778831 0.15578643)
(-0.39391428 -0.065718559 0.22350395)
(-0.72864625 -0.086216686 0.27218543)
(-0.9768682 -0.10416721 0.29663761)
(-1.1214771 -0.12560725 0.30168814)
(-1.1883504 -0.14857938 0.29368765)
(0.037788259 0.00086731082 0.010438843)
(0.074672136 -0.0047665935 0.040333373)
(0.029640998 -0.021394644 0.08869872)
(-0.15629401 -0.047815629 0.15424422)
(-0.4665127 -0.072742826 0.21912931)
(-0.79378879 -0.088500931 0.26390947)
(-1.0450693 -0.10166172 0.2834822)
(-1.1992712 -0.11997001 0.2837095)
(-1.2768197 -0.14186421 0.27184463)
(0.025786828 -0.00074502129 0.010540663)
(0.040529151 -0.0088144075 0.040488001)
(-0.020514296 -0.026450567 0.088219015)
(-0.20590089 -0.051376573 0.15238564)
(-0.50229697 -0.073032294 0.21561043)
(-0.81989161 -0.085013168 0.25879213)
(-1.0734342 -0.094235831 0.27587431)
(-1.2371866 -0.10975432 0.27301797)
(-1.3253131 -0.13028538 0.25812721)
(0.016631036 -0.0014870002 0.01026251)
(0.016120465 -0.01008443 0.039325705)
(-0.052675079 -0.02674278 0.085304672)
(-0.23060523 -0.048967452 0.14732662)
(-0.51030981 -0.068106881 0.21009815)
(-0.8173669 -0.07758409 0.25353635)
(-1.0717387 -0.084010255 0.2705185)
(-1.2432503 -0.096120247 0.26615793)
(-1.3420751 -0.11457027 0.24941359)
(0.0099686262 -0.0015067397 0.0095043413)
(0.00013615342 -0.0091627036 0.036514775)
(-0.069460143 -0.023474515 0.079275716)
(-0.23387141 -0.042235432 0.13795584)
(-0.49235014 -0.058169422 0.19917652)
(-0.78623588 -0.065770811 0.2441591)
(-1.0422478 -0.070393723 0.26354334)
(-1.2237043 -0.08063376 0.26060426)
(-1.3327061 -0.096771895 0.24402327)
(0.0054051036 -0.0015483277 0.0087458408)
(-0.0088597248 -0.0079202342 0.033269853)
(-0.073520166 -0.019024028 0.071809068)
(-0.21868131 -0.032984688 0.12523229)
(-0.45029587 -0.045063418 0.18340198)
(-0.72677053 -0.05097181 0.22967538)
(-0.98324517 -0.054404662 0.25309189)
(-1.1766469 -0.062841237 0.25418172)
(-1.2981204 -0.076531331 0.24019687)
(0.0031195051 -0.00034852256 0.0067692502)
(-0.010655359 -0.0031993277 0.026387923)
(-0.065096247 -0.0091929735 0.058237675)
(-0.18629239 -0.017533867 0.10441463)
(-0.38635458 -0.025916762 0.15851884)
(-0.63962124 -0.030880412 0.20656695)
(-0.89197144 -0.034292935 0.23622392)
(-1.0975316 -0.041901512 0.24459443)
(-1.2347659 -0.053913121 0.23717568)
(0.034022892 0.00066378721 0.00047164701)
(0.092141882 0.0016100319 0.00085838041)
(0.13366676 0.0019819077 -0.00015498331)
(0.13476968 0.00046987441 -0.0035563685)
(0.072579139 -0.004499709 -0.010043555)
(-0.058053653 -0.013722861 -0.018659752)
(-0.2310507 -0.026031966 -0.0269163)
(-0.40009948 -0.039013253 -0.032832392)
(-0.52404056 -0.051741721 -0.035604161)
(0.03882803 -0.00020215456 -0.0003656265)
(0.10321771 -0.001260685 -0.0019004179)
(0.14568141 -0.0033792404 -0.0054982519)
(0.13949246 -0.0078262716 -0.011932152)
(0.062190182 -0.016002297 -0.02121615)
(-0.08569452 -0.028226253 -0.031316155)
(-0.26974218 -0.042628344 -0.039238959)
(-0.43959434 -0.056502824 -0.043568154)
(-0.55972657 -0.068642476 -0.045146545)
(0.044077258 -0.0012668163 -0.0011762339)
(0.11593381 -0.0047535714 -0.0046247289)
(0.16114701 -0.0097945974 -0.010843376)
(0.15034452 -0.017373651 -0.020244093)
(0.061698228 -0.028415919 -0.031879947)
(-0.098764945 -0.042600837 -0.042630824)
(-0.28946013 -0.057691985 -0.04947881)
(-0.45819351 -0.071374741 -0.052173863)
(-0.57485967 -0.082964448 -0.05226927)
(0.049002045 -0.0027074853 -0.0020358647)
(0.12794304 -0.009324796 -0.0074881323)
(0.17601912 -0.01790794 -0.016436045)
(0.1616186 -0.028898312 -0.02884009)
(0.063761476 -0.04251215 -0.042622041)
(-0.10644892 -0.057844056 -0.053599797)
(-0.30138822 -0.072727358 -0.059064139)
(-0.4681598 -0.085704301 -0.060055232)
(-0.58175966 -0.096799024 -0.058791291)
(0.053516114 -0.0043976906 -0.002809497)
(0.13901385 -0.014616991 -0.010084313)
(0.18991591 -0.027154866 -0.021593637)
(0.17251165 -0.041665886 -0.036817829)
(0.06663085 -0.057475058 -0.052519117)
(-0.11196301 -0.073261987 -0.063527679)
(-0.31033459 -0.087359784 -0.067636709)
(-0.47522719 -0.099327132 -0.06712286)
(-0.58604181 -0.10967746 -0.064695026)
(0.057658967 -0.0062901153 -0.0033982772)
(0.14923397 -0.0204279 -0.012104499)
(0.2028878 -0.03708555 -0.02578441)
(0.18287509 -0.054912549 -0.043450464)
(0.069610589 -0.072310049 -0.060784799)
(-0.11691065 -0.087835331 -0.071707082)
(-0.31894268 -0.10067368 -0.074633912)
(-0.4826526 -0.11134091 -0.072965262)
(-0.59103939 -0.12065468 -0.069699835)
(0.061425207 -0.0082408798 -0.0037528625)
(0.15863542 -0.02624385 -0.013349823)
(0.21498008 -0.046687371 -0.028585145)
(0.19287713 -0.067192467 -0.048173587)
(0.072697034 -0.08537901 -0.066704261)
(-0.12179662 -0.09998822 -0.077474265)
(-0.32820538 -0.11122872 -0.079521166)
(-0.49175516 -0.1203908 -0.077142548)
(-0.59823142 -0.12837067 -0.073410335)
(0.065057808 -0.009850415 -0.0037382741)
(0.16799161 -0.03085625 -0.013421219)
(0.22751344 -0.053910618 -0.029310067)
(0.2040398 -0.075894018 -0.050111829)
(0.077253637 -0.093823089 -0.069292792)
(-0.12568601 -0.10701711 -0.079986595)
(-0.33751558 -0.11657825 -0.081625393)
(-0.50206525 -0.12417424 -0.079084649)
(-0.60711842 -0.1306572 -0.075310814)
(0.068735834 -0.010637217 -0.0033207657)
(0.17790488 -0.032834239 -0.012218493)
(0.24157515 -0.056486063 -0.027752182)
(0.21727622 -0.078129605 -0.048864077)
(0.084279972 -0.094580086 -0.068230338)
(-0.12719135 -0.10586854 -0.078827209)
(-0.34521524 -0.11368478 -0.080498999)
(-0.51174716 -0.11974361 -0.078333674)
(-0.61612864 -0.12459723 -0.074916577)
(0.072453137 -0.0099613641 -0.0025167549)
(0.18841162 -0.030357147 -0.0097550828)
(0.25733924 -0.051517315 -0.023813903)
(0.23298728 -0.070000129 -0.043980422)
(0.094097776 -0.083506817 -0.063623928)
(-0.12576542 -0.092543557 -0.074021575)
(-0.35006129 -0.098601478 -0.076119408)
(-0.51895808 -0.1030238 -0.074785262)
(-0.62304431 -0.10622033 -0.072054647)
(0.075803213 -0.0073101899 -0.0015819708)
(0.19821726 -0.022035233 -0.0068504847)
(0.27283638 -0.036957394 -0.018940573)
(0.24945923 -0.049489886 -0.037634062)
(0.10505148 -0.058481025 -0.057339642)
(-0.12177522 -0.064475873 -0.067345079)
(-0.35122575 -0.06840228 -0.070011099)
(-0.52213822 -0.071086825 -0.069664041)
(-0.62611177 -0.07282047 -0.067722845)
(0.077962221 -0.0027122018 -0.0009618859)
(0.20475267 -0.008127923 -0.0049117179)
(0.28358875 -0.013513822 -0.01556319)
(0.2615325 -0.017954836 -0.033057015)
(0.11348444 -0.021136689 -0.052685433)
(-0.11758998 -0.023270788 -0.06236365)
(-0.35017904 -0.024643743 -0.065412729)
(-0.52237218 -0.025532712 -0.065739779)
(-0.62633989 -0.026060365 -0.064329443)
(0.077962216 0.002712252 -0.00096188498)
(0.20475266 0.0081281005 -0.0049117276)
(0.28358873 0.013514113 -0.015563183)
(0.26153248 0.017955293 -0.033057023)
(0.11348443 0.021137322 -0.052685445)
(-0.11758999 0.023271549 -0.062363672)
(-0.35017905 0.024644554 -0.065412739)
(-0.52237219 0.025533486 -0.065739767)
(-0.62633993 0.026061017 -0.064329389)
(0.075803202 0.0073102429 -0.0015819742)
(0.19821722 0.022035403 -0.0068504903)
(0.27283632 0.036957684 -0.018940578)
(0.24945917 0.049490366 -0.037634079)
(0.10505143 0.058481665 -0.057339628)
(-0.12177526 0.064476605 -0.067345095)
(-0.35122576 0.068403017 -0.070011109)
(-0.52213825 0.07108753 -0.06966402)
(-0.62611189 0.072821099 -0.067722742)
(0.07245312 0.0099614147 -0.0025167651)
(0.18841157 0.030357313 -0.0097550119)
(0.25733917 0.051517584 -0.023813883)
(0.23298719 0.070000561 -0.043980368)
(0.094097729 0.083507406 -0.063623794)
(-0.12576544 0.092544244 -0.074021521)
(-0.35006129 0.09860214 -0.076119398)
(-0.51895811 0.10302442 -0.074785264)
(-0.62304447 0.10622089 -0.072054597)
(0.068735809 0.010637227 -0.0033207728)
(0.17790482 0.032834361 -0.012218321)
(0.24157507 0.05648627 -0.027752041)
(0.21727613 0.078129929 -0.048863872)
(0.084279932 0.094580624 -0.068230125)
(-0.12719136 0.10586923 -0.078827126)
(-0.34521523 0.11368545 -0.080498987)
(-0.51174718 0.11974416 -0.078333719)
(-0.61612878 0.12459767 -0.07491658)
(0.065057783 0.0098503882 -0.0037382847)
(0.16799155 0.030856329 -0.013421077)
(0.22751337 0.053910786 -0.02930992)
(0.20403973 0.075894312 -0.050111641)
(0.077253585 0.093823649 -0.069292671)
(-0.12568601 0.10701786 -0.079986543)
(-0.33751556 0.116579 -0.081625385)
(-0.50206523 0.12417477 -0.079084707)
(-0.60711846 0.13065748 -0.07531076)
(0.061425183 0.0082408352 -0.0037528642)
(0.15863536 0.026243861 -0.013349741)
(0.21498 0.046687478 -0.028585025)
(0.19287703 0.067192768 -0.048173476)
(0.072696949 0.085379562 -0.066704209)
(-0.12179664 0.099988971 -0.07747423)
(-0.32820536 0.11122951 -0.07952117)
(-0.49175509 0.12039134 -0.07714259)
(-0.59823137 0.12837084 -0.073410204)
(0.057658945 0.0062900832 -0.0033982514)
(0.14923391 0.020427882 -0.012104455)
(0.20288772 0.0370856 -0.025784426)
(0.18287497 0.054912794 -0.04345048)
(0.069610487 0.07231055 -0.060784816)
(-0.1169107 0.087836061 -0.071707163)
(-0.31894266 0.10067447 -0.074634005)
(-0.48265252 0.11134144 -0.072965319)
(-0.59103935 0.12065478 -0.069699802)
(0.053516088 0.0043976714 -0.0028094851)
(0.13901377 0.014616991 -0.010084334)
(0.1899158 0.027154926 -0.02159372)
(0.17251152 0.041666082 -0.036817901)
(0.06663071 0.057475537 -0.0525193)
(-0.11196312 0.073262642 -0.063527911)
(-0.31033463 0.087360546 -0.067636908)
(-0.47522718 0.099327574 -0.067122969)
(-0.5860418 0.10967749 -0.064695235)
(0.049002011 0.0027074777 -0.0020358771)
(0.12794294 0.0093248555 -0.0074881631)
(0.17601897 0.017908059 -0.016436121)
(0.16161841 0.028898496 -0.02884026)
(0.063761244 0.042512568 -0.042622312)
(-0.10644911 0.057844629 -0.053600125)
(-0.30138835 0.072727949 -0.059064429)
(-0.46815989 0.085704613 -0.060055468)
(-0.58175973 0.096799026 -0.058791725)
(0.044077217 0.0012668089 -0.0011762353)
(0.11593369 0.0047536494 -0.0046246945)
(0.16114682 0.0097947556 -0.010843344)
(0.15034427 0.017373884 -0.020244172)
(0.061697951 0.028416249 -0.031880225)
(-0.098765231 0.042601322 -0.042631268)
(-0.28946038 0.057692383 -0.049479245)
(-0.45819365 0.071375024 -0.052174597)
(-0.57485977 0.082964231 -0.052270033)
(0.038827988 0.00020215056 -0.00036562757)
(0.10321759 0.0012607683 -0.0019003922)
(0.14568122 0.0033794263 -0.0054982517)
(0.1394922 0.0078265767 -0.011932327)
(0.062189868 0.016002671 -0.021216609)
(-0.08569486 0.028226577 -0.03131675)
(-0.26974248 0.042628533 -0.039239844)
(-0.43959462 0.056502625 -0.043569022)
(-0.55972669 0.068641711 -0.045146806)
(0.034022854 -0.00066376446 0.00047162001)
(0.092141772 -0.0016099291 0.00085829221)
(0.13366657 -0.0019817063 -0.00015515524)
(0.13476941 -0.00046955886 -0.0035566833)
(0.072578825 0.0045001834 -0.010043965)
(-0.058053953 0.013723267 -0.018660564)
(-0.23105097 0.026032187 -0.026917391)
(-0.40009967 0.039012908 -0.032833253)
(-0.52404071 0.05174123 -0.035604559)
(0.016466178 -0.00047521815 -0.00043464835)
(0.03860265 -0.0013647808 -0.0012631198)
(0.040683824 -0.0021960521 -0.0020785473)
(0.00385087 -0.0028833386 -0.0026557114)
(-0.089139097 -0.0034411154 -0.0026429945)
(-0.24061873 -0.0039060677 -0.0017744556)
(-0.42603638 -0.0042304467 -0.00023612122)
(-0.60297951 -0.0042897777 0.0011850115)
(-0.73216227 -0.0042646836 0.0016999501)
(0.018764688 -0.00048253014 -0.0003894693)
(0.042750733 -0.0013294795 -0.0011147723)
(0.042027236 -0.0020231444 -0.0018019165)
(-0.0042873761 -0.0024522822 -0.0021907391)
(-0.11276993 -0.0026325516 -0.001879997)
(-0.28067515 -0.002636878 -0.00063972525)
(-0.47584599 -0.0025098634 0.0011778671)
(-0.65201206 -0.0022687149 0.0026732338)
(-0.77599571 -0.0021067645 0.0029472714)
(0.021508657 -0.00052282698 -0.00036713651)
(0.048650025 -0.0013976014 -0.0010488285)
(0.047234541 -0.0020266831 -0.001699845)
(-0.0053450746 -0.0022438927 -0.0020313907)
(-0.12486266 -0.0020454704 -0.0015764105)
(-0.30379094 -0.0015639315 -0.0001129307)
(-0.50367907 -0.00098575186 0.0019052811)
(-0.67677099 -0.0004599574 0.0035407249)
(-0.7955655 -0.00011770569 0.0039476566)
(0.024095277 -0.00058813407 -0.00035899717)
(0.054401098 -0.0015493238 -0.0010376504)
(0.05292452 -0.0021839153 -0.0017159991)
(-0.0042780448 -0.0022439288 -0.0020771753)
(-0.13197932 -0.0016752985 -0.0015815216)
(-0.31828114 -0.00067625959 4.2891635e-06)
(-0.51967897 0.00038816865 0.0021702895)
(-0.68824079 0.0012317705 0.0039900713)
(-0.80176765 0.0017767325 0.0046134305)
(0.026501316 -0.00067389613 -0.00035738219)
(0.059907922 -0.001775106 -0.0010584675)
(0.058825434 -0.0024831402 -0.001812323)
(-0.0017840639 -0.0024468448 -0.0022746735)
(-0.13568513 -0.0015334032 -0.0018304861)
(-0.32701655 -6.7043209e-06 -0.00021442624)
(-0.52808602 0.0015637467 0.0020511565)
(-0.6913381 0.002730696 0.0040548131)
(-0.79942135 0.0034706072 0.004940295)
(0.028687722 -0.00077284433 -0.00034894323)
(0.065021619 -0.0020539459 -0.0010702805)
(0.064611324 -0.0028927357 -0.0019243202)
(0.001508311 -0.0028219439 -0.0025488055)
(-0.13711485 -0.0016112208 -0.0022526332)
(-0.3318793 0.00040178206 -0.00071127702)
(-0.53158087 0.0024366255 0.001587556)
(-0.68928995 0.003900914 0.0037688089)
(-0.79184928 0.0047975404 0.0049425026)
(0.030607491 -0.00087018897 -0.00033137267)
(0.069615267 -0.0023403998 -0.001059177)
(0.070077459 -0.0033400064 -0.0020175253)
(0.0052865746 -0.0032902532 -0.0028470876)
(-0.13679514 -0.0018702933 -0.0027847545)
(-0.33382635 0.00052275367 -0.001414191)
(-0.53167304 0.0029230767 0.00085999367)
(-0.68406361 0.0046100587 0.0032015202)
(-0.78134941 0.0055972491 0.0046705633)
(0.032385985 -0.00094383212 -0.00029711875)
(0.074035756 -0.0025694185 -0.0010004862)
(0.07572836 -0.0037194476 -0.0020490671)
(0.010049186 -0.0037303959 -0.0031092451)
(-0.13446996 -0.0022136276 -0.0033463422)
(-0.3330299 0.00038861995 -0.0022226761)
(-0.52906305 0.002966192 -2.9308239e-05)
(-0.67682735 0.0047462113 0.0024475441)
(-0.76945 0.0057487222 0.0041971044)
(0.034043105 -0.00095813757 -0.00024237304)
(0.078320721 -0.0026352535 -0.00088244339)
(0.081580582 -0.0038629307 -0.0019966227)
(0.015723641 -0.0039494985 -0.0032945122)
(-0.13036421 -0.0024773681 -0.0038666284)
(-0.32994593 7.6519791e-05 -0.0030404113)
(-0.52448277 0.0025856812 -0.00096911464)
(-0.66856263 0.0042960008 0.0016125722)
(-0.7573796 0.0052220647 0.0036099784)
(0.035504112 -0.00086636705 -0.00016871965)
(0.082211897 -0.0024016878 -0.00070763043)
(0.087138775 -0.0035556142 -0.0018587869)
(0.021569998 -0.003696587 -0.0033919105)
(-0.12543702 -0.0024374331 -0.0043084567)
(-0.32566354 -0.00023256245 -0.0037757767)
(-0.5190443 0.0019122539 -0.0018288871)
(-0.66040379 0.003351671 0.00082486358)
(-0.74637466 0.0041043876 0.0030229729)
(0.036565343 -0.00062453852 -9.2297722e-05)
(0.085064976 -0.0017382774 -0.00051778222)
(0.091289744 -0.0025878347 -0.0016835774)
(0.02610785 -0.0027181392 -0.0034250463)
(-0.1213242 -0.0018491205 -0.004639692)
(-0.32177389 -0.00032774738 -0.0043344095)
(-0.51423014 0.001136606 -0.0024855753)
(-0.65373004 0.0021034971 0.00021192068)
(-0.73780622 0.0025935061 0.0025532001)
(0.0372113 -0.00023128197 -4.3717276e-05)
(0.086848077 -0.0006443468 -0.00039528786)
(0.093957037 -0.00095926242 -0.001565179)
(0.029119975 -0.0010077458 -0.0034347318)
(-0.11850075 -0.00069031035 -0.00482615)
(-0.31913844 -0.0001432261 -0.0046362775)
(-0.51119976 0.00037976383 -0.0028426713)
(-0.64984749 0.00071882011 -0.00012317748)
(-0.73303112 0.00088642606 0.0022946994)
(0.037211296 0.00023125518 -4.3716009e-05)
(0.086848066 0.00064430156 -0.00039528081)
(0.093957021 0.00095920995 -0.001565167)
(0.029119955 0.0010077294 -0.0034347171)
(-0.11850078 0.00069036407 -0.0048261347)
(-0.31913847 0.00014335259 -0.0046362656)
(-0.51119978 -0.00037960322 -0.0028426532)
(-0.6498475 -0.0007186936 -0.00012314618)
(-0.73303114 -0.00088637923 0.0022947568)
(0.036565333 0.00062451178 -9.2296861e-05)
(0.085064945 0.0017382333 -0.00051776033)
(0.091289697 0.0025877869 -0.0016835538)
(0.026107787 0.0027181388 -0.0034250114)
(-0.12132426 0.0018491996 -0.0046396453)
(-0.32177396 0.00032790227 -0.0043343703)
(-0.51423019 -0.0011364281 -0.0024855203)
(-0.65373008 -0.0021033607 0.000212006)
(-0.73780626 -0.0025934481 0.0025533503)
(0.035504095 0.00086633777 -0.00016871995)
(0.082211851 0.0024016483 -0.00070757478)
(0.087138703 0.003555573 -0.0018587427)
(0.021569903 0.0036965987 -0.0033918392)
(-0.12543711 0.0024375452 -0.0043083664)
(-0.32566362 0.00023276931 -0.0037757039)
(-0.51904436 -0.0019120327 -0.0018287991)
(-0.66040384 -0.0033515105 0.00082497851)
(-0.74637471 -0.0041043204 0.0030231656)
(0.034043082 0.00095809709 -0.00024236972)
(0.07832066 0.0026352103 -0.00088235457)
(0.081580491 0.0038628899 -0.0019965374)
(0.015723524 0.0039495156 -0.0032943943)
(-0.13036432 0.0024775238 -0.0038665201)
(-0.32994602 -7.6234423e-05 -0.0030403303)
(-0.52448284 -0.0025853829 -0.00096901576)
(-0.66856268 -0.0042958024 0.001612684)
(-0.75737965 -0.0052220079 0.003610174)
(0.032385962 0.00094378567 -0.00029711226)
(0.074035691 0.0025693773 -0.0010003981)
(0.075728259 0.0037194171 -0.0020489735)
(0.010049057 0.003730443 -0.0031091316)
(-0.13447009 0.0022138502 -0.0033462706)
(-0.33303001 -0.00038824415 -0.002222618)
(-0.52906312 -0.002965805 -2.9223284e-05)
(-0.6768274 -0.0047459845 0.0024476256)
(-0.76945002 -0.005748716 0.0041972893)
(0.030607467 0.00087014074 -0.00033136079)
(0.069615195 0.0023403556 -0.0010590939)
(0.070077345 0.003339983 -0.0020174341)
(0.005286426 0.0032903438 -0.0028470003)
(-0.1367953 0.0018705746 -0.0027847201)
(-0.3338265 -0.00052230543 -0.0014141641)
(-0.53167315 -0.0029226202 0.00086004117)
(-0.68406366 -0.0046098297 0.0032015466)
(-0.78134941 -0.0055973405 0.0046707141)
(0.028687699 0.00077280224 -0.00034892393)
(0.065021547 0.0020539088 -0.0010702092)
(0.064611203 0.0028927228 -0.0019242728)
(0.0015081348 0.0028220649 -0.002548763)
(-0.13711506 0.0016115509 -0.0022526384)
(-0.33187951 -0.00040127477 -0.00071132229)
(-0.53158103 -0.0024361204 0.0015875235)
(-0.68929002 -0.0039007102 0.0037687493)
(-0.79184929 -0.0047977706 0.0049425558)
(0.026501292 0.00067386083 -0.00035736352)
(0.059907844 0.0017750876 -0.0010584129)
(0.058825296 0.0024831554 -0.0018122948)
(-0.0017842697 0.0024469899 -0.0022746559)
(-0.13568539 0.001533779 -0.0018305597)
(-0.32701683 7.2407885e-06 -0.00021456505)
(-0.52808625 -0.0015632147 0.0020510187)
(-0.69133823 -0.0027305459 0.0040546466)
(-0.79942142 -0.0034709766 0.0049401868)
(0.024095252 0.0005881073 -0.0003589859)
(0.054401016 0.0015493371 -0.0010376122)
(0.052924371 0.0021839799 -0.0017159825)
(-0.0042782684 0.0022441144 -0.0020772048)
(-0.13197962 0.0016756995 -0.0015816608)
(-0.31828147 0.00067678987 4.045343e-06)
(-0.51967926 -0.00038769788 0.0021700239)
(-0.68824099 -0.0012316732 0.0039897448)
(-0.80176778 -0.0017771288 0.0046131068)
(0.021508629 0.00052281027 -0.00036712658)
(0.048649937 0.0013976501 -0.0010487899)
(0.047234384 0.0020268122 -0.0016998276)
(-0.0053453074 0.0022441593 -0.0020314407)
(-0.12486298 0.002045906 -0.0015766102)
(-0.3037913 0.0015644527 -0.0001132893)
(-0.5036794 0.00098610013 0.0019048428)
(-0.67677123 0.00046001293 0.00354004)
(-0.79556566 0.00011735598 0.0039470308)
(0.018764666 0.00048253552 -0.00038947337)
(0.042750663 0.0013295784 -0.0011147865)
(0.042027109 0.0020233621 -0.0018019835)
(-0.0042875695 0.0024526699 -0.0021909171)
(-0.1127702 0.0026331044 -0.0018803593)
(-0.28067547 0.002637443 -0.0006402486)
(-0.47584631 0.0025101467 0.0011770985)
(-0.65201236 0.00226848 0.0026722545)
(-0.77599591 0.0021063108 0.0029466236)
(0.016466164 0.00047524956 -0.00043467778)
(0.038602606 0.0013649096 -0.0012632244)
(0.040683747 0.002196299 -0.0020787511)
(0.003850757 0.0028837276 -0.0026560606)
(-0.089139238 0.00344167 -0.0026435085)
(-0.24061889 0.003906653 -0.001775208)
(-0.42603656 0.0042308211 -0.00023710258)
(-0.6029797 0.0042895497 0.0011836672)
(-0.73216246 0.0042642548 0.0016994732)
(0.024930013 -0.00013293911 -0.00011676552)
(0.064392415 -0.00047318283 -0.00037868822)
(0.085412441 -0.0010093834 -0.00066983698)
(0.066644409 -0.0017929204 -0.00098461992)
(-0.012222311 -0.002814211 -0.0013507274)
(-0.15543541 -0.0040252217 -0.0017871278)
(-0.3380117 -0.0053675562 -0.0022471622)
(-0.5155939 -0.0068065815 -0.0026115857)
(-0.64679558 -0.0082579667 -0.002777801)
(0.028247049 -0.00024147283 -0.00018993778)
(0.071280772 -0.00081355529 -0.00059720272)
(0.090807149 -0.0016252405 -0.0010300358)
(0.063010608 -0.0027016491 -0.001466913)
(-0.031912178 -0.0039919783 -0.0019334678)
(-0.19275153 -0.0054167942 -0.0024511437)
(-0.38636888 -0.0069138391 -0.0029739251)
(-0.56433477 -0.0084258906 -0.0033858243)
(-0.69145479 -0.0097997005 -0.0036025935)
(0.031871387 -0.00033347515 -0.00022917495)
(0.079487351 -0.0011065986 -0.00071670242)
(0.099294969 -0.002156544 -0.0012242711)
(0.065360559 -0.0034757039 -0.0017206182)
(-0.04139206 -0.0049646108 -0.0022372116)
(-0.21452359 -0.006510317 -0.0028066261)
(-0.41407258 -0.0080480808 -0.003390955)
(-0.58996051 -0.0095200144 -0.0038834848)
(-0.7128188 -0.010782721 -0.0041744749)
(0.035130948 -0.00042752129 -0.00025657459)
(0.086901235 -0.0013981786 -0.00079683892)
(0.10714211 -0.0026656491 -0.0013478765)
(0.068296463 -0.0041825178 -0.0018728794)
(-0.047679471 -0.0058017709 -0.002413328)
(-0.22948647 -0.0073901232 -0.0030195065)
(-0.43166035 -0.0088978688 -0.0036676205)
(-0.60388679 -0.010282267 -0.0042455281)
(-0.72227269 -0.011428899 -0.0046103645)
(0.037959057 -0.00050760465 -0.0002652673)
(0.09331993 -0.0016465857 -0.00082044897)
(0.11393498 -0.0030931262 -0.0013779659)
(0.070976833 -0.0047572477 -0.0019039453)
(-0.052437126 -0.0064469092 -0.0024558395)
(-0.24057332 -0.0080199303 -0.0031008995)
(-0.44343458 -0.0094548208 -0.0038187295)
(-0.61114393 -0.010709031 -0.0044666699)
(-0.72473332 -0.011706666 -0.0048864534)
(0.04032168 -0.00057198252 -0.00025366867)
(0.098606296 -0.001842544 -0.00078188773)
(0.11936862 -0.0034160102 -0.0013070126)
(0.072817162 -0.0051614208 -0.0018066551)
(-0.056719996 -0.0068523179 -0.0023587686)
(-0.24957535 -0.0083445212 -0.0030388887)
(-0.45202327 -0.0096494043 -0.0038142258)
(-0.6148732 -0.010743004 -0.0045225361)
(-0.72345067 -0.011574227 -0.0049958283)
(0.042159266 -0.0006115316 -0.00022687458)
(0.10261328 -0.0019565266 -0.00069511019)
(0.1232433 -0.0035844411 -0.0011528275)
(0.073569533 -0.0053285893 -0.0015960345)
(-0.060934877 -0.0069393813 -0.0021266226)
(-0.25726289 -0.0082904397 -0.0028322984)
(-0.45872824 -0.0094232592 -0.0036601554)
(-0.61685785 -0.01032416 -0.0044249206)
(-0.72053199 -0.010983635 -0.0049575333)
(0.043613658 -0.0006117827 -0.0001852308)
(0.10576117 -0.0019469189 -0.00056298055)
(0.12623254 -0.0035327485 -0.00092350242)
(0.074024809 -0.0051822624 -0.0012875937)
(-0.064421976 -0.0066422411 -0.0017854464)
(-0.26340904 -0.0078061501 -0.0025114723)
(-0.46387926 -0.0087118007 -0.0033825465)
(-0.61788048 -0.0094298981 -0.0042200569)
(-0.7171036 -0.0099372299 -0.0048240524)
(0.044757523 -0.00056286659 -0.00013387352)
(0.1082594 -0.0017830165 -0.0004011)
(0.12865764 -0.0032092904 -0.00064516217)
(0.074523678 -0.0046535425 -0.00091611483)
(-0.066967851 -0.0058829224 -0.0013737008)
(-0.26802146 -0.0068117181 -0.0021150254)
(-0.46765116 -0.0075141942 -0.003046563)
(-0.61832658 -0.0080470834 -0.0039653664)
(-0.71382526 -0.0084114244 -0.0046390219)
(0.045600091 -0.00045851751 -8.0188078e-05)
(0.11011081 -0.0014479593 -0.00023273886)
(0.13047738 -0.0025911949 -0.00035893803)
(0.074953583 -0.0037248426 -0.00054209377)