/*--------------------------------*- C++ -*----------------------------------*\
| =========                 |                                                 |
| \\      /  F ield         | OpenFOAM: The Open Source CFD Toolbox           |
|  \\    /   O peration     | Version:  2406                                  |
|   \\  /    A nd           | Website:  www.openfoam.com                      |
|    \\/     M anipulation  |                                                 |
\*---------------------------------------------------------------------------*/
FoamFile
{
    version     2.0;
    format      ascii;
    arch        "LSB;label=32;scalar=64";
    class       volScalarField;
    location    "0.005";
    object      T;
}
// * * * * * * * * * * * * * * * * * * * * * * * * * * * * * * * * * * * * * //

dimensions      [0 0 0 1 0 0 0];

internalField   nonuniform List<scalar> 
12225
(
1.00694
1.00397
1.00144
1.00053
1
0.999641
0.99944
0.999334
0.999256
0.999165
0.99903
0.998778
0.998266
0.997144
0.994588
0.988663
0.974252
0.938403
0.994965
0.99447
0.996348
0.997907
0.998666
0.998971
0.999119
0.999205
0.999235
0.999208
0.999109
0.998885
0.998396
0.997313
0.994849
0.989194
0.975868
0.944657
0.999592
0.999919
1
0.999965
0.999815
0.999629
0.999497
0.999414
0.999344
0.999256
0.99912
0.998876
0.998389
0.997348
0.995032
0.98984
0.978155
0.953125
1.00032
1.00007
0.999547
0.999418
0.999417
0.99938
0.999338
0.999307
0.999269
0.999204
0.999085
0.998861
0.998405
0.99744
0.995336
0.990758
0.980995
0.961722
1.00013
0.999832
0.999434
0.999386
0.999432
0.999415
0.999371
0.999331
0.999285
0.999213
0.999092
0.998873
0.998443
0.997558
0.995694
0.991798
0.983948
0.969518
0.999993
0.999846
0.999578
0.999495
0.999491
0.999452
0.999395
0.999343
0.999287
0.99921
0.999088
0.998875
0.998474
0.997682
0.996078
0.992873
0.986766
0.976187
0.999975
0.999925
0.999718
0.999591
0.999543
0.999491
0.999427
0.999366
0.999301
0.999217
0.999093
0.998887
0.998519
0.997823
0.996477
0.993921
0.989299
0.981675
0.999983
0.999963
0.999797
0.99966
0.999593
0.999531
0.99946
0.99939
0.999317
0.999227
0.9991
0.9989
0.998559
0.997943
0.996803
0.994726
0.991123
0.985374
0.999986
0.999973
0.999839
0.999705
0.999623
0.999552
0.999475
0.999398
0.999317
0.999222
0.999093
0.998898
0.998581
0.998033
0.99706
0.995357
0.992506
0.988082
0.999984
0.999963
0.999852
0.999722
0.999628
0.999546
0.999462
0.999378
0.999292
0.999191
0.99906
0.998872
0.99858
0.9981
0.997285
0.995921
0.993723
0.990404
0.99998
0.999942
0.999839
0.999713
0.999608
0.999516
0.999425
0.999334
0.999242
0.999138
0.999006
0.998825
0.998558
0.99814
0.997468
0.996397
0.994738
0.992304
0.999976
0.99992
0.999818
0.999693
0.999579
0.999478
0.999382
0.999286
0.999188
0.99908
0.998949
0.998776
0.998532
0.99817
0.99762
0.996785
0.995548
0.993786
0.999975
0.999912
0.999811
0.999689
0.999574
0.999469
0.999368
0.99927
0.999168
0.999058
0.99893
0.998765
0.99854
0.998225
0.997772
0.997118
0.996191
0.994913
0.999978
0.999919
0.999827
0.999716
0.999606
0.999504
0.999405
0.999308
0.999209
0.9991
0.998976
0.998819
0.998613
0.998335
0.997955
0.997431
0.996717
0.995768
0.999982
0.999935
0.99986
0.999767
0.999673
0.999583
0.999495
0.999408
0.999316
0.999214
0.999097
0.998952
0.998765
0.998518
0.998188
0.997751
0.997176
0.996434
0.999987
0.999957
0.999905
0.999839
0.999771
0.999704
0.999639
0.99957
0.999495
0.99941
0.999307
0.999179
0.999012
0.998791
0.998498
0.998117
0.997628
0.997008
0.999993
0.999985
0.999968
0.99994
0.999908
0.999879
0.999848
0.999812
0.999767
0.999708
0.99963
0.999524
0.99938
0.999186
0.998925
0.998583
0.998145
0.997595
1
1.00003
1.00005
1.00007
1.00009
1.0001
1.00012
1.00012
1.00011
1.00009
1.00005
0.999969
0.999849
0.999677
0.999442
0.999129
0.998722
0.998207
1.00001
1.00006
1.00011
1.00017
1.00022
1.00027
1.00032
1.00036
1.00038
1.00038
1.00036
1.0003
1.00021
1.00005
0.999835
0.999537
0.999147
0.998649
1.00001
1.00006
1.00012
1.00019
1.00026
1.00032
1.00038
1.00043
1.00046
1.00048
1.00047
1.00042
1.00033
1.00019
0.999984
0.999696
0.999314
0.998826
1.00001
1.00006
1.00012
1.00018
1.00024
1.00031
1.00036
1.00042
1.00045
1.00047
1.00047
1.00043
1.00035
1.00021
1.00001
0.999723
0.999346
0.998861
1.00001
1.00006
1.00012
1.00017
1.00023
1.00029
1.00035
1.0004
1.00044
1.00046
1.00046
1.00042
1.00034
1.0002
1
0.99972
0.999343
0.998857
1
1.00008
1.00013
1.00016
1.0002
1.00027
1.00033
1.00038
1.00042
1.00045
1.00045
1.00041
1.00033
1.0002
0.999993
0.999709
0.99933
0.998842
0.999997
1.0001
1.00014
1.00015
1.00019
1.00025
1.00032
1.00037
1.00042
1.00045
1.00045
1.00041
1.00033
1.0002
0.999994
0.999707
0.999324
0.998831
1
1.00009
1.0001
1.00012
1.00019
1.00027
1.00033
1.00039
1.00043
1.00046
1.00046
1.00043
1.00035
1.00021
1
0.999713
0.999325
0.998826
1.00014
1.00014
0.999953
0.999971
1.00014
1.00028
1.00037
1.00044
1.00049
1.00052
1.00052
1.00048
1.0004
1.00026
1.00004
0.999746
0.99935
0.998841
1.0005
1.00058
1.0001
0.999925
1.00003
1.00018
1.00029
1.00039
1.00047
1.00052
1.00053
1.0005
1.00042
1.00028
1.00007
0.99977
0.99937
0.998857
1.00004
1.00088
1.00115
1.00111
1.00099
1.00087
1.0008
1.00077
1.00076
1.00075
1.00072
1.00065
1.00055
1.00039
1.00016
0.999841
0.999425
0.998899
0.994517
0.993822
0.99606
0.998046
0.999181
0.999772
1.00013
1.00037
1.00053
1.00062
1.00066
1.00064
1.00057
1.00042
1.00021
0.999897
0.999483
0.998946
1.00648
1.00454
1.00223
1.0015
1.00119
1.00096
1.00086
1.00084
1.00083
1.00082
1.00079
1.00072
1.00061
1.00045
1.00021
0.999884
0.99946
0.998933
0.000836427
0.000833512
0.000827679
0.000818991
0.000807537
0.000793428
0.000776805
0.000757842
0.000736734
0.00071369
0.000688933
0.000662697
0.000635221
0.000606751
0.00057753
0.000547802
0.000517802
0.000487759
0.000457887
0.000428387
0.000399444
0.000371221
0.000343865
0.0003175
0.000292228
0.000268132
0.000245274
0.000223695
0.000203417
0.00018445
0.000166787
0.000150413
0.000135307
0.000121448
0.00010874
9.71013e-05
8.65013e-05
7.68739e-05
6.81599e-05
6.02975e-05
5.32218e-05
4.68772e-05
4.1205e-05
3.61396e-05
3.1629e-05
2.76239e-05
2.40736e-05
2.09342e-05
1.81646e-05
1.57267e-05
1.35859e-05
1.17101e-05
1.00705e-05
8.64062e-06
7.39657e-06
6.31679e-06
5.38185e-06
4.57429e-06
3.87847e-06
3.28042e-06
2.76771e-06
2.32927e-06
1.95531e-06
1.63719e-06
1.36727e-06
1.13886e-06
9.46098e-07
7.83861e-07
6.47689e-07
5.33712e-07
4.38579e-07
3.59397e-07
2.93682e-07
2.39298e-07
1.94424e-07
1.57505e-07
1.27221e-07
1.02455e-07
8.22611e-08
6.58471e-08
5.25463e-08
4.1802e-08
3.31502e-08
2.62058e-08
2.06497e-08
1.62188e-08
1.26971e-08
9.90721e-09
7.70454e-09
5.97142e-09
4.61242e-09
3.5505e-09
2.7236e-09
2.082e-09
1.58594e-09
1.20378e-09
9.10421e-10
6.86045e-10
5.1505e-10
3.85212e-10
2.86994e-10
2.12981e-10
1.57425e-10
1.15891e-10
8.49654e-11
6.2033e-11
4.50991e-11
3.26475e-11
2.35313e-11
1.68859e-11
1.20632e-11
8.57895e-12
6.07306e-12
4.27914e-12
3.00092e-12
2.09445e-12
1.45472e-12
1.00543e-12
6.91448e-13
4.73124e-13
3.22084e-13
2.18127e-13
1.46949e-13
9.84707e-14
6.56295e-14
4.35022e-14
2.86756e-14
1.87964e-14
1.22508e-14
7.93877e-15
5.11455e-15
3.27562e-15
2.08534e-15
1.31956e-15
8.29881e-16
5.18691e-16
3.22163e-16
1.9883e-16
1.21926e-16
7.42823e-17
4.49597e-17
2.70321e-17
1.61444e-17
9.57676e-18
5.64215e-18
3.3012e-18
1.91809e-18
1.10665e-18
6.33979e-19
3.60607e-19
2.0364e-19
1.14168e-19
6.35405e-20
3.51049e-20
1.92522e-20
1.04797e-20
5.66231e-21
3.03651e-21
1.61623e-21
8.53806e-22
4.47607e-22
2.32923e-22
1.20278e-22
6.16169e-23
3.13379e-23
1.58166e-23
7.92054e-24
3.93507e-24
1.93948e-24
9.48281e-25
4.59933e-25
2.21281e-25
1.05601e-25
4.99861e-26
2.34666e-26
1.09248e-26
5.04274e-27
2.30673e-27
1.0457e-27
4.69399e-28
0.000992021
0.000988352
0.000981121
0.000970431
0.000956434
0.0009393
0.000919224
0.000896422
0.000871129
0.000843597
0.000814093
0.000782895
0.000750285
0.000716553
0.000681985
0.000646865
0.000611467
0.000576055
0.000540879
0.00050617
0.00047214
0.000438977
0.000406848
0.000375895
0.000346235
0.000317959
0.000291139
0.000265819
0.000242026
0.000219766
0.000199026
0.000179779
0.000161984
0.000145564
0.000130479
0.000116704
0.000104156
9.27593e-05
8.24352e-05
7.31061e-05
6.4699e-05
5.71387e-05
5.03527e-05
4.42803e-05
3.88592e-05
3.40282e-05
2.97343e-05
2.59264e-05
2.25573e-05
1.95832e-05
1.69636e-05
1.46616e-05
1.26434e-05
1.0878e-05
9.33741e-06
7.99621e-06
6.83139e-06
5.82223e-06
4.95008e-06
4.19822e-06
3.55169e-06
2.99716e-06
2.52278e-06
2.11801e-06
1.77355e-06
1.48121e-06
1.23376e-06
1.02489e-06
8.49066e-07
7.01471e-07
5.77922e-07
4.74796e-07
3.88963e-07
3.17732e-07
2.58792e-07
2.10166e-07
1.7017e-07
1.37371e-07
1.10557e-07
8.8704e-08
7.09492e-08
5.657e-08
4.49618e-08
3.56209e-08
2.8129e-08
2.214e-08
1.73684e-08
1.35796e-08
1.05813e-08
8.21695e-09
6.35888e-09
4.90386e-09
3.7685e-09
2.88575e-09
2.20189e-09
1.67403e-09
1.26808e-09
9.57022e-10
7.19534e-10
5.38894e-10
4.02022e-10
2.98721e-10
2.21066e-10
1.62927e-10
1.19579e-10
8.73942e-11
6.35987e-11
4.60815e-11
3.32423e-11
2.38735e-11
1.70677e-11
1.21461e-11
8.60358e-12
6.06555e-12
4.25582e-12
2.9716e-12
2.06473e-12
1.42749e-12
9.81963e-13
6.72045e-13
4.57567e-13
3.09908e-13
2.08785e-13
1.39903e-13
9.32347e-14
6.17908e-14
4.07225e-14
2.66858e-14
1.73873e-14
1.12631e-14
7.25312e-15
4.64301e-15
2.95426e-15
1.86828e-15
1.17421e-15
7.33395e-16
4.55177e-16
2.80699e-16
1.71983e-16
1.04686e-16
6.33023e-17
3.80233e-17
2.26854e-17
1.34424e-17
7.91086e-18
4.62332e-18
2.6831e-18
1.54614e-18
8.84646e-19
5.02541e-19
2.83417e-19
1.58682e-19
8.81938e-20
4.86575e-20
2.66472e-20
1.4484e-20
7.81466e-21
4.18453e-21
2.22401e-21
1.17314e-21
6.1406e-22
3.19082e-22
1.64535e-22
8.41786e-23
4.27361e-23
2.15273e-23
1.07584e-23
5.33394e-24
2.62342e-24
1.27996e-24
6.19477e-25
2.97397e-25
1.41618e-25
6.68881e-26
3.13325e-26
1.45547e-26
6.70344e-27
3.05984e-27
1.38401e-27
6.19787e-28
0.00132588
0.0013204
0.0013101
0.00129516
0.00127578
0.00125223
0.00122481
0.00119382
0.00115961
0.00112252
0.0010829
0.00104114
0.000997605
0.00095267
0.000906714
0.000860106
0.000813203
0.000766348
0.000719862
0.00067404
0.000629154
0.000585443
0.000543118
0.000502355
0.000463299
0.000426066
0.000390738
0.00035737
0.000325991
0.000296607
0.000269202
0.000243745
0.000220188
0.000198459
0.000178479
0.000160162
0.000143418
0.000128156
0.000114284
0.000101707
9.03323e-05
8.00683e-05
7.0826e-05
6.25208e-05
5.50738e-05
4.84115e-05
4.24649e-05
3.71692e-05
3.24635e-05
2.82915e-05
2.4601e-05
2.13439e-05
1.84759e-05
1.59565e-05
1.37484e-05
1.18179e-05
1.01342e-05
8.66925e-06
7.39788e-06
6.29728e-06
5.34694e-06
4.52848e-06
3.82543e-06
3.22312e-06
2.7085e-06
2.26998e-06
1.89734e-06
1.58156e-06
1.3147e-06
1.08982e-06
9.00868e-07
7.42553e-07
6.10296e-07
5.00133e-07
4.08647e-07
3.329e-07
2.70376e-07
2.18924e-07
1.76716e-07
1.42201e-07
1.14065e-07
9.1204e-08
7.26894e-08
5.77441e-08
4.57202e-08
3.60792e-08
2.83752e-08
2.22402e-08
1.73716e-08
1.35217e-08
1.0488e-08
8.10617e-09
6.24285e-09
4.79052e-09
3.66269e-09
2.79011e-09
2.11754e-09
1.60102e-09
1.20582e-09
9.04606e-10
6.75924e-10
5.03005e-10
3.72782e-10
2.7512e-10
2.02184e-10
1.47946e-10
1.07788e-10
7.81836e-11
5.6457e-11
4.05833e-11
2.90388e-11
2.06816e-11
1.46601e-11
1.0342e-11
7.26046e-12
5.07207e-12
3.52566e-12
2.43839e-12
1.67782e-12
1.14852e-12
7.82087e-13
5.29738e-13
3.56883e-13
2.39121e-13
1.59333e-13
1.05573e-13
6.95566e-14
4.55647e-14
2.96753e-14
1.92135e-14
1.23661e-14
7.91106e-15
5.03016e-15
3.17866e-15
1.99615e-15
1.24567e-15
7.72389e-16
4.7584e-16
2.91235e-16
1.77075e-16
1.06949e-16
6.41617e-17
3.82308e-17
2.26237e-17
1.32956e-17
7.75922e-18
4.49631e-18
2.58705e-18
1.47792e-18
8.38212e-19
4.71946e-19
2.63796e-19
1.46364e-19
8.06096e-20
4.40687e-20
2.39092e-20
1.28771e-20
6.8824e-21
3.65119e-21
1.92259e-21
1.00459e-21
5.20886e-22
2.6798e-22
1.36783e-22
6.9268e-23
3.48003e-23
1.73447e-23
8.57565e-24
4.20604e-24
2.04633e-24
9.87555e-25
4.7274e-25
2.24462e-25
1.05706e-25
4.93706e-26
2.28662e-26
1.05004e-26
4.77921e-27
2.1556e-27
9.62611e-28
0.00188735
0.00187882
0.00186338
0.00184135
0.00181304
0.00177885
0.00173924
0.00169466
0.00164562
0.00159261
0.00153615
0.00147678
0.00141501
0.00135139
0.00128644
0.00122068
0.00115459
0.00108864
0.00102329
0.000958924
0.000895918
0.000834596
0.000775237
0.000718078
0.000663312
0.000611088
0.000561516
0.000514664
0.000470568
0.000429231
0.000390627
0.000354707
0.000321396
0.000290597
0.000262204
0.000236099
0.000212162
0.000190268
0.000170292
0.00015211
0.000135599
0.000120638
0.000107112
9.49079e-05
8.39207e-05
7.40503e-05
6.52025e-05
5.72889e-05
5.02264e-05
4.39376e-05
3.83504e-05
3.33979e-05
2.90183e-05
2.51543e-05
2.17534e-05
1.87673e-05
1.6152e-05
1.3867e-05
1.18757e-05
1.01448e-05
8.64417e-06
7.34653e-06
6.22741e-06
5.26486e-06
4.43922e-06
3.73296e-06
3.13049e-06
2.61801e-06
2.18331e-06
1.81564e-06
1.50558e-06
1.24485e-06
1.02627e-06
8.43558e-07
6.91301e-07
5.64809e-07
4.60048e-07
3.73555e-07
3.02372e-07
2.43976e-07
1.96226e-07
1.57309e-07
1.25696e-07
1.00103e-07
7.9453e-08
6.28489e-08
4.95442e-08
3.89207e-08
3.04681e-08
2.37668e-08
1.84733e-08
1.43071e-08
1.10402e-08
8.48806e-09
6.50178e-09
4.96175e-09
3.77223e-09
2.85681e-09
2.15503e-09
1.61913e-09
1.21155e-09
9.02831e-10
6.69961e-10
4.95047e-10
3.64227e-10
2.66809e-10
1.94584e-10
1.41276e-10
1.02106e-10
7.34574e-11
5.26007e-11
3.74879e-11
2.65894e-11
1.87678e-11
1.3182e-11
9.21252e-12
6.40593e-12
4.43165e-12
3.05e-12
2.08813e-12
1.42203e-12
9.63208e-13
6.48878e-13
4.34715e-13
2.89608e-13
1.91846e-13
1.26358e-13
8.27427e-14
5.38653e-14
3.48583e-14
2.24229e-14
1.43359e-14
9.10916e-15
5.75202e-15
3.60932e-15
2.25043e-15
1.39415e-15
8.58059e-16
5.24634e-16
3.18644e-16
1.9224e-16
1.15196e-16
6.85562e-17
4.05179e-17
2.37808e-17
1.38596e-17
8.02016e-18
4.60796e-18
2.62856e-18
1.48857e-18
8.3682e-19
4.67016e-19
2.587e-19
1.42246e-19
7.76391e-20
4.20486e-20
2.261e-20
1.20658e-20
6.38978e-21
3.35784e-21
1.75082e-21
9.05756e-22
4.64886e-22
2.36716e-22
1.19575e-22
5.99208e-23
2.97867e-23
1.46882e-23
7.18459e-24
3.48592e-24
1.67767e-24
8.00863e-25
3.79192e-25
1.7807e-25
8.29323e-26
3.83013e-26
1.75388e-26
7.96082e-27
3.58126e-27
1.5954e-27
0.00275619
0.00274294
0.00271967
0.00268686
0.00264498
0.00259462
0.00253645
0.00247115
0.00239947
0.00232215
0.00223995
0.00215364
0.002064
0.00197179
0.00187777
0.00178268
0.00168721
0.00159205
0.00149779
0.00140502
0.00131425
0.00122591
0.00114041
0.00105807
0.00097915
0.00090385
0.000832316
0.00076464
0.000700864
0.000640985
0.000584961
0.000532717
0.000484145
0.000439117
0.000397484
0.000359089
0.000323768
0.000291349
0.000261664
0.000234544
0.00020982
0.000187329
0.000166913
0.00014842
0.000131704
0.000116625
0.000103054
9.08665e-05
7.9945e-05
7.01803e-05
6.14697e-05
5.37173e-05
4.68339e-05
4.07367e-05
3.53488e-05
3.05995e-05
2.64235e-05
2.27609e-05
1.95567e-05
1.67609e-05
1.43278e-05
1.2216e-05
1.0388e-05
8.81002e-06
7.45154e-06
6.28531e-06
5.28695e-06
4.43474e-06
3.70936e-06
3.09375e-06
2.57283e-06
2.13334e-06
1.76368e-06
1.4537e-06
1.19456e-06
9.78592e-07
7.99177e-07
6.50601e-07
5.2796e-07
4.27057e-07
3.44312e-07
2.76684e-07
2.21598e-07
1.7688e-07
1.40706e-07
1.11543e-07
8.81173e-08
6.93662e-08
5.4411e-08
4.2527e-08
3.31181e-08
2.56966e-08
1.98646e-08
1.52991e-08
1.17387e-08
8.97292e-09
6.83238e-09
5.18201e-09
3.91454e-09
2.94505e-09
2.2065e-09
1.64624e-09
1.22301e-09
9.04684e-10
6.66291e-10
4.88548e-10
3.56617e-10
2.59132e-10
1.8743e-10
1.34936e-10
9.66862e-11
6.89473e-11
4.89282e-11
3.45512e-11
2.42773e-11
1.69724e-11
1.1805e-11
8.16847e-12
5.62266e-12
3.84981e-12
2.62183e-12
1.77585e-12
1.19622e-12
8.0129e-13
5.33712e-13
3.53454e-13
2.32724e-13
1.52337e-13
9.9128e-14
6.41185e-14
4.12223e-14
2.63395e-14
1.67253e-14
1.05538e-14
6.61735e-15
4.12264e-15
2.55181e-15
1.56914e-15
9.58476e-16
5.81561e-16
3.50494e-16
2.09799e-16
1.24715e-16
7.36214e-17
4.31576e-17
2.51214e-17
1.4518e-17
8.3302e-18
4.74551e-18
2.68365e-18
1.50648e-18
8.39555e-19
4.6437e-19
2.54949e-19
1.38951e-19
7.51563e-20
4.03428e-20
2.14891e-20
1.13578e-20
5.95619e-21
3.09898e-21
1.59965e-21
8.1917e-22
4.16148e-22
2.09717e-22
1.04839e-22
5.1988e-23
2.55722e-23
1.2477e-23
6.0384e-24
2.89865e-24
1.38013e-24
6.5176e-25
3.05266e-25
1.41797e-25
6.53156e-26
2.98316e-26
1.35066e-26
6.06187e-27
2.69474e-27
0.00405264
0.00403228
0.00399743
0.00394881
0.00388702
0.00381295
0.00372756
0.00363188
0.00352698
0.00341396
0.00329393
0.00316804
0.00303741
0.00290316
0.00276639
0.00262816
0.00248948
0.0023513
0.00221449
0.00207987
0.00194815
0.00181996
0.00169585
0.00157626
0.00146156
0.00135203
0.00124785
0.00114915
0.00105598
0.000968337
0.000886157
0.000809331
0.000737715
0.000671133
0.000609385
0.00055226
0.000499532
0.000450974
0.000406352
0.000365437
0.000327999
0.000293814
0.000262666
0.000234342
0.000208641
0.00018537
0.000164343
0.000145387
0.000128335
0.00011303
9.93245e-05
8.70804e-05
7.61674e-05
6.64643e-05
5.78579e-05
5.02433e-05
4.35232e-05
3.76075e-05
3.24135e-05
2.78651e-05
2.38927e-05
2.04327e-05
1.74271e-05
1.48236e-05
1.25746e-05
1.06373e-05
8.97331e-06
7.54819e-06
6.33121e-06
5.29504e-06
4.41545e-06
3.67104e-06
3.04295e-06
2.51465e-06
2.07167e-06
1.7014e-06
1.39291e-06
1.1367e-06
9.24629e-07
7.49662e-07
6.05795e-07
4.879e-07
3.91619e-07
3.13263e-07
2.49718e-07
1.98367e-07
1.57019e-07
1.23846e-07
9.7329e-08
7.62111e-08
5.94559e-08
4.62123e-08
3.57843e-08
2.76049e-08
2.12142e-08
1.62405e-08
1.2384e-08
9.40548e-09
7.11422e-09
5.35887e-09
4.01969e-09
3.00235e-09
2.23282e-09
1.65328e-09
1.21875e-09
8.94408e-10
6.53403e-10
4.75145e-10
3.4391e-10
2.47747e-10
1.7762e-10
1.26727e-10
8.99724e-11
6.35602e-11
4.46755e-11
3.12416e-11
2.17346e-11
1.50418e-11
1.0355e-11
7.09041e-12
4.82877e-12
3.27049e-12
2.20277e-12
1.47528e-12
9.8241e-13
6.50422e-13
4.28112e-13
2.80127e-13
1.82204e-13
1.17797e-13
7.56918e-14
4.83355e-14
3.06727e-14
1.93412e-14
1.21182e-14
7.54384e-15
4.66559e-15
2.86642e-15
1.74926e-15
1.06035e-15
6.38414e-16
3.81747e-16
2.26681e-16
1.33662e-16
7.82645e-17
4.5503e-17
2.6264e-17
1.50509e-17
8.56335e-18
4.83628e-18
2.71114e-18
1.50894e-18
8.33571e-19
4.57017e-19
2.48671e-19
1.34271e-19
7.19418e-20
3.82468e-20
2.01745e-20
1.0558e-20
5.4817e-21
2.82349e-21
1.44271e-21
7.31275e-22
3.67688e-22
1.83386e-22
9.0726e-23
4.45214e-23
2.16705e-23
1.04624e-23
5.01004e-24
2.37957e-24
1.12095e-24
5.23718e-25
2.42664e-25
1.11501e-25
5.08021e-26
2.29474e-26
1.02764e-26
4.55911e-27
0.00594829
0.00591755
0.00586598
0.00579457
0.0057042
0.00559611
0.00547168
0.00533242
0.00517986
0.00501561
0.00484129
0.00465857
0.00446908
0.00427445
0.00407625
0.00387602
0.00367519
0.00347512
0.00327706
0.00308214
0.00289137
0.00270565
0.00252571
0.0023522
0.0021856
0.0020263
0.00187457
0.00173057
0.00159437
0.00146596
0.00134527
0.00123214
0.00112639
0.00102778
0.000936043
0.000850902
0.000772054
0.000699192
0.000632003
0.000570174
0.000513394
0.000461359
0.000413769
0.000370334
0.000330775
0.000294821
0.000262214
0.000232707
0.000206064
0.000182063
0.000160491
0.000141147
0.000123843
0.000108401
9.46548e-05
8.24488e-05
7.16379e-05
6.20875e-05
5.36727e-05
4.62781e-05
3.97975e-05
3.41334e-05
2.91966e-05
2.49058e-05
2.11869e-05
1.79729e-05
1.52034e-05
1.28238e-05
1.07852e-05
9.04412e-06
7.56156e-06
6.303e-06
5.23792e-06
4.33939e-06
3.58378e-06
2.9504e-06
2.42118e-06
1.98047e-06
1.61466e-06
1.31207e-06
1.0626e-06
8.5765e-07
6.89855e-07
5.52963e-07
4.41682e-07
3.51545e-07
2.78801e-07
2.20309e-07
1.73452e-07
1.36056e-07
1.06326e-07
8.27791e-08
6.42028e-08
4.96049e-08
3.81787e-08
2.92694e-08
2.23493e-08
1.69958e-08
1.28711e-08
9.70651e-09
7.28882e-09
5.44972e-09
4.05687e-09
3.00665e-09
2.21833e-09
1.62928e-09
1.19115e-09
8.66785e-10
6.27777e-10
4.52502e-10
3.24587e-10
2.31691e-10
1.64561e-10
1.16294e-10
8.17651e-11
5.71921e-11
3.97956e-11
2.75448e-11
1.89637e-11
1.29855e-11
8.84323e-12
5.98898e-12
4.03321e-12
2.70068e-12
1.79798e-12
1.19003e-12
7.83012e-13
5.12148e-13
3.32972e-13
2.15166e-13
1.38183e-13
8.81894e-14
5.59269e-14
3.52414e-14
2.20646e-14
1.37252e-14
8.4817e-15
5.20648e-15
3.17437e-15
1.92242e-15
1.15634e-15
6.90755e-16
4.09734e-16
2.41334e-16
1.41156e-16
8.19759e-17
4.72582e-17
2.70492e-17
1.53717e-17
8.6713e-18
4.85517e-18
2.69822e-18
1.48821e-18
8.14584e-19
4.42454e-19
2.38471e-19
1.27531e-19
6.76687e-20
3.56231e-20
1.8605e-20
9.63967e-21
4.95469e-21
2.52626e-21
1.27771e-21
6.41021e-22
3.18996e-22
1.57458e-22
7.70912e-23
3.74368e-23
1.80319e-23
8.61441e-24
4.08176e-24
1.91822e-24
8.94057e-25
4.13268e-25
1.8944e-25
8.6111e-26
3.88089e-26
1.73427e-26
7.67894e-27
0.00868225
0.00863653
0.00856108
0.00845734
0.00832651
0.00817033
0.00799079
0.00779
0.00757017
0.0073336
0.00708265
0.00681968
0.00654706
0.00626712
0.00598212
0.00569422
0.00540547
0.0051178
0.00483295
0.00455252
0.00427793
0.00401039
0.00375097
0.00350052
0.00325974
0.00302914
0.00280912
0.00259989
0.00240156
0.00221413
0.0020375
0.00187148
0.00171582
0.00157024
0.00143438
0.00130786
0.00119031
0.0010813
0.000980432
0.000887277
0.00080142
0.000722451
0.000649962
0.000583559
0.000522857
0.000467484
0.00041708
0.0003713
0.000329812
0.000292299
0.000258459
0.000228005
0.000200663
0.000176176
0.000154299
0.000134805
0.000117478
0.000102117
8.85358e-05
7.65601e-05
6.60288e-05
5.67932e-05
4.87166e-05
4.16734e-05
3.5549e-05
3.0239e-05
2.56485e-05
2.16919e-05
1.82917e-05
1.53787e-05
1.28907e-05
1.07723e-05
8.97426e-06
7.45298e-06
6.17001e-06
5.09154e-06
4.18795e-06
3.43343e-06
2.8055e-06
2.28471e-06
1.85427e-06
1.49975e-06
1.2088e-06
9.70865e-07
7.76994e-07
6.19603e-07
4.92299e-07
3.89716e-07
3.07366e-07
2.41509e-07
1.89047e-07
1.47417e-07
1.14513e-07
8.86088e-08
6.82968e-08
5.24302e-08
4.00856e-08
3.05206e-08
2.31402e-08
1.74698e-08
1.3132e-08
9.82811e-09
7.32294e-09
5.43191e-09
4.01095e-09
2.94811e-09
2.15683e-09
1.57051e-09
1.13812e-09
8.20798e-10
5.89053e-10
4.20645e-10
2.98878e-10
2.11281e-10
1.48588e-10
1.03954e-10
7.23445e-11
5.0079e-11
3.44797e-11
2.36101e-11
1.60779e-11
1.08875e-11
7.33092e-12
4.90785e-12
3.26656e-12
2.16136e-12
1.42162e-12
9.29478e-13
6.04033e-13
3.90134e-13
2.50416e-13
1.59724e-13
1.01226e-13
6.37428e-14
3.98812e-14
2.47895e-14
1.5307e-14
9.3883e-15
5.71878e-15
3.46022e-15
2.07941e-15
1.24096e-15
7.35331e-16
4.32647e-16
2.52793e-16
1.46651e-16
8.44572e-17
4.82845e-17
2.74018e-17
1.54353e-17
8.62945e-18
4.78808e-18
2.63648e-18
1.44061e-18
7.81098e-19
4.20221e-19
2.24307e-19
1.1879e-19
6.24128e-20
3.25314e-20
1.6821e-20
8.62795e-21
4.38992e-21
2.21557e-21
1.10914e-21
5.50744e-22
2.71249e-22
1.32506e-22
6.42014e-23
3.08528e-23
1.47055e-23
6.95173e-24
3.25935e-24
1.5156e-24
6.98937e-25
3.1965e-25
1.44969e-25
6.51922e-26
2.9072e-26
1.28472e-26
0.0125808
0.0125137
0.0124046
0.0122555
0.0120681
0.0118448
0.0115884
0.0113019
0.0109884
0.0106512
0.0102935
0.00991881
0.00953042
0.00913164
0.00872566
0.00831554
0.00790415
0.00749417
0.00708804
0.00668798
0.00629594
0.00591362
0.00554246
0.00518365
0.00483815
0.00450668
0.00418977
0.00388775
0.00360078
0.00332888
0.00307193
0.00282973
0.00260196
0.00238824
0.00218815
0.0020012
0.00182689
0.00166469
0.00151406
0.00137445
0.00124531
0.0011261
0.00101626
0.000915274
0.000822616
0.000737779
0.00066027
0.000589611
0.000525341
0.000467016
0.000414209
0.000366513
0.000323536
0.000284907
0.000250274
0.000219303
0.000191677
0.000167102
0.000145298
0.000126005
0.000108982
9.40031e-05
8.086e-05
6.93607e-05
5.9329e-05
5.06031e-05
4.30356e-05
3.64924e-05
3.08522e-05
2.60052e-05
2.18529e-05
1.83069e-05
1.52884e-05
1.27272e-05
1.05611e-05
8.73523e-06
7.20129e-06
5.91698e-06
4.84535e-06
3.9543e-06
3.21599e-06
2.60642e-06
2.10495e-06
1.6939e-06
1.35821e-06
1.08509e-06
8.6369e-07
6.84912e-07
5.411e-07
4.25864e-07
3.33887e-07
2.60765e-07
2.02864e-07
1.57202e-07
1.21331e-07
9.32634e-08
7.13913e-08
5.44189e-08
4.13046e-08
3.12153e-08
2.34873e-08
1.75943e-08
1.31209e-08
9.74055e-09
7.19793e-09
5.29432e-09
3.87585e-09
2.82391e-09
2.04756e-09
1.47739e-09
1.06073e-09
7.57762e-10
5.38586e-10
3.8084e-10
2.67895e-10
1.87455e-10
1.30472e-10
9.03234e-11
6.21901e-11
4.25842e-11
2.89968e-11
1.96334e-11
1.32176e-11
8.84691e-12
5.88673e-12
3.89374e-12
2.56017e-12
1.67322e-12
1.08689e-12
7.01659e-13
4.50137e-13
2.86946e-13
1.81736e-13
1.14365e-13
7.15042e-14
4.44136e-14
2.74034e-14
1.67938e-14
1.02204e-14
6.17876e-15
3.70981e-15
2.2119e-15
1.30948e-15
7.69719e-16
4.49211e-16
2.60267e-16
1.49693e-16
8.54624e-17
4.84297e-17
2.72387e-17
1.52045e-17
8.42252e-18
4.62994e-18
2.5255e-18
1.3669e-18
7.34044e-19
3.91096e-19
2.06728e-19
1.08407e-19
5.6394e-20
2.91016e-20
1.48968e-20
7.56393e-21
3.80953e-21
1.90307e-21
9.42948e-22
4.6341e-22
2.25881e-22
1.09202e-22
5.23612e-23
2.4901e-23
1.17449e-23
5.49412e-24
2.54895e-24
1.17281e-24
5.35165e-25
2.42174e-25
1.08671e-25
4.83617e-26
2.13295e-26
0.0180814
0.0179841
0.0178279
0.0176159
0.0173503
0.0170345
0.0166723
0.0162679
0.0158256
0.0153499
0.0148456
0.0143174
0.0137699
0.0132078
0.0126354
0.0120572
0.011477
0.0108985
0.0103251
0.00975982
0.00920537
0.00866403
0.00813778
0.00762826
0.00713675
0.00666429
0.00621158
0.00577911
0.00536714
0.00497574
0.00460479
0.00425406
0.00392319
0.00361171
0.00331911
0.00304478
0.0027881
0.00254839
0.00232498
0.00211714
0.00192419
0.00174539
0.00158005
0.00142746
0.00128693
0.00115778
0.00103935
0.000930979
0.000832042
0.000741924
0.000660033
0.000585796
0.000518661
0.0004581
0.000403608
0.000354704
0.00031093
0.000271851
0.000237059
0.000206169
0.000178819
0.000154672
0.000133414
0.000114754
9.84214e-05
8.41696e-05
7.17706e-05
6.10163e-05
5.17174e-05
4.3702e-05
3.68149e-05
3.09162e-05
2.58804e-05
2.15953e-05
1.79612e-05
1.48895e-05
1.23021e-05
1.013e-05
8.31292e-06
6.79826e-06
5.54017e-06
4.49896e-06
3.64039e-06
2.93503e-06
2.3577e-06
1.88695e-06
1.50456e-06
1.19514e-06
9.45742e-07
7.45515e-07
5.85402e-07
4.5788e-07
3.56725e-07
2.76812e-07
2.13923e-07
1.64635e-07
1.2617e-07
9.62794e-08
7.31528e-08
5.5338e-08
4.16762e-08
3.12467e-08
2.33211e-08
1.73261e-08
1.28125e-08
9.43028e-09
6.90788e-09
5.03582e-09
3.6532e-09
2.63712e-09
1.89414e-09
1.35361e-09
9.62379e-10
6.80678e-10
4.78906e-10
3.35152e-10
2.33295e-10
1.61516e-10
1.1121e-10
7.61473e-11
5.18465e-11
3.51e-11
2.36258e-11
1.58098e-11
1.0517e-11
6.95399e-12
4.57069e-12
2.98605e-12
1.93883e-12
1.25105e-12
8.02169e-13
5.11065e-13
3.23471e-13
2.03426e-13
1.27105e-13
7.88936e-14
4.86414e-14
2.97864e-14
1.8115e-14
1.09412e-14
6.56244e-15
3.90843e-15
2.31123e-15
1.35694e-15
7.90913e-16
4.57635e-16
2.62847e-16
1.49849e-16
8.47907e-17
4.76164e-17
2.65373e-17
1.46765e-17
8.05443e-18
4.38599e-18
2.36973e-18
1.27031e-18
6.75589e-19
3.56447e-19
1.86565e-19
9.68669e-20
4.98898e-20
2.54875e-20
1.29155e-20
6.49157e-21
3.23621e-21
1.60015e-21
7.8473e-22
3.81687e-22
1.84128e-22
8.80953e-23
4.18029e-23
1.96733e-23
9.18257e-24
4.25072e-24
1.9515e-24
8.88532e-25
4.01212e-25
1.79658e-25
7.97907e-26
3.5122e-26
0.0257604
0.0256208
0.0253997
0.0251013
0.0247288
0.0242869
0.0237807
0.023216
0.0225987
0.0219352
0.0212319
0.0204954
0.0197321
0.0189484
0.0181505
0.0173441
0.0165346
0.0157271
0.0149262
0.0141359
0.0133599
0.0126012
0.0118625
0.0111461
0.0104536
0.00978658
0.0091459
0.00853231
0.0079462
0.00738774
0.00685685
0.0063533
0.00587669
0.0054265
0.00500209
0.00460278
0.00422779
0.00387631
0.00354749
0.00324045
0.00295431
0.00268816
0.0024411
0.00221223
0.00200064
0.00180545
0.00162577
0.00146074
0.00130951
0.00117124
0.00104513
0.000930375
0.000826221
0.000731923
0.000646768
0.000570069
0.000501171
0.000439447
0.000384301
0.00033517
0.000291521
0.000252854
0.000218699
0.000188618
0.000162205
0.000139082
0.000118901
0.000101343
8.61142e-05
7.29478e-05
6.16012e-05
5.18545e-05
4.35099e-05
3.63893e-05
3.03339e-05
2.52018e-05
2.08673e-05
1.72192e-05
1.41597e-05
1.16031e-05
9.47447e-06
7.70865e-06
6.24924e-06
5.04759e-06
4.06192e-06
3.25651e-06
2.60094e-06
2.06941e-06
1.64017e-06
1.29491e-06
1.01831e-06
7.9763e-07
6.22282e-07
4.83495e-07
3.741e-07
2.88237e-07
2.21134e-07
1.6892e-07
1.2847e-07
9.72734e-08
7.33221e-08
5.5018e-08
4.10945e-08
3.05526e-08
2.26085e-08
1.66505e-08
1.22038e-08
8.90109e-09
6.46024e-09
4.66537e-09
3.35218e-09
2.39633e-09
1.70418e-09
1.20562e-09
8.48384e-10
5.93789e-10
4.13364e-10
2.86195e-10
1.97055e-10
1.3492e-10
9.18546e-11
6.21766e-11
4.18432e-11
2.7994e-11
1.8617e-11
1.23054e-11
8.08536e-12
5.28021e-12
3.42696e-12
2.21024e-12
1.41647e-12
9.01953e-13
5.70595e-13
3.58613e-13
2.239e-13
1.38859e-13
8.55379e-14
5.23324e-14
3.17965e-14
1.9185e-14
1.14944e-14
6.83797e-15
4.03879e-15
2.36826e-15
1.3786e-15
7.96612e-16
4.56909e-16
2.60113e-16
1.46965e-16
8.24075e-17
4.58555e-17
2.53201e-17
1.38729e-17
7.5418e-18
4.06786e-18
2.17681e-18
1.15564e-18
6.08624e-19
3.1797e-19
1.64785e-19
8.47087e-20
4.31922e-20
2.18443e-20
1.09576e-20
5.45165e-21
2.6901e-21
1.31654e-21
6.39022e-22
3.07619e-22
1.46868e-22
6.95426e-23
3.26579e-23
1.52103e-23
7.0258e-24
3.21858e-24
1.46231e-24
6.58906e-25
2.94442e-25
1.30508e-25
5.73348e-26
0.036363
0.0361652
0.0358555
0.0354398
0.0349229
0.0343108
0.0336108
0.0328307
0.0319787
0.0310634
0.0300937
0.0290785
0.0280267
0.0269468
0.0258471
0.0247356
0.0236193
0.0225052
0.0213992
0.0203068
0.0192328
0.0181813
0.0171558
0.0161593
0.0151942
0.0142622
0.0133649
0.0125031
0.0116775
0.0108885
0.010136
0.00941988
0.00873973
0.00809499
0.00748498
0.0069089
0.00636587
0.00585494
0.00537511
0.00492534
0.00450454
0.00411161
0.00374545
0.00340491
0.00308886
0.00279617
0.0025257
0.00227633
0.00204692
0.00183639
0.00164363
0.00146758
0.00130719
0.00116145
0.00102935
0.000909932
0.000802277
0.000705487
0.000618709
0.000541126
0.000471963
0.000410485
0.000355998
0.000307853
0.00026544
0.000228191
0.000195579
0.000167116
0.000142355
0.000120882
0.000102323
8.63343e-05
7.2607e-05
6.0861e-05
5.08448e-05
4.23334e-05
3.51261e-05
2.90448e-05
2.39321e-05
1.96494e-05
1.60753e-05
1.31036e-05
1.0642e-05
8.61087e-06
6.94127e-06
5.57421e-06
4.45926e-06
3.55354e-06
2.82074e-06
2.23024e-06
1.75636e-06
1.37763e-06
1.07615e-06
8.37139e-07
6.48466e-07
5.00171e-07
3.84122e-07
2.93708e-07
2.23582e-07
1.69436e-07
1.2782e-07
9.59848e-08
7.17456e-08
5.33766e-08
3.95226e-08
2.91241e-08
2.13573e-08
1.55849e-08
1.13161e-08
8.17521e-09
5.87606e-09
4.20176e-09
2.98887e-09
2.11488e-09
1.48846e-09
1.04186e-09
7.25343e-10
5.02213e-10
3.45786e-10
2.3674e-10