/*--------------------------------*- C++ -*----------------------------------*\
  =========                 |
  \\      /  F ield         | OpenFOAM: The Open Source CFD Toolbox
   \\    /   O peration     | Website:  https://openfoam.org
    \\  /    A nd           | Version:  10
     \\/     M anipulation  |
\*---------------------------------------------------------------------------*/
FoamFile
{
    format      ascii;
    class       volScalarField;
    location    "34";
    object      T;
}
// * * * * * * * * * * * * * * * * * * * * * * * * * * * * * * * * * * * * * //

dimensions      [0 0 -1 0 0 0 0];

internalField   nonuniform List<scalar> 
100
(
0.5347
1.59913
2.64937
3.67609
4.67019
5.62283
6.52556
7.37038
8.14977
8.85683
9.48527
10.0295
10.4848
10.8469
11.1128
11.2801
11.3472
11.3136
11.1796
10.9464
10.616
10.1914
9.6763
9.07534
8.39383
7.63781
6.814
5.92972
4.9928
4.01157
2.99473
1.95131
0.890576
-0.178062
-1.24512
-2.30112
-3.3367
-4.34265
-5.31006
-6.23034
-7.09531
-7.8973
-8.6292
-9.28449
-9.85738
-10.3428
-10.7364
-11.0346
-11.235
-11.3356
-11.3356
-11.235
-11.0346
-10.7363
-10.3428
-9.85737
-9.28448
-8.62918
-7.89728
-7.09529
-6.23031
-5.31004
-4.34262
-3.33667
-2.30109
-1.24509
-0.178028
0.890612
1.95135
2.99477
4.0116
4.99284
5.92976
6.81404
7.63785
8.39387
9.07538
9.67634
10.1914
10.616
10.9464
11.1797
11.3137
11.3472
11.2801
11.1128
10.847
10.4848
10.0295
9.48529
8.85685
8.14979
7.37039
6.52558
5.62284
4.6702
3.6761
2.64938
1.59914
0.534701
)
;

boundaryField
{
    xmin
    {
        type            fixedValue;
        value           uniform 0;
    }
    xmax
    {
        type            fixedValue;
        value           uniform 0;
    }
    frontAndBack
    {
        type            empty;
    }
}


// ************************************************************************* //
