/*--------------------------------*- C++ -*----------------------------------*\
| =========                 |                                                 |
| \\      /  F ield         | OpenFOAM: The Open Source CFD Toolbox           |
|  \\    /   O peration     | Version:  2406                                  |
|   \\  /    A nd           | Website:  www.openfoam.com                      |
|    \\/     M anipulation  |                                                 |
\*---------------------------------------------------------------------------*/
FoamFile
{
    version     2.0;
    format      ascii;
    arch        "LSB;label=32;scalar=64";
    class       volScalarField;
    location    "5.75";
    object      p;
}
// * * * * * * * * * * * * * * * * * * * * * * * * * * * * * * * * * * * * * //

dimensions      [0 2 -2 0 0 0 0];

internalField   nonuniform List<scalar> 
34560
(
-41.606575
-41.595532
-41.581915
-41.566932
-41.551203
-41.537493
-41.528449
-41.524575
-41.524846
-41.6769
-41.664025
-41.647596
-41.628524
-41.607592
-41.588282
-41.573815
-41.565387
-41.562642
-41.737725
-41.723496
-41.705258
-41.683818
-41.65974
-41.636525
-41.617659
-41.604765
-41.597755
-41.795297
-41.779841
-41.759869
-41.73609
-41.709011
-41.682178
-41.659099
-41.641524
-41.629539
-41.848727
-41.832203
-41.810713
-41.784852
-41.755026
-41.724753
-41.697589
-41.675375
-41.65841
-41.895636
-41.878481
-41.856
-41.82862
-41.796586
-41.763326
-41.732448
-41.705906
-41.68429
-41.936988
-41.919266
-41.89591
-41.867201
-41.833236
-41.797357
-41.763185
-41.732728
-41.70694
-41.971953
-41.953808
-41.929773
-41.899987
-41.86441
-41.826311
-41.789325
-41.755499
-41.726139
-42.000229
-41.981776
-41.95721
-41.926563
-41.889688
-41.849785
-41.810507
-41.773946
-41.741693
-42.021383
-42.002751
-41.97783
-41.94657
-41.908732
-41.867471
-41.826462
-41.787854
-41.753431
-42.03547
-42.016707
-41.991543
-41.959877
-41.921397
-41.879232
-41.837073
-41.797111
-41.761251
-42.042639
-42.023802
-41.998494
-41.966586
-41.927739
-41.885074
-41.842308
-41.801653
-41.765065
-42.04264
-42.023803
-41.998494
-41.966587
-41.927739
-41.885074
-41.842308
-41.801653
-41.765065
-42.035471
-42.016709
-41.991545
-41.959879
-41.921397
-41.879232
-41.837073
-41.797111
-41.761251
-42.021384
-42.002752
-41.977831
-41.946572
-41.908733
-41.867472
-41.826463
-41.787854
-41.753431
-42.000231
-41.981778
-41.957211
-41.926565
-41.88969
-41.849787
-41.810508
-41.773948
-41.741694
-41.971956
-41.95381
-41.929775
-41.89999
-41.864413
-41.826314
-41.789328
-41.755502
-41.726141
-41.93699
-41.919268
-41.895913
-41.867204
-41.83324
-41.797361
-41.763189
-41.732732
-41.706943
-41.89564
-41.878484
-41.856004
-41.828624
-41.79659
-41.763331
-41.732453
-41.705911
-41.684294
-41.848731
-41.832206
-41.810716
-41.784856
-41.755029
-41.724757
-41.697593
-41.675381
-41.658415
-41.795302
-41.779846
-41.759873
-41.736094
-41.709015
-41.682182
-41.659104
-41.64153
-41.629545
-41.737729
-41.723501
-41.705262
-41.683823
-41.659744
-41.63653
-41.617665
-41.604772
-41.597762
-41.676907
-41.664032
-41.647602
-41.628529
-41.607596
-41.588286
-41.57382
-41.565393
-41.56265
-41.606581
-41.595538
-41.581921
-41.566937
-41.551208
-41.537498
-41.528454
-41.524581
-41.524855
-38.755831
-38.755436
-38.75494
-38.75446
-38.753858
-38.752805
-38.750882
-38.747372
-38.742112
-38.761184
-38.760749
-38.760154
-38.759457
-38.758411
-38.756562
-38.75336
-38.748075
-38.740782
-38.765633
-38.765185
-38.764562
-38.763797
-38.762519
-38.760069
-38.755694
-38.748673
-38.739523
-38.769876
-38.769434
-38.76878
-38.767913
-38.766356
-38.763255
-38.757649
-38.748919
-38.738093
-38.773669
-38.773247
-38.772584
-38.771628
-38.769774
-38.765981
-38.759092
-38.748713
-38.73639
-38.776762
-38.776389
-38.775751
-38.774739
-38.772628
-38.76814
-38.759986
-38.748135
-38.734534
-38.779304
-38.778973
-38.778352
-38.777278
-38.7749
-38.769737
-38.760426
-38.747288
-38.73261
-38.7813
-38.781015
-38.780418
-38.779287
-38.776659
-38.770926
-38.760605
-38.746327
-38.730729
-38.782849
-38.782609
-38.78204
-38.780873
-38.778096
-38.771931
-38.760693
-38.745398
-38.729015
-38.784032
-38.783832
-38.783297
-38.782133
-38.779272
-38.772717
-38.760701
-38.744598
-38.727581
-38.784795
-38.784622
-38.784114
-38.782959
-38.780036
-38.773205
-38.760671
-38.744018
-38.726558
-38.785211
-38.785049
-38.784553
-38.783403
-38.780447
-38.77348
-38.760687
-38.743749
-38.726046
-38.785212
-38.785049
-38.784553
-38.783403
-38.780447
-38.773481
-38.760687
-38.743749
-38.726046
-38.784795
-38.784622
-38.784115
-38.78296
-38.780037
-38.773206
-38.760671
-38.744019
-38.726559
-38.784032
-38.783833
-38.783298
-38.782134
-38.779274
-38.772718
-38.760702
-38.744599
-38.727582
-38.78285
-38.78261
-38.782041
-38.780875
-38.778097
-38.771933
-38.760695
-38.7454
-38.729016
-38.781302
-38.781017
-38.78042
-38.779289
-38.776661
-38.770928
-38.760608
-38.746329
-38.730732
-38.779306
-38.778976
-38.778354
-38.77728
-38.774903
-38.76974
-38.760429
-38.747291
-38.732612
-38.776765
-38.776393
-38.775754
-38.774742
-38.772631
-38.768143
-38.75999
-38.748139
-38.734537
-38.773672
-38.773251
-38.772587
-38.771631
-38.769778
-38.765984
-38.759095
-38.748717
-38.736394
-38.76988
-38.769438
-38.768784
-38.767917
-38.766359
-38.763259
-38.757653
-38.748923
-38.738097
-38.765638
-38.76519
-38.764566
-38.763801
-38.762523
-38.760073
-38.755698
-38.748677
-38.739527
-38.761188
-38.760753
-38.760159
-38.759462
-38.758415
-38.756566
-38.753365
-38.74808
-38.740787
-38.755836
-38.755441
-38.754944
-38.754464
-38.753862
-38.752809
-38.750886
-38.747376
-38.742117
-37.606809
-37.606636
-37.606411
-37.606112
-37.605933
-37.606277
-37.607522
-37.609771
-37.612273
-37.613504
-37.613279
-37.612921
-37.612353
-37.611792
-37.61171
-37.612549
-37.614434
-37.616876
-37.61952
-37.619275
-37.618867
-37.618187
-37.617457
-37.617192
-37.617867
-37.619645
-37.622143
-37.625131
-37.624867
-37.624414
-37.623645
-37.622794
-37.62241
-37.622987
-37.624693
-37.627112
-37.630293
-37.630019
-37.629537
-37.628698
-37.627759
-37.627284
-37.627782
-37.629404
-37.631707
-37.634912
-37.634651
-37.634169
-37.633295
-37.632302
-37.631775
-37.632226
-37.633762
-37.635941
-37.639017
-37.638766
-37.638284
-37.637385
-37.636352
-37.635786
-37.636207
-37.637687
-37.639772
-37.64253
-37.64229
-37.641814
-37.640902
-37.63985
-37.639211
-37.639598
-37.641081
-37.643132
-37.645364
-37.645137
-37.644671
-37.643754
-37.642633
-37.641879
-37.6423
-37.643865
-37.64595
-37.647433
-37.647224
-37.646769
-37.645832
-37.644637
-37.643845
-37.644351
-37.646003
-37.648163
-37.64882
-37.648623
-37.648177
-37.64723
-37.646006
-37.645198
-37.645746
-37.647457
-37.649689
-37.649518
-37.649327
-37.648884
-37.647934
-37.646699
-37.645883
-37.646446
-37.648189
-37.650469
-37.649518
-37.649327
-37.648884
-37.647934
-37.646699
-37.645884
-37.646446
-37.648189
-37.65047
-37.648821
-37.648624
-37.648177
-37.647231
-37.646007
-37.645199
-37.645747
-37.647458
-37.64969
-37.647434
-37.647225
-37.64677
-37.645833
-37.644639
-37.643847
-37.644352
-37.646004
-37.648164
-37.645365
-37.645139
-37.644673
-37.643756
-37.642635
-37.64188
-37.642301
-37.643866
-37.645952
-37.642532
-37.642292
-37.641816
-37.640904
-37.639851
-37.639213
-37.6396
-37.641083
-37.643133
-37.63902
-37.638769
-37.638287
-37.637387
-37.636355
-37.635788
-37.636209
-37.637689
-37.639774
-37.634915
-37.634653
-37.634171
-37.633298
-37.632304
-37.631777
-37.632228
-37.633765
-37.635943
-37.630296
-37.630021
-37.629539
-37.628701
-37.627762
-37.627286
-37.627785
-37.629407
-37.631709
-37.625134
-37.624869
-37.624417
-37.623647
-37.622797
-37.622413
-37.62299
-37.624695
-37.627114
-37.619522
-37.619278
-37.618869
-37.618189
-37.61746
-37.617195
-37.61787
-37.619647
-37.622145
-37.613506
-37.613282
-37.612923
-37.612355
-37.611794
-37.611713
-37.612552
-37.614436
-37.616877
-37.606812
-37.606638
-37.606413
-37.606114
-37.605935
-37.606279
-37.607523
-37.609771
-37.612272
-35.568528
-35.568453
-35.568393
-35.568412
-35.568486
-35.568483
-35.56822
-35.567495
-35.566104
-35.56996
-35.569852
-35.569737
-35.569662
-35.569565
-35.569279
-35.568579
-35.567271
-35.565362
-35.571585
-35.571439
-35.571277
-35.571147
-35.570965
-35.570524
-35.569563
-35.567904
-35.565666
-35.573224
-35.57304
-35.572829
-35.572645
-35.572388
-35.571827
-35.570654
-35.568679
-35.566054
-35.574787
-35.574571
-35.574317
-35.574081
-35.57375
-35.573067
-35.571681
-35.569385
-35.566373
-35.576193
-35.575957
-35.575675
-35.575401
-35.575008
-35.574212
-35.57263
-35.570032
-35.566655
-35.577421
-35.577168
-35.576862
-35.576554
-35.576107
-35.575215
-35.573452
-35.570595
-35.566895
-35.578449
-35.578184
-35.577861
-35.577527
-35.577034
-35.576057
-35.574144
-35.571065
-35.567087
-35.57927
-35.578997
-35.57866
-35.578307
-35.577778
-35.576732
-35.574699
-35.57144
-35.567231
-35.579882
-35.579604
-35.57926
-35.578894
-35.578336
-35.577239
-35.575116
-35.571721
-35.567331
-35.580291
-35.580009
-35.579659
-35.579283
-35.578708
-35.577577
-35.575394
-35.571907
-35.567391
-35.580496
-35.580213
-35.579859
-35.579478
-35.578894
-35.577748
-35.575536
-35.572003
-35.567423
-35.580496
-35.580213
-35.579859
-35.579478
-35.578894
-35.577748
-35.575536
-35.572003
-35.567423
-35.580291
-35.580009
-35.579659
-35.579283
-35.578708
-35.577577
-35.575395
-35.571907
-35.567391
-35.579882
-35.579605
-35.579261
-35.578894
-35.578337
-35.57724
-35.575117
-35.571721
-35.567332
-35.57927
-35.578997
-35.578661
-35.578308
-35.577778
-35.576732
-35.574699
-35.571441
-35.567231
-35.57845
-35.578185
-35.577861
-35.577528
-35.577035
-35.576058
-35.574145
-35.571066
-35.567087
-35.577422
-35.577169
-35.576863
-35.576555
-35.576108
-35.575216
-35.573453
-35.570596
-35.566896
-35.576194
-35.575958
-35.575676
-35.575402
-35.575009
-35.574213
-35.572631
-35.570033
-35.566656
-35.574788
-35.574571
-35.574318
-35.574082
-35.57375
-35.573067
-35.571682
-35.569387
-35.566374
-35.573224
-35.57304
-35.57283
-35.572645
-35.572389
-35.571828
-35.570655
-35.56868
-35.566055
-35.571585
-35.571439
-35.571277
-35.571147
-35.570966
-35.570524
-35.569564
-35.567905
-35.565668
-35.56996
-35.569852
-35.569737
-35.569662
-35.569565
-35.569279
-35.568579
-35.567272
-35.565364
-35.568528
-35.568452
-35.568393
-35.568412
-35.568486
-35.568483
-35.56822
-35.567497
-35.566106
-33.940647
-33.940718
-33.940805
-33.940895
-33.941021
-33.941242
-33.941621
-33.942179
-33.942614
-33.941547
-33.94161
-33.941671
-33.941704
-33.941741
-33.941847
-33.942078
-33.942424
-33.942729
-33.942464
-33.942517
-33.94256
-33.942561
-33.942556
-33.942619
-33.94281
-33.943121
-33.943489
-33.943257
-33.943299
-33.943325
-33.943304
-33.943278
-33.943331
-33.943519
-33.943823
-33.944207
-33.94394
-33.943973
-33.943985
-33.943943
-33.943897
-33.943938
-33.944119
-33.944416
-33.9448
-33.944542
-33.944567
-33.944567
-33.944507
-33.944442
-33.94447
-33.944639
-33.944922
-33.945301
-33.945046
-33.945065
-33.945055
-33.944982
-33.944901
-33.944916
-33.945077
-33.945348
-33.945713
-33.945464
-33.945478
-33.94546
-33.945375
-33.945281
-33.945286
-33.945436
-33.945694
-33.946044
-33.945797
-33.945807
-33.945782
-33.945688
-33.945583
-33.945578
-33.945718
-33.945966
-33.946299
-33.946049
-33.946056
-33.946025
-33.945922
-33.945809
-33.945797
-33.945928
-33.946166
-33.946485
-33.946218
-33.946222
-33.946187
-33.94608
-33.94596
-33.945941
-33.946065
-33.946296
-33.946605
-33.946296
-33.9463
-33.946265
-33.946155
-33.946033
-33.946011
-33.946131
-33.946358
-33.946661
-33.946296
-33.9463
-33.946264
-33.946155
-33.946033
-33.946011
-33.946131
-33.946358
-33.946661
-33.946218
-33.946222
-33.946187
-33.946079
-33.94596
-33.945941
-33.946065
-33.946296
-33.946604
-33.946049
-33.946056
-33.946025
-33.945922
-33.945808
-33.945796
-33.945927
-33.946166
-33.946484
-33.945796
-33.945806
-33.945782
-33.945687
-33.945582
-33.945578
-33.945718
-33.945965
-33.946298
-33.945463
-33.945477
-33.945459
-33.945374
-33.94528
-33.945285
-33.945435
-33.945693
-33.946043
-33.945045
-33.945064
-33.945054
-33.94498
-33.944899
-33.944915
-33.945076
-33.945346
-33.945712
-33.94454
-33.944565
-33.944565
-33.944506
-33.94444
-33.944468
-33.944637
-33.944921
-33.9453
-33.943938
-33.943971
-33.943983
-33.943941
-33.943895
-33.943936
-33.944117
-33.944414
-33.944798
-33.943255
-33.943297
-33.943322
-33.943301
-33.943276
-33.943328
-33.943516
-33.943821
-33.944205
-33.942461
-33.942515
-33.942557
-33.942558
-33.942553
-33.942616
-33.942808
-33.943118
-33.943487
-33.941544
-33.941607
-33.941668
-33.941701
-33.941738
-33.941844
-33.942075
-33.942422
-33.942726
-33.940643
-33.940714
-33.940802
-33.940892
-33.941018
-33.941239
-33.941618
-33.942176
-33.942611
-32.155804
-32.155831
-32.155879
-32.155961
-32.156072
-32.156185
-32.156267
-32.156289
-32.156136
-32.156341
-32.156362
-32.156397
-32.156451
-32.15651
-32.156536
-32.156483
-32.156316
-32.156019
-32.157003
-32.157016
-32.15704
-32.157078
-32.157111
-32.157093
-32.156977
-32.156739
-32.156419
-32.157655
-32.157658
-32.15767
-32.157695
-32.157711
-32.157671
-32.15752
-32.157236
-32.156865
-32.158277
-32.158271
-32.158271
-32.15828
-32.158277
-32.158215
-32.158031
-32.157699
-32.157269
-32.158856
-32.158842
-32.158831
-32.158828
-32.15881
-32.158725
-32.158508
-32.158128
-32.15764
-32.159371
-32.159351
-32.159332
-32.159319
-32.159287
-32.159182
-32.158936
-32.158515
-32.157972
-32.159813
-32.159789
-32.159764
-32.159742
-32.159698
-32.159576
-32.159305
-32.158849
-32.158257
-32.160173
-32.160145
-32.160116
-32.160088
-32.160034
-32.159899
-32.15961
-32.159125
-32.158491
-32.160445
-32.160416
-32.160383
-32.160351
-32.160291
-32.160147
-32.159843
-32.159336
-32.15867
-32.160629
-32.160598
-32.160564
-32.160529
-32.160464
-32.160314
-32.160001
-32.159479
-32.158791
-32.16072
-32.160689
-32.160653
-32.160617
-32.16055
-32.160398
-32.16008
-32.159551
-32.158851
-32.16072
-32.160689
-32.160653
-32.160617
-32.16055
-32.160397
-32.16008
-32.15955
-32.158851
-32.160629
-32.160598
-32.160563
-32.160528
-32.160463
-32.160313
-32.16
-32.159478
-32.15879
-32.160444
-32.160414
-32.160382
-32.16035
-32.160289
-32.160145
-32.159842
-32.159334
-32.158669
-32.160171
-32.160143
-32.160114
-32.160086
-32.160032
-32.159897
-32.159607
-32.159122
-32.158489
-32.159811
-32.159786
-32.159761
-32.15974
-32.159695
-32.159573
-32.159303
-32.158846
-32.158255
-32.159367
-32.159347
-32.159328
-32.159315
-32.159283
-32.159178
-32.158932
-32.158512
-32.157969
-32.158852
-32.158838
-32.158827
-32.158823
-32.158806
-32.158721
-32.158503
-32.158124
-32.157636
-32.158272
-32.158267
-32.158266
-32.158275
-32.158273
-32.15821
-32.158026
-32.157694
-32.157265
-32.157649
-32.157653
-32.157665
-32.15769
-32.157706
-32.157666
-32.157515
-32.157231
-32.15686
-32.156997
-32.15701
-32.157034
-32.157073
-32.157105
-32.157088
-32.156971
-32.156733
-32.156413
-32.156335
-32.156356
-32.15639
-32.156445
-32.156504
-32.15653
-32.156476
-32.156309
-32.156012
-32.155797
-32.155824
-32.155872
-32.155954
-32.156065
-32.156178
-32.156261
-32.156282
-32.156129
-30.422915
-30.422941
-30.422976
-30.423017
-30.423065
-30.423118
-30.423178
-30.423248
-30.423256
-30.423175
-30.423199
-30.423226
-30.423248
-30.423265
-30.42327
-30.42326
-30.423233
-30.423173
-30.42347
-30.423491
-30.423512
-30.423524
-30.423525
-30.423509
-30.423475
-30.423427
-30.423384
-30.423741
-30.423757
-30.423771
-30.423776
-30.423769
-30.423745
-30.423703
-30.42365
-30.423608
-30.42399
-30.424001
-30.424009
-30.424008
-30.423991
-30.423956
-30.423903
-30.423843
-30.423795
-30.424216
-30.424223
-30.424227
-30.424218
-30.424192
-30.424144
-30.424081
-30.424013
-30.423956
-30.424406
-30.42441
-30.424409
-30.424393
-30.424359
-30.424304
-30.424234
-30.424158
-30.424092
-30.424563
-30.424564
-30.424558
-30.424537
-30.424496
-30.424436
-30.424362
-30.424279
-30.424204
-30.424688
-30.424687
-30.424677
-30.42465
-30.424605
-30.424543
-30.424464
-30.424376
-30.424291
-30.424783
-30.42478
-30.424767
-30.424737
-30.424689
-30.424623
-30.424542
-30.424448
-30.424356
-30.424848
-30.424843
-30.424829
-30.424797
-30.424746
-30.424678
-30.424593
-30.424496
-30.424398
-30.42488
-30.424874
-30.424859
-30.424826
-30.424774
-30.424705
-30.424619
-30.424519
-30.424418
-30.424879
-30.424874
-30.424858
-30.424825
-30.424773
-30.424704
-30.424618
-30.424519
-30.424418
-30.424847
-30.424842
-30.424827
-30.424795
-30.424745
-30.424676
-30.424592
-30.424495
-30.424396
-30.424781
-30.424777
-30.424765
-30.424735
-30.424687
-30.424621
-30.424539
-30.424446
-30.424354
-30.424684
-30.424683
-30.424673
-30.424647
-30.424602
-30.424539
-30.424461
-30.424373
-30.424288
-30.424558
-30.42456
-30.424554
-30.424532
-30.424491
-30.424432
-30.424358
-30.424275
-30.4242
-30.424401
-30.424405
-30.424403
-30.424388
-30.424353
-30.424299
-30.424229
-30.424153
-30.424088
-30.424209
-30.424217
-30.42422
-30.424211
-30.424185
-30.424138
-30.424075
-30.424006
-30.42395
-30.423982
-30.423994
-30.424002
-30.424
-30.423984
-30.423948
-30.423895
-30.423836
-30.423788
-30.423732
-30.423748
-30.423762
-30.423767
-30.42376
-30.423737
-30.423694
-30.423642
-30.4236
-30.423461
-30.423481
-30.423502
-30.423514
-30.423515
-30.423499
-30.423465
-30.423418
-30.423375
-30.423164
-30.423188
-30.423215
-30.423238
-30.423254
-30.423259
-30.423249
-30.423223
-30.423163
-30.422903
-30.422929
-30.422964
-30.423005
-30.423053
-30.423106
-30.423167
-30.423237
-30.423245
-28.683111
-28.683122
-28.683139
-28.683164
-28.683196
-28.683234
-28.683276
-28.683321
-28.683327
-28.683287
-28.683297
-28.683309
-28.683324
-28.683339
-28.68335
-28.683352
-28.683341
-28.683305
-28.683491
-28.683499
-28.683508
-28.683517
-28.683524
-28.683523
-28.68351
-28.683485
-28.683457
-28.683685
-28.68369
-28.683696
-28.683701
-28.683704
-28.683699
-28.683682
-28.683652
-28.683621
-28.683868
-28.68387
-28.683872
-28.683873
-28.683871
-28.683861
-28.68384
-28.683805
-28.683767
-28.684038
-28.684037
-28.684036
-28.684033
-28.684025
-28.684012
-28.683986
-28.683945
-28.683898
-28.684189
-28.684186
-28.684182
-28.684175
-28.684164
-28.684147
-28.684117
-28.68407
-28.684014
-28.684323
-28.684318
-28.684311
-28.684302
-28.684289
-28.684268
-28.684232
-28.684178
-28.684113
-28.684436
-28.68443
-28.684421
-28.68441
-28.684393
-28.684367
-28.684326
-28.684267
-28.684193
-28.684523
-28.684515
-28.684506
-28.684493
-28.684473
-28.684443
-28.684399
-28.684335
-28.684254
-28.684581
-28.684573
-28.684562
-28.684547
-28.684525
-28.684494
-28.684448
-28.684381
-28.684295
-28.684609
-28.684601
-28.68459
-28.684574
-28.684551
-28.684519
-28.684472
-28.684403
-28.684315
-28.684608
-28.6846
-28.684589
-28.684574
-28.684551
-28.684518
-28.684471
-28.684403
-28.684315
-28.684579
-28.684571
-28.68456
-28.684545
-28.684523
-28.684492
-28.684446
-28.684379
-28.684293
-28.68452
-28.684512
-28.684503
-28.684489
-28.684469
-28.68444
-28.684396
-28.684332
-28.684251
-28.684432
-28.684425
-28.684417
-28.684406
-28.684389
-28.684362
-28.684322
-28.684263
-28.684189
-28.684318
-28.684312
-28.684305
-28.684296
-28.684283
-28.684262
-28.684226
-28.684173
-28.684108
-28.684182
-28.684179
-28.684175
-28.684167
-28.684157
-28.68414
-28.68411
-28.684063
-28.684008
-28.684029
-28.684028
-28.684027
-28.684024
-28.684016
-28.684003
-28.683977
-28.683937
-28.683891
-28.683859
-28.68386
-28.683862
-28.683863
-28.68386
-28.683851
-28.68383
-28.683795
-28.683758
-28.683674
-28.683678
-28.683684
-28.683689
-28.683692
-28.683687
-28.68367
-28.683641
-28.683611
-28.683478
-28.683485
-28.683495
-28.683504
-28.68351
-28.68351
-28.683497
-28.683473
-28.683446
-28.683272
-28.683282
-28.683294
-28.683309
-28.683324
-28.683335
-28.683338
-28.683327
-28.683293
-28.683095
-28.683106
-28.683123
-28.683147
-28.683179
-28.683218
-28.68326
-28.683306
-28.683313
-26.942474
-26.942479
-26.942487
-26.942498
-26.942511
-26.942527
-26.942541
-26.942555
-26.942547
-26.94257
-26.942574
-26.942579
-26.942584
-26.942588
-26.942588
-26.942579
-26.94256
-26.942527
-26.942677
-26.942679
-26.942683
-26.942685
-26.942684
-26.942677
-26.942659
-26.942632
-26.942603
-26.942778
-26.942779
-26.942781
-26.942781
-26.942778
-26.942767
-26.942747
-26.942718
-26.942687
-26.942872
-26.942872
-26.942871
-26.942869
-26.942863
-26.94285
-26.942826
-26.942795
-26.942761
-26.942956
-26.942955
-26.942953
-26.942949
-26.942941
-26.942925
-26.9429
-26.942865
-26.942828
-26.943029
-26.943027
-26.943023
-26.943018
-26.943008
-26.942991
-26.942965
-26.942928
-26.942886
-26.943089
-26.943087
-26.943082
-26.943075
-26.943064
-26.943047
-26.94302
-26.942982
-26.942936
-26.943139
-26.943135
-26.94313
-26.943122
-26.94311
-26.943093
-26.943065
-26.943025
-26.942976
-26.943176
-26.943172
-26.943166
-26.943157
-26.943145
-26.943128
-26.9431
-26.943059
-26.943007
-26.943202
-26.943197
-26.94319
-26.943181
-26.943169
-26.943152
-26.943123
-26.943081
-26.943027
-26.943214
-26.943209
-26.943202
-26.943193
-26.943181
-26.943163
-26.943134
-26.943092
-26.943037
-26.943213
-26.943208
-26.943202
-26.943192
-26.94318
-26.943162
-26.943134
-26.943091
-26.943036
-26.9432
-26.943195
-26.943188
-26.943179
-26.943167
-26.943149
-26.943121
-26.943079
-26.943025
-26.943173
-26.943169
-26.943162
-26.943154
-26.943142
-26.943124
-26.943096
-26.943055
-26.943004
-26.943134
-26.94313
-26.943124
-26.943116
-26.943105
-26.943088
-26.94306
-26.94302
-26.942972
-26.943083
-26.94308
-26.943075
-26.943068
-26.943057
-26.94304
-26.943013
-26.942975
-26.94293
-26.943021
-26.943018
-26.943015
-26.943009
-26.942999
-26.942982
-26.942956
-26.94292
-26.942879
-26.942946
-26.942945
-26.942943
-26.942939
-26.94293
-26.942915
-26.94289
-26.942856
-26.942819
-26.94286
-26.94286
-26.94286
-26.942857
-26.942851
-26.942838
-26.942815
-26.942784
-26.942751
-26.942765
-26.942766
-26.942767
-26.942767
-26.942764
-26.942753
-26.942733
-26.942705
-26.942675
-26.942661
-26.942664
-26.942667
-26.942669
-26.942669
-26.942661
-26.942644
-26.942618
-26.942589
-26.942553
-26.942557
-26.942561
-26.942566
-26.942571
-26.94257
-26.942562
-26.942543
-26.942511
-26.942455
-26.94246
-26.942467
-26.942478
-26.942492
-26.942508
-26.942523
-26.942537
-26.942529
-25.204993
-25.204996
-25.205
-25.205006
-25.205013
-25.205023
-25.205036
-25.205051
-25.205057
-25.205045
-25.205047
-25.20505
-25.205053
-25.205055
-25.205057
-25.205058
-25.205057
-25.20505
-25.205101
-25.205103
-25.205105
-25.205106
-25.205106
-25.205105
-25.205102
-25.205098
-25.205094
-25.205154
-25.205155
-25.205156
-25.205156
-25.205155
-25.205153
-25.20515
-25.205146
-25.205142
-25.205203
-25.205203
-25.205203
-25.205202
-25.2052
-25.205198
-25.205194
-25.205188
-25.205184
-25.205249
-25.205248
-25.205247
-25.205245
-25.205242
-25.205238
-25.205234
-25.205228
-25.205221
-25.205289
-25.205288
-25.205286
-25.205283
-25.205279
-25.205275
-25.20527
-25.205262
-25.205254
-25.205325
-25.205323
-25.205321
-25.205317
-25.205313
-25.205307
-25.205301
-25.205292
-25.205282
-25.205354
-25.205352
-25.205349
-25.205345
-25.20534
-25.205333
-25.205326
-25.205316
-25.205304
-25.205376
-25.205374
-25.205371
-25.205366
-25.20536
-25.205353
-25.205345
-25.205335
-25.205321
-25.205391
-25.205388
-25.205385
-25.20538
-25.205373
-25.205366
-25.205358
-25.205347
-25.205332
-25.205398
-25.205395
-25.205391
-25.205386
-25.205379
-25.205372
-25.205364
-25.205353
-25.205337
-25.205397
-25.205394
-25.205391
-25.205385
-25.205379
-25.205372
-25.205364
-25.205352
-25.205336
-25.205388
-25.205386
-25.205382
-25.205377
-25.205371
-25.205364
-25.205356
-25.205345
-25.20533
-25.205372
-25.20537
-25.205367
-25.205362
-25.205356
-25.205349
-25.205341
-25.205331
-25.205317
-25.205349
-25.205347
-25.205344
-25.20534
-25.205334
-25.205328
-25.205321
-25.205311
-25.205299
-25.205318
-25.205316
-25.205314
-25.20531
-25.205305
-25.2053
-25.205293
-25.205285
-25.205275
-25.20528
-25.205279
-25.205277
-25.205274
-25.20527
-25.205266
-25.205261
-25.205254
-25.205246
-25.205238
-25.205237
-25.205236
-25.205234
-25.205231
-25.205227
-25.205223
-25.205217
-25.205212
-25.205191
-25.205191
-25.20519
-25.205189
-25.205187
-25.205184
-25.205181
-25.205177
-25.205173
-25.205139
-25.20514
-25.205141
-25.205141
-25.20514
-25.205138
-25.205135
-25.205132
-25.205129
-25.205084
-25.205086
-25.205088
-25.205089
-25.205089
-25.205088
-25.205086
-25.205082
-25.205079
-25.205026
-25.205028
-25.205031
-25.205033
-25.205036
-25.205038
-25.205039
-25.205039
-25.205033
-25.204972
-25.204975
-25.204979
-25.204985
-25.204992
-25.205002
-25.205015
-25.20503
-25.205037
-23.465967
-23.465968
-23.46597
-23.465973
-23.465976
-23.465981
-23.465985
-23.465989
-23.465987
-23.465997
-23.465998
-23.465999
-23.466
-23.466
-23.466
-23.465998
-23.465993
-23.465983
-23.466029
-23.466029
-23.46603
-23.46603
-23.46603
-23.466028
-23.466023
-23.466015
-23.466006
-23.466059
-23.466059
-23.466059
-23.466059
-23.466058
-23.466055
-23.46605
-23.466041
-23.466032
-23.466088
-23.466087
-23.466087
-23.466086
-23.466084
-23.46608
-23.466074
-23.466066
-23.466055
-23.466113
-23.466112
-23.466111
-23.46611
-23.466108
-23.466104
-23.466097
-23.466088
-23.466076
-23.466135
-23.466134
-23.466133
-23.466131
-23.466128
-23.466124
-23.466117
-23.466107
-23.466095
-23.466154
-23.466152
-23.466151
-23.466149
-23.466146
-23.466142
-23.466135
-23.466124
-23.466111
-23.466169
-23.466167
-23.466166
-23.466163
-23.46616
-23.466156
-23.466149
-23.466138
-23.466123
-23.46618
-23.466179
-23.466177
-23.466174
-23.466171
-23.466167
-23.46616
-23.466148
-23.466133
-23.466188
-23.466186
-23.466184
-23.466181
-23.466178
-23.466174
-23.466167
-23.466155
-23.466139
-23.466191
-23.46619
-23.466187
-23.466185
-23.466181
-23.466177
-23.46617
-23.466158
-23.466142
-23.46619
-23.466189
-23.466187
-23.466184
-23.466181
-23.466176
-23.466169
-23.466157
-23.466141
-23.466186
-23.466184
-23.466182
-23.466179
-23.466176
-23.466171
-23.466164
-23.466153
-23.466137
-23.466177
-23.466175
-23.466173
-23.46617
-23.466167
-23.466163
-23.466156
-23.466144
-23.466129
-23.466164
-23.466162
-23.46616
-23.466158
-23.466155
-23.46615
-23.466143
-23.466133
-23.466118
-23.466147
-23.466145
-23.466144
-23.466142
-23.466139
-23.466134
-23.466128
-23.466117
-23.466104
-23.466126
-23.466125
-23.466124
-23.466122
-23.466119
-23.466115
-23.466108
-23.466099
-23.466087
-23.466103
-23.466102
-23.466101
-23.466099
-23.466097
-23.466093
-23.466086
-23.466078
-23.466067
-23.466075
-23.466075
-23.466074
-23.466073
-23.466071
-23.466067
-23.466062
-23.466054
-23.466044
-23.466045
-23.466045
-23.466044
-23.466044
-23.466043
-23.46604
-23.466035
-23.466028
-23.466019
-23.466012
-23.466012
-23.466013
-23.466013
-23.466013
-23.46601
-23.466006
-23.465999
-23.465992
-23.465978
-23.465979
-23.465979
-23.46598
-23.465981
-23.465981
-23.465979
-23.465974
-23.465966
-23.465946
-23.465947
-23.465949
-23.465952
-23.465955
-23.465959
-23.465964
-23.465968
-23.465967
-21.727912
-21.727913
-21.727913
-21.727915
-21.727917
-21.727919
-21.727922
-21.727925
-21.727926
-21.727927
-21.727927
-21.727928
-21.727928
-21.727929
-21.727929
-21.727929
-21.727928
-21.727925
-21.727942
-21.727943
-21.727943
-21.727943
-21.727943
-21.727942
-21.727941
-21.727939
-21.727937
-21.727957
-21.727957
-21.727957
-21.727957
-21.727956
-21.727956
-21.727954
-21.727953
-21.727951
-21.72797
-21.72797
-21.72797
-21.727969
-21.727969
-21.727968
-21.727966
-21.727965
-21.727962
-21.727982
-21.727982
-21.727982
-21.727981
-21.72798
-21.727979
-21.727978
-21.727975
-21.727973
-21.727993
-21.727993
-21.727992
-21.727991
-21.72799
-21.727989
-21.727987
-21.727985
-21.727982
-21.728002
-21.728002
-21.728001
-21.728
-21.727999
-21.727997
-21.727996
-21.727993
-21.727989
-21.72801
-21.728009
-21.728008
-21.728007
-21.728006
-21.728004
-21.728002
-21.727999
-21.727995
-21.728015
-21.728014
-21.728014
-21.728012
-21.728011
-21.728009
-21.728007
-21.728004
-21.728
-21.728019
-21.728018
-21.728017
-21.728016
-21.728014
-21.728012
-21.72801
-21.728007
-21.728003
-21.72802
-21.728019
-21.728018
-21.728017
-21.728015
-21.728014
-21.728012
-21.728008
-21.728004
-21.728019
-21.728019
-21.728018
-21.728016
-21.728015
-21.728013
-21.728011
-21.728008
-21.728003
-21.728017
-21.728016
-21.728015
-21.728014
-21.728012
-21.72801
-21.728008
-21.728005
-21.728001
-21.728012
-21.728011
-21.72801
-21.728009
-21.728007
-21.728006
-21.728004
-21.728001
-21.727997
-21.728005
-21.728004
-21.728004
-21.728002
-21.728001
-21.727999
-21.727997
-21.727995
-21.727991
-21.727996
-21.727996
-21.727995
-21.727994
-21.727992
-21.727991
-21.727989
-21.727987
-21.727984
-21.727986
-21.727985
-21.727984
-21.727983
-21.727982
-21.727981
-21.727979
-21.727977
-21.727975
-21.727973
-21.727973
-21.727972
-21.727971
-21.72797
-21.727969
-21.727968
-21.727966
-21.727965
-21.727959
-21.727959
-21.727959
-21.727958
-21.727957
-21.727956
-21.727955
-21.727954
-21.727953
-21.727944
-21.727944
-21.727944
-21.727944
-21.727943
-21.727942
-21.727942
-21.72794
-21.727939
-21.727928
-21.727928
-21.727928
-21.727928
-21.727928
-21.727927
-21.727927
-21.727925
-21.727924
-21.72791
-21.727911
-21.727911
-21.727911
-21.727912
-21.727912
-21.727912
-21.727912
-21.72791
-21.727893
-21.727894
-21.727895
-21.727896
-21.727898
-21.7279
-21.727904
-21.727908
-21.72791
-19.989515
-19.989516
-19.989516
-19.989516
-19.989517
-19.989518
-19.98952
-19.989521
-19.98952
-19.989523
-19.989523
-19.989524
-19.989524
-19.989524
-19.989524
-19.989523
-19.989522
-19.989519
-19.989531
-19.989531
-19.989531
-19.989532
-19.989531
-19.989531
-19.98953
-19.989528
-19.989525
-19.989539
-19.989539
-19.989539
-19.989539
-19.989539
-19.989538
-19.989536
-19.989534
-19.989532
-19.989546
-19.989546
-19.989546
-19.989546
-19.989545
-19.989544
-19.989543
-19.989541
-19.989538
-19.989553
-19.989553
-19.989552
-19.989552
-19.989551
-19.98955
-19.989549
-19.989547
-19.989544
-19.989559
-19.989558
-19.989558
-19.989558
-19.989557
-19.989556
-19.989554
-19.989552
-19.989548
-19.989564
-19.989563
-19.989563
-19.989562
-19.989561
-19.98956
-19.989559
-19.989556
-19.989552
-19.989567
-19.989567
-19.989567
-19.989566
-19.989565
-19.989564
-19.989562
-19.98956