/*--------------------------------*- C++ -*----------------------------------*\
| =========                 |                                                 |
| \\      /  F ield         | OpenFOAM: The Open Source CFD Toolbox           |
|  \\    /   O peration     | Version:  2406                                  |
|   \\  /    A nd           | Website:  www.openfoam.com                      |
|    \\/     M anipulation  |                                                 |
\*---------------------------------------------------------------------------*/
FoamFile
{
    version     2.0;
    format      ascii;
    arch        "LSB;label=32;scalar=64";
    class       surfaceScalarField;
    location    "5.75";
    object      phi;
}
// * * * * * * * * * * * * * * * * * * * * * * * * * * * * * * * * * * * * * //

dimensions      [0 3 -1 0 0 0 0];

oriented        oriented;

internalField   nonuniform List<scalar> 
101088
(
-7.2754215e-05
2.3204505e-05
-1.4346599e-05
-2.0199224e-05
-0.00014233784
0.00010060281
-6.049825e-05
-8.8203564e-05
-0.00019033175
0.00024228063
-0.00014110892
-0.00021323886
-0.00019817389
0.00045846134
-0.00025501315
-0.00040473071
-0.00016440302
0.00073089774
-0.00037615297
-0.0006471731
-0.00011964947
0.0010096601
-0.00045739166
-0.00089499259
-0.00011416172
0.001233795
-0.00046328504
-0.0010908932
-0.00017889114
0.0013523594
-0.00040027788
-0.0011895889
0.0013424623
-0.0003074102
-0.0011748828
-0.00030218949
-8.8291408e-05
2.56274e-05
-1.7291865e-05
-0.0001699604
0.00011032289
-7.2222124e-05
-0.00022039412
0.00026371132
-0.00016682957
-0.00021494525
0.00049539515
-0.00029803593
-0.00015253504
0.00078602278
-0.00043390429
-7.2456472e-05
0.0010850296
-0.00052101623
-3.265148e-05
0.0013281588
-0.00052323649
-6.3437602e-05
0.0014579364
-0.00045288886
0.0014474589
-0.0003521496
-0.00015162403
-0.00010383121
2.7199516e-05
-2.0142743e-05
-0.00019715298
0.00011631242
-8.3444663e-05
-0.00025019998
0.00027628553
-0.00019104744
-0.00023459837
0.00051559332
-0.00033744243
-0.0001503511
0.00081350519
-0.00048444418
-4.3048167e-05
0.0011203445
-0.00057317628
2.4039992e-05
0.0013707948
-0.0005688387
2.1048747e-05
0.0015035004
-0.00049094621
0.0014913469
-0.00038320493
-4.062388e-05
-0.0001189735
2.7751416e-05
-2.2760431e-05
-0.00022369469
0.00011798915
-9.3593597e-05
-0.00027964108
0.00027874304
-0.00021251844
-0.00025564585
0.00051725546
-0.00037138622
-0.00015454837
0.00081232054
-0.00052606643
-2.828083e-05
0.0011160717
-0.00061336639
5.7328111e-05
0.0013633161
-0.00060175331
7.3151068e-05
0.0014923867
-0.00051668615
0.001478235
-0.00040351796
3.0395877e-05
-0.00013326426
2.7056426e-05
-2.5040119e-05
-0.00024877297
0.00011473435
-0.00010232861
-0.00030803926
0.00027023614
-0.00023069062
-0.0002781072
0.00049970244
-0.00039932161
-0.00016515313
0.0007824624
-0.00055875638
-2.6934236e-05
0.0010731115
-0.00064231926
6.9908883e-05
0.0013083608
-0.00062375849
9.7215629e-05
0.0014292701
-0.00053270695
0.0014132822
-0.00041582285
6.7513558e-05
-0.00014689988
2.5430851e-05
-2.6990158e-05
-0.00027366274
0.00010750342
-0.00010969749
-0.0003384109
0.00025237408
-0.00024572087
-0.00030670451
0.00046503052
-0.00042168177
-0.00018749755
0.00072615235
-0.0005834854
-4.2821393e-05
0.00099386818
-0.00066249205
6.0316279e-05
0.0012090255
-0.00063728022
9.4954895e-05
0.0013180051
-0.00054122481
0.0013007319
-0.00042215774
7.5316057e-05
-0.0001589722
2.2788298e-05
-2.8578243e-05
-0.00029573945
9.6143174e-05
-0.0001156006
-0.00036580757
0.00022521306
-0.00025748801
-0.00033401358
0.00041396318
-0.00043851329
-0.00021216433
0.00064524467
-0.00060075165
-6.5473933e-05
0.00088173779
-0.00067488518
3.9282621e-05
0.0010705186
-0.00064390293
7.687459e-05
0.0011647551
-0.00054389443
0.0011473004
-0.00042401334
6.338328e-05
-0.00016944664
1.9260007e-05
-2.9821553e-05
-0.00031520769
8.1171377e-05
-0.00012016654
-0.00039076246
0.00018991465
-0.00026641628
-0.00036049864
0.00034851002
-0.00045081242
-0.00023870286
0.00054274102
-0.00061231025
-9.2838663e-05
0.00074087434
-0.00068168425
1.0682078e-05
0.00089818683
-0.00064561755
4.8704114e-05
0.00097572759
-0.00054288127
0.00095952599
-0.00042305664
3.8834185e-05
-0.00017812988
1.5018841e-05
-3.0756622e-05
-0.00033163463
6.3292806e-05
-0.00012356783
-0.00041247833
0.00014803793
-0.00027295896
-0.00038478323
0.00027138027
-0.00045952738
-0.00026476529
0.00042253309
-0.0006197349
-0.0001213277
0.00057640431
-0.0006849347
-2.047017e-05
0.00069813998
-0.00064462956
1.6618147e-05
0.0007575674
-0.00054000115
0.00074405413
-0.00042066581
8.7273537e-06
-0.00018488611
1.0302314e-05
-3.1419355e-05
-0.00034470484
4.3396854e-05
-0.00012596151
-0.00043030018
0.00010142856
-0.00027750071
-0.00040562701
0.00018569966
-0.00046540099
-0.00028823061
0.00028904319
-0.00062420296
-0.00014777613
0.0003940692
-0.00068615133
-4.9854041e-05
0.00047699124
-0.00064259693
-1.408511e-05
0.00051721562
-0.00053668768
0.00050756506
-0.00041794498
-2.0859268e-05
-0.00018940338
5.2360499e-06
-3.1849881e-05
-0.00035344164
2.2041258e-05
-0.00012747364
-0.0004423397
5.1503734e-05
-0.0002802774
-0.00042013367
9.4241357e-05
-0.00046882025
-0.00030523717
0.0001466428
-0.00062637439
-0.00016754533
0.00019984706
-0.00068616043
-7.2211738e-05
0.00024179311
-0.00064051076
-3.7737093e-05
0.00026206734
-0.00053387949
0.00025706418
-0.00041565971
-4.401269e-05
-0.00019171836
8.6120495e-11
-3.2041095e-05
-0.00035800502
2.072072e-10
-0.00012817081
-0.00044873226
2.8532126e-10
-0.0002816114
-0.00042788384
3.1267735e-10
-0.00047056299
-0.00031423715
-2.9187463e-10
-0.00062772294
-0.00017798548
-8.810383e-10
-0.00068646618
-8.4058533e-05
-1.5171378e-09
-0.0006398098
-5.0420308e-05
-1.7768663e-09
-0.00053276998
-1.1264387e-09
-0.00041471853
-5.6675437e-05
-0.00019171845
-5.2359889e-06
-3.204109e-05
-0.00035800507
-2.2041075e-05
-0.00012817079
-0.00044873219
-5.1503393e-05
-0.00028161137
-0.00042788429
-9.4240918e-05
-0.00047056295
-0.00031423713
-0.00014664334
-0.00062772287
-0.00017798558
-0.0001998486
-0.00068646613
-8.4058681e-05
-0.00024179578
-0.00063980976
-5.0420367e-05
-0.00026207047
-0.00053276995
-0.00025706619
-0.00041471855
-5.6675785e-05
-0.00018940328
-1.0302387e-05
-3.184988e-05
-0.00035344127
-4.339699e-05
-0.00012747364
-0.00044233949
-0.00010142868
-0.00028027743
-0.00042013505
-0.00018569983
-0.0004688203
-0.00030523719
-0.00028904384
-0.00062637438
-0.00016754562
-0.00039407036
-0.00068616047
-7.2212141e-05
-0.00047699308
-0.00064051078
-3.7737256e-05
-0.00051721772
-0.00053387949
-0.00050756656
-0.00041565978
-4.4013592e-05
-0.00018488549
-1.5018838e-05
-3.141935e-05
-0.00034470378
-6.329289e-05
-0.0001259615
-0.00043029966
-0.00014803823
-0.0002775007
-0.00040562847
-0.00027138079
-0.00046540094
-0.00028823033
-0.00042253347
-0.00062420284
-0.00014777649
-0.00057640485
-0.0006861513
-4.9854606e-05
-0.0006981408
-0.00064259689
-1.408539e-05
-0.0007575683
-0.00053668766
-0.00074405516
-0.00041794505
-2.0860551e-05
-0.00017812995
-1.9260006e-05
-3.0756626e-05
-0.00033163482
-8.1171578e-05
-0.00012356784
-0.00041247802
-0.0001899151
-0.00027295896
-0.00038478363
-0.0003485104
-0.00045952732
-0.00026476445
-0.00054274076
-0.00061973483
-0.00012132802
-0.00074087438
-0.00068493473
-2.0470735e-05
-0.00089818694
-0.00064462957
1.6617737e-05
-0.00097572761
-0.00054000115
-0.00095952675
-0.00042066587
8.7258127e-06
-0.00016944745
-2.278837e-05
-2.9821556e-05
-0.00031520854
-9.6143247e-05
-0.00012016655
-0.00039076118
-0.00022521294
-0.00026641629
-0.00036049734
-0.00041396287
-0.00045081244
-0.00023870201
-0.00064524415
-0.00061231031
-9.2839004e-05
-0.00088173809
-0.00068168433
1.0681575e-05
-0.0010705188
-0.0006456176
4.8703372e-05
-0.0011647549
-0.00054288129
-0.0011473012
-0.00042305668
3.8832497e-05
-0.00015897228
-2.5430679e-05
-2.8578248e-05
-0.00029573934
-0.00010750287
-0.00011560063
-0.00036580651
-0.00025237372
-0.00025748808
-0.00033401312
-0.00046503123
-0.00043851345
-0.00021216468
-0.00072615373
-0.00060075179
-6.5474008e-05
-0.00099387002
-0.00067488524
3.9282449e-05
-0.0012090269
-0.00064390301
7.6873522e-05
-0.0013180057
-0.00054389448
-0.0013007325
-0.00042401335
6.338177e-05
-0.00014690023
-2.7056446e-05
-2.6990169e-05
-0.00027366402
-0.00011473444
-0.00010969753
-0.0003384118
-0.00027023651
-0.00024572096
-0.00030670443
-0.00049970326
-0.00042168191
-0.00018749744
-0.00078246373
-0.00058348553
-4.2820305e-05
-0.0010731134
-0.00066249213
6.0316732e-05
-0.0013083635
-0.00063728037
9.4954102e-05
-0.0014292717
-0.00054122487
-0.0014132823
-0.00042215775
7.531452e-05
-0.00013326449
-2.7751301e-05
-2.5040116e-05
-0.00024877298
-0.00011798875
-0.00010232859
-0.00030803817
-0.00027874226
-0.00023069059
-0.00027810592
-0.00051725485
-0.00039932165
-0.0001651526
-0.00081232101
-0.00055875654
-2.6932646e-05
-0.0011160728
-0.00064231935
6.9910232e-05
-0.0013633183
-0.0006237586
9.7216639e-05
-0.001492388
-0.00053270695
-0.0014782348
-0.00041582286
6.7511828e-05
-0.0001189735
-2.7199558e-05
-2.2760426e-05
-0.00022369459
-0.00011631259
-9.3593579e-05
-0.0002796409
-0.00027628591
-0.00021251843
-0.00025564606
-0.00051559422
-0.00037138627
-0.00015454827
-0.00081350694
-0.00052606651
-2.827938e-05
-0.0011203466
-0.0006133664
5.732969e-05
-0.0013707964
-0.00060175336
7.3153386e-05
-0.0015035014
-0.00051668613
-0.0014913475
-0.00040351794
3.0394783e-05
-0.00010383114
-2.5627379e-05
-2.0142737e-05
-0.00019715275
-0.00011032287
-8.3444638e-05
-0.00025019976
-0.00026371131
-0.00019104739
-0.00023459867
-0.00049539528
-0.00033744238
-0.00015035057
-0.00078602357
-0.00048444416
-4.3046025e-05
-0.0010850316
-0.00057317634
2.4041349e-05
-0.0013281612
-0.0005688386
2.1050869e-05
-0.0014579381
-0.00049094609
-0.0014474571
-0.00038320492
-4.0622904e-05
-8.8291327e-05
-2.320454e-05
-1.7291861e-05
-0.00016996042
-0.00010060295
-7.2222105e-05
-0.00022039443
-0.00024228091
-0.00016682953
-0.0002149462
-0.00045846183
-0.00029803587
-0.00015253522
-0.00073089858
-0.00043390423
-7.2454598e-05
-0.0010096613
-0.00052101622
-3.265009e-05
-0.001233797
-0.0005232364
-6.3434396e-05
-0.0013523613
-0.00045288872
-0.0013424623
-0.0003521496
-0.00015162334
-7.2754198e-05
-1.43466e-05
-2.0199252e-05
-0.00014233792
-6.0498253e-05
-8.8203718e-05
-0.00019033181
-0.00014110894
-0.00021323931
-0.000198174
-0.0002550132
-0.00040473176
-0.00016440244
-0.00037615305
-0.00064717479
-0.00011964712
-0.00045739176
-0.00089499413
-0.00011416021
-0.00046328514
-0.0010908939
-0.00017888942
-0.00040027796
-0.0011895889
-0.00030741019
-0.0011748843
-0.00030218944
-1.9646156e-07
2.5894873e-06
-1.4697639e-05
-2.0419865e-06
1.3877015e-07
1.1487804e-05
-6.3165236e-05
-9.1560997e-06
1.8801881e-06
2.8042737e-05
-0.00014836011
-2.2533104e-05
4.9691146e-06
5.2843126e-05
-0.00026810151
-4.2843731e-05
9.5125916e-06
8.0996804e-05
-0.00039535472
-6.633839e-05
1.5807121e-05
0.00010181172
-0.00048163578
-8.3862735e-05
2.2806868e-05
0.0001061688
-0.00048983831
-8.661635e-05
2.8421553e-05
9.5574336e-05
-0.00042624026
-7.5225897e-05
7.6623941e-05
-0.00032917269
-5.8067886e-05
3.1628583e-05
-2.2640004e-07
3.0206727e-06
-1.7496628e-05
3.60072e-07
1.3340089e-05
-7.4660635e-05
3.1466192e-06
3.2296328e-05
-0.00017386912
8.5236528e-06
6.007666e-05
-0.0003106457
1.6667118e-05
9.0712185e-05
-0.00045176301
2.6946366e-05
0.00011261862
-0.00054210331
3.6856752e-05
0.00011732145
-0.00054429921
4.2980938e-05
0.00010785172
-0.00047129123
8.9500681e-05
-0.00036641931
4.4373772e-05
-2.3783281e-07
3.2794073e-06
-2.0163658e-05
7.3702679e-07
1.4444688e-05
-8.5524001e-05
4.8049203e-06
3.4807805e-05
-0.00019762657
1.2519954e-05
6.4169885e-05
-0.00034925062
2.3853955e-05
9.5681397e-05
-0.00050074787
3.7029041e-05
0.00011734265
-0.0005910757
4.7995066e-05
0.00012186297
-0.00058434571
5.1863904e-05
0.00011349899
-0.00050046245
9.7107746e-05
-0.00038935556
5.0407495e-05
-2.596248e-07
3.3634711e-06
-2.2584755e-05
1.0600646e-06
1.4793009e-05
-9.5261163e-05
6.355664e-06
3.5533949e-05
-0.00021853962
1.6333185e-05
6.5089258e-05
-0.00038228279
3.05239e-05
9.61758e-05
-0.00054075161
4.5871601e-05
0.00011697434
-0.00062834568
5.6525972e-05
0.00012166008
-0.00061220516
5.7037691e-05
0.00011420016
-0.00051789948
0.00010009902
-0.00040190088
5.242921e-05
-2.809581e-07
3.2607823e-06
-2.465635e-05
1.341319e-06
1.4366293e-05
-0.00010352419
7.7119899e-06
3.4496947e-05
-0.00023602514
1.963784e-05
6.3003951e-05
-0.00040916315
3.6132661e-05
9.2690429e-05
-0.00057176553
5.3138655e-05
0.00011248466
-0.00065483606
6.2399267e-05
0.00011748812
-0.00062884719
5.9583e-05
0.00011067966
-0.00052636976
9.8593442e-05
-0.00040722132
5.2487493e-05
-3.5115957e-07
3.0237956e-06
-2.640173e-05
1.377995e-06
1.3341519e-05
-0.00011040118
8.4135316e-06
3.2036894e-05
-0.00025029623
2.1695006e-05
5.8405279e-05
-0.00043036507
3.9970959e-05
8.5659624e-05
-0.0005947302
5.8135618e-05
0.00010396357
-0.00067213608
6.5424933e-05
0.00010920593
-0.0006362871
5.982046e-05
0.00010319408
-0.00052813383
9.2825053e-05
-0.00040750956
5.0941313e-05
-4.0804898e-07
2.6627752e-06
-2.7809158e-05
1.4063879e-06
1.1780223e-05
-0.00011585408
8.9548838e-06
2.8327903e-05
-0.00026132831
2.3251931e-05
5.1632062e-05
-0.00044603699
4.2760466e-05
7.5621092e-05
-0.00061022065
6.1384782e-05
9.1949696e-05
-0.00068149491
6.646416e-05
9.730035e-05
-0.00063707656
5.844527e-05
9.219333e-05
-0.0005248742
8.3332234e-05
-0.00040432171
4.8247016e-05
-4.7955637e-07
2.2138854e-06
-2.8892872e-05
1.3119843e-06
9.8242559e-06
-0.0001200021
9.0855124e-06
2.3672298e-05
-0.0002695349
2.3910911e-05
4.3169632e-05
-0.00045717535
4.4151947e-05
6.3083071e-05
-0.00062001321
6.2785636e-05
7.7122477e-05
-0.00068548973
6.5770177e-05
8.2399194e-05
-0.00063370079
5.5761153e-05
7.8116376e-05
-0.00051879507
7.0681384e-05
-0.00039935469
4.4710611e-05
-5.6022864e-07
1.7100724e-06
-2.969272e-05
1.1219139e-06
7.6063109e-06
-0.00012303218
8.8725227e-06
1.8368248e-05
-0.00027540546
2.3709284e-05
3.3555884e-05
-0.00046474961
4.3944153e-05
4.8879544e-05
-0.00062576675
6.2252601e-05
6.0085553e-05
-0.00068620552
6.3688193e-05
6.4641155e-05
-0.00062830689
5.2207472e-05
6.1339404e-05
-0.00051174345
5.5459903e-05
-0.00039399154
4.0755225e-05
-6.2340055e-07
1.1636363e-06
-3.0249816e-05
9.6184252e-07
5.1851487e-06
-0.00012512603
8.6731997e-06
1.2540242e-05
-0.00027938393
2.3496358e-05
2.2939347e-05
-0.00046960648
4.3568916e-05
3.3424996e-05
-0.00062882136
6.0969812e-05
4.1278611e-05
-0.00068474488
6.1017303e-05
4.4623971e-05
-0.00062262699
4.8444606e-05
4.2382258e-05
-0.00050515804
3.8295515e-05
-0.00038927763
3.6942003e-05
-6.5765446e-07
5.9438805e-07
-3.0622979e-05
8.790572e-07
2.6443318e-06
-0.00012646974
8.5545738e-06
6.3925628e-06
-0.00028180532
2.3262306e-05
1.1699951e-05
-0.00047228801
4.3146929e-05
1.7086466e-05
-0.00062992084
5.9714161e-05
2.1157615e-05
-0.00068260661
5.8631245e-05
2.2933581e-05
-0.00061773733
4.5295133e-05
2.1786367e-05
-0.00049994793
1.9639318e-05
-0.00038579304
3.4084709e-05
-6.7183611e-07
3.9077125e-11
-3.0774769e-05
8.468243e-07
9.7767677e-11
-0.00012704521
8.5092717e-06
1.2994469e-10
-0.00028288153
2.3146168e-05
1.588852e-10
-0.00047350017
4.2874044e-05
-1.3315984e-10
-0.00063036458
5.898786e-05
-4.5302286e-10
-0.00068142219
5.726908e-05
-7.8296171e-10
-0.0006151567
4.3515001e-05
-7.8126308e-10
-0.00049722926
-9.1262782e-11
-0.00038408442
3.2520182e-05
-6.7192633e-07
-5.9435316e-07
-3.0774765e-05
8.4674275e-07
-2.6442332e-06
-0.0001270452
8.5093386e-06
-6.3923999e-06
-0.0002828815
2.3145983e-05
-1.1699722e-05
-0.00047350013
4.2874062e-05
-1.7086781e-05
-0.00063036452
5.8987793e-05
-2.1158549e-05
-0.00068142215
5.7268971e-05
-2.2935136e-05
-0.00061515667
4.3515025e-05
-2.1787818e-05
-0.00049722925
-1.9639349e-05
-0.00038408442
3.2520073e-05
-6.5772026e-07
-1.1636492e-06
-3.0622979e-05
8.7914913e-07
-5.1851516e-06
-0.00012646974
8.5549352e-06
-1.2540182e-05
-0.00028180533
2.3261848e-05
-2.2939273e-05
-0.00047228803
4.3147043e-05
-3.3425403e-05
-0.00062992085
5.971404e-05
-4.12796e-05
-0.00068260666
5.8631026e-05
-4.4625483e-05
-0.00061773736
4.5295248e-05
-4.238341e-05
-0.00049994795
-3.8295204e-05
-0.00038579307
3.408443e-05
-6.232475e-07
-1.7100581e-06
-3.0249808e-05
9.6231045e-07
-7.6062791e-06
-0.00012512601
8.6738117e-06
-1.8368205e-05
-0.00027938388
2.349577e-05
-3.3555938e-05
-0.00046960641
4.3569166e-05
-4.8879954e-05
-0.00062882128
6.0969679e-05
-6.008653e-05
-0.00068474486
6.101711e-05
-6.4642541e-05
-0.00062262699
4.8444853e-05
-6.1340172e-05
-0.00050515805
-5.5459304e-05
-0.00038927768
3.6941651e-05
-5.6016843e-07
-2.2138503e-06
-2.9692716e-05
1.1221425e-06
-9.8242235e-06
-0.00012303217
8.8730777e-06
-2.3672267e-05
-0.00027540543
2.370898e-05
-4.3169649e-05
-0.00046474957
4.3944666e-05
-6.3083282e-05
-0.00062576674
6.2252538e-05
-7.7123405e-05
-0.00068620557
6.3688183e-05
-8.240042e-05
-0.00062830697
5.220783e-05
-7.8116839e-05
-0.00051174352
-7.068075e-05
-0.00039399161
4.0754867e-05
-4.7978454e-07
-2.6627557e-06
-2.8892872e-05
1.3118013e-06
-1.1780173e-05
-0.0001200021
9.0861865e-06
-2.8327719e-05
-0.0002695349
2.3911284e-05
-5.1631881e-05
-0.00045717537
4.4152547e-05
-7.5621261e-05
-0.00062001331
6.2785657e-05
-9.1950857e-05
-0.00068548985
6.5770404e-05
-9.7301631e-05
-0.00063370095
5.576146e-05
-9.2193836e-05
-0.0005187952
-8.3331871e-05
-0.00039935477
4.4710259e-05
-4.0814105e-07
-3.0237047e-06
-2.7809162e-05
1.4064199e-06
-1.3341246e-05
-0.00011585409
8.9556175e-06
-3.2036541e-05
-0.00026132835
2.3252506e-05
-5.8405306e-05
-0.00044603707
4.2760717e-05
-8.5660373e-05
-0.00061022083
6.1385006e-05
-0.00010396526
-0.0006814951
6.6464605e-05
-0.00010920759
-0.0006370768
5.8445353e-05
-0.00010319505
-0.00052487436
-9.2824926e-05
-0.00040432178
4.8246606e-05
-3.5136706e-07
-3.2607886e-06
-2.6401741e-05
1.3773595e-06
-1.4366343e-05
-0.00011040123
8.4132032e-06
-3.4497136e-05
-0.00025029631
2.169533e-05
-6.3004403e-05
-0.00043036521
3.9971163e-05
-9.269142e-05
-0.00059473045
5.813631e-05
-0.00011248633
-0.00067213634
6.5425493e-05
-0.00011749016
-0.00063628738
5.9820418e-05
-0.00011068115
-0.000528134
-9.8593154e-05
-0.00040750962
5.0940637e-05
-2.8114913e-07
-3.3634326e-06
-2.4656353e-05
1.3409627e-06
-1.4792902e-05
-0.00010352419
7.7121243e-06
-3.5533785e-05
-0.00023602516
1.9638477e-05
-6.5089275e-05
-0.0004091632
3.613298e-05
-9.6176653e-05
-0.00057176566
5.3139395e-05
-0.0001169758
-0.0006548362
6.2399774e-05
-0.00012166204
-0.00062884732
5.9583323e-05
-0.00011420162
-0.00052636983
-0.00010009857
-0.00040722137
5.24864e-05
-2.5969085e-07
-3.2794276e-06
-2.2584755e-05
1.0598081e-06
-1.4444796e-05
-9.5261162e-05
6.3553304e-06
-3.4808033e-05
-0.00021853962
1.6333025e-05
-6.4170288e-05
-0.0003822828
3.0524297e-05
-9.5682303e-05
-0.00054075162
4.5872289e-05
-0.0001173441
-0.0006283457
5.6526413e-05
-0.00012186448
-0.00061220521
5.7038439e-05
-0.00011350028
-0.00051789951
-9.7107847e-05
-0.00040190092
5.2428614e-05
-2.3779254e-07
-3.0206869e-06
-2.0163654e-05
7.3703991e-07
-1.3340177e-05
-8.5523985e-05
4.8048318e-06
-3.229655e-05
-0.00019762653
1.2519743e-05
-6.0077093e-05
-0.00034925056
2.3854288e-05
-9.0713152e-05
-0.0005007478
3.7029884e-05
-0.00011262047
-0.0005910757
4.7995361e-05
-0.00011732355
-0.00058434572
5.1864506e-05
-0.00010785324
-0.00050046246
-8.9499099e-05
-0.00038935553
5.0407461e-05
-2.2636197e-07
-2.5895162e-06
-1.7496627e-05
3.600752e-07
-1.1487937e-05
-7.4660631e-05
3.1464405e-06
-2.8043051e-05
-0.00017386911
8.523008e-06
-5.284372e-05
-0.00031064569
1.6666783e-05
-8.0997782e-05
-0.000451763
2.6947251e-05
-0.00010181311
-0.00054210333
3.6857472e-05
-0.00010617082
-0.00054429921
4.2983048e-05
-9.5576317e-05
-0.00047129121
-7.6623118e-05
-0.00036641925
4.4374237e-05
-1.9649312e-07
-1.469764e-05
-2.0420072e-06
1.38652e-07
-6.3165243e-05
-9.1562077e-06
1.8800739e-06
-0.00014836013
-2.2533408e-05
4.9689448e-06
-0.00026810155
-4.2844433e-05
9.5127172e-06
-0.00039535479
-6.6339632e-05
1.5808132e-05
-0.00048163585
-8.3864231e-05
2.2807274e-05
-0.00048983839
-8.6617397e-05
2.8422698e-05
-0.00042624036
-7.5227028e-05
-0.00032917269
-5.8068775e-05
3.1628445e-05
1.1047586e-07
1.5149919e-06
-1.4803873e-05
-1.5192323e-06
2.5230552e-07
6.2504542e-06
-6.3197461e-05
-6.3600633e-06
9.1459782e-07
1.4019735e-05
-0.00014848977
-1.4552395e-05
4.1740187e-06
2.3401561e-05
-0.00026955615
-2.5206401e-05
1.2749478e-05
2.9262003e-05
-0.0003991005
-3.4091761e-05
2.7768623e-05
2.3799847e-05
-0.0004864648
-3.3989882e-05
4.680548e-05
2.6690201e-06
-0.00049197286
-1.9570959e-05
6.453069e-05
-2.6752144e-05
-0.00042242468
5.2115523e-06
-4.8253942e-05
-0.00032035549
2.9608064e-05
7.4359221e-05
1.9518121e-07
1.5081658e-06
-1.7684983e-05
6.6624546e-07
6.068257e-06
-7.4949484e-05
2.3930323e-06
1.3166544e-05
-0.00017474267
8.4048121e-06
2.0817702e-05
-0.00031407356
2.1904994e-05
2.3327091e-05
-0.00045932811
4.3045779e-05
1.2914724e-05
-0.00055235881
6.688379e-05
-1.3367632e-05
-0.00055210074
8.573548e-05
-4.5461972e-05
-0.00047143319
-6.5343585e-05
-0.00035934929
9.5755036e-05
3.1639188e-07
1.4728603e-06
-2.0444732e-05
1.2042255e-06
5.7741682e-06
-8.6117695e-05
4.0310262e-06
1.2092275e-05
-0.00019937901
1.2576966e-05
1.7962799e-05
-0.0003549415
3.0406807e-05
1.7361909e-05
-0.00051261216
5.6674733e-05
2.9850505e-06
-0.00060741337
8.3826152e-05
-2.6436087e-05
-0.00059842858
0.00010274788
-5.8889831e-05
-0.00050595638
-7.6499517e-05
-0.00038486388
0.00010941201
4.5040212e-07
1.3976246e-06
-2.2959896e-05
1.7964581e-06
5.3476591e-06
-9.6180638e-05
5.7795014e-06
1.0816885e-05
-0.00022124713
1.6821173e-05
1.5037067e-05
-0.00039039851
3.8667752e-05
1.1962865e-05
-0.00055719906
6.936992e-05
-5.0934177e-06
-0.00065096936
9.8661123e-05
-3.5846888e-05
-0.00063208524
0.00011685361
-6.658108e-05
-0.00052840053
-8.1394539e-05
-0.00039994067
0.00011978837
5.7707376e-07
1.2862034e-06
-2.5121961e-05
2.3485025e-06
4.8203719e-06
-0.00010476818
7.3938603e-06
9.4453619e-06
-0.00023969866
2.071244e-05
1.2277339e-05
-0.00041972155
4.6178602e-05
7.5106681e-06
-0.00059277906
8.0655975e-05
-1.0755257e-05
-0.00068365116
0.00011171584
-4.0951356e-05
-0.00065480242
0.0001288965
-6.871969e-05
-0.00054141176
-8.0724262e-05
-0.00040743785
0.00012844252
6.8065158e-07
1.1548009e-06
-2.6950966e-05
2.807078e-06
4.2448559e-06
-0.00011195206
8.7791688e-06
8.0721968e-06
-0.00025489489
2.4139565e-05
9.8096171e-06
-0.00044325736
5.2871456e-05
4.1383375e-06
-0.00062008945
9.0620275e-05
-1.3915458e-05
-0.00070672399
0.0001235006
-4.2000668e-05
-0.00066811808
0.000139703
-6.6021779e-05
-0.00054703428
-7.5410862e-05
-0.00040937604
0.00013625579
7.7659691e-07
9.9777021e-07
-2.842869e-05
3.2304484e-06
3.6082695e-06
-0.00011767114
1.004035e-05
6.6855195e-06
-0.00026675107
2.7196388e-05
7.6366689e-06
-0.00046101981
5.8723318e-05
1.8710206e-06
-0.00063948032
9.9104344e-05
-1.4694332e-05
-0.00072109667
0.00013383044
-3.946725e-05
-0.00067433599
0.0001492426
-5.9482188e-05
-0.00054682597
-6.6569846e-05
-0.00040724742
0.00014332714
8.6119076e-07
8.1377457e-07
-2.9570167e-05
3.6060172e-06
2.903792e-06
-0.00012204239
1.1155551e-05
5.2639376e-06
-0.00027566236
2.9865463e-05
5.6999667e-06
-0.00047394823
6.3731475e-05
6.2941396e-07
-0.00065263747
0.0001062731
-1.3611835e-05
-0.00072911363
0.00014263806
-3.4427914e-05
-0.00067510486
0.00015755142
-5.0169396e-05
-0.00054302102
-5.5256967e-05
-0.00040276722
0.00014965106
9.2890838e-07
6.0725729e-07
-3.0415134e-05
3.9058934e-06
2.1441692e-06
-0.00012524948
1.2061826e-05
3.8051295e-06
-0.00028210231
3.2136074e-05
3.8731364e-06
-0.00048299684
6.8214025e-05
-9.88506e-08
-0.00066111602
0.00011251403
-1.1266102e-05
-0.00073285102
0.00014997127
-2.731604e-05
-0.00067287568
0.00016452614
-3.8918285e-05
-0.00053754907
-4.2355714e-05
-0.0003973741
0.0001550075
9.5919864e-07
4.0360715e-07
-3.1005259e-05
4.0408985e-06
1.4113241e-06
-0.00012747473
1.2510768e-05
2.4614977e-06
-0.00028651003
3.3384755e-05
2.384877e-06
-0.00048899218
7.1091319e-05
-3.9294833e-07
-0.00066623333
0.0001171593
-8.0351599e-06
-0.00073404348
0.00015558637
-1.8875742e-05
-0.00066949401
0.0001699633
-2.6478325e-05
-0.00053197452
-2.8596393e-05
-0.00039222669
0.00015915312
9.7875985e-07
2.0071247e-07
-3.1398774e-05
4.1282648e-06
6.9658656e-07
-0.00012890438
1.2805206e-05
1.1996415e-06
-0.0002892203
3.4223891e-05
1.1176683e-06
-0.00049243941
7.2958194e-05
-3.2570818e-07
-0.00066872188
0.00012020397
-4.2073463e-06
-0.00073367983
0.00015933807
-9.6508978e-06
-0.00066609597
0.00017364518
-1.339643e-05
-0.00052733654
-1.4382827e-05
-0.00038812982
0.0001617685
9.8694974e-07
1.3042804e-11
-3.1561033e-05
4.160919e-06
3.7115817e-11
-0.0001295226
1.2920001e-05
6.2190513e-11
-0.0002904409
3.4581114e-05
1.3587125e-11
-0.00049404337
7.3786188e-05
-1.583075e-10
-0.00066989474
0.00012161011
-5.3769947e-10
-0.00073345252
0.00016114449
-7.5832064e-10
-0.00066434096
0.00017547075
-4.2586214e-10
-0.00052495119
4.4431541e-10
-0.00038601447
0.00016301762
9.8693034e-07
-2.006797e-07
-3.1561029e-05
4.160886e-06
-6.9649513e-07
-0.00012952259
1.291999e-05
-1.1994901e-06
-0.00029044086
3.4581196e-05
-1.117611e-06
-0.00049404333
7.3786187e-05
3.2537946e-07
-0.00066989469
0.00012161012
4.206216e-06
-0.00073345248
0.00016114454
9.6493062e-06
-0.00066434094
0.00017547077
1.3395517e-05
-0.0005249512
1.4383698e-05
-0.00038601448
0.00016301766
9.7869525e-07
-4.0357026e-07
-3.1398776e-05
4.1281579e-06
-1.4112188e-06
-0.00012890439
1.2805162e-05
-2.4613103e-06
-0.00028922031
3.4224102e-05
-2.3847653e-06
-0.00049243943
7.2958203e-05
3.9257051e-07
-0.00066872193
0.00012020406
8.033879e-06
-0.00073367989
0.00015933824
1.8873956e-05
-0.00066609604
0.00017364528
2.6477262e-05
-0.00052733663
2.8597236e-05
-0.00038812989
0.00016176864
9.5913644e-07
-6.0722663e-07
-3.1005254e-05
4.0408012e-06
-2.1440722e-06
-0.00012747471
1.2510694e-05
-3.8049336e-06
-0.00028650998
3.3384962e-05
-3.8730176e-06
-0.00048899212
7.1091303e-05
9.8323822e-08
-0.00066623329
0.00011715943
1.1264571e-05
-0.00073404347
0.00015558662
2.7313979e-05
-0.00066949406
0.00016996347
3.8917033e-05
-0.00053197462
4.2356508e-05
-0.00039222679
0.00015915337
9.2896201e-07
-8.1373535e-07
-3.0415132e-05
3.9059729e-06
-2.9036767e-06
-0.00012524947
1.2061753e-05
-5.2637424e-06
-0.00028210229
3.2136147e-05
-5.6999252e-06
-0.00048299682
6.8214023e-05
-6.3017066e-07
-0.00066111604
0.00011251425
1.3610062e-05
-0.00073285107
0.00014997163
3.4425636e-05
-0.0006728758
0.0001645264
5.0168042e-05
-0.00053754922
5.5257716e-05
-0.00039737421
0.00015500782
8.6131564e-07
-9.9772215e-07
-2.957017e-05
3.6061659e-06
-3.6081557e-06
-0.00012204239
1.11554e-05
-6.6853955e-06
-0.00027566238
2.9865368e-05
-7.6367859e-06
-0.00047394826
6.3731593e-05
-1.8719458e-06
-0.00065263757
0.00010627342
1.469246e-05
-0.00072911376
0.0001426385
3.9464933e-05
-0.00067510505
0.00015755172
5.9480924e-05
-0.00054302121
6.657059e-05
-0.00040276735
0.0001496513
7.7663112e-07
-1.1547891e-06
-2.8428696e-05
3.2304716e-06
-4.2448408e-06
-0.00011767116
1.0040187e-05
-8.0722145e-06
-0.00026675111
2.7196328e-05
-9.8098512e-06
-0.00046101988
5.8723654e-05
-4.1392646e-06
-0.00063948049
9.910472e-05
1.391359e-05
-0.0007210969
0.00013383092
4.1998488e-05
-0.00067433626
0.00014924283
6.6020821e-05
-0.00054682619
7.5411719e-05
-0.00040724754
0.00014332716
6.8067452e-07
-1.286196e-06
-2.6950977e-05
2.8071699e-06
-4.820364e-06
-0.0001119521
8.7792062e-06
-9.4454198e-06
-0.00025489498
2.4139655e-05
-1.2277696e-05
-0.00044325752
5.2871859e-05
-7.5117789e-06
-0.00062008973
9.0620613e-05
1.0753163e-05
-0.00070672434
0.00012350101
4.0949287e-05
-0.00066811842
0.000139703
6.8719133e-05
-0.00054703451
8.0725438e-05
-0.00040937614
0.00013625552
5.7708264e-07
-1.3976324e-06
-2.5121966e-05
2.3485281e-06
-5.3477024e-06
-0.0001047682
7.3938835e-06
-1.0817056e-05
-0.00023969869
2.0712543e-05
-1.5037627e-05
-0.00041972162
4.61789e-05
-1.1964248e-05
-0.00059277918
8.0656269e-05
5.0911411e-06
-0.00068365135
0.00011171606
3.5844855e-05
-0.00065480261
0.00012889619
6.6580831e-05
-0.0005414119
8.1396184e-05
-0.0004074379
0.00012844198
4.5040146e-07
-1.4728701e-06
-2.2959896e-05
1.7964635e-06
-5.7742205e-06
-9.6180636e-05
5.7795186e-06
-1.2092476e-05
-0.00022124712
1.6821246e-05
-1.7963422e-05
-0.0003903985
3.8667967e-05
-1.7363294e-05
-0.00055719906
6.9370098e-05
-2.9871731e-06
-0.00065096942
9.8661022e-05
2.6434157e-05
-0.00063208533
0.00011685304
5.8889857e-05
-0.0005284006
7.6501507e-05
-0.00039994068
0.00011978765
3.1639226e-07
-1.508178e-06
-2.0444729e-05
1.2042285e-06
-6.0683246e-06
-8.6117679e-05
4.0310708e-06
-1.3166795e-05
-0.00019937897
1.2577145e-05
-2.0818437e-05
-0.00035494143
3.0406926e-05
-2.3328666e-05
-0.00051261209
5.6674418e-05
-1.2917049e-05
-0.00060741336
8.3825694e-05
1.3365793e-05
-0.00059842862
0.00010274707
4.5462152e-05
-0.00050595639
6.5345131e-05
-0.00038486381
0.00010941123
1.9518391e-07
-1.5150057e-06
-1.7684983e-05
6.6625568e-07
-6.2505239e-06
-7.4949483e-05
2.3930632e-06
-1.4019965e-05
-0.00017474267
8.4049027e-06
-2.3402178e-05
-0.00031407356
2.1904864e-05
-2.9263292e-05
-0.00045932814
4.3045105e-05
-2.3801786e-05
-0.00055235886
6.6882994e-05
-2.6704904e-06
-0.00055210078
8.5734459e-05
2.6752346e-05
-0.00047143318
4.8255148e-05
-0.00035934916
9.575477e-05
1.1047772e-07
-1.4803876e-05
-1.519246e-06
2.5229732e-07
-6.3197469e-05
-6.3601297e-06
9.1451041e-07
-0.00014848979
-1.4552584e-05
4.1737854e-06
-0.00026955619
-2.5206869e-05
1.2748851e-05
-0.00039910056
-3.4092766e-05
2.7767205e-05
-0.00048646486
-3.3991579e-05
4.6803886e-05
-0.00049197287
-1.9572781e-05
6.4529501e-05
-0.00042242465
5.2101888e-06
-0.0003203554
2.9607899e-05
7.4359666e-05
-5.3377517e-08
4.6580234e-07
-1.4844869e-05
-3.7142855e-07
-5.6612792e-08
1.8726719e-06
-6.3555439e-05
-1.5114464e-06
2.4069786e-08
3.8586341e-06
-0.00014924428
-3.1847753e-06
2.8609349e-08
4.9630949e-06
-0.00027016385
-4.3598983e-06
5.3770263e-07
1.4019095e-06
-0.00039881228
-2.199177e-06
3.9025216e-06
-1.2200902e-05
-0.00048517394
7.5453793e-06
1.3363486e-05
-3.8102976e-05
-0.00049062362
2.7292968e-05
2.9954403e-05
-6.9597948e-05
-0.00042233295
5.2915181e-05
-9.3867103e-05
-0.00032167227
7.5156606e-05
4.9981716e-05
-5.3337863e-08
5.5042572e-07