/*--------------------------------*- C++ -*----------------------------------*\
| =========                 |                                                 |
| \\      /  F ield         | OpenFOAM: The Open Source CFD Toolbox           |
|  \\    /   O peration     | Version:  2406                                  |
|   \\  /    A nd           | Website:  www.openfoam.com                      |
|    \\/     M anipulation  |                                                 |
\*---------------------------------------------------------------------------*/
FoamFile
{
    version     2.0;
    format      ascii;
    arch        "LSB;label=32;scalar=64";
    class       volVectorField;
    location    "5.75";
    object      U;
}
// * * * * * * * * * * * * * * * * * * * * * * * * * * * * * * * * * * * * * //

dimensions      [0 1 -1 0 0 0 0];

internalField   nonuniform List<vector> 
34560
(
(-0.060604977 0.010628262 0.017149833)
(-0.18739486 0.033664055 0.052839884)
(-0.32898741 0.063571341 0.089423265)
(-0.46619061 0.10052172 0.11924025)
(-0.57253849 0.14248534 0.13531239)
(-0.62488784 0.18661483 0.13423541)
(-0.61995171 0.22925537 0.12021038)
(-0.576865 0.2659203 0.10180395)
(-0.52426651 0.29266137 0.087687505)
(-0.065807564 0.012078384 0.018383901)
(-0.20099384 0.037460763 0.056108792)
(-0.34758273 0.069367872 0.093181601)
(-0.48292274 0.10753663 0.12093219)
(-0.57882692 0.14966308 0.13269077)
(-0.61432037 0.19303536 0.12671064)
(-0.59204396 0.23389969 0.10925602)
(-0.53730542 0.26786806 0.089804351)
(-0.4793258 0.29147305 0.076153994)
(-0.070579646 0.012757333 0.018632031)
(-0.21349991 0.03924117 0.056674728)
(-0.36460566 0.072039932 0.092831581)
(-0.49783713 0.11046493 0.11795088)
(-0.58318412 0.1518919 0.12584491)
(-0.6023053 0.19366673 0.1161027)
(-0.56441925 0.23194423 0.096437189)
(-0.50035034 0.2624552 0.076628386)
(-0.43859001 0.28279261 0.063836627)
(-0.074645899 0.013223461 0.01871718)
(-0.22396942 0.040274946 0.056671888)
(-0.37836571 0.073150643 0.091432619)
(-0.50882093 0.11078937 0.11352286)
(-0.58402103 0.15041129 0.11755604)
(-0.58849575 0.18952966 0.10459193)
(-0.53777706 0.22430994 0.083486401)
(-0.46679537 0.25084583 0.064034598)
(-0.40269523 0.26778499 0.052701012)
(-0.077854951 0.013095993 0.018470201)
(-0.23208366 0.039690967 0.055779142)
(-0.38853121 0.071658243 0.088791092)
(-0.51564377 0.10764189 0.10788136)
(-0.58128867 0.14476021 0.10847751)
(-0.57291904 0.18059893 0.092953128)
(-0.5120709 0.21139861 0.071056716)
(-0.43622957 0.23392725 0.052502803)
(-0.37113968 0.2476883 0.042952561)
(-0.080335102 0.012555869 0.01793719)
(-0.23818502 0.037922653 0.054086371)
(-0.39562939 0.068066601 0.085078289)
(-0.5189422 0.101448 0.10131519)
(-0.57566527 0.13526801 0.099002039)
(-0.55619772 0.16720837 0.081569473)
(-0.48741511 0.19377171 0.059463062)
(-0.40838621 0.21245735 0.042212918)
(-0.34344865 0.22333969 0.034535964)
(-0.082159734 0.011575194 0.017321451)
(-0.24248288 0.034848429 0.052145257)
(-0.40005003 0.062230767 0.081063861)
(-0.51938006 0.092131748 0.094623543)
(-0.56799467 0.12197114 0.089809704)
(-0.53916868 0.14957726 0.070956076)
(-0.46432199 0.17183472 0.0490329)
(-0.38333953 0.18693768 0.033276186)
(-0.31935037 0.19529814 0.027395883)
(-0.083420174 0.010120773 0.016650995)
(-0.24531828 0.030419616 0.050082005)
(-0.4024806 0.054144446 0.077037773)
(-0.51801466 0.079778861 0.088252846)
(-0.5595844 0.10507326 0.081397615)
(-0.52311292 0.12804959 0.061540356)
(-0.44355164 0.14607972 0.040045545)
(-0.36145958 0.15789516 0.02579666)
(-0.29883443 0.1641189 0.021519851)
(-0.084247768 0.0082615791 0.016007576)
(-0.24708487 0.024820304 0.048127053)
(-0.40360772 0.044106414 0.073349436)
(-0.51582913 0.064763423 0.082637151)
(-0.55158524 0.085014863 0.074190052)
(-0.50910174 0.10313395 0.053661798)
(-0.42589612 0.11704982 0.032698684)
(-0.34320623 0.12589212 0.019834717)
(-0.28203561 0.13034451 0.016897476)
(-0.084758308 0.0061155539 0.01545554)
(-0.24810383 0.018373212 0.046461804)
(-0.40394755 0.032609831 0.070287226)
(-0.51351493 0.047745291 0.078109316)
(-0.54477886 0.06252597 0.068510635)
(-0.49782645 0.075586571 0.04757972)
(-0.41198018 0.085459143 0.027140054)
(-0.32901198 0.091581306 0.015423641)
(-0.2691509 0.094552404 0.013518694)
(-0.085071543 0.0037792741 0.015073648)
(-0.24864601 0.011340399 0.045299123)
(-0.40388021 0.020080894 0.068146408)
(-0.51153808 0.029303084 0.074972019)
(-0.5397105 0.038276494 0.064626128)
(-0.48981764 0.046137781 0.043488042)
(-0.4023007 0.052018879 0.02346525)
(-0.31926064 0.055606639 0.012569167)
(-0.2603962 0.057304339 0.011365874)
(-0.085175785 0.0012464401 0.014879626)
(-0.24882539 0.0037454458 0.044720553)
(-0.40376519 0.0066620386 0.067100541)
(-0.51050506 0.0097636441 0.073451512)
(-0.53715712 0.01279587 0.062736469)
(-0.48577286 0.015452968 0.041493431)
(-0.39740283 0.017435587 0.02167761)
(-0.31432374 0.018640048 0.011192795)
(-0.25597075 0.019208566 0.010334946)
(-0.085175775 -0.0012463758 0.014879622)
(-0.24882537 -0.0037453345 0.044720563)
(-0.4037652 -0.006661915 0.067100548)
(-0.5105051 -0.0097635228 0.073451548)
(-0.53715713 -0.012795978 0.062736517)
(-0.4857729 -0.015453233 0.041493446)
(-0.39740286 -0.017436001 0.021677642)
(-0.31432376 -0.018640518 0.011192828)
(-0.25597081 -0.019208863 0.010335006)
(-0.085071528 -0.0037792706 0.015073645)
(-0.24864599 -0.011340384 0.045299079)
(-0.40388027 -0.020080846 0.068146353)
(-0.51153817 -0.029303018 0.074972089)
(-0.5397105 -0.038276571 0.06462625)
(-0.48981772 -0.046137983 0.043488083)
(-0.40230077 -0.052019206 0.023465338)
(-0.31926069 -0.055607008 0.012569251)
(-0.26039636 -0.057304586 0.011366022)
(-0.084758318 -0.0061155638 0.015455541)
(-0.24810389 -0.018373247 0.046461693)
(-0.40394769 -0.032609884 0.070287098)
(-0.51351499 -0.047745337 0.078109371)
(-0.54477882 -0.062526022 0.068510737)
(-0.49782656 -0.075586688 0.047579744)
(-0.41198027 -0.085459331 0.027140165)
(-0.32901204 -0.091581515 0.015423753)
(-0.26915108 -0.09455257 0.013518889)
(-0.084247802 -0.0082615764 0.016007578)
(-0.24708498 -0.024820327 0.048127099)
(-0.40360783 -0.044106532 0.073349446)
(-0.51582911 -0.064763546 0.082637178)
(-0.55158519 -0.085014877 0.074190026)
(-0.50910186 -0.10313401 0.053661771)
(-0.42589619 -0.11704988 0.032698787)
(-0.34320626 -0.12589217 0.019834839)
(-0.28203576 -0.13034459 0.016897704)
(-0.08342018 -0.010120786 0.016650988)
(-0.24531829 -0.030419619 0.050082139)
(-0.4024806 -0.054144506 0.077037783)
(-0.5180147 -0.079778939 0.088252679)
(-0.55958441 -0.10507325 0.081397438)
(-0.52311298 -0.12804965 0.06154032)
(-0.44355166 -0.14607974 0.040045629)
(-0.36145957 -0.15789512 0.025796791)
(-0.29883451 -0.1641189 0.021520108)
(-0.082159742 -0.011575186 0.017321446)
(-0.24248292 -0.034848427 0.052145224)
(-0.40005015 -0.062230797 0.081063756)
(-0.51938027 -0.092131866 0.094623418)
(-0.56799465 -0.12197124 0.089809692)
(-0.53916856 -0.14957744 0.070956149)
(-0.46432193 -0.17183483 0.049032959)
(-0.38333947 -0.18693764 0.033276318)
(-0.31935038 -0.19529808 0.027396129)
(-0.080335108 -0.01255585 0.017937183)
(-0.23818504 -0.037922608 0.054086445)
(-0.39562942 -0.068066599 0.085078423)
(-0.51894221 -0.10144814 0.10131527)
(-0.57566511 -0.13526823 0.099002071)
(-0.55619751 -0.16720867 0.081569466)
(-0.48741505 -0.19377201 0.059463036)
(-0.40838611 -0.21245741 0.042213025)
(-0.34344862 -0.22333958 0.034536151)
(-0.077854917 -0.013095955 0.018470183)
(-0.23208355 -0.039690867 0.055779143)
(-0.38853107 -0.071658184 0.088791002)
(-0.51564384 -0.10764197 0.10788119)
(-0.58128891 -0.14476044 0.10847746)
(-0.57291914 -0.18059927 0.092953084)
(-0.51207104 -0.21139906 0.07105666)
(-0.4362295 -0.23392742 0.052502796)
(-0.37113964 -0.24768815 0.042952669)
(-0.07464588 -0.013223424 0.018717158)
(-0.22396937 -0.040274866 0.056671824)
(-0.37836571 -0.073150557 0.091432561)
(-0.50882114 -0.11078939 0.11352286)
(-0.58402131 -0.1504115 0.11755615)
(-0.58849589 -0.18952999 0.10459196)
(-0.53777724 -0.22431034 0.083486328)
(-0.4667953 -0.25084609 0.064034492)
(-0.40269513 -0.26778502 0.05270112)
(-0.070579642 -0.012757344 0.018632043)
(-0.2134999 -0.03924122 0.056674741)
(-0.36460568 -0.072040012 0.092831629)
(-0.49783727 -0.11046509 0.11795099)
(-0.5831844 -0.15189223 0.12584508)
(-0.60230564 -0.19366729 0.11610273)
(-0.56441917 -0.23194467 0.096437153)
(-0.50035016 -0.26245557 0.076628499)
(-0.43859004 -0.28279269 0.063836533)
(-0.06580754 -0.012078394 0.01838391)
(-0.20099375 -0.037460807 0.056108806)
(-0.34758259 -0.069367908 0.093181669)
(-0.48292259 -0.10753668 0.12093232)
(-0.57882684 -0.14966319 0.13269098)
(-0.61432044 -0.19303576 0.12671079)
(-0.59204387 -0.23390021 0.10925619)
(-0.5373052 -0.26786844 0.089804095)
(-0.47932594 -0.29147316 0.076153477)
(-0.060604974 -0.010628269 0.017149842)
(-0.18739486 -0.0336641 0.052839914)
(-0.32898743 -0.063571408 0.089423396)
(-0.46619072 -0.10052187 0.11924051)
(-0.57253868 -0.14248554 0.13531279)
(-0.62488809 -0.18661513 0.13423569)
(-0.61995195 -0.2292558 0.12021042)
(-0.57686512 -0.26592057 0.10180352)
(-0.52426642 -0.29266155 0.087687088)
(-0.097306694 0.0015174319 0.0014025542)
(-0.30288994 0.004909469 0.0043927379)
(-0.53607791 0.0091867482 0.0075190954)
(-0.76779193 0.013961343 0.010063296)
(-0.95592145 0.01844774 0.011034862)
(-1.0633609 0.021765122 0.0096385609)
(-1.0822813 0.023589833 0.0059332065)
(-1.0391399 0.024456825 0.00098396895)
(-0.97316872 0.024794624 -0.0042180116)
(-0.10649714 0.0018443357 0.0015154441)
(-0.32783948 0.0058707951 0.0046875653)
(-0.57261106 0.010757464 0.0078438382)
(-0.80600752 0.015926163 0.010114833)
(-0.98201156 0.020430943 0.010436028)
(-1.06574 0.023389296 0.0081891254)
(-1.0582012 0.024706437 0.0037898065)
(-0.99500449 0.025104394 -0.0012646368)
(-0.91913451 0.025003063 -0.006091522)
(-0.11488656 0.0020016005 0.0014363142)
(-0.3505016 0.0063530363 0.0044281631)
(-0.60544972 0.011559504 0.0072804249)
(-0.8395795 0.016900437 0.0090807539)
(-1.0035968 0.021313063 0.0087865969)
(-1.0657609 0.0239526 0.0059641534)
(-1.0358676 0.024905815 0.0013404319)
(-0.95731834 0.024934754 -0.0031508689)
(-0.8755519 0.024407438 -0.0068341067)
(-0.12225825 0.0020861688 0.0013093652)
(-0.3700742 0.006592572 0.0040094914)
(-0.63310405 0.011908216 0.0064337872)
(-0.86656399 0.017214244 0.0076640889)
(-1.018859 0.021397935 0.0067406876)
(-1.0620058 0.023693391 0.0034251193)
(-1.0138045 0.024341834 -0.0011921428)
(-0.92415454 0.024004952 -0.0048599996)
(-0.83909566 0.02318688 -0.0071518377)
(-0.12831124 0.0020556555 0.0011295393)
(-0.3859161 0.0064962694 0.0034396604)
(-0.65490435 0.011699681 0.0053652103)
(-0.88656658 0.016806208 0.0060175586)
(-1.0277333 0.020709026 0.0045278383)
(-1.0543724 0.022728139 0.00085201887)
(-0.99144982 0.02316598 -0.0035950891)
(-0.89431645 0.022457304 -0.0063764572)
(-0.80810852 0.021451322 -0.0074052511)
(-0.13324921 0.0019424168 0.00091679656)
(-0.39856906 0.0061458423 0.0027733853)
(-0.67168244 0.011047844 0.0041659797)
(-0.90061841 0.015801169 0.0042690204)
(-1.0312726 0.019356455 0.0023138941)
(-1.0435966 0.021162522 -0.001643961)
(-0.96898773 0.021439335 -0.0057678406)
(-0.86718545 0.020464535 -0.0076570748)
(-0.78143012 0.019364479 -0.0076263035)
(-0.13719815 0.0017556815 0.00070856934)
(-0.40841528 0.0055636026 0.0021178872)
(-0.68412352 0.0099940714 0.0029923213)
(-0.90972659 0.014256146 0.0025859372)
(-1.0307015 0.017393677 0.00022103298)
(-1.0308135 0.018971078 -0.0039045401)
(-0.94710952 0.019150457 -0.0076570087)
(-0.84265545 0.018061724 -0.0086935722)
(-0.75840241 0.016951202 -0.0078020664)
(-0.14018446 0.001503274 0.00051563107)
(-0.41569437 0.0047777457 0.0015139023)
(-0.69288146 0.0085896692 0.0019294931)
(-0.915066 0.012241678 0.0010927509)
(-1.0275723 0.014911202 -0.001583679)
(-1.0175271 0.016251392 -0.0057910168)
(-0.92691639 0.016387133 -0.0091844417)
(-0.82112025 0.015300489 -0.0094584929)
(-0.73884614 0.014251269 -0.0078889781)
(-0.14234898 0.0012091564 0.00035221436)
(-0.42086052 0.0038523542 0.0010027981)
(-0.69879068 0.0069323692 0.0010376127)
(-0.91786403 0.0098680508 -0.00013669427)
(-1.0234124 0.011904334 -0.0029882513)
(-1.0052385 0.013013032 -0.0071810339)
(-0.90947272 0.013201587 -0.010293225)
(-0.80309488 0.012232538 -0.0099352462)
(-0.7228313 0.011317544 -0.0078602746)
(-0.14382858 0.00088601771 0.00022248772)
(-0.42433049 0.0028293827 0.00059490605)
(-0.70256099 0.0050994899 0.00032420916)
(-0.91907816 0.0072666311 -0.0011094593)
(-1.0192738 0.0087601081 -0.0040894366)
(-0.99501853 0.0095893285 -0.0082301554)
(-0.8955984 0.0097011889 -0.011031713)
(-0.7890558 0.0089346034 -0.010174402)
(-0.71053759 0.0082237603 -0.0077482296)
(-0.14488637 0.00054572818 0.00013231225)
(-0.42668573 0.0017418705 0.00030921079)
(-0.70491478 0.0031372464 -0.00017812824)
(-0.91944224 0.004468565 -0.0017897432)
(-1.0158767 0.0053866226 -0.0048511354)
(-0.98753086 0.0059005372 -0.0089395171)
(-0.88584665 0.0059587918 -0.011483211)
(-0.77938318 0.0054631926 -0.010261264)
(-0.70216956 0.0050097325 -0.0076269645)
(-0.14526503 0.00018360637 8.8543689e-05)
(-0.42756875 0.00058503034 0.00017005389)
(-0.70579996 0.0010532373 -0.00042335335)
(-0.91943639 0.0014984306 -0.0021225796)
(-1.0140987 0.0018050708 -0.0052218806)
(-0.98374285 0.0019769703 -0.0092814556)
(-0.88093332 0.0019963899 -0.011689975)
(-0.7745059 0.0018294739 -0.010276954)
(-0.69794586 0.0016787108 -0.0075480852)
(-0.14526503 -0.00018357368 8.8542702e-05)
(-0.42756874 -0.00058497083 0.00017006582)
(-0.70579997 -0.0010531753 -0.00042335195)
(-0.9194364 -0.0014983653 -0.0021225731)
(-1.0140987 -0.0018051263 -0.0052218653)
(-0.98374286 -0.0019771198 -0.0092814522)
(-0.88093333 -0.0019966193 -0.011689959)
(-0.7745059 -0.001829687 -0.010276944)
(-0.69794588 -0.0016787202 -0.0075480755)
(-0.14488637 -0.00054571972 0.00013231036)
(-0.42668572 -0.0017418491 0.00030920921)
(-0.7049148 -0.0031372118 -0.00017816674)
(-0.91944227 -0.0044685212 -0.0017897472)
(-1.0158767 -0.005386682 -0.0048511016)
(-0.98753091 -0.0059006898 -0.0089395099)
(-0.88584669 -0.0059590156 -0.01148317)
(-0.77938319 -0.0054633777 -0.010261244)
(-0.70216962 -0.0050097062 -0.0076269487)
(-0.14382858 -0.00088601464 0.0002224863)
(-0.4243305 -0.002829376 0.00059486203)
(-0.70256103 -0.0050994792 0.00032411028)
(-0.91907819 -0.0072666247 -0.0011094846)
(-1.0192738 -0.0087601753 -0.0040894067)
(-0.99501863 -0.0095894852 -0.0082301542)
(-0.89559847 -0.0097014001 -0.011031664)
(-0.78905584 -0.008934743 -0.010174392)
(-0.71053767 -0.008223689 -0.0077482286)
(-0.14234899 -0.0012091384 0.00035221298)
(-0.42086056 -0.0038523257 0.0010027712)
(-0.69879072 -0.0069323634 0.0010375286)
(-0.91786403 -0.0098680774 -0.00013673476)
(-1.0234124 -0.011904403 -0.0029882639)
(-1.0052387 -0.013013194 -0.007181051)
(-0.90947283 -0.013201783 -0.010293188)
(-0.80309495 -0.012232635 -0.0099352608)
(-0.72283139 -0.011317448 -0.0078602905)
(-0.14018447 -0.0015032468 0.00051562428)
(-0.41569439 -0.004777689 0.0015139098)
(-0.69288147 -0.0085896348 0.0019294381)
(-0.91506604 -0.012241705 0.0010926596)
(-1.0275724 -0.01491127 -0.0015837519)
(-1.0175273 -0.016251578 -0.0057910367)
(-0.92691655 -0.016387331 -0.0091844239)
(-0.82112037 -0.015300573 -0.0094585186)
(-0.73884622 -0.014251183 -0.0078889888)
(-0.13719816 -0.0017556493 0.00070855518)
(-0.40841531 -0.0055635353 0.0021178748)
(-0.6841236 -0.0099940149 0.0029922577)
(-0.90972675 -0.014256186 0.0025858355)
(-1.0307017 -0.017393796 0.00022098272)
(-1.0308136 -0.018971331 -0.0039045201)
(-0.9471097 -0.019150695 -0.0076570016)
(-0.84265559 -0.018061838 -0.008693574)
(-0.75840245 -0.016951138 -0.0078020475)
(-0.13324923 -0.0019424005 0.00091678585)
(-0.3985691 -0.0061457938 0.0027734234)
(-0.6716825 -0.011047799 0.004166039)
(-0.90061848 -0.015801227 0.00426903)
(-1.0312727 -0.019356634 0.0023138966)
(-1.0435967 -0.021162827 -0.001643934)
(-0.96898791 -0.021439636 -0.0057678371)
(-0.86718556 -0.020464702 -0.0076570274)
(-0.78143016 -0.019364392 -0.0076262527)
(-0.12831124 -0.0020556414 0.0011295281)
(-0.38591609 -0.0064962308 0.0034396714)
(-0.65490434 -0.011699655 0.0053652047)
(-0.88656664 -0.016806275 0.0060174937)
(-1.0277335 -0.020709235 0.0045278291)
(-1.0543726 -0.022728431 0.00085205495)
(-0.99144998 -0.023166299 -0.0035950377)
(-0.89431652 -0.022457495 -0.0063763846)
(-0.80810859 -0.021451195 -0.0074051839)
(-0.12225827 -0.0020861641 0.0013093595)
(-0.37007424 -0.0065925626 0.0040094987)
(-0.63310415 -0.011908204 0.0064338176)
(-0.86656418 -0.017214284 0.0076641402)
(-1.0188592 -0.021398133 0.0067407651)
(-1.062006 -0.023693677 0.0034251916)
(-1.0138046 -0.024342088 -0.0011920391)
(-0.9241546 -0.024005098 -0.0048599296)
(-0.83909571 -0.023186852 -0.0071517842)
(-0.11488657 -0.0020016142 0.0014363211)
(-0.35050162 -0.0063530853 0.0044281834)
(-0.60544977 -0.011559581 0.0072804709)
(-0.83957957 -0.016900546 0.0090808396)
(-1.0035969 -0.021313275 0.0087867142)
(-1.0657612 -0.023952952 0.005964273)
(-1.0358677 -0.024906075 0.0013405921)
(-0.95731835 -0.024934831 -0.0031506637)
(-0.87555184 -0.024407295 -0.006834012)
(-0.10649713 -0.0018443466 0.001515451)
(-0.32783947 -0.0058708373 0.0046875918)
(-0.57261105 -0.010757541 0.0078439026)
(-0.80600752 -0.015926266 0.010114979)
(-0.98201158 -0.020431095 0.010436265)
(-1.0657401 -0.023389604 0.0081893394)
(-1.0582011 -0.024706745 0.0037900147)
(-0.9950043 -0.02510446 -0.0012645622)
(-0.9191343 -0.025002865 -0.0060915614)
(-0.097306691 -0.0015174533 0.001402572)
(-0.30288993 -0.0049095274 0.0043928057)
(-0.53607791 -0.0091868501 0.0075192222)
(-0.76779197 -0.013961491 0.010063506)
(-0.95592153 -0.018447912 0.011035176)
(-1.063361 -0.02176534 0.0096388396)
(-1.0822814 -0.023590099 0.0059333821)
(-1.0391401 -0.024456995 0.00098410316)
(-0.97316866 -0.024794524 -0.0042180041)
(-0.081021985 0.0010106324 0.00090539376)
(-0.25340437 0.003038885 0.0026643209)
(-0.45088121 0.0052134959 0.0042817198)
(-0.64917512 0.0071863092 0.0051080439)
(-0.81051703 0.0085295072 0.0042150042)
(-0.89849487 0.0088178628 0.00090278557)
(-0.90182714 0.007775254 -0.004616514)
(-0.84408072 0.0055036573 -0.010674731)
(-0.76522225 0.0028877636 -0.01526476)
(-0.088016653 0.00099068655 0.00077629085)
(-0.27259034 0.002892917 0.0022293199)
(-0.47927986 0.004805975 0.003396402)
(-0.67893152 0.0063487814 0.0035522106)
(-0.82957097 0.0071184804 0.0016844387)
(-0.89531128 0.0067604872 -0.0028339106)
(-0.87212142 0.0051268913 -0.009477967)
(-0.79316325 0.0025366408 -0.01612282)
(-0.70282712 6.4611739e-05 -0.020531054)
(-0.094364317 0.00096002633 0.000642149)
(-0.28999415 0.002732773 0.0017920208)
(-0.50492588 0.0044063871 0.0025454192)
(-0.70543418 0.0055893337 0.0021431488)
(-0.84578765 0.005939573 -0.00047665736)
(-0.89128519 0.0052180736 -0.0058845716)
(-0.84521617 0.0033987949 -0.013298989)
(-0.74946051 0.0009145373 -0.020272997)
(-0.65170437 -0.0012453703 -0.024327601)
(-0.09987329 0.00091499282 0.00051785242)
(-0.30490043 0.0025419287 0.0013927302)
(-0.52646217 0.0039806757 0.0017770843)
(-0.72683329 0.0048466202 0.00088459573)
(-0.85726953 0.0048656276 -0.0023827926)
(-0.88479394 0.0039089668 -0.0085296779)
(-0.81959147 0.002038426 -0.016506824)
(-0.71100711 -0.00020553571 -0.023597628)
(-0.60826923 -0.0020997425 -0.027315784)
(-0.10427293 0.00084826449 0.0004015538)
(-0.31667592 0.0023087143 0.001033218)
(-0.54309804 0.0035231788 0.0011094424)
(-0.7424149 0.0041269454 -0.00017720686)
(-0.86350342 0.0039064384 -0.003961168)
(-0.87536137 0.0028103336 -0.010724792)
(-0.79453399 0.00099648413 -0.019125292)
(-0.6764944 -0.00090988347 -0.026242848)
(-0.5708626 -0.0024899373 -0.029627281)
(-0.10774843 0.00077048878 0.00029316195)
(-0.32577669 0.0020605365 0.00070880707)
(-0.55546027 0.0030702509 0.00053231061)
(-0.75284948 0.0034640987 -0.001058173)
(-0.86508019 0.003088587 -0.0052389081)
(-0.86324229 0.0019625604 -0.012458611)
(-0.76981683 0.00031013534 -0.021194663)
(-0.64509793 -0.0012252123 -0.028328706)
(-0.53829279 -0.0024982478 -0.031426675)
(-0.11042458 0.0006803998 0.00019921375)
(-0.3325589 0.0017915938 0.00043302779)
(-0.56413764 0.0026137231 5.1891456e-05)
(-0.7589303 0.0028511657 -0.0017731929)
(-0.86287838 0.0024074033 -0.0062547099)
(-0.84923593 0.0013432518 -0.013803875)
(-0.74581584 -7.6415693e-05 -0.022801087)
(-0.61658669 -0.0012515682 -0.029978566)
(-0.50989807 -0.0022427499 -0.032844456)
(-0.11234272 0.00057406168 0.00011727249)
(-0.33726784 0.0014927884 0.0001975924)
(-0.56973963 0.0021402429 -0.0003483625)
(-0.76172194 0.0022700295 -0.002351269)
(-0.85831368 0.0018336384 -0.0070530484)
(-0.83478378 0.00091566566 -0.014850839)
(-0.72353358 -0.00025506625 -0.024031127)
(-0.59137364 -0.001102862 -0.031274162)
(-0.48557054 -0.0018395771 -0.033972035)
(-0.11364644 0.00045068006 4.8665421e-05)
(-0.34035471 0.0011608782 4.3429337e-06)
(-0.57307682 0.001642211 -0.000664969)
(-0.76239009 0.0017131753 -0.0027906598)
(-0.85276611 0.0014502612 -0.0076976313)
(-0.82127228 0.00070430139 -0.015718115)
(-0.70409062 -0.00028826047 -0.024983543)
(-0.57009196 -0.00086473604 -0.032287117)
(-0.46549646 -0.0013822183 -0.034861192)
(-0.11448064 0.00032001795 -2.4219516e-06)
(-0.34225746 0.00081678254 -0.000134178)
(-0.5748926 0.0011377614 -0.00087623133)
(-0.76195089 0.001155266 -0.0030666271)
(-0.84748063 0.00095608877 -0.0080961159)
(-0.80998429 0.00042477155 -0.016288271)
(-0.68848977 -0.00024813254 -0.025676624)
(-0.55339284 -0.00060405023 -0.03303361)
(-0.44999564 -0.00094192639 -0.035514501)
(-0.11509399 0.00019167002 -3.571605e-05)
(-0.34355192 0.00048569235 -0.00022324984)
(-0.57594096 0.00066908056 -0.0010099337)
(-0.7612128 0.00066728327 -0.0032372626)
(-0.843288 0.0005426552 -0.008339275)
(-0.8017491 0.00022575704 -0.016635996)
(-0.677474 -0.00016399937 -0.026117701)
(-0.54182873 -0.00035358882 -0.03351909)
(-0.43940753 -0.00054452509 -0.035927903)
(-0.11526643 6.3137088e-05 -5.1256002e-05)
(-0.34392568 0.00015882716 -0.0002638676)
(-0.57618027 0.00021699325 -0.0010688127)
(-0.76064731 0.00021329037 -0.0033097153)
(-0.84110244 0.00017132987 -0.0084427233)
(-0.79759351 6.6983142e-05 -0.016788667)
(-0.67192107 -5.9271365e-05 -0.026323482)
(-0.53598968 -0.00011684516 -0.033756348)
(-0.43406071 -0.00017708304 -0.036125524)
(-0.11526643 -6.3117692e-05 -5.1256524e-05)
(-0.34392569 -0.00015878699 -0.00026386517)
(-0.57618028 -0.00021694359 -0.00106881)
(-0.76064733 -0.00021327611 -0.0033097209)
(-0.84110246 -0.00017139086 -0.0084427288)
(-0.79759353 -6.7164386e-05 -0.016788665)
(-0.67192108 5.9038776e-05 -0.026323483)
(-0.5359897 0.00011671279 -0.033756355)
(-0.43406073 0.00017720809 -0.036125538)
(-0.115094 -0.00019164966 -3.571773e-05)
(-0.34355194 -0.00048564913 -0.00022324215)
(-0.57594098 -0.00066902536 -0.0010099247)
(-0.76121283 -0.00066726494 -0.0032372754)
(-0.84328804 -0.00054272791 -0.008339287)
(-0.80174915 -0.00022595808 -0.016635988)
(-0.67747405 0.00016374504 -0.026117705)
(-0.5418288 0.00035344082 -0.033519109)
(-0.43940759 0.00054464702 -0.035927944)
(-0.11448064 -0.00031999771 -2.4244801e-06)
(-0.34225746 -0.00081673717 -0.00013417815)
(-0.57489261 -0.0011376981 -0.0008762291)
(-0.76195093 -0.0011552425 -0.003066645)
(-0.8474807 -0.00095618487 -0.0080961241)
(-0.80998438 -0.0004250074 -0.016288252)
(-0.68848986 0.00024784157 -0.025676627)
(-0.55339296 0.00060387654 -0.033033639)
(-0.44999575 0.00094204107 -0.035514572)
(-0.11364644 -0.00045065599 4.8662481e-05)
(-0.34035471 -0.0011608297 4.311518e-06)
(-0.57307682 -0.0016421418 -0.00066499245)
(-0.76239013 -0.001713154 -0.0027906765)
(-0.85276622 -0.0014503904 -0.0076976232)
(-0.8212724 -0.00070457633 -0.015718085)
(-0.70409078 0.0002879311 -0.024983542)
(-0.57009213 0.00086453743 -0.03228715)
(-0.46549661 0.0013823218 -0.034861285)
(-0.11234272 -0.00057403367 0.00011726824)
(-0.33726785 -0.0014927422 0.00019754736)
(-0.56973964 -0.0021401866 -0.0003483883)
(-0.76172199 -0.0022700314 -0.0023512616)
(-0.85831384 -0.0018338051 -0.0070530204)
(-0.83478394 -0.0009159735 -0.014850805)
(-0.72353382 0.0002547111 -0.024031116)
(-0.59137386 0.0011026536 -0.031274188)
(-0.4855707 0.0018396734 -0.033972124)
(-0.11042458 -0.00068038035 0.00019920873)
(-0.33255892 -0.0017915644 0.00043300551)
(-0.56413766 -0.0026136994 5.1887073e-05)
(-0.75893035 -0.0028512037 -0.0017731693)
(-0.86287858 -0.0024075958 -0.0062546839)
(-0.84923617 -0.0013435791 -0.01380384)
(-0.74581616 7.605424e-05 -0.022801058)
(-0.61658694 0.0012513752 -0.029978566)
(-0.50989821 0.0022428553 -0.032844507)
(-0.10774844 -0.0007704801 0.0002931585)
(-0.32577671 -0.00206053 0.0007087897)
(-0.55546029 -0.0030702636 0.00053229639)
(-0.75284954 -0.0034641775 -0.0010581602)
(-0.86508042 -0.0030888082 -0.0052388779)
(-0.86324258 -0.0019629182 -0.012458546)
(-0.76981715 -0.00031049169 -0.021194598)
(-0.64509817 0.0012250553 -0.028328654)
(-0.53829291 0.0024983819 -0.031426652)
(-0.10427295 -0.00084826616 0.00040155369)
(-0.31667597 -0.0023087284 0.0010332197)
(-0.54309811 -0.0035232248 0.0011094508)
(-0.742415 -0.0041270695 -0.00017716521)
(-0.86350361 -0.0039067086 -0.0039610913)
(-0.87536159 -0.0028107351 -0.010724676)
(-0.7945342 -0.00099684398 -0.019125179)
(-0.67649458 0.00090975474 -0.026242703)
(-0.57086272 0.0024901062 -0.029627155)
(-0.099873312 -0.00091500258 0.00051785699)
(-0.30490049 -0.0025419636 0.0013927473)
(-0.52646226 -0.0039807588 0.0017771149)
(-0.72683338 -0.0048467882 0.00088467419)
(-0.85726962 -0.0048659306 -0.002382667)
(-0.8847941 -0.003909378 -0.0085295192)
(-0.81959162 -0.0020387977 -0.016506629)
(-0.71100726 0.00020541252 -0.023597352)
(-0.60826934 0.0020999342 -0.027315536)
(-0.09436433 -0.00096003479 0.00064215325)
(-0.28999419 -0.0027328072 0.0017920396)
(-0.50492593 -0.0044064763 0.0025454618)
(-0.70543421 -0.0055895219 0.0021432451)
(-0.84578767 -0.005939896 -0.00047649703)
(-0.89128533 -0.005218481 -0.0058843118)
(-0.84521639 -0.0033991563 -0.013298639)
(-0.74946068 -0.00091466341 -0.020272567)
(-0.65170433 0.0012455132 -0.024327195)
(-0.088016662 -0.00099069632 0.00077629652)
(-0.27259037 -0.0028929537 0.0022293464)
(-0.4792799 -0.0048060657 0.0033964602)
(-0.67893158 -0.0063489622 0.0035523324)
(-0.82957105 -0.0071187836 0.0016846598)
(-0.89531138 -0.0067608635 -0.0028335417)
(-0.87212154 -0.0051272249 -0.0094774518)
(-0.79316334 -0.0025367497 -0.016122188)
(-0.70282693 -6.4547748e-05 -0.020530476)
(-0.081021989 -0.0010106432 0.00090540369)
(-0.25340439 -0.0030389202 0.002664356)
(-0.45088123 -0.0052135713 0.0042817889)
(-0.64917516 -0.0071864346 0.0051081847)
(-0.81051707 -0.0085297036 0.0042152617)
(-0.89849487 -0.0088180954 0.00090325249)
(-0.90182716 -0.0077754674 -0.004615867)
(-0.84408079 -0.0055037111 -0.010673946)
(-0.76522214 -0.0028875682 -0.01526432)
(-0.089685419 0.00028194961 0.00025929165)
(-0.27965462 0.00082688816 0.00074341174)
(-0.49602478 0.0013192512 0.0010991344)
(-0.71190676 0.0014260598 0.0010862653)
(-0.88686766 0.00063256391 0.00041582286)
(-0.98335717 -0.001554824 -0.0011730257)
(-0.99071692 -0.0052096337 -0.0037694539)
(-0.93422338 -0.0097009678 -0.0070787191)
(-0.85486069 -0.014099484 -0.010606696)
(-0.097697044 0.0003312979 0.00026935479)
(-0.3016372 0.00094456964 0.00075226209)
(-0.52872726 0.001444755 0.0010398941)
(-0.74692238 0.0014168223 0.00084079059)
(-0.91160805 0.00026015876 -0.00017845806)
(-0.98602271 -0.0025332347 -0.0022783995)
(-0.96689836 -0.0069076026 -0.0054654458)
(-0.88871797 -0.011948736 -0.00927947)
(-0.79664261 -0.016445647 -0.013148511)
(-0.1050185 0.00036985189 0.00025875817)
(-0.32174017 0.0010302916 0.00069673275)
(-0.55857947 0.0015235167 0.0008693995)
(-0.77870304 0.0013760032 0.00046022307)
(-0.93382817 -5.3947864e-05 -0.00086764355)
(-0.98854535 -0.0032395695 -0.0033488117)
(-0.94682883 -0.0079781449 -0.0069088008)
(-0.85112189 -0.013155013 -0.01089047)
(-0.75037339 -0.017517116 -0.014481455)
(-0.11142387 0.00037494362 0.00022390079)
(-0.33914062 0.0010200188 0.00057119426)
(-0.584045 0.0014501347 0.00058455984)
(-0.80515888 0.0011585506 -6.3608533e-05)
(-0.95130147 -0.00050461498 -0.0016926703)
(-0.98881701 -0.0039544772 -0.0044872367)
(-0.92829048 -0.0088571548 -0.0082719837)
(-0.81879146 -0.01397412 -0.012188418)
(-0.71174709 -0.0180691 -0.015267338)
(-0.11661721 0.0003509704 0.00017754925)
(-0.35314623 0.0009283753 0.0004171412)
(-0.60425166 0.0012518138 0.00026786216)
(-0.82546661 0.00080745274 -0.00059632541)
(-0.96332486 -0.0010321982 -0.0024671606)
(-0.98604493 -0.0046113784 -0.0054721653)
(-0.91008503 -0.0094882716 -0.0093377637)
(-0.79001813 -0.014354795 -0.013038693)
(-0.6787689 -0.018021162 -0.015542532)
(-0.12079606 0.00030799231 0.0001274145)
(-0.36423765 0.00078633608 0.00025831094)
(-0.61984261 0.0009826418 -3.4932216e-05)
(-0.84026147 0.00040197863 -0.0010626809)
(-0.97033529 -0.0015276141 -0.003078135)
(-0.98025327 -0.0050762794 -0.0061690849)
(-0.89167924 -0.0097103821 -0.0099765534)
(-0.76373598 -0.014169549 -0.01339454)
(-0.65008153 -0.01731818 -0.01535211)
(-0.12408822 0.00025302804 8.2435234e-05)
(-0.37277694 0.00061602643 0.00012013269)
(-0.63140739 0.00068509905 -0.00028563801)
(-0.85031163 8.3104734e-06 -0.0014220866)
(-0.97315957 -0.0019092455 -0.0035014069)
(-0.97206203 -0.005253529 -0.0065789855)
(-0.87323913 -0.0094664638 -0.010227914)
(-0.73962658 -0.013384528 -0.013298438)
(-0.62499301 -0.015977993 -0.014789077)
(-0.12652556 0.00019483249 4.6265303e-05)
(-0.37898446 0.00044670507 1.391367e-05)
(-0.63951114 0.00041443438 -0.00046543395)
(-0.85660899 -0.00029358585 -0.0016524423)
(-0.97309997 -0.0020847696 -0.0037245724)
(-0.96279926 -0.0050689506 -0.0067120771)
(-0.85577283 -0.0087152851 -0.010151514)
(-0.7181383 -0.011990665 -0.012877713)
(-0.60343433 -0.014035099 -0.013996742)
(-0.12824775 0.00014005836 2.0030052e-05)
(-0.38329415 0.00029874394 -5.8836732e-05)
(-0.6449217 0.00020609077 -0.00057720675)
(-0.86023901 -0.00045554185 -0.0017698197)
(-0.97144333 -0.0020002977 -0.0037854756)
(-0.95375359 -0.00448179 -0.0066457441)
(-0.8403434 -0.0074377593 -0.0098692618)
(-0.69989499 -0.010018565 -0.012294409)
(-0.58560724 -0.011546587 -0.013138146)
(-0.12939671 9.2560832e-05 2.7300788e-06)