/*--------------------------------*- C++ -*----------------------------------*\
| =========                 |                                                 |
| \\      /  F ield         | OpenFOAM: The Open Source CFD Toolbox           |
|  \\    /   O peration     | Version:  2406                                  |
|   \\  /    A nd           | Website:  www.openfoam.com                      |
|    \\/     M anipulation  |                                                 |
\*---------------------------------------------------------------------------*/
FoamFile
{
    version     2.0;
    format      ascii;
    arch        "LSB;label=32;scalar=64";
    class       volScalarField;
    location    "0.01";
    object      T;
}
// * * * * * * * * * * * * * * * * * * * * * * * * * * * * * * * * * * * * * //

dimensions      [0 0 0 1 0 0 0];

internalField   nonuniform List<scalar> 
12225
(
1.00694
1.00397
1.00144
1.00053
1.00001
0.99965
0.999457
0.999369
0.999319
0.999279
0.99923
0.999127
0.99888
0.998256
0.996696
0.992882
0.983206
0.958894
0.994965
0.99447
0.996349
0.997908
0.99867
0.998979
0.999136
0.999238
0.999298
0.999322
0.999307
0.999229
0.999
0.998405
0.996907
0.993276
0.984378
0.963175
0.999592
0.99992
1
0.999967
0.999819
0.999637
0.999514
0.999447
0.999406
0.999367
0.999315
0.999215
0.99898
0.998407
0.997008
0.993691
0.985937
0.969036
1.00032
1.00007
0.999547
0.99942
0.999421
0.999388
0.999355
0.99934
0.999331
0.999314
0.999277
0.999192
0.99898
0.998459
0.997205
0.994309
0.987897
0.974991
1.00013
0.999833
0.999434
0.999387
0.999436
0.999423
0.999388
0.999364
0.999345
0.999322
0.999281
0.999196
0.998998
0.998529
0.997437
0.995009
0.989923
0.980378
0.999993
0.999846
0.999578
0.999496
0.999494
0.99946
0.999411
0.999375
0.999347
0.999316
0.999272
0.999189
0.999008
0.998599
0.997683
0.995728
0.991847
0.984969
0.999975
0.999925
0.999719
0.999592
0.999547
0.999498
0.999443
0.999398
0.99936
0.999322
0.999273
0.999191
0.999029
0.998683
0.997941
0.996428
0.993569
0.988731
0.999983
0.999963
0.999798
0.999661
0.999596
0.999539
0.999476
0.999422
0.999376
0.99933
0.999277
0.999196
0.99905
0.998755
0.99815
0.996963
0.994802
0.991253
0.999986
0.999973
0.99984
0.999706
0.999627
0.99956
0.999491
0.999429
0.999375
0.999323
0.999266
0.999187
0.999055
0.998803
0.99831
0.997376
0.995727
0.993085
0.999984
0.999963
0.999852
0.999723
0.999631
0.999554
0.999478
0.999409
0.999349
0.999291
0.999231
0.999153
0.999035
0.998827
0.998438
0.997733
0.996528
0.994638
0.99998
0.999942
0.99984
0.999715
0.999612
0.999524
0.999441
0.999365
0.999298
0.999236
0.999173
0.999098
0.998995
0.998826
0.998532
0.998022
0.99718
0.995889
0.999976
0.999921
0.999818
0.999694
0.999583
0.999486
0.999398
0.999317
0.999244
0.999177
0.999112
0.999041
0.998951
0.998818
0.998603
0.99825
0.997691
0.996852
0.999975
0.999912
0.999811
0.99969
0.999577
0.999476
0.999384
0.9993
0.999223
0.999154
0.99909
0.999022
0.998943
0.99884
0.998689
0.998455
0.998101
0.997586
0.999978
0.999919
0.999828
0.999717
0.99961
0.999512
0.99942
0.999338
0.999263
0.999195
0.999133
0.999071
0.999004
0.998924
0.998821
0.998672
0.99846
0.998161
0.999982
0.999936
0.999861
0.999769
0.999677
0.99959
0.999511
0.999438
0.99937
0.999307
0.999251
0.999199
0.999146
0.999088
0.999017
0.998927
0.998806
0.998644
0.999987
0.999957
0.999905
0.99984
0.999774
0.999712
0.999654
0.9996
0.999548
0.999502
0.99946
0.999423
0.999387
0.999348
0.999304
0.999253
0.99919
0.999109
0.999993
0.999986
0.999968
0.999941
0.999912
0.999886
0.999864
0.999841
0.99982
0.999801
0.999782
0.999766
0.999752
0.999737
0.999719
0.999697
0.999672
0.99964
1
1.00003
1.00005
1.00007
1.00009
1.00011
1.00013
1.00015
1.00017
1.00018
1.0002
1.00021
1.00022
1.00023
1.00023
1.00024
1.00024
1.00023
1.00001
1.00006
1.00011
1.00017
1.00022
1.00028
1.00034
1.00039
1.00043
1.00048
1.00051
1.00055
1.00058
1.0006
1.00063
1.00065
1.00066
1.00067
1.00001
1.00006
1.00012
1.00019
1.00026
1.00033
1.00039
1.00046
1.00052
1.00057
1.00062
1.00067
1.00071
1.00075
1.00078
1.00081
1.00084
1.00086
1.00001
1.00006
1.00012
1.00018
1.00025
1.00031
1.00038
1.00045
1.00051
1.00057
1.00062
1.00068
1.00072
1.00077
1.00081
1.00084
1.00088
1.00091
1.00001
1.00006
1.00012
1.00017
1.00023
1.0003
1.00036
1.00043
1.00049
1.00055
1.00061
1.00067
1.00072
1.00077
1.00081
1.00085
1.00089
1.00092
1
1.00008
1.00013
1.00016
1.00021
1.00027
1.00034
1.00041
1.00048
1.00054
1.0006
1.00066
1.00071
1.00076
1.00081
1.00085
1.00089
1.00093
0.999997
1.0001
1.00014
1.00015
1.00019
1.00026
1.00033
1.0004
1.00047
1.00054
1.00061
1.00067
1.00072
1.00077
1.00082
1.00086
1.00091
1.00094
1
1.00009
1.0001
1.00012
1.00019
1.00028
1.00035
1.00042
1.00049
1.00056
1.00063
1.00069
1.00074
1.00079
1.00084
1.00088
1.00093
1.00097
1.00014
1.00014
0.999953
0.999972
1.00014
1.00029
1.00039
1.00047
1.00055
1.00062
1.00068
1.00074
1.0008
1.00084
1.00089
1.00093
1.00097
1.00101
1.0005
1.00058
1.0001
0.999927
1.00003
1.00018
1.00031
1.00042
1.00053
1.00062
1.0007
1.00076
1.00082
1.00088
1.00093
1.00097
1.00102
1.00106
1.00004
1.00088
1.00115
1.00111
1.00099
1.00088
1.00081
1.0008
1.00082
1.00085
1.00088
1.00092
1.00096
1.00099
1.00103
1.00106
1.0011
1.00113
0.994517
0.993822
0.99606
0.998048
0.999185
0.99978
1.00015
1.0004
1.00059
1.00072
1.00083
1.00091
1.00098
1.00104
1.00109
1.00114
1.00118
1.00121
1.00648
1.00454
1.00223
1.0015
1.00119
1.00097
1.00088
1.00087
1.00089
1.00092
1.00096
1.00099
1.00103
1.00107
1.0011
1.00114
1.00117
1.00122
0.0293977
0.0293583
0.0292796
0.0291625
0.0290075
0.0288149
0.0285854
0.0283202
0.0280207
0.0276883
0.0273247
0.0269315
0.0265104
0.0260634
0.0255924
0.0250995
0.0245867
0.0240562
0.0235103
0.022951
0.0223805
0.0218009
0.0212144
0.020623
0.0200285
0.0194329
0.0188378
0.0182449
0.0176556
0.0170714
0.0164936
0.0159242
0.0153654
0.0148208
0.0142859
0.0137577
0.0132405
0.0127338
0.0122384
0.0117548
0.0112829
0.0108239
0.0103784
0.00994466
0.00952325
0.00911468
0.00871794
0.00833306
0.00795985
0.00759815
0.00724778
0.00690855
0.00658029
0.00626284
0.00595601
0.00565964
0.00537356
0.00509758
0.00483155
0.00457528
0.0043286
0.00409133
0.0038633
0.00364433
0.00343424
0.00323284
0.00303994
0.00285536
0.00267891
0.0025104
0.00234963
0.00219641
0.00205055
0.00191184
0.0017801
0.00165511
0.00153669
0.00142463
0.00131874
0.0012188
0.00112463
0.00103601
0.000952759
0.000874666
0.000801532
0.000733159
0.000669349
0.000609906
0.000554635
0.00050334
0.000455832
0.000411919
0.000371416
0.000334138
0.000299905
0.00026854
0.000239869
0.000213722
0.000189939
0.000168359
0.000148829
0.000131202
0.000115336
0.000101096
8.83515e-05
7.69804e-05
6.68652e-05
5.78953e-05
4.99666e-05
4.2981e-05
3.68471e-05
3.14794e-05
2.67988e-05
2.27318e-05
1.92111e-05
1.61746e-05
1.35659e-05
1.13333e-05
9.43032e-06
7.81488e-06
6.44924e-06
5.29967e-06
4.33616e-06
3.53216e-06
2.8643e-06
2.31206e-06
1.85759e-06
1.48534e-06
1.18194e-06
9.35869e-07
7.37306e-07
5.779e-07
4.506e-07
3.49481e-07
2.69594e-07
2.06829e-07
1.57792e-07
1.19699e-07
9.02798e-08
6.76927e-08
5.04553e-08
3.73803e-08
2.7524e-08
2.01405e-08
1.46448e-08
1.05806e-08
7.59464e-09
5.41553e-09
3.83595e-09
2.69877e-09
1.88573e-09
1.30852e-09
9.01644e-10
6.16887e-10
4.19045e-10
2.82593e-10
1.89185e-10
1.25718e-10
8.29226e-11
5.42852e-11
3.52683e-11
2.27405e-11
1.45497e-11
9.23579e-12
5.81802e-12
3.63642e-12
2.25489e-12
1.38706e-12
8.46369e-13
5.1226e-13
3.07514e-13
1.83088e-13
1.08105e-13
6.32978e-14
3.67489e-14
2.11517e-14
1.20673e-14
6.82088e-15
3.8209e-15
2.12293e-15
0.0308909
0.0308485
0.0307637
0.0306375
0.0304712
0.0302655
0.0300217
0.029741
0.0294246
0.0290743
0.0286918
0.0282788
0.0278373
0.0273693
0.026877
0.0263623
0.0258276
0.0252751
0.0247069
0.0241253
0.0235326
0.0229309
0.0223224
0.0217092
0.0210934
0.0204768
0.0198613
0.0192486
0.0186404
0.0180379
0.0174424
0.0168545
0.0162749
0.0157009
0.0151352
0.0145836
0.014045
0.0135194
0.0130068
0.0125069
0.0120199
0.0115452
0.0110821
0.0106318
0.010194
0.009768
0.0093539
0.00895166
0.00856115
0.00818223
0.00781472
0.00745845
0.00711327
0.006779
0.00645549
0.00614256
0.00584007
0.00554784
0.00526573
0.00499356
0.00473118
0.00447842
0.00423511
0.00400109
0.00377619
0.00356023
0.00335303
0.00315443
0.00296424
0.00278228
0.00260836
0.0024423
0.00228392
0.00213302
0.00198941
0.0018529
0.00172331
0.00160042
0.00148406
0.00137402
0.0012701
0.00117212
0.00107986
0.000993135
0.000911742
0.000835481
0.000764154
0.00069756
0.000635502
0.00057778
0.0005242
0.000474563
0.000428678
0.000386352
0.000347395
0.000311623
0.000278851
0.0002489
0.000221593
0.000196761
0.000174238
0.000153866
0.00013549
0.000118962
0.00010414
9.08871e-05
7.90737e-05
6.85766e-05
5.92793e-05
5.10717e-05
4.38507e-05
3.75196e-05
3.19884e-05
2.71736e-05
2.29978e-05
1.93899e-05
1.62848e-05
1.36229e-05
1.13502e-05
9.41777e-06
7.78156e-06
6.40211e-06
5.24419e-06
4.27658e-06
3.47167e-06
2.80522e-06
2.25603e-06
1.80565e-06
1.43811e-06
1.13968e-06
8.98606e-07
7.04868e-07
5.49996e-07
4.26859e-07
3.29491e-07
2.52928e-07
1.93065e-07
1.46528e-07
1.10563e-07
8.29339e-08
6.18368e-08
4.58261e-08
3.37513e-08
2.47024e-08
1.79647e-08
1.29806e-08
9.31799e-09
6.64456e-09
4.70641e-09
3.31096e-09
2.31325e-09
1.60495e-09
1.10569e-09
7.56317e-10
5.13624e-10
3.46266e-10
2.31735e-10
1.53935e-10
1.01493e-10
6.64137e-11
4.31268e-11
2.77945e-11
1.7775e-11
1.12785e-11
7.10068e-12
4.4352e-12
2.74826e-12
1.68929e-12
1.02998e-12
6.22886e-13
3.73611e-13
2.22248e-13
1.3111e-13
7.66972e-14
4.44864e-14
2.55807e-14
1.45799e-14
8.23338e-15
4.60691e-15
2.55475e-15
0.0338976
0.0338446
0.0337457
0.0336014
0.0334128
0.0331813
0.0329086
0.0325964
0.0322465
0.0318608
0.0314413
0.0309899
0.0305089
0.0300003
0.0294664
0.0289095
0.0283318
0.0277359
0.0271241
0.0264986
0.0258619
0.0252163
0.024564
0.0239071
0.0232478
0.0225879
0.0219293
0.0212736
0.0206225
0.0199772
0.0193391
0.0187096
0.0180898
0.0174803
0.0168816
0.0162946
0.0157196
0.0151571
0.0146075
0.0140708
0.0135473
0.0130367
0.0125387
0.0120531
0.0115797
0.0111183
0.0106689
0.0102314
0.00980575
0.00939177
0.00898933
0.00859829
0.00821851
0.00784985
0.00749218
0.00714534
0.00680923
0.00648368
0.00616858
0.00586379
0.00556916
0.00528455
0.00500984
0.00474486
0.00448948
0.00424353
0.00400688
0.00377936
0.00356081
0.00335108
0.00314999
0.00295738
0.00277309
0.00259693
0.00242873
0.00226832
0.00211552
0.00197015
0.00183202
0.00170094
0.00157674
0.00145921
0.00134817
0.00124341
0.00114475
0.00105198
0.000964905
0.000883317
0.000807014
0.000735791
0.00066944
0.000607755
0.000550528
0.000497553
0.000448624
0.000403535
0.000362084
0.000324069
0.000289291
0.000257559
0.000228681
0.000202472
0.000178754
0.000157351
0.000138094
0.000120821
0.000105376
9.16092e-05
7.93784e-05
6.85486e-05
5.89923e-05
5.05893e-05
4.3227e-05
3.68002e-05
3.12111e-05
2.63693e-05
2.21912e-05
1.86004e-05
1.5527e-05
1.29074e-05
1.06841e-05
8.80548e-06
7.22504e-06
5.90152e-06
4.79827e-06
3.88298e-06
3.12728e-06
2.50641e-06
1.99885e-06
1.58604e-06
1.25202e-06
9.83177e-07
7.67957e-07
5.96604e-07
4.60936e-07
3.54128e-07
2.70522e-07
2.0546e-07
1.55129e-07
1.16429e-07
8.68549e-08
6.43946e-08
4.74445e-08
3.47347e-08
2.52666e-08
1.82598e-08
1.3109e-08
9.34826e-09
6.62134e-09
4.65773e-09
3.25371e-09
2.257e-09
1.55449e-09
1.06298e-09
7.21618e-10
4.86274e-10
3.25284e-10
2.1596e-10
1.42308e-10
9.30697e-11
6.04014e-11
3.88986e-11
2.48558e-11
1.57578e-11
9.91111e-12
6.18415e-12
3.82773e-12
2.35008e-12
1.43114e-12
8.644e-13
5.178e-13
3.07609e-13
1.81217e-13
1.0586e-13
6.13125e-14
3.52043e-14
2.0035e-14
1.12974e-14
6.31153e-15
3.49225e-15
0.0385155
0.0384465
0.0383255
0.0381539
0.0379326
0.0376634
0.0373486
0.0369905
0.0365914
0.0361536
0.0356794
0.0351711
0.0346313
0.0340622
0.0334664
0.0328465
0.0322049
0.0315444
0.0308674
0.0301766
0.0294744
0.0287633
0.0280456
0.0273237
0.0265997
0.0258757
0.0251536
0.0244352
0.023722
0.0230157
0.0223176
0.021629
0.0209509
0.0202838
0.0196282
0.0189847
0.0183536
0.0177352
0.0171297
0.0165371
0.0159575
0.0153908
0.0148369
0.0142957
0.0137669
0.0132504
0.0127462
0.0122541
0.0117739
0.0113055
0.010849
0.010404
0.00997057
0.00954856
0.00913786
0.00873839
0.00835004
0.00797271
0.0076063
0.00725071
0.00690585
0.00657161
0.00624788
0.00593455
0.00563151
0.00533865
0.00505584
0.00478296
0.00451989
0.00426649
0.00402263
0.00378817
0.00356297
0.00334689
0.00313978
0.00294148
0.00275185
0.00257073
0.00239794
0.00223332
0.00207671
0.00192792
0.00178677
0.00165308
0.00152665
0.0014073
0.00129482
0.001189
0.00108964
0.000996523
0.000909429
0.000828138
0.000752424
0.000682061
0.000616819
0.000556465
0.000500769
0.000449495
0.000402411
0.00035929
0.000319903
0.000284028
0.000251445
0.000221938
0.000195298
0.00017132
0.000149806
0.000130566
0.000113417
9.81842e-05
8.47e-05
7.28066e-05
6.23547e-05
5.32039e-05
4.5223e-05
3.82896e-05
3.22903e-05
2.71205e-05
2.26841e-05
1.88932e-05
1.5668e-05
1.29362e-05
1.06328e-05
8.69956e-06
7.08462e-06
5.74205e-06
4.63137e-06
3.71712e-06
2.96838e-06
2.35834e-06
1.86392e-06
1.46536e-06
1.14582e-06
8.91043e-07
6.89062e-07
5.2985e-07
4.05079e-07
3.07879e-07
2.32611e-07
1.74684e-07
1.3038e-07
9.67077e-08
7.12792e-08
5.22008e-08
3.79811e-08
2.74534e-08
1.97115e-08
1.40573e-08
9.95669e-09
7.00344e-09
4.89166e-09
3.39256e-09
2.33601e-09
1.59689e-09
1.0837e-09
7.2994e-10
4.88067e-10
3.23894e-10
2.13317e-10
1.39417e-10
9.04151e-11
5.81796e-11
3.7143e-11
2.3525e-11
1.47811e-11
9.21271e-12
5.69568e-12
3.4927e-12
2.12428e-12
1.28138e-12
7.66547e-13
4.54749e-13
2.67516e-13
1.56043e-13
9.02427e-14
5.17367e-14
2.93989e-14
1.65531e-14
9.23412e-15
5.10054e-15
0.044849
0.0447604
0.0446122
0.0444063
0.0441436
0.0438264
0.0434577
0.0430404
0.0425775
0.0420717
0.041526
0.040943
0.0403257
0.039677
0.0389995
0.0382964
0.0375704
0.0368245
0.0360614
0.0352841
0.0344952
0.0336974
0.0328934
0.0320855
0.0312761
0.0304673
0.0296613
0.0288598
0.0280645
0.0272771
0.0264987
0.0257306
0.0249735
0.0242281
0.0234948
0.0227741
0.0220662
0.0213713
0.0206894
0.0200206
0.0193649
0.0187223
0.0180925
0.0174754
0.0168709
0.016279
0.0156993
0.015132
0.0145767
0.0140335
0.0135023
0.012983
0.0124756
0.0119799
0.0114959
0.0110235
0.0105628
0.0101136
0.00967598
0.00924976
0.00883494
0.00843147
0.00803928
0.00765832
0.00728852
0.0069298
0.00658211
0.00624535
0.00591946
0.00560433
0.0052999
0.00500606
0.00472272
0.00444977
0.0041871
0.00393462
0.00369219
0.0034597
0.00323701
0.003024
0.00282052
0.00262642
0.00244154
0.00226571
0.00209877
0.00194053
0.0017908
0.00164938
0.00151605
0.0013906
0.00127281
0.00116243
0.00105923
0.000962946
0.000873331
0.000790118
0.000713036
0.00064181
0.000576166
0.000515826
0.000460517
0.00040996
0.000363882
0.000322012
0.000284081
0.000249828
0.000218995
0.000191332
0.000166598
0.000144559
0.000124992
0.000107682
9.24257e-05
7.9031e-05
6.73165e-05
5.71121e-05
4.82594e-05
4.06113e-05
3.40319e-05
2.83962e-05
2.35904e-05
1.95105e-05
1.60629e-05
1.31632e-05
1.0736e-05
8.71424e-06
7.03853e-06
5.65667e-06
4.52302e-06
3.59785e-06
2.84685e-06
2.24054e-06
1.75374e-06
1.3651e-06
1.0566e-06
8.13141e-07
6.22136e-07
4.73181e-07
3.57726e-07
2.68795e-07
2.00723e-07
1.4895e-07
1.09826e-07
8.04554e-08
5.8554e-08
4.2332e-08
3.03981e-08
2.16801e-08
1.53561e-08
1.08008e-08
7.54318e-09
5.23074e-09
3.60092e-09
2.46092e-09
1.66957e-09
1.12427e-09
7.51408e-10
4.98402e-10
3.28056e-10
2.14266e-10
1.38855e-10
8.92779e-11
5.69477e-11
3.60356e-11
2.26197e-11
1.40837e-11
8.69773e-12
5.32757e-12
3.23645e-12
1.94986e-12
1.16497e-12
6.9021e-13
4.05488e-13
2.36198e-13
1.36407e-13
7.80929e-14
4.43136e-14
2.49173e-14
1.38826e-14
7.65834e-15
0.0530695
0.0529569
0.0527759
0.0525287
0.052216
0.0518408
0.0514067
0.0509175
0.0503766
0.0497876
0.049154
0.0484791
0.0477663
0.0470191
0.0462407
0.0454345
0.0446039
0.0437521
0.0428823
0.0419977
0.0411013
0.040196
0.0392847
0.03837
0.0374544
0.0365401
0.0356294
0.0347241
0.033826
0.0329364
0.0320567
0.0311879
0.0303308
0.0294858
0.0286535
0.0278341
0.0270279
0.0262349
0.0254551
0.0246886
0.0239353
0.023195
0.0224677
0.0217532
0.0210513
0.020362
0.0196851
0.0190205
0.0183682
0.0177282
0.0171003
0.0164845
0.0158809
0.0152894
0.0147099
0.0141426
0.0135874
0.0130442
0.0125132
0.0119943
0.0114875
0.0109928
0.0105103
0.0100399
0.00958163
0.00913548
0.00870144
0.0082795
0.00786964
0.00747183
0.00708606
0.00671229
0.00635048
0.00600061
0.00566261
0.00533644
0.00502205
0.00471936
0.0044283
0.0041488
0.00388075
0.00362405
0.0033786
0.00314425
0.00292088
0.00270833
0.00250643
0.002315
0.00213383
0.00196273
0.00180146
0.00164977
0.00150742
0.00137412
0.0012496
0.00113356
0.00102569
0.000925649
0.000833129
0.000747793
0.000669303
0.000597317
0.000531491
0.000471481
0.000416943
0.000367537
0.000322926
0.000282781
0.000246778
0.000214605
0.000185958
0.000160544
0.000138084
0.000118312
0.000100975
8.58336e-05
7.26654e-05
6.12615e-05
5.14279e-05
4.29857e-05
3.57704e-05
2.96321e-05
2.44341e-05
2.00535e-05
1.63796e-05
1.33136e-05
1.07678e-05
8.66487e-06
6.93681e-06
5.52433e-06
4.37603e-06
3.44763e-06
2.70122e-06
2.10455e-06
1.63035e-06
1.25569e-06
9.61447e-07
7.3175e-07
5.53547e-07
4.16167e-07
3.1093e-07
2.30833e-07
1.70266e-07
1.24772e-07
9.08312e-08
6.5681e-08
4.71715e-08
3.36461e-08
2.38329e-08
1.67628e-08
1.1706e-08
8.11665e-09
5.58703e-09
3.81757e-09
2.5892e-09
1.74292e-09
1.16438e-09
7.71929e-10
5.07807e-10
3.31457e-10
2.14652e-10
1.37909e-10
8.78977e-11
5.55727e-11
3.48517e-11
2.16791e-11
1.3375e-11
8.18392e-12
4.96623e-12
2.98862e-12
1.7835e-12
1.05539e-12
6.19259e-13
3.60263e-13
2.07789e-13
1.18805e-13
6.73296e-14
3.78132e-14
2.10441e-14
1.15969e-14
0.0633896
0.0632491
0.0630296
0.0627339
0.0623628
0.0619197
0.0614091
0.0608354
0.060203
0.0595161
0.0587787
0.0579951
0.0571694
0.0563054
0.0554073
0.0544788
0.0535238
0.0525461
0.0515493
0.050537
0.0495125
0.048479
0.0474396
0.0463973
0.0453545
0.0443138
0.0432773
0.042247
0.0412246
0.0402115
0.0392088
0.0382175
0.0372384
0.0362719
0.0353184
0.0343782
0.0334512
0.0325377
0.0316375
0.0307506
0.0298769
0.0290162
0.0281684
0.0273334
0.026511
0.025701
0.0249035
0.0241183
0.0233454
0.0225848
0.0218364
0.0211003
0.0203765
0.019665
0.0189659
0.0182792
0.017605
0.0169434
0.0162944
0.0156582
0.0150347
0.0144241
0.0138265
0.0132418
0.0126703
0.0121119
0.0115668
0.011035
0.0105165
0.0100115
0.00951993
0.00904193
0.00857753
0.00812677
0.0076897
0.00726635
0.00685675
0.00646092
0.00607887
0.0057106
0.0053561
0.00501534
0.00468828
0.00437486
0.004075
0.0037886
0.00351554
0.00325569
0.00300887
0.00277492
0.0025536
0.0023447
0.00214795
0.00196307
0.00178976
0.00162768
0.00147649
0.0013358
0.00120526
0.00108445
0.000972964
0.00087039
0.000776296
0.000690247
0.000611804
0.000540526
0.000475976
0.000417716
0.000365319
0.000318363
0.000276438
0.000239144
0.000206099
0.000176932
0.000151292
0.000128845
0.000109276
9.22889e-05
7.7608e-05
6.49764e-05
5.41576e-05
4.49342e-05
3.71083e-05
3.05e-05
2.49473e-05
2.03051e-05
1.64438e-05
1.32489e-05
1.06193e-05
8.46659e-06
6.71396e-06
5.29497e-06
4.15261e-06
3.23828e-06
2.51076e-06
1.93533e-06
1.48292e-06
1.12941e-06
8.54888e-07
6.43085e-07
4.80714e-07
3.57043e-07
2.63463e-07
1.93132e-07
1.40637e-07
1.01721e-07
7.30668e-08
5.2123e-08
3.69242e-08
2.59722e-08
1.81377e-08
1.25749e-08
8.65446e-09
5.91218e-09
4.00864e-09
2.69745e-09
1.80129e-09
1.1936e-09
7.84774e-10
5.11935e-10
3.31315e-10
2.12713e-10
1.35473e-10
8.55836e-11
5.36271e-11
3.33284e-11
2.05428e-11
1.25575e-11
7.61247e-12
4.57624e-12
2.72794e-12
1.61245e-12
9.45016e-13
5.49125e-13
3.16339e-13
1.80652e-13
1.02259e-13
5.73656e-14
3.18929e-14
1.75589e-14
0.0760697
0.0758964
0.0756324
0.0752808
0.0748424
0.0743215
0.0737233
0.073053
0.0723156
0.0715162
0.0706598
0.0697512
0.0687953
0.0677969
0.0667605
0.0656909
0.0645923
0.063469
0.0623253
0.061165
0.059992
0.0588097
0.0576216
0.0564307
0.0552397
0.0540513
0.0528677
0.0516908
0.0505223
0.0493636
0.0482158
0.0470798
0.0459562
0.0448456
0.0437481
0.042664
0.0415933
0.0405359
0.0394919
0.038461
0.0374432
0.0364383
0.035446
0.0344663
0.0334989
0.0325438
0.0316009
0.0306702
0.0297515
0.0288449
0.0279505
0.0270683
0.0261982
0.0253406
0.0244953
0.0236627
0.0228427
0.0220355
0.0212413
0.0204602
0.0196924
0.018938
0.0181973
0.0174702
0.0167571
0.0160581
0.0153733
0.014703
0.0140472
0.0134063
0.0127802
0.0121692
0.0115735
0.0109933
0.0104286
0.00987972
0.00934672
0.00882979
0.00832904
0.0078446
0.00737658
0.00692507
0.00649014
0.00607184
0.00567019
0.00528519
0.00491682
0.00456501
0.00422966
0.00391067
0.00360785
0.00332102
0.00304994
0.00279435
0.00255394
0.00232834
0.00211718
0.00192006
0.00173654
0.00156616
0.00140844
0.00126286
0.00112891
0.00100604
0.000893691
0.000791304
0.000698311
0.000614143
0.000538231
0.000470015
0.000408943
0.000354475
0.000306086
0.000263269
0.000225536
0.000192423
0.000163487
0.000138312
0.000116506
9.77032e-05
8.15647e-05
6.77781e-05
5.60571e-05
4.61409e-05
3.77932e-05
3.08017e-05
2.49765e-05
2.01486e-05
1.61687e-05
1.29056e-05
1.02451e-05
8.08803e-06
6.34918e-06
4.95571e-06
3.84565e-06
2.96666e-06
2.27486e-06
1.73376e-06
1.31316e-06
9.88396e-07
7.39232e-07
5.49316e-07
4.05508e-07
2.97364e-07
2.16608e-07
1.56712e-07
1.12597e-07
8.03369e-08
5.69159e-08
4.00352e-08
2.79578e-08
1.93812e-08
1.33366e-08
9.10866e-09
6.17419e-09
4.15325e-09
2.77234e-09
1.83621e-09
1.20668e-09
7.86717e-10
5.08839e-10
3.26475e-10
2.07779e-10
1.31164e-10
8.21227e-11
5.09951e-11
3.14045e-11
1.91793e-11
1.16155e-11
6.97565e-12
4.15394e-12
2.45271e-12
1.4359e-12
8.3343e-13
4.79576e-13
2.73562e-13
1.54679e-13
8.66807e-14
4.81438e-14
2.64822e-14
0.0914151
0.0912037
0.0908883
0.0904727
0.0899581
0.0893492
0.088652
0.0878726
0.0870168
0.0860906
0.0850998
0.0840501
0.0829472
0.0817968
0.0806042
0.0793748
0.0781135
0.0768254
0.075515
0.0741868
0.0728451
0.0714936
0.0701361
0.0687757
0.0674155
0.0660581
0.0647057
0.0633604
0.0620239
0.0606974
0.0593821
0.0580788
0.0567881
0.0555103
0.0542457
0.0529943
0.0517563
0.0505314
0.0493195
0.0481206
0.0469342
0.0457604
0.0445988
0.0434492
0.0423116
0.0411857
0.0400715
0.0389689
0.0378779
0.0367986
0.0357309
0.034675
0.033631
0.0325989
0.031579
0.0305714
0.0295763
0.0285939
0.0276245
0.0266682
0.0257253
0.0247961
0.0238807
0.0229795
0.0220927
0.0212207
0.0203636
0.0195217
0.0186955
0.0178851
0.0170909
0.0163132
0.0155523
0.0148086
0.0140823
0.0133738
0.0126835
0.0120115
0.0113584
0.0107242
0.0101094
0.00951414
0.00893873
0.00838336
0.00784823
0.00733347
0.00683922
0.00636553
0.00591246
0.00547998
0.00506802
0.00467648
0.0043052
0.00395394
0.00362243
0.00331031
0.00301721
0.00274271
0.00248633
0.00224755
0.00202582
0.00182053
0.00163106
0.00145674
0.00129688
0.00115078
0.00101769
0.000896898
0.000787654
0.000689218
0.000600856
0.000521844
0.000451471
0.000389045
0.000333897
0.000285386
0.000242896
0.000205844
0.00017368
0.000145886
0.000121981
0.000101518
8.40871e-05
6.93118e-05
5.68507e-05
4.63954e-05
3.76694e-05
3.04256e-05
2.44446e-05
1.95335e-05
1.55234e-05
1.22676e-05
9.63948e-06
7.5308e-06
5.84901e-06
4.51581e-06
3.46542e-06
2.64299e-06
2.00309e-06
1.50862e-06
1.12894e-06
8.39329e-07
6.19894e-07
4.54769e-07
3.31375e-07
2.39808e-07
1.72338e-07
1.2298e-07
8.71346e-08
6.12929e-08
4.28013e-08
2.96686e-08
2.04124e-08
1.39385e-08
9.44561e-09
6.35187e-09
4.23839e-09
2.80606e-09
1.84315e-09
1.20106e-09
7.76391e-10
4.97833e-10
3.16628e-10
1.99735e-10
1.24962e-10
7.75353e-11
4.7709e-11
2.91113e-11
1.76144e-11
1.05683e-11
6.28713e-12
3.70849e-12
2.16881e-12
1.25749e-12
7.22811e-13
4.11866e-13
2.32634e-13
1.30233e-13
7.22654e-14
3.97156e-14
0.109775
0.109519
0.109145
0.108656
0.108056
0.107348
0.10654
0.105638
0.10465
0.103583
0.102442
0.101235
0.0999682
0.0986483
0.0972815
0.0958738
0.0944311
0.0929588
0.0914624
0.0899466
0.0884162
0.0868753
0.0853278
0.0837773
0.0822269
0.0806793
0.0791369
0.0776017
0.0760753
0.0745591
0.073054
0.071561
0.0700804
0.0686126
0.0671577
0.0657158
0.0642868
0.0628705
0.0614667
0.0600752
0.0586957
0.057328
0.0559717
0.0546267
0.0532928
0.0519698
0.0506576
0.0493561
0.0480653
0.0467852
0.0455159
0.0442574
0.04301
0.0417736
0.0405486
0.0393352
0.0381335
0.0369439
0.0357666
0.034602
0.0334503
0.0323119
0.0311871
0.0300764
0.02898
0.0278983
0.0268319
0.0257811
0.0247463
0.0237281
0.0227269
0.0217432
0.0207775
0.0198304
0.0189023
0.0179939
0.0171056
0.0162381
0.0153918
0.0145673
0.0137652
0.0129859
0.0122299
0.0114977
0.0107897
0.0101064
0.00944797
0.00881479
0.00820708
0.00762501
0.00706868
0.00653815
0.00603336
0.00555422
0.00510048
0.00467189
0.0042681
0.00388873
0.00353327
0.00320118
0.00289185
0.00260458
0.00233865
0.00209325
0.00186755
0.00166066
0.00147169
0.00129969
0.0011437
0.00100278
0.000875935
0.000762222
0.000660684
0.000570389
0.000490428
0.000419921
0.000358024
0.000303927
0.000256863
0.000216106
0.000180979
0.000150849
0.000125132
0.000103293
8.48399e-05
6.93294e-05
5.63627e-05
4.55807e-05
3.66642e-05
2.93315e-05
2.33354e-05
1.84603e-05
1.45197e-05
1.1354e-05
8.82629e-06
6.82016e-06
5.23788e-06
3.99777e-06
3.03206e-06
2.285e-06
1.71089e-06
1.27262e-06
9.40332e-07
6.90124e-07
5.03037e-07
3.64134e-07
2.61741e-07
1.86808e-07
1.32371e-07
9.31176e-08
6.5024e-08
4.50697e-08
3.10049e-08
2.11678e-08
1.43413e-08
9.6414e-09
6.43126e-09
4.25625e-09
2.7945e-09
1.82012e-09
1.17595e-09
7.53605e-10
4.79007e-10
3.01968e-10
1.8879e-10
1.17051e-10
7.19671e-11
4.3877e-11
2.65257e-11
1.59005e-11
9.45045e-12
5.569e-12
3.25364e-12
1.88457e-12
1.08215e-12
6.15989e-13
3.47576e-13
1.94391e-13
1.07767e-13
5.91745e-14
0.131539
0.131231
0.130789
0.130218
0.12952
0.128701
0.127769
0.126732
0.125597
0.124373
0.123066
0.121685
0.120237
0.11873
0.11717
0.115566
0.113923
0.112247
0.110546
0.108823
0.107084
0.105334
0.103576
0.101815
0.100054
0.0982961
0.0965428
0.0947966
0.0930592
0.0913319
0.0896155
0.0879109
0.0862184
0.0845382
0.0828706
0.0812153
0.0795723
0.0779412
0.0763219
0.0747138
0.0731168
0.0715305
0.0699545
0.0683885
0.0668324
0.0652859
0.0637487
0.0622209
0.0607024
0.059193
0.057693
0.0562022
0.054721
0.0532493
0.0517875
0.0503358
0.0488944
0.0474636
0.0460437
0.0446352
0.0432384
0.0418537
0.0404816
0.0391225
0.0377768
0.0364452
0.0351282
0.0338264
0.0325403
0.0312707
0.0300182
0.0287835
0.0275674
0.0263707
0.025194
0.0240384
0.0229045
0.0217932
0.0207055
0.0196422
0.018604
0.017592
0.0166069
0.0156494
0.0147205
0.0138207
0.0129508
0.0121114
0.011303
0.0105261
0.00978104
0.00906814
0.00838759
0.0077394
0.00712356
0.00653996
0.00598838
0.00546847
0.00497981
0.00452186
0.00409396
0.00369538
0.00332529
0.00298277
0.00266682
0.00237638
0.00211034
0.00186751
0.0016467
0.00144666
0.00126614
0.00110389
0.000958642
0.000829159
0.000714215
0.00061262
0.000523226
0.000444922
0.000376647
0.000317396
0.000266222
0.000222239
0.000184626
0.000152622
0.000125531
0.000102718
8.36155e-05
6.77049e-05
5.4526e-05
4.36714e-05
3.47822e-05
2.75449e-05
2.16874e-05
1.69754e-05
1.3208e-05
1.02145e-05
7.85092e-06
5.99656e-06
4.55116e-06
3.43196e-06
2.57112e-06
1.91347e-06
1.4145e-06
1.03854e-06
7.57259e-07
5.48315e-07
3.94223e-07
2.81412e-07
1.99432e-07
1.40302e-07
9.79742e-08
6.79057e-08
4.67103e-08
3.18858e-08
2.15987e-08
1.45169e-08
9.68059e-09
6.40449e-09
4.20333e-09
2.73653e-09
1.76717e-09
1.13189e-09
7.19043e-10
4.53009e-10
2.83034e-10
1.75361e-10
1.07738e-10
6.56346e-11
3.96468e-11
2.37455e-11
1.41006e-11
8.30164e-12
4.84558e-12
2.80395e-12
1.6085e-12
9.14702e-13
5.15627e-13
2.88107e-13
1.59577e-13
8.75481e-14
0.157132
0.156765
0.156245
0.15558
0.154772
0.153828
0.152758
0.151569
0.150271
0.148872
0.147382
0.145808
0.144161
0.142448
0.140677
0.138857
0.136994
0.135096
0.13317
0.131221
0.129254
0.127275
0.125289
0.123298
0.121307
0.119318
0.117334
0.115357
0.113389
0.11143
0.109482
0.107545
0.10562
0.103706
0.101805
0.0999145
0.0980356
0.0961676
0.0943101
0.0924626
0.0906248
0.0887961
0.0869762
0.0851647
0.0833612
0.0815654
0.0797771
0.077996
0.0762221
0.0744553
0.0726955
0.0709428
0.0691971
0.0674588
0.0657279
0.0640046
0.0622893
0.0605821
0.0588836
0.057194
0.0555138
0.0538434
0.0521834
0.0505343
0.0488967
0.0472712
0.0456586
0.0440595
0.0424748
0.0409054
0.039352
0.0378158
0.0362976
0.0347986
0.0333199
0.0318626
0.0304279
0.0290171
0.0276314
0.0262721
0.0249405
0.0236379
0.0223656
0.0211248
0.0199168
0.0187427
0.0176037
0.0165009
0.0154352
0.0144075
0.0134187
0.0124694
0.0115601
0.0106911
0.00986285
0.00907537
0.0083287
0.00762267
0.00695699
0.00633118
0.00574464
0.00519664
0.00468628
0.00421254
0.00377429
0.00337026
0.00299911
0.00265942
0.00234967
0.00206832
0.00181375
0.00158435
0.00137847
0.00119449
0.00103076
0.0008857
0.000757771
0.00064546
0.000547317
0.000461963
0.00038809
0.00032447
0.000269956
0.000223483
0.000184073
0.000150828
0.000122939
9.96711e-05
8.03669e-05
6.44425e-05
5.13822e-05
4.07341e-05
3.21044e-05
2.51532e-05
1.95885e-05
1.51618e-05
1.16627e-05
8.91462e-06
6.77053e-06
5.1088e-06
3.82958e-06
2.85154e-06
2.10894e-06
1.54905e-06
1.12992e-06
8.18404e-07
5.88561e-07
4.20224e-07
2.97851e-07
2.09561e-07
1.46346e-07
1.01431e-07
6.97678e-08
4.76206e-08
3.22521e-08
2.16728e-08
1.44489e-08
9.55627e-09
6.2697e-09
4.08022e-09
2.63374e-09
1.68613e-09
1.07056e-09
6.74088e-10
4.20904e-10
2.60612e-10
1.60004e-10
9.7404e-11
5.8792e-11
3.51838e-11
2.08754e-11
1.22796e-11
7.16107e-12
4.14004e-12
2.37274e-12
1.34805e-12
7.59204e-13
4.2382e-13
2.34541e-13
1.28566e-13
0.187016
0.186579
0.185969
0.185196
0.184262
0.183177
0.18195
0.18059
0.179109
0.177516
0.175822
0.174036
0.172168
0.170229
0.168226
0.16617
0.164068
0.161929
0.159758
0.157563
0.15535
0.153124
0.15089
0.148651
0.146411
0.144174
0.141941
0.139715
0.137497
0.135289
0.133091
0.130903
0.128726
0.12656
0.124405
0.12226
0.120126
0.118
0.115884
0.113776
0.111676
0.109583
0.107497
0.105417
0.103343
0.101274
0.0992092
0.0971494
0.095094
0.0930425
0.0909951
0.0889515
0.0869117
0.0848758
0.0828439
0.0808161
0.0787927
0.0767738
0.0747599
0.0727513
0.0707484
0.0687516
0.0667616
0.064779
0.0628043
0.0608384
0.058882
0.0569361
0.0550016
0.0530796
0.0511712
0.0492777
0.0474003
0.0455405
0.0436997
0.0418794
0.0400814
0.0383073
0.0365588
0.0348378
0.0331461
0.0314855
0.0298579
0.0282653
0.0267094
0.025192
0.023715
0.02228
0.0208886
0.0195424
0.0182427
0.0169906
0.0157872
0.0146335
0.0135302
0.0124778
0.0114768
0.0105272