/*--------------------------------*- C++ -*----------------------------------*\
| =========                 |                                                 |
| \\      /  F ield         | OpenFOAM: The Open Source CFD Toolbox           |
|  \\    /   O peration     | Version:  2406                                  |
|   \\  /    A nd           | Website:  www.openfoam.com                      |
|    \\/     M anipulation  |                                                 |
\*---------------------------------------------------------------------------*/
FoamFile
{
    version     2.0;
    format      ascii;
    arch        "LSB;label=32;scalar=64";
    class       volScalarField;
    location    "3";
    object      p;
}
// * * * * * * * * * * * * * * * * * * * * * * * * * * * * * * * * * * * * * //

dimensions      [0 2 -2 0 0 0 0];

internalField   nonuniform List<scalar> 
34560
(
-24.507776
-24.51026
-24.515229
-24.524401
-24.538255
-24.556947
-24.57919
-24.603741
-24.629014
-24.50846
-24.512107
-24.519029
-24.531294
-24.549228
-24.572522
-24.59936
-24.627981
-24.656998
-24.508336
-24.513409
-24.52264
-24.538303
-24.560397
-24.587912
-24.618449
-24.649752
-24.680488
-24.506159
-24.512704
-24.524384
-24.543688
-24.570156
-24.601872
-24.63585
-24.669365
-24.701274
-24.502435
-24.510545
-24.524774
-24.547791
-24.578628
-24.614421
-24.651673
-24.68723
-24.719972
-24.498022
-24.507625
-24.524312
-24.550913
-24.585912
-24.625493
-24.665736
-24.703111
-24.736454
-24.493437
-24.5044
-24.523356
-24.55327
-24.592073
-24.635046
-24.677919
-24.716858
-24.750643
-24.488858
-24.501052
-24.522048
-24.55491
-24.597057
-24.642966
-24.688082
-24.728342
-24.762472
-24.48457
-24.497823
-24.520565
-24.555922
-24.600868
-24.649212
-24.696168
-24.737497
-24.771908
-24.481045
-24.495123
-24.51923
-24.556526
-24.603627
-24.653839
-24.702195
-24.744324
-24.778951
-24.478698
-24.493327
-24.518354
-24.556946
-24.605475
-24.656928
-24.70621
-24.748861
-24.783632
-24.477242
-24.492191
-24.517728
-24.55701
-24.606285
-24.658385
-24.70815
-24.751076
-24.785933
-24.477242
-24.492191
-24.517728
-24.55701
-24.606286
-24.658385
-24.70815
-24.751076
-24.785933
-24.478699
-24.493327
-24.518355
-24.556947
-24.605476
-24.656928
-24.70621
-24.748862
-24.783633
-24.481047
-24.495124
-24.519231
-24.556527
-24.603628
-24.65384
-24.702195
-24.744324
-24.778951
-24.484571
-24.497824
-24.520566
-24.555924
-24.600869
-24.649213
-24.696169
-24.737498
-24.771909
-24.488859
-24.501053
-24.52205
-24.554912
-24.597059
-24.642968
-24.688083
-24.728343
-24.762472
-24.493439
-24.504402
-24.523359
-24.553272
-24.592075
-24.635048
-24.677921
-24.716859
-24.750643
-24.498025
-24.507628
-24.524316
-24.550917
-24.585915
-24.625496
-24.665739
-24.703112
-24.736454
-24.502438
-24.510549
-24.524778
-24.547796
-24.578633
-24.614425
-24.651676
-24.687231
-24.719972
-24.506165
-24.51271
-24.52439
-24.543694
-24.570161
-24.601877
-24.635854
-24.669367
-24.701275
-24.508343
-24.513415
-24.522647
-24.538309
-24.560404
-24.587919
-24.618455
-24.649755
-24.68049
-24.508467
-24.512114
-24.519037
-24.531302
-24.549236
-24.572529
-24.599365
-24.627986
-24.657002
-24.507784
-24.510269
-24.515237
-24.524409
-24.538263
-24.556954
-24.579196
-24.603749
-24.629023
-23.394141
-23.39226
-23.390124
-23.387379
-23.382947
-23.375488
-23.364581
-23.351024
-23.336715
-23.411876
-23.409405
-23.406287
-23.40181
-23.394568
-23.383187
-23.367826
-23.350637
-23.334358
-23.43162
-23.428569
-23.42463
-23.4187
-23.408982
-23.393989
-23.374365
-23.353537
-23.334852
-23.45129
-23.447626
-23.442839
-23.435482
-23.423448
-23.405185
-23.38168
-23.357363
-23.33601
-23.470541
-23.466311
-23.460691
-23.451865
-23.437509
-23.416137
-23.389005
-23.361393
-23.337502
-23.488547
-23.483863
-23.47752
-23.467304
-23.450761
-23.426596
-23.39619
-23.365523
-23.339304
-23.504958
-23.499865
-23.49285
-23.481324
-23.462761
-23.436114
-23.402888
-23.369548
-23.341229
-23.519351
-23.513922
-23.506332
-23.493643
-23.473271
-23.44443
-23.408858
-23.373289
-23.343075
-23.531332
-23.525646
-23.517595
-23.503945
-23.482056
-23.451372
-23.413872
-23.3765
-23.344695
-23.540571
-23.534707
-23.526317
-23.511935
-23.488871
-23.45674
-23.417722
-23.378987
-23.345998
-23.546867
-23.540874
-23.532243
-23.517363
-23.493498
-23.460365
-23.420305
-23.38065
-23.346866
-23.550057
-23.544007
-23.535263
-23.520139
-23.495871
-23.462224
-23.421628
-23.381499
-23.347305
-23.550057
-23.544007
-23.535263
-23.520139
-23.495871
-23.462224
-23.421628
-23.381499
-23.347305
-23.546868
-23.540874
-23.532244
-23.517364
-23.493499
-23.460365
-23.420305
-23.380651
-23.346866
-23.540572
-23.534707
-23.526317
-23.511936
-23.488872
-23.45674
-23.417722
-23.378987
-23.345998
-23.531333
-23.525647
-23.517597
-23.503946
-23.482057
-23.451373
-23.413873
-23.3765
-23.344696
-23.519353
-23.513924
-23.506334
-23.493645
-23.473273
-23.444432
-23.40886
-23.37329
-23.343075
-23.504961
-23.499868
-23.492853
-23.481327
-23.462763
-23.436117
-23.402889
-23.369548
-23.341229
-23.488551
-23.483867
-23.477524
-23.467308
-23.450765
-23.426599
-23.396192
-23.365524
-23.339304
-23.470545
-23.466315
-23.460696
-23.45187
-23.437514
-23.416142
-23.389008
-23.361394
-23.337503
-23.451296
-23.447631
-23.442845
-23.435488
-23.423454
-23.405191
-23.381685
-23.357366
-23.336011
-23.431627
-23.428576
-23.424637
-23.418707
-23.408989
-23.393996
-23.374371
-23.353541
-23.334854
-23.411884
-23.409413
-23.406296
-23.401819
-23.394576
-23.383195
-23.367834
-23.350644
-23.334362
-23.39415
-23.392269
-23.390133
-23.387388
-23.382956
-23.375497
-23.36459
-23.351033
-23.336722
-22.234383
-22.233864
-22.233341
-22.233098
-22.233479
-22.234657
-22.235627
-22.23454
-22.231596
-22.237662
-22.237024
-22.236292
-22.235745
-22.235761
-22.236593
-22.237254
-22.235858
-22.232744
-22.240913
-22.240167
-22.239292
-22.238609
-22.238574
-22.2395
-22.240301
-22.238995
-22.235902
-22.243544
-22.242678
-22.241662
-22.240882
-22.240907
-22.242051
-22.243054
-22.24181
-22.23855
-22.245896
-22.244912
-22.243753
-22.242871
-22.242941
-22.244245
-22.245341
-22.244095
-22.240699
-22.248185
-22.247077
-22.245789
-22.244849
-22.244959
-22.246293
-22.247352
-22.246081
-22.242594
-22.250299
-22.249071
-22.247672
-22.246715
-22.246897
-22.248229
-22.249157
-22.247809
-22.244281
-22.252205
-22.250872
-22.249383
-22.248429
-22.248712
-22.250072
-22.250792
-22.249279
-22.245769
-22.253828
-22.252409
-22.250849
-22.249908
-22.250301
-22.251708
-22.252247
-22.250549
-22.247041
-22.255106
-22.253622
-22.252009
-22.251087
-22.251582
-22.253046
-22.253477
-22.251613
-22.248038
-22.255995
-22.254461
-22.252813
-22.251905
-22.252473
-22.253985
-22.254356
-22.252385
-22.248749
-22.256442
-22.254887
-22.253223
-22.252322
-22.252927
-22.254467
-22.254812
-22.252788
-22.249116
-22.256442
-22.254887
-22.253223
-22.252322
-22.252927
-22.254467
-22.254812
-22.252789
-22.249116
-22.255996
-22.254461
-22.252814
-22.251905
-22.252474
-22.253986
-22.254357
-22.252385
-22.24875
-22.255107
-22.253622
-22.25201
-22.251088
-22.251583
-22.253047
-22.253477
-22.251613
-22.248039
-22.253829
-22.25241
-22.25085
-22.24991
-22.250302
-22.251709
-22.252248
-22.25055
-22.247041
-22.252207
-22.250874
-22.249384
-22.24843
-22.248714
-22.250074
-22.250794
-22.24928
-22.245769
-22.250301
-22.249073
-22.247675
-22.246717
-22.246899
-22.248232
-22.249159
-22.247811
-22.244281
-22.248188
-22.24708
-22.245792
-22.244853
-22.244962
-22.246297
-22.247355
-22.246082
-22.242595
-22.2459
-22.244917
-22.243758
-22.242876
-22.242946
-22.244249
-22.245345
-22.244098
-22.2407
-22.243549
-22.242684
-22.241667
-22.240888
-22.240913
-22.242057
-22.243059
-22.241813
-22.238551
-22.240919
-22.240174
-22.2393
-22.238616
-22.238582
-22.239507
-22.240307
-22.239
-22.235904
-22.23767
-22.237032
-22.2363
-22.235754
-22.235769
-22.236602
-22.237262
-22.235864
-22.232747
-22.234392
-22.233873
-22.23335
-22.233107
-22.233488
-22.234666
-22.235636
-22.234548
-22.231602
-21.216014
-21.216148
-21.216331
-21.216505
-21.216522
-21.216109
-21.215311
-21.214662
-21.213694
-21.220531
-21.220606
-21.220668
-21.220616
-21.220234
-21.219127
-21.217294
-21.215428
-21.213831
-21.225414
-21.225435
-21.225415
-21.225215
-21.22456
-21.222987
-21.220484
-21.217825
-21.215678
-21.230015
-21.229976
-21.229878
-21.229557
-21.22866
-21.226727
-21.223755
-21.220547
-21.21788
-21.234301
-21.234207
-21.234045
-21.233613
-21.232456
-21.23012
-21.226734
-21.22309
-21.219998
-21.238107
-21.237988
-21.237782
-21.237233
-21.235843
-21.233141
-21.229353
-21.225307
-21.221818
-21.241251
-21.241127
-21.240902
-21.240268
-21.238661
-21.23564
-21.231504
-21.227105
-21.223259
-21.243789
-21.243675
-21.243434
-21.242721
-21.240927
-21.237627
-21.233192
-21.22851
-21.22437
-21.245721
-21.245625
-21.245387
-21.244621
-21.242677
-21.239145
-21.234465
-21.229568
-21.225199
-21.247115
-21.247035
-21.246802
-21.245998
-21.243939
-21.240229
-21.235368
-21.230314
-21.225774
-21.248018
-21.247951
-21.24772
-21.246888
-21.244746
-21.240914
-21.235934
-21.230781
-21.226133
-21.24845
-21.24839
-21.248164
-21.247318
-21.245136
-21.241243
-21.236204
-21.231004
-21.226305
-21.24845
-21.248391
-21.248164
-21.247318
-21.245136
-21.241243
-21.236205
-21.231004
-21.226305
-21.248019
-21.247951
-21.247721
-21.246888
-21.244747
-21.240915
-21.235935
-21.230781
-21.226133
-21.247116
-21.247036
-21.246803
-21.245999
-21.24394
-21.24023
-21.235369
-21.230314
-21.225774
-21.245722
-21.245626
-21.245388
-21.244622
-21.242678
-21.239146
-21.234466
-21.229569
-21.225199
-21.243791
-21.243676
-21.243436
-21.242723
-21.240929
-21.237629
-21.233194
-21.228511
-21.224371
-21.241253
-21.24113
-21.240904
-21.24027
-21.238664
-21.235643
-21.231506
-21.227106
-21.223259
-21.23811
-21.237991
-21.237786
-21.237237
-21.235846
-21.233145
-21.229357
-21.225309
-21.221819
-21.234305
-21.234211
-21.234049
-21.233618
-21.232461
-21.230124
-21.226738
-21.223093
-21.219999
-21.230021
-21.229981
-21.229884
-21.229563
-21.228667
-21.226733
-21.223761
-21.220551
-21.217882
-21.225421
-21.225442
-21.225422
-21.225223
-21.224568
-21.222994
-21.220491
-21.21783
-21.215682
-21.220539
-21.220614
-21.220676
-21.220625
-21.220242
-21.219136
-21.217301
-21.215435
-21.213836
-21.216023
-21.216157
-21.21634
-21.216514
-21.216531
-21.216118
-21.21532
-21.21467
-21.213701
-20.13314
-20.133149
-20.133189
-20.133296
-20.133505
-20.133846
-20.134314
-20.134797
-20.134957
-20.135109
-20.135081
-20.135056
-20.135058
-20.135113
-20.135257
-20.135483
-20.135663
-20.135642
-20.137195
-20.137134
-20.137072
-20.137033
-20.137036
-20.137116
-20.137225
-20.137261
-20.137174
-20.138937
-20.138853
-20.13877
-20.13872
-20.138728
-20.138794
-20.138847
-20.138759
-20.138514
-20.140231
-20.140148
-20.140053
-20.139977
-20.139973
-20.140042
-20.140059
-20.139869
-20.13948
-20.141224
-20.141143
-20.141039
-20.140955
-20.140929
-20.140977
-20.140973
-20.140714
-20.140218
-20.142048
-20.141965
-20.141852
-20.141751
-20.141719
-20.141753
-20.141727
-20.141422
-20.140837
-20.142713
-20.142627
-20.142516
-20.142414
-20.14238
-20.142412
-20.142371
-20.142023
-20.141353
-20.143241
-20.143151
-20.143034
-20.142932
-20.142902
-20.142941
-20.142896
-20.142512
-20.141767
-20.143636
-20.143542
-20.143421
-20.143317
-20.143291
-20.14334
-20.143297
-20.142887
-20.142082
-20.143901
-20.143805
-20.14368
-20.143574
-20.143553
-20.143609
-20.143569
-20.143143
-20.142298
-20.144026
-20.143929
-20.143803
-20.143699
-20.143681
-20.143744
-20.143706
-20.143274
-20.142409
-20.144026
-20.143929
-20.143803
-20.143699
-20.143681
-20.143744
-20.143706
-20.143274
-20.142409
-20.143902
-20.143805
-20.14368
-20.143575
-20.143553
-20.14361
-20.143569
-20.143143
-20.142297
-20.143636
-20.143543
-20.143422
-20.143318
-20.143292
-20.143341
-20.143298
-20.142887
-20.142081
-20.143242
-20.143151
-20.143035
-20.142933
-20.142903
-20.142942
-20.142897
-20.142513
-20.141766
-20.142714
-20.142628
-20.142517
-20.142416
-20.142382
-20.142414
-20.142372
-20.142024
-20.141353
-20.14205
-20.141967
-20.141855
-20.141754
-20.141721
-20.141756
-20.14173
-20.141423
-20.140837
-20.141227
-20.141146
-20.141043
-20.140959
-20.140932
-20.140981
-20.140976
-20.140716
-20.140219
-20.140235
-20.140152
-20.140058
-20.139982
-20.139978
-20.140047
-20.140063
-20.139872
-20.139481
-20.138942
-20.138859
-20.138776
-20.138726
-20.138734
-20.1388
-20.138852
-20.138764
-20.138517
-20.137202
-20.137141
-20.137079
-20.13704
-20.137044
-20.137123
-20.137232
-20.137267
-20.137179
-20.135118
-20.135089
-20.135064
-20.135066
-20.135121
-20.135266
-20.135491
-20.13567
-20.135648
-20.133149
-20.133158
-20.133198
-20.133305
-20.133515
-20.133856
-20.134324
-20.134808
-20.134967
-19.101316
-19.101366
-19.101431
-19.101502
-19.10157
-19.101619
-19.101629
-19.101594
-19.101386
-19.102028
-19.102073
-19.10212
-19.102144
-19.102117
-19.102008
-19.10181
-19.101553
-19.101222
-19.102884
-19.102925
-19.102956
-19.102938
-19.102829
-19.102602
-19.102295
-19.101961
-19.101641
-19.103759
-19.103791
-19.103804
-19.10375
-19.103582
-19.103289
-19.102921
-19.102536
-19.102189
-19.104704
-19.104721
-19.104714
-19.104633
-19.104433
-19.104103
-19.103671
-19.10321
-19.102804
-19.105679
-19.105681
-19.105656
-19.105562
-19.105356
-19.105005
-19.104516
-19.103974
-19.103492
-19.106607
-19.106594
-19.106556
-19.106456
-19.106249
-19.105889
-19.105362
-19.104752
-19.104193
-19.107443
-19.10742
-19.107372
-19.107267
-19.10706
-19.106694
-19.10614
-19.105474
-19.10484
-19.108146
-19.108116
-19.108062
-19.107952
-19.107746
-19.107378
-19.106806
-19.106094
-19.105393
-19.108692
-19.108658
-19.108599
-19.108487
-19.108283
-19.107916
-19.107329
-19.106583
-19.105827
-19.109068
-19.10903
-19.108968
-19.108855
-19.108653
-19.108286
-19.107691
-19.10692
-19.106126
-19.109256
-19.109217
-19.109153
-19.109041
-19.10884
-19.108474
-19.107875
-19.107092
-19.106278
-19.109256
-19.109217
-19.109153
-19.109041
-19.10884
-19.108474
-19.107875
-19.107092
-19.106278
-19.109068
-19.10903
-19.108968
-19.108856
-19.108653
-19.108287
-19.107691
-19.106919
-19.106125
-19.108692
-19.108658
-19.108599
-19.108488
-19.108284
-19.107917
-19.10733
-19.106582
-19.105826
-19.108146
-19.108117
-19.108062
-19.107953
-19.107747
-19.107379
-19.106806
-19.106094
-19.105392
-19.107443
-19.107421
-19.107373
-19.107269
-19.107062
-19.106696
-19.106142
-19.105474
-19.104839
-19.106608
-19.106596
-19.106558
-19.106458
-19.106252
-19.105891
-19.105364
-19.104752
-19.104191
-19.105681
-19.105684
-19.105659
-19.105565
-19.10536
-19.105008
-19.104519
-19.103975
-19.103491
-19.104707
-19.104725
-19.104718
-19.104637
-19.104438
-19.104107
-19.103674
-19.103212
-19.102804
-19.103765
-19.103797
-19.10381
-19.103756
-19.103589
-19.103295
-19.102927
-19.102539
-19.10219
-19.102891
-19.102933
-19.102964
-19.102947
-19.102837
-19.10261
-19.102302
-19.101966
-19.101644
-19.102037
-19.102083
-19.10213
-19.102154
-19.102127
-19.102018
-19.101819
-19.101561
-19.101226
-19.101327
-19.101377
-19.101442
-19.101513
-19.101581
-19.10163
-19.10164
-19.101605
-19.101394
-18.06037
-18.06038
-18.060399
-18.060436
-18.060501
-18.060607
-18.060753
-18.060924
-18.061019
-18.06096
-18.060961
-18.060965
-18.060975
-18.061004
-18.061057
-18.061128
-18.06119
-18.061201
-18.061564
-18.06156
-18.061555
-18.061556
-18.061571
-18.061601
-18.061629
-18.061638
-18.061628
-18.062092
-18.062083
-18.062075
-18.062074
-18.062086
-18.062103
-18.062099
-18.062067
-18.062019
-18.062535
-18.062524
-18.062514
-18.062511
-18.062516
-18.062509
-18.062472
-18.062399
-18.062309
-18.062887
-18.062877
-18.062867
-18.062859
-18.062848
-18.062816
-18.062746
-18.062635
-18.062501
-18.063143
-18.063134
-18.063123
-18.063108
-18.06308
-18.063026
-18.062929
-18.062783
-18.062609
-18.063332
-18.063324
-18.06331
-18.063286
-18.063244
-18.06317
-18.063046
-18.062867
-18.062658
-18.063473
-18.063465
-18.063448
-18.063418
-18.063364
-18.06327
-18.063121
-18.062914
-18.062677
-18.063578
-18.063568
-18.063549
-18.063513
-18.063448
-18.063338
-18.063169
-18.06294
-18.062681
-18.063646
-18.063635
-18.063614
-18.063574
-18.063501
-18.063381
-18.063198
-18.062954
-18.062679
-18.063678
-18.063667
-18.063645
-18.063603
-18.063527
-18.063401
-18.063211
-18.06296
-18.062678
-18.063678
-18.063667
-18.063645
-18.063603
-18.063527
-18.063401
-18.063211
-18.06296
-18.062678
-18.063646
-18.063635
-18.063614
-18.063574
-18.063501
-18.063381
-18.063197
-18.062953
-18.062678
-18.063577
-18.063567
-18.063548
-18.063513
-18.063448
-18.063339
-18.063169
-18.062939
-18.062679
-18.063473
-18.063464
-18.063448
-18.063418
-18.063364
-18.063271
-18.063121
-18.062913
-18.062674
-18.063332
-18.063324
-18.06331
-18.063287
-18.063245
-18.063171
-18.063046
-18.062866
-18.062656
-18.063143
-18.063135
-18.063124
-18.063109
-18.063082
-18.063028
-18.06293
-18.062782
-18.062606
-18.062889
-18.062879
-18.062869
-18.062863
-18.062852
-18.062819
-18.062748
-18.062636
-18.062499
-18.062539
-18.062528
-18.062519
-18.062516
-18.062521
-18.062514
-18.062475
-18.062401
-18.062307
-18.062098
-18.06209
-18.062082
-18.062081
-18.062094
-18.06211
-18.062104
-18.062069
-18.062018
-18.061572
-18.061568
-18.061564
-18.061565
-18.06158
-18.06161
-18.061637
-18.061643
-18.061629
-18.060971
-18.060972
-18.060976
-18.060987
-18.061015
-18.061069
-18.061138
-18.061197
-18.061204
-18.060382
-18.060392
-18.060412
-18.060448
-18.060514
-18.060619
-18.060765
-18.060934
-18.061026
-17.029251
-17.029261
-17.029275
-17.029294
-17.029317
-17.029343
-17.029373
-17.029408
-17.029407
-17.029459
-17.029466
-17.029475
-17.029481
-17.029481
-17.029471
-17.029454
-17.029436
-17.029404
-17.029699
-17.029705
-17.02971
-17.029707
-17.02969
-17.029659
-17.029621
-17.029587
-17.029562
-17.029935
-17.029939
-17.029939
-17.029929
-17.029903
-17.029863
-17.029817
-17.029775
-17.029748
-17.030176
-17.030176
-17.030172
-17.030155
-17.030124
-17.030079
-17.030025
-17.029974
-17.029937
-17.030428
-17.030425
-17.030417
-17.030398
-17.030364
-17.030315
-17.030254
-17.030192
-17.030142
-17.030679
-17.030673
-17.030662
-17.030641
-17.030608
-17.030557
-17.030492
-17.03042
-17.030355
-17.030912
-17.030903
-17.030891
-17.030871
-17.030838
-17.030789
-17.030721
-17.030641
-17.030561
-17.031113
-17.031103
-17.031089
-17.031069
-17.03104
-17.030994
-17.030925
-17.030838
-17.030744
-17.031272
-17.031261
-17.031247
-17.031228
-17.031202
-17.031159
-17.03109
-17.030996
-17.03089
-17.031383
-17.031372
-17.031357
-17.031339
-17.031314
-17.031274
-17.031205
-17.031107
-17.030992
-17.03144
-17.031428
-17.031413
-17.031395
-17.031372
-17.031332
-17.031264
-17.031164
-17.031044
-17.03144
-17.031427
-17.031413
-17.031395
-17.031372
-17.031332
-17.031264
-17.031164
-17.031043
-17.031383
-17.031371
-17.031356
-17.031339
-17.031314
-17.031273
-17.031205
-17.031107
-17.03099
-17.031271
-17.031261
-17.031246
-17.031228
-17.031202
-17.031158
-17.03109
-17.030995
-17.030888
-17.031112
-17.031102
-17.031089
-17.031069
-17.03104
-17.030994
-17.030925
-17.030836
-17.030741
-17.030911
-17.030903
-17.030891
-17.030871
-17.030839
-17.03079
-17.030721
-17.030639
-17.030558
-17.030679
-17.030673
-17.030663
-17.030643
-17.030609
-17.030559
-17.030492
-17.030419
-17.030352
-17.03043
-17.030427
-17.030419
-17.0304
-17.030366
-17.030318
-17.030256
-17.030192
-17.030139
-17.030179
-17.03018
-17.030175
-17.03016
-17.030128
-17.030083
-17.030028
-17.029975
-17.029935
-17.02994
-17.029944
-17.029945
-17.029935
-17.029909
-17.029869
-17.029821
-17.029777
-17.029747
-17.029707
-17.029713
-17.029718
-17.029715
-17.029699
-17.029667
-17.029628
-17.029591
-17.029563
-17.029468
-17.029476
-17.029485
-17.029491
-17.029491
-17.029481
-17.029463
-17.029443
-17.029408
-17.029262
-17.029272
-17.029287
-17.029305
-17.029328
-17.029354
-17.029384
-17.029418
-17.029414
-15.995337
-15.995339
-15.995342
-15.995351
-15.995367
-15.995395
-15.995434
-15.99548
-15.995506
-15.995488
-15.995488
-15.995487
-15.995489
-15.995496
-15.995509
-15.995527
-15.995543
-15.995545
-15.995641
-15.995639
-15.995637
-15.995636
-15.995639
-15.995645
-15.995651
-15.995652
-15.995649
-15.995776
-15.995772
-15.995769
-15.995768
-15.99577
-15.995771
-15.995768
-15.995759
-15.995749
-15.995888
-15.995885
-15.995881
-15.995879
-15.995878
-15.995874
-15.995863
-15.995845
-15.995826
-15.995979
-15.995976
-15.995972
-15.995969
-15.995964
-15.995955
-15.995936
-15.995909
-15.99588
-15.996048
-15.996045
-15.996041
-15.996036
-15.996028
-15.996014
-15.995989
-15.995953
-15.995914
-15.996101
-15.996098
-15.996093
-15.996086
-15.996075
-15.996056
-15.996024
-15.99598
-15.995931
-15.996141
-15.996138
-15.996132
-15.996124
-15.99611
-15.996087
-15.996048
-15.995996
-15.995938
-15.99617
-15.996166
-15.99616
-15.996151
-15.996134
-15.996107
-15.996064
-15.996005
-15.99594
-15.996189
-15.996185
-15.996179
-15.996168
-15.99615
-15.99612
-15.996073
-15.996009
-15.99594
-15.996199
-15.996194
-15.996187
-15.996177
-15.996158
-15.996126
-15.996077
-15.996011
-15.995939
-15.996198
-15.996194
-15.996187
-15.996176
-15.996158
-15.996126
-15.996077
-15.996011
-15.995938
-15.996189
-15.996185
-15.996178
-15.996168
-15.99615
-15.99612
-15.996072
-15.996008
-15.995938
-15.996169
-15.996165
-15.996159
-15.99615
-15.996134
-15.996107
-15.996063
-15.996003
-15.995938
-15.99614
-15.996136
-15.996131
-15.996123
-15.99611
-15.996086
-15.996048
-15.995994
-15.995935
-15.9961
-15.996097
-15.996092
-15.996086
-15.996076
-15.996057
-15.996024
-15.995979
-15.995928
-15.996048
-15.996045
-15.996041
-15.996037
-15.996029
-15.996015
-15.995989
-15.995952
-15.99591
-15.99598
-15.995976
-15.995973
-15.995971
-15.995967
-15.995957
-15.995937
-15.995909
-15.995877
-15.99589
-15.995887
-15.995884
-15.995883
-15.995882
-15.995877
-15.995865
-15.995845
-15.995823
-15.995779
-15.995777
-15.995774
-15.995773
-15.995775
-15.995776
-15.995771
-15.99576
-15.995747
-15.995647
-15.995645
-15.995644
-15.995643
-15.995646
-15.995652
-15.995656
-15.995655
-15.99565
-15.995496
-15.995496
-15.995495
-15.995497
-15.995504
-15.995518
-15.995535
-15.995549
-15.995548
-15.995346
-15.995348
-15.995351
-15.99536
-15.995376
-15.995404
-15.995443
-15.995489
-15.995512
-14.963667
-14.963669
-14.963672
-14.963676
-14.963681
-14.963688
-14.963698
-14.963711
-14.963716
-14.963726
-14.963727
-14.963728
-14.963728
-14.963727
-14.963726
-14.963725
-14.963725
-14.963721
-14.963789
-14.96379
-14.963789
-14.963788
-14.963784
-14.963778
-14.963772
-14.963768
-14.963766
-14.963851
-14.963851
-14.96385
-14.963847
-14.963841
-14.963834
-14.963825
-14.963819
-14.963817
-14.963914
-14.963913
-14.963911
-14.963907
-14.9639
-14.963891
-14.96388
-14.96387
-14.963864
-14.963976
-14.963975
-14.963972
-14.963968
-14.96396
-14.963949
-14.963935
-14.963921
-14.963911
-14.964034
-14.964032
-14.96403
-14.964025
-14.964017
-14.964005
-14.963989
-14.963972
-14.963958
-14.964086
-14.964084
-14.964081
-14.964076
-14.964069
-14.964056
-14.964039
-14.964019
-14.964001
-14.96413
-14.964128
-14.964125
-14.96412
-14.964113
-14.9641
-14.964082
-14.96406
-14.964039
-14.964164
-14.964162
-14.964159
-14.964155
-14.964147
-14.964135
-14.964117
-14.964093
-14.964069
-14.964188
-14.964186
-14.964183
-14.964178
-14.964172
-14.96416
-14.964141
-14.964116
-14.96409
-14.9642
-14.964198
-14.964195
-14.96419
-14.964184
-14.964172
-14.964153
-14.964128
-14.9641
-14.964199
-14.964197
-14.964194
-14.96419
-14.964183
-14.964172
-14.964153
-14.964127
-14.9641
-14.964187
-14.964185
-14.964182
-14.964178
-14.964171
-14.964159
-14.96414
-14.964115
-14.964088
-14.964163
-14.964161
-14.964158
-14.964154
-14.964147
-14.964135
-14.964116
-14.964092
-14.964067
-14.964129
-14.964127
-14.964124
-14.96412
-14.964112
-14.9641
-14.964081
-14.964059
-14.964036
-14.964085
-14.964083
-14.964081
-14.964076
-14.964069
-14.964056
-14.964038
-14.964017
-14.963997
-14.964033
-14.964032
-14.96403
-14.964025
-14.964018
-14.964005
-14.963989
-14.96397
-14.963954
-14.963976
-14.963975
-14.963973
-14.963969
-14.963962
-14.96395
-14.963936
-14.96392
-14.963908
-14.963916
-14.963915
-14.963914
-14.96391
-14.963903
-14.963894
-14.963882
-14.96387
-14.963861
-14.963855
-14.963855
-14.963854
-14.963852
-14.963846
-14.963838
-14.963829
-14.96382
-14.963815
-14.963795
-14.963795
-14.963796
-14.963794
-14.96379
-14.963784
-14.963777
-14.963771
-14.963766
-14.963733
-14.963734
-14.963735
-14.963736
-14.963735
-14.963733
-14.963731
-14.96373
-14.963724
-14.963676
-14.963677
-14.96368
-14.963684
-14.96369
-14.963697
-14.963706
-14.963718
-14.963721
-13.931419
-13.931419
-13.93142
-13.931422
-13.931426
-13.931432
-13.931441
-13.931452
-13.931458
-13.931455
-13.931455
-13.931454
-13.931455
-13.931456
-13.931459
-13.931463
-13.931466
-13.931467
-13.931491
-13.931491
-13.93149
-13.93149
-13.93149
-13.931491
-13.931491
-13.931492
-13.931492
-13.931524
-13.931523
-13.931523
-13.931522
-13.931522
-13.931521
-13.93152
-13.931518
-13.931517
-13.931553
-13.931552
-13.931551
-13.93155
-13.931549
-13.931547
-13.931544
-13.931541
-13.931538
-13.931577
-13.931576
-13.931575
-13.931574
-13.931572
-13.93157
-13.931566
-13.931561
-13.931556
-13.931597
-13.931596
-13.931595
-13.931593
-13.931591
-13.931588
-13.931584
-13.931577
-13.93157
-13.931614
-13.931613
-13.931611
-13.93161
-13.931607
-13.931604
-13.931598
-13.93159
-13.93158
-13.931628
-13.931626
-13.931625
-13.931623
-13.93162
-13.931616
-13.931609
-13.9316
-13.931588
-13.931638
-13.931636
-13.931635
-13.931632
-13.93163
-13.931625
-13.931618
-13.931607
-13.931594
-13.931644
-13.931643
-13.931641
-13.931639
-13.931636
-13.931631
-13.931624
-13.931611
-13.931597
-13.931648
-13.931646
-13.931644
-13.931642
-13.931639
-13.931634
-13.931626
-13.931614
-13.931599
-13.931647
-13.931646
-13.931644
-13.931642
-13.931639
-13.931634
-13.931626
-13.931613
-13.931598
-13.931644
-13.931642
-13.931641
-13.931639
-13.931636
-13.931631
-13.931623
-13.931611
-13.931596
-13.931637
-13.931635
-13.931634
-13.931632
-13.931629
-13.931625
-13.931617
-13.931606
-13.931592
-13.931627
-13.931625
-13.931624
-13.931622
-13.93162
-13.931616
-13.931609
-13.931598
-13.931586
-13.931613
-13.931612
-13.931611
-13.93161
-13.931607
-13.931604
-13.931598
-13.931588
-13.931577
-13.931597
-13.931596
-13.931595
-13.931594
-13.931592
-13.931589
-13.931584
-13.931575
-13.931566
-13.931578
-13.931577
-13.931576
-13.931575
-13.931574
-13.931571
-13.931567
-13.93156
-13.931552
-13.931555
-13.931554
-13.931553
-13.931553
-13.931552
-13.93155
-13.931546
-13.931541
-13.931535
-13.931528
-13.931527
-13.931527
-13.931527
-13.931526
-13.931526
-13.931523
-13.931519
-13.931515
-13.931497
-13.931497
-13.931496
-13.931496
-13.931497
-13.931497
-13.931496
-13.931494
-13.931492
-13.931462
-13.931462
-13.931462
-13.931463
-13.931464
-13.931467
-13.93147
-13.931471
-13.931469
-13.931427
-13.931427
-13.931428
-13.93143
-13.931434
-13.931441
-13.93145
-13.93146
-13.931463
-12.899501
-12.899501
-12.899502
-12.899502
-12.899504
-12.899506
-12.899509
-12.899513
-12.899515
-12.899516
-12.899516
-12.899516
-12.899516
-12.899516
-12.899516
-12.899517
-12.899519
-12.89952
-12.899533
-12.899533
-12.899532
-12.899532
-12.899531
-12.89953
-12.89953
-12.89953
-12.899531
-12.899548
-12.899548
-12.899548
-12.899547
-12.899546
-12.899545
-12.899544
-12.899543
-12.899543
-12.899563
-12.899563
-12.899562
-12.899562
-12.89956
-12.899558
-12.899556
-12.899555
-12.899554
-12.899577
-12.899577
-12.899576
-12.899575
-12.899574
-12.899571
-12.899568
-12.899565
-12.899563
-12.899589
-12.899589
-12.899588
-12.899587
-12.899586
-12.899583
-12.899579
-12.899575
-12.899572
-12.8996
-12.8996
-12.899599
-12.899598
-12.899596
-12.899593
-12.899588
-12.899583
-12.899578
-12.899609
-12.899608
-12.899608
-12.899607
-12.899605
-12.899601
-12.899596
-12.89959
-12.899584
-12.899615
-12.899615
-12.899614
-12.899613
-12.899612
-12.899608
-12.899602
-12.899595
-12.899589
-12.89962
-12.899619
-12.899619
-12.899618
-12.899616
-12.899612
-12.899606
-12.899599
-12.899591
-12.899622
-12.899622
-12.899621
-12.89962
-12.899618
-12.899614
-12.899608
-12.8996
-12.899593
-12.899622
-12.899621
-12.899621
-12.89962
-12.899618
-12.899614
-12.899608
-12.8996
-12.899592
-12.899619
-12.899619
-12.899619
-12.899618
-12.899616
-12.899612
-12.899606
-12.899598
-12.89959
-12.899615
-12.899614
-12.899614
-12.899613
-12.899611
-12.899608
-12.899602
-12.899594
-12.899587
-12.899608
-12.899608
-12.899607
-12.899607
-12.899605
-12.899601
-12.899596
-12.899589
-12.899582
-12.899599
-12.899599
-12.899599
-12.899598
-12.899597
-12.899593
-12.899588
-12.899582
-12.899576
-12.899589
-12.899589
-12.899589
-12.899588
-12.899587
-12.899584
-12.899579
-12.899574
-12.899569
-12.899578
-12.899578
-12.899577
-12.899577
-12.899576
-12.899573
-12.899569
-12.899565
-12.899561
-12.899565
-12.899565
-12.899565
-12.899564
-12.899563
-12.899561
-12.899558
-12.899555
-12.899552
-12.899552
-12.899552
-12.899552
-12.899551
-12.89955
-12.899549
-12.899547
-12.899544
-12.899542
-12.899538
-12.899538
-12.899538
-12.899538
-12.899537
-12.899536
-12.899534
-12.899533
-12.899532
-12.899523
-12.899523
-12.899523
-12.899523
-12.899523
-12.899523
-12.899523
-12.899524
-12.899522
-12.899508
-12.899508
-12.899509
-12.89951
-12.899511
-12.899513
-12.899517
-12.89952
-12.899521
-11.867545
-11.867545
-11.867545
-11.867545
-11.867546
-11.867547
-11.867549
-11.867552
-11.867553
-11.867553
-11.867553
-11.867553
-11.867553
-11.867553
-11.867553
-11.867554
-11.867555
-11.867556
-11.867561
-11.867561
-11.867561
-11.867561
-11.867561
-11.867561
-11.867561
-11.867561
-11.867562
-11.867569
-11.867569
-11.867569
-11.867569
-11.867568
-11.867568
-11.867568
-11.867568
-11.867568
-11.867577
-11.867577
-11.867576
-11.867576
-11.867575
-11.867575
-11.867574
-11.867574
-11.867574
-11.867584
-11.867584
-11.867583
-11.867583
-11.867582
-11.867582
-11.867581
-11.86758
-11.86758
-11.867591
-11.86759
-11.86759
-11.867589
-11.867589
-11.867588
-11.867587
-11.867586
-11.867585
-11.867596
-11.867596
-11.867595
-11.867595
-11.867594
-11.867594
-11.867593
-11.867592
-11.86759
-11.867601
-11.8676
-11.8676
-11.8676
-11.867599
-11.867599
-11.867598