/*--------------------------------*- C++ -*----------------------------------*\
| =========                 |                                                 |
| \\      /  F ield         | OpenFOAM: The Open Source CFD Toolbox           |
|  \\    /   O peration     | Version:  2406                                  |
|   \\  /    A nd           | Website:  www.openfoam.com                      |
|    \\/     M anipulation  |                                                 |
\*---------------------------------------------------------------------------*/
FoamFile
{
    version     2.0;
    format      ascii;
    arch        "LSB;label=32;scalar=64";
    class       surfaceScalarField;
    location    "3";
    object      phi;
}
// * * * * * * * * * * * * * * * * * * * * * * * * * * * * * * * * * * * * * //

dimensions      [0 3 -1 0 0 0 0];

oriented        oriented;

internalField   nonuniform List<scalar> 
101088
(
0.00011563498
-6.5223033e-06
4.744084e-06
5.5637247e-06
0.00026307147
-2.9673573e-05
2.3441175e-05
2.591201e-05
0.00043503284
-7.5137545e-05
6.3627876e-05
6.6844067e-05
0.00060975195
-0.00014862259
0.00013590915
0.00013496321
0.00075239768
-0.00024512596
0.00024233878
0.0002274499
0.00082940169
-0.00034036125
0.00036284937
0.00032364219
0.00083045149
-0.00039749637
0.00045514208
0.00038847264
0.00077377977
-0.0003927874
0.00048218567
0.00039646697
-0.00033002039
0.00043934878
0.00035346541
0.00068464534
0.00014078073
-7.23015e-06
6.4208182e-06
0.00031685347
-3.2410975e-05
3.1396526e-05
0.00051620391
-8.0838288e-05
8.4445266e-05
0.00070882963
-0.00015664507
0.00017844056
0.00085178268
-0.00025288521
0.00031406865
0.00090946048
-0.00034279921
0.00046388655
0.00087851452
-0.00038997346
0.00057591997
0.00078737841
-0.00037346878
0.00060873629
-0.00030337618
0.00056027369
0.00067666274
0.00016593372
-7.5868613e-06
8.2405975e-06
0.00036971777
-3.3555549e-05
3.9873316e-05
0.00059407247
-8.2671383e-05
0.00010624958
0.00080126152
-0.0001575553
0.00022206985
0.00094192948
-0.00024996136
0.0003856826
0.00098098608
-0.00033188178
0.00056144142
0.00092349143
-0.00036899029
0.00068848149
0.00080801327
-0.00034435197
0.00072307671
-0.00027303579
0.00066729479
0.00067980799
0.00019031937
-7.6539841e-06
1.023466e-05
0.00042041929
-3.3346561e-05
4.8929644e-05
0.00066757435
-8.1088929e-05
0.00012901035
0.00088656577
-0.00015207156
0.00026648236
0.0010229021
-0.00023766662
0.00045653155
0.0010439257
-0.00031010712
0.00065497559
0.00096367955
-0.00033825342
0.00079308288
0.00082918067
-0.00030919196
0.00082637346
-0.00024048274
0.00076169524
0.00068728585
0.00021320127
-7.3467199e-06
1.2279283e-05
0.00046738235
-3.1644229e-05
5.8077872e-05
0.00073462765
-7.6178251e-05
0.00015167616
0.00096309052
-0.00014103192
0.00030997803
0.0010942869
-0.00021790874
0.00052451107
0.0010987726
-0.00028040999
0.00074267339
0.00099898961
-0.0003010412
0.00088886203
0.00084884196
-0.00027051598
0.00091879858
-0.00020691868
0.00084425807
0.0006959291
0.00023434616
-6.7659699e-06
1.4316031e-05
0.00051055124
-2.8852928e-05
6.7061716e-05
0.00079581619
-6.8826011e-05
0.00017363227
0.0010323181
-0.00012597029
0.00035145707
0.0011583234
-0.00019277752
0.00058812831
0.0011477671
-0.00024516891
0.0008231713
0.0010307207
-0.00025957948
0.00097516254
0.00086691907
-0.0002297922
0.001000465
-0.00017294883
0.00091565833
0.00070449643
0.00025301747
-5.9844564e-06
1.6285002e-05
0.00054832788
-2.5254159e-05
7.5598723e-05
0.00084875665
-5.9700687e-05
0.00019416537
0.0010914026
-0.00010812874
0.00038959695
0.001212146
-0.00016411676
0.00064556118
0.0011883424
-0.00020664403
0.00089457747
0.0010567112
-0.00021615761
0.0010505174
0.00088161023
-0.00018878352
0.0010706966
-0.00013974769
0.00097602813
0.00071154445
0.00026896037
-5.021594e-06
1.8060328e-05
0.00058036011
-2.0989388e-05
8.322862e-05
0.00089326445
-4.922494e-05
0.00021236248
0.0011405745
-8.8365171e-05
0.00042307656
0.0012563896
-0.00013321522
0.00069540491
0.0012211942
-0.00016634753
0.00095583015
0.0010773487
-0.00017220084
0.0011144178
0.00089286082
-0.000148573
0.001129636
-0.00010813321
0.0010260048
0.00071667316
0.0002819659
-3.894647e-06
1.9560782e-05
0.00060635501
-1.6173098e-05
8.964191e-05
0.00092914964
-3.7714514e-05
0.00022758197
0.0011798876
-6.7267699e-05
0.00045092029
0.001291345
-0.00010090939
0.00073656422
0.0012466798
-0.00012519469
0.0010060272
0.0010928639
-0.00012849755
0.0011663772
0.00090078915
-0.00010971056
0.0011771763
-7.8572876e-05
0.0010658682
0.00071991932
0.00029189212
-2.6603188e-06
2.0736832e-05
0.0006261542
-1.1010473e-05
9.4651752e-05
0.00095637817
-2.5560831e-05
0.00023942825
0.0012095159
-4.5365317e-05
0.00047249256
0.0013173886
-6.7784901e-05
0.00076825807
0.0012652821
-8.3666488e-05
0.001044425
0.0011037439
-8.5296628e-05
0.0012058501
0.0009058819
-7.2216264e-05
0.0012130132
-5.1021131e-05
0.0010956397
0.00072164526
0.00029850546
-1.3737302e-06
2.1594703e-05
0.00063917911
-5.6272703e-06
9.8232085e-05
0.00097400805
-1.2979665e-05
0.0002477363
0.0012283077
-2.2914656e-05
0.00048734547
0.0013334351
-3.4107342e-05
0.00078973764
0.0012762626
-4.1937107e-05
0.0010701055
0.0011097335
-4.2562388e-05
0.0012319724
0.00090833481
-3.5835485e-05
0.0012365251
-2.5083562e-05
0.0011150108
0.00072228444
0.00030182497
-1.0272481e-11
2.198856e-05
0.00064572648
-5.2885701e-11
9.9917444e-05
0.00098289494
-1.175638e-10
0.00025173099
0.0012378085
-1.0396861e-10
0.00049461927
0.0013415536
-2.4936544e-10
0.00080040527
0.0012817821
-3.7926844e-10
0.001082965
0.0011126679
-5.231844e-10
0.0012450995
0.00090942966
-8.5840653e-10
0.0012483506
-1.1151017e-09
0.0011247534
0.00072244675
0.00030182495
1.373756e-06
2.1988556e-05
0.00064572665
5.627268e-06
9.991743e-05
0.0009828951
1.297953e-05
0.00025173096
0.0012378083
2.2914481e-05
0.00049461921
0.0013415534
3.4106812e-05
0.00080040517
0.001281782
4.1936168e-05
0.0010829649
0.0011126677
4.2560946e-05
0.0012450994
0.00090942946
3.5833496e-05
0.0012483505
2.5081357e-05
0.0011247534
0.00072244661
0.00029850522
2.6603597e-06
2.1594702e-05
0.00063917926
1.1010463e-05
9.8232081e-05
0.00097400838
2.5560673e-05
0.00024773629
0.0012283074
4.5365146e-05
0.00048734545
0.001333435
6.7784423e-05
0.0007897376
0.0012762626
8.366536e-05
0.0010701054
0.0011097333
8.529469e-05
0.0012319723
0.00090833444
7.2214055e-05
0.001236525
5.1019141e-05
0.0011150107
0.00072228419
0.00029189145
3.8945784e-06
2.0736825e-05
0.00062615375
1.6172789e-05
9.4651721e-05
0.0009563781
3.7714272e-05
0.00023942818
0.0012095155
6.7267844e-05
0.00047249242
0.0013173882
0.00010090931
0.0007682579
0.0012652818
0.0001251937
0.0010444248
0.0011037434
0.00012849582
0.0012058499
0.00090588149
0.00010970869
0.0012130129
7.8571033e-05
0.0010956396
0.00072164509
0.00028196557
5.0215336e-06
1.9560779e-05
0.00060635495
2.0989123e-05
8.9641895e-05
0.00092914968
4.9225097e-05
0.00022758194
0.0011798873
8.8365796e-05
0.00045092022
0.0012913445
0.00013321543
0.00073656414
0.0012466794
0.00016634688
0.001006027
0.0010928634
0.00017220003
0.001166377
0.00090078879
0.00014857188
0.0011771761
0.00010813119
0.0010658681
0.00071991901
0.00026896053
5.9844054e-06
1.8060328e-05
0.0005803603
2.5253935e-05
8.3228617e-05
0.00089326364
5.9700563e-05
0.00021236247
0.0011405737
0.00010812869
0.00042307653
0.001256389
0.00016411651
0.00069540488
0.001221194
0.00020664365
0.00095583007
0.0010773482
0.00021615748
0.0011144177
0.00089286037
0.00018878286
0.0011296359
0.00013974563
0.0010260047
0.00071667226
0.00025301796
6.7660807e-06
1.6285004e-05
0.00054832809
2.8853088e-05
7.5598727e-05
0.0008487551
6.8825814e-05
0.00019416538
0.0010914021
0.00012597027
0.00038959694
0.0012121462
0.00019277754
0.00064556118
0.0011883429
0.00024516899
0.00089457747
0.0010567107
0.00025957908
0.0010505174
0.00088160947
0.00022979161
0.0010706966
0.00017294754
0.00097602806
0.00071154307
0.00023434624
7.3467333e-06
1.4316035e-05
0.0005105513
3.1644286e-05
6.7061731e-05
0.00079581642
7.6178292e-05
0.00017363231
0.0010323192
0.00014103253
0.00035145712
0.0011583242
0.00021790896
0.00058812842
0.0011477676
0.00028041015
0.00082317142
0.00103072
0.00030104046
0.00097516267
0.00086691826
0.00027051575
0.001000465
0.00020691882
0.00091565827
0.00070449507
0.00021320158
7.6540825e-06
1.2279283e-05
0.0004673836
3.3346793e-05
5.8077871e-05
0.00073462899
8.1089118e-05
0.00015167615
0.00096309008
0.00015207128
0.00030997803
0.0010942869
0.00023766602
0.00052451104
0.0010987726
0.0003101062
0.00074267334
0.00099898875
0.00033825255
0.00088886201
0.000848842
0.0003091918
0.00091879855
0.000240484
0.00084425801
0.00069592798
0.00019031929
7.586854e-06
1.0234658e-05
0.00042041911
3.3555428e-05
4.8929635e-05
0.00066757391
8.2671226e-05
0.00012901032
0.00088656499
0.00015755508
0.00026648231
0.0010229023
0.00024996159
0.00045653146
0.0010439266
0.00033188229
0.00065497548
0.00096367983
0.00036899025
0.00079308283
0.00082918183
0.00034435107
0.00082637344
0.00027303616
0.00076169523
0.00068728517
0.00016593356
7.2301424e-06
8.2405964e-06
0.00036971757
3.2410936e-05
3.987331e-05
0.00059407277
8.0838353e-05
0.00010624956
0.0008012622
0.0001566451
0.00022206982
0.00094192969
0.00025288496
0.00038568256
0.0009809862
0.00034279956
0.00056144137
0.00092349087
0.00038997383
0.00068848143
0.00080801316
0.00037346815
0.00072307672
0.00030337632
0.00066729477
0.00067980873
0.00014078073
6.5222934e-06
6.4208207e-06
0.00031685341
2.9673521e-05
3.1396536e-05
0.00051620393
7.5137406e-05
8.4445288e-05
0.00070882973
0.00014862216
0.0001784406
0.00085178244
0.00024512521
0.00031406869
0.00090946052
0.00034036125
0.00046388661
0.00087851573
0.00039749812
0.00057592003
0.00078737818
0.00039278552
0.00060873641
0.00033002047
0.00056027371
0.00067666243
0.00011563498
4.7440883e-06
5.5636926e-06
0.0002630715
2.3441193e-05
2.591186e-05
0.00043503292
6.3627919e-05
6.6843677e-05
0.00060975196
0.00013590923
0.00013496236
0.0007523988
0.00024233889
0.0002274486
0.00082940458
0.00036284951
0.0003236414
0.00083045335
0.00045514226
0.00038847296
0.00077378163
0.00048218576
0.00039646549
0.0004393488
0.00035346525
0.00068464679
2.6852613e-06
2.6468694e-06
1.912971e-06
-2.5010127e-06
1.3926731e-05
8.7499448e-06
1.2097749e-05
-8.6479512e-06
3.9691376e-05
1.1613445e-05
3.9459396e-05
-1.3209518e-05
8.5401349e-05
-4.3950302e-06
9.8273514e-05
-3.6792305e-06
0.00015099847
-6.1494516e-05
0.00019844685
3.9789281e-05
0.00022649038
-0.0001680686
0.00032678303
0.00012864304
0.00029369717
-0.00029166422
0.00043840744
0.00024119222
0.00034071186
-0.00037823183
0.00048449754
0.00032890514
-0.00039414214
0.00045033816
0.00035634826
0.00036751629
3.6643868e-06
3.0249e-06
2.378406e-06
1.9017301e-05
9.4042478e-06
1.5389356e-05
5.3823762e-05
1.0518015e-05
5.073426e-05
0.00011332754
-1.2151232e-05
0.00012669288
0.00019255736
-8.1439375e-05
0.00025478358
0.00027297967
-0.00020054759
0.00041594323
0.00033157761
-0.00032782902
0.0005534862
0.00035948244
-0.00040795334
0.00061055287
-0.00041297578
0.00057358524
0.00036500427
5.0759085e-06
3.3904592e-06
2.7991506e-06
2.5687177e-05
1.0130911e-05
1.8535334e-05
7.0791626e-05
9.9204524e-06
6.1742365e-05
0.00014423222
-1.8083132e-05
0.00015456081
0.00023499
-9.5943981e-05
0.00030942963
0.00031684973
-0.00022119033
0.0005002242
0.00036451328
-0.0003456573
0.00065864649
0.00037417277
-0.00041682352
0.00072228704
-0.00041376803
0.00068103683
0.00036122334
6.7524286e-06
3.5941153e-06
3.2785686e-06
3.3481177e-05
1.0426589e-05
2.1905279e-05
9.0107094e-05
9.1435224e-06
7.3161502e-05
0.0001779712
-2.2213016e-05
0.00018274838
0.00027905514
-0.00010375982
0.000363263
0.0003604696
-0.0002283754
0.00058074558
0.00039721764
-0.00034504202
0.00075571971
0.00039098161
-0.00040636022
0.00082214605
-0.00039816669
0.00077476641
0.00036230925
8.4660376e-06
3.6313119e-06
3.7758791e-06
4.1342651e-05
1.0313823e-05
2.5313508e-05
0.00010934377
8.2858922e-06
8.4532363e-05
0.00021102136
-2.433025e-05
0.00021041855
0.0003214593
-0.00010484883
0.00041516212
0.0004020704
-0.00022296066
0.00065664792
0.00042954451
-0.00032846721
0.00084481355
0.00041084754
-0.00038011534
0.00091125032
-0.00036949145
0.0008562418
0.00037018878
1.0144284e-05
3.505855e-06
4.2972069e-06
4.8983152e-05
9.7904566e-06
2.8746376e-05
0.00012785751
7.3153624e-06
9.5728607e-05
0.00024240205
-2.4607351e-05
0.00023718922
0.00036133579
-0.0001001307
0.00046447662
0.0004417006
-0.00020735349
0.00072719937
0.00046210246
-0.00029948381
0.00092577791
0.0004340182
-0.0003418465
0.00099028031
-0.00033075994
0.00092664345
0.00038430162
1.1728885e-05
3.206093e-06
4.8555859e-06
5.6097428e-05
8.8312505e-06
3.2189398e-05
0.00014482705
6.2037189e-06
0.00010654852
0.0002706484
-2.3227844e-05
0.00026239592
0.00039673028
-9.0549688e-05
0.00050989833
0.00047692165
-0.00018377594
0.00079080835
0.00049187644
-0.00026127178
0.00099735072
0.00045709652
-0.00029518439
0.0010588142
-0.00028496069
0.00098639165
0.00040093364
1.3130474e-05
2.7518388e-06
5.384035e-06
6.2329797e-05
7.4959981e-06
3.5364421e-05
0.00015954078
4.9916224e-06
0.00011636427
0.00029483245
-2.0421025e-05
0.00028497848
0.00042667485
-7.7045374e-05
0.0005500586
0.00050645255
-0.00015400178
0.00084627819
0.00051716054
-0.00021646951
0.0010589073
0.00047751211
-0.00024286895
0.0011169688
-0.00023384207
0.0010362274
0.00041617096
1.4295736e-05
2.1723034e-06
5.8448239e-06
6.7468333e-05
5.8690861e-06
3.8096094e-05
0.00017155783
3.7435075e-06
0.00012474055
0.00031432745
-1.6407111e-05
0.00030413684
0.00045049021
-6.0455855e-05
0.00058381196
0.00052962323
-0.00011956467
0.00089245689
0.00053677196
-0.00016689078
0.0011096496
0.00049286138
-0.00018624141
0.0011644594
-0.0001784198
0.0010763842
0.00042692354
1.5185311e-05
1.50601e-06
6.2180858e-06
7.1374869e-05
4.0451403e-06
4.0286129e-05
0.00018064122
2.5000332e-06
0.00013140546
0.00032891115
-1.1464824e-05
0.00031928058
0.00046804759
-4.1586187e-05
0.00061025188
0.00054627111
-8.1662799e-05
0.00092829959
0.00055000779
-0.00011346306
0.001148686
0.00050219031
-0.00012612158
0.0012007112
-0.00012026288
0.0011066978
0.00043297589
1.5806914e-05
7.5938469e-07
6.5344766e-06
7.4065106e-05
2.0200862e-06
4.1998935e-05
0.00018677506
1.1760217e-06
0.00013635058
0.00033854485
-5.9813447e-06
0.00033009262
0.00047937139
-2.1255313e-05
0.0006285805
0.00055662887
-4.1453858e-05
0.00095263943
0.00055770275
-5.737708e-05
0.0011748131
0.00050694944
-6.3586465e-05
0.0012247438
-6.0436676e-05
0.001126602
0.00043553232
1.6089418e-05
8.6805497e-12
6.6585473e-06
7.5284976e-05
2.5905376e-11
4.274208e-05
0.00018956003
3.0124613e-11
0.00013863219
0.00034290614
-2.2088194e-11
0.0003352922
0.00048443977
-2.1144918e-10
0.0006376171
0.00056114758
-4.58659e-10
0.00096480439
0.00056090433
-6.9463782e-10
0.0011879668
0.00050877447
-9.446655e-10
0.0012368952
-1.0164706e-09
0.0011366808
0.00043641149
1.6089437e-05
-7.5934948e-07
6.6585459e-06
7.5285036e-05
-2.0199982e-06
4.2742073e-05
0.00018956009
-1.1759089e-06
0.00013863217
0.00034290613
5.9813831e-06
0.00033529215
0.00048443974
2.1254941e-05
0.00063761701
0.0005611475
4.1452838e-05
0.00096480427
0.00056090416
5.7375468e-05
0.0011879667
0.00050877428
6.3584433e-05
0.0012368951
6.0434705e-05
0.0011366807
0.00043641129
1.5806886e-05
-1.5059586e-06
6.5344755e-06
7.4065217e-05
-4.0450424e-06
4.1998929e-05
0.00018677522
-2.4999092e-06
0.00013635057
0.00033854487
1.1464938e-05
0.00033009258
0.00047937142
4.1585881e-05
0.00062858044
0.00055662879
8.1661634e-05
0.00095263933
0.00055770243
0.00011346117
0.001174813
0.00050694901
0.00012611946
0.0012247436
0.00012026115
0.0011266019
0.00043553184
1.518508e-05
-2.1722726e-06
6.2180823e-06
7.137478e-05
-5.8690654e-06
4.0286111e-05
0.00018064122
-3.743409e-06
0.00013140541
0.00032891092
1.6407335e-05
0.00031928047
0.00046804731
6.045569e-05
0.00061025169
0.00054627075
0.00011956358
0.00092829933
0.0005500073
0.00016688901
0.0011486857
0.00050218979
0.00018623949
0.0012007109
0.00017841818
0.0011066976
0.00043297548
1.4295515e-05
-2.7518243e-06
5.8448209e-06
6.74683e-05
-7.4960007e-06
3.8096079e-05
0.00017155778
-4.9914055e-06
0.00012474051
0.00031432715
2.0421464e-05
0.00030413675
0.00045048971
7.704542e-05
0.00058381183
0.00052962271
0.00015400104
0.00089245669
0.00053677146
0.00021646831
0.0011096494
0.00049286093
0.00024286742
0.0011644591
0.00023384019
0.001076384
0.00042692325
1.3130531e-05
-3.2060654e-06
5.3840326e-06
6.2329988e-05
-8.8312191e-06
3.536441e-05
0.00015954039
-6.2035145e-06
0.00011636425
0.00029483192
2.3228172e-05
0.00028497843
0.00042667422
9.0549704e-05
0.00055005853
0.00050645206
0.00018377555
0.00084627807
0.00051716007
0.00026127107
0.0010589072
0.0004775117
0.00029518315
0.0011169685
0.00028495863
0.0010362272
0.00041617046
1.1729145e-05
-3.5057917e-06
4.855584e-06
5.6097666e-05
-9.7903479e-06
3.2189389e-05
0.00014482639
-7.315256e-06
0.00010654851
0.00027064815
2.460762e-05
0.00026239588
0.00039673004
0.00010013082
0.00050989829
0.00047692141
0.00020735339
0.00079080831
0.00049187586
0.00029948316
0.00099735067
0.00045709592
0.00034184542
0.0010588141
0.00033075836
0.00098639148
0.00040093283
1.0144311e-05
-3.6312614e-06
4.2972062e-06
4.8983112e-05
-1.0313681e-05
2.8746375e-05
0.00012785739
-8.2856585e-06
9.5728612e-05
0.00024240227
2.4330774e-05
0.00023718924
0.00036133575
0.00010484913
0.00046447667
0.00044170032
0.00022296073
0.00072719943
0.00046210155
0.00032846652
0.00092577798
0.0004340174
0.00038011445
0.0009902803
0.00036949056
0.00092664333
0.0003843008
8.4661546e-06
-3.5940177e-06
3.7758782e-06
4.1343176e-05
-1.0426318e-05
2.5313505e-05
0.00010934438
-9.1431175e-06
8.4532354e-05
0.0002110211
2.2213389e-05
0.00021041853
0.00032145902
0.00010376004
0.00041516209
0.00040206981
0.00022837532
0.00065664786
0.00042954336
0.00034504145
0.00084481352
0.00041084694
0.00040635934
0.00091125027
0.00039816605
0.00085624169
0.00037018792
6.7524524e-06
-3.3903999e-06
3.278568e-06
3.3481265e-05
-1.0130774e-05
2.1905275e-05
9.0107113e-05
-9.9201729e-06
7.3161488e-05
0.00017797091
1.8083509e-05
0.00018274835
0.00027905507
9.5944449e-05
0.00036326292
0.00036046957
0.00022119069
0.00058074547
0.00039721698
0.0003456571
0.00075571963
0.00039098132
0.00041682247
0.000822146
0.00041376701
0.00077476635
0.00036230837
5.0758483e-06
-3.0248448e-06
2.7991504e-06
2.5687099e-05
-9.4040896e-06
1.8535331e-05
7.0791786e-05
-1.0517676e-05
6.1742352e-05
0.00014423265
1.2151643e-05
0.00015456077
0.00023499031
8.1439578e-05
0.00030942956
0.00031685002
0.0002005479
0.00050022411
0.00036451267
0.0003278296
0.00065864639
0.00037417166
0.00040795326
0.000722287
0.00041297478
0.0006810368
0.00036122274
3.6644012e-06
-2.6468444e-06
2.3784071e-06
1.9017372e-05
-8.7498786e-06
1.538936e-05
5.3824064e-05
-1.1613356e-05
5.0734266e-05
0.00011332815
4.3949694e-06
0.00012669289
0.00019255815
6.1494085e-05
0.00025478359
0.00027298093
0.00016806831
0.00041594323
0.00033157959
0.00029166513
0.00055348618
0.00035948397
0.00037823142
0.00061055289
0.00039414171
0.00057358527
0.00036500543
2.6853197e-06
1.912973e-06
-2.5010378e-06
1.3926967e-05
1.2097757e-05
-8.6480619e-06
3.9691874e-05
3.9459417e-05
-1.320981e-05
8.5402125e-05
9.827355e-05
-3.6799298e-06
0.0001510003
0.0001984469
3.9788037e-05
0.00022649369
0.00032678308
0.00012864184
0.00029370068
0.0004384075
0.00024119175
0.0003407153
0.00048449759
0.00032890485
0.00045033821
0.00035634939
0.00036751763
6.1702171e-07
2.301022e-07
1.7148832e-06
-6.4903608e-07
3.4500658e-06
3.2415609e-07
1.1076499e-05
-2.13596e-06
1.0668543e-05
-1.8816143e-06
3.6808459e-05
-2.6859505e-06
2.5402455e-05
-1.2533658e-05
9.3266728e-05
2.8064966e-06
5.1351256e-05
-4.4612039e-05
0.00019146394
2.5646103e-05
9.0464896e-05
-0.00011301853
0.00032069485
7.9993063e-05
0.00013950325
-0.0002127697
0.00043677672
0.00016536216
0.00018974242
-0.00029954957
0.00048767434
0.00024613383
-0.00033025225
0.00045556775
0.0002844958
0.00023026941
7.8584512e-07
-1.271578e-07
1.9498165e-06
4.6106585e-06
-1.3810558e-06
1.3269731e-05
1.4518637e-05
-6.3658956e-06
4.5310483e-05
3.4372996e-05
-2.2135774e-05
0.00011644049
6.7169131e-05
-6.2812353e-05
0.00024018758
0.00011127333
-0.00014304029
0.00040186074
0.00015867002
-0.00025251557
0.00054583549
0.00019949085
-0.00033998052
0.00061016305
-0.0003630271
0.00057706662
0.000228784
1.0083226e-06
-4.1986256e-07
2.0835168e-06
5.9029139e-06
-2.775091e-06
1.503475e-05
1.8546354e-05
-1.0064838e-05
5.2797794e-05
4.346813e-05
-3.007663e-05
0.00013757978
8.2665257e-05
-7.7602879e-05
0.00028502291
0.00013038726
-0.00016630087
0.00047576272
0.00017393955
-0.00028024592
0.00064282467
0.00020368287
-0.00036398614
0.0007165493
-0.00037866708
0.00068122612
0.00021913343
1.2541534e-06
-6.3207051e-07
2.2365789e-06
7.3415284e-06
-3.7884692e-06
1.6831162e-05
2.2957748e-05
-1.2717982e-05
6.0198201e-05
5.3182562e-05
-3.5634584e-05
0.00015808128
9.8678371e-05
-8.7547365e-05
0.00032771144
0.00014925794
-0.00018068323
0.00054454829
0.00018807653
-0.0002939074
0.00073056272
0.00020688978
-0.00037076264
0.00081010922
-0.00037764434
0.0007708455
0.00020978787
1.4771224e-06
-7.2616523e-07
2.3928232e-06
8.6959477e-06
-4.280503e-06
1.8586631e-05
2.7213082e-05
-1.4041007e-05
6.7338102e-05
6.2657635e-05
-3.8337322e-05
0.00017767661
0.00011419643
-9.1998351e-05
0.00036807414
0.0001670742
-0.00018537191
0.00060845869
0.00020121894
-0.00029334244
0.00081010384
0.00021052781
-0.00036146157
0.00089264021
-0.00036204956
0.00084786629
0.00020330855
1.7475289e-06
-7.5199098e-07
2.5754638e-06
1.0256021e-05
-4.4169958e-06
2.0374291e-05
3.1970964e-05
-1.4352113e-05
7.4324734e-05
7.3027886e-05
-3.8664336e-05
0.00019645931
0.00013066763
-9.1355301e-05
0.00040619386
0.00018521386
-0.00018036572
0.00066764686
0.00021462726
-0.00027896807
0.00088199012
0.00021551207
-0.00033730756
0.00096524129
-0.00033332216
0.00091369622
0.00019973188
2.0155297e-06
-7.2172353e-07
2.8097597e-06
1.1781904e-05
-4.2435852e-06
2.224956e-05
3.6551694e-05
-1.3727659e-05
8.1154306e-05
8.2786905e-05
-3.667209e-05
0.00021416835
0.00014563213
-8.5592225e-05
0.00044129005
0.00020106612
-0.00016600595
0.00072101447
0.0002261115
-0.00025207066
0.0009454078
0.00022002666
-0.00030020208
0.0010277934
-0.00029341197
0.00096893209
0.00019757597
2.2580328e-06
-6.4138437e-07
3.045657e-06
1.3155065e-05
-3.7851817e-06
2.4008954e-05
4.0646501e-05
-1.222823e-05
8.7373562e-05
9.1420049e-05
-3.2493919e-05
0.00023002676
0.00015860554
-7.5072758e-05
0.00047235368
0.00021463137
-0.00014340875
0.00076765496
0.00023581091
-0.00021436205
0.0010000189
0.00022407255
-0.00025212202
0.0010806269
-0.00024454838
0.0010145034
0.00019693301
2.4646054e-06
-5.180609e-07
3.2569318e-06
1.4318279e-05
-3.0738757e-06
2.5531082e-05
4.4092908e-05
-9.9390506e-06
9.267685e-05
9.8617331e-05
-2.6328627e-05
0.00024344707
0.00016920251
-6.0342556e-05
0.00049849658
0.00022550057
-0.00011384576
0.00080659563
0.00024358994
-0.00016791375
0.0010451118
0.00022799332
-0.00019568242
0.0011236164
-0.00018913462
0.0010508782
0.00019808569
2.629181e-06
-3.6240764e-07
3.4332646e-06
1.5240959e-05
-2.163312e-06
2.6763759e-05
4.6808882e-05
-7.0096807e-06
9.6908297e-05
0.00010424123
-1.8542567e-05
0.00025406215
0.00017736482
-4.2244889e-05
0.00051903063
0.00023384568
-7.8946439e-05
0.00083691932
0.00025003836
-0.00011528063
0.0010798602
0.00023215946
-0.00013345596
0.0011563637
-0.00012869694
0.0010781564
0.00020026326
2.7574436e-06
-1.8977797e-07
3.604403e-06
1.593379e-05
-1.1277222e-06
2.7787e-05
4.8783532e-05
-3.6415516e-06
0.00010013287
0.00010819781
-9.6008957e-06
0.00026173672
0.00018292584
-2.1761427e-05
0.0005333691
0.00023941053
-4.0396769e-05
0.00085760514
0.00025439992
-5.8615715e-05
0.0011031589
0.00023524797
-6.758603e-05
0.0011780259
-6.5088209e-05
0.0010959661
0.00020227527
2.8083944e-06
1.1749185e-11
3.6603908e-06
1.6227831e-05
3.2037871e-11
2.8194931e-05
4.9659379e-05
5.0424403e-11
0.00010155918
0.00010999226
-1.0619465e-11
0.00026535857
0.00018545276
-2.2685491e-10
0.00054039557
0.00024191381
-5.8883298e-10
0.00086794732
0.00025635059
-9.1519748e-10
0.0011149154
0.00023666671
-1.0559304e-09
0.0011889941
-9.5279661e-10
0.0011049821
0.00020327813
2.8083967e-06
1.8980737e-07
3.66039e-06
1.6227828e-05
1.1278e-06
2.8194926e-05
4.9659321e-05
3.6416779e-06
0.00010155917
0.00010999219
9.6009115e-06
0.00026535853
0.00018545265
2.1760989e-05
0.0005403955
0.00024191365
4.0395552e-05
0.00086794721
0.00025635038
5.8613809e-05
0.0011149153
0.00023666648
6.7583869e-05
0.001188994
6.508634e-05
0.001104982
0.00020327786
2.7574599e-06
3.6244341e-07
3.6044023e-06
1.5933838e-05
2.1634076e-06
2.7786997e-05
4.878348e-05
7.0098487e-06
0.00010013286
0.00010819775
1.8542656e-05
0.0002617367
0.00018292566
4.2244501e-05
0.00053336906
0.00023941021
7.8945205e-05
0.00085760506
0.00025439943
0.00011527867
0.0011031588
0.00023524738
0.00013345379
0.0011780257
0.00012869519
0.0010959659
0.00020227457
2.6291676e-06
5.181062e-07
3.4332628e-06
1.524097e-05
3.0740057e-06
2.6763748e-05
4.6808738e-05
9.9392742e-06
9.6908266e-05
0.00010424101
2.6328788e-05
0.00025406207
0.00017736437
6.0342241e-05
0.00051903049
0.00023384505
0.00011384461
0.00083691911
0.00025003755
0.00016791188
0.0010798599
0.00023215852
0.00019568035
0.0011563635
0.00018913295
0.0010781562
0.00020026226
2.4645657e-06
6.4143585e-07
3.2569304e-06
1.4318244e-05
3.7853442e-06
2.5531075e-05
4.4092678e-05
1.2228505e-05
9.2676829e-05
9.8616966e-05
3.2494157e-05
0.00024344702
0.00016920185
7.5072589e-05
0.00049849649
0.0002254997
0.00014340788
0.00080659548
0.00024358887
0.00021436051
0.0010451116
0.00022799206
0.00025212019
0.0011236161
0.00024454675
0.0010508779
0.00019808433
2.2580265e-06
7.2178219e-07
3.0456562e-06
1.315506e-05
4.2437639e-06
2.400895e-05
4.0646259e-05
1.372797e-05
8.7373553e-05
9.1419624e-05
3.6672433e-05
0.00023002674
0.00015860478
8.5592265e-05
0.00047235365
0.00021463039
0.00016600541
0.0007676549
0.00023580967
0.00025206953
0.0010000188
0.00022407105
0.00030020059
0.0010806267
0.00029341047
0.0010145032
0.00019693127
2.0155419e-06
7.5205857e-07
2.8097594e-06
1.1781927e-05
4.4172016e-06
2.224956e-05
3.6551554e-05
1.4352515e-05
8.1154309e-05
8.2786609e-05
3.866486e-05
0.00021416836
0.00014563146
9.135555e-05
0.00044129007
0.00020106517
0.0001803654
0.00072101449
0.00022611019
0.00027896724
0.00094540778
0.00022002503
0.00033730645
0.0010277933
0.00033332101
0.00096893193
0.00019757403
1.7475476e-06
7.2625053e-07
2.5754645e-06
1.0256077e-05
4.280751e-06
2.0374297e-05
3.1970949e-05
1.4041465e-05
7.4324753e-05
7.3027687e-05
3.8337895e-05
0.00019645936
0.00013066712
9.1998644e-05
0.00040619394
0.00018521308
0.00018537165
0.00066764697
0.00021462609
0.00029334176
0.00088199021
0.00021551057
0.00036146087
0.00096524128
0.00036204881
0.00091369611
0.0001997301
1.4771317e-06
6.321645e-07
2.3928233e-06
8.6959922e-06
3.7887426e-06
1.8586632e-05
2.7213138e-05
1.271849e-05
6.7338105e-05
6.2657562e-05
3.5635235e-05
0.00017767662
0.00011419618
8.754777e-05
0.00036807414
0.00016707369
0.00018068312
0.00060845868
0.00020121807
0.0002939069
0.0008101038
0.00021052668
0.00037076235
0.00089264014
0.00037764383
0.00084786618
0.00020330716
1.2541803e-06
4.1995248e-07
2.2365785e-06
7.3416353e-06
2.7753498e-06
1.6831158e-05
2.2957953e-05
1.0065342e-05
6.0198191e-05
5.3182806e-05
3.0077284e-05
0.00015808125
9.8678583e-05
7.7603298e-05
0.00032771138
0.00014925792
0.00016630079
0.00054454819
0.00018807617
0.00028024549
0.00073056262
0.00020688923
0.00036398609
0.00081010913
0.00037866694
0.00077084543
0.00020978704
1.008351e-06
1.2721907e-07
2.0835156e-06
5.9030399e-06
1.3812251e-06
1.5034743e-05
1.8546693e-05
6.3662202e-06
5.2797774e-05
4.3468769e-05
2.2136161e-05
0.00013757973
8.2666148e-05
6.2812479e-05
0.00028502281
0.00013038818
0.00014304008
0.00047576258
0.00017394
0.00025251552
0.00064282452
0.00020368268
0.00033998118
0.00071654922
0.00036302737
0.0006812261
0.00021913299
7.8588311e-07
-2.3008481e-07
1.9498156e-06
4.6108428e-06
-3.2412742e-07
1.3269726e-05
1.4519146e-05
1.8816338e-06
4.5310471e-05
3.4374024e-05
1.2533528e-05
0.00011644046
6.7170838e-05
4.4611512e-05
0.00024018752
0.0001112756
0.00011301783
0.00040186066
0.00015867221
0.00021276972
0.00054583541
0.00019949263
0.00029955062
0.00061016305
0.00033025323
0.00057706668
0.00022878515
6.1705421e-07
1.7148833e-06
-6.4904701e-07
3.4501988e-06
1.10765e-05
-2.1360133e-06
1.0668844e-05
3.6808461e-05
-2.686093e-06
2.5402983e-05
9.3266729e-05
2.8061269e-06
5.1352212e-05
0.00019146393
2.5645313e-05
9.0466574e-05
0.00032069484
7.999189e-05
0.000139506
0.00043677672
0.0001653609
0.00018974658
0.0004876744
0.00024613307
0.00045556784
0.00028449766
0.00023027233
-2.3455074e-07
3.28932e-07
1.9763443e-06
-3.5584291e-07
-1.1640906e-06
7.6190398e-07
1.2248678e-05
-1.0045599e-06
-2.7869814e-06
-4.0168428e-07
3.9564977e-05
-7.3198846e-07
-3.6306381e-06
-7.5206899e-06
9.8052602e-05
3.5784191e-06
4.771335e-07
-2.9054923e-05
0.00019811337
1.8297678e-05
1.5548302e-05
-7.4316422e-05
0.00032860389
5.1336201e-05
4.418964e-05
-0.00013913147
0.00044552432
0.0001017426
8.078631e-05
-0.00019978539
0.00049694268
0.00015392059
-0.00022937764
0.00046399243
0.00018586275
0.00011587664
-2.597125e-07
3.3155078e-07
2.2069016e-06
-1.1741852e-06
5.4032355e-07
1.4405748e-05
-2.4823027e-06
-1.6465081e-06
4.7863359e-05
-2.1975795e-06
-1.1832358e-05
0.00012046736
4.2865828e-06
-4.030728e-05
0.00024495571
2.2402188e-05
-9.7156002e-05
0.00040658473
5.2214177e-05
-0.00017387519
0.00055076741
8.6205919e-05
-0.00023961887
0.0006160049
-0.00026628632
0.000583061
0.00011712008
-2.0327931e-07
3.0714358e-07
2.3111866e-06
-8.7261851e-07
2.3211575e-07
1.6012267e-05
-1.4795549e-06
-3.0437745e-06
5.480197e-05
4.771652e-07
-1.6278649e-05
0.0001400693
9.9562536e-06
-5.1244429e-05
0.00028648086
3.1094431e-05
-0.00011776327
0.00047523186
6.1021762e-05
-0.00020250662
0.00064152887
9.1005643e-05
-0.00026961527
0.0007165619
-0.00029109752
0.00068260224
0.00011444063
-8.7611527e-08
2.1706447e-07
2.4142475e-06
-2.7362612e-07
-2.9937456e-07
1.7548605e-05
2.9506421e-07
-4.7819437e-06
6.1367564e-05
4.5522379e-06
-2.0852148e-05
0.00015839749
1.7616039e-05
-6.1317015e-05
0.00032472021
4.1577555e-05
-0.00013424562
0.00053706926