/*--------------------------------*- C++ -*----------------------------------*\
| =========                 |                                                 |
| \\      /  F ield         | OpenFOAM: The Open Source CFD Toolbox           |
|  \\    /   O peration     | Version:  2406                                  |
|   \\  /    A nd           | Website:  www.openfoam.com                      |
|    \\/     M anipulation  |                                                 |
\*---------------------------------------------------------------------------*/
FoamFile
{
    version     2.0;
    format      ascii;
    arch        "LSB;label=32;scalar=64";
    class       volVectorField;
    location    "3";
    object      U;
}
// * * * * * * * * * * * * * * * * * * * * * * * * * * * * * * * * * * * * * //

dimensions      [0 1 -1 0 0 0 0];

internalField   nonuniform List<vector> 
34560
(
(0.043011777 0.0017385332 -0.010098487)
(0.14263186 0.0061943545 -0.033725373)
(0.27166862 0.011279587 -0.062875491)
(0.42755828 0.017578157 -0.096241134)
(0.6005276 0.023815645 -0.12889625)
(0.77395207 0.028788009 -0.15457498)
(0.92582068 0.031761396 -0.16807439)
(1.0405375 0.032792109 -0.16813778)
(1.1188323 0.033703031 -0.15810996)
(0.053380669 0.0016087617 -0.012247523)
(0.17424987 0.006011806 -0.040537619)
(0.32645127 0.011040348 -0.074422192)
(0.50370557 0.017422914 -0.11169442)
(0.69173557 0.0237313 -0.14603778)
(0.87082125 0.028696137 -0.17006561)
(1.0184678 0.031707322 -0.17892747)
(1.1224531 0.033122146 -0.1730407)
(1.1896184 0.034130788 -0.15626672)
(0.064021416 0.0016826728 -0.014017668)
(0.20601479 0.0063473995 -0.046242182)
(0.38022316 0.01153683 -0.08401852)
(0.57629888 0.017945687 -0.12437592)
(0.77581146 0.023986069 -0.15998173)
(0.95722572 0.028378973 -0.18256179)
(1.0988965 0.030718352 -0.1879184)
(1.1924705 0.031675981 -0.1779338)
(1.2497742 0.031946781 -0.15813046)
(0.075097057 0.0016224738 -0.015741486)
(0.23835931 0.0063164579 -0.051716041)
(0.43374374 0.011521353 -0.093011582)
(0.64668359 0.017869741 -0.13590586)
(0.85512921 0.023612026 -0.17226441)
(1.0367948 0.027480689 -0.19316887)
(1.1717356 0.029270982 -0.19537067)
(1.2555678 0.029893322 -0.18227947)
(1.3037481 0.029871621 -0.16032051)
(0.085987598 0.0015902939 -0.017268161)
(0.26975283 0.0062993984 -0.056600147)
(0.48498446 0.011464844 -0.10095032)
(0.71296916 0.01763384 -0.14593071)
(0.92859205 0.022973308 -0.18279083)
(1.1094598 0.026312297 -0.20206842)
(1.2376066 0.02765669 -0.20151138)
(1.3125364 0.028038489 -0.18594279)
(1.3523352 0.027828951 -0.16243628)
(0.096451673 0.0015178739 -0.018594153)
(0.29954243 0.0060732785 -0.060875375)
(0.53299363 0.01103734 -0.10785644)
(0.77417702 0.016856392 -0.15456442)
(0.99554388 0.021707388 -0.19176855)
(1.1750389 0.024548467 -0.20954272)
(1.2966798 0.025550991 -0.20659497)
(1.36359 0.025755118 -0.1890154)
(1.3958119 0.025459455 -0.16432052)
(0.10629902 0.0013908134 -0.019763337)
(0.32720022 0.0056246549 -0.064627232)
(0.57698478 0.010224435 -0.1138486)
(0.8294779 0.015538717 -0.16195577)
(1.0553564 0.019823815 -0.1993446)
(1.2331823 0.022185019 -0.21572963)
(1.348843 0.022908694 -0.21071642)
(1.4086001 0.022976916 -0.19148036)
(1.4340909 0.022665176 -0.1658428)
(0.11498859 0.0012043635 -0.020749688)
(0.35142799 0.0049378274 -0.067802841)
(0.6152485 0.0089946457 -0.11888538)
(0.877212 0.013632129 -0.16811841)
(1.1067356 0.017269158 -0.20559543)
(1.2830276 0.019170024 -0.22075261)
(1.3935746 0.019676713 -0.2139891)
(1.4471521 0.019665117 -0.19337847)
(1.4668444 0.019396108 -0.16696135)
(0.12220877 0.00098244404 -0.021539702)
(0.37145764 0.0040702143 -0.070364571)
(0.64673698 0.0074226406 -0.12293513)
(0.91630888 0.011217717 -0.17305472)
(1.1487734 0.014122586 -0.21055715)
(1.3238556 0.015572141 -0.22467575)
(1.4302985 0.015907768 -0.2164717)
(1.4787612 0.015858902 -0.19474357)
(1.4936808 0.015659802 -0.16769197)
(0.12779339 0.0007307698 -0.022129238)
(0.38689335 0.0030335339 -0.072291806)
(0.6709132 0.0055279537 -0.12598011)
(0.94620296 0.0083290961 -0.17676211)
(1.1809032 0.010434875 -0.21424448)
(1.3550921 0.01145338 -0.2275355)
(1.4584437 0.011667798 -0.21821093)
(1.5029481 0.011622191 -0.19562899)
(1.5142081 0.011501583 -0.1680975)
(0.13179888 0.00042830585 -0.022552364)
(0.39778815 0.0018145243 -0.073643557)
(0.68773531 0.0033338542 -0.12807787)
(0.96672811 0.0050487443 -0.17927987)
(1.2028042 0.0063355344 -0.21668056)
(1.3762801 0.0069578503 -0.22936275)
(1.4774885 0.0070936335 -0.21925832)
(1.519272 0.007076035 -0.19610582)
(1.5280522 0.0070244715 -0.16826437)
(0.13365227 0.00015327229 -0.022747924)
(0.40292488 0.00065498254 -0.074292048)
(0.69579218 0.0011960957 -0.12909143)
(0.97669406 0.0017947951 -0.18050197)
(1.2135619 0.0022259061 -0.21786579)
(1.3867874 0.0024156074 -0.23024603)
(1.4869971 0.0024363413 -0.2197503)
(1.5274467 0.0024093811 -0.19631421)
(1.5350012 0.0023785009 -0.16832333)
(0.13365227 -0.00015326778 -0.02274793)
(0.40292488 -0.00065500131 -0.074292066)
(0.6957922 -0.0011961562 -0.12909147)
(0.97669406 -0.0017948591 -0.180502)
(1.2135619 -0.002226039 -0.21786579)
(1.3867874 -0.0024157876 -0.23024604)
(1.4869972 -0.002436564 -0.21975029)
(1.5274467 -0.0024096811 -0.19631418)
(1.5350011 -0.0023788559 -0.16832329)
(0.13179888 -0.00042829131 -0.02255238)
(0.39778815 -0.0018145296 -0.073643534)
(0.68773532 -0.0033339031 -0.12807793)
(0.96672809 -0.005048797 -0.17927989)
(1.2028042 -0.0063356445 -0.21668055)
(1.37628 -0.0069580297 -0.22936276)
(1.4774885 -0.0070938953 -0.21925829)
(1.5192719 -0.0070763483 -0.19610573)
(1.5280521 -0.0070248018 -0.16826429)
(0.12779338 -0.00073077676 -0.022129266)
(0.38689332 -0.0030335344 -0.072291728)
(0.67091316 -0.0055279695 -0.12598019)
(0.94620289 -0.0083291158 -0.17676216)
(1.1809032 -0.010434938 -0.21424448)
(1.355092 -0.011453535 -0.22753549)
(1.4584436 -0.011668058 -0.21821085)
(1.5029481 -0.011622477 -0.19562888)
(1.514208 -0.011501873 -0.16809747)
(0.12220877 -0.00098244361 -0.021539745)
(0.37145763 -0.0040701641 -0.070364607)
(0.64673699 -0.0074225571 -0.12293529)
(0.91630888 -0.01121769 -0.17305479)
(1.1487735 -0.014122625 -0.21055715)
(1.3238555 -0.015572266 -0.22467568)
(1.4302984 -0.015907945 -0.21647159)
(1.478761 -0.015859109 -0.19474345)
(1.4936807 -0.015660054 -0.16769197)
(0.11498858 -0.0012043681 -0.020749676)
(0.351428 -0.0049378437 -0.067802888)
(0.61524851 -0.0089946081 -0.11888534)
(0.87721198 -0.013632175 -0.16811823)
(1.1067355 -0.017269251 -0.20559533)
(1.2830275 -0.01917013 -0.22075251)
(1.3935745 -0.019676775 -0.21398902)
(1.447152 -0.019665241 -0.19337834)
(1.4668444 -0.019396308 -0.16696125)
(0.10629902 -0.0013907982 -0.019763277)
(0.32720021 -0.0056247422 -0.064627319)
(0.57698477 -0.010224498 -0.11384844)
(0.82947781 -0.015538774 -0.16195557)
(1.0553563 -0.019823903 -0.19934465)
(1.2331823 -0.022185085 -0.21572969)
(1.348843 -0.022908723 -0.21071638)
(1.4086001 -0.022976995 -0.19148017)
(1.4340909 -0.022665309 -0.16584261)
(0.096451667 -0.0015178411 -0.018594153)
(0.29954241 -0.0060732517 -0.060875367)
(0.53299359 -0.011037325 -0.10785641)
(0.77417694 -0.016856288 -0.15456455)
(0.99554385 -0.021707391 -0.19176874)
(1.1750389 -0.02454845 -0.2095428)
(1.2966799 -0.025551043 -0.20659486)
(1.36359 -0.025755182 -0.18901516)
(1.3958118 -0.025459558 -0.16432035)
(0.085987593 -0.0015902628 -0.017268156)
(0.26975281 -0.0062994084 -0.056600235)
(0.48498444 -0.011464905 -0.10095056)
(0.71296915 -0.017633816 -0.14593085)
(0.92859198 -0.022973335 -0.18279084)
(1.1094597 -0.026312391 -0.20206839)
(1.2376066 -0.027656735 -0.20151116)
(1.3125364 -0.028038574 -0.1859425)
(1.3523351 -0.027829074 -0.16243601)
(0.075097055 -0.0016224462 -0.01574149)
(0.2383593 -0.0063164584 -0.05171612)
(0.43374372 -0.011521374 -0.093011665)
(0.64668355 -0.017869823 -0.13590587)
(0.85512913 -0.023612059 -0.17226441)
(1.0367947 -0.027480787 -0.19316886)
(1.1717356 -0.029270927 -0.19537052)
(1.2555679 -0.029893507 -0.182279)
(1.3037481 -0.029871883 -0.16032011)
(0.06402142 -0.0016826635 -0.014017692)
(0.20601481 -0.0063473897 -0.046242243)
(0.38022319 -0.011536825 -0.084018605)
(0.57629893 -0.017945743 -0.12437606)
(0.77581155 -0.023986106 -0.15998184)
(0.95722581 -0.028378989 -0.18256182)
(1.0988966 -0.03071832 -0.18791788)
(1.1924706 -0.031675786 -0.17793308)
(1.2497741 -0.031946716 -0.1581306)
(0.053380683 -0.0016087663 -0.012247529)
(0.17424991 -0.0060118344 -0.040537626)
(0.32645134 -0.011040375 -0.07442217)
(0.50370567 -0.017422954 -0.11169439)
(0.69173569 -0.023731416 -0.14603763)
(0.87082136 -0.028696283 -0.17006517)
(1.0184679 -0.031707426 -0.17892691)
(1.1224533 -0.03312151 -0.17304065)
(1.1896184 -0.03413015 -0.15626688)
(0.043011797 -0.0017385519 -0.010098461)
(0.14263193 -0.0061944235 -0.033725293)
(0.27166873 -0.011279684 -0.062875345)
(0.42755846 -0.017578225 -0.096240849)
(0.60052779 -0.023815697 -0.1288957)
(0.77395227 -0.028788171 -0.15457449)
(0.92582096 -0.031761562 -0.16807457)
(1.0405376 -0.032791793 -0.16813785)
(1.1188323 -0.033702586 -0.15811)
(0.015025816 0.001848669 0.0014657388)
(0.064141606 0.0049752871 0.0031195889)
(0.15024154 0.0073420415 0.0013460237)
(0.28468843 0.0072072588 -0.0066289282)
(0.46759439 0.0029615546 -0.022229161)
(0.6782654 -0.0055611788 -0.043454443)
(0.88170033 -0.016392423 -0.063848232)
(1.0483902 -0.026531752 -0.077735967)
(1.1594748 -0.033468493 -0.083574176)
(0.018036503 0.0019170139 0.0012564282)
(0.077055274 0.0048289602 0.0021468127)
(0.1797644 0.0064661002 -0.0013972122)
(0.33698473 0.00490945 -0.012412786)
(0.5431217 -0.001180477 -0.031588388)
(0.76765735 -0.011205102 -0.055335488)
(0.9702957 -0.02242653 -0.075472837)
(1.1257146 -0.031773491 -0.086719121)
(1.2251998 -0.037224937 -0.088749848)
(0.020911439 0.0022206016 0.0011779031)
(0.089440958 0.0054020284 0.0015756442)
(0.20806229 0.0068777321 -0.0034126307)
(0.38666999 0.0045905853 -0.016905176)
(0.61325925 -0.0024202407 -0.038624041)
(0.84738907 -0.012836494 -0.063652068)
(1.0454188 -0.023524749 -0.082753235)
(1.1882079 -0.031810773 -0.091543512)
(1.2774033 -0.036285085 -0.090952806)
(0.024160353 0.0023841458 0.00097063372)
(0.10273036 0.0056686263 0.00068974416)
(0.23738771 0.0069858225 -0.0058515268)
(0.43668162 0.0042418419 -0.021697854)
(0.68179743 -0.0031436464 -0.045411518)
(0.92294961 -0.013326629 -0.070986351)
(1.1147786 -0.023062948 -0.088630193)
(1.2448032 -0.030193032 -0.095189444)
(1.3239149 -0.033981223 -0.092653984)
(0.027469473 0.0024530248 0.00071930076)
(0.11602485 0.0057417837 -0.0002654256)
(0.26631718 0.006922174 -0.0082681914)
(0.48534695 0.0039555797 -0.026193608)
(0.74733663 -0.0033826047 -0.051425964)
(0.99403678 -0.012927906 -0.077187135)
(1.17949 -0.021528606 -0.093429737)
(1.2974343 -0.027503508 -0.098194132)
(1.3666644 -0.030640202 -0.094372226)
(0.0307958 0.0024270923 0.00042596195)
(0.12910885 0.0056263418 -0.0012783583)
(0.29433097 0.0066845794 -0.010605268)
(0.5317658 0.003709554 -0.030254863)
(0.80869597 -0.0032215524 -0.056472527)
(1.0597827 -0.011833567 -0.082106958)
(1.2394222 -0.019185691 -0.097275102)
(1.3465039 -0.024074456 -0.10070353)
(1.4064451 -0.026635639 -0.096185618)
(0.034185573 0.0022821607 0.00011990244)
(0.14197492 0.0052448189 -0.0022852074)
(0.32117185 0.0061547165 -0.012801431)
(0.57531332 0.0033371746 -0.033882942)
(0.86511118 -0.0029149061 -0.060750977)
(1.1195116 -0.010400936 -0.086101246)
(1.2939165 -0.016479306 -0.10036417)
(1.3916595 -0.020371967 -0.10280828)
(1.4433156 -0.022449921 -0.097931389)
(0.037292382 0.0020296115 -0.00017457837)
(0.1536319 0.0046334978 -0.0032158281)
(0.34526225 0.0053851772 -0.014735987)
(0.6140657 0.0028710652 -0.036940567)
(0.91478834 -0.0025023899 -0.064200968)
(1.1718122 -0.0087627723 -0.089191995)
(1.3417135 -0.013666233 -0.10255693)
(1.4319538 -0.016680883 -0.10441006)
(1.4766005 -0.018337508 -0.09923062)
(0.039937245 0.001679054 -0.00043777952)
(0.16351201 0.0038134729 -0.0040217969)
(0.36560967 0.0043977076 -0.016343119)
(0.64669091 0.002307566 -0.039373588)
(0.95635398 -0.0020363645 -0.066827492)
(1.2154696 -0.0070068085 -0.091414279)
(1.381761 -0.010825578 -0.10396167)
(1.4662033 -0.013086808 -0.10533866)
(1.5051551 -0.014315099 -0.099719839)
(0.042032868 0.0012570703 -0.00065118082)
(0.17132762 0.0028448754 -0.0046596517)
(0.38166461 0.0032598214 -0.017571761)
(0.67234298 0.0016888085 -0.041157202)
(0.98880815 -0.0015101244 -0.068665393)
(1.2494383 -0.0051325636 -0.092842502)
(1.4129645 -0.0078970006 -0.10467084)
(1.4930814 -0.0094957626 -0.10545596)
(1.5276861 -0.010303548 -0.099398806)
(0.043746336 0.0007817959 -0.00080332432)
(0.17738476 0.0017656201 -0.005108998)
(0.39360627 0.0020131788 -0.018418007)
(0.69078709 0.0010385809 -0.042324265)
(1.0115521 -0.00091831384 -0.069814958)
(1.2728739 -0.0031245062 -0.093632898)
(1.4343419 -0.0048074586 -0.10490597)
(1.5115047 -0.00577046 -0.10518532)
(1.5431408 -0.0062269462 -0.098790665)
(0.044439633 0.00024911073 -0.00087749486)
(0.18002693 0.00055187267 -0.005323748)
(0.39909438 0.0006148545 -0.018813336)
(0.69959115 0.00027512741 -0.042858899)
(1.0226868 -0.00038232763 -0.070326814)
(1.2845122 -0.0011116015 -0.093949816)
(1.4450419 -0.0016573025 -0.10492711)
(1.520774 -0.0019578688 -0.10493445)
(1.5509344 -0.0020892308 -0.098377642)
(0.044439631 -0.00024909369 -0.000877495)
(0.18002692 -0.00055183939 -0.0053237615)
(0.39909438 -0.00061482492 -0.018813356)
(0.69959113 -0.00027513547 -0.04285892)
(1.0226868 0.00038223323 -0.070326832)
(1.2845122 0.0011114201 -0.093949825)
(1.4450419 0.0016570552 -0.1049271)
(1.520774 0.0019575646 -0.10493441)
(1.5509343 0.0020889144 -0.098377598)
(0.04374633 -0.00078176631 -0.00080332568)
(0.17738474 -0.0017655681 -0.0051090164)
(0.39360624 -0.0020131287 -0.018418051)
(0.69078702 -0.0010385638 -0.042324305)
(1.011552 0.00091824251 -0.069814987)
(1.2728738 0.0031243254 -0.093632902)
(1.4343418 0.0048071974 -0.10490592)
(1.5115046 0.005770158 -0.10518522)
(1.5431406 0.0062266595 -0.09879057)
(0.042032858 -0.0012570408 -0.00065118707)
(0.17132759 -0.0028448187 -0.0046596542)
(0.38166456 -0.0032597595 -0.017571822)
(0.67234289 -0.0016887715 -0.041157257)
(0.98880804 0.0015100789 -0.06866542)
(1.2494382 0.0051323926 -0.092842477)
(1.4129644 0.0078967447 -0.10467076)
(1.4930812 0.0094954861 -0.10545584)
(1.5276858 0.010303299 -0.099398735)
(0.039937237 -0.0016790291 -0.00043779848)
(0.16351198 -0.0038134085 -0.0040218254)
(0.36560962 -0.0043976173 -0.016343216)
(0.64669082 -0.002307508 -0.039373656)
(0.9563539 0.002036338 -0.066827504)
(1.2154694 0.0070066667 -0.091414216)
(1.3817609 0.010825371 -0.10396157)
(1.466203 0.013086583 -0.10533853)
(1.5051548 0.014314861 -0.099719817)
(0.037292374 -0.0020295869 -0.00017459505)
(0.15363187 -0.004633446 -0.0032159019)
(0.3452622 -0.0053850898 -0.014736059)
(0.6140656 -0.0028710222 -0.036940569)
(0.91478824 0.0025023601 -0.064200941)
(1.1718121 0.0087626783 -0.089191924)
(1.3417134 0.013666105 -0.10255683)
(1.4319536 0.016680717 -0.10440989)
(1.4766003 0.018337272 -0.099230565)
(0.034185567 -0.0022821291 0.00011989674)
(0.1419749 -0.0052447914 -0.0022853037)
(0.32117179 -0.0061546631 -0.012801453)
(0.5753132 -0.0033371352 -0.033882936)
(0.86511106 0.0029148918 -0.06075102)
(1.1195115 0.010400896 -0.086101235)
(1.2939164 0.016479235 -0.10036406)
(1.3916593 0.020371851 -0.10280804)
(1.4433154 0.022449719 -0.097931235)
(0.030795794 -0.0024270573 0.00042595302)
(0.12910883 -0.0056263011 -0.0012784236)
(0.29433092 -0.0066845163 -0.010605329)
(0.53176571 -0.0037094564 -0.030254993)
(0.80869589 0.0032215864 -0.056472652)
(1.0597826 0.011833575 -0.082106946)
(1.2394221 0.019185647 -0.097274912)
(1.3465038 0.024074374 -0.10070319)
(1.4064449 0.026635511 -0.096185395)
(0.02746947 -0.0024529791 0.00071927608)
(0.11602484 -0.0057417308 -0.00026556573)
(0.26631716 -0.0069221137 -0.0082684292)
(0.48534691 -0.0039554903 -0.026193824)
(0.74733656 0.003382654 -0.051426042)
(0.99403669 0.012927928 -0.077187051)
(1.17949 0.021528618 -0.09342945)
(1.2974342 0.027503463 -0.098193709)
(1.3666643 0.030640152 -0.094371921)
(0.024160357 -0.002384097 0.00097059695)
(0.10273037 -0.0056685598 0.0006895983)
(0.23738772 -0.0069857377 -0.0058517114)
(0.43668162 -0.00424178 -0.021697994)
(0.68179738 0.0031437061 -0.045411565)
(0.92294957 0.013326692 -0.070986251)
(1.1147786 0.023063105 -0.088629866)
(1.2448033 0.030193144 -0.09518894)
(1.3239149 0.033981225 -0.092653582)
(0.020911448 -0.0022205625 0.0011778715)
(0.089440985 -0.0054019752 0.0015755375)
(0.20806234 -0.0068776524 -0.0034127548)
(0.38667005 -0.0045905291 -0.016905317)
(0.61325932 0.0024202976 -0.038624114)
(0.84738914 0.012836605 -0.063652011)
(1.0454189 0.023525061 -0.082752909)
(1.188208 0.031811317 -0.091542934)
(1.2774033 0.03628522 -0.090952268)
(0.01803652 -0.0019169868 0.001256405)
(0.077055323 -0.0048289323 0.002146741)
(0.17976448 -0.0064660561 -0.0013972906)
(0.33698484 -0.0049094221 -0.01241287)
(0.54312183 0.0011804536 -0.031588408)
(0.76765747 0.011205086 -0.055335414)
(0.97029583 0.022426728 -0.075472601)
(1.1257148 0.031774211 -0.08671828)
(1.2251999 0.037225506 -0.088748969)
(0.015025838 -0.0018486704 0.0014657406)
(0.064141672 -0.0049753108 0.0031195908)
(0.15024165 -0.0073420912 0.0013460331)
(0.28468858 -0.0072073355 -0.006628859)
(0.46759455 -0.0029616699 -0.022228966)
(0.67826556 0.0055610591 -0.043454229)
(0.88170055 0.016392551 -0.063847984)
(1.0483904 0.026532388 -0.077735009)
(1.1594749 0.033469031 -0.083573275)
(0.0078672184 0.00034457312 0.00026445342)
(0.040674013 0.00084655007 0.00043217655)
(0.10735872 0.00099293493 -0.00042619859)
(0.22304183 3.9619468e-06 -0.0034093566)
(0.39554617 -0.0035087498 -0.0098579124)
(0.6129492 -0.010973379 -0.020462008)
(0.83785739 -0.022101374 -0.033893551)
(1.0265742 -0.033591078 -0.045624514)
(1.1522071 -0.042020645 -0.052084405)
(0.0080946044 2.8528893e-05 -3.789534e-05)
(0.044657677 -0.00016256542 -0.00052782632)
(0.12099534 -0.00084246003 -0.0022626089)
(0.25350584 -0.0027794334 -0.0064357696)
(0.4476446 -0.0074190882 -0.014431828)
(0.68397416 -0.016132907 -0.026670471)
(0.91647836 -0.028087312 -0.040907326)
(1.0999039 -0.039245725 -0.051949759)
(1.2166789 -0.046271457 -0.056728165)
(0.0079088128 -0.00014825545 -0.00017677744)
(0.047177944 -0.00076426635 -0.0010115306)
(0.13166111 -0.0019744013 -0.0032947059)
(0.27886198 -0.0045088331 -0.0082896247)
(0.49169504 -0.0097652103 -0.017359643)
(0.74316539 -0.018921502 -0.030603365)
(0.97963454 -0.030711147 -0.044989297)
(1.1566961 -0.04094005 -0.054928809)
(1.266113 -0.046717435 -0.057931661)
(0.0079533041 -0.0003140188 -0.00027773683)
(0.050171075 -0.0013017909 -0.0013620988)
(0.14265507 -0.0029355805 -0.0040835301)
(0.30374954 -0.0058980398 -0.0097751305)
(0.53369139 -0.011529873 -0.019738463)
(0.79824022 -0.020815633 -0.033751095)
(1.0366911 -0.03208542 -0.047899143)
(1.2067962 -0.041249661 -0.056479847)
(1.3089748 -0.045969251 -0.057876053)
(0.0081215283 -0.00040121538 -0.00030943157)
(0.053364343 -0.0016051969 -0.001499346)
(0.15363389 -0.0034975792 -0.0045051732)
(0.32800276 -0.006717103 -0.01074656)
(0.5740528 -0.012531293 -0.021459626)
(0.85054013 -0.021715232 -0.036049645)
(1.0900295 -0.032246368 -0.049724264)
(1.2530444 -0.040266653 -0.056968854)
(1.3478126 -0.043983407 -0.057008977)
(0.0084927271 -0.00043080821 -0.00030249852)
(0.056956454 -0.0017190727 -0.0015130182)
(0.16486939 -0.0037113892 -0.0047100131)
(0.35195392 -0.0070062522 -0.011392589)
(0.61339413 -0.012763633 -0.022777522)
(0.90056482 -0.021523368 -0.037682583)
(1.1403406 -0.031109058 -0.050551265)
(1.2964423 -0.037951974 -0.056556513)
(1.3837851 -0.040785816 -0.055473835)
(0.0091639223 -0.00043106074 -0.00028354971)
(0.061148181 -0.0017185629 -0.0014780929)
(0.17652034 -0.0036910713 -0.0048032814)
(0.37551649 -0.0068925758 -0.011812926)
(0.65114565 -0.012331946 -0.02367955)
(0.94768926 -0.020327514 -0.03862689)
(1.1872892 -0.02875064 -0.05054952)
(1.3368693 -0.034424998 -0.055411879)
(1.4170287 -0.036499587 -0.053432732)
(0.0099052098 -0.00039924889 -0.00025506129)
(0.065268437 -0.0015979041 -0.0014031276)
(0.1874799 -0.003430387 -0.0047936686)
(0.39722954 -0.0063689661 -0.012017952)
(0.68555569 -0.011238228 -0.024179337)
(0.99031764 -0.018170951 -0.038977218)
(1.2297363 -0.025222036 -0.050053869)
(1.3734284 -0.02977984 -0.053776886)
(1.4470063 -0.031234961 -0.051198142)
(0.01060578 -0.00034051978 -0.0002238687)
(0.06895356 -0.0013703126 -0.0013104678)
(0.19707692 -0.0029470339 -0.0047184949)
(0.41610836 -0.0054547099 -0.012067079)
(0.7152314 -0.009521283 -0.024367748)
(1.0269264 -0.015148691 -0.038913579)
(1.2661848 -0.020685641 -0.049228951)
(1.404924 -0.024155982 -0.052021064)
(1.4728656 -0.025148231 -0.049188775)
(0.011215612 -0.00025854757 -0.00019465743)
(0.072024596 -0.0010479958 -0.001218112)
(0.20491485 -0.0022625904 -0.0046140453)
(0.43137227 -0.0041855051 -0.012018106)
(0.73904158 -0.0072502808 -0.024362547)
(1.0561187 -0.011390693 -0.038637928)
(1.295176 -0.015346803 -0.04833853)
(1.4300834 -0.017757974 -0.05059684)
(1.4935502 -0.018408566 -0.047675301)
(0.011850854 -0.00016205113 -0.00017396477)
(0.074719837 -0.00065890947 -0.0011509869)
(0.21116898 -0.0014267971 -0.0045327153)
(0.44285752 -0.0026390817 -0.011964779)
(0.75624936 -0.0045457585 -0.02429815)
(1.0767195 -0.0070738324 -0.038341936)
(1.3153761 -0.0094390079 -0.047599305)
(1.4475672 -0.010851363 -0.049549952)
(1.5079189 -0.011216914 -0.046619022)
(0.012051062 -5.8170956e-05 -0.00016299501)
(0.075764686 -0.00023302627 -0.0011136933)
(0.21388178 -0.00049727156 -0.0044803527)
(0.44821475 -0.00090960417 -0.011916843)
(0.76461143 -0.001554682 -0.024230044)
(1.0869561 -0.0024042708 -0.038149129)
(1.3255322 -0.0031909683 -0.04718261)
(1.4564207 -0.0036539034 -0.048984179)
(1.5152176 -0.0037685695 -0.046048984)
(0.01205106 5.8187266e-05 -0.00016299538)
(0.07576468 0.00023305682 -0.0011137027)
(0.21388177 0.00049730469 -0.0044803628)
(0.44821473 0.00090959605 -0.011916852)
(0.7646114 0.0015545855 -0.024230049)
(1.0869561 0.002404064 -0.03814912)
(1.3255321 0.0031906818 -0.047182583)
(1.4564206 0.003653587 -0.048984135)
(1.5152175 0.0037682759 -0.046048936)
(0.011850849 0.0001620725 -0.00017396576)
(0.074719819 0.00065895162 -0.0011510094)
(0.21116894 0.0014268473 -0.0045327404)
(0.44285745 0.0026390921 -0.011964801)
(0.75624927 0.0045456748 -0.024298158)
(1.0767194 0.0070736311 -0.038341903)
(1.3153759 0.0094387239 -0.047599225)
(1.447567 0.010851056 -0.049549823)
(1.5079187 0.011216642 -0.046618888)
(0.011215603 0.00025857483 -0.00019466071)
(0.072024568 0.001048051 -0.0012181506)
(0.2049148 0.0022626606 -0.0046140846)
(0.43137217 0.00418554 -0.012018138)
(0.73904145 0.0072502192 -0.024362551)
(1.0561185 0.01139051 -0.038637866)
(1.2951758 0.015346537 -0.048338398)
(1.4300831 0.017757694 -0.050596636)
(1.4935498 0.018408329 -0.047675099)
(0.01060577 0.0003405503 -0.00022387678)
(0.068953532 0.0013703725 -0.0013105226)
(0.19707686 0.002947115 -0.0047185501)
(0.41610827 0.0054547655 -0.012067125)
(0.71523127 0.0095212487 -0.024367747)
(1.0269262 0.015148544 -0.038913488)
(1.2661846 0.020685419 -0.049228772)
(1.4049237 0.024155754 -0.052020788)
(1.4728652 0.025148035 -0.049188505)
(0.0099052009 0.00039927997 -0.00025507419)
(0.065268409 0.0015979607 -0.0014031991)
(0.18747985 0.0034304679 -0.0047937475)
(0.39722946 0.0063690339 -0.012018022)
(0.68555558 0.011238222 -0.024179338)
(0.99031748 0.018170855 -0.038977111)
(1.229736 0.025221882 -0.050053652)
(1.3734281 0.029779689 -0.053776535)
(1.4470059 0.031234822 -0.051197802)
(0.0091639139 0.00043109733 -0.0002835717)
(0.061148153 0.0017186254 -0.0014781891)
(0.17652028 0.0036911615 -0.0048033985)
(0.37551641 0.006892657 -0.011813043)
(0.65114554 0.012331964 -0.023679581)
(0.94768912 0.020327464 -0.038626788)
(1.187289 0.028750557 -0.050549273)
(1.3368691 0.034424945 -0.055411457)
(1.4170284 0.036499531 -0.053432334)
(0.008492721 0.00043085372 -0.00030251776)
(0.056956434 0.0017191411 -0.001513126)
(0.16486935 0.0037114889 -0.0047101501)
(0.35195386 0.0070063394 -0.011392732)
(0.61339405 0.012763661 -0.022777571)
(0.90056471 0.021523339 -0.037682485)
(1.1403405 0.031109021 -0.050550998)
(1.2964421 0.037952011 -0.056556028)
(1.3837848 0.040785855 -0.055473405)
(0.0081215249 0.00040126899 -0.00030946083)
(0.053364332 0.0016052745 -0.0014994791)
(0.15363387 0.0034976927 -0.0045053411)
(0.32800272 0.0067171958 -0.010746738)
(0.57405274 0.012531326 -0.021459704)
(0.85054004 0.021715223 -0.036049559)
(1.0900294 0.032246366 -0.04972399)
(1.2530443 0.040266741 -0.056968302)
(1.3478124 0.043983518 -0.057008496)
(0.0079533003 0.00031407825 -0.00027777318)
(0.050171063 0.0013018791 -0.001362238)
(0.14265505 0.0029357054 -0.0040837075)
(0.30374951 0.0058981427 -0.0097753185)
(0.53369134 0.01152992 -0.019738557)
(0.79824015 0.020815656 -0.033751023)
(1.036691 0.032085458 -0.047898824)
(1.2067961 0.041249764 -0.056479165)
(1.3089747 0.045969414 -0.057875451)
(0.0079088085 0.00014830642 -0.00017681053)
(0.047177931 0.00076433481 -0.0010116512)
(0.13166109 0.0019744974 -0.0032948595)
(0.27886195 0.0045089013 -0.0082897995)
(0.49169498 0.0097652301 -0.017359737)
(0.74316533 0.018921537 -0.030603261)
(0.97963449 0.030711283 -0.044988872)
(1.1566961 0.040940253 -0.054927976)
(1.266113 0.046717611 -0.057930874)
(0.0080946008 -2.8504912e-05 -3.7914211e-05)
(0.044657664 0.00016257543 -0.00052789652)
(0.12099532 0.00084246592 -0.0022626943)
(0.2535058 0.0027793944 -0.0064358561)
(0.44764454 0.0074189961 -0.014431828)
(0.68397408 0.016132846 -0.026670282)
(0.91647829 0.02808747 -0.040906774)
(1.0999039 0.039246177 -0.051948727)
(1.216679 0.046271912 -0.056727348)
(0.0078672183 -0.00034457414 0.00026445496)
(0.040674012 -0.00084656756 0.00043218038)
(0.10735872 -0.00099297166 -0.00042618917)
(0.22304183 -4.0327413e-06 -0.0034093114)
(0.39554615 0.0035086398 -0.0098577795)
(0.61294917 0.010973314 -0.020461715)
(0.83785738 0.022101508 -0.033892946)
(1.0265743 0.033591543 -0.045623379)
(1.1522073 0.042021069 -0.052083722)
(0.011773266 0.00023812713 0.00023300417)
(0.052825788 0.00043236113 0.00050203899)
(0.12840221 -5.1785628e-06 0.00040107872)
(0.25145483 -0.0017263043 -0.00054027894)
(0.42736382 -0.0055180573 -0.003066568)
(0.64397051 -0.011899532 -0.0079508589)
(0.86715862 -0.020292411 -0.014605426)
(1.056944 -0.028977808 -0.021290393)
(1.1838211 -0.036043846 -0.02632112)
(0.012148889 0.000195179 0.00017046085)
(0.056970984 0.00021030143 0.00028637135)
(0.14153945 -0.00059496351 -7.1686254e-05)
(0.27951551 -0.0029979447 -0.0014766647)
(0.47379513 -0.007884515 -0.0048123622)
(0.70591506 -0.01565519 -0.01085301)
(0.9345425 -0.025171899 -0.018564007)
(1.1185046 -0.034049786 -0.025564734)
(1.2374371 -0.040331272 -0.030200072)
(0.012039146 0.00020964683 0.00015439726)
(0.059364365 0.0001603009 0.00020553375)
(0.15105834 -0.00087615149 -0.00031119939)
(0.301333 -0.0037684323 -0.0020468075)
(0.51067526 -0.0094144358 -0.0059825517)
(0.75461494 -0.018029787 -0.012899172)
(0.98561176 -0.027949061 -0.021253388)
(1.1631501 -0.03644514 -0.02833211)
(1.2755448 -0.041865739 -0.032361151)
(0.012111793 0.00017114785 0.00010250759)
(0.062033464 -1.6002025e-05 3.4523933e-05)
(0.16046915 -0.0013057481 -0.00067786845)
(0.32194187 -0.0046218461 -0.0027423672)
(0.54458682 -0.010843844 -0.0072382092)
(0.79835744 -0.019945245 -0.014794723)
(1.0305702 -0.029820108 -0.023431665)
(1.2018656 -0.037680486 -0.030287765)
(1.3080387 -0.04221375 -0.033558545)
(0.01225226 9.6971938e-05 4.0749405e-05)
(0.064719037 -0.000278272 -0.00015581963)
(0.16952435 -0.0018366258 -0.0010519104)
(0.34145771 -0.0055236827 -0.0033973949)
(0.57649744 -0.012174253 -0.0084001503)
(0.83915822 -0.021356913 -0.016172327)
(1.0722998 -0.03083047 -0.024766787)
(1.2377132 -0.03785515 -0.031121623)
(1.3375564 -0.041390832 -0.033489503)
(0.012548768 -1.8098084e-05 -2.4162338e-05)
(0.067656031 -0.00063361224 -0.00033567197)
(0.1785807 -0.0024620072 -0.001353633)
(0.36032835 -0.0064093001 -0.0038572565)
(0.60680239 -0.0131065 -0.008901064)
(0.87770648 -0.021984906 -0.016617324)
(1.1116471 -0.030735139 -0.024872334)
(1.271492 -0.036742063 -0.030493775)
(1.3648921 -0.039317839 -0.032028184)
(0.013112487 -0.00014411127 -7.0698254e-05)
(0.071101772 -0.0009923904 -0.00044219468)
(0.18793974 -0.0030200429 -0.0014695534)
(0.37878165 -0.0070266786 -0.0039040765)
(0.63548719 -0.013473119 -0.0087553049)
(0.9137653 -0.021676488 -0.016162976)
(1.1483433 -0.02940433 -0.023845758)
(1.3030347 -0.034300843 -0.028691351)
(1.3901083 -0.035998764 -0.029566482)
(0.013715833 -0.00024113019 -8.7778827e-05)
(0.074415169 -0.0012393777 -0.00045018829)
(0.19658734 -0.0033267629 -0.0013879342)
(0.39550127 -0.007143797 -0.0035833899)
(0.66127919 -0.013013545 -0.0080662162)
(0.94615127 -0.020209049 -0.014993957)
(1.1813802 -0.026686496 -0.022006262)
(1.3315444 -0.030455504 -0.026138077)
(1.4127322 -0.031420878 -0.026608598)
(0.01425535 -0.00028274822 -7.7936923e-05)
(0.077266033 -0.0012898747 -0.00037095765)
(0.20392507 -0.0032297843 -0.0011308447)
(0.40958559 -0.0065927543 -0.0029979766)
(0.68314305 -0.011571216 -0.0070305047)
(0.9737227 -0.017471326 -0.013410554)
(1.2096144 -0.022552166 -0.019778523)
(1.3559984 -0.025264687 -0.023351009)
(1.4320386 -0.025710446 -0.023695895)
(0.014706852 -0.00026078759 -5.2191891e-05)
(0.079574227 -0.0011231136 -0.00024788015)
(0.20977782 -0.0027020112 -0.00080495597)
(0.42073537 -0.0053420911 -0.0023322473)
(0.70042649 -0.0091395504 -0.0059183882)
(0.99551096 -0.013514439 -0.011784081)
(1.2319306 -0.017134937 -0.017621037)
(1.3753413 -0.018922067 -0.020846489)
(1.4472491 -0.019068697 -0.021247104)
(0.015213445 -0.00018406788 -2.4734233e-05)
(0.081667336 -0.000766606 -0.00012985642)
(0.21450191 -0.0018002484 -0.00051666717)
(0.42911092 -0.0034875904 -0.0017711946)
(0.71286522 -0.0058668687 -0.0050075607)
(1.0108092 -0.0085524238 -0.010481309)
(1.2473951 -0.010709647 -0.015946465)
(1.3886542 -0.011712415 -0.018996909)
(1.4576697 -0.01173087 -0.019497605)
(0.015341875 -6.637368e-05 -8.3408809e-06)
(0.082392571 -0.00027261891 -6.1261283e-05)
(0.21641728 -0.0006335493 -0.00035156432)