/*--------------------------------*- C++ -*----------------------------------*\
  =========                 |
  \\      /  F ield         | OpenFOAM: The Open Source CFD Toolbox
   \\    /   O peration     | Website:  https://openfoam.org
    \\  /    A nd           | Version:  10
     \\/     M anipulation  |
\*---------------------------------------------------------------------------*/
FoamFile
{
    format      ascii;
    class       volScalarField;
    location    "0.9";
    object      T;
}
// * * * * * * * * * * * * * * * * * * * * * * * * * * * * * * * * * * * * * //

dimensions      [0 0 -1 0 0 0 0];

internalField   nonuniform List<scalar> 
100
(
0.0852276
0.252662
0.411145
0.555064
0.679318
0.779508
0.852084
0.894473
0.905176
0.883812
0.831139
0.749022
0.640371
0.509035
0.359665
0.197554
0.0284451
-0.141672
-0.30677
-0.461001
-0.5989
-0.715583
-0.806917
-0.869664
-0.901604
-0.901604
-0.869664
-0.806915
-0.715582
-0.598898
-0.460998
-0.306768
-0.141669
0.0284474
0.197556
0.359667
0.509036
0.640373
0.749024
0.83114
0.883813
0.905176
0.894473
0.852083
0.779507
0.679317
0.555062
0.411144
0.25266
0.0852257
-0.0852276
-0.252662
-0.411145
-0.555064
-0.679319
-0.779508
-0.852084
-0.894474
-0.905176
-0.883813
-0.831139
-0.749023
-0.640371
-0.509035
-0.359665
-0.197555
-0.0284454
0.141671
0.306769
0.461
0.5989
0.715583
0.806916
0.869664
0.901604
0.901604
0.869664
0.806916
0.715582
0.598899
0.460999
0.306768
0.14167
-0.0284469
-0.197556
-0.359667
-0.509036
-0.640373
-0.749024
-0.83114
-0.883813
-0.905176
-0.894473
-0.852083
-0.779507
-0.679317
-0.555062
-0.411143
-0.25266
-0.0852257
)
;

boundaryField
{
    inlet
    {
        type            cyclic;
    }
    outlet
    {
        type            cyclic;
    }
    bottom
    {
        type            slip;
    }
    top
    {
        type            slip;
    }
    frontAndBack
    {
        type            empty;
    }
}


// ************************************************************************* //
