/*--------------------------------*- C++ -*----------------------------------*\
  =========                 |
  \\      /  F ield         | OpenFOAM: The Open Source CFD Toolbox
   \\    /   O peration     | Website:  https://openfoam.org
    \\  /    A nd           | Version:  10
     \\/     M anipulation  |
\*---------------------------------------------------------------------------*/
FoamFile
{
    format      ascii;
    class       volScalarField;
    location    "0.9";
    object      T_0;
}
// * * * * * * * * * * * * * * * * * * * * * * * * * * * * * * * * * * * * * //

dimensions      [0 0 -1 0 0 0 0];

internalField   nonuniform List<scalar> 
100
(
0.085394
0.253155
0.411948
0.556147
0.680645
0.78103
0.853747
0.896219
0.906943
0.885538
0.832762
0.750485
0.641621
0.510028
0.360367
0.19794
0.0285006
-0.141948
-0.307369
-0.461901
-0.600069
-0.71698
-0.808492
-0.871362
-0.903364
-0.903364
-0.871361
-0.80849
-0.716978
-0.600067
-0.461898
-0.307366
-0.141946
0.0285029
0.197942
0.360369
0.51003
0.641623
0.750486
0.832762
0.885538
0.906943
0.896219
0.853746
0.781029
0.680643
0.556146
0.411946
0.253153
0.0853921
-0.085394
-0.253155
-0.411948
-0.556147
-0.680645
-0.78103
-0.853747
-0.89622
-0.906943
-0.885538
-0.832762
-0.750485
-0.641621
-0.510028
-0.360367
-0.19794
-0.028501
0.141948
0.307368
0.4619
0.600069
0.71698
0.808491
0.871362
0.903364
0.903364
0.871361
0.808491
0.716979
0.600068
0.461899
0.307367
0.141947
-0.0285024
-0.197942
-0.360369
-0.51003
-0.641623
-0.750486
-0.832762
-0.885538
-0.906943
-0.896219
-0.853746
-0.781029
-0.680643
-0.556145
-0.411946
-0.253153
-0.0853921
)
;

boundaryField
{
    inlet
    {
        type            cyclic;
    }
    outlet
    {
        type            cyclic;
    }
    bottom
    {
        type            slip;
    }
    top
    {
        type            slip;
    }
    frontAndBack
    {
        type            empty;
    }
}


// ************************************************************************* //
