/*--------------------------------*- C++ -*----------------------------------*\
  =========                 |
  \\      /  F ield         | OpenFOAM: The Open Source CFD Toolbox
   \\    /   O peration     | Website:  https://openfoam.org
    \\  /    A nd           | Version:  10
     \\/     M anipulation  |
\*---------------------------------------------------------------------------*/
FoamFile
{
    format      ascii;
    class       volScalarField;
    location    "8";
    object      ddt0(T);
}
// * * * * * * * * * * * * * * * * * * * * * * * * * * * * * * * * * * * * * //

dimensions      [0 0 -2 0 0 0 0];

internalField   nonuniform List<scalar> 
100
(
-0.630405
-1.88536
-3.12358
-4.33407
-5.5061
-6.62926
-7.69357
-8.6896
-9.60849
-10.4421
-11.183
-11.8247
-12.3614
-12.7884
-13.1019
-13.2991
-13.3782
-13.3386
-13.1806
-12.9057
-12.5161
-12.0155
-11.4082
-10.6997
-9.89617
-9.00482
-8.03354
-6.99096
-5.88633
-4.72944
-3.53058
-2.30038
-1.04976
0.210179
1.46825
2.71329
3.93425
5.12029
6.26087
7.34589
8.36571
9.31127
10.1742
10.9468
11.6222
12.1945
12.6586
13.0102
13.2464
13.3651
13.3651
13.2464
13.0102
12.6586
12.1945
11.6222
10.9468
10.1742
9.31126
8.3657
7.34588
6.26087
5.12028
3.93424
2.71328
1.46824
0.210168
-1.04977
-2.30039
-3.53059
-4.72945
-5.88634
-6.99097
-8.03355
-9.00483
-9.89618
-10.6997
-11.4082
-12.0155
-12.5161
-12.9057
-13.1806
-13.3386
-13.3782
-13.2991
-13.1019
-12.7884
-12.3614
-11.8247
-11.183
-10.4421
-9.60849
-8.68959
-7.69356
-6.62925
-5.5061
-4.33407
-3.12358
-1.88536
-0.630404
)
;

boundaryField
{
    xmin
    {
        type            calculated;
        value           uniform 0;
    }
    xmax
    {
        type            calculated;
        value           uniform 0;
    }
    frontAndBack
    {
        type            empty;
    }
}


// ************************************************************************* //
