/*--------------------------------*- C++ -*----------------------------------*\
  =========                 |
  \\      /  F ield         | OpenFOAM: The Open Source CFD Toolbox
   \\    /   O peration     | Website:  https://openfoam.org
    \\  /    A nd           | Version:  10
     \\/     M anipulation  |
\*---------------------------------------------------------------------------*/
FoamFile
{
    format      ascii;
    class       volScalarField;
    location    "8";
    object      T_0;
}
// * * * * * * * * * * * * * * * * * * * * * * * * * * * * * * * * * * * * * //

dimensions      [0 0 -1 0 0 0 0];

internalField   nonuniform List<scalar> 
100
(
6.54593
19.577
32.4343
45.0037
57.1736
68.8361
79.8876
90.23
99.7715
108.427
116.121
122.784
128.357
132.791
136.046
138.093
138.915
138.504
136.863
134.008
129.963
124.765
118.459
111.102
102.758
93.5028
83.4175
72.5916
61.1215
49.1088
36.6603
23.8863
10.9004
-2.18233
-15.2457
-28.1737
-40.8516
-53.167
-65.0104
-76.2768
-86.8662
-96.6845
-105.645
-113.667
-120.681
-126.623
-131.441
-135.093
-137.546
-138.778
-138.778
-137.546
-135.093
-131.441
-126.623
-120.681
-113.667
-105.645
-96.6844
-86.8661
-76.2767
-65.0103
-53.1669
-40.8515
-28.1736
-15.2455
-2.18219
10.9005
23.8865
36.6604
49.109
61.1216
72.5918
83.4176
93.503
102.758
111.102
118.459
124.765
129.963
134.008
136.863
138.504
138.915
138.093
136.046
132.791
128.357
122.784
116.121
108.427
99.7715
90.23
79.8876
68.8361
57.1736
45.0037
32.4343
19.577
6.54593
)
;

boundaryField
{
    xmin
    {
        type            fixedValue;
        value           uniform 0;
    }
    xmax
    {
        type            fixedValue;
        value           uniform 0;
    }
    frontAndBack
    {
        type            empty;
    }
}


// ************************************************************************* //
