/*--------------------------------*- C++ -*----------------------------------*\
  =========                 |
  \\      /  F ield         | OpenFOAM: The Open Source CFD Toolbox
   \\    /   O peration     | Website:  https://openfoam.org
    \\  /    A nd           | Version:  10
     \\/     M anipulation  |
\*---------------------------------------------------------------------------*/
FoamFile
{
    format      ascii;
    class       volScalarField;
    location    "13";
    object      T;
}
// * * * * * * * * * * * * * * * * * * * * * * * * * * * * * * * * * * * * * //

dimensions      [0 0 -1 0 0 0 0];

internalField   nonuniform List<scalar> 
100
(
4.04045
12.0838
20.0199
27.7783
35.2902
42.4888
49.3102
55.694
61.5835
66.9263
71.6752
75.7878
79.2277
81.9644
83.9736
85.2374
85.7446
85.4908
84.4782
82.7157
80.2191
77.0104
73.1182
68.577
63.4271
57.7142
51.489
44.8068
37.727
30.3122
22.6284
14.7438
6.72826
-1.34697
-9.41024
-17.39
-25.2154
-32.8169
-40.1272
-47.0813
-53.6176
-59.6779
-65.2085
-70.1603
-74.4893
-78.1572
-81.1313
-83.3854
-84.8993
-85.6596
-85.6596
-84.8992
-83.3853
-81.1313
-78.1572
-74.4893
-70.1602
-65.2084
-59.6778
-53.6175
-47.0813
-40.1272
-32.8169
-25.2153
-17.3899
-9.41014
-1.34687
6.72836
14.7439
22.6285
30.3123
37.7271
44.8069
51.4891
57.7143
63.4272
68.5771
73.1183
77.0105
80.2192
82.7158
84.4783
85.4909
85.7447
85.2374
83.9736
81.9644
79.2277
75.7878
71.6752
66.9264
61.5835
55.6941
49.3103
42.4888
35.2902
27.7783
20.0199
12.0838
4.04045
)
;

boundaryField
{
    xmin
    {
        type            fixedValue;
        value           uniform 0;
    }
    xmax
    {
        type            fixedValue;
        value           uniform 0;
    }
    frontAndBack
    {
        type            empty;
    }
}


// ************************************************************************* //
