/*--------------------------------*- C++ -*----------------------------------*\
| =========                 |                                                 |
| \\      /  F ield         | OpenFOAM: The Open Source CFD Toolbox           |
|  \\    /   O peration     | Version:  2406                                  |
|   \\  /    A nd           | Website:  www.openfoam.com                      |
|    \\/     M anipulation  |                                                 |
\*---------------------------------------------------------------------------*/
FoamFile
{
    version     2.0;
    format      ascii;
    arch        "LSB;label=32;scalar=64";
    class       volScalarField;
    location    "10.25";
    object      p;
}
// * * * * * * * * * * * * * * * * * * * * * * * * * * * * * * * * * * * * * //

dimensions      [0 2 -2 0 0 0 0];

internalField   nonuniform List<scalar> 
34560
(
31.781581
31.768195
31.750805
31.730492
31.707714
31.684383
31.662541
31.643264
31.628359
31.861869
31.845459
31.823633
31.797326
31.76699
31.735357
31.705301
31.678684
31.657734
31.936591
31.917434
31.891823
31.86081
31.824722
31.786646
31.749799
31.716821
31.690523
32.010648
31.988885
31.959573
31.923885
31.882171
31.837962
31.794736
31.755519
31.723545
32.082327
32.058074
32.025217
31.985043
31.937912
31.887795
31.8384
31.793034
31.755304
32.148335
32.12206
32.086202
32.042095
31.990092
31.934525
31.879342
31.828124
31.784818
32.208425
32.18027
32.141633
32.093896
32.037414
31.9768
31.916267
31.859631
31.811189
32.261225
32.231372
32.190229
32.139237
32.078738
32.013549
31.948199
31.886709
31.833693
32.305597
32.274225
32.230868
32.177031
32.113096
32.043938
31.974404
31.90873
31.851903
32.340091
32.307464
32.262296
32.206172
32.139586
32.067312
31.994389
31.925363
31.865569
32.363796
32.330185
32.28367
32.225931
32.157559
32.08319
32.007854
31.936447
31.87462
32.376168
32.341994
32.294724
32.236096
32.166766
32.091281
32.01466
31.941966
31.879105
32.376167
32.341993
32.294724
32.236096
32.166765
32.09128
32.014659
31.941966
31.879105
32.363794
32.330183
32.283669
32.22593
32.157558
32.083189
32.007854
31.936446
31.874619
32.340089
32.307462
32.262294
32.20617
32.139584
32.067311
31.994388
31.925363
31.865568
32.305594
32.274222
32.230865
32.177028
32.113093
32.043936
31.974403
31.908729
31.851901
32.261222
32.231368
32.190226
32.139234
32.078735
32.013547
31.948197
31.886708
31.833691
32.20842
32.180266
32.141629
32.093892
32.037411
31.976798
31.916264
31.859629
31.811187
32.148331
32.122056
32.086198
32.042092
31.990089
31.934522
31.879339
31.828122
31.784816
32.082324
32.058071
32.025214
31.98504
31.937909
31.887791
31.838397
31.793031
31.755302
32.010646
31.988883
31.959571
31.923884
31.882169
31.83796
31.794733
31.755517
31.723543
31.936591
31.917434
31.891823
31.86081
31.824721
31.786645
31.749797
31.716819
31.690521
31.86187
31.84546
31.823635
31.797327
31.766991
31.735358
31.705302
31.678685
31.657734
31.781584
31.768198
31.750807
31.730494
31.707717
31.684385
31.662544
31.643268
31.628362
29.303461
29.304212
29.305273
29.307262
29.310613
29.314742
29.318436
29.320249
29.321031
29.297666
29.298869
29.300628
29.303666
29.308391
29.313856
29.318362
29.320727
29.321796
29.290281
29.291942
29.294396
29.298586
29.304955
29.312171
29.318018
29.321274
29.322658
29.284063
29.286191
29.289298
29.294517
29.30236
29.311196
29.318369
29.322516
29.324307
29.278976
29.281552
29.285292
29.291533
29.300849
29.311297
29.319766
29.324686
29.32678
29.274534
29.277652
29.282147
29.28947
29.300319
29.312419
29.322163
29.327776
29.330012
29.271178
29.274796
29.280156
29.288659
29.300997
29.314667
29.325577
29.331739
29.33393
29.268416
29.272383
29.27875
29.288961
29.302911
29.31801
29.329915
29.33645
29.338414
29.266299
29.270354
29.277136
29.289216
29.305801
29.322308
29.334957
29.341725
29.343328
29.265623
29.269629
29.276521
29.289318
29.308217
29.326981
29.340305
29.34723
29.348471
29.266233
29.270094
29.277069
29.290451
29.310529
29.330975
29.345181
29.351893
29.352674
29.26718
29.270881
29.27785
29.291585
29.312363
29.333703
29.34813
29.354546
29.355179
29.26718
29.27088
29.27785
29.291585
29.312362
29.333702
29.34813
29.354546
29.355179
29.266232
29.270093
29.277068
29.29045
29.310528
29.330974
29.34518
29.351893
29.352673
29.265622
29.269627
29.276519
29.289316
29.308216
29.32698
29.340303
29.347229
29.34847
29.266297
29.270352
29.277133
29.289214
29.305799
29.322306
29.334955
29.341723
29.343326
29.268413
29.27238
29.278747
29.288958
29.302908
29.318007
29.329913
29.336447
29.338411
29.271174
29.274793
29.280153
29.288657
29.300994
29.314664
29.325574
29.331737
29.333927
29.274531
29.27765
29.282145
29.289468
29.300317
29.312416
29.32216
29.327773
29.330009
29.278974
29.28155
29.28529
29.291531
29.300847
29.311294
29.319763
29.324683
29.326777
29.284062
29.28619
29.289297
29.294516
29.302358
29.311194
29.318366
29.322513
29.324303
29.290281
29.291942
29.294396
29.298586
29.304955
29.31217
29.318016
29.321271
29.322654
29.297667
29.29887
29.300629
29.303667
29.308392
29.313856
29.318362
29.320725
29.321793
29.303463
29.304214
29.305274
29.307264
29.310615
29.314744
29.318437
29.320249
29.32103
28.547669
28.547679
28.547544
28.547122
28.546571
28.546238
28.54647
28.547141
28.54762
28.545542
28.545692
28.545707
28.545397
28.544957
28.544757
28.545131
28.545976
28.546775
28.542131
28.542416
28.542573
28.542401
28.542151
28.542235
28.542965
28.544195
28.54542
28.538602
28.539018
28.53929
28.539201
28.539072
28.539395
28.540493
28.54218
28.54391
28.534976
28.535498
28.535877
28.535871
28.535861
28.536414
28.537879
28.540022
28.542277
28.531466
28.532009
28.532396
28.53246
28.532568
28.533341
28.535156
28.537746
28.540514
28.528636
28.529135
28.5293
28.529224
28.529378
28.5303
28.532395
28.535388
28.538664
28.526986
28.527471
28.52716
28.526327
28.526299
28.52733
28.529634
28.532974
28.536789
28.526579
28.527159
28.526804
28.524916
28.523539
28.524457
28.526912
28.5305
28.534903
28.526368
28.527041
28.526819
28.524892
28.522275
28.521962
28.52429
28.527991
28.532981
28.525921
28.526691
28.526536
28.524591
28.521671
28.520353
28.522062
28.526102
28.531713
28.525606
28.526432
28.526298
28.524284
28.521152
28.519311
28.520851
28.525221
28.531048
28.525605
28.526432
28.526297
28.524283
28.521152
28.519311
28.520851
28.525221
28.531048
28.52592
28.526691
28.526535
28.52459
28.52167
28.520353
28.522062
28.526101
28.531713
28.526367
28.52704
28.526818
28.524891
28.522274
28.521961
28.524289
28.52799
28.53298
28.526578
28.527157
28.526802
28.524915
28.523538
28.524455
28.52691
28.530499
28.534901
28.526984
28.527469
28.527158
28.526325
28.526297
28.527329
28.529633
28.532973
28.536786
28.528634
28.529133
28.529298
28.529222
28.529376
28.530298
28.532393
28.535385
28.538662
28.531464
28.532007
28.532394
28.532458
28.532566
28.533338
28.535154
28.537743
28.540511
28.534974
28.535496
28.535875
28.535869
28.535859
28.536412
28.537876
28.54002
28.542274
28.538601
28.539016
28.539289
28.539199
28.539071
28.539393
28.540491
28.542177
28.543907
28.54213
28.542415
28.542572
28.5424
28.54215
28.542233
28.542963
28.544192
28.545417
28.545541
28.545691
28.545706
28.545396
28.544956
28.544756
28.545129
28.545973
28.546771
28.547668
28.547678
28.547544
28.547122
28.54657
28.546237
28.546469
28.547139
28.547618
27.010862
27.010769
27.010699
27.010743
27.010872
27.010915
27.010638
27.009928
27.009159
27.011487
27.011403
27.011373
27.011495
27.011732
27.011843
27.011512
27.010629
27.00952
27.011815
27.011744
27.011756
27.011975
27.012355
27.012595
27.012292
27.011316
27.009978
27.012238
27.012189
27.012243
27.01254
27.013032
27.013368
27.013085
27.012038
27.010536
27.012659
27.012635
27.012736
27.013119
27.013727
27.014163
27.013906
27.012793
27.01115
27.012951
27.012965
27.013132
27.013618
27.014361
27.014916
27.014703
27.013535
27.011767
27.013205
27.013252
27.013476
27.014063
27.014942
27.015621
27.015449
27.014228
27.012344
27.013363
27.013436
27.013709
27.014397
27.01544
27.016265
27.01612
27.014839
27.012848
27.013399
27.013498
27.013822
27.014599
27.015826
27.016841
27.016689
27.015335
27.013239
27.013125
27.013256
27.013625
27.014465
27.015789
27.017028
27.017071
27.015667
27.01346
27.012607
27.012773
27.013166
27.014042
27.015413
27.016836
27.017207
27.015831
27.013536
27.012267
27.012451
27.012851
27.013723
27.015138
27.016617
27.017172
27.015906
27.013544
27.012267
27.012451
27.012851
27.013723
27.015138
27.016617
27.017172
27.015906
27.013544
27.012606
27.012772
27.013166
27.014041
27.015413
27.016836
27.017206
27.015831
27.013535
27.013123
27.013255
27.013623
27.014464
27.015788
27.017027
27.01707
27.015666
27.013459
27.013397
27.013496
27.01382
27.014597
27.015825
27.01684
27.016687
27.015333
27.013238
27.013361
27.013433
27.013707
27.014395
27.015438
27.016263
27.016118
27.014837
27.012847
27.013203
27.013249
27.013474
27.01406
27.01494
27.015618
27.015447
27.014226
27.012343
27.012949
27.012963
27.013129
27.013616
27.014358
27.014913
27.0147
27.013532
27.011765
27.012657
27.012632
27.012734
27.013116
27.013724
27.01416
27.013903
27.01279
27.011148
27.012235
27.012186
27.01224
27.012537
27.013028
27.013364
27.013082
27.012035
27.010534
27.011812
27.011741
27.011753
27.011972
27.012352
27.012592
27.012289
27.011312
27.009975
27.011483
27.0114
27.01137
27.011492
27.011729
27.01184
27.011508
27.010626
27.009517
27.010859
27.010766
27.010696
27.01074
27.010869
27.010911
27.010635
27.009926
27.009157
25.804072
25.804064
25.804023
25.803911
25.803741
25.803605
25.803635
25.80385
25.80406
25.803729
25.803739
25.803716
25.803613
25.803451
25.803338
25.803408
25.80369
25.804007
25.803147
25.803172
25.803165
25.803074
25.802932
25.80287
25.803023
25.803409
25.803846
25.802524
25.802561
25.802563
25.802477
25.802347
25.802332
25.802577
25.803087
25.803666
25.801872
25.801918
25.801929
25.801848
25.801733
25.801769
25.802113
25.80275
25.803467
25.801209
25.801264
25.801281
25.801205
25.801108
25.801199
25.801645
25.802409
25.803253
25.800601
25.800662
25.800682
25.800606
25.800519
25.800654
25.801196
25.802077
25.803034
25.800074
25.800139
25.800158
25.800072
25.799975
25.800133
25.800777
25.801767
25.802822
25.79969
25.799758
25.799772
25.799662
25.799499
25.799637
25.800405
25.801499
25.802634
25.799573
25.79964
25.799661
25.79957
25.799424
25.799475
25.800155
25.801294
25.802483
25.799679
25.799749
25.799789
25.799727
25.799639
25.799646
25.800071
25.80116
25.802377
25.799781
25.799853
25.799909
25.79988
25.799792
25.799793
25.800092
25.80107
25.802315
25.79978
25.799853
25.799909
25.79988
25.799792
25.799793
25.800092
25.80107
25.802315
25.799678
25.799748
25.799788
25.799727
25.799639
25.799646
25.80007
25.80116
25.802377
25.799572
25.799639
25.799659
25.799568
25.799423
25.799474
25.800154
25.801293
25.802482
25.799689
25.799756
25.799771
25.79966
25.799497
25.799635
25.800403
25.801497
25.802632
25.800071
25.800137
25.800156
25.80007
25.799973
25.80013
25.800775
25.801765
25.80282
25.800598
25.800659
25.800679
25.800603
25.800516
25.800651
25.801193
25.802074
25.803032
25.801206
25.801261
25.801278
25.801202
25.801105
25.801196
25.801642
25.802406
25.803251
25.801868
25.801915
25.801925
25.801844
25.801729
25.801765
25.802109
25.802747
25.803464
25.802519
25.802556
25.802559
25.802473
25.802342
25.802327
25.802572
25.803083
25.803662
25.803142
25.803167
25.80316
25.803069
25.802927
25.802865
25.803017
25.803404
25.803841
25.803723
25.803733
25.803711
25.803607
25.803445
25.803332
25.803402
25.803684
25.804002
25.804066
25.804058
25.804017
25.803905
25.803735
25.803599
25.803629
25.803844
25.804055
24.427323
24.427304
24.42729
24.4273
24.427324
24.427316
24.427212
24.426988
24.426745
24.427414
24.427396
24.427388
24.427414
24.427459
24.427461
24.427341
24.427074
24.426752
24.427473
24.427454
24.427452
24.427494
24.427563
24.427583
24.427456
24.427158
24.426777
24.427562
24.427545
24.427548
24.427601
24.427685
24.427713
24.427579
24.427256
24.426834
24.427658
24.427643
24.427652
24.427716
24.427815
24.427851
24.42771
24.427367
24.426913
24.427732
24.427722
24.427739
24.427817
24.427932
24.427979
24.427838
24.427481
24.427002
24.427797
24.427792
24.427817
24.427907
24.428035
24.428093
24.427954
24.427589
24.427093
24.427844
24.427844
24.427875
24.427975
24.428116
24.428185
24.428053
24.427686
24.427178
24.427874
24.427877
24.427914
24.428022
24.42817
24.428249
24.42813
24.427765
24.427252
24.427899
24.427905
24.427946
24.42806
24.428215
24.428299
24.428187
24.427828
24.427312
24.427918
24.427926
24.42797
24.428088
24.428246
24.428336
24.428226
24.427871
24.427354
24.427929
24.427937
24.427982
24.4281
24.428259
24.428353
24.428247
24.427891
24.427375
24.427929
24.427937
24.427982
24.4281
24.428259
24.428353
24.428246
24.427891
24.427375
24.427918
24.427925
24.42797
24.428087
24.428245
24.428335
24.428225
24.42787
24.427353
24.427898
24.427903
24.427945
24.428059
24.428213
24.428298
24.428186
24.427827
24.427311
24.427872
24.427875
24.427912
24.42802
24.428168
24.428247
24.428128
24.427764
24.427251
24.427842
24.427841
24.427873
24.427973
24.428113
24.428182
24.428051
24.427683
24.427176
24.427795
24.427789
24.427814
24.427903
24.428032
24.42809
24.427951
24.427587
24.427091
24.427728
24.427719
24.427736
24.427813
24.427928
24.427975
24.427834
24.427478
24.426999
24.427654
24.427639
24.427647
24.427711
24.42781
24.427846
24.427705
24.427363
24.426909
24.427557
24.42754
24.427543
24.427595
24.42768
24.427708
24.427573
24.427251
24.426829
24.427467
24.427448
24.427446
24.427488
24.427557
24.427576
24.42745
24.427152
24.426771
24.427407
24.427389
24.427381
24.427407
24.427452
24.427454
24.427334
24.427066
24.426745
24.427315
24.427296
24.427282
24.427292
24.427316
24.427308
24.427204
24.42698
24.426737
23.133365
23.133369
23.133365
23.133343
23.133303
23.133268
23.133273
23.133329
23.133396
23.133287
23.133295
23.133295
23.133273
23.133234
23.133204
23.133221
23.133302
23.133404
23.133156
23.133167
23.13317
23.13315
23.133114
23.133093
23.133131
23.133239
23.133374
23.133015
23.133028
23.133033
23.133013
23.132977
23.132966
23.133025
23.133164
23.133335
23.132868
23.132884
23.13289
23.132869
23.132836
23.132834
23.132915
23.133085
23.133291
23.13272
23.132738
23.132744
23.132724
23.132693
23.132702
23.132805
23.133005
23.133242
23.132583
23.132602
23.132609
23.132588
23.132559
23.132577
23.132701
23.132927
23.133191
23.13246
23.132479
23.132487
23.132466
23.132439
23.132465
23.132607
23.132855
23.133141
23.132357
23.132376
23.132384
23.132363
23.132337
23.13237
23.132526
23.132793
23.133097
23.132278
23.132298
23.132305
23.132283
23.132259
23.132297
23.132463
23.132744
23.133061
23.132226
23.132246
23.132253
23.132231
23.132207
23.132249
23.132421
23.13271
23.133035
23.1322
23.13222
23.132227
23.132205
23.132181
23.132224
23.132399
23.132692
23.133021
23.1322
23.132219
23.132226
23.132204
23.13218
23.132224
23.132399
23.132692
23.133021
23.132225
23.132245
23.132252
23.13223
23.132206
23.132248
23.13242
23.132709
23.133034
23.132277
23.132296
23.132303
23.132282
23.132257
23.132296
23.132462
23.132742
23.13306
23.132355
23.132374
23.132382
23.13236
23.132335
23.132368
23.132524
23.132791
23.133096
23.132458
23.132476
23.132484
23.132463
23.132436
23.132462
23.132604
23.132853
23.13314
23.13258
23.132598
23.132605
23.132584
23.132555
23.132573
23.132697
23.132924
23.133188
23.132716
23.132733
23.13274
23.132719
23.132688
23.132697
23.132801
23.133001
23.133239
23.132862
23.132878
23.132884
23.132863
23.132829
23.132828
23.132909
23.13308
23.133287
23.133008
23.133021
23.133026
23.133005
23.13297
23.132959
23.133018
23.133158
23.13333
23.133147
23.133158
23.133161
23.133141
23.133105
23.133084
23.133122
23.133232
23.133368
23.133277
23.133285
23.133285
23.133263
23.133224
23.133194
23.133212
23.133293
23.133396
23.133353
23.133358
23.133354
23.133332
23.133292
23.133257
23.133262
23.133318
23.133387
21.799718
21.799712
21.799708
21.79971
21.799717
21.799719
21.799699
21.79965
21.799595
21.799718
21.799712
21.79971
21.799716
21.79973
21.799735
21.799713
21.799656
21.799586
21.799715
21.79971
21.799708
21.799719
21.799739
21.799749
21.799726
21.799662
21.799578
21.799724
21.799718
21.799718
21.799732
21.799755
21.799768
21.799743
21.799672
21.799577
21.799737
21.799732
21.799733
21.79975
21.799776
21.799791
21.799764
21.799688
21.799583
21.799749
21.799745
21.799748
21.799767
21.799797
21.799814
21.799786
21.799705
21.799594
21.799761
21.799758
21.799762
21.799784
21.799817
21.799836
21.799807
21.799724
21.799606
21.799772
21.799769
21.799775
21.799799
21.799835
21.799855
21.799827
21.799741
21.799619
21.799781
21.799779
21.799786
21.799812
21.799849
21.799871
21.799843
21.799756
21.799631
21.799788
21.799787
21.799795
21.799822
21.799861
21.799883
21.799856
21.799767
21.799641
21.799793
21.799792
21.7998
21.799828
21.799868
21.799892
21.799864
21.799776
21.799648
21.799795
21.799795
21.799804
21.799832
21.799872
21.799896
21.799869
21.79978
21.799652
21.799795
21.799794
21.799803
21.799832
21.799872
21.799896
21.799868
21.79978
21.799652
21.799792
21.799791
21.7998
21.799828
21.799867
21.799891
21.799863
21.799775
21.799648
21.799787
21.799785
21.799793
21.79982
21.799859
21.799881
21.799854
21.799766
21.799641
21.799779
21.799777
21.799784
21.79981
21.799847
21.799868
21.799841
21.799754
21.79963
21.799769
21.799766
21.799772
21.799796
21.799831
21.799851
21.799823
21.799738
21.799618
21.799758
21.799754
21.799758
21.79978
21.799813
21.799831
21.799803
21.79972
21.799604
21.799744
21.799739
21.799742
21.799761
21.799792
21.799808
21.799781
21.799701
21.799591
21.799731
21.799725
21.799726
21.799742
21.799769
21.799784
21.799757
21.799682
21.79958
21.799716
21.79971
21.799709
21.799723
21.799746
21.799759
21.799734
21.799665
21.799572
21.799705
21.799699
21.799698
21.799708
21.799728
21.799738
21.799716
21.799653
21.799571
21.799705
21.7997
21.799697
21.799704
21.799717
21.799723
21.799701
21.799645
21.799577
21.799704
21.799698
21.799694
21.799696
21.799703
21.799705
21.799685
21.799637
21.799584
20.483277
20.483278
20.483278
20.483273
20.483264
20.483254
20.483251
20.483257
20.48327
20.483257
20.483259
20.48326
20.483256
20.483247
20.483238
20.483239
20.483253
20.483273
20.483222
20.483225
20.483227
20.483223
20.483215
20.48321
20.483215
20.483236
20.483265
20.483185
20.483189
20.483191
20.483187
20.483179
20.483176
20.483187
20.483215
20.483252
20.483146
20.48315
20.483153
20.483149
20.483142
20.48314
20.483156
20.483193
20.483238
20.483107
20.483112
20.483114
20.48311
20.483104
20.483105
20.483126
20.483169
20.483223
20.48307
20.483076
20.483078
20.483074
20.483068
20.483071
20.483097
20.483147
20.483207
20.483038
20.483043
20.483045
20.483041
20.483035
20.48304
20.48307
20.483125
20.483191
20.48301
20.483015
20.483018
20.483014
20.483008
20.483014
20.483047
20.483107
20.483177
20.482988
20.482994
20.482996
20.482992
20.482986
20.482993
20.483029
20.483092
20.483166
20.482973
20.482979
20.482981
20.482977
20.482971
20.482979
20.483016
20.483082
20.483158
20.482966
20.482971
20.482974
20.482969
20.482963
20.482972
20.48301
20.483076
20.483153
20.482966
20.482971
20.482973
20.482969
20.482963
20.482971
20.48301
20.483076
20.483153
20.482973
20.482978
20.48298
20.482976
20.48297
20.482978
20.483016
20.483081
20.483157
20.482987
20.482992
20.482995
20.48299
20.482984
20.482991
20.483027
20.483091
20.483165
20.483008
20.483013
20.483016
20.483011
20.483005
20.483011
20.483045
20.483105
20.483176
20.483035
20.48304
20.483042
20.483038
20.483032
20.483036
20.483067
20.483123
20.48319
20.483067
20.483071
20.483074
20.483069
20.483063
20.483066
20.483092
20.483143
20.483205
20.483102
20.483106
20.483108
20.483104
20.483097
20.483099
20.483121
20.483165
20.48322
20.483139
20.483143
20.483145
20.483141
20.483134
20.483133
20.48315
20.483187
20.483234
20.483176
20.48318
20.483181
20.483177
20.48317
20.483167
20.483178
20.483208
20.483247
20.483211
20.483214
20.483216
20.483212
20.483204
20.483198
20.483205
20.483227
20.483257
20.483244
20.483246
20.483247
20.483243
20.483234
20.483226
20.483227
20.483241
20.483264
20.483262
20.483264
20.483264
20.483259
20.483249
20.483239
20.483236
20.483243
20.483258
19.160151
19.16015
19.160148
19.160148
19.160149
19.16015
19.160146
19.160137
19.160125
19.160149
19.160148
19.160147
19.160148
19.16015
19.160151
19.160147
19.160135
19.160121
19.160148
19.160146
19.160146
19.160148
19.160151
19.160153
19.160148
19.160135
19.160117
19.16015
19.160149
19.160148
19.160151
19.160155
19.160157
19.160151
19.160136
19.160116
19.160156
19.160154
19.160154
19.160157
19.160162
19.160164
19.160158
19.160141
19.160119
19.160164
19.160162
19.160162
19.160166
19.160172
19.160176
19.16017
19.160152
19.160126
19.160173
19.160172
19.160173
19.160177
19.160184
19.16019
19.160186
19.160167
19.160139
19.160183
19.160182
19.160183
19.160188
19.160197
19.160205
19.1602
19.160181
19.160152
19.160193
19.160192
19.160193
19.160199
19.160209
19.160217
19.160214
19.160194
19.160163
19.1602
19.1602
19.160201
19.160207
19.160218
19.160227
19.160224
19.160204
19.160173
19.160206
19.160205
19.160206
19.160213
19.160225
19.160234
19.160231
19.160211
19.160179
19.160208
19.160208
19.160209
19.160216
19.160228
19.160238
19.160235
19.160215
19.160183
19.160208
19.160207
19.160209
19.160216
19.160228
19.160237
19.160235
19.160215
19.160183
19.160205
19.160204
19.160205
19.160212
19.160224
19.160233
19.16023
19.16021
19.160179
19.160199
19.160198
19.160199
19.160206
19.160216
19.160225
19.160222
19.160203
19.160172
19.160191
19.16019
19.16019
19.160196
19.160206
19.160214
19.160211
19.160192
19.160162
19.16018
19.160179
19.16018
19.160185
19.160194
19.160201
19.160197
19.160178
19.16015
19.160169
19.160168
19.160168
19.160172
19.160179
19.160185
19.160181
19.160163
19.160136
19.160158
19.160157
19.160156
19.160159
19.160165
19.160169
19.160165
19.160148
19.160123
19.160149
19.160147
19.160147
19.160149
19.160154
19.160156
19.160151
19.160135
19.160114
19.160141
19.16014
19.160139
19.160141
19.160145
19.160147
19.160142
19.160129
19.16011
19.160137
19.160135
19.160134
19.160136
19.16014
19.160141
19.160137
19.160125
19.160109
19.160136
19.160135
19.160134
19.160135
19.160137
19.160138
19.160134
19.160123
19.160111
19.160137
19.160135
19.160134
19.160134
19.160135
19.160135
19.160131
19.160122
19.160112
17.839048
17.839048
17.839049
17.839048
17.839046
17.839044
17.839042
17.839041
17.839044
17.839051
17.839052
17.839052
17.839051
17.83905
17.839048
17.839047
17.839049
17.839052
17.839049
17.839049
17.83905
17.839049
17.839048
17.839048
17.839049
17.839052
17.839057
17.839044
17.839045
17.839046
17.839045
17.839045
17.839045
17.839047
17.839052
17.839057
17.839038
17.839039
17.83904
17.83904
17.839039
17.83904
17.839043
17.839049
17.839056
17.83903
17.839031
17.839032
17.839032
17.839032
17.839032
17.839034
17.839042
17.839051
17.83902
17.839022
17.839023
17.839023
17.839022
17.839021
17.839024
17.839032
17.839043
17.839011
17.839013
17.839014
17.839014
17.839012
17.839011
17.839014
17.839022
17.839035
17.839003
17.839004
17.839006
17.839005
17.839003
17.839002
17.839005
17.839014
17.839027
17.838996
17.838998
17.838999
17.838998
17.838996
17.838995
17.838998
17.839008
17.839021
17.838991
17.838993
17.838994
17.838993
17.838991
17.83899
17.838993
17.839003
17.839017
17.838989
17.83899
17.838991
17.83899
17.838988
17.838987
17.838991
17.839001
17.839015
17.838988
17.83899
17.838991
17.83899
17.838988
17.838987
17.83899
17.839001
17.839015
17.83899
17.838992
17.838993
17.838992
17.83899
17.838989
17.838992
17.839003
17.839017
17.838995
17.838996
17.838997
17.838996
17.838994
17.838993
17.838997
17.839007
17.839021
17.839001
17.839002
17.839003
17.839003
17.839
17.838999
17.839003
17.839012
17.839026
17.839008
17.83901
17.839011
17.83901
17.839008
17.839007
17.83901
17.83902
17.839033
17.839016
17.839018
17.839018
17.839018
17.839017
17.839016
17.839019
17.839028
17.839041
17.839024
17.839025
17.839026
17.839026
17.839025
17.839025
17.839029
17.839037
17.839048
17.839031
17.839032
17.839032
17.839032
17.839031
17.839032
17.839036
17.839043
17.839052
17.839035
17.839036
17.839036
17.839036
17.839035
17.839035
17.839038
17.839044
17.839052
17.839038
17.839038
17.839039
17.839038
17.839037
17.839036
17.839038
17.839042
17.839049
17.839038
17.839039
17.839039
17.839038
17.839037
17.839035
17.839035
17.839037
17.839043
17.839034
17.839034
17.839034
17.839034
17.839032
17.83903
17.839027
17.839028
17.839032
16.517813
16.517812
16.517812
16.517812
16.517812
16.517812
16.517813
16.517813
16.517813
16.517812
16.517811
16.517811
16.517811
16.517811
16.517811
16.517811
16.517811
16.517811
16.517811
16.517811
16.517811
16.517811
16.517812
16.517812
16.517811
16.517811
16.517811
16.517812
16.517812
16.517812
16.517813
16.517813
16.517814
16.517814
16.517814
16.517813
16.517814
16.517814
16.517814
16.517815
16.517816
16.517817
16.517818
16.517818
16.517817
16.517815
16.517815
16.517816
16.517816
16.517818
16.517819
16.517821
16.517821
16.517821
16.517817
16.517817
16.517817
16.517818
16.51782
16.517822
16.517824
16.517824
16.517824
16.517818
16.517818
16.517819
16.51782
16.517822
16.517824
16.517826
16.517828
16.517827
16.517819
16.517819
16.51782
16.517821
16.517823
16.517826
16.517829
16.51783
16.51783
16.51782
16.51782
16.517821
16.517822
16.517824
16.517828
16.517831
16.517832
16.517832
16.517821
16.517821
16.517821
16.517823
16.517825
16.517829
16.517832
16.517833
16.517833
16.517821
16.517821
16.517822
16.517823
16.517826
16.517829
16.517832
16.517834
16.517834
16.517821
16.517821
16.517821
16.517823
16.517825
16.517829
16.517832
16.517834
16.517834
16.51782
16.51782
16.517821
16.517822
16.517824
16.517828
16.517831
16.517833
16.517833
16.517819
16.517819
16.517819
16.517821
16.517823
16.517826
16.517829
16.517831
16.517831
16.517817
16.517817
16.517818
16.517819
16.517821
16.517824
16.517827
16.517828
16.517829
16.517815
16.517815
16.517815
16.517816
16.517818
16.517821
16.517823
16.517825
16.517825
16.517813
16.517813
16.517813
16.517814
16.517815
16.517818
16.51782
16.517821
16.517822
16.51781
16.51781
16.51781
16.517811
16.517812
16.517814
16.517816
16.517817
16.517818
16.517807
16.517807
16.517807
16.517808
16.517808
16.51781
16.517811
16.517812
16.517813
16.517804
16.517804
16.517804
16.517804
16.517805
16.517806
16.517806
16.517807
16.517808
16.517802
16.517801
16.517801
16.517801
16.517801
16.517802
16.517802
16.517803
16.517804
16.5178
16.5178
16.5178
16.5178
16.5178
16.517799
16.5178
16.517801
16.517802
16.5178
16.5178
16.517799
16.517799
16.517799
16.517799
16.5178
16.517801
16.517802
15.196209
15.196209
15.196209
15.196209
15.196209
15.196209
15.196208
15.196207
15.196206
15.196208
15.196208
15.196208
15.196208
15.196208
15.196208
15.196207
15.196206
15.196204
15.196205
15.196206
15.196206
15.196206
15.196206
15.196206
15.196205
15.196204
15.196203
15.196203
15.196203
15.196204
15.196204
15.196204
15.196204
15.196203
15.196202
15.196201
15.196201
15.196201
15.196202
15.196202
15.196202
15.196202
15.196202
15.1962
15.196199
15.196199
15.196199
15.196199
15.1962
15.1962
15.1962
15.1962
15.196198
15.196197
15.196197
15.196197
15.196198
15.196198
15.196198
15.196198
15.196198
15.196197
15.196196
15.196195
15.196196
15.196196
15.196196
15.196197
15.196197
15.196196
15.196195
15.196194
15.196194
15.196194
15.196194
15.196195
15.196195
15.196195
15.196195
15.196194
15.196193
15.196192
15.196193
15.196193
15.196193
15.196194
15.196194
15.196193
15.196193
15.196192
15.196191
15.196192
15.196192
15.196192
15.196192
15.196192
15.196192
15.196192
15.196191
15.196191
15.196191
15.196191
15.196192
15.196192
15.196192
15.196191
15.196191
15.19619
15.196191
15.196191
15.196191
15.196191
15.196191
15.196191
15.196191
15.196191
15.19619
15.196191
15.196191
15.196191
15.196191
15.196192
15.196192
15.196191
15.196191
15.196191
15.196191
15.196191
15.196192
15.196192
15.196192
15.196192
15.196192
15.196192
15.196191
15.196192
15.196192
15.196192
15.196193
15.196193
15.196193
15.196193
15.196192
15.196192
15.196193
15.196193
15.196193
15.196193
15.196194
15.196194
15.196194
15.196193
15.196193
15.196194
15.196194
15.196194
15.196194
15.196195
15.196195
15.196194
15.196194
15.196194
15.196195
15.196195
15.196195
15.196195
15.196195
15.196196
15.196195
15.196195
15.196195
15.196196
15.196196
15.196196
15.196196
15.196196
15.196196
15.196196
15.196196
15.196196
15.196197
15.196197
15.196197
15.196197
15.196197
15.196197
15.196197
15.196197
15.196196
15.196197
15.196197
15.196197
15.196198
15.196198
15.196198
15.196198
15.196197
15.196197
15.196198
15.196198
15.196198
15.196198
15.196198
15.196198
15.196198
15.196197
15.196197
15.196199
15.196199
15.196199
15.196199
15.196199
15.196198
15.196198
15.196197
15.196197
13.874929
13.874929
13.874928
13.874928
13.874928
13.874928
13.874928
13.874929
13.874929
13.874927
13.874927
13.874927
13.874927
13.874927
13.874927
13.874927
13.874928
13.874928
13.874926
13.874926
13.874926
13.874926
13.874926
13.874926
13.874926
13.874927
13.874927
13.874924
13.874924
13.874925
13.874925
13.874925
13.874925
13.874925
13.874925
13.874926
13.874923
13.874923
13.874923
13.874923
13.874923
13.874923
13.874924
13.874925
13.874925
13.874922
13.874922
13.874922
13.874922
13.874922
13.874922
13.874923
13.874924
13.874925
13.874921
13.874921
13.874921
13.874921
13.874921
13.874921
13.874922
13.874923
13.874924
13.87492
13.87492
13.87492
13.87492
13.87492
13.87492
13.874921
13.874922
13.874924
13.874919
13.874919
13.874919
13.874919
13.874919
13.87492
13.874921
13.874922
13.874923
13.874919
13.874919
13.874919
13.874919
13.874919
13.87492
13.874921
13.874922
13.874923
13.874919
13.874919
13.874919
13.874919
13.874919
13.874919
13.87492
13.874922
13.874922
13.874918
13.874918
13.874918
13.874918
13.874919
13.874919
13.87492
13.874921
13.874922
13.874918
13.874918
13.874918
13.874918
13.874918
13.874919
13.87492
13.874921
13.874922
13.874918
13.874918
13.874918
13.874918
13.874918
13.874919
13.87492
13.874921
13.874922
13.874918
13.874918
13.874918
13.874918
13.874918
13.874918