/*--------------------------------*- C++ -*----------------------------------*\
| =========                 |                                                 |
| \\      /  F ield         | OpenFOAM: The Open Source CFD Toolbox           |
|  \\    /   O peration     | Version:  2406                                  |
|   \\  /    A nd           | Website:  www.openfoam.com                      |
|    \\/     M anipulation  |                                                 |
\*---------------------------------------------------------------------------*/
FoamFile
{
    version     2.0;
    format      ascii;
    arch        "LSB;label=32;scalar=64";
    class       surfaceScalarField;
    location    "10.25";
    object      phi;
}
// * * * * * * * * * * * * * * * * * * * * * * * * * * * * * * * * * * * * * //

dimensions      [0 3 -1 0 0 0 0];

oriented        oriented;

internalField   nonuniform List<scalar> 
101088
(
0.00013832611
-2.3076456e-05
1.7652814e-05
2.0072679e-05
0.00028875306
-9.864762e-05
7.536917e-05
8.6923709e-05
0.00042765707
-0.00023532199
0.0001783193
0.00020925962
0.00052477346
-0.00044107359
0.0003285708
0.00039579717
0.00056058428
-0.000690233
0.00049864752
0.00062628954
0.00054573479
-0.00091744884
0.00063199655
0.00084232862
0.00051659862
-0.0010542385
0.00067730395
0.00097888409
0.00050498768
-0.0010721714
0.00062748486
0.0010060866
-0.0009847661
0.00051673517
0.00093094711
0.00052072256
0.00016816322
-2.5510967e-05
2.1926607e-05
0.00034660643
-0.00010759763
9.2763718e-05
0.00050330339
-0.00025342622
0.00021764041
0.00059852785
-0.00046858487
0.00039733742
0.00060970831
-0.00072316582
0.00059724735
0.00055448141
-0.00094858275
0.00075135105
0.00048168685
-0.0010781033
0.00080439965
0.00042992107
-0.0010841279
0.00075150504
-0.00098470557
0.00063058554
0.00040927966
0.00019792573
-2.7067528e-05
2.6287611e-05
0.00040340849
-0.00011270899
0.00011028288
0.00057692038
-0.00026246736
0.00025667935
0.0006718747
-0.00047923593
0.00046440293
0.00066430398
-0.00072899621
0.00069138925
0.0005780677
-0.00094186487
0.00086272888
0.00047045914
-0.0010555995
0.00092026502
0.00038629655
-0.0010470792
0.00086273468
-0.00093808696
0.00073209366
0.00033701003
0.0002268074
-2.7681315e-05
3.062593e-05
0.00045823277
-0.0001139134
0.00012747753
0.00064766846
-0.00026249855
0.00029448172
0.00074257085
-0.00047361944
0.00052838609
0.00071903547
-0.00071004959
0.00077979137
0.00060754915
-0.00090223026
0.00096568932
0.00047221038
-0.00099362039
0.0010258633
0.00036252975
-0.00096885244
0.0009627697
-0.00085422467
0.00082218306
0.00029213385
0.00025393814
-2.7160075e-05
3.477082e-05
0.00050930148
-0.00011088571
0.00014378854
0.00071319325
-0.00025358356
0.00033011397
0.00080813256
-0.00045300055
0.00058831161
0.00077081446
-0.00066950276
0.00086202886
0.00063790571
-0.00083494337
0.0010607586
0.0004793868
-0.00089917468
0.0011225347
0.00034896152
-0.00085763647
0.0010533798
-0.00074129033
0.00090275799
0.00026186188
0.00027923694
-2.5817783e-05
3.8696014e-05
0.00055716746
-0.00010467047
0.00015914779
0.00077500415
-0.00023769013
0.00036352593
0.00087043701
-0.00042031835
0.00064434239
0.00082033761
-0.00061115721
0.00093873656
0.00066709244
-0.0007447485
0.0011491361
0.00048700797
-0.00077852854
0.0012117768
0.00033828425
-0.00072122899
0.0011362307
-0.00060803321
0.0009755463
0.0002378742
0.00030142027
-2.3591537e-05
4.232629e-05
0.00059834819
-9.5182902e-05
0.00017332195
0.00082656691
-0.00021499364
0.00039433659
0.00091946334
-0.00037657514
0.00069610639
0.00085461631
-0.00053776056
0.0010097874
0.00068063969
-0.00063693863
0.0012309612
0.0004811658
-0.00064042771
0.0012940673
0.00031835574
-0.00057085568
0.0012122063
-0.00046597533
0.0010417532
0.00020949597
0.00032021083
-2.0496466e-05
4.5595646e-05
0.00063230886
-8.2476702e-05
0.00018617035
0.00086668653
-0.00018562394
0.00042252563
0.0009525066
-0.00032225643
0.00074392768
0.00086869972
-0.00045127643
0.0010760622
0.00067176282
-0.00051657452
0.0013075063
0.00045448568
-0.00049447133
0.0013709101
0.00028205369
-0.00041898689
0.0012827869
-0.00032808632
0.001102882
0.00017037895
0.00033526012
-1.6517355e-05
4.8453868e-05
0.00065821043
-6.6439906e-05
0.00019754874
0.00089368453
-0.00014923009
0.00044789834
0.00096653629
-0.00025698807
0.00078771574
0.00085832386
-0.00035279745
0.001137414
0.0006360908
-0.0003887552
0.0013786146
0.00040355185
-0.00035123909
0.0014423592
0.00022716603
-0.00027916296
0.0013482386
-0.00020709728
0.0011593842
0.0001183237
0.00034643068
-1.1713583e-05
5.0817125e-05
0.00067602652
-4.7110646e-05
0.00020711791
0.00090801637
-0.00010559662
0.00046965829
0.00096298112
-0.00018046927
0.00082609189
0.00082641953
-0.00024320197
0.0011917038
0.00057853773
-0.0002581234
0.0014415867
0.00033451555
-0.00021966113
0.0015055255
0.00015964954
-0.00016210551
0.0014062254
-0.00011261336
0.001209723
5.822391e-05
0.00035350198
-6.1063836e-06
5.2580553e-05
0.00068575716
-2.4538123e-05
0.00021429777
0.00091133529
-5.4931563e-05
0.00048612696
0.00094759979
-9.3420034e-05
0.00085547781
0.00078424379
-0.00012427839
0.0012338766
0.00051498188
-0.00012814671
0.0014902859
0.00026436178
-0.00010386937
0.0015543807
9.468313e-05
-7.173007e-05
0.0014518812
-4.6809199e-05
0.0012494206
2.6627532e-06
0.00035698027
1.1928942e-11
5.3471802e-05
0.00069013482
-4.8503903e-11
0.00021803908
0.0009112246
-2.7437841e-10
0.00049497354
0.00093557754
-6.3524412e-10
0.00087171734
0.00075554494
-1.2566541e-09
0.0012576437
0.00047352221
-1.9317553e-09
0.0015182873
0.00021992322
-2.4226698e-09
0.0015825679
5.4427453e-05
-2.6573715e-09
0.0014784389
-2.4529737e-09
0.0012722496
-3.1233781e-05
0.00035698001
6.1063754e-06
5.3471791e-05
0.0006901344
2.4537958e-05
0.00021803903
0.00091122455
5.4930971e-05
0.00049497343
0.00093557728
9.3418757e-05
0.00087171712
0.00075554482
0.00012427592
0.0012576434
0.00047352215
0.00012814292
0.001518287
0.0002199232
0.00010386454
0.0015825676
5.4427531e-05
7.1724744e-05
0.0014784386
4.6804349e-05
0.0012722494
-3.1233683e-05
0.00035350159
1.1713543e-05
5.2580545e-05
0.00068575663
4.7110427e-05
0.00021429773
0.00091133559
0.00010559606
0.00048612684
0.00094759927
0.00018046805
0.00085547752
0.00078424354
0.00024319964
0.0012338763
0.00051498169
0.00025811982
0.0014902855
0.0002643617
0.00021965633
0.0015543802
9.4683379e-05
0.00016210017
0.0014518807
0.00011260864
0.00124942
2.6630367e-06
0.00034643035
1.6517359e-05
5.0817103e-05
0.00067602605
6.6439814e-05
0.00020711782
0.00090801653
0.00014922975
0.00046965804
0.00096298001
0.00025698693
0.0008260914
0.00082641885
0.00035279531
0.0011917033
0.00057853705
0.00038875191
0.001441586
0.00033451525
0.00035123441
0.0015055248
0.00015964995
0.00027915772
0.0014062246
0.00020709269
0.0012097222
5.8224326e-05
0.0003352597
2.0496468e-05
4.8453851e-05
0.00065820938
8.2476654e-05
0.00019754867
0.00089368385
0.00018562365
0.00044789818
0.00096653487
0.00032225539
0.00078771542
0.00085832282
0.00045127474
0.0011374137
0.0006360895
0.00051657181
0.0013786141
0.00040355128
0.00049446732
0.0014423587
0.0002271665
0.0004189823
0.001348238
0.00032808184
0.0011593834
0.00011832402
0.00032021049
2.3591575e-05
4.5595641e-05
0.00063230763
9.5183014e-05
0.00018617033
0.00086668554
0.00021499358
0.00042252557
0.00095250556
0.00037657453
0.00074392752
0.00086869839
0.00053775935
0.001076062
0.00067176109
0.0006369366
0.001307506
0.00045448494
0.00064042504
0.0013709098
0.00028205397
0.00057085236
0.0012827864
0.00046597088
0.0011028814
0.00017037905
0.0003014203
2.5817791e-05
4.2326289e-05
0.00059834765
0.00010467046
0.00017332195
0.00082656635
0.00023768989
0.00039433659
0.00091946283
0.00042031752
0.00069610633
0.00085461491
0.00061115554
0.0010097873
0.00068063805
0.00074474673
0.0012309611
0.00048116492
0.00077852701
0.0012940671
0.0003183553
0.00072122674
0.001212206
0.0006080288
0.0010417528
0.0002094959
0.00027923678
2.7159993e-05
3.8696019e-05
0.00055716679
0.00011088544
0.00015914782
0.00077500357
0.00025358322
0.00036352602
0.00087043707
0.00045300004
0.00064434257
0.00082033724
0.00066950168
0.00093873664
0.00066709169
0.00083494218
0.0011491362
0.00048700706
0.00089917337
0.0012117767
0.00033828307
0.0008576345
0.0011362306
0.00074128688
0.00097554598
0.00023787387
0.00025393799
2.7681249e-05
3.4770818e-05
0.00050930105
0.00011391319
0.00014378853
0.00071319284
0.00026249814
0.00033011395
0.00080813275
0.00047361867
0.00058831156
0.00077081441
0.00071004815
0.00086202863
0.00063790501
0.00090222829
0.0010607584
0.0004793856
0.00099361865
0.0011225345
0.00034896033
0.000968851
0.0010533797
0.00085422332
0.00090275767
0.00026186075
0.00022680726
2.7067438e-05
3.0625919e-05
0.0004582323
0.00011270867
0.00012747748
0.00064766806
0.00026246667
0.00029448161
0.00074257117
0.00047923475
0.00052838594
0.00071903563
0.00072899432
0.00077979119
0.00060754861
0.00094186223
0.00096568905
0.00047220944
0.0010555975
0.0010258631
0.00036252938
0.0010470794
0.0009627695
0.00093808755
0.00082218282
0.0002921321
0.00019792557
2.551089e-05
2.62876e-05
0.00040340802
0.00010759737
0.00011028284
0.0005769198
0.00025342566
0.00025667924
0.00067187441
0.00046858396
0.00046440276
0.00066430367
0.00072316453
0.00069138907
0.00057806711
0.00094858072
0.00086272863
0.00047045832
0.0010781007
0.00092026467
0.00038629545
0.0010841269
0.00086273431
0.00098470739
0.00073209349
0.00033700793
0.00016816316
2.3076443e-05
2.1926604e-05
0.00034660612
9.8647564e-05
9.2763702e-05
0.00050330295
0.00023532183
0.00021764036
0.00059852751
0.00044107336
0.00039733735
0.00060970751
0.00069023267
0.0005972473
0.00055447938
0.00091744759
0.00075135104
0.00048168307
0.0010542367
0.00080439949
0.00042991673
0.00107217
0.00075150497
0.00098476672
0.00063058538
0.00040927605
0.00013832605
1.7652814e-05
2.0072683e-05
0.00028875281
7.5369167e-05
8.692374e-05
0.00042765675
0.00017831929
0.00020925972
0.00052477292
0.00032857078
0.00039579746
0.00056058267
0.0004986475
0.00062629002
0.00054573163
0.00063199657
0.00084232904
0.00051659284
0.00067730395
0.00097888387
0.00050498352
0.00062748494
0.0010060851
0.00051673503
0.00093094487
0.00052072098
2.3516573e-06
-4.2926902e-06
1.6619509e-05
2.9743302e-06
1.0504509e-05
-2.1376518e-05
7.317844e-05
1.5414282e-05
2.7278991e-05
-5.9779276e-05
0.00017690085
4.4422858e-05
5.5461051e-05
-0.00013298808
0.00033181699
0.00010155906
9.3740783e-05
-0.00024635541
0.00051338359
0.00019333861
0.00013528855
-0.00038029251
0.00066472318
0.00030601735
0.00017551063
-0.00049322088
0.00072725776
0.00040304462
0.00021399321
-0.00055180094
0.00068503904
0.00045576398
-0.0005475794
0.00056923151
0.00045901585
0.00025006094
3.1159133e-06
-5.4668441e-06
1.9984859e-05
1.3839472e-05
-2.7044169e-05
8.7707955e-05
3.5144513e-05
-7.4647017e-05
0.00021120336
6.8459268e-05
-0.00016296921
0.00039400389
0.00010907645
-0.0002953291
0.0006056042
0.00014703991
-0.00044626307
0.00077935933
0.00017692848
-0.00056927274
0.00085056451
0.00020074561
-0.00062924933
0.00080513727
-0.00061767758
0.00067965794
0.00022177149
4.1679184e-06
-6.5778075e-06
2.3230629e-05
1.8033839e-05
-3.2311927e-05
0.00010168469
4.438283e-05
-8.8302261e-05
0.00024398523
8.3115494e-05
-0.00018997902
0.00045267899
0.00012615602
-0.00033782052
0.00069083913
0.00016065735
-0.00050036548
0.00088232936
0.00018119192
-0.00062725373
0.00095771161
0.0001926134
-0.0006843311
0.00090639601
-0.00066461633
0.00077140591
0.00020023924
5.3986751e-06
-7.6478474e-06
2.6297402e-05
2.2974675e-05
-3.7228274e-05
0.00011481803
5.5171337e-05
-0.00010057916
0.00027456155
9.9882299e-05
-0.00021312861
0.00050682391
0.00014551162
-0.00037199229
0.0007683349
0.00017682009
-0.00054017275
0.00097418921
0.00018902094
-0.00066487499
0.0010512852
0.00018968839
-0.00071512525
0.00099289702
-0.00068676152
0.00084821915
0.00018579709
6.6229232e-06
-8.5557525e-06
2.9056035e-05
2.7921758e-05
-4.1394799e-05
0.00012665695
6.597438e-05
-0.00011064506
0.00030212759
0.00011671848
-0.00023107976
0.00055551773
0.00016516849
-0.00039602549
0.00083761192
0.00019376804
-0.00056351473
0.0010555022
0.00019858431
-0.00068024572
0.0011330896
0.00018967739
-0.0007201531
0.0010673156
-0.00068344691
0.00091309194
0.00017602915
7.9292938e-06
-9.3227522e-06
3.1533699e-05
3.3162412e-05
-4.4771245e-05
0.00013729122
7.7456454e-05
-0.00011828085
0.00032686784
0.0001345721
-0.00024297728
0.00059912523
0.00018598847
-0.00040808071
0.00089937653
0.00021171895
-0.00056753977
0.0011274317
0.0002089619
-0.00067039363
0.0012046819
0.00019082712
-0.00069733218
0.0011315447
-0.00065355568
0.00096805695
0.00016842558
9.0068791e-06
-9.7317527e-06
3.3728776e-05
3.7321459e-05
-4.6458749e-05
0.00014669521
8.6518125e-05
-0.00012186061
0.00034871895
0.00014813863
-0.00024607966
0.00063758851
0.00020053828
-0.00040436148
0.00095367034
0.00022220232
-0.00054840827
0.0011901664
0.00021203496
-0.000632631
0.0012664716
0.00018635312
-0.00064575989
0.0011863151
-0.0005974445
0.0010143098
0.00015768588
9.8666349e-06
-9.6190357e-06
3.5616816e-05
4.0344784e-05
-4.5603195e-05
0.00015483742
9.1798329e-05
-0.000118568
0.00036777943
0.00015483568
-0.00023659239
0.00067140323
0.00020494967
-0.0003799809
0.0010015683
0.00022038683
-0.00050158145
0.0012452422
0.00020292088
-0.00056435485
0.0013200993
0.0001717262
-0.00056507226
0.0012332932
-0.00051591398
0.0010535303
0.00013954817
1.0459475e-05
-8.8269476e-06
3.7202392e-05
4.2082328e-05
-4.1421041e-05
0.00016174406
9.3753665e-05
-0.0001064635
0.00038412275
0.00015328505
-0.00020916995
0.00070076268
0.00019569034
-0.00032849148
0.0010435193
0.0002018188
-0.00042242764
0.0012933319
0.00017747075
-0.00046400266
0.0013663549
0.00014311762
-0.0004558182
0.0012733376
-0.00041042687
0.0010866451
0.00011037025
1.0507845e-05
-6.999792e-06
3.8481929e-05
4.1264782e-05
-3.2439633e-05
0.00016737967
8.9248668e-05
-8.2392919e-05
0.00039760412
0.0001407655
-0.00015979672
0.00072520263
0.00017215862
-0.00024684265
0.0010786617
0.00016631043
-0.00030855884
0.0013335657
0.00013547111
-0.00033228653
0.0014046491
9.8793105e-05
-0.00031905179
0.0013061371
-0.00028308128
0.0011135416
6.7629051e-05
1.0072029e-05
-3.9566728e-06
3.9465334e-05
3.8426558e-05
-1.8133428e-05
0.00017163727
8.0071864e-05
-4.5584213e-05
0.00040767337
0.00011990706
-8.7457667e-05
0.00074330411
0.00013608685
-0.00013360539
0.0011044594
0.00011988263
-0.00016491655
0.0013628478
8.321131e-05
-0.00017349509
0.0014322615
4.967102e-05
-0.00016322031
0.0013295901
-0.00014458715
0.0011326364
2.7960794e-05
9.5806731e-06
5.9511018e-11
3.9934414e-05
3.5730722e-05
1.8562636e-10
0.00017375553
7.2274044e-05
2.9874533e-10
0.00041284608
0.00010371453
3.0930259e-10
0.00075281921
0.00010956578
1.6070881e-10
0.0011181872
8.4394514e-05
2.7747407e-10
0.0013785421
4.6435997e-05
7.4420354e-10
0.0014470315
1.9520109e-05
8.9599619e-10
0.0013421334
8.4342256e-10
0.0011428517
4.3295238e-06
9.5806378e-06
3.9567669e-06
3.9934406e-05
3.5730534e-05
1.8133737e-05
0.0001737555
7.2273937e-05
4.5584739e-05
0.000412846
0.0001037144
8.7458258e-05
0.00075281905
0.00010956587
0.00013360578
0.001118187
8.4394647e-05
0.00016491716
0.0013785418
4.6435905e-05
0.00017349643
0.0014470313
1.9519959e-05
0.00016322188
0.0013421332
0.00014458883
0.0011428516
4.3293268e-06
1.0072045e-05
6.9998585e-06
3.9465329e-05
3.8426287e-05
3.2439867e-05
0.00017163725
8.0071771e-05
8.239334e-05
0.0004076733
0.0001199067
0.00015979725
0.00074330393
0.00013608692
0.00024684315
0.0011044592
0.00011988286
0.00030855943
0.0013628476
8.3211076e-05
0.00033228741
0.0014322611
4.9670708e-05
0.00031905288
0.0013295898
0.00028308295
0.0011326361
2.7960392e-05
1.0507983e-05
8.8270324e-06
3.8481914e-05
4.1264731e-05
4.1421297e-05
0.0001673796
8.9248761e-05
0.00010646389
0.00039760396
0.00014076486
0.00020917037
0.0007252023
0.00017215822
0.00032849198
0.0010786613
0.00016631021
0.00042242806
0.0013335653
0.0001354706
0.00046400297
0.0014046487
9.8792911e-05
0.00045581877
0.0013061367
0.00041042841
0.0011135412
6.7628814e-05
1.0459413e-05
9.6191061e-06
3.7202379e-05
4.2081968e-05
4.5603364e-05
0.00016174401
9.3753429e-05
0.00011856821
0.00038412264
0.00015328405
0.0002365926
0.00070076245
0.00019568931
0.00037998132
0.0010435191
0.00020181797
0.00050158184
0.0012933316
0.00017747001
0.00056435511
0.0013663547
0.00014311762
0.00056507271
0.0012733372
0.00051591502
0.0010866446
0.00011037009
9.8662059e-06
9.7317395e-06
3.5616811e-05
4.0343756e-05
4.6458667e-05
0.0001548374
9.1797702e-05
0.00012186053
0.00036777941
0.00015483488
0.00024607973
0.00067140315
0.00020494838
0.00040436181
0.0010015682
0.00022038558
0.00054840887
0.001245242
0.00020292003
0.00063263178
0.0013200991
0.00017172626
0.00064576052
0.001233293
0.00059744451
0.0010535299
0.00013954783
9.006529e-06
9.3227225e-06
3.3728777e-05
3.7320749e-05
4.4771185e-05
0.00014669522
8.6518226e-05
0.00011828092
0.00034871898
0.00014813868
0.00024297744
0.00063758851
0.00020053725
0.00040808076
0.00095367027
0.000222201
0.00056754031
0.0011901663
0.00021203399
0.00067039465
0.0012664715
0.00018635274
0.00069733281
0.0011863149
0.00065355489
0.0010143095
0.00015768526
7.9293187e-06
8.5557563e-06
3.1533704e-05
3.3162387e-05
4.1394829e-05
0.00013729125
7.7456727e-05
0.00011064508
0.0003268679
0.00013457224
0.00023107961
0.00059912531
0.00018598805
0.00039602535
0.00089937659
0.00021171792
0.00056351507
0.0011274317
0.00020896084
0.00068024641
0.001204682
0.0001908261
0.00072015344
0.0011315446
0.0006834464
0.00096805675
0.00016842491
6.6228128e-06
7.6478196e-06
2.9056032e-05
2.7921225e-05
3.7228185e-05
0.00012665694
6.5973898e-05
0.00010057898
0.00030212755
0.00011671886
0.00021312847
0.00055551768
0.00016516859
0.0003719922
0.00083761183
0.00019376727
0.00054017264
0.001055502
0.00019858323
0.00066487548
0.0011330895
0.00018967619
0.00071512557
0.0010673155
0.00068676175
0.00091309168
0.00017602812
5.3986164e-06
6.5777899e-06
2.6297394e-05
2.2974464e-05
3.2311885e-05
0.00011481799
5.5171366e-05
8.8302187e-05
0.00027456148
9.9883035e-05
0.00018997887
0.0005068238
0.00014551187
0.00033782006
0.00076833472
0.00017681999
0.00050036523
0.00097418898
0.00018902006
0.00062725426
0.001051285
0.00018968757
0.0006843323
0.00099289679
0.00066461762
0.00084821895
0.00018579573
4.1679014e-06
5.4668367e-06
2.323062e-05
1.8033578e-05
2.7044166e-05
0.00010168465
4.4382442e-05
7.4647041e-05
0.00024398513
8.3115635e-05
0.00016296932
0.00045267882
0.00012615654
0.00029532941
0.00069083892
0.00016065767
0.00044626365
0.00088232912
0.00018119183
0.00056927326
0.00095771129
0.00019261277
0.00062924914
0.00090639566
0.00061767878
0.00077140572
0.00020023769
3.1158353e-06
4.2926934e-06
1.9984857e-05
1.3839145e-05
2.1376552e-05
8.7707941e-05
3.5144124e-05
5.9779385e-05
0.00021120332
6.8459416e-05
0.00013298838
0.00039400383
0.0001090768
0.00024635594
0.00060560413
0.00014703947
0.00038029287
0.00077935929
0.00017692733
0.00049322122
0.00085056439
0.00020074408
0.0005518006
0.00080513715
0.00054757925
0.00067965777
0.00022176908
2.3515615e-06
1.661951e-05
2.9743433e-06
1.0504236e-05
7.3178439e-05
1.5414356e-05
2.7278804e-05
0.00017690084
4.4423078e-05
5.5461186e-05
0.00033181697
0.00010155957
9.3740768e-05
0.00051338357
0.00019333957
0.00013528835
0.00066472321
0.00030601885
0.00017550911
0.00072725777
0.00040304623
0.0002139914
0.00068503917
0.00045576432
0.00056923148
0.0004590157
0.00025005988
2.1178859e-07
-1.5901771e-06
1.6601256e-05
1.3966365e-06
1.5472113e-06
-8.0378082e-06
7.2845961e-05
7.0348431e-06
4.905031e-06
-2.2988639e-05
0.00017665592
1.9875623e-05
1.0618736e-05
-5.2852568e-05
0.00033388032
4.5075162e-05
1.8960679e-05
-0.00010249433
0.00052066587
8.6869362e-05
3.0809718e-05
-0.00016677888
0.00067760167
0.00014205046
4.8018388e-05
-0.00022614323
0.00074114542
0.00019504663
7.1996807e-05
-0.00025969576
0.00069363985
0.00022711642
-0.00025924441
0.00057061089
0.00023000127
9.9860785e-05
2.5644806e-07
-1.7103545e-06
1.9848635e-05
1.9888639e-06
-8.863337e-06
8.6801299e-05
6.2106347e-06
-2.5831535e-05
0.00020982493
1.2665079e-05
-6.0148071e-05
0.00039484531
2.0432808e-05
-0.00011701026
0.00061235269
2.9089774e-05
-0.0001887577
0.00079268227
4.0108076e-05
-0.00025168226
0.00086508669
5.5603569e-05
-0.00028354495
0.00081349155
-0.00027906533
0.00067929802
7.5784566e-05
3.8669441e-07
-1.8107064e-06
2.2944292e-05
2.7348027e-06
-9.590813e-06
0.00010006414
8.1827827e-06
-2.8448711e-05
0.00024115435
1.5962087e-05
-6.6967904e-05
0.00045171883
2.3881887e-05
-0.00013020641
0.00069611471
3.0083174e-05
-0.0002073347
0.00089470494
3.5728523e-05
-0.00027073302
0.00097111676
4.4035203e-05
-0.00029820526
0.00091275064
-0.00028853219
0.00076804838
5.6859034e-05
5.8035149e-07
-1.9151248e-06
2.582156e-05
3.7832448e-06
-1.0299771e-05
0.00011232425
1.0880034e-05
-3.0897786e-05
0.00026991364
2.0467508e-05
-7.3109713e-05
0.00050337776
2.8968261e-05
-0.00014139865
0.0007710276
3.3185134e-05
-0.00022143153
0.00098406987
3.4271782e-05
-0.00028231505
0.0010617818
3.6664892e-05
-0.00030339657
0.00099569592
-0.00028800005
0.00084092234
4.3429386e-05
7.9837413e-07
-2.0107203e-06
2.8353447e-05
4.9068589e-06
-1.0884464e-05
0.00012313387
1.3805824e-05
-3.2948405e-05
0.00029527978
2.5482407e-05
-7.8094802e-05
0.00054882567
3.4919851e-05
-0.00014971944
0.00083649521
3.7568702e-05
-0.00022988795
0.0010613105
3.4765301e-05
-0.00028550957
0.0011390878
3.2223291e-05
-0.00029890904
0.0010653711
-0.00027820507
0.00090123231
3.4288464e-05
1.0898787e-06
-2.1355937e-06
3.0568652e-05
6.3412387e-06
-1.1426942e-05
0.00013258228
1.7362093e-05
-3.4515155e-05
0.00031741374
3.1564315e-05
-8.1517225e-05
0.00058834655
4.2281177e-05
-0.00015414691
0.00089308783
4.3516423e-05
-0.00023119181
0.0011275013
3.6976485e-05
-0.00027896075
0.0012046734
2.994711e-05
-0.00028415939
0.001123825
-0.00025947006
0.00095112054
2.8149002e-05
1.4067251e-06
-2.2711351e-06
3.2457983e-05
7.9051466e-06
-1.1840413e-05
0.00014061059
2.083315e-05
-3.4894459e-05
0.00033616948
3.7092015e-05
-8.1894491e-05
0.00062170719
4.855027e-05
-0.000152549
0.00094061521
4.8016852e-05
-0.00022317703
0.0011826858
3.793842e-05
-0.00026132783
0.0012589172
2.7285348e-05
-0.00025901276
0.0011718214
-0.00023255112
0.00099171689
2.2959788e-05
1.6300054e-06
-2.2844701e-06
3.4000594e-05
9.0934415e-06
-1.1652095e-05
0.00014718627
2.4095295e-05
-3.3695925e-05
0.00035157887
4.1609541e-05
-7.7291848e-05
0.00064928659
5.2779929e-05
-0.00014218094
0.00098003034
4.990565e-05
-0.00020342338
0.0012283629
3.6507823e-05
-0.00023135686
0.001303526
2.3295685e-05
-0.00022350032
0.0012109928
-0.00019828605
0.001024534
1.8027613e-05
1.675505e-06
-1.96596e-06
3.5208476e-05
9.4368134e-06
-1.0031399e-05
0.00015236232
2.508577e-05
-2.9012671e-05
0.00036379055
4.3579054e-05
-6.6375441e-05
0.00067135351
5.4320044e-05
-0.00012133538
0.0010119331
4.9037788e-05
-0.00017027194
0.0012654626
3.2936532e-05
-0.00018846104
0.0013395605
1.8838101e-05
-0.00017837917
0.001242315
-0.00015789744
0.0010504373
1.4657983e-05
1.8030724e-06
-1.385553e-06
3.6098301e-05
1.0166475e-05
-7.213579e-06
0.00015619858
2.69763e-05
-2.1111199e-05
0.00037289295
4.6267201e-05
-4.8365565e-05
0.00068790224
5.5153429e-05
-8.7878829e-05
0.001036319
4.8003777e-05
-0.00012365504
0.0012940985
3.0580773e-05
-0.00013362643
0.001367238
1.9130012e-05
-0.00012678177
0.0012659909
-0.00011326731
0.0010695355
1.8506448e-05
2.0556297e-06
-7.1241444e-07
3.6736469e-05
1.1367737e-05
-3.7648293e-06
0.00015887665
2.9951076e-05
-1.1125639e-05
0.00037910482
5.1485957e-05
-2.5574113e-05
0.00069897804
6.1941064e-05
-4.6178018e-05
0.0010523036
5.2213978e-05
-6.4255688e-05
0.0013131757
3.5344459e-05
-7.0016185e-05
0.0013855214
2.4376092e-05
-6.7331886e-05
0.0012811089
-5.9310754e-05
0.0010812753
2.1780788e-05
2.2152829e-06
2.4481706e-11
3.7006686e-05
1.2127685e-05
9.0052085e-11
0.00016007832
3.1818573e-05
2.0910126e-10
0.00038202963
5.4662854e-05
3.8612647e-10
0.00070440066
6.638643e-05
6.1509737e-10
0.0010602852
5.8104977e-05
9.2132203e-10
0.0013225673
4.053013e-05
1.2339646e-09
0.0013945896
2.6779047e-05
1.1266439e-09
0.0012885516
7.0201631e-10
0.0010871404
2.3178847e-05
2.2153013e-06
7.1245673e-07
3.700668e-05
1.2127571e-05
3.7649969e-06
0.0001600783
3.1818409e-05
1.1126046e-05
0.00038202957
5.4662684e-05
2.5574911e-05
0.00070440054
6.6386332e-05
4.6179326e-05
0.0010602851
5.81049e-05
6.4257508e-05
0.0013225671
4.0529949e-05
7.0018483e-05
0.0013945895
2.6778835e-05
6.7333978e-05
0.0012885514
5.9312169e-05
0.0010871403
2.3178601e-05
2.0557119e-06
1.3855938e-06
3.6736467e-05
1.1367542e-05
7.2137473e-06
0.00015887664
2.9950809e-05
2.1111607e-05
0.00037910479
5.1485562e-05
4.8366421e-05
0.00069897797
6.1940767e-05
8.7880264e-05
0.0010523035
5.2213673e-05
0.0001236568
0.0013131756
3.5343881e-05
0.00013362836
0.0013855212
2.4375564e-05
0.00012678346
0.0012811088
0.00011326871
0.0010812751
2.1780247e-05
1.803182e-06
1.9660337e-06
3.6098291e-05
1.0166367e-05
1.0031649e-05
0.00015619853
2.6976214e-05
2.9013159e-05
0.00037289285
4.6266678e-05
6.6376342e-05
0.00068790203
5.5152861e-05
0.00012133679
0.0010363188
4.8003229e-05
0.0001702736
0.0012940982
3.0579994e-05
0.0001884627
0.0013672377
1.9129436e-05
0.0001783806
0.0012659906
0.00015789864
0.0010695352
1.8505997e-05
1.6754139e-06
2.2845437e-06
3.5208469e-05
9.4364641e-06
1.1652326e-05
0.00015236229
2.5085555e-05
3.3696351e-05
0.00036379049
4.3578302e-05
7.7292627e-05
0.00067135338
5.4319118e-05
0.00014218226
0.0010119329
4.9036941e-05
0.00020342516
0.0012654624
3.2935716e-05
0.0002313587
0.0013395603
1.8837718e-05
0.00022350176
0.0012423148
0.00019828668
0.001050437
1.4657776e-05
1.6296088e-06
2.2711548e-06
3.4000592e-05
9.0925597e-06
1.184048e-05
0.00014718627
2.4094805e-05
3.4894703e-05
0.00035157887
4.1608866e-05
8.1895207e-05
0.00064928656
5.2778956e-05
0.00015255038
0.00098003033
4.9904644e-05
0.00022317915
0.0012283628
3.6506995e-05
0.00026133012
0.0013035259
2.3295295e-05
0.00025901425
0.0012109926
0.00023255084
0.0010245337
1.8027197e-05
1.406348e-06
2.1355991e-06
3.2457987e-05
7.9044589e-06
1.1427025e-05
0.0001406106
2.0833275e-05
3.4515581e-05
0.00033616953
3.7091986e-05
8.1518194e-05
0.00062170723
4.8549664e-05
0.00015414833
0.00094061524
4.801584e-05
0.00023119394
0.0011826858
3.7937486e-05
0.00027896305
0.0012589171
2.7284568e-05
0.00028416065
0.0011718213
0.00025946917
0.00099171672
2.2958887e-05
1.0898942e-06
2.0107802e-06
3.0568661e-05
6.3412901e-06
1.0884703e-05
0.00013258231
1.736242e-05
3.2948899e-05
0.00031741382
3.156421e-05
7.8095563e-05
0.00058834665
4.2280855e-05
0.00014972077
0.00089308797
4.351551e-05
0.00022988987
0.0011275014
3.6975522e-05
0.0002855116
0.0012046735
2.9945976e-05
0.0002989101
0.001123825
0.00027820446
0.00095112042
2.814801e-05
7.9829771e-07
1.9151398e-06
2.8353446e-05
4.9063784e-06
1.0299856e-05
0.00012313385
1.3805232e-05
3.0898028e-05
0.00029527976
2.5482475e-05
7.3110433e-05
0.00054882564
3.4919805e-05
0.00014140004
0.00083649517
3.7568047e-05
0.00022143323
0.0010613104
3.4764544e-05
0.00028231716
0.0011390877
3.2222273e-05
0.00030339779
0.001065371
0.00028800002
0.00090123213
3.4287505e-05
5.8029404e-07
1.8107403e-06
2.5821554e-05
3.7830321e-06
9.5909695e-06
0.00011232422
1.0879959e-05
2.8449099e-05
0.00026991358
2.0468038e-05
6.6968639e-05
0.00050337766
2.8968316e-05
0.00013020742
0.00077102743
3.3185199e-05
0.00020733632
0.00098406968
3.4271487e-05
0.0002707351
0.0010617816
3.6664253e-05
0.00029820732
0.00099569573
0.00028853338
0.0008409222
4.3428068e-05
3.8666752e-07
1.7103908e-06
2.2944285e-05
2.7345461e-06
8.8634973e-06
0.0001000641
8.1823539e-06
2.5831951e-05
0.00024115427
1.5962159e-05
6.0148918e-05
0.00045171869
2.3882507e-05
0.00011701168
0.0006961145
3.0083705e-05
0.00018875965
0.00089470471
3.5729041e-05
0.00025168455
0.00097111649
4.4035049e-05
0.00028354627
0.00091275034
0.00027906643
0.00076804824
5.6857625e-05
2.5638033e-07
1.5902107e-06
1.9848633e-05
1.9885833e-06
8.0379604e-06
8.6801288e-05
6.2102766e-06
2.2989035e-05
0.0002098249
1.2665207e-05
5.2853395e-05
0.00039484525
2.0433462e-05
0.00010249569
0.00061235261
2.9090316e-05
0.00016678028
0.00079268218
4.0108497e-05
0.00022614488
0.00086508657
5.5603981e-05
0.00025969698
0.0008134914
0.00025924467
0.0006792979
7.5784107e-05
2.1173851e-07
1.6601257e-05
1.3966697e-06
1.5470562e-06
7.2845964e-05
7.034995e-06
4.9049383e-06
0.00017665593
1.9876014e-05
1.0618851e-05
0.00033388031
4.5075944e-05
1.8960845e-05
0.00052066586
8.6870664e-05
3.081055e-05
0.0006776017
0.00014205245
4.8019177e-05
0.00074114542
0.00019504897
7.1997282e-05
0.00069363993
0.00022711756
0.00057061091
0.00023000222
9.9862247e-05
1.2445328e-07
-9.873025e-07
1.6778995e-05
6.8510744e-07
5.4215467e-07
-4.6785971e-06
7.3757809e-05
3.3490477e-06
1.8522616e-06
-1.2627997e-05
0.00017871675
9.2570258e-06
5.6948321e-06
-2.7613658e-05
0.00033697635
2.0674883e-05
1.4027482e-05
-5.1854915e-05
0.00052452892
3.9658753e-05
2.7230617e-05
-8.3511016e-05
0.00068257871
6.5330179e-05
4.2927283e-05
-0.00011346483
0.00074799511
9.0918238e-05
5.7639337e-05
-0.00013024728
0.00070231984
0.00010685512
-0.0001287997
0.0005796466
0.00010863591
6.8767454e-05
1.0874778e-07
-1.2399921e-06
1.999261e-05
4.9993599e-07
-5.8503234e-06
8.7581995e-05
1.8963635e-06
-1.5665997e-05
0.00021146682
6.1809031e-06
-3.3878067e-05
0.00039682544
1.5316113e-05
-6.2737049e-05
0.00061409976
2.8962567e-05
-9.918754e-05
0.00079471301
4.3658399e-05
-0.00013178399
0.00086871087
5.5573438e-05
-0.00014796025
0.00081928971
-0.00014369055
0.00068646113
6.3301232e-05
1.0366657e-07
-1.4344833e-06
2.3035122e-05
4.5686905e-07
-6.7605955e-06
0.00010062127
1.8796821e-06
-1.8073404e-05
0.00024213896
6.5372564e-06
-3.8944168e-05
0.00045212699
1.6410682e-05
-7.154631e-05
0.00069505004
3.0491554e-05
-0.0001114192
0.00089285572
4.4463184e-05
-0.00014498112
0.00097034196
5.4381886e-05
-0.0001594235
0.00091429587
-0.00015251319
0.00077185935
5.9393194e-05
1.1385261e-07
-1.5708185e-06
2.5844096e-05
4.9872221e-07
-7.4026828e-06
0.00011258155
2.079748e-06
-1.9787027e-05
0.00027004612
7.2447229e-06
-4.2591088e-05
0.00050185943
1.7916515e-05
-7.783832e-05
0.00076664868
3.2464848e-05
-0.00011963279
0.00097773548
4.5954138e-05
-0.00015263372
0.0010559458