/*--------------------------------*- C++ -*----------------------------------*\
| =========                 |                                                 |
| \\      /  F ield         | OpenFOAM: The Open Source CFD Toolbox           |
|  \\    /   O peration     | Version:  2406                                  |
|   \\  /    A nd           | Website:  www.openfoam.com                      |
|    \\/     M anipulation  |                                                 |
\*---------------------------------------------------------------------------*/
FoamFile
{
    version     2.0;
    format      ascii;
    arch        "LSB;label=32;scalar=64";
    class       volVectorField;
    location    "10.25";
    object      U;
}
// * * * * * * * * * * * * * * * * * * * * * * * * * * * * * * * * * * * * * //

dimensions      [0 1 -1 0 0 0 0];

internalField   nonuniform List<vector> 
34560
(
(0.087846136 -0.0072989833 -0.020754205)
(0.27101738 -0.022027341 -0.064487714)
(0.47762592 -0.041375053 -0.11075608)
(0.68522457 -0.065650833 -0.15189704)
(0.86155364 -0.093000786 -0.17903164)
(0.97692327 -0.11999378 -0.18579185)
(1.0248057 -0.14284786 -0.17453156)
(1.0267431 -0.15975967 -0.1539935)
(1.0101007 -0.16818812 -0.13513825)
(0.10107492 -0.0085227618 -0.023188)
(0.3071039 -0.024814359 -0.071438245)
(0.53271879 -0.045134931 -0.12071931)
(0.75018963 -0.069446663 -0.16184715)
(0.92314041 -0.095468669 -0.18538741)
(1.0232626 -0.11968377 -0.18617869)
(1.0532106 -0.13914502 -0.16875809)
(1.0420381 -0.15155274 -0.1441849)
(1.0207732 -0.15624334 -0.12246668)
(0.11463187 -0.0090502699 -0.024620427)
(0.34367583 -0.025810138 -0.075654316)
(0.58810007 -0.046159481 -0.12647614)
(0.8154162 -0.06978403 -0.16692388)
(0.98611556 -0.094011798 -0.18750936)
(1.0739598 -0.11531 -0.18415558)
(1.0893942 -0.13145346 -0.16279246)
(1.0689645 -0.14038482 -0.13575761)
(1.0462304 -0.14222668 -0.11266682)
(0.12838366 -0.0095135447 -0.025891822)
(0.38038652 -0.026561342 -0.079339426)
(0.64336966 -0.046551063 -0.13127333)
(0.88067745 -0.068881709 -0.1706834)
(1.0503435 -0.090607093 -0.18825138)
(1.1284042 -0.1083613 -0.18115627)
(1.1323214 -0.12066896 -0.15654445)
(1.1047681 -0.126103 -0.12757369)
(1.0807462 -0.12534881 -0.10352148)
(0.14182641 -0.0095491906 -0.026791985)
(0.41618772 -0.026283319 -0.082056259)
(0.69746153 -0.04544468 -0.13468687)
(0.94540818 -0.066139035 -0.17296668)
(1.115865 -0.085096587 -0.18774766)
(1.1867069 -0.099089406 -0.17730846)
(1.1814084 -0.10735521 -0.14973046)
(1.1480593 -0.10944035 -0.11900111)
(1.1226918 -0.10660495 -0.09395674)
(0.15487473 -0.0093650765 -0.02734476)
(0.45096235 -0.025549283 -0.083820863)
(0.75040128 -0.043641166 -0.1367446)
(1.009922 -0.062427668 -0.17379073)
(1.1831851 -0.078352771 -0.18591426)
(1.2492926 -0.088434589 -0.17228377)
(1.2366037 -0.092559392 -0.14178517)
(1.1984456 -0.091554178 -0.10933492)
(1.171825 -0.087167321 -0.083291061)
(0.16739928 -0.0089223114 -0.02770719)
(0.48455484 -0.024214936 -0.085003268)
(0.80224067 -0.040979172 -0.13783513)
(1.0746 -0.057686446 -0.17332927)
(1.2528983 -0.070516852 -0.18251485)
(1.3165338 -0.076765343 -0.16539194)
(1.2980487 -0.076942449 -0.13179703)
(1.256046 -0.073291475 -0.097663263)
(1.2283756 -0.067906655 -0.070795065)
(0.17903526 -0.0081674965 -0.027862566)
(0.51624402 -0.022158321 -0.085563278)
(0.85225991 -0.037304777 -0.13787074)
(1.1389589 -0.051807676 -0.17135593)
(1.3247311 -0.061666648 -0.17705467)
(1.3880216 -0.064427179 -0.1558691)
(1.3653754 -0.061212731 -0.11896238)
(1.3205975 -0.055574278 -0.08333871)
(1.2919916 -0.049774512 -0.056159727)
(0.18945604 -0.0070472964 -0.027838583)
(0.54521702 -0.019194741 -0.085541987)
(0.89924042 -0.032279441 -0.13683555)
(1.2013884 -0.044364889 -0.16770025)
(1.3966386 -0.051495243 -0.16918309)
(1.4614504 -0.051476345 -0.14325653)
(1.436437 -0.045948129 -0.10306355)
(1.3900689 -0.039293075 -0.066417994)
(1.3605908 -0.033723765 -0.039697528)
(0.19820108 -0.005539655 -0.027680867)
(0.57007784 -0.015186478 -0.085050421)
(0.94061767 -0.025554 -0.13492738)
(1.2578846 -0.034825827 -0.16268857)
(1.4633476 -0.039526983 -0.15946801)
(1.5310161 -0.037821653 -0.12845025)
(1.505648 -0.031622098 -0.085400813)
(1.4588664 -0.025205857 -0.048410523)
(1.4285049 -0.020550254 -0.022900977)
(0.20479626 -0.0036184354 -0.027515371)
(0.58903024 -0.0099617786 -0.084449986)
(0.97259461 -0.01673629 -0.13285564)
(1.3021629 -0.022620114 -0.15761661)
(1.5163734 -0.025210172 -0.15001694)
(1.5873861 -0.023252464 -0.1144611)
(1.5629912 -0.018344948 -0.06931399)
(1.5168448 -0.013645629 -0.032535449)
(1.4855633 -0.010551406 -0.0085832446)
(0.20815693 -0.0012140649 -0.027387452)
(0.59895336 -0.0033459813 -0.084014089)
(0.98977202 -0.0056600335 -0.13150707)
(1.3265176 -0.0076825196 -0.15444287)
(1.5459064 -0.0085358906 -0.14415877)
(1.6195283 -0.0077462791 -0.1058559)
(1.5961298 -0.0059106516 -0.059551114)
(1.550706 -0.0042131829 -0.023089232)
(1.5187322 -0.003157323 -0.00021983565)
(0.20815691 0.0012140677 -0.027387436)
(0.5989533 0.0033459175 -0.084014046)
(0.9897719 0.0056598423 -0.13150703)
(1.3265173 0.0076822018 -0.15444284)
(1.5459062 0.0085354013 -0.14415874)
(1.6195281 0.0077456484 -0.10585587)
(1.5961295 0.0059099359 -0.059551088)
(1.5507057 0.0042124209 -0.02308922)
(1.5187319 0.0031565918 -0.00021983184)
(0.20479622 0.0036184175 -0.027515339)
(0.5890301 0.0099616849 -0.084449908)
(0.97259426 0.01673609 -0.13285557)
(1.3021623 0.022619795 -0.15761655)
(1.5163728 0.025209698 -0.15001683)
(1.5873854 0.023251852 -0.114461)
(1.5629904 0.018344229 -0.0693139)
(1.516844 0.013644856 -0.032535413)
(1.4855623 0.010550689 -0.0085832469)
(0.19820103 0.0055396521 -0.027680843)
(0.57007764 0.015186422 -0.085050369)
(0.94061722 0.025553846 -0.13492733)
(1.2578839 0.03482553 -0.16268849)
(1.463347 0.039526554 -0.15946782)
(1.5310154 0.037821088 -0.12845005)
(1.5056471 0.031621391 -0.085400627)
(1.4588654 0.025205082 -0.048410452)
(1.4285036 0.020549546 -0.022900999)
(0.189456 0.0070473068 -0.027838549)
(0.54521686 0.019194721 -0.085541899)
(0.8992401 0.032279345 -0.13683539)
(1.2013879 0.044364644 -0.16770005)
(1.3966381 0.051494905 -0.16918283)
(1.4614497 0.051475874 -0.14325624)
(1.4364362 0.045947499 -0.10306327)
(1.3900679 0.039292354 -0.066417883)
(1.3605895 0.033723055 -0.039697534)
(0.17903524 0.008167495 -0.027862543)
(0.51624395 0.022158295 -0.085563195)
(0.85225975 0.037304719 -0.13787055)
(1.1389585 0.051807514 -0.17135573)
(1.3247305 0.061666418 -0.1770544)
(1.3880211 0.064426852 -0.15586872)
(1.3653748 0.061212285 -0.11896204)
(1.3205966 0.055573706 -0.083338563)
(1.2919904 0.04977382 -0.056159666)
(0.16739924 0.0089223222 -0.027707185)
(0.48455472 0.024214932 -0.085003236)
(0.80224048 0.040979127 -0.13783502)
(1.0745996 0.057686293 -0.17332911)
(1.2528978 0.070516621 -0.18251457)
(1.3165333 0.076765114 -0.16539156)
(1.298048 0.076942199 -0.13179669)
(1.2560452 0.073291078 -0.097663047)
(1.2283745 0.067906008 -0.070794908)
(0.1548747 0.0093650722 -0.027344715)
(0.45096231 0.025549271 -0.083820727)
(0.75040133 0.043641131 -0.13674438)
(1.0099221 0.062427534 -0.17379055)
(1.1831849 0.078352538 -0.18591405)
(1.2492923 0.088434395 -0.17228354)
(1.236603 0.092559212 -0.1417849)
(1.1984449 0.091553879 -0.1093346)
(1.171824 0.087166789 -0.083290819)
(0.1418264 0.0095491526 -0.026791938)
(0.4161877 0.026283252 -0.082056122)
(0.6974615 0.045444586 -0.13468667)
(0.945408 0.066138859 -0.17296649)
(1.1158644 0.085096312 -0.18774749)
(1.1867063 0.099089132 -0.17730827)
(1.1814079 0.10735495 -0.14973018)
(1.1480589 0.10944008 -0.11900074)
(1.1226909 0.10660466 -0.093956449)
(0.12838363 0.00951352 -0.025891759)
(0.38038639 0.026561296 -0.079339254)
(0.64336946 0.046550973 -0.13127308)
(0.88067727 0.068881503 -0.17068321)
(1.0503434 0.090606749 -0.18825125)
(1.1284039 0.10836085 -0.18115605)
(1.1323212 0.12066849 -0.15654418)
(1.1047677 0.1261027 -0.12757347)
(1.0807455 0.12534877 -0.10352124)
(0.11463185 0.0090502241 -0.024620376)
(0.34367577 0.025810053 -0.075654166)
(0.58809997 0.046159348 -0.12647593)
(0.81541612 0.069783799 -0.16692366)
(0.98611558 0.094011421 -0.18750916)
(1.0739597 0.11530945 -0.18415532)
(1.0893937 0.13145273 -0.16279225)
(1.0689638 0.14038418 -0.13575759)
(1.0462299 0.14222666 -0.1126667)
(0.10107491 0.008522731 -0.023187978)
(0.30710386 0.02481431 -0.071438162)
(0.53271868 0.045134852 -0.12071917)
(0.75018946 0.069446536 -0.16184696)
(0.92314034 0.095468464 -0.18538721)
(1.0232626 0.11968345 -0.18617845)
(1.0532102 0.13914443 -0.1687579)
(1.0420378 0.15155178 -0.14418501)
(1.0207726 0.15624261 -0.12246653)
(0.087846126 0.0072989907 -0.020754209)
(0.27101734 0.022027375 -0.064487709)
(0.47762582 0.041375092 -0.11075607)
(0.68522443 0.06565087 -0.15189704)
(0.86155352 0.093000805 -0.17903165)
(0.97692317 0.11999374 -0.18579179)
(1.0248054 0.14284767 -0.17453129)
(1.0267428 0.15975905 -0.15399337)
(1.0100998 0.16818741 -0.13513834)
(0.1096409 -0.0022615484 -0.0022315063)
(0.34870968 -0.0080801351 -0.0081997197)
(0.63217792 -0.016577631 -0.017295477)
(0.93280809 -0.028188772 -0.029872575)
(1.2065388 -0.042512583 -0.044343452)
(1.4106808 -0.057717407 -0.056894422)
(1.5278671 -0.071496332 -0.06389565)
(1.5731092 -0.083023228 -0.064922903)
(1.573443 -0.092212875 -0.062518039)
(0.12165643 -0.0031187468 -0.0027550729)
(0.38398284 -0.010849561 -0.0099120068)
(0.68971092 -0.021582317 -0.020600907)
(1.0050421 -0.035419698 -0.034946961)
(1.2796858 -0.051365462 -0.05062004)
(1.4702639 -0.067024876 -0.063170285)
(1.5659427 -0.080284216 -0.069169559)
(1.5904741 -0.090677229 -0.068910733)
(1.5768653 -0.098362684 -0.064924233)
(0.13278135 -0.0036821813 -0.0028944927)
(0.41660465 -0.012775661 -0.010511207)
(0.7426937 -0.025163232 -0.022067841)
(1.070998 -0.040641254 -0.037516302)
(1.3457445 -0.057658112 -0.053944742)
(1.5237561 -0.073372368 -0.066450749)
(1.6007887 -0.085793262 -0.071778675)
(1.608711 -0.09476451 -0.070759682)
(1.585817 -0.10075587 -0.066071949)
(0.1431749 -0.004315632 -0.0030199982)
(0.44691169 -0.014806879 -0.011005981)
(0.79162773 -0.028728259 -0.023277802)
(1.1316015 -0.045519998 -0.039570578)
(1.4064782 -0.063092814 -0.056410006)
(1.5738251 -0.078273508 -0.068589101)
(1.6354949 -0.089278484 -0.073121751)
(1.6298454 -0.096598079 -0.071416185)
(1.5989563 -0.10083578 -0.066267451)
(0.15240787 -0.0048776251 -0.0030391717)
(0.47396015 -0.016607008 -0.011162189)
(0.83550752 -0.031858355 -0.023888276)
(1.1863143 -0.049676843 -0.040755614)
(1.4620319 -0.067420585 -0.057783752)
(1.6209311 -0.08163412 -0.069507669)
(1.6701557 -0.090862742 -0.073182361)
(1.6531978 -0.096230707 -0.070717288)
(1.6151347 -0.098737757 -0.065088946)
(0.16072143 -0.005391683 -0.0029281934)
(0.49838274 -0.018229729 -0.010927694)
(0.87528895 -0.034567389 -0.023721541)
(1.2363214 -0.053052863 -0.040809756)
(1.5136029 -0.070486388 -0.057719172)
(1.6658646 -0.083228317 -0.068759855)
(1.7047617 -0.090319956 -0.071430829)
(1.6781577 -0.093595568 -0.068124354)
(1.6336172 -0.094444467 -0.061992958)
(0.16835832 -0.0057998837 -0.00271587)
(0.52088987 -0.019482113 -0.010340097)
(0.9120997 -0.036591159 -0.022873062)
(1.2830988 -0.055267276 -0.039613725)
(1.562704 -0.071838273 -0.055903263)
(1.7096238 -0.082577196 -0.065799943)
(1.739609 -0.087289813 -0.067224541)
(1.704459 -0.088459136 -0.063025508)
(1.6541515 -0.087823501 -0.056476653)
(0.17522385 -0.0059467617 -0.0023699837)
(0.54144607 -0.019899632 -0.0092560674)
(0.94639495 -0.037203597 -0.021236684)
(1.327476 -0.055308179 -0.03672238)
(1.6103778 -0.070439216 -0.0517018)
(1.7530439 -0.078836222 -0.059958626)
(1.7749516 -0.081137881 -0.059890662)
(1.7321073 -0.080448813 -0.054887051)
(1.6767856 -0.078613594 -0.04814056)
(0.18135161 -0.0057467214 -0.001934719)
(0.56018794 -0.019110422 -0.0078015809)
(0.97847209 -0.035515369 -0.018475629)
(1.370133 -0.052416062 -0.032983825)
(1.6570017 -0.064994356 -0.044799115)
(1.796137 -0.070885656 -0.050798222)
(1.8104736 -0.071123405 -0.049161796)
(1.7606716 -0.069049798 -0.043518257)
(1.7012054 -0.066440478 -0.036853378)
(0.18664993 -0.0050162096 -0.0014117564)
(0.57676926 -0.016513771 -0.0060127004)
(1.0076 -0.030394567 -0.014822852)
(1.4101287 -0.044315217 -0.026764569)
(1.7011619 -0.054360011 -0.03644001)
(1.8369802 -0.057568681 -0.038695096)
(1.8443679 -0.056429282 -0.035632971)
(1.7886557 -0.053639778 -0.029442141)
(1.7262976 -0.050749518 -0.022697952)
(0.19102156 -0.00353809 -0.00088964909)
(0.5903274 -0.011520173 -0.004192988)
(1.0313734 -0.021003199 -0.011039819)
(1.4430121 -0.030276961 -0.020232199)
(1.7384264 -0.036602009 -0.026577997)
(1.8709182 -0.038112158 -0.025943503)
(1.8726108 -0.036608946 -0.021642596)
(1.8130853 -0.034022818 -0.014403589)
(1.7491946 -0.031825937 -0.0098086083)
(0.19316572 -0.0012925972 -0.0005656536)
(0.5973097 -0.0041823513 -0.0030505411)
(1.0441206 -0.0075808057 -0.0086038014)
(1.4612616 -0.010858063 -0.01600341)
(1.7597418 -0.013028504 -0.020200318)
(1.8914856 -0.013492376 -0.017761506)
(1.8899905 -0.012720516 -0.011613387)
(1.8283212 -0.011643913 -0.0056001838)
(1.762988 -0.010850636 -0.0023140072)
(0.19316571 0.0012926664 -0.00056565693)
(0.59730967 0.0041825084 -0.0030505291)
(1.0441205 0.0075809981 -0.0086037816)
(1.4612614 0.010858225 -0.016003392)
(1.7597416 0.013028581 -0.020200312)
(1.8914854 0.013492473 -0.017761527)
(1.8899903 0.012720729 -0.011613398)
(1.828321 0.011644166 -0.0056001625)
(1.7629878 0.010850898 -0.0023139741)
(0.19102153 0.0035381342 -0.00088965614)
(0.59032732 0.011520278 -0.0041929817)
(1.0313733 0.021003345 -0.011039798)
(1.4430118 0.030277103 -0.020232169)
(1.7384261 0.036602096 -0.026577971)
(1.8709178 0.038112259 -0.025943532)
(1.8726104 0.03660912 -0.021642614)
(1.8130849 0.034023013 -0.014403538)
(1.749194 0.031826204 -0.0098085499)
(0.18664989 0.0050162504 -0.0014117619)
(0.57676916 0.016513856 -0.006012735)
(1.0075998 0.030394684 -0.014822871)
(1.4101283 0.044315332 -0.026764548)
(1.7011615 0.054360105 -0.036439933)
(1.8369798 0.057568762 -0.03869505)
(1.8443675 0.056429369 -0.03563291)
(1.7886552 0.05363991 -0.029442077)
(1.7262969 0.050749776 -0.022697939)
(0.18135157 0.0057467736 -0.0019347074)
(0.56018782 0.019110513 -0.0078015904)
(0.9784719 0.035515465 -0.018475598)
(1.3701327 0.052416139 -0.032983758)
(1.6570015 0.064994469 -0.044798969)
(1.7961368 0.070885745 -0.050798068)
(1.8104734 0.07112346 -0.049161649)
(1.7606712 0.069049876 -0.043518201)
(1.7012047 0.066440675 -0.03685339)
(0.17522383 0.0059467887 -0.0023699435)
(0.54144601 0.019899674 -0.0092559773)
(0.94639488 0.03720364 -0.02123654)
(1.3274759 0.055308215 -0.036722281)
(1.6103776 0.070439322 -0.051701643)
(1.7530437 0.07883636 -0.059958409)
(1.7749515 0.081137998 -0.059890475)
(1.732107 0.080448898 -0.054887)
(1.6767851 0.078613667 -0.048140541)
(0.16835831 0.0057998814 -0.0027158398)
(0.52088984 0.019482123 -0.010340019)
(0.91209968 0.036591184 -0.022872993)
(1.2830987 0.05526728 -0.039613731)
(1.5627038 0.07183833 -0.055903177)
(1.7096236 0.08257736 -0.065799747)
(1.7396089 0.087290004 -0.067224353)
(1.7044587 0.088459241 -0.063025403)
(1.6541511 0.087823467 -0.056476536)
(0.16072141 0.0053916828 -0.0029281947)
(0.49838267 0.018229755 -0.010927689)
(0.87528887 0.034567423 -0.023721533)
(1.2363213 0.053052848 -0.040809752)
(1.5136027 0.070486391 -0.057719124)
(1.6658645 0.083228436 -0.068759731)
(1.7047616 0.090320131 -0.071430652)
(1.6781575 0.09359565 -0.068124169)
(1.6336169 0.094444441 -0.061992775)
(0.15240786 0.0048776255 -0.0030391513)
(0.4739601 0.016607039 -0.011162104)
(0.83550745 0.031858397 -0.023888137)
(1.1863142 0.04967683 -0.040755551)
(1.4620318 0.067420545 -0.057783757)
(1.6209309 0.081634151 -0.069507608)
(1.6701556 0.090862849 -0.073182212)
(1.6531977 0.096230773 -0.070717134)
(1.6151344 0.098737826 -0.065088792)
(0.14317488 0.0043156209 -0.0030199787)
(0.44691163 0.014806883 -0.011005915)
(0.79162765 0.028728267 -0.023277738)
(1.1316015 0.045519964 -0.039570583)
(1.4064781 0.063092715 -0.056410057)
(1.573825 0.078273446 -0.068589103)
(1.6354949 0.089278552 -0.073121719)
(1.6298453 0.096598239 -0.071416236)
(1.5989561 0.10083592 -0.066267369)
(0.13278134 0.0036821797 -0.0028944838)
(0.4166046 0.012775695 -0.010511172)
(0.74269361 0.025163302 -0.022067787)
(1.0709979 0.040641294 -0.037516275)
(1.3457444 0.057658054 -0.05394482)
(1.5237561 0.073372253 -0.066450916)
(1.6007885 0.085793193 -0.071778899)
(1.6087107 0.094764575 -0.070759853)
(1.5858168 0.10075603 -0.066071864)
(0.12165643 0.0031187534 -0.0027550719)
(0.38398283 0.010849606 -0.0099120011)
(0.6897109 0.021582406 -0.020600897)
(1.0050421 0.035419779 -0.034947001)
(1.2796859 0.051365467 -0.050620189)
(1.470264 0.067024771 -0.063170509)
(1.5659427 0.08028402 -0.069169813)
(1.5904741 0.090676976 -0.068910952)
(1.576865 0.098362421 -0.06492408)
(0.10964089 0.0022615603 -0.0022315086)
(0.34870966 0.0080801789 -0.0081997299)
(0.63217786 0.016577712 -0.017295504)
(0.93280799 0.02818887 -0.029872658)
(1.2065387 0.042512671 -0.044343616)
(1.4106809 0.057717414 -0.056894681)
(1.5278671 0.071496243 -0.06389598)
(1.5731096 0.083023132 -0.064923213)
(1.5734429 0.092212889 -0.062518043)
(0.091062017 -0.00095803547 -0.00088271122)
(0.29291475 -0.0034500179 -0.0031985623)
(0.53886476 -0.0072517753 -0.0066295221)
(0.8100972 -0.012798087 -0.01132066)
(1.0689243 -0.02036515 -0.01676699)
(1.2693412 -0.029389727 -0.021681677)
(1.3818136 -0.0382727 -0.024605834)
(1.4131908 -0.045408412 -0.025279901)
(1.3925418 -0.049792021 -0.024651306)
(0.099337478 -0.0010821173 -0.00089312866)
(0.317745 -0.0039111487 -0.0032725386)
(0.58058045 -0.0082229158 -0.0068960663)
(0.86421136 -0.01445638 -0.011931905)
(1.1245998 -0.02272491 -0.017665147)
(1.3122156 -0.032039299 -0.022463794)
(1.4015623 -0.040489324 -0.024751028)
(1.4091701 -0.046638869 -0.024606768)
(1.3726324 -0.050135917 -0.023248507)
(0.10690102 -0.001095716 -0.00080034084)
(0.34056317 -0.0040731152 -0.0030542271)
(0.61904053 -0.0087245788 -0.0066935147)
(0.91405815 -0.015499186 -0.01192801)
(1.1756021 -0.024303203 -0.017861974)
(1.3513311 -0.033697344 -0.022541876)
(1.420366 -0.041513732 -0.02428418)
(1.4084684 -0.046547111 -0.023431445)
(1.3612851 -0.049066617 -0.021556225)
(0.11384421 -0.001148535 -0.00074617828)
(0.36149112 -0.0043280338 -0.0029303053)
(0.65430121 -0.009341015 -0.006620975)
(0.95977627 -0.016621057 -0.012040988)
(1.2226002 -0.025817124 -0.018093009)
(1.3882823 -0.035037168 -0.022536889)
(1.4404804 -0.041950558 -0.023667969)
(1.4129426 -0.045714294 -0.022140266)
(1.3573253 -0.047154886 -0.019797438)
(0.11979756 -0.0011976342 -0.00069128838)
(0.37962556 -0.0045639884 -0.0027963185)
(0.6851774 -0.0099093904 -0.0065111524)
(1.0002778 -0.017636724 -0.012068253)
(1.2649279 -0.027086644 -0.01817481)
(1.4228145 -0.035908276 -0.022321581)
(1.4616428 -0.041709831 -0.022816779)
(1.4216903 -0.044123332 -0.020638955)
(1.3592024 -0.04449489 -0.017889945)
(0.12496283 -0.0012575982 -0.00063569427)
(0.39544208 -0.0047887672 -0.0026051591)
(0.71228771 -0.010431945 -0.006331341)
(1.0361668 -0.018494791 -0.011916171)
(1.3030238 -0.027987498 -0.017947145)
(1.4549837 -0.036143561 -0.021697192)
(1.4832789 -0.040654064 -0.021527132)
(1.4335356 -0.041717205 -0.018740617)
(1.3653582 -0.041153352 -0.015680379)
(0.12950544 -0.0013440478 -0.00059760808)
(0.40934878 -0.005022133 -0.0024297763)
(0.73627326 -0.01081788 -0.0060495933)
(1.0681998 -0.019010398 -0.011578072)
(1.3375754 -0.028245329 -0.017295754)
(1.485079 -0.035471089 -0.020474565)
(1.5049704 -0.038589996 -0.019592642)
(1.4474022 -0.038407415 -0.016269431)
(1.3745189 -0.037111106 -0.01304302)
(0.13328263 -0.0014125929 -0.00054636954)
(0.42104185 -0.0051299922 -0.0022259024)
(0.75671928 -0.010776044 -0.0054216691)
(1.0963476 -0.018833957 -0.010961472)
(1.3688798 -0.027400466 -0.016104695)
(1.5133443 -0.033453226 -0.018474071)
(1.526465 -0.035220787 -0.016873452)
(1.4624599 -0.034033196 -0.01316679)
(1.3855497 -0.032303269 -0.010033203)
(0.13628907 -0.0013360423 -0.00043531239)
(0.43047217 -0.004790637 -0.0018475424)
(0.7734896 -0.009930853 -0.0046991209)
(1.1201539 -0.01695487 -0.0090293327)
(1.3966696 -0.024826403 -0.014430833)
(1.5394755 -0.029591413 -0.015876365)
(1.5471584 -0.030209351 -0.013558767)
(1.4776826 -0.02844062 -0.0097487351)
(1.3971149 -0.026653002 -0.0071460841)
(0.13855156 -0.0010501727 -0.00030428921)
(0.43764924 -0.0038229875 -0.0014050506)
(0.78638241 -0.0080165548 -0.0039467669)
(1.1386121 -0.01372208 -0.0079312755)
(1.4194139 -0.01962587 -0.01185656)
(1.5620136 -0.023419499 -0.013445559)
(1.5656056 -0.02335164 -0.010466295)
(1.4914004 -0.021668544 -0.0070264007)
(1.4071495 -0.020302455 -0.005908017)
(0.14034788 -0.00065396623 -0.00021082673)
(0.44312821 -0.0024304294 -0.0010986173)
(0.79591104 -0.0051668518 -0.0034273322)
(1.1518403 -0.0089121375 -0.0072335355)
(1.4349662 -0.012746439 -0.010986024)
(1.5783955 -0.015049827 -0.012224363)
(1.5793237 -0.014839374 -0.0088592755)
(1.5009229 -0.013849918 -0.0067831019)
(1.4132025 -0.012954933 -0.0052898442)
(0.14107248 -0.00022272846 -0.0001674991)
(0.4455265 -0.00083519775 -0.0009563905)
(0.80036538 -0.0017843162 -0.0031931414)
(1.1583398 -0.0030823164 -0.0069105361)
(1.4427534 -0.0044007187 -0.010602064)
(1.5861357 -0.0051207061 -0.01171208)
(1.585821 -0.0051054474 -0.0092811779)
(1.505229 -0.0048104464 -0.0064315804)
(1.4160884 -0.0044672779 -0.0048452642)
(0.14107247 0.00022275555 -0.00016750386)
(0.44552648 0.00083527105 -0.00095638862)
(0.80036533 0.0017844486 -0.0031931237)
(1.1583397 0.0030825126 -0.0069105123)
(1.4427533 0.0044009713 -0.010602048)
(1.5861356 0.0051210211 -0.011712076)
(1.5858209 0.0051058192 -0.0092811615)
(1.5052289 0.0048107698 -0.0064315507)
(1.4160883 0.0044674977 -0.0048452215)
(0.14034786 0.00065398737 -0.00021083463)
(0.44312815 0.0024304892 -0.0010986196)
(0.79591093 0.005166977 -0.0034273051)
(1.1518401 0.0089123439 -0.0072334964)
(1.434966 0.01274671 -0.010985986)
(1.5783952 0.015050116 -0.012224342)
(1.5793235 0.014839683 -0.0088592071)
(1.5009226 0.013850202 -0.0067830192)
(1.4132023 0.012955163 -0.0052897444)
(0.13855154 0.0010502048 -0.00030429135)
(0.43764918 0.0038230634 -0.0014050722)
(0.78638229 0.0080166956 -0.0039467713)
(1.1386118 0.013722301 -0.0079312676)
(1.4194137 0.019626156 -0.011856513)
(1.5620134 0.02341978 -0.013445506)
(1.5656053 0.023351905 -0.010466205)
(1.4914001 0.02166877 -0.0070263034)
(1.4071491 0.020302673 -0.005907919)
(0.13628904 0.0013360907 -0.00043530238)
(0.43047209 0.00479074 -0.0018475522)
(0.7734895 0.0099310088 -0.0046991107)
(1.1201537 0.016955082 -0.0090293219)
(1.3966695 0.024826677 -0.014430757)
(1.5394754 0.029591713 -0.015876271)
(1.5471582 0.030209626 -0.013558662)
(1.4776822 0.028440839 -0.0097486611)
(1.3971144 0.026653149 -0.0071460385)
(0.13328261 0.0014126279 -0.00054634263)
(0.42104181 0.0051300723 -0.002225852)
(0.75671924 0.010776172 -0.0054215966)
(1.0963475 0.018834133 -0.010961453)
(1.3688797 0.027400743 -0.016104641)
(1.5133442 0.033453587 -0.018473982)
(1.5264649 0.035221131 -0.016873355)
(1.4624595 0.034033432 -0.013166719)
(1.3855492 0.032303312 -0.010033118)
(0.12950543 0.0013440647 -0.00059758817)
(0.40934875 0.0050221998 -0.0024297307)
(0.73627324 0.010818009 -0.0060495861)
(1.0681997 0.019010573 -0.011578158)
(1.3375753 0.028245606 -0.017295798)
(1.4850787 0.035471485 -0.020474532)
(1.5049702 0.038590392 -0.019592556)
(1.4474018 0.038407655 -0.016269304)
(1.3745186 0.037111081 -0.013042802)
(0.12496281 0.0012576263 -0.00063570746)
(0.39544204 0.0047888622 -0.0026052086)
(0.71228764 0.010432106 -0.0063314225)
(1.0361666 0.018494981 -0.011916274)
(1.3030236 0.027987771 -0.017947221)
(1.4549835 0.036143934 -0.021697205)
(1.4832787 0.040654449 -0.021527054)
(1.4335353 0.041717427 -0.018740436)
(1.3653579 0.04115337 -0.015680096)
(0.11979754 0.0011976623 -0.0006912923)
(0.37962548 0.0045640904 -0.0027963113)
(0.68517727 0.0099095728 -0.0065111135)
(1.0002777 0.017636935 -0.012068289)
(1.2649277 0.027086905 -0.018174928)
(1.4228142 0.035908608 -0.022321647)
(1.4616427 0.04171019 -0.022816745)
(1.4216901 0.044123578 -0.020638833)
(1.359202 0.044495012 -0.017889734)
(0.11384419 0.0011485513 -0.00074617894)
(0.36149106 0.0043281028 -0.0029303123)
(0.65430111 0.0093411544 -0.0066210074)
(0.95977616 0.016621239 -0.01204111)
(1.2226 0.025817339 -0.018093178)
(1.3882821 0.035037467 -0.022537023)
(1.4404803 0.041950923 -0.023668072)
(1.4129423 0.045714679 -0.02214035)
(1.3573251 0.047155126 -0.019797301)
(0.10690101 0.0010957427 -0.00080035235)
(0.34056312 0.0040732142 -0.0030542605)
(0.61904044 0.0087247759 -0.0066935569)
(0.91405803 0.01549943 -0.01192811)
(1.1756019 0.024303439 -0.017862189)
(1.3513309 0.033697613 -0.022542192)
(1.4203657 0.041514061 -0.024284577)
(1.4084679 0.046547466 -0.02343169)
(1.3612848 0.049066775 -0.021555988)
(0.09933747 0.0010821466 -0.00089314617)
(0.31774496 0.0039112519 -0.003272586)
(0.58058036 0.0082231133 -0.0068961385)
(0.86421122 0.014456626 -0.011932061)
(1.1245996 0.022725137 -0.017665453)
(1.3122154 0.03203947 -0.022464224)
(1.4015621 0.040489456 -0.024751446)
(1.4091698 0.046638851 -0.024606744)
(1.372632 0.050135653 -0.023248115)
(0.091062009 0.00095806379 -0.00088273128)
(0.29291471 0.0034501036 -0.003198628)
(0.53886467 0.0072519296 -0.006629637)
(0.81009703 0.012798281 -0.011320859)
(1.0689241 0.020365349 -0.01676729)
(1.2693411 0.029389895 -0.021682058)
(1.3818135 0.038272876 -0.024606147)
(1.4131909 0.045408502 -0.025279859)
(1.3925416 0.049791983 -0.024651176)
(0.10113408 -0.00054105769 -0.00049748973)
(0.32368825 -0.0018676239 -0.0016950717)
(0.59172054 -0.0037784674 -0.0033393424)
(0.88278333 -0.006382016 -0.0055463158)
(1.1565189 -0.0096249294 -0.0083891725)
(1.3677109 -0.013184237 -0.011616225)
(1.4893566 -0.016435991 -0.014478681)
(1.5292731 -0.01888312 -0.016145317)
(1.5155476 -0.020302197 -0.01662073)
(0.11004702 -0.00073812158 -0.00059952573)
(0.34997088 -0.002488383 -0.0020016803)
(0.63484995 -0.0049144025 -0.0038659345)
(0.9370384 -0.0080742294 -0.0063261554)
(1.2104284 -0.011811977 -0.0094523528)
(1.4075387 -0.015618514 -0.012906291)
(1.5058348 -0.018712652 -0.015785278)
(1.5223772 -0.020663316 -0.017269095)
(1.4933179 -0.021505495 -0.017264866)
(0.11799119 -0.0008518819 -0.00060082226)
(0.37343204 -0.0028718331 -0.0020127145)
(0.67329499 -0.0056529376 -0.0038953044)
(0.98507347 -0.0092185568 -0.0064229965)
(1.2574729 -0.013313804 -0.0096965018)
(1.4413891 -0.017241278 -0.013315905)
(1.5191152 -0.020084045 -0.016261743)
(1.5164851 -0.021513519 -0.017721639)
(1.4772153 -0.021860367 -0.017648697)
(0.12511158 -0.00094806218 -0.00058135441)
(0.39436466 -0.0031851064 -0.0019491606)
(0.70744129 -0.0062369465 -0.0037843203)
(1.0275568 -0.010101451 -0.0063066675)
(1.2990401 -0.014433882 -0.0096505293)
(1.4717211 -0.018353704 -0.013363695)
(1.5324845 -0.020839611 -0.016351122)
(1.5146349 -0.021710944 -0.017843437)
(1.4674876 -0.021588018 -0.017814566)
(0.13102343 -0.00099923191 -0.00053136536)
(0.41186337 -0.0033620532 -0.0017917454)
(0.73617107 -0.0065815826 -0.0035142321)
(1.0635614 -0.010642347 -0.0059737404)
(1.3346747 -0.015113493 -0.009342873)
(1.4985046 -0.018931598 -0.013117921)
(1.5459412 -0.020999192 -0.016145514)
(1.5163121 -0.021318033 -0.017701327)
(1.462969 -0.020769147 -0.017778828)
(0.13597196 -0.0010145415 -0.00045679033)
(0.42651492 -0.0034212217 -0.0015549662)
(0.76024966 -0.006702797 -0.0031075951)
(1.0938283 -0.010841676 -0.0054478289)
(1.3648958 -0.015331998 -0.0087913433)
(1.5218441 -0.018945061 -0.012593758)
(1.5589887 -0.02054761 -0.01566002)
(1.5204 -0.020350905 -0.017308004)
(1.4622566 -0.019445265 -0.017530899)
(0.14014692 -0.00099060825 -0.00037257664)
(0.43880652 -0.0033477516 -0.0012810779)
(0.78037085 -0.0065700511 -0.0026220336)
(1.1191083 -0.01064777 -0.0047852457)
(1.3903094 -0.015019862 -0.008034453)
(1.5419463 -0.018326079 -0.01181478)
(1.571189 -0.019439649 -0.014912429)
(1.5258685 -0.018797834 -0.016680644)
(1.4640522 -0.017639497 -0.017090506)
(0.14344113 -0.00090816195 -0.00027814695)
(0.44856226 -0.003086031 -0.00097103265)
(0.7964575 -0.006088868 -0.0020575803)
(1.1395546 -0.0099289752 -0.0039846189)
(1.4112532 -0.01402059 -0.0070706481)
(1.5590515 -0.01693901 -0.010797729)
(1.5823285 -0.017592943 -0.013942259)
(1.5319462 -0.016627296 -0.015876767)
(1.4673153 -0.015336291 -0.0165295)
(0.14592364 -0.00075051809 -0.00017981893)
(0.45598147 -0.002583206 -0.00064685417)
(0.80883789 -0.0051571807 -0.0014566647)
(1.155564 -0.00850672 -0.0030781101)
(1.4280825 -0.012131742 -0.0059956093)
(1.573302 -0.014603108 -0.0096607453)
(1.5921542 -0.014904934 -0.012875444)
(1.5379376 -0.013806483 -0.015043933)
(1.4711112 -0.012539631 -0.016001818)
(0.14768468 -0.00053296802 -9.6492322e-05)
(0.46131291 -0.001880661 -0.0003760713)
(0.81785907 -0.0038384826 -0.00097245849)
(1.1674485 -0.0064811377 -0.0023830373)
(1.4409566 -0.0095403238 -0.0051749969)
(1.5845565 -0.011526151 -0.0087808492)
(1.6002042 -0.011374726 -0.011926496)
(1.5431173 -0.010375906 -0.014419844)
(1.4745737 -0.0093131018 -0.015712996)
(0.14906796 -0.00031051402 -4.5446905e-05)
(0.46530222 -0.0011241567 -0.00021296443)
(0.82434574 -0.0023481525 -0.00069661409)
(1.1757623 -0.004080309 -0.0020291427)
(1.4498559 -0.0059754832 -0.0046358533)
(1.592449 -0.007216417 -0.0081656886)
(1.605833 -0.0070963225 -0.011374698)
(1.5467606 -0.0064589224 -0.014197291)
(1.4770261 -0.0057485133 -0.015625279)
(0.14953051 -0.00010212186 -2.3480629e-05)
(0.46680426 -0.00037432377 -0.00014238256)
(0.8270436 -0.00078928171 -0.00057541745)
(1.1795343 -0.0013831956 -0.0018508963)
(1.45412 -0.0020296566 -0.0043977135)
(1.5963299 -0.0024465844 -0.0079172135)
(1.608675 -0.0024592598 -0.011399423)
(1.5486116 -0.0022002444 -0.014124727)
(1.4782845 -0.0019446632 -0.015597028)
(0.14953051 0.00010216151 -2.3485042e-05)
(0.46680426 0.00037442733 -0.00014238525)
(0.82704359 0.00078945401 -0.00057541232)
(1.1795342 0.0013834328 -0.0018508882)
(1.45412 0.0020299625 -0.0043977115)
(1.5963298 0.0024469665 -0.0079172117)
(1.6086749 0.0024596669 -0.011399403)
(1.5486115 0.0022005338 -0.014124686)
(1.4782845 0.0019447555 -0.015596976)