/*--------------------------------*- C++ -*----------------------------------*\
  =========                 |
  \\      /  F ield         | OpenFOAM: The Open Source CFD Toolbox
   \\    /   O peration     | Website:  https://openfoam.org
    \\  /    A nd           | Version:  10
     \\/     M anipulation  |
\*---------------------------------------------------------------------------*/
FoamFile
{
    format      ascii;
    class       volScalarField;
    location    "0.02";
    object      T;
}
// * * * * * * * * * * * * * * * * * * * * * * * * * * * * * * * * * * * * * //

dimensions      [0 0 0 1 0 0 0];

internalField   nonuniform List<scalar> 
12225
(
1.00694
1.00397
1.00144
1.00053
1.00001
0.99965
0.999457
0.999369
0.999321
0.999284
0.999243
0.999162
0.998973
0.998495
0.9973
0.994383
0.986926
0.968385
0.994965
0.99447
0.996349
0.997908
0.99867
0.998979
0.999136
0.999239
0.9993
0.999326
0.99932
0.999263
0.99909
0.998637
0.997489
0.994711
0.987872
0.971621
0.999592
0.99992
1
0.999967
0.999819
0.999637
0.999514
0.999448
0.999408
0.999372
0.999327
0.999247
0.999066
0.998626
0.997553
0.995012
0.989056
0.976103
1.00032
1.00007
0.999547
0.99942
0.999421
0.999388
0.999355
0.999341
0.999332
0.999318
0.999289
0.999223
0.99906
0.998661
0.9977
0.995483
0.990563
0.98067
1.00013
0.999833
0.999434
0.999387
0.999436
0.999423
0.999388
0.999364
0.999347
0.999325
0.999291
0.999224
0.999071
0.998711
0.997874
0.996014
0.992115
0.9848
0.999993
0.999846
0.999578
0.999496
0.999494
0.99946
0.999411
0.999376
0.999348
0.99932
0.999282
0.999214
0.999073
0.998758
0.998055
0.996557
0.993584
0.988317
0.999975
0.999925
0.999719
0.999592
0.999547
0.999498
0.999443
0.999398
0.999361
0.999325
0.999282
0.999214
0.999085
0.998817
0.998246
0.997087
0.994898
0.991197
0.999983
0.999963
0.999798
0.999661
0.999596
0.999539
0.999477
0.999422
0.999377
0.999333
0.999284
0.999216
0.999098
0.998868
0.998401
0.997491
0.995837
0.993124
0.999986
0.999973
0.99984
0.999706
0.999627
0.99956
0.999491
0.999429
0.999376
0.999326
0.999273
0.999204
0.999095
0.998898
0.998516
0.997798
0.996536
0.994517
0.999984
0.999963
0.999852
0.999723
0.999631
0.999554
0.999478
0.999409
0.99935
0.999294
0.999236
0.999167
0.999069
0.998903
0.9986
0.998057
0.997134
0.99569
0.99998
0.999942
0.99984
0.999715
0.999612
0.999524
0.999441
0.999365
0.999299
0.999238
0.999177
0.99911
0.999021
0.998885
0.998653
0.998258
0.997612
0.996626
0.999976
0.999921
0.999818
0.999694
0.999583
0.999486
0.999398
0.999317
0.999245
0.999178
0.999115
0.99905
0.998971
0.99886
0.998688
0.998413
0.997982
0.99734
0.999975
0.999912
0.999811
0.99969
0.999577
0.999476
0.999384
0.9993
0.999223
0.999155
0.999092
0.999029
0.998957
0.998869
0.998745
0.99856
0.998285
0.99789
0.999978
0.999919
0.999828
0.999717
0.99961
0.999512
0.99942
0.999338
0.999263
0.999195
0.999134
0.999075
0.999012
0.998942
0.998855
0.998735
0.998567
0.998337
0.999982
0.999936
0.999861
0.999769
0.999677
0.99959
0.999511
0.999438
0.99937
0.999308
0.999253
0.999201
0.999151
0.999098
0.999037
0.998961
0.998864
0.998738
0.999987
0.999957
0.999905
0.99984
0.999774
0.999712
0.999654
0.9996
0.999548
0.999502
0.999461
0.999424
0.99939
0.999354
0.999314
0.99927
0.999218
0.999154
0.999993
0.999986
0.999968
0.999941
0.999912
0.999886
0.999864
0.999841
0.99982
0.999801
0.999783
0.999767
0.999753
0.99974
0.999724
0.999705
0.999684
0.999659
1
1.00003
1.00005
1.00007
1.00009
1.00011
1.00013
1.00015
1.00017
1.00018
1.0002
1.00021
1.00022
1.00023
1.00023
1.00024
1.00024
1.00024
1.00001
1.00006
1.00011
1.00017
1.00022
1.00028
1.00034
1.00039
1.00043
1.00048
1.00051
1.00055
1.00058
1.0006
1.00063
1.00065
1.00066
1.00068
1.00001
1.00006
1.00012
1.00019
1.00026
1.00033
1.00039
1.00046
1.00052
1.00057
1.00062
1.00067
1.00071
1.00075
1.00078
1.00081
1.00084
1.00086
1.00001
1.00006
1.00012
1.00018
1.00025
1.00031
1.00038
1.00045
1.00051
1.00057
1.00062
1.00068
1.00072
1.00077
1.00081
1.00085
1.00088
1.00091
1.00001
1.00006
1.00012
1.00017
1.00023
1.0003
1.00036
1.00043
1.00049
1.00055
1.00061
1.00067
1.00072
1.00077
1.00081
1.00085
1.00089
1.00092
1
1.00008
1.00013
1.00016
1.00021
1.00027
1.00034
1.00041
1.00048
1.00054
1.0006
1.00066
1.00071
1.00076
1.00081
1.00085
1.00089
1.00093
0.999997
1.0001
1.00014
1.00015
1.00019
1.00026
1.00033
1.0004
1.00047
1.00054
1.00061
1.00067
1.00072
1.00077
1.00082
1.00086
1.00091
1.00094
1
1.00009
1.0001
1.00012
1.00019
1.00028
1.00035
1.00042
1.00049
1.00056
1.00063
1.00069
1.00074
1.00079
1.00084
1.00088
1.00093
1.00097
1.00014
1.00014
0.999953
0.999972
1.00014
1.00029
1.00039
1.00047
1.00055
1.00062
1.00068
1.00074
1.0008
1.00084
1.00089
1.00093
1.00097
1.00101
1.0005
1.00058
1.0001
0.999927
1.00003
1.00018
1.00031
1.00042
1.00053
1.00062
1.0007
1.00076
1.00082
1.00088
1.00093
1.00097
1.00102
1.00106
1.00004
1.00088
1.00115
1.00111
1.00099
1.00088
1.00081
1.0008
1.00082
1.00085
1.00088
1.00092
1.00096
1.00099
1.00103
1.00106
1.0011
1.00113
0.994517
0.993822
0.99606
0.998048
0.999185
0.99978
1.00015
1.0004
1.00059
1.00072
1.00083
1.00091
1.00098
1.00104
1.00109
1.00114
1.00118
1.00121
1.00648
1.00454
1.00223
1.0015
1.00119
1.00097
1.00088
1.00087
1.00089
1.00092
1.00096
1.00099
1.00103
1.00107
1.0011
1.00114
1.00117
1.00122
0.163789
0.16372
0.163568
0.163339
0.163037
0.162662
0.162213
0.161692
0.161102
0.160443
0.159718
0.158929
0.158078
0.157169
0.156203
0.155183
0.154114
0.152998
0.151839
0.150641
0.149407
0.148141
0.146847
0.145528
0.144189
0.142833
0.141464
0.140084
0.138696
0.137305
0.135914
0.134532
0.133175
0.131867
0.130566
0.129242
0.127929
0.126621
0.125323
0.124037
0.122761
0.12151
0.12029
0.119082
0.117896
0.11674
0.115603
0.114487
0.113392
0.112317
0.111261
0.110225
0.109208
0.108209
0.107229
0.106266
0.10532
0.10439
0.103477
0.102579
0.101695
0.100826
0.0999702
0.0991272
0.0982963
0.0974766
0.0966675
0.095868
0.0950773
0.0942947
0.0935191
0.0927498
0.0919857
0.0912259
0.0904694
0.0897154
0.0889627
0.0882106
0.0874578
0.0867035
0.0859468
0.0851866
0.084422
0.083652
0.0828758
0.0820922
0.0813006
0.0805
0.0796896
0.0788684
0.0780359
0.077191
0.076333
0.0754613
0.0745751
0.0736736
0.0727561
0.071822
0.0708711
0.0699031
0.0689172
0.067913
0.0668902
0.0658484
0.0647873
0.0637068
0.0626067
0.061487
0.0603475
0.0591885
0.0580099
0.0568121
0.0555953
0.0543599
0.0531064
0.0518354
0.0505475
0.0492435
0.0479242
0.0465907
0.0452441
0.0438854
0.0425162
0.0411377
0.0397515
0.0383594
0.0369632
0.0355647
0.0341661
0.0327694
0.0313768
0.0299908
0.0286136
0.0272478
0.0258958
0.0245602
0.0232437
0.0219488
0.0206781
0.0194341
0.0182194
0.0170364
0.0158874
0.0147745
0.0136999
0.0126654
0.0116727
0.0107233
0.0098184
0.008959
0.00814583
0.00737935
0.00665974
0.00598687
0.00536038
0.00477959
0.0042436
0.00375122
0.00330105
0.00289149
0.00252074
0.00218686
0.00188773
0.00162116
0.00138496
0.00117688
0.00099462
0.000835917
0.000698552
0.000580381
0.000479351
0.000393519
0.000321063
0.000260293
0.000209657
0.000167744
0.000133293
0.000105172
8.24934e-05
6.44467e-05
0.16592
0.165842
0.165688
0.165456
0.165148
0.164765
0.164307
0.163777
0.163175
0.162503
0.161763
0.160959
0.160092
0.159167
0.158186
0.157152
0.15607
0.154941
0.15377
0.15256
0.151316
0.150042
0.14874
0.147417
0.146075
0.144719
0.143353
0.141982
0.140609
0.139238
0.137869
0.136502
0.135136
0.133742
0.132337
0.130972
0.129632
0.128318
0.127027
0.125757
0.12451
0.12328
0.12206
0.120865
0.119696
0.118542
0.117407
0.116292
0.115198
0.114124
0.113069
0.112034
0.111018
0.110021
0.109041
0.10808
0.107135
0.106207
0.105295
0.104398
0.103517
0.102649
0.101796
0.100955
0.100126
0.0993085
0.0985018
0.097705
0.0969171
0.0961373
0.0953647
0.0945984
0.0938376
0.0930812
0.0923282
0.0915778
0.0908288
0.0900804
0.0893314
0.0885811
0.0878282
0.0870719
0.0863112
0.0855451
0.0847726
0.0839928
0.0832048
0.0824077
0.0816005
0.0807824
0.0799526
0.0791103
0.0782545
0.0773847
0.0765
0.0755998
0.0746835
0.0737505
0.0727999
0.0718311
0.0708437
0.0698373
0.0688115
0.067766
0.0667005
0.0656147
0.0645084
0.0633816
0.0622341
0.0610659
0.0598772
0.0586681
0.0574389
0.0561898
0.0549214
0.0536342
0.0523288
0.0510058
0.0496662
0.048311
0.0469411
0.0455577
0.0441622
0.042756
0.0413405
0.0399176
0.0384891
0.0370568
0.0356229
0.0341895
0.0327588
0.0313333
0.0299154
0.0285077
0.0271127
0.0257331
0.0243717
0.0230311
0.0217141
0.0204233
0.0191615
0.0179312
0.0167348
0.0155748
0.0144533
0.0133725
0.0123341
0.0113398
0.0103911
0.00948909
0.0086346
0.00782827
0.00707039
0.00636096
0.0056997
0.00508602
0.00451906
0.00399769
0.00352053
0.00308597
0.00269218
0.00233723
0.00201896
0.00173511
0.00148339
0.00126142
0.0010668
0.000897186
0.000750243
0.000623723
0.000515464
0.000423416
0.000345653
0.000280383
0.000225959
0.00018088
0.0001438
0.000113514
8.90444e-05
6.95189e-05
0.170231
0.170132
0.169958
0.169706
0.169375
0.168967
0.168481
0.167921
0.167289
0.166588
0.165819
0.164985
0.16409
0.163136
0.162126
0.161065
0.159955
0.158801
0.157605
0.156371
0.155105
0.153809
0.152487
0.151144
0.149784
0.148409
0.147025
0.145633
0.144237
0.142839
0.141442
0.14005
0.138667
0.137291
0.135924
0.134573
0.133238
0.131922
0.130626
0.129352
0.128101
0.126872
0.125665
0.124477
0.123308
0.122157
0.121026
0.119915
0.118823
0.117752
0.1167
0.115667
0.114653
0.113658
0.112681
0.111721
0.110779
0.109854
0.108944
0.108051
0.107172
0.106308
0.105458
0.104621
0.103797
0.102984
0.102182
0.10139
0.100608
0.0998335
0.0990669
0.098307
0.0975527
0.0968032
0.0960574
0.0953143
0.0945729
0.0938322
0.0930912
0.0923489
0.0916042
0.0908561
0.0901035
0.0893455
0.0885811
0.0878092
0.0870288
0.0862392
0.0854391
0.0846278
0.0838044
0.0829678
0.0821174
0.0812521
0.0803712
0.0794739
0.0785595
0.0776272
0.0766765
0.0757066
0.074717
0.0737072
0.0726766
0.0716249
0.0705515
0.0694562
0.0683387
0.0671987
0.0660362
0.0648509
0.0636429
0.0624123
0.0611591
0.0598838
0.0585865
0.0572678
0.0559282
0.0545683
0.0531889
0.0517908
0.0503752
0.0489431
0.0474957
0.0460345
0.044561
0.0430769
0.0415841
0.0400844
0.0385801
0.0370733
0.0355664
0.0340619
0.0325624
0.0310706
0.0295892
0.0281212
0.0266694
0.0252368
0.0238264
0.0224412
0.0210841
0.0197581
0.0184659
0.0172103
0.0159938
0.0148189
0.0136877
0.0126024
0.0115645
0.0105756
0.00963696
0.00874935
0.00791338
0.00712927
0.00639696
0.00571598
0.00508566
0.0045049
0.00397241
0.00348659
0.00304558
0.00264735
0.00228966
0.00197013
0.00168631
0.00143562
0.00121549
0.00102335
0.000856644
0.000712909
0.000589753
0.000484902
0.00039621
0.000321677
0.000259458
0.000207863
0.000165377
0.000130635
0.000102506
7.9968e-05
0.176696
0.176573
0.176374
0.176094
0.175732
0.175288
0.174765
0.174165
0.173493
0.17275
0.17194
0.171065
0.170128
0.169134
0.168085
0.166985
0.165837
0.164646
0.163415
0.162149
0.16085
0.159524
0.158174
0.156805
0.155419
0.154022
0.152615
0.151204
0.149791
0.148378
0.146971
0.145572
0.144183
0.142804
0.141438
0.140089
0.138756
0.137441
0.136145
0.134869
0.133615
0.132381
0.131168
0.129977
0.128806
0.127655
0.126524
0.125414
0.124324
0.123253
0.122202
0.12117
0.120158
0.119164
0.118188
0.11723
0.11629
0.115366
0.11446
0.113569
0.112693
0.111833
0.110987
0.110154
0.109335
0.108527
0.107731
0.106946
0.10617
0.105403
0.104645
0.103893
0.103148
0.102407
0.101671
0.100938
0.100207
0.099477
0.0987469
0.0980157
0.0972823
0.0965455
0.0958044
0.0950578
0.0943047
0.0935439
0.0927745
0.0919953
0.0912054
0.0904038
0.0895893
0.0887611
0.0879181
0.0870595
0.0861841
0.0852913
0.0843801
0.0834497
0.0824993
0.0815283
0.0805357
0.0795211
0.0784838
0.0774232
0.0763387
0.0752298
0.0740961
0.0729373
0.071753
0.070543
0.0693072
0.0680454
0.0667576
0.065444
0.0641048
0.0627403
0.0613508
0.0599369
0.0584993
0.0570388
0.0555561
0.0540525
0.052529
0.050987
0.0494281
0.0478538
0.0462661
0.0446669
0.0430585
0.0414431
0.0398232
0.0382015
0.0365807
0.0349637
0.0333536
0.0317536
0.0301667
0.0285965
0.0270462
0.0255193
0.0240192
0.0225493
0.0211128
0.019713
0.018353
0.0170359
0.0157642
0.0145406
0.0133674
0.0122465
0.0111797
0.0101682
0.00921297
0.00831472
0.00747366
0.00668958
0.00596205
0.00529012
0.00467256
0.0041078
0.00359397
0.00312893
0.00271031
0.00233558
0.00200201
0.0017068
0.00144708
0.00121995
0.00102254
0.000852038
0.000705699
0.000580909
0.000475188
0.000386214
0.000311833
0.000250071
0.000199144
0.000157445
0.000123613
9.64064e-05
0.185349
0.185198
0.18497
0.184658
0.184259
0.183773
0.183205
0.182559
0.181837
0.181044
0.180182
0.179256
0.178268
0.177222
0.176123
0.174974
0.173779
0.172542
0.171267
0.169958
0.16862
0.167256
0.165871
0.164468
0.163052
0.161626
0.160195
0.158761
0.157328
0.1559
0.154478
0.153067
0.151667
0.150281
0.148909
0.147554
0.146217
0.144899
0.143601
0.142322
0.141065
0.139828
0.138613
0.137418
0.136245
0.135092
0.13396
0.132848
0.131756
0.130685
0.129633
0.1286
0.127587
0.126593
0.125617
0.124659
0.12372
0.122797
0.121892
0.121003
0.120131
0.119273
0.118431
0.117602
0.116788
0.115986
0.115196
0.114418
0.11365
0.112891
0.112141
0.111399
0.110664
0.109934
0.10921
0.108488
0.10777
0.107052
0.106335
0.105617
0.104898
0.104175
0.103447
0.102714
0.101975
0.101228
0.100472
0.0997053
0.0989277
0.0981378
0.0973343
0.0965162
0.0956823
0.0948316
0.093963
0.0930755
0.0921682
0.0912399
0.0902898
0.089317
0.0883206
0.0872998
0.0862537
0.0851816
0.0840828
0.0829565
0.0818021
0.0806192
0.079407
0.0781654
0.0768938
0.0755919
0.0742597
0.0728971
0.0715039
0.0700804
0.0686267
0.0671433
0.0656306
0.0640892
0.0625199
0.0609236
0.0593014
0.0576545
0.0559844
0.0542927
0.0525813
0.0508522
0.0491076
0.0473499
0.0455818
0.043806
0.0420255
0.0402435
0.0384634
0.0366886
0.0349228
0.0331698
0.0314335
0.0297178
0.0280267
0.0263642
0.0247343
0.023141
0.0215881
0.0200792
0.0186178
0.0172074
0.0158507
0.0145506
0.0133094
0.0121291
0.0110112
0.0099569
0.00896691
0.00804143
0.00718029
0.00638282
0.00564793
0.00497412
0.00435953
0.00380192
0.00329877
0.0028473
0.00244451
0.00208727
0.0017723
0.0014963
0.00125593
0.00104793
0.000869085
0.000716306
0.000586657
0.000477368
0.000385866
0.000309777
0.000246949
0.000195435
0.000153565
0.000119796
0.196236
0.196056
0.195796
0.195448
0.195008
0.194477
0.193859
0.193159
0.192382
0.19153
0.19061
0.189624
0.188576
0.187472
0.186314
0.185108
0.183857
0.182566
0.18124
0.179882
0.178497
0.177089
0.175662
0.174221
0.17277
0.171313
0.169852
0.168392
0.166936
0.165487
0.164048
0.16262
0.161206
0.159807
0.158425
0.15706
0.155715
0.154389
0.153084
0.151799
0.150536
0.149294
0.148073
0.146873
0.145695
0.144537
0.1434
0.142284
0.141188
0.140112
0.139057
0.138021
0.137005
0.136007
0.135029
0.13407
0.133129
0.132206
0.1313
0.130412
0.12954
0.128684
0.127844
0.127019
0.126209
0.125412
0.124628
0.123856
0.123095
0.122345
0.121604
0.120871
0.120147
0.119428
0.118715
0.118007
0.117301
0.116597
0.115894
0.115191
0.114486
0.113778
0.113066
0.112348
0.111624
0.110892
0.11015
0.109398
0.108634
0.107857
0.107066
0.106259
0.105436
0.104594
0.103733
0.102851
0.101948
0.101022
0.100072
0.0990965
0.0980954
0.097067
0.0960105
0.0949247
0.0938088
0.0926618
0.0914829
0.0902713
0.0890261
0.0877469
0.0864328
0.0850835
0.0836984
0.0822773
0.0808198
0.0793259
0.0777956
0.076229
0.0746263
0.072988
0.0713145
0.0696068
0.0678655
0.066092
0.0642875
0.0624536
0.060592
0.0587048
0.0567942
0.0548628
0.0529132
0.0509484
0.0489717
0.0469865
0.0449965
0.0430055
0.0410179
0.0390377
0.0370696
0.0351181
0.033188
0.0312841
0.029411
0.0275738
0.025777
0.0240253
0.0223232
0.0206749
0.0190844
0.0175552
0.0160906
0.0146935
0.0133662
0.0121107
0.0109281
0.0098194
0.00878477
0.00782393
0.00693604
0.00611976
0.00537325
0.00469422
0.00407998
0.00352749
0.00303344
0.00259423
0.00220616
0.00186537
0.00156799
0.00131013
0.001088
0.000897906
0.000736309
0.000599866
0.000485449
0.000390165
0.000311376
0.000246689
0.00019403
0.000151463
0.209427
0.209219
0.208925
0.208539
0.208054
0.207473
0.206801
0.206043
0.205205
0.20429
0.203305
0.202253
0.201139
0.199969
0.198747
0.197477
0.196164
0.194813
0.193429
0.192016
0.190579
0.189122
0.187649
0.186166
0.184675
0.183181
0.181687
0.180196
0.178713
0.177239
0.175776
0.174328
0.172895
0.171479
0.170081
0.168702
0.167343
0.166005
0.164688
0.163393
0.162119
0.160866
0.159636
0.158426
0.157239
0.156072
0.154926
0.153802
0.152698
0.151614
0.150551
0.149508
0.148485
0.147482
0.146498
0.145534
0.144588
0.143662
0.142753
0.141862
0.140989
0.140133
0.139293
0.138469
0.137661
0.136867
0.136086
0.135319
0.134565
0.133821
0.133088
0.132364
0.131649
0.130941
0.130239
0.129543
0.12885
0.128159
0.12747
0.126781
0.126091
0.125398
0.124701
0.123999
0.12329
0.122573
0.121846
0.121109
0.120359
0.119596
0.118817
0.118021
0.117208
0.116375
0.115522
0.114646
0.113747
0.112822
0.111872
0.110894
0.109887
0.10885
0.107781
0.10668
0.105544
0.104374
0.103167
0.101924
0.100641
0.0993196
0.0979578
0.0965549
0.0951102
0.093623
0.0920929
0.0905193
0.088902
0.0872409
0.0855358
0.0837869
0.0819946
0.0801592
0.0782815
0.0763624
0.0744031
0.072405
0.0703697
0.0682992
0.0661957
0.0640618
0.0619002
0.0597142
0.057507
0.0552826
0.0530448
0.050798
0.048547
0.0462965
0.0440518
0.0418182
0.0396012
0.0374066
0.0352401
0.0331075
0.0310148
0.0289676
0.0269715
0.0250321
0.0231544
0.0213432
0.0196029
0.0179375
0.0163503
0.0148442
0.0134214
0.0120835
0.0108312
0.00966498
0.00858426
0.00758798
0.00667442
0.00584128
0.00508574
0.00440449
0.00379384
0.00324974
0.0027679
0.00234388
0.00197308
0.00165094
0.0013729
0.00113452
0.000931518
0.000759833
0.000615636
0.000495374
0.000395792
0.000313923
0.000247183
0.000193133
0.225017
0.22478
0.22445
0.224023
0.22349
0.222856
0.222127
0.221307
0.220404
0.219422
0.218367
0.217245
0.21606
0.214819
0.213527
0.212188
0.210808
0.209392
0.207946
0.206473
0.204978
0.203467
0.201944
0.200413
0.198878
0.197342
0.19581
0.194284
0.192768
0.191263
0.189772
0.188297
0.18684
0.185401
0.183982
0.182583
0.181205
0.179848
0.178514
0.177202
0.175911
0.174643
0.173397
0.172173
0.170971
0.16979
0.168631
0.167493
0.166376
0.16528
0.164205
0.16315
0.162116
0.161103
0.160109
0.159135
0.158181
0.157247
0.156331
0.155434
0.154556
0.153695
0.152852
0.152026
0.151217
0.150422
0.149643
0.148878
0.148126
0.147387
0.146659
0.145941
0.145233
0.144533
0.14384
0.143153
0.142471
0.141792
0.141115
0.140438
0.139761
0.139082
0.138398
0.13771
0.137015
0.136312
0.135599
0.134875
0.134138
0.133387
0.13262
0.131835
0.131031
0.130207
0.12936
0.128489
0.127593
0.126669
0.125717
0.124735
0.123721
0.122673
0.121591
0.120473
0.119316
0.11812
0.116883
0.115604
0.114282
0.112914
0.1115
0.110039
0.10853
0.106971
0.105362
0.103701
0.101989
0.100225
0.0984074
0.0965373
0.0946141
0.0926382
0.0906098
0.0885296
0.0863985
0.0842177
0.0819886
0.0797131
0.0773932
0.0750315
0.0726308
0.0701943
0.0677257
0.0652288
0.0627081
0.0601683
0.0576145
0.0550524
0.0524877
0.0499266
0.0473757
0.0448415
0.042331
0.0398513
0.0374094
0.0350124
0.0326674
0.0303811
0.0281602
0.0260109
0.0239391
0.0219499
0.0200482
0.018238
0.0165227
0.0149047
0.013386
0.0119675
0.0106493
0.00943076
0.00831038
0.00728595
0.00635458
0.00551271
0.00475626
0.0040807
0.00348111
0.0029523
0.00248892
0.00208552
0.00173668
0.00143705
0.00118144
0.00096489
0.000782726
0.000630569
0.000504401
0.000400535
0.000315748
0.00024697
0.243122
0.242853
0.242485
0.242013
0.241431
0.240741
0.23995
0.239066
0.238095
0.237042
0.235914
0.234717
0.233458
0.232142
0.230775
0.229363
0.227911
0.226426
0.224912
0.223374
0.221818
0.220248
0.218669
0.217085
0.2155
0.213918
0.212342
0.210775
0.20922
0.207679
0.206153
0.204646
0.203157
0.201689
0.200241
0.198816
0.197412
0.196031
0.194672
0.193336
0.192023
0.190733
0.189465
0.18822
0.186997
0.185796
0.184617
0.183459
0.182323
0.181209
0.180116
0.179044
0.177994
0.176964
0.175955
0.174967
0.173999
0.173051
0.172123
0.171216
0.170327
0.169457
0.168606
0.167773
0.166957
0.166158
0.165375
0.164607
0.163853
0.163114
0.162386
0.16167
0.160965
0.160269
0.159581
0.158899
0.158223
0.157552
0.156883
0.156215
0.155547
0.154877
0.154205
0.153527
0.152843
0.15215
0.151448
0.150735
0.150008
0.149266
0.148508
0.147731
0.146935
0.146116
0.145273
0.144405
0.14351
0.142585
0.14163
0.140642
0.139619
0.138559
0.137462
0.136324
0.135144
0.13392
0.132651
0.131335
0.129969
0.128553
0.127085
0.125563
0.123985
0.12235
0.120658
0.118905
0.117093
0.115219
0.113283
0.111284
0.109221
0.107095
0.104905
0.102652
0.100336
0.0979581
0.0955191
0.0930208
0.0904652
0.0878545
0.0851915
0.0824794
0.0797219
0.0769232
0.0740878
0.0712209
0.0683282
0.0654156
0.0624899
0.059558
0.0566274
0.0537059
0.0508015
0.0479228
0.0450781
0.0422761
0.0395255
0.0368348
0.0342122
0.0316657
0.0292029
0.0268307
0.0245556
0.0223832
0.0203182
0.0183647
0.0165254
0.0148025
0.0131969
0.0117085
0.0103364
0.0090784
0.00793174
0.0068927
0.00595683
0.00511905
0.0043738
0.00371509
0.00313665
0.00263207
0.00219487
0.00181864
0.00149711
0.00122426
0.000994353
0.000802029
0.000642323
0.00051067
0.000403053
0.000315621
0.263876
0.263573
0.263164
0.262644
0.262008
0.261259
0.260405
0.259452
0.258409
0.257282
0.256077
0.254803
0.253464
0.252069
0.250624
0.249134
0.247606
0.246046
0.24446
0.242853
0.241229
0.239595
0.237955
0.236313
0.234672
0.233037
0.231411
0.229796
0.228195
0.226611
0.225044
0.223496
0.22197
0.220464
0.218981
0.217521
0.216084
0.21467
0.21328
0.211913
0.21057
0.20925
0.207953
0.206679
0.205428
0.204199
0.202993
0.201809
0.200647
0.199507
0.19839
0.197294
0.196219
0.195167
0.194136
0.193126
0.192138
0.19117
0.190224
0.189298
0.188393
0.187507
0.186641
0.185794
0.184966
0.184155
0.183361
0.182584
0.181823
0.181076
0.180342
0.179621
0.178912
0.178213
0.177523
0.176841
0.176166
0.175495
0.174828
0.174163
0.173498
0.172833
0.172164
0.171491
0.170812
0.170125
0.169428
0.16872
0.167999
0.167262
0.166508
0.165735
0.164941
0.164124
0.163282
0.162413
0.161515
0.160586
0.159624
0.158627
0.157592
0.156518
0.155403
0.154243
0.153038
0.151785
0.150482
0.149126
0.147716
0.146249
0.144724
0.143139
0.141491
0.139778
0.138
0.136153
0.134237
0.132251
0.130191
0.128059
0.125852
0.123569
0.121211
0.118777
0.116267
0.113682
0.111021
0.108287
0.105481
0.102604
0.0996607
0.0966526
0.0935836
0.0904581
0.0872807
0.0840569
0.0807927
0.0774947
0.0741702
0.0708271
0.0674737
0.064119
0.0607724
0.0574437
0.054143
0.0508807
0.0476672
0.0445129
0.0414281
0.0384228
0.0355067
0.0326888
0.0299774
0.0273802
0.0249038
0.0225538
0.0203346
0.0182497
0.0163011
0.0144897
0.0128152
0.0112759
0.0098691
0.00859112
0.0074372
0.00640177
0.00547857
0.00466074
0.00394103
0.00331191
0.00276572
0.0022948
0.00189161
0.00154887
0.00125959
0.00101723
0.000815669
0.000649282
0.000513085
0.000402265
0.287434
0.287093
0.286639
0.286067
0.285372
0.28456
0.283637
0.282613
0.281494
0.280288
0.279002
0.277645
0.276223
0.274744
0.273214
0.271642
0.270032
0.268393
0.266729
0.265046
0.26335
0.261646
0.259938
0.258231
0.256528
0.254833
0.253149
0.251479
0.249825
0.248189
0.246573
0.244978
0.243404
0.241854
0.240327
0.238824
0.237345
0.23589
0.234459
0.233053
0.231671
0.230312
0.228978
0.227666
0.226379
0.225114
0.223873
0.222654
0.221458
0.220284
0.219134
0.218005
0.216899
0.215815
0.214754
0.213715
0.212697
0.211702
0.210728
0.209776
0.208845
0.207935
0.207046
0.206176
0.205326
0.204495
0.203682
0.202887
0.202108
0.201345
0.200597
0.199862
0.19914
0.198429
0.197728
0.197036
0.196352
0.195673
0.194999
0.194328
0.193657
0.192987
0.192314
0.191638
0.190956
0.190266
0.189567
0.188856
0.188132
0.187393
0.186636
0.18586
0.185062
0.184241
0.183394
0.182518
0.181613
0.180674
0.179701
0.17869
0.17764
0.176547
0.175411
0.174227
0.172993
0.171708
0.170368
0.168972
0.167516
0.165997
0.164414
0.162765
0.161045
0.159254
0.157389
0.155448
0.153428
0.151327
0.149144
0.146876
0.144523
0.142082
0.139552
0.136934
0.134225
0.131426
0.128537
0.125559
0.122493
0.11934
0.116102
0.112783
0.109385
0.105913
0.102372
0.0987665
0.0951034
0.0913897
0.0876331
0.0838424
0.0800267
0.0761963
0.0723617
0.0685344
0.0647261
0.0609489
0.0572154
0.0535382
0.0499297
0.0464024
0.0429683
0.0396389
0.0364249
0.0333363
0.0303821
0.0275699
0.0249062
0.0223962
0.0200434
0.0178499
0.0158165
0.0139422
0.0122247
0.0106605
0.00924448
0.00797081
0.0068325
0.00582182
0.00493044
0.0041496
0.00347031
0.00288348
0.00238011
0.00195145
0.00158904
0.00128491
0.00103161
0.0008222
0.000650544
0.000510657
0.313966
0.313584
0.313079
0.312449
0.311691
0.310809
0.309813
0.30871
0.307509
0.306217
0.304844
0.303398
0.301885
0.300316
0.298696
0.297034
0.295337
0.29361
0.291862
0.290097
0.288321
0.286539
0.284756
0.282976
0.281203
0.27944
0.27769
0.275957
0.274241
0.272545
0.27087
0.269218
0.267589
0.265984
0.264404
0.262848
0.261318
0.259812
0.258332
0.256876
0.255445
0.254039
0.252657
0.251299
0.249965
0.248655
0.247368
0.246105
0.244865
0.243648
0.242454
0.241283
0.240136
0.239011
0.237909
0.23683
0.235773
0.234739
0.233728
0.232739
0.231772
0.230827
0.229903
0.229
0.228117
0.227254
0.226411
0.225585
0.224778
0.223987
0.223211
0.222451
0.221704
0.220969
0.220245
0.219531
0.218826
0.218127
0.217434
0.216744
0.216057
0.21537
0.214681
0.21399
0.213293
0.212589
0.211877
0.211153
0.210416
0.209665
0.208896
0.208107
0.207296
0.206462
0.205601
0.204711
0.20379
0.202835
0.201844
0.200814
0.199742
0.198626
0.197463
0.196251
0.194985
0.193665
0.192286
0.190846
0.189342
0.187771
0.186129
0.184415
0.182625
0.180755
0.178804
0.176769
0.174646
0.172433
0.170127
0.167726
0.165227
0.162629
0.159929
0.157126
0.154219
0.151206
0.148087
0.144862
0.141532
0.138096
0.134558
0.130918
0.127181
0.123349
0.119428
0.115423
0.111339
0.107185
0.102969
0.0986996
0.0943873
0.090043
0.0856789
0.0813078
0.0769431
0.072599
0.0682902
0.0640315
0.0598381
0.055725
0.051707
0.0477983
0.0440128
0.040363
0.0368607
0.0335162
0.0303385
0.0273349
0.0245111
0.0218708
0.0194161
0.0171471
0.0150624
0.0131586
0.0114308
0.00987283
0.00847704
0.00723486
0.00613683
0.00517287
0.00433252
0.0036051
0.00297994
0.00244657
0.00199487
0.00161517
0.00129842
0.00103617
0.000820882
0.000645167
0.343663
0.343235
0.342672
0.341977
0.341147
0.340187
0.339108
0.337917
0.336624
0.335238
0.333767
0.332222
0.33061
0.32894
0.327221
0.32546
0.323665
0.321844
0.320001
0.318145
0.31628
0.314411
0.312544
0.310682
0.30883
0.30699
0.305165
0.303358
0.301571
0.299805
0.298062
0.296343
0.294648
0.292978
0.291334
0.289716
0.288123
0.286557
0.285015
0.2835
0.282009
0.280544
0.279104
0.277688
0.276297
0.274929
0.273586
0.272267
0.270971
0.269699
0.268451
0.267226
0.266025
0.264847
0.263692
0.262561
0.261452
0.260367
0.259306
0.258267
0.25725
0.256256
0.255284
0.254334
0.253404
0.252495
0.251606
0.250737
0.249885
0.249051
0.248234
0.247432
0.246645
0.245871
0.245109
0.244357
0.243615
0.242881
0.242153
0.24143
0.24071
0.239992
0.239272
0.238551
0.237825
0.237093
0.236353
0.235603
0.23484
0.234063
0.233268
0.232455
0.23162
0.23076
0.229875
0.22896
0.228013
0.227033
0.226015
0.224957
0.223856
0.22271
0.221515
0.220268
0.218966
0.217605
0.216184
0.214698
0.213143
0.211518
0.209817
0.208038
0.206177
0.204231
0.202196
0.200069
0.197846
0.195524
0.193099
0.190569
0.187929
0.185178
0.182313
0.17933
0.176229
0.173006
0.16966
0.166191
0.162598
0.158881
0.155041
0.151079
0.146997
0.1428
0.13849
0.134073
0.129555
0.124944
0.120247
0.115475
0.110638
0.105748
0.100818
0.0958633
0.0908981
0.0859388
0.0810025
0.0761064
0.0712685
0.0665068
0.061839
0.0572829
0.0528553
0.0485722
0.0444487
0.0404982
0.0367328
0.0331626
0.0297957
0.0266383
0.0236942
0.0209651
0.0184505
0.016148
0.0140529
0.0121587
0.0104576
0.00894009
0.00759554
0.00641254
0.00537901
0.00448253
0.00371055
0.00305067
0.00249082
0.00201941
0.00162552
0.00129888
0.00103033
0.0008108
0.376733
0.376252
0.375623
0.374852
0.373938
0.372887
0.37171
0.370417
0.369018
0.367522
0.36594
0.364281
0.362555
0.360772
0.35894
0.357067
0.355162
0.353233
0.351285
0.349326
0.34736
0.345394
0.343432
0.341478
0.339535
0.337607
0.335696
0.333805
0.331935
0.330088
0.328266
0.326468
0.324696
0.32295
0.321231
0.319538
0.317871
0.316231
0.314617
0.313029
0.311467
0.30993
0.308418
0.306932
0.30547
0.304033
0.30262
0.301231
0.299867
0.298526
0.297209
0.295916
0.294646
0.2934
0.292178
0.29098
0.289805
0.288653
0.287525
0.28642
0.285338
0.284278
0.283241
0.282226
0.281233
0.28026
0.279308
0.278376
0.277463
0.276568
0.27569
0.274828
0.273982
0.27315
0.27233
0.271523
0.270725
0.269936
0.269155
0.26838
0.267608
0.266839
0.266071
0.265301
0.264529
0.263751
0.262966
0.262172
0.261366
0.260547
0.259711
0.258858
0.257983
0.257085
0.256161
0.255208
0.254224
0.253205
0.25215
0.251053
0.249914
0.248728
0.247492
0.246204
0.244858
0.243453
0.241984
0.240448
0.238841
0.237158
0.235397
0.233553
0.231623
0.229601
0.227485
0.225269
0.222951
0.220524
0.217987
0.215334
0.212561
0.209665
0.206642
0.203488
0.200201
0.196776
0.193213
0.189508
0.18566
0.181668
0.177532
0.173252
0.16883
0.164267
0.159568
0.154736
0.149778
0.1447
0.13951
0.134218
0.128836
0.123376
0.117852
0.11228
0.106676
0.10106
0.0954485
0.0898634
0.084325
0.0788544
0.0734729
0.0682018
0.0630617
0.0580725
0.053253
0.0486205
0.0441905
0.0399768
0.0359905
0.0322408
0.0287338
0.0254735
0.0224609
0.0196946
0.0171707
0.0148829
0.012823
0.0109809
0.00934492
0.00790218
0.00663894
0.00554088
0.0045934
0.00378194
0.0030922
0.00251038
0.00202342
0.00161897
0.0012859
0.0010132
0.413408
0.412863
0.412156
0.411293
0.410277
0.409116
0.407821
0.406403
0.404875
0.403247
0.401531
0.399737
0.397877
0.39596
0.393995
0.391993
0.389962
0.387908
0.38584
0.383763
0.381683
0.379606
0.377535
0.375475
0.373429
0.371401
0.369392
0.367404
0.365439
0.363499
0.361584
0.359695
0.357833
0.355998
0.35419
0.352408
0.350654
0.348927
0.347226
0.345551
0.343903
0.34228
0.340682
0.33911
0.337562
0.336039
0.334541
0.333067
0.331617
0.330191
0.328789
0.32741
0.326055
0.324724
0.323417
0.322133
0.320872
0.319635
0.318421
0.317231
0.316063
0.314918
0.313796
0.312696
0.311618
0.310561
0.309524
0.308508
0.307511
0.306532
0.305572
0.304628
0.3037
0.302787
0.301888
0.301002
0.300126
0.299261
0.298404
0.297553
0.296708
0.295867
0.295028
0.294189
0.293348
0.292504
0.291653
0.290795
0.289927
0.289047
0.288152
0.28724
0.286308
0.285354
0.284375
0.283369
0.282332
0.281261
0.280154
0.279007
0.277817
0.276581
0.275295
0.273955
0.272558
0.271101
0.269578
0.267987