/*--------------------------------*- C++ -*----------------------------------*\
| =========                 |                                                 |
| \\      /  F ield         | OpenFOAM: The Open Source CFD Toolbox           |
|  \\    /   O peration     | Version:  2406                                  |
|   \\  /    A nd           | Website:  www.openfoam.com                      |
|    \\/     M anipulation  |                                                 |
\*---------------------------------------------------------------------------*/
FoamFile
{
    version     2.0;
    format      ascii;
    arch        "LSB;label=32;scalar=64";
    class       surfaceScalarField;
    location    "14.75";
    object      phi;
}
// * * * * * * * * * * * * * * * * * * * * * * * * * * * * * * * * * * * * * //

dimensions      [0 3 -1 0 0 0 0];

oriented        oriented;

internalField   nonuniform List<scalar> 
101088
(
-0.00017355369
3.7866204e-05
-1.5349238e-05
-3.2055549e-05
-0.00038494362
0.0001719654
-7.04564e-05
-0.00014633704
-0.00061720563
0.00043007794
-0.00017893364
-0.00036736628
-0.00083395048
0.00083446237
-0.00035549739
-0.00071752543
-0.00098955017
0.0013413537
-0.00058380866
-0.0011650937
-0.0010660459
0.0018475068
-0.0008010097
-0.0016187396
-0.0011021648
0.0022472662
-0.00092365325
-0.0019730795
-0.0011639892
0.002466205
-0.00090771809
-0.0021546912
0.0024573701
-0.0007767565
-0.0021449127
-0.0012725754
-0.00021071066
4.1873444e-05
-1.7896802e-05
-0.00046103017
0.00019102769
-8.2631916e-05
-0.00072374449
0.00047730505
-0.00021088001
-0.0009463637
0.00092035761
-0.00041988478
-0.0010732914
0.0014682946
-0.0006888103
-0.0010928778
0.0020138359
-0.00094265343
-0.0010590314
0.0024525951
-0.0010862515
-0.0010461314
0.0027033071
-0.0010731913
0.0027007378
-0.0009316677
-0.0010879306
-0.00024881815
4.4127579e-05
-1.9928481e-05
-0.00053917369
0.00020232636
-9.2757805e-05
-0.00083394319
0.00050623614
-0.0002382267
-0.0010672001
0.00097245055
-0.0004755705
-0.0011737254
0.0015418368
-0.00077848542
-0.0011455436
0.002108067
-0.0010598187
-0.0010490804
0.0025720374
-0.0012154885
-0.00097040896
0.0028479
-0.0011994599
0.0028598543
-0.0010469541
-0.00095560426
-0.00028637865
4.4547802e-05
-2.1422576e-05
-0.00061689151
0.00020535476
-0.00010063577
-0.00094416071
0.00051467851
-0.00026032506
-0.0011891936
0.00098606071
-0.00052129938
-0.0012806658
0.00155698
-0.00085149158
-0.001215555
0.0021254211
-0.0011522757
-0.0010725877
0.0026020289
-0.0013129869
-0.00094531812
0.0028960011
-0.0012900406
0.0029255602
-0.0011268314
-0.0008843622
-0.0003219823
4.2614495e-05
-2.2256935e-05
-0.0006907275
0.0001985201
-0.00010577912
-0.0010500422
0.00050034973
-0.00027616581
-0.0013101054
0.0009593565
-0.00055567821
-0.0013949172
0.0015130846
-0.00090689789
-0.0013066338
0.0020670758
-0.0012209925
-0.0011320681
0.0025416387
-0.0013810217
-0.00097061207
0.0028458196
-0.0013490474
0.0028926392
-0.0011759848
-0.00087311733
-0.00035621353
3.919428e-05
-2.2498682e-05
-0.00076421588
0.00018435788
-0.00010840167
-0.001159808
0.00046726886
-0.00028616857
-0.0014424513
0.00089694009
-0.00057947643
-0.001530983
0.0014140294
-0.00094583246
-0.0014322659
0.0019354375
-0.0012669886
-0.0012377217
0.0023903945
-0.0014225059
-0.0010512387
0.0026944826
-0.0013803324
0.0027555121
-0.0011986517
-0.00092238231
-0.0003869304
3.4258655e-05
-2.2220661e-05
-0.0008310447
0.00016295099
-0.00010866425
-0.0012616337
0.00041596644
-0.00029039507
-0.0015697752
0.00080078237
-0.00059239437
-0.0016709061
0.0012642635
-0.00096792368
-0.0015747181
0.0017362318
-0.0012910967
-0.0013723382
0.0021521052
-0.0014394741
-0.0011715645
0.0024446873
-0.0013869551
0.0025147028
-0.001198575
-0.0010187636
-0.00041390922
2.8135689e-05
-2.1496675e-05
-0.00089121869
0.00013556058
-0.00010687259
-0.0013561969
0.00034910079
-0.00028953976
-0.0016928961
0.00067512416
-0.000595761
-0.0018133996
0.0010691135
-0.00097546392
-0.001729655
0.0014759002
-0.0012966879
-0.0015306248
0.001834264
-0.0014366378
-0.0013223688
0.0020998126
-0.0013741075
0.0021722204
-0.001180943
-0.0011503312
-0.00043666626
2.1275234e-05
-2.0493045e-05
-0.00094354099
0.00010395002
-0.00010368151
-0.0014412547
0.00027032668
-0.00028498334
-0.0018081279
0.00052576572
-0.00059187896
-0.001952874
0.00083603321
-0.00097186871
-0.0018862664
0.0011606252
-0.001288362
-0.0016984814
0.0014466695
-0.0014196273
-0.0014880518
0.0016672844
-0.0013478159
0.0017338306
-0.0011516402
-0.0013001979
-0.00045467504
1.4178313e-05
-1.9433651e-05
-0.00098638471
7.014746e-05
-0.00010000274
-0.001513352
0.00018397452
-0.00027869022
-0.0019092835
0.00035959762
-0.00058399857
-0.0020794152
0.00057390532
-0.00096178776
-0.0020319195
0.00080032165
-0.0012722593
-0.0018581999
0.0010007833
-0.0013951788
-0.0016487247
0.001159434
-0.001315512
0.0012109348
-0.0011176714
-0.0014477365
-0.00046709739
7.1323112e-06
-1.8597725e-05
-0.0010166423
3.544963e-05
-9.6929835e-05
-0.0015654866
9.3290278e-05
-0.00027293412
-0.0019842825
0.00018265351
-0.00057575101
-0.0021756629
0.00029196389
-0.00095029492
-0.0021455993
0.00040824442
-0.0012549665
-0.0019848199
0.00051182222
-0.0013708455
-0.001777824
0.00059496199
-0.0012853291
0.00062321793
-0.0010868377
-0.001567293
-0.00047336819
-6.3981142e-11
-1.806786e-05
-0.001032042
-2.6337149e-10
-9.4955628e-05
-0.0015923962
-5.6981129e-10
-0.00026914005
-0.0020238477
-9.1756256e-10
-0.00057018972
-0.0022277442
-1.1121551e-09
-0.00094264927
-0.0022085237
-1.2591314e-09
-0.0012440036
-0.0020557061
-1.0071433e-09
-0.0013559203
-0.0018507945
-8.455651e-11
-0.0012672283
1.0204181e-09
-0.0010684834
-0.0016353152
-0.00047336824
-7.1324051e-06
-1.8067858e-05
-0.0010320418
-3.5450026e-05
-9.4955617e-05
-0.0015923957
-9.3291122e-05
-0.00026914002
-0.0020238471
-0.00018265508
-0.00057018966
-0.002227744
-0.00029196623
-0.00094264918
-0.0022085236
-0.00040824732
-0.0012440035
-0.0020557059
-0.00051182465
-0.0013559203
-0.0018507942
-0.00059496219
-0.0012672283
-0.00062321568
-0.0010684834
-0.0016353148
-0.00046709751
-1.4178403e-05
-1.8597728e-05
-0.0010166421
-7.014783e-05
-9.6929849e-05
-0.0015654865
-0.00018397534
-0.00027293415
-0.001984282
-0.00035959928
-0.00057575109
-0.0021756629
-0.00057390811
-0.00095029497
-0.0021455991
-0.00080032517
-0.0012549666
-0.0019848194
-0.0010007864
-0.0013708456
-0.0017778232
-0.0011594346
-0.001285329
-0.0012109327
-0.0010868376
-0.001567292
-0.00045467512
-2.1275259e-05
-1.9433653e-05
-0.00098638451
-0.00010395023
-0.00010000275
-0.0015133523
-0.00027032751
-0.00027869025
-0.0019092831
-0.00052576757
-0.00058399863
-0.0020794147
-0.000836036
-0.00096178772
-0.0020319185
-0.0011606286
-0.0012722592
-0.0018581987
-0.0014466725
-0.0013951787
-0.0016487235
-0.0016672854
-0.0013155118
-0.0017338289
-0.0011176712
-0.0014477356
-0.00043666665
-2.8135685e-05
-2.0493053e-05
-0.00094354099
-0.00013556066
-0.00010368154
-0.0014412549
-0.00034910148
-0.00028498341
-0.0018081276
-0.00067512594
-0.0005918791
-0.0019528731
-0.0010691162
-0.00097186878
-0.001886265
-0.0014759037
-0.0012883621
-0.00169848
-0.0018342673
-0.0014196272
-0.0014880507
-0.0020998143
-0.0013478158
-0.002172219
-0.0011516401
-0.001300197
-0.00041390938
-3.4258779e-05
-2.1496687e-05
-0.00089121851
-0.00016295133
-0.00010687264
-0.0013561968
-0.00041596729
-0.00028953986
-0.0016928958
-0.0008007841
-0.00059576119
-0.001813399
-0.001264266
-0.00097546408
-0.001729654
-0.0017362355
-0.001296688
-0.0015306241
-0.0021521091
-0.0014366378
-0.0013223682
-0.0024446894
-0.0013741075
-0.002514701
-0.001180943
-0.0011503305
-0.0003869304
-3.9194313e-05
-2.2220671e-05
-0.00083104479
-0.00018435802
-0.00010866429
-0.0012616335
-0.0004672694
-0.00029039517
-0.0015697749
-0.00089694153
-0.00059239456
-0.0016709064
-0.0014140318
-0.0009679239
-0.001574718
-0.0019354412
-0.001291097
-0.0013723382
-0.0023903986
-0.0014394744
-0.0011715641
-0.0026944848
-0.0013869551
-0.0027555102
-0.0011985749
-0.001018763
-0.00035621363
-4.2614563e-05
-2.2498692e-05
-0.00076421594
-0.00019852035
-0.00010840172
-0.0011598077
-0.00050035036
-0.00028616868
-0.0014424516
-0.00095935796
-0.00057947666
-0.0015309844
-0.0015130872
-0.00094583279
-0.0014322669
-0.0020670796
-0.0012669891
-0.0012377226
-0.0025416427
-0.0014225064
-0.0010512389
-0.0028458219
-0.0013803326
-0.0028926383
-0.0011986516
-0.00092238171
-0.0003219823
-4.4547829e-05
-2.2256938e-05
-0.00069072733
-0.00020535488
-0.00010577913
-0.0010500419
-0.0005146788
-0.00027616584
-0.0013101056
-0.00098606148
-0.00055567826
-0.0013949182
-0.0015569819
-0.00090689797
-0.0013066346
-0.002125424
-0.0012209927
-0.0011320691
-0.0026020324
-0.0013810219
-0.00097061301
-0.0028960035
-0.0013490474
-0.0029255607
-0.0011759848
-0.00087311665
-0.00028637863
-4.4127534e-05
-2.1422571e-05
-0.00061689159
-0.00020232628
-0.00010063575
-0.00094416074
-0.00050623606
-0.000260325
-0.0011891937
-0.00097245082
-0.00052129925
-0.0012806664
-0.0015418381
-0.00085149143
-0.0012155563
-0.0021080691
-0.0011522756
-0.0010725894
-0.0025720397
-0.0013129869
-0.00094531953
-0.0028479024
-0.0012900406
-0.0028598575
-0.0011268315
-0.00088436141
-0.00024881807
-4.1873386e-05
-1.9928473e-05
-0.00053917357
-0.00019102755
-9.2757766e-05
-0.00083394281
-0.00047730497
-0.0002382266
-0.0010671995
-0.00092035798
-0.00047557031
-0.0011737251
-0.0014682957
-0.00077848517
-0.0011455444
-0.0020138375
-0.0010598185
-0.0010490816
-0.0024525962
-0.0012154885
-0.00097041058
-0.0027033095
-0.0011994601
-0.002700743
-0.0010469541
-0.00095560396
-0.00021071059
-3.7866148e-05
-1.7896798e-05
-0.00046102996
-0.00017196526
-8.2631897e-05
-0.00072374394
-0.00043007777
-0.00021087997
-0.00094636269
-0.00083446225
-0.00041988472
-0.0010732902
-0.001341354
-0.00068881023
-0.0010928771
-0.0018475077
-0.00094265343
-0.0010590312
-0.0022472672
-0.0010862516
-0.0010461313
-0.0024662081
-0.0010731917
-0.0024573761
-0.00093166792
-0.0010879295
-0.00017355365
-1.534924e-05
-3.2055591e-05
-0.00038494337
-7.0456403e-05
-0.00014633721
-0.00061720482
-0.00017893364
-0.00036736665
-0.00083394891
-0.0003554974
-0.00071752603
-0.00098954872
-0.00058380868
-0.0011650947
-0.0010660444
-0.00080100976
-0.0016187415
-0.0011021628
-0.00092365348
-0.0019730815
-0.0011639897
-0.0009077184
-0.0021546931
-0.00077675663
-0.0021449151
-0.0012725777
1.026072e-06
-9.1307394e-07
-1.5264983e-05
-1.9725452e-07
4.2890753e-06
-4.634225e-06
-6.8982088e-05
-1.0313079e-07
9.0267002e-06
-1.3559156e-05
-0.000172175
2.0627494e-06
1.2440782e-05
-3.306873e-05
-0.00033640829
1.0565321e-05
1.3285999e-05
-7.0007006e-05
-0.00054661541
3.1968348e-05
1.5282748e-05
-0.00012660754
-0.00074737295
7.0974076e-05
2.5507091e-05
-0.00019426162
-0.00086261394
0.00012299813
4.8473961e-05
-0.00025532539
-0.0008497835
0.00017442418
-0.00029049846
-0.00072811999
0.00021029757
8.003812e-05
1.6945569e-06
-2.4043494e-06
-1.8100087e-05
7.1252664e-06
-1.0961565e-05
-8.1735232e-05
1.504531e-05
-2.8548641e-05
-0.00020381046
2.0778234e-05
-6.1364715e-05
-0.00039732155
2.102677e-05
-0.00011563254
-0.00064343321
1.9215573e-05
-0.0001906198
-0.00087682994
2.3155687e-05
-0.00027337169
-0.0010110813
3.7930357e-05
-0.00034243544
-0.0010008558
-0.00037747922
-0.00087060708
6.3850469e-05
2.5431347e-06
-4.2000385e-06
-2.0675938e-05
1.0555078e-05
-1.841358e-05
-9.3317761e-05
2.1953135e-05
-4.5765005e-05
-0.00023240854
2.9595305e-05
-9.2874655e-05
-0.00045170291
2.8065429e-05
-0.00016465288
-0.00072793527
2.0788765e-05
-0.00025712787
-0.00098603369
1.6554774e-05
-0.00035347793
-0.0011311485
2.2002672e-05
-0.00042884575
-0.0011184974
-0.00046173286
-0.00097964171
3.8943991e-05
3.4897676e-06
-6.1191417e-06
-2.2993198e-05
1.4343525e-05
-2.6224892e-05
-0.00010367808
2.940847e-05
-6.3382715e-05
-0.00025777219
3.8662945e-05
-0.00012416623
-0.00049926233
3.4518218e-05
-0.00021172758
-0.00080027208
2.0846121e-05
-0.00031903773
-0.0010766936
7.9296023e-06
-0.00042643144
-0.0012271169
4.144775e-06
-0.00050589796
-0.0012092035
-0.00053461695
-0.0010618209
1.2018534e-05
4.4368898e-06
-7.8788008e-06
-2.4934162e-05
1.813734e-05
-3.3301723e-05
-0.00011240281
3.6777549e-05
-7.9030183e-05
-0.00027915884
4.7309612e-05
-0.00015120059
-0.00053917604
4.0056218e-05
-0.00025115702
-0.00086021488
1.9610475e-05
-0.00036945374
-0.0011501307
-1.3063873e-06
-0.0004841014
-0.0013024349
-1.3079284e-05
-0.0005650941
-0.0012780781
-0.00058830906
-0.001122708
-1.266399e-05
5.4663804e-06
-9.3017611e-06
-2.6542077e-05
2.226355e-05
-3.8858291e-05
-0.00011964222
4.4829072e-05
-9.0889775e-05
-0.00029687488
5.6926345e-05
-0.00017076076
-0.00057201352
4.6836662e-05
-0.00027804315
-0.00090885638
2.0348876e-05
-0.00040156129
-0.0012083933
-7.5749859e-06
-0.00051832653
-0.0013603567
-2.6050677e-05
-0.00059767346
-0.0013292773
-0.00061474209
-0.0011666975
-3.1571965e-05
6.3840402e-06
-1.0069825e-05
-2.783666e-05
2.6003698e-05
-4.1698408e-05
-0.00012544391
5.2164298e-05
-9.6470727e-05
-0.00031097484
6.5668956e-05
-0.00017880584
-0.00059785416
5.3074311e-05
-0.00028689595
-0.0009464759
2.1548499e-05
-0.00040879365
-0.0012523385
-1.1831416e-05
-0.00052177581
-0.0014026448
-3.4994677e-05
-0.00059607205
-0.0013653933
-0.0006072321
-0.0011969123
-4.4167442e-05
7.1749016e-06
-9.9401456e-06
-2.8801125e-05
2.9295218e-05
-4.0891809e-05
-0.00012979986
5.872457e-05
-9.3844121e-05
-0.00032159568
7.3659226e-05
-0.00017223494
-0.00061726662
5.9195068e-05
-0.00027345793
-0.00097443761
2.3951964e-05
-0.0003859173
-0.0012843211
-1.3402589e-05
-0.00048859032
-0.0014324686
-3.9322528e-05
-0.00055430435
-0.0013899554
-0.00056047132
-0.0012168624
-5.0163962e-05
7.8045133e-06
-8.764811e-06
-2.9472791e-05
3.2002427e-05
-3.5896436e-05
-0.00013287504
6.426106e-05
-8.1928298e-05
-0.00032915777
8.0629197e-05
-0.00014936263
-0.00063111958
6.5020873e-05
-0.00023545549
-0.00099426287
2.7449269e-05
-0.00033013697
-0.0013065709
-1.2537287e-05
-0.00041567893
-0.0014525522
-3.958485e-05
-0.00046923732
-0.0014058354
-0.00047182308
-0.0012293235
-5.0549715e-05
8.2847454e-06
-6.5714775e-06
-2.991168e-05
3.4135284e-05
-2.6827201e-05
-0.0001349226
6.8761504e-05
-6.099842e-05
-0.00033424625
8.6562373e-05
-0.00011069974
-0.00064046243
7.0515551e-05
-0.00017366717
-0.0010075291
3.1702204e-05
-0.00024244369
-0.0013211392
-9.7460906e-06
-0.00030421024
-0.0014651993
-3.6895968e-05
-0.0003422636
-0.0014153357
-0.00034283052
-0.0012364494
-4.7110466e-05
8.6111396e-06
-3.547883e-06
-3.0232404e-05
3.5610246e-05
-1.4428555e-05
-0.00013632771
7.193027e-05
-3.2688993e-05
-0.00033756365
9.086902e-05
-5.9113312e-05
-0.00064627632
7.4751967e-05
-9.2426076e-05
-0.0010154187
3.5358983e-05
-0.00012865856
-0.0013293587
-6.7460875e-06
-0.00016110715
-0.0014718435
-3.3539021e-05
-0.00018090885
-0.0014198909
-0.0001808157
-0.0012396228
-4.2768896e-05
8.7100782e-06
1.6613218e-11
-3.0325769e-05
3.613966e-05
6.1837997e-11
-0.00013681386
7.3163672e-05
1.2326934e-10
-0.00033885306
9.2590108e-05
2.0975549e-10
-0.00064872964
7.6438219e-05
3.2962905e-10
-0.0010189237
3.6867274e-05
3.399887e-10
-0.0013330917
-5.321628e-06
3.4359839e-10
-0.001474839
-3.158312e-05
4.1468931e-10
-0.0014218764
5.9903215e-10
-0.001240958
-3.992515e-05
8.7100536e-06
3.5479166e-06
-3.0325765e-05
3.6139648e-05
1.4428681e-05
-0.00013681384
7.3163712e-05
3.2689249e-05
-0.00033885302
9.2590157e-05
5.9113731e-05
-0.00064872957
7.6438165e-05
9.2426677e-05
-0.0010189235
3.6867219e-05
0.00012865914
-0.0013330916
-5.3216944e-06
0.00016110771
-0.001474839
-3.1583104e-05
0.00018090971
-0.0014218763
0.00018081701
-0.001240958
-3.9924975e-05
8.6111333e-06
6.5715189e-06
-3.0232405e-05
3.5610296e-05
2.6827351e-05
-0.00013632771
7.1930415e-05
6.0998715e-05
-0.00033756366
9.0869182e-05
0.00011070015
-0.00064627633
7.4751854e-05
0.00017366766
-0.0010154187
3.5358859e-05
0.00024244415
-0.0013293587
-6.74618e-06
0.00030421066
-0.0014718436
-3.3538964e-05
0.00034226452
-0.001419891
0.00034283198
-0.0012396228
-4.2768565e-05
8.2847449e-06
8.7648353e-06
-2.9911676e-05
3.4135341e-05
3.5896547e-05
-0.00013492258
6.8761555e-05
8.1928519e-05
-0.00033424621
8.6562507e-05
0.00014936294
-0.00064046237
7.0515461e-05
0.00023545592
-0.001007529
3.1702149e-05
0.00033013748
-0.0013211391
-9.7460099e-06
0.00041567943
-0.0014651992
-3.6895818e-05
0.00046923825
-0.0014153357
0.00047182461
-0.0012364494
-4.7110296e-05
7.8043928e-06
9.9401747e-06
-2.9472792e-05
3.2002462e-05
4.0891954e-05
-0.00013287504
6.4261033e-05
9.3844366e-05
-0.00032915775
8.062929e-05
0.00017223526
-0.00063111959
6.5020841e-05
0.00027345843
-0.00099426281
2.7449299e-05
0.00038591788
-0.0013065708
-1.2537155e-05
0.00048859088
-0.0014525521
-3.9584689e-05
0.00055430527
-0.0014058354
0.00056047312
-0.0012293235
-5.0549847e-05
7.1747399e-06
1.0069864e-05
-2.8801128e-05
2.9295376e-05
4.1698595e-05
-0.00012979988
5.8724625e-05
9.6470969e-05
-0.0003215957
7.3659324e-05
0.00017880603
-0.00061726668
5.9194978e-05
0.00028689625
-0.00097443765
2.3951971e-05
0.00040879394
-0.0012843212
-1.3402597e-05
0.00052177611
-0.0014324686
-3.9322355e-05
0.00059607291
-0.0013899555
0.00060723433
-0.0012168625
-5.0163999e-05
6.3840533e-06
9.3017855e-06
-2.7836664e-05
2.6003896e-05
3.8858417e-05
-0.00012544393
5.2164488e-05
9.088994e-05
-0.00031097488
6.5669165e-05
0.00017076088
-0.00059785425
5.3074154e-05
0.0002780432
-0.00094647601
2.1548419e-05
0.00040156127
-0.0012523387
-1.18316e-05
0.00051832654
-0.0014026449
-3.4994559e-05
0.00059767419
-0.0013653935
0.00061474442
-0.0011969124
-4.4167143e-05
5.4663252e-06
7.8788143e-06
-2.6542087e-05
2.2263458e-05
3.3301774e-05
-0.00011964226
4.4829215e-05
7.903028e-05
-0.00029687497
5.6926412e-05
0.0001512006
-0.00057201368
4.6836482e-05
0.0002511569
-0.00090885659
2.0348678e-05
0.00036945352
-0.0012083936
-7.5752794e-06
0.00048410115
-0.0013603571
-2.6050696e-05
0.00056509447
-0.0013292775
0.00058831088
-0.0011666976
-3.1571424e-05
4.4368424e-06
6.1191552e-06
-2.4934164e-05
1.8137295e-05
2.6224942e-05
-0.00011240281
3.6777677e-05
6.3382831e-05
-0.00027915884
4.7309761e-05
0.00012416631
-0.00053917603
4.0056072e-05
0.00021172742
-0.00086021484
1.9610131e-05
0.00031903739
-0.0011501308
-1.3067595e-06
0.00042643107
-0.0013024351
-1.3079423e-05
0.00050589798
-0.0012780783
0.000534618
-0.0011227081
-1.2663108e-05
3.4897159e-06
4.2000498e-06
-2.2993195e-05
1.4343353e-05
1.8413612e-05
-0.00010367806
2.9408294e-05
4.576507e-05
-0.00025777213
3.8662853e-05
9.2874699e-05
-0.00049926222
3.4517898e-05
0.00016465271
-0.00080027194
2.0845607e-05
0.00025712754
-0.0010766935
7.9291131e-06
0.00035347757
-0.001227117
4.1447528e-06
0.00042884526
-0.0012092036
0.0004617327
-0.0010618211
1.2019521e-05
2.5431337e-06
2.4043776e-06
-2.0675933e-05
1.0555042e-05
1.0961655e-05
-9.3317731e-05
2.1953148e-05
2.8548778e-05
-0.00023240846
2.9595283e-05
6.136483e-05
-0.00045170276
2.8065239e-05
0.00011563251
-0.00072793507
2.0788369e-05
0.00019061957
-0.00098603354
1.6554376e-05
0.00027337134
-0.0011311484
2.2002612e-05
0.0003424344
-0.0011184975
0.00037747811
-0.00097964178
3.8944671e-05
1.6945724e-06
9.1307665e-07
-1.8100085e-05
7.1252965e-06
4.6342168e-06
-8.1735221e-05
1.5045396e-05
1.3559081e-05
-0.00020381043
2.0778404e-05
3.3068603e-05
-0.0003973215
2.1027192e-05
7.0006835e-05
-0.00064343316
1.9216008e-05
0.00012660726
-0.00087682993
2.3155791e-05
0.00019426107
-0.0010110813
3.79303e-05
0.00025532428
-0.001000856
0.00029049718
-0.00087060727
6.3850568e-05
1.0260545e-06
-1.5264985e-05
-1.9726755e-07
4.2890951e-06
-6.8982094e-05
-1.0318885e-07
9.0268764e-06
-0.00017217501
2.0626238e-06
1.2441271e-05
-0.00033640831
1.0565132e-05
1.328675e-05
-0.00054661543
3.1967982e-05
1.5283864e-05
-0.00074737297
7.097315e-05
2.5508792e-05
-0.00086261405
0.00012299712
4.8474667e-05
-0.00084978367
0.00017442376
-0.00072812006
0.00021029788
8.0037419e-05
-2.6229115e-07
1.6991344e-06
-1.5078172e-05
-1.6236535e-06
-1.584855e-06
7.3719808e-06
-6.7943212e-05
-7.0883035e-06
-4.5892402e-06
1.7536283e-05
-0.00016973759
-1.6969358e-05
-8.9751783e-06
3.1937226e-05
-0.00033269282
-3.1266854e-05
-1.3292328e-05
4.6867251e-05
-0.00054222531
-4.6940336e-05
-1.5689585e-05
5.5767551e-05
-0.00074263482
-5.8108532e-05
-1.5288806e-05
5.3693515e-05
-0.00085708979
-5.9618515e-05
-1.2955577e-05
4.193482e-05
-0.00084288893
-5.1162662e-05
2.6695946e-05
-0.00072030645
-3.6391613e-05
-1.1073579e-05
-2.7078573e-07
1.7101419e-06
-1.7840314e-05
-1.6630996e-06
7.3627031e-06
-8.0333639e-05
-4.6323794e-06
1.7310585e-05
-0.00020061551
-8.2936274e-06
3.0951667e-05
-0.00039267484
-1.0655122e-05
4.4179372e-05
-0.00063838404
-9.9552697e-06
5.0290853e-05
-0.00087205334
-6.1059189e-06
4.4836677e-05
-0.001006074
-8.4369703e-07
3.0364238e-05
-0.00099454755
1.4490369e-05
-0.0008627409
3.4956225e-06
-2.4157402e-07
1.6357835e-06
-2.0360001e-05
-1.5752533e-06
6.992533e-06
-9.161391e-05
-4.3712865e-06
1.6281025e-05
-0.00022858303
-7.3966574e-06
2.8613402e-05
-0.00044633944
-8.2550566e-06
3.9644324e-05
-0.00072254202
-5.1961967e-06
4.2823071e-05
-0.00098162489
1.1943811e-06
3.4439134e-05
-0.0011271417
8.2480666e-06
1.8150133e-05
-0.001113337
2.448363e-06
-0.00097241045
1.3058841e-05
-1.9997789e-07
1.4830745e-06
-2.2640498e-05
-1.4353119e-06
6.30305e-06
-0.00010175326
-3.9753669e-06
1.4553248e-05
-0.00025350444
-6.2725463e-06
2.5158036e-05
-0.00049350999
-5.6860609e-06
3.3773293e-05
-0.00079498771
-6.4357548e-07
3.4256464e-05
-0.0010731696
7.5697688e-06
2.3714892e-05
-0.0012246061
1.542946e-05
6.6843488e-06
-0.0012055974
-8.0076336e-06
-0.001055609
1.9673658e-05
-1.4177519e-07
1.2637023e-06
-2.4573012e-05
-1.2311282e-06
5.3602429e-06
-0.00011037069
-3.4591211e-06
1.2317219e-05
-0.00027469499
-5.03319e-06
2.0989685e-05
-0.00053343378
-3.1439454e-06
2.7231642e-05
-0.0008555626
3.5436259e-06
2.5503786e-05
-0.0011480658
1.3071493e-05
1.3703531e-05
-0.0013019515
2.1179229e-05
-3.0866859e-06
-0.0012764147
-1.6205369e-05
-0.0011178319
2.450094e-05
-9.3510134e-08
1.0187123e-06
-2.6203576e-05
-1.0629502e-06
4.3154403e-06
-0.000117628
-3.0216387e-06
9.8802064e-06
-0.00029247939
-3.938984e-06
1.6584826e-05
-0.00056669144
-8.9880861e-07
2.0683122e-05
-0.00090534809
7.2103965e-06
1.7322556e-05
-0.0012083213
1.7761147e-05
5.1623526e-06
-0.0013623663
2.585568e-05
-1.0548146e-05
-0.0013299102
-2.1758502e-05
-0.0011634363
2.814772e-05
-4.0673678e-08
7.6834633e-07
-2.7545632e-05
-8.7583242e-07
3.2595125e-06
-0.00012355292
-2.5550175e-06
7.4567069e-06
-0.00030687224
-2.8703848e-06
1.2335277e-05
-0.0005932894
1.1995589e-06
1.4645454e-05
-0.00094450816
1.048136e-05
1.0351548e-05
-0.0012546494
2.1766034e-05
-1.3040472e-06
-0.001407463
2.9684521e-05
-1.5269874e-05
-0.0013685901
-2.4455995e-05
-0.0011954983
3.0968031e-05
9.1309402e-09
5.3676639e-07
-2.8578636e-05
-6.9926782e-07
2.2882701e-06
-0.00012812038
-2.1196611e-06
5.2480142e-06
-0.00031796664
-1.8937426e-06
8.5524801e-06
-0.00061370984
3.0392659e-06
9.5450618e-06
-0.00097427025
1.328015e-05
5.0201373e-06
-0.0012892306
2.5114573e-05
-5.3548484e-06
-0.0014402521
3.2824778e-05
-1.7075632e-05
-0.0013958599
-2.4262875e-05
-0.0012174582
3.3227466e-05
5.1955589e-08
3.4249737e-07
-2.9330441e-05
-5.4772381e-07
1.4723291e-06
-0.00013145951
-1.747921e-06
3.3961619e-06
-0.00032610574
-1.0715625e-06
5.4483752e-06
-0.0006286919
4.5691891e-06
5.6161002e-06
-0.00099597466
1.5578847e-05
1.5179721e-06
-0.0013140784
2.7834519e-05
-6.9064536e-06
-0.0014632562
3.5379789e-05
-1.6024817e-05
-0.0014144314
-2.1297869e-05
-0.0012319981
3.5089408e-05
8.495024e-08
1.93921e-07
-2.984804e-05
-4.326243e-07
8.4216021e-07
-0.00013377489
-1.4642952e-06
1.9556367e-06
-0.00033177405
-4.3875743e-07
3.0835661e-06
-0.0006391232
5.7520441e-06
2.8798764e-06
-0.0010109836
1.7349623e-05
-2.2495314e-07
-0.0013309939
2.9953179e-05
-6.1749508e-06
-0.0014785343
3.7418955e-05
-1.2422623e-05
-0.0014264036
-1.5854945e-05
-0.0012410825
3.6609198e-05
1.0513035e-07
8.4417113e-08
-3.0228002e-05
-3.6137049e-07
3.7037373e-07
-0.00013538946
-1.2806286e-06
8.6547265e-07
-0.00033555422
-1.1891206e-08
1.3421775e-06
-0.0006458037
6.5639259e-06
1.1305794e-06
-0.0010202452
1.8572813e-05
-5.4564466e-07
-0.0013410468
3.1426047e-05
-3.6287768e-06
-0.0014872429
3.8860135e-05
-6.8056145e-06
-0.001432942
-8.486764e-06
-0.0012458384
3.7707598e-05
1.1624843e-07
-1.9522338e-12
-3.0357569e-05
-3.2353816e-07
-7.1549347e-12
-0.00013600372
-1.1873797e-06
-2.5943608e-11
-0.00033712365
1.9723426e-07
-3.0651886e-11
-0.00064877202
6.9585496e-06
9.478521e-12
-0.0010245544
1.9173356e-05
6.1578115e-11
-0.0013458522
3.216491e-05
2.1992638e-10
-0.0014914596
3.9599186e-05
5.6977646e-10
-0.0014361169
1.0078613e-09
-0.0012481356
3.8288977e-05
1.1623902e-07
-8.4424368e-08
-3.0357565e-05
-3.2352546e-07
-3.7039726e-07
-0.0001360037
-1.1873427e-06
-8.6553534e-07
-0.00033712361
1.9729281e-07
-1.3422518e-06
-0.00064877194
6.9585944e-06
-1.1305903e-06
-0.0010245542
1.9173412e-05
5.4571261e-07
-0.0013458521
3.2164956e-05
3.6291403e-06
-0.0014914595
3.9599238e-05
6.806749e-06
-0.0014361169
8.4888122e-06
-0.0012481356
3.8289038e-05
1.0511947e-07
-1.9393195e-07
-3.0228002e-05
-3.6133686e-07
-8.421939e-07
-0.00013538946
-1.2805465e-06
-1.9557089e-06
-0.00033555422
-1.1748465e-08
-3.083657e-06
-0.00064580369
6.5640394e-06
-2.8799437e-06
-0.0010202452
1.8572956e-05
2.2491808e-07
-0.0013410468
3.1426203e-05
6.175174e-06
-0.0014872429
3.8860289e-05
1.2423713e-05
-0.001432942
1.585702e-05
-0.0012458384
3.7707753e-05
8.4943511e-08
-3.4250992e-07
-2.9848034e-05
-4.325828e-07
-1.4723685e-06
-0.00013377486
-1.4642092e-06
-3.3962472e-06
-0.00033177399
-4.3856798e-07
-5.448502e-06
-0.00063912308
5.7522473e-06
-5.6162389e-06
-0.0010109834
1.7349883e-05
-1.5181081e-06
-0.0013309937
2.9953509e-05
6.9065697e-06
-0.0014785341
3.7419255e-05
1.6025796e-05
-0.0014264035
2.129986e-05
-0.0012410825
3.6609479e-05
5.1911731e-08
-5.3677445e-07
-2.9330439e-05
-5.4767199e-07
-2.2882934e-06
-0.0001314595
-1.747805e-06
-5.2480882e-06
-0.00032610571
-1.0713189e-06
-8.5526325e-06
-0.00062869184
4.5694975e-06
-9.545262e-06
-0.00099597454
1.5579224e-05
-5.0203842e-06
-0.0013140782
2.7834976e-05
5.3548431e-06
-0.0014632561
3.5380238e-05
1.7076445e-05
-0.0014144314
2.4264667e-05
-0.0012319981
3.5089899e-05
9.0895385e-09
-7.6835262e-07
-2.8578638e-05
-6.9913584e-07
-3.2595151e-06
-0.00012812038
-2.119472e-06
-7.4567776e-06
-0.00031796664
-1.8934347e-06
-1.2335485e-05
-0.00061370984
3.039632e-06
-1.4645776e-05
-0.00097427022
1.3280598e-05
-1.0351989e-05
-0.0012892306
2.5115062e-05
1.3038066e-06
-0.0014402521
3.2825324e-05
1.5270454e-05
-0.0013958599
2.4457495e-05
-0.0012174583
3.3228159e-05
-4.0659791e-08
-1.018721e-06
-2.7545636e-05
-8.7569645e-07
-4.3154479e-06
-0.00012355294
-2.5548081e-06
-9.8803088e-06
-0.00030687227
-2.8700466e-06
-1.6585107e-05
-0.00059328945
1.1999219e-06
-2.0683601e-05
-0.00094450822
1.0481815e-05
-1.7323197e-05
-0.0012546494
2.17665e-05
-5.1628877e-06
-0.001407463
2.9685085e-05
1.0548384e-05
-0.0013685902
2.1759675e-05
-0.0011954984
3.0968726e-05
-9.3522682e-08
-1.2637119e-06
-2.6203585e-05
-1.0629435e-06
-5.3602658e-06
-0.00011762804
-3.0214926e-06
-1.2317334e-05
-0.00029247948
-3.938754e-06
-2.0990002e-05
-0.00056669158
-8.9850959e-07
-2.7232195e-05
-0.00090534828
7.210745e-06
-2.5504581e-05
-0.0012083216
1.7761517e-05
-1.3704406e-05
-0.0013623665
2.5856178e-05
3.0863909e-06
-0.0013299104
1.6206272e-05
-0.0011634364
2.8148205e-05
-1.4179222e-07
-1.4830871e-06
-2.4573014e-05
-1.2311178e-06
-6.303082e-06
-0.0001103707
-3.4590014e-06
-1.4553333e-05
-0.000274695
-5.0330075e-06
-2.5158265e-05
-0.00053343378
-3.1437632e-06
-3.3773783e-05
-0.00085556258
3.5437594e-06
-3.425732e-05
-0.0011480658
1.3071657e-05
-2.3716049e-05
-0.0013019515
2.1179588e-05
-6.6852237e-06
-0.0012764148
8.0083042e-06
-0.001117832
2.4501309e-05
-2.0001057e-07
-1.6357859e-06
-2.2640495e-05
-1.4353814e-06
-6.9925408e-06
-0.00010175325
-3.9754122e-06
-1.6281058e-05
-0.0002535044
-6.2725469e-06
-2.8613534e-05
-0.0004935099
-5.6861438e-06
-3.9644734e-05
-0.00079498759
-6.4375491e-07
-4.2823887e-05
-0.0010731695
7.5695356e-06
-3.4440402e-05
-0.0012246061
1.5429466e-05
-1.8151498e-05
-0.0012055974
-2.4483057e-06
-0.001055609
1.9673868e-05
-2.4159296e-07
-1.7101309e-06
-2.0359996e-05
-1.5753174e-06
-7.3626703e-06
-9.1613885e-05
-4.3713762e-06
-1.7310538e-05
-0.00022858297
-7.3968015e-06
-3.0951675e-05
-0.00044633932
-8.2553213e-06
-4.4179579e-05
-0.00072254184
-5.1967109e-06
-5.0291383e-05
-0.0009816247
1.1936097e-06
-4.4837759e-05
-0.0011271416
8.2474041e-06
-3.0365916e-05
-0.001113337
-1.449102e-05
-0.00097241047
1.3058673e-05
-2.7078561e-07
-1.6991258e-06
-1.7840313e-05
-1.6631183e-06
-7.3719574e-06
-8.0333635e-05
-4.6324151e-06
-1.7536249e-05
-0.0002006155
-8.2937034e-06
-3.1937169e-05
-0.00039267482
-1.0655281e-05
-4.6867201e-05
-0.000638384
-9.9556859e-06
-5.5767762e-05
-0.00087205331
-6.106608e-06
-5.3694408e-05
-0.0010060739
-8.4465353e-07
-4.1936347e-05
-0.00099454764
-2.6697019e-05
-0.000862741
3.4949803e-06
-2.6229968e-07
-1.5078175e-05
-1.6236484e-06
-1.5848644e-06
-6.7943222e-05
-7.0882934e-06
-4.5892154e-06
-0.00016973761
-1.6969337e-05
-8.9750366e-06
-0.00033269286
-3.1266817e-05
-1.3291987e-05
-0.00054222537
-4.6940407e-05
-1.5688932e-05
-0.00074263488
-5.8109077e-05
-1.528784e-05
-0.00085708989
-5.961963e-05
-1.2955309e-05
-0.00084288904
-5.116359e-05
-0.00072030651
-3.6391419e-05
-1.1074492e-05
-1.1949824e-07
-1.5174333e-07
-1.4941851e-05
1.3491998e-07
-4.5977379e-07
-7.64162e-07
-6.7522971e-05
6.8418931e-07
-1.174725e-06
-2.2476162e-06
-0.00016875472
1.9796628e-06
-2.6299282e-06
-5.575984e-06
-0.00033042827
4.7665713e-06
-4.7349435e-06
-1.2258576e-05
-0.00053803369
1.0171871e-05
-6.0896423e-06
-2.3678603e-05
-0.00073681961
1.9217987e-05
-4.1060946e-06
-3.9568592e-05
-0.00085118979
3.1684954e-05
3.2358851e-06
-5.6699829e-05
-0.00083872166
4.5190503e-05
-6.9611106e-05
-0.00071842489
5.6028132e-05
1.493716e-05
-1.5001039e-07
-1.798511e-07
-1.7662198e-05
-5.4871772e-07
-9.0185876e-07
-7.9797242e-05
-1.3665875e-06
-2.6547448e-06
-0.00019939056
-3.0863647e-06
-6.6322036e-06
-0.00038989894
-5.7014793e-06
-1.4720046e-05
-0.00063330761
-7.7713562e-06
-2.863156e-05
-0.00086503069
-6.5929548e-06
-4.7922394e-05