/*--------------------------------*- C++ -*----------------------------------*\
| =========                 |                                                 |
| \\      /  F ield         | OpenFOAM: The Open Source CFD Toolbox           |
|  \\    /   O peration     | Version:  2406                                  |
|   \\  /    A nd           | Website:  www.openfoam.com                      |
|    \\/     M anipulation  |                                                 |
\*---------------------------------------------------------------------------*/
FoamFile
{
    version     2.0;
    format      ascii;
    arch        "LSB;label=32;scalar=64";
    class       volVectorField;
    location    "14.75";
    object      U;
}
// * * * * * * * * * * * * * * * * * * * * * * * * * * * * * * * * * * * * * //

dimensions      [0 1 -1 0 0 0 0];

internalField   nonuniform List<vector> 
34560
(
(-0.079224458 0.01440267 0.030630526)
(-0.2743332 0.047002001 0.099607231)
(-0.54129458 0.089641596 0.1798326)
(-0.87281606 0.1388705 0.2599964)
(-1.2310726 0.18987264 0.32274689)
(-1.5571393 0.24074464 0.35526059)
(-1.8009059 0.29331639 0.3576188)
(-1.9461604 0.34707914 0.34018025)
(-2.0050987 0.39588104 0.31630476)
(-0.080841223 0.017069538 0.034107471)
(-0.28462762 0.055192282 0.11048247)
(-0.56767424 0.10366903 0.19734935)
(-0.9183883 0.15719505 0.28061606)
(-1.2883142 0.20999493 0.34100059)
(-1.6092245 0.26108777 0.3672301)
(-1.8314309 0.31368009 0.36265231)
(-1.949 0.36746493 0.34026912)
(-1.9837136 0.41553768 0.312049)
(-0.079321164 0.017773606 0.035362364)
(-0.28627962 0.058176525 0.11517478)
(-0.58065392 0.10980742 0.20547122)
(-0.94644056 0.16586602 0.29049398)
(-1.3234031 0.2195237 0.34938658)
(-1.6344896 0.27040485 0.37158131)
(-1.8336123 0.32259627 0.36283818)
(-1.9234273 0.37685894 0.33688964)
(-1.9359432 0.42384073 0.30675723)
(-0.075010051 0.018258737 0.036442855)
(-0.27987492 0.06004877 0.11888136)
(-0.58057411 0.11317051 0.21128606)
(-0.95714092 0.16960948 0.29656755)
(-1.33755 0.22219642 0.35330201)
(-1.6362335 0.27167624 0.37243485)
(-1.8115934 0.32316509 0.36081132)
(-1.8740608 0.37550545 0.3335671)
(-1.8659384 0.42096998 0.30364929)
(-0.067697238 0.017708613 0.036875374)
(-0.26468116 0.058975705 0.1206644)
(-0.56617288 0.11173997 0.21399624)
(-0.94913653 0.16714514 0.2991415)
(-1.3305779 0.21774928 0.35429999)
(-1.6170159 0.26458948 0.3713812)
(-1.7670778 0.31368035 0.35853243)
(-1.8034472 0.36353093 0.33172712)
(-1.7757729 0.407162 0.30323171)
(-0.057991756 0.01644539 0.036778534)
(-0.2421944 0.055614721 0.12078207)
(-0.53971649 0.10612205 0.21422622)
(-0.92538066 0.1586321 0.29907287)
(-1.3050279 0.20573607 0.35330993)
(-1.5764717 0.24914267 0.36981139)
(-1.7018349 0.29480017 0.35744386)
(-1.7132727 0.34160446 0.33221032)
(-1.6671801 0.38273152 0.30589297)
(-0.046497063 0.014659739 0.036584413)
(-0.21361671 0.050302378 0.12037551)
(-0.50217065 0.096683953 0.21344273)
(-0.88584133 0.14455954 0.29792798)
(-1.2605473 0.18694156 0.35198883)
(-1.5162783 0.22586182 0.36918937)
(-1.6180032 0.26696916 0.35861804)
(-1.6057334 0.30994434 0.33565878)
(-1.5426061 0.34778122 0.31179737)
(-0.033800608 0.012297147 0.036285037)
(-0.18054931 0.042969403 0.11958999)
(-0.45591239 0.083464428 0.2121731)
(-0.83347322 0.12518386 0.29664537)
(-1.2005643 0.16185578 0.35137583)
(-1.4399355 0.19585153 0.37009585)
(-1.5199581 0.23043382 0.36283169)
(-1.4851415 0.26892643 0.34236449)
(-1.4065094 0.30257375 0.32084933)
(-0.020966617 0.0095640733 0.035999577)
(-0.14599248 0.034129763 0.11880251)
(-0.40552104 0.067167014 0.21103723)
(-0.77388496 0.10129191 0.29593635)
(-1.1313746 0.13123999 0.35203441)
(-1.3542219 0.15931811 0.37305095)
(-1.4149928 0.18694276 0.36946473)
(-1.3591108 0.21928264 0.35189732)
(-1.2668428 0.24767859 0.33233182)
(-0.0093912287 0.0067218821 0.035786826)
(-0.11406037 0.024519816 0.11820598)
(-0.3575627 0.048913509 0.21031824)
(-0.71538979 0.074226791 0.29599031)
(-1.0625068 0.096458071 0.35384346)
(-1.2699474 0.11744727 0.37758116)
(-1.3137811 0.13786838 0.37741441)
(-1.2397792 0.16241063 0.36284087)
(-1.1360034 0.18420278 0.34469145)
(-0.00065390956 0.0039981058 0.035698198)
(-0.089472889 0.014793173 0.11793361)
(-0.31968704 0.029747263 0.21010589)
(-0.66785569 0.045287722 0.29660987)
(-1.0055678 0.058951872 0.35610609)
(-1.2004386 0.071943391 0.38232199)
(-1.2306326 0.08459372 0.38492168)
(-1.1427466 0.099951707 0.37283908)
(-1.0303693 0.11377219 0.35558782)
(0.0042882308 0.0013431677 0.035674635)
(-0.075394455 0.004981915 0.11787287)
(-0.29767478 0.010036341 0.21012646)
(-0.63986079 0.01525973 0.29716278)
(-0.97187794 0.019847608 0.35768289)
(-1.1594963 0.024253464 0.38543597)
(-1.1817703 0.028587427 0.38967563)
(-1.0860973 0.033887659 0.37904245)
(-0.96900198 0.03869047 0.3622191)
(0.0042882233 -0.0013432284 0.035674628)
(-0.075394481 -0.004982082 0.11787287)
(-0.29767483 -0.010036599 0.21012642)
(-0.63986088 -0.015260067 0.29716273)
(-0.97187802 -0.019847971 0.35768287)
(-1.1594964 -0.024253832 0.385436)
(-1.1817703 -0.028587678 0.38967564)
(-1.0860973 -0.033887607 0.37904241)
(-0.96900189 -0.038690078 0.362219)
(-0.00065393946 -0.0039981539 0.035698188)
(-0.08947299 -0.014793317 0.11793361)
(-0.31968723 -0.029747522 0.21010587)
(-0.66785597 -0.045288126 0.29660988)
(-1.005568 -0.058952399 0.35610613)
(-1.2004388 -0.071943939 0.38232205)
(-1.2306327 -0.084594121 0.38492165)
(-1.1427465 -0.09995173 0.37283893)
(-1.030369 -0.11377183 0.35558757)
(-0.0093912826 -0.0067219236 0.035786855)
(-0.11406055 -0.024519998 0.11820603)
(-0.35756304 -0.048913848 0.21031836)
(-0.71539027 -0.074227275 0.2959905)
(-1.0625072 -0.096458699 0.35384359)
(-1.2699477 -0.11744792 0.37758118)
(-1.3137811 -0.13786888 0.37741428)
(-1.2397791 -0.16241076 0.36284063)
(-1.1360031 -0.18420254 0.34469116)
(-0.020966683 -0.009564106 0.035999633)
(-0.1459927 -0.034129923 0.11880268)
(-0.40552142 -0.067167345 0.21103739)
(-0.77388549 -0.10129236 0.29593657)
(-1.131375 -0.13124057 0.35203455)
(-1.3542221 -0.15931874 0.37305094)
(-1.4149928 -0.18694327 0.36946457)
(-1.3591107 -0.21928289 0.35189714)
(-1.2668426 -0.24767848 0.33233161)
(-0.033800675 -0.012297195 0.036285038)
(-0.18054952 -0.042969507 0.11959016)
(-0.45591276 -0.083464689 0.21217323)
(-0.83347376 -0.12518425 0.2966456)
(-1.2005647 -0.16185626 0.35137599)
(-1.4399359 -0.19585214 0.37009588)
(-1.5199582 -0.23043438 0.36283164)
(-1.4851415 -0.26892679 0.34236446)
(-1.4065093 -0.30257364 0.3208492)
(-0.046497118 -0.014659795 0.036584426)
(-0.21361688 -0.050302494 0.12037562)
(-0.50217094 -0.096684182 0.21344283)
(-0.88584176 -0.14455988 0.29792814)
(-1.2605476 -0.18694197 0.351989)
(-1.5162788 -0.22586238 0.36918956)
(-1.6180036 -0.26696978 0.3586182)
(-1.6057334 -0.30994471 0.33565881)
(-1.542606 -0.34778102 0.31179723)
(-0.057991787 -0.016445412 0.036778533)
(-0.2421945 -0.055614778 0.12078206)
(-0.53971664 -0.1061222 0.21422618)
(-0.92538095 -0.1586324 0.29907291)
(-1.3050283 -0.20573646 0.35331014)
(-1.5764724 -0.24914322 0.36981176)
(-1.7018354 -0.29480076 0.35744419)
(-1.7132728 -0.34160476 0.33221035)
(-1.66718 -0.38273138 0.30589286)
(-0.06769728 -0.017708635 0.03687537)
(-0.26468129 -0.058975772 0.12066438)
(-0.56617311 -0.11174014 0.21399623)
(-0.94913687 -0.16714544 0.29914158)
(-1.3305784 -0.21774967 0.35430028)
(-1.6170166 -0.26458997 0.37138162)
(-1.7670782 -0.31368078 0.35853274)
(-1.8034473 -0.36353111 0.33172721)
(-1.775773 -0.40716207 0.30323172)
(-0.07501007 -0.018258732 0.036442855)
(-0.27987498 -0.060048824 0.11888128)
(-0.58057419 -0.11317059 0.21128603)
(-0.95714098 -0.16960963 0.29656756)
(-1.3375502 -0.22219667 0.35330221)
(-1.6362339 -0.27167653 0.37243517)
(-1.8115937 -0.32316535 0.36081163)
(-1.8740611 -0.37550549 0.33356733)
(-1.8659387 -0.42096995 0.30364915)
(-0.07932117 -0.017773565 0.035362337)
(-0.28627964 -0.058176486 0.11517468)
(-0.58065393 -0.10980739 0.20547115)
(-0.94644054 -0.16586609 0.29049396)
(-1.3234031 -0.21952386 0.3493867)
(-1.6344899 -0.27040502 0.37158152)
(-1.8336127 -0.32259633 0.36283833)
(-1.923428 -0.37685884 0.33688976)
(-1.9359433 -0.42384053 0.30675714)
(-0.080841229 -0.017069509 0.034107435)
(-0.28462764 -0.055192243 0.11048239)
(-0.56767427 -0.10366904 0.19734928)
(-0.91838837 -0.15719518 0.280616)
(-1.2883143 -0.2099951 0.34100052)
(-1.6092246 -0.26108789 0.36722997)
(-1.8314313 -0.31368016 0.36265225)
(-1.9490007 -0.3674648 0.34026932)
(-1.983714 -0.41553732 0.3120489)
(-0.079224463 -0.014402667 0.030630517)
(-0.27433321 -0.047002038 0.099607214)
(-0.5412946 -0.089641691 0.17983261)
(-0.87281609 -0.13887071 0.25999634)
(-1.2310726 -0.1898729 0.32274673)
(-1.5571393 -0.24074487 0.35526059)
(-1.8009063 -0.29331663 0.3576189)
(-1.9461611 -0.34707943 0.34018027)
(-2.005099 -0.39588114 0.31630509)
(-0.097177987 -0.00012326141 -0.00020683802)
(-0.31887101 -0.0006513662 -0.0010445984)
(-0.59900592 -0.0018012893 -0.002813923)
(-0.92350426 -0.0044791426 -0.005699245)
(-1.258371 -0.0098477168 -0.0094493344)
(-1.5567431 -0.018390113 -0.013312021)
(-1.7775353 -0.029422088 -0.016547346)
(-1.9077792 -0.041618653 -0.018865679)
(-1.958417 -0.05325804 -0.02029391)
(-0.10603267 -0.00097877638 -0.00094230594)
(-0.34633049 -0.0032174495 -0.0032918774)
(-0.64669537 -0.0062176901 -0.0067899426)
(-0.9879728 -0.010859161 -0.011286828)
(-1.3292884 -0.018243583 -0.015977545)
(-1.6190099 -0.028640047 -0.019728765)
(-1.8177216 -0.041112436 -0.021938197)
(-1.9209187 -0.054212403 -0.02284683)
(-1.9515668 -0.066239541 -0.023302203)
(-0.11344844 -0.00198388 -0.0016068714)
(-0.36935512 -0.0061782416 -0.0053385832)
(-0.68648304 -0.011187074 -0.010400344)
(-1.0408115 -0.017771463 -0.016222016)
(-1.3851769 -0.026914281 -0.021420327)
(-1.6641665 -0.038711265 -0.02461947)
(-1.8411234 -0.052121073 -0.025505222)
(-1.9206228 -0.065612005 -0.024833122)
(-1.936372 -0.077568584 -0.023969167)
(-0.11995775 -0.0031296625 -0.0021871408)
(-0.38937685 -0.0094818865 -0.0071226338)
(-0.72066682 -0.01658889 -0.013543212)
(-1.0853482 -0.025023998 -0.020419512)
(-1.4308396 -0.035626833 -0.025782486)
(-1.6989552 -0.048402086 -0.028124229)
(-1.8562746 -0.062325408 -0.027545124)
(-1.9157981 -0.075847304 -0.025310035)
(-1.9195298 -0.087366285 -0.023216662)
(-0.12514383 -0.0042548253 -0.0025899687)
(-0.40545095 -0.012691115 -0.0083830792)
(-0.7482058 -0.021748583 -0.015812239)
(-1.1210748 -0.031776964 -0.02340431)
(-1.4668549 -0.043478546 -0.028634638)
(-1.7251963 -0.056833318 -0.029923313)
(-1.8658057 -0.070879928 -0.027887477)
(-1.9090239 -0.084055626 -0.024270343)
(-1.902997 -0.094753951 -0.021178625)
(-0.12924934 -0.0052494911 -0.0027476256)
(-0.41820739 -0.015487563 -0.0089243872)
(-0.77004527 -0.026142151 -0.016920413)
(-1.1491876 -0.037323597 -0.024859142)
(-1.4946297 -0.049613819 -0.029693533)
(-1.744453 -0.063029119 -0.029844378)
(-1.8712385 -0.076690768 -0.026458129)
(-1.9014133 -0.089136184 -0.021705488)
(-1.8875656 -0.098691763 -0.017907241)
(-0.13255623 -0.0059603557 -0.0026779106)
(-0.42837785 -0.017432117 -0.0087871976)
(-0.78726249 -0.029082191 -0.016903067)
(-1.1709803 -0.040803582 -0.024822272)
(-1.5155485 -0.053072582 -0.029047291)
(-1.7580216 -0.065964354 -0.028035622)
(-1.8735968 -0.078728216 -0.023445927)
(-1.8935396 -0.090050293 -0.01781001)
(-1.8735668 -0.098244203 -0.013590663)
(-0.13491744 -0.0061964019 -0.0023816444)
(-0.43570881 -0.018010969 -0.0079855196)
(-0.79974161 -0.029795533 -0.015804498)
(-1.186721 -0.04128002 -0.023400581)
(-1.5303263 -0.052845124 -0.02689692)
(-1.7668529 -0.064612118 -0.024798695)
(-1.8736996 -0.076004605 -0.01918645)
(-1.8858562 -0.085848698 -0.012930529)
(-1.861199 -0.092565265 -0.0085458443)
(-0.13645055 -0.0058262594 -0.0019218814)
(-0.44055868 -0.01686364 -0.0067009182)
(-0.80811589 -0.027734573 -0.013913063)
(-1.1973203 -0.038086799 -0.020977777)
(-1.5400698 -0.048212753 -0.023714594)
(-1.7720507 -0.058262539 -0.020678873)
(-1.8723875 -0.067802299 -0.014246635)
(-1.8787958 -0.075858822 -0.0076018034)
(-1.8506526 -0.081054425 -0.0032438059)
(-0.13736702 -0.0048018095 -0.0013980322)
(-0.44355443 -0.01386102 -0.0052206599)
(-0.81340123 -0.022709116 -0.011686987)
(-1.2040437 -0.030998834 -0.018149959)
(-1.546083 -0.038934372 -0.020196483)
(-1.7747582 -0.04666611 -0.016406757)
(-1.8704476 -0.053904318 -0.0093750679)
(-1.8727893 -0.059899152 -0.0025271806)
(-1.8421689 -0.063581732 0.0016947449)
(-0.13817353 -0.0031869701 -0.00094609875)
(-0.44591452 -0.009174383 -0.0039357996)
(-0.81720431 -0.014983522 -0.0097342119)
(-1.2085107 -0.020359869 -0.01567391)
(-1.5497377 -0.025429152 -0.017187213)
(-1.7760006 -0.030304574 -0.012859826)
(-1.868557 -0.03483901 -0.0054354664)
(-1.86825 -0.038544404 0.0014953801)
(-1.8360402 -0.04074431 0.0055606737)
(-0.13828674 -0.0011210096 -0.00069539309)
(-0.4464187 -0.0032198005 -0.0032197776)
(-0.818254 -0.0052439879 -0.008629544)
(-1.2099561 -0.007110738 -0.014260647)
(-1.5509872 -0.0088657677 -0.015475857)
(-1.7762569 -0.010544636 -0.010860757)
(-1.8673743 -0.012096617 -0.0032350303)
(-1.8657893 -0.013351266 0.0037246664)
(-1.8327797 -0.014080298 0.0076946982)
(-0.13828674 0.0011210326 -0.00069539425)
(-0.4464187 0.0032198615 -0.0032197754)
(-0.81825398 0.0052440767 -0.0086295497)
(-1.209956 0.0071108468 -0.014260658)
(-1.5509871 0.0088658937 -0.015475859)
(-1.7762569 0.010544741 -0.010860751)
(-1.8673743 0.012096714 -0.0032350216)
(-1.8657893 0.013351392 0.0037246747)
(-1.8327797 0.014080482 0.0076946887)
(-0.13817353 0.0031869919 -0.00094610606)
(-0.44591452 0.0091744426 -0.0039358061)
(-0.81720429 0.014983607 -0.0097342322)
(-1.2085107 0.020359965 -0.015673937)
(-1.5497377 0.025429247 -0.017187213)
(-1.7760007 0.030304648 -0.01285981)
(-1.8685571 0.034839081 -0.0054354536)
(-1.8682501 0.038544535 0.0014953847)
(-1.8360402 0.040744525 0.0055606456)
(-0.13736702 0.0048018269 -0.001398042)
(-0.44355444 0.01386107 -0.005220668)
(-0.81340125 0.022709186 -0.011686999)
(-1.2040438 0.030998915 -0.018149971)
(-1.546083 0.038934442 -0.020196473)
(-1.7747583 0.046666168 -0.016406741)
(-1.8704477 0.053904376 -0.0093750724)
(-1.8727893 0.059899283 -0.0025272051)
(-1.8421689 0.063581969 0.0016947057)
(-0.13645056 0.005826275 -0.0019218805)
(-0.44055871 0.016863687 -0.0067009032)
(-0.80811594 0.027734638 -0.013913066)
(-1.1973204 0.038086888 -0.020977779)
(-1.5400699 0.048212838 -0.023714587)
(-1.7720508 0.058262611 -0.02067887)
(-1.8723875 0.067802372 -0.014246654)
(-1.8787958 0.075858948 -0.0076018443)
(-1.8506527 0.081054676 -0.0032438453)
(-0.13491746 0.0061964202 -0.0023816466)
(-0.43570885 0.018011027 -0.0079855088)
(-0.79974165 0.029795596 -0.015804531)
(-1.1867211 0.041280107 -0.023400595)
(-1.5303264 0.052845214 -0.026896912)
(-1.766853 0.064612189 -0.024798686)
(-1.8736996 0.076004676 -0.019186455)
(-1.8858563 0.085848819 -0.012930565)
(-1.8611992 0.09256555 -0.0085459048)
(-0.13255623 0.0059603712 -0.002677927)
(-0.42837784 0.017432175 -0.0087872086)
(-0.78726249 0.029082241 -0.016903109)
(-1.1709804 0.04080363 -0.024822292)
(-1.5155485 0.053072627 -0.029047272)
(-1.7580217 0.065964388 -0.028035595)
(-1.8735969 0.078728257 -0.023445908)
(-1.8935397 0.090050411 -0.017810054)
(-1.873567 0.098244514 -0.013590775)
(-0.12924933 0.0052495018 -0.0027476267)
(-0.41820737 0.015487601 -0.0089243732)
(-0.77004523 0.026142177 -0.016920404)
(-1.1491876 0.037323597 -0.024859128)
(-1.4946296 0.049613818 -0.029693488)
(-1.7444531 0.063029113 -0.029844332)
(-1.8712387 0.076690777 -0.026458096)
(-1.9014135 0.089136288 -0.02170555)
(-1.8875656 0.098692024 -0.017907393)
(-0.12514382 0.0042548349 -0.0025899744)
(-0.4054509 0.012691144 -0.0083830733)
(-0.74820571 0.021748604 -0.015812228)
(-1.1210747 0.031776951 -0.023404303)
(-1.4668546 0.043478521 -0.028634602)
(-1.7251963 0.056833285 -0.029923251)
(-1.8658059 0.070879923 -0.027887438)
(-1.9090242 0.084055716 -0.024270398)
(-1.9029972 0.094754121 -0.021178802)
(-0.11995773 0.0031296698 -0.0021871466)
(-0.38937678 0.0094819101 -0.0071226267)
(-0.72066668 0.016588917 -0.013543183)
(-1.085348 0.02502401 -0.020419483)
(-1.4308393 0.035626817 -0.025782427)
(-1.6989552 0.048402054 -0.028124161)
(-1.8562748 0.062325397 -0.027545092)
(-1.9157984 0.075847391 -0.025310062)
(-1.9195301 0.087366422 -0.023216825)
(-0.11344842 0.0019838905 -0.0016068836)
(-0.36935505 0.0061782597 -0.0053386105)
(-0.68648288 0.011187096 -0.010400357)
(-1.0408113 0.017771474 -0.016222024)
(-1.3851767 0.026914279 -0.021420303)
(-1.6641665 0.038711268 -0.024619434)
(-1.8411236 0.052121066 -0.025505204)
(-1.9206231 0.065612024 -0.024833096)
(-1.9363722 0.077568799 -0.023969363)
(-0.10603266 0.00097878975 -0.00094232102)
(-0.34633041 0.0032174692 -0.0032919124)
(-0.64669521 0.0062177136 -0.0067899588)
(-0.9879726 0.01085916 -0.011286839)
(-1.3292882 0.018243575 -0.015977547)
(-1.6190098 0.028640062 -0.01972875)
(-1.8177216 0.041112469 -0.02193815)
(-1.9209192 0.054212475 -0.022846983)
(-1.9515673 0.066239722 -0.023302525)
(-0.097177982 0.00012325527 -0.00020683064)
(-0.31887098 0.00065133253 -0.0010445782)
(-0.59900584 0.0018012356 -0.0028138748)
(-0.92350414 0.0044790528 -0.0056992174)
(-1.2583708 0.009847594 -0.009449334)
(-1.5567429 0.018389945 -0.013311981)
(-1.7775355 0.029421952 -0.016547394)
(-1.9077796 0.041618737 -0.018865997)
(-1.9584173 0.053258125 -0.020294092)
(-0.084341764 0.0010891751 0.0010052129)
(-0.27816382 0.0033823867 0.003141521)
(-0.52654199 0.0059228698 0.0055205448)
(-0.8202282 0.00827063 0.0077141711)
(-1.1309558 0.0099108276 0.0090592023)
(-1.4148314 0.010485694 0.0090376001)
(-1.6286226 0.0099832151 0.0076670853)
(-1.7544336 0.0086935959 0.0055642413)
(-1.7995381 0.00693477 0.0035036111)
(-0.090774057 0.0011146804 0.00091351046)
(-0.29843704 0.0034066931 0.002843769)
(-0.56254735 0.0058410766 0.0049684873)
(-0.87015783 0.0079229596 0.0068362697)
(-1.1869921 0.0091331564 0.0077426131)
(-1.463832 0.0091711442 0.0071837451)
(-1.6575003 0.0081236587 0.0052706199)
(-1.7572419 0.0064073206 0.0027585534)
(-1.7823113 0.0045568908 0.00044773928)
(-0.096064491 0.0010610772 0.00075601381)
(-0.31514136 0.0032185923 0.0023620085)
(-0.59209607 0.0054519404 0.0041434139)
(-0.91037378 0.0072497332 0.0056850262)
(-1.2300618 0.0081141872 0.0062824607)
(-1.4973559 0.0078060475 0.00541337)
(-1.6703108 0.0064817187 0.0031964452)
(-1.7465738 0.004620569 0.00044035661)
(-1.7563656 0.0027884087 -0.0018773319)
(-0.10060311 0.00097956574 0.00060557794)
(-0.32935775 0.0029458921 0.0018965585)
(-0.61697443 0.0049292287 0.0033398502)
(-0.94358448 0.0064256136 0.0045588357)
(-1.2642993 0.0069769929 0.0048621096)
(-1.5215827 0.0064054922 0.0037299772)
(-1.6753904 0.0049179246 0.0012993764)
(-1.7313619 0.0030147926 -0.0015654991)
(-1.7284547 0.0012233353 -0.0037860022)
(-0.10405891 0.00085274547 0.00045502526)
(-0.34032628 0.002554971 0.0014378585)
(-0.63632237 0.0042444261 0.002560908)
(-0.96933974 0.0054455839 0.0034914756)
(-1.2901987 0.0057402492 0.0035484019)
(-1.538242 0.0049938851 0.0022112913)
(-1.6754409 0.0034380389 -0.00036081881)
(-1.7143835 0.0015772977 -0.0032501986)
(-1.7008288 -9.7537524e-05 -0.0053062577)
(-0.10670487 0.00070488624 0.00031560029)
(-0.34875236 0.0021087223 0.0010144223)
(-0.65117483 0.0034853309 0.0018498789)
(-0.98888254 0.0044055315 0.0025351441)
(-1.3091427 0.0044984714 0.0023987247)
(-1.5488639 0.0036596418 0.00091399994)
(-1.6719877 0.002128298 -0.001734374)
(-1.6969838 0.0003890833 -0.0045880362)
(-1.674634 -0.0011146588 -0.0064573594)
(-0.10876583 0.00055033925 0.00020246017)
(-0.3552382 0.0016457748 0.00066922503)
(-0.66244354 0.002711321 0.0012668713)
(-1.0033267 0.0033774309 0.0017476204)
(-1.3223336 0.0033244048 0.0014567458)
(-1.5546558 0.0024689691 -0.00013101711)
(-1.6660915 0.0010432563 -0.0028127096)
(-1.6799409 -0.00051034728 -0.0055966984)
(-1.6505693 -0.0018087084 -0.007283106)
(-0.11013684 0.00039988193 0.00011562296)
(-0.35961503 0.0011996227 0.0004036791)
(-0.67009217 0.0019769243 0.00081756224)
(-1.012983 0.002428652 0.0011421736)
(-1.3305278 0.0022868773 0.00073717405)
(-1.5566511 0.0014858334 -0.00091877084)
(-1.6587687 0.00023253277 -0.0036065599)
(-1.6639899 -0.0010885925 -0.0063100495)
(-1.6292253 -0.0021619218 -0.0078375825)
(-0.11093114 0.00026740474 5.5350675e-05)
(-0.36223185 0.00080742456 0.00021769247)
(-0.67474959 0.0013351915 0.00050018684)
(-1.0187821 0.0016172457 0.00071289307)
(-1.3349107 0.0014409405 0.00022833099)
(-1.55611 0.00075346432 -0.0014698258)
(-1.6511048 -0.00027440592 -0.0041489169)
(-1.6498931 -0.0013294702 -0.0067799621)
(-1.6111599 -0.0021694482 -0.0081832153)
(-0.11133961 0.00016155041 1.8059789e-05)
(-0.36366373 0.00049231366 0.0001007089)
(-0.67737785 0.00081865203 0.00029790143)
(-1.0219851 0.00097638 0.00043691741)
(-1.3368753 0.00081140251 -9.9809456e-05)
(-1.554357 0.00028354029 -0.0018230474)
(-1.6441713 -0.00047941247 -0.0044841115)
(-1.6384032 -0.00124785 -0.0070747937)
(-1.5969043 -0.0018521703 -0.0083817193)
(-0.11178246 8.2856906e-05 -1.5019838e-06)
(-0.36494968 0.0002548324 3.8270766e-05)
(-0.67940798 0.0004260476 0.00018801854)
(-1.0241336 0.00049980901 0.00028359457)
(-1.3378515 0.00038316679 -0.00028527398)
(-1.5526068 5.0855421e-05 -0.0020226096)
(-1.6389168 -0.00041861393 -0.0046735944)
(-1.6301971 -0.00088730857 -0.0072365329)
(-1.5869716 -0.0012489684 -0.0084832725)
(-0.11176219 2.4735154e-05 -9.0855488e-06)
(-0.36502616 7.672396e-05 1.3526886e-05)
(-0.67970518 0.00012857492 0.00014360482)
(-1.024537 0.00014837411 0.00022066048)
(-1.3378365 0.00010575762 -0.00036217344)
(-1.5514033 -7.8505723e-06 -0.0021060724)
(-1.6360765 -0.00016619504 -0.0047547124)
(-1.6259374 -0.00032280018 -0.0073054933)
(-1.5818733 -0.00044241353 -0.0085239472)
(-0.11176219 -2.4737892e-05 -9.0860558e-06)
(-0.36502616 -7.6729665e-05 1.3529905e-05)
(-0.67970518 -0.00012859003 0.00014360334)
(-1.024537 -0.00014838742 0.00022065575)
(-1.3378365 -0.0001057545 -0.00036217845)
(-1.5514033 7.8677852e-06 -0.0021060784)
(-1.6360765 0.00016625566 -0.0047547204)
(-1.6259374 0.0003229628 -0.0073055039)
(-1.5818733 0.00044271721 -0.0085239581)
(-0.11178246 -8.2862368e-05 -1.5032302e-06)
(-0.36494969 -0.00025484348 3.8273048e-05)
(-0.67940799 -0.00042607018 0.00018801341)
(-1.0241337 -0.00049983401 0.00028358201)
(-1.3378515 -0.00038318225 -0.00028528679)
(-1.5526068 -5.0860339e-05 -0.0020226263)
(-1.6389169 0.00041865228 -0.0046736218)
(-1.6301971 0.00088746383 -0.0072365718)
(-1.5869716 0.001249277 -0.0084833124)
(-0.11133962 -0.00016155777 1.8061071e-05)
(-0.36366374 -0.0004923313 0.00010071144)
(-0.67737787 -0.00081868429 0.00029790023)
(-1.0219852 -0.00097642074 0.00043690777)
(-1.3368753 -0.00081144199 -9.9822834e-05)
(-1.554357 -0.00028357219 -0.0018230721)
(-1.6441713 0.00047942476 -0.0044841622)
(-1.6384033 0.001247987 -0.0070748692)
(-1.5969044 0.0018524693 -0.0083818014)
(-0.11093115 -0.00026741244 5.5355692e-05)
(-0.36223188 -0.00080744413 0.00021770888)
(-0.67474963 -0.0013352301 0.00050019493)
(-1.0187821 -0.0016172974 0.00071289292)
(-1.3349107 -0.0014409972 0.00022831909)
(-1.55611 -0.00075351834 -0.0014698599)
(-1.6511048 0.00027439707 -0.0041489887)
(-1.6498932 0.0013295789 -0.0067800675)
(-1.61116 0.0021697152 -0.00818334)
(-0.11013686 -0.00039988914 0.00011562324)
(-0.35961506 -0.0011996361 0.00040369884)
(-0.67009221 -0.001976966 0.00081756565)
(-1.0129831 -0.0024287127 0.001142179)
(-1.3305278 -0.0022869507 0.00073716773)
(-1.5566511 -0.0014859136 -0.00091880667)
(-1.6587687 -0.00023257149 -0.0036066401)
(-1.6639899 0.001088664 -0.0063101699)
(-1.6292255 0.0021621483 -0.0078377342)
(-0.10876584 -0.00055034791 0.00020245738)
(-0.35523823 -0.0016457878 0.00066924526)
(-0.66244357 -0.0027113684 0.0012668881)
(-1.0033267 -0.003377507 0.0017476437)
(-1.3223336 -0.0033245035 0.0014567578)
(-1.5546558 -0.0024690817 -0.0001310427)
(-1.6660915 -0.0010433389 -0.0028127858)
(-1.679941 0.00051037174 -0.0055968288)
(-1.6505694 0.0018089028 -0.0072832658)
(-0.10670488 -0.00070489571 0.00031560415)
(-0.34875239 -0.00210874 0.001014453)
(-0.65117486 -0.0034853836 0.0018499167)
(-0.98888258 -0.0044056225 0.0025351863)
(-1.3091427 -0.004498587 0.0023987541)
(-1.548864 -0.003659781 0.00091399162)
(-1.6719878 -0.0021284234 -0.0017344328)
(-1.6969839 -0.00038911123 -0.004588182)
(-1.6746342 0.0011148287 -0.0064575233)
(-0.10405892 -0.0008527556 0.00045503041)
(-0.34032631 -0.0025549869 0.0014378953)
(-0.6363224 -0.0042444725 0.0025609553)
(-0.96933978 -0.0054456675 0.0034915224)
(-1.2901987 -0.0057403607 0.0035484386)
(-1.5382421 -0.0049940331 0.0022113103)
(-1.675441 -0.0034381858 -0.00036085589)
(-1.7143837 -0.0015773631 -0.0032503733)
(-1.700829 9.768687e-05 -0.0053064704)
(-0.10060312 -0.00097957021 0.00060558219)
(-0.32935777 -0.0029458939 0.0018965858)
(-0.61697446 -0.0049292446 0.00333989)
(-0.9435845 -0.0064256555 0.0045588765)
(-1.2642993 -0.0069770741 0.0048621602)
(-1.5215828 -0.0064056155 0.0037300156)
(-1.6753906 -0.004918041 0.0012993319)
(-1.7313621 -0.0030148239 -0.0015657492)
(-1.728455 -0.0012232062 -0.0037863107)
(-0.096064501 -0.001061073 0.00075601064)
(-0.31514138 -0.0032185766 0.0023620097)
(-0.59209609 -0.0054519248 0.0041434243)
(-0.9103738 -0.0072497333 0.0056850498)
(-1.2300618 -0.0081142202 0.0062824971)
(-1.497356 -0.0078061159 0.0054133628)
(-1.670311 -0.0064817836 0.0031963212)
(-1.7465741 -0.0046205316 0.00044003459)
(-1.7563658 -0.0027882717 -0.0018776963)
(-0.090774067 -0.0011146694 0.00091350082)
(-0.29843706 -0.0034066655 0.0028437512)
(-0.56254737 -0.0058410438 0.0049684743)
(-0.87015788 -0.0079229453 0.006836254)
(-1.1869922 -0.0091331592 0.0077425742)
(-1.4638321 -0.0091711445 0.0071836296)
(-1.6575004 -0.0081236276 0.0052703465)
(-1.7572422 -0.0064071993 0.0027581117)
(-1.7823116 -0.0045567402 0.00044740746)
(-0.084341774 -0.0010891714 0.0010052079)
(-0.27816384 -0.0033823852 0.0031415121)
(-0.52654203 -0.0059228732 0.0055205373)
(-0.82022825 -0.0082706575 0.0077141309)
(-1.1309559 -0.0099108895 0.0090591059)
(-1.4148314 -0.010485807 0.0090374341)
(-1.6286228 -0.009983318 0.0076668046)
(-1.7544338 -0.0086935296 0.0055639255)
(-1.7995383 -0.0069346763 0.0035035018)
(-0.090784496 -9.3152081e-05 -7.4125156e-05)
(-0.29860915 -0.00035000438 -0.00026064201)
(-0.56303326 -0.00079734278 -0.00051951412)
(-0.87241726 -0.001597749 -0.00085745725)
(-1.1956421 -0.0029757151 -0.0012496328)
(-1.4874193 -0.005108484 -0.0016619488)
(-1.7056662 -0.0079639989 -0.0021259986)
(-1.8348894 -0.011240793 -0.0027488659)
(-1.8835645 -0.014511674 -0.003593961)
(-0.098031908 -0.00011286655 -7.8760563e-05)
(-0.32134802 -0.00041297586 -0.00026938554)
(-0.60313447 -0.00092416034 -0.00053170821)
(-0.9275986 -0.0018377933 -0.00087620982)
(-1.257331 -0.00341306 -0.0012793964)
(-1.5419234 -0.0058405013 -0.0017115862)
(-1.7399207 -0.0090590418 -0.0022247435)
(-1.84342 -0.012685495 -0.0029651485)
(-1.8727819 -0.01616195 -0.0040723053)
(-0.10410406 -0.00013183735 -7.9389028e-05)
(-0.34040454 -0.00047409915 -0.00027047354)
(-0.63655742 -0.0010429504 -0.00053696814)
(-0.97275052 -0.0020461462 -0.00088963131)
(-1.305784 -0.0037601697 -0.0012983419)
(-1.5810165 -0.0063747311 -0.0017294071)
(-1.7587556 -0.009792363 -0.0022405501)
(-1.8395122 -0.013553627 -0.0029715219)
(-1.8545936 -0.017034747 -0.0040093776)
(-0.10947261 -0.00016956987 -9.002681e-05)
(-0.35709974 -0.00058499108 -0.00030002979)
(-0.66551042 -0.0012322512 -0.00058854172)
(-1.0111914 -0.0023216699 -0.0009612629)
(-1.3458729 -0.0041331377 -0.0013745665)
(-1.6115682 -0.0068487821 -0.001785661)
(-1.7708785 -0.010343012 -0.0022487673)
(-1.8322176 -0.014104067 -0.0028782508)
(-1.8355366 -0.017473053 -0.0037392983)
(-0.11378167 -0.000210086 -9.7214053e-05)
(-0.37062179 -0.00070330477 -0.00031984004)
(-0.68908358 -0.0014283933 -0.00062282792)
(-1.0424531 -0.0025865171 -0.0010049814)
(-1.3780943 -0.0044470404 -0.0014068003)
(-1.6352659 -0.0071776691 -0.0017740383)
(-1.7788232 -0.010629441 -0.0021535963)
(-1.8240095 -0.014259501 -0.0026384864)
(-1.8174568 -0.017382315 -0.0032900645)
(-0.11730349 -0.0002468295 -9.6225178e-05)
(-0.38166336 -0.00080771167 -0.00031499264)
(-0.7082734 -0.0015918303 -0.00061478508)
(-1.0677054 -0.0027816773 -0.00098594789)
(-1.4037088 -0.0046242594 -0.0013502614)
(-1.6534214 -0.0072676326 -0.0016438847)
(-1.7838349 -0.010548614 -0.0019118113)
(-1.8158524 -0.013915449 -0.0022321855)
(-1.8011177 -0.016693231 -0.00267853)
(-0.12025882 -0.00027107699 -8.6894417e-05)
(-0.39080044 -0.00087207918 -0.00028437513)
(-0.72392324 -0.0016790009 -0.0005604186)
(-1.0879347 -0.0028488755 -0.00089866328)
(-1.4237255 -0.0045982161 -0.0012034086)
(-1.6669515 -0.0070502734 -0.0013992504)
(-1.786597 -0.010037711 -0.0015357578)
(-1.8081284 -0.01302934 -0.0016900976)
(-1.7868138 -0.015399904 -0.0019539523)
(-0.12248598 -0.00027342108 -6.881247e-05)
(-0.39771148 -0.00086960854 -0.00022777615)
(-0.73576692 -0.0016465053 -0.00046174516)
(-1.1031615 -0.0027324621 -0.00074776719)
(-1.4385402 -0.0043085618 -0.00097688247)
(-1.6764784 -0.0064723813 -0.0010651185)
(-1.7876484 -0.0090616106 -0.0010653036)
(-1.8011109 -0.01159152 -0.0010607108)
(-1.7746967 -0.013521 -0.0011800315)
(-0.12404978 -0.00025010931 -4.5386037e-05)
(-0.40260383 -0.00078926692 -0.00015529195)
(-0.74419695 -0.0014767955 -0.00033668738)
(-1.1139961 -0.0024113792 -0.00056166864)
(-1.4489412 -0.0037353874 -0.00070809108)
(-1.6827907 -0.0055232219 -0.0006876663)
(-1.7875687 -0.007625964 -0.00055562593)
(-1.7950642 -0.009627287 -0.00040415426)
(-1.7649044 -0.011046516 -0.00042077491)
(-0.12509291 -0.00020149586 -2.1147853e-05)
(-0.40591291 -0.00063243629 -8.08275e-05)
(-0.74994147 -0.0011734708 -0.00020905367)
(-1.1213704 -0.001893987 -0.00037462505)
(-1.4559043 -0.002896077 -0.00044449809)
(-1.6867346 -0.0042310009 -0.00032544691)
(-1.7869152 -0.0057788055 -7.5771307e-05)
(-1.7902508 -0.0071679018 0.0001882501)
(-1.757466 -0.0082323453 0.0002203963)
(-0.12601879 -0.00013156011 -1.4535782e-06)
(-0.40860226 -0.00041098603 -2.0552372e-05)
(-0.75426714 -0.00075772521 -0.00010625199)
(-1.1265567 -0.0012126224 -0.00022499432)
(-1.4604947 -0.0018370036 -0.00023544196)
(-1.6890855 -0.0026606448 -3.8869034e-05)