/*--------------------------------*- C++ -*----------------------------------*\
  =========                 |
  \\      /  F ield         | OpenFOAM: The Open Source CFD Toolbox
   \\    /   O peration     | Website:  https://openfoam.org
    \\  /    A nd           | Version:  10
     \\/     M anipulation  |
\*---------------------------------------------------------------------------*/
FoamFile
{
    format      ascii;
    class       volScalarField;
    location    "21";
    object      ddt0(T);
}
// * * * * * * * * * * * * * * * * * * * * * * * * * * * * * * * * * * * * * //

dimensions      [0 0 -1 1 0 0 0];

internalField   nonuniform List<scalar> 
10000
(
1758.2
434.545
547.245
555.785
554.855
554.801
554.872
554.899
554.907
554.911
554.914
554.916
554.918
554.921
554.923
554.925
554.927
554.93
554.932
554.934
554.936
554.938
554.94
554.941
554.943
554.945
554.947
554.948
554.95
554.952
554.953
554.955
554.956
554.958
554.959
554.961
554.962
554.963
554.964
554.966
554.967
554.968
554.969
554.97
554.971
554.972
554.973
554.974
554.974
554.975
554.976
554.977
554.977
554.978
554.978
554.979
554.979
554.98
554.98
554.981
554.981
554.981
554.982
554.982
554.982
554.983
554.983
554.983
554.983
554.983
554.983
554.984
554.984
554.984
554.984
554.984
554.984
554.984
554.984
554.984
554.984
554.984
554.984
554.984
554.984
554.984
554.984
554.984
554.984
554.984
554.984
554.984
554.984
554.983
554.985
555.005
555.058
553.716
532.598
531.629
538.346
-375.912
-172.283
-167.348
-171.294
-171.766
-171.703
-171.669
-171.658
-171.651
-171.644
-171.637
-171.631
-171.624
-171.617
-171.611
-171.605
-171.598
-171.592
-171.586
-171.58
-171.575
-171.569
-171.563
-171.558
-171.552
-171.547
-171.542
-171.537
-171.532
-171.527
-171.523
-171.518
-171.514
-171.509
-171.505
-171.501
-171.497
-171.494
-171.49
-171.487
-171.483
-171.48
-171.477
-171.474
-171.471
-171.469
-171.466
-171.464
-171.461
-171.459
-171.457
-171.455
-171.453
-171.452
-171.45
-171.448
-171.447
-171.446
-171.444
-171.443
-171.442
-171.441
-171.44
-171.44
-171.439
-171.438
-171.438
-171.437
-171.437
-171.436
-171.436
-171.436
-171.435
-171.435
-171.435
-171.435
-171.435
-171.435
-171.435
-171.435
-171.435
-171.435
-171.435
-171.435
-171.435
-171.435
-171.435
-171.435
-171.435
-171.435
-171.436
-171.436
-171.436
-171.435
-171.396
-171.15
-170.92
-178.877
-158.25
627.662
-197.371
9.09068
10.2443
5.41837
4.90111
4.99095
5.03644
5.05286
5.0644
5.07567
5.08692
5.09808
5.10912
5.12004
5.13082
5.14145
5.15192
5.16223
5.17236
5.1823
5.19206
5.20164
5.21102
5.22021
5.22921
5.238
5.24659
5.25498
5.26316
5.27114
5.27889
5.28644
5.29377
5.30088
5.30777
5.31444
5.32088
5.32711
5.33311
5.33889
5.34444
5.34978
5.3549
5.3598
5.36448
5.36895
5.37321
5.37727
5.38112
5.38477
5.38822
5.39148
5.39456
5.39744
5.40016
5.40269
5.40506
5.40726
5.40931
5.4112
5.41294
5.41454
5.41601
5.41735
5.41856
5.41965
5.42063
5.4215
5.42227
5.42294
5.42353
5.42403
5.42445
5.4248
5.42508
5.42531
5.42547
5.42558
5.42565
5.42567
5.42566
5.42562
5.42555
5.42545
5.42534
5.42521
5.42507
5.42492
5.42476
5.42461
5.42441
5.42392
5.42201
5.41707
5.42782
5.60121
5.9959
1.45211
8.78737
634.882
-192.531
10.2803
10.1441
5.14058
4.63918
4.7454
4.7986
4.82011
4.83625
4.85203
4.86774
4.88331
4.89871
4.91392
4.92895
4.94376
4.95836
4.97273
4.98686
5.00075
5.01438
5.02775
5.04087
5.05371
5.06629
5.07858
5.0906
5.10233
5.11377
5.12492
5.13578
5.14633
5.15658
5.16652
5.17615
5.18548
5.19449
5.20319
5.21158
5.21966
5.22743
5.23489
5.24204
5.24889
5.25544
5.26169
5.26765
5.27332
5.2787
5.2838
5.28863
5.29319
5.29748
5.30152
5.30531
5.30885
5.31216
5.31524
5.3181
5.32074
5.32318
5.32541
5.32746
5.32933
5.33102
5.33254
5.33391
5.33513
5.3362
5.33714
5.33796
5.33866
5.33925
5.33974
5.34013
5.34044
5.34066
5.34082
5.34091
5.34094
5.34093
5.34086
5.34076
5.34062
5.34045
5.34027
5.34006
5.33984
5.33961
5.33939
5.33918
5.33881
5.33701
5.32933
5.31645
5.39237
5.85855
5.2194
6.29276
634.125
-195.882
6.07833
5.76449
0.769121
0.286891
0.402845
0.461685
0.487866
0.508516
0.528767
0.548921
0.568895
0.588657
0.608192
0.627483
0.646513
0.665266
0.683728
0.701887
0.719732
0.737255
0.754448
0.771305
0.787817
0.80398
0.819787
0.835232
0.85031
0.865015
0.879342
0.893286
0.906843
0.920009
0.932781
0.945157
0.957133
0.96871
0.979886
0.990662
1.00104
1.01101
1.02059
1.02978
1.03858
1.04698
1.05501
1.06266
1.06993
1.07684
1.08339
1.08959
1.09544
1.10096
1.10614
1.111
1.11555
1.1198
1.12375
1.12742
1.13081
1.13394
1.13681
1.13944
1.14183
1.144
1.14595
1.14771
1.14927
1.15064
1.15185
1.1529
1.15379
1.15455
1.15517
1.15567
1.15607
1.15636
1.15655
1.15667
1.15671
1.15668
1.1566
1.15646
1.15628
1.15607
1.15583
1.15556
1.15528
1.15498
1.1547
1.15446
1.15431
1.15368
1.14878
1.1299
1.1138
1.25024
1.33161
1.46398
634.085
-196.286
5.6253
5.32532
0.348755
-0.122776
-0.000649347
0.0630117
0.0937382
0.118882
0.143598
0.168183
0.192549
0.21666
0.240497
0.264039
0.287266
0.310157
0.332694
0.354864
0.376653
0.398051
0.419046
0.43963
0.459795
0.479532
0.498835
0.517694
0.536105
0.554059
0.57155
0.588574
0.605125
0.621197
0.636788
0.651894
0.666513
0.680643
0.694284
0.707435
0.720098
0.732274
0.743965
0.755176
0.765909
0.776169
0.785963
0.795295
0.804173
0.812604
0.820595
0.828156
0.835295
0.842021
0.848345
0.854276
0.859826
0.865005
0.869824
0.874296
0.878433
0.882245
0.885747
0.888949
0.891866
0.89451
0.896892
0.899028
0.900928
0.902607
0.904076
0.905349
0.906438
0.907355
0.908113
0.908724
0.909199
0.909551
0.909789
0.909926
0.909972
0.909937
0.909831
0.909663
0.909443
0.90918
0.908881
0.908554
0.908206
0.907843
0.907477
0.907148
0.906985
0.907098
0.906258
0.898117
0.876321
0.87764
0.911008
0.969564
634.146
-196.23
5.70409
5.41961
0.452603
-0.0127743
0.114244
0.182475
0.217707
0.247329
0.276492
0.305491
0.33423
0.362671
0.39079
0.418563
0.445965
0.472973
0.499566
0.525727
0.55144
0.576693
0.601471
0.625765
0.649565
0.672859
0.69564
0.717898
0.739625
0.760813
0.781455
0.801544
0.821073
0.840038
0.858434
0.876257
0.893505
0.910176
0.926269
0.941784
0.956722
0.971086
0.984877
0.998101
1.01076
1.02286
1.03441
1.04542
1.05589
1.06584
1.07526
1.08418
1.09259
1.10053
1.10798
1.11497
1.12152
1.12762
1.1333
1.13857
1.14345
1.14794
1.15207
1.15584
1.15928
1.16239
1.1652
1.16771
1.16995
1.17192
1.17365
1.17515
1.17643
1.1775
1.17839
1.17911
1.17967
1.18008
1.18035
1.18051
1.18056
1.18052
1.18039
1.18019
1.17992
1.17961
1.17925
1.17886
1.17845
1.17802
1.17758
1.17713
1.17678
1.17675
1.17713
1.17591
1.16753
1.15254
1.14155
1.19391
634.17
-196.2
5.74504
5.46807
0.506669
0.0461083
0.177697
0.250438
0.290153
0.324233
0.357824
0.391213
0.424304
0.457051
0.48943
0.521411
0.552966
0.584069
0.614696
0.644827
0.674444
0.703531
0.732072
0.760057
0.787471
0.814304
0.840545
0.866183
0.891209
0.915613
0.939388
0.962524
0.985016
1.00686
1.02804
1.04857
1.06843
1.08763
1.10616
1.12402
1.14122
1.15776
1.17364
1.18886
1.20344
1.21737
1.23067
1.24334
1.25539
1.26683
1.27768
1.28794
1.29763
1.30676
1.31534
1.32339
1.33091
1.33794
1.34447
1.35054
1.35614
1.36131
1.36605
1.37039
1.37434
1.37792
1.38114
1.38403
1.3866
1.38887
1.39085
1.39257
1.39403
1.39527
1.39629
1.3971
1.39774
1.3982
1.39852
1.39869
1.39875
1.39869
1.39853
1.3983
1.39799
1.39763
1.39721
1.39676
1.39628
1.39578
1.39527
1.39474
1.39423
1.39385
1.39392
1.39432
1.39296
1.3836
1.35857
1.41501
634.177
-196.189
5.7608
5.48891
0.532182
0.0761694
0.212266
0.289491
0.333669
0.372183
0.410175
0.447931
0.485347
0.522376
0.558989
0.595153
0.630836
0.666009
0.700646
0.734722
0.768218
0.801116
0.833398
0.86505
0.896057
0.926407
0.956086
0.985083
1.01339
1.04099
1.06788
1.09404
1.11948
1.14418
1.16813
1.19134
1.2138
1.2355
1.25646
1.27665
1.2961
1.3148
1.33275
1.34996
1.36643
1.38218
1.39721
1.41153
1.42516
1.43809
1.45035
1.46195
1.47289
1.48321
1.4929
1.50199
1.51049
1.51843
1.52581
1.53266
1.53899
1.54482
1.55017
1.55507
1.55953
1.56356
1.5672
1.57046
1.57335
1.57591
1.57814
1.58007
1.58172
1.58311
1.58425
1.58517
1.58588
1.5864
1.58675
1.58694
1.58699
1.58692
1.58674
1.58647
1.58611
1.58569
1.58522
1.58471
1.58416
1.58359
1.58302
1.58242
1.58182
1.58124
1.58088
1.58114
1.58198
1.57723
1.54106
1.61048
634.181
-196.182
5.77233
5.50507
0.55285
0.101335
0.241914
0.3236
0.372213
0.415134
0.457501
0.499594
0.541307
0.58259
0.623407
0.663725
0.703508
0.742723
0.781341
0.819336
0.856685
0.893367
0.929364
0.964658
0.999233
1.03307
1.06617
1.0985
1.13006
1.16084
1.19081
1.21999
1.24834
1.27588
1.30259
1.32846
1.35349
1.37769
1.40104
1.42356
1.44523
1.46607
1.48607
1.50525
1.52362
1.54117
1.55792
1.57387
1.58905
1.60346
1.61712
1.63004
1.64223
1.65372
1.66451
1.67464
1.68411
1.69294
1.70116
1.70878
1.71583
1.72232
1.72828
1.73372
1.73868
1.74317
1.74721
1.75083
1.75404
1.75688
1.75936
1.7615
1.76333
1.76487
1.76613
1.76714
1.76792
1.76849
1.76887
1.76907
1.76912
1.76904
1.76883
1.76852
1.76812
1.76764
1.76711
1.76653
1.76591
1.76528
1.76463
1.76398
1.76332
1.76265
1.76205
1.76198
1.76355
1.76192
1.71254
1.79905
634.183
-196.175
5.78363
5.52089
0.573159
0.126115
0.271147
0.357265
0.410284
0.457581
0.50429
0.550689
0.596667
0.642171
0.687162
0.731602
0.775454
0.81868
0.861249
0.903132
0.944303
0.984741
1.02442
1.06333
1.10145
1.13875
1.17523
1.21088
1.24567
1.27959
1.31263
1.34479
1.37604
1.40639
1.43583
1.46434
1.49193
1.51859
1.54433
1.56914
1.59302
1.61598
1.63803
1.65916
1.67939
1.69872
1.71717
1.73475
1.75147
1.76734
1.78238
1.79661
1.81003
1.82268
1.83457
1.84571
1.85614
1.86586
1.8749
1.88329
1.89104
1.89818
1.90473
1.91072
1.91617
1.9211
1.92554
1.92952
1.93305
1.93616
1.93888
1.94123
1.94323
1.94491
1.94629
1.94739
1.94824
1.94886
1.94926
1.94947
1.94952
1.94941
1.94917
1.94882
1.94837
1.94784
1.94724
1.9466
1.94592
1.94521
1.94449
1.94377
1.94305
1.94232
1.94159
1.94129
1.94325
1.94433
1.88159
1.98523
634.186
-196.169
5.7949
5.53665
0.593372
0.150767
0.300221
0.390737
0.448127
0.499766
0.550783
0.601452
0.651661
0.701351
0.75048
0.799008
0.846893
0.894096
0.940583
0.986321
1.03128
1.07544
1.11878
1.16127
1.2029
1.24364
1.28348
1.3224
1.36039
1.39743
1.43352
1.46863
1.50275
1.53589
1.56803
1.59916
1.62928
1.65839
1.68648
1.71357
1.73963
1.7647
1.78876
1.81182
1.8339
1.855
1.87513
1.89431
1.91255
1.92987
1.94628
1.9618
1.97645
1.99024
2.0032
2.01536
2.02672
2.03732
2.04718
2.05632
2.06476
2.07254
2.07968
2.0862
2.09213
2.0975
2.10233
2.10666
2.11049
2.11388
2.11683
2.11937
2.12154
2.12336
2.12485
2.12604
2.12695
2.12761
2.12804
2.12826
2.1283
2.12817
2.1279
2.1275
2.127
2.12641
2.12575
2.12504
2.12428
2.12351
2.12272
2.12192
2.12114
2.12034
2.11952
2.11905
2.12125
2.12477
2.05034
2.16905
634.188
-196.162
5.80609
5.55228
0.613415
0.175214
0.329051
0.423928
0.485652
0.541594
0.596881
0.651783
0.706184
0.760022
0.813252
0.865829
0.917711
0.968854
1.01922
1.06878
1.11749
1.16534
1.2123
1.25834
1.30344
1.34759
1.39075
1.43292
1.47408
1.51422
1.55331
1.59135
1.62832
1.66422
1.69903
1.73275
1.76538
1.7969
1.82733
1.85666
1.8849
1.91204
1.93809
1.96306
1.98697
2.00981
2.03161
2.05238
2.07212
2.09087
2.10863
2.12542
2.14127
2.1562
2.17022
2.18337
2.19566
2.20713
2.21778
2.22767
2.2368
2.2452
2.25291
2.25996
2.26636
2.27216
2.27737
2.28203
2.28617
2.28982
2.29299
2.29573
2.29807
2.30002
2.30161
2.30288
2.30385
2.30455
2.305
2.30522
2.30525
2.30509
2.30478
2.30434
2.30379
2.30314
2.30241
2.30163
2.30081
2.29995
2.29909
2.29823
2.29737
2.29651
2.29561
2.29499
2.29731
2.30284
2.21918
2.35008
634.191
-196.155
5.81717
5.56774
0.633259
0.199422
0.357602
0.456799
0.522815
0.58302
0.642535
0.701628
0.760179
0.818123
0.875413
0.932
0.987837
1.04288
1.09709
1.15043
1.20286
1.25436
1.3049
1.35445
1.40299
1.45051
1.49696
1.54235
1.58665
1.62984
1.67191
1.71284
1.75263
1.79125
1.82871
1.865
1.9001
1.93402
1.96676
1.99831
2.02868
2.05787
2.0859
2.11276
2.13847
2.16304
2.18648
2.2088
2.23004
2.25019
2.26928
2.28733
2.30437
2.32041
2.33548
2.34961
2.36281
2.37512
2.38657
2.39718
2.40698
2.41601
2.42428
2.43184
2.43871
2.44492
2.45051
2.4555
2.45993
2.46382
2.46722
2.47015
2.47263
2.47471
2.47641
2.47775
2.47878
2.47951
2.47997
2.48019
2.4802
2.48002
2.47967
2.47918
2.47857
2.47786
2.47707
2.47621
2.47532
2.47439
2.47345
2.47252
2.47159
2.47067
2.46969
2.46894
2.47128
2.47829
2.38804
2.52808
634.193
-196.149
5.82814
5.58304
0.65289
0.223372
0.385851
0.489323
0.559587
0.624009
0.687708
0.750947
0.813604
0.875611
0.936916
0.997469
1.05722
1.11612
1.17413
1.2312
1.28731
1.34242
1.39651
1.44953
1.50148
1.55232
1.60203
1.6506
1.698
1.74421
1.78923
1.83302
1.87559
1.91691
1.95698
1.9958
2.03335
2.06963
2.10465
2.13839
2.17088
2.2021
2.23207
2.26079
2.28828
2.31455
2.33961
2.36348
2.38617
2.40771
2.42812
2.44741
2.46561
2.48275
2.49885
2.51394
2.52804
2.54119
2.55341
2.56473
2.57519
2.58482
2.59364
2.6017
2.60902
2.61564
2.62159
2.6269
2.63162
2.63576
2.63937
2.64247
2.64511
2.6473
2.64909
2.65051
2.65158
2.65234
2.65282
2.65303
2.65302
2.65281
2.65242
2.65188
2.65121
2.65043
2.64957
2.64864
2.64767
2.64667
2.64566
2.64465
2.64365
2.64266
2.64161
2.64075
2.64304
2.651
2.55664
2.70296
634.195
-196.142
5.83897
5.59815
0.672293
0.247046
0.413776
0.521474
0.595939
0.66453
0.732364
0.799702
0.866418
0.93244
0.997713
1.06219
1.1258
1.18852
1.25028
1.31105
1.37079
1.42947
1.48706
1.54352
1.59882
1.65295
1.70588
1.75759
1.80805
1.85725
1.90517
1.95179
1.9971
2.04109
2.08374
2.12506
2.16502
2.20364
2.2409
2.27681
2.31138
2.3446
2.37648
2.40704
2.43629
2.46423
2.49089
2.51627
2.54041
2.56332
2.58501
2.60552
2.62487
2.64309
2.6602
2.67623
2.69122
2.70518
2.71816
2.73019
2.74129
2.75151
2.76087
2.76941
2.77718
2.78419
2.79049
2.79612
2.8011
2.80548
2.80929
2.81257
2.81535
2.81766
2.81953
2.82101
2.82213
2.82291
2.82339
2.8236
2.82356
2.82331
2.82288
2.82228
2.82155
2.82071
2.81977
2.81877
2.81773
2.81665
2.81556
2.81448
2.81341
2.81235
2.81123
2.81028
2.81246
2.8209
2.7246
2.87466
634.197
-196.136
5.84967
5.61307
0.691451
0.270424
0.441353
0.553227
0.63184
0.704549
0.776468
0.847854
0.918578
0.988565
1.05776
1.1261
1.19354
1.26002
1.32549
1.38991
1.45324
1.51544
1.57648
1.63633
1.69495
1.75233
1.80844
1.86324
1.91673
1.96888
2.01966
2.06907
2.11709
2.1637
2.2089
2.25268
2.29503
2.33594
2.37542
2.41347
2.45008
2.48527
2.51905
2.55141
2.58239
2.61198
2.6402
2.66708
2.69264
2.71689
2.73985
2.76156
2.78204
2.80131
2.81941
2.83637
2.85222
2.86698
2.88071
2.89341
2.90515
2.91594
2.92583
2.93485
2.94304
2.95044
2.95708
2.96301
2.96826
2.97287
2.97687
2.98031
2.98322
2.98563
2.98759
2.98913
2.99028
2.99108
2.99156
2.99175
2.99169
2.9914
2.99092
2.99026
2.98947
2.98855
2.98755
2.98647
2.98535
2.98419
2.98302
2.98186
2.98072
2.9796
2.97842
2.97738
2.97942
2.98794
2.89156
3.04316
634.199
-196.129
5.86021
5.62779
0.710349
0.293488
0.468561
0.584555
0.667262
0.744036
0.819986
0.895367
0.970046
1.04395
1.11701
1.18917
1.26037
1.33057
1.3997
1.46772
1.53458
1.60026
1.66471
1.7279
1.7898
1.85039
1.90962
1.96748
2.02395
2.079
2.13261
2.18477
2.23546
2.28466
2.33237
2.37857
2.42327
2.46645
2.50811
2.54825
2.58689
2.62402
2.65965
2.6938
2.72647
2.75768
2.78745
2.8158
2.84274
2.86831
2.89252
2.9154
2.93699
2.9573
2.97637
2.99424
3.01093
3.02648
3.04092
3.0543
3.06665
3.078
3.0884
3.09788
3.10649
3.11426
3.12123
3.12745
3.13295
3.13777
3.14196
3.14555
3.14859
3.1511
3.15313
3.15472
3.1559
3.15672
3.15719
3.15736
3.15727
3.15694
3.1564
3.15568
3.15482
3.15383
3.15275
3.1516
3.15039
3.14916
3.14791
3.14668
3.14547
3.14427
3.14303
3.14193
3.14379
3.15208
3.05712
3.20844
634.202
-196.123
5.8706
5.64229
0.728973
0.31622
0.495379
0.615437
0.702181
0.782962
0.862888
0.942208
1.02079
1.09854
1.17542
1.25135
1.32627
1.40012
1.47286
1.54442
1.61478
1.68388
1.75169
1.81818
1.88331
1.94705
2.00937
2.07024
2.12964
2.18756
2.24395
2.29882
2.35213
2.40389
2.45406
2.50266
2.54966
2.59506
2.63887
2.68108
2.7217
2.76074
2.7982
2.83409
2.86843
2.90123
2.93252
2.96231
2.99062
3.01748
3.04291
3.06694
3.08961
3.11094
3.13096
3.14971
3.16723
3.18354
3.19869
3.21272
3.22567
3.23756
3.24846
3.25839
3.2674
3.27553
3.28282
3.28932
3.29506
3.30009
3.30445
3.30819
3.31134
3.31394
3.31604
3.31767
3.31888
3.3197
3.32016
3.32031
3.32018
3.3198
3.3192
3.31842
3.31749
3.31643
3.31527
3.31403
3.31275
3.31143
3.31011
3.30879
3.30751
3.30625
3.30495
3.30378
3.30545
3.31327
3.22092
3.3705
634.204
-196.117
5.88083
5.65656
0.747312
0.338606
0.521792
0.645853
0.736575
0.821304
0.905145
0.988346
1.07077
1.15232
1.23295
1.31259
1.39117
1.46863
1.54492
1.61998
1.69377
1.76625
1.83737
1.9071
1.97541
2.04225
2.10761
2.17145
2.23374
2.29447
2.35361
2.41114
2.46704
2.5213
2.5739
2.62484
2.67411
2.72171
2.76763
2.81187
2.85444
2.89535
2.9346
2.97221
3.00818
3.04255
3.07532
3.10652
3.13617
3.16429
3.19092
3.21608
3.23981
3.26213
3.28308
3.30269
3.32101
3.33807
3.35392
3.36858
3.3821
3.39453
3.4059
3.41627
3.42566
3.43414
3.44174
3.4485
3.45447
3.4597
3.46423
3.4681
3.47135
3.47404
3.4762
3.47787
3.47909
3.47991
3.48035
3.48047
3.4803
3.47986
3.47921
3.47836
3.47735
3.47621
3.47497
3.47365
3.47228
3.47089
3.46948
3.46809
3.46673
3.4654
3.46405
3.46282
3.46427
3.47147
3.38261
3.52933
634.206
-196.111
5.89088
5.67061
0.765357
0.360635
0.547784
0.675786
0.770423
0.859039
0.946735
1.03375
1.11996
1.20526
1.28958
1.37287
1.45505
1.53606
1.61585
1.69435
1.77152
1.84732
1.9217
1.99462
2.06605
2.13595
2.20429
2.27105
2.33618
2.39968
2.46151
2.52166
2.5801
2.63682
2.69181
2.74506
2.79656
2.8463
2.89429
2.94053
2.98502
3.02776
3.06877
3.10806
3.14564
3.18153
3.21576
3.24834
3.2793
3.30866
3.33646
3.36272
3.38748
3.41077
3.43262
3.45309
3.47219
3.48997
3.50648
3.52176
3.53585
3.54879
3.56062
3.57141
3.58118
3.58998
3.59787
3.60489
3.61108
3.6165
3.62118
3.62517
3.62853
3.63129
3.63349
3.63519
3.63642
3.63723
3.63766
3.63774
3.63752
3.63703
3.63631
3.63539
3.6343
3.63308
3.63175
3.63035
3.6289
3.62742
3.62593
3.62446
3.62303
3.62163
3.62022
3.61894
3.62016
3.62662
3.54187
3.6849
634.208
-196.105
5.90077
5.68441
0.783098
0.382294
0.573342
0.70522
0.803708
0.896146
0.987633
1.07841
1.16833
1.25731
1.34527
1.43215
1.51787
1.60238
1.6856
1.76748
1.84798
1.92704
2.00462
2.08068
2.15518
2.22808
2.29936
2.36898
2.43691
2.50313
2.5676
2.63032
2.69126
2.7504
2.80773
2.86324
2.91693
2.96878
3.0188
3.06699
3.11335
3.15789
3.20062
3.24156
3.28071
3.31811
3.35376
3.38769
3.41993
3.4505
3.47944
3.50677
3.53254
3.55677
3.57951
3.60079
3.62066
3.63915
3.65631
3.67218
3.68681
3.70024
3.71253
3.72371
3.73384
3.74297
3.75113
3.75839
3.76479
3.77038
3.7752
3.77932
3.78276
3.78558
3.78783
3.78955
3.79078
3.79158
3.79198
3.79202
3.79174
3.79119
3.7904
3.7894
3.78823
3.78693
3.78551
3.78402
3.78248
3.78092
3.77935
3.7778
3.77629
3.77482
3.77335
3.77202
3.77302
3.77866
3.69842
3.83721
634.21
-196.099
5.91047
5.69797
0.800529
0.403576
0.598454
0.734141
0.836414
0.932609
1.02782
1.12229
1.21587
1.30846
1.4
1.4904
1.5796
1.66754
1.75413
1.83934
1.9231
2.00537
2.08609
2.16523
2.24275
2.3186
2.39276
2.46519
2.53586
2.60475
2.67182
2.73706
2.80044
2.86196
2.92158
2.97932
3.03514
3.08906
3.14107
3.19118
3.23937
3.28568
3.33009
3.37264
3.41333
3.45219
3.48923
3.52448
3.55797
3.58972
3.61977
3.64815
3.6749
3.70006
3.72365
3.74573
3.76633
3.78551
3.80329
3.81974
3.8349
3.84881
3.86152
3.87309
3.88357
3.89299
3.90142
3.90891
3.91551
3.92126
3.92621
3.93043
3.93395
3.93683
3.93911
3.94084
3.94207
3.94284
3.94321
3.9432
3.94287
3.94225
3.94138
3.9403
3.93905
3.93766
3.93615
3.93457
3.93294
3.93129
3.92964
3.92801
3.92642
3.92488
3.92336
3.92198
3.92275
3.92753
3.852
3.98622
634.211
-196.094
5.92
5.71129
0.817642
0.424469
0.623109
0.762537
0.868525
0.968409
1.06728
1.16537
1.26254
1.35868
1.45373
1.5476
1.64021
1.73151
1.82143
1.90989
1.99686
2.08227
2.16608
2.24824
2.32872
2.40747
2.48445
2.55964
2.633
2.7045
2.77412
2.84183
2.90761
2.97144
3.03332
3.09323
3.15115
3.20709
3.26105
3.31302
3.36302
3.41104
3.45711
3.50123
3.54342
3.5837
3.6221
3.65864
3.69335
3.72625
3.75739
3.78679
3.81449
3.84053
3.86496
3.88781
3.90913
3.92897
3.94736
3.96436
3.98003
3.9944
4.00752
4.01946
4.03026
4.03998
4.04866
4.05636
4.06313
4.06903
4.07411
4.07842
4.08201
4.08493
4.08724
4.08898
4.09019
4.09094
4.09126
4.0912
4.0908
4.09011
4.08917
4.088
4.08666
4.08518
4.08358
4.08191
4.08019
4.07844
4.07671
4.07499
4.07333
4.07172
4.07014
4.06871
4.06925
4.07318
4.0024
4.13192
634.213
-196.088
5.92934
5.72435
0.83443
0.444967
0.647297
0.790395
0.90003
1.00353
1.10599
1.20764
1.30833
1.40795
1.50644
1.6037
1.69967
1.79427
1.88744
1.9791
2.06921
2.1577
2.24454
2.32966
2.41304
2.49462
2.57438
2.65227
2.72826
2.80232
2.87443
2.94456
3.01269
3.0788
3.14288
3.20491
3.26489
3.32281
3.37867
3.43247
3.48422
3.53393
3.5816
3.62725
3.67091
3.71259
3.75231
3.7901
3.82599
3.86001
3.8922
3.92259
3.95122
3.97813
4.00337
4.02697
4.04898
4.06945
4.08843
4.10597
4.12212
4.13693
4.15045
4.16274
4.17385
4.18384
4.19275
4.20066
4.2076
4.21364
4.21882
4.22321
4.22686
4.22982
4.23214
4.23388
4.23507
4.23578
4.23606
4.23594
4.23547
4.2347
4.23367
4.23242
4.23098
4.2294
4.22771
4.22595
4.22413
4.2223
4.22047
4.21867
4.21693
4.21525
4.21361
4.21214
4.21246
4.21555
4.14944
4.27425
634.215
-196.083
5.9385
5.73716
0.850888
0.465061
0.671009
0.817705
0.930913
1.03796
1.14394
1.24908
1.35321
1.45625
1.55811
1.6587
1.75796
1.85579
1.95214
2.04694
2.14012
2.23164
2.32144
2.40946
2.49568
2.58004
2.66251
2.74304
2.82161
2.89818
2.97273
3.04522
3.11565
3.18398
3.25021
3.31432
3.3763
3.43615
3.49387
3.54946
3.60292
3.65427
3.70351
3.75066
3.79574
3.83877
3.87978
3.91879
3.95584
3.99095
4.02416
4.05551
4.08504
4.11279
4.1388
4.16312
4.1858
4.20689
4.22643
4.24448
4.2611
4.27632
4.29022
4.30285
4.31425
4.32449
4.33363
4.34172
4.34882
4.35498
4.36027
4.36473
4.36843
4.37141
4.37374
4.37546
4.37663
4.3773
4.37751
4.37733
4.37679
4.37593
4.37481
4.37347
4.37194
4.37026
4.36847
4.3666
4.36469
4.36276
4.36085
4.35897
4.35715
4.35539
4.3537
4.35217
4.35229
4.35458
4.29295
4.41317
634.217
-196.077
5.94747
5.7497
0.867009
0.484744
0.694236
0.844455
0.961164
1.07169
1.18111
1.28966
1.39718
1.50356
1.60872
1.71257
1.81504
1.91604
2.01551
2.11337
2.20957
2.30404
2.39674
2.48761
2.5766
2.66368
2.74879
2.83191
2.913
2.99202
3.06895
3.14376
3.21642
3.28693
3.35526
3.42139
3.48533
3.54707
3.6066
3.66393
3.71906
3.772
3.82277
3.87138
3.91785
3.9622
4.00446
4.04466
4.08282
4.11899
4.15319
4.18547
4.21586
4.24442
4.27119
4.29621
4.31953
4.34121
4.36129
4.37984
4.39689
4.41252
4.42678
4.43972
4.4514
4.46188
4.47123
4.47949
4.48673
4.493
4.49837
4.5029
4.50663
4.50963
4.51195
4.51365
4.51479
4.5154
4.51556
4.5153
4.51468
4.51374
4.51252
4.51108
4.50945
4.50767
4.50578
4.50381
4.5018
4.49978
4.49777
4.4958
4.4939
4.49208
4.49032
4.48875
4.48867
4.49021
4.43281
4.54865
634.219
-196.072
5.95624
5.76198
0.882788
0.504008
0.716968
0.870635
0.99077
1.10469
1.21749
1.32938
1.4402
1.54985
1.65824
1.76528
1.8709
1.975
2.07752
2.17838
2.27752
2.37488
2.47041
2.56406
2.65576
2.74549
2.8332
2.91884
3.00239
3.08381
3.16306
3.24013
3.31498
3.38761
3.45798
3.5261
3.59194
3.65552
3.71681
3.77584
3.83259
3.88709
3.93934
3.98937
4.03719
4.08282
4.12629
4.16764
4.20688
4.24407
4.27923
4.31241
4.34365
4.37299
4.40048
4.42617
4.45011
4.47235
4.49295
4.51197
4.52945
4.54546
4.56005
4.57329
4.58523
4.59594
4.60547
4.61389
4.62126
4.62763
4.63307
4.63765
4.6414
4.64441
4.64672
4.64839
4.64948
4.65004
4.65013
4.64979
4.64908
4.64805
4.64673
4.64519
4.64345
4.64157
4.63957
4.6375
4.63539
4.63327
4.63117
4.62912
4.62713
4.62523
4.62342
4.6218
4.62153
4.62238
4.56892
4.68063
634.22
-196.067
5.96483
5.77399
0.898219
0.522847
0.739198
0.896236
1.01972
1.13697
1.25306
1.36822
1.48227
1.59512
1.70666
1.81682
1.92551
2.03264
2.13813
2.24192
2.34394
2.44413
2.54243
2.63878
2.73314
2.82546
2.91569
3.0038
3.08975
3.1735
3.25502
3.33429
3.41128
3.48597
3.55834
3.62838
3.69608
3.76144
3.82446
3.88513
3.94346
3.99947
4.05317
4.10457
4.15369
4.20057
4.24522
4.28768
4.32797
4.36615
4.40224
4.43628
4.46833
4.49842
4.52661
4.55294
4.57748
4.60026
4.62136
4.64082
4.6587
4.67507
4.68998
4.7035
4.71569
4.7266
4.73631
4.74487
4.75235
4.75881
4.76431
4.76892
4.77269
4.77569
4.77798
4.77962
4.78065
4.78115
4.78116
4.78073
4.77993
4.7788
4.77738
4.77573
4.77388
4.77189
4.76979
4.76761
4.7654
4.76318
4.76098
4.75884
4.75677
4.7548
4.75293
4.75126
4.75082
4.75103
4.70121
4.80907
634.222
-196.062
5.97322
5.78572
0.913296
0.541254
0.760917
0.921249
1.048
1.1685
1.28781
1.40616
1.52337
1.63933
1.75396
1.86717
1.97885
2.08894
2.19734
2.30399
2.40882
2.51176
2.61276
2.71176
2.8087
2.90355
2.99624
3.08676
3.17504
3.26107
3.3448
3.42621
3.50528
3.58197
3.65629
3.7282
3.79771
3.86481
3.92949
3.99177
4.05163
4.10911
4.16421
4.21694
4.26733
4.31541
4.3612
4.40473
4.44604
4.48517
4.52215
4.55703
4.58986
4.62067
4.64953
4.67648
4.70158
4.72489
4.74645
4.76634
4.7846
4.80131
4.81652
4.8303
4.84271
4.85381
4.86368
4.87237
4.87995
4.88648
4.89203
4.89666
4.90044
4.90343
4.90568
4.90727
4.90824
4.90867
4.90859
4.90808
4.90717
4.90594
4.90441
4.90265
4.90069
4.89859
4.89637
4.89408
4.89176
4.88944
4.88715
4.88492
4.88277
4.88073
4.87879
4.87707
4.87647
4.87612
4.8296
4.93391
634.224
-196.057
5.98141
5.79718
0.928015
0.559222
0.782119
0.945666
1.07561
1.19928
1.32173
1.44319
1.56348
1.68249
1.80013
1.9163
2.03091
2.14388
2.25512
2.36456
2.47212
2.57775
2.68138
2.78295
2.88242
2.97972
3.07482
3.16767
3.25824
3.34648
3.43236
3.51586
3.59694
3.67559
3.75179
3.82553
3.89679
3.96558
4.03188
4.09571
4.15707
4.21596
4.27241
4.32644
4.37806
4.4273
4.47419
4.51876
4.56105
4.60109
4.63893
4.67462
4.70819
4.7397
4.7692
4.79674
4.82238
4.84618
4.86819
4.88847
4.9071
4.92412
4.93961
4.95363
4.96625
4.97753
4.98754
4.99634
5.004
5.01059
5.01618
5.02083
5.0246
5.02756
5.02977
5.0313
5.03221
5.03255
5.03238
5.03177
5.03076
5.02942
5.02778
5.0259
5.02382
5.0216
5.01927
5.01687
5.01445
5.01202
5.00963
5.00731
5.00508
5.00296
5.00096
4.99919
4.99844
4.99758
4.95406
5.0551
634.225
-196.052
5.9894
5.80835
0.942372
0.576747
0.802797
0.969477
1.10254
1.22929
1.35481
1.4793
1.60259
1.72457
1.84514
1.96421
2.08167
2.19745
2.31145
2.4236
2.53384
2.64208
2.74827
2.85235
2.95427
3.05397
3.1514
3.24653
3.33931
3.4297
3.51767
3.6032
3.68624
3.76679
3.84483
3.92033
3.9933
4.06372
4.13159
4.19692
4.25972
4.31999
4.37775
4.43303
4.48583
4.53619
4.58414
4.62972
4.67295
4.71388
4.75254
4.789
4.82329
4.85546
4.88557
4.91367
4.93983
4.96409
4.98652
5.00719
5.02615
5.04347
5.05922
5.07347
5.08627
5.09771
5.10784
5.11674
5.12447
5.13111
5.13672
5.14137
5.14512
5.14805
5.15021
5.15167
5.1525
5.15275
5.15249
5.15177
5.15065
5.14919
5.14743
5.14543
5.14324
5.1409
5.13845
5.13594
5.1334
5.13087
5.12838
5.12597
5.12365
5.12146
5.11939
5.11757
5.11668
5.11538
5.07456
5.17261
634.227
-196.047
5.99718
5.81924
0.956361
0.593823
0.822944
0.992678
1.12877
1.25853
1.38703
1.51448
1.6407
1.76557
1.88899
2.01087
2.13111
2.24962
2.36631
2.48111
2.59394
2.70472
2.81341
2.91993
3.02423
3.12625
3.22596
3.3233
3.41823
3.51071
3.60071
3.6882
3.77316
3.85555
3.93536
4.01257
4.08719
4.15919
4.22859
4.29538
4.35957
4.42117
4.4802
4.53667
4.59062
4.64207
4.69104
4.73757
4.78171
4.82349
4.86295
4.90014
4.93511
4.96792
4.99861
5.02725
5.05389
5.0786
5.10143
5.12245
5.14172
5.15932
5.17531
5.18976
5.20274
5.21431
5.22455
5.23353
5.24132
5.24799
5.25361
5.25825
5.26197
5.26485
5.26695
5.26834
5.26908
5.26924
5.26887
5.26804
5.26681
5.26522
5.26334
5.26122
5.2589
5.25644
5.25387
5.25124
5.24859
5.24595
5.24337
5.24086
5.23846
5.23618
5.23406
5.23218
5.23116
5.22947
5.19108
5.28639
634.228
-196.043
6.00476
5.82984
0.969978
0.610445
0.842555
1.01526
1.15431
1.287
1.4184
1.54872
1.67778
1.80546
1.93166
2.05628
2.17922
2.30039
2.4197
2.53706
2.65241
2.76567
2.87677
2.98566
3.09228
3.19657
3.29848
3.39796
3.49498
3.58949
3.68146
3.77086
3.85766
3.94183
4.02336
4.10224
4.17845
4.25199
4.32285
4.39105
4.45658
4.51947
4.57972
4.63735
4.6924
4.74489
4.79484
4.8423
4.88731
4.9299
4.97012
5.00801
5.04364
5.07705
5.1083
5.13744
5.16454
5.18966
5.21286
5.23422
5.25379
5.27164
5.28785
5.30248
5.31561
5.32731
5.33764
5.34669
5.35452
5.36121
5.36683
5.37144
5.37513
5.37795
5.37998
5.38128
5.38193
5.38198
5.3815
5.38056
5.3792
5.37749
5.37548
5.37322
5.37078
5.36819
5.36549
5.36274
5.35998
5.35724
5.35455
5.35194
5.34946
5.34711
5.34492
5.34298
5.34185
5.33982
5.3036
5.39641
634.23
-196.038
6.01213
5.84015
0.983222
0.626609
0.861626
1.03722
1.17913
1.31467
1.44889
1.58201
1.71383
1.84425
1.97315
2.10043
2.22599
2.34974
2.47159
2.59145
2.70924
2.8249
2.93836
3.04955
3.15841
3.26489
3.36893
3.4705
3.56954
3.66602
3.7599
3.85114
3.93972
4.02562
4.10882
4.1893
4.26705
4.34207
4.41436
4.48391
4.55074
4.61486
4.67629
4.73504
4.79115
4.84464
4.89553
4.94388
4.98972
5.03308
5.07402
5.11259
5.14884
5.18282
5.2146
5.24422
5.27175
5.29726
5.32081
5.34248
5.36232
5.3804
5.39681
5.41161
5.42487
5.43668
5.44709
5.45619
5.46405
5.47074
5.47634
5.48092
5.48455
5.48731
5.48926
5.49047
5.49101
5.49096
5.49036
5.48928
5.4878
5.48595
5.48381
5.48143
5.47885
5.47612
5.47331
5.47044
5.46755
5.4647
5.46191
5.45921
5.45664
5.45421
5.45195
5.44996
5.44872
5.4464
5.41214
5.50263
634.231
-196.034
6.0193
5.85017
0.996088
0.642313
0.880152
1.05855
1.20325
1.34155
1.47852
1.61434
1.74885
1.88192
2.01344
2.1433
2.27141
2.39767
2.52198
2.64426
2.76443
2.88241
2.99815
3.11156
3.2226
3.33121
3.43732
3.5409
3.6419
3.74028
3.836
3.92903
4.01935
4.10691
4.19172
4.27375
4.35299
4.42943
4.50309
4.57395
4.64203
4.70734
4.7699
4.82973
4.88685
4.94129
4.99309
5.04229
5.08892
5.13302
5.17466
5.21386
5.2507
5.28523
5.31749
5.34756
5.37551
5.40138
5.42526
5.4472
5.46729
5.48559
5.50218
5.51712
5.5305
5.54239
5.55287
5.56201
5.56988
5.57656
5.58213
5.58667
5.59024
5.59292
5.59478
5.59589
5.59632
5.59614
5.59542
5.59421
5.59259
5.59061
5.58833
5.58581
5.58309
5.58024
5.57729
5.57429
5.57129
5.56832
5.56543
5.56263
5.55997
5.55747
5.55514
5.5531
5.55175
5.54919
5.51668
5.60505
634.233
-196.03
6.02625
5.85989
1.00857
0.657552
0.89813
1.07925
1.22666
1.36764
1.50726
1.64572
1.78283
1.91847
2.05253
2.1849
2.31547
2.44416
2.57085
2.69548
2.81795
2.93819
3.05613
3.1717
3.28485
3.39551
3.50363
3.60916
3.71205
3.81227
3.90977
4.00453
4.09651
4.18569
4.27204
4.35556
4.43624
4.51406
4.58903
4.66115