/*--------------------------------*- C++ -*----------------------------------*\
  =========                 |
  \\      /  F ield         | OpenFOAM: The Open Source CFD Toolbox
   \\    /   O peration     | Website:  https://openfoam.org
    \\  /    A nd           | Version:  10
     \\/     M anipulation  |
\*---------------------------------------------------------------------------*/
FoamFile
{
    format      ascii;
    class       volScalarField;
    location    "0.03";
    object      T;
}
// * * * * * * * * * * * * * * * * * * * * * * * * * * * * * * * * * * * * * //

dimensions      [0 0 0 1 0 0 0];

internalField   nonuniform List<scalar> 
12225
(
1.00694
1.00397
1.00144
1.00053
1.00001
0.99965
0.999457
0.999369
0.999322
0.999286
0.99925
0.99918
0.99902
0.998619
0.997614
0.995169
0.988887
0.973413
0.994965
0.99447
0.996349
0.997908
0.99867
0.998979
0.999136
0.999239
0.999301
0.999328
0.999326
0.999281
0.999137
0.998757
0.997792
0.995462
0.989711
0.976089
0.999592
0.99992
1
0.999967
0.999819
0.999637
0.999514
0.999448
0.999408
0.999374
0.999333
0.999264
0.99911
0.99874
0.997837
0.995703
0.990695
0.979835
1.00032
1.00007
0.999547
0.99942
0.999421
0.999388
0.999355
0.999341
0.999333
0.99932
0.999294
0.999238
0.999101
0.998766
0.997958
0.996096
0.991962
0.983661
1.00013
0.999833
0.999434
0.999387
0.999436
0.999423
0.999388
0.999364
0.999347
0.999327
0.999297
0.999239
0.999109
0.998805
0.9981
0.996538
0.993262
0.987121
0.999993
0.999846
0.999578
0.999496
0.999494
0.99946
0.999411
0.999376
0.999349
0.999322
0.999286
0.999227
0.999106
0.99884
0.998247
0.996988
0.994491
0.990068
0.999975
0.999925
0.999719
0.999592
0.999547
0.999498
0.999443
0.999398
0.999361
0.999327
0.999286
0.999225
0.999114
0.998885
0.998404
0.997429
0.995589
0.99248
0.999983
0.999963
0.999798
0.999661
0.999596
0.999539
0.999477
0.999422
0.999377
0.999334
0.999288
0.999226
0.999122
0.998926
0.99853
0.997764
0.996373
0.994093
0.999986
0.999973
0.99984
0.999706
0.999627
0.99956
0.999491
0.99943
0.999376
0.999327
0.999276
0.999213
0.999116
0.998946
0.998621
0.998016
0.996954
0.995257
0.999984
0.999963
0.999852
0.999723
0.999631
0.999554
0.999478
0.99941
0.99935
0.999295
0.999239
0.999175
0.999086
0.998942
0.998683
0.998223
0.997445
0.996231
0.99998
0.999942
0.99984
0.999715
0.999612
0.999524
0.999441
0.999365
0.999299
0.999239
0.99918
0.999115
0.999035
0.998914
0.998714
0.998379
0.997833
0.997003
0.999976
0.999921
0.999818
0.999694
0.999583
0.999486
0.999398
0.999317
0.999245
0.999179
0.999117
0.999054
0.998981
0.998881
0.998731
0.998495
0.99813
0.997588
0.999975
0.999912
0.999811
0.99969
0.999577
0.999476
0.999384
0.9993
0.999224
0.999155
0.999094
0.999032
0.998964
0.998883
0.998773
0.998613
0.998378
0.998043
0.999978
0.999919
0.999828
0.999717
0.99961
0.999512
0.999421
0.999338
0.999263
0.999196
0.999135
0.999077
0.999017
0.998951
0.998872
0.998766
0.998621
0.998425
0.999982
0.999936
0.999861
0.999769
0.999677
0.99959
0.999511
0.999438
0.99937
0.999308
0.999253
0.999203
0.999154
0.999103
0.999046
0.998978
0.998893
0.998784
0.999987
0.999957
0.999905
0.99984
0.999774
0.999712
0.999654
0.9996
0.999548
0.999503
0.999461
0.999425
0.999391
0.999356
0.999319
0.999278
0.999232
0.999176
0.999993
0.999986
0.999968
0.999941
0.999912
0.999886
0.999864
0.999841
0.99982
0.999801
0.999783
0.999767
0.999754
0.999741
0.999726
0.999708
0.99969
0.999668
1
1.00003
1.00005
1.00007
1.00009
1.00011
1.00013
1.00015
1.00017
1.00018
1.0002
1.00021
1.00022
1.00023
1.00024
1.00024
1.00024
1.00024
1.00001
1.00006
1.00011
1.00017
1.00022
1.00028
1.00034
1.00039
1.00043
1.00048
1.00051
1.00055
1.00058
1.0006
1.00063
1.00065
1.00067
1.00068
1.00001
1.00006
1.00012
1.00019
1.00026
1.00033
1.00039
1.00046
1.00052
1.00057
1.00062
1.00067
1.00071
1.00075
1.00078
1.00081
1.00084
1.00086
1.00001
1.00006
1.00012
1.00018
1.00025
1.00031
1.00038
1.00045
1.00051
1.00057
1.00062
1.00068
1.00072
1.00077
1.00081
1.00085
1.00088
1.00091
1.00001
1.00006
1.00012
1.00017
1.00023
1.0003
1.00036
1.00043
1.00049
1.00055
1.00061
1.00067
1.00072
1.00077
1.00081
1.00085
1.00089
1.00092
1
1.00008
1.00013
1.00016
1.00021
1.00027
1.00034
1.00041
1.00048
1.00054
1.0006
1.00066
1.00071
1.00076
1.00081
1.00085
1.00089
1.00093
0.999997
1.0001
1.00014
1.00015
1.00019
1.00026
1.00033
1.0004
1.00047
1.00054
1.00061
1.00067
1.00072
1.00077
1.00082
1.00086
1.00091
1.00094
1
1.00009
1.0001
1.00012
1.00019
1.00028
1.00035
1.00042
1.00049
1.00056
1.00063
1.00069
1.00074
1.00079
1.00084
1.00088
1.00093
1.00097
1.00014
1.00014
0.999953
0.999972
1.00014
1.00029
1.00039
1.00047
1.00055
1.00062
1.00068
1.00074
1.0008
1.00084
1.00089
1.00093
1.00097
1.00101
1.0005
1.00058
1.0001
0.999927
1.00003
1.00018
1.00031
1.00042
1.00053
1.00062
1.0007
1.00076
1.00082
1.00088
1.00093
1.00097
1.00102
1.00106
1.00004
1.00088
1.00115
1.00111
1.00099
1.00088
1.00081
1.0008
1.00082
1.00085
1.00088
1.00092
1.00096
1.00099
1.00103
1.00106
1.0011
1.00113
0.994517
0.993822
0.99606
0.998048
0.999185
0.99978
1.00015
1.0004
1.00059
1.00072
1.00083
1.00091
1.00098
1.00104
1.00109
1.00114
1.00118
1.00121
1.00648
1.00454
1.00223
1.0015
1.00119
1.00097
1.00088
1.00087
1.00089
1.00092
1.00096
1.00099
1.00103
1.00107
1.0011
1.00114
1.00117
1.00122
0.295067
0.295002
0.294851
0.294625
0.294328
0.29396
0.293521
0.293011
0.292433
0.291788
0.291079
0.290306
0.289473
0.288581
0.287633
0.286633
0.285583
0.284486
0.283347
0.28217
0.280958
0.279715
0.278446
0.277155
0.275846
0.274523
0.273191
0.271851
0.270508
0.269166
0.267833
0.266522
0.265263
0.264104
0.26296
0.261768
0.260596
0.259432
0.258284
0.257157
0.256044
0.254977
0.253969
0.252982
0.252036
0.25115
0.250298
0.249488
0.248718
0.247987
0.247297
0.246645
0.246032
0.245457
0.24492
0.24442
0.243956
0.243528
0.243134
0.242775
0.242448
0.242152
0.241888
0.241653
0.241446
0.241267
0.241113
0.240984
0.240878
0.240793
0.240729
0.240683
0.240654
0.240641
0.240642
0.240655
0.240679
0.240713
0.240754
0.240801
0.240853
0.240908
0.240964
0.24102
0.241075
0.241126
0.241173
0.241213
0.241246
0.24127
0.241283
0.241284
0.241272
0.241245
0.241202
0.24114
0.241059
0.240956
0.240832
0.240686
0.240515
0.240318
0.240094
0.239842
0.239559
0.239245
0.238898
0.238517
0.238101
0.237647
0.237156
0.236624
0.236051
0.235436
0.234777
0.234073
0.233321
0.232522
0.231672
0.230771
0.229818
0.22881
0.227746
0.226625
0.225444
0.224203
0.2229
0.221534
0.220103
0.218605
0.21704
0.215405
0.2137
0.211922
0.210071
0.208145
0.206143
0.204063
0.201905
0.199666
0.197347
0.194945
0.192461
0.189892
0.187239
0.1845
0.181676
0.178765
0.175769
0.172686
0.169518
0.166264
0.162926
0.159505
0.156001
0.152418
0.148756
0.145019
0.141209
0.137329
0.133384
0.129376
0.125309
0.121188
0.117017
0.112807
0.108563
0.104294
0.100007
0.0957091
0.0914086
0.0871136
0.0828326
0.0785746
0.0743494
0.0701683
0.0660496
0.0620096
0.058127
0.0544004
0.296932
0.296857
0.296711
0.296488
0.296191
0.295823
0.295382
0.294869
0.294285
0.293631
0.292911
0.292126
0.29128
0.290375
0.289416
0.288404
0.287344
0.286239
0.285093
0.28391
0.282693
0.281448
0.28018
0.278892
0.27759
0.27628
0.274967
0.273656
0.272352
0.27106
0.26978
0.268508
0.26724
0.265916
0.264569
0.263298
0.262076
0.260902
0.25977
0.258675
0.257622
0.2566
0.255593
0.254633
0.253723
0.252839
0.251992
0.251184
0.250415
0.249686
0.248997
0.248346
0.247735
0.247161
0.246625
0.246127
0.245664
0.245237
0.244845
0.244487
0.244162
0.243868
0.243606
0.243373
0.243169
0.242991
0.24284
0.242714
0.24261
0.242529
0.242468
0.242425
0.2424
0.242391
0.242397
0.242415
0.242444
0.242483
0.242529
0.242582
0.24264
0.242702
0.242765
0.242828
0.24289
0.242948
0.243003
0.243051
0.243092
0.243125
0.243147
0.243157
0.243153
0.243135
0.243101
0.24305
0.24298
0.242891
0.24278
0.242644
0.242484
0.242298
0.242085
0.241843
0.241571
0.241268
0.240932
0.240562
0.240156
0.239713
0.239232
0.238711
0.238149
0.237544
0.236895
0.236201
0.235459
0.234669
0.233829
0.232938
0.231993
0.230994
0.229938
0.228825
0.227652
0.226419
0.225123
0.223763
0.222338
0.220846
0.219286
0.217656
0.215954
0.21418
0.212332
0.210408
0.208408
0.206329
0.20417
0.201931
0.199611
0.197207
0.194719
0.192147
0.189489
0.186744
0.183913
0.180994
0.177989
0.174896
0.171716
0.16845
0.165098
0.161661
0.158142
0.15454
0.150859
0.1471
0.143268
0.139363
0.135391
0.131356
0.127261
0.123114
0.118918
0.11468
0.110407
0.106105
0.101782
0.0974453
0.0931037
0.0887651
0.084438
0.0801313
0.0758551
0.0716205
0.0674449
0.063346
0.0593898
0.0555967
0.300728
0.300626
0.300459
0.300219
0.299904
0.299513
0.299047
0.298509
0.297899
0.297221
0.296476
0.295668
0.294799
0.293872
0.29289
0.291858
0.290777
0.289653
0.288488
0.287288
0.286056
0.284797
0.283514
0.282213
0.280899
0.279575
0.278245
0.276913
0.275582
0.274254
0.272933
0.271623
0.27033
0.26905
0.267787
0.266552
0.265344
0.26417
0.263032
0.261931
0.260872
0.259854
0.258874
0.25793
0.25702
0.256144
0.255305
0.254504
0.253742
0.253018
0.252333
0.251687
0.251079
0.25051
0.249977
0.249482
0.249023
0.2486
0.248212
0.247858
0.247537
0.247248
0.24699
0.246762
0.246563
0.246392
0.246247
0.246127
0.246032
0.245958
0.245905
0.245872
0.245857
0.245858
0.245874
0.245904
0.245945
0.245997
0.246057
0.246125
0.246198
0.246275
0.246354
0.246434
0.246514
0.246591
0.246664
0.246732
0.246793
0.246846
0.246889
0.246921
0.24694
0.246945
0.246934
0.246905
0.246859
0.246792
0.246704
0.246593
0.246458
0.246298
0.24611
0.245894
0.245648
0.245371
0.245061
0.244717
0.244337
0.243921
0.243466
0.24297
0.242434
0.241855
0.241231
0.240562
0.239845
0.239079
0.238263
0.237395
0.236473
0.235496
0.234462
0.233369
0.232216
0.231002
0.229724
0.228382
0.226974
0.225497
0.223952
0.222335
0.220646
0.218883
0.217044
0.215129
0.213135
0.211061
0.208907
0.20667
0.204349
0.201944
0.199453
0.196875
0.194209
0.191455
0.188612
0.185679
0.182657
0.179545
0.176343
0.173052
0.169673
0.166206
0.162653
0.159015
0.155294
0.151493
0.147613
0.143659
0.139634
0.135541
0.131385
0.127173
0.12291
0.1186
0.114251
0.109868
0.10546
0.101035
0.0965998
0.0921633
0.0877339
0.0833207
0.0789334
0.0745831
0.0702861
0.0660597
0.0619604
0.0580127
0.306407
0.306277
0.306084
0.305819
0.305476
0.305054
0.304556
0.303985
0.303341
0.30263
0.301852
0.301011
0.300109
0.299151
0.298139
0.297077
0.295969
0.294818
0.293628
0.292404
0.291151
0.289871
0.28857
0.287252
0.285921
0.284582
0.283238
0.281893
0.280552
0.279217
0.277894
0.276586
0.275296
0.274025
0.272775
0.271552
0.270357
0.269193
0.268061
0.266964
0.265903
0.26488
0.263893
0.262944
0.262034
0.261161
0.260325
0.259528
0.25877
0.25805
0.257369
0.256726
0.256121
0.255555
0.255026
0.254534
0.254078
0.253658
0.253274
0.252924
0.252607
0.252323
0.252071
0.251849
0.251657
0.251493
0.251356
0.251245
0.251159
0.251096
0.251054
0.251034
0.251032
0.251047
0.251078
0.251124
0.251183
0.251253
0.251332
0.25142
0.251514
0.251613
0.251716
0.25182
0.251925
0.252028
0.252128
0.252224
0.252314
0.252397
0.252471
0.252534
0.252585
0.252623
0.252646
0.252652
0.25264
0.252609
0.252557
0.252483
0.252385
0.252261
0.252111
0.251933
0.251726
0.251487
0.251215
0.25091
0.250569
0.250191
0.249774
0.249318
0.248819
0.248278
0.247692
0.24706
0.246379
0.24565
0.244869
0.244035
0.243147
0.242204
0.241202
0.24014
0.239018
0.237833
0.236583
0.235267
0.233884
0.232431
0.230908
0.229311
0.227641
0.225895
0.224071
0.222168
0.220185
0.21812
0.215972
0.213739
0.211419
0.209012
0.206517
0.203932
0.201256
0.198488
0.195628
0.192675
0.189629
0.18649
0.183257
0.179931
0.176512
0.173002
0.1694
0.165709
0.161931
0.158066
0.154119
0.150091
0.145987
0.14181
0.137564
0.133256
0.128889
0.124471
0.120006
0.115503
0.110967
0.106408
0.101833
0.0972495
0.0926673
0.0880949
0.0835419
0.0790192
0.074542
0.0701265
0.065822
0.0616483
0.313986
0.313824
0.313602
0.31331
0.312936
0.31248
0.311945
0.311334
0.310651
0.309898
0.309079
0.308197
0.307255
0.306258
0.305208
0.304109
0.302965
0.301781
0.30056
0.299306
0.298025
0.296719
0.295395
0.294056
0.292706
0.29135
0.289991
0.288635
0.287285
0.285944
0.284617
0.283307
0.282017
0.280747
0.279501
0.278283
0.277093
0.275935
0.274809
0.273717
0.27266
0.271639
0.270654
0.269707
0.268798
0.267927
0.267094
0.2663
0.265543
0.264826
0.264147
0.263506
0.262904
0.262339
0.261812
0.261323
0.26087
0.260453
0.260072
0.259725
0.259413
0.259134
0.258887
0.258672
0.258487
0.258331
0.258204
0.258103
0.258028
0.257977
0.257949
0.257943
0.257956
0.257989
0.258038
0.258103
0.258183
0.258275
0.258378
0.25849
0.25861
0.258736
0.258867
0.259001
0.259137
0.259272
0.259406
0.259537
0.259662
0.259782
0.259893
0.259995
0.260086
0.260164
0.260229
0.260277
0.260309
0.260322
0.260314
0.260285
0.260233
0.260156
0.260053
0.259923
0.259763
0.259572
0.259349
0.259092
0.258799
0.258469
0.258101
0.257693
0.257242
0.256748
0.25621
0.255624
0.25499
0.254305
0.253569
0.25278
0.251935
0.251033
0.250071
0.24905
0.247965
0.246817
0.245602
0.24432
0.242969
0.241546
0.240051
0.238481
0.236834
0.235109
0.233305
0.231419
0.229449
0.227395
0.225255
0.223027
0.220709
0.2183
0.2158
0.213206
0.210517
0.207732
0.204852
0.201873
0.198798
0.195623
0.192351
0.18898
0.185512
0.181945
0.178282
0.174524
0.170672
0.166727
0.162693
0.158571
0.154366
0.15008
0.145718
0.141286
0.136787
0.132228
0.127615
0.122955
0.118254
0.113521
0.108764
0.10399
0.0992095
0.0944299
0.0896612
0.0849141
0.0802028
0.0755423
0.0709769
0.0665175
0.323489
0.323298
0.323048
0.322726
0.322319
0.321825
0.321249
0.320595
0.319867
0.319068
0.318202
0.317274
0.316286
0.315244
0.314149
0.313008
0.311824
0.3106
0.309343
0.308055
0.306742
0.305408
0.304057
0.302694
0.301323
0.299949
0.298575
0.297206
0.295846
0.294498
0.293165
0.291851
0.290558
0.289288
0.288043
0.286826
0.285638
0.284482
0.283358
0.282269
0.281214
0.280196
0.279213
0.278268
0.27736
0.27649
0.275658
0.274863
0.274108
0.27339
0.272712
0.272071
0.271469
0.270904
0.270378
0.269889
0.269437
0.269022
0.268642
0.268298
0.267989
0.267714
0.267472
0.267262
0.267084
0.266936
0.266817
0.266726
0.266662
0.266624
0.266609
0.266618
0.266648
0.266699
0.266768
0.266854
0.266956
0.267071
0.2672
0.267339
0.267487
0.267644
0.267806
0.267973
0.268143
0.268314
0.268485
0.268654
0.26882
0.268981
0.269135
0.26928
0.269416
0.269541
0.269652
0.269749
0.26983
0.269892
0.269936
0.269959
0.269959
0.269936
0.269887
0.26981
0.269705
0.269569
0.269401
0.2692
0.268963
0.268689
0.268377
0.268024
0.267629
0.26719
0.266706
0.266174
0.265594
0.264962
0.264278
0.26354
0.262745
0.261891
0.260978
0.260002
0.258963
0.257857
0.256684
0.255442
0.254128
0.252741
0.251279
0.249739
0.248121
0.246422
0.24464
0.242774
0.240822
0.238781
0.236651
0.234429
0.232114
0.229704
0.227198
0.224594
0.221891
0.219088
0.216183
0.213176
0.210065
0.206851
0.203533
0.20011
0.196583
0.192951
0.189216
0.185378
0.181439
0.1774
0.173262
0.16903
0.164704
0.16029
0.15579
0.15121
0.146553
0.141827
0.137036
0.132188
0.127289
0.122347
0.11737
0.112367
0.107345
0.102315
0.0972846
0.0922651
0.0872702
0.0823133
0.0774356
0.0726381
0.334967
0.33475
0.334472
0.334119
0.333675
0.333141
0.332521
0.331821
0.331045
0.330197
0.329281
0.328302
0.327264
0.326172
0.32503
0.323842
0.322612
0.321347
0.320049
0.318724
0.317376
0.31601
0.314631
0.313242
0.311848
0.310454
0.309063
0.30768
0.306307
0.304949
0.303609
0.302288
0.30099
0.299716
0.298468
0.297249
0.296061
0.294904
0.293779
0.292689
0.291634
0.290614
0.289631
0.288684
0.287774
0.286902
0.286068
0.285271
0.284513
0.283793
0.283111
0.282468
0.281863
0.281296
0.280767
0.280276
0.279822
0.279405
0.279025
0.278681
0.278373
0.278099
0.27786
0.277653
0.277479
0.277337
0.277225
0.277142
0.277087
0.27706
0.277058
0.277081
0.277126
0.277194
0.277281
0.277388
0.277511
0.277651
0.277804
0.27797
0.278148
0.278334
0.278529
0.278729
0.278935
0.279143
0.279352
0.279561
0.279769
0.279972
0.280171
0.280363
0.280546
0.280719
0.28088
0.281028
0.281161
0.281277
0.281375
0.281453
0.28151
0.281544
0.281552
0.281534
0.281488
0.281412
0.281304
0.281163
0.280987
0.280773
0.280522
0.280229
0.279895
0.279516
0.279092
0.27862
0.278098
0.277524
0.276898
0.276215
0.275476
0.274676
0.273816
0.272892
0.271902
0.270845
0.269718
0.26852
0.267248
0.265901
0.264476
0.262972
0.261386
0.259717
0.257961
0.256118
0.254185
0.252161
0.250043
0.24783
0.245519
0.24311
0.240599
0.237985
0.235268
0.232444
0.229514
0.226476
0.223328
0.22007
0.216702
0.213222
0.20963
0.205927
0.202112
0.198186
0.19415
0.190005
0.185753
0.181396
0.176935
0.172376
0.16772
0.162972
0.158138
0.153221
0.148228
0.143165
0.138039
0.132858
0.127629
0.12236
0.117061
0.111741
0.106408
0.101073
0.0957488
0.0904488
0.0852118
0.0800291
0.348489
0.348248
0.34794
0.347553
0.347072
0.346495
0.345831
0.345082
0.344255
0.343355
0.342387
0.341355
0.340264
0.339119
0.337926
0.336688
0.335411
0.3341
0.33276
0.331395
0.33001
0.32861
0.327199
0.325782
0.324363
0.322946
0.321536
0.320135
0.318747
0.317376
0.316024
0.314693
0.313386
0.312105
0.310851
0.309626
0.308432
0.30727
0.306141
0.305046
0.303985
0.302961
0.301972
0.30102
0.300104
0.299226
0.298385
0.297582
0.296817
0.29609
0.295402
0.294752
0.29414
0.293566
0.293031
0.292533
0.292074
0.291652
0.291267
0.290919
0.290607
0.290331
0.29009
0.289884
0.28971
0.28957
0.289461
0.289383
0.289334
0.289314
0.289321
0.289354
0.289412
0.289493
0.289596
0.289719
0.289862
0.290022
0.290198
0.290388
0.290592
0.290806
0.291031
0.291263
0.291501
0.291744
0.291991
0.292238
0.292486
0.292731
0.292973
0.29321
0.29344
0.293661
0.293871
0.29407
0.294255
0.294425
0.294578
0.294712
0.294825
0.294916
0.294984
0.295025
0.295039
0.295024
0.294977
0.294898
0.294784
0.294634
0.294445
0.294215
0.293943
0.293627
0.293265
0.292855
0.292395
0.291883
0.291316
0.290693
0.290012
0.28927
0.288466
0.287596
0.28666
0.285654
0.284577
0.283427
0.282201
0.280897
0.279513
0.278047
0.276497
0.27486
0.273134
0.271317
0.269407
0.267402
0.265299
0.263096
0.260792
0.258384
0.25587
0.253249
0.250517
0.247675
0.24472
0.24165
0.238464
0.235162
0.231741
0.228202
0.224543
0.220764
0.216865
0.212846
0.208707
0.20445
0.200075
0.195583
0.190978
0.186262
0.181437
0.176508
0.171478
0.166354
0.161139
0.15584
0.150464
0.145018
0.13951
0.133947
0.128339
0.122695
0.117023
0.111334
0.105642
0.0999569
0.0943184
0.0887081
0.36414
0.363874
0.363536
0.363113
0.362592
0.361972
0.361259
0.360461
0.359582
0.358628
0.357605
0.356517
0.355371
0.354172
0.352925
0.351635
0.350309
0.34895
0.347564
0.346156
0.344732
0.343295
0.34185
0.340402
0.338954
0.337512
0.336078
0.334657
0.33325
0.331861
0.330493
0.329148
0.327828
0.326534
0.325269
0.324033
0.322829
0.321656
0.320517
0.319412
0.318342
0.317306
0.316307
0.315344
0.314418
0.313528
0.312676
0.311861
0.311084
0.310345
0.309645
0.308982
0.308358
0.307773
0.307226
0.306717
0.306246
0.305813
0.305418
0.305061
0.30474
0.304456
0.304208
0.303995
0.303817
0.303673
0.303561
0.303482
0.303433
0.303415
0.303425
0.303462
0.303526
0.303616
0.303728
0.303863
0.304019
0.304194
0.304387
0.304596
0.30482
0.305057
0.305305
0.305564
0.30583
0.306103
0.306381
0.306663
0.306945
0.307228
0.307509
0.307786
0.308058
0.308323
0.30858
0.308825
0.309059
0.309279
0.309483
0.309669
0.309837
0.309983
0.310106
0.310205
0.310277
0.310321
0.310334
0.310315
0.310262
0.310173
0.310045
0.309878
0.309668
0.309414
0.309115
0.308766
0.308368
0.307917
0.307411
0.306848
0.306226
0.305543
0.304795
0.303982
0.3031
0.302148
0.301123
0.300022
0.298844
0.297585
0.296245
0.29482
0.293307
0.291705
0.290012
0.288223
0.286339
0.284355
0.28227
0.280081
0.277785
0.275382
0.272867
0.27024
0.267497
0.264638
0.261659
0.25856
0.255338
0.251992
0.248521
0.244922
0.241196
0.237341
0.233357
0.229243
0.225
0.220626
0.216124
0.211495
0.206739
0.201859
0.196858
0.191738
0.186503
0.181158
0.175708
0.170159
0.164515
0.158786
0.152977
0.147097
0.141154
0.135158
0.129117
0.123043
0.116948
0.110842
0.104765
0.098689
0.38202
0.381727
0.381357
0.380896
0.380332
0.379666
0.378904
0.378054
0.377121
0.376112
0.375031
0.373886
0.372683
0.371427
0.370124
0.36878
0.367401
0.365991
0.364558
0.363104
0.361637
0.36016
0.358677
0.357194
0.355715
0.354243
0.352781
0.351334
0.349903
0.348493
0.347104
0.345739
0.3444
0.343088
0.341806
0.340553
0.339332
0.338143
0.336988
0.335866
0.33478
0.333728
0.332711
0.331731
0.330787
0.32988
0.32901
0.328177
0.327382
0.326624
0.325905
0.325224
0.324581
0.323976
0.323411
0.322883
0.322394
0.321944
0.321532
0.321157
0.320821
0.320521
0.320258
0.320032
0.319841
0.319685
0.319563
0.319474
0.319417
0.319392
0.319397
0.319431
0.319492
0.319581
0.319694
0.319832
0.319992
0.320174
0.320374
0.320594
0.320829
0.32108
0.321344
0.32162
0.321906
0.3222
0.322501
0.322808
0.323117
0.323429
0.32374
0.32405
0.324357
0.324658
0.324952
0.325238
0.325512
0.325775
0.326024
0.326256
0.326471
0.326666
0.326839
0.326989
0.327113
0.32721
0.327278
0.327314
0.327317
0.327285
0.327215
0.327106
0.326954
0.326759
0.326518
0.326229
0.32589
0.325498
0.32505
0.324546
0.323981
0.323355
0.322664
0.321906
0.321078
0.320179
0.319205
0.318154
0.317024
0.315812
0.314516
0.313132
0.311659
0.310094
0.308435
0.306677
0.30482
0.302861
0.300796
0.298623
0.29634
0.293944
0.291432
0.288802
0.286052
0.283179
0.28018
0.277055
0.2738
0.270414
0.266895
0.263241
0.259451
0.255522
0.251456
0.247249
0.242902
0.238415
0.233787
0.229019
0.224111
0.219066
0.213886
0.208572
0.203127
0.197557
0.191864
0.186054
0.180133
0.174107
0.167983
0.161769
0.155473
0.149104
0.142671
0.136185
0.129659
0.123103
0.116556
0.109981
0.402243
0.401921
0.401515
0.401013
0.400403
0.399688
0.398875
0.39797
0.396981
0.395912
0.394772
0.393567
0.392304
0.390988
0.389626
0.388224
0.386789
0.385326
0.38384
0.382338
0.380824
0.379302
0.377778
0.376256
0.374739
0.373232
0.371738
0.370259
0.368799
0.36736
0.365944
0.364553
0.363188
0.361852
0.360546
0.359269
0.358025
0.356813
0.355634
0.354488
0.353378
0.352302
0.351261
0.350256
0.349287
0.348354
0.347458
0.3466
0.345778
0.344994
0.344248
0.34354
0.34287
0.342238
0.341645
0.341091
0.340575
0.340098
0.339659
0.339259
0.338897
0.338572
0.338285
0.338035
0.337821
0.337642
0.337499
0.33739
0.337315
0.337272
0.33726
0.337279
0.337327
0.337403
0.337506
0.337635
0.337787
0.337963
0.33816
0.338377
0.338612
0.338864
0.339131
0.339412
0.339705
0.340009
0.340321
0.34064
0.340965
0.341294
0.341624
0.341955
0.342284
0.34261
0.342931
0.343244
0.34355
0.343844
0.344127
0.344395
0.344646
0.34488
0.345094
0.345285
0.345453
0.345594
0.345708
0.345791
0.345842
0.345859
0.345839
0.34578
0.34568
0.345537
0.345349
0.345113
0.344827
0.344488
0.344095
0.343644
0.343133
0.34256
0.341921
0.341216
0.34044
0.339591
0.338667
0.337664
0.336581
0.335415
0.334162
0.332821
0.331388
0.32986
0.328235
0.326511
0.324683
0.32275
0.320708
0.318554
0.316286
0.313901
0.311396
0.308768
0.306014
0.303132
0.300119
0.296972
0.29369
0.290269
0.286708
0.283004
0.279155
0.27516
0.271016
0.266722
0.262278
0.257681
0.252932
0.248031
0.242976
0.23777
0.232413
0.226907
0.221254
0.215457
0.209521
0.203448
0.197245
0.190917
0.18447
0.177912
0.171251
0.164495
0.157654
0.150738
0.14376
0.13673
0.129687
0.122586
0.424936
0.424583
0.424137
0.42359
0.422931
0.422163
0.421293
0.420329
0.419278
0.418147
0.416943
0.415673
0.414344
0.412964
0.411539
0.410075
0.408579
0.407058
0.405516
0.403959
0.402392
0.400821
0.39925
0.397682
0.396123
0.394574
0.39304
0.391524
0.390027
0.388553
0.387102
0.385678
0.384281
0.382912
0.381573
0.380265
0.378989
0.377745
0.376534
0.375356
0.374213
0.373104
0.37203
0.370992
0.369989
0.369022
0.368091
0.367197
0.36634
0.36552
0.364737
0.363992
0.363285
0.362616
0.361986
0.361394
0.36084
0.360326
0.359849
0.359411
0.359012
0.35865
0.358327
0.35804
0.357791
0.357578
0.357401
0.357258
0.35715
0.357076
0.357033
0.357023
0.357043
0.357092
0.357169
0.357273
0.357403
0.357558
0.357735
0.357934
0.358153
0.358391
0.358646
0.358916
0.3592
0.359497
0.359804
0.360121
0.360445
0.360775
0.361109
0.361445
0.361781
0.362117
0.362449
0.362777
0.363098
0.36341
0.363712
0.364001
0.364276
0.364535
0.364776
0.364996
0.365194
0.365368
0.365515
0.365633
0.365721
0.365775
0.365794
0.365776
0.365718
0.365618
0.365473
0.365281
0.36504
0.364747
0.3644
0.363996
0.363532
0.363005
0.362414
0.361755
0.361026
0.360223
0.359345
0.358388
0.357349
0.356226
0.355015
0.353714
0.35232
0.35083
0.34924
0.347548
0.345751
0.343846
0.341829
0.339697
0.337448
0.335077
0.332583
0.329961
0.327209
0.324324
0.321302
0.318141
0.314838
0.31139
0.307794
0.304048
0.300149
0.296095
0.291883
0.287512
0.282978
0.278282
0.273421
0.268395
0.263202
0.257843
0.252318
0.246627
0.240773
0.234756
0.228581
0.22225
0.215767
0.209138
0.202368
0.195464
0.188433
0.181284
0.174026
0.166668
0.159225
0.151703
0.144147
0.136497
0.450244
0.449856
0.449365
0.448766
0.448051
0.447223
0.44629
0.44526
0.44414
0.442939
0.441663
0.440322
0.438921
0.437469
0.435974
0.434441
0.432877
0.43129
0.429685
0.428066
0.426441
0.424813
0.423187
0.421567
0.419957
0.41836
0.416779
0.415217
0.413676
0.412158
0.410665
0.409198
0.407759
0.406349
0.404969
0.40362
0.402303
0.401017
0.399765
0.398545
0.397359
0.396208
0.39509
0.394008
0.39296
0.391948
0.390972
0.390031
0.389127
0.38826
0.387429
0.386636
0.38588
0.385162
0.384482
0.383839
0.383235
0.38267
0.382142
0.381653
0.381202
0.38079
0.380415
0.380077
0.379777
0.379513
0.379286
0.379094
0.378936
0.378813
0.378723
0.378666
0.37864
0.378644
0.378678
0.378739
0.378828
0.378943
0.379082
0.379244
0.379427
0.379632
0.379855
0.380095
0.380351
0.380622
0.380905
0.3812
0.381504
0.381816
0.382134
0.382456
0.382782
0.383108
0.383434
0.383756
0.384075
0.384387
0.384691
0.384984
0.385265
0.385533
0.385784
0.386017
0.386229
0.386419
0.386585
0.386723
0.386833
0.386911
0.386956
0.386965
0.386935
0.386865
0.386752
0.386593
0.386386
0.386128
0.385817
0.38545
0.385024
0.384536
0.383984
0.383364
0.382675
0.381912
0.381074
0.380157
0.379158
0.378073
0.376901
0.375638
0.374281
0.372826
0.371271
0.369612
0.367846
0.36597
0.363979
0.361872
0.359644
0.357292
0.354812
0.352202
0.349457
0.346574
0.343551
0.340383
0.337067
0.333601
0.32998
0.326202
0.322263
0.318161
0.313893
0.309455
0.304845
0.300062
0.295102
0.289964
0.284646
0.279147
0.273467
0.267605
0.261561
0.255337
0.248935
0.242355
0.235603
0.228681
0.221594
0.214349
0.206952
0.19941
0.191733
0.183929
0.176014
0.167993
0.159911
0.151698
0.478326
0.477897
0.477354
0.476695
0.475914
0.475016
0.474009
0.472901
0.471701
0.470418
0.469059
0.467634
0.46615
0.464616
0.463039
0.461427
0.459786
0.458124
0.456445
0.454757
0.453063
0.45137
0.449681
0.447999
0.44633
0.444675
0.443038
0.44142
0.439825
0.438254
0.436709
0.43519
0.4337
0.432238
0.430807
0.429406
0.428036
0.426699
0.425393
0.42412
0.422881
0.421674
0.420502
0.419363
0.418259
0.417189
0.416154
0.415155
0.414191
0.413263
0.412371
0.411515
0.410696
0.409914
0.409169
0.408461
0.407791
0.407159
0.406564
0.406008
0.405489
0.405007
0.404564
0.404157
0.403788
0.403455
0.403158
0.402897
0.402671
0.40248
0.402322
0.402197
0.402104
0.402042
0.402011
0.402008
0.402034
0.402087
0.402165
0.402268
0.402394
0.402543
0.402711
0.402899
0.403105
0.403327
0.403564
0.403814
0.404076
0.404347
0.404628
0.404915
0.405207
0.405502
0.405799
0.406096
0.406391
0.406681
0.406966
0.407244
0.407511
0.407767
0.408009
0.408235
0.408443
0.408632
0.408797
0.408939
0.409053
0.409139
0.409193
0.409213
0.409196
0.409141
0.409045
0.408905
0.408719
0.408483
0.408196
0.407854
0.407454
0.406994
0.406471
0.405882
0.405223
0.404493
0.403687
0.402802
0.401836
0.400786
0.399647
0.398418
0.397094
0.395672
0.394149
0.392522
0.390786
0.388939
0.386977
0.384895
0.382691
0.380361
0.3779
0.375306
0.372574
0.369701
0.366683
0.363516
0.360197
0.356722
0.353086
0.349288
0.345321
0.341184
0.336873
0.332383
0.327713
0.322857
0.317815
0.312581
0.307156
0.301535
0.295717
0.289701
0.283486
0.277072
0.270458
0.263648
0.256641
0.249441
0.242051
0.234477
0.226723
0.218797
0.210708
0.202463
0.194077
0.185555
0.176942
0.168159
0.50936
0.508882
0.508277
0.507545
0.506684
0.5057
0.504601
0.503397
0.502099
0.500715
0.499256
0.49773
0.496146
0.494513
0.49284
0.491134
0.489402
0.487651
0.485888
0.484117
0.482344
0.480573
0.478809
0.477056
0.475316
0.473593
0.471889
0.470206
0.468546
0.46691
0.465301
0.463719
0.462165
0.460641
0.459146
0.457681
0.456247
0.454844
0.453473
0.452133
0.450826
0.449551
0.44831
0.447101
0.445925
0.444783
0.443675
0.442601
0.441562
0.440557
0.439587
0.438653
0.437754
0.43689
0.436063
0.435273
0.434518
0.433801
0.43312
0.432476
0.431869
0.431299
0.430766
0.43027
0.42981
0.429386
0.428999
0.428646
0.428329
0.428046
0.427797
0.427581
0.427398
0.427246
0.427125
0.427034
0.426972
0.426938
0.426931
0.42695
0.426994
0.427061
0.42715
0.427261
0.427391
0.427539
0.427704
0.427884
0.428078
0.428285
0.428503
0.42873
0.428964
0.429204
0.429449
0.429695
0.429943
0.430189
0.430432
0.430671
0.430902
0.431124
0.431335
0.431533
0.431716
0.431881
0.432027
0.432151
0.432251
0.432325
0.432369
0.432382
0.432362
0.432305
0.43221
0.432072
0.431891
0.431663
0.431385
0.431054
0.430668
0.430223
0.429717
0.429147
0.428508
0.4278
0.427017
0.426157
0.425217
0.424193
0.423082
0.42188
0.420584
0.419192
0.417698
0.4161
0.414393
0.412574
0.41064
0.408585
0.406407
0.404101
0.401663
0.39909
0.396377
0.39352
0.390515
0.387358
0.384044
0.380571
0.376932
0.373125
0.369145
0.364987
0.360647
0.356122
0.351407
0.346498
0.341392
0.336083
0.330569
0.324847
0.318913
0.312765
0.306401
0.299819
0.293018
0.285997
0.278758
0.271301
0.263629
0.255744
0.247652
0.239358
0.23087
0.222195
0.213348
0.20433
0.195191
0.185838
0.54357
0.543032
0.542349
0.541525
0.54056
0.539463
0.538244
0.536916
0.535489
0.533976
0.532386
0.530732
0.529022
0.527267
0.525475
0.523653
0.521811
0.519953
0.518087
0.516218
0.51435
0.512488
0.510636
0.508797
0.506973
0.505169
0.503385
0.501623
0.499885
0.498173
0.496487
0.494828
0.493197
0.491595
0.490022
0.488478
0.486965
0.485482
0.484029
0.482607
0.481216
0.479857
0.478529
0.477233
0.475968
0.474736
0.473537
0.47237
0.471236
0.470135
0.469068
0.468035
0.467036
0.466071
0.465141
0.464245
0.463385
0.46256
0.461771
0.461017
0.460299
0.459618
0.458971
0.458361
0.457786
0.457247
0.456743
0.456274
0.45584
0.45544
0.455074
0.454741
0.45444
0.454172
0.453935
0.453729
0.453553
0.453405
0.453286
0.453194
0.453128
0.453086