/*--------------------------------*- C++ -*----------------------------------*\
| =========                 |                                                 |
| \\      /  F ield         | OpenFOAM: The Open Source CFD Toolbox           |
|  \\    /   O peration     | Version:  2406                                  |
|   \\  /    A nd           | Website:  www.openfoam.com                      |
|    \\/     M anipulation  |                                                 |
\*---------------------------------------------------------------------------*/
FoamFile
{
    version     2.0;
    format      ascii;
    arch        "LSB;label=32;scalar=64";
    class       volScalarField;
    location    "11.5";
    object      p;
}
// * * * * * * * * * * * * * * * * * * * * * * * * * * * * * * * * * * * * * //

dimensions      [0 2 -2 0 0 0 0];

internalField   nonuniform List<scalar> 
34560
(
32.716015
32.702701
32.685473
32.665447
32.643081
32.620303
32.599091
32.580531
32.566381
32.795851
32.779567
32.757991
32.732094
32.702328
32.671428
32.642096
32.616265
32.596237
32.870067
32.8511
32.825843
32.795381
32.760022
32.722814
32.686873
32.65479
32.629463
32.943505
32.921996
32.893143
32.85815
32.817326
32.774139
32.731953
32.693746
32.6628
33.01452
32.990587
32.958293
32.918954
32.872885
32.823931
32.775684
32.731414
32.694747
33.079897
33.054001
33.018802
32.97566
32.924878
32.870592
32.816648
32.766593
32.72442
33.139445
33.111717
33.073818
33.027156
32.972022
32.912786
32.853575
32.79818
32.750845
33.191835
33.16244
33.122097
33.07226
33.013199
32.949461
32.885482
32.825262
32.773387
33.235953
33.205056
33.162535
33.109905
33.047458
32.979795
32.911657
32.84728
32.791612
33.270348
33.238192
33.193872
33.138984
33.073932
33.00317
32.931607
32.863892
32.805286
33.294069
33.260913
33.21524
33.158748
33.091944
33.01911
32.945111
32.874974
32.814338
33.306478
33.272745
33.22631
33.168931
33.101184
33.027237
32.951938
32.88049
32.818815
33.306477
33.272745
33.22631
33.168931
33.101184
33.027237
32.951938
32.88049
32.818815
33.294068
33.260912
33.215239
33.158747
33.091943
33.019109
32.945111
32.874974
32.814337
33.270346
33.238191
33.193871
33.138982
33.073931
33.003169
32.931606
32.863892
32.805285
33.235951
33.205054
33.162532
33.109903
33.047456
32.979793
32.911656
32.847279
32.791611
33.191831
33.162437
33.122094
33.072257
33.013196
32.949459
32.88548
32.825261
32.773386
33.139441
33.111714
33.073815
33.027153
32.97202
32.912784
32.853573
32.798178
32.750843
33.079894
33.053998
33.018799
32.975658
32.924876
32.870589
32.816646
32.766591
32.724419
33.014517
32.990585
32.958291
32.918953
32.872883
32.823929
32.775681
32.731412
32.694746
32.943504
32.921995
32.893142
32.858149
32.817325
32.774137
32.731951
32.693744
32.662799
32.870068
32.851101
32.825844
32.795382
32.760022
32.722814
32.686872
32.654789
32.629462
32.795854
32.77957
32.757994
32.732096
32.70233
32.67143
32.642098
32.616267
32.596236
32.716019
32.702704
32.685476
32.665451
32.643084
32.620306
32.599095
32.580536
32.566385
30.179402
30.180096
30.181087
30.182968
30.186098
30.18983
30.192897
30.193999
30.194123
30.174543
30.175666
30.177314
30.180172
30.184553
30.189452
30.193194
30.19477
30.195125
30.16815
30.169713
30.172027
30.175981
30.181902
30.188408
30.193346
30.195684
30.196282
30.162889
30.164901
30.167846
30.172784
30.180093
30.188098
30.194229
30.197338
30.198263
30.158724
30.161168
30.164727
30.17065
30.179356
30.188859
30.196149
30.19993
30.201067
30.155255
30.158197
30.162449
30.169419
30.179592
30.190631
30.199058
30.203421
30.204603
30.152948
30.156397
30.16144
30.169455
30.18103
30.193515
30.202964
30.207751
30.208793
30.151003
30.154822
30.160926
30.170632
30.183702
30.197474
30.207767
30.212802
30.213523
30.149805
30.153706
30.160222
30.17173
30.187282
30.202334
30.213223
30.21838
30.218662
30.150003
30.153842
30.160471
30.17269
30.190398
30.207505
30.218935
30.224179
30.224025
30.151269
30.15495
30.16166
30.174464
30.193287
30.211826
30.224045
30.229041
30.228374
30.152591
30.156103
30.162805
30.17597
30.195488
30.214789
30.227108
30.231757
30.230983
30.152591
30.156103
30.162805
30.17597
30.195488
30.214788
30.227108
30.231756
30.230983
30.151268
30.15495
30.161659
30.174464
30.193286
30.211825
30.224044
30.229041
30.228373
30.150002
30.15384
30.16047
30.172689
30.190397
30.207503
30.218933
30.224178
30.224023
30.149803
30.153704
30.16022
30.171728
30.18728
30.202332
30.213221
30.218379
30.218661
30.151001
30.154819
30.160924
30.17063
30.1837
30.197472
30.207765
30.2128
30.213521
30.152945
30.156395
30.161438
30.169453
30.181027
30.193513
30.202961
30.207748
30.20879
30.155253
30.158195
30.162447
30.169417
30.17959
30.190628
30.199055
30.203418
30.2046
30.158723
30.161166
30.164725
30.170649
30.179354
30.188856
30.196146
30.199927
30.201063
30.162889
30.164901
30.167845
30.172783
30.180092
30.188097
30.194227
30.197335
30.198259
30.16815
30.169713
30.172028
30.175981
30.181903
30.188408
30.193344
30.195681
30.196278
30.174544
30.175667
30.177316
30.180174
30.184554
30.189453
30.193194
30.194768
30.195121
30.179404
30.180098
30.181089
30.18297
30.1861
30.189832
30.192898
30.193999
30.194121
29.394424
29.39442
29.394275
29.393852
29.393313
29.393015
29.393305
29.394062
29.394666
29.392606
29.392737
29.392733
29.392406
29.391956
29.391766
29.392176
29.393099
29.394027
29.389501
29.389763
29.389896
29.3897
29.38943
29.389508
29.390256
29.391545
29.392894
29.386246
29.386634
29.386878
29.386761
29.386609
29.386918
29.388026
29.389751
29.391578
29.382859
29.383355
29.383702
29.383661
29.383622
29.384157
29.385624
29.387795
29.390117
29.379458
29.38001
29.38041
29.380442
29.380514
29.381266
29.383081
29.385685
29.388502
29.376578
29.377071
29.377315
29.377315
29.377453
29.378362
29.380461
29.383462
29.386775
29.375017
29.375471
29.37518
29.374424
29.374439
29.375485
29.377803
29.381152
29.385001
29.374522
29.375071
29.374738
29.372977
29.371741
29.372687
29.375151
29.378743
29.383194
29.374161
29.37481
29.374605
29.372804
29.370439
29.370242
29.372575
29.376259
29.38131
29.373609
29.374361
29.374225
29.372406
29.369769
29.368711
29.370399
29.374418
29.380109
29.373229
29.374039
29.373926
29.372032
29.369171
29.367673
29.369257
29.373625
29.379486
29.373229
29.374039
29.373925
29.372032
29.369171
29.367673
29.369257
29.373625
29.379486
29.373609
29.374361
29.374225
29.372405
29.369769
29.36871
29.370398
29.374417
29.380108
29.37416
29.374809
29.374604
29.372803
29.370438
29.370241
29.372574
29.376258
29.381309
29.374521
29.37507
29.374736
29.372976
29.37174
29.372686
29.37515
29.378742
29.383193
29.375015
29.375469
29.375178
29.374422
29.374437
29.375484
29.377802
29.38115
29.384999
29.376576
29.377068
29.377313
29.377313
29.377451
29.37836
29.380459
29.38346
29.386773
29.379457
29.380008
29.380408
29.38044
29.380512
29.381264
29.383079
29.385683
29.3885
29.382857
29.383353
29.3837
29.383659
29.38362
29.384155
29.385622
29.387793
29.390115
29.386244
29.386633
29.386877
29.38676
29.386607
29.386916
29.388024
29.389748
29.391575
29.3895
29.389762
29.389895
29.389699
29.389429
29.389506
29.390254
29.391542
29.392891
29.392605
29.392736
29.392732
29.392405
29.391956
29.391764
29.392174
29.393096
29.394023
29.394424
29.394419
29.394275
29.393851
29.393313
29.393015
29.393303
29.39406
29.394665
27.807893
27.807803
27.807735
27.807779
27.807897
27.807907
27.807569
27.806776
27.805913
27.808632
27.80855
27.808518
27.808633
27.808845
27.808903
27.80849
27.807507
27.806297
27.80908
27.80901
27.809018
27.809224
27.80957
27.809741
27.809338
27.808246
27.8068
27.809616
27.809566
27.809614
27.809895
27.810344
27.810599
27.810201
27.809025
27.807409
27.810143
27.810117
27.810211
27.810573
27.81113
27.811472
27.811086
27.809832
27.808065
27.810531
27.810545
27.810703
27.811163
27.811845
27.812295
27.81194
27.810618
27.808718
27.810866
27.810912
27.811128
27.811685
27.812493
27.81305
27.812731
27.811348
27.809326
27.811106
27.811178
27.81144
27.812086
27.81303
27.813707
27.813427
27.811986
27.809853
27.81123
27.811328
27.811637
27.812359
27.813438
27.814252
27.814007
27.812504
27.810264
27.811127
27.811257
27.811612
27.812415
27.813649
27.81466
27.814453
27.812863
27.810503
27.810785
27.81095
27.811337
27.812162
27.813467
27.814743
27.814714
27.81305
27.810592
27.810473
27.810659
27.811056
27.811903
27.813231
27.814583
27.814761
27.813108
27.8106
27.810473
27.810659
27.811055
27.811903
27.813231
27.814583
27.814761
27.813108
27.8106
27.810784
27.81095
27.811336
27.812162
27.813466
27.814742
27.814714
27.81305
27.810592
27.811126
27.811256
27.811611
27.812414
27.813648
27.814659
27.814452
27.812862
27.810502
27.811228
27.811326
27.811635
27.812357
27.813436
27.814251
27.814006
27.812503
27.810263
27.811103
27.811176
27.811438
27.812084
27.813028
27.813705
27.813425
27.811985
27.809852
27.810863
27.81091
27.811126
27.811683
27.81249
27.813048
27.812728
27.811346
27.809324
27.810529
27.810543
27.8107
27.811161
27.811843
27.812292
27.811937
27.810616
27.808716
27.81014
27.810115
27.810209
27.81057
27.811127
27.811469
27.811083
27.809829
27.808063
27.809613
27.809564
27.809611
27.809892
27.810341
27.810596
27.810198
27.809022
27.807406
27.809077
27.809007
27.809015
27.809222
27.809567
27.809738
27.809335
27.808242
27.806797
27.808629
27.808547
27.808515
27.808631
27.808842
27.808901
27.808487
27.807504
27.806294
27.80789
27.8078
27.807733
27.807777
27.807894
27.807904
27.807566
27.806773
27.805911
26.568409
26.568401
26.56836
26.568248
26.568083
26.567962
26.56802
26.568274
26.568519
26.568116
26.568124
26.568101
26.567995
26.567833
26.567732
26.567828
26.568148
26.568506
26.567578
26.567601
26.567592
26.567498
26.567356
26.567304
26.567482
26.567906
26.568384
26.566991
26.567026
26.567027
26.566935
26.566807
26.566802
26.567072
26.567619
26.56824
26.566369
26.566414
26.566422
26.566335
26.566223
26.56627
26.566639
26.567313
26.568072
26.56573
26.565783
26.565798
26.565718
26.565624
26.565727
26.566199
26.566998
26.567883
26.565134
26.565193
26.565212
26.565136
26.565055
26.565208
26.565774
26.566687
26.567684
26.564606
26.564668
26.564688
26.564611
26.564537
26.564732
26.565381
26.566394
26.567486
26.56418
26.564246
26.564265
26.564177
26.564084
26.564304
26.565032
26.566134
26.567305
26.563914
26.563982
26.564004
26.563916
26.563788
26.56395
26.564741
26.565922
26.567155
26.563856
26.563926
26.56396
26.56391
26.563816
26.563862
26.564547
26.565776
26.567048
26.563927
26.563997
26.564044
26.563999
26.563924
26.563949
26.564489
26.565707
26.566992
26.563927
26.563997
26.564043
26.563999
26.563924
26.563949
26.564489
26.565707
26.566992
26.563856
26.563925
26.563959
26.563909
26.563816
26.563861
26.564546
26.565775
26.567047
26.563913
26.563981
26.564003
26.563915
26.563787
26.563949
26.56474
26.565921
26.567154
26.564178
26.564244
26.564263
26.564175
26.564083
26.564302
26.56503
26.566132
26.567304
26.564603
26.564666
26.564686
26.564609
26.564534
26.56473
26.565378
26.566392
26.567485
26.565132
26.56519
26.565209
26.565133
26.565052
26.565205
26.565771
26.566684
26.567682
26.565727
26.56578
26.565795
26.565715
26.56562
26.565723
26.566195
26.566995
26.567881
26.566366
26.56641
26.566418
26.566332
26.56622
26.566266
26.566635
26.56731
26.568069
26.566987
26.567022
26.567022
26.566931
26.566803
26.566797
26.567068
26.567615
26.568236
26.567574
26.567596
26.567587
26.567493
26.567351
26.567299
26.567477
26.567901
26.56838
26.568111
26.568119
26.568095
26.56799
26.567828
26.567727
26.567823
26.568143
26.568501
26.568404
26.568395
26.568354
26.568242
26.568077
26.567956
26.568015
26.568269
26.568514
25.148193
25.148174
25.148161
25.148175
25.148203
25.148194
25.148081
25.147841
25.147581
25.148314
25.148295
25.148288
25.148316
25.148363
25.148361
25.148227
25.147938
25.147596
25.148407
25.148388
25.148387
25.148431
25.1485
25.148512
25.148368
25.148042
25.147636
25.148534
25.148516
25.148519
25.148574
25.148658
25.148676
25.148519
25.148163
25.147709
25.148667
25.148652
25.148661
25.148727
25.148824
25.148848
25.14868
25.148299
25.147807
25.148779
25.148769
25.148786
25.148865
25.148978
25.149011
25.148838
25.148437
25.147915
25.148881
25.148876
25.1489
25.148991
25.149117
25.149159
25.148985
25.14857
25.148025
25.148964
25.148963
25.148995
25.149096
25.149234
25.149286
25.149113
25.148691
25.148127
25.149027
25.149029
25.149067
25.149177
25.149325
25.149385
25.149218
25.148792
25.148217
25.14907
25.149076
25.149119
25.149236
25.149389
25.149455
25.149296
25.148871
25.148289
25.149103
25.149111
25.149157
25.149278
25.149435
25.149502
25.149347
25.148926
25.148339
25.149127
25.149135
25.149182
25.149303
25.149461
25.14953
25.149375
25.148955
25.148365
25.149127
25.149135
25.149182
25.149303
25.149461
25.14953
25.149375
25.148954
25.148365
25.149102
25.14911
25.149156
25.149278
25.149434
25.149501
25.149346
25.148925
25.148339
25.149069
25.149075
25.149118
25.149234
25.149388
25.149453
25.149295
25.14887
25.148288
25.149025
25.149028
25.149065
25.149175
25.149323
25.149383
25.149216
25.148791
25.148216
25.148962
25.148961
25.148992
25.149094
25.149232
25.149283
25.149111
25.148688
25.148126
25.148879
25.148873
25.148897
25.148988
25.149114
25.149156
25.148981
25.148568
25.148022
25.148775
25.148765
25.148782
25.148862
25.148974
25.149007
25.148834
25.148434
25.147912
25.148663
25.148648
25.148656
25.148722
25.148819
25.148843
25.148675
25.148295
25.147803
25.148529
25.148511
25.148514
25.148569
25.148652
25.148671
25.148513
25.148158
25.147705
25.148401
25.148382
25.148381
25.148424
25.148494
25.148506
25.148362
25.148036
25.14763
25.148307
25.148288
25.148281
25.148309
25.148356
25.148354
25.14822
25.147931
25.147589
25.148185
25.148167
25.148154
25.148167
25.148195
25.148186
25.148073
25.147833
25.147573
23.817246
23.81725
23.817246
23.817222
23.817182
23.817148
23.817158
23.817224
23.817302
23.817173
23.817181
23.81718
23.817156
23.817115
23.817086
23.81711
23.817201
23.817316
23.817043
23.817054
23.817056
23.817034
23.816995
23.816977
23.817021
23.817142
23.817292
23.816902
23.816915
23.816919
23.816896
23.816859
23.816849
23.816917
23.817069
23.817257
23.816754
23.816769
23.816774
23.816751
23.816715
23.816716
23.816806
23.816991
23.817215
23.816605
23.816622
23.816627
23.816604
23.816571
23.816583
23.816696
23.816911
23.817167
23.816466
23.816484
23.81649
23.816466
23.816435
23.816457
23.816591
23.816833
23.817116
23.816342
23.816361
23.816366
23.816343
23.816314
23.816344
23.816496
23.816761
23.817067
23.816238
23.816257
23.816262
23.816238
23.816211
23.816248
23.816414
23.816698
23.817022
23.816157
23.816176
23.816182
23.816158
23.816132
23.816173
23.816351
23.816648
23.816985
23.816103
23.816122
23.816128
23.816103
23.816078
23.816123
23.816307
23.816613
23.816958
23.816077
23.816096
23.816101
23.816077
23.816051
23.816098
23.816285
23.816595
23.816945
23.816077
23.816096
23.816101
23.816076
23.816051
23.816098
23.816285
23.816595
23.816944
23.816103
23.816122
23.816127
23.816103
23.816077
23.816122
23.816306
23.816613
23.816958
23.816156
23.816175
23.81618
23.816156
23.81613
23.816171
23.816349
23.816647
23.816984
23.816236
23.816255
23.81626
23.816236
23.816209
23.816246
23.816412
23.816696
23.81702
23.81634
23.816358
23.816364
23.81634
23.816311
23.816341
23.816493
23.816758
23.817065
23.816463
23.816481
23.816486
23.816463
23.816431
23.816453
23.816587
23.81683
23.817114
23.816601
23.816617
23.816622
23.816599
23.816566
23.816578
23.816691
23.816907
23.817164
23.816748
23.816764
23.816768
23.816745
23.816709
23.81671
23.816801
23.816986
23.817211
23.816895
23.816908
23.816912
23.816889
23.816851
23.816842
23.81691
23.817063
23.817252
23.817035
23.817046
23.817047
23.817025
23.816987
23.816968
23.817013
23.817135
23.817286
23.817164
23.817171
23.81717
23.817146
23.817105
23.817077
23.817101
23.817192
23.817309
23.817235
23.817239
23.817235
23.817212
23.817171
23.817137
23.817147
23.817214
23.817293
22.44382
22.443815
22.443811
22.443814
22.443822
22.443823
22.4438
22.443747
22.443686
22.443828
22.443822
22.44382
22.443827
22.44384
22.443844
22.443818
22.443755
22.443679
22.443833
22.443827
22.443826
22.443837
22.443856
22.443864
22.443836
22.443765
22.443673
22.443849
22.443843
22.443844
22.443857
22.44388
22.44389
22.443859
22.44378
22.443676
22.44387
22.443865
22.443866
22.443883
22.443909
22.443919
22.443886
22.4438
22.443685
22.443888
22.443884
22.443887
22.443907
22.443936
22.443949
22.443913
22.443822
22.443699
22.443907
22.443903
22.443908
22.44393
22.443962
22.443976
22.443939
22.443844
22.443715
22.443923
22.44392
22.443926
22.443951
22.443985
22.444
22.443963
22.443865
22.443731
22.443936
22.443934
22.443942
22.443967
22.444004
22.44402
22.443983
22.443883
22.443745
22.443946
22.443945
22.443953
22.44398
22.444018
22.444036
22.443999
22.443898
22.443758
22.443952
22.443952
22.443961
22.443989
22.444027
22.444046
22.444009
22.443907
22.443766
22.443956
22.443956
22.443965
22.443994
22.444032
22.444051
22.444014
22.443912
22.44377
22.443956
22.443955
22.443965
22.443993
22.444032
22.444051
22.444014
22.443912
22.44377
22.443951
22.443951
22.44396
22.443988
22.444027
22.444045
22.444008
22.443907
22.443766
22.443944
22.443943
22.443952
22.443979
22.444016
22.444034
22.443997
22.443896
22.443757
22.443934
22.443932
22.443939
22.443965
22.444001
22.444018
22.443981
22.443881
22.443744
22.44392
22.443917
22.443924
22.443948
22.443982
22.443997
22.44396
22.443863
22.443729
22.443903
22.4439
22.443904
22.443926
22.443958
22.443972
22.443936
22.443841
22.443713
22.443884
22.443879
22.443882
22.443902
22.443931
22.443943
22.443908
22.443818
22.443696
22.443864
22.443858
22.443859
22.443876
22.443902
22.443913
22.443879
22.443795
22.443682
22.443841
22.443835
22.443835
22.443849
22.443872
22.443881
22.443851
22.443773
22.443671
22.443823
22.443817
22.443816
22.443827
22.443846
22.443854
22.443827
22.443757
22.443667
22.443816
22.44381
22.443808
22.443815
22.443828
22.443832
22.443807
22.443745
22.443671
22.443807
22.443802
22.443798
22.443801
22.443809
22.44381
22.443788
22.443735
22.443676
21.088597
21.088598
21.088598
21.088593
21.088584
21.088575
21.088573
21.088583
21.088598
21.088578
21.088581
21.088581
21.088577
21.088568
21.08856
21.088562
21.088578
21.088602
21.088544
21.088547
21.088549
21.088545
21.088537
21.088532
21.088539
21.088563
21.088595
21.088507
21.088511
21.088513
21.088509
21.088501
21.088499
21.088511
21.088543
21.088584
21.088469
21.088473
21.088475
21.088471
21.088464
21.088464
21.088482
21.088521
21.08857
21.08843
21.088435
21.088437
21.088433
21.088427
21.088428
21.088452
21.088499
21.088556
21.088394
21.088399
21.088402
21.088397
21.088391
21.088395
21.088423
21.088476
21.08854
21.088362
21.088367
21.088369
21.088365
21.088359
21.088365
21.088397
21.088456
21.088525
21.088335
21.08834
21.088342
21.088338
21.088332
21.088339
21.088375
21.088438
21.088511
21.088313
21.088318
21.088321
21.088316
21.08831
21.088319
21.088357
21.088423
21.0885
21.088298
21.088304
21.088306
21.088301
21.088296
21.088305
21.088344
21.088413
21.088492
21.088291
21.088296
21.088298
21.088294
21.088288
21.088297
21.088338
21.088407
21.088488
21.088291
21.088296
21.088298
21.088293
21.088288
21.088297
21.088338
21.088407
21.088488
21.088298
21.088303
21.088305
21.0883
21.088295
21.088304
21.088344
21.088412
21.088492
21.088312
21.088317
21.088319
21.088315
21.088309
21.088317
21.088355
21.088422
21.0885
21.088333
21.088338
21.08834
21.088335
21.088329
21.088337
21.088372
21.088436
21.088511
21.088359
21.088364
21.088366
21.088362
21.088356
21.088361
21.088394
21.088453
21.088524
21.088391
21.088396
21.088398
21.088393
21.088387
21.088391
21.088419
21.088473
21.088538
21.088426
21.08843
21.088432
21.088428
21.088421
21.088423
21.088447
21.088495
21.088553
21.088463
21.088467
21.088469
21.088464
21.088457
21.088457
21.088476
21.088516
21.088567
21.088499
21.088503
21.088504
21.0885
21.088492
21.08849
21.088504
21.088536
21.088579
21.088534
21.088537
21.088538
21.088534
21.088526
21.088521
21.08853
21.088554
21.088588
21.088566
21.088568
21.088569
21.088564
21.088555
21.088548
21.088551
21.088567
21.088593
21.088583
21.088585
21.088585
21.08858
21.088571
21.088561
21.088559
21.088569
21.088586
19.726329
19.726327
19.726326
19.726326
19.726327
19.726328
19.726324
19.726314
19.726301
19.726328
19.726327
19.726326
19.726327
19.726329
19.72633
19.726325
19.726313
19.726299
19.726328
19.726327
19.726326
19.726328
19.726332
19.726333
19.726328
19.726314
19.726296
19.726332
19.726331
19.726331
19.726333
19.726337
19.726339
19.726333
19.726317
19.726296
19.72634
19.726338
19.726338
19.726341
19.726346
19.726348
19.726341
19.726323
19.726299
19.726349
19.726347
19.726347
19.726351
19.726357
19.726361
19.726355
19.726335
19.726307
19.72636
19.726358
19.726359
19.726363
19.726371
19.726376
19.726371
19.72635
19.72632
19.726371
19.72637
19.72637
19.726376
19.726385
19.726391
19.726386
19.726365
19.726333
19.726381
19.72638
19.726381
19.726387
19.726397
19.726404
19.726399
19.726377
19.726345
19.726389
19.726388
19.726389
19.726396
19.726407
19.726415
19.72641
19.726388
19.726355
19.726394
19.726393
19.726395
19.726402
19.726413
19.726422
19.726417
19.726395
19.726361
19.726397
19.726396
19.726398
19.726405
19.726417
19.726426
19.726421
19.726399
19.726365
19.726397
19.726396
19.726398
19.726405
19.726416
19.726425
19.726421
19.726399
19.726365
19.726393
19.726392
19.726394
19.726401
19.726412
19.726421
19.726417
19.726394
19.726361
19.726387
19.726386
19.726388
19.726394
19.726405
19.726413
19.726408
19.726387
19.726354
19.726379
19.726378
19.726378
19.726384
19.726394
19.726402
19.726397
19.726376
19.726344
19.726368
19.726367
19.726367
19.726372
19.726381
19.726388
19.726383
19.726362
19.726332
19.726356
19.726354
19.726355
19.726359
19.726366
19.726372
19.726366
19.726347
19.726318
19.726343
19.726342
19.726342
19.726345
19.726351
19.726355
19.726349
19.726331
19.726304
19.726333
19.726331
19.726331
19.726333
19.726338
19.72634
19.726334
19.726317
19.726295
19.726324
19.726322
19.726322
19.726324
19.726328
19.72633
19.726324
19.72631
19.72629
19.726318
19.726316
19.726316
19.726317
19.726321
19.726323
19.726318
19.726305
19.726288
19.726316
19.726314
19.726314
19.726314
19.726317
19.726318
19.726313
19.726302
19.726288
19.726315
19.726313
19.726312
19.726312
19.726313
19.726313
19.72631
19.7263
19.726289
18.366168
18.366169
18.366169
18.366169
18.366167
18.366164
18.366162
18.366162
18.366164
18.366172
18.366173
18.366173
18.366172
18.366171
18.366169
18.366168
18.366169
18.366173
18.366171
18.366171
18.366172
18.366171
18.36617
18.366169
18.36617
18.366173
18.366178
18.366167
18.366167
18.366168
18.366168
18.366167
18.366167
18.366169
18.366174
18.36618
18.366161
18.366162
18.366162
18.366162
18.366162
18.366162
18.366165
18.366171
18.366179
18.366153
18.366154
18.366155
18.366155
18.366154
18.366154
18.366157
18.366164
18.366174
18.366144
18.366145
18.366146
18.366146
18.366144
18.366144
18.366146
18.366155
18.366166
18.366135
18.366136
18.366137
18.366137
18.366135
18.366134
18.366137
18.366146
18.366158
18.366127
18.366128
18.366129
18.366129
18.366127
18.366125
18.366129
18.366138
18.366151
18.36612
18.366122
18.366123
18.366122
18.36612
18.366119
18.366122
18.366132
18.366146
18.366116
18.366117
18.366118
18.366117
18.366115
18.366114
18.366118
18.366128
18.366142
18.366113
18.366115
18.366116
18.366115
18.366112
18.366111
18.366115
18.366126
18.36614
18.366113
18.366114
18.366115
18.366114
18.366112
18.366111
18.366115
18.366125
18.36614
18.366115
18.366116
18.366117
18.366116
18.366114
18.366113
18.366117
18.366127
18.366141
18.366119
18.36612
18.366121
18.36612
18.366118
18.366117
18.366121
18.366131
18.366145
18.366125
18.366126
18.366127
18.366126
18.366124
18.366123
18.366127
18.366136
18.36615
18.366132
18.366133
18.366134
18.366133
18.366131
18.36613
18.366134
18.366143
18.366157
18.36614
18.366141
18.366142
18.366141
18.36614
18.366139
18.366142
18.366151
18.366164
18.366147
18.366148
18.366149
18.366149
18.366148
18.366148
18.366151
18.36616
18.366171
18.366154
18.366155
18.366155
18.366155
18.366154
18.366155
18.366158
18.366165
18.366174
18.366158
18.366159
18.366159
18.366159
18.366158
18.366158
18.366161
18.366166
18.366174
18.36616
18.366161
18.366161
18.36616
18.366159
18.366159
18.36616
18.366164
18.366171
18.36616
18.366161
18.366161
18.36616
18.366158
18.366157
18.366156
18.366158
18.366164
18.366155
18.366155
18.366156
18.366155
18.366153
18.366151
18.366149
18.366149
18.366153
17.005902
17.005902
17.005901
17.005901
17.005901
17.005902
17.005902
17.005903
17.005902
17.0059
17.0059
17.0059
17.0059
17.0059
17.0059
17.005901
17.005901
17.005901
17.0059
17.0059
17.0059
17.0059
17.0059
17.0059
17.0059
17.0059
17.0059
17.005901
17.005901
17.005901
17.005901
17.005902
17.005902
17.005902
17.005902
17.005902
17.005902
17.005902
17.005903
17.005903
17.005904
17.005905
17.005906
17.005906
17.005905
17.005904
17.005904
17.005904
17.005905
17.005906
17.005908
17.005909
17.005909
17.005909
17.005905
17.005905
17.005906
17.005907
17.005908
17.00591
17.005912
17.005913
17.005912
17.005907
17.005907
17.005907
17.005908
17.00591
17.005912
17.005915
17.005916
17.005915
17.005908
17.005908
17.005909
17.00591
17.005912
17.005914
17.005917
17.005918
17.005918
17.005909
17.005909
17.00591
17.005911
17.005913
17.005916
17.005919
17.00592
17.00592
17.00591
17.00591
17.00591
17.005911
17.005914
17.005917
17.00592
17.005921
17.005921
17.00591
17.00591
17.00591
17.005912
17.005914
17.005917
17.00592
17.005922
17.005922
17.00591
17.00591
17.00591
17.005911
17.005914
17.005917
17.00592
17.005922
17.005921
17.005909
17.005909
17.005909
17.005911
17.005913
17.005916
17.005919
17.005921
17.005921
17.005908
17.005908
17.005908
17.005909
17.005911
17.005914
17.005917
17.005919
17.005919
17.005906
17.005906
17.005906
17.005907
17.005909
17.005912
17.005915
17.005916
17.005917
17.005904
17.005904
17.005904
17.005905
17.005907
17.005909
17.005912
17.005913
17.005914
17.005902
17.005902
17.005902
17.005903
17.005904
17.005906
17.005908
17.00591
17.00591
17.005899
17.005899
17.005899
17.0059
17.005901
17.005902
17.005904
17.005905
17.005906
17.005896
17.005896
17.005896
17.005896
17.005897
17.005899
17.0059
17.005901
17.005902
17.005893
17.005893
17.005893
17.005893
17.005894
17.005894
17.005895
17.005896
17.005897
17.005891
17.005891
17.00589
17.00589
17.005891
17.005891
17.005891
17.005892
17.005893
17.00589
17.005889
17.005889
17.005889
17.005889
17.005889
17.00589
17.005891
17.005892
17.00589
17.005889
17.005889
17.005889
17.005889
17.005889
17.00589
17.005891
17.005892
15.645239
15.645239
15.64524
15.64524
15.64524
15.645239
15.645239
15.645237
15.645236
15.645238
15.645238
15.645238
15.645238
15.645238
15.645238
15.645237
15.645236
15.645235
15.645236
15.645236
15.645236
15.645236
15.645237
15.645236
15.645236
15.645234
15.645233
15.645234
15.645234
15.645234
15.645234
15.645235
15.645235
15.645234
15.645232
15.645231
15.645232
15.645232
15.645232
15.645232
15.645233
15.645233
15.645232
15.645231
15.645229
15.64523
15.64523
15.64523
15.645231
15.645231
15.645231
15.64523
15.645229
15.645228
15.645228
15.645228
15.645228
15.645229
15.645229
15.645229
15.645229
15.645227
15.645226
15.645226
15.645227
15.645227
15.645227
15.645228
15.645228
15.645227
15.645226
15.645225
15.645225
15.645225
15.645225
15.645226
15.645226
15.645226
15.645226
15.645225
15.645223
15.645224
15.645224
15.645224
15.645225
15.645225
15.645225
15.645225
15.645224
15.645223
15.645223
15.645223
15.645223
15.645224
15.645224
15.645224
15.645224
15.645223
15.645222
15.645222
15.645223
15.645223
15.645223
15.645223
15.645223
15.645223
15.645222
15.645221
15.645222
15.645222
15.645223
15.645223
15.645223
15.645223
15.645223
15.645222
15.645221
15.645222
15.645222
15.645223
15.645223
15.645223
15.645223
15.645223
15.645222
15.645221
15.645223
15.645223
15.645223
15.645223
15.645224
15.645224
15.645223
15.645223
15.645222
15.645223
15.645223
15.645224
15.645224
15.645224
15.645224
15.645224
15.645223
15.645222
15.645224
15.645224
15.645224
15.645225
15.645225
15.645225
15.645225
15.645224
15.645223
15.645225
15.645225
15.645225
15.645225
15.645226
15.645226
15.645225
15.645225
15.645224
15.645226
15.645226
15.645226
15.645226
15.645226
15.645226
15.645226
15.645226
15.645225
15.645227
15.645227
15.645227
15.645227
15.645227
15.645227
15.645227
15.645226
15.645226
15.645227
15.645227
15.645228
15.645228
15.645228
15.645228
15.645228
15.645227
15.645227
15.645228
15.645228
15.645228
15.645228
15.645228
15.645228
15.645228
15.645228
15.645227
15.645229
15.645229
15.645229
15.645229
15.645229
15.645229
15.645228
15.645228
15.645227
15.645229
15.645229
15.645229
15.645229
15.645229
15.645229
15.645228
15.645227
15.645227
14.284919
14.284919
14.284919
14.284919
14.284919
14.284919
14.284919
14.28492
14.28492
14.284918
14.284918
14.284918
14.284918
14.284918
14.284918
14.284918
14.284919
14.284919
14.284917
14.284917
14.284917
14.284917
14.284917
14.284917
14.284917
14.284917
14.284918
14.284915
14.284915
14.284915
14.284915
14.284915
14.284916
14.284916
14.284917
14.284917
14.284914
14.284914
14.284914
14.284914
14.284914
14.284914
14.284915
14.284916
14.284916
14.284913
14.284913
14.284913
14.284913
14.284913
14.284913
14.284914
14.284915
14.284916
14.284912
14.284912
14.284912
14.284912
14.284912
14.284912
14.284913
14.284914
14.284915
14.284911
14.284911
14.284911
14.284911
14.284911
14.284911
14.284912
14.284914
14.284915
14.28491
14.28491
14.28491
14.28491
14.28491
14.284911
14.284912
14.284913
14.284914
14.28491
14.28491
14.28491
14.28491
14.28491
14.28491
14.284911
14.284913
14.284914
14.284909
14.284909
14.284909
14.284909
14.284909
14.28491
14.284911
14.284912
14.284914
14.284909
14.284909
14.284909
14.284909
14.284909
14.28491
14.284911
14.284912
14.284913
14.284909
14.284909
14.284909
14.284909
14.284909
14.28491
14.284911
14.284912
14.284913
14.284909
14.284909
14.284909
14.284909
14.284909
14.284909
14.28491
14.284912
14.284913
14.284909
14.284909
14.284909
14.284909
14.284909
14.284909
14.28491
14.284912