/*--------------------------------*- C++ -*----------------------------------*\
| =========                 |                                                 |
| \\      /  F ield         | OpenFOAM: The Open Source CFD Toolbox           |
|  \\    /   O peration     | Version:  2406                                  |
|   \\  /    A nd           | Website:  www.openfoam.com                      |
|    \\/     M anipulation  |                                                 |
\*---------------------------------------------------------------------------*/
FoamFile
{
    version     2.0;
    format      ascii;
    arch        "LSB;label=32;scalar=64";
    class       surfaceScalarField;
    location    "11.5";
    object      phi;
}
// * * * * * * * * * * * * * * * * * * * * * * * * * * * * * * * * * * * * * //

dimensions      [0 3 -1 0 0 0 0];

oriented        oriented;

internalField   nonuniform List<scalar> 
101088
(
0.0001349231
-2.2893821e-05
1.7564474e-05
1.9926064e-05
0.00028084646
-9.7852336e-05
7.4903653e-05
8.6262159e-05
0.00041421766
-0.00023331528
0.00017698483
0.0002075436
0.00050523651
-0.00043688224
0.00032553593
0.00039214571
0.00053529979
-0.00068252909
0.00049280035
0.00061955261
0.00051618425
-0.00090518623
0.00062247489
0.00083161074
0.00048539628
-0.0010380469
0.00066443827
0.00096427156
0.00047477078
-0.0010543298
0.00061304887
0.00098927725
-0.00096786152
0.00050309692
0.00091449316
0.0004928818
0.00016402915
-2.5302195e-05
2.179587e-05
0.00033711693
-0.00010670942
9.2102464e-05
0.00048740842
-0.00025121716
0.00021579707
0.0005758363
-0.00046400706
0.00039324319
0.00058105031
-0.00071478067
0.0005895336
0.00052211951
-0.00093534479
0.00073905913
0.00044860942
-0.0010607732
0.00078799058
0.00039886689
-0.0010655634
0.00073322369
-0.00096723082
0.00061315796
0.00038130447
0.00019306713
-2.6851516e-05
2.61097e-05
0.00039239358
-0.0001118125
0.000109414
0.0005587507
-0.00026025314
0.00025431619
0.00064640061
-0.00047460473
0.00045926004
0.00063280267
-0.0007203811
0.00068187253
0.00054338224
-0.00092822513
0.00084782049
0.00043605443
-0.001037785
0.00090063578
0.0003545548
-0.0010279181
0.00084105231
-0.00092001119
0.00071137854
0.0003089066
0.00022125089
-2.7479171e-05
3.0395392e-05
0.00044576923
-0.00011310025
0.00012638836
0.00062737867
-0.00026049638
0.00029159024
0.00071457838
-0.00046932158
0.00052221672
0.00068506542
-0.00070173814
0.00076856261
0.00057088812
-0.00088877356
0.00094837369
0.00043640967
-0.00097567172
0.0010033541
0.00032997744
-0.00094928565
0.00093807948
-0.000835391
0.00079862919
0.00026350236
0.00024773329
-2.700171e-05
3.4486433e-05
0.00049551818
-0.00011027306
0.0001424832
0.00069100673
-0.00025204989
0.00032672245
0.00077791735
-0.0004494587
0.00058119778
0.00073465907
-0.00066200805
0.00084924185
0.00059934929
-0.00082214546
0.0010413408
0.00044212128
-0.00088140199
0.0010975119
0.00031527953
-0.00083775758
0.0010261248
-0.00072188364
0.0008768096
0.00023258068
0.00027243167
-2.572977e-05
3.8359985e-05
0.00054215673
-0.00010436177
0.00015764428
0.00075102627
-0.00023685097
0.00035969701
0.00083804991
-0.0004179023
0.00063642942
0.0007819439
-0.00060495963
0.0009246503
0.00062635647
-0.00073295503
0.0011279508
0.00044778727
-0.00076120153
0.0011846788
0.0003029372
-0.00070128106
0.0011069016
-0.0005879593
0.00094766374
0.00020696539
0.00029407457
-2.3591374e-05
4.1945144e-05
0.0005822025
-9.5244025e-05
0.00017165569
0.00080085
-0.00021499434
0.00039017314
0.00088480351
-0.00037553185
0.00068761243
0.00081362446
-0.0005332133
0.00099476809
0.00063710934
-0.00062640746
0.0012084522
0.00043909848
-0.00062376767
0.0012654278
0.00028011375
-0.00055091989
0.0011812934
-0.00044583215
0.0010124182
0.00017623918
0.00031238032
-2.0584734e-05
4.5181963e-05
0.00061507204
-8.2901741e-05
0.00018439888
0.00083913238
-0.0001864469
0.00041816406
0.00091514057
-0.00032258059
0.00073513814
0.00082415701
-0.00044843114
0.0010605749
0.0006242339
-0.00050758519
0.0012842306
0.00040836658
-0.00047903683
0.0013413714
0.00024010089
-0.00039990425
0.0012509633
-0.00030859269
0.0010727396
0.00013371459
0.00032699656
-1.6669505e-05
4.802427e-05
0.00063988185
-6.7117428e-05
0.00019574722
0.00086403494
-0.00015062309
0.00044353169
0.0009257311
-0.00025832883
0.00077897558
0.00080903345
-0.00035150542
0.001121981
0.00058302447
-0.000381523
0.0013551408
0.00035187718
-0.00033777434
0.0014123752
0.00018011179
-0.00026207212
0.0013159825
-0.0001896401
0.001129139
7.7088993e-05
0.00033779144
-1.1877472e-05
5.0386764e-05
0.00065662387
-4.7817595e-05
0.00020535111
0.00087607181
-0.00010706852
0.00046544506
0.00091810392
-0.00018212555
0.00081771078
0.00077118699
-0.00024293303
0.0011767737
0.00051856863
-0.00025305509
0.0014185737
0.00027597617
-0.00020950317
0.0014759362
0.00010641501
-0.00014894823
0.0013743967
-9.9137818e-05
0.0011798525
1.1673603e-05
0.00034456772
-6.212991e-06
5.2158485e-05
0.00066541334
-2.4992694e-05
0.00021259979
0.00087723333
-5.5882372e-05
0.00048214396
0.00089875292
-9.4546273e-05
0.00084758425
0.00072317071
-0.00012435428
0.001219581
0.00044823752
-0.00012548179
0.0014678449
0.00019920498
-9.8230085e-05
0.0015252476
3.5465782e-05
-6.4442145e-05
0.001420808
-3.9378858e-05
0.0012202669
-4.8984924e-05
0.00034787832
5.7786719e-12
5.3058122e-05
0.00066921737
-6.6167687e-11
0.00021639566
0.00087575723
-3.0226911e-10
0.00049115783
0.00088417796
-6.8058907e-10
0.00086417326
0.00069072959
-1.3522437e-09
0.001243836
0.00040240057
-2.1374464e-09
0.0014964401
0.00015058075
-2.771309e-09
0.0015540641
-8.4653074e-06
-3.1179684e-09
0.0014480012
-2.9487646e-09
0.001243715
-8.6020405e-05
0.00034787807
6.2129707e-06
5.3058111e-05
0.00066921698
2.4992495e-05
0.00021639562
0.0008757572
5.5881722e-05
0.00049115773
0.00088417772
9.4544891e-05
0.00086417306
0.0006907295
0.00012435159
0.0012438358
0.00040240056
0.00012547758
0.0014964398
0.00015058079
9.822456e-05
0.0015540638
-8.4651517e-06
6.443591e-05
0.001448001
3.9373058e-05
0.0012437147
-8.602027e-05
0.00034456733
1.1877423e-05
5.2158478e-05
0.00066541285
4.7817339e-05
0.00021259975
0.00087723366
0.00010706788
0.00048214386
0.00089875242
0.00018212419
0.00084758399
0.00072317053
0.00024293042
0.0012195808
0.00044823745
0.00025305104
0.0014678445
0.00019920508
0.00020949767
0.0015252471
3.5466232e-05
0.00014894199
0.0014208074
9.9132233e-05
0.0012202663
-4.8984505e-05
0.00033779111
1.6669498e-05
5.0386744e-05
0.00065662344
6.7117278e-05
0.00020535102
0.000876072
0.00015062264
0.00046544482
0.00091810289
0.00025832756
0.00081771033
0.00077118644
0.00035150297
0.0011767732
0.00051856813
0.00038151919
0.001418573
0.0002759761
0.00033776894
0.0014759356
0.00010641564
0.00026206598
0.0013743959
0.00018963474
0.0011798517
1.1674181e-05
0.00032699615
2.0584727e-05
4.8024255e-05
0.00063988084
8.2901634e-05
0.00019574716
0.00086403426
0.00018644651
0.00044353153
0.00092572976
0.00032257941
0.00077897529
0.00080903253
0.00044842911
0.0011219807
0.00058302331
0.00050758192
0.0013551403
0.00035187675
0.00047903205
0.0014123748
0.00018011237
0.00039989875
0.0013159819
0.00030858753
0.0011291383
7.7089412e-05
0.00031238002
2.3591412e-05
4.518196e-05
0.00061507086
9.5244131e-05
0.00018439886
0.00083913133
0.00021499423
0.00041816403
0.00091513951
0.00037553106
0.000735138
0.00082415567
0.00053321172
0.0010605746
0.00062423213
0.00062640486
0.0012842304
0.00040836575
0.00062376418
0.0013413711
0.00024010104
0.00055091565
0.0012509628
0.00044582713
0.001072739
0.00013371459
0.00029407461
2.5729784e-05
4.1945143e-05
0.00058220197
0.00010436177
0.00017165568
0.00080084935
0.00023685069
0.00039017314
0.00088480289
0.00041790131
0.00068761238
0.0008136229
0.00060495764
0.00099476794
0.0006371075
0.00073295275
0.0012084521
0.0004390973
0.00076119922
0.0012654276
0.00028011291
0.00070127796
0.001181293
0.00058795432
0.0010124178
0.00017623877
0.00027243152
2.7001634e-05
3.835999e-05
0.0005421561
0.00011027281
0.0001576443
0.00075102569
0.00025204959
0.00035969709
0.00083804988
0.00044945818
0.00063642959
0.00078194331
0.0006620068
0.00092465038
0.00062635541
0.00082214394
0.0011279508
0.00044778593
0.00088139999
0.0011846788
0.00030293561
0.00083775468
0.0011069015
0.00072187952
0.00094766345
0.00020696466
0.00024773316
2.7479112e-05
3.4486431e-05
0.00049551781
0.00011310005
0.00014248319
0.00069100639
0.00026049602
0.00032672244
0.00077791744
0.00046932084
0.00058119773
0.00073465879
0.00070173659
0.00084924163
0.00059934827
0.00088877134
0.0010413406
0.00044211965
0.00097566938
0.0010975117
0.00031527787
0.00094928324
0.0010261247
0.00083538881
0.00087680933
0.00023257906
0.00022125075
2.6851435e-05
3.039538e-05
0.00044576877
0.00011181221
0.00012638831
0.00062737826
0.00026025254
0.00029159013
0.0007145786
0.00047460368
0.00052221657
0.00068506546
0.00072037925
0.00076856245
0.00057088737
0.00092822242
0.00094837346
0.00043640824
0.0010377827
0.0010033539
0.00032997647
0.0010279173
0.0009380793
0.00092001083
0.00079862899
0.00026350005
0.00019306698
2.530213e-05
2.6109688e-05
0.00039239315
0.0001067092
0.00010941395
0.00055875022
0.0002512167
0.00025431607
0.00064640045
0.00046400626
0.00045925987
0.00063280242
0.00071477941
0.00068187235
0.00054338156
0.00093534282
0.00084782025
0.00043605327
0.0010607705
0.00090063545
0.00035455318
0.0010655615
0.00084105197
0.00096723182
0.00071137838
0.00030890391
0.0001640291
2.2893809e-05
2.1795866e-05
0.00033711671
9.7852289e-05
9.2102444e-05
0.00048740819
0.00023331515
0.00021579702
0.00057583625
0.00043688204
0.0003932431
0.00058104982
0.00068252876
0.00058953354
0.00052211784
0.00090518503
0.0007390591
0.00044860608
0.0010380449
0.0007879904
0.0003988628
0.0010543277
0.00073322361
0.00096786155
0.00061315781
0.00038130088
0.00013492305
1.7564472e-05
1.9926066e-05
0.00028084627
7.4903642e-05
8.6262179e-05
0.00041421747
0.0001769848
0.00020754368
0.00050523621
0.00032553587
0.00039214595
0.00053529857
0.00049280029
0.00061955307
0.00051618143
0.00062247486
0.00083161124
0.00048539071
0.00066443823
0.00096427141
0.00047476637
0.0006130489
0.00098927553
0.00050309676
0.0009144906
0.00049287953
2.2826767e-06
-4.3173437e-06
1.6596759e-05
3.0023747e-06
1.0153238e-05
-2.1350035e-05
7.2965621e-05
1.5417385e-05
2.6310558e-05
-5.932131e-05
0.00017606272
4.4085693e-05
5.3457769e-05
-0.00013116543
0.00032947695
0.00010007641
9.030588e-05
-0.00024170639
0.000508321
0.00018933669
0.00013029724
-0.00037172533
0.00065601838
0.00029818979
0.0001688763
-0.00048144277
0.00071523985
0.00039206174
0.00020615001
-0.00053913565
0.00067149356
0.00044341702
-0.00053620435
0.000556482
0.00044741957
0.00024155031
3.0230999e-06
-5.5020959e-06
1.9957526e-05
1.3373323e-05
-2.7033974e-05
8.7436298e-05
3.3898193e-05
-7.4166915e-05
0.00021011801
6.6016995e-05
-0.00016101482
0.00039097383
0.0001051774
-0.00029042975
0.00059909685
0.00014174934
-0.00043751908
0.00076828199
0.00017055007
-0.00055762754
0.00083537611
0.00019397341
-0.00061735356
0.00078801926
-0.0006075269
0.00066338058
0.00021507343
4.0373842e-06
-6.6311964e-06
2.3201391e-05
1.7413056e-05
-3.2360636e-05
0.00010136497
4.2806581e-05
-8.7923019e-05
0.0002426784
8.0201955e-05
-0.00018816729
0.00044901606
0.00012180674
-0.00033317425
0.00068301122
0.00015519413
-0.00049220875
0.00086912208
0.00017518447
-0.00061672782
0.00093974608
0.00018674877
-0.00067404716
0.00088618264
-0.00065631331
0.00075210037
0.00019481271
5.2264533e-06
-7.7270965e-06
2.6264949e-05
2.2187744e-05
-3.7379409e-05
0.00011444601
5.3260568e-05
-0.00010043552
0.00027302955
9.6536377e-05
-0.00021176994
0.00050254274
0.00014081187
-0.00036814632
0.00075926016
0.00017128504
-0.00053334505
0.00095903806
0.00018340182
-0.00065633496
0.0010308459
0.00018459489
-0.00070713351
0.00096997333
-0.00068082072
0.00082629584
0.00018143518
6.4161058e-06
-8.6760802e-06
2.9019552e-05
2.698743e-05
-4.1697558e-05
0.00012623073
6.3789547e-05
-0.00011088722
0.00030037229
0.00011308623
-0.0002305107
0.00055064087
0.00016033399
-0.00039351704
0.00082736471
0.00018837858
-0.00055861645
0.0010385688
0.00019338634
-0.00067425895
0.0011104285
0.00018527008
-0.00071489627
0.0010420048
-0.00068013057
0.00088888104
0.00017250874
7.6863722e-06
-9.495183e-06
3.1492732e-05
3.2124147e-05
-4.5301489e-05
0.00013681062
7.5058417e-05
-0.00011901995
0.00032489563
0.00013077864
-0.00024348473
0.00059368398
0.00018119859
-0.00040732325
0.00088803771
0.00020666397
-0.00056498488
0.0011088547
0.00020423827
-0.00066717989
0.0011800256
0.00018700582
-0.00069486566
0.0011041035
-0.00065282422
0.00094182522
0.0001655383
8.7166388e-06
-9.9493679e-06
3.3683029e-05
3.6130167e-05
-4.7222482e-05
0.00014616346
8.3958232e-05
-0.00012322413
0.00034654856
0.00014434311
-0.00024789426
0.00063163736
0.00019598847
-0.00040555358
0.00094135495
0.00021758331
-0.00054825561
0.0011701287
0.00020776777
-0.00063198414
0.001240047
0.0001829968
-0.00064580295
0.0011570007
-0.0005989319
0.00098631289
0.00015521036
9.5796176e-06
-9.9133402e-06
3.5566829e-05
3.9192315e-05
-4.6697967e-05
0.00015426241
8.9419211e-05
-0.0001207328
0.00036544574
0.00015121838
-0.00023958759
0.00066503245
0.00020060812
-0.00038279918
0.00098843128
0.00021602282
-0.00050338713
0.0012239473
0.00019890637
-0.00056565456
0.0012921575
0.00016857769
-0.00056689251
0.0012023807
-0.00051886571
0.001024033
0.00013721891
1.0110156e-05
-9.1508312e-06
3.7151674e-05
4.0671823e-05
-4.2656731e-05
0.00016114464
9.0796652e-05
-0.00010900648
0.00038168077
0.00014903608
-0.00021294242
0.00069409173
0.00019088466
-0.00033242419
0.0010297573
0.00019716888
-0.00042555628
0.0012710251
0.00017317281
-0.0004664622
0.0013371787
0.00013966631
-0.00045855812
0.0012411544
-0.00041380658
0.0010559555
0.00010779136
1.0079475e-05
-7.2777987e-06
3.8434038e-05
3.9516924e-05
-3.3519263e-05
0.00016677625
8.5499425e-05
-8.4659553e-05
0.00039511594
0.00013514944
-0.00016325336
0.00071837256
0.00016570082
-0.00025071311
0.001064511
0.00016043603
-0.00031227574
0.0013105575
0.00013004388
-0.00033467811
0.0013745448
9.4214632e-05
-0.00032135153
0.0012730194
-0.00028579479
0.0010820115
6.404396e-05
9.5790775e-06
-4.1196857e-06
3.9421227e-05
3.6389555e-05
-1.8771008e-05
0.00017104125
7.5629656e-05
-4.6938691e-05
0.00040518339
0.00011310301
-8.9570601e-05
0.00073642867
0.00012793202
-0.00013609237
0.0010901311
0.00011160178
-0.0001675637
0.0013394629
7.546935e-05
-0.00017488911
0.0014015919
4.3462996e-05
-0.00016442765
0.0012958905
-0.00014621434
0.0011006049
2.3544203e-05
9.0444162e-06
5.6074222e-11
3.9893985e-05
3.3498634e-05
1.7631457e-10
0.00017317035
6.7346591e-05
2.822108e-10
0.00041037125
9.5999305e-05
2.8705917e-10
0.00074594994
9.9931209e-05
1.185473e-10
0.0011038118
7.3802052e-05
1.7755171e-10
0.0013550056
3.6877918e-05
6.1377782e-10
0.0014160995
1.2315172e-05
7.1577504e-10
0.0013081354
6.5318682e-10
0.0011105612
-7.4665625e-07
9.0443608e-06
4.1197727e-06
3.9893978e-05
3.3498425e-05
1.87713e-05
0.00017317031
6.7346496e-05
4.6939191e-05
0.00041037117
9.5999173e-05
8.9571158e-05
0.0007459498
9.9931302e-05
0.00013609268
0.0011038116
7.3802213e-05
0.00016756408
0.0013550054
3.6877847e-05
0.00017489019
0.0014160992
1.2315043e-05
0.00016442884
0.0013081352
0.00014621564
0.0011105611
-7.4682572e-07
9.5790688e-06
7.2778575e-06
3.9421222e-05
3.6389274e-05
3.351948e-05
0.00017104122
7.5629602e-05
8.4659958e-05
0.00040518332
0.00011310263
0.00016325388
0.00073642852
0.00012793212
0.00025071353
0.0010901309
0.00011160204
0.0003122761
0.0013394627
7.5469149e-05
0.0003346787
0.0014015916
4.3462738e-05
0.0003213522
0.0012958902
0.0002857961
0.0011006046
2.3543864e-05
1.0079622e-05
9.1509088e-06
3.8434023e-05
3.9516903e-05
4.2656965e-05
0.00016677618
8.549956e-05
0.00010900684
0.00039511578
0.00013514876
0.00021294282
0.00071837223
0.00016570045
0.00033242461
0.0010645106
0.00016043584
0.0004255565
0.0013105571
0.00013004341
0.00046646219
0.0013745444
9.4214498e-05
0.00045855826
0.001273019
0.00041380777
0.0010820111
6.4043758e-05
1.0110104e-05
9.9134069e-06
3.7151661e-05
4.0671464e-05
4.6698119e-05
0.00016114458
9.0796414e-05
0.000120733
0.00038168066
0.00014903502
0.00023958781
0.0006940915
0.00019088365
0.00038279957
0.0010297571
0.00019716806
0.00050338737
0.0012710249
0.00017317207
0.00056565454
0.0013371785
0.00013966634
0.00056689254
0.001241154
0.00051886639
0.0010559551
0.00010779115
9.5791902e-06
9.9493565e-06
3.5566825e-05
3.9191281e-05
4.7222407e-05
0.00015426239
8.9418584e-05
0.00012322408
0.00036544572
0.00015121753
0.00024789438
0.00066503237
0.00020060678
0.00040555394
0.0009884312
0.00021602148
0.00054825615
0.0012239471
0.00019890543
0.00063198474
0.0012921574
0.00016857767
0.00064580325
0.0012023804
0.00059893155
0.0010240326
0.0001372184
8.7163102e-06
9.4951578e-06
3.368303e-05
3.6129494e-05
4.5301442e-05
0.00014616346
8.3958342e-05
0.00011902004
0.00034654858
0.00014434315
0.00024348493
0.00063163734
0.00019598733
0.00040732336
0.00094135487
0.00021758182
0.00056498549
0.0011701286
0.0002077666
0.00066718091
0.0012400469
0.00018299621
0.00069486609
0.0011570005
0.00065282301
0.00098631264
0.00015520951
7.686369e-06
8.6760797e-06
3.1492737e-05
3.2124042e-05
4.1697574e-05
0.00013681064
7.5058626e-05
0.00011088725
0.00032489569
0.00013077884
0.00023051065
0.00059368407
0.00018119812
0.00039351705
0.00088803777
0.00020666279
0.000558617
0.0011088548
0.00020423698
0.00067425975
0.0011800256
0.00018700453
0.00071489651
0.0011041035
0.00068012958
0.00094182506
0.00016553746
6.4159795e-06
7.7270736e-06
2.9019551e-05
2.6986873e-05
3.737934e-05
0.00012623072
6.3789067e-05
0.0001004354
0.00030037227
0.00011308663
0.00021176993
0.00055064084
0.00016033408
0.00036814642
0.00082736461
0.00018837768
0.00053334521
0.0010385687
0.00019338506
0.00065633562
0.0011104284
0.00018526868
0.00070713379
0.0010420047
0.00068082049
0.00088888084
0.00017250751
5.2263931e-06
6.6311836e-06
2.6264941e-05
2.2187512e-05
3.2360613e-05
0.00011444597
5.3260558e-05
8.792299e-05
0.00027302946
9.6537097e-05
0.00018816725
0.0005025426
0.00014081218
0.00033317405
0.00075925998
0.00017128486
0.00049220879
0.00095903784
0.00018340088
0.00061672863
0.0010308457
0.00018459409
0.0006740484
0.00096997314
0.00065631414
0.00082629568
0.00018143374
4.0373704e-06
5.5020882e-06
2.3201382e-05
1.74128e-05
2.7033971e-05
0.00010136493
4.2806208e-05
7.416695e-05
0.0002426783
8.0202148e-05
0.00016101499
0.0004490159
0.00012180738
0.00029043028
0.00068301102
0.00015519469
0.00043751998
0.00086912185
0.00017518462
0.00055762824
0.00093974575
0.00018674843
0.00061735331
0.0008861823
0.00060752777
0.00075210021
0.00019481139
3.0230306e-06
4.3173446e-06
1.9957522e-05
1.3373032e-05
2.135006e-05
8.7436281e-05
3.3897904e-05
5.9321409e-05
0.00021011797
6.6017344e-05
0.00013116576
0.00039097375
0.00010517807
0.00024170711
0.00059909677
0.00014174945
0.000371726
0.0007682819
0.0001705495
0.00048144333
0.00083537594
0.00019397239
0.00053913525
0.00078801912
0.00053620405
0.0006633804
0.00021507139
2.2825817e-06
1.6596758e-05
3.0023827e-06
1.0152974e-05
7.2965613e-05
1.5417438e-05
2.6310425e-05
0.00017606269
4.4085871e-05
5.3458067e-05
0.0003294769
0.00010007687
9.0306208e-05
0.00050832093
0.00018933764
0.00013029753
0.00065601836
0.00029819139
0.00016887513
0.00071523981
0.00039206349
0.00020614866
0.00067149362
0.00044341759
0.00055648192
0.0004474194
0.00024154928
1.8500271e-07
-1.6265543e-06
1.6597378e-05
1.4409275e-06
1.4152239e-06
-8.15347e-06
7.2699102e-05
7.1897447e-06
4.5227513e-06
-2.3117492e-05
0.00017595023
2.0122327e-05
9.7398123e-06
-5.2659011e-05
0.00033173633
4.5182189e-05
1.7268614e-05
-0.00010120372
0.00051576774
8.6227444e-05
2.807392e-05
-0.00016341637
0.00066882177
0.00013980684
4.4259546e-05
-0.00022037178
0.00072862623
0.00019079956
6.7433174e-05
-0.00025223917
0.00067921689
0.00022134211
-0.00025142374
0.00055684648
0.00022368003
9.4812635e-05
2.2375271e-07
-1.742708e-06
1.9849973e-05
1.8226017e-06
-8.9496712e-06
8.6633885e-05
5.721333e-06
-2.5853997e-05
0.00020895624
1.1548597e-05
-5.966266e-05
0.00039215059
1.8354554e-05
-0.00011509162
0.0006061791
2.5909935e-05
-0.00018435767
0.000781669
3.6020015e-05
-0.00024457601
0.00084947173
5.0945864e-05
-0.00027465502
0.00079550988
-0.00026992572
0.00066194116
7.0887419e-05
3.4281852e-07
-1.8391582e-06
2.295503e-05
2.5143605e-06
-9.6500693e-06
9.9893902e-05
7.5499674e-06
-2.8376399e-05
0.00024016511
1.4571398e-05
-6.6228357e-05
0.00044855965
2.1416545e-05
-0.00012775853
0.00068883224
2.6528035e-05
-0.00020210605
0.00088175886
3.1430711e-05
-0.00026260149
0.00095286865
3.9389883e-05
-0.00028823029
0.00089179971
-0.00027842157
0.00074772903
5.2256547e-05
5.2207287e-07
-1.9373141e-06
2.5841126e-05
3.4958649e-06
-1.0328362e-05
0.00011215069
1.0077928e-05
-3.0738069e-05
0.00026880899
1.8774576e-05
-7.2165697e-05
0.00049978296
2.6106988e-05
-0.00013855848
0.00076272893
2.926187e-05
-0.0002156248
0.00096940271
2.9805546e-05
-0.00027354971
0.0010412516
3.2090801e-05
-0.00029280077
0.00097225925
-0.00027736146
0.00081817032
3.9156033e-05
7.221476e-07
-2.0208926e-06
2.8381169e-05
4.5586054e-06
-1.0889682e-05
0.00012295627
1.2855834e-05
-3.2727256e-05
0.00029406476
2.3525914e-05
-7.7018141e-05
0.00054482269
3.1733036e-05
-0.00014666414
0.00082726323
3.3403702e-05
-0.00022382863
0.0010451028
3.0230943e-05
-0.00027653143
0.0011165833
2.7817009e-05
-0.00028822848
0.0010398475
-0.00026751632
0.00087648962
3.036381e-05
1.0001315e-06
-2.1311409e-06
3.0602817e-05
5.9086196e-06
-1.1384736e-05
0.00013239715
1.6271292e-05
-3.4282051e-05
0.00031608777
2.936501e-05
-8.0381098e-05
0.00058395431
3.8809939e-05
-0.00015106162
0.00088299097
3.9150852e-05
-0.00022521829
0.0011099045
3.2459168e-05
-0.00027025707
0.0011804432
2.5724103e-05
-0.00027392164
0.0010965323
-0.00024929689
0.00092474549
2.4584894e-05
1.3216087e-06
-2.2648584e-06
3.2495505e-05
7.4723114e-06
-1.1781433e-05
0.00014040977
1.9646859e-05
-3.4633388e-05
0.00033472462
3.4668274e-05
-8.0707406e-05
0.00061694254
4.4854265e-05
-0.00014961573
0.0009297241
4.3581002e-05
-0.00021766558
0.0011638501
3.3564833e-05
-0.00025338621
0.0012331924
2.3361609e-05
-0.00024976125
0.0011430434
-0.00022343834
0.00096401331
1.9803081e-05
1.5055482e-06
-2.2438399e-06
3.4040697e-05
8.4926595e-06
-1.1476869e-05
0.00014697133
2.2499038e-05
-3.3231547e-05
0.00035003735
3.8816555e-05
-7.6181096e-05
0.00064418884
4.8918927e-05
-0.00013971792
0.00096843151
4.5527994e-05
-0.00019876618
0.0012084389
3.2424787e-05
-0.00022464424
0.0012765186
1.9796157e-05
-0.00021572757
0.0011809755
-0.00019072334
0.00099575612
1.5358599e-05
1.5717887e-06
-1.9128765e-06
3.5249031e-05
8.9356073e-06
-9.824471e-06
0.00015212868
2.375909e-05
-2.8525171e-05
0.00036215092
4.1033448e-05
-6.5338087e-05
0.00066597488
5.0676451e-05
-0.00011932917
0.00099972575
4.4941843e-05
-0.00016661637
0.0012446098
2.9334272e-05
-0.00018333472
0.0013114769
1.5938692e-05
-0.00017246941
0.001211292
-0.00015226406
0.0010208146
1.2620946e-05
1.727722e-06
-1.3444841e-06
3.6137786e-05
9.7925638e-06
-7.0574285e-06
0.00015594448
2.5983978e-05
-2.0761322e-05
0.00037116076
4.4409288e-05
-4.7651523e-05
0.00068226106
5.2430712e-05
-8.6417788e-05
0.0010235782
4.455909e-05
-0.00012065565
0.0012724683
2.7770525e-05
-0.00013029425
0.0013382933
1.7309205e-05
-0.00012317913
0.0012341908
-0.00010983367
0.0010392918
1.7598927e-05
1.9932374e-06
-6.9006298e-07
3.6773478e-05
1.1056419e-05
-3.6812665e-06
0.00015860212
2.9123727e-05
-1.0940738e-05
0.0003772958
4.9960772e-05
-2.5190785e-05
0.00069313113
5.9847429e-05
-4.5344911e-05
0.0010391716
5.0120379e-05
-6.2419819e-05
0.0012909542
3.4005379e-05
-6.8549113e-05
0.0013559624
2.3764285e-05
-6.5812627e-05
0.0012487653
-5.7667507e-05
0.0010506353
2.1567794e-05
2.1604998e-06
2.2467488e-11
3.7043392e-05
1.1852729e-05
8.2763115e-11
0.00015979687
3.1095078e-05
1.9606864e-10
0.00038018823
5.3396611e-05
3.6965724e-10
0.00069845745
6.489962e-05
5.9796365e-10
0.0010469635
5.7437871e-05
9.116314e-10
0.0013000469
4.031608e-05
1.1604043e-09
0.0013646716
2.6703204e-05
9.8714901e-10
0.0012559347
5.4702168e-10
0.0010563007
2.3295649e-05
2.1605147e-06
6.9010072e-07
3.7043386e-05
1.185261e-05
3.6814215e-06
0.00015979685
3.1094916e-05
1.0941124e-05
0.00038018817
5.3396447e-05
2.5191552e-05
0.00069845733
6.4899533e-05
4.5346184e-05
0.0010469634
5.7437782e-05
6.2421659e-05
0.0013000467
4.0315893e-05
6.8551278e-05
0.0013646714
2.6702986e-05
6.581446e-05
0.0012559346
5.7668619e-05
0.0010563006
2.3295409e-05
1.9933059e-06
1.3445227e-06
3.6773476e-05
1.1056209e-05
7.0575929e-06
0.00015860211
2.9123463e-05
2.0761724e-05
0.00037729577
4.9960375e-05
4.7652362e-05
0.00069313105
5.9847123e-05
8.6419203e-05
0.0010391715
5.0120072e-05
0.00012065745
0.0012909541
3.4004799e-05
0.00013029609
0.0013559622
2.3763739e-05
0.00012318061
0.0012487652
0.00010983479
0.0010506352
2.1567243e-05
1.7278136e-06
1.9129511e-06
3.6137776e-05
9.7924421e-06
9.8247224e-06
0.00015594443
2.5983897e-05
2.8525664e-05
0.00037116066
4.4408742e-05
6.533899e-05
0.00068226085
5.2430105e-05
0.00011933059
0.001023578
4.4558526e-05
0.00016661807
0.001272468
2.7769717e-05
0.00018333636
0.001338293
1.7308583e-05
0.00017247069
0.0012341905
0.00015226504
0.0010392915
1.7598422e-05
1.571686e-06
2.2439128e-06
3.5249024e-05
8.9352444e-06
1.1477094e-05
0.00015212865
2.3758862e-05
3.3231971e-05
0.00036215085
4.1032651e-05
7.6181893e-05
0.00066597475
5.0675488e-05
0.00013971929
0.00099972563
4.4940946e-05
0.00019876803
0.0012446097
2.9333384e-05
0.00022464612
0.0013114767
1.5938208e-05
0.00021572891
0.0012112917
0.00019072378
0.0010208143
1.2620643e-05
1.5051661e-06
2.2648765e-06
3.4040695e-05
8.4917969e-06
1.17815e-05
0.00014697132
2.2498545e-05
3.4633649e-05
0.00035003735
3.881585e-05
8.0708176e-05
0.00064418882
4.891793e-05
0.00014961722
0.00096843151
4.5526913e-05
0.00021766781
0.0012084388
3.2423846e-05
0.00025338859
0.0012765185
1.9795616e-05
0.00024976268
0.0011809753
0.00022343789
0.00099575586
1.5358067e-05
1.3212525e-06
2.1311466e-06
3.2495508e-05
7.471649e-06
1.1384815e-05
0.00014040979
1.9646969e-05
3.4282478e-05
0.00033472466
3.4668213e-05
8.038211e-05
0.00061694257
4.4853612e-05
0.00015106315
0.00092972413
4.3579902e-05
0.00022522057
0.0011638501
3.3563773e-05
0.00027025952
0.0012331923
2.3360673e-05
0.0002739229
0.0011430433
0.00024929581
0.00096401314
1.9802107e-05
1.0001465e-06
2.0209428e-06
3.0602826e-05
5.9086644e-06
1.0889894e-05
0.00013239718
1.6271596e-05
3.272774e-05
0.00031608785
2.9364895e-05
7.7018959e-05
0.00058395442
3.8809585e-05
0.00014666561
0.0008829911
3.9149885e-05
0.00022383076
0.0011099046
3.245812e-05
0.00027653367
0.0011804433
2.5722887e-05
0.00028822954
0.0010965323
0.00026751547
0.00092474537
2.4583922e-05
7.2206742e-07
1.9373288e-06
2.8381168e-05
4.5581242e-06
1.0328449e-05
0.00012295626
1.2855242e-05
3.0738329e-05
0.00029406475
2.3525979e-05
7.2166476e-05
0.00054482266
3.1732968e-05
0.00013856
0.00082726318
3.3403002e-05
0.00021562672
0.0010451027
3.0230153e-05
0.00027355199
0.0011165832
2.7815979e-05
0.00029280202
0.0010398474
0.00027736119
0.00087648945
3.0362899e-05
5.2201075e-07
1.8391929e-06
2.584112e-05
3.4956318e-06
9.6502277e-06
0.00011215066
1.0077818e-05
2.8376786e-05
0.00026880892
1.8775077e-05
6.6229116e-05
0.00049978285
2.6107015e-05
0.00012775965
0.00076272875
2.9261871e-05
0.00020210785
0.0009694025
2.9805251e-05
0.00026260374
0.0010412515
3.2090255e-05
0.0002882324
0.00097225907
0.00027842257
0.00081817019
3.9154773e-05
3.4279261e-07
1.7427427e-06
2.2955023e-05
2.5141137e-06
8.9498287e-06
9.9893868e-05
7.549562e-06
2.5854409e-05
0.00024016503
1.457149e-05
5.9663527e-05
0.00044855951
2.1417152e-05
0.00011509314
0.00068883204
2.6528595e-05
0.00018435976
0.00088175864
3.1431428e-05
0.00024457834
0.00095286838
3.9390082e-05
0.00027465625
0.00089179942
0.00026992683
0.00074772889
5.2255325e-05
2.2368677e-07
1.6265848e-06
1.9849971e-05
1.8223308e-06
8.1536131e-06
8.6633872e-05
5.7209937e-06
2.311788e-05
0.00020895621
1.1548739e-05
5.2659866e-05
0.00039215052
1.8355219e-05
0.0001012052
0.000606179
2.5910564e-05
0.0001634179
0.00078166889
3.6020544e-05
0.00022037342
0.00084947157
5.0946305e-05
0.00025224031
0.00079550972
0.00025142413
0.00066194103
7.0886919e-05
1.8495165e-07
1.6597379e-05
1.4409581e-06
1.4150636e-06
7.2699102e-05
7.1898882e-06
4.5226448e-06
0.00017595023
2.0122707e-05
9.7399107e-06
0.00033173631
4.5182977e-05
1.7268795e-05
0.00051576771
8.6228794e-05
2.8074781e-05
0.00066882176
0.00013980888
4.4260304e-05
0.0007286262
0.00019080183
6.7433674e-05
0.00067921693
0.00022134319
0.00055684647
0.000223681
9.4814177e-05
1.3811768e-07
-9.921566e-07
1.6762115e-05
6.8930014e-07
5.9893654e-07
-4.68104e-06
7.3567726e-05
3.3515961e-06
1.98196e-06
-1.2566919e-05
0.00017792282
9.2112695e-06
5.9021636e-06
-2.7299867e-05
0.00033467798
2.0437847e-05
1.4233279e-05
-5.0881982e-05
0.00051940349
3.8914676e-05
2.7237015e-05
-8.1325621e-05
0.00067352298
6.3620053e-05
4.2471609e-05
-0.00010978815
0.00073522275
8.7956818e-05
5.6527125e-05
-0.00012546113
0.00068773971
0.00010288269
-0.00012374175
0.00056585442
0.00010429871
6.6962312e-05
1.2575637e-07
-1.2459707e-06
1.9978063e-05
5.663533e-07
-5.8515697e-06
8.7363971e-05
2.0390847e-06
-1.5582465e-05
0.00021049936
6.3959878e-06
-3.3470508e-05
0.00039396458
1.5518099e-05
-6.1512955e-05
0.00060768811
2.8979844e-05
-9.6526315e-05
0.00078340861
4.3295895e-05
-0.0001274559
0.00085282427
5.4727819e-05
-0.00014251738
0.00080113449
-0.00013808742
0.00066908717
6.1927568e-05
1.2225504e-07
-1.4405047e-06
2.3027316e-05
5.2683798e-07
-6.7568493e-06
0.00010039466
2.0239328e-06
-1.7960594e-05
0.00024104618
6.7439132e-06
-3.843544e-05
0.00044880426
1.6594439e-05
-7.0074404e-05
0.0006875427
3.051153e-05
-0.00010832547
0.00087964094
4.4185164e-05
-0.00014012443
0.00095186333
5.376933e-05
-0.00015351676
0.00089321563
-0.00014657105
0.00075158072
5.8400945e-05
1.3311139e-07
-1.5754299e-06
2.5842993e-05
5.6788137e-07
-7.3892159e-06
0.00011234837
2.214846e-06
-1.9638743e-05
0.00026884006
7.4256509e-06
-4.1982269e-05
0.00049811874
1.8063396e-05
-7.614695e-05
0.0007581646
3.2473175e-05
-0.00011619331
0.00096286118
4.5731186e-05
-0.00014741666
0.0010352866