/*--------------------------------*- C++ -*----------------------------------*\
| =========                 |                                                 |
| \\      /  F ield         | OpenFOAM: The Open Source CFD Toolbox           |
|  \\    /   O peration     | Version:  2406                                  |
|   \\  /    A nd           | Website:  www.openfoam.com                      |
|    \\/     M anipulation  |                                                 |
\*---------------------------------------------------------------------------*/
FoamFile
{
    version     2.0;
    format      ascii;
    arch        "LSB;label=32;scalar=64";
    class       volVectorField;
    location    "11.5";
    object      U;
}
// * * * * * * * * * * * * * * * * * * * * * * * * * * * * * * * * * * * * * //

dimensions      [0 1 -1 0 0 0 0];

internalField   nonuniform List<vector> 
34560
(
(0.086595156 -0.0073597598 -0.020466265)
(0.26693508 -0.022257786 -0.063533508)
(0.46980924 -0.041829878 -0.10894164)
(0.67248377 -0.066363685 -0.14900631)
(0.84241774 -0.093926492 -0.17490879)
(0.95010179 -0.12100327 -0.18048219)
(0.99010292 -0.14396886 -0.1683115)
(0.98529381 -0.16070113 -0.14746853)
(0.96391009 -0.16891994 -0.12874494)
(0.099450043 -0.0085712107 -0.022830324)
(0.30194385 -0.025017561 -0.070266089)
(0.52307976 -0.045544011 -0.11852565)
(0.73485897 -0.070081814 -0.15841727)
(0.90068922 -0.096258748 -0.1806065)
(0.99271144 -0.1204708 -0.18021313)
(1.0146262 -0.13985353 -0.16194191)
(0.99707245 -0.15213901 -0.13730756)
(0.97145747 -0.1566484 -0.11595308)
(0.11262684 -0.0091010631 -0.024212294)
(0.33746842 -0.026026781 -0.074320732)
(0.57676834 -0.046583117 -0.12400287)
(0.79777789 -0.070404266 -0.1631019)
(0.96078897 -0.094717991 -0.18225549)
(1.0402214 -0.11593988 -0.17770297)
(1.0476415 -0.13193732 -0.15567426)
(1.0212709 -0.14070107 -0.1286596)
(0.9945864 -0.14234951 -0.10600309)
(0.12599449 -0.0095666508 -0.025437016)
(0.37316779 -0.026793511 -0.077859498)
(0.63047787 -0.046996795 -0.12855407)
(0.86100461 -0.069500436 -0.16652776)
(1.0225571 -0.091246143 -0.18261307)
(1.092023 -0.10883902 -0.17434556)
(1.08802 -0.12091326 -0.14913367)
(1.0549344 -0.1261367 -0.12025176)
(1.027382 -0.12516085 -0.096659088)
(0.1390768 -0.0096162563 -0.026301642)
(0.40806465 -0.026561497 -0.080462518)
(0.68324724 -0.04595866 -0.13177742)
(0.92409134 -0.066809124 -0.16855298)
(1.0861076 -0.085701413 -0.18181755)
(1.1483698 -0.099462567 -0.17019733)
(1.1352166 -0.10738459 -0.14205406)
(1.0967294 -0.10920002 -0.11143896)
(1.0682778 -0.10611658 -0.086848106)
(0.15180693 -0.0094574207 -0.026827316)
(0.44209371 -0.025902738 -0.082137318)
(0.73518688 -0.044270423 -0.1336822)
(0.98747083 -0.063208252 -0.16916366)
(1.152141 -0.078988421 -0.17973356)
(1.2096772 -0.088731137 -0.16487652)
(1.1892219 -0.092400653 -0.13380936)
(1.1463502 -0.091067184 -0.10144197)
(1.1171068 -0.086404143 -0.075809403)
(0.16407633 -0.0090493652 -0.027166512)
(0.47515444 -0.024667913 -0.083240105)
(0.78643244 -0.041763206 -0.13462871)
(1.0516325 -0.058628966 -0.16848463)
(1.221364 -0.071247254 -0.17604449)
(1.2763954 -0.077019971 -0.15760915)
(1.2502789 -0.076629891 -0.12339377)
(1.2040302 -0.072582526 -0.089293205)
(1.1741559 -0.066897699 -0.06282461)
(0.17555003 -0.0083312461 -0.027298338)
(0.5066015 -0.022713771 -0.083716158)
(0.83637553 -0.03825069 -0.13449794)
(1.1162153 -0.052930034 -0.1662306)
(1.2936423 -0.062523788 -0.17016913)
(1.3482856 -0.064680791 -0.14752182)
(1.3181897 -0.060797118 -0.10991594)
(1.2696061 -0.05470437 -0.074275708)
(1.2392333 -0.048604573 -0.047502007)
(0.18591051 -0.0072374143 -0.027247041)
(0.53564437 -0.01981839 -0.083594395)
(0.88384029 -0.033331818 -0.1332426)
(1.1796854 -0.04560892 -0.16217422)
(1.3670483 -0.052456306 -0.16166358)
(1.4230441 -0.051748101 -0.13407435)
(1.390914 -0.045504996 -0.093101149)
(1.3410339 -0.038358809 -0.05642864)
(1.3102631 -0.032512922 -0.030134684)
(0.19467685 -0.0057287648 -0.02705735)
(0.56080347 -0.015791868 -0.082983615)
(0.92607762 -0.026568064 -0.13105876)
(1.2377336 -0.036023992 -0.15664576)
(1.4357812 -0.04046581 -0.15113645)
(1.4947742 -0.038088658 -0.11817324)
(1.4625738 -0.031224545 -0.074282334)
(1.4126133 -0.024353612 -0.037278106)
(1.3812587 -0.019461565 -0.012295669)
(0.2013361 -0.0037622757 -0.026859194)
(0.58014045 -0.010415076 -0.082262497)
(0.95900907 -0.017490864 -0.1287029)
(1.283665 -0.023508353 -0.15104115)
(1.4907549 -0.025910103 -0.14085009)
(1.5535572 -0.023466984 -0.10308982)
(1.5223854 -0.01805099 -0.057043252)
(1.4734941 -0.013036978 -0.020300813)
(1.4414621 -0.0097878312 0.0030373821)
(0.20475355 -0.0012686958 -0.026710819)
(0.59033965 -0.0035174222 -0.081750005)
(0.9768186 -0.0059448984 -0.12717118)
(1.3090599 -0.0080181506 -0.14751856)
(1.5215509 -0.0087998673 -0.13444724)
(1.5872153 -0.0078275168 -0.093768149)
(1.5572589 -0.0058019173 -0.046545392)
(1.5092658 -0.0039929573 -0.010167128)
(1.4766002 -0.0028830905 0.012017068)
(0.20475353 0.0012686919 -0.026710802)
(0.5903396 0.0035173445 -0.081749965)
(0.97681849 0.0059446899 -0.12717114)
(1.3090597 0.0080178098 -0.14751854)
(1.5215507 0.0087993399 -0.13444721)
(1.587215 0.0078268201 -0.093768123)
(1.5572587 0.0058011017 -0.046545374)
(1.5092655 0.0039920671 -0.010167127)
(1.4765998 0.0028822133 0.012017062)
(0.20133606 0.0037622495 -0.026859161)
(0.58014033 0.010414963 -0.082262417)
(0.95900875 0.017490637 -0.12870283)
(1.2836644 0.023507998 -0.1510411)
(1.4907543 0.025909578 -0.14084998)
(1.5535566 0.023466299 -0.10308974)
(1.5223847 0.018050167 -0.057043184)
(1.4734933 0.013036073 -0.020300808)
(1.4414611 0.0097869747 0.0030373513)
(0.1946768 0.0057287568 -0.027057326)
(0.56080329 0.0157918 -0.082983554)
(0.9260772 0.026567889 -0.13105871)
(1.237733 0.036023656 -0.15664568)
(1.4357806 0.040465317 -0.15113627)
(1.4947735 0.03808801 -0.11817306)
(1.4625729 0.03122373 -0.07428217)
(1.4126122 0.024352704 -0.037278066)
(1.3812573 0.01946073 -0.012295718)
(0.18591047 0.0072374199 -0.027247008)
(0.53564424 0.019818361 -0.083594303)
(0.88384004 0.033331707 -0.13324243)
(1.179685 0.045608641 -0.162174)
(1.3670478 0.052455898 -0.16166331)
(1.4230434 0.051747536 -0.13407405)
(1.3909132 0.045504248 -0.093100862)
(1.3410329 0.03835795 -0.05642854)
(1.3102617 0.0325121 -0.03013469)
(0.17555001 0.0083312415 -0.027298319)
(0.50660145 0.022713735 -0.083716081)
(0.8363754 0.038250613 -0.13449775)
(1.116215 0.052929834 -0.16623036)
(1.2936418 0.062523489 -0.17016883)
(1.3482851 0.064680365 -0.14752141)
(1.3181891 0.060796552 -0.10991555)
(1.2696052 0.054703666 -0.074275531)
(1.239232 0.048603784 -0.047501905)
(0.1640763 0.0090493762 -0.02716651)
(0.47515434 0.024667902 -0.083240073)
(0.7864323 0.041763142 -0.13462858)
(1.0516322 0.058628784 -0.16848445)
(1.2213635 0.07124697 -0.17604417)
(1.2763949 0.077019654 -0.15760871)
(1.2502783 0.076629537 -0.12339336)
(1.2040293 0.072582021 -0.08929292)
(1.1741548 0.066896967 -0.062824365)
(0.15180691 0.009457417 -0.026827272)
(0.44209365 0.025902719 -0.082137193)
(0.73518691 0.044270374 -0.133682)
(0.98747092 0.063208097 -0.16916348)
(1.1521408 0.078988152 -0.17973331)
(1.2096768 0.088730882 -0.16487622)
(1.1892213 0.092400406 -0.133809)
(1.1463495 0.091066809 -0.10144154)
(1.1171059 0.086403526 -0.075809039)
(0.13907679 0.0096162233 -0.026301599)
(0.40806461 0.026561436 -0.080462398)
(0.6832472 0.045958572 -0.13177724)
(0.92409117 0.066808946 -0.1685528)
(1.0861071 0.085701124 -0.18181735)
(1.1483693 0.099462267 -0.17019708)
(1.1352161 0.1073843 -0.14205368)
(1.096729 0.1091997 -0.11143843)
(1.068277 0.10611621 -0.086847689)
(0.12599446 0.0095666309 -0.025436957)
(0.37316768 0.026793474 -0.077859344)
(0.63047771 0.046996724 -0.12855385)
(0.86100448 0.06950024 -0.16652758)
(1.022557 0.0912458 -0.18261292)
(1.0920228 0.10883856 -0.17434531)
(1.0880197 0.1209128 -0.14913331)
(1.054934 0.12613637 -0.12025136)
(1.0273813 0.12516073 -0.096658704)
(0.11262682 0.0091010235 -0.024212247)
(0.33746835 0.026026711 -0.074320602)
(0.57676821 0.046583012 -0.12400268)
(0.79777777 0.070404058 -0.16310171)
(0.96078896 0.094717624 -0.18225533)
(1.0402213 0.11593933 -0.17770274)
(1.0476411 0.13193661 -0.15567398)
(1.0212703 0.14070047 -0.12865938)
(0.99458592 0.14234938 -0.10600274)
(0.099450029 0.008571188 -0.02283031)
(0.3019438 0.025017532 -0.070266028)
(0.52307964 0.045543955 -0.11852555)
(0.73485881 0.070081695 -0.15841714)
(0.90068916 0.096258521 -0.18060636)
(0.99271143 0.12047041 -0.18021291)
(1.0146259 0.13985288 -0.16194165)
(0.99707219 0.15213814 -0.13730746)
(0.97145691 0.15664776 -0.11595268)
(0.086595136 0.0073597638 -0.020466267)
(0.26693501 0.022257808 -0.063533502)
(0.4698091 0.041829899 -0.10894164)
(0.67248357 0.066363696 -0.14900632)
(0.84241756 0.093926482 -0.17490879)
(0.95010163 0.12100319 -0.18048212)
(0.99010266 0.14396865 -0.16831124)
(0.98529345 0.16070059 -0.14746827)
(0.9639092 0.16891936 -0.12874475)
(0.1096561 -0.002283072 -0.0022459841)
(0.34827537 -0.0080980175 -0.0081813088)
(0.63041972 -0.016507568 -0.017122393)
(0.92847645 -0.027900245 -0.029361802)
(1.1982476 -0.04184473 -0.043329236)
(1.3974168 -0.056575113 -0.055347394)
(1.5094698 -0.069997575 -0.061989926)
(1.5502754 -0.081385069 -0.062868159)
(1.5475327 -0.090596164 -0.060533885)
(0.12165332 -0.0031386043 -0.0027634259)
(0.3833857 -0.010851434 -0.0098697331)
(0.68747023 -0.021470309 -0.020370613)
(0.99974024 -0.035055167 -0.034336507)
(1.2698956 -0.050600166 -0.049484581)
(1.4551357 -0.06581295 -0.061531439)
(1.5455414 -0.078774628 -0.067242326)
(1.5658493 -0.089130951 -0.066977069)
(1.549401 -0.096937023 -0.06318958)
(0.13276403 -0.0037143156 -0.0029065943)
(0.41586462 -0.012805308 -0.010475681)
(0.74002338 -0.025089051 -0.021836446)
(1.0648428 -0.040321494 -0.036894759)
(1.3346718 -0.056955879 -0.05280917)
(1.5070953 -0.072272524 -0.06486253)
(1.5788238 -0.084446477 -0.069979483)
(1.5826996 -0.093466638 -0.069041509)
(1.5571483 -0.099610774 -0.064599282)
(0.143129 -0.004360537 -0.0030337866)
(0.44599436 -0.014872333 -0.010976222)
(0.78848997 -0.028715651 -0.023051339)
(1.1245834 -0.045292203 -0.038960502)
(1.3941758 -0.062524551 -0.055320299)
(1.5557627 -0.077372027 -0.067115652)
(1.6121478 -0.088215019 -0.071515346)
(1.6025084 -0.095594572 -0.06994115)
(1.569086 -0.10002344 -0.06506551)
(0.15232339 -0.0049443546 -0.0030581834)
(0.47284368 -0.016734891 -0.011148817)
(0.83188113 -0.03195273 -0.023688072)
(1.1784311 -0.049605877 -0.040194246)
(1.4485266 -0.067061061 -0.056794671)
(1.6015153 -0.080997035 -0.068204453)
(1.6454641 -0.090122612 -0.071806697)
(1.6245359 -0.095582155 -0.069501154)
(1.5839607 -0.098289384 -0.06414884)
(0.16059266 -0.0054855628 -0.0029537992)
(0.49705561 -0.018435454 -0.0109202)
(0.87117837 -0.03481342 -0.023565303)
(1.2276055 -0.053206301 -0.040326807)
(1.4989468 -0.070407799 -0.056867559)
(1.6451118 -0.082902584 -0.067658889)
(1.6787562 -0.08994379 -0.070313967)
(1.648116 -0.093314671 -0.067157166)
(1.6010172 -0.094361162 -0.061282433)
(0.16818405 -0.0059213806 -0.0027439489)
(0.51936009 -0.019780051 -0.010355155)
(0.90755057 -0.036976476 -0.022684096)
(1.2736346 -0.05568193 -0.039229073)
(1.5470102 -0.072090795 -0.055207786)
(1.6876362 -0.082606936 -0.064908524)
(1.7123205 -0.087253105 -0.066329951)
(1.6730294 -0.08851391 -0.062259508)
(1.6200754 -0.088072725 -0.055940157)
(0.17501036 -0.0061115416 -0.002401889)
(0.539743 -0.020340673 -0.0092944973)
(0.94144304 -0.037862332 -0.021148325)
(1.3174116 -0.056035762 -0.036420066)
(1.5938438 -0.071018482 -0.051122783)
(1.7299864 -0.07918493 -0.059201616)
(1.7465129 -0.081395835 -0.059136908)
(1.699401 -0.080777965 -0.054237644)
(1.6413204 -0.079116951 -0.047682617)
(0.18112693 -0.0059501028 -0.0019607787)
(0.55841398 -0.019667809 -0.0078199417)
(0.97333507 -0.036370035 -0.018341275)
(1.3596931 -0.053398284 -0.032550157)
(1.6399322 -0.065843575 -0.04416974)
(1.7722787 -0.071481023 -0.050023883)
(1.7811148 -0.071589781 -0.048394862)
(1.7269708 -0.069551494 -0.042842331)
(1.664608 -0.067072569 -0.036336603)
(0.18644293 -0.0052166197 -0.0014187107)
(0.57503017 -0.017074312 -0.0059681402)
(1.0024988 -0.031273892 -0.014564495)
(1.3996924 -0.045359762 -0.026135156)
(1.683938 -0.055310186 -0.035424832)
(1.8127169 -0.058279566 -0.037700664)
(1.8143619 -0.05695994 -0.034647439)
(1.7542798 -0.054162133 -0.028554642)
(1.6889595 -0.051342556 -0.021904235)
(0.19084516 -0.0036866279 -0.0008744254)
(0.58868009 -0.011940487 -0.0040756815)
(1.0264385 -0.021672133 -0.010637034)
(1.4328088 -0.031092163 -0.019379937)
(1.721362 -0.037393061 -0.025261655)
(1.8466715 -0.038884624 -0.024500961)
(1.8423498 -0.037032337 -0.020221087)
(1.7784314 -0.034390795 -0.013034747)
(1.7114974 -0.032250831 -0.0087646034)
(0.19301373 -0.0013471368 -0.00053593375)
(0.59573731 -0.0043373908 -0.0028849827)
(1.0393235 -0.0078290117 -0.0081013615)
(1.4512611 -0.011162051 -0.014987773)
(1.7428745 -0.013322273 -0.018654569)
(1.8673903 -0.013725322 -0.015890063)
(1.8597769 -0.012867038 -0.0097235969)
(1.7935765 -0.011772726 -0.0039781085)
(1.7251585 -0.011006106 -0.0011023616)
(0.19301372 0.0013472022 -0.00053593566)
(0.59573728 0.0043375408 -0.0028849659)
(1.0393234 0.0078291966 -0.0081013392)
(1.451261 0.011162207 -0.014987753)
(1.7428744 0.013322341 -0.018654563)
(1.8673901 0.013725394 -0.015890087)
(1.8597767 0.012867215 -0.0097236117)
(1.7935763 0.011772927 -0.0039780917)
(1.7251583 0.011006312 -0.0011023333)
(0.19084514 0.0036866674 -0.00087443135)
(0.58868002 0.011940584 -0.0040756698)
(1.0264384 0.021672272 -0.010637013)
(1.4328085 0.031092302 -0.019379908)
(1.7213617 0.037393137 -0.025261628)
(1.8466712 0.038884678 -0.024500993)
(1.8423494 0.037032467 -0.020221107)
(1.778431 0.034390931 -0.013034705)
(1.7114969 0.032251044 -0.008764555)
(0.1864429 0.0052166562 -0.0014187176)
(0.57503007 0.017074391 -0.0059681755)
(1.0024986 0.031274005 -0.014564519)
(1.399692 0.045359874 -0.026135137)
(1.6839377 0.055310269 -0.035424753)
(1.8127166 0.058279617 -0.037700619)
(1.8143615 0.05695998 -0.034647377)
(1.7542793 0.054162202 -0.028554587)
(1.6889588 0.051342761 -0.021904227)
(0.18112689 0.0059501528 -0.0019607671)
(0.55841386 0.019667897 -0.0078199541)
(0.97333486 0.036370132 -0.018341249)
(1.3596928 0.053398362 -0.03255009)
(1.639932 0.06584368 -0.044169588)
(1.7722785 0.071481084 -0.05002372)
(1.7811146 0.071589787 -0.048394706)
(1.7269704 0.069551509 -0.042842276)
(1.6646073 0.067072716 -0.036336606)
(0.17501034 0.0061115685 -0.0024018478)
(0.53974296 0.020340715 -0.0092944135)
(0.94144299 0.037862381 -0.021148189)
(1.3174115 0.056035804 -0.036419971)
(1.5938437 0.071018586 -0.051122615)
(1.7299862 0.079185049 -0.059201376)
(1.7465128 0.081395918 -0.059136697)
(1.6994007 0.080778 -0.054237577)
(1.6413199 0.079116976 -0.047682563)
(0.16818404 0.0059213803 -0.002743919)
(0.51936005 0.019780064 -0.010355082)
(0.90755052 0.036976507 -0.022684034)
(1.2736344 0.055681936 -0.039229079)
(1.54701 0.072090852 -0.055207691)
(1.687636 0.082607099 -0.064908301)
(1.7123204 0.087253292 -0.06632973)
(1.6730292 0.088513991 -0.062259366)
(1.6200751 0.088072644 -0.05593998)
(0.16059263 0.0054855653 -0.0029537967)
(0.49705554 0.01843549 -0.010920182)
(0.87117828 0.034813472 -0.023565288)
(1.2276054 0.053206307 -0.04032681)
(1.4989466 0.070407819 -0.056867521)
(1.6451117 0.082902732 -0.067658758)
(1.6787561 0.089943997 -0.070313762)
(1.6481159 0.093314764 -0.067156923)
(1.601017 0.09436109 -0.061282185)
(0.15232338 0.0049443567 -0.0030581617)
(0.47284366 0.01673493 -0.011148728)
(0.8318811 0.031952791 -0.023687939)
(1.1784311 0.049605895 -0.040194195)
(1.4485265 0.067061053 -0.056794691)
(1.6015152 0.080997114 -0.068204401)
(1.645464 0.090122769 -0.071806529)
(1.6245359 0.095582247 -0.069500932)
(1.5839605 0.098289415 -0.064148622)
(0.14312897 0.0043605301 -0.003033768)
(0.44599428 0.01487235 -0.010976157)
(0.78848985 0.028715682 -0.023051278)
(1.1245833 0.045292201 -0.038960515)
(1.3941757 0.062524493 -0.055320375)
(1.5557626 0.077372018 -0.067115685)
(1.6121478 0.088215137 -0.071515316)
(1.6025083 0.095594742 -0.069941144)
(1.569086 0.10002351 -0.065065366)
(0.13276401 0.0037143172 -0.0029065871)
(0.41586456 0.01280535 -0.010475654)
(0.74002328 0.025089139 -0.021836404)
(1.0648427 0.040321566 -0.036894759)
(1.3346718 0.056955869 -0.052809293)
(1.5070952 0.072272468 -0.064862745)
(1.5788236 0.084446447 -0.069979714)
(1.5826993 0.093466663 -0.069041614)
(1.5571482 0.099610835 -0.064599142)
(0.12165331 0.0031386091 -0.0027634242)
(0.38338566 0.010851471 -0.0098697303)
(0.68747017 0.021470391 -0.02037061)
(0.99974018 0.035055246 -0.034336572)
(1.2698956 0.050600184 -0.049484772)
(1.4551357 0.065812878 -0.061531694)
(1.5455413 0.078774487 -0.067242564)
(1.5658492 0.089130703 -0.066977265)
(1.5494008 0.096936705 -0.063189454)
(0.10965608 0.0022830795 -0.0022459825)
(0.3482753 0.0080980475 -0.0081813108)
(0.63041958 0.016507632 -0.017122406)
(0.92847625 0.027900328 -0.02936188)
(1.1982474 0.041844819 -0.043329416)
(1.3974167 0.056575141 -0.055347692)
(1.5094697 0.069997542 -0.06199028)
(1.5502756 0.081385038 -0.062868491)
(1.5475326 0.090596182 -0.060533932)
(0.090893866 -0.00098627879 -0.00090621593)
(0.29183368 -0.0035230577 -0.0032508546)
(0.53574543 -0.0073485174 -0.0066642261)
(0.80330411 -0.012861717 -0.011248747)
(1.0565636 -0.020301305 -0.016464468)
(1.2498717 -0.029097422 -0.021049855)
(1.3547886 -0.037708016 -0.023654308)
(1.3795503 -0.04459251 -0.024134913)
(1.3542614 -0.048776256 -0.023471464)
(0.099177452 -0.001104705 -0.00090860074)
(0.31657347 -0.0039621242 -0.0032978985)
(0.57707511 -0.0082700787 -0.0068753546)
(0.85650638 -0.014428219 -0.011762651)
(1.1106627 -0.022515298 -0.017215526)
(1.2906003 -0.031553538 -0.021650353)
(1.3721651 -0.039708816 -0.023624735)
(1.373283 -0.045608976 -0.023315319)
(1.3323584 -0.048930228 -0.021974194)
(0.10676774 -0.0011165961 -0.00081152603)
(0.33936714 -0.0041143903 -0.0030637992)
(0.61528442 -0.0087453195 -0.00663728)
(0.90567737 -0.015416233 -0.01169391)
(1.1604622 -0.024001812 -0.017316097)
(1.3281036 -0.033089366 -0.021616325)
(1.389242 -0.040595204 -0.023058537)
(1.37101 -0.045385556 -0.022071164)
(1.3196407 -0.047740584 -0.020239213)
(0.11373186 -0.0011662557 -0.00075284014)
(0.36026274 -0.0043570047 -0.0029234623)
(0.65030291 -0.009335235 -0.0065306083)
(0.95077555 -0.01648993 -0.011749397)
(1.2063961 -0.025442102 -0.017468906)
(1.3636773 -0.034337613 -0.021532137)
(1.4079322 -0.040936398 -0.022388507)
(1.3742372 -0.044451301 -0.020747673)
(1.3146351 -0.045753405 -0.018479437)
(0.1197033 -0.0012085105 -0.00069230017)
(0.3783622 -0.0045758044 -0.0027734088)
(0.68094742 -0.009877698 -0.0063933785)
(0.99070035 -0.017467488 -0.011736356)
(1.2477548 -0.026658693 -0.017501761)
(1.3969849 -0.035148335 -0.021276167)
(1.4278537 -0.040640171 -0.021527748)
(1.3819291 -0.042824059 -0.019274699)
(1.3156605 -0.043061593 -0.01661201)
(0.12488239 -0.0012620845 -0.00063047107)
(0.39414021 -0.0047916504 -0.002582078)
(0.7078275 -0.010379275 -0.0061860835)
(1.0260385 -0.018299213 -0.011554832)
(1.2849458 -0.027532093 -0.01725311)
(1.4280267 -0.035360916 -0.020653297)
(1.448367 -0.039576667 -0.020278812)
(1.3928252 -0.040430865 -0.017450734)
(1.32107 -0.039752396 -0.014491204)
(0.12943069 -0.0013457193 -0.00058967229)
(0.40799526 -0.0050195202 -0.0023900133)
(0.73157028 -0.010795719 -0.0059593635)
(1.0575377 -0.018816264 -0.011184693)
(1.3186431 -0.027796138 -0.016592555)
(1.4570722 -0.034713827 -0.01946711)
(1.469024 -0.037559331 -0.018429322)
(1.4058167 -0.037193048 -0.015101346)
(1.3295441 -0.035806528 -0.011987177)
(0.13321336 -0.0013992501 -0.00053275429)
(0.41965083 -0.0050836644 -0.0021629578)
(0.7518591 -0.010674183 -0.0052421694)
(1.0852239 -0.018620701 -0.010531342)
(1.3491757 -0.026993043 -0.015401333)
(1.484377 -0.03277524 -0.017529016)
(1.4895765 -0.034298395 -0.01583401)
(1.4200774 -0.032954736 -0.012161873)
(1.3399483 -0.031160029 -0.009151223)
(0.13621974 -0.001305567 -0.00042016723)
(0.42903116 -0.004706792 -0.0017853514)
(0.7684503 -0.0097916271 -0.0045365901)
(1.1086651 -0.016736803 -0.0087064548)
(1.3762967 -0.024477021 -0.01379233)
(1.5096581 -0.029032585 -0.015033333)
(1.5094302 -0.029450954 -0.012678989)
(1.4346034 -0.027556415 -0.0089430941)
(1.3509751 -0.025728106 -0.0064817764)
(0.13847876 -0.001019902 -0.00029338506)
(0.436156 -0.0037420587 -0.0013598254)
(0.78117031 -0.007888271 -0.0038236369)
(1.1267585 -0.013532492 -0.0076886259)
(1.398486 -0.019340423 -0.011481037)
(1.5314897 -0.022986247 -0.012748462)
(1.5271708 -0.022799994 -0.0097854283)
(1.4477418 -0.021037316 -0.0064701511)
(1.3605943 -0.019656821 -0.0055814115)
(0.14026721 -0.00063421624 -0.00020381093)
(0.44158461 -0.0023784626 -0.001067085)
(0.79055832 -0.0050855063 -0.0033336392)
(1.1397058 -0.0087878728 -0.0070406328)
(1.4136114 -0.012530927 -0.010703559)
(1.5473256 -0.014590603 -0.011775093)
(1.5403464 -0.014505443 -0.0084511373)
(1.4567878 -0.013503343 -0.0066169059)
(1.3663591 -0.012583523 -0.0051766022)
(0.14099241 -0.00021591129 -0.00016249242)
(0.44396907 -0.00081742014 -0.00093196545)
(0.79495755 -0.0017567967 -0.0031164314)
(1.1460796 -0.0030403008 -0.0067509924)
(1.4211904 -0.0043304157 -0.010377319)
(1.5547558 -0.0050162466 -0.011510172)
(1.5464757 -0.0050078383 -0.0091943885)
(1.4608467 -0.0047043654 -0.0064108789)
(1.3690967 -0.0043462934 -0.0048356012)
(0.1409924 0.0002159356 -0.00016249664)
(0.44396904 0.00081748699 -0.00093196299)
(0.7949575 0.0017569202 -0.0031164123)
(1.1460795 0.0030404884 -0.0067509681)
(1.4211903 0.004330661 -0.010377303)
(1.5547557 0.0050165557 -0.011510169)
(1.5464756 0.0050081887 -0.0091943709)
(1.4608466 0.0047046503 -0.0064108471)
(1.3690966 0.0043464676 -0.0048355572)
(0.1402672 0.00063423452 -0.00020381708)
(0.44158455 0.002378516 -0.0010670843)
(0.7905582 0.0050856238 -0.0033336092)
(1.1397056 0.0087880734 -0.007040593)
(1.4136112 0.012531196 -0.01070352)
(1.5473254 0.014590911 -0.011775072)
(1.5403462 0.014505737 -0.008451071)
(1.4567875 0.013503595 -0.0066168181)
(1.3663588 0.01258371 -0.0051764974)
(0.13847874 0.0010199341 -0.00029338585)
(0.43615592 0.0037421348 -0.0013598429)
(0.78117017 0.0078884116 -0.0038236401)
(1.1267583 0.013532714 -0.0076886181)
(1.3984858 0.019340713 -0.011480988)
(1.5314894 0.022986532 -0.012748406)
(1.5271705 0.022800252 -0.0097853336)
(1.4477414 0.021037518 -0.006470044)
(1.3605939 0.019657004 -0.0055813023)
(0.13621972 0.0013056167 -0.00042015755)
(0.42903109 0.0047068977 -0.0017853601)
(0.76845019 0.0097917866 -0.0045365813)
(1.1086649 0.016737022 -0.0087064456)
(1.3762966 0.024477305 -0.013792252)
(1.5096579 0.029032897 -0.015033232)
(1.50943 0.029451232 -0.012678872)
(1.434603 0.027556619 -0.0089430024)
(1.3509746 0.025728226 -0.0064817063)
(0.13321335 0.001399284 -0.00053272907)
(0.41965078 0.0050837414 -0.0021629138)
(0.75185905 0.010674312 -0.0052421026)
(1.0852237 0.018620884 -0.010531327)
(1.3491756 0.026993334 -0.015401279)
(1.4843769 0.032775619 -0.017528921)
(1.4895763 0.034298752 -0.015833897)
(1.420077 0.032954965 -0.012161779)
(1.3399478 0.031160046 -0.0091511061)
(0.12943068 0.0013457346 -0.00058965299)
(0.40799523 0.0050195832 -0.0023899697)
(0.73157026 0.010795847 -0.0059593568)
(1.0575376 0.018816447 -0.011184779)
(1.318643 0.027796431 -0.016592598)
(1.457072 0.034714246 -0.01946707)
(1.4690238 0.037559751 -0.018429221)
(1.4058164 0.037193289 -0.015101194)
(1.3295437 0.035806476 -0.011986932)
(0.12488238 0.0012621096 -0.00063048272)
(0.39414018 0.0047917402 -0.002582122)
(0.70782744 0.010379435 -0.0061861594)
(1.0260384 0.018299412 -0.011554933)
(1.2849456 0.027532386 -0.017253187)
(1.4280265 0.035361321 -0.020653311)
(1.4483668 0.039577083 -0.020278728)
(1.392825 0.040431097 -0.017450536)
(1.3210697 0.039752391 -0.014490915)
(0.11970328 0.0012085356 -0.00069230199)
(0.37836215 0.0045759038 -0.0027733938)
(0.68094732 0.0098778831 -0.0063933362)
(0.99070021 0.017467714 -0.011736389)
(1.2477546 0.026658981 -0.017501884)
(1.3969846 0.035148707 -0.021276243)
(1.4278536 0.040640562 -0.021527719)
(1.381929 0.042824317 -0.019274584)
(1.3156602 0.0430617 -0.016611819)
(0.11373185 0.0011662723 -0.00075283963)
(0.36026268 0.0043570785 -0.0029234619)
(0.6503028 0.009335382 -0.0065306364)
(0.95077542 0.01649013 -0.011749515)
(1.2063959 0.025442346 -0.017469083)
(1.3636771 0.034337949 -0.021532282)
(1.407932 0.040936786 -0.022388628)
(1.374237 0.044451679 -0.020747795)
(1.3146348 0.045753611 -0.018479333)
(0.10676773 0.0011166243 -0.00081153851)
(0.33936709 0.0041144944 -0.0030638333)
(0.61528433 0.0087455208 -0.0066373289)
(0.90567725 0.015416488 -0.011694019)
(1.1604621 0.02400207 -0.017316325)
(1.3281034 0.033089663 -0.021616652)
(1.3892417 0.040595536 -0.023058956)
(1.3710095 0.045385866 -0.022071457)
(1.3196404 0.047740709 -0.020239034)
(0.099177442 0.0011047329 -0.0009086177)
(0.31657343 0.0039622262 -0.003297944)
(0.57707502 0.0082702733 -0.00687543)
(0.85650622 0.014428469 -0.011762814)
(1.1106625 0.022515541 -0.01721584)
(1.2906001 0.031553739 -0.021650789)
(1.3721648 0.039708973 -0.023625186)
(1.3732827 0.045608931 -0.023315412)
(1.3323579 0.048929936 -0.021973914)
(0.090893855 0.00098630345 -0.00090623291)
(0.29183362 0.0035231363 -0.0032509118)
(0.53574531 0.0073486634 -0.0066643337)
(0.80330389 0.012861912 -0.011248943)
(1.0565634 0.020301517 -0.016464776)
(1.2498715 0.029097598 -0.021050263)
(1.3547883 0.037708176 -0.023654668)
(1.3795502 0.044592563 -0.024134982)
(1.3542612 0.048776177 -0.023471481)
(0.10117011 -0.00054399789 -0.00050149875)
(0.32327777 -0.0018681469 -0.001701208)
(0.58985642 -0.0037538856 -0.0033382956)
(0.87791233 -0.00629291 -0.0055149158)
(1.1467616 -0.0094088597 -0.0082919089)
(1.3514853 -0.012772821 -0.011415263)
(1.4661911 -0.015795934 -0.014165082)
(1.5000967 -0.018041944 -0.015748437)
(1.4822771 -0.019331598 -0.016187801)
(0.11011855 -0.00074081947 -0.000603163)
(0.34956148 -0.0024857977 -0.0020062093)
(0.63277183 -0.0048786537 -0.0038602024)
(0.9315155 -0.0079577645 -0.006282369)
(1.1994329 -0.0115442 -0.0093300661)
(1.3895598 -0.015130654 -0.012668856)
(1.4807184 -0.017984357 -0.0154356)
(1.4914099 -0.019746932 -0.016854628)
(1.4585428 -0.020485116 -0.01684201)
(0.11811411 -0.00085533165 -0.00060475823)
(0.37308275 -0.0028690623 -0.0020176825)
(0.6711282 -0.0056116407 -0.0038891809)
(0.97912218 -0.0090844061 -0.0063754249)
(1.2455971 -0.013010453 -0.0095647778)
(1.4221783 -0.016702883 -0.013066398)
(1.4927164 -0.019307157 -0.015907078)
(1.4844182 -0.020567931 -0.017318925)
(1.4415969 -0.020830177 -0.017255192)
(0.1252785 -0.00095092468 -0.00058462086)
(0.39406316 -0.0031788854 -0.001952214)
(0.70518707 -0.0061861844 -0.0037748222)
(1.0212224 -0.0099470487 -0.0062532743)
(1.2864081 -0.014096239 -0.009510831)
(1.4515007 -0.017772769 -0.01310944)
(1.505098 -0.020030664 -0.016003253)
(1.4817915 -0.020759832 -0.017463647)
(1.431321 -0.020575549 -0.017462861)
(0.13122772 -0.0010008693 -0.00053380558)
(0.41159798 -0.0033510639 -0.0017928824)
(0.73382677 -0.0065205078 -0.0035023839)
(1.0568699 -0.010469018 -0.0059178757)
(1.3213593 -0.014747235 -0.0092019937)
(1.4773941 -0.018319887 -0.012869978)
(1.5177279 -0.020176202 -0.015817574)
(1.4828583 -0.020382375 -0.017357062)
(1.4264089 -0.0197961 -0.017477406)
(0.13620345 -0.001014547 -0.00045849438)
(0.42626435 -0.0034050143 -0.001555021)
(0.75779729 -0.0066319755 -0.0030958941)
(1.0867835 -0.010652772 -0.0053951741)
(1.3509361 -0.014945234 -0.0086590319)
(1.4999184 -0.018317383 -0.012365342)
(1.5300233 -0.01973294 -0.015367705)
(1.4864046 -0.019455603 -0.017014626)
(1.4253718 -0.018535684 -0.017291198)
(0.14039141 -0.00098985393 -0.0003742456)
(0.4385388 -0.0033290664 -0.0012823523)
(0.77777775 -0.0064948744 -0.0026160907)
(1.1116987 -0.010450667 -0.004742985)
(1.3757269 -0.014622641 -0.0079217633)
(1.5192513 -0.01769785 -0.011618181)
(1.5415182 -0.018659576 -0.014669698)
(1.491365 -0.017970169 -0.016452846)
(1.4268687 -0.016817877 -0.016923407)
(0.14369273 -0.00090789566 -0.00028029691)
(0.44826765 -0.0030682269 -0.00097518976)
(0.79372224 -0.0060145787 -0.0020611189)
(1.1317988 -0.0097354034 -0.0039653349)
(1.3960911 -0.013632651 -0.0069942374)
(1.5356429 -0.016336584 -0.010642896)
(1.5520014 -0.016883088 -0.013757156)
(1.4969621 -0.015899364 -0.015725838)
(1.4298496 -0.014628803 -0.016442635)
(0.14617637 -0.00075525971 -0.00018356126)
(0.45565212 -0.0025792601 -0.0006577224)
(0.80596549 -0.0051076628 -0.0014788352)
(1.147495 -0.0083546162 -0.0030995719)
(1.4123956 -0.011804579 -0.0059694461)
(1.5492474 -0.014083728 -0.0095522677)
(1.5612337 -0.014317841 -0.01275885)
(1.502518 -0.013212121 -0.014976776)
(1.433386 -0.011969924 -0.01599624)
(0.14793484 -0.00054222617 -9.9882771e-05)
(0.460946 -0.0018895816 -0.00038465654)
(0.81485945 -0.0038098811 -0.00098427747)
(1.1590942 -0.0063415313 -0.002373566)
(1.4247609 -0.0091102535 -0.0050650516)
(1.5599172 -0.010856247 -0.0086090483)
(1.5687788 -0.010925558 -0.011922643)
(1.5073307 -0.00993555 -0.014450272)
(1.4366361 -0.0088972013 -0.01578249)
(0.14931004 -0.00031386153 -4.6554267e-05)
(0.46489146 -0.0011211529 -0.00021518865)
(0.82122767 -0.002307892 -0.00069671436)
(1.1671561 -0.0039229078 -0.0019770974)
(1.4332845 -0.0057951404 -0.0046379441)
(1.5673141 -0.0069637703 -0.0082283988)
(1.5740279 -0.006844541 -0.011492569)
(1.5107079 -0.0061829219 -0.014321478)
(1.438946 -0.0054919052 -0.015744069)
(0.14977103 -0.00010185667 -2.5197077e-05)
(0.46637844 -0.00037079958 -0.00014829078)
(0.82387631 -0.00077646977 -0.0005911011)
(1.1708123 -0.0013502154 -0.0018750043)
(1.4373768 -0.0019715127 -0.0044415903)
(1.5709748 -0.002360974 -0.0080137401)
(1.576659 -0.0023202199 -0.011391136)
(1.5124244 -0.0020971112 -0.014277244)
(1.4401353 -0.0018557773 -0.015732738)
(0.14977103 0.00010189784 -2.520134e-05)
(0.46637844 0.00037090736 -0.00014829245)
(0.8238763 0.00077664723 -0.00059109539)
(1.1708123 0.0013504561 -0.0018749956)
(1.4373768 0.0019718185 -0.0044415884)
(1.5709748 0.0023613557 -0.0080137391)
(1.576659 0.0023206195 -0.011391115)
(1.5124243 0.002097383 -0.014277199)