/*--------------------------------*- C++ -*----------------------------------*\
  =========                 |
  \\      /  F ield         | OpenFOAM: The Open Source CFD Toolbox
   \\    /   O peration     | Website:  https://openfoam.org
    \\  /    A nd           | Version:  10
     \\/     M anipulation  |
\*---------------------------------------------------------------------------*/
FoamFile
{
    format      ascii;
    class       volScalarField;
    location    "7.5";
    object      T;
}
// * * * * * * * * * * * * * * * * * * * * * * * * * * * * * * * * * * * * * //

dimensions      [0 0 -1 0 0 0 0];

internalField   nonuniform List<scalar> 
100
(
0.0259555
0.0769464
0.125211
0.169041
0.206882
0.237394
0.259496
0.272406
0.275665
0.269159
0.253118
0.22811
0.195021
0.155023
0.109534
0.0601638
0.00866274
-0.0431452
-0.0934248
-0.140395
-0.182391
-0.217926
-0.245741
-0.264851
-0.274577
-0.274577
-0.26485
-0.245741
-0.217926
-0.18239
-0.140394
-0.0934241
-0.0431445
0.00866346
0.0601645
0.109534
0.155024
0.195021
0.22811
0.253118
0.269159
0.275665
0.272406
0.259496
0.237394
0.206881
0.16904
0.125211
0.0769458
0.0259549
-0.0259554
-0.0769463
-0.125211
-0.169041
-0.206882
-0.237394
-0.259496
-0.272406
-0.275665
-0.269159
-0.253118
-0.22811
-0.195021
-0.155023
-0.109534
-0.0601639
-0.00866286
0.0431451
0.0934246
0.140395
0.182391
0.217926
0.245741
0.26485
0.274577
0.274577
0.26485
0.245741
0.217926
0.182391
0.140394
0.0934242
0.0431447
-0.00866332
-0.0601644
-0.109534
-0.155024
-0.195021
-0.22811
-0.253118
-0.269159
-0.275665
-0.272406
-0.259496
-0.237394
-0.206882
-0.16904
-0.125211
-0.0769459
-0.0259549
)
;

boundaryField
{
    inlet
    {
        type            cyclic;
    }
    outlet
    {
        type            cyclic;
    }
    bottom
    {
        type            slip;
    }
    top
    {
        type            slip;
    }
    frontAndBack
    {
        type            empty;
    }
}


// ************************************************************************* //
