/*--------------------------------*- C++ -*----------------------------------*\
  =========                 |
  \\      /  F ield         | OpenFOAM: The Open Source CFD Toolbox
   \\    /   O peration     | Website:  https://openfoam.org
    \\  /    A nd           | Version:  10
     \\/     M anipulation  |
\*---------------------------------------------------------------------------*/
FoamFile
{
    format      ascii;
    class       volScalarField;
    location    "7.5";
    object      T_0;
}
// * * * * * * * * * * * * * * * * * * * * * * * * * * * * * * * * * * * * * //

dimensions      [0 0 -1 0 0 0 0];

internalField   nonuniform List<scalar> 
100
(
0.0254439
0.0754297
0.122743
0.165709
0.202804
0.232715
0.254381
0.267036
0.270231
0.263853
0.248128
0.223613
0.191177
0.151967
0.107374
0.0589779
0.00849198
-0.0422948
-0.0915832
-0.137627
-0.178796
-0.21363
-0.240897
-0.25963
-0.269165
-0.269165
-0.25963
-0.240897
-0.21363
-0.178795
-0.137627
-0.0915825
-0.042294
0.00849269
0.0589786
0.107375
0.151968
0.191177
0.223614
0.248129
0.263854
0.270231
0.267036
0.254381
0.232714
0.202803
0.165708
0.122743
0.0754291
0.0254433
-0.0254438
-0.0754295
-0.122743
-0.165709
-0.202804
-0.232714
-0.254381
-0.267036
-0.270231
-0.263853
-0.248128
-0.223613
-0.191177
-0.151967
-0.107375
-0.058978
-0.0084921
0.0422946
0.0915831
0.137627
0.178796
0.21363
0.240897
0.25963
0.269165
0.269165
0.25963
0.240897
0.21363
0.178795
0.137627
0.0915827
0.0422942
-0.00849254
-0.0589784
-0.107375
-0.151968
-0.191177
-0.223614
-0.248129
-0.263854
-0.270231
-0.267036
-0.254381
-0.232714
-0.202803
-0.165708
-0.122743
-0.0754291
-0.0254433
)
;

boundaryField
{
    inlet
    {
        type            cyclic;
    }
    outlet
    {
        type            cyclic;
    }
    bottom
    {
        type            slip;
    }
    top
    {
        type            slip;
    }
    frontAndBack
    {
        type            empty;
    }
}


// ************************************************************************* //
