/*--------------------------------*- C++ -*----------------------------------*\
  =========                 |
  \\      /  F ield         | OpenFOAM: The Open Source CFD Toolbox
   \\    /   O peration     | Website:  https://openfoam.org
    \\  /    A nd           | Version:  10
     \\/     M anipulation  |
\*---------------------------------------------------------------------------*/
FoamFile
{
    format      ascii;
    class       volScalarField;
    location    "4";
    object      ddt0(T);
}
// * * * * * * * * * * * * * * * * * * * * * * * * * * * * * * * * * * * * * //

dimensions      [0 0 -2 0 0 0 0];

internalField   nonuniform List<scalar> 
100
(
-0.926647
-2.77133
-4.59143
-6.37076
-8.09356
-9.74452
-11.309
-12.7731
-14.1238
-15.3492
-16.4383
-17.3815
-18.1705
-18.7982
-19.259
-19.5488
-19.6652
-19.607
-19.3748
-18.9706
-18.398
-17.6621
-16.7694
-15.7279
-14.5468
-13.2366
-11.8089
-10.2763
-8.65258
-6.95203
-5.18977
-3.38144
-1.5431
0.308933
2.15823
3.98837
5.7831
7.52651
9.20311
10.798
12.2971
13.687
14.9554
16.0911
17.084
17.9252
18.6073
19.1243
19.4715
19.6459
19.6459
19.4715
19.1243
18.6073
17.9252
17.084
16.0911
14.9554
13.687
12.2971
10.798
9.2031
7.5265
5.78309
3.98835
2.15821
0.308914
-1.54312
-3.38146
-5.18979
-6.95205
-8.6526
-10.2764
-11.8089
-13.2366
-14.5468
-15.7279
-16.7695
-17.6621
-18.398
-18.9706
-19.3748
-19.607
-19.6652
-19.5488
-19.259
-18.7981
-18.1705
-17.3815
-16.4383
-15.3492
-14.1238
-12.7731
-11.309
-9.7445
-8.09354
-6.37075
-4.59141
-2.77133
-0.926645
)
;

boundaryField
{
    xmin
    {
        type            calculated;
        value           uniform 0;
    }
    xmax
    {
        type            calculated;
        value           uniform 0;
    }
    frontAndBack
    {
        type            empty;
    }
}


// ************************************************************************* //
