/*--------------------------------*- C++ -*----------------------------------*\
  =========                 |
  \\      /  F ield         | OpenFOAM: The Open Source CFD Toolbox
   \\    /   O peration     | Website:  https://openfoam.org
    \\  /    A nd           | Version:  10
     \\/     M anipulation  |
\*---------------------------------------------------------------------------*/
FoamFile
{
    format      ascii;
    class       volScalarField;
    location    "4";
    object      T;
}
// * * * * * * * * * * * * * * * * * * * * * * * * * * * * * * * * * * * * * //

dimensions      [0 0 -1 0 0 0 0];

internalField   nonuniform List<scalar> 
100
(
9.61283
28.7492
47.6304
66.0888
83.9606
101.087
117.317
132.505
146.517
159.228
170.526
180.311
188.495
195.006
199.786
202.793
204
203.396
200.987
196.794
190.854
183.22
173.96
163.156
150.903
137.311
122.501
106.603
89.7585
72.1176
53.8366
35.0777
16.0075
-3.20482
-22.3887
-41.3738
-59.9917
-78.0771
-95.4695
-112.015
-127.565
-141.984
-155.142
-166.923
-177.223
-185.949
-193.025
-198.388
-201.99
-203.799
-203.799
-201.99
-198.388
-193.025
-185.949
-177.223
-166.923
-155.142
-141.984
-127.565
-112.014
-95.4694
-78.077
-59.9915
-41.3736
-22.3885
-3.20461
16.0077
35.0779
53.8368
72.1178
89.7587
106.603
122.501
137.311
150.903
163.156
173.96
183.22
190.854
196.794
200.987
203.396
204
202.793
199.786
195.006
188.495
180.311
170.526
159.228
146.517
132.505
117.317
101.087
83.9606
66.0888
47.6304
28.7492
9.61283
)
;

boundaryField
{
    xmin
    {
        type            fixedValue;
        value           uniform 0;
    }
    xmax
    {
        type            fixedValue;
        value           uniform 0;
    }
    frontAndBack
    {
        type            empty;
    }
}


// ************************************************************************* //
