/*--------------------------------*- C++ -*----------------------------------*\
| =========                 |                                                 |
| \\      /  F ield         | OpenFOAM: The Open Source CFD Toolbox           |
|  \\    /   O peration     | Version:  2406                                  |
|   \\  /    A nd           | Website:  www.openfoam.com                      |
|    \\/     M anipulation  |                                                 |
\*---------------------------------------------------------------------------*/
FoamFile
{
    version     2.0;
    format      ascii;
    arch        "LSB;label=32;scalar=64";
    class       volScalarField;
    location    "16";
    object      p;
}
// * * * * * * * * * * * * * * * * * * * * * * * * * * * * * * * * * * * * * //

dimensions      [0 2 -2 0 0 0 0];

internalField   nonuniform List<scalar> 
34560
(
-15.027556
-15.018967
-15.008919
-14.996984
-14.981004
-14.959707
-14.935433
-14.913001
-14.897192
-15.082811
-15.073362
-15.062074
-15.047375
-15.02633
-14.998273
-14.967659
-14.942171
-14.926648
-15.114403
-15.104935
-15.094191
-15.080145
-15.058695
-15.02855
-14.995419
-14.967852
-14.950418
-15.13885
-15.129706
-15.119763
-15.106499
-15.085121
-15.05402
-15.019
-14.988987
-14.968997
-15.155691
-15.147101
-15.138383
-15.126492
-15.105818
-15.074169
-15.03752
-15.005608
-14.982969
-15.161587
-15.154197
-15.147622
-15.138263
-15.119524
-15.088425
-15.050881
-15.017528
-14.992217
-15.161173
-15.155028
-15.150638
-15.143953
-15.12753
-15.09734
-15.059216
-15.024757
-14.996805
-15.155109
-15.150318
-15.148229
-15.144396
-15.130535
-15.101365
-15.063231
-15.027835
-14.99735
-15.145396
-15.141954
-15.142079
-15.140974
-15.129608
-15.101702
-15.064152
-15.027668
-14.9949
-15.134317
-15.132138
-15.134251
-15.135564
-15.12645
-15.099968
-15.063032
-15.025427
-14.990747
-15.124714
-15.123589
-15.127264
-15.130394
-15.122966
-15.097639
-15.061033
-15.02247
-14.986366
-15.119575
-15.118917
-15.123311
-15.127303
-15.120698
-15.095954
-15.059415
-15.020242
-14.983308
-15.119575
-15.118917
-15.123311
-15.127303
-15.120697
-15.095954
-15.059415
-15.020242
-14.983307
-15.124714
-15.123588
-15.127263
-15.130393
-15.122965
-15.097639
-15.061033
-15.022469
-14.986365
-15.134317
-15.132138
-15.134251
-15.135564
-15.126451
-15.099968
-15.063032
-15.025426
-14.990745
-15.145397
-15.141955
-15.14208
-15.140976
-15.129609
-15.101703
-15.064152
-15.027667
-14.994899
-15.155111
-15.150319
-15.148231
-15.144397
-15.130536
-15.101366
-15.063231
-15.027835
-14.997349
-15.161175
-15.15503
-15.150639
-15.143955
-15.127531
-15.097341
-15.059217
-15.024758
-14.996805
-15.161588
-15.154198
-15.147623
-15.138264
-15.119525
-15.088427
-15.050883
-15.017529
-14.992218
-15.155692
-15.147101
-15.138383
-15.126493
-15.10582
-15.074171
-15.037522
-15.00561
-14.98297
-15.13885
-15.129707
-15.119764
-15.1065
-15.085123
-15.054023
-15.019003
-14.988989
-14.968999
-15.114403
-15.104936
-15.094192
-15.080146
-15.058697
-15.028553
-14.995423
-14.967855
-14.950422
-15.082813
-15.073364
-15.062076
-15.047377
-15.026333
-14.998278
-14.967664
-14.942177
-14.926654
-15.027559
-15.01897
-15.008922
-14.996988
-14.981009
-14.959713
-14.93544
-14.913008
-14.897201
-13.963241
-13.962942
-13.962957
-13.963247
-13.963196
-13.962116
-13.960019
-13.957616
-13.954984
-13.965428
-13.96502
-13.965027
-13.965362
-13.965168
-13.96353
-13.960385
-13.956306
-13.951357
-13.963271
-13.962792
-13.962899
-13.963456
-13.963311
-13.961282
-13.95729
-13.951898
-13.945345
-13.95641
-13.955855
-13.956104
-13.956989
-13.957052
-13.954794
-13.950106
-13.943572
-13.935565
-13.94511
-13.944465
-13.944855
-13.946103
-13.946436
-13.944015
-13.938595
-13.930954
-13.921618
-13.930487
-13.929639
-13.930049
-13.931556
-13.932054
-13.92934
-13.923107
-13.914378
-13.903897
-13.912962
-13.911879
-13.912247
-13.913929
-13.914507
-13.911424
-13.904344
-13.894571
-13.883185
-13.893954
-13.892586
-13.892814
-13.894537
-13.895053
-13.891488
-13.883565
-13.872799
-13.860762
-13.875147
-13.873469
-13.873477
-13.875111
-13.875426
-13.871288
-13.862544
-13.850865
-13.838418
-13.85857
-13.856576
-13.856306
-13.857742
-13.857754
-13.853019
-13.843507
-13.831052
-13.818384
-13.846118
-13.843861
-13.843333
-13.84455
-13.84426
-13.839022
-13.828895
-13.815867
-13.803105
-13.839266
-13.836897
-13.836253
-13.837363
-13.836916
-13.831409
-13.820947
-13.807618
-13.794825
-13.839266
-13.836897
-13.836253
-13.837363
-13.836916
-13.831409
-13.820947
-13.807619
-13.794825
-13.846118
-13.843861
-13.843333
-13.84455
-13.84426
-13.839022
-13.828895
-13.815868
-13.803106
-13.85857
-13.856577
-13.856307
-13.857742
-13.857754
-13.85302
-13.843508
-13.831053
-13.818385
-13.875148
-13.87347
-13.873478
-13.875111
-13.875426
-13.871289
-13.862545
-13.850867
-13.83842
-13.893954
-13.892586
-13.892815
-13.894538
-13.895053
-13.891489
-13.883567
-13.872801
-13.860764
-13.912963
-13.911879
-13.912247
-13.91393
-13.914508
-13.911425
-13.904346
-13.894573
-13.883188
-13.930487
-13.929639
-13.93005
-13.931557
-13.932055
-13.929341
-13.923109
-13.91438
-13.9039
-13.945111
-13.944466
-13.944856
-13.946104
-13.946437
-13.944016
-13.938597
-13.930956
-13.921622
-13.956411
-13.955856
-13.956105
-13.95699
-13.957053
-13.954796
-13.950108
-13.943574
-13.935568
-13.963273
-13.962793
-13.9629
-13.963457
-13.963313
-13.961284
-13.957293
-13.951901
-13.945349
-13.96543
-13.965022
-13.965028
-13.965364
-13.96517
-13.963533
-13.960388
-13.956309
-13.951361
-13.963243
-13.962944
-13.96296
-13.96325
-13.963198
-13.962118
-13.960022
-13.95762
-13.95499
-13.58987
-13.589887
-13.58989
-13.589813
-13.589664
-13.5895
-13.589402
-13.58943
-13.589191
-13.594294
-13.594325
-13.59429
-13.594054
-13.593606
-13.59301
-13.59237
-13.591776
-13.591077
-13.597796
-13.597853
-13.597842
-13.597596
-13.59707
-13.596288
-13.595352
-13.594386
-13.593427
-13.600866
-13.600946
-13.600951
-13.600692
-13.600113
-13.599222
-13.598088
-13.596854
-13.595633
-13.603414
-13.603512
-13.603536
-13.60328
-13.602676
-13.60172
-13.600446
-13.599007
-13.597569
-13.605387
-13.60551
-13.605563
-13.605329
-13.604734
-13.603754
-13.602402
-13.600823
-13.599219
-13.606893
-13.60703
-13.607101
-13.606884
-13.606306
-13.605328
-13.603943
-13.602281
-13.600565
-13.607962
-13.608107
-13.608191
-13.607988
-13.607431
-13.606471
-13.605087
-13.603385
-13.601596
-13.608664
-13.608812
-13.608906
-13.608711
-13.608174
-13.607238
-13.605873
-13.604159
-13.602323
-13.609083
-13.609231
-13.609329
-13.609139
-13.608617
-13.607704
-13.606358
-13.604645
-13.602787
-13.609306
-13.609454
-13.609552
-13.609362
-13.608848
-13.607949
-13.606617
-13.604904
-13.603045
-13.609394
-13.60954
-13.609637
-13.609447
-13.608936
-13.608045
-13.60672
-13.605009
-13.603151
-13.609394
-13.60954
-13.609637
-13.609447
-13.608937
-13.608045
-13.60672
-13.605009
-13.603152
-13.609306
-13.609454
-13.609552
-13.609362
-13.608848
-13.607949
-13.606617
-13.604905
-13.603046
-13.609083
-13.609232
-13.60933
-13.609139
-13.608617
-13.607704
-13.606359
-13.604646
-13.602788
-13.608664
-13.608812
-13.608906
-13.608711
-13.608174
-13.607239
-13.605874
-13.604161
-13.602324
-13.607962
-13.608107
-13.608192
-13.607988
-13.607431
-13.606472
-13.605088
-13.603386
-13.601598
-13.606894
-13.60703
-13.607101
-13.606884
-13.606305
-13.605328
-13.603943
-13.602283
-13.600567
-13.605387
-13.60551
-13.605562
-13.605329
-13.604733
-13.603754
-13.602402
-13.600824
-13.599222
-13.603414
-13.603512
-13.603535
-13.60328
-13.602676
-13.601719
-13.600446
-13.599008
-13.597571
-13.600865
-13.600945
-13.60095
-13.600692
-13.600112
-13.599222
-13.598088
-13.596855
-13.595635
-13.597795
-13.597852
-13.597841
-13.597595
-13.597069
-13.596287
-13.595352
-13.594387
-13.59343
-13.594294
-13.594325
-13.59429
-13.594054
-13.593606
-13.59301
-13.59237
-13.591778
-13.59108
-13.58987
-13.589887
-13.58989
-13.589813
-13.589665
-13.5895
-13.589404
-13.589433
-13.589196
-12.74946
-12.749518
-12.749598
-12.749729
-12.749874
-12.749931
-12.749788
-12.749404
-12.748799
-12.749397
-12.749451
-12.749524
-12.749642
-12.749756
-12.749738
-12.749452
-12.74882
-12.747914
-12.749377
-12.749422
-12.749484
-12.74959
-12.749684
-12.749621
-12.749253
-12.748507
-12.747484
-12.749194
-12.74923
-12.749281
-12.74938
-12.749463
-12.749371
-12.748945
-12.748117
-12.746978
-12.748856
-12.748883
-12.748923
-12.749014
-12.749083
-12.74896
-12.748478
-12.747573
-12.746343
-12.748405
-12.748419
-12.748444
-12.748524
-12.748579
-12.748428
-12.747895
-12.74693
-12.745632
-12.747848
-12.74785
-12.747861
-12.747928
-12.747971
-12.747798
-12.747231
-12.746229
-12.744895
-12.747244
-12.747233
-12.747228
-12.747284
-12.747313
-12.747125
-12.746534
-12.745517
-12.744175
-12.746652
-12.746628
-12.746609
-12.746653
-12.746671
-12.746468
-12.745859
-12.744831
-12.74342
-12.746138
-12.746101
-12.746069
-12.746102
-12.746108
-12.74589
-12.745256
-12.74418
-12.742696
-12.745756
-12.745709
-12.745667
-12.74569
-12.745688
-12.745457
-12.744797
-12.743665
-12.742172
-12.745548
-12.745497
-12.74545
-12.74547
-12.745463
-12.745226
-12.744554
-12.7434
-12.741909
-12.745548
-12.745497
-12.74545
-12.74547
-12.745463
-12.745226
-12.744554
-12.7434
-12.741909
-12.745756
-12.74571
-12.745667
-12.74569
-12.745688
-12.745457
-12.744798
-12.743665
-12.742173
-12.746138
-12.746102
-12.74607
-12.746102
-12.746108
-12.74589
-12.745256
-12.744181
-12.742697
-12.746652
-12.746628
-12.746609
-12.746653
-12.746671
-12.746468
-12.745859
-12.744832
-12.743421
-12.747244
-12.747233
-12.747229
-12.747284
-12.747314
-12.747126
-12.746535
-12.745517
-12.744176
-12.747848
-12.74785
-12.747861
-12.747928
-12.747971
-12.747798
-12.747231
-12.746229
-12.744896
-12.748405
-12.748419
-12.748444
-12.748524
-12.748579
-12.748427
-12.747895
-12.74693
-12.745633
-12.748855
-12.748883
-12.748922
-12.749013
-12.749082
-12.74896
-12.748477
-12.747573
-12.746343
-12.749194
-12.74923
-12.74928
-12.74938
-12.749462
-12.74937
-12.748944
-12.748117
-12.746979
-12.749376
-12.749422
-12.749483
-12.74959
-12.749683
-12.749621
-12.749252
-12.748507
-12.747484
-12.749397
-12.749451
-12.749523
-12.749641
-12.749756
-12.749738
-12.749451
-12.74882
-12.747914
-12.74946
-12.749518
-12.749598
-12.749729
-12.749875
-12.749931
-12.749788
-12.749404
-12.748799
-12.248142
-12.248189
-12.248243
-12.248281
-12.248311
-12.248371
-12.248495
-12.248688
-12.248772
-12.248457
-12.248509
-12.248557
-12.248564
-12.24854
-12.248521
-12.248546
-12.248626
-12.24867
-12.248781
-12.248832
-12.248876
-12.248867
-12.248814
-12.248761
-12.248753
-12.248813
-12.248905
-12.249049
-12.249097
-12.249133
-12.249111
-12.24904
-12.248971
-12.248957
-12.24902
-12.249139
-12.249266
-12.249309
-12.249338
-12.249301
-12.249213
-12.249131
-12.249114
-12.249183
-12.249321
-12.249444
-12.249481
-12.249502
-12.249451
-12.249347
-12.249255
-12.249237
-12.249314
-12.249465
-12.249579
-12.24961
-12.249624
-12.24956
-12.249444
-12.249344
-12.249328
-12.249408
-12.249557
-12.24968
-12.249706
-12.249711
-12.249638
-12.249511
-12.249406
-12.249391
-12.249465
-12.249609
-12.249752
-12.249773
-12.249772
-12.249691
-12.249557
-12.24945
-12.249438
-12.249519
-12.249747
-12.249804
-12.249821
-12.249814
-12.249727
-12.249589
-12.249486
-12.249494
-12.249639
-12.24996
-12.249839
-12.249853
-12.249841
-12.249751
-12.249611
-12.249514
-12.249549
-12.249774
-12.25011
-12.249852
-12.249864
-12.249852
-12.24976
-12.24962
-12.249526
-12.249575
-12.249836
-12.250178
-12.249853
-12.249865
-12.249852
-12.24976
-12.24962
-12.249526
-12.249575
-12.249836
-12.250179
-12.24984
-12.249853
-12.249842
-12.249751
-12.249612
-12.249514
-12.249549
-12.249774
-12.25011
-12.249805
-12.249821
-12.249814
-12.249727
-12.24959
-12.249486
-12.249494
-12.24964
-12.249961
-12.249753
-12.249774
-12.249772
-12.249691
-12.249557
-12.24945
-12.249438
-12.249519
-12.249748
-12.24968
-12.249706
-12.249712
-12.249638
-12.249511
-12.249406
-12.249391
-12.249465
-12.24961
-12.249579
-12.249611
-12.249624
-12.24956
-12.249444
-12.249344
-12.249328
-12.249408
-12.249558
-12.249444
-12.249481
-12.249502
-12.249451
-12.249347
-12.249255
-12.249237
-12.249314
-12.249465
-12.249266
-12.249309
-12.249337
-12.2493
-12.249213
-12.249131
-12.249113
-12.249183
-12.249321
-12.249049
-12.249096
-12.249132
-12.24911
-12.249039
-12.24897
-12.248956
-12.24902
-12.249138
-12.24878
-12.248831
-12.248874
-12.248865
-12.248813
-12.248759
-12.248752
-12.248811
-12.248903
-12.248455
-12.248507
-12.248555
-12.248562
-12.248538
-12.248519
-12.248544
-12.248623
-12.248666
-12.24814
-12.248187
-12.248241
-12.248278
-12.248309
-12.248368
-12.248491
-12.248683
-12.248767
-11.548924
-11.548935
-11.548961
-11.54902
-11.549106
-11.549187
-11.549226
-11.549207
-11.549128
-11.549071
-11.549081
-11.549103
-11.549156
-11.549228
-11.549276
-11.549253
-11.549135
-11.548957
-11.549269
-11.549275
-11.549293
-11.549342
-11.549408
-11.549442
-11.549393
-11.549242
-11.549038
-11.549452
-11.549453
-11.549467
-11.549513
-11.549574
-11.549601
-11.549537
-11.549366
-11.549133
-11.549618
-11.549615
-11.549624
-11.549665
-11.549721
-11.549738
-11.549661
-11.549474
-11.54922
-11.549764
-11.549758
-11.549761
-11.549798
-11.549848
-11.549856
-11.549769
-11.549574
-11.549309
-11.54988
-11.54987
-11.54987
-11.549902
-11.549946
-11.549948
-11.549853
-11.549647
-11.549305
-11.549966
-11.549954
-11.549951
-11.54998
-11.550017
-11.55001
-11.549903
-11.549629
-11.54919
-11.550023
-11.55001
-11.550005
-11.550029
-11.550061
-11.550037
-11.549889
-11.549542
-11.549067
-11.550058
-11.550045
-11.550037
-11.550058
-11.550082
-11.550039
-11.54984
-11.549464
-11.548969
-11.550076
-11.550062
-11.550054
-11.550072
-11.550089
-11.550027
-11.549803
-11.549408
-11.548899
-11.550082
-11.550069
-11.55006
-11.550076
-11.550086
-11.550011
-11.549784
-11.549378
-11.548863
-11.550082
-11.550069
-11.55006
-11.550076
-11.550086
-11.550011
-11.549784
-11.549379
-11.548863
-11.550076
-11.550063
-11.550054
-11.550072
-11.550089
-11.550027
-11.549803
-11.549409
-11.5489
-11.550058
-11.550045
-11.550038
-11.550058
-11.550083
-11.55004
-11.54984
-11.549465
-11.54897
-11.550024
-11.550011
-11.550005
-11.55003
-11.550061
-11.550038
-11.549889
-11.549543
-11.549068
-11.549967
-11.549955
-11.549951
-11.54998
-11.550018
-11.55001
-11.549904
-11.549631
-11.549192
-11.54988
-11.549871
-11.54987
-11.549902
-11.549946
-11.549948
-11.549854
-11.549648
-11.549307
-11.549764
-11.549758
-11.549761
-11.549797
-11.549847
-11.549856
-11.549769
-11.549575
-11.549311
-11.549618
-11.549615
-11.549623
-11.549664
-11.54972
-11.549737
-11.54966
-11.549475
-11.549222
-11.54945
-11.549451
-11.549465
-11.549511
-11.549572
-11.549599
-11.549536
-11.549366
-11.549134
-11.549266
-11.549272
-11.54929
-11.549339
-11.549405
-11.549439
-11.549391
-11.549241
-11.549039
-11.549068
-11.549077
-11.5491
-11.549152
-11.549223
-11.549272
-11.549249
-11.549133
-11.548957
-11.548919
-11.548931
-11.548957
-11.549016
-11.549102
-11.549182
-11.549222
-11.549203
-11.549126
-10.962235
-10.962252
-10.962271
-10.962284
-10.962294
-10.962308
-10.962334
-10.962377
-10.96239
-10.962215
-10.962234
-10.962253
-10.96226
-10.962258
-10.962255
-10.962259
-10.962274
-10.962276
-10.962229
-10.962247
-10.962264
-10.962266
-10.962256
-10.962246
-10.962247
-10.962266
-10.962295
-10.962241
-10.962257
-10.96227
-10.962268
-10.962253
-10.96224
-10.962245
-10.962273
-10.962318
-10.962256
-10.962269
-10.962279
-10.96227
-10.96225
-10.962234
-10.962239
-10.962272
-10.962324
-10.962279
-10.962289
-10.962294
-10.96228
-10.962253
-10.962233
-10.962238
-10.962269
-10.962323
-10.962307
-10.962314
-10.962315
-10.962296
-10.962264
-10.962241
-10.962245
-10.962289
-10.962421
-10.962343
-10.962346
-10.962343
-10.962319
-10.962284
-10.962262
-10.962276
-10.962397
-10.962631
-10.962384
-10.962384
-10.962377
-10.96235
-10.962315
-10.962304
-10.962364
-10.962566
-10.962829
-10.962425
-10.962421
-10.962411
-10.962382
-10.96235
-10.962354
-10.962473
-10.962704
-10.962983
-10.962457
-10.962452
-10.962439
-10.96241
-10.962381
-10.962403
-10.96255
-10.962798
-10.963088
-10.962475
-10.962469
-10.962456
-10.962427
-10.962401
-10.962438
-10.962591
-10.962846
-10.963142
-10.962475
-10.962469
-10.962456
-10.962427
-10.962402
-10.962438
-10.962591
-10.962847
-10.963143
-10.962458
-10.962452
-10.96244
-10.96241
-10.962381
-10.962404
-10.962551
-10.962799
-10.963089
-10.962426
-10.962422
-10.962412
-10.962383
-10.962351
-10.962355
-10.962473
-10.962705
-10.962985
-10.962386
-10.962385
-10.962378
-10.962351
-10.962316
-10.962304
-10.962365
-10.962568
-10.962832
-10.962344
-10.962348
-10.962344
-10.96232
-10.962285
-10.962263
-10.962277
-10.962399
-10.962634
-10.962308
-10.962315
-10.962316
-10.962296
-10.962264
-10.962241
-10.962246
-10.962291
-10.962425
-10.96228
-10.962289
-10.962294
-10.96228
-10.962253
-10.962233
-10.962238
-10.962271
-10.962327
-10.962256
-10.962269
-10.962278
-10.962269
-10.962248
-10.962232
-10.962239
-10.962274
-10.962327
-10.96224
-10.962255
-10.962268
-10.962265
-10.96225
-10.962238
-10.962243
-10.962274
-10.962322
-10.962226
-10.962244
-10.96226
-10.962262
-10.962252
-10.962242
-10.962244
-10.962265
-10.962298
-10.96221
-10.962229
-10.962248
-10.962255
-10.962253
-10.96225
-10.962255
-10.962272
-10.962278
-10.962229
-10.962246
-10.962266
-10.962279
-10.962288
-10.962302
-10.962329
-10.962373
-10.962389
-10.316018
-10.316019
-10.316024
-10.31604
-10.316064
-10.316088
-10.316102
-10.316099
-10.316067
-10.316084
-10.316084
-10.316088
-10.316101
-10.316119
-10.316131
-10.316121
-10.316081
-10.31601
-10.316163
-10.316162
-10.316164
-10.316175
-10.31619
-10.316195
-10.316173
-10.316116
-10.316032
-10.316236
-10.316233
-10.316234
-10.316244
-10.316256
-10.316256
-10.316226
-10.316157
-10.316057
-10.316301
-10.316297
-10.316296
-10.316304
-10.316314
-10.316309
-10.316272
-10.316192
-10.316075
-10.316357
-10.316352
-10.31635
-10.316355
-10.316363
-10.316355
-10.316313
-10.31622
-10.316082
-10.3164
-10.316395
-10.316391
-10.316395
-10.3164
-10.316388
-10.316338
-10.316226
-10.316066
-10.316432
-10.316426
-10.316421
-10.316423
-10.316424
-10.316406
-10.31634
-10.316208
-10.316036
-10.316453
-10.316446
-10.316441
-10.316441
-10.316438
-10.31641
-10.316328
-10.316188
-10.316007
-10.316466
-10.316459
-10.316453
-10.316451
-10.316444
-10.316409
-10.316319
-10.316171
-10.315985
-10.316473
-10.316466
-10.316459
-10.316456
-10.316447
-10.316408
-10.316313
-10.31616
-10.31597
-10.316476
-10.316469
-10.316462
-10.316458
-10.316447
-10.316407
-10.31631
-10.316155
-10.315962
-10.316477
-10.31647
-10.316462
-10.316458
-10.316447
-10.316407
-10.31631
-10.316155
-10.315963
-10.316474
-10.316467
-10.31646
-10.316457
-10.316447
-10.316408
-10.316313
-10.316161
-10.315971
-10.316467
-10.31646
-10.316454
-10.316452
-10.316445
-10.316409
-10.31632
-10.316173
-10.315988
-10.316454
-10.316448
-10.316442
-10.316442
-10.316438
-10.316411
-10.31633
-10.31619
-10.31601
-10.316434
-10.316427
-10.316423
-10.316424
-10.316425
-10.316407
-10.316341
-10.316211
-10.316039
-10.316402
-10.316396
-10.316392
-10.316396
-10.3164
-10.316388
-10.316339
-10.316229
-10.31607
-10.316357
-10.316352
-10.31635
-10.316355
-10.316362
-10.316354
-10.316313
-10.316223
-10.316086
-10.316301
-10.316297
-10.316295
-10.316303
-10.316312
-10.316308
-10.316272
-10.316193
-10.316079
-10.316234
-10.316231
-10.316232
-10.316241
-10.316253
-10.316254
-10.316225
-10.316158
-10.31606
-10.316159
-10.316158
-10.31616
-10.316171
-10.316186
-10.316191
-10.31617
-10.316115
-10.316033
-10.316079
-10.316079
-10.316082
-10.316095
-10.316113
-10.316125
-10.316116
-10.316077
-10.316009
-10.316012
-10.316013
-10.316018
-10.316033
-10.316057
-10.316081
-10.316095
-10.316093
-10.316063
-9.6999335
-9.6999383
-9.6999435
-9.6999474
-9.6999505
-9.6999557
-9.699967
-9.6999866
-9.6999976
-9.6999129
-9.6999182
-9.6999234
-9.6999259
-9.6999261
-9.699927
-9.699932
-9.6999419
-9.6999471
-9.6999019
-9.699907
-9.6999115
-9.6999126
-9.6999109
-9.6999099
-9.6999137
-9.6999238
-9.6999362
-9.6998907
-9.6998951
-9.6998986
-9.6998982
-9.6998949
-9.6998929
-9.6998968
-9.6999093
-9.6999268
-9.6998813
-9.6998849
-9.6998872
-9.6998848
-9.6998794
-9.6998755
-9.6998786
-9.6998928
-9.6999152
-9.6998762
-9.6998787
-9.6998796
-9.6998752
-9.6998672
-9.699861
-9.6998615
-9.6998786
-9.6999116
-9.6998749
-9.6998766
-9.6998762
-9.6998699
-9.6998602
-9.6998524
-9.6998548
-9.699882
-9.6999246
-9.6998784
-9.6998791
-9.6998775
-9.6998702
-9.6998599
-9.6998537
-9.6998664
-9.6999014
-9.6999443
-9.699885
-9.6998849
-9.6998825
-9.6998747
-9.6998655
-9.6998642
-9.6998842
-9.6999174
-9.6999578
-9.6998921
-9.6998915
-9.6998885
-9.6998804
-9.6998722
-9.6998752
-9.6998951
-9.6999254
-9.6999644
-9.6998985
-9.6998975
-9.6998942
-9.6998861
-9.6998781
-9.6998814
-9.6998993
-9.6999283
-9.699967
-9.6999021
-9.699901
-9.6998976
-9.6998896
-9.6998821
-9.6998844
-9.6999007
-9.6999291
-9.6999679
-9.6999024
-9.6999013
-9.6998979
-9.6998899
-9.6998823
-9.6998846
-9.6999009
-9.6999295
-9.6999684
-9.6998994
-9.6998984
-9.699895
-9.6998867
-9.6998786
-9.6998818
-9.6999
-9.6999293
-9.6999685
-9.6998935
-9.6998928
-9.6998896
-9.6998813
-9.6998729
-9.6998759
-9.699896
-9.6999269
-9.6999668
-9.6998866
-9.6998864
-9.6998838
-9.6998758
-9.6998663
-9.699865
-9.6998853
-9.6999193
-9.699961
-9.6998801
-9.6998806
-9.6998787
-9.6998711
-9.6998605
-9.6998543
-9.6998675
-9.6999036
-9.699948
-9.6998763
-9.6998777
-9.699877
-9.6998704
-9.6998604
-9.6998526
-9.6998556
-9.6998841
-9.6999286
-9.6998769
-9.6998792
-9.6998797
-9.6998749
-9.6998666
-9.6998605
-9.6998618
-9.6998804
-9.6999156
-9.699881
-9.6998843
-9.6998862
-9.6998834
-9.6998778
-9.6998741
-9.699878
-9.699894
-9.6999187
-9.699889
-9.699893
-9.6998962
-9.6998954
-9.699892
-9.6998902
-9.6998951
-9.6999094
-9.6999293
-9.6998985
-9.6999033
-9.6999076
-9.6999084
-9.6999066
-9.6999059
-9.6999105
-9.6999223
-9.6999371
-9.699908
-9.6999132
-9.6999182
-9.6999205
-9.6999207
-9.6999217
-9.6999272
-9.6999383
-9.6999458
-9.6999279
-9.6999326
-9.6999378
-9.6999415
-9.6999445
-9.6999495
-9.6999608
-9.6999806
-9.6999936
-9.0701177
-9.0701177
-9.0701188
-9.0701223
-9.0701282
-9.0701342
-9.0701366
-9.0701329
-9.0701202
-9.070128
-9.0701279
-9.0701287
-9.0701318
-9.0701362
-9.0701388
-9.070135
-9.0701224
-9.0701017
-9.070142
-9.0701415
-9.0701419
-9.0701444
-9.0701478
-9.0701486
-9.0701428
-9.0701279
-9.0701061
-9.0701557
-9.0701548
-9.0701547
-9.0701567
-9.0701594
-9.0701594
-9.0701523
-9.0701361
-9.0701122
-9.0701687
-9.0701673
-9.0701667
-9.070168
-9.07017
-9.070169
-9.0701608
-9.070143
-9.0701172
-9.0701803
-9.0701785
-9.0701773
-9.0701781
-9.0701793
-9.0701774
-9.0701679
-9.0701488
-9.0701214
-9.07019
-9.0701879
-9.0701863
-9.0701864
-9.0701869
-9.0701839
-9.0701731
-9.0701528
-9.0701247
-9.0701979
-9.0701955
-9.0701934
-9.070193
-9.0701927
-9.0701885
-9.0701761
-9.0701558
-9.0701278
-9.0702039
-9.0702012
-9.0701988
-9.0701979
-9.0701968
-9.0701914
-9.0701782
-9.0701583
-9.0701309
-9.0702082
-9.0702054
-9.0702027
-9.0702014
-9.0701996
-9.0701933
-9.07018
-9.0701607
-9.0701339
-9.070211
-9.0702081
-9.0702053
-9.0702036
-9.0702013
-9.0701945
-9.0701814
-9.0701626
-9.0701362
-9.0702125
-9.0702095
-9.0702066
-9.0702048
-9.0702022
-9.0701951
-9.0701822
-9.0701637
-9.0701377
-9.0702128
-9.0702098
-9.0702068
-9.070205
-9.0702024
-9.0701953
-9.0701824
-9.070164
-9.0701382
-9.0702119
-9.0702089
-9.070206
-9.0702042
-9.0702018
-9.0701949
-9.070182
-9.0701635
-9.0701376
-9.0702095
-9.0702066
-9.0702038
-9.0702023
-9.0702003
-9.0701939
-9.0701809
-9.0701621
-9.0701362
-9.0702055
-9.0702027
-9.0702001
-9.0701989
-9.0701975
-9.070192
-9.0701792
-9.0701601
-9.070134
-9.0701995
-9.0701969
-9.0701946
-9.0701938
-9.0701932
-9.070189
-9.0701771
-9.0701577
-9.0701314
-9.0701914
-9.070189
-9.070187
-9.0701868
-9.0701869
-9.070184
-9.0701737
-9.0701548
-9.0701286
-9.0701809
-9.0701789
-9.0701773
-9.0701776
-9.0701786
-9.0701767
-9.070168
-9.0701504
-9.0701253
-9.0701683
-9.0701666
-9.0701655
-9.0701665
-9.0701682
-9.0701674
-9.0701601
-9.070144
-9.0701206
-9.0701538
-9.0701526
-9.0701522
-9.0701538
-9.0701564
-9.0701566
-9.0701505
-9.070136
-9.0701148
-9.0701385
-9.0701378
-9.0701379
-9.0701402
-9.0701434
-9.0701446
-9.0701396
-9.0701264
-9.0701072
-9.0701231
-9.0701228
-9.0701235
-9.0701264
-9.0701308
-9.0701335
-9.0701303
-9.070119
-9.0701007
-9.070112
-9.070112
-9.0701131
-9.0701165
-9.0701223
-9.0701282
-9.0701306
-9.0701273
-9.0701166
-8.4460051
-8.4460062
-8.4460075
-8.4460085
-8.4460095
-8.4460105
-8.4460119
-8.4460142
-8.4460139
-8.446003
-8.4460041
-8.4460053
-8.4460059
-8.446006
-8.4460057
-8.4460051
-8.4460041
-8.446001
-8.4460018
-8.4460028
-8.4460038
-8.446004
-8.4460036
-8.4460028
-8.446002
-8.4460012
-8.4459998
-8.4459999
-8.4460007
-8.4460014
-8.4460012
-8.4460005
-8.4459995
-8.445999
-8.4459992
-8.4459992
-8.4459975
-8.4459981
-8.4459984
-8.4459979
-8.4459967
-8.4459957
-8.4459955
-8.4459966
-8.445998
-8.4459951
-8.4459955
-8.4459954
-8.4459944
-8.4459928
-8.4459917
-8.445992
-8.4459941
-8.4459968
-8.4459931
-8.4459932
-8.4459928
-8.4459914
-8.4459894
-8.4459881
-8.4459888
-8.4459918
-8.4459957
-8.4459915
-8.4459914
-8.4459907
-8.4459889
-8.4459865
-8.4459851
-8.4459862
-8.44599
-8.4459949
-8.4459904
-8.4459901
-8.4459892
-8.4459871
-8.4459844
-8.4459828
-8.4459841
-8.4459885
-8.4459943
-8.4459897
-8.4459893
-8.4459882
-8.4459858
-8.4459829
-8.4459812
-8.4459826
-8.4459875
-8.4459939
-8.4459895
-8.4459889
-8.4459876
-8.4459851
-8.445982
-8.4459802
-8.4459817
-8.4459869
-8.4459938
-8.4459895
-8.4459889
-8.4459875
-8.4459848
-8.4459816
-8.4459798
-8.4459813
-8.4459867
-8.445994
-8.4459898
-8.4459891
-8.4459877
-8.445985
-8.4459817
-8.4459799
-8.4459815
-8.445987
-8.4459944
-8.4459903
-8.4459897
-8.4459883
-8.4459856
-8.4459824
-8.4459806
-8.4459822
-8.4459878
-8.4459952
-8.445991
-8.4459905
-8.4459892
-8.4459866
-8.4459835
-8.4459818
-8.4459834
-8.4459889
-8.4459962
-8.4459919
-8.4459915
-8.4459904
-8.445988
-8.4459851
-8.4459835
-8.4459851
-8.4459903
-8.4459972
-8.445993
-8.4459928
-8.4459918
-8.4459897
-8.4459871
-8.4459856
-8.4459871
-8.4459919
-8.4459984
-8.4459943
-8.4459942
-8.4459935
-8.4459917
-8.4459894
-8.4459882
-8.4459895
-8.4459938
-8.4459995
-8.4459957
-8.4459958
-8.4459954
-8.445994
-8.4459922
-8.4459911
-8.4459922
-8.4459958
-8.4460005
-8.4459971
-8.4459974
-8.4459973
-8.4459964
-8.445995
-8.4459942
-8.4459949
-8.4459977
-8.4460013
-8.445998
-8.4459986
-8.4459989
-8.4459984
-8.4459975
-8.4459968
-8.4459973
-8.4459992
-8.4460016
-8.4459983
-8.4459991
-8.4459998
-8.4459997
-8.4459992
-8.4459987
-8.4459988
-8.4459996
-8.4460006
-8.445998
-8.445999
-8.446
-8.4460005
-8.4460004
-8.4460002
-8.4460001
-8.4460003
-8.4459996
-8.4459993
-8.4460004
-8.4460016
-8.4460025
-8.4460033
-8.4460041
-8.4460053
-8.4460077
-8.4460096
-7.8199449
-7.819945
-7.8199454
-7.8199462
-7.8199473
-7.8199484
-7.8199489
-7.8199489
-7.8199468
-7.819947
-7.8199471
-7.8199475
-7.8199482
-7.8199489
-7.8199492
-7.8199484
-7.8199464
-7.8199423
-7.81995
-7.8199501
-7.8199503
-7.8199509
-7.8199514
-7.8199515
-7.8199507
-7.8199483
-7.8199443
-7.8199532
-7.8199532
-7.8199532
-7.8199536
-7.819954
-7.8199541
-7.8199534
-7.819951
-7.8199468
-7.8199567
-7.8199566
-7.8199565
-7.8199567
-7.8199569
-7.8199569
-7.819956
-7.8199535
-7.8199491
-7.8199604
-7.8199601
-7.8199599
-7.8199599
-7.81996
-7.8199597
-7.8199585
-7.8199559
-7.8199515
-7.8199636
-7.8199632
-7.8199628
-7.8199627
-7.8199626
-7.8199621
-7.8199607
-7.8199581
-7.8199538
-7.8199662
-7.8199656
-7.8199652
-7.8199649
-7.8199646
-7.819964
-7.8199626
-7.8199601
-7.8199558
-7.8199682
-7.8199676
-7.819967
-7.8199666
-7.8199662
-7.8199655
-7.8199642
-7.8199618
-7.8199576
-7.8199697
-7.8199691
-7.8199684
-7.8199679
-7.8199674
-7.8199667
-7.8199654
-7.8199631
-7.8199591
-7.8199709
-7.8199702
-7.8199695
-7.8199689
-7.8199682
-7.8199675
-7.8199663
-7.8199641
-7.8199602
-7.8199715
-7.8199708
-7.8199701
-7.8199694
-7.8199688
-7.819968
-7.8199669
-7.8199648
-7.819961
-7.8199718
-7.8199711
-7.8199703
-7.8199696
-7.8199689
-7.8199681
-7.819967
-7.819965
-7.8199614
-7.8199716
-7.8199708
-7.8199701
-7.8199694
-7.8199687
-7.8199679
-7.8199668
-7.8199649
-7.8199615
-7.8199708
-7.8199701
-7.8199693
-7.8199686
-7.819968
-7.8199672
-7.8199662
-7.8199644
-7.8199611
-7.8199695
-7.8199688
-7.819968
-7.8199674
-7.8199668
-7.8199661
-7.8199651
-7.8199633
-7.8199602
-7.8199675
-7.8199669
-7.8199662
-7.8199656
-7.8199652
-7.8199646
-7.8199635
-7.8199619
-7.8199589
-7.8199648
-7.8199642
-7.8199635
-7.8199631
-7.8199628
-7.8199623
-7.8199615
-7.8199599
-7.8199571
-7.8199611
-7.8199605
-7.81996
-7.8199597
-7.8199596
-7.8199593
-7.8199588
-7.8199575
-7.8199549
-7.8199565
-7.8199561
-7.8199557
-7.8199556
-7.8199556
-7.8199557
-7.8199557
-7.8199547
-7.8199522
-7.8199518
-7.8199515
-7.8199513
-7.8199514
-7.8199516
-7.819952
-7.8199521
-7.8199513
-7.8199491
-7.8199472
-7.8199471
-7.8199471
-7.8199474
-7.8199479
-7.8199482
-7.8199481
-7.8199472
-7.8199452
-7.8199429
-7.8199429
-7.8199431
-7.8199436
-7.8199443
-7.8199447
-7.8199443
-7.8199432
-7.8199413
-7.8199401
-7.8199402
-7.8199405
-7.8199412
-7.8199421
-7.819943
-7.8199434
-7.8199436
-7.8199435
-7.1944362
-7.1944364
-7.1944366
-7.1944368
-7.1944372
-7.1944375
-7.194438
-7.1944385
-7.1944374
-7.1944369
-7.194437
-7.1944372
-7.1944374
-7.1944376
-7.1944377
-7.1944375
-7.1944367
-7.1944347
-7.1944375
-7.1944376
-7.1944378
-7.194438
-7.1944381
-7.194438
-7.1944375
-7.1944363
-7.1944345
-7.1944377
-7.1944378
-7.1944379
-7.194438
-7.1944381
-7.1944379
-7.1944374
-7.1944363
-7.1944346
-7.1944375
-7.1944376
-7.1944377
-7.1944377
-7.1944376
-7.1944376
-7.1944372
-7.1944362
-7.1944347
-7.1944374
-7.1944374
-7.1944374
-7.1944373
-7.1944372
-7.1944371
-7.1944368
-7.1944361
-7.1944349
-7.1944373
-7.1944372
-7.1944371
-7.1944369
-7.1944366
-7.1944365
-7.1944364
-7.194436
-7.1944352
-7.1944372
-7.1944371
-7.1944369
-7.1944366
-7.1944363
-7.1944361
-7.1944361
-7.194436
-7.1944355
-7.1944374
-7.1944372
-7.1944369
-7.1944365
-7.1944361
-7.194436
-7.194436
-7.1944361
-7.1944359
-7.1944376
-7.1944373
-7.194437