/*--------------------------------*- C++ -*----------------------------------*\
| =========                 |                                                 |
| \\      /  F ield         | OpenFOAM: The Open Source CFD Toolbox           |
|  \\    /   O peration     | Version:  2406                                  |
|   \\  /    A nd           | Website:  www.openfoam.com                      |
|    \\/     M anipulation  |                                                 |
\*---------------------------------------------------------------------------*/
FoamFile
{
    version     2.0;
    format      ascii;
    arch        "LSB;label=32;scalar=64";
    class       surfaceScalarField;
    location    "16";
    object      phi;
}
// * * * * * * * * * * * * * * * * * * * * * * * * * * * * * * * * * * * * * //

dimensions      [0 3 -1 0 0 0 0];

oriented        oriented;

internalField   nonuniform List<scalar> 
101088
(
-0.00017266109
3.7777906e-05
-1.5613501e-05
-3.2023489e-05
-0.00038198185
0.00017132505
-7.143574e-05
-0.00014598593
-0.00061046347
0.00042798665
-0.00018085886
-0.00036604132
-0.00082170714
0.00082983713
-0.00035816026
-0.00071431617
-0.00097128473
0.0013340016
-0.00058622898
-0.0011595847
-0.0010433951
0.0018387576
-0.00080168465
-0.0016116758
-0.0010782058
0.0022387904
-0.00092156549
-0.0019658597
-0.0011415165
0.002458806
-0.00090321127
-0.0021482568
0.0024507844
-0.00077128754
-0.0021392187
-0.0012528884
-0.00020964831
4.1761599e-05
-1.823371e-05
-0.00045755985
0.00019018161
-8.3853281e-05
-0.00071596101
0.00047455426
-0.00021320131
-0.0009325021
0.00091442026
-0.00042291131
-0.001053093
0.0014591625
-0.00069121467
-0.0010683608
0.0020032616
-0.00094266033
-0.0010336275
0.0024424502
-0.0010828218
-0.001022493
0.0026939821
-0.0010669275
0.0026920973
-0.00092430428
-0.0010673201
-0.00024755563
4.4009627e-05
-2.0352159e-05
-0.00053510732
0.00020135514
-9.427483e-05
-0.00082499595
0.00050300042
-0.00024104757
-0.0010516224
0.00096546996
-0.00047910572
-0.0011515586
0.0015312257
-0.00078106035
-0.0011192041
0.0020958256
-0.0010593957
-0.0010222074
0.002560055
-0.0012110592
-0.00094565908
0.0028360459
-0.0011917583
0.0028482548
-0.0010380258
-0.00093409554
-0.0002849116
4.4442825e-05
-2.1942094e-05
-0.00061219995
0.00020434531
-0.00010248452
-0.00093401221
0.0005111903
-0.00026371953
-0.0011719507
0.00097848916
-0.00052545025
-0.0012567495
0.0015454982
-0.00085439548
-0.0011876736
0.0021119489
-0.0011516671
-0.0010442021
0.0025879191
-0.0013078002
-0.00091935539
0.0028813259
-0.0012813133
0.0029103331
-0.0011167822
-0.00086169677
-0.00032032255
4.255434e-05
-2.2879812e-05
-0.00068545724
0.00019761764
-0.0001079925
-0.0010387958
0.00049694931
-0.00028019855
-0.0012912879
0.00095173587
-0.00056056751
-0.0013691436
0.0015012961
-0.00091031129
-0.0012768795
0.0020527911
-0.001220438
-0.0011018538
0.0025255158
-0.0013755104
-0.00094293577
0.0028282932
-0.0013397904
0.0028736378
-0.0011653453
-0.00084883343
-0.00035434192
3.9190618e-05
-2.3233002e-05
-0.00075826448
0.0001836497
-0.00011101848
-0.0011471673
0.00046417754
-0.00029093322
-0.0014215353
0.00088969541
-0.00058524004
-0.0015027077
0.0014025541
-0.00094996458
-0.0013999801
0.0019210592
-0.0012668436
-0.0012048676
0.0023726787
-0.0014171726
-0.0010209906
0.0026745532
-0.0013711196
0.0027331627
-0.0011880342
-0.00089563231
-0.00038484541
3.4314106e-05
-2.3070715e-05
-0.00082435633
0.00016248714
-0.00011171777
-0.0012474448
0.00041336551
-0.00029597226
-0.0015464024
0.00079427024
-0.00059919577
-0.0016393678
0.0012535614
-0.0009730541
-0.0015387343
0.0017224476
-0.0012917792
-0.0013360487
0.0021341164
-0.0014348965
-0.0011376496
0.0024231224
-0.001378458
0.0024900485
-0.0011886708
-0.00098842815
-0.00041161836
2.8249289e-05
-2.2466497e-05
-0.00088377243
0.00013536657
-0.00011038703
-0.0013403542
0.00034713933
-0.00029601042
-0.0016668186
0.00066969986
-0.00060377734
-0.0017781849
0.0010597471
-0.000981902
-0.001688757
0.0014629959
-0.0012986468
-0.0014893151
0.0018175408
-0.0014334551
-0.0012833377
0.0020781754
-0.001367037
0.0021471149
-0.0011724676
-0.0011151016
-0.00043416615
2.1426369e-05
-2.1581584e-05
-0.00093528449
0.00010399127
-0.00010766575
-0.0014235765
0.00026905013
-0.00029239834
-0.0017789421
0.00052167388
-0.00060125518
-0.0019132637
0.00082850087
-0.00097990921
-0.0018398012
0.0011494058
-0.0012920989
-0.0016507554
0.0014324379
-0.0014183204
-0.0014425514
0.0016477812
-0.0013428198
0.0017108906
-0.0011452384
-0.0012588834
-0.00045196951
1.4324097e-05
-2.0630672e-05
-0.00097729405
7.0307347e-05
-0.00010442623
-0.0014937311
0.00018327922
-0.00028701542
-0.0018767316
0.00035690642
-0.00059474744
-0.0020349827
0.00056861142
-0.00097155039
-0.0019796462
0.00079197642
-0.0012780212
-0.0018035451
0.00099023409
-0.0013960334
-0.0015961497
0.0011444953
-0.0013129543
0.0011931711
-0.0011136981
-0.0013998129
-0.00046421803
7.2199088e-06
-1.9879507e-05
-0.0010068257
3.5572342e-05
-0.00010170124
-0.0015441549
9.2992471e-05
-0.00028199642
-0.001948747
0.00018132046
-0.0005876519
-0.0021269609
0.00028922447
-0.00096156837
-0.0020881319
0.00040378489
-0.0012625654
-0.0019240125
0.00050614013
-0.0013737442
-0.0017188992
0.00058679082
-0.0012850809
0.00061343824
-0.001085157
-0.0015134582
-0.00047039359
-5.8381499e-11
-1.9397318e-05
-0.00102182
-2.2220599e-10
-9.9926847e-05
-0.0015700921
-5.3166352e-10
-0.00027863646
-0.0019865758
-1.008769e-09
-0.0005827895
-0.0021764989
-1.6975681e-09
-0.0009548668
-0.0021478635
-2.0021523e-09
-0.0012527746
-0.0019911287
-1.7279658e-09
-0.0013601602
-0.0017879524
-6.0929114e-10
-0.0012684856
6.6184222e-10
-0.0010682876
-0.0015778358
-0.00047039346
-7.2200394e-06
-1.9397316e-05
-0.0010218199
-3.5572855e-05
-9.9926838e-05
-0.0015700919
-9.2993635e-05
-0.00027863643
-0.0019865758
-0.00018132245
-0.00058278945
-0.0021764987
-0.0002892275
-0.00095486672
-0.0021478633
-0.0004037886
-0.0012527746
-0.0019911284
-0.00050614367
-0.0013601602
-0.0017879522
-0.00058679231
-0.0012684856
-0.00061343683
-0.0010682876
-0.0015778356
-0.00046421788
-1.4324198e-05
-1.9879509e-05
-0.0010068258
-7.0307732e-05
-0.00010170125
-0.0015441546
-0.00018328013
-0.00028199645
-0.0019487471
-0.00035690804
-0.00058765198
-0.0021269606
-0.00056861384
-0.00096156846
-0.0020881317
-0.0007919799
-0.0012625655
-0.0019240121
-0.00099023799
-0.0013737443
-0.0017188985
-0.0011444973
-0.0012850809
-0.0011931695
-0.0010851569
-0.0015134575
-0.00045196916
-2.1426404e-05
-2.0630673e-05
-0.00097729425
-0.00010399145
-0.00010442624
-0.0014937306
-0.00026905083
-0.00028701544
-0.0018767313
-0.00052167553
-0.0005947475
-0.0020349822
-0.00082850336
-0.00097155038
-0.0019796457
-0.0011494094
-0.0012780213
-0.0018035443
-0.0014324417
-0.0013960334
-0.0015961484
-0.0016477829
-0.0013129542
-0.0017108886
-0.001113698
-0.0013998118
-0.00043416574
-2.8249288e-05
-2.1581591e-05
-0.00093528442
-0.00013536671
-0.00010766578
-0.0014235759
-0.00034714008
-0.00029239839
-0.0017789418
-0.00066970171
-0.00060125531
-0.0019132633
-0.0010597498
-0.00097990927
-0.0018398006
-0.0014629994
-0.0012920989
-0.0016507543
-0.0018175439
-0.0014183203
-0.0014425498
-0.0020781765
-0.0013428197
-0.0021471132
-0.0011452383
-0.0012588822
-0.00041161806
-3.4314159e-05
-2.2466508e-05
-0.00088377198
-0.00016248733
-0.00011038707
-0.0013403532
-0.00041336606
-0.00029601051
-0.0016668182
-0.00079427183
-0.00060377751
-0.0017781848
-0.0012535641
-0.00098190213
-0.0016887566
-0.0017224511
-0.0012986469
-0.0014893143
-0.0021341195
-0.0014334551
-0.0012833366
-0.0024231236
-0.001367037
-0.002490047
-0.0011724677
-0.001115101
-0.00038484543
-3.919069e-05
-2.3070725e-05
-0.00082435643
-0.00018364997
-0.00011171781
-0.0012474449
-0.00046417829
-0.00029597236
-0.0015464027
-0.00088969724
-0.00059919595
-0.0016393679
-0.0014025568
-0.00097305429
-0.0015387342
-0.0019210627
-0.0012917795
-0.0013360484
-0.0023726824
-0.0014348967
-0.0011376493
-0.002674555
-0.0013784581
-0.0027331613
-0.0011886708
-0.00098842796
-0.00035434189
-4.2554375e-05
-2.3233013e-05
-0.00075826448
-0.00019761779
-0.00011101853
-0.0011471676
-0.00049694978
-0.00029093334
-0.0014215357
-0.00095173696
-0.00058524027
-0.0015027084
-0.0015012982
-0.00094996491
-0.001399981
-0.0020527944
-0.0012668442
-0.0012048682
-0.0025255195
-0.0014171731
-0.0010209912
-0.0028282955
-0.0013711198
-0.002873637
-0.0011880341
-0.00089563221
-0.00032032252
-4.4442869e-05
-2.2879816e-05
-0.00068545713
-0.00020434551
-0.00010799251
-0.001038796
-0.00051119072
-0.00028019859
-0.0012912883
-0.00097848999
-0.00056056757
-0.0013691443
-0.0015455002
-0.00091031139
-0.0012768805
-0.0021119521
-0.0012204382
-0.0011018548
-0.0025879225
-0.0013755107
-0.00094293701
-0.0028813287
-0.0013397904
-0.0029103339
-0.0011653452
-0.0008488334
-0.00028491163
-4.4009614e-05
-2.1942089e-05
-0.00061219999
-0.00020135518
-0.00010248449
-0.00093401243
-0.00050300061
-0.00026371947
-0.0011719512
-0.00096547064
-0.00052545013
-0.0012567501
-0.0015312275
-0.00085439536
-0.0011876748
-0.0020958285
-0.0011516671
-0.0010442041
-0.0025600579
-0.0013078003
-0.00091935717
-0.0028360492
-0.0012813133
-0.0028482574
-0.0011167823
-0.00086169647
-0.0002475556
-4.1761536e-05
-2.035215e-05
-0.00053510718
-0.00019018145
-9.4274789e-05
-0.00082499558
-0.00047455413
-0.00024104747
-0.0010516221
-0.00091442053
-0.00047910553
-0.0011515585
-0.0014591637
-0.00078106011
-0.0011192046
-0.0020032638
-0.0010593955
-0.0010222094
-0.0024424525
-0.0012110592
-0.00094566022
-0.0026939851
-0.0011917584
-0.0026921024
-0.0010380258
-0.00093409555
-0.00020964825
-3.777788e-05
-1.8233706e-05
-0.00045755961
-0.00017132501
-8.3853263e-05
-0.00071596058
-0.00042798673
-0.00021320126
-0.00093250188
-0.0008298376
-0.00042291126
-0.0010530927
-0.0013340029
-0.00069121463
-0.0010683604
-0.0018387596
-0.00094266034
-0.0010336276
-0.0022387924
-0.0010828218
-0.0010224925
-0.0024588098
-0.0010669278
-0.0024507896
-0.00092430447
-0.00106732
-0.00017266104
-1.5613501e-05
-3.2023493e-05
-0.0003819817
-7.1435741e-05
-0.00014598597
-0.00061046318
-0.00018085886
-0.00036604144
-0.00082170645
-0.00035816027
-0.00071431643
-0.00097128346
-0.00058622899
-0.001159585
-0.0010433935
-0.0008016847
-0.0016116767
-0.0010782037
-0.00092156571
-0.0019658606
-0.0011415153
-0.00090321156
-0.0021482585
-0.00077128765
-0.0021392222
-0.0012528914
9.5137927e-07
-8.3350527e-07
-1.5517964e-05
-2.1341121e-07
3.9733003e-06
-4.2285336e-06
-6.99981e-05
-2.3098248e-07
8.2705626e-06
-1.2421091e-05
-0.00017434093
1.606018e-06
1.1129108e-05
-3.0525837e-05
-0.00033977055
9.2777316e-06
1.1257346e-05
-6.5215825e-05
-0.0005504827
2.9341428e-05
1.2534031e-05
-0.00011885902
-0.00075033593
6.6233501e-05
2.1944655e-05
-0.00018343869
-0.00086342501
0.0001158873
4.3911421e-05
-0.00024223178
-0.00084837619
0.00016542981
-0.00027655783
-0.00072552016
0.00020023098
7.4471284e-05
1.5814666e-06
-2.2441402e-06
-1.8404526e-05
6.6415962e-06
-1.0201328e-05
-8.2940645e-05
1.3904824e-05
-2.6557933e-05
-0.0002063278
1.8805188e-05
-5.7235508e-05
-0.00040110219
1.8262657e-05
-0.00010835754
-0.00064753057
1.5830978e-05
-0.00017955689
-0.00087953106
1.9228652e-05
-0.00025865166
-0.0010110067
3.3301348e-05
-0.00032511507
-0.00099811688
-0.00035933165
-0.00086654169
5.8312561e-05
2.381057e-06
-3.9438922e-06
-2.1033424e-05
9.8664596e-06
-1.7242905e-05
-9.4718618e-05
2.0361239e-05
-4.2811625e-05
-0.00023528855
2.6935314e-05
-8.6998251e-05
-0.00045591691
2.4554305e-05
-0.00015475461
-0.00073228228
1.6784005e-05
-0.00024267259
-0.00098850981
1.2206092e-05
-0.0003348472
-0.0011302855
1.7244083e-05
-0.00040732097
-0.0011145905
-0.00043943245
-0.00097429567
3.3614744e-05
3.2726704e-06
-5.7578859e-06
-2.3400786e-05
1.3423668e-05
-2.4616746e-05
-0.00010526177
2.7312387e-05
-5.9433778e-05
-0.00026098609
3.5270029e-05
-0.00011654182
-0.00050386419
3.0225249e-05
-0.00019928219
-0.00080482329
1.6183881e-05
-0.00030136712
-0.0010789313
3.1723668e-06
-0.00040410735
-0.0012255285
-7.1140924e-07
-0.00048047461
-0.0012042758
-0.00050846773
-0.0010553794
6.9209617e-06
4.165781e-06
-7.416172e-06
-2.538732e-05
1.6987808e-05
-3.1279742e-05
-0.00011415149
3.4186439e-05
-7.4161399e-05
-0.00028266944
4.3196459e-05
-0.00014200914
-0.00054411033
3.500769e-05
-0.00023648943
-0.00086491527
1.4339944e-05
-0.00034902075
-0.0011521168
-6.4687682e-06
-0.0004586347
-0.0013001744
-1.8071735e-05
-0.00053640205
-0.0012722599
-0.00055897998
-0.001115345
-1.7559678e-05
5.1379216e-06
-8.7508828e-06
-2.703624e-05
2.086642e-05
-3.6488896e-05
-0.00012153793
4.1696515e-05
-8.5279096e-05
-0.00030064558
5.203454e-05
-0.00016035909
-0.00057722822
4.097039e-05
-0.00026173633
-0.00091365382
1.4384268e-05
-0.00037916582
-0.0012101124
-1.3251744e-05
-0.00049069198
-0.0013574793
-3.1328443e-05
-0.00056675977
-0.001322685
-0.00058333899
-0.0011585734
-3.6430144e-05
6.0069763e-06
-9.4623149e-06
-2.8366176e-05
2.4384805e-05
-3.9119569e-05
-0.00012746488
4.8541203e-05
-9.0445789e-05
-0.00031496235
6.0070506e-05
-0.00016779372
-0.00060329027
4.6462812e-05
-0.00026986192
-0.00095132107
1.4937681e-05
-0.00038563544
-0.0012537843
-1.8039722e-05
-0.00049339841
-0.0013992125
-4.0627147e-05
-0.00056448656
-0.0013581436
-0.00057532172
-0.0011881778
-4.9137525e-05
6.7580425e-06
-9.3260813e-06
-2.9360906e-05
2.7491055e-05
-3.8311872e-05
-0.00013192758
5.4679761e-05
-8.7878703e-05
-0.0003257665
6.7439494e-05
-0.00016144516
-0.00062288553
5.1910273e-05
-0.00025692318
-0.00097931156
1.6742261e-05
-0.00036359322
-0.0012855209
-2.0157857e-05
-0.00046139081
-0.0014285626
-4.5391454e-05
-0.0005241205
-0.0013821694
-0.00053011045
-0.0012076557
-5.5414596e-05
7.3602797e-06
-8.2100833e-06
-3.0058035e-05
3.0058746e-05
-3.3583137e-05
-0.00013509278
5.9883567e-05
-7.6618044e-05
-0.00033348402
7.3903783e-05
-0.00013982442
-0.00063689583
5.7164976e-05
-0.00022092416
-0.00099916925
1.9658127e-05
-0.00031060515
-0.00130758
-1.9809875e-05
-0.00039196776
-0.0014482756
-4.6143721e-05
-0.00044296974
-0.0013976368
-0.00044549645
-0.0012197743
-5.6221694e-05
7.8232088e-06
-6.1469529e-06
-3.0517114e-05
3.209244e-05
-2.506643e-05
-0.00013721209
6.4132844e-05
-5.6976404e-05
-0.00033869779
7.9437877e-05
-0.00010350714
-0.00064636956
6.218419e-05
-0.00016274605
-0.0010124749
2.3382648e-05
-0.00022780344
-0.0013220214
-1.7499564e-05
-0.00028645451
-0.0014606646
-4.3957496e-05
-0.00032261625
-0.0014068499
-0.00032319357
-0.0012266768
-5.3281627e-05
8.1403178e-06
-3.3150801e-06
-3.0851787e-05
3.3507048e-05
-1.3468032e-05
-0.00013866624
6.7138735e-05
-3.0504255e-05
-0.00034210039
8.3471942e-05
-5.5219303e-05
-0.00065227275
6.6079066e-05
-8.6526613e-05
-0.0010203952
2.6638806e-05
-0.00012076159
-0.0013301669
-1.4876784e-05
-0.00015152913
-0.001467154
-4.1012787e-05
-0.00017031932
-0.0014112418
-0.00017025127
-0.0012297297
-4.9382378e-05
8.2399027e-06
1.1528066e-11
-3.0952426e-05
3.4023968e-05
5.4348761e-11
-0.00013917894
6.8321139e-05
1.0983557e-10
-0.00034343819
8.5093801e-05
1.5822307e-10
-0.00065478155
6.7630427e-05
1.8846939e-10
-0.0010239303
2.7972767e-05
3.0144626e-10
-0.0013338787
-1.3630543e-05
4.5174374e-10
-0.0014700865
-3.9277132e-05
7.4505405e-10
-0.0014131592
9.7746205e-10
-0.0012310165
-4.680053e-05
8.2399492e-06
3.315112e-06
-3.0952422e-05
3.4023985e-05
1.3468149e-05
-0.00013917892
6.8321124e-05
3.0504465e-05
-0.00034343815
8.509376e-05
5.5219628e-05
-0.00065478146
6.7630532e-05
8.6527044e-05
-0.0010239301
2.7972828e-05
0.00012076218
-0.0013338785
-1.3630489e-05
0.00015152992
-0.0014700864
-3.92771e-05
0.0001703206
-0.0014131591
0.00017025311
-0.0012310165
-4.6800461e-05
8.1403754e-06
6.1469791e-06
-3.0851788e-05
3.3507043e-05
2.506653e-05
-0.00013866625
6.7138815e-05
5.6976594e-05
-0.00034210038
8.3471975e-05
0.00010350751
-0.00065227275
6.6079368e-05
0.00016274662
-0.0010203952
2.6638956e-05
0.00022780405
-0.001330167
-1.4876673e-05
0.00028645511
-0.0014671541
-4.1012679e-05
0.00032261727
-0.0014112418
0.00032319533
-0.0012297297
-4.9382194e-05
7.8232868e-06
8.2100998e-06
-3.0517109e-05
3.2092453e-05
3.3583254e-05
-0.00013721207
6.413316e-05
7.6618284e-05
-0.00033869774
7.9438088e-05
0.0001398248
-0.00064636949
6.2184547e-05
0.0002209247
-0.0010124748
2.3382855e-05
0.00031060567
-0.0013220213
-1.749936e-05
0.00039196822
-0.0014606644
-4.3957225e-05
0.00044297085
-0.0014068499
0.00044549841
-0.0012266768
-5.3281496e-05
7.3604372e-06
9.3261113e-06
-3.0058035e-05
3.0058733e-05
3.8312023e-05
-0.00013509278
5.9883839e-05
8.7878915e-05
-0.000333484
7.3903923e-05
0.00016144536
-0.00063689583
5.7165235e-05
0.00025692346
-0.00099916918
1.9658373e-05
0.0003635936
-0.0013075799
-1.9809523e-05
0.0004613913
-0.0014482755
-4.6143331e-05
0.0005241218
-0.0013976368
0.00053011263
-0.0012197744
-5.6221831e-05
6.75816e-06
9.4623704e-06
-2.9360909e-05
2.7490955e-05
3.9119765e-05
-0.00013192759
5.4679956e-05
9.0446033e-05
-0.00032576651
6.7439573e-05
0.00016779391
-0.00062288558
5.191059e-05
0.00026986215
-0.00097931158
1.6742609e-05
0.00038563575
-0.0012855209
-2.0157392e-05
0.00049339885
-0.0014285626
-4.5391062e-05
0.00056448764
-0.0013821695
0.00057532394
-0.0012076559
-5.5414719e-05
6.006948e-06
8.7509018e-06
-2.836618e-05
2.4384749e-05
3.6489024e-05
-0.0001274649
4.8541564e-05
8.527936e-05
-0.00031496239
6.0070653e-05
0.0001603593
-0.00060329035
4.6463243e-05
0.00026173655
-0.00095132116
1.493804e-05
0.0003791659
-0.0012537845
-1.8039394e-05
0.00049069201
-0.0013992127
-4.0626917e-05
0.00056676031
-0.0013581437
0.00058334105
-0.0011881779
-4.9137287e-05
5.1379598e-06
7.4162067e-06
-2.7036249e-05
2.0866498e-05
3.1279865e-05
-0.00012153796
4.1696589e-05
7.4161628e-05
-0.00030064567
5.2034603e-05
0.00014200935
-0.00057722838
4.097069e-05
0.00023648949
-0.00091365403
1.4384465e-05
0.00034902051
-0.0012101127
-1.3251663e-05
0.00045863433
-0.0013574797
-3.1328344e-05
0.00053640214
-0.0013226852
0.00055898156
-0.0011585735
-3.6429564e-05
4.1658331e-06
5.7578932e-06
-2.5387322e-05
1.6987816e-05
2.4616772e-05
-0.00011415149
3.4186358e-05
5.9433867e-05
-0.00028266944
4.3196467e-05
0.00011654192
-0.00054411033
3.5007718e-05
0.00019928203
-0.00086491523
1.4339947e-05
0.00030136674
-0.0011521169
-6.4688953e-06
0.00040410676
-0.0013001745
-1.8071726e-05
0.00048047424
-0.0012722601
0.00050846824
-0.0011153451
-1.7558927e-05
3.2726619e-06
3.9439198e-06
-2.3400782e-05
1.3423623e-05
1.7242981e-05
-0.00010526175
2.7312252e-05
4.2811747e-05
-0.00026098603
3.5269792e-05
8.6998336e-05
-0.00050386409
3.0225094e-05
0.00015475446
-0.00080482316
1.6183556e-05
0.00024267207
-0.0010789313
3.1719778e-06
0.00033484648
-0.0012255286
-7.1147572e-07
0.00040732004
-0.0012042759
0.00043943213
-0.0010553795
6.9220246e-06
2.3810251e-06
2.2441636e-06
-2.1033418e-05
9.8663933e-06
1.02014e-05
-9.4718586e-05
2.0361177e-05
2.655802e-05
-0.00023528847
2.6935167e-05
5.7235536e-05
-0.00045591675
2.4554015e-05
0.00010835736
-0.00073228207
1.678366e-05
0.00017955631
-0.00098850966
1.2205709e-05
0.00025865079
-0.0011302854
1.7244035e-05
0.00032511377
-0.0011145905
0.00035933038
-0.00097429573
3.3615394e-05
1.581474e-06
8.335217e-07
-1.8404525e-05
6.6416657e-06
4.2285773e-06
-8.2940634e-05
1.3905055e-05
1.2421116e-05
-0.00020632777
1.8805386e-05
3.0525801e-05
-0.00040110215
1.8262784e-05
6.5215588e-05
-0.00064753053
1.5831279e-05
0.00011885853
-0.00087953104
1.9228891e-05
0.00018343797
-0.0010110067
3.3301108e-05
0.00024223064
-0.00099811708
0.00027655685
-0.00086654187
5.8312501e-05
9.5142811e-07
-1.5517966e-05
-2.1342838e-07
3.9734001e-06
-6.9998106e-05
-2.3105987e-07
8.2706914e-06
-0.00017434094
1.6058304e-06
1.1129305e-05
-0.00033977057
9.2773754e-06
1.1257908e-05
-0.00055048272
2.9340939e-05
1.2534853e-05
-0.00075033595
6.6232728e-05
2.1945852e-05
-0.00086342511
0.00011588641
4.3912108e-05
-0.00084837635
0.00016542928
-0.00072552024
0.00020023096
7.4470282e-05
-2.5612265e-07
1.7133752e-06
-1.5335052e-05
-1.6401642e-06
-1.5641284e-06
7.4249503e-06
-6.8962424e-05
-7.152616e-06
-4.5239958e-06
1.7640666e-05
-0.00017191552
-1.7106215e-05
-8.7661742e-06
3.2071629e-05
-0.00033612014
-3.1479904e-05
-1.2775526e-05
4.6929778e-05
-0.00054623192
-4.7171284e-05
-1.4714033e-05
5.5570133e-05
-0.00074575349
-5.8214225e-05
-1.3817929e-05
5.3044858e-05
-0.00085794872
-5.9417481e-05
-1.1079851e-05
4.0776888e-05
-0.00084131995
-5.057135e-05
2.5313943e-05
-0.00071737396
-3.5443926e-05
-9.0959826e-06
-2.6364781e-07
1.7245226e-06
-1.8152021e-05
-1.639231e-06
7.4127587e-06
-8.1552899e-05
-4.550566e-06
1.7397796e-05
-0.00020317368
-8.0196376e-06
3.102736e-05
-0.00039658898
-9.9802203e-06
4.409959e-05
-0.00064273992
-8.7008368e-06
4.9818031e-05
-0.00087505854
-4.2542738e-06
4.3785948e-05
-0.0010061945
1.3850996e-06
2.8779047e-05
-0.00099175845
1.2709225e-05
-0.00085837814
5.8262463e-06
-2.3357341e-07
1.6524592e-06
-2.0727788e-05
-1.5501628e-06
7.0486382e-06
-9.3037955e-05
-4.2811063e-06
1.6370624e-05
-0.00023153049
-7.0789752e-06
2.8661777e-05
-0.0004507535
-7.4561148e-06
3.9462496e-05
-0.00072726812
-3.7364289e-06
4.2156693e-05
-0.0009845683
3.3082287e-06
3.3101041e-05
-0.0011266453
1.0755604e-05
1.6260275e-05
-0.0011095193
4.0797352e-07
-0.00096684124
1.5602308e-05
-1.9132409e-07
1.5036333e-06
-2.3060658e-05
-1.4099353e-06
6.3721532e-06
-0.00010336673
-3.8800548e-06
1.4661628e-05
-0.000256807
-5.926349e-06
2.5214147e-05
-0.00049837025
-4.8128975e-06
3.3553852e-05
-0.0008000282
9.6541703e-07
3.3478512e-05
-0.0010760316
9.8777649e-06
2.2220462e-05
-0.0012235605
1.8128199e-05
4.6406805e-06
-0.0012009067
-1.0176175e-05
-0.0010490337
2.2366605e-05
-1.3263025e-07
1.2887765e-06
-2.5039856e-05
-1.206516e-06
5.4460605e-06
-0.00011215153
-3.3629282e-06
1.2455128e-05
-0.00027830652
-4.662604e-06
2.1073397e-05
-0.00053866997
-2.2092847e-06
2.7029618e-05
-0.00086084437
5.2590849e-06
2.4709364e-05
-0.0011508162
1.5522337e-05
1.2184533e-05
-0.0013004018
2.4022612e-05
-5.1374722e-06
-0.0012709822
-1.8361123e-05
-0.0011104364
2.7298935e-05
-8.46919e-08
1.0482688e-06
-2.6711053e-05
-1.0420361e-06
4.4181753e-06
-0.00011955273
-2.9328034e-06
1.0051734e-05
-0.00029635143
-3.5744849e-06
1.6717927e-05
-0.00057223108
7.3958874e-08
2.052117e-05
-0.00091079394
9.0093855e-06
1.6584121e-05
-0.0012109226
2.0327614e-05
3.7349917e-06
-0.0013603481
2.8819325e-05
-1.2472044e-05
-0.0013238421
-2.3770959e-05
-0.0011553778
3.1033562e-05
-3.1635389e-08
8.0031497e-07
-2.8086566e-05
-8.5610369e-07
3.3722041e-06
-0.0001255944
-2.4660402e-06
7.6493565e-06
-0.00031095016
-2.4862657e-06
1.2502986e-05
-0.00059905502
2.208565e-06
1.4549747e-05
-0.00095004459
1.2349056e-05
9.7284357e-06
-0.0012570692
2.4426965e-05
-2.5453345e-06
-0.0014050101
3.2751164e-05
-1.6959236e-05
-0.0013619805
-2.6219389e-05
-0.0011869121
3.3933904e-05
1.7491609e-08
5.6855341e-07
-2.9146671e-05
-6.8345852e-07
2.401279e-06
-0.00013025561
-2.0385705e-06
5.4448454e-06
-0.00032220695
-1.5143268e-06
8.7390667e-06
-0.00061964579
4.0666964e-06
9.512127e-06
-0.00097985499
1.5203105e-05
4.5378765e-06
-0.0012914667
2.7853301e-05
-6.3423576e-06
-0.0014374158
3.5980178e-05
-1.8454952e-05
-0.0013888006
-2.570196e-05
-0.0012084596
3.6266656e-05
5.9217345e-08
3.7113906e-07
-2.9919892e-05
-5.3864342e-07
1.5751159e-06
-0.00013366867
-1.6816089e-06
3.5769001e-06
-0.00033047315
-7.1129637e-07
5.6308775e-06
-0.00063475785
5.5869085e-06
5.6326141e-06
-0.0010015879
1.7511179e-05
1.1906729e-06
-0.001316157
3.0627234e-05
-7.6264034e-06
-0.0014601076
3.8613125e-05
-1.7062209e-05
-0.0014070155
-2.2364648e-05
-0.0012226895
3.819107e-05
9.1389172e-08
2.1602092e-07
-3.0453408e-05
-4.2826103e-07
9.2173884e-07
-0.00013603899
-1.4115736e-06
2.0978267e-06
-0.00033623549
-1.0363926e-07
3.2373828e-06
-0.00064528392
6.7446018e-06
2.9238744e-06
-0.0010166145
1.9280927e-05
-4.1518982e-07
-0.0013329518
3.2776851e-05
-6.6349543e-06
-0.0014751519
4.0688433e-05
-1.3098096e-05
-0.0014187256
-1.6552863e-05
-0.0012315512
3.9751133e-05
1.1115329e-07
9.6631383e-08
-3.0843576e-05
-3.5979142e-07
4.1445604e-07
-0.00013768796
-1.2348823e-06
9.4492819e-07
-0.00034007246
3.1504033e-07
1.4318467e-06
-0.00065201705
7.5525731e-06
1.1659152e-06
-0.0010258748
2.0514195e-05
-6.2944125e-07
-0.0013429143
3.4277577e-05
-3.8505383e-06
-0.0014837017
4.2162176e-05
-7.1329148e-06
-0.0014250914
-8.8269433e-06
-0.0012361682
4.0874816e-05
1.2241298e-07
6.3494049e-13
-3.0978244e-05
-3.2199801e-07
7.1648859e-12
-0.00013832004
-1.1428076e-06
4.8820134e-12
-0.00034167253
5.2365293e-07
2.3529853e-11
-0.00065501614
7.9484293e-06
6.0943499e-11
-0.0010301891
2.1119422e-05
1.4967865e-10
-0.0013476791
3.502449e-05
3.2863737e-10
-0.0014878423
4.2914303e-05
7.376225e-10
-0.0014281825
1.1676505e-09
-0.0012383975
4.1467198e-05
1.2242901e-07
-9.6628813e-08
-3.0978239e-05
-3.2199322e-07
-4.144426e-07
-0.00013832002
-1.142789e-06
-9.4491951e-07
-0.00034167248
5.2366153e-07
-1.4317959e-06
-0.00065501606
7.9484983e-06
-1.1657862e-06
-0.001030189
2.1119484e-05
6.2970112e-07
-0.001347679
3.5024567e-05
3.8511239e-06
-0.0014878422
4.2914357e-05
7.1342835e-06
-0.0014281825
8.8292226e-06
-0.0012383975
4.1467223e-05
1.111739e-07
-2.1602199e-07
-3.0843577e-05
-3.5980876e-07
-9.2173709e-07
-0.00013768796
-1.2348374e-06
-2.0978305e-06
-0.00034007245
3.1505276e-07
-3.2373416e-06
-0.00065201705
7.5527268e-06
-2.9237611e-06
-0.0010258748
2.0514348e-05
4.1533539e-07
-0.0013429142
3.4277762e-05
6.6353553e-06
-0.0014837017
4.2162342e-05
1.3099278e-05
-0.0014250915
1.6555066e-05
-0.0012361682
4.0874935e-05
9.141053e-08
-3.7114472e-07
-3.0453402e-05
-4.2830859e-07
-1.5751218e-06
-0.00013603897
-1.4115137e-06
-3.5769177e-06
-0.00033623542
-1.0361446e-07
-5.6308986e-06
-0.0006452838
6.7447914e-06
-5.6326206e-06
-0.0010166143
1.9281175e-05
-1.190722e-06
-0.0013329516
3.277715e-05
7.6265767e-06
-0.0014751517
4.0688774e-05
1.7063276e-05
-0.0014187255
2.2366771e-05
-0.0012315512
3.975142e-05
5.9267585e-08
-5.6855567e-07
-2.991989e-05
-5.3869669e-07
-2.4012818e-06
-0.00013366866
-1.6815611e-06
-5.4449007e-06
-0.00033047311
-7.1125915e-07
-8.7392144e-06
-0.00063475779
5.587118e-06
-9.5123389e-06
-0.0010015878
1.7511515e-05
-4.5381438e-06
-0.0013161569
3.0627678e-05
6.3423279e-06
-0.0014601075
3.8613657e-05
1.8455879e-05
-0.0014070155
2.5703826e-05
-0.0012226895
3.8191549e-05
1.753313e-08
-8.0031876e-07
-2.9146672e-05
-6.8352037e-07
-3.3722104e-06
-0.00013025561
-2.0384915e-06
-7.6494345e-06
-0.00032220695
-1.5142285e-06
-1.2503204e-05
-0.00061964579
4.0669806e-06
-1.4550103e-05
-0.00097985495
1.5203524e-05
-9.7288975e-06
-0.0012914667
2.7853865e-05
2.5450827e-06
-0.0014374158
3.5980818e-05
1.6959857e-05
-0.0013888006
2.6220852e-05
-0.0012084597
3.6267298e-05
-3.1633952e-08
-1.0482821e-06
-2.808657e-05
-8.5613286e-07
-4.4181917e-06
-0.00012559441
-2.4658841e-06
-1.0051817e-05
-0.00031095019
-2.4861262e-06
-1.6718198e-05
-0.00059905506
2.2088998e-06
-2.0521632e-05
-0.00095004464
1.2349503e-05
-1.658479e-05
-0.0012570693
2.4427543e-05
-3.7355515e-06
-0.0014050102
3.2751819e-05
1.247225e-05
-0.0013619806
2.3772099e-05
-0.0011869122
3.3934594e-05
-8.4671016e-08
-1.2887809e-06
-2.6711062e-05
-1.0419893e-06
-5.4460643e-06
-0.00011955276
-2.9327124e-06
-1.2455208e-05
-0.00029635151
-3.5743843e-06
-2.1073683e-05
-0.00057223122
7.4215624e-08
-2.7030167e-05
-0.00091079412
9.0097453e-06
-2.4710197e-05
-0.0012109229
2.0328088e-05
-1.2185393e-05
-0.0013603483
2.8819955e-05
5.1372458e-06
-0.0013238423
1.836207e-05
-0.0011553779
3.1034143e-05
-1.325922e-07
-1.5036434e-06
-2.5039857e-05
-1.2064462e-06
-6.3721804e-06
-0.00011215153
-3.3628592e-06
-1.4661712e-05
-0.00027830652
-4.6625075e-06
-2.5214389e-05
-0.00053866997
-2.209131e-06
-3.3554388e-05
-0.00086084435
5.2593004e-06
-3.3479374e-05
-0.0011508162
1.552262e-05
-2.2221597e-05
-0.0013004018
2.402313e-05
-4.6414476e-06
-0.0012709822
1.0176839e-05
-0.0011104364
2.7299408e-05
-1.913158e-07
-1.6524544e-06
-2.3060655e-05
-1.4099086e-06
-7.0486276e-06
-0.00010336672
-3.8800241e-06
-1.637064e-05
-0.00025680696
-5.9263355e-06
-2.8661917e-05
-0.00049837016
-4.8128266e-06
-3.9462926e-05
-0.00080002806
9.6537726e-07
-4.2157539e-05
-0.0010760315
9.8776956e-06
-3.3102284e-05
-0.0012235604
1.8128356e-05
-1.6261492e-05
-0.0012009067
-4.0766583e-07
-0.0010490338
2.2367069e-05
-2.3357945e-07
-1.7245069e-06
-2.0727782e-05
-1.5501399e-06
-7.4127134e-06
-9.3037928e-05
-4.281019e-06
-1.739774e-05
-0.00023153042
-7.0788883e-06
-3.1027388e-05
-0.00045075336
-7.4561688e-06
-4.4099866e-05
-0.00072726793
-3.7366915e-06
-4.9818709e-05
-0.0009845681
3.3077095e-06
-4.3787048e-05
-0.0011266451
1.0755223e-05
-2.8780497e-05
-0.0011095192
-1.2709562e-05
-0.00096684126
1.5602291e-05
-2.6363798e-07
-1.713361e-06
-1.815202e-05
-1.6391535e-06
-7.4249074e-06
-8.1552895e-05
-4.5503403e-06
-1.7640602e-05
-0.00020317367
-8.0193842e-06
-3.2071575e-05
-0.00039658895
-9.980137e-06
-4.6929844e-05
-0.00064273987
-8.7009342e-06
-5.5570442e-05
-0.0008750585
-4.2545972e-06
-5.3045699e-05
-0.0010061945
1.384364e-06
-4.0778178e-05
-0.00099175855
-2.5314783e-05
-0.00085837823
5.8258518e-06
-2.561025e-07
-1.5335055e-05
-1.6401615e-06
-1.5640596e-06
-6.8962436e-05
-7.1526178e-06
-4.5238423e-06
-0.00017191554
-1.710623e-05
-8.7659079e-06
-0.00033612019
-3.1479949e-05
-1.2774993e-05
-0.00054623198
-4.7171436e-05
-1.4713293e-05
-0.00074575355
-5.8214671e-05
-1.3817108e-05
-0.00085794882
-5.941832e-05
-1.1079496e-05
-0.00084132008
-5.0572172e-05
-0.00071737402
-3.5443862e-05
-9.0969924e-06
-1.2053875e-07
-1.3884405e-07
-1.520312e-05
1.274515e-07
-4.5871319e-07
-7.0832594e-07
-6.8566898e-05
6.5097194e-07
-1.1683767e-06
-2.1167399e-06
-0.00017098893
1.8998014e-06
-2.6280349e-06
-5.3489752e-06
-0.00033393714
4.6255883e-06
-4.7509593e-06
-1.1967996e-05
-0.00054213223
9.9911688e-06
-6.109378e-06
-2.3447377e-05
-0.00074003485
1.9087046e-05
-4.0554097e-06
-3.9590819e-05
-0.00085216309
3.1751063e-05
3.4680634e-06
-5.7114009e-05
-0.00083729837
4.5568818e-05
-7.0386928e-05
-0.00071565978
5.6714993e-05
1.5425762e-05
-1.5139643e-07
-1.6130272e-07
-1.7978167e-05
-5.47219e-07
-8.2295899e-07
-8.1042467e-05
-1.3568331e-06
-2.4735488e-06
-0.00020200731
-3.0760205e-06
-6.3258333e-06
-0.00039389302
-5.7032436e-06
-1.4336773e-05
-0.00063774401
-7.7693545e-06
-2.8330688e-05