/*--------------------------------*- C++ -*----------------------------------*\
| =========                 |                                                 |
| \\      /  F ield         | OpenFOAM: The Open Source CFD Toolbox           |
|  \\    /   O peration     | Version:  2406                                  |
|   \\  /    A nd           | Website:  www.openfoam.com                      |
|    \\/     M anipulation  |                                                 |
\*---------------------------------------------------------------------------*/
FoamFile
{
    version     2.0;
    format      ascii;
    arch        "LSB;label=32;scalar=64";
    class       volVectorField;
    location    "16";
    object      U;
}
// * * * * * * * * * * * * * * * * * * * * * * * * * * * * * * * * * * * * * //

dimensions      [0 1 -1 0 0 0 0];

internalField   nonuniform List<vector> 
34560
(
(-0.080036465 0.014404803 0.030551596)
(-0.27614773 0.046953982 0.099209596)
(-0.54294585 0.089533901 0.1788068)
(-0.87228216 0.1388364 0.25801842)
(-1.2260242 0.19019608 0.31971996)
(-1.5458022 0.24172524 0.35136529)
(-1.7826608 0.29498894 0.35319902)
(-1.921678 0.34914175 0.33562935)
(-1.9760291 0.39798053 0.31189285)
(-0.081858947 0.017039295 0.033989126)
(-0.28683792 0.055007553 0.10993489)
(-0.56950833 0.10328557 0.19601095)
(-0.91728987 0.15676534 0.27815853)
(-1.2816429 0.20987238 0.33740342)
(-1.5954072 0.26161569 0.36277676)
(-1.810325 0.31482185 0.35776602)
(-1.9217811 0.36901448 0.33534153)
(-1.9521621 0.41701463 0.30738571)
(-0.080648539 0.017744646 0.035235536)
(-0.289204 0.057947742 0.11456659)
(-0.58319817 0.10928579 0.20395499)
(-0.94548525 0.16519212 0.28771091)
(-1.3160121 0.21908949 0.34536716)
(-1.6192715 0.27057662 0.36669213)
(-1.8109249 0.32343911 0.35756224)
(-1.8944524 0.37785197 0.3315932)
(-1.9027617 0.42465586 0.301772)
(-0.076729659 0.018231738 0.03630712)
(-0.28377313 0.059788777 0.11822584)
(-0.58427922 0.1125457 0.20962745)
(-0.95692419 0.16875066 0.2935287)
(-1.3302036 0.22151729 0.34895707)
(-1.6205578 0.27152555 0.36720982)
(-1.788067 0.32349181 0.35510655)
(-1.844386 0.37586472 0.32786885)
(-1.8322072 0.42105005 0.29824685)
(-0.069888438 0.017698055 0.036740375)
(-0.26980769 0.058727622 0.1199873)
(-0.57144064 0.11108639 0.21225991)
(-0.95027093 0.16619228 0.29594185)
(-1.3240118 0.21689611 0.34970247)
(-1.6016442 0.26415119 0.36578181)
(-1.7438218 0.31351907 0.35242604)
(-1.7742024 0.36333256 0.32553858)
(-1.7426928 0.40652678 0.29732185)
(-0.060738582 0.016467609 0.0366491)
(-0.24883238 0.055433674 0.12010748)
(-0.54706195 0.10552566 0.21242989)
(-0.92847437 0.15768994 0.29570296)
(-1.2999822 0.20481454 0.34842767)
(-1.5623864 0.24850675 0.36381905)
(-1.6800147 0.2942555 0.35086036)
(-1.6856918 0.34090455 0.3254292)
(-1.6361039 0.38145482 0.29934487)
(-0.04986875 0.014714961 0.036453436)
(-0.22205153 0.050210648 0.11969762)
(-0.51208122 0.096199933 0.21157816)
(-0.89161021 0.14371654 0.29437708)
(-1.2579382 0.18606523 0.3467803)
(-1.5045576 0.22524944 0.36264916)
(-1.5988767 0.26606999 0.35146865)
(-1.581204 0.30882689 0.32814651)
(-1.5150346 0.34599405 0.30444382)
(-0.03786556 0.012385457 0.03615048)
(-0.19100544 0.042975248 0.11889619)
(-0.4688544 0.083123751 0.21022574)
(-0.84263144 0.12448696 0.29288045)
(-1.201318 0.16106579 0.34576824)
(-1.4316381 0.19516892 0.36295835)
(-1.5048515 0.22952629 0.35483412)
(-1.4651022 0.26754501 0.33393445)
(-1.3839906 0.30047254 0.31249101)
(-0.025753392 0.0096784144 0.035855342)
(-0.15860585 0.034229504 0.118075)
(-0.42181787 0.066989099 0.20897438)
(-0.78700176 0.10078687 0.29189896)
(-1.1363154 0.13059364 0.34593744)
(-1.350467 0.15860843 0.36522695)
(-1.4048073 0.18616871 0.36043547)
(-1.3448183 0.21786404 0.34235777)
(-1.2507298 0.2455475 0.32278963)
(-0.014860535 0.0068417445 0.035626203)
(-0.12875241 0.024675899 0.1174242)
(-0.37718419 0.048875912 0.20810426)
(-0.73259051 0.073924718 0.29162954)
(-1.071955 0.096002594 0.34719791)
(-1.2712085 0.11685676 0.36898269)
(-1.3089584 0.13724958 0.36733628)
(-1.2318001 0.16117822 0.35210346)
(-1.1268904 0.18234646 0.33390198)
(-0.006671986 0.0040901282 0.035519393)
(-0.10585275 0.014932215 0.11709252)
(-0.34206038 0.029774285 0.20774032)
(-0.6885381 0.045142474 0.29194181)
(-1.0189741 0.058688378 0.34895684)
(-1.2061609 0.071559792 0.37300801)
(-1.2306982 0.084178244 0.37393074)
(-1.1404992 0.09910732 0.36102779)
(-1.0275961 0.11249238 0.34369786)
(-0.0020426752 0.001375133 0.035483499)
(-0.092751693 0.0050296333 0.11699226)
(-0.32167363 0.010044294 0.20766662)
(-0.66264561 0.015207643 0.29230759)
(-0.98771846 0.019752606 0.35022635)
(-1.1679887 0.024111896 0.37567905)
(-1.1849329 0.028430528 0.37812443)
(-1.0874609 0.033574732 0.36656643)
(-0.97020956 0.038218417 0.34965169)
(-0.0020426844 -0.0013752018 0.035483485)
(-0.092751724 -0.005029809 0.11699226)
(-0.32167369 -0.010044593 0.20766662)
(-0.66264572 -0.015208055 0.29230762)
(-0.98771859 -0.019753155 0.35022639)
(-1.1679889 -0.024112458 0.37567906)
(-1.1849331 -0.028430974 0.37812443)
(-1.087461 -0.033574854 0.36656639)
(-0.97020952 -0.038218146 0.34965162)
(-0.0066720172 -0.0040901929 0.03551937)
(-0.10585286 -0.014932392 0.11709251)
(-0.34206058 -0.029774611 0.20774033)
(-0.68853844 -0.04514292 0.29194186)
(-1.0189745 -0.058688932 0.3489569)
(-1.2061613 -0.071560406 0.37300804)
(-1.2306985 -0.08417879 0.37393072)
(-1.1404994 -0.099107543 0.36102768)
(-1.027596 -0.11249212 0.34369765)
(-0.014860586 -0.006841797 0.035626209)
(-0.12875259 -0.024676086 0.11742422)
(-0.37718453 -0.048876248 0.20810436)
(-0.73259102 -0.07392518 0.29162966)
(-1.0719554 -0.096003154 0.34719803)
(-1.2712089 -0.11685743 0.36898277)
(-1.3089587 -0.13725019 0.36733625)
(-1.2318003 -0.16117851 0.35210328)
(-1.1268903 -0.18234625 0.33390165)
(-0.025753451 -0.0096784586 0.035855358)
(-0.15860605 -0.034229688 0.11807508)
(-0.42181821 -0.066989427 0.20897448)
(-0.78700225 -0.10078732 0.29189909)
(-1.1363157 -0.13059418 0.34593761)
(-1.3504673 -0.15860905 0.36522705)
(-1.4048073 -0.18616925 0.36043542)
(-1.3448183 -0.21786431 0.34235756)
(-1.2507298 -0.24554735 0.32278932)
(-0.037865617 -0.012385488 0.036150454)
(-0.19100563 -0.042975341 0.11889628)
(-0.46885471 -0.083123993 0.21022578)
(-0.84263189 -0.12448736 0.29288058)
(-1.2013183 -0.16106629 0.34576843)
(-1.4316383 -0.19516949 0.36295847)
(-1.5048515 -0.22952676 0.3548341)
(-1.4651022 -0.26754526 0.33393433)
(-1.3839906 -0.30047243 0.31249082)
(-0.049868798 -0.014715006 0.036453446)
(-0.22205168 -0.050210746 0.11969773)
(-0.51208146 -0.096200139 0.21157828)
(-0.89161054 -0.14371689 0.29437731)
(-1.2579385 -0.18606567 0.34678053)
(-1.504558 -0.22524997 0.36264933)
(-1.598877 -0.26607052 0.35146876)
(-1.581204 -0.30882716 0.32814651)
(-1.5150346 -0.34599389 0.30444374)
(-0.060738614 -0.016467636 0.036649094)
(-0.24883248 -0.055433749 0.12010746)
(-0.54706211 -0.10552581 0.21242988)
(-0.92847465 -0.15769024 0.29570305)
(-1.2999825 -0.20481493 0.34842784)
(-1.562387 -0.24850726 0.36381934)
(-1.6800152 -0.29425603 0.35086063)
(-1.6856918 -0.34090481 0.32542924)
(-1.6361037 -0.38145468 0.29934485)
(-0.069888481 -0.017698075 0.036740368)
(-0.26980783 -0.058727687 0.11998729)
(-0.57144087 -0.11108654 0.21225995)
(-0.95027127 -0.16619251 0.29594198)
(-1.3240123 -0.21689647 0.34970273)
(-1.6016449 -0.26415166 0.36578222)
(-1.7438223 -0.31351949 0.35242636)
(-1.7742024 -0.36333277 0.32553873)
(-1.7426929 -0.40652684 0.29732196)
(-0.07672968 -0.018231749 0.03630713)
(-0.2837732 -0.059788874 0.11822579)
(-0.58427931 -0.11254585 0.20962746)
(-0.95692427 -0.16875085 0.29352879)
(-1.3302038 -0.22151759 0.34895733)
(-1.6205582 -0.27152593 0.36721021)
(-1.7880674 -0.32349213 0.35510693)
(-1.8443863 -0.3758649 0.32786922)
(-1.8322073 -0.42105003 0.29824682)
(-0.080648546 -0.017744612 0.035235513)
(-0.28920402 -0.057947719 0.1145665)
(-0.5831982 -0.1092858 0.20395493)
(-0.94548529 -0.16519222 0.28771093)
(-1.3160122 -0.21908969 0.34536736)
(-1.6192718 -0.2705769 0.36669242)
(-1.8109253 -0.3234393 0.35756256)
(-1.894453 -0.37785201 0.33159346)
(-1.9027617 -0.42465567 0.30177192)
(-0.081858955 -0.017039275 0.033989096)
(-0.28683794 -0.055007536 0.10993483)
(-0.56950838 -0.10328561 0.19601091)
(-0.91728999 -0.15676549 0.27815858)
(-1.281643 -0.20987258 0.33740358)
(-1.5954074 -0.26161587 0.36277688)
(-1.8103254 -0.314822 0.35776621)
(-1.9217817 -0.36901438 0.33534178)
(-1.9521623 -0.41701418 0.30738562)
(-0.080036469 -0.014404796 0.030551582)
(-0.27614773 -0.046954008 0.099209571)
(-0.54294587 -0.089533964 0.17880684)
(-0.87228219 -0.13883656 0.25801847)
(-1.2260242 -0.1901963 0.31971993)
(-1.5458022 -0.24172546 0.35136533)
(-1.7826612 -0.29498918 0.35319913)
(-1.9216787 -0.34914204 0.33562926)
(-1.9760293 -0.39798061 0.31189318)
(-0.099066207 -9.8739498e-05 -0.00017742028)
(-0.3243881 -0.00055220034 -0.00092270476)
(-0.60801142 -0.0015867641 -0.0025327183)
(-0.93497783 -0.0040859342 -0.0051886116)
(-1.270337 -0.0091955531 -0.00865751)
(-1.5667251 -0.01739973 -0.012243648)
(-1.7836165 -0.028029017 -0.015278801)
(-1.9094387 -0.03978608 -0.017492817)
(-1.9564965 -0.051000392 -0.018928904)
(-0.10813053 -0.00090619703 -0.00087317385)
(-0.35235578 -0.0029695023 -0.0030460632)
(-0.65631361 -0.0057455797 -0.0062845389)
(-0.99984825 -0.010106611 -0.010452498)
(-1.3411144 -0.017146361 -0.014798171)
(-1.6281833 -0.027137776 -0.018268508)
(-1.8224493 -0.039163456 -0.020314468)
(-1.9210018 -0.051802799 -0.021177454)
(-1.9480828 -0.063409711 -0.021694264)
(-0.11575945 -0.0018593352 -0.0015051601)
(-0.37590676 -0.0057715949 -0.0049893015)
(-0.69676143 -0.010445025 -0.0097050612)
(-1.0531867 -0.016650222 -0.01511592)
(-1.3970474 -0.025375232 -0.019922288)
(-1.6728161 -0.036725789 -0.022845775)
(-1.8449136 -0.049672898 -0.023603489)
(-1.9196506 -0.062703418 -0.022925773)
(-1.9318737 -0.074236323 -0.02214955)
(-0.12246356 -0.0029431384 -0.0020553194)
(-0.39640532 -0.0088925311 -0.0066790478)
(-0.73153533 -0.01554656 -0.012676173)
(-1.0981611 -0.023508601 -0.019071125)
(-1.4427442 -0.033636291 -0.0240096)
(-1.7071524 -0.045941893 -0.026088544)
(-1.8592855 -0.059401311 -0.02541563)
(-1.9139992 -0.072459055 -0.02320441)
(-1.9142755 -0.083562957 -0.021214742)
(-0.12782189 -0.0040055459 -0.0024366442)
(-0.41289773 -0.011919516 -0.0078715169)
(-0.75958336 -0.020411656 -0.014818081)
(-1.134249 -0.029882975 -0.02187429)
(-1.4787529 -0.041063288 -0.026656719)
(-1.7329649 -0.053933806 -0.027697444)
(-1.8681238 -0.067511997 -0.025598172)
(-1.9065115 -0.080245784 -0.022022531)
(-1.897119 -0.090539068 -0.019042066)
(-0.13208025 -0.0049408028 -0.0025850642)
(-0.42602212 -0.014547215 -0.00838175)
(-0.78186209 -0.024539576 -0.015859016)
(-1.1626538 -0.035098552 -0.023225509)
(-1.5064777 -0.046839194 -0.027599631)
(-1.7517911 -0.059767534 -0.027519226)
(-1.8729097 -0.072972834 -0.024091149)
(-1.8982505 -0.084995283 -0.019389812)
(-1.8811448 -0.094172129 -0.015701863)
(-0.13551785 -0.0056042636 -0.0025180742)
(-0.43650375 -0.01636188 -0.0082501479)
(-0.79944111 -0.027283028 -0.015836359)
(-1.1846634 -0.038345184 -0.023167543)
(-1.527298 -0.050059293 -0.026931235)
(-1.7649199 -0.062475982 -0.02570797)
(-1.874651 -0.074808737 -0.021088096)
(-1.8897794 -0.085734019 -0.015507814)
(-1.8666674 -0.093587748 -0.011391844)
(-0.13798996 -0.0058176169 -0.0022378454)
(-0.4440984 -0.016884069 -0.0074938569)
(-0.81222372 -0.027920358 -0.014798479)
(-1.2005753 -0.038747584 -0.021810219)
(-1.5419657 -0.049779453 -0.024852657)
(-1.7733425 -0.061103935 -0.022560339)
(-1.8741957 -0.072102049 -0.016927934)
(-1.8815648 -0.081588482 -0.010723593)
(-1.8538892 -0.088011442 -0.0064286452)
(-0.13961601 -0.0054608139 -0.0018051544)
(-0.4491711 -0.015784528 -0.0062875559)
(-0.82085706 -0.025951949 -0.013022641)
(-1.2113238 -0.035698502 -0.019523392)
(-1.5516222 -0.045345418 -0.021820367)
(-1.7782054 -0.055007927 -0.018600732)
(-1.8724145 -0.064209374 -0.012155817)
(-1.8740602 -0.071959292 -0.0055565763)
(-1.8430154 -0.076916234 -0.0012701707)
(-0.14060646 -0.0044934827 -0.0013141315)
(-0.45234641 -0.012955145 -0.0049028231)
(-0.82635523 -0.021219674 -0.010941507)
(-1.2181776 -0.029013114 -0.01687013)
(-1.5575829 -0.036562108 -0.01849357)
(-1.7806679 -0.043988273 -0.014525621)
(-1.8701201 -0.050962512 -0.0074854902)
(-1.8677224 -0.056716983 -0.00067524621)
(-1.8343004 -0.060224092 0.0034936699)
(-0.14146569 -0.002978308 -0.00089179636)
(-0.45483375 -0.008564119 -0.0037044679)
(-0.83030964 -0.013983915 -0.009121859)
(-1.2227403 -0.019032101 -0.014556331)
(-1.5612096 -0.023848241 -0.01566177)
(-1.7817538 -0.028526515 -0.01116042)
(-1.868002 -0.032889727 -0.0037283881)
(-1.8629807 -0.036441497 0.0031714832)
(-1.8280433 -0.03853302 0.007199686)
(-0.14160622 -0.0010467477 -0.00065801118)
(-0.45540767 -0.00300322 -0.0030381112)
(-0.83144899 -0.0048902836 -0.0080950219)
(-1.2242534 -0.0066418843 -0.013239575)
(-1.5624656 -0.0083082411 -0.014056782)
(-1.7819484 -0.0099180371 -0.0092711062)
(-1.8667178 -0.011409779 -0.0016379983)
(-1.860431 -0.012611027 0.0052954397)
(-1.8247334 -0.013303261 0.0092375644)
(-0.14160621 0.0010467674 -0.00065801675)
(-0.45540766 0.0030032771 -0.0030381189)
(-0.83144897 0.0048903624 -0.0080950268)
(-1.2242534 0.0066419711 -0.013239575)
(-1.5624655 0.0083083244 -0.014056789)
(-1.7819484 0.0099181392 -0.0092711255)
(-1.8667178 0.011409913 -0.0016380126)
(-1.8604311 0.012611233 0.0052954337)
(-1.8247335 0.013303543 0.0092375615)
(-0.14146569 0.0029783236 -0.00089180844)
(-0.45483374 0.0085641642 -0.0037044776)
(-0.83030961 0.013983975 -0.0091218685)
(-1.2227403 0.01903218 -0.014556342)
(-1.5612095 0.023848326 -0.015661793)
(-1.7817539 0.028526599 -0.011160467)
(-1.8680021 0.032889827 -0.0037284219)
(-1.8629808 0.036441665 0.003171462)
(-1.8280433 0.038533298 0.0071996599)
(-0.14060646 0.0044934916 -0.0013141451)
(-0.45234641 0.012955182 -0.0049028378)
(-0.82635523 0.021219727 -0.010941531)
(-1.2181777 0.029013191 -0.016870175)
(-1.5575829 0.03656219 -0.018493607)
(-1.780668 0.043988333 -0.014525669)
(-1.8701202 0.050962576 -0.0074855308)
(-1.8677225 0.056717129 -0.00067529767)
(-1.8343004 0.06022438 0.003493608)
(-0.13961602 0.005460825 -0.0018051646)
(-0.44917113 0.015784571 -0.0062875708)
(-0.8208571 0.025952008 -0.013022658)
(-1.2113239 0.035698578 -0.019523425)
(-1.5516222 0.045345483 -0.021820387)
(-1.7782055 0.055007971 -0.018600769)
(-1.8724145 0.064209429 -0.012155874)
(-1.8740602 0.071959448 -0.0055566703)
(-1.8430155 0.076916537 -0.001270251)
(-0.13798997 0.0058176375 -0.0022378613)
(-0.44409843 0.016884128 -0.0074938632)
(-0.81222376 0.027920424 -0.014798498)
(-1.2005754 0.038747655 -0.021810245)
(-1.5419658 0.049779505 -0.024852675)
(-1.7733425 0.061103974 -0.022560391)
(-1.8741957 0.072102105 -0.016928012)
(-1.8815648 0.08158863 -0.010723706)
(-1.8538894 0.08801175 -0.0064287353)
(-0.13551786 0.0056042845 -0.0025180925)
(-0.43650375 0.016361952 -0.0082501445)
(-0.79944111 0.027283104 -0.015836399)
(-1.1846634 0.038345243 -0.023167582)
(-1.527298 0.050059336 -0.026931262)
(-1.7649199 0.062475999 -0.025708031)
(-1.874651 0.074808765 -0.021088163)
(-1.8897795 0.085734122 -0.015507915)
(-1.8666676 0.093588036 -0.011391969)
(-0.13208025 0.0049408168 -0.0025850708)
(-0.42602211 0.014547259 -0.008381765)
(-0.78186206 0.024539634 -0.015859036)
(-1.1626537 0.035098587 -0.023225505)
(-1.5064776 0.046839214 -0.027599638)
(-1.7517912 0.059767505 -0.027519254)
(-1.8729099 0.072972815 -0.024091177)
(-1.8982507 0.084995336 -0.019389901)
(-1.8811448 0.094172346 -0.015702029)
(-0.12782189 0.0040055565 -0.0024366559)
(-0.41289769 0.011919544 -0.0078715298)
(-0.75958327 0.020411692 -0.014818068)
(-1.1342489 0.029882993 -0.021874269)
(-1.4787527 0.041063276 -0.026656694)
(-1.732965 0.053933749 -0.027697421)
(-1.868124 0.06751195 -0.025598166)
(-1.9065117 0.080245806 -0.022022594)
(-1.8971192 0.09053917 -0.019042217)
(-0.12246354 0.0029431475 -0.0020553288)
(-0.39640525 0.0088925509 -0.0066790542)
(-0.73153519 0.015546581 -0.01267616)
(-1.098161 0.023508619 -0.019071095)
(-1.442744 0.033636274 -0.024009543)
(-1.7071524 0.04594183 -0.02608849)
(-1.8592858 0.059401259 -0.025415587)
(-1.9139995 0.072459088 -0.023204404)
(-1.9142758 0.083563032 -0.021214871)
(-0.11575942 0.0018593491 -0.0015051736)
(-0.37590667 0.00577162 -0.0049893277)
(-0.69676125 0.010445051 -0.0097050675)
(-1.0531864 0.016650233 -0.015115908)
(-1.3970471 0.025375229 -0.019922236)
(-1.6728161 0.036725751 -0.022845701)
(-1.8449137 0.049672851 -0.023603427)
(-1.9196509 0.062703447 -0.02292571)
(-1.931874 0.074236525 -0.02214969)
(-0.1081305 0.00090621532 -0.00087319379)
(-0.35235569 0.002969533 -0.0030461128)
(-0.65631344 0.0057456114 -0.0062845785)
(-0.99984806 0.010106609 -0.010452528)
(-1.3411142 0.017146354 -0.014798143)
(-1.6281833 0.027137774 -0.018268437)
(-1.8224493 0.039163462 -0.0203144)
(-1.9210023 0.051802954 -0.021177556)
(-1.9480834 0.06341003 -0.021694502)
(-0.099066196 9.8735833e-05 -0.00017741934)
(-0.32438805 0.0005521689 -0.00092270569)
(-0.60801131 0.0015867221 -0.0025326828)
(-0.93497768 0.0040858629 -0.0051885578)
(-1.2703368 0.0091954576 -0.0086574391)
(-1.5667249 0.017399601 -0.01224356)
(-1.7836166 0.028028907 -0.015278851)
(-1.9094391 0.039786261 -0.017493092)
(-1.9564967 0.05100063 -0.018928968)
(-0.085653497 0.001099368 0.001013958)
(-0.28195649 0.0034107514 0.0031650844)
(-0.53260933 0.0059695011 0.0055527722)
(-0.82762542 0.0083332587 0.0077384567)
(-1.1378811 0.009986799 0.0090407362)
(-1.4190022 0.010570359 0.0089311103)
(-1.6282311 0.01006715 0.0074362151)
(-1.7490045 0.0087582114 0.0052121099)
(-1.7899903 0.0069707776 0.0030774154)
(-0.092220883 0.0011237616 0.00092015747)
(-0.30254777 0.0034299682 0.002860507)
(-0.56896578 0.0058754698 0.0049866881)
(-0.8776823 0.0079623673 0.0068340461)
(-1.1935346 0.0091716059 0.0076773192)
(-1.4669565 0.0092023677 0.0070051387)
(-1.6554948 0.0081409157 0.0049472513)
(-1.7499397 0.0064005564 0.0023039532)
(-1.7708589 0.0045335898 -7.2457336e-05)
(-0.097651152 0.0010710249 0.0007622658)
(-0.31959591 0.0032426409 0.0023770771)
(-0.59893303 0.005483654 0.0041567433)
(-0.91816349 0.0072778542 0.0056701149)
(-1.2364625 0.0081280343 0.0061904137)
(-1.4998118 0.0077988455 0.0051887136)
(-1.6672281 0.0064502606 0.0028083182)
(-1.7380387 0.0045656998 -8.6316828e-05)
(-1.7436741 0.0027205854 -0.0024665332)
(-0.10231749 0.00099130751 0.00061196717)
(-0.3341267 0.002973814 0.0019119402)
(-0.62419696 0.0049635643 0.0033525761)
(-0.95163475 0.0064500377 0.0045389485)
(-1.2706242 0.0069764757 0.0047539907)
(-1.5235291 0.0063727091 0.0034753575)
(-1.6715108 0.0048527478 0.00086960534)
(-1.7219523 0.0029264347 -0.0021391159)
(-1.7148959 0.0011226533 -0.0044242568)
(-0.10588541 0.00086705601 0.0004618471)
(-0.3453709 0.0025893606 0.0014546912)
(-0.64388166 0.0042861718 0.0025754183)
(-0.97761402 0.005473548 0.003471457)
(-1.2964581 0.0057354022 0.0034345301)
(-1.5397748 0.0049465708 0.0019415963)
(-1.6709286 0.0033531067 -0.00081356492)
(-1.7043225 0.0014693002 -0.0038534062)
(-1.6866641 -0.00021560205 -0.0059755228)
(-0.10862842 0.00072210976 0.00032264962)
(-0.35403358 0.0021508266 0.0010324688)
(-0.65902 0.0035373871 0.0018669948)
(-0.99733904 0.0044424813 0.002516695)
(-1.3153242 0.0044968016 0.0022834786)
(-1.5500345 0.0036087232 0.00063998798)
(-1.666952 0.0020375177 -0.0021967577)
(-1.6864161 0.00027609359 -0.0052066086)
(-1.6600404 -0.0012357845 -0.0071445191)
(-0.11077103 0.00056979281 0.00020911008)
(-0.36071594 0.0016941708 0.00068656796)
(-0.67051935 0.0027724159 0.0012842016)
(-1.0119178 0.0034232678 0.0017315056)
(-1.3284291 0.0033288843 0.0013438907)
(-1.5555034 0.0024234475 -0.00040476366)
(-1.6606161 0.00095885956 -0.0032775509)
(-1.6689707 -0.00061577939 -0.0062222459)
(-1.6356738 -0.0019206484 -0.0079797949)
(-0.11221143 0.00042005162 0.00012122836)
(-0.36526009 0.0012504123 0.00041866476)
(-0.67836501 0.0020418395 0.00083311343)
(-1.0216907 0.002479571 0.001126974)
(-1.3365561 0.0022992338 0.00062772094)
(-1.5572345 0.0014517531 -0.0011887326)
(-1.6529428 0.00016303823 -0.0040696719)
(-1.6527093 -0.0011768851 -0.006938236)
(-1.6141244 -0.0022557847 -0.0085381246)
(-0.11306443 0.00028654701 5.9530186e-05)
(-0.36802041 0.00085602421 0.00022926111)
(-0.68319608 0.0013976945 0.00051293274)
(-1.0276037 0.0016677226 0.00069857732)
(-1.340908 0.0014579533 0.00012380972)
(-1.5565062 0.00073084381 -0.0017329818)
(-1.6450219 -0.00032457619 -0.0045998023)
(-1.6383834 -0.0013982345 -0.0074131507)
(-1.5959293 -0.0022402094 -0.0088842451)
(-0.11351951 0.00017775537 2.0587304e-05)
(-0.3695677 0.00053369071 0.00010857137)
(-0.68596768 0.00087233222 0.00030756256)
(-1.0309098 0.0010214782 0.00042287382)
(-1.34287 0.0008304324 -0.00019888624)
(-1.5546354 0.00027254193 -0.0020763445)
(-1.63792 -0.00051065595 -0.0049314319)
(-1.6267369 -0.001293245 -0.0076999002)
(-1.5816029 -0.001898857 -0.0090809992)
(-0.11399439 9.3944605e-05 -4.6602936e-07)
(-0.37093153 0.00028331069 4.2295899e-05)
(-0.68809254 0.00046358488 0.00019286427)
(-1.0331241 0.00053285686 0.00026639439)
(-1.343843 0.0003993947 -0.00038341657)
(-1.5528092 4.724794e-05 -0.0022726634)
(-1.6325589 -0.00043641807 -0.0051199619)
(-1.6184419 -0.00091274978 -0.0078593197)
(-1.5716403 -0.0012747115 -0.0091813507)
(-0.11399073 2.8683851e-05 -8.9220252e-06)
(-0.37105027 8.6871495e-05 1.519582e-05)
(-0.68844428 0.00014201394 0.00014496348)
(-1.0335708 0.0001604348 0.00020037893)
(-1.3438381 0.0001120278 -0.00046109501)
(-1.551578 -8.3509236e-06 -0.0023552721)
(-1.6296736 -0.00017157691 -0.0051997066)
(-1.6141458 -0.00033074038 -0.007926717)
(-1.5665348 -0.00045040787 -0.0092210927)
(-0.11399073 -2.8682064e-05 -8.9239049e-06)
(-0.37105027 -8.686285e-05 1.5196002e-05)
(-0.68844428 -0.00014200746 0.00014496249)
(-1.0335708 -0.00016041914 0.00020037785)
(-1.3438381 -0.00011200053 -0.00046109844)
(-1.551578 8.3989408e-06 -0.0023552818)
(-1.6296736 0.00017167081 -0.0051997189)
(-1.6141458 0.00033094476 -0.0079267317)
(-1.5665349 0.000450754 -0.009221102)
(-0.11399439 -9.3944028e-05 -4.694609e-07)
(-0.37093153 -0.00028330553 4.2296596e-05)
(-0.68809255 -0.00046358401 0.00019286363)
(-1.0331241 -0.00053284881 0.00026639123)
(-1.343843 -0.00039937762 -0.00038342385)
(-1.5528092 -4.7222224e-05 -0.0022726872)
(-1.6325589 0.00043648594 -0.0051199954)
(-1.6184419 0.00091292848 -0.0078593644)
(-1.5716404 0.0012750474 -0.0091813917)
(-0.11351952 -0.0001777577 2.0586151e-05)
(-0.36956771 -0.00053369215 0.000108574)
(-0.68596769 -0.00087234013 0.00030756689)
(-1.0309098 -0.0010214867 0.00042287282)
(-1.34287 -0.00083043806 -0.00019888884)
(-1.5546353 -0.0002725516 -0.0020763705)
(-1.63792 0.0005106857 -0.0049314814)
(-1.6267369 0.0012933944 -0.0076999796)
(-1.581603 0.0018991748 -0.0090810904)
(-0.11306444 -0.0002865515 5.952961e-05)
(-0.36802044 -0.00085603182 0.00022926999)
(-0.68319611 -0.0013977151 0.00051294906)
(-1.0276038 -0.0016677556 0.0006985919)
(-1.340908 -0.0014579924 0.00012381971)
(-1.5565062 -0.00073089077 -0.0017330059)
(-1.6450219 0.00032456948 -0.0045998701)
(-1.6383834 0.0013983562 -0.0074132669)
(-1.5959293 0.0022404907 -0.0088843828)
(-0.11221144 -0.00042005722 0.00012122381)
(-0.36526012 -0.001250421 0.00041868485)
(-0.67836505 -0.0020418718 0.00083313927)
(-1.0216908 -0.0024796255 0.0011270003)
(-1.336556 -0.0022993053 0.0006277376)
(-1.5572345 -0.0014518354 -0.0011887599)
(-1.6529428 -0.00016308115 -0.0040697566)
(-1.6527094 0.0011769657 -0.0069383745)
(-1.6141245 0.0022560136 -0.0085382854)
(-0.11077104 -0.00056980219 0.00020910778)
(-0.36071597 -0.001694184 0.00068659662)
(-0.67051937 -0.0027724562 0.0012842328)
(-1.0119179 -0.0034233392 0.0017315416)
(-1.3284291 -0.0033289797 0.0013439179)
(-1.5555035 -0.0024235644 -0.00040478763)
(-1.6606161 -0.00095894682 -0.0032776361)
(-1.6689708 0.00061580364 -0.0062223906)
(-1.6356739 0.0019208353 -0.0079799644)
(-0.10862843 -0.00072212014 0.00032265183)
(-0.35403361 -0.0021508471 0.001032489)
(-0.65902003 -0.0035374337 0.0018670262)
(-0.99733909 -0.0044425649 0.0025167436)
(-1.3153242 -0.0044969123 0.0022835177)
(-1.5500346 -0.0036088682 0.00063998225)
(-1.6669521 -0.0020376443 -0.0021968252)
(-1.6864162 -0.00027611967 -0.0052067632)
(-1.6600405 0.0012359472 -0.0071446988)
(-0.10588542 -0.00086706501 0.0004618484)
(-0.34537092 -0.002589378 0.0014547113)
(-0.64388168 -0.0042862154 0.0025754563)
(-0.97761405 -0.005473628 0.0034715071)
(-1.2964581 -0.0057355162 0.0034345757)
(-1.5397749 -0.0049467227 0.0019416111)
(-1.6709287 -0.0033532501 -0.00081361348)
(-1.7043226 -0.0014693541 -0.003853579)
(-1.6866643 0.00021574826 -0.0059757371)
(-0.1023175 -0.00099130963 0.00061196735)
(-0.33412672 -0.0029738172 0.0019119503)
(-0.62419699 -0.004963585 0.0033525981)
(-0.95163477 -0.0064500889 0.0045389791)
(-1.2706242 -0.00697657 0.0047540303)
(-1.5235292 -0.0063728409 0.0034753773)
(-1.671511 -0.0048528568 0.00086955749)
(-1.7219525 -0.0029264443 -0.0021393388)
(-1.7148962 -0.0011224967 -0.004424567)
(-0.097651159 -0.0010710167 0.00076225857)
(-0.31959593 -0.0032426218 0.0023770635)
(-0.59893304 -0.0054836436 0.0041567311)
(-0.91816349 -0.0072778757 0.005670109)
(-1.2364625 -0.0081280959 0.0061904202)
(-1.4998119 -0.0077989431 0.0051886928)
(-1.6672283 -0.0064503218 0.0028082071)
(-1.7380389 -0.0045656161 -8.660868e-05)
(-1.7436743 -0.0027204075 -0.0024668686)
(-0.092220892 -0.0011237478 0.00092014432)
(-0.30254779 -0.0034299389 0.0028604755)
(-0.56896581 -0.0058754468 0.0049866485)
(-0.87768235 -0.0079623846 0.0068339943)
(-1.1935347 -0.0091716532 0.0076772624)
(-1.4669566 -0.0092024131 0.007005023)
(-1.6554949 -0.0081408995 0.0049469897)
(-1.7499401 -0.0064003543 0.0023035741)
(-1.7708592 -0.0045333122 -7.2748187e-05)
(-0.085653509 -0.0010993639 0.001013951)
(-0.28195652 -0.0034107532 0.0031650672)
(-0.53260937 -0.0059695132 0.0055527546)
(-0.82762547 -0.008333306 0.0077384125)
(-1.1378811 -0.009986888 0.0090406409)
(-1.4190023 -0.010570474 0.0089309299)
(-1.6282313 -0.010067217 0.0074359097)
(-1.7490048 -0.0087580573 0.0052118178)
(-1.7899905 -0.0069705916 0.0030773902)
(-0.092387341 -8.6444398e-05 -6.7951464e-05)
(-0.30327772 -0.00032856469 -0.0002418165)
(-0.5705997 -0.00075877817 -0.00048813561)
(-0.88189439 -0.0015441039 -0.00081785171)
(-1.205109 -0.0029185941 -0.001210012)
(-1.4944474 -0.005068788 -0.001634591)
(-1.7083313 -0.007965832 -0.0021260776)
(-1.8326289 -0.011298581 -0.0027909644)
(-1.877248 -0.01462605 -0.0036857294)
(-0.099800829 -0.00010256553 -7.0377376e-05)
(-0.32641498 -0.00038111668 -0.00024431674)
(-0.61116679 -0.00086874956 -0.00049115055)
(-0.93732873 -0.001763627 -0.00082687267)
(-1.2665283 -0.0033365117 -0.0012324911)
(-1.5479959 -0.0057878228 -0.0016819545)
(-1.7410604 -0.0090584837 -0.0022297635)
(-1.8393775 -0.012751906 -0.003019469)
(-1.8646373 -0.016291147 -0.0041832387)
(-0.10603802 -0.00011834973 -6.9874707e-05)
(-0.34587827 -0.00043312523 -0.00024237083)
(-0.64509398 -0.00097312239 -0.00049263428)
(-0.9828352 -0.0019550231 -0.00083756205)
(-1.3149202 -0.00366849 -0.0012515168)
(-1.5864917 -0.0063126493 -0.001703909)
(-1.7588886 -0.0097885698 -0.0022529545)
(-1.8343073 -0.013620927 -0.0030334692)
(-1.8452873 -0.017166656 -0.0041222147)
(-0.11155187 -0.00015330117 -8.007321e-05)
(-0.36292874 -0.0005363046 -0.00027104309)
(-0.67448299 -0.0011507743 -0.00054407743)
(-1.0215799 -0.0022176914 -0.00091128957)
(-1.3549647 -0.0040309785 -0.001332818)
(-1.6165748 -0.00678106 -0.0017680165)
(-1.7702497 -0.010337618 -0.0022699091)
(-1.826173 -0.014171418 -0.00294417)
(-1.8254219 -0.017602743 -0.0038459845)
(-0.115982 -0.00019190121 -8.7577426e-05)
(-0.37674329 -0.00064947565 -0.00029207582)
(-0.69840669 -0.0013396199 -0.00058134735)
(-1.0530689 -0.0024753786 -0.0009603933)
(-1.3871147 -0.004340287 -0.0013725974)
(-1.6398573 -0.0071086254 -0.0017647477)
(-1.7775678 -0.010624304 -0.0021813245)
(-1.8173139 -0.014325566 -0.0027044394)
(-1.8067522 -0.017504095 -0.0033854547)
(-0.11960235 -0.00022754006 -8.7572533e-05)
(-0.3880176 -0.0007511576 -0.00029029799)
(-0.71786312 -0.0014997699 -0.00057873395)
(-1.0784673 -0.0026684119 -0.0009488883)
(-1.4126138 -0.0045179101 -0.0013246833)
(-1.6576141 -0.0072003457 -0.0016419447)
(-1.7820292 -0.010543305 -0.0019420985)
(-1.8086173 -0.013976144 -0.0022925052)
(-1.7899583 -0.016802003 -0.0027589419)
(-0.12263386 -0.00025169931 -7.9632659e-05)
(-0.39732919 -0.00081572546 -0.00026395109)
(-0.73370003 -0.0015883736 -0.00053136928)
(-1.098768 -0.0027390838 -0.00086971323)
(-1.4324746 -0.0044965654 -0.0011854309)
(-1.6707564 -0.0069869398 -0.0014029224)
(-1.7842903 -0.010031584 -0.0015654303)
(-1.8004278 -0.01308131 -0.0017409267)
(-1.7752852 -0.01549057 -0.0020167105)
(-0.12491883 -0.00025522141 -6.3210006e-05)
(-0.40436943 -0.00081699554 -0.00021216877)
(-0.74567355 -0.0015625745 -0.00044042301)
(-1.1140233 -0.0026317647 -0.00072822473)
(-1.4471294 -0.0042162217 -0.00096655652)
(-1.6799307 -0.0064150547 -0.0010719779)
(-1.7849051 -0.0090538116 -0.00109182)
(-1.793014 -0.011632981 -0.0011010421)
(-1.7628671 -0.013593273 -0.0012238473)
(-0.12652555 -0.00023428417 -4.1501176e-05)
(-0.40935625 -0.00074364829 -0.00014463876)
(-0.75419416 -0.0014043711 -0.00032271578)
(-1.1248643 -0.0023251487 -0.0005500182)
(-1.4573861 -0.0036570296 -0.00070404575)
(-1.6859495 -0.0054738112 -0.00069617644)
(-1.7844669 -0.0076162587 -0.0005768998)
(-1.7866479 -0.0096585009 -0.0004343477)
(-1.7528396 -0.011105007 -0.00045079781)
(-0.12759859 -0.00018906022 -1.8792538e-05)
(-0.41273021 -0.00059668149 -7.4487068e-05)
(-0.75999774 -0.0011169498 -0.00020137738)
(-1.1322331 -0.0018268524 -0.00036950356)
(-1.4642317 -0.0028348622 -0.00044475363)
(-1.6896672 -0.0041903516 -0.00033258645)
(-1.7835383 -0.0057624712 -8.8332569e-05)
(-1.7815993 -0.0071901489 0.00016639298)
(-1.7452171 -0.0082742282 0.00019716455)
(-0.12854302 -0.00012345771 -3.1363068e-07)
(-0.41545682 -0.0003877928 -1.7690191e-05)
(-0.76435101 -0.00072126915 -0.00010392979)
(-1.1373997 -0.0011695521 -0.00022585978)
(-1.4687264 -0.0017978246 -0.00024111553)
(-1.6918537 -0.0026352502 -5.0955246e-05)