/*--------------------------------*- C++ -*----------------------------------*\
  =========                 |
  \\      /  F ield         | OpenFOAM: The Open Source CFD Toolbox
   \\    /   O peration     | Website:  https://openfoam.org
    \\  /    A nd           | Version:  10
     \\/     M anipulation  |
\*---------------------------------------------------------------------------*/
FoamFile
{
    format      ascii;
    class       volScalarField;
    location    "1.9";
    object      T;
}
// * * * * * * * * * * * * * * * * * * * * * * * * * * * * * * * * * * * * * //

dimensions      [0 0 -1 0 0 0 0];

internalField   nonuniform List<scalar> 
100
(
-0.0089791
-0.0266189
-0.0433158
-0.0584782
-0.0715689
-0.0821243
-0.0897704
-0.0942363
-0.0953639
-0.0931131
-0.0875638
-0.0789125
-0.0674656
-0.0536288
-0.0378922
-0.0208132
-0.00299684
0.0149257
0.0323194
0.0485682
0.0630965
0.0753895
0.0850118
0.0916225
0.0949875
0.0949874
0.0916224
0.0850117
0.0753893
0.0630962
0.048568
0.0323191
0.0149254
-0.00299708
-0.0208134
-0.0378924
-0.053629
-0.0674659
-0.0789127
-0.0875641
-0.0931135
-0.0953643
-0.0942368
-0.0897708
-0.0821247
-0.0715693
-0.0584784
-0.0433159
-0.0266189
-0.0089789
0.00897918
0.0266192
0.0433161
0.0584786
0.0715694
0.0821248
0.0897709
0.0942368
0.0953643
0.0931135
0.0875641
0.0789127
0.0674658
0.0536289
0.0378922
0.0208132
0.00299689
-0.0149256
-0.0323193
-0.0485681
-0.0630964
-0.0753894
-0.0850117
-0.0916225
-0.0949875
-0.0949874
-0.0916225
-0.0850117
-0.0753894
-0.0630963
-0.0485681
-0.0323193
-0.0149255
0.00299696
0.0208133
0.0378923
0.0536289
0.0674657
0.0789126
0.0875639
0.0931132
0.0953639
0.0942363
0.0897703
0.0821242
0.0715687
0.0584779
0.0433155
0.0266187
0.00897883
)
;

boundaryField
{
    inlet
    {
        type            cyclic;
    }
    outlet
    {
        type            cyclic;
    }
    bottom
    {
        type            slip;
    }
    top
    {
        type            slip;
    }
    frontAndBack
    {
        type            empty;
    }
}


// ************************************************************************* //
