/*--------------------------------*- C++ -*----------------------------------*\
  =========                 |
  \\      /  F ield         | OpenFOAM: The Open Source CFD Toolbox
   \\    /   O peration     | Website:  https://openfoam.org
    \\  /    A nd           | Version:  10
     \\/     M anipulation  |
\*---------------------------------------------------------------------------*/
FoamFile
{
    format      ascii;
    class       volScalarField;
    location    "15";
    object      T;
}
// * * * * * * * * * * * * * * * * * * * * * * * * * * * * * * * * * * * * * //

dimensions      [0 0 -1 0 0 0 0];

internalField   nonuniform List<scalar> 
100
(
3.33257
9.96676
16.5125
22.9116
29.1074
35.0449
40.6713
45.9366
50.7943
55.2011
59.1179
62.51
65.3473
67.6045
69.2617
70.3041
70.7225
70.5131
69.6779
68.2242
66.165
63.5185
60.3081
56.5625
52.3149
47.6029
42.4683
36.9569
31.1173
25.0016
18.664
12.1607
5.54953
-1.11095
-7.76156
-14.3433
-20.7977
-27.0675
-33.097
-38.8328
-44.2239
-49.2224
-53.7841
-57.8683
-61.439
-64.4642
-66.9173
-68.7764
-70.0251
-70.6522
-70.6522
-70.0251
-68.7764
-66.9173
-64.4642
-61.4389
-57.8683
-53.784
-49.2224
-44.2238
-38.8327
-33.0969
-27.0674
-20.7976
-14.3432
-7.76147
-1.11086
5.54962
12.1608
18.6641
25.0017
31.1174
36.9569
42.4684
47.6029
52.315
56.5626
60.3082
63.5185
66.1651
68.2243
69.678
70.5132
70.7225
70.3041
69.2617
67.6045
65.3473
62.51
59.1179
55.2011
50.7943
45.9367
40.6713
35.0449
29.1075
22.9117
16.5125
9.96677
3.33257
)
;

boundaryField
{
    xmin
    {
        type            fixedValue;
        value           uniform 0;
    }
    xmax
    {
        type            fixedValue;
        value           uniform 0;
    }
    frontAndBack
    {
        type            empty;
    }
}


// ************************************************************************* //
