/*--------------------------------*- C++ -*----------------------------------*\
| =========                 |                                                 |
| \\      /  F ield         | OpenFOAM: The Open Source CFD Toolbox           |
|  \\    /   O peration     | Version:  2406                                  |
|   \\  /    A nd           | Website:  www.openfoam.com                      |
|    \\/     M anipulation  |                                                 |
\*---------------------------------------------------------------------------*/
FoamFile
{
    version     2.0;
    format      ascii;
    arch        "LSB;label=32;scalar=64";
    class       volScalarField;
    location    "6.75";
    object      p;
}
// * * * * * * * * * * * * * * * * * * * * * * * * * * * * * * * * * * * * * //

dimensions      [0 2 -2 0 0 0 0];

internalField   nonuniform List<scalar> 
34560
(
-20.905261
-20.909203
-20.916093
-20.927487
-20.943812
-20.964934
-20.989331
-21.01606
-21.043236
-20.895856
-20.901323
-20.910714
-20.925925
-20.947236
-20.973996
-21.00399
-21.03569
-21.067441
-20.886213
-20.893438
-20.905618
-20.924826
-20.951033
-20.982882
-21.017429
-21.05255
-21.086706
-20.874589
-20.883608
-20.898711
-20.922153
-20.953447
-20.990312
-21.029132
-21.067189
-21.1032
-20.861701
-20.872591
-20.890694
-20.918421
-20.954767
-20.996489
-21.039385
-21.080217
-21.11774
-20.848805
-20.861433
-20.882379
-20.914192
-20.955318
-21.001541
-21.048178
-21.091532
-21.1303
-20.836488
-20.850699
-20.874258
-20.909843
-20.955336
-21.005591
-21.05554
-21.101102
-21.140908
-20.825121
-20.840751
-20.866647
-20.905581
-20.954916
-21.008667
-21.061456
-21.108901
-21.149581
-20.815153
-20.831993
-20.859878
-20.901645
-20.954202
-21.010853
-21.065975
-21.114958
-21.156364
-20.807235
-20.825012
-20.854444
-20.89841
-20.953453
-21.012327
-21.069224
-21.119366
-21.161336
-20.801891
-20.820298
-20.850776
-20.896218
-20.952916
-21.013266
-21.071338
-21.122242
-21.164594
-20.798885
-20.817655
-20.848709
-20.894938
-20.952502
-21.013623
-21.072306
-21.123607
-21.166169
-20.798885
-20.817655
-20.848709
-20.894938
-20.952502
-21.013623
-21.072306
-21.123608
-21.166169
-20.801891
-20.820298
-20.850776
-20.896219
-20.952916
-21.013267
-21.071339
-21.122243
-21.164595
-20.807237
-20.825013
-20.854445
-20.89841
-20.953454
-21.012328
-21.069225
-21.119367
-21.161337
-20.815154
-20.831995
-20.859879
-20.901646
-20.954203
-21.010854
-21.065976
-21.114959
-21.156365
-20.825123
-20.840752
-20.866649
-20.905583
-20.954917
-21.008668
-21.061457
-21.108902
-21.149581
-20.83649
-20.850701
-20.874261
-20.909845
-20.955338
-21.005593
-21.055542
-21.101103
-21.140907
-20.848808
-20.861437
-20.882382
-20.914196
-20.955321
-21.001544
-21.048181
-21.091533
-21.1303
-20.861704
-20.872594
-20.890699
-20.918425
-20.954771
-20.996493
-21.039388
-21.080219
-21.11774
-20.874594
-20.883613
-20.898716
-20.922159
-20.953452
-20.990316
-21.029135
-21.067191
-21.103201
-20.886219
-20.893444
-20.905624
-20.924832
-20.951039
-20.982887
-21.017433
-21.052552
-21.086707
-20.895863
-20.901329
-20.91072
-20.925932
-20.947243
-20.974002
-21.003995
-21.035694
-21.067445
-20.905268
-20.90921
-20.9161
-20.927494
-20.943819
-20.96494
-20.989336
-21.016068
-21.043244
-20.055852
-20.053901
-20.051645
-20.048619
-20.043556
-20.035227
-20.023558
-20.009163
-19.994189
-20.075275
-20.072674
-20.069336
-20.064399
-20.056208
-20.043532
-20.027147
-20.009113
-19.99211
-20.096955
-20.093718
-20.089466
-20.082908
-20.07192
-20.055162
-20.034142
-20.012385
-19.992929
-20.118505
-20.114594
-20.109409
-20.101283
-20.08772
-20.06729
-20.042006
-20.016606
-19.994424
-20.139546
-20.135012
-20.128907
-20.119173
-20.103085
-20.079232
-20.049961
-20.021061
-19.996244
-20.159252
-20.154208
-20.147294
-20.136026
-20.117547
-20.090652
-20.057819
-20.025641
-19.998376
-20.177202
-20.1717
-20.164039
-20.151329
-20.130638
-20.101055
-20.065164
-20.030101
-20.000619
-20.192942
-20.187063
-20.178763
-20.16478
-20.142116
-20.110168
-20.071724
-20.034228
-20.002739
-20.206038
-20.199868
-20.191054
-20.17602
-20.151699
-20.117744
-20.077237
-20.037778
-20.004549
-20.216142
-20.209768
-20.200573
-20.184734
-20.159119
-20.123583
-20.081453
-20.040502
-20.005938
-20.223041
-20.216521
-20.207056
-20.190656
-20.164145
-20.127509
-20.08426
-20.042308
-20.006865
-20.226535
-20.219951
-20.210358
-20.19368
-20.166713
-20.129512
-20.085685
-20.043221
-20.007333
-20.226535
-20.219951
-20.210358
-20.19368
-20.166713
-20.129513
-20.085685
-20.043221
-20.007333
-20.223041
-20.216522
-20.207056
-20.190657
-20.164145
-20.12751
-20.084261
-20.042308
-20.006865
-20.216143
-20.209769
-20.200574
-20.184736
-20.159121
-20.123584
-20.081454
-20.040503
-20.005939
-20.206039
-20.19987
-20.191055
-20.176022
-20.1517
-20.117745
-20.077238
-20.037779
-20.00455
-20.192945
-20.187066
-20.178766
-20.164782
-20.142119
-20.110169
-20.071726
-20.034229
-20.002739
-20.177206
-20.171703
-20.164043
-20.151333
-20.130641
-20.101058
-20.065167
-20.030103
-20.00062
-20.159256
-20.154212
-20.147298
-20.13603
-20.117551
-20.090656
-20.057822
-20.025643
-19.998377
-20.139551
-20.135017
-20.128912
-20.119178
-20.10309
-20.079237
-20.049965
-20.021063
-19.996245
-20.118511
-20.1146
-20.109415
-20.10129
-20.087726
-20.067296
-20.042011
-20.016609
-19.994426
-20.096963
-20.093726
-20.089473
-20.082915
-20.071928
-20.055169
-20.034148
-20.01239
-19.992933
-20.075284
-20.072683
-20.069344
-20.064408
-20.056217
-20.04354
-20.027156
-20.009121
-19.992115
-20.055862
-20.05391
-20.051654
-20.048628
-20.043565
-20.035236
-20.023567
-20.009173
-19.994197
-18.992176
-18.991635
-18.991149
-18.991077
-18.991776
-18.993193
-18.993883
-18.99213
-18.988725
-18.995634
-18.994958
-18.994251
-18.993896
-18.994298
-18.995486
-18.995995
-18.99392
-18.990289
-18.998956
-18.998161
-18.997311
-18.99685
-18.997282
-18.998687
-18.999476
-18.997532
-18.993868
-19.001538
-19.000616
-18.999625
-18.999097
-18.999653
-19.001384
-19.002508
-19.000704
-18.99685
-19.003823
-19.002779
-19.001652
-19.001051
-19.001673
-19.003608
-19.004941
-19.003219
-18.99924
-19.006055
-19.004886
-19.003641
-19.003015
-19.003705
-19.005672
-19.007018
-19.005349
-19.00131
-19.008133
-19.006843
-19.005499
-19.004889
-19.005678
-19.007627
-19.008858
-19.007183
-19.003131
-19.010046
-19.008652
-19.007229
-19.006645
-19.007543
-19.009487
-19.010516
-19.00875
-19.004751
-19.011722
-19.010244
-19.008764
-19.008205
-19.009212
-19.011191
-19.012007
-19.010097
-19.006175
-19.01307
-19.011527
-19.010009
-19.009481
-19.010587
-19.01262
-19.013304
-19.01126
-19.007349
-19.014013
-19.012423
-19.010879
-19.010379
-19.011566
-19.013648
-19.014264
-19.012129
-19.008184
-19.014486
-19.012875
-19.011321
-19.010839
-19.012071
-19.014185
-19.014773
-19.012592
-19.008614
-19.014486
-19.012875
-19.011322
-19.010839
-19.012071
-19.014185
-19.014774
-19.012592
-19.008614
-19.014014
-19.012423
-19.010879
-19.01038
-19.011567
-19.013649
-19.014264
-19.012129
-19.008184
-19.013071
-19.011529
-19.01001
-19.009482
-19.010589
-19.012622
-19.013305
-19.01126
-19.00735
-19.011723
-19.010245
-19.008765
-19.008207
-19.009213
-19.011192
-19.012008
-19.010098
-19.006175
-19.010048
-19.008654
-19.007231
-19.006647
-19.007545
-19.009489
-19.010518
-19.008751
-19.004751
-19.008135
-19.006846
-19.005502
-19.004892
-19.005681
-19.00763
-19.00886
-19.007184
-19.003131
-19.006059
-19.00489
-19.003645
-19.00302
-19.00371
-19.005676
-19.007021
-19.005351
-19.00131
-19.003828
-19.002784
-19.001658
-19.001057
-19.001679
-19.003614
-19.004946
-19.003222
-18.999241
-19.001544
-19.000622
-18.999632
-18.999105
-18.99966
-19.001391
-19.002515
-19.000709
-18.996852
-18.998964
-18.99817
-18.99732
-18.996859
-18.997291
-18.998696
-18.999484
-18.997538
-18.993871
-18.995644
-18.994967
-18.994261
-18.993906
-18.994308
-18.995496
-18.996004
-18.993927
-18.990293
-18.992186
-18.991645
-18.99116
-18.991088
-18.991787
-18.993204
-18.993894
-18.992139
-18.988731
-18.128407
-18.128572
-18.128776
-18.12893
-18.128857
-18.128273
-18.127353
-18.126654
-18.125625
-18.13296
-18.133067
-18.133147
-18.133066
-18.132566
-18.131237
-18.129186
-18.127218
-18.125566
-18.137944
-18.137999
-18.137993
-18.137749
-18.136947
-18.135113
-18.132324
-18.129481
-18.127253
-18.142652
-18.142644
-18.142556
-18.142178
-18.14111
-18.138898
-18.135618
-18.13219
-18.129438
-18.147044
-18.146978
-18.146818
-18.146317
-18.144969
-18.142343
-18.138654
-18.134795
-18.131633
-18.150947
-18.150852
-18.150644
-18.150015
-18.148411
-18.145401
-18.141316
-18.137071
-18.133529
-18.154161
-18.154059
-18.153825
-18.153092
-18.151245
-18.147897
-18.143467
-18.138876
-18.134989
-18.156722
-18.156629
-18.156375
-18.155548
-18.153489
-18.149846
-18.145118
-18.140253
-18.136083
-18.158634
-18.158561
-18.158309
-18.157416
-18.155191
-18.151304
-18.146335
-18.141269
-18.136881
-18.159993
-18.159938
-18.159688
-18.158749
-18.156398
-18.152326
-18.147178
-18.141972
-18.137428
-18.160861
-18.16082
-18.160573
-18.159598
-18.157158
-18.152961
-18.147697
-18.142402
-18.137758
-18.16127
-18.161238
-18.160995
-18.160005
-18.157521
-18.15326
-18.147941
-18.142605
-18.137914
-18.16127
-18.161238
-18.160996
-18.160005
-18.157521
-18.15326
-18.147941
-18.142605
-18.137914
-18.160862
-18.160821
-18.160573
-18.159599
-18.157159
-18.152961
-18.147697
-18.142403
-18.137758
-18.159994
-18.159939
-18.159689
-18.15875
-18.156399
-18.152327
-18.147179
-18.141973
-18.137428
-18.158635
-18.158563
-18.15831
-18.157418
-18.155193
-18.151306
-18.146336
-18.14127
-18.136882
-18.156724
-18.156631
-18.156377
-18.155551
-18.153492
-18.149848
-18.14512
-18.140255
-18.136083
-18.154164
-18.154061
-18.153828
-18.153095
-18.151248
-18.1479
-18.14347
-18.138878
-18.13499
-18.150951
-18.150855
-18.150648
-18.150019
-18.148416
-18.145406
-18.14132
-18.137074
-18.13353
-18.147048
-18.146983
-18.146823
-18.146322
-18.144974
-18.142349
-18.138659
-18.134799
-18.131635
-18.142658
-18.14265
-18.142562
-18.142184
-18.141117
-18.138905
-18.135624
-18.132194
-18.12944
-18.137952
-18.138007
-18.138001
-18.137757
-18.136955
-18.135121
-18.132331
-18.129486
-18.127256
-18.132969
-18.133076
-18.133156
-18.133075
-18.132575
-18.131246
-18.129194
-18.127225
-18.125571
-18.128417
-18.128582
-18.128785
-18.12894
-18.128867
-18.128283
-18.127362
-18.126663
-18.125631
-17.196718
-17.196728
-17.196773
-17.196893
-17.197129
-17.197515
-17.198043
-17.198586
-17.198817
-17.198759
-17.19873
-17.198708
-17.198723
-17.19881
-17.199014
-17.199316
-17.199571
-17.199621
-17.20091
-17.200848
-17.200789
-17.200765
-17.200804
-17.200947
-17.201135
-17.201243
-17.20121
-17.202703
-17.202619
-17.20254
-17.202508
-17.202553
-17.202678
-17.202801
-17.202773
-17.202559
-17.204016
-17.203933
-17.203846
-17.203789
-17.203822
-17.20394
-17.204013
-17.203857
-17.203471
-17.204989
-17.204911
-17.204817
-17.20475
-17.204756
-17.204849
-17.204885
-17.204638
-17.204124
-17.205763
-17.205687
-17.205586
-17.205509
-17.205512
-17.205587
-17.205588
-17.205282
-17.204668
-17.206378
-17.2063
-17.206204
-17.206129
-17.206135
-17.206208
-17.206189
-17.205829
-17.205123
-17.206864
-17.206782
-17.20668
-17.206607
-17.20662
-17.206702
-17.206676
-17.206273
-17.205486
-17.207225
-17.20714
-17.207034
-17.20696
-17.206978
-17.207071
-17.207045
-17.20661
-17.20576
-17.207466
-17.207378
-17.207268
-17.207193
-17.207216
-17.207318
-17.207293
-17.206839
-17.205947
-17.207578
-17.207489
-17.207379
-17.207304
-17.207332
-17.20744
-17.207418
-17.206956
-17.206044
-17.207578
-17.207489
-17.207379
-17.207304
-17.207332
-17.20744
-17.207418
-17.206956
-17.206043
-17.207466
-17.207378
-17.207269
-17.207193
-17.207216
-17.207318
-17.207293
-17.206839
-17.205946
-17.207225
-17.20714
-17.207035
-17.20696
-17.206979
-17.207072
-17.207046
-17.206611
-17.205759
-17.206865
-17.206783
-17.206681
-17.206608
-17.206622
-17.206704
-17.206677
-17.206274
-17.205485
-17.206379
-17.206301
-17.206205
-17.206131
-17.206137
-17.20621
-17.20619
-17.20583
-17.205123
-17.205765
-17.205689
-17.205589
-17.205512
-17.205515
-17.20559
-17.205591
-17.205283
-17.204668
-17.204992
-17.204914
-17.204821
-17.204754
-17.20476
-17.204853
-17.204888
-17.20464
-17.204124
-17.20402
-17.203938
-17.203851
-17.203794
-17.203827
-17.203945
-17.204017
-17.20386
-17.203473
-17.202709
-17.202625
-17.202546
-17.202514
-17.20256
-17.202684
-17.202807
-17.202778
-17.202562
-17.200917
-17.200855
-17.200797
-17.200773
-17.200812
-17.200955
-17.201142
-17.201249
-17.201214
-17.198767
-17.198738
-17.198717
-17.198732
-17.198819
-17.199023
-17.199324
-17.199579
-17.199628
-17.196728
-17.196737
-17.196783
-17.196902
-17.197139
-17.197525
-17.198053
-17.198596
-17.198827
-16.314926
-16.314976
-16.31504
-16.315109
-16.315174
-16.315216
-16.315217
-16.315177
-16.314981
-16.315573
-16.315619
-16.315666
-16.315689
-16.315659
-16.315543
-16.315346
-16.3151
-16.314796
-16.316374
-16.316417
-16.316448
-16.316428
-16.316314
-16.316083
-16.315783
-16.315465
-16.315174
-16.317204
-16.317237
-16.317248
-16.317191
-16.317019
-16.316725
-16.316369
-16.316006
-16.315694
-16.318123
-16.318141
-16.318132
-16.318046
-16.31784
-16.31751
-16.317094
-16.316664
-16.316304
-16.319098
-16.3191
-16.319073
-16.318975
-16.318764
-16.318414
-16.317943
-16.317437
-16.31701
-16.320041
-16.320028
-16.319988
-16.319886
-16.31968
-16.319324
-16.318817
-16.318248
-16.317747
-16.320902
-16.320878
-16.320829
-16.320726
-16.320524
-16.320166
-16.319635
-16.319012
-16.318436
-16.321633
-16.321603
-16.321548
-16.321442
-16.321244
-16.320889
-16.320341
-16.319672
-16.319027
-16.322205
-16.32217
-16.322111
-16.322004
-16.321812
-16.321461
-16.3209
-16.320194
-16.319492
-16.322599
-16.32256
-16.322499
-16.322393
-16.322204
-16.321856
-16.321287
-16.320555
-16.319813
-16.322798
-16.322757
-16.322695
-16.322589
-16.322404
-16.322058
-16.321485
-16.320741
-16.319977
-16.322797
-16.322757
-16.322695
-16.322589
-16.322404
-16.322058
-16.321485
-16.320741
-16.319977
-16.322599
-16.32256
-16.322499
-16.322393
-16.322205
-16.321857
-16.321287
-16.320555
-16.319812
-16.322205
-16.32217
-16.322111
-16.322005
-16.321812
-16.321462
-16.3209
-16.320194
-16.319491
-16.321633
-16.321603
-16.321548
-16.321443
-16.321245
-16.320891
-16.320342
-16.319672
-16.319026
-16.320903
-16.320879
-16.32083
-16.320727
-16.320525
-16.320168
-16.319637
-16.319012
-16.318435
-16.320042
-16.320029
-16.31999
-16.319888
-16.319682
-16.319327
-16.318819
-16.318248
-16.317745
-16.3191
-16.319102
-16.319076
-16.318978
-16.318767
-16.318418
-16.317946
-16.317439
-16.317009
-16.318127
-16.318145
-16.318137
-16.318051
-16.317846
-16.317516
-16.317098
-16.316666
-16.316304
-16.31721
-16.317243
-16.317255
-16.317198
-16.317026
-16.316732
-16.316375
-16.31601
-16.315696
-16.316382
-16.316425
-16.316457
-16.316437
-16.316323
-16.316092
-16.31579
-16.315471
-16.315177
-16.315583
-16.315629
-16.315676
-16.3157
-16.315669
-16.315554
-16.315356
-16.315109
-16.314801
-16.314937
-16.314987
-16.315051
-16.31512
-16.315185
-16.315228
-16.315228
-16.315188
-16.31499
-15.424476
-15.424486
-15.424505
-15.424542
-15.424608
-15.424717
-15.424868
-15.425043
-15.42515
-15.425053
-15.425053
-15.425056
-15.425068
-15.425099
-15.42516
-15.425239
-15.425313
-15.425341
-15.425645
-15.42564
-15.425636
-15.425637
-15.425657
-15.425695
-15.425732
-15.425753
-15.425757
-15.426159
-15.42615
-15.426141
-15.426142
-15.42616
-15.426183
-15.426187
-15.426163
-15.426126
-15.426581
-15.426571
-15.426562
-15.426561
-15.426571
-15.42657
-15.426537
-15.426469
-15.426384
-15.426907
-15.426897
-15.426889
-15.426885
-15.426877
-15.426847
-15.426779
-15.426668
-15.426535
-15.427131
-15.427124
-15.427115
-15.427102
-15.427075
-15.427021
-15.426922
-15.426772
-15.426596
-15.427289
-15.427283
-15.427271
-15.427248
-15.427205
-15.427128
-15.426999
-15.426815
-15.426602
-15.427403
-15.427396
-15.427381
-15.427351
-15.427294
-15.427196
-15.42704
-15.426826
-15.426584
-15.427485
-15.427477
-15.427459
-15.427423
-15.427354
-15.427238
-15.427061
-15.426824
-15.42656
-15.427539
-15.427529
-15.427509
-15.427468
-15.427391
-15.427263
-15.427071
-15.426819
-15.42654
-15.427563
-15.427553
-15.427532
-15.427489
-15.427408
-15.427274
-15.427075
-15.426816
-15.426529
-15.427563
-15.427553
-15.427532
-15.427489
-15.427408
-15.427274
-15.427075
-15.426816
-15.426529
-15.427538
-15.427529
-15.427509
-15.427468
-15.427391
-15.427263
-15.427071
-15.426818
-15.426538
-15.427485
-15.427476
-15.427459
-15.427423
-15.427354
-15.427238
-15.42706
-15.426823
-15.426558
-15.427402
-15.427396
-15.427381
-15.427351
-15.427295
-15.427196
-15.42704
-15.426825
-15.426581
-15.427289
-15.427283
-15.427271
-15.427248
-15.427206
-15.427129
-15.427
-15.426814
-15.426599
-15.427132
-15.427125
-15.427117
-15.427104
-15.427077
-15.427023
-15.426923
-15.426772
-15.426593
-15.426908
-15.426899
-15.426891
-15.426888
-15.42688
-15.42685
-15.426781
-15.426668
-15.426532
-15.426585
-15.426575
-15.426566
-15.426566
-15.426576
-15.426575
-15.426541
-15.426471
-15.426382
-15.426165
-15.426156
-15.426148
-15.426149
-15.426167
-15.42619
-15.426193
-15.426166
-15.426125
-15.425654
-15.425649
-15.425645
-15.425647
-15.425666
-15.425704
-15.42574
-15.425757
-15.425757
-15.425064
-15.425064
-15.425068
-15.425079
-15.425111
-15.425171
-15.42525
-15.42532
-15.425344
-15.424489
-15.424498
-15.424517
-15.424554
-15.424621
-15.42473
-15.42488
-15.425054
-15.425157
-14.544147
-14.544157
-14.544172
-14.544191
-14.544214
-14.544239
-14.544267
-14.544302
-14.544306
-14.544331
-14.544339
-14.544348
-14.544355
-14.544355
-14.544344
-14.544329
-14.544315
-14.544293
-14.544552
-14.544559
-14.544564
-14.544562
-14.544544
-14.544513
-14.544477
-14.54445
-14.544437
-14.544772
-14.544776
-14.544776
-14.544766
-14.54474
-14.544701
-14.544658
-14.544625
-14.54461
-14.545
-14.545001
-14.544997
-14.544981
-14.544949
-14.544905
-14.544857
-14.544815
-14.544792
-14.545247
-14.545244
-14.545236
-14.545217
-14.545183
-14.545136
-14.545081
-14.545029
-14.544995
-14.545494
-14.545488
-14.545477
-14.545457
-14.545424
-14.545377
-14.545317
-14.545256
-14.545209
-14.545724
-14.545716
-14.545704
-14.545684
-14.545654
-14.545608
-14.545547
-14.545478
-14.545416
-14.545924
-14.545914
-14.545901
-14.545883
-14.545855
-14.545813
-14.545751
-14.545676
-14.5456
-14.546083
-14.546072
-14.546059
-14.546041
-14.546017
-14.545978
-14.545917
-14.545835
-14.545746
-14.546194
-14.546182
-14.546169
-14.546152
-14.54613
-14.546093
-14.546032
-14.545947
-14.545849
-14.54625
-14.546239
-14.546225
-14.546208
-14.546187
-14.546152
-14.546092
-14.546004
-14.545901
-14.54625
-14.546238
-14.546224
-14.546208
-14.546187
-14.546152
-14.546092
-14.546004
-14.5459
-14.546193
-14.546182
-14.546168
-14.546152
-14.54613
-14.546093
-14.546032
-14.545946
-14.545847
-14.546082
-14.546071
-14.546058
-14.546041
-14.546017
-14.545978
-14.545916
-14.545834
-14.545744
-14.545923
-14.545913
-14.545901
-14.545882
-14.545855
-14.545813
-14.545751
-14.545674
-14.545596
-14.545723
-14.545715
-14.545704
-14.545685
-14.545654
-14.545609
-14.545547
-14.545477
-14.545412
-14.545493
-14.545488
-14.545478
-14.545458
-14.545426
-14.545378
-14.545318
-14.545255
-14.545205
-14.545248
-14.545246
-14.545238
-14.545219
-14.545186
-14.545139
-14.545082
-14.545028
-14.544991
-14.545003
-14.545004
-14.545001
-14.544985
-14.544953
-14.54491
-14.54486
-14.544816
-14.54479
-14.544777
-14.544781
-14.544782
-14.544773
-14.544746
-14.544707
-14.544663
-14.544627
-14.544608
-14.54456
-14.544567
-14.544573
-14.54457
-14.544553
-14.544521
-14.544484
-14.544454
-14.544437
-14.54434
-14.544349
-14.544359
-14.544365
-14.544365
-14.544354
-14.544338
-14.544322
-14.544296
-14.544158
-14.544168
-14.544183
-14.544202
-14.544225
-14.54425
-14.544278
-14.544312
-14.544313
-13.660848
-13.66085
-13.660854
-13.660863
-13.660881
-13.66091
-13.660951
-13.660999
-13.661028
-13.660991
-13.660991
-13.660991
-13.660994
-13.661002
-13.661018
-13.661039
-13.661057
-13.661064
-13.661139
-13.661138
-13.661136
-13.661136
-13.66114
-13.661149
-13.661156
-13.66116
-13.661162
-13.661267
-13.661264
-13.661262
-13.661262
-13.661265
-13.661268
-13.661266
-13.66126
-13.661255
-13.661372
-13.661369
-13.661366
-13.661365
-13.661365
-13.661363
-13.661353
-13.661338
-13.661323
-13.661455
-13.661452
-13.661449
-13.661446
-13.661443
-13.661434
-13.661417
-13.661392
-13.661367
-13.661516
-13.661513
-13.661509
-13.661504
-13.661497
-13.661483
-13.661459
-13.661425
-13.661389
-13.661561
-13.661558
-13.661554
-13.661547
-13.661536
-13.661517
-13.661486
-13.661443
-13.661396
-13.661595
-13.661592
-13.661586
-13.661578
-13.661564
-13.66154
-13.661502
-13.66145
-13.661395
-13.66162
-13.661616
-13.66161
-13.661601
-13.661584
-13.661556
-13.661512
-13.661453
-13.661391
-13.661636
-13.661632
-13.661625
-13.661615
-13.661596
-13.661565
-13.661517
-13.661454
-13.661387
-13.661644
-13.661639
-13.661633
-13.661622
-13.661602
-13.661569
-13.661519
-13.661454
-13.661384
-13.661643
-13.661639
-13.661632
-13.661621
-13.661602
-13.661569
-13.661519
-13.661453
-13.661384
-13.661635
-13.661631
-13.661625
-13.661614
-13.661596
-13.661565
-13.661517
-13.661453
-13.661385
-13.661619
-13.661615
-13.661609
-13.6616
-13.661583
-13.661555
-13.661511
-13.661452
-13.661389
-13.661594
-13.661591
-13.661585
-13.661578
-13.661564
-13.66154
-13.661501
-13.661449
-13.661392
-13.66156
-13.661557
-13.661553
-13.661547
-13.661536
-13.661517
-13.661485
-13.661441
-13.661392
-13.661515
-13.661512
-13.661509
-13.661505
-13.661498
-13.661484
-13.661459
-13.661424
-13.661385
-13.661455
-13.661452
-13.66145
-13.661448
-13.661445
-13.661436
-13.661418
-13.661391
-13.661363
-13.661374
-13.661371
-13.661369
-13.661368
-13.661369
-13.661366
-13.661355
-13.661338
-13.661319
-13.661271
-13.661269
-13.661266
-13.661267
-13.66127
-13.661273
-13.66127
-13.661262
-13.661253
-13.661145
-13.661144
-13.661142
-13.661143
-13.661147
-13.661155
-13.661162
-13.661164
-13.661163
-13.660999
-13.660999
-13.660999
-13.661002
-13.661011
-13.661026
-13.661046
-13.661063
-13.661067
-13.660857
-13.660859
-13.660863
-13.660873
-13.66089
-13.66092
-13.660961
-13.661008
-13.661034
-12.779802
-12.779804
-12.779807
-12.779811
-12.779817
-12.779825
-12.779836
-12.77985
-12.779858
-12.779854
-12.779856
-12.779857
-12.779858
-12.779857
-12.779857
-12.779857
-12.77986
-12.77986
-12.779915
-12.779916
-12.779916
-12.779914
-12.77991
-12.779905
-12.779901
-12.779901
-12.779903
-12.779975
-12.779975
-12.779974
-12.779971
-12.779966
-12.779959
-12.779953
-12.77995
-12.779952
-12.780036
-12.780035
-12.780033
-12.780029
-12.780023
-12.780014
-12.780005
-12.779998
-12.779997
-12.780096
-12.780095
-12.780093
-12.780088
-12.78008
-12.78007
-12.780058
-12.780047
-12.780042
-12.780152
-12.780151
-12.780148
-12.780143
-12.780135
-12.780124
-12.780109
-12.780095
-12.780086
-12.780202
-12.7802
-12.780197
-12.780192
-12.780184
-12.780172
-12.780156
-12.78014
-12.780126
-12.780244
-12.780242
-12.780239
-12.780234
-12.780226
-12.780214
-12.780197
-12.780178
-12.780162
-12.780276
-12.780274
-12.780271
-12.780266
-12.780259
-12.780247
-12.780229
-12.780208
-12.780189
-12.780299
-12.780296
-12.780293
-12.780289
-12.780281
-12.780269
-12.780251
-12.780229
-12.780208
-12.78031
-12.780307
-12.780304
-12.7803
-12.780293
-12.780281
-12.780262
-12.78024
-12.780218
-12.780309
-12.780307
-12.780304
-12.7803
-12.780292
-12.78028
-12.780262
-12.78024
-12.780217
-12.780298
-12.780295
-12.780292
-12.780288
-12.780281
-12.780269
-12.780251
-12.780228
-12.780207
-12.780275
-12.780273
-12.78027
-12.780265
-12.780258
-12.780246
-12.780228
-12.780207
-12.780187
-12.780242
-12.78024
-12.780237
-12.780233
-12.780226
-12.780213
-12.780196
-12.780176
-12.780158
-12.7802
-12.780199
-12.780196
-12.780192
-12.780184
-12.780172
-12.780156
-12.780138
-12.780122
-12.780151
-12.78015
-12.780148
-12.780143
-12.780136
-12.780124
-12.780109
-12.780093
-12.780081
-12.780096
-12.780095
-12.780093
-12.780089
-12.780082
-12.780072
-12.780058
-12.780046
-12.780038
-12.780038
-12.780037
-12.780036
-12.780032
-12.780026
-12.780017
-12.780007
-12.779998
-12.779993
-12.779979
-12.779979
-12.779978
-12.779976
-12.77997
-12.779963
-12.779956
-12.779951
-12.779949
-12.779921
-12.779922
-12.779922
-12.779921
-12.779917
-12.779911
-12.779906
-12.779903
-12.779903
-12.779862
-12.779863
-12.779865
-12.779866
-12.779865
-12.779864
-12.779864
-12.779865
-12.779862
-12.77981
-12.779812
-12.779815
-12.77982
-12.779826
-12.779833
-12.779844
-12.779858
-12.779863
-11.89815
-11.89815
-11.898151
-11.898154
-11.898158
-11.898165
-11.898175
-11.898186
-11.898192
-11.898185
-11.898185
-11.898185
-11.898186
-11.898188
-11.898191
-11.898195
-11.898199
-11.8982
-11.898223
-11.898222
-11.898222
-11.898222
-11.898222
-11.898223
-11.898223
-11.898224
-11.898224
-11.898256
-11.898255
-11.898254
-11.898254
-11.898254
-11.898253
-11.898251
-11.89825
-11.898249
-11.898284
-11.898283
-11.898282
-11.898281
-11.89828
-11.898278
-11.898275
-11.898272
-11.898269
-11.898309
-11.898308
-11.898306
-11.898305
-11.898303
-11.8983
-11.898296
-11.898291
-11.898286
-11.898329
-11.898328
-11.898326
-11.898324
-11.898322
-11.898319
-11.898313
-11.898306
-11.898299
-11.898346
-11.898345
-11.898343
-11.898341
-11.898338
-11.898334
-11.898328
-11.898319
-11.89831
-11.89836
-11.898359
-11.898357
-11.898354
-11.898351
-11.898347
-11.89834
-11.898329
-11.898318
-11.898371
-11.898369
-11.898367
-11.898364
-11.898361
-11.898356
-11.898349
-11.898337
-11.898324
-11.898378
-11.898376
-11.898374
-11.898371
-11.898368
-11.898363
-11.898355
-11.898342
-11.898328
-11.898381
-11.898379
-11.898377
-11.898374
-11.898371
-11.898366
-11.898358
-11.898345
-11.898329
-11.898381
-11.898379
-11.898377
-11.898374
-11.898371
-11.898366
-11.898357
-11.898344
-11.898329
-11.898377
-11.898375
-11.898373
-11.898371
-11.898367
-11.898363
-11.898354
-11.898341
-11.898326
-11.898369
-11.898368
-11.898366
-11.898364
-11.89836
-11.898356
-11.898348
-11.898336
-11.898321
-11.898359
-11.898357
-11.898356
-11.898353
-11.898351
-11.898346
-11.898339
-11.898328
-11.898315
-11.898345
-11.898344
-11.898342
-11.89834
-11.898338
-11.898334
-11.898327
-11.898317
-11.898306
-11.898328
-11.898327
-11.898326
-11.898325
-11.898323
-11.898319
-11.898313
-11.898305
-11.898295
-11.898309
-11.898308
-11.898307
-11.898306
-11.898304
-11.898302
-11.898297
-11.898289
-11.898282
-11.898286
-11.898285
-11.898285
-11.898284
-11.898283
-11.898281
-11.898277
-11.898271
-11.898266
-11.898259
-11.898259
-11.898258
-11.898258
-11.898258
-11.898257
-11.898254
-11.89825
-11.898247
-11.898228
-11.898228
-11.898227
-11.898228
-11.898228
-11.898229
-11.898228
-11.898226
-11.898224
-11.898192
-11.898192
-11.898192
-11.898193
-11.898195
-11.898198
-11.898201
-11.898203
-11.898201
-11.898158
-11.898158
-11.898159
-11.898162
-11.898166
-11.898173
-11.898183
-11.898193
-11.898197
-11.016832
-11.016832
-11.016833
-11.016834
-11.016835
-11.016838
-11.016842
-11.016847
-11.01685
-11.016848
-11.016848
-11.016848
-11.016848
-11.016848
-11.016849
-11.01685
-11.016852
-11.016854
-11.016865
-11.016865
-11.016865
-11.016864
-11.016864
-11.016863
-11.016863
-11.016864
-11.016866
-11.016882
-11.016881
-11.016881
-11.01688
-11.016879
-11.016878
-11.016877
-11.016877
-11.016878
-11.016897
-11.016897
-11.016896
-11.016895
-11.016894
-11.016892
-11.01689
-11.016889
-11.016889
-11.016911
-11.016911
-11.01691
-11.016909
-11.016907
-11.016905
-11.016902
-11.016899
-11.016898
-11.016924
-11.016923
-11.016922
-11.016921
-11.016919
-11.016916
-11.016912
-11.016908
-11.016905
-11.016934
-11.016934
-11.016933
-11.016932
-11.01693
-11.016926
-11.016921
-11.016916
-11.016911
-11.016943
-11.016943
-11.016942
-11.016941
-11.016938
-11.016934
-11.016928
-11.016922
-11.016916
-11.01695
-11.016949
-11.016948
-11.016947
-11.016945
-11.01694
-11.016934
-11.016926
-11.016919
-11.016954
-11.016954
-11.016953
-11.016952
-11.016949
-11.016944
-11.016937
-11.016929
-11.016922
-11.016956
-11.016956
-11.016955
-11.016954
-11.016951
-11.016946
-11.016939
-11.01693
-11.016923
-11.016956
-11.016955
-11.016955
-11.016954
-11.016951
-11.016946
-11.016939
-11.01693
-11.016922
-11.016953
-11.016953
-11.016952
-11.016951
-11.016949
-11.016944
-11.016937
-11.016928
-11.01692
-11.016949
-11.016948
-11.016948
-11.016947
-11.016944
-11.01694
-11.016933
-11.016925
-11.016918
-11.016942
-11.016942
-11.016941
-11.01694
-11.016938
-11.016934
-11.016928
-11.01692
-11.016914
-11.016933
-11.016933
-11.016933
-11.016932
-11.01693
-11.016926
-11.016921
-11.016914
-11.016908
-11.016923
-11.016923
-11.016923
-11.016922
-11.01692
-11.016917
-11.016912
-11.016907
-11.016902
-11.016912
-11.016911
-11.016911
-11.01691
-11.016909
-11.016906
-11.016903
-11.016899
-11.016895
-11.016899
-11.016899
-11.016898
-11.016898
-11.016897
-11.016895
-11.016892
-11.016889
-11.016887
-11.016885
-11.016885
-11.016885
-11.016884
-11.016883
-11.016882
-11.01688
-11.016878
-11.016877
-11.01687
-11.01687
-11.01687
-11.01687
-11.016869
-11.016868
-11.016868
-11.016867
-11.016866
-11.016854
-11.016854
-11.016855
-11.016855
-11.016855
-11.016855
-11.016856
-11.016857
-11.016856
-11.016839
-11.016839
-11.01684
-11.016841
-11.016843
-11.016846
-11.016849
-11.016854
-11.016855
-10.135494
-10.135494
-10.135494
-10.135495
-10.135495
-10.135497
-10.135499
-10.135502
-10.135504
-10.135503
-10.135502
-10.135502
-10.135502
-10.135503
-10.135503
-10.135504
-10.135505
-10.135506
-10.135512
-10.135512
-10.135512
-10.135511
-10.135511
-10.135511
-10.135511
-10.135511
-10.135512
-10.135521
-10.135521
-10.135521
-10.13552
-10.13552
-10.135519
-10.135519
-10.135519
-10.135519
-10.13553
-10.13553
-10.135529
-10.135529
-10.135528
-10.135527
-10.135526
-10.135526
-10.135526
-10.135538
-10.135538
-10.135537
-10.135537
-10.135536
-10.135535
-10.135534
-10.135533
-10.135533
-10.135546
-10.135545
-10.135545
-10.135544
-10.135544
-10.135543
-10.135542
-10.13554
-10.135539
-10.135553
-10.135552
-10.135552
-10.135551
-10.13555
-10.13555
-10.135549
-10.135547
-10.135546
-10.135558
-10.135558
-10.135557
-10.135557
-10.135556
-10.135555