/*--------------------------------*- C++ -*----------------------------------*\
| =========                 |                                                 |
| \\      /  F ield         | OpenFOAM: The Open Source CFD Toolbox           |
|  \\    /   O peration     | Version:  2406                                  |
|   \\  /    A nd           | Website:  www.openfoam.com                      |
|    \\/     M anipulation  |                                                 |
\*---------------------------------------------------------------------------*/
FoamFile
{
    version     2.0;
    format      ascii;
    arch        "LSB;label=32;scalar=64";
    class       surfaceScalarField;
    location    "5.25";
    object      phi;
}
// * * * * * * * * * * * * * * * * * * * * * * * * * * * * * * * * * * * * * //

dimensions      [0 3 -1 0 0 0 0];

oriented        oriented;

internalField   nonuniform List<scalar> 
101088
(
0.00015036876
-2.3547367e-05
1.7817274e-05
2.0438052e-05
0.00031705329
-0.00010068494
7.6421261e-05
8.8586378e-05
0.00047634985
-0.00024048563
0.00018173452
0.00021364935
0.00059637168
-0.00045203555
0.00033714291
0.00040537627
0.00065401197
-0.00071092935
0.00051653395
0.00064449257
0.00065511027
-0.00095121976
0.00066289303
0.00087213487
0.00063166891
-0.0010997862
0.00072065685
0.0010206984
0.00061687717
-0.0011243062
0.00067742415
0.0010549548
-0.0010341934
0.00056472296
0.00097954232
0.00062331955
0.00018278871
-2.6058199e-05
2.2222644e-05
0.00038055251
-0.00010989027
9.4445333e-05
0.00056085316
-0.00025911831
0.0002227465
0.00068165696
-0.00048054268
0.00040954423
0.0007157646
-0.00074574852
0.00062173442
0.00067529229
-0.00098539298
0.00079224248
0.00060547536
-0.0011265992
0.00086035677
0.00054662519
-0.0011385626
0.00081529665
-0.0010359034
0.00069238034
0.00051421685
0.00021511123
-2.7634115e-05
2.6735479e-05
0.00044279938
-0.00011499793
0.00011264926
0.00064268229
-0.00026807641
0.00026354252
0.00076515026
-0.0004911376
0.00048024196
0.00078080219
-0.00075203782
0.00072226157
0.00070771779
-0.0009801762
0.00091303731
0.00060068886
-0.0011063518
0.00098800846
0.00050660754
-0.0011033149
0.00093897483
-0.00099127637
0.00080592435
0.00044318631
0.00024645705
-2.8205814e-05
3.1250491e-05
0.00050278838
-0.00011592871
0.00013059423
0.00072108114
-0.00026737726
0.00030317417
0.0008450696
-0.00048430735
0.00054784008
0.00084471691
-0.00073194363
0.00081678675
0.00074468166
-0.00094034755
0.001024752
0.0006077194
-0.0010458198
0.0011042828
0.00048624608
-0.001026891
0.0010500404
-0.00091007784
0.00090641336
0.0004003917
0.00027587803
-2.7555987e-05
3.5582508e-05
0.00055856802
-0.00011228872
0.00014766471
0.00079348011
-0.00025699459
0.00034057533
0.0009188723
-0.00046127782
0.00061113009
0.00090482844
-0.00068876528
0.00090457078
0.00078207158
-0.00087133022
0.0011275974
0.00062007065
-0.00095188248
0.0012102572
0.00047678537
-0.00091769755
0.0011500737
-0.00080043242
0.00099567051
0.00037352124
0.00030328839
-2.6005102e-05
3.9692568e-05
0.00061077384
-0.00010515546
0.00016374191
0.00086167836
-0.00023897087
0.0003755764
0.00098903337
-0.00042512173
0.00067005509
0.00096272587
-0.00062651844
0.00098595664
0.00081924041
-0.00077830877
0.0012224673
0.00063460108
-0.00083094415
0.0013071982
0.00047229038
-0.00078311467
0.0012405536
-0.0006702146
0.0010753244
0.00035491386
0.00032736559
-2.3518518e-05
4.3489577e-05
0.00065593313
-9.4562636e-05
0.00017852688
0.00091932559
-0.00021374957
0.00040768258
0.0010460885
-0.00037724795
0.00072398537
0.0010063972
-0.00054834969
0.0010604159
0.00084286073
-0.00066691658
0.0013090825
0.00063862098
-0.00069170075
0.0013952081
0.00046167037
-0.0006335495
0.0013220684
-0.00053005432
0.0011464154
0.00033508394
0.00034784173
-2.0157489e-05
4.6881449e-05
0.00069366182
-8.0763914e-05
0.00019177705
0.00096576889
-0.00018191602
0.00043662256
0.001088442
-0.00031886491
0.00077294628
0.0010326526
-0.00045691663
0.0011284324
0.00084805877
-0.00054235233
0.00138834
0.0006263839
-0.00054310761
0.0014754818
0.00043920639
-0.0004803155
0.0013960209
-0.00039114254
0.0012104628
0.00030824893
0.00036438729
-1.5987999e-05
4.9805287e-05
0.00072328588
-6.3985594e-05
0.00020330267
0.00099983546
-0.000143869
0.0004621096
0.001114035
-0.00025072674
0.00081673809
0.0010385698
-0.0003542519
0.0011896907
0.0008317535
-0.00040966635
0.0014599225
0.00059528691
-0.00039437808
0.0015478289
0.00040267674
-0.00033483679
0.0014625727
-0.00026425744
0.0012678008
0.00027219898
0.00037685109
-1.1162661e-05
5.2180554e-05
0.00074475737
-4.4648535e-05
0.00021278739
0.0010219382
-0.00010022163
0.00048341132
0.0011242729
-0.00017371284
0.00085397675
0.0010267832
-0.00024222605
0.0012423423
0.00079806971
-0.00027317587
0.0015213258
0.00055011529
-0.00025292883
0.0016097909
0.00035648958
-0.00020580643
0.001519682
-0.00015717828
0.0013169524
0.00023038874
0.00038492532
-5.7563122e-06
5.3925831e-05
0.0007576476
-2.2993711e-05
0.00021977079
0.0010324885
-5.1561243e-05
0.00049917824
0.0011222788
-8.9062245e-05
0.000881779
0.0010045336
-0.0001230285
0.0012820861
0.0007578339
-0.00013608143
0.001567481
0.00050271102
-0.00012226703
0.0016563109
0.00031142264
-9.6157564e-05
0.0015627988
-7.1528671e-05
0.0013541587
0.00019158397
0.00038896268
-3.9396868e-11
5.4792247e-05
0.00076390764
-1.6093047e-10
0.00022333792
0.0010368637
-4.1669179e-10
0.00050746932
0.0011187351
-8.8687848e-10
0.00089683243
0.00098857358
-1.3576279e-09
0.001304101
0.0007312697
-1.9003959e-09
0.0015935692
0.00047259472
-2.3255319e-09
0.0016825941
0.00028342192
-2.455197e-09
0.0015872266
-1.8734898e-09
0.0013750241
0.00016783781
0.00038896266
5.7562377e-06
5.4792237e-05
0.00076390749
2.2993398e-05
0.00022333789
0.0010368636
5.1560442e-05
0.00050746923
0.0011187352
8.9060571e-05
0.00089683226
0.00098857368
0.00012302595
0.0013041007
0.0007312698
0.00013607787
0.0015935689
0.00047259487
0.00012226272
0.0016825939
0.00028342225
9.6152889e-05
0.0015872263
7.1524891e-05
0.0013750239
0.00016783822
0.00038492535
1.1162594e-05
5.3925829e-05
0.00075764745
4.4648265e-05
0.00021977078
0.0010324885
0.00010022098
0.00049917818
0.0011222794
0.00017371148
0.00088177882
0.0010045341
0.00024222391
0.0012820859
0.00075783431
0.00027317284
0.0015674807
0.00050271141
0.00025292527
0.0016563105
0.00031142349
0.00020580229
0.0015627984
0.0001571743
0.0013541583
0.00019158491
0.00037685121
1.5987949e-05
5.2180541e-05
0.00074475733
6.3985357e-05
0.00021278733
0.001021938
0.00014386846
0.00048341117
0.0011242735
0.00025072558
0.0008539764
0.0010267836
0.0003542499
0.0012423419
0.00079807027
0.00040966357
0.0015213253
0.0005501156
0.0003943749
0.0016097903
0.00035649048
0.00033483297
0.0015196815
0.00026425306
0.0013169517
0.00023038965
0.00036438768
2.0157469e-05
4.9805279e-05
0.00072328632
8.0763677e-05
0.00020330263
0.00099983524
0.00018191552
0.00046210953
0.0011140357
0.00031886384
0.00081673789
0.0010385706
0.00045691455
0.0011896905
0.00083175435
0.0005423494
0.0014599221
0.00059528701
0.00054310409
0.0015478285
0.00040267723
0.00048031157
0.0014625722
0.00039113783
0.0012678001
0.00027219956
0.00034784197
2.3518487e-05
4.688145e-05
0.00069366225
9.4562452e-05
0.00019177705
0.00096576897
0.00021374922
0.00043662257
0.0010884433
0.00037724723
0.00077294622
0.001032654
0.00054834788
0.0011284323
0.00084805982
0.00066691362
0.0013883398
0.00062638393
0.00069169675
0.0014754816
0.00043920642
0.00063354552
0.0013960205
0.00053004951
0.0012104622
0.00030824909
0.00032736594
2.6005098e-05
4.348958e-05
0.00065593388
0.00010515545
0.00017852689
0.00091932593
0.00023897052
0.00040768261
0.0010460895
0.00042512088
0.00072398535
0.0010063983
0.00062651672
0.0010604158
0.00084286156
0.00077830606
0.0013090824
0.00063862121
0.00083094067
0.0013952079
0.00046167004
0.00078311141
0.0013220681
0.00067020956
0.001146415
0.00033508317
0.00030328883
2.7555933e-05
3.9692579e-05
0.00061077463
0.0001122885
0.00016374195
0.00086167853
0.00025699384
0.00037557651
0.00098903369
0.00046127664
0.00067005525
0.00096272656
0.00068876376
0.0009859568
0.00081924122
0.00087132818
0.0012224675
0.00063460172
0.0009518804
0.0013071982
0.00047228967
0.00091769529
0.0012405535
0.00080042748
0.0010753242
0.00035491169
0.00027587816
2.8205735e-05
3.5582506e-05
0.0005585684
0.00011592847
0.0001476647
0.0007934803
0.00026737687
0.00034057531
0.00091887232
0.00048430698
0.00061113004
0.00090482853
0.00073194321
0.00090457065
0.00078207235
0.00094034637
0.0011275973
0.00062007124
0.0010458178
0.0012102572
0.00047678415
0.0010268886
0.0011500736
0.00091007532
0.00099567028
0.00037351784
0.00024645708
2.7634058e-05
3.1250485e-05
0.00050278862
0.00011499772
0.00013059419
0.0007210812
0.00026807594
0.00030317409
0.00084506881
0.00049113679
0.00054783998
0.00084471567
0.00075203692
0.00081678663
0.00074468117
0.00098017494
0.0010247519
0.00060771895
0.0011063497
0.0011042827
0.00048624502
0.001103313
0.0010500402
0.00099127648
0.00090641323
0.00040038794
0.00021511111
2.6058135e-05
2.6735474e-05
0.00044279914
0.00010989004
0.00011264923
0.00064268178
0.00025911786
0.00026354245
0.00076514908
0.00048054197
0.00048024186
0.00078080005
0.00074574773
0.00072226145
0.00070771511
0.00098539198
0.0009130372
0.00060068632
0.0011265973
0.0009880083
0.00050660694
0.001138562
0.00093897456
0.0010359043
0.00080592425
0.00044318278
0.00018278858
2.3547343e-05
2.2222646e-05
0.00038055216
0.00010068486
9.4445335e-05
0.00056085244
0.00024048549
0.0002227465
0.00068165559
0.00045203533
0.0004095442
0.00071576191
0.00071092921
0.00062173439
0.00067528819
0.00095121976
0.00079224249
0.0006054708
0.0010997853
0.00086035675
0.00054662133
0.0011243065
0.00081529665
0.0010341943
0.00069238024
0.00051421297
0.00015036871
1.7817279e-05
2.0438096e-05
0.00031705296
7.6421277e-05
8.8586541e-05
0.0004763488
0.00018173455
0.00021364971
0.00059636966
0.00033714295
0.00040537693
0.0006540086
0.00051653401
0.00064449346
0.00065510534
0.00066289316
0.0008721355
0.00063166419
0.00072065696
0.0010206981
0.00061687351
0.00067742433
0.0010549547
0.00056472294
0.00097954069
0.00062332057
2.6151986e-06
-4.0708603e-06
1.6510692e-05
2.7622412e-06
1.1867806e-05
-2.0901237e-05
7.3152509e-05
1.4917422e-05
3.1085077e-05
-6.0110031e-05
0.00017813317
4.4494216e-05
6.3423177e-05
-0.00013730101
0.00033719844
0.00010490748
0.00010756163
-0.0002601957
0.00052748371
0.00020510749
0.00015564172
-0.000408426
0.00069159133
0.00033164759
0.00020215856
-0.0005339805
0.00076662381
0.0004414965
0.00024516731
-0.0005971197
0.00073111059
0.00050042453
-0.00058836688
0.00061374436
0.00050101833
0.00028349419
3.472582e-06
-5.1768599e-06
1.9856121e-05
1.5660398e-05
-2.6397196e-05
8.7753709e-05
4.0098302e-05
-7.4841738e-05
0.00021304082
7.8362308e-05
-0.00016747525
0.00040145534
0.00012524992
-0.00030981205
0.00062446414
0.00016945846
-0.00047483933
0.00081444758
0.00020379812
-0.00060917693
0.00090121376
0.00022918769
-0.00067140392
0.00086419088
-0.00065383632
0.00073733294
0.00024970511
4.674346e-06
-6.1900854e-06
2.3074335e-05
2.0500644e-05
-3.134789e-05
0.00010177361
5.0749407e-05
-8.7911965e-05
0.00024636414
9.5125968e-05
-0.0001936665
0.00046205696
0.00014454492
-0.00035108676
0.00071411738
0.00018447577
-0.0005266393
0.00092490686
0.00020797216
-0.00066306538
0.0010184002
0.00021896246
-0.00072023396
0.00097681417
-0.00069404629
0.00084045818
0.00022463845
6.0740426e-06
-7.1355801e-06
2.6121993e-05
2.6169229e-05
-3.5831557e-05
0.00011498284
6.3056108e-05
-9.9163582e-05
0.00027753948
0.00011396503
-0.00021489294
0.00051815836
0.00016579946
-0.00038202152
0.00079588706
0.00020155555
-0.00056137747
0.0010237344
0.0002154843
-0.00069368448
0.0011209724
0.00021446081
-0.00074248274
0.0010733124
-0.00070779284
0.00092715593
0.00020746476
7.443463e-06
-7.8652607e-06
2.8868719e-05
3.1668489e-05
-3.9315434e-05
0.00012692356
7.5127684e-05
-0.00010779059
0.0003057433
0.00013238403
-0.00022982311
0.00056880378
0.00018664485
-0.0004009738
0.00086926285
0.00021875832
-0.00057741728
0.0011115227
0.00022431487
-0.00069985428
0.0012108701
0.0002131372
-0.00073777493
0.0011565433
-0.00069533293
0.001000572
0.00019577521
8.909335e-06
-8.4227002e-06
3.134062e-05
3.7440144e-05
-4.1782284e-05
0.00013767787
8.7668927e-05
-0.00011358094
0.00033113834
0.00015130938
-0.00023773129
0.0006143225
0.00020792308
-0.000406548
0.0009349173
0.00023637441
-0.00057286122
0.0011894598
0.00023380693
-0.00067988112
0.0012897923
0.00021311335
-0.00070503088
0.0012285028
-0.00065660957
0.0010629007
0.00018681338
1.0160884e-05
-8.6302717e-06
3.3536271e-05
4.2176268e-05
-4.2482372e-05
0.00014721138
9.7116634e-05
-0.00011445558
0.00035361658
0.00016530801
-0.00023649062
0.00065455279
0.00022242399
-0.0003959927
0.00099274385
0.00024619535
-0.0005451649
0.0012576141
0.00023608153
-0.00063264987
0.0013580908
0.00020774722
-0.00064459239
0.0012899641
-0.00059308991
0.001115395
0.00017524812
1.1180755e-05
-8.3526247e-06
3.5422778e-05
4.5839937e-05
-4.0817134e-05
0.00015545275
0.00010384421
-0.00010900243
0.00037316563
0.00017363292
-0.00022311121
0.00068977787
0.00022753897
-0.00036504244
0.0010435762
0.00024449276
-0.00049107707
0.0013172981
0.00022704827
-0.00055706874
0.0014173457
0.00019320281
-0.0005573552
0.0013426291
-0.00050652691
0.0011597794
0.00015732337
1.1901297e-05
-7.4487117e-06
3.6999589e-05
4.8085672e-05
-3.610496e-05
0.00016240591
0.00010675795
-9.5384614e-05
0.00038981997
0.00017269271
-0.00019240112
0.00072009274
0.00021993792
-0.00031023265
0.0010876363
0.00022827575
-0.0004084308
0.0013689387
0.00020389618
-0.00045304011
0.0014681804
0.00016684948
-0.00044503132
0.0013872951
-0.00039922354
0.0011969736
0.00013037336
1.2272856e-05
-5.7995946e-06
3.8258465e-05
4.8697431e-05
-2.7759152e-05
0.00016801708
0.0001058358
-7.2501636e-05
0.00040339039
0.00016688096
-0.00014445163
0.0007449816
0.00020411197
-0.00022911464
0.0011239937
0.00019965146
-0.00029418383
0.0014115398
0.00016815855
-0.00032150985
0.0015097538
0.00012934425
-0.0003100334
0.001423498
-0.00027439917
0.0012268472
9.4625095e-05
1.2153795e-05
-3.2473581e-06
3.9219901e-05
4.7301476e-05
-1.5355482e-05
0.00017221955
0.00010023375
-3.9667235e-05
0.00041341182
0.000152545
-7.8143142e-05
0.00076315929
0.00017775284
-0.0001224782
0.0011502421
0.00016444481
-0.0001553949
0.0014420002
0.00012720134
-0.00016719288
0.0015392374
8.9855882e-05
-0.00015892835
0.0014490389
-0.00013960305
0.0012478015
6.1417133e-05
1.1876188e-05
1.3303112e-11
3.9668762e-05
4.5586952e-05
3.1776648e-11
0.00017427162
9.4917291e-05
8.0397944e-11
0.00041847168
0.0001410467
8.7931779e-11
0.00077256011
0.00015867234
4.1161275e-11
0.0011639972
0.00013878771
-1.9417202e-11
0.0014580588
9.9376107e-05
1.1169058e-10
0.0015548127
6.5108764e-05
3.0160169e-10
0.0014625654
7.6186983e-10
0.0012589166
4.1612818e-05
1.1876177e-05
3.2473916e-06
3.9668755e-05
4.5587001e-05
1.5355574e-05
0.0001742716
9.4917237e-05
3.9667446e-05
0.00041847161
0.00014104666
7.8143271e-05
0.00077255997
0.00015867224
0.00012247813
0.001163997
0.00013878767
0.00015539476
0.0014580586
9.9376166e-05
0.00016719321
0.0015548125
6.5108987e-05
0.00015892894
0.0014625652
0.0001396044
0.0012589165
4.1613073e-05
1.2153803e-05
5.7996207e-06
3.9219899e-05
4.7301516e-05
2.7759237e-05
0.00017221954
0.00010023346
7.2501828e-05
0.00041341178
0.00015254495
0.00014445164
0.00076315917
0.00017775247
0.00022911448
0.0011502419
0.00016444442
0.00029418361
0.001442
0.00012720146
0.00032151006
0.0015392371
8.9856455e-05
0.00031003382
0.0014490387
0.00027439995
0.0012478013
6.1417729e-05
1.2273075e-05
7.4487392e-06
3.8258454e-05
4.869763e-05
3.6105064e-05
0.00016801703
0.00010583545
9.5384767e-05
0.00040339028
0.00016688135
0.00019240102
0.00074498133
0.00020411215
0.00031023234
0.0011239934
0.00019965152
0.00040843047
0.0014115393
0.00016815871
0.0004530401
0.0015097534
0.00012934498
0.00044503122
0.0014234976
0.00039922346
0.0012268468
9.4625787e-05
1.1901822e-05
8.352685e-06
3.699958e-05
4.8086288e-05
4.0817358e-05
0.00016240588
0.00010675791
0.00010900264
0.0003898199
0.00017269339
0.00022311108
0.00072009257
0.00021993821
0.00036504201
0.0010876362
0.00022827596
0.00049107652
0.0013689385
0.00020389606
0.00055706821
0.0014681801
0.00016684988
0.00055735446
0.0013872948
0.00050652603
0.0011969732
0.00013037392
1.118109e-05
8.6303061e-06
3.5422776e-05
4.5840203e-05
4.2482524e-05
0.00015545274
0.000103844
0.00011445565
0.00037316563
0.00017363318
0.00023649033
0.00068977783
0.00022753904
0.00039599221
0.0010435761
0.00024449294
0.00054516435
0.0013172979
0.00022704788
0.00063264905
0.0014173454
0.00019320286
0.00064459126
0.0013426288
0.00059308841
0.0011597791
0.00015732385
1.0160899e-05
8.4227229e-06
3.3536274e-05
4.2176403e-05
4.1782444e-05
0.00014721139
9.7116709e-05
0.00011358116
0.00035361661
0.00016530815
0.00023773129
0.00065455279
0.00022242398
0.00040654808
0.0009927438
0.00024619536
0.00057286118
0.001257614
0.000236081
0.00067988061
0.0013580907
0.00020774704
0.00070502977
0.0012899639
0.00065660737
0.0011153948
0.00017524814
8.9094085e-06
7.8652466e-06
3.1340626e-05
3.744032e-05
3.9315476e-05
0.00013767789
8.7668703e-05
0.00010779072
0.0003311384
0.00015130928
0.00022982331
0.00061432255
0.00020792265
0.00040097411
0.0009349174
0.000236374
0.00057741747
0.0011894599
0.00023380639
0.00069985418
0.0012897924
0.00021311297
0.00073777397
0.0012285027
0.00069533035
0.0010629006
0.00018681266
7.4434067e-06
7.1355998e-06
2.8868716e-05
3.1668304e-05
3.5831642e-05
0.00012692354
7.51272e-05
9.9163799e-05
0.00030574326
0.0001323835
0.00021489329
0.00056880371
0.0001866437
0.0003820217
0.00086926281
0.00021875767
0.00056137795
0.0011115227
0.00022431428
0.00069368441
0.0012108701
0.0002131363
0.0007424818
0.0011565432
0.00070779111
0.0010005719
0.00019577373
6.0740317e-06
6.190066e-06
2.6121987e-05
2.616925e-05
3.1347878e-05
0.00011498281
6.3055907e-05
8.7912029e-05
0.00027753941
0.00011396439
0.00019366671
0.00051815826
0.00016579862
0.00035108713
0.0007958869
0.00020155444
0.00052663972
0.0010237342
0.00021548336
0.00066306561
0.0011209723
0.00021445961
0.00072023322
0.0010733122
0.00069404559
0.00092715584
0.00020746307
4.6743717e-06
5.1768492e-06
2.307433e-05
2.0500718e-05
2.6397205e-05
0.00010177359
5.0749234e-05
7.4841806e-05
0.00024636408
9.5125171e-05
0.00016747543
0.00046205685
0.0001445437
0.00030981235
0.00071411722
0.00018447435
0.00047483964
0.00092490672
0.00020797083
0.00060917718
0.0010184001
0.00021896136
0.00067140371
0.00097681388
0.00065383681
0.00084045804
0.00022463656
3.4725594e-06
4.0708469e-06
1.9856122e-05
1.5660252e-05
2.0901216e-05
8.7753707e-05
4.0097665e-05
6.0110042e-05
0.00021304081
7.836084e-05
0.00013730112
0.00040145531
0.00012524776
0.00026019596
0.00062446408
0.00016945594
0.00040842666
0.00081444756
0.00020379493
0.00053398066
0.00090121375
0.0002291852
0.00059712065
0.00086419076
0.00058836805
0.00073733279
0.00024970314
2.6151427e-06
1.6510696e-05
2.762284e-06
1.1867456e-05
7.3152523e-05
1.4917597e-05
3.1083999e-05
0.0001781332
4.4494639e-05
6.3421363e-05
0.00033719847
0.0001049083
0.00010755898
0.00052748375
0.00020510861
0.00015563798
0.00069159144
0.0003316485
0.00020215528
0.0007666239
0.0004414967
0.00024516466
0.00073111073
0.00050042481
0.00061374437
0.00050101697
0.00028349353
3.1408099e-07
-1.431669e-06
1.6430596e-05
1.1976812e-06
2.0476632e-06
-7.501634e-06
7.2609878e-05
6.3106735e-06
6.3495888e-06
-2.2244143e-05
0.0001774679
1.8607472e-05
1.3950947e-05
-5.3102115e-05
0.00033862852
4.4070647e-05
2.5434926e-05
-0.0001068064
0.00053423438
8.8571719e-05
4.1364746e-05
-0.00017933678
0.00070479044
0.00015020786
6.2520294e-05
-0.00024869974
0.00078241631
0.00021175166
8.9587005e-05
-0.00028918574
0.00074303981
0.0002501902
-0.00029025218
0.00061883088
0.00025533736
0.00011941537
3.7746587e-07
-1.5740606e-06
1.9621069e-05
2.6024716e-06
-8.4638056e-06
8.6490963e-05
8.0212085e-06
-2.5536503e-05
0.00021091469
1.683526e-05
-6.1566488e-05
0.00040110626
2.8293793e-05
-0.00012378266
0.00062998267
4.1235345e-05
-0.00020532373
0.00082749334
5.5736108e-05
-0.00027931296
0.0009173268
7.330805e-05
-0.00031833012
0.00087576349
-0.00031490495
0.00074067875
9.4615736e-05
5.5053517e-07
-1.695709e-06
2.264541e-05
3.5409719e-06
-9.3001481e-06
9.9619432e-05
1.0525409e-05
-2.8538127e-05
0.00024238135
2.1182631e-05
-6.9379627e-05
0.00045921305
3.3261141e-05
-0.00013901257
0.00071726878
4.3770711e-05
-0.00022705681
0.00093613097
5.2251092e-05
-0.00030207353
0.0010326806
6.1653656e-05
-0.00033673175
0.00098581324
-0.00032775118
0.00084035018
7.4607932e-05
8.0267288e-07
-1.8328383e-06
2.5456488e-05
4.8287334e-06
-1.0104183e-05
0.00011176091
1.3856737e-05
-3.131987e-05
0.00027129359
2.6875315e-05
-7.6305638e-05
0.00051206627
3.9937017e-05
-0.00015165505
0.00079546764
4.8350597e-05
-0.00024318455
0.0010314491
5.1561517e-05
-0.00031574902
0.0011314366
5.4075979e-05
-0.00034376642
0.0010778327
-0.00032871764
0.00092223735
5.9961205e-05
1.0965791e-06
-1.9894903e-06
2.792881e-05
6.3060417e-06
-1.0859946e-05
0.00012246989
1.7429891e-05
-3.3534825e-05
0.00029683448
3.3003022e-05
-8.1757086e-05
0.00055868202
4.7283287e-05
-0.00016069232
0.00086402078
5.3919815e-05
-0.00025239201
0.0011140932
5.2529832e-05
-0.00031930681
0.0012158179
4.9268711e-05
-0.00033912855
0.0011551665
-0.00031845328
0.00098993235
4.9643811e-05
1.4344304e-06
-2.1780805e-06
3.0094789e-05
8.0280948e-06
-1.1623324e-05
0.00013184757
2.156378e-05
-3.5118384e-05
0.00031918644
4.0105136e-05
-8.5350879e-05
0.00059937463
5.5880307e-05
-0.00016510179
0.00092355213
6.0812134e-05
-0.00025311459
0.0011852507
5.499489e-05
-0.00031135908
0.001287662
4.6488018e-05
-0.00032224819
0.0012201291
-0.00029724502
0.0010458711
4.2309278e-05
1.7631361e-06
-2.3547904e-06
3.1949898e-05
9.72898e-06
-1.2226778e-05
0.000139849
2.6045151e-05
-3.6002891e-05
0.00033818483
4.6784274e-05
-8.5437365e-05
0.00063389998
6.3138056e-05
-0.00016255935
0.00097384747
6.5770685e-05
-0.00024308619
0.0012449527
5.5702365e-05
-0.00029061305
0.0013474135
4.2963794e-05
-0.00029316642
0.001273621
-0.00026607104
0.0010913781
3.5807037e-05
2.0022942e-06
-2.4042291e-06
3.346967e-05
1.0957113e-05
-1.2157968e-05
0.00014642933
2.9200042e-05
-3.4957793e-05
0.0003538782
5.1297677e-05
-8.0335746e-05
0.00066257875
6.7778103e-05
-0.00015123435
0.0010157713
6.7642362e-05
-0.00022030493
0.0012946526
5.3526612e-05
-0.00025598421
0.0013968332
3.772703e-05
-0.00025216711
0.0013174295
-0.00022607265
0.0011281649
2.934349e-05
2.1036408e-06
-2.1714773e-06
3.4662795e-05
1.154279e-05
-1.0815688e-05
0.00015162445
3.0850476e-05
-3.0796834e-05
0.00036635194
5.5111963e-05
-7.0048161e-05
0.00068554349
7.0108686e-05
-0.00012850453
0.0010499107
6.6140458e-05
-0.00018271252
0.0013353152
4.8485587e-05
-0.00020715502
0.0014370068
3.1311257e-05
-0.00020029881
0.0013526011
-0.00017875329
0.0011572087
2.3756865e-05
2.1259655e-06
-1.5858896e-06
3.5546841e-05
1.1784195e-05
-7.9563416e-06
0.00015549967
3.1351564e-05
-2.2696954e-05
0.00037572382
5.4713265e-05
-5.1394403e-05
0.00070296605
6.7777334e-05
-9.3643295e-05
0.0010760691
6.2488276e-05
-0.00013272234
0.0013668393
4.3125574e-05
-0.00014613131
0.0014680932
2.7145316e-05
-0.00014014809
0.0013793274
-0.00012559894
0.0011786395
2.2198576e-05
2.2815734e-06
-8.3445453e-07
3.6187009e-05
1.2529428e-05
-4.211231e-06
0.0001582267
3.3141953e-05
-1.2063054e-05
0.00038216588
5.7545167e-05
-2.7340151e-05
0.00071470218
7.0345568e-05
-4.9587185e-05
0.0010933862
6.1211526e-05
-6.9503237e-05
0.0013879156
4.147597e-05
-7.5918653e-05
0.0014887605
2.6445301e-05
-7.2716102e-05
0.0013966376
-6.4994865e-05
0.0011919869
2.1655933e-05
2.3792976e-06
2.1150158e-11
3.645509e-05
1.2999027e-05
7.4536738e-11
0.00015944062
3.4226211e-05
2.1303732e-10
0.00038518148
5.9029015e-05
4.3423815e-10
0.00072041728
7.1424858e-05
7.2622043e-10
0.0011020139
6.1631951e-05
8.8938233e-10
0.0013983479
4.1385706e-05
8.1464537e-10
0.0014991397
2.6003351e-05
7.5034182e-10
0.0014052311
7.1584985e-10
0.0011986959
2.1228719e-05
2.3792657e-06
8.3450269e-07
3.6455085e-05
1.2999072e-05
4.2114045e-06
0.0001594406
3.4226184e-05
1.2063519e-05
0.00038518143
5.9028952e-05
2.7340993e-05
0.00072041719
7.1424671e-05
4.958858e-05
0.0011020138
6.1631743e-05
6.9505019e-05
0.0013983477
4.1385618e-05
7.5920315e-05
0.0014991395
2.6003316e-05
7.2717657e-05
0.001405231
6.4996226e-05
0.0011986958
2.1228683e-05
2.2815468e-06
1.5859275e-06
3.6187009e-05
1.2529498e-05
7.9565029e-06
0.0001582267
3.3141763e-05
2.2697393e-05
0.00038216587
5.7545158e-05
5.1395097e-05
0.00071470214
7.0345487e-05
9.364443e-05
0.0010933861
6.1211393e-05
0.0001327241
0.0013879155
4.1475691e-05
0.00014613333
0.0014887603
2.6445136e-05
0.00014014969
0.0013966375
0.00012559997
0.0011919868
2.1655789e-05
2.1261183e-06
2.1715146e-06
3.5546833e-05
1.1784333e-05
1.0815868e-05
0.00015549964
3.1351166e-05
3.0797287e-05
0.00037572375
5.4713309e-05
7.0048881e-05
0.00070296589
6.7777031e-05
0.0001285057
0.0010760689
6.248779e-05
0.00018271423
0.001366839
4.312489e-05
0.00020715702
0.0014680929
2.7144824e-05
0.00020030018
0.0013793271
0.00017875369
0.0011786393
2.2198215e-05
2.1040651e-06
2.4043086e-06
3.4662789e-05
1.1543225e-05
1.2158296e-05
0.00015162442
3.0850292e-05
3.4958403e-05
0.00036635189
5.5112202e-05
8.0336591e-05
0.00068554338
7.0108399e-05
0.00015123552
0.0010499105
6.6139891e-05
0.00022030655
0.001335315
4.8484554e-05
0.00025598592
0.0014370066
3.1310473e-05
0.00025216809
0.0013526009
0.00022607246
0.0011572085
2.3756403e-05
2.0026096e-06
2.3548563e-06
3.3469668e-05
1.0957328e-05
1.2227075e-05
0.00014642932
2.9199856e-05
3.6003395e-05
0.0003538782
5.1297696e-05
8.5438037e-05
0.00066257874
6.7777613e-05
0.00016256051
0.0010157713
6.7641725e-05
0.00024308792
0.0012946525
5.352534e-05
0.00029061473
0.001396833
3.7725983e-05
0.00029316729
0.0013174293
0.00026607046
0.0011281647
2.9342885e-05
1.7631247e-06
2.1781327e-06
3.1949901e-05
9.7289703e-06
1.1623624e-05
0.00013984901
2.6045086e-05
3.511899e-05
0.00033818487
4.6784135e-05
8.5351733e-05
0.00063390001
6.3137466e-05
0.00016510342
0.0009738475
6.5769965e-05
0.00025311683
0.0012449527
5.5701039e-05
0.00031136116
0.0013474134
4.2962624e-05
0.00032224917
0.0012736209
0.00029724403
0.001091378
3.5805986e-05
1.4344293e-06
1.989528e-06
3.0094797e-05
8.0281221e-06
1.0860178e-05
0.0001318476
2.1563529e-05
3.3535419e-05
0.00031918651
4.0104958e-05
8.1758206e-05
0.0005993747
5.5879503e-05
0.00016069418
0.00092355228
6.0811242e-05
0.00025239443
0.0011852508
5.4993733e-05
0.00031930914
0.0012876622
4.6486935e-05
0.00033912959
0.0012201291
0.00031845205
0.0010458711
4.2307818e-05
1.0965229e-06
1.8328957e-06
2.7928809e-05
6.3058828e-06
1.0104436e-05
0.00012246988
1.7429548e-05
3.1320551e-05
0.00029683445
3.3002703e-05
7.6306885e-05
0.00055868197
4.7282281e-05
0.00015165672
0.00086402078
5.3919108e-05
0.00024318712
0.0011140932
5.2529047e-05
0.00031575133
0.0012158179
4.926765e-05
0.00034376752
0.0011551664
0.00032871709
0.00098993223
4.9642066e-05
8.0266024e-07
1.6957508e-06
2.5456483e-05
4.8287276e-06
9.3003626e-06
0.00011176088
1.3856617e-05
2.8538697e-05
0.00027129353
2.6874981e-05
6.9380747e-05
0.00051206617
3.9936653e-05
0.0001390144
0.00079546747
4.8349874e-05
0.00022705921
0.0010314489
5.1560871e-05
0.00030207603
0.0011314365
5.407484e-05
0.00033673313
0.0010778325
0.00032775152
0.0009222373
5.9959558e-05
5.5058376e-07
1.5741118e-06
2.2645405e-05
3.541134e-06
8.4640375e-06
9.9619406e-05
1.0525528e-05
2.5537052e-05
0.00024238129
2.1182462e-05
6.1567522e-05
0.00045921292
3.3260913e-05
0.00012378431
0.00071726856
4.3770366e-05
0.00020532589
0.00093613076
5.225061e-05
0.00027931535
0.0010326804
6.1652835e-05
0.00031833192
0.00098581299
0.00031490624
0.00084035007
7.4606452e-05
3.7748602e-07
1.4317014e-06
1.9621069e-05
2.6025233e-06
7.5017799e-06
8.6490959e-05
8.0211027e-06
2.224451e-05
0.00021091468
1.6834833e-05
5.310284e-05
0.00040110622
2.8293301e-05
0.00010680758
0.00062998259
4.1235061e-05
0.00017933867
0.00082749326
5.5735419e-05
0.00024870156
0.00091732674
7.3308064e-05
0.00028918805
0.00087576333
0.00029025401
0.00074067866
9.4615886e-05
3.1405473e-07
1.64306e-05
1.1977386e-06
2.0474984e-06
7.260989e-05
6.3109149e-06
6.3490693e-06
0.00017746793
1.8608058e-05
1.3950197e-05
0.00033862855
4.407177e-05
2.5433914e-05
0.00053423441
8.8573332e-05
4.1363272e-05
0.00070479051
0.00015020943
6.2519723e-05
0.00078241634
0.0002117528
8.9587195e-05
0.0007430399
0.00025019156
0.00061883097
0.00025533716
0.00011941637
7.2594333e-08
-9.3377721e-07
1.6650349e-05
6.4142836e-07
3.2804871e-07
-4.5309285e-06
7.3658238e-05
3.2270927e-06
1.3658027e-06
-1.256433e-05
0.00017980964
9.184789e-06
4.9261777e-06
-2.8330662e-05
0.00034223482
2.1163933e-05
1.3314633e-05
-5.4951281e-05
0.00053888496
4.1912226e-05
2.7441202e-05
-9.1285481e-05
0.00071077079
7.1178584e-05
4.5168754e-05
-0.00012727971
0.00079024329
0.0001017251
6.2682703e-05
-0.00014881248
0.00075232918
0.00012200945
-0.00014880805
0.0006279828
0.00012558389
7.675504e-05
4.9806504e-08
-1.1793863e-06
1.9816873e-05
2.7813639e-07
-5.7007861e-06
8.7432498e-05
1.4402629e-06
-1.5682723e-05
0.00021287103
5.5453956e-06
-3.4961982e-05
0.00040363273
1.4879871e-05
-6.6851725e-05
0.0006325491
2.9457112e-05
-0.0001089417
0.00083057245
4.5860228e-05
-0.00014834729
0.00092199166
5.9942812e-05
-0.00016932349
0.00088219205
-0.00016607695
0.00074789712
6.9993732e-05
4.300063e-08
-1.3738749e-06
2.2796871e-05
2.4234843e-07
-6.6353779e-06
0.00010035462
1.4740356e-06
-1.8222228e-05
0.00024368919
6.0487557e-06
-4.0465027e-05
0.00046014152
1.6237869e-05
-7.6713876e-05
0.00071694184
3.1216892e-05
-0.00012301236
0.000935223
4.6529984e-05
-0.00016380851
0.001032829
5.8020326e-05
-0.00018280819
0.00098780762
-0.00017640689
0.00084397673
6.47238e-05
5.3627953e-08
-1.5174411e-06
2.5546447e-05
3.0163534e-07
-7.3258621e-06
0.00011220342
1.748566e-06
-2.0104676e-05
0.00027172926
6.9396671e-06
-4.4567136e-05
0.00051097749
1.8038649e-05
-8.3978762e-05
0.00079163331
3.34389e-05
-0.00013275387
0.0010257907
4.7927056e-05
-0.00017307062
0.0011262104
5.7444621e-05
-0.00018903127
0.0010745382
-0.00017959039
0.0009214212
6.1444517e-05
5.9613884e-08