/*--------------------------------*- C++ -*----------------------------------*\
| =========                 |                                                 |
| \\      /  F ield         | OpenFOAM: The Open Source CFD Toolbox           |
|  \\    /   O peration     | Version:  2406                                  |
|   \\  /    A nd           | Website:  www.openfoam.com                      |
|    \\/     M anipulation  |                                                 |
\*---------------------------------------------------------------------------*/
FoamFile
{
    version     2.0;
    format      ascii;
    arch        "LSB;label=32;scalar=64";
    class       volVectorField;
    location    "5.25";
    object      U;
}
// * * * * * * * * * * * * * * * * * * * * * * * * * * * * * * * * * * * * * //

dimensions      [0 1 -1 0 0 0 0];

internalField   nonuniform List<vector> 
34560
(
(0.091941787 -0.006976496 -0.021673964)
(0.28451592 -0.020851888 -0.067571001)
(0.50378368 -0.039048501 -0.11670543)
(0.72849183 -0.061911869 -0.16154978)
(0.92761477 -0.087884812 -0.1930391)
(1.0710923 -0.11385808 -0.20417461)
(1.1479482 -0.1361842 -0.19635246)
(1.1750441 -0.15335528 -0.17738495)
(1.1758036 -0.16221029 -0.15832326)
(0.1065727 -0.008231553 -0.024354517)
(0.32467012 -0.023698172 -0.075300862)
(0.56579764 -0.042911972 -0.1280364)
(0.80336523 -0.065911195 -0.17348375)
(1.002049 -0.090793337 -0.20188322)
(1.1322088 -0.11444282 -0.20707209)
(1.1909087 -0.13341299 -0.1929161)
(1.2034054 -0.14646438 -0.16913884)
(1.1977568 -0.15169076 -0.14635942)
(0.12155374 -0.008747363 -0.025975016)
(0.36518159 -0.024633447 -0.080121119)
(0.62756072 -0.043860413 -0.13484547)
(0.87728486 -0.066261827 -0.18005634)
(1.0758357 -0.089615957 -0.20583058)
(1.1950103 -0.1107823 -0.2068519)
(1.2394292 -0.12671405 -0.18857507)
(1.2408169 -0.13637148 -0.1616882)
(1.2318553 -0.13886119 -0.13719938)
(0.13675425 -0.0092039751 -0.02742311)
(0.40571838 -0.025332361 -0.08436336)
(0.68873171 -0.044175678 -0.14058643)
(0.95020196 -0.065366762 -0.18511514)
(1.1492189 -0.086485868 -0.20809786)
(1.2594281 -0.10450091 -0.20536792)
(1.2923992 -0.11710936 -0.18358677)
(1.2848832 -0.12335782 -0.15444465)
(1.272815 -0.12334226 -0.12886576)
(0.15156761 -0.0092012449 -0.028464027)
(0.44497084 -0.02492084 -0.087532284)
(0.74786475 -0.0428719 -0.14476114)
(1.0211071 -0.062495744 -0.18844278)
(1.2218346 -0.081128593 -0.20883259)
(1.3253019 -0.09575461 -0.20287345)
(1.3489956 -0.10493633 -0.1778214)
(1.3340502 -0.10796141 -0.14686186)
(1.3189037 -0.10596954 -0.12030357)
(0.16583889 -0.0089492092 -0.02913005)
(0.48263176 -0.023980915 -0.08966964)
(0.80468452 -0.040758034 -0.14745443)
(1.0899368 -0.058521781 -0.19015981)
(1.2938332 -0.07441869 -0.20810408)
(1.3927277 -0.08554623 -0.19913756)
(1.4088436 -0.091124176 -0.17107776)
(1.3877038 -0.091294159 -0.13845066)
(1.3696415 -0.087847046 -0.11099163)
(0.17936661 -0.0084137065 -0.029591024)
(0.51835737 -0.022381605 -0.091184052)
(0.85895495 -0.037691131 -0.14913638)
(1.1567081 -0.053393461 -0.190586)
(1.3653708 -0.066478881 -0.20590701)
(1.4616675 -0.074225106 -0.19374342)
(1.4717935 -0.076337844 -0.16275788)
(1.4455644 -0.074113539 -0.1285605)
(1.4248785 -0.06974018 -0.10041409)
(0.19168932 -0.0075604586 -0.029841123)
(0.55119089 -0.020057176 -0.092076014)
(0.90962135 -0.033607028 -0.14981847)
(1.2205663 -0.047105403 -0.1896807)
(1.4357771 -0.057458015 -0.20203353)
(1.5314062 -0.062143605 -0.18632664)
(1.5370872 -0.061279314 -0.15233207)
(1.5069102 -0.057254542 -0.1168061)
(1.4839435 -0.052487917 -0.088370868)
(0.20244393 -0.0063731198 -0.029919548)
(0.5802515 -0.016934383 -0.09242706)
(0.95540533 -0.028353548 -0.14958143)
(1.2798676 -0.039457149 -0.1874529)
(1.5030451 -0.047235853 -0.19637615)
(1.5997665 -0.049421521 -0.17671183)
(1.6024662 -0.046467726 -0.13976858)
(1.5696165 -0.04148859 -0.1033516)
(1.5446808 -0.03688815 -0.075184286)
(0.21122431 -0.0048859864 -0.029875947)
(0.60436889 -0.013045559 -0.092358345)
(0.99422794 -0.021868286 -0.14863881)
(1.3314439 -0.03026392 -0.18424825)
(1.5628521 -0.035633497 -0.18949707)
(1.6618553 -0.036110549 -0.16572775)
(1.6630222 -0.032322922 -0.12618342)
(1.6288554 -0.027463622 -0.089395328)
(1.6022305 -0.023597906 -0.062053567)
(0.21770274 -0.0031315218 -0.029823822)
(0.62227744 -0.0083906785 -0.092174786)
(1.0233706 -0.014048363 -0.14753811)
(1.3706805 -0.019314361 -0.18101447)
(1.6089344 -0.022403891 -0.18293742)
(1.7104179 -0.022086636 -0.15556953)
(1.7113005 -0.01894477 -0.11408198)
(1.6768508 -0.015385108 -0.077302968)
(1.6488283 -0.012797406 -0.051083417)
(0.22092694 -0.0010320649 -0.029764763)
(0.63141096 -0.0027608522 -0.091996459)
(1.0386026 -0.0046604576 -0.14680144)
(1.3916895 -0.0064541326 -0.1790107)
(1.6341414 -0.0074912527 -0.17894136)
(1.7373472 -0.0073132667 -0.14941269)
(1.7385608 -0.0061465185 -0.10688399)
(1.704162 -0.0048707324 -0.070190736)
(1.6753043 -0.0039841587 -0.044743184)
(0.22092693 0.0010320163 -0.029764758)
(0.63141094 0.002760712 -0.091996452)
(1.0386026 0.0046601982 -0.14680141)
(1.3916894 0.0064537175 -0.17901069)
(1.6341413 0.0074907465 -0.17894137)
(1.737347 0.0073126673 -0.1494127)
(1.7385605 0.0061458613 -0.106884)
(1.7041617 0.0048700488 -0.070190773)
(1.675304 0.0039835929 -0.044743253)
(0.21770273 0.0031314718 -0.029823819)
(0.62227739 0.0083905352 -0.092174786)
(1.0233704 0.014048121 -0.14753807)
(1.3706801 0.019313979 -0.18101448)
(1.6089341 0.022403414 -0.18293746)
(1.7104174 0.022086072 -0.15556955)
(1.7113 0.018944169 -0.11408201)
(1.6768502 0.015384459 -0.077303059)
(1.6488275 0.012796811 -0.05108357)
(0.21122429 0.0048859436 -0.02987595)
(0.60436882 0.013045417 -0.092358392)
(0.99422776 0.021868065 -0.14863881)
(1.3314435 0.030263566 -0.18424828)
(1.5628517 0.035633036 -0.18949713)
(1.6618547 0.03611002 -0.16572778)
(1.6630215 0.032322382 -0.12618345)
(1.6288546 0.027463016 -0.089395405)
(1.6022294 0.023597254 -0.062053693)
(0.20244391 0.0063731023 -0.029919537)
(0.58025143 0.016934264 -0.092427139)
(0.95540521 0.028353349 -0.14958145)
(1.2798673 0.039456801 -0.18745291)
(1.5030448 0.047235373 -0.19637621)
(1.599766 0.049420993 -0.17671188)
(1.6024656 0.046467188 -0.13976859)
(1.5696157 0.041488 -0.10335159)
(1.5446796 0.036887443 -0.075184322)
(0.19168932 0.0075604499 -0.029841098)
(0.55119088 0.020057095 -0.092076025)
(0.90962132 0.033606878 -0.14981841)
(1.2205661 0.047105117 -0.18968067)
(1.4357768 0.057457558 -0.20203361)
(1.5314057 0.062143073 -0.1863267)
(1.5370867 0.061278724 -0.15233203)
(1.5069094 0.05725395 -0.11680598)
(1.4839424 0.052487206 -0.088370802)
(0.17936659 0.0084136916 -0.029591017)
(0.5183573 0.022381531 -0.091184078)
(0.85895484 0.037691005 -0.14913634)
(1.1567079 0.053393254 -0.19058595)
(1.3653705 0.066478492 -0.20590703)
(1.4616671 0.0742246 -0.19374341)
(1.471793 0.076337238 -0.16275778)
(1.4455637 0.074112956 -0.12856032)
(1.4248775 0.069739482 -0.10041386)
(0.16583888 0.0089491887 -0.029130021)
(0.48263174 0.023980836 -0.089669623)
(0.80468454 0.040757908 -0.14745435)
(1.0899368 0.058521621 -0.19015969)
(1.293833 0.0744184 -0.20810399)
(1.3927275 0.085545815 -0.1991375)
(1.4088432 0.091123674 -0.17107768)
(1.3877032 0.091293622 -0.13845045)
(1.3696408 0.087846313 -0.11099112)
(0.1515676 0.0092012061 -0.028463989)
(0.44497079 0.024920755 -0.087532223)
(0.74786463 0.042871767 -0.14476106)
(1.0211069 0.062495619 -0.18844266)
(1.2218342 0.08112842 -0.20883248)
(1.3253015 0.095754273 -0.20287339)
(1.3489953 0.10493586 -0.17782133)
(1.3340499 0.10796085 -0.14686148)
(1.3189031 0.10596896 -0.12030282)
(0.13675424 0.0092039487 -0.02742307)
(0.40571831 0.025332273 -0.084363343)
(0.6887316 0.044175565 -0.14058637)
(0.95020187 0.065366673 -0.18511502)
(1.1492188 0.08648582 -0.20809765)
(1.259428 0.10450069 -0.2053677)
(1.2923991 0.11710878 -0.18358653)
(1.284883 0.12335704 -0.15444425)
(1.2728145 0.123342 -0.12886519)
(0.12155374 0.0087473306 -0.02597498)
(0.36518159 0.024633359 -0.080121054)
(0.6275607 0.0438603 -0.13484533)
(0.87728485 0.066261699 -0.18005613)
(1.0758357 0.08961587 -0.20583028)
(1.1950103 0.11078213 -0.20685151)
(1.2394291 0.12671343 -0.18857462)
(1.2408165 0.1363705 -0.16168814)
(1.231855 0.13886085 -0.13719931)
(0.10657271 0.0082315272 -0.024354489)
(0.32467013 0.023698125 -0.075300781)
(0.56579762 0.042911937 -0.12803625)
(0.80336517 0.065911178 -0.17348352)
(1.0020489 0.090793369 -0.20188288)
(1.1322088 0.11444285 -0.20707158)
(1.1909085 0.13341266 -0.19291573)
(1.2034053 0.14646342 -0.16913926)
(1.1977565 0.1516896 -0.14635954)
(0.091941798 0.0069765052 -0.021673966)
(0.28451594 0.020851912 -0.067571002)
(0.50378369 0.039048585 -0.11670538)
(0.72849182 0.061912031 -0.16154966)
(0.92761479 0.087885021 -0.19303893)
(1.0710924 0.1138582 -0.20417435)
(1.1479482 0.13618404 -0.19635223)
(1.1750441 0.15335463 -0.17738538)
(1.1758032 0.16220938 -0.15832403)
(0.10832632 -0.0021043049 -0.0021084367)
(0.34648417 -0.0077639242 -0.0080494198)
(0.63210558 -0.016372316 -0.017571678)
(0.9398365 -0.028572563 -0.031305873)
(1.2266983 -0.044124571 -0.047680004)
(1.4489424 -0.060996885 -0.062414581)
(1.5857525 -0.076189316 -0.071049628)
(1.648889 -0.088391614 -0.072794822)
(1.6627882 -0.097378634 -0.070276536)
(0.12030961 -0.0029510271 -0.0026493896)
(0.3821147 -0.010549214 -0.0098409484)
(0.69112839 -0.021472747 -0.021092996)
(1.0154791 -0.036027857 -0.036791446)
(1.3054814 -0.053301472 -0.054512264)
(1.51581 -0.070548327 -0.069198)
(1.6317223 -0.08492845 -0.076578537)
(1.6739462 -0.095591154 -0.07658066)
(1.6738197 -0.10282837 -0.071977536)
(0.13140491 -0.0034496642 -0.0027728167)
(0.41507346 -0.012321089 -0.010414226)
(0.74549581 -0.02484171 -0.022582724)
(1.0845265 -0.041010269 -0.039458616)
(1.3764924 -0.059306257 -0.057937946)
(1.5754805 -0.076457977 -0.072424097)
(1.6730471 -0.089758773 -0.078904923)
(1.6982921 -0.098728545 -0.077881061)
(1.6884988 -0.10418191 -0.072402313)
(0.14184062 -0.004018617 -0.0028927948)
(0.44589796 -0.014182993 -0.010913066)
(0.79603997 -0.028119723 -0.023811884)
(1.1483565 -0.045482068 -0.041553059)
(1.4420736 -0.064196382 -0.06035726)
(1.6313384 -0.080628871 -0.074295946)
(1.7135654 -0.092323759 -0.079739499)
(1.725039 -0.099353406 -0.077862596)
(1.7069728 -0.10302992 -0.071844787)
(0.15117624 -0.0044909844 -0.0028937472)
(0.47362049 -0.015739595 -0.011055089)
(0.84169439 -0.030815691 -0.024358077)
(1.2063715 -0.049012462 -0.042645002)
(1.502385 -0.067708083 -0.061499393)
(1.6840034 -0.082996194 -0.074749963)
(1.7537078 -0.092765111 -0.079118685)
(1.7537256 -0.097739805 -0.076440728)
(1.7282733 -0.099666924 -0.069972538)
(0.15963695 -0.0048870888 -0.0027627002)
(0.49882914 -0.017024945 -0.010764324)
(0.88333292 -0.033014114 -0.024244607)
(1.2596407 -0.051571405 -0.042488607)
(1.5585311 -0.069726213 -0.061060103)
(1.7342709 -0.083404375 -0.07341116)
(1.7936305 -0.090936207 -0.076624079)
(1.7837644 -0.093884052 -0.073142987)
(1.7517174 -0.094170694 -0.066268919)
(0.16744526 -0.0051672862 -0.0025458161)
(0.52215025 -0.017865643 -0.010109514)
(0.92208165 -0.034357855 -0.023441708)
(1.3094483 -0.052763974 -0.041022391)
(1.6117792 -0.069886341 -0.058824856)
(1.7829838 -0.081524522 -0.069915968)
(1.8334878 -0.086662495 -0.071781795)
(1.8148692 -0.087598166 -0.067479545)
(1.7769521 -0.086504625 -0.060315014)
(0.17442529 -0.0051884567 -0.0022227012)
(0.54327951 -0.017846825 -0.0090597594)
(0.95774643 -0.034125999 -0.021626432)
(1.3561189 -0.051960411 -0.038704327)
(1.6626823 -0.067326569 -0.05439683)
(1.8304995 -0.076642864 -0.063802665)
(1.8732911 -0.079454306 -0.064162489)
(1.846841 -0.078659923 -0.059107748)
(1.80374 -0.076509744 -0.05187463)
(0.1805786 -0.0048847088 -0.0018208194)
(0.56225658 -0.016711933 -0.007708485)
(0.99050432 -0.031765579 -0.019034554)
(1.4002643 -0.047940935 -0.034880884)
(1.711255 -0.060874503 -0.047753741)
(1.8763737 -0.067875692 -0.054897857)
(1.9123481 -0.068746859 -0.053749365)
(1.8789554 -0.066691254 -0.048096961)
(1.8315068 -0.063912977 -0.041053472)
(0.18579448 -0.0041600182 -0.0013776162)
(0.57866799 -0.014102236 -0.0061882105)
(1.0194462 -0.026574875 -0.015944577)
(1.4401923 -0.039677663 -0.029588077)
(1.7559797 -0.049952416 -0.041214628)
(1.9184467 -0.054270868 -0.04402764)
(1.948373 -0.053885209 -0.041405756)
(1.9093434 -0.051282841 -0.035294268)
(1.8590433 -0.048378417 -0.028527724)
(0.19004165 -0.0028950893 -0.00095243169)
(0.59187016 -0.0096968078 -0.0046964532)
(1.0425943 -0.018088828 -0.012844473)
(1.4722017 -0.026685689 -0.024181097)
(1.792425 -0.033073869 -0.032948697)
(1.9522412 -0.035476176 -0.033700387)
(1.9772522 -0.03465942 -0.029345309)
(1.9347717 -0.032404545 -0.022762092)
(1.8830492 -0.030178638 -0.017318999)
(0.19207379 -0.0010543338 -0.00069287508)
(0.59851262 -0.0035041251 -0.0037736851)
(1.054728 -0.0064904092 -0.010880062)
(1.4895745 -0.0095014653 -0.020764522)
(1.8128295 -0.011665834 -0.02772885)
(1.9721497 -0.012412268 -0.027246315)
(1.9943019 -0.01200518 -0.021556218)
(1.9501154 -0.011090357 -0.015247205)
(1.8971252 -0.010259994 -0.010835764)
(0.19207378 0.0010543525 -0.00069287851)
(0.59851259 0.003504162 -0.0037736891)
(1.054728 0.0064904689 -0.010880075)
(1.4895744 0.0095015012 -0.020764523)
(1.8128294 0.011665837 -0.027728845)
(1.9721495 0.012412264 -0.027246297)
(1.9943017 0.012005228 -0.021556222)
(1.9501152 0.011090455 -0.015247232)
(1.897125 0.010260217 -0.010835829)
(0.19004164 0.0028951088 -0.00095243258)
(0.59187011 0.0096968506 -0.0046964641)
(1.0425942 0.018088885 -0.01284447)
(1.4722013 0.026685688 -0.024181071)
(1.7924247 0.033073824 -0.03294868)
(1.9522408 0.035476125 -0.033700252)
(1.9772517 0.034659465 -0.029345315)
(1.9347713 0.032404609 -0.022762163)
(1.8830488 0.03017879 -0.017319155)
(0.18579447 0.0041600373 -0.0013776146)
(0.57866795 0.014102271 -0.0061882668)
(1.0194461 0.026574912 -0.015944566)
(1.4401919 0.039677625 -0.029588054)
(1.7559795 0.049952329 -0.04121466)
(1.9184464 0.054270803 -0.044027644)
(1.9483726 0.053885208 -0.041405774)
(1.909343 0.051282853 -0.035294348)
(1.8590426 0.048378446 -0.028527895)
(0.18057858 0.0048847329 -0.0018208231)
(0.56225654 0.016711954 -0.0077085857)
(0.99050428 0.031765596 -0.019034549)
(1.4002641 0.047940899 -0.034880886)
(1.7112549 0.060874418 -0.047753799)
(1.8763734 0.067875594 -0.054897883)
(1.9123478 0.068746801 -0.053749361)
(1.8789551 0.066691176 -0.048096976)
(1.8315061 0.06391288 -0.04105354)
(0.17442529 0.0051884698 -0.0022226921)
(0.54327951 0.017846813 -0.0090597988)
(0.95774648 0.034125991 -0.021626388)
(1.3561188 0.051960394 -0.038704304)
(1.6626822 0.067326504 -0.054396837)
(1.8304993 0.076642766 -0.063802657)
(1.8732909 0.079454202 -0.064162434)
(1.8468407 0.078659786 -0.059107675)
(1.8037395 0.076509545 -0.051874627)
(0.16744526 0.0051672871 -0.0025458042)
(0.52215024 0.017865643 -0.010109514)
(0.92208167 0.034357869 -0.023441726)
(1.3094482 0.052763992 -0.04102241)
(1.611779 0.069886347 -0.058824845)
(1.7829836 0.081524483 -0.069915935)
(1.8334876 0.086662396 -0.071781698)
(1.8148689 0.087598013 -0.06747941)
(1.7769518 0.086504344 -0.060314925)
(0.15963694 0.0048870847 -0.0027627166)
(0.4988291 0.017024958 -0.010764378)
(0.88333286 0.033014148 -0.024244636)
(1.2596406 0.051571463 -0.042488601)
(1.5585309 0.069726307 -0.06106007)
(1.7342708 0.083404416 -0.073411071)
(1.7936304 0.090936155 -0.07662395)
(1.7837642 0.093883895 -0.073142789)
(1.7517172 0.094170334 -0.066268639)
(0.15117623 0.0044909909 -0.0028937493)
(0.47362042 0.015739613 -0.011055108)
(0.84169429 0.030815727 -0.024358048)
(1.2063714 0.049012537 -0.042644973)
(1.502385 0.067708191 -0.061499279)
(1.6840034 0.082996305 -0.074749834)
(1.7537079 0.092765072 -0.079118557)
(1.7537256 0.097739618 -0.076440467)
(1.7282731 0.099666608 -0.069972104)
(0.14184061 0.0040186151 -0.0028927834)
(0.44589792 0.014182997 -0.010913047)
(0.79603992 0.028119758 -0.023811838)
(1.1483565 0.045482167 -0.041552989)
(1.4420736 0.064196499 -0.060357178)
(1.6313384 0.080628993 -0.074295864)
(1.7135655 0.092323728 -0.079739346)
(1.725039 0.099353195 -0.077862427)
(1.7069728 0.10302972 -0.071844528)
(0.13140492 0.0034496567 -0.0027728072)
(0.41507349 0.012321092 -0.010414218)
(0.74549585 0.024841752 -0.022582708)
(1.0845266 0.041010381 -0.03945858)
(1.3764926 0.059306439 -0.05793788)
(1.5754807 0.076458072 -0.072423968)
(1.6730472 0.089758715 -0.07890486)
(1.6982918 0.098728319 -0.077881166)
(1.6884987 0.10418175 -0.072402258)
(0.12030964 0.0029510237 -0.0026493763)
(0.38211475 0.010549227 -0.0098409312)
(0.69112845 0.021472814 -0.021092956)
(1.0154792 0.036027997 -0.036791356)
(1.3054815 0.053301689 -0.054512108)
(1.5158101 0.070548465 -0.069197931)
(1.6317224 0.084928334 -0.076578731)
(1.6739462 0.095590696 -0.076581042)
(1.6738194 0.10282772 -0.07197765)
(0.10832634 0.0021043143 -0.0021084347)
(0.34648422 0.0077639505 -0.0080494283)
(0.63210564 0.016372413 -0.017571654)
(0.93983652 0.028572728 -0.031305821)
(1.2266983 0.044124752 -0.047679982)
(1.4489426 0.060996977 -0.062414658)
(1.5857526 0.076189161 -0.071049805)
(1.6488894 0.088391257 -0.07279536)
(1.6627882 0.097378207 -0.070276919)
(0.09064101 -0.00083453194 -0.00077898751)
(0.29368462 -0.0031189857 -0.0029533178)
(0.54471949 -0.0067836072 -0.0064120534)
(0.82715889 -0.012408106 -0.011477813)
(1.1047897 -0.020450086 -0.017810905)
(1.3307583 -0.030417137 -0.024056621)
(1.4715577 -0.040490437 -0.028292166)
(1.5286726 -0.048703467 -0.029733889)
(1.5267004 -0.053922747 -0.029239161)
(0.098782788 -0.00098577335 -0.00082598348)
(0.31856713 -0.0036797208 -0.0031455672)
(0.58745061 -0.0079685788 -0.0069110155)
(0.88422544 -0.014450298 -0.012482782)
(1.1660437 -0.023410761 -0.019290397)
(1.3816346 -0.033854512 -0.025541757)
(1.5005245 -0.04356837 -0.029105532)
(1.5336543 -0.050757099 -0.029585807)
(1.5149679 -0.054974076 -0.028143987)
(0.10615059 -0.0010109726 -0.00075337053)
(0.34121314 -0.0038908623 -0.0029984675)
(0.62645767 -0.0085852275 -0.0068579274)
(0.93618966 -0.015715127 -0.012741425)
(1.2212645 -0.02534774 -0.019870514)
(1.426734 -0.035978221 -0.026057441)
(1.5259419 -0.045080957 -0.029020046)
(1.5392449 -0.051121005 -0.028663947)
(1.5092627 -0.054307629 -0.026596995)
(0.11292929 -0.0010805394 -0.00072016018)
(0.36203155 -0.004194817 -0.0029307763)
(0.66229317 -0.009308713 -0.0069279094)
(0.98389843 -0.017024807 -0.013086842)
(1.2720441 -0.027138231 -0.020414343)
(1.4688255 -0.03764353 -0.026369751)
(1.5514944 -0.045816309 -0.028623275)
(1.5486322 -0.050544325 -0.027471872)
(1.5096311 -0.052581107 -0.02482479)
(0.11873682 -0.0011561718 -0.00069303718)
(0.38008122 -0.0044850378 -0.0028403131)
(0.69375999 -0.0099762197 -0.0069575364)
(1.0263126 -0.01818041 -0.013297661)
(1.3178833 -0.028589513 -0.020702246)
(1.5079938 -0.038702847 -0.026322407)
(1.5773991 -0.045711189 -0.027822312)
(1.5615606 -0.049008672 -0.025890782)
(1.5149898 -0.049921169 -0.022768253)
(0.12377892 -0.0012523249 -0.00066689744)
(0.39584223 -0.0047788201 -0.0027220832)
(0.72149098 -0.010505946 -0.006743383)
(1.0640885 -0.019094702 -0.013304676)
(1.3593349 -0.029553459 -0.020585062)
(1.5445012 -0.038972895 -0.02571106)
(1.6033742 -0.044612549 -0.026406748)
(1.5771081 -0.046466873 -0.02374181)
(1.5241258 -0.04634559 -0.020238403)
(0.12823431 -0.0013705027 -0.00064508755)
(0.40975357 -0.0050927194 -0.0026322226)
(0.74598541 -0.010931035 -0.006423661)
(1.0979392 -0.019652412 -0.013150428)
(1.3970907 -0.029758292 -0.020018103)
(1.5786904 -0.03816296 -0.024373089)
(1.6291436 -0.042318474 -0.024189035)
(1.5943705 -0.042822665 -0.02085917)
(1.5359323 -0.041866659 -0.017135186)
(0.13195637 -0.0014684938 -0.0005934375)
(0.42151127 -0.0052915067 -0.0024458868)
(0.76699465 -0.011047459 -0.0060428305)
(1.1276906 -0.01925824 -0.01197611)
(1.4312661 -0.028722929 -0.018869189)
(1.6106769 -0.035825791 -0.022182082)
(1.6544132 -0.038521244 -0.021054302)
(1.6125577 -0.037925578 -0.017214687)
(1.5493302 -0.036436193 -0.01353902)
(0.1349257 -0.001436745 -0.00049208193)
(0.43101817 -0.0050621379 -0.002089154)
(0.78424518 -0.010369074 -0.0053703423)
(1.1525461 -0.017666673 -0.010409558)
(1.4613974 -0.02602351 -0.017173298)
(1.6399979 -0.031498802 -0.019353813)
(1.6784577 -0.032900736 -0.017223337)
(1.6305929 -0.031636194 -0.013122204)
(1.5629472 -0.030008527 -0.0099020673)
(0.13716877 -0.001183153 -0.00035051073)
(0.43829694 -0.0041702732 -0.0015982443)
(0.79762933 -0.0085379607 -0.0044777657)
(1.1721386 -0.014447876 -0.0090145523)
(1.4858224 -0.020683219 -0.013562157)
(1.6650492 -0.02489745 -0.016394143)
(1.6996194 -0.025345648 -0.013423063)
(1.6466683 -0.023970358 -0.0094425137)
(1.5745714 -0.022652189 -0.0072510879)
(0.13896635 -0.00075881395 -0.000238876)
(0.44388711 -0.0027014566 -0.0012224944)
(0.8075638 -0.0055707309 -0.0037911034)
(1.1862607 -0.009465455 -0.0080027303)
(1.5028205 -0.01355692 -0.012139727)
(1.6832325 -0.016025967 -0.013867434)
(1.7152767 -0.016052089 -0.010824187)
(1.6580312 -0.015100099 -0.0074433743)
(1.5819798 -0.014268331 -0.0055383079)
(0.13967294 -0.00026207286 -0.00018341903)
(0.44628941 -0.00093663714 -0.0010354235)
(0.81214367 -0.0019356616 -0.0034446744)
(1.193125 -0.0032930162 -0.0074531122)
(1.5112714 -0.0047226056 -0.01138605)
(1.6919144 -0.0055383725 -0.012499089)
(1.7230006 -0.0055049165 -0.0097835916)
(1.6633746 -0.0051846189 -0.0064041074)
(1.5856309 -0.004885145 -0.0045618828)
(0.13967294 0.00026210176 -0.00018342236)
(0.4462894 0.000936713 -0.0010354267)
(0.81214365 0.0019358103 -0.0034446898)
(1.193125 0.0032932308 -0.0074531188)
(1.5112714 0.0047228866 -0.011386042)
(1.6919144 0.0055386667 -0.012499074)
(1.7230005 0.0055051757 -0.0097835687)
(1.6633745 0.0051848458 -0.0064041001)
(1.5856308 0.0048853599 -0.0045618871)
(0.13896635 0.00075884138 -0.00023888055)
(0.4438871 0.0027015329 -0.0012225071)
(0.80756378 0.0055708711 -0.0037911179)
(1.1862606 0.0094656326 -0.0080027295)
(1.5028204 0.013557158 -0.012139722)
(1.6832323 0.016026257 -0.013867506)
(1.7152765 0.016052355 -0.010824139)
(1.658031 0.015100334 -0.0074433429)
(1.5819796 0.01426852 -0.0055382885)
(0.13716876 0.0011831766 -0.00035051318)
(0.43829692 0.0041703378 -0.0015982934)
(0.79762931 0.008538088 -0.0044777644)
(1.1721385 0.014448035 -0.009014542)
(1.4858223 0.020683429 -0.013562167)
(1.6650491 0.024897706 -0.016394122)
(1.6996191 0.025345941 -0.013422992)
(1.646668 0.023970573 -0.0094424281)
(1.5745711 0.022652314 -0.0072509777)
(0.13492568 0.0014367778 -0.00049208887)
(0.43101813 0.005062204 -0.0020892552)
(0.78424513 0.01036921 -0.0053703644)
(1.152546 0.017666865 -0.010409588)
(1.4613974 0.02602373 -0.017173341)
(1.6399978 0.031499069 -0.019353798)
(1.6784575 0.03290103 -0.017223244)
(1.6305926 0.031636392 -0.013122055)
(1.5629468 0.030008567 -0.0099018979)
(0.13195635 0.0014685252 -0.0005934381)
(0.42151124 0.00529156 -0.0024459567)
(0.76699462 0.011047589 -0.0060428429)
(1.1276905 0.019258456 -0.011976159)
(1.4312661 0.028723187 -0.018869227)
(1.6106767 0.035826087 -0.022182063)
(1.6544129 0.038521535 -0.021054187)
(1.6125574 0.037925772 -0.017214484)
(1.5493299 0.036436186 -0.013538797)
(0.1282343 0.0013705229 -0.00064508709)
(0.40975354 0.0050927785 -0.0026322529)
(0.74598538 0.010931169 -0.0064237213)
(1.0979391 0.019652637 -0.013150514)
(1.3970906 0.029758614 -0.020018157)
(1.5786901 0.038163323 -0.024373081)
(1.6291434 0.042318803 -0.024188926)
(1.5943703 0.042822881 -0.020858946)
(1.535932 0.041866614 -0.0171349)
(0.12377891 0.001252347 -0.00066691496)
(0.39584219 0.0047789055 -0.0027221444)
(0.72149087 0.010506104 -0.0067434699)
(1.0640882 0.019094959 -0.013304769)
(1.3593347 0.029553841 -0.020585127)
(1.5445011 0.038973326 -0.025711051)
(1.6033741 0.04461294 -0.026406664)
(1.577108 0.046467111 -0.02374157)
(1.5241256 0.046345504 -0.020237993)
(0.1187368 0.0011562061 -0.00069305683)
(0.38008115 0.0044851385 -0.0028403812)
(0.69375985 0.0099763943 -0.0069576159)
(1.0263125 0.018180689 -0.013297774)
(1.3178832 0.0285899 -0.020702309)
(1.5079937 0.038703329 -0.026322443)
(1.5773991 0.045711596 -0.027822284)
(1.5615605 0.049008915 -0.025890522)
(1.5149896 0.049921142 -0.02276776)
(0.11292928 0.0010805714 -0.00072017493)
(0.36203151 0.0041949093 -0.002930832)
(0.66229311 0.0093088916 -0.0069279866)
(0.98389834 0.017025105 -0.013086944)
(1.272044 0.027138623 -0.020414471)
(1.4688254 0.037644014 -0.026369879)
(1.5514943 0.045816724 -0.028623296)
(1.548632 0.05054458 -0.027471717)
(1.509631 0.052581188 -0.024824436)
(0.10615059 0.0010110025 -0.00075338828)
(0.34121314 0.0038909549 -0.0029985358)
(0.62645766 0.0085854069 -0.0068580475)
(0.93618962 0.015715419 -0.012741595)
(1.2212643 0.025348157 -0.019870711)
(1.426734 0.035978664 -0.026057612)
(1.5259418 0.045081366 -0.029020217)
(1.5392446 0.051121251 -0.028663994)
(1.5092625 0.054307593 -0.026596675)
(0.098782792 0.00098579967 -0.00082599929)
(0.31856713 0.0036798049 -0.0031456297)
(0.58745059 0.0079687449 -0.006911121)
(0.88422539 0.014450553 -0.012482915)
(1.1660435 0.023411106 -0.019290548)
(1.3816345 0.03385486 -0.025542006)
(1.5005244 0.043568593 -0.029105823)
(1.533654 0.050757007 -0.029585706)
(1.5149677 0.054973656 -0.028143735)
(0.09064102 0.00083456342 -0.0007790101)
(0.29368464 0.0031190739 -0.0029533942)
(0.54471949 0.0067837809 -0.0064121607)
(0.82715886 0.012408339 -0.011477967)
(1.1047896 0.020450326 -0.01781115)
(1.3307583 0.03041736 -0.024056897)
(1.4715576 0.040490602 -0.028292251)
(1.5286727 0.048703399 -0.029733885)
(1.5267005 0.053922438 -0.029239217)
(0.099882129 -0.00050775871 -0.00046227378)
(0.32178699 -0.001801981 -0.0016151274)
(0.59269903 -0.0037673747 -0.0032572743)
(0.89258775 -0.0065854751 -0.0055636904)
(1.1828325 -0.010292398 -0.0086621444)
(1.41754 -0.014592076 -0.012321114)
(1.5655823 -0.0187417 -0.015695923)
(1.6292 -0.02200863 -0.017779451)
(1.6322574 -0.023965507 -0.018472723)
(0.10855727 -0.00070363716 -0.0005667381)
(0.3477842 -0.0024303492 -0.0019330495)
(0.63622471 -0.004940334 -0.0038160948)
(0.94887464 -0.0083770865 -0.0064195715)
(1.2411327 -0.012678809 -0.0098720291)
(1.4639952 -0.017340902 -0.013828855)
(1.5897919 -0.021398654 -0.017227056)
(1.6296584 -0.024128596 -0.019053676)
(1.6166149 -0.025413855 -0.019172413)
(0.11621246 -0.00081429537 -0.00056955025)
(0.37076049 -0.0028158476 -0.0019516213)
(0.6746278 -0.0057044751 -0.0038655781)
(0.99813749 -0.0095972141 -0.0065608221)
(1.2912515 -0.014330425 -0.010197133)
(1.5025195 -0.019179044 -0.014343985)
(1.6082328 -0.022989167 -0.017782796)
(1.6284215 -0.02512823 -0.019505465)
(1.6044103 -0.025840413 -0.019482235)
(0.12308424 -0.00091373046 -0.0005557057)
(0.39129007 -0.0031471725 -0.0019050843)
(0.70878226 -0.0063353078 -0.0037857802)
(1.0417423 -0.010574821 -0.0064945397)
(1.3354804 -0.01560525 -0.010222433)
(1.536706 -0.020482702 -0.01446301)
(1.6255919 -0.023900682 -0.017892774)
(1.629937 -0.025384479 -0.019566038)
(1.5972861 -0.025531189 -0.01951186)
(0.1287891 -0.00097146159 -0.00051188623)
(0.40847427 -0.0033492776 -0.001763627)
(0.73759554 -0.0067335059 -0.0035398485)
(1.0788415 -0.011210448 -0.0061926741)
(1.3735569 -0.016425282 -0.0099510478)
(1.5668965 -0.021214951 -0.014237679)
(1.6424148 -0.024151065 -0.01764488)
(1.6342276 -0.024968158 -0.019310432)
(1.5946252 -0.02457699 -0.019295945)
(0.13358379 -0.00099402133 -0.00044229516)
(0.42293436 -0.003432904 -0.0015365633)
(0.76189112 -0.0069015391 -0.0031388978)
(1.1102636 -0.011488497 -0.0056663391)
(1.4061405 -0.016753132 -0.0093848204)
(1.5934178 -0.021329048 -0.013669453)
(1.658505 -0.023713864 -0.017053668)
(1.6405836 -0.023875587 -0.018738917)
(1.5953824 -0.023020439 -0.01881751)
(0.1376691 -0.00097374437 -0.00036004591)
(0.43518578 -0.0033735414 -0.0012624635)
(0.78240118 -0.0067979588 -0.0026364738)
(1.1368058 -0.011340049 -0.0049634019)
(1.4338969 -0.016483744 -0.0085536321)
(1.6165681 -0.020714708 -0.012774703)
(1.6735753 -0.022512134 -0.016134368)
(1.6481433 -0.022085662 -0.017878877)
(1.5984655 -0.020869051 -0.018101876)
(0.1409125 -0.00088225138 -0.00026301758)
(0.44498473 -0.003092128 -0.00093960595)
(0.79895632 -0.006286744 -0.0020364319)
(1.1585197 -0.010566132 -0.0040818411)
(1.4570785 -0.015421993 -0.0075134249)
(1.6365434 -0.019218643 -0.011608012)
(1.6874266 -0.020402515 -0.014905427)
(1.6561892 -0.01953674 -0.016775948)
(1.6029097 -0.018113467 -0.017228558)
(0.14336805 -0.00073226405 -0.00017149461)
(0.45248246 -0.0026128603 -0.00063857456)
(0.81180274 -0.0054048922 -0.0014874571)
(1.1757371 -0.009316896 -0.0033045594)
(1.4761374 -0.013696958 -0.0065437433)
(1.6536398 -0.016913536 -0.010412544)
(1.6998145 -0.017663855 -0.013609142)
(1.6640036 -0.016233486 -0.015528358)
(1.6077728 -0.014771321 -0.016337508)
(0.14512931 -0.00053650155 -9.3081995e-05)
(0.45793666 -0.0019506231 -0.00037599821)
(0.82129876 -0.0041009031 -0.00099851874)
(1.1887783 -0.0071697107 -0.0025300496)
(1.490935 -0.01058524 -0.005373159)
(1.6673974 -0.013049763 -0.0090813772)
(1.7102851 -0.013475358 -0.012197549)
(1.670777 -0.012411785 -0.014481099)
(1.6121253 -0.010950577 -0.015616193)
(0.14653874 -0.00032718506 -4.0398269e-05)
(0.46208229 -0.00120848 -0.00019745154)
(0.82822437 -0.0025837906 -0.00067362006)
(1.1979738 -0.0045213315 -0.001997721)
(1.5011857 -0.0067067075 -0.0046356374)
(1.677011 -0.0082432335 -0.0081885215)
(1.7177266 -0.0084464936 -0.011326184)
(1.6757157 -0.0077241734 -0.013856101)
(1.615221 -0.0067384749 -0.015147199)
(0.14700555 -0.00010998364 -1.5745227e-05)
(0.46363642 -0.00040904323 -0.00011146514)
(0.83110115 -0.00087979251 -0.0005083222)
(1.202122 -0.001545803 -0.0017367662)
(1.5060864 -0.0022972063 -0.0042809801)
(1.6817403 -0.0028174129 -0.0077562886)
(1.7214771 -0.0028785117 -0.011002648)
(1.6782282 -0.0026252306 -0.013568939)
(1.6168074 -0.0022769619 -0.014911847)
(0.14700555 0.0001100134 -1.5747674e-05)
(0.46363642 0.0004091201 -0.00011146856)
(0.83110114 0.00087994164 -0.00050833497)
(1.2021219 0.0015460233 -0.0017367707)
(1.5060864 0.0022974917 -0.0042809743)
(1.6817403 0.0028177366 -0.007756274)
(1.7214771 0.0028788208 -0.011002625)
(1.6782282 0.0026254478 -0.013568913)
(1.6168074 0.0022770512 -0.014911826)
(0.14653874 0.00032721726 -4.0401848e-05)