/*--------------------------------*- C++ -*----------------------------------*\
| =========                 |                                                 |
| \\      /  F ield         | OpenFOAM: The Open Source CFD Toolbox           |
|  \\    /   O peration     | Version:  2406                                  |
|   \\  /    A nd           | Website:  www.openfoam.com                      |
|    \\/     M anipulation  |                                                 |
\*---------------------------------------------------------------------------*/
FoamFile
{
    version     2.0;
    format      ascii;
    arch        "LSB;label=32;scalar=64";
    class       volScalarField;
    location    "12";
    object      p;
}
// * * * * * * * * * * * * * * * * * * * * * * * * * * * * * * * * * * * * * //

dimensions      [0 2 -2 0 0 0 0];

internalField   nonuniform List<scalar> 
1176
(
0.79699997
0.79702284
0.7970465
0.79705417
0.79702264
0.79692794
0.79677071
0.79658455
0.79640535
0.79623819
0.79608357
0.79598797
0.79598797
0.79608358
0.7962382
0.79640535
0.79658454
0.7967707
0.79692791
0.79702258
0.79705409
0.7970464
0.79702273
0.79699985
0.77385153
0.77380458
0.77375682
0.77373992
0.77380242
0.77400478
0.7743701
0.7748345
0.77526536
0.77555146
0.77567086
0.77570512
0.77570512
0.77567087
0.77555147
0.77526538
0.77483452
0.77437013
0.77400482
0.77380247
0.77373998
0.77375689
0.77380465
0.77385161
0.75676677
0.75678878
0.75680858
0.75680667
0.75674761
0.75658643
0.75631467
0.75598672
0.7556805
0.75546771
0.75535691
0.75530809
0.75530809
0.75535691
0.75546771
0.7556805
0.75598671
0.75631466
0.75658642
0.75674759
0.75680666
0.75680857
0.75678877
0.75676676
0.74009487
0.740104
0.74011606
0.74013246
0.740155
0.74017257
0.74014034
0.74000693
0.73977482
0.73950225
0.73927805
0.73915755
0.73915755
0.73927805
0.73950226
0.73977482
0.74000694
0.74014035
0.74017258
0.74015501
0.74013247
0.74011606
0.74010401
0.74009488
0.72367582
0.72367977
0.72368477
0.72369083
0.72370053
0.7237208
0.72375699
0.7237985
0.72382017
0.72379629
0.72373418
0.72368154
0.72368155
0.72373418
0.7237963
0.72382017
0.7237985
0.72375699
0.72372081
0.72370053
0.72369083
0.72368477
0.72367978
0.72367583
0.70721416
0.70721657
0.70721982
0.70722386
0.70722877
0.7072356
0.70724977
0.70728108
0.70733107
0.70738832
0.70743103
0.70744768
0.70744768
0.70743103
0.70738832
0.70733107
0.70728108
0.70724977
0.7072356
0.70722877
0.70722386
0.70721982
0.70721658
0.70721416
0.69080834
0.69081048
0.69081329
0.69081672
0.69082062
0.69082413
0.6908262
0.69082837
0.69083692
0.69085415
0.69087205
0.69088376
0.69088376
0.69087205
0.69085415
0.69083692
0.69082837
0.69082619
0.69082413
0.69082062
0.69081672
0.69081329
0.69081048
0.69080835
0.67442847
0.67443023
0.67443256
0.67443548
0.67443915
0.67444352
0.67444797
0.67445113
0.67445236
0.67445398
0.67445102
0.67444851
0.67444851
0.67445102
0.67445398
0.67445236
0.67445112
0.67444797
0.67444352
0.67443915
0.67443548
0.67443256
0.67443023
0.67442848
0.65807418
0.65807563
0.65807756
0.65807997
0.65808299
0.65808678
0.65809182
0.65809887
0.65810755
0.65811758
0.65812535
0.65812893
0.65812893
0.65812534
0.65811758
0.65810755
0.65809886
0.65809182
0.65808678
0.658083
0.65807998
0.65807757
0.65807564
0.65807419
0.64173648
0.64173768
0.64173929
0.64174133
0.64174389
0.64174707
0.64175123
0.64175762
0.64176778
0.64178091
0.64179524
0.64180454
0.64180454
0.64179524
0.64178091
0.64176777
0.64175762
0.64175123
0.64174707
0.6417439
0.64174133
0.6417393
0.64173769
0.64173649
0.62541209
0.62541312
0.62541449
0.62541624
0.62541845
0.62542118
0.62542457
0.62542942
0.62543728
0.62544794
0.6254605
0.62546964
0.62546964
0.6254605
0.62544794
0.62543728
0.62542941
0.62542457
0.62542118
0.62541846
0.62541625
0.62541451
0.62541313
0.62541211
0.60909861
0.6090995
0.6091007
0.60910223
0.60910417
0.60910657
0.60910953
0.60911354
0.60911975
0.60912841
0.60913898
0.60914643
0.60914643
0.60913897
0.60912841
0.60911975
0.60911353
0.60910953
0.60910657
0.60910418
0.60910224
0.60910072
0.60909952
0.60909863
0.59279441
0.59279519
0.59279625
0.5927976
0.59279932
0.59280145
0.59280408
0.59280762
0.59281303
0.59282077
0.59283046
0.59283714
0.59283714
0.59283046
0.59282076
0.59281302
0.59280762
0.59280408
0.59280146
0.59279933
0.59279762
0.59279627
0.59279522
0.59279443
0.57649818
0.57649888
0.57649982
0.57650102
0.57650256
0.57650447
0.57650681
0.57650995
0.57651472
0.57652169
0.57653036
0.57653645
0.57653644
0.57653035
0.57652168
0.57651471
0.57650994
0.57650681
0.57650448
0.57650258
0.57650105
0.57649985
0.57649891
0.57649821
0.5602089
0.56020953
0.56021038
0.56021146
0.56021284
0.56021456
0.56021666
0.56021942
0.56022358
0.56022971
0.56023724
0.56024264
0.56024264
0.56023723
0.5602297
0.56022357
0.56021941
0.56021666
0.56021457
0.56021286
0.56021148
0.56021041
0.56020956
0.56020893
0.54392577
0.54392634
0.54392711
0.54392809
0.54392934
0.54393089
0.54393279
0.54393524
0.54393888
0.54394426
0.54395079
0.54395558
0.54395558
0.54395079
0.54394425
0.54393887
0.54393524
0.54393279
0.54393091
0.54392936
0.54392812
0.54392714
0.54392638
0.54392581
0.52764814
0.52764866
0.52764935
0.52765024
0.52765139
0.5276528
0.52765453
0.52765673
0.52765995
0.52766471
0.52767044
0.52767473
0.52767472
0.52767043
0.5276647
0.52765993
0.52765672
0.52765453
0.52765282
0.52765142
0.52765028
0.52764939
0.5276487
0.52764818
0.51137545
0.51137593
0.51137656
0.51137738
0.51137843
0.51137972
0.51138129
0.51138328
0.51138616
0.51139041
0.51139546
0.51139932
0.51139932
0.51139545
0.51139039
0.51138614
0.51138327
0.5113813
0.51137974
0.51137846
0.51137742
0.51137661
0.51137597
0.5113755
0.49510725
0.49510769
0.49510827
0.49510902
0.49510998
0.49511117
0.49511261
0.49511442
0.495117
0.4951208
0.4951253
0.49512879
0.49512879
0.49512529
0.49512079
0.49511698
0.49511441
0.49511262
0.4951112
0.49511002
0.49510906
0.49510832
0.49510774
0.4951073
0.47884314
0.47884353
0.47884407
0.47884476
0.47884565
0.47884675
0.47884808
0.47884972
0.47885205
0.47885547
0.47885951
0.47886266
0.47886266
0.47885949
0.47885545
0.47885203
0.47884971
0.47884808
0.47884677
0.47884569
0.47884481
0.47884412
0.47884359
0.47884319
0.46258276
0.46258313
0.46258363
0.46258426
0.46258509
0.4625861
0.46258733
0.46258884
0.46259094
0.46259404
0.46259768
0.46260055
0.46260055
0.46259767
0.46259402
0.46259092
0.46258882
0.46258733
0.46258613
0.46258513
0.46258431
0.46258368
0.46258318
0.46258281
0.44632582
0.44632616
0.44632662
0.44632721
0.44632798
0.44632892
0.44633005
0.44633144
0.44633336
0.44633617
0.44633949
0.4463421
0.4463421
0.44633948
0.44633615
0.44633333
0.44633143
0.44633006
0.44632895
0.44632802
0.44632727
0.44632668
0.44632622
0.44632588
0.43007205
0.43007237
0.43007279
0.43007335
0.43007405
0.43007493
0.43007598
0.43007726
0.43007901
0.43008159
0.43008462
0.43008701
0.430087
0.43008461
0.43008157
0.43007899
0.43007725
0.43007599
0.43007496
0.4300741
0.4300734
0.43007285
0.43007242
0.43007211
0.41382121
0.4138215
0.4138219
0.41382242
0.41382308
0.4138239
0.41382487
0.41382606
0.41382767
0.41383002
0.41383281
0.413835
0.41383499
0.4138328
0.41383
0.41382764
0.41382605
0.41382488
0.41382392
0.41382312
0.41382247
0.41382196
0.41382156
0.41382127
0.39757309
0.39757336
0.39757374
0.39757421
0.39757483
0.39757559
0.39757651
0.39757761
0.39757909
0.39758125
0.39758382
0.39758583
0.39758583
0.39758381
0.39758123
0.39757906
0.39757759
0.39757651
0.39757562
0.39757487
0.39757426
0.39757379
0.39757342
0.39757314
0.38132749
0.38132775
0.3813281
0.38132854
0.38132912
0.38132983
0.38133068
0.38133171
0.38133307
0.38133507
0.38133745
0.3813393
0.3813393
0.38133744
0.38133505
0.38133305
0.3813317
0.38133069
0.38132986
0.38132916
0.38132859
0.38132815
0.3813278
0.38132754
0.36508424
0.36508448
0.36508481
0.36508523
0.36508577
0.36508644
0.36508723
0.36508819
0.36508945
0.3650913
0.36509351
0.36509522
0.36509521
0.3650935
0.36509128
0.36508943
0.36508817
0.36508724
0.36508646
0.3650858
0.36508527
0.36508486
0.36508453
0.36508429
0.34884319
0.34884341
0.34884372
0.34884411
0.34884462
0.34884524
0.34884599
0.34884688
0.34884806
0.34884976
0.34885182
0.3488534
0.3488534
0.34885181
0.34884975
0.34884804
0.34884687
0.34884599
0.34884526
0.34884465
0.34884415
0.34884376
0.34884346
0.34884323
0.33260418
0.33260439
0.33260468
0.33260505
0.33260552
0.33260611
0.33260681
0.33260764
0.33260873
0.33261032
0.33261224
0.3326137
0.3326137
0.33261223
0.33261031
0.33260872
0.33260763
0.33260681
0.33260613
0.33260555
0.33260508
0.33260471
0.33260443
0.33260422
0.31636709
0.31636729
0.31636755
0.3163679
0.31636835
0.3163689
0.31636955
0.31637033
0.31637135
0.31637283
0.31637461
0.31637598
0.31637598
0.31637461
0.31637282
0.31637134
0.31637033
0.31636956
0.31636891
0.31636837
0.31636793
0.31636758
0.31636732
0.31636712
0.30013179
0.30013197
0.30013223
0.30013255
0.30013297
0.30013349
0.3001341
0.30013484
0.30013579
0.30013716
0.30013883
0.3001401
0.3001401
0.30013883
0.30013715
0.30013578
0.30013483
0.30013411
0.3001335
0.30013299
0.30013257
0.30013225
0.300132
0.30013181
0.28389817
0.28389834
0.28389858
0.28389889
0.28389928
0.28389977
0.28390035
0.28390103
0.28390192
0.2839032
0.28390477
0.28390595
0.28390595
0.28390477
0.2839032
0.28390192
0.28390103
0.28390035
0.28389978
0.28389929
0.2838989
0.2838986
0.28389836
0.28389818
0.26766612
0.26766629
0.26766651
0.2676668
0.26766717
0.26766763
0.26766818
0.26766882
0.26766965
0.26767085
0.26767232
0.26767343
0.26767343
0.26767232
0.26767085
0.26766965
0.26766882
0.26766818
0.26766763
0.26766718
0.26766681
0.26766652
0.2676663
0.26766613
0.25143556
0.25143572
0.25143593
0.2514362
0.25143655
0.25143698
0.2514375
0.2514381
0.25143888
0.25144
0.25144138
0.25144241
0.25144241
0.25144138
0.25144
0.25143888
0.2514381
0.2514375
0.25143698
0.25143655
0.2514362
0.25143593
0.25143572
0.25143556
0.2352064
0.23520654
0.23520674
0.235207
0.23520732
0.23520773
0.23520822
0.23520879
0.23520952
0.23521057
0.23521186
0.23521283
0.23521283
0.23521187
0.23521057
0.23520952
0.23520879
0.23520822
0.23520773
0.23520732
0.23520698
0.23520673
0.23520653
0.23520638
0.21897854
0.21897868
0.21897886
0.2189791
0.21897941
0.2189798
0.21898025
0.21898079
0.21898148
0.21898246
0.21898367
0.21898458
0.21898458
0.21898368
0.21898247
0.21898149
0.2189808
0.21898025
0.21897979
0.2189794
0.21897908
0.21897884
0.21897865
0.21897851
0.20275191
0.20275204
0.20275222
0.20275245
0.20275274
0.2027531
0.20275353
0.20275404
0.20275468
0.2027556
0.20275675
0.2027576
0.20275761
0.20275676
0.20275561
0.20275469
0.20275404
0.20275353
0.20275309
0.20275272
0.20275242
0.20275219
0.20275201
0.20275188
0.18652645
0.18652657
0.18652674
0.18652695
0.18652723
0.18652757
0.18652798
0.18652845
0.18652906
0.18652992
0.18653099
0.18653179
0.18653179
0.186531
0.18652994
0.18652908
0.18652846
0.18652797
0.18652755
0.1865272
0.18652692
0.1865267
0.18652653
0.18652641
0.17030208
0.17030219
0.17030235
0.17030255
0.17030281
0.17030314
0.17030352
0.17030397
0.17030454
0.17030535
0.17030637
0.17030712
0.17030712
0.17030638
0.17030537
0.17030456
0.17030398
0.17030352
0.17030312
0.17030278
0.17030251
0.1703023
0.17030214
0.17030203
0.15407875
0.15407886
0.154079
0.1540792
0.15407944
0.15407975
0.15408011
0.15408053
0.15408107
0.15408182
0.15408277
0.15408347
0.15408347
0.15408278
0.15408184
0.15408109
0.15408054
0.1540801
0.15407972
0.1540794
0.15407914
0.15407895
0.1540788
0.15407868
0.13785638
0.13785648
0.13785662
0.1378568
0.13785704
0.13785733
0.13785767
0.13785807
0.13785857
0.13785928
0.13786018
0.13786084
0.13786084
0.13786019
0.13785931
0.13785859
0.13785808
0.13785766
0.1378573
0.13785699
0.13785674
0.13785656
0.13785641
0.13785631
0.12163495
0.12163505
0.12163518
0.12163535
0.12163557
0.12163584
0.12163617
0.12163654
0.12163701
0.12163767
0.12163848
0.12163908
0.12163909
0.1216385
0.12163769
0.12163704
0.12163656
0.12163616
0.12163581
0.12163552
0.12163528
0.12163511
0.12163497
0.12163487
0.10541436
0.10541446
0.10541458
0.10541474
0.10541495
0.10541521
0.10541552
0.10541587
0.10541631
0.10541692
0.10541769
0.10541824
0.10541825
0.1054177
0.10541695
0.10541634
0.10541588
0.10541551
0.10541518
0.10541489
0.10541467
0.1054145
0.10541437
0.10541428
0.089194648
0.089194736
0.089194855
0.089195008
0.089195206
0.089195449
0.089195736
0.089196066
0.089196468
0.089197008
0.08919766
0.089198128
0.089198133
0.089197676
0.089197035
0.089196498
0.089196083
0.089195727
0.089195411
0.089195143
0.08919493
0.089194772
0.089194648
0.089194558
0.072975641
0.072975724
0.072975836
0.072975981
0.072976169
0.072976403
0.072976679
0.072976993
0.072977369
0.072977863
0.072978445
0.072978843
0.072978848
0.072978462
0.072977891
0.072977399
0.07297701
0.072976669
0.072976363
0.072976104
0.0729759
0.07297575
0.072975634
0.072975549
0.056757519
0.0567576
0.056757708
0.056757846
0.056758022
0.056758238
0.056758491
0.056758775
0.056759095
0.056759468
0.056759843
0.056760057
0.056760062
0.05675986
0.056759496
0.056759125
0.056758792
0.056758481
0.056758198
0.056757958
0.056757767
0.056757624
0.056757511
0.056757429
0.040539731
0.040539802
0.0405399
0.04054003
0.040540206
0.04054043
0.040540695
0.040540987
0.040541312
0.040541716
0.040542182
0.040542489
0.040542493
0.040542197
0.040541742
0.04054134
0.040541003
0.040540686
0.040540392
0.040540144
0.040539955
0.04053982
0.04053972
0.040539648
0.024323461
0.024323544
0.024323652
0.02432378
0.024323927
0.024324088
0.024324261
0.024324444
0.024324609
0.024324684
0.024324595
0.024324362
0.024324366
0.024324607
0.024324707
0.024324633
0.024324456
0.024324251
0.024324053
0.024323873
0.024323716
0.024323586
0.024323476
0.024323394
0.0081053671
0.0081054374
0.0081055303
0.0081056517
0.0081058127
0.0081060125
0.0081062333
0.0081064724
0.0081068493
0.0081076832
0.0081091591
0.0081105257
0.0081105276
0.0081091658
0.0081076956
0.0081068631
0.0081064784
0.0081062248
0.0081059891
0.008105779
0.0081056135
0.0081054921
0.0081053994
0.0081053299
)
;

boundaryField
{
    INLET
    {
        type            zeroGradient;
    }
    OUTLET
    {
        type            fixedValue;
        value           uniform 0;
    }
    WALL
    {
        type            zeroGradient;
    }
    frontAndBackPlanes
    {
        type            empty;
    }
}


// ************************************************************************* //
