/*--------------------------------*- C++ -*----------------------------------*\
| =========                 |                                                 |
| \\      /  F ield         | OpenFOAM: The Open Source CFD Toolbox           |
|  \\    /   O peration     | Version:  2406                                  |
|   \\  /    A nd           | Website:  www.openfoam.com                      |
|    \\/     M anipulation  |                                                 |
\*---------------------------------------------------------------------------*/
FoamFile
{
    version     2.0;
    format      ascii;
    arch        "LSB;label=32;scalar=64";
    class       surfaceScalarField;
    location    "12";
    object      phi;
}
// * * * * * * * * * * * * * * * * * * * * * * * * * * * * * * * * * * * * * //

dimensions      [0 3 -1 0 0 0 0];

oriented        oriented;

internalField   nonuniform List<scalar> 
2279
(
2.3617323e-08
1.0148927e-05
2.0509698e-07
4.982375e-05
6.9331583e-07
0.00014252872
1.5784677e-06
0.00034353082
2.6788406e-06
0.0007537809
3.3472809e-06
0.0015415573
3.0435086e-06
0.0029497096
2.1516749e-06
0.005249171
1.4317977e-06
0.008582269
9.8958659e-07
0.012685995
5.1266137e-07
0.016666385
-7.6232635e-12
0.01918202
-5.1267434e-07
0.01918202
-9.8959083e-07
0.016666385
-1.431777e-06
0.012685995
-2.1516003e-06
0.008582269
-3.0433369e-06
0.0052491709
-3.3469811e-06
0.0029497095
-2.678432e-06
0.0015415572
-1.5780277e-06
0.00075378085
-6.9293451e-07
0.0003435308
-2.0485009e-07
0.00014252871
-2.3506719e-08
4.9823748e-05
1.0148926e-05
-9.5248587e-08
1.0244175e-05
-5.3794055e-07
5.0266442e-05
-1.6230024e-06
0.00014361378
-3.538955e-06
0.00034544678
-5.920191e-06
0.00075616214
-7.4055087e-06
0.0015430427
-6.5847354e-06
0.0029488889
-3.9361681e-06
0.0052465224
-1.3883967e-06
0.0085797213
-6.5126333e-08
0.012684671
2.4239686e-07
0.016666078
-1.619549e-11
0.019182263
-2.4243238e-07
0.019182263
6.5086108e-08
0.016666078
1.3883472e-06
0.012684671
3.9361024e-06
0.0085797213
6.5846336e-06
0.0052465225
7.4053539e-06
0.0029488889
5.9199974e-06
0.0015430427
3.5387662e-06
0.00075616216
1.6228571e-06
0.00034544679
5.3785598e-07
0.00014361379
9.5215858e-08
5.0266444e-05
1.0244176e-05
5.0139795e-08
1.0194035e-05
2.633448e-07
5.0053238e-05
7.4910669e-07
0.00014312802
1.5314575e-06
0.00034466443
2.3366545e-06
0.00075535694
2.5476607e-06
0.0015428317
1.839094e-06
0.0029495974
9.7567035e-07
0.0052473859
6.7695217e-07
0.00858002
6.7177923e-07
0.012684677
4.8415517e-07
0.016666266
-8.917194e-12
0.019182747
-4.8416979e-07
0.019182747
-6.7178525e-07
0.016666266
-6.7694767e-07
0.012684677
-9.7565273e-07
0.00858002
-1.8390725e-06
0.0052473859
-2.5476416e-06
0.0029495974
-2.336641e-06
0.0015428316
-1.5314553e-06
0.00075535694
-7.4911357e-07
0.00034466443
-2.6335375e-07
0.00014312802
-5.0145708e-08
5.0053237e-05
1.0194035e-05
1.9586661e-08
1.0174449e-05
1.1184907e-07
4.9960975e-05
3.612839e-07
0.00014287859
9.0504712e-07
0.00034412067
1.8716591e-06
0.00075439034
3.0948225e-06
0.0015416085
3.898724e-06
0.0029487935
3.7285553e-06
0.0052475561
2.9242072e-06
0.0085808244
1.9733665e-06
0.012685627
1.0127585e-06
0.016667226
-1.477182e-11
0.01918376
-1.0127861e-06
0.01918376
-1.9733892e-06
0.016667226
-2.9242257e-06
0.012685627
-3.7285686e-06
0.0085808244
-3.8987291e-06
0.0052475561
-3.0948227e-06
0.0029487936
-1.8716538e-06
0.0015416085
-9.050357e-07
0.00075439034
-3.6127005e-07
0.00034412067
-1.1183995e-07
0.00014287859
-1.9582438e-08
4.9960975e-05
1.0174449e-05
8.0839369e-09
1.0166365e-05
4.714146e-08
4.9921918e-05
1.5494691e-07
0.00014277078
3.9846339e-07
0.00034387715
8.7979576e-07
0.00075390901
1.7015191e-06
0.0015407868
2.7512788e-06
0.0029477438
3.4623639e-06
0.005246845
3.4708601e-06
0.0085808159
2.8006806e-06
0.012686298
1.5505034e-06
0.016668476
-1.6719394e-11
0.01918531
-1.5505341e-06
0.01918531
-2.8007039e-06
0.016668476
-3.4708736e-06
0.012686298
-3.4623771e-06
0.0085808159
-2.7512996e-06
0.005246845
-1.7015487e-06
0.0029477438
-8.7982898e-07
0.0015407868
-3.9849174e-07
0.00075390901
-1.5496602e-07
0.00034387715
-4.7153243e-08
0.00014277078
-8.0887679e-09
4.9921918e-05
1.0166365e-05
4.9359056e-09
1.0161429e-05
2.869894e-08
4.9898155e-05
9.5121674e-08
0.00014270436
2.4921497e-07
0.00034372306
5.6361108e-07
0.00075359462
1.1213783e-06
0.001540229
1.9184619e-06
0.0029469467
2.6588234e-06
0.0052461046
2.8930593e-06
0.0085805817
2.478762e-06
0.012686712
1.4344164e-06
0.016669521
-1.3696894e-11
0.019186745
-1.434441e-06
0.019186745
-2.4787802e-06
0.016669521
-2.8930726e-06
0.012686712
-2.658836e-06
0.0085805817
-1.9184813e-06
0.0052461046
-1.1214054e-06
0.0029469467
-5.6364025e-07
0.001540229
-2.4923941e-07
0.00075359462
-9.5137855e-08
0.00034372306
-2.8709508e-08
0.00014270436
-4.9404495e-09
4.9898155e-05
1.0161429e-05
4.412379e-09
1.0157017e-05
2.5525744e-08
4.9877042e-05
8.3830364e-08
0.00014264606
2.1689489e-07
0.00034359
4.8450318e-07
0.00075332701
9.5636511e-07
0.0015397572
1.6413798e-06
0.0029462617
2.3245879e-06
0.0052454215
2.5939565e-06
0.0085803123
2.2393608e-06
0.012687067
1.3066658e-06
0.016670453
-1.1485691e-11
0.019188051
-1.3066866e-06
0.019188051
-2.2393776e-06
0.016670453
-2.5939717e-06
0.012687067
-2.324607e-06
0.0085803123
-1.6414094e-06
0.0052454214
-9.5640379e-07
0.0029462617
-4.8454236e-07
0.0015397572
-2.1692617e-07
0.00075332701
-8.3850181e-08
0.00034359
-2.5538373e-08
0.00014264606
-4.4176958e-09
4.9877042e-05
1.0157017e-05
3.6255732e-09
1.0153391e-05
2.1036706e-08
4.9859631e-05
6.9438475e-08
0.00014259766
1.8114248e-07
0.0003434783
4.0971694e-07
0.00075309844
8.2390924e-07
0.001539343
1.4540006e-06
0.0029456316
2.1430843e-06
0.0052447324
2.467479e-06
0.0085799879
2.1883938e-06
0.012687346
1.2866371e-06
0.016671355
-9.652775e-12
0.019189338
-1.2866546e-06
0.019189338
-2.1884082e-06
0.016671355
-2.4674938e-06
0.012687346
-2.1431074e-06
0.0085799879
-1.4540387e-06
0.0052447324
-8.2395965e-07
0.0029456316
-4.0976828e-07
0.001539343
-1.8118391e-07
0.00075309844
-6.9465139e-08
0.0003434783
-2.1053701e-08
0.00014259766
-3.632749e-09
4.9859631e-05
1.0153391e-05
2.9831846e-09
1.0150408e-05
1.7347164e-08
4.9845268e-05
5.737774e-08
0.00014255763
1.50075e-07
0.0003433856
3.4097402e-07
0.00075290755
6.9193772e-07
0.001538992
1.244118e-06
0.0029450795
1.9041966e-06
0.0052440723
2.3016084e-06
0.0085795905
2.0975107e-06
0.01268755
1.2520071e-06
0.016672201
-7.7298086e-12
0.01919059
-1.2520208e-06
0.01919059
-2.0975215e-06
0.016672201
-2.3016211e-06
0.01268755
-1.9042212e-06
0.0085795905
-1.2441628e-06
0.0052440723
-6.919986e-07
0.0029450795
-3.4103672e-07
0.001538992
-1.5012591e-07
0.00075290754
-5.7410611e-08
0.0003433856
-1.7368202e-08
0.00014255763
-2.9920916e-09
4.9845267e-05
1.0150408e-05
2.4654809e-09
1.0147943e-05
1.4363294e-08
4.983337e-05
4.7626963e-08
0.00014252436
1.2502991e-07
0.0003433082
2.8559191e-07
0.00075274699
5.8418551e-07
0.0015386934
1.064194e-06
0.0029445995
1.6641694e-06
0.0052434724
2.0898838e-06
0.0085791648
1.9528985e-06
0.012687687
1.1802431e-06
0.016672973
-5.6124534e-12
0.01919177
-1.1802525e-06
0.01919177
-1.9529048e-06
0.016672973
-2.0898933e-06
0.012687687
-1.6641953e-06
0.0085791648
-1.0642463e-06
0.0052434723
-5.842588e-07
0.0029445995
-2.8566814e-07
0.0015386934
-1.2509203e-07
0.00075274699
-4.7667085e-08
0.0003433082
-1.4389004e-08
0.00014252436
-2.476365e-09
4.983337e-05
1.0147943e-05
2.1024979e-09
1.014584e-05
1.2258233e-08
4.9823215e-05
4.0688745e-08
0.00014249593
1.0699145e-07
0.0003432419
2.4508147e-07
0.0007526089
5.038591e-07
0.0015384347
9.2624458e-07
0.0029441771
1.4715232e-06
0.0052429271
1.890919e-06
0.0085787455
1.8050283e-06
0.012687773
1.1036904e-06
0.016673675
-3.2077947e-12
0.019192874
-1.1036945e-06
0.019192874
-1.805029e-06
0.016673675
-1.8909246e-06
0.012687773
-1.471551e-06
0.0085787454
-9.2630596e-07
0.0052429271
-5.0394719e-07
0.0029441771
-2.4517372e-07
0.0015384347
-1.0706676e-07
0.0007526089
-4.073741e-08
0.0003432419
-1.228941e-08
0.00014249593
-2.1156893e-09
4.9823214e-05
1.014584e-05
1.828276e-09
1.0144012e-05
1.0665653e-08
4.9814378e-05
3.5430763e-08
0.00014247117
9.3284224e-08
0.00034318405
2.1414212e-07
0.00075248805
4.4193361e-07
0.0015382069
8.1812329e-07
0.0029438009
1.3163926e-06
0.0052424288
1.7245046e-06
0.0085783374
1.6780494e-06
0.012687819
1.0378064e-06
0.016674315
-6.0409669e-13
0.019193912
-1.0378047e-06
0.019193912
-1.6780438e-06
0.016674315
-1.7245066e-06
0.012687819
-1.3164229e-06
0.0085783373
-8.1819553e-07
0.0052424288
-4.4203886e-07
0.0029438009
-2.1425266e-07
0.0015382069
-9.3374455e-08
0.00075248804
-3.5489004e-08
0.00034318405
-1.0702916e-08
0.00014247117
-1.8440261e-09
4.9814377e-05
1.0144012e-05
1.6105264e-09
1.0142402e-05
9.3998188e-09
4.9806588e-05
3.1244875e-08
0.00014244933
8.2341629e-08
0.00034313295
1.8932367e-07
0.00075238107
3.9182913e-07
0.0015380044
7.2925137e-07
0.0029434635
1.1851578e-06
0.0052419729
1.5781865e-06
0.0085779443
1.5623469e-06
0.012687835
9.7670153e-07
0.016674901
2.2041279e-12
0.019194889
-9.7669361e-07
0.019194889
-1.5623349e-06
0.016674901
-1.5781848e-06
0.012687835
-1.1851915e-06
0.0085779443
-7.2933629e-07
0.0052419729
-3.9195387e-07
0.0029434635
-1.8945469e-07
0.0015380044
-8.24484e-08
0.00075238107
-3.1313674e-08
0.00034313295
-9.4437479e-09
0.00014244932
-1.6290686e-09
4.9806588e-05
1.0142401e-05
1.4323513e-09
1.0140969e-05
8.3631843e-09
4.9799658e-05
2.781312e-08
0.00014242988
7.335413e-08
0.00034308741
1.6887201e-07
0.00075228555
3.5027453e-07
0.001537823
6.5459348e-07
0.0029431592
1.0720721e-06
0.0052415555
1.4464455e-06
0.00857757
1.4548846e-06
0.012687827
9.1881426e-07
0.016675437
5.174063e-12
0.019195807
-9.1879985e-07
0.019195807
-1.4548659e-06
0.016675437
-1.4464404e-06
0.012687827
-1.0721101e-06
0.00857757
-6.5469276e-07
0.0052415555
-3.504208e-07
0.0029431592
-1.6902539e-07
0.001537823
-7.3478837e-08
0.00075228555
-2.7893317e-08
0.00034308741
-8.4142738e-09
0.00014242987
-1.4538835e-09
4.9799657e-05
1.0140969e-05
1.2850428e-09
1.0139684e-05
7.5052694e-09
4.9793438e-05
2.4969418e-08
0.00014241241
6.5892641e-08
0.00034304649
1.5184163e-07
0.00075219961
3.1549246e-07
0.0015376593
5.9150787e-07
0.0029428832
9.7480076e-07
0.0052411722
1.3297176e-06
0.0085772151
1.3567963e-06
0.012687799
8.6525817e-07
0.016675928
8.182497e-12
0.019196673
-8.6523722e-07
0.019196673
-1.356771e-06
0.016675928
-1.3297094e-06
0.012687799
-9.748439e-07
0.0085772151
-5.9162294e-07
0.0052411722
-3.1566192e-07
0.0029428832
-1.5201882e-07
0.0015376593
-6.6036305e-08
0.00075219961
-2.5061599e-08
0.00034304649
-7.5638438e-09
0.00014241241
-1.3096893e-09
4.9793437e-05
1.0139684e-05
1.1615333e-09
1.0138523e-05
6.7854196e-09
4.9787814e-05
2.2581101e-08
0.00014239662
5.9617091e-08
0.00034300946
1.3748501e-07
0.00075212174
2.8605428e-07
0.0015375108
5.3772293e-07
0.0029426315
8.9072054e-07
0.0052408192
1.2264113e-06
0.0085768794
1.2674993e-06
0.012687758
8.1593395e-07
0.01667638
1.1143092e-11
0.019197489
-8.159066e-07
0.019197489
-1.2674675e-06
0.01667638
-1.2264002e-06
0.012687758
-8.9076964e-07
0.0085768794
-5.3785494e-07
0.0052408192
-2.862481e-07
0.0029426315
-1.3768692e-07
0.0015375108
-5.9780277e-08
0.00075212174
-2.2685556e-08
0.00034300945
-6.8516102e-09
0.00014239662
-1.1893356e-09
4.9787813e-05
1.0138523e-05
1.0562026e-09
1.0137467e-05
6.1712284e-09
4.9782699e-05
2.054206e-08
0.00014238225
5.4253977e-08
0.00034297575
1.2519498e-07
0.00075205081
2.6077602e-07
0.0015373752
4.9126412e-07
0.002942401
8.172401e-07
0.0052404932
1.1341975e-06
0.0085765624
1.1858005e-06
0.012687707
7.702229e-07
0.016676795
1.3983139e-11
0.019198259
-7.7018948e-07
0.019198259
-1.1857627e-06
0.016676795
-1.1341842e-06
0.012687707
-8.1729587e-07
0.0085765625
-4.9141376e-07
0.0052404933
-2.6099467e-07
0.0029424011
-1.2542176e-07
0.0015373752
-5.4436611e-08
0.0007520508
-2.0658664e-08
0.00034297574
-6.2448963e-09
0.00014238225
-1.0870877e-09
4.9782698e-05
1.0137466e-05
9.6521593e-10
1.0136502e-05
5.640457e-09
4.9778024e-05
1.8779064e-08
0.00014236911
4.9613275e-08
0.00034294491
1.1454613e-07
0.00075198588
2.3881936e-07
0.0015372509
4.5071665e-07
0.0029421892
7.5249778e-07
0.0052401915
1.0515135e-06
0.0085762634
1.1108412e-06
0.012687648
7.2769717e-07
0.016677179
1.6654212e-11
0.019198987
-7.2765806e-07
0.019198987
-1.1107976e-06
0.016677179
-1.0514983e-06
0.012687647
-7.5256059e-07
0.0085762634
-4.5088399e-07
0.0052401915
-2.3906239e-07
0.0029421892
-1.1479699e-07
0.0015372509
-4.9814539e-08
0.00075198587
-1.8907226e-08
0.00034294491
-5.7211664e-09
0.00014236911
-9.9898733e-10
4.9778023e-05
1.0136501e-05
8.8589303e-10
1.0135616e-05
5.1775409e-09
4.9773733e-05
1.7240733e-08
0.00014235705
4.5561119e-08
0.0003429166
1.0523701e-07
0.0007519262
2.195852e-07
0.0015371366
4.150551e-07
0.0029419937
6.9510395e-07
0.0052399114
9.7710718e-07
0.0085759814
1.0418763e-06
0.012687583
6.8801368e-07
0.016677533
1.9135171e-11
0.019199675
-6.8796932e-07
0.019199675
-1.0418274e-06
0.016677532
-9.7709051e-07
0.012687583
-6.9517386e-07
0.0085759815
-4.1523944e-07
0.0052399114
-2.1985111e-07
0.0029419937
-1.0551008e-07
0.0015371366
-4.5779347e-08
0.0007519262
-1.7379337e-08
0.00034291659
-5.264531e-09
0.00014235704
-9.2222077e-10
4.9773732e-05
1.0135615e-05
8.1613682e-10
1.01348e-05
4.7703165e-09
4.9769779e-05
1.5886943e-08
0.00014234593
4.1992995e-08
0.00034289049
9.7031951e-08
0.00075187117
2.026027e-07
0.001537031
3.8346197e-07
0.0029418128
6.4391028e-07
0.005239651
9.0985511e-07
0.0085757155
9.7824397e-07
0.012687514
6.5087472e-07
0.01667786
2.1399776e-11
0.019200325
-6.508257e-07
0.019200325
-9.7819043e-07
0.01667786
-9.098375e-07
0.012687514
-6.4398705e-07
0.0085757155
-3.8366181e-07
0.005239651
-2.0288887e-07
0.0029418129
-9.7324231e-08
0.001537031
-4.2225648e-08
0.00075187117
-1.6034329e-08
0.00034289049
-4.8624934e-09
0.00014234593
-8.5455436e-10
4.9769778e-05
1.0134799e-05
7.5429609e-10
1.0134046e-05
4.4091953e-09
4.9766125e-05
1.4686029e-08
0.00014233565
3.8826289e-08
0.00034286635
8.9744124e-08
0.00075182025
1.8749661e-07
0.0015369333
3.552788e-07
0.0029416451
5.9797281e-07
0.0052394083
8.488e-07
0.0085754647
9.1937375e-07
0.012687444
6.1601866e-07
0.016678163
2.3349005e-11
0.019200941
-6.1596544e-07
0.019200941
-9.1931621e-07
0.016678163
-8.4878177e-07
0.012687444
-5.980557e-07
0.0085754647
-3.5549176e-07
0.0052394083
-1.8779927e-07
0.0029416451
-9.005154e-08
0.0015369333
-3.907001e-08
0.00075182025
-1.4840047e-08
0.00034286635
-4.5051719e-09
0.00014233565
-7.9421884e-10
4.9766124e-05
1.0134045e-05
6.9908229e-10
1.0133347e-05
4.0866829e-09
4.9762737e-05
1.36132e-08
0.00014232613
3.5996171e-08
0.00034284397
8.3226427e-08
0.00075177303
1.7396979e-07
0.0015368425
3.2997908e-07
0.0029414891
5.5652178e-07
0.0052391817
7.9313162e-07
0.0085752281
8.6477426e-07
0.012687372
5.8323941e-07
0.016678445
2.4948058e-11
0.019201525
-5.8318266e-07
0.019201525
-8.6471346e-07
0.016678445
-7.9311304e-07
0.012687372
-5.5660964e-07
0.0085752281
-3.3020194e-07
0.0052391818
-1.7428412e-07
0.0029414891
-8.3543912e-08
0.0015368426
-3.6246865e-08
0.00075177303
-1.3771249e-08
0.00034284397
-4.1848052e-09
0.00014232613
-7.3981804e-10
4.9762736e-05
1.0133346e-05
6.4947982e-10
1.0132697e-05
3.7968667e-09
4.9759591e-05
1.2648879e-08
0.00014231728
3.3451371e-08
0.00034282317
7.7362262e-08
0.00075172912
1.6178587e-07
0.0015367581
3.0714121e-07
0.0029413437
5.1893398e-07
0.00523897
7.4218311e-07
0.0085750048
8.1401899e-07
0.0126873
5.5235e-07
0.016678707
2.6161577e-11
0.019202077
-5.5229041e-07
0.019202077
-8.1395577e-07
0.016678706
-7.4216442e-07
0.0126873
-5.190253e-07
0.0085750049
-3.0737007e-07
0.00523897
-1.6210622e-07
0.0029413437
-7.7684003e-08
0.0015367581
-3.3704399e-08
0.00075172912
-1.280803e-08
0.00034282317
-3.8952943e-09
0.00014231728
-6.9026206e-10
4.975959e-05
1.0132697e-05
6.0467495e-10
1.0132093e-05
3.5350078e-09
4.9756661e-05
1.1777365e-08
0.00014230904
3.1150725e-08
0.0003428038
7.2057842e-08
0.00075168822
1.507541e-07
0.0015366794
2.8642278e-07
0.002941208
4.8469627e-07
0.0052387717
6.9539054e-07
0.0085747941
7.6674805e-07
0.012687229
5.2321165e-07
0.01667895
2.6976338e-11
0.0192026
-5.2315008e-07
0.0192026
-7.6668336e-07
0.01667895
-6.9537194e-07
0.012687229
-4.8478926e-07
0.0085747942
-2.8665325e-07
0.0052387717
-1.5107425e-07
0.0029412081
-7.2377516e-08
0.0015366794
-3.1401088e-08
0.00075168822
-1.1934475e-08
0.0003428038
-3.6317825e-09
0.00014230903
-6.4469128e-10
4.975666e-05
1.0132093e-05
5.6400845e-10
1.0131529e-05
3.2972681e-09
4.9753928e-05
1.0985939e-08
0.00014230135
2.906087e-08
0.00034278573
6.7237071e-08
0.00075165005
1.4071939e-07
0.001536606
2.6754432e-07
0.0029410812
4.5338716e-07
0.0052385858
6.5228499e-07
0.0085745952
7.2263956e-07
0.012687159
4.9568079e-07
0.016679177
2.7399386e-11
0.019203096
-4.9561829e-07
0.019203096
-7.2257447e-07
0.016679177
-6.5226669e-07
0.012687159
-4.5347989e-07
0.0085745953
-2.6777172e-07
0.0052385859
-1.4103279e-07
0.0029410813
-6.7548114e-08
0.001536606
-2.9303408e-08
0.00075165005
-1.113777e-08
0.00034278573
-3.3903855e-09
0.00014230135
-6.0242908e-10
4.9753927e-05
1.0131529e-05
5.2693962e-10
1.0131003e-05
3.0805016e-09
4.9751375e-05
1.0264175e-08
0.00014229417
2.7154435e-08
0.00034276884
6.2837441e-08
0.00075161437
1.31554e-07
0.0015365372
2.5027445e-07
0.0029409625
4.2465305e-07
0.0052384115
6.1246231e-07
0.0085744074
6.814257e-07
0.01268709
4.6966348e-07
0.016679389
2.7395968e-11
0.019203566
-4.6960116e-07
0.019203566
-6.8136143e-07
0.016679389
-6.1244458e-07
0.01268709
-4.2474354e-07
0.0085744075
-2.5049403e-07
0.0052384115
-1.318541e-07
0.0029409625
-6.3133311e-08
0.0015365373
-2.7384033e-08
0.00075161437
-1.0407523e-08
0.00034276884
-3.1679896e-09
0.00014229417
-5.6294972e-10
4.9751375e-05
1.0131003e-05
4.9302166e-10
1.013051e-05
2.882111e-09
4.9748987e-05
9.6034665e-09
0.00014228745
2.5408829e-08
0.00034275304
5.8807345e-08
0.00075158097
1.2315241e-07
0.0015364729
2.3442169e-07
0.0029408512
3.9820096e-07
0.0052382477
5.7558598e-07
0.00857423
6.4285433e-07
0.012687022
4.4503839e-07
0.016679587
2.6914463e-11
0.019204011
-4.4497746e-07
0.019204011
-6.4279214e-07
0.016679587
-5.7556913e-07
0.012687022
-3.9828727e-07
0.0085742301
-2.3462879e-07
0.0052382477
-1.2343283e-07
0.0029408513
-5.9081716e-08
0.0015364729
-2.5620558e-08
0.00075158098
-9.7352463e-09
0.00034275304
-2.9620789e-09
0.00014228745
-5.2584113e-10
4.9748987e-05
1.013051e-05
4.618805e-10
1.0130049e-05
2.6999244e-09
4.974675e-05
8.9966176e-09
0.00014228115
2.3805145e-08
0.00034273823
5.5103529e-08
0.00075154968
1.1542596e-07
0.0015364126
2.1982422e-07
0.0029407469
3.7377947e-07
0.0052380937
5.4135849e-07
0.0085740625
6.0672524e-07
0.012686957
4.2174598e-07
0.016679772
2.5903659e-11
0.019204432
-4.2168771e-07
0.019204432
-6.0666644e-07
0.016679772
-5.4134288e-07
0.012686957
-3.7385978e-07
0.0085740625
-2.2001444e-07
0.0052380938
-1.1568066e-07
0.0029407469
-5.5350457e-08
0.0015364126
-2.3994387e-08
0.00075154968
-9.1139385e-09
0.00034273823
-2.7706075e-09
0.00014228115
-4.9078191e-10
4.974675e-05
1.0130049e-05
4.3320114e-10
1.0129616e-05
2.5321131e-09
4.9744652e-05
8.4375709e-09
0.00014227525
2.2327481e-08
0.00034272435
5.1689644e-08
0.00075152032
1.0830014e-07
0.001536356
2.0634623e-07
0.0029406488
3.5117851e-07
0.0052379489
5.095317e-07
0.0085739041
5.7283063e-07
0.012686894
3.9967168e-07
0.016679945
2.4251677e-11
0.019204832
-3.9961744e-07
0.019204832
-5.7277659e-07
0.016679945
-5.0951774e-07
0.012686894
-3.5125116e-07
0.0085739042
-2.0651548e-07
0.005237949
-1.0852357e-07
0.0029406488
-5.1903681e-08
0.001536356
-2.2490019e-08
0.00075152033
-8.5377967e-09
0.00034272435
-2.5919083e-09
0.00014227525
-4.575246e-10
4.9744652e-05
1.0129616e-05
4.0671593e-10
1.012921e-05
2.3771256e-09
4.9742683e-05
7.9211858e-09
0.00014226971
2.0962316e-08
0.00034271131
4.8534696e-08
0.00075149275
1.0171122e-07
0.0015363028
1.9387066e-07
0.0029405567
3.3021347e-07
0.0052378126
4.7988054e-07
0.0085737544
5.4102389e-07
0.012686833
3.7878766e-07
0.016680107
2.1948984e-11
0.019205211
-3.7873883e-07
0.019205211
-5.4097596e-07
0.016680107
-4.7986869e-07
0.012686833
-3.3027699e-07
0.0085737545
-1.9401527e-07
0.0052378126
-1.0189839e-07
0.0029405567
-4.8710954e-08
0.0015363028
-2.1094374e-08
0.00075149276
-8.0019586e-09
0.00034271131
-2.4246043e-09
0.00014226971
-4.2587436e-10
4.9742683e-05
1.012921e-05
3.8219498e-10
1.0128828e-05
2.2336271e-09
4.9740833e-05
7.4430415e-09
0.0001422645
1.9698052e-08
0.00034269906
4.5612186e-08
0.00075146685
9.5604863e-08
0.0015362528
1.8229806e-07
0.00294047
3.1072913e-07
0.0052376841
4.5221655e-07
0.0085736129
5.1112177e-07
0.012686774
3.5897266e-07
0.016680259
1.8994929e-11
0.01920557
-3.5893067e-07
0.01920557
-5.1108132e-07
0.016680259
-4.5220733e-07
0.012686774
-3.1078225e-07
0.008573613
-1.8241477e-07
0.0052376842
-9.5751356e-08
0.00294047
-4.5746382e-08
0.0015362528
-1.9796335e-08
0.00075146685
-7.502307e-09
0.00034269906
-2.2675505e-09
0.0001422645
-3.9568042e-10
4.9740833e-05
1.0128828e-05
3.5944226e-10
1.012847e-05
2.1004841e-09
4.9739093e-05
6.9993806e-09
0.0001422596
1.8524781e-08
0.00034268754
4.2899316e-08
0.00075144248
8.9933954e-08
0.0015362058
1.7154139e-07
0.0029403884
2.9258652e-07
0.0052375631
4.2636691e-07
0.0085734792
4.830265e-07
0.012686717
3.4023459e-07
0.016680402
1.541164e-11
0.01920591
-3.402008e-07
0.01920591
-4.8299482e-07
0.016680402
-4.2636083e-07
0.012686717
-2.9262817e-07
0.0085734792
-1.716274e-07
0.0052375631
-9.0035999e-08
0.0029403884
-4.2987806e-08
0.0015362058
-1.8586508e-08
0.00075144248
-7.0354158e-09
0.00034268754
-2.1198219e-09
0.0001422596
-3.6683442e-10
4.9739093e-05
1.012847e-05
3.3828412e-10
1.0128132e-05
1.9766845e-09
4.9737456e-05
6.5868499e-09
0.00014225499
1.7433731e-08
0.00034267669
4.0376114e-08
0.00075141954
8.4657598e-08
0.0015361615
1.6152557e-07
0.0029403115
2.7566722e-07
0.0052374489
4.0218251e-07
0.0085733526
4.5656083e-07
0.012686663
3.2243088e-07
0.016680536
1.1231449e-11
0.019206233
-3.2240656e-07
0.019206233
-4.5653912e-07
0.016680536
-4.0218006e-07
0.012686663
-2.7569651e-07
0.0085733527
-1.6157851e-07
0.005237449
-8.4712055e-08
0.0029403115
-4.0415898e-08
0.0015361615
-1.7456634e-08
0.00075141955
-6.5982547e-09
0.0003426767
-1.9806087e-09
0.00014225499
-3.3924756e-10
4.9737457e-05
1.0128132e-05
3.1857655e-10
1.0127814e-05
1.8614002e-09
4.9735914e-05
6.2027005e-09
0.00014225065
1.6417601e-08
0.00034266648
3.8025613e-08
0.00075139794
7.9740439e-08
0.0015361198
1.521849e-07
0.0029402391
2.5986575e-07
0.0052373413
3.7953269e-07
0.008573233
4.3168008e-07
0.01268661
3.0561612e-07
0.016680662
6.5277357e-12
0.019206538
-3.056024e-07
0.019206538
-4.3166937e-07
0.016680662
-3.7953432e-07
0.012686611
-2.5988196e-07
0.008573233
-1.5220289e-07
0.0052373413
-7.9744848e-08
0.0029402391
-3.8014406e-08
0.0015361198
-1.6399989e-08
0.00075139794
-6.188449e-09
0.00034266649
-1.8493199e-09
0.00014225066
-3.1287574e-10
4.9735915e-05
1.0127814e-05
3.0018174e-10
1.0127515e-05
1.7538179e-09
4.9734462e-05
5.8442376e-09
0.00014224656
1.5469402e-08
0.00034265686
3.5832095e-08
0.00075137758
7.5150542e-08
0.0015360805
1.4346049e-07
0.0029401707
2.4508725e-07
0.0052372396
3.5828979e-07
0.0085731198
4.0819063e-07
0.012686561
2.8960702e-07
0.016680781
1.3836751e-12
0.019206828
-2.8960482e-07
0.019206828
-4.0819179e-07
0.016680781
-3.5829582e-07
0.012686561
-2.450898e-07
0.0085731198
-1.4344213e-07
0.0052372397
-7.510315e-08
0.0029401708
-3.5768333e-08
0.0015360805
-1.5410166e-08
0.00075137759
-5.8036709e-09
0.00034265687
-1.725374e-09
0.00014224657
-2.8767852e-10
4.9734463e-05
1.0127515e-05
2.8299958e-10
1.0127232e-05
1.6533736e-09
4.9733093e-05
5.5095811e-09
0.00014224271
1.4584022e-08
0.00034264779
3.3783301e-08
0.00075135838
7.0861757e-08
0.0015360434
1.3530359e-07
0.0029401063
2.3125481e-07
0.0052371437
3.3836575e-07
0.0085730126
3.8611706e-07
0.012686513
2.74525e-07
0.016680892
-4.0779033e-12
0.019207102
-2.7453496e-07
0.019207102
-3.8613065e-07
0.016680892
-3.3837638e-07
0.012686513
-2.3124329e-07
0.0085730127
-1.3524796e-07
0.0052371437
-7.0761581e-08
0.0029401063
-3.3666232e-08
0.0015360434
-1.4482705e-08
0.00075135839
-5.4424585e-09
0.0003426478
-1.6084714e-09
0.00014224271
-2.6366699e-10
4.9733094e-05
1.0127233e-05
2.6690901e-10
1.0126966e-05
1.559332e-09
4.9731802e-05
5.1962967e-09
0.00014223907
1.3755294e-08
0.00034263923
3.1865832e-08
0.00075134028
6.684755e-08
0.0015360084
1.2766484e-07
0.0029400455
2.1828451e-07
0.0052370531
3.1963265e-07
0.0085729113
3.6521702e-07
0.012686467
2.6011776e-07
0.016680997
-9.6855837e-12
0.019207363
-2.6014027e-07
0.019207363
-3.6524335e-07
0.016680998
-3.196479e-07
0.012686467
-2.1825865e-07
0.0085729113
-1.2757159e-07
0.0052370531
-6.6694413e-08
0.0029400455
-3.1695532e-08
0.0015360085
-1.3612107e-08
0.00075134029
-5.1027966e-09
0.00034263924
-1.498142e-09
0.00014223908
-2.4083146e-10
4.9731803e-05
1.0126967e-05
2.5186028e-10
1.0126715e-05
1.471447e-09
4.9730583e-05
4.903546e-09
0.00014223564
1.2980609e-08
0.00034263116
3.007243e-08
0.00075132319
6.3090915e-08
0.0015359754
1.2051254e-07
0.0029399881
2.0613202e-07
0.0052369674
3.0206082e-07
0.0085728154
3.4561933e-07
0.012686424
2.4660735e-07
0.016681097
-1.5307598e-11
0.019207609
-2.4664239e-07
0.019207609
-3.4565832e-07
0.016681097
-3.0208054e-07
0.012686424
-2.0609168e-07
0.0085728154
-1.2038185e-07
0.0052369675
-6.2885495e-08
0.0029399881
-2.9849854e-08
0.0015359754
-1.2796451e-08
0.0007513232
-4.7842719e-09
0.00034263117
-1.3944046e-09
0.00014223565
-2.1923222e-10
4.9730585e-05
1.0126715e-05
2.377202e-10
1.0126478e-05
1.3888698e-09
4.9729433e-05
4.6285341e-09
0.00014223241
1.2253214e-08
0.00034262354
2.8389483e-08
0.00075130706
5.95666e-08
0.0015359443
1.1379912e-07
0.0029399338
1.9470701e-07
0.0052368865
2.8548737e-07
0.0085727246
3.269814e-07
0.012686382
2.3363006e-07
0.01668119
-2.0876635e-11
0.019207843
-2.3367734e-07
0.019207843
-3.2703267e-07
0.01668119
-2.8551122e-07
0.012686382
-1.9465224e-07
0.0085727246
-1.1363182e-07
0.0052368865
-5.9310501e-08
0.0029399338
-2.8116561e-08
0.0015359443
-1.2029795e-08
0.00075130707
-4.4846206e-09
0.00034262354
-1.29675e-09
0.00014223241
-1.9888177e-10
4.9729435e-05
1.0126478e-05
2.2453048e-10
1.0126254e-05
1.3119489e-09
4.9728346e-05
4.3723555e-09
0.00014222935
1.1574959e-08
0.00034261634
2.6818004e-08
0.00075129182
5.6271503e-08
0.0015359148
1.0751848e-07
0.0029398826
1.8401858e-07
0.00523681
2.6998628e-07
0.0085726386
3.0960434e-07
0.012686343
2.2156437e-07
0.016681278
-2.6151022e-11
0.019208064
-2.21623e-07
0.019208064
-3.0966706e-07
0.016681278
-2.7001373e-07
0.012686343
-1.8394962e-07
0.0085726386
-1.0731601e-07
0.00523681
-5.5967219e-08
0.0029398826
-2.6497558e-08
0.0015359148
-1.1314656e-08
0.00075129183
-4.2053637e-09
0.00034261634
-1.2057701e-09
0.00014222935
-1.7991263e-10
4.9728348e-05
1.0126254e-05
2.1207313e-10
1.0126042e-05
1.2392391e-09
4.972732e-05
4.1302995e-09
0.00014222646
1.0935068e-08
0.00034260953
2.533833e-08
0.00075127741
5.3173027e-08
0.001535887
1.0160986e-07
0.0029398342
1.7393674e-07
0.0052367377
2.5529537e-07
0.0085725572
2.9296195e-07
0.012686305
2.098722e-07
0.016681361
-3.0955189e-11
0.019208274
-2.0994147e-07
0.019208274
-2.9303521e-07
0.016681361
-2.5532583e-07
0.012686305
-1.7385409e-07
0.0085725573
-1.0137434e-07
0.0052367377
-5.2824041e-08
0.0029398342
-2.4974207e-08
0.001535887
-1.0641084e-08
0.00075127742
-3.942345e-09
0.00034260954
-1.1203507e-09
0.00014222646
-1.6223889e-10
4.9727322e-05
1.0126043e-05
2.006309e-10
1.0125842e-05
1.1726469e-09
4.9726348e-05
3.908479e-09
0.00014222372
1.0346761e-08
0.0003426031
2.3971856e-08
0.00075126379
5.0300425e-08
0.0015358607
9.6123518e-08
0.0029397883
1.6458472e-07
0.0052366693
2.4169891e-07
0.0085724801
2.7765694e-07
0.012686269
1.99183e-07
0.016681439
-3.5057805e-11
0.019208473
-1.9926154e-07
0.019208474
-2.7773946e-07
0.01668144
-2.417317e-07
0.012686269
-1.6448914e-07
0.0085724802
-9.5857712e-08
0.0052366692
-4.9911103e-08
0.0029397883
-2.356877e-08
0.0015358607
-1.0022995e-08
0.0007512638
-3.7021e-09
0.0003426031
-1.0426828e-09
0.00014222373
-1.4627327e-10
4.972635e-05
1.0125842e-05
1.8960329e-10
1.0125653e-05
1.1082548e-09
4.972543e-05
3.6943157e-09
0.00014222114
9.7819753e-09
0.00034259701
2.2669912e-08
0.0007512509
4.7580372e-08
0.0015358357
9.0936104e-08
0.002939745
1.5570947e-07
0.0052366045
2.2870925e-07
0.0085724071
2.6285648e-07
0.012686235
1.887031e-07
0.016681514
-3.8513446e-11
0.019208662
-1.8878948e-07
0.019208662
-2.6294674e-07
0.016681514
-2.2874355e-07
0.012686235
-1.5560186e-07
0.0085724072
-9.0643281e-08
0.0052366045
-4.7155868e-08
0.002939745
-2.2233492e-08
0.0015358357
-9.4331753e-09
0.00075125091
-3.4726838e-09
0.00034259702
-9.692771e-10
0.00014222114
-1.3160764e-10
4.9725432e-05
1.0125653e-05
1.8012861e-10
1.0125473e-05
1.0533206e-09
4.9724557e-05
3.5108748e-09
0.00014221868
9.2918528e-09
0.00034259123
2.152042e-08
0.00075123868
4.5142185e-08
0.0015358121
8.6253628e-08
0.0029397039
1.4770895e-07
0.005236543
2.1705858e-07
0.0085723378
2.4971207e-07
0.012686202
1.7948319e-07
0.016681584
-4.1029966e-11
0.019208842
-1.795755e-07
0.019208842
-2.4980849e-07
0.016681584
-2.1709369e-07
0.012686202
-1.4759066e-07
0.0085723378
-8.5937944e-08
0.005236543
-4.4689062e-08
0.0029397039
-2.1058066e-08
0.0015358121
-8.9245449e-09
0.00075123868
-3.2785749e-09
0.00034259124
-9.0838345e-10
0.00014221868
-1.1984019e-10
4.9724559e-05
1.0125473e-05
1.6892431e-10
1.0125304e-05
9.8812339e-10
4.9723738e-05
3.2969471e-09
0.00014221637
8.7412987e-09
0.00034258578
2.0291644e-08
0.00075122713
4.2659671e-08
0.0015357898
8.1639663e-08
0.0029396649
1.3992586e-07
0.0052364848
2.0572437e-07
0.008572272
2.3676789e-07
0.012686171
1.7030722e-07
0.01668165
-4.2467139e-11
0.019209012
-1.7040335e-07
0.019209012
-2.3686875e-07
0.01668165
-2.0575974e-07
0.012686171
-1.3979879e-07
0.008572272
-8.1306806e-08
0.0052364847
-4.2187359e-08
0.0029396649
-1.9814507e-08
0.0015357898
-8.365677e-09
0.00075122713
-3.0613098e-09
0.00034258579
-8.421826e-10
0.00014221637
-1.0855552e-10
4.972374e-05
1.0125304e-05
1.6404047e-10
1.012514e-05
9.5997683e-10
4.9722942e-05
3.1973448e-09
0.00014221413
8.4454725e-09
0.00034258054
1.9511516e-08