/*--------------------------------*- C++ -*----------------------------------*\
| =========                 |                                                 |
| \\      /  F ield         | OpenFOAM: The Open Source CFD Toolbox           |
|  \\    /   O peration     | Version:  2406                                  |
|   \\  /    A nd           | Website:  www.openfoam.com                      |
|    \\/     M anipulation  |                                                 |
\*---------------------------------------------------------------------------*/
FoamFile
{
    version     2.0;
    format      ascii;
    arch        "LSB;label=32;scalar=64";
    class       volVectorField;
    location    "12";
    object      U;
}
// * * * * * * * * * * * * * * * * * * * * * * * * * * * * * * * * * * * * * //

dimensions      [0 1 -1 0 0 0 0];

internalField   nonuniform List<vector> 
1176
(
(0.019493789 7.0785599e-07 0)
(0.066677318 8.1696218e-06 0)
(0.13357994 3.9503052e-05 0)
(0.22724701 0.00010873549 0)
(0.35591523 0.00021175972 0)
(0.52772024 0.00030396197 0)
(0.74780387 0.00031817909 0)
(1.0136216 0.00024904486 0)
(1.3093323 0.0001666692 0)
(1.6017081 0.00011264621 0)
(1.8421723 7.0213485e-05 0)
(1.9793239 2.394006e-05 0)
(1.9793239 -2.3941427e-05 0)
(1.8421723 -7.0214351e-05 0)
(1.6017081 -0.00011264556 0)
(1.3093323 -0.00016666488 0)
(1.0136216 -0.00024903323 0)
(0.74780387 -0.00031815619 0)
(0.52772023 -0.0003039269 0)
(0.35591522 -0.00021171717 0)
(0.227247 -0.00010869397 0)
(0.13357994 -3.9471508e-05 0)
(0.066677318 -8.1515623e-06 0)
(0.019493789 -7.0234395e-07 0)
(0.020187017 -3.7419232e-06 0)
(0.068813533 -2.4638664e-05 0)
(0.13732107 -9.6548632e-05 0)
(0.23247391 -0.00024839479 0)
(0.36204617 -0.00047268816 0)
(0.53373557 -0.00067421238 0)
(0.75267407 -0.00069487019 0)
(1.0170176 -0.00049687458 0)
(1.3116385 -0.00023346004 0)
(1.6034438 -4.9825196e-05 0)
(1.8436588 1.9763868e-05 0)
(1.9807026 1.3426488e-05 0)
(1.9807026 -1.3429635e-05 0)
(1.8436588 -1.9767373e-05 0)
(1.6034438 4.9820883e-05 0)
(1.3116385 0.00023345437 0)
(1.0170176 0.00049686634 0)
(0.75267405 0.00069485755 0)
(0.53373555 0.00067419513 0)
(0.36204616 0.00047266913 0)
(0.2324739 0.00024837807 0)
(0.13732107 9.6537249e-05 0)
(0.068813533 2.4632886e-05 0)
(0.020187017 3.7402801e-06 0)
(0.020018442 2.091835e-06 0)
(0.068327407 1.2720764e-05 0)
(0.13655405 4.6877227e-05 0)
(0.23159545 0.00011389732 0)
(0.36138709 0.00019769256 0)
(0.53366969 0.00023903225 0)
(0.75344345 0.00020559806 0)
(1.0184881 0.00011361063 0)
(1.3134639 7.4312904e-05 0)
(1.6053464 7.9532046e-05 0)
(1.8455118 7.0515601e-05 0)
(1.9825245 2.7824676e-05 0)
(1.9825245 -2.7826332e-05 0)
(1.8455118 -7.0516626e-05 0)
(1.6053464 -7.9532054e-05 0)
(1.3134639 -7.4311669e-05 0)
(1.0184882 -0.00011360849 0)
(0.75344346 -0.00020559631 0)
(0.53366971 -0.00023903042 0)
(0.3613871 -0.00019769194 0)
(0.23159545 -0.00011389766 0)
(0.13655405 -4.6878088e-05 0)
(0.068327408 -1.2721565e-05 0)
(0.020018442 -2.0921266e-06 0)
(0.019966548 7.0076233e-07 0)
(0.068159234 4.6870375e-06 0)
(0.13624021 1.9355416e-05 0)
(0.2311194 5.6456123e-05 0)
(0.36078094 0.00013444559 0)
(0.53306294 0.00025829304 0)
(0.75295638 0.00035344721 0)
(1.0181104 0.00036912002 0)
(1.313184 0.00030758857 0)
(1.6051633 0.00022777167 0)
(1.8453995 0.00014555842 0)
(1.9824491 4.9995911e-05 0)
(1.9824491 -4.9998724e-05 0)
(1.8453995 -0.00014556083 0)
(1.6051633 -0.00022777344 0)
(1.313184 -0.00030759037 0)
(1.0181104 -0.0003691211 0)
(0.75295637 -0.00035344705 0)
(0.53306293 -0.000258293 0)
(0.36078093 -0.00013444469 0)
(0.2311194 -5.6454798e-05 0)
(0.13624021 -1.9354268e-05 0)
(0.068159233 -4.6863505e-06 0)
(0.019966548 -7.0055123e-07 0)
(0.019942204 2.9076965e-07 0)
(0.068078705 1.9872055e-06 0)
(0.13608629 8.2361202e-06 0)
(0.230877 2.3699338e-05 0)
(0.36044745 5.6881688e-05 0)
(0.5326645 0.00012306902 0)
(0.75256879 0.00022681842 0)
(1.017808 0.00032272241 0)
(1.3129044 0.00034572451 0)
(1.604912 0.00030729935 0)
(1.8452029 0.00021095225 0)
(1.9822898 7.4613151e-05 0)
(1.9822898 -7.4616281e-05 0)
(1.8452029 -0.00021095488 0)
(1.604912 -0.00030730132 0)
(1.3129044 -0.00034572559 0)
(1.017808 -0.00032272395 0)
(0.75256879 -0.00022682092 0)
(0.5326645 -0.00012307221 0)
(0.36044745 -5.6884732e-05 0)
(0.230877 -2.3701682e-05 0)
(0.13608629 -8.237664e-06 0)
(0.068078706 -1.9880178e-06 0)
(0.019942204 -2.9100991e-07 0)
(0.019933133 1.7181714e-07 0)
(0.068047758 1.1940828e-06 0)
(0.13602489 5.0652142e-06 0)
(0.23077536 1.4968898e-05 0)
(0.360299 3.6219649e-05 0)
(0.53247922 7.6944481e-05 0)
(0.75239429 0.00014713809 0)
(1.0177222 0.00023749059 0)
(1.3129292 0.00028525607 0)
(1.6049747 0.00027441466 0)
(1.8452865 0.00019644554 0)
(1.9823834 7.1175856e-05 0)
(1.9823834 -7.1178442e-05 0)
(1.8452865 -0.00019644763 0)
(1.6049747 -0.00027441623 0)
(1.3129292 -0.00028525724 0)
(1.0177222 -0.00023749196 0)
(0.75239429 -0.00014714036 0)
(0.53247922 -7.694733e-05 0)
(0.360299 -3.6222328e-05 0)
(0.23077536 -1.4970908e-05 0)
(0.13602489 -5.0665599e-06 0)
(0.068047758 -1.1948229e-06 0)
(0.019933133 -1.7204234e-07 0)
(0.019923401 1.5587699e-07 0)
(0.06801551 1.0700803e-06 0)
(0.13596286 4.4934782e-06 0)
(0.23067608 1.3195505e-05 0)
(0.36015774 3.1857253e-05 0)
(0.53230179 6.6958533e-05 0)
(0.75221431 0.0001241194 0)
(1.0176105 0.00019917113 0)
(1.3129358 0.00025490883 0)
(1.6050904 0.00024595187 0)
(1.8454579 0.00018127854 0)
(1.9825798 6.6547619e-05 0)
(1.9825798 -6.65498e-05 0)
(1.8454579 -0.00018128037 0)
(1.6050904 -0.00024595342 0)
(1.3129358 -0.00025491042 0)
(1.0176105 -0.00019917339 0)
(0.75221431 -0.00012412273 0)
(0.53230179 -6.696243e-05 0)
(0.36015774 -3.1860759e-05 0)
(0.23067608 -1.3198027e-05 0)
(0.13596286 -4.4951069e-06 0)
(0.06801551 -1.0709537e-06 0)
(0.019923401 -1.5614014e-07 0)
(0.019915698 1.2758799e-07 0)
(0.067989796 8.7802335e-07 0)
(0.13591294 3.6960205e-06 0)
(0.23059504 1.0901661e-05 0)
(0.36003989 2.6613506e-05 0)
(0.53214755 5.7237486e-05 0)
(0.75204135 0.00010911114 0)
(1.0174723 0.00017936714 0)
(1.3128927 0.0002380255 0)
(1.6051414 0.00023746795 0)
(1.8455877 0.00017750658 0)
(1.9827514 6.5538706e-05 0)
(1.9827514 -6.554054e-05 0)
(1.8455877 -0.00017750814 0)
(1.6051414 -0.00023746931 0)
(1.3128927 -0.00023802722 0)
(1.0174723 -0.00017937001 0)
(0.75204135 -0.00010911549 0)
(0.53214755 -5.7242583e-05 0)
(0.36003989 -2.6618122e-05 0)
(0.23059504 -1.0905025e-05 0)
(0.13591294 -3.6982117e-06 0)
(0.067989796 -8.7920236e-07 0)
(0.019915698 -1.2794336e-07 0)
(0.019909218 1.0466063e-07 0)
(0.067968145 7.2314569e-07 0)
(0.13587084 3.0521303e-06 0)
(0.23052655 9.0119014e-06 0)
(0.35993986 2.2000059e-05 0)
(0.53201544 4.747384e-05 0)
(0.75188903 9.2014789e-05 0)
(1.0173342 0.00015618288 0)
(1.3128278 0.00021699769 0)
(1.6051595 0.00022709678 0)
(1.8456699 0.0001723263 0)
(1.982868 6.4147179e-05 0)
(1.982868 -6.4148648e-05 0)
(1.8456699 -0.00017232751 0)
(1.6051595 -0.00022709787 0)
(1.3128278 -0.00021699932 0)
(1.0173342 -0.00015618612 0)
(0.75188903 -9.2019979e-05 0)
(0.53201544 -4.7480041e-05 0)
(0.35993986 -2.2005718e-05 0)
(0.23052655 -9.0160427e-06 0)
(0.13587084 -3.0548383e-06 0)
(0.067968144 -7.2460734e-07 0)
(0.019909218 -1.0510184e-07 0)
(0.019903972 8.612941e-08 0)
(0.067950556 5.9697261e-07 0)
(0.1358365 2.5274068e-06 0)
(0.23047031 7.4916914e-06 0)
(0.35985694 1.8376492e-05 0)
(0.53190438 3.9836115e-05 0)
(0.75175839 7.7712925e-05 0)
(1.0172122 0.00013432542 0)
(1.3127614 0.00019323478 0)
(1.6051772 0.00021058414 0)
(1.8457533 0.00016272988 0)
(1.9829863 6.1083907e-05 0)
(1.9829863 -6.1084971e-05 0)
(1.8457533 -0.00016273066 0)
(1.6051772 -0.00021058482 0)
(1.3127614 -0.00019323626 0)
(1.0172122 -0.00013432908 0)
(0.75175839 -7.7719103e-05 0)
(0.53190438 -3.9843626e-05 0)
(0.35985694 -1.8383389e-05 0)
(0.23047031 -7.4967476e-06 0)
(0.13583649 -2.5307153e-06 0)
(0.067950556 -5.9875894e-07 0)
(0.019903972 -8.6668682e-08 0)
(0.019899544 7.335898e-08 0)
(0.067935692 5.0897095e-07 0)
(0.13580743 2.1569162e-06 0)
(0.2304226 6.4028422e-06 0)
(0.35978628 1.5747791e-05 0)
(0.53180892 3.4278265e-05 0)
(0.75164411 6.7205401e-05 0)
(1.0171021 0.00011723107 0)
(1.3126977 0.00017262583 0)
(1.6051929 0.0001930899 0)
(1.8458371 0.00015219899 0)
(1.9831061 5.7544639e-05 0)
(1.9831061 -5.7545238e-05 0)
(1.8458371 -0.00015219923 0)
(1.6051929 -0.00019309006 0)
(1.3126977 -0.00017262716 0)
(1.0171021 -0.00011723522 0)
(0.75164411 -6.7212761e-05 0)
(0.53180892 -3.4287333e-05 0)
(0.35978628 -1.575615e-05 0)
(0.2304226 -6.4089762e-06 0)
(0.13580742 -2.1609294e-06 0)
(0.067935691 -5.1113678e-07 0)
(0.019899544 -7.4012632e-08 0)
(0.019895723 6.372892e-08 0)
(0.067922854 4.4252883e-07 0)
(0.13578229 1.876764e-06 0)
(0.23038126 5.5766051e-06 0)
(0.35972485 1.3738883e-05 0)
(0.53172537 2.9998453e-05 0)
(0.75154267 5.9112368e-05 0)
(1.0170011 0.00010388934 0)
(1.3126345 0.00015540404 0)
(1.6052015 0.00017849615 0)
(1.8459125 0.000142716 0)
(1.9832185 5.4330642e-05 0)
(1.9832185 -5.4330732e-05 0)
(1.8459125 -0.00014271566 0)
(1.6052015 -0.00017849578 0)
(1.3126345 -0.00015540526 0)
(1.0170011 -0.00010389411 0)
(0.75154267 -5.9121116e-05 0)
(0.53172537 -3.0009312e-05 0)
(0.35972485 -1.3748903e-05 0)
(0.23038126 -5.5839518e-06 0)
(0.13578229 -1.8815639e-06 0)
(0.067922853 -4.4511609e-07 0)
(0.019895722 -6.4509317e-08 0)
(0.019892372 5.6091489e-08 0)
(0.067911591 3.8978452e-07 0)
(0.13576022 1.6541499e-06 0)
(0.23034492 4.9188434e-06 0)
(0.35967071 1.2132217e-05 0)
(0.53165138 2.6542894e-05 0)
(0.75145193 5.2499599e-05 0)
(1.0169086 9.2876858e-05 0)
(1.3125728 0.00014061616 0)
(1.605205 0.00016529714 0)
(1.8459798 0.00013398987 0)
(1.9833221 5.1387672e-05 0)
(1.9833221 -5.1387214e-05 0)
(1.8459798 -0.00013398889 0)
(1.605205 -0.00016529621 0)
(1.3125728 -0.00014061731 0)
(1.0169086 -9.2882379e-05 0)
(0.75145193 -5.2509942e-05 0)
(0.53165138 -2.655577e-05 0)
(0.35967071 -1.2144086e-05 0)
(0.23034491 -4.9275306e-06 0)
(0.13576022 -1.6598138e-06 0)
(0.06791159 -3.9283236e-07 0)
(0.019892372 -5.701011e-08 0)
(0.019889405 4.9850159e-08 0)
(0.067901611 3.4662373e-07 0)
(0.13574065 1.4717898e-06 0)
(0.23031265 4.3794719e-06 0)
(0.35962255 1.0812526e-05 0)
(0.53158534 2.3691885e-05 0)
(0.75137032 4.6984995e-05 0)
(1.0168241 8.3547512e-05 0)
(1.3125139 0.00012773879 0)
(1.6052051 0.00015293453 0)
(1.8460415 0.00012582106 0)
(1.9834196 4.8616914e-05 0)
(1.9834196 -4.8615876e-05 0)
(1.8460415 -0.00012581943 0)
(1.6052051 -0.00015293305 0)
(1.3125139 -0.00012773991 0)
(1.0168241 -8.3553904e-05 0)
(0.75137032 -4.6997118e-05 0)
(0.53158534 -2.3706976e-05 0)
(0.35962255 -1.0826408e-05 0)
(0.23031265 -4.3896095e-06 0)
(0.13574065 -1.4783837e-06 0)
(0.06790161 -3.5016543e-07 0)
(0.019889404 -5.0916731e-08 0)
(0.019886753 4.4699977e-08 0)
(0.067892689 3.1095022e-07 0)
(0.13572314 1.3208455e-06 0)
(0.23028377 3.9322949e-06 0)
(0.35957937 9.7161135e-06 0)
(0.53152595 2.1316103e-05 0)
(0.75129651 4.2361169e-05 0)
(1.0167466 7.5621172e-05 0)
(1.3124581 0.00011654374 0)
(1.6052027 0.00014169988 0)
(1.8460983 0.00011827178 0)
(1.9835117 4.6032171e-05 0)
(1.9835117 -4.6030545e-05 0)
(1.8460983 -0.00011826949 0)
(1.6052027 -0.00014169786 0)
(1.3124581 -0.00011654489 0)
(1.0167466 -7.5628549e-05 0)
(0.75129651 -4.2375229e-05 0)
(0.53152595 -2.1333564e-05 0)
(0.35957937 -9.73213e-06 0)
(0.23028377 -3.9439612e-06 0)
(0.13572314 -1.3284139e-06 0)
(0.067892688 -3.1500709e-07 0)
(0.019886753 -4.5920573e-08 0)
(0.019884364 4.0387644e-08 0)
(0.067884648 2.8104674e-07 0)
(0.13570736 1.1941868e-06 0)
(0.23025771 3.5565847e-06 0)
(0.35954037 8.7931489e-06 0)
(0.53147218 1.9310582e-05 0)
(0.75122937 3.844113e-05 0)
(1.0166753 6.8840292e-05 0)
(1.3124053 0.00010678499 0)
(1.6051983 0.0001315535 0)
(1.8461504 0.00011132883 0)
(1.9835985 4.3631928e-05 0)
(1.9835985 -4.3629722e-05 0)
(1.8461504 -0.0001113259 0)
(1.6051983 -0.00013155096 0)
(1.3124053 -0.00010678622 0)
(1.0166753 -6.884875e-05 0)
(0.75122937 -3.8457242e-05 0)
(0.53147218 -1.9330518e-05 0)
(0.35954037 -8.8113729e-06 0)
(0.2302577 -3.5698209e-06 0)
(0.13570736 -1.2027495e-06 0)
(0.067884647 -2.856266e-07 0)
(0.019884363 -4.1764228e-08 0)
(0.019882197 3.6713051e-08 0)
(0.067877353 2.5554779e-07 0)
(0.13569303 1.0861147e-06 0)
(0.23023404 3.2357391e-06 0)
(0.35950492 8.0038613e-06 0)
(0.53142323 1.759152e-05 0)
(0.751168 3.5068242e-05 0)
(1.0166096 6.2965543e-05 0)
(1.3123554 9.8204706e-05 0)
(1.6051923 0.00012233488 0)
(1.8461983 0.000104914 0)
(1.9836804 4.1391399e-05 0)
(1.9836804 -4.1388639e-05 0)
(1.8461983 -0.00010491045 0)
(1.6051923 -0.00012233188 0)
(1.3123554 -9.8206068e-05 0)
(1.0166096 -6.2975153e-05 0)
(0.751168 -3.5086466e-05 0)
(0.53142323 -1.7613961e-05 0)
(0.35950492 -8.0242952e-06 0)
(0.23023404 -3.2505342e-06 0)
(0.13569303 -1.095657e-06 0)
(0.067877352 -2.6063965e-07 0)
(0.019882196 -3.8241907e-08 0)
(0.019880221 3.3541061e-08 0)
(0.0678707 2.3352279e-07 0)
(0.13567997 9.9271597e-07 0)
(0.23021245 2.9582769e-06 0)
(0.35947254 7.3205994e-06 0)
(0.53137845 1.6100762e-05 0)
(0.75111168 3.2134058e-05 0)
(1.0165488 5.7824815e-05 0)
(1.3123083 9.0603967e-05 0)
(1.6051852 0.00011395465 0)
(1.8462424 9.8956802e-05 0)
(1.9837577 3.9290025e-05 0)
(1.9837577 -3.9286743e-05 0)
(1.8462424 -9.8952675e-05 0)
(1.6051852 -0.00011395122 0)
(1.3123083 -9.0605508e-05 0)
(1.0165488 -5.7835605e-05 0)
(0.75111168 -3.2154376e-05 0)
(0.53137845 -1.6125644e-05 0)
(0.35947254 -7.3431616e-06 0)
(0.23021244 -2.9745599e-06 0)
(0.13567997 -1.0031847e-06 0)
(0.067870699 -2.3909529e-07 0)
(0.01988022 -3.5212348e-08 0)
(0.019878411 3.0777535e-08 0)
(0.067864605 2.143225e-07 0)
(0.13566799 9.1125378e-07 0)
(0.23019265 2.7161299e-06 0)
(0.35944284 6.7237634e-06 0)
(0.53133731 1.479668e-05 0)
(0.7510598 2.9560777e-05 0)
(1.0164925 5.3293973e-05 0)
(1.3122639 8.3833052e-05 0)
(1.6051773 0.00010632521 0)
(1.8462831 9.3404038e-05 0)
(1.9838307 3.731361e-05 0)
(1.9838307 -3.7309839e-05 0)
(1.8462831 -9.3399384e-05 0)
(1.6051773 -0.00010632138 0)
(1.3122639 -8.3834804e-05 0)
(1.0164925 -5.3305917e-05 0)
(0.75105981 -2.9583082e-05 0)
(0.53133731 -1.4823833e-05 0)
(0.35944284 -6.7482765e-06 0)
(0.23019264 -2.7337624e-06 0)
(0.13566799 -9.2255356e-07 0)
(0.067864603 -2.2032204e-07 0)
(0.01987841 -3.2574811e-08 0)
(0.019876746 2.8348649e-08 0)
(0.067858998 1.9743872e-07 0)
(0.13565698 8.3958931e-07 0)
(0.23017443 2.5029983e-06 0)
(0.35941549 6.1980316e-06 0)
(0.53129939 1.3646523e-05 0)
(0.75101187 2.7286455e-05 0)
(1.0164402 4.9273187e-05 0)
(1.312222 7.7769161e-05 0)
(1.6051688 9.935723e-05 0)
(1.8463207 8.8214296e-05 0)
(1.9838998 3.5450773e-05 0)
(1.9838998 -3.5446551e-05 0)
(1.8463207 -8.8209171e-05 0)
(1.6051688 -9.9353066e-05 0)
(1.312222 -7.7771144e-05 0)
(1.0164402 -4.9286207e-05 0)
(0.75101187 -2.7310543e-05 0)
(0.53129939 -1.3675662e-05 0)
(0.35941549 -6.2242183e-06 0)
(0.23017442 -2.5217719e-06 0)
(0.13565697 -8.515809e-07 0)
(0.067858996 -2.03789e-07 0)
(0.019876746 -3.0248726e-08 0)
(0.01987521 2.6196368e-08 0)
(0.067853823 1.8247125e-07 0)
(0.13564681 7.7603598e-07 0)
(0.2301576 2.3139105e-06 0)
(0.35939022 5.7313041e-06 0)
(0.53126433 1.2624358e-05 0)
(0.75096745 2.526156e-05 0)
(1.0163915 4.5681042e-05 0)
(1.3121825 7.23095e-05 0)
(1.60516 9.2974409e-05 0)
(1.8463556 8.3350996e-05 0)
(1.9839652 3.3690863e-05 0)
(1.9839652 -3.3686248e-05 0)
(1.8463556 -8.3345456e-05 0)
(1.60516 -9.296997e-05 0)
(1.3121825 -7.2311711e-05 0)
(1.0163915 -4.5694996e-05 0)
(0.75096746 -2.5287129e-05 0)
(0.53126433 -1.2655087e-05 0)
(0.35939022 -5.7587927e-06 0)
(0.2301576 -2.3335526e-06 0)
(0.1356468 -7.8854129e-07 0)
(0.067853821 -1.8907617e-07 0)
(0.019875209 -2.8170242e-08 0)
(0.019873788 2.4275519e-08 0)
(0.067849032 1.6910784e-07 0)
(0.13563739 7.1927527e-07 0)
(0.23014202 2.1449716e-06 0)
(0.35936681 5.3140783e-06 0)
(0.53123181 1.1709763e-05 0)
(0.7509262 2.3446869e-05 0)
(1.016346 4.2452089e-05 0)
(1.3121452 6.7369043e-05 0)
(1.6051509 8.7108503e-05 0)
(1.8463879 7.878579e-05 0)
(1.9840271 3.2025296e-05 0)
(1.9840271 -3.2020354e-05 0)
(1.8463879 -7.8779899e-05 0)
(1.6051509 -8.7103849e-05 0)
(1.3121452 -6.7371454e-05 0)
(1.016346 -4.2466774e-05 0)
(0.75092621 -2.3473521e-05 0)
(0.53123182 -1.1741583e-05 0)
(0.35936681 -5.3424111e-06 0)
(0.23014202 -2.1651509e-06 0)
(0.13563739 -7.3208057e-07 0)
(0.067849031 -1.7585321e-07 0)
(0.019873788 -2.6288895e-08 0)
(0.019872469 2.2550554e-08 0)
(0.067844586 1.5710242e-07 0)
(0.13562865 6.6826694e-07 0)
(0.23012755 1.9931044e-06 0)
(0.35934507 4.9388313e-06 0)
(0.53120159 1.0886529e-05 0)
(0.7508878 2.181116e-05 0)
(1.0163036 3.9533808e-05 0)
(1.31211 6.2877925e-05 0)
(1.6051418 8.1702994e-05 0)
(1.8464179 7.4492466e-05 0)
(1.9840857 3.0445933e-05 0)
(1.9840857 -3.044074e-05 0)
(1.8464179 -7.4486295e-05 0)
(1.6051418 -8.169819e-05 0)
(1.31211 -6.2880492e-05 0)
(1.0163036 -3.954897e-05 0)
(0.75088781 -2.1838421e-05 0)
(0.5312016 -1.0918861e-05 0)
(0.35934507 -4.9674865e-06 0)
(0.23012755 -2.0134471e-06 0)
(0.13562865 -6.811333e-07 0)
(0.067844585 -1.6386154e-07 0)
(0.019872468 -2.4565494e-08 0)
(0.019871241 2.0993009e-08 0)
(0.067840451 1.4625789e-07 0)
(0.13562052 6.221773e-07 0)
(0.23011409 1.8558406e-06 0)
(0.35932483 4.5995182e-06 0)
(0.53117345 1.0141593e-05 0)
(0.75085198 2.0329175e-05 0)
(1.0162638 3.6883505e-05 0)
(1.3120769 5.8778436e-05 0)
(1.6051328 7.6707626e-05 0)
(1.8464458 7.0451898e-05 0)
(1.9841413 2.8946728e-05 0)
(1.9841413 -2.8941367e-05 0)
(1.8464458 -7.0445534e-05 0)
(1.6051328 -7.6702745e-05 0)
(1.3120769 -5.87811e-05 0)
(1.0162638 -3.6898853e-05 0)
(0.75085199 -2.0356521e-05 0)
(0.53117345 -1.0173805e-05 0)
(0.35932483 -4.6279311e-06 0)
(0.23011409 -1.8759447e-06 0)
(0.13562052 -6.3484954e-07 0)
(0.06784045 -1.5289623e-07 0)
(0.019871241 -2.2969341e-08 0)
(0.019870098 1.9579829e-08 0)
(0.067836597 1.3641462e-07 0)
(0.13561294 5.803311e-07 0)
(0.23010155 1.7311804e-06 0)
(0.35930596 4.2912385e-06 0)
(0.53114719 9.4643526e-06 0)
(0.75081853 1.8980353e-05 0)
(1.0162266 3.4466186e-05 0)
(1.3120456 5.502244e-05 0)
(1.6051238 7.2081598e-05 0)
(1.8464718 6.6643323e-05 0)
(1.9841939 2.7521255e-05 0)
(1.9841939 -2.7515807e-05 0)
(1.8464718 -6.663687e-05 0)
(1.6051238 -7.2076721e-05 0)
(1.3120456 -5.5025139e-05 0)
(1.0162266 -3.4481408e-05 0)
(0.75081854 -1.9007227e-05 0)
(0.53114719 -9.4957865e-06 0)
(0.35930596 -4.3188246e-06 0)
(0.23010154 -1.7506314e-06 0)
(0.13561294 -5.9254729e-07 0)
(0.067836596 -1.4279461e-07 0)
(0.019870097 -2.1476545e-08 0)
(0.01986903 1.8292099e-08 0)
(0.067832999 1.2744177e-07 0)
(0.13560587 5.4217504e-07 0)
(0.23008983 1.6174841e-06 0)
(0.35928834 4.0099699e-06 0)
(0.53112265 8.8460886e-06 0)
(0.75078723 1.7747741e-05 0)
(1.0161917 3.2252905e-05 0)
(1.312016 5.1569738e-05 0)
(1.6051149 6.7787081e-05 0)
(1.8464961 6.3053509e-05 0)
(1.9842437 2.616548e-05 0)
(1.9842437 -2.6160031e-05 0)
(1.846496 -6.3047086e-05 0)
(1.6051149 -6.7782297e-05 0)
(1.312016 -5.1572407e-05 0)
(1.0161917 -3.2267682e-05 0)
(0.75078724 -1.7773582e-05 0)
(0.53112266 -8.876084e-06 0)
(0.35928834 -4.0361481e-06 0)
(0.23008983 -1.6358715e-06 0)
(0.13560587 -5.5367682e-07 0)
(0.067832998 -1.3342819e-07 0)
(0.01986903 -2.0068958e-08 0)
(0.019868032 1.7114185e-08 0)
(0.067829636 1.1923129e-07 0)
(0.13559925 5.0725231e-07 0)
(0.23007887 1.5133984e-06 0)
(0.35927185 3.7523924e-06 0)
(0.53109969 8.2796034e-06 0)
(0.75075791 1.6617322e-05 0)
(1.016159 3.021957e-05 0)
(1.3119881 4.8386297e-05 0)
(1.6051063 6.3794454e-05 0)
(1.8465187 5.9664269e-05 0)
(1.9842909 2.4874045e-05 0)
(1.9842909 -2.4868691e-05 0)
(1.8465187 -5.9658003e-05 0)
(1.6051063 -6.3789856e-05 0)
(1.3119881 -4.8388875e-05 0)
(1.016159 -3.0233588e-05 0)
(0.75075792 -1.6641582e-05 0)
(0.53109969 -8.3075206e-06 0)
(0.35927185 -3.7766018e-06 0)
(0.23007887 -1.530327e-06 0)
(0.13559925 -5.1779152e-07 0)
(0.067829635 -1.246946e-07 0)
(0.019868032 -1.8732678e-08 0)
(0.019867098 1.6032992e-08 0)
(0.067826487 1.1169282e-07 0)
(0.13559306 4.7518112e-07 0)
(0.23006861 1.4177914e-06 0)
(0.35925641 3.5157251e-06 0)
(0.53107817 7.758853e-06 0)
(0.75073042 1.5577301e-05 0)
(1.0161282 2.8345921e-05 0)
(1.3119617 4.544346e-05 0)
(1.6050979 6.0074208e-05 0)
(1.8465399 5.6467152e-05 0)
(1.9843357 2.3644627e-05 0)
(1.9843357 -2.3639476e-05 0)
(1.8465398 -5.6461176e-05 0)
(1.6050979 -6.0069894e-05 0)
(1.3119617 -4.5445894e-05 0)
(1.0161282 -2.8358884e-05 0)
(0.75073043 -1.559946e-05 0)
(0.53107818 -7.7840895e-06 0)
(0.35925641 -3.5374395e-06 0)
(0.23006861 -1.4328908e-06 0)
(0.13559306 -4.8452577e-07 0)
(0.067826486 -1.1651214e-07 0)
(0.019867098 -1.7457225e-08 0)
(0.019866223 1.5037485e-08 0)
(0.067823536 1.0475023e-07 0)
(0.13558725 4.4563986e-07 0)
(0.230059 1.3297105e-06 0)
(0.35924193 3.2976307e-06 0)
(0.53105799 7.2787652e-06 0)
(0.75070461 1.4617767e-05 0)
(1.0160992 2.6614766e-05 0)
(1.3119368 4.2716385e-05 0)
(1.6050898 5.6604667e-05 0)
(1.8465597 5.3444586e-05 0)
(1.9843781 2.2472243e-05 0)
(1.9843781 -2.2467413e-05 0)
(1.8465597 -5.3439038e-05 0)
(1.6050898 -5.6600738e-05 0)
(1.3119368 -4.2718629e-05 0)
(1.0160992 -2.6626401e-05 0)
(0.75070462 -1.4637348e-05 0)
(0.53105799 -7.3007678e-06 0)
(0.35924194 -3.3163687e-06 0)
(0.230059 -1.3426428e-06 0)
(0.13558725 -4.5357885e-07 0)
(0.067823535 -1.0881583e-07 0)
(0.019866222 -1.6234913e-08 0)
(0.019865401 1.4118293e-08 0)
(0.067820767 9.833895e-08 0)
(0.13558181 4.1835594e-07 0)
(0.23004997 1.248347e-06 0)
(0.35922834 3.0961182e-06 0)
(0.53103904 6.8350004e-06 0)
(0.75068036 1.3730225e-05 0)
(1.016072 2.5011471e-05 0)
(1.3119132 4.0184177e-05 0)
(1.6050819 5.3361903e-05 0)
(1.8465782 5.0592749e-05 0)
(1.9844183 2.1356135e-05 0)
(1.9844182 -2.1351752e-05 0)
(1.8465782 -5.058777e-05 0)
(1.6050819 -5.335846e-05 0)
(1.3119133 -4.0186197e-05 0)
(1.016072 -2.5021531e-05 0)
(0.75068037 -1.3746794e-05 0)
(0.53103904 -6.8532714e-06 0)
(0.35922835 -3.1114483e-06 0)
(0.23004997 -1.2588099e-06 0)
(0.13558181 -4.2470084e-07 0)
(0.067820766 -1.0155315e-07 0)
(0.019865401 -1.5059969e-08 0)
(0.01986463 1.326736e-08 0)
(0.067818166 9.2403403e-08 0)
(0.13557669 3.9309455e-07 0)
(0.23004149 1.1730057e-06 0)
(0.35921558 2.9094843e-06 0)
(0.53102123 6.4238638e-06 0)
(0.75065756 1.2907434e-05 0)
(1.0160463 2.3523331e-05 0)
(1.311891 3.7828017e-05 0)
(1.6050743 5.0330087e-05 0)
(1.8465956 4.7892903e-05 0)
(1.9844564 2.0290992e-05 0)
(1.9844564 -2.0287184e-05 0)
(1.8465956 -4.7888634e-05 0)
(1.6050743 -5.0327233e-05 0)
(1.311891 -3.7829788e-05 0)
(1.0160463 -2.3531598e-05 0)
(0.75065756 -1.292061e-05 0)
(0.53102123 -6.4379662e-06 0)
(0.35921558 -2.9210291e-06 0)
(0.23004149 -1.1807356e-06 0)
(0.13557669 -3.9768164e-07 0)
(0.067818166 -9.4681574e-08 0)
(0.01986463 -1.3928254e-08 0)
(0.019863904 1.2477823e-08 0)
(0.067815721 8.6896446e-08 0)
(0.13557188 3.6965673e-07 0)
(0.23003352 1.1030953e-06 0)
(0.35920357 2.7362667e-06 0)
(0.53100448 6.0421524e-06 0)
(0.7506361 1.2143104e-05 0)
(1.0160222 2.2139538e-05 0)
(1.3118699 3.5632521e-05 0)
(1.605067 4.748918e-05 0)
(1.8466119 4.534656e-05 0)
(1.9844924 1.9277769e-05 0)
(1.9844924 -1.9274659e-05 0)
(1.8466119 -4.5343138e-05 0)
(1.605067 -4.7487013e-05 0)
(1.3118699 -3.5634027e-05 0)
(1.0160222 -2.2145827e-05 0)
(0.75063611 -1.2152559e-05 0)
(0.53100448 -6.0517126e-06 0)
(0.35920358 -2.7437063e-06 0)
(0.23003352 -1.1078703e-06 0)
(0.13557188 -3.7234932e-07 0)
(0.067815722 -8.8168405e-08 0)
(0.019863905 -1.2837239e-08 0)
(0.019863222 1.1743602e-08 0)
(0.067813422 8.1775902e-08 0)
(0.13556736 3.4786408e-07 0)
(0.23002602 1.0380887e-06 0)
(0.35919228 2.5751803e-06 0)
(0.53098872 5.6870892e-06 0)
(0.75061589 1.1431778e-05 0)
(1.0159994 2.0850344e-05 0)
(1.31185 3.3582735e-05 0)
(1.60506 4.4827655e-05 0)
(1.8466272 4.2931815e-05 0)
(1.9845267 1.8310038e-05 0)
(1.9845267 -1.8307744e-05 0)
(1.8466272 -4.2929367e-05 0)
(1.60506 -4.4826268e-05 0)
(1.3118501 -3.3583965e-05 0)
(1.0159994 -2.0854498e-05 0)
(0.7506159 -1.1437237e-05 0)
(0.53098872 -5.6917983e-06 0)
(0.35919228 -2.5782527e-06 0)
(0.23002603 -1.0397283e-06 0)
(0.13556736 -3.4855182e-07 0)
(0.067813422 -8.1985446e-08 0)
(0.019863223 -1.1785038e-08 0)
(0.01986258 1.1059662e-08 0)
(0.067811257 7.7007425e-08 0)
(0.1355631 3.2757172e-07 0)
(0.23001897 9.7755253e-07 0)
(0.35918164 2.4251412e-06 0)
(0.53097387 5.3562736e-06 0)
(0.75059685 1.0768728e-05 0)
(1.0159779 1.9647736e-05 0)
(1.3118312 3.1667585e-05 0)
(1.6050532 4.2328537e-05 0)
(1.8466416 4.0657092e-05 0)
(1.9845591 1.7390984e-05 0)
(1.9845591 -1.738961e-05 0)
(1.8466416 -4.0655727e-05 0)
(1.6050532 -4.2328007e-05 0)
(1.3118312 -3.1668531e-05 0)
(1.0159779 -1.9649628e-05 0)
(0.75059686 -1.0769971e-05 0)
(0.53097387 -5.3558928e-06 0)
(0.35918165 -2.4236485e-06 0)
(0.23001897 -9.7592333e-07 0)
(0.1355631 -3.2617491e-07 0)
(0.067811258 -7.6114791e-08 0)
(0.019862581 -1.0771565e-08 0)
(0.019861976 1.0421184e-08 0)
(0.067809218 7.2557082e-08 0)
(0.13555908 3.0863556e-07 0)
(0.23001232 9.2106434e-07 0)
(0.35917163 2.2851338e-06 0)
(0.53095988 5.0475396e-06 0)
(0.7505789 1.0149686e-05 0)
(1.0159576 1.8523845e-05 0)
(1.3118134 2.987426e-05 0)
(1.6050468 3.9983058e-05 0)
(1.8466551 3.8494679e-05 0)
(1.9845899 1.6512052e-05 0)
(1.9845899 -1.6511686e-05 0)
(1.8466551 -3.8494492e-05 0)
(1.6050468 -3.998345e-05 0)
(1.3118134 -2.9874915e-05 0)
(1.0159576 -1.8523377e-05 0)
(0.75057891 -1.0146555e-05 0)
(0.53095988 -5.0419022e-06 0)
(0.35917163 -2.2789436e-06 0)
(0.23001232 -9.1607969e-07 0)
(0.13555909 -3.0510454e-07 0)
(0.067809219 -7.0538529e-08 0)
(0.019861976 -9.7968163e-09 0)
(0.019861406 9.8246848e-09 0)
(0.067807297 6.8401666e-08 0)
(0.1355553 2.9095798e-07 0)
(0.23000605 8.683257e-07 0)
(0.35916218 2.1543845e-06 0)
(0.53094669 4.7591176e-06 0)
(0.75056198 9.5711451e-06 0)
(1.0159384 1.7472986e-05 0)
(1.3117966 2.8195716e-05 0)
(1.6050406 3.7777541e-05 0)
(1.8466678 3.6462622e-05 0)
(1.9846189 1.5679674e-05 0)
(1.9846189 -1.5680377e-05 0)
(1.8466678 -3.6463673e-05 0)
(1.6050406 -3.7778896e-05 0)
(1.3117966 -2.819607e-05 0)
(1.0159385 -1.747009e-05 0)
(0.75056198 -9.5635441e-06 0)
(0.5309467 -4.7481364e-06 0)
(0.35916219 -2.1434371e-06 0)
(0.23000605 -8.5995196e-07 0)
(0.13555531 -2.8527734e-07 0)
(0.067807298 -6.5251756e-08 0)
(0.019861406 -8.8628116e-09 0)
(0.019860868 9.2659333e-09 0)
(0.067805484 6.4510355e-08 0)
(0.13555174 2.7440713e-07 0)
(0.23000014 8.1895742e-07 0)
(0.35915327 2.0320157e-06 0)
(0.53093425 4.4892053e-06 0)
(0.750546 9.0295641e-06 0)
(1.0159204 1.648822e-05 0)
(1.3117806 2.6619484e-05 0)
(1.6050347 3.5703752e-05 0)
(1.8466798 3.4523661e-05 0)
(1.9846466 1.4881704e-05 0)
(1.9846466 -1.4883512e-05 0)
(1.8466798 -3.4525991e-05 0)
(1.6050347 -3.5706087e-05 0)
(1.3117806 -2.6619525e-05 0)
(1.0159204 -1.6482861e-05 0)
(0.750546 -9.0174636e-06 0)
(0.53093425 -4.472876e-06 0)
(0.35915328 -2.0163265e-06 0)
(0.23000014 -8.0721455e-07 0)
(0.13555174 -2.665958e-07 0)
(0.067805486 -6.0241963e-08 0)
(0.019860869 -7.9708275e-09 0)
(0.019860362 8.7432322e-09 0)
(0.067803776 6.0873496e-08 0)
(0.13554838 2.5894345e-07 0)
(0.22999456 7.728213e-07 0)
(0.35914487 1.9175957e-06 0)
(0.53092251 4.2366707e-06 0)
(0.75053093 8.5226409e-06 0)
(1.0159033 1.5566365e-05 0)
(1.3117656 2.5143476e-05 0)
(1.605029 3.3753342e-05 0)
(1.8466911 3.2709832e-05 0)
(1.9846726 1.4129567e-05 0)
(1.9846726 -1.4132484e-05 0)
(1.8466911 -3.2713434e-05 0)
(1.6050291 -3.3756645e-05 0)
(1.3117656 -2.5143184e-05 0)
(1.0159033 -1.5558541e-05 0)
(0.75053093 -8.5060823e-06 0)
(0.53092252 -4.2150763e-06 0)
(0.35914488 -1.8972582e-06 0)
(0.22999457 -7.5778424e-07 0)
(0.13554838 -2.4905492e-07 0)
(0.067803778 -5.5517663e-08 0)
(0.019860362 -7.1246028e-09 0)
(0.019859883 8.2518969e-09 0)
(0.067802161 5.7455088e-08 0)
(0.1355452 2.4441169e-07 0)
(0.2299893 7.2948716e-07 0)
(0.35913693 1.8102022e-06 0)
(0.53091142 3.9997771e-06 0)
(0.75051668 8.0470266e-06 0)
(1.0158871 1.4700217e-05 0)
(1.3117513 2.3752953e-05 0)
(1.6050237 3.1914594e-05 0)
(1.8467018 3.0968873e-05 0)
(1.9846976 1.3405315e-05 0)
(1.9846976 -1.3409324e-05 0)
(1.8467018 -3.0973721e-05 0)
(1.6050237 -3.1918826e-05 0)
(1.3117513 -2.3752309e-05 0)
(1.0158871 -1.4689965e-05 0)
(0.75051668 -8.0261281e-06 0)
(0.53091142 -3.9730965e-06 0)
(0.35913694 -1.785399e-06 0)
(0.2299893 -7.1129712e-07 0)
(0.1355452 -2.325432e-07 0)
(0.067802164 -5.1066619e-08 0)
(0.019859884 -6.3266618e-09 0)
(0.019859432 7.7935136e-09 0)
(0.06780064 5.4271131e-08 0)
(0.1355422 2.308823e-07 0)
(0.22998433 6.8911151e-07 0)
(0.35912945 1.7099931e-06 0)
(0.53090097 3.7783981e-06 0)
(0.75050325 7.6022238e-06 0)
(1.0158719 1.3890477e-05 0)
(1.3117378 2.2453976e-05 0)
(1.6050185 3.0189951e-05 0)
(1.8467117 2.9353804e-05 0)
(1.9847209 1.272829e-05 0)
(1.9847209 -1.273334e-05 0)
(1.8467117 -2.9359809e-05 0)
(1.6050186 -3.0195045e-05 0)
(1.3117378 -2.2452955e-05 0)
(1.0158719 -1.387787e-05 0)
(0.75050325 -7.5771781e-06 0)
(0.53090097 -3.7468999e-06 0)
(0.35912946 -1.6809846e-06 0)
(0.22998434 -6.679642e-07 0)
(0.13554221 -2.1716402e-07 0)
(0.067800642 -4.6920893e-08 0)
(0.019859432 -5.5830919e-09 0)
(0.019859004 7.3602955e-09 0)
(0.067799198 5.1259318e-08 0)
(0.13553937 2.1808627e-07 0)
(0.22997963 6.509781e-07 0)
(0.35912236 1.6155623e-06 0)
(0.53089106 3.5701978e-06 0)
(0.75049051 7.1840106e-06 0)
(1.0158574 1.3127407e-05 0)
(1.311725 2.1224761e-05 0)
(1.6050137 2.8556685e-05 0)
(1.8467213 2.778953e-05 0)
(1.9847434 1.2071447e-05 0)
(1.9847434 -1.2077448e-05 0)
(1.8467213 -2.7796614e-05 0)
(1.6050137 -2.8562555e-05 0)
(1.311725 -2.1223349e-05 0)
(1.0158574 -1.3112565e-05 0)
(0.75049051 -7.1550947e-06 0)
(0.53089106 -3.5342522e-06 0)
(0.35912237 -1.5827009e-06 0)
(0.22997963 -6.2713785e-07 0)
(0.13553937 -2.0269223e-07 0)
(0.0677992 -4.304075e-08 0)
(0.019859005 -4.8926613e-09 0)
(0.019858602 6.9626126e-09 0)
(0.067797841 4.8503531e-08 0)
(0.1355367 2.0638248e-07 0)
(0.2299752 6.1600673e-07 0)
(0.35911569 1.5285606e-06 0)
(0.53088173 3.3774875e-06 0)
(0.75047853 6.7959841e-06 0)
(1.0158439 1.2419951e-05 0)
(1.3117129 2.0087684e-05 0)
(1.605009 2.7040276e-05 0)
(1.8467301 2.6361477e-05 0)
(1.9847642 1.146702e-05 0)
(1.9847642 -1.1473841e-05 0)
(1.8467301 -2.6369508e-05 0)
(1.605009 -2.704682e-05 0)
(1.3117129 -2.0085868e-05 0)
(1.0158439 -1.2403036e-05 0)
(0.75047853 -6.7635499e-06 0)