/*--------------------------------*- C++ -*----------------------------------*\
| =========                 |                                                 |
| \\      /  F ield         | OpenFOAM: The Open Source CFD Toolbox           |
|  \\    /   O peration     | Version:  2406                                  |
|   \\  /    A nd           | Website:  www.openfoam.com                      |
|    \\/     M anipulation  |                                                 |
\*---------------------------------------------------------------------------*/
FoamFile
{
    version     2.0;
    format      ascii;
    arch        "LSB;label=32;scalar=64";
    class       surfaceScalarField;
    location    "17.25";
    object      phi;
}
// * * * * * * * * * * * * * * * * * * * * * * * * * * * * * * * * * * * * * //

dimensions      [0 3 -1 0 0 0 0];

oriented        oriented;

internalField   nonuniform List<scalar> 
101088
(
-0.00017158314
3.7651939e-05
-1.5858865e-05
-3.1957011e-05
-0.00037862547
0.00017051672
-7.2328207e-05
-0.00014548169
-0.00060312595
0.00042548698
-0.000182565
-0.00036434522
-0.00080872362
0.00082444299
-0.0003603949
-0.00071041071
-0.00095221819
0.0013254248
-0.00058796179
-0.0011529795
-0.0010199383
0.0018282711
-0.0008014368
-0.0016030862
-0.0010534035
0.0022280658
-0.00091843073
-0.0019567183
-0.0011180962
0.0024488141
-0.00089768655
-0.0021396293
0.0024415171
-0.00076496175
-0.0021312628
-0.0012320653
-0.00020835954
4.1610656e-05
-1.8549172e-05
-0.00045361041
0.00018915999
-8.497514e-05
-0.0007074629
0.00047137574
-0.00021527049
-0.00091776935
0.00090767684
-0.00042544592
-0.0010319834
0.0014487364
-0.0006928331
-0.0010429885
0.0019908269
-0.00094161343
-0.0010074067
0.0024298367
-0.0010782061
-0.00099796688
0.0026817357
-0.0010595041
0.0026804555
-0.00091595234
-0.0010456886
-0.00024602392
4.3852521e-05
-2.075246e-05
-0.000530472
0.00020020712
-9.5681959e-05
-0.00081519525
0.00049932535
-0.00024358817
-0.0010349986
0.00095766536
-0.00048209471
-0.0011282795
0.0015192778
-0.00078276718
-0.0010917675
0.002081616
-0.0010578198
-0.00099433999
0.002545502
-0.0012053321
-0.0009199924
0.0028211724
-0.0011828083
0.0028334926
-0.0010280345
-0.00091161476
-0.00028313179
4.4298634e-05
-2.2436901e-05
-0.0006068397
0.00020315565
-0.00010421526
-0.00092286554
0.00050726266
-0.00026680797
-0.00115348
0.00097009628
-0.00052900827
-0.0012315179
0.0015326752
-0.00085636391
-0.0011585364
0.002096517
-0.0011498342
-0.0010146925
0.0025712631
-0.0013012577
-0.00089239492
0.0028636907
-0.001271296
0.0028919823
-0.0011056406
-0.00083806629
-0.00031830832
4.2454989e-05
-2.3477233e-05
-0.00067942942
0.00019653626
-0.00011008188
-0.0010264097
0.00049312042
-0.00028391202
-0.0012710449
0.00094330622
-0.00056483006
-0.0013418254
0.0014882054
-0.0009127454
-0.0012456422
0.0020366418
-0.001218612
-0.0010703746
0.0025070705
-0.001368614
-0.00091417126
0.0028080355
-0.0013292261
0.0028517378
-0.0011536095
-0.00082356287
-0.00035207796
3.9149423e-05
-2.3941336e-05
-0.00075146647
0.0001827623
-0.00011350584
-0.0011332394
0.00046066187
-0.00029535875
-0.0013990085
0.00088167526
-0.00059034407
-0.0014726838
0.0013898622
-0.00095307395
-0.0013659967
0.0019049818
-0.0012653869
-0.001170607
0.0023530356
-0.001410428
-0.00098955523
0.0026522753
-0.0013605943
0.0027083051
-0.0011763242
-0.00086785301
-0.00038233254
3.4332592e-05
-2.3894743e-05
-0.00081675191
0.00016184928
-0.00011463371
-0.0012318744
0.00041036385
-0.00030119125
-0.0015213035
0.00078703893
-0.00060530478
-0.0016059451
0.0012417581
-0.00097711957
-0.0015009021
0.0017071674
-0.0012911006
-0.0012982264
0.0021147033
-0.0014288874
-0.0011024567
0.0023997132
-0.0013686338
0.0024633992
-0.0011776677
-0.00095701337
-0.00040887156
2.8328181e-05
-2.3408927e-05
-0.00087535951
0.00013501725
-0.00011375926
-0.0013230631
0.00034482238
-0.00030210426
-0.0016389562
0.00066365592
-0.00061106824
-0.0017410582
0.0010494651
-0.00098723681
-0.0016460036
0.0014488792
-0.0012992173
-0.0014463425
0.0017997856
-0.001428764
-0.0012429622
0.002055298
-0.0013585915
0.0021205842
-0.0011628587
-0.0010787471
-0.00043118582
2.154483e-05
-2.2641259e-05
-0.00092600972
0.00010389108
-0.00011149831
-0.0014043823
0.00026746332
-0.00029941037
-0.0017479077
0.00051707288
-0.0006098607
-0.001871702
0.00082026855
-0.00098678831
-0.001791565
0.0011373813
-0.0012943759
-0.0016014204
0.0014175026
-0.0014154005
-0.0013957285
0.0016275874
-0.0013363611
0.0016870534
-0.0011376365
-0.0012164356
-0.00044877049
1.4441748e-05
-2.1796593e-05
-0.00096716912
7.035014e-05
-0.00010868547
-0.0014725961
0.00018233852
-0.00029490423
-0.0018423778
0.00035384188
-0.0006046644
-0.0019887077
0.00056285596
-0.00098006238
-0.0019257313
0.00078318764
-0.0012822036
-0.0017474521
0.00097928364
-0.0013951553
-0.0015423514
0.0011292597
-0.0013088026
0.0011749317
-0.0011084263
-0.0013508059
-0.00046084197
7.2904959e-06
-2.1127623e-05
-0.00099599081
3.5626313e-05
-0.00010629521
-0.0015213781
9.2555159e-05
-0.00029058849
-0.0019115497
0.00017978739
-0.00059865798
-0.0020766171
0.000286259
-0.00097149325
-0.0020292156
0.00039914034
-0.0012684539
-0.0018619867
0.00050029302
-0.0013747823
-0.0016589031
0.00057853782
-0.0012830971
0.00060347042
-0.0010820679
-0.0014586409
-0.00046692338
-4.3313219e-11
-2.0691363e-05
-0.0010106013
-2.1299967e-10
-0.00010471178
-0.001546411
-5.3957228e-10
-0.00028763966
-0.001947766
-9.8265202e-10
-0.00059445075
-0.002123779
-1.4286001e-09
-0.00096566849
-0.0020859217
-1.8136649e-09
-0.0012597458
-0.001925506
-1.8018863e-09
-0.0013624468
-0.0017241629
-8.8166701e-10
-0.0012679068
7.1328598e-10
-0.0010666024
-0.0015194654
-0.0004669235
-7.2906131e-06
-2.0691361e-05
-0.0010106013
-3.56268e-05
-0.00010471177
-0.0015464107
-9.2556228e-05
-0.00028763963
-0.0019477657
-0.00017978928
-0.00059445071
-0.0021237789
-0.00028626185
-0.00096566842
-0.0020859217
-0.00039914402
-0.0012597458
-0.0019255059
-0.00050029662
-0.0013624468
-0.0017241627
-0.00057853937
-0.0012679068
-0.00060346898
-0.0010666024
-0.0015194652
-0.00046084211
-1.4441833e-05
-2.1127625e-05
-0.0009959908
-7.0350499e-05
-0.00010629523
-0.001521378
-0.00018233938
-0.00029058853
-0.0019115495
-0.00035384365
-0.00059865808
-0.0020766172
-0.00056285893
-0.00097149335
-0.0020292158
-0.00078319153
-0.0012684541
-0.0018619867
-0.0009792873
-0.0013747825
-0.0016589027
-0.0011292611
-0.0012830972
-0.0011749306
-0.0010820678
-0.0014586407
-0.00044877051
-2.1544845e-05
-2.1796593e-05
-0.0009671691
-0.00010389128
-0.00010868548
-0.0014725963
-0.00026746422
-0.00029490424
-0.0018423776
-0.0005170749
-0.00060466445
-0.0019887073
-0.00082027157
-0.00098006235
-0.0019257308
-0.001137385
-0.0012822036
-0.0017474515
-0.0014175061
-0.0013951553
-0.0015423512
-0.0016275891
-0.0013088027
-0.0016870526
-0.0011084262
-0.001350806
-0.00043118631
-2.8328192e-05
-2.2641264e-05
-0.00092601014
-0.00013501737
-0.00011149832
-0.0014043826
-0.00034482305
-0.0002994104
-0.0017479077
-0.00066365751
-0.00060986079
-0.0018717013
-0.0010494674
-0.00098678834
-0.0017915641
-0.0014488825
-0.001294376
-0.0016014198
-0.0017997891
-0.0014154005
-0.0013957287
-0.0020553003
-0.0013363612
-0.0021205832
-0.0011376366
-0.0012164359
-0.00040887175
-3.4332655e-05
-2.3408936e-05
-0.00087535947
-0.00016184944
-0.00011375929
-0.001323063
-0.00041036432
-0.00030210433
-0.0016389562
-0.0007870401
-0.0006110684
-0.0017410582
-0.00124176
-0.00098723695
-0.0016460033
-0.0017071708
-0.0012992175
-0.0014463427
-0.0021147075
-0.0014287641
-0.0012429627
-0.0023997158
-0.0013585917
-0.0024633976
-0.0011628589
-0.0010787475
-0.00038233263
-3.9149473e-05
-2.3894753e-05
-0.00081675241
-0.00018276249
-0.00011463375
-0.0012318746
-0.00046066238
-0.00030119134
-0.0015213039
-0.00088167647
-0.00060530496
-0.0016059463
-0.0013898643
-0.0009771198
-0.0015009029
-0.0019049852
-0.0012911009
-0.0012982273
-0.0023530397
-0.0014288877
-0.0011024572
-0.0026522775
-0.001368634
-0.0027083036
-0.0011776678
-0.00095701359
-0.00035207811
-4.2454999e-05
-2.3941347e-05
-0.00075146668
-0.00019653629
-0.00011350588
-0.0011332391
-0.00049312053
-0.00029535885
-0.0013990091
-0.0009433068
-0.00059034428
-0.001472686
-0.001488207
-0.00095307426
-0.0013659985
-0.002036645
-0.0012653874
-0.0011706084
-0.0025070743
-0.0014104286
-0.0009895563
-0.0028080378
-0.0013605947
-0.0028517373
-0.0011763243
-0.00086785318
-0.00031830822
-4.4298616e-05
-2.3477236e-05
-0.0006794291
-0.00020315562
-0.00011008189
-0.0010264096
-0.00050726265
-0.00028391204
-0.0012710459
-0.00097009664
-0.0005648301
-0.0013418278
-0.0015326767
-0.00091274545
-0.001245644
-0.0020965195
-0.0012186122
-0.0010703762
-0.0025712665
-0.0013686143
-0.0009141731
-0.0028636937
-0.0013292263
-0.0028919833
-0.0011536096
-0.00082356308
-0.0002831318
-4.3852461e-05
-2.2436896e-05
-0.00060684002
-0.00020020698
-0.00010421524
-0.00092286633
-0.00049932517
-0.00026680791
-0.0011534813
-0.00095766538
-0.00052900813
-0.0012315199
-0.0015192786
-0.00085636374
-0.0011585389
-0.0020816175
-0.0011498342
-0.001014695
-0.0025455042
-0.0013012578
-0.00089239705
-0.0028211753
-0.0012712961
-0.0028334956
-0.0011056407
-0.00083806624
-0.0002460239
-4.1610571e-05
-2.0752451e-05
-0.00053047215
-0.00018915975
-9.5681918e-05
-0.00081519544
-0.0004713754
-0.00024358806
-0.0010349991
-0.00090767668
-0.0004820945
-0.0011282807
-0.0014487367
-0.00078276691
-0.00109177
-0.0019908277
-0.0010578196
-0.00099434267
-0.0024298374
-0.0012053321
-0.00091999443
-0.0026817382
-0.0011828085
-0.0026804599
-0.0010280346
-0.00091161484
-0.00020835953
-3.7651923e-05
-1.8549169e-05
-0.00045361053
-0.00017051671
-8.4975124e-05
-0.0007074631
-0.00042548709
-0.00021527045
-0.00091776969
-0.0008244433
-0.00042544586
-0.0010319841
-0.0013254255
-0.00069283304
-0.00104299
-0.0018282723
-0.0009416134
-0.0010074085
-0.0022280666
-0.0010782061
-0.00099796721
-0.0024488167
-0.0010595044
-0.0024415222
-0.00091595256
-0.001045688
-0.00017158318
-1.5858866e-05
-3.1957035e-05
-0.00037862549
-7.2328209e-05
-0.00014548179
-0.0006031256
-0.000182565
-0.00036434545
-0.00080872281
-0.00036039491
-0.00071041109
-0.00095221793
-0.0005879618
-0.0011529802
-0.0010199382
-0.00080143683
-0.0016030881
-0.001053403
-0.00091843092
-0.0019567205
-0.0011180968
-0.0008976868
-0.0021396313
-0.00076496184
-0.0021312651
-0.0012320679
8.7658884e-07
-7.4741301e-07
-1.575213e-05
-2.3591096e-07
3.6589543e-06
-3.795561e-06
-7.0929623e-05
-3.8538197e-07
7.5255678e-06
-1.1220423e-05
-0.00017629734
1.0861306e-06
9.8055669e-06
-2.7874574e-05
-0.00034272671
7.9263497e-06
9.1630391e-06
-6.0259116e-05
-0.00055369611
2.663602e-05
9.747487e-06
-0.00011085626
-0.0007524131
6.1248345e-05
1.8375791e-05
-0.00017234622
-0.00086322426
0.00010851176
3.9252183e-05
-0.00022872808
-0.00084596535
0.00015613073
-0.00026230335
-0.00072206321
0.00018985488
6.8801795e-05
1.4668549e-06
-2.0768229e-06
-1.8686632e-05
6.1545229e-06
-9.4125374e-06
-8.4045852e-05
1.2763397e-05
-2.4502942e-05
-0.00020859695
1.6836139e-05
-5.2990304e-05
-0.00040440311
1.5503213e-05
-0.000100901
-0.00065085855
1.2451956e-05
-0.00016822939
-0.00088118935
1.524415e-05
-0.00024360801
-0.0010097366
2.8664875e-05
-0.0003074585
-0.00099419479
-0.00034089201
-0.00086145305
5.2754035e-05
2.2169826e-06
-3.6808615e-06
-2.1365372e-05
9.1734805e-06
-1.6045964e-05
-9.6004954e-05
1.8768846e-05
-3.9801224e-05
-0.00023788529
2.4289323e-05
-8.1020155e-05
-0.00045958546
2.1069264e-05
-0.00014468921
-0.00073575893
1.2798846e-05
-0.00022796959
-0.00098980885
7.8495133e-06
-0.00031591251
-0.0011280785
1.2490207e-05
-0.00038554341
-0.0011093644
-0.00041698258
-0.00096780573
2.8351743e-05
3.053378e-06
-5.391183e-06
-2.3779933e-05
1.2499655e-05
-2.2989472e-05
-0.000106718
2.5221359e-05
-5.5445693e-05
-0.00026388524
3.1902345e-05
-0.0001088484
-0.0005078612
2.5977819e-05
-0.00018671687
-0.0008084118
1.1568502e-05
-0.00028351559
-0.0010798791
-1.5544785e-06
-0.0003815688
-0.0012224786
-5.5361367e-06
-0.00045492834
-0.0011979295
-0.00048231967
-0.0010477138
1.874137e-06
3.8926942e-06
-6.9516165e-06
-2.5809481e-05
1.5836447e-05
-2.9253956e-05
-0.00011576122
3.1605106e-05
-6.9289413e-05
-0.00028583728
3.9123751e-05
-0.00013280936
-0.00054838775
3.002494e-05
-0.00022178927
-0.00086857375
9.1362675e-06
-0.00032851933
-0.0011527198
-1.1574906e-05
-0.00043310398
-0.0012963679
-2.3027272e-05
-0.00050774728
-0.0012649546
-0.00052985026
-0.0011067126
-2.2393819e-05
4.807344e-06
-8.2029943e-06
-2.7497265e-05
1.9468906e-05
-3.4136284e-05
-0.000123285
3.858126e-05
-7.9711279e-05
-0.00030404973
4.7196855e-05
-0.00015002685
-0.00058174203
3.5186339e-05
-0.00024550639
-0.00091734594
8.5017878e-06
-0.00035684468
-0.0012103772
-1.8863664e-05
-0.00046317191
-0.0013529948
-3.6554834e-05
-0.00053608606
-0.0013145644
-0.00055233072
-0.0011491646
-4.1234318e-05
5.6263715e-06
-8.8631536e-06
-2.8860889e-05
2.276494e-05
-3.6578783e-05
-0.00012932977
4.4938015e-05
-8.4510234e-05
-0.00031856548
5.4529009e-05
-0.00015692883
-0.00060799371
3.993342e-05
-0.00025301352
-0.00095501655
8.4102353e-06
-0.00036269578
-0.0012537265
-2.4198764e-05
-0.00046531636
-0.001394134
-4.6227839e-05
-0.000533343
-0.0013493478
-0.00054397609
-0.0011781679
-5.4082494e-05
6.3376901e-06
-8.7249493e-06
-2.9884615e-05
2.5681076e-05
-3.5788073e-05
-0.00013389362
5.0647719e-05
-8.2041368e-05
-0.00032953979
6.1267465e-05
-0.00015086732
-0.00062774944
4.4692294e-05
-0.00024066797
-0.00098300736
9.5808033e-06
-0.00034161405
-0.0012851879
-2.6879621e-05
-0.00043462831
-0.0014229918
-5.145574e-05
-0.00049452382
-0.0013728347
-0.00050042169
-0.0011971953
-6.0673499e-05
6.9103711e-06
-7.670326e-06
-3.0606147e-05
2.8101478e-05
-3.1333329e-05
-0.0001371442
5.5503151e-05
-7.1451345e-05
-0.00033740199
6.720116e-05
-0.00013052684
-0.00064189905
4.93427e-05
-0.00020672225
-0.0010028756
1.1876011e-05
-0.00029148471
-0.0013070386
-2.7076729e-05
-0.00036874762
-0.0014423286
-5.2727467e-05
-0.00041733605
-0.0013878981
-0.00041985442
-0.0012089952
-6.1935855e-05
7.3532764e-06
-5.7356718e-06
-3.1084489e-05
3.0026783e-05
-2.3361052e-05
-0.00013933121
5.948165e-05
-5.3079129e-05
-0.00034273152
7.2303183e-05
-9.6526048e-05
-0.00065148687
5.3840407e-05
-0.0001521221
-0.0010161998
1.5023975e-05
-0.00021353554
-0.0013213362
-2.5290156e-05
-0.000269136
-0.0014544528
-5.1067883e-05
-0.00030352037
-0.0013968404
-0.00030413207
-0.0012156945
-5.9521807e-05
7.6592657e-06
-3.0901589e-06
-3.143229e-05
3.1374132e-05
-1.2540172e-05
-0.00014083086
6.2310351e-05
-2.8392844e-05
-0.00034621112
7.6041957e-05
-5.1450142e-05
-0.00065746547
5.7363511e-05
-8.0804091e-05
-0.0010241327
1.7855748e-05
-0.00011308997
-0.0013293917
-2.3064019e-05
-0.0001422161
-0.0014607824
-4.8547427e-05
-0.00016005449
-0.0014010795
-0.00016002133
-0.0012186448
-5.6081128e-05
7.7583066e-06
3.3576028e-11
-3.1539799e-05
3.1874496e-05
1.2107636e-10
-0.00014136825
6.3434703e-05
2.4801267e-10
-0.00034759289
7.7555744e-05
4.336432e-10
-0.00066002216
5.8770492e-05
5.8399621e-10
-0.0010276879
1.9006918e-05
5.5271377e-10
-0.0013330729
-2.20081e-05
4.5865381e-10
-0.0014636483
-4.7035909e-05
5.0194372e-10
-0.0014029341
6.9682694e-10
-0.0012198928
-5.3767637e-05
7.7582996e-06
3.0902269e-06
-3.1539794e-05
3.1874495e-05
1.2540407e-05
-0.00014136823
6.3434747e-05
2.8393291e-05
-0.00034759284
7.7555668e-05
5.1450861e-05
-0.00066002208
5.8770322e-05
8.0805039e-05
-0.0010276877
1.9006763e-05
0.00011309088
-0.0013330728
-2.2008217e-05
0.00014221688
-0.0014636483
-4.7035931e-05
0.0001600555
-0.0014029341
0.00016002275
-0.0012198928
-5.3767582e-05
7.6592433e-06
5.735723e-06
-3.1432291e-05
3.1374041e-05
2.3361236e-05
-0.00014083087
6.2310403e-05
5.3079482e-05
-0.00034621112
7.6041843e-05
9.6526564e-05
-0.00065746548
5.7363178e-05
0.00015212274
-0.0010241327
1.7855401e-05
0.00021353615
-0.0013293917
-2.3064258e-05
0.00026913653
-0.0014607825
-4.8547504e-05
0.00030352136
-0.0014010796
0.0003041335
-0.0012186449
-5.6081108e-05
7.3532697e-06
7.6703608e-06
-3.1084485e-05
3.002663e-05
3.1333474e-05
-0.00013933119
5.9481586e-05
7.1451639e-05
-0.00034273147
7.2303029e-05
0.00013052725
-0.0006514868
5.3840085e-05
0.00020672272
-0.0010161996
1.5023645e-05
0.00029148512
-0.0013213361
-2.5290299e-05
0.00036874796
-0.0014544527
-5.106799e-05
0.00041733689
-0.0013968404
0.00041985585
-0.0012156946
-5.952205e-05
6.910223e-06
8.7249773e-06
-3.0606147e-05
2.8101277e-05
3.5788197e-05
-0.00013714419
5.5502888e-05
8.2041557e-05
-0.00033740197
6.720078e-05
0.00015086753
-0.00064189904
4.9342319e-05
0.00024066827
-0.0010028756
1.1875734e-05
0.00034161429
-0.0013070386
-2.7076819e-05
0.00043462849
-0.0014423285
-5.2727623e-05
0.00049452452
-0.0013878981
0.00050042343
-0.0012089954
-6.1936335e-05
6.3374213e-06
8.863188e-06
-2.9884618e-05
2.5681004e-05
3.6578944e-05
-0.00013389363
5.0647552e-05
8.4510406e-05
-0.0003295398
6.1267064e-05
0.0001569289
-0.00062774948
4.4691829e-05
0.00025301365
-0.00098300737
9.5805429e-06
0.00036269576
-0.0012851879
-2.6879769e-05
0.00046531631
-0.0014229918
-5.1455838e-05
0.0005333437
-0.0013728348
0.0005439784
-0.0011971955
-6.0673685e-05
5.6263025e-06
8.2029918e-06
-2.8860892e-05
2.2764978e-05
3.4136326e-05
-0.00012932978
4.4938111e-05
7.9711291e-05
-0.00031856552
5.4528826e-05
0.00015002673
-0.00060799379
3.9932886e-05
0.00024550617
-0.00095501665
8.4099281e-06
0.00035684433
-0.0012537267
-2.4198967e-05
0.00046317162
-0.0013941342
-4.6227839e-05
0.00053608681
-0.001349348
0.00055233326
-0.0011781681
-5.4082117e-05
4.8072614e-06
6.9516215e-06
-2.7497274e-05
1.9468733e-05
2.925397e-05
-0.00012328503
3.8581409e-05
6.9289431e-05
-0.00030404982
4.7196733e-05
0.00013280921
-0.00058174218
3.5185845e-05
0.00022178891
-0.00091734613
8.5014505e-06
0.00032851881
-0.0012103775
-1.8863802e-05
0.00043310357
-0.0013529952
-3.6554801e-05
0.00050774786
-0.0013145647
0.00052985254
-0.0011491648
-4.1233546e-05
3.8926605e-06
5.3911859e-06
-2.5809482e-05
1.5836433e-05
2.2989492e-05
-0.00011576121
3.160534e-05
5.5445762e-05
-0.00028583727
3.9123902e-05
0.00010884836
-0.00054838773
3.0024566e-05
0.00018671649
-0.00086857369
9.135923e-06
0.00028351504
-0.0011527199
-1.1574983e-05
0.00038156842
-0.0012963681
-2.302723e-05
0.00045492861
-0.0012649548
0.00048232141
-0.0011067128
-2.2392571e-05
3.0533409e-06
3.6808899e-06
-2.3779928e-05
1.2499525e-05
1.6046048e-05
-0.00010671797
2.5221256e-05
3.9801361e-05
-0.00026388517
3.1902265e-05
8.1020231e-05
-0.00050786107
2.5977466e-05
0.00014468895
-0.00080841163
1.156812e-05
0.00022796919
-0.001079879
-1.5546534e-06
0.00031591218
-0.0012224787
-5.5358333e-06
0.00038554319
-0.0011979296
0.00041698318
-0.001047714
1.8756239e-06
2.2169681e-06
2.076847e-06
-2.1365364e-05
9.1733814e-06
9.4126168e-06
-9.6004915e-05
1.8768812e-05
2.4503048e-05
-0.00023788519
2.4289293e-05
5.2990338e-05
-0.00045958527
2.106919e-05
0.00010090081
-0.00073575869
1.2798595e-05
0.00016822903
-0.00098980866
7.8494137e-06
0.00024360769
-0.0011280785
1.2490592e-05
0.00030745783
-0.0011093644
0.00034089159
-0.00096780583
2.8353059e-05
1.4668561e-06
7.4742179e-07
-1.868663e-05
6.1545154e-06
3.7955776e-06
-8.4045837e-05
1.2763542e-05
1.1220395e-05
-0.00020859691
1.6836457e-05
2.78745e-05
-0.00040440305
1.550386e-05
6.0258978e-05
-0.00065085849
1.2452524e-05
0.00011085591
-0.00088118932
1.5244504e-05
0.00017234574
-0.0010097366
2.8665211e-05
0.00022872751
-0.000994195
0.00026230276
-0.00086145328
5.2754746e-05
8.7657917e-07
-1.5752131e-05
-2.3593949e-07
3.6590065e-06
-7.0929624e-05
-3.8549278e-07
7.525906e-06
-0.00017629734
1.0859019e-06
9.8063228e-06
-0.0003427267
7.925991e-06
9.1640977e-06
-0.0005536961
2.6635448e-05
9.7486107e-06
-0.00075241309
6.124726e-05
1.8377509e-05
-0.00086322435
0.00010851078
3.9252988e-05
-0.00084596549
0.00015613027
-0.00072206329
0.00018985535
6.8801231e-05
-2.482793e-07
1.7278636e-06
-1.5575208e-05
-1.6565063e-06
-1.5345369e-06
7.4788494e-06
-6.9906105e-05
-7.216096e-06
-4.4335634e-06
1.7746756e-05
-0.00017390433
-1.724072e-05
-8.5046946e-06
3.2208908e-05
-0.00033917633
-3.1688116e-05
-1.217006e-05
4.6999485e-05
-0.00054963422
-4.7395938e-05
-1.3609361e-05
5.5394433e-05
-0.00074804796
-5.8320134e-05
-1.2176854e-05
5.2446469e-05
-0.00085786228
-5.9240778e-05
-9.0558699e-06
3.9760122e-05
-0.00083882284
-5.0023504e-05
2.4117104e-05
-0.00071365
-3.4599427e-05
-6.9869052e-06
-2.5448285e-07
1.7396265e-06
-1.8443906e-05
-1.6045994e-06
7.4658238e-06
-8.2682659e-05
-4.4387083e-06
1.7491774e-05
-0.0002055078
-7.6838987e-06
3.1115122e-05
-0.00040006408
-9.20067e-06
4.4041093e-05
-0.00064638336
-7.3045129e-06
4.9403047e-05
-0.00087709413
-2.2384757e-06
4.2845652e-05
-0.0010052018
3.7956733e-06
2.7402431e-05
-0.00098787149
1.1198435e-05
-0.00085306302
8.324076e-06
-2.2338595e-07
1.6705568e-06
-2.1072885e-05
-1.513485e-06
7.1106525e-06
-9.4359604e-05
-4.1590562e-06
1.6473913e-05
-0.0002342218
-6.6999081e-06
2.8737987e-05
-0.00045466743
-6.565368e-06
3.9333757e-05
-0.00073118604
-2.1273829e-06
4.1570729e-05
-0.00098641434
5.6093553e-06
3.1926182e-05
-0.0011248959
1.3478999e-05
1.4635579e-05
-0.0011044672
-1.2981783e-06
-0.00096019284
1.8362533e-05
-1.7999985e-07
1.5261376e-06
-2.3455481e-05
-1.3708468e-06
6.4495183e-06
-0.00010486595
-3.7481681e-06
1.4790092e-05
-0.00025982405
-5.5067331e-06
2.5309251e-05
-0.00050267387
-3.8110262e-06
3.3399977e-05
-0.00080417365
2.751589e-06
3.2817994e-05
-0.001077689
1.2413259e-05
2.0931513e-05
-0.0012211456
2.1087399e-05
2.9037154e-06
-0.0011948718
-1.1947279e-05
-0.0010412832
2.5305788e-05
-1.2047158e-07
1.3162114e-06
-2.5479063e-05
-1.1660926e-06
5.541712e-06
-0.00011380777
-3.2228709e-06
1.2616581e-05
-0.00028160704
-4.2033976e-06
2.1203432e-05
-0.00054330129
-1.1307557e-06
2.6910282e-05
-0.00086515645
7.1788981e-06
2.4058254e-05
-0.0011522698
1.8231196e-05
1.0900249e-05
-0.0012973889
2.7152348e-05
-6.8530448e-06
-0.001264119
-2.0085583e-05
-0.0011017945
3.0372283e-05
-7.2509366e-08
1.0804216e-06
-2.7188937e-05
-1.003746e-06
4.5320906e-06
-0.00012134409
-2.7959883e-06
1.0249675e-05
-0.00029989074
-3.1116514e-06
1.6902022e-05
-0.00057712484
1.2050814e-06
2.0456037e-05
-0.00091520823
1.1033611e-05
1.6003523e-05
-0.0012121509
2.3170583e-05
2.5556085e-06
-0.0013567872
3.2085597e-05
-1.4055287e-05
-0.0013162772
-2.5351158e-05
-0.001146024
3.4210271e-05
-1.9528898e-08
8.3536389e-07
-2.8596269e-05
-8.199442e-07
3.4979553e-06
-0.00012749522
-2.3317373e-06
7.8735183e-06
-0.00031467756
-2.0110071e-06
1.2729386e-05
-0.00060414173
3.3756908e-06
1.4553043e-05
-0.00095450011
1.4452289e-05
9.2562027e-06
-0.0012580558
2.7373324e-05
-3.5445824e-06
-0.0014009549
3.6126746e-05
-1.8330246e-05
-0.0013538263
-2.7579878e-05
-0.0011770011
3.7188407e-05
2.9173586e-08
6.0380327e-07
-2.9682156e-05
-6.5134104e-07
2.5291009e-06
-0.00013224434
-1.9104299e-06
5.6753268e-06
-0.00032608252
-1.042654e-06
8.9889551e-06
-0.00062487672
5.2455625e-06
9.5783315e-06
-0.00098432087
1.733898e-05
4.1998069e-06
-0.001292225
3.0878301e-05
-7.1397947e-06
-0.0014329359
3.9444905e-05
-1.9569053e-05
-0.0013801626
-2.678587e-05
-0.001198121
3.9576355e-05
7.0810845e-08
4.0258705e-07
-3.0475696e-05
-5.0766505e-07
1.6898236e-06
-0.00013572647
-1.557434e-06
3.787015e-06
-0.00033446395
-2.4449524e-07
5.8740089e-06
-0.000640097
6.7748247e-06
5.7351526e-06
-0.0010060518
1.9687048e-05
9.7260358e-07
-0.0013167237
3.3709402e-05
-8.2063307e-06
-0.0014552845
4.2118352e-05
-1.787708e-05
-0.0013979992
-2.3159805e-05
-0.0012120339
4.1530787e-05
1.023282e-07
2.4002952e-07
-3.1024242e-05
-4.0116503e-07
1.0099066e-06
-0.00013814778
-1.2967496e-06
2.261538e-06
-0.00034031053
3.5886692e-07
3.4309948e-06
-0.00065069951
7.9383166e-06
3.0253685e-06
-0.0010210694
2.1476296e-05
-5.3355455e-07
-0.0013333681
3.5888771e-05
-6.9995151e-06
-0.0014700722
4.422662e-05
-1.3618004e-05
-0.0014094374
-1.7061323e-05
-0.0012206756
4.31091e-05
1.219915e-07
1.0974502e-07
-3.1423956e-05
-3.3342274e-07
4.6272071e-07
-0.00013982825
-1.1206417e-06
1.0350134e-06
-0.0003441974
7.7796112e-07
1.5397877e-06
-0.00065747287
8.7520503e-06
1.2290255e-06
-0.0010303105
2.2722299e-05
-6.7724486e-07
-0.0013432183
3.7408677e-05
-4.0216915e-06
-0.0014784467
4.5718015e-05
-7.3817085e-06
-0.0014156253
-9.0711075e-06
-0.0012251577
4.4240536e-05
1.3342042e-07
1.0634812e-11
-3.1563456e-05
-2.952701e-07
3.891256e-11
-0.0001404769
-1.0281305e-06
7.2485061e-11
-0.00034582507
9.86452e-07
1.4061313e-10
-0.00066049709
9.1487993e-06
2.10326e-10
-0.0010346215
2.333099e-05
2.1716396e-10
-0.0013479327
3.8163112e-05
2.5528549e-10
-0.0014825025
4.6476155e-05
4.8298271e-10
-0.0014186296
8.5727403e-10
-0.0012273241
4.4835405e-05
1.3340988e-07
-1.0972582e-07
-3.1563451e-05
-2.9526769e-07
-4.6265071e-07
-0.00014047688
-1.0281092e-06
-1.0348865e-06
-0.00034582502
9.8643507e-07
-1.5395474e-06
-0.00066049701
9.1487559e-06
-1.2286699e-06
-0.0010346213
2.333095e-05
6.7760056e-07
-0.0013479326
3.8163081e-05
4.0221281e-06
-0.0014825024
4.6476166e-05
7.3826742e-06
-0.0014186295
9.0728494e-06
-0.0012273241
4.4835439e-05
1.2196898e-07
-2.4001829e-07
-3.1423956e-05
-3.3345397e-07
-1.0098617e-06
-0.00013982826
-1.120636e-06
-2.2614525e-06
-0.0003441974
7.7789745e-07
-3.4308266e-06
-0.00065747287
8.7519296e-06
-3.0251279e-06
-0.0010303105
2.2722184e-05
5.3375894e-07
-0.0013432183
3.740861e-05
6.9997976e-06
-0.0014784467
4.5718047e-05
1.3618939e-05
-0.0014156253
1.70631e-05
-0.0012251578
4.4240632e-05
1.0230558e-07
-4.0257842e-07
-3.1024236e-05
-4.0124007e-07
-1.6897908e-06
-0.00013814776
-1.2968054e-06
-3.7869507e-06
-0.00034031046
3.5874986e-07
-5.8738975e-06
-0.0006506994
7.9381574e-06
-5.7350229e-06
-0.0010210692
2.1476158e-05
-9.725624e-07
-0.0013333679
3.5888747e-05
8.2064533e-06
-0.001470072
4.4226714e-05
1.7877907e-05
-0.0014094373
2.3161525e-05
-0.0012206756
4.3109296e-05
7.074311e-08
-6.0379374e-07
-3.0475694e-05
-5.0775641e-07
-2.5290645e-06
-0.00013572646
-1.5575253e-06
-5.6752835e-06
-0.00033446391
-2.4467668e-07
-8.988927e-06
-0.00064009695
6.7746226e-06
-9.5783414e-06
-0.0010060516
1.9686902e-05
-4.1999465e-06
-0.0013167236
3.3709413e-05
7.1397641e-06
-0.0014552843
4.2118527e-05
1.9569744e-05
-0.0013979991
2.6787464e-05
-0.0012120339
4.1531155e-05
2.9085143e-08
-8.3535708e-07
-2.9682158e-05
-6.5137136e-07
-3.4979141e-06
-0.00013224434
-1.9105048e-06
-7.8734969e-06
-0.00032608252
-1.0428613e-06
-1.2729456e-05
-0.00062487673
5.2453084e-06
-1.4553203e-05
-0.00098432084
1.7338823e-05
-9.2565243e-06
-0.0012922249
3.087829e-05
3.5443878e-06
-0.0014329359
3.9445139e-05
1.8330833e-05
-0.0013801627
2.7581351e-05
-0.001198121
3.9576899e-05
-1.9568389e-08
-1.0804245e-06
-2.8596273e-05
-8.199876e-07
-4.5320755e-06
-0.00012749523
-2.3318042e-06
-1.0249724e-05
-0.00031467759
-2.011211e-06
-1.6902217e-05
-0.00060414179
3.3753741e-06
-2.0456386e-05
-0.00095450018
1.4452082e-05
-1.6004029e-05
-0.0012580559
2.7373257e-05
-2.5560008e-06
-0.0014009549
3.6126977e-05
1.4055735e-05
-0.0013538264
2.5352511e-05
-0.0011770011
3.7188952e-05
-7.2561272e-08
-1.316212e-06
-2.7188947e-05
-1.0038824e-06
-5.5417045e-06
-0.00012134413
-2.7960725e-06
-1.2616628e-05
-0.00029989083
-3.1118945e-06
-2.1203648e-05
-0.00057712499
1.2047213e-06
-2.6910715e-05
-0.00091520843
1.1033299e-05
-2.4058922e-05
-0.0012121512
2.3170429e-05
-1.0900912e-05
-0.0013567874
3.208573e-05
6.8531422e-06
-0.0013162773
2.0086872e-05
-0.0011460241
3.4210619e-05
-1.2050671e-07
-1.526139e-06
-2.5479065e-05
-1.166169e-06
-6.4495143e-06
-0.00011380778
-3.2229323e-06
-1.479011e-05
-0.00028160705
-4.203592e-06
-2.5309407e-05
-0.0005433013
-1.1311946e-06
-3.3400406e-05
-0.00086515643
7.1784287e-06
-3.2818752e-05
-0.0011522698
1.8230887e-05
-2.0932429e-05
-0.001297389
2.7152328e-05
-2.9041388e-06
-0.001264119
1.1948451e-05
-0.0011017945
3.037255e-05
-1.8004399e-07
-1.6705462e-06
-2.3455478e-05
-1.3709777e-06
-7.1106201e-06
-0.00010486593
-3.7483703e-06
-1.647388e-05
-0.000259824
-5.5070638e-06
-2.8738058e-05
-0.00050267378
-3.8115928e-06
-3.9334131e-05
-0.00080417351
2.7509299e-06
-4.157143e-05
-0.0010776889
1.2412629e-05
-3.1927191e-05
-0.0012211455
2.1087122e-05
-1.463647e-05
-0.0011948718
1.2987979e-06
-0.0010412833
2.5305921e-05
-2.2341646e-07
-1.739611e-06
-2.107288e-05
-1.5136069e-06
-7.4657789e-06
-9.4359578e-05
-4.1592665e-06
-1.7491719e-05
-0.00023422174
-6.7002756e-06
-3.1115155e-05
-0.0004546673
-6.5659308e-06
-4.4041356e-05
-0.00073118585
-2.1282268e-06
-4.940356e-05
-0.00098641413
5.6082892e-06
-4.2846513e-05
-0.0011248957
1.3478237e-05
-2.7403689e-05
-0.0011044672
-1.1198373e-05
-0.00096019288
1.8362256e-05
-2.5448985e-07
-1.7278548e-06
-1.8443905e-05
-1.604656e-06
-7.4788279e-06
-8.2682656e-05
-4.438802e-06
-1.7746738e-05
-0.00020550779
-7.6840714e-06
-3.2208906e-05
-0.00040006406
-9.2009577e-06
-4.6999539e-05
-0.00064638332
-7.3051596e-06
-5.5394691e-05
-0.00087709409
-2.2394129e-06
-5.244715e-05
-0.0010052018
3.7945576e-06
-3.9761094e-05
-0.00098787158
-2.4117754e-05
-0.00085306313
8.32371e-06
-2.4828578e-07
-1.5575211e-05
-1.6565059e-06
-1.5345528e-06
-6.9906117e-05
-7.216106e-06
-4.4335435e-06
-0.00017390436
-1.7240746e-05
-8.504597e-06
-0.00033917638
-3.1688158e-05
-1.2169896e-05
-0.00054963428
-4.7396082e-05
-1.3609154e-05
-0.00074804802
-5.832066e-05
-1.2176473e-05
-0.00085786239
-5.9241632e-05
-9.0559852e-06
-0.00083882296
-5.0024268e-05
-0.00071365007
-3.4599191e-05
-6.9880204e-06
-1.214586e-07
-1.2630437e-07
-1.5447844e-05
1.2039875e-07
-4.569056e-07
-6.536077e-07
-6.9536181e-05
6.1913844e-07
-1.1593114e-06
-1.9872122e-06
-0.00017303679
1.8220829e-06
-2.6183571e-06
-5.1216511e-06
-0.00033708162
4.4859877e-06
-4.7498733e-06
-1.1671825e-05
-0.00054563888
9.8080148e-06
-6.0984659e-06
-2.3202997e-05
-0.0007424427
1.8946354e-05
-3.9645678e-06
-3.9585787e-05
-0.00085220888
3.1798517e-05
3.7442486e-06
-5.7481862e-05
-0.00083496741
4.5917614e-05
-7.109323e-05
-0.00071212162
5.7362777e-05
1.5946231e-05
-1.5262845e-07
-1.4305815e-07
-1.827452e-05
-5.4422123e-07
-7.4542387e-07
-8.2199235e-05
-1.3429085e-06
-2.2929958e-06
-0.00020440332
-3.0552952e-06
-6.0171727e-06
-0.00039745618
-5.6820376e-06
-1.3945924e-05
-0.00064148253
-7.7263042e-06
-2.8014036e-05
-0.00087023887
-6.3755319e-06
-4.7911459e-05
-0.00099822697