/*--------------------------------*- C++ -*----------------------------------*\
| =========                 |                                                 |
| \\      /  F ield         | OpenFOAM: The Open Source CFD Toolbox           |
|  \\    /   O peration     | Version:  2406                                  |
|   \\  /    A nd           | Website:  www.openfoam.com                      |
|    \\/     M anipulation  |                                                 |
\*---------------------------------------------------------------------------*/
FoamFile
{
    version     2.0;
    format      ascii;
    arch        "LSB;label=32;scalar=64";
    class       volVectorField;
    location    "17.25";
    object      U;
}
// * * * * * * * * * * * * * * * * * * * * * * * * * * * * * * * * * * * * * //

dimensions      [0 1 -1 0 0 0 0];

internalField   nonuniform List<vector> 
34560
(
(-0.080757134 0.014392393 0.030440481)
(-0.27763996 0.046859493 0.098709363)
(-0.54395968 0.089338953 0.1776025)
(-0.87073462 0.1386685 0.2557947)
(-1.2195803 0.19033295 0.31640259)
(-1.5327443 0.24245633 0.34715934)
(-1.7624749 0.29633441 0.3484686)
(-1.8951523 0.3508042 0.33077733)
(-1.9449077 0.39961271 0.30719344)
(-0.082790657 0.016993899 0.033836443)
(-0.28873409 0.054774772 0.10927778)
(-0.57071062 0.10281286 0.1944833)
(-0.91518585 0.15619997 0.27544274)
(-1.2736038 0.20956007 0.33350263)
(-1.5799362 0.26188542 0.35799889)
(-1.7874048 0.31560734 0.35256109)
(-1.892651 0.37013708 0.33009632)
(-1.9187059 0.4180024 0.30241992)
(-0.081898073 0.017701266 0.03507355)
(-0.29182838 0.057672827 0.1138454)
(-0.58512374 0.1086782 0.20224285)
(-0.94354309 0.16438799 0.2846591)
(-1.3072944 0.21847293 0.34103013)
(-1.6024746 0.27050046 0.36146034)
(-1.7864971 0.32396482 0.3519289)
(-1.8637165 0.37842275 0.32595988)
(-1.8678528 0.42498374 0.29646986)
(-0.078381741 0.018191275 0.036135294)
(-0.28739026 0.059484418 0.11745393)
(-0.58737101 0.11183575 0.20775997)
(-0.95573958 0.16776628 0.2902108)
(-1.3215706 0.22066281 0.34427825)
(-1.6033808 0.27113147 0.36161785)
(-1.762937 0.32349423 0.34903626)
(-1.8131117 0.37583591 0.32181451)
(-1.796931 0.4206658 0.29251929)
(-0.072024482 0.017673572 0.036567381)
(-0.27467656 0.058434539 0.1191852)
(-0.57614633 0.11035202 0.2103139)
(-0.95047685 0.16511884 0.29244585)
(-1.3162233 0.21587408 0.34475018)
(-1.5848601 0.26348766 0.35979861)
(-1.7190916 0.31307367 0.345941)
(-1.7434986 0.36278383 0.31899127)
(-1.7082247 0.40547178 0.29108531)
(-0.063440766 0.016475928 0.036480711)
(-0.25522811 0.055207508 0.11930502)
(-0.55384278 0.10484784 0.21041177)
(-0.93064692 0.156632 0.29202632)
(-1.2937395 0.20373943 0.34317966)
(-1.5469442 0.24767387 0.35743467)
(-1.6567979 0.29348051 0.34389207)
(-1.6567497 0.33990488 0.31829609)
(-1.6037377 0.37981894 0.29247502)
(-0.053206444 0.014756137 0.036284288)
(-0.23023053 0.05006939 0.11888495)
(-0.52140567 0.09563209 0.20948787)
(-0.89643275 0.14275939 0.29051684)
(-1.2541124 0.18504634 0.34120355)
(-1.4914488 0.22446237 0.35571884)
(-1.5783869 0.26500744 0.34393549)
(-1.5553338 0.30747477 0.32029401)
(-1.4861903 0.34392291 0.29677921)
(-0.041892931 0.012459144 0.035975405)
(-0.20120414 0.042934906 0.11806911)
(-0.48117303 0.082704262 0.2080529)
(-0.85078904 0.12368338 0.28880937)
(-1.2008055 0.16014422 0.33980145)
(-1.4219294 0.19431955 0.35546093)
(-1.4882335 0.22852918 0.34645176)
(-1.4436265 0.26600448 0.32518014)
(-1.3601074 0.29816779 0.303836)
(-0.03049602 0.009778291 0.035670335)
(-0.17092406 0.034284904 0.11721311)
(-0.43740856 0.066739323 0.20668589)
(-0.79900403 0.10019136 0.28755948)
(-1.1398618 0.12984391 0.33949447)
(-1.3451486 0.1577921 0.35706016)
(-1.3928829 0.18532158 0.35106396)
(-1.3288804 0.21635799 0.33252184)
(-1.2330539 0.24328798 0.31297166)
(-0.020271994 0.0069468276 0.03542511)
(-0.1430906 0.024788552 0.11650947)
(-0.39597996 0.04877156 0.20567138)
(-0.74850228 0.073545891 0.28698245)
(-1.0797925 0.095473307 0.34023321)
(-1.2706388 0.11620676 0.36007493)
(-1.3021301 0.13658351 0.35696662)
(-1.2218605 0.15991252 0.34110746)
(-1.1159348 0.18042158 0.32286523)
(-0.012615767 0.0041701712 0.035301292)
(-0.12181552 0.015037243 0.1161231)
(-0.36348452 0.029751396 0.20516943)
(-0.70774963 0.044945516 0.28701365)
(-1.0305298 0.058380012 0.34152597)
(-1.2097649 0.071147466 0.36342968)
(-1.2284699 0.083741957 0.36269528)
(-1.1359573 0.098258636 0.34899972)
(-1.0226775 0.11118354 0.33159205)
(-0.0082876028 0.0014023822 0.035254204)
(-0.10964833 0.0050641884 0.11598754)
(-0.34463853 0.010033234 0.2050125)
(-0.68383302 0.015136157 0.2872128)
(-1.0015459 0.019642734 0.3425181)
(-1.1741693 0.023963106 0.36569193)
(-1.1855984 0.028269623 0.36636167)
(-1.0863003 0.033264552 0.35390385)
(-0.96905842 0.037740171 0.33689173)
(-0.0082876159 -0.0014024373 0.0352542)
(-0.10964837 -0.0050643542 0.11598757)
(-0.34463862 -0.010033521 0.20501251)
(-0.68383316 -0.015136554 0.2872128)
(-1.001546 -0.019643218 0.34251812)
(-1.1741694 -0.02396364 0.36569198)
(-1.1855986 -0.02827009 0.36636171)
(-1.0863003 -0.033264721 0.35390384)
(-0.96905838 -0.037739894 0.33689167)
(-0.012615803 -0.0041702265 0.03530128)
(-0.12181565 -0.01503741 0.11612312)
(-0.36348476 -0.029751702 0.20516944)
(-0.70775001 -0.044945973 0.28701368)
(-1.0305302 -0.058380607 0.34152603)
(-1.2097654 -0.071148109 0.36342978)
(-1.2284703 -0.083742487 0.36269533)
(-1.1359575 -0.098258823 0.34899967)
(-1.0226774 -0.11118331 0.33159193)
(-0.020272043 -0.0069468672 0.035425129)
(-0.14309078 -0.024788735 0.11650952)
(-0.39598029 -0.048771916 0.20567151)
(-0.74850278 -0.073546401 0.28698264)
(-1.0797929 -0.095473967 0.34023336)
(-1.2706393 -0.11620746 0.36007502)
(-1.3021305 -0.13658408 0.3569666)
(-1.2218608 -0.15991276 0.34110741)
(-1.1159348 -0.18042146 0.32286516)
(-0.030496071 -0.009778323 0.035670389)
(-0.17092422 -0.034285058 0.11721332)
(-0.43740885 -0.066739644 0.20668609)
(-0.79900448 -0.10019179 0.28755972)
(-1.1398621 -0.12984446 0.33949464)
(-1.3451489 -0.15779273 0.3570602)
(-1.3928831 -0.18532212 0.35106392)
(-1.3288807 -0.21635831 0.33252189)
(-1.2330541 -0.24328792 0.31297171)
(-0.041892979 -0.012459175 0.035975401)
(-0.20120429 -0.042934969 0.11806927)
(-0.48117331 -0.082704453 0.20805301)
(-0.85078951 -0.12368368 0.28880958)
(-1.2008059 -0.1601446 0.33980165)
(-1.4219298 -0.1943201 0.35546106)
(-1.4882337 -0.22852975 0.34645187)
(-1.4436269 -0.26600486 0.32518032)
(-1.3601077 -0.29816767 0.30383609)
(-0.053206492 -0.014756175 0.036284299)
(-0.23023068 -0.050069452 0.11888508)
(-0.52140592 -0.095632225 0.20948802)
(-0.89643314 -0.14275961 0.29051704)
(-1.2541128 -0.18504662 0.34120383)
(-1.4914493 -0.22446285 0.35571919)
(-1.5783874 -0.26500804 0.34393581)
(-1.5553342 -0.30747511 0.32029422)
(-1.4861905 -0.3439227 0.29677924)
(-0.063440788 -0.016475935 0.036480706)
(-0.25522817 -0.055207521 0.11930501)
(-0.55384287 -0.1048479 0.21041171)
(-0.93064709 -0.15663216 0.29202634)
(-1.2937398 -0.20373967 0.34317993)
(-1.5469448 -0.2476743 0.35743517)
(-1.6567987 -0.29348103 0.34389251)
(-1.6567501 -0.33990513 0.31829627)
(-1.6037378 -0.3798188 0.29247507)
(-0.072024508 -0.017673565 0.036567359)
(-0.27467663 -0.05843453 0.11918513)
(-0.57614645 -0.11035205 0.21031384)
(-0.95047705 -0.16511894 0.29244595)
(-1.3162236 -0.21587427 0.34475058)
(-1.5848607 -0.26348798 0.35979919)
(-1.7190921 -0.31307405 0.34594145)
(-1.7434989 -0.36278405 0.31899156)
(-1.7082251 -0.40547186 0.29108552)
(-0.078381749 -0.01819125 0.036135284)
(-0.28739028 -0.059484412 0.11745385)
(-0.58737101 -0.11183572 0.20775997)
(-0.95573951 -0.16776626 0.29021092)
(-1.3215706 -0.22066286 0.34427861)
(-1.6033811 -0.27113159 0.36161837)
(-1.7629373 -0.32349444 0.34903679)
(-1.8131122 -0.37583607 0.32181499)
(-1.7969315 -0.42066584 0.29251938)
(-0.081898068 -0.01770121 0.035073514)
(-0.29182836 -0.057672731 0.11384529)
(-0.58512367 -0.10867806 0.20224279)
(-0.94354297 -0.16438788 0.28465913)
(-1.3072943 -0.21847285 0.34103037)
(-1.6024747 -0.27050038 0.36146076)
(-1.7864975 -0.32396473 0.35192937)
(-1.8637172 -0.3784227 0.32596031)
(-1.867853 -0.42498357 0.29646994)
(-0.082790654 -0.016993875 0.033836413)
(-0.28873406 -0.054774729 0.10927774)
(-0.57071058 -0.10281282 0.19448331)
(-0.91518582 -0.15619999 0.27544283)
(-1.2736037 -0.20956005 0.33350279)
(-1.5799361 -0.26188527 0.35799913)
(-1.787405 -0.31560714 0.35256148)
(-1.8926516 -0.37013682 0.33009678)
(-1.9187063 -0.41800198 0.30241992)
(-0.080757131 -0.014392394 0.030440481)
(-0.27763995 -0.046859531 0.098709382)
(-0.54395964 -0.089339035 0.17760258)
(-0.87073456 -0.13866866 0.25579475)
(-1.2195801 -0.19033311 0.31640264)
(-1.5327441 -0.24245646 0.34715968)
(-1.7624752 -0.29633453 0.34846909)
(-1.8951528 -0.35080435 0.33077762)
(-1.9449079 -0.3996127 0.30719387)
(-0.10082815 -6.9710808e-05 -0.00014388099)
(-0.32949508 -0.00043926033 -0.00078872772)
(-0.61625602 -0.0013472882 -0.0022320812)
(-0.94529581 -0.0036571516 -0.0046509968)
(-1.2807545 -0.0085001338 -0.0078307727)
(-1.5748193 -0.01635766 -0.011136711)
(-1.7875638 -0.026571554 -0.013968992)
(-1.9087941 -0.037875753 -0.01607773)
(-1.9522326 -0.048670584 -0.017529909)
(-0.11009033 -0.00082916909 -0.00080039457)
(-0.35793507 -0.0027086415 -0.0027895508)
(-0.66511015 -0.005251598 -0.0057623281)
(-1.0104896 -0.0093235366 -0.0095974858)
(-1.3513079 -0.016010079 -0.01359553)
(-1.6353826 -0.02558357 -0.016782903)
(-1.8249816 -0.037153376 -0.018660135)
(-1.9187824 -0.049331266 -0.019472049)
(-1.9423 -0.060524049 -0.020060284)
(-0.11792249 -0.0017303204 -0.0014002336)
(-0.38198231 -0.0053525703 -0.0046307364)
(-0.70616722 -0.0096823385 -0.0089955077)
(-1.0642608 -0.015499966 -0.013992125)
(-1.4072123 -0.023797462 -0.018405739)
(-1.6794359 -0.034690022 -0.021052829)
(-1.846485 -0.04717002 -0.021681438)
(-1.916405 -0.059744434 -0.020998171)
(-1.9251438 -0.070865081 -0.02031329)
(-0.12481288 -0.0027526588 -0.0019209474)
(-0.40293197 -0.0082928481 -0.0062285317)
(-0.74148829 -0.014487726 -0.011799317)
(-1.1096168 -0.021969648 -0.017712157)
(-1.452883 -0.031612405 -0.022226547)
(-1.7132801 -0.043439069 -0.024042728)
(-1.8600751 -0.056429217 -0.02327675)
(-1.9099761 -0.069039368 -0.02109316)
(-1.9068685 -0.079744428 -0.019211995)
(-0.13033593 -0.0037537817 -0.0022818884)
(-0.4198195 -0.011142385 -0.007356486)
(-0.77000613 -0.019066785 -0.013820207)
(-1.1460153 -0.027976903 -0.020342481)
(-1.4888376 -0.038628693 -0.024679836)
(-1.7386357 -0.051008047 -0.02547377)
(-1.8682375 -0.064117864 -0.023312208)
(-1.9018292 -0.076424652 -0.019782592)
(-1.8891755 -0.086338831 -0.016916266)
(-0.13474121 -0.0046324235 -0.0024224766)
(-0.43329357 -0.01360973 -0.0078398984)
(-0.79269328 -0.022943013 -0.014801198)
(-1.1746748 -0.03287934 -0.021600066)
(-1.5164788 -0.044065288 -0.025518328)
(-1.7570197 -0.056501618 -0.025208243)
(-1.8724025 -0.069254552 -0.02173921)
(-1.8929824 -0.080871973 -0.017091918)
(-1.8727513 -0.089699503 -0.013513874)
(-0.13830554 -0.0052518378 -0.0023593081)
(-0.44407452 -0.015304212 -0.0077170582)
(-0.81061558 -0.025505541 -0.01477851)
(-1.1968821 -0.035912603 -0.021527927)
(-1.5371916 -0.047069294 -0.024835424)
(-1.7697218 -0.059009044 -0.023401578)
(-1.8735674 -0.070917598 -0.018752415)
(-1.8839834 -0.081467208 -0.013228189)
(-1.8578881 -0.089007763 -0.0092125156)
(-0.14088607 -0.0054457552 -0.0020957853)
(-0.45192596 -0.015778988 -0.0070077144)
(-0.8236924 -0.026081665 -0.013803166)
(-1.21296 -0.036259796 -0.020237097)
(-1.5517588 -0.046758383 -0.022831002)
(-1.7777702 -0.05764156 -0.020343786)
(-1.8726052 -0.068254346 -0.014689435)
(-1.8753076 -0.077404296 -0.0085373352)
(-1.8447877 -0.08355565 -0.0043283668)
(-0.14260353 -0.0051045608 -0.0016900538)
(-0.45721733 -0.014733512 -0.0058790105)
(-0.83257992 -0.02421579 -0.012140949)
(-1.2238578 -0.033368167 -0.018082894)
(-1.5613422 -0.042538957 -0.019944428)
(-1.7823335 -0.051817142 -0.01653917)
(-1.8704056 -0.060688693 -0.010078772)
(-1.8674245 -0.068151485 -0.0035242333)
(-1.8336621 -0.072885149 0.00069374475)
(-0.14366653 -0.0041944995 -0.001231078)
(-0.46056811 -0.012077402 -0.0045871097)
(-0.83828546 -0.019776672 -0.010199529)
(-1.2308395 -0.027086535 -0.015596482)
(-1.5672571 -0.034254942 -0.016799253)
(-1.7845716 -0.04137919 -0.012649356)
(-1.8677939 -0.048092925 -0.0056013359)
(-1.8608049 -0.053624921 0.0011741283)
(-1.8247714 -0.056966021 0.0052925444)
(-0.14457632 -0.0027766945 -0.0008373684)
(-0.46317658 -0.0079748131 -0.0034720916)
(-0.84238206 -0.013018756 -0.0085072284)
(-1.2354889 -0.01774854 -0.013436895)
(-1.5708521 -0.022316824 -0.014135283)
(-1.7855044 -0.026801778 -0.009453227)
(-1.8654715 -0.030995315 -0.0020194898)
(-1.8558886 -0.034404991 0.0048545985)
(-1.8184171 -0.036394363 0.0088474252)
(-0.14474298 -0.00097512594 -0.00061986031)
(-0.46381651 -0.0027944571 -0.0028533514)
(-0.84360478 -0.0045493974 -0.0075546577)
(-1.2370625 -0.0061894749 -0.012211924)
(-1.5721088 -0.0077691494 -0.012631439)
(-1.785635 -0.0093114747 -0.0076671324)
(-1.8640952 -0.010743901 -3.2777851e-05)
(-1.8532611 -0.011895645 0.0068788888)
(-1.8150702 -0.012552886 0.01079441)
(-0.14474298 0.00097517117 -0.00061986518)
(-0.4638165 0.0027945716 -0.0028533534)
(-0.84360475 0.0045495615 -0.0075546676)
(-1.2370625 0.0061896806 -0.01221193)
(-1.5721088 0.0077693631 -0.012631423)
(-1.785635 0.0093116447 -0.0076671109)
(-1.8640953 0.010744034 -3.2757837e-05)
(-1.8532612 0.011895796 0.0068789048)
(-1.8150702 0.012553093 0.010794415)
(-0.14457632 0.002776729 -0.00083738047)
(-0.46317657 0.007974904 -0.0034720907)
(-0.84238203 0.01301888 -0.0085072339)
(-1.2354889 0.017748686 -0.013436898)
(-1.570852 0.02231697 -0.014135245)
(-1.7855045 0.026801895 -0.0094531786)
(-1.8654717 0.030995413 -0.0020194484)
(-1.8558887 0.034405141 0.0048546291)
(-1.8184171 0.036394587 0.0088474377)
(-0.14366652 0.004194522 -0.0012310902)
(-0.4605681 0.012077467 -0.0045871091)
(-0.83828546 0.019776764 -0.010199518)
(-1.2308396 0.027086641 -0.01559647)
(-1.5672571 0.034255034 -0.016799204)
(-1.7845718 0.041379258 -0.012649301)
(-1.8677941 0.048092986 -0.005601299)
(-1.860805 0.053625056 0.0011741496)
(-1.8247715 0.056966253 0.0052925686)
(-0.14260354 0.0051045809 -0.0016900499)
(-0.45721734 0.014733567 -0.005878984)
(-0.83257993 0.024215869 -0.012140915)
(-1.2238579 0.033368268 -0.018082847)
(-1.5613422 0.04253904 -0.019944355)
(-1.7823336 0.051817188 -0.016539109)
(-1.8704056 0.060688735 -0.010078741)
(-1.8674245 0.068151597 -0.0035242191)
(-1.8336623 0.072885393 0.00069376922)
(-0.14088609 0.0054457742 -0.0020957823)
(-0.45192598 0.015779047 -0.007007682)
(-0.82369241 0.026081725 -0.013803161)
(-1.2129601 0.036259875 -0.020237058)
(-1.5517588 0.046758456 -0.022830918)
(-1.7777703 0.05764159 -0.020343714)
(-1.8726052 0.06825437 -0.014689394)
(-1.8753077 0.077404397 -0.0085373252)
(-1.844788 0.08355594 -0.004328397)
(-0.13830554 0.0052518467 -0.0023593229)
(-0.4440745 0.015304258 -0.0077170526)
(-0.81061556 0.025505571 -0.014778527)
(-1.1968821 0.035912624 -0.021527905)
(-1.5371916 0.047069316 -0.024835332)
(-1.7697219 0.059009038 -0.023401485)
(-1.8735674 0.070917595 -0.01875236)
(-1.8839836 0.081467317 -0.013228213)
(-1.8578884 0.089008095 -0.009212647)
(-0.13474121 0.0046324231 -0.0024224709)
(-0.43329356 0.013609739 -0.0078398744)
(-0.79269324 0.022943001 -0.014801173)
(-1.1746748 0.032879288 -0.021600025)
(-1.5164787 0.044065247 -0.025518227)
(-1.7570198 0.056501567 -0.02520814)
(-1.8724027 0.069254524 -0.021739162)
(-1.8929827 0.080872082 -0.017091993)
(-1.8727515 0.089699804 -0.013514082)
(-0.13033592 0.0037537832 -0.0022818925)
(-0.41981945 0.01114239 -0.0073564836)
(-0.77000603 0.019066774 -0.013820195)
(-1.1460151 0.027976841 -0.02034247)
(-1.4888373 0.038628623 -0.024679765)
(-1.7386357 0.051007976 -0.025473667)
(-1.8682377 0.064117832 -0.023312178)
(-1.9018295 0.076424744 -0.019782683)
(-1.8891758 0.086339063 -0.01691653)
(-0.12481286 0.0027526671 -0.0019209549)
(-0.4029319 0.00829287 -0.0062285323)
(-0.74148816 0.014487747 -0.011799298)
(-1.1096166 0.021969639 -0.017712131)
(-1.4528828 0.031612354 -0.022226469)
(-1.7132801 0.04343901 -0.024042647)
(-1.8600754 0.056429196 -0.023276736)
(-1.9099764 0.06903946 -0.021093234)
(-1.9068688 0.079744634 -0.019212265)
(-0.11792247 0.0017303338 -0.0014002483)
(-0.38198222 0.0053525969 -0.0046307654)
(-0.70616703 0.0096823709 -0.0089955168)
(-1.0642605 0.015499972 -0.013992123)
(-1.4072121 0.023797433 -0.018405701)
(-1.6794358 0.034689997 -0.02105279)
(-1.8464851 0.047170022 -0.021681435)
(-1.9164053 0.059744513 -0.020998194)
(-1.9251441 0.070865365 -0.020313586)
(-0.11009032 0.00082918466 -0.00080041302)
(-0.357935 0.0027086709 -0.0027895917)
(-0.66511002 0.0052516312 -0.0057623527)
(-1.0104895 0.0093235322 -0.0095975119)
(-1.3513078 0.016010055 -0.013595551)
(-1.6353826 0.025583556 -0.016782905)
(-1.8249816 0.037153416 -0.018660112)
(-1.9187829 0.049331471 -0.019472225)
(-1.9423006 0.0605244 -0.02006066)
(-0.10082814 6.9701571e-05 -0.00014387167)
(-0.32949502 0.00043922001 -0.00078870569)
(-0.6162559 0.001347223 -0.0022320362)
(-0.94529564 0.0036570394 -0.0046509833)
(-1.2807543 0.0084999922 -0.0078307732)
(-1.5748192 0.016357479 -0.011136654)
(-1.7875639 0.026571429 -0.013969073)
(-1.9087944 0.037875951 -0.016078035)
(-1.9522327 0.048670887 -0.017530051)
(-0.0868688 0.0011096898 0.0010226926)
(-0.28543047 0.0034397127 0.0031882181)
(-0.53807188 0.0060176848 0.0055832326)
(-0.83407881 0.0083997299 0.0077580073)
(-1.1435055 0.010070825 0.0090130139)
(-1.4215523 0.010670477 0.0088105636)
(-1.6259855 0.010176292 0.0071889474)
(-1.7415691 0.0088645879 0.0048393971)
(-1.7783773 0.0070676992 0.0026244695)
(-0.093563901 0.0011332452 0.00092695833)
(-0.30631626 0.0034546584 0.0028772734)
(-0.57473706 0.0059129851 0.0050036339)
(-0.88420352 0.0080077554 0.0068274936)
(-1.1987101 0.0092212176 0.0076028372)
(-1.4683985 0.009254151 0.0068121425)
(-1.6515877 0.0081906199 0.0046049349)
(-1.7406124 0.0064480281 0.0018291061)
(-1.7573352 0.0045846952 -0.00062088594)
(-0.099127774 0.0010816816 0.00076885386)
(-0.32368819 0.0032691269 0.0023926734)
(-0.6050869 0.0055202078 0.004169778)
(-0.92490289 0.0073149046 0.0056520103)
(-1.2414461 0.0081578917 0.0060888567)
(-1.5005325 0.0078176241 0.004948463)
(-1.6622126 0.006459757 0.0024021493)
(-1.7274725 0.0045753564 -0.000633133)
(-1.7289196 0.0027360747 -0.0030910805)
(-0.10391606 0.0010042115 0.00061885406)
(-0.33851481 0.0030054849 0.0019282953)
(-0.63070287 0.0050052901 0.0033652723)
(-0.95858545 0.0064870831 0.0045159861)
(-1.2754764 0.0069955034 0.0046374507)
(-1.5237016 0.0063696911 0.0032047054)
(-1.6656738 0.0048345905 0.00041802032)
(-1.710509 0.0029068614 -0.0027432559)
(-1.6993017 0.001114271 -0.0050989507)
(-0.1075912 0.00088280604 0.00046923462)
(-0.35001864 0.0026283502 0.0014724674)
(-0.6506956 0.0043367448 0.0025899179)
(-0.98474919 0.0055156692 0.0034484777)
(-1.3011984 0.0057523985 0.0033115727)
(-1.5394963 0.0049335384 0.0016533145)
(-1.6644377 0.0033199341 -0.0012933844)
(-1.6922337 0.0014332798 -0.004492291)
(-1.6705039 -0.00023925703 -0.0066851068)
(-0.1104273 0.00074091821 0.00033017282)
(-0.35890484 0.0021980053 0.0010511475)
(-0.66609564 0.0035989797 0.0018833067)
(-1.0046229 0.0044946894 0.0024941781)
(-1.3199503 0.0045192665 0.0021574304)
(-1.5493629 0.0035945714 0.00034408474)
(-1.6599225 0.0019998838 -0.0026912825)
(-1.6738332 0.00023445854 -0.005865781)
(-1.6435072 -0.0012654647 -0.0078758844)
(-0.11264826 0.00059104798 0.00021621187)
(-0.36577313 0.0017483012 0.00070456563)
(-0.67780669 0.0028440661 0.0013007378)
(-1.0193106 0.00348564 0.0017103685)
(-1.3329413 0.0033586198 0.0012184469)
(-1.5544848 0.002413957 -0.0007024989)
(-1.6531401 0.00092463533 -0.0037788028)
(-1.6560045 -0.00065440825 -0.0068937144)
(-1.6189051 -0.001948993 -0.0087229562)
(-0.11415529 0.00044236294 0.00012725303)
(-0.37047581 0.001307871 0.00043407429)
(-0.68583398 0.0021184757 0.00084761592)
(-1.0291797 0.0025478898 0.0011063436)
(-1.3409807 0.0023354026 0.00050456148)
(-1.5559385 0.0014494373 -0.0014843196)
(-1.6451161 0.00013847224 -0.0045650172)
(-1.6394529 -0.0012098304 -0.007621628)
(-1.5972217 -0.002277889 -0.0092855154)
(-0.11506405 0.0003078037 6.393954e-05)
(-0.37337025 0.00091112598 0.00024090285)
(-0.69082217 0.0014719269 0.00052334492)
(-1.0351844 0.0017362996 0.00067560054)
(-1.3452793 0.0014975726 1.668074e-06)
(-1.5550081 0.000735519 -0.0020259377)
(-1.6369426 -0.00034193296 -0.0051004777)
(-1.624921 -0.0014201186 -0.0080915102)
(-1.5789671 -0.0022535773 -0.0096306464)
(-0.11556272 0.00019548979 2.3161914e-05)
(-0.3750234 0.00058005012 0.00011534483)
(-0.69371945 0.00093572233 0.00031098938)
(-1.0385674 0.0010817924 0.0003939595)
(-1.347211 0.00086757012 -0.00032211878)
(-1.5529974 0.00028168692 -0.0023674244)
(-1.6296654 -0.00051866268 -0.0054307814)
(-1.6131507 -0.0013051376 -0.0083755628)
(-1.5646331 -0.0019042069 -0.0098252402)
(-0.11606704 0.00010590477 4.2950521e-07)
(-0.37645679 0.00031472263 4.4594887e-05)
(-0.69592428 0.00050681954 0.00019007611)
(-1.0408272 0.00057441303 0.00023183228)
(-1.3481577 0.00042620776 -0.00050916531)
(-1.5510753 5.6131222e-05 -0.0025637111)
(-1.6241909 -0.00043814184 -0.0056183936)
(-1.6047866 -0.00091700759 -0.008533198)
(-1.554688 -0.0012752085 -0.0099232396)
(-0.11607886 3.2908697e-05 -8.9996578e-06)
(-0.37661395 9.7964878e-05 1.491572e-05)
(-0.69632362 0.00015727472 0.00013874276)
(-1.0413077 0.00017507829 0.00016278649)
(-1.3481517 0.00012162033 -0.00058837984)
(-1.5498064 -4.8631972e-06 -0.0026463343)
(-1.6212569 -0.00017159442 -0.0056976386)
(-1.6004633 -0.00033152701 -0.0085996089)
(-1.5496 -0.00045003104 -0.0099616014)
(-0.11607886 -3.2895303e-05 -9.0007477e-06)
(-0.37661396 -9.7928974e-05 1.4918128e-05)
(-0.69632362 -0.00015722636 0.00013874078)
(-1.0413077 -0.00017500952 0.00016278567)
(-1.3481517 -0.0001215405 -0.00058837403)
(-1.5498064 4.9314948e-06 -0.0026463266)
(-1.6212569 0.00017166753 -0.0056976318)
(-1.6004634 0.00033166635 -0.008599608)
(-1.5496 0.00045028946 -0.0099616061)
(-0.11606704 -0.00010589492 4.2700587e-07)
(-0.3764568 -0.00031469442 4.4599051e-05)
(-0.69592429 -0.00050678417 0.00019007639)
(-1.0408272 -0.00057436507 0.00023183464)
(-1.3481576 -0.00042615358 -0.00050914776)
(-1.5510753 -5.6088746e-05 -0.0025636899)
(-1.6241909 0.00043819401 -0.0056183789)
(-1.6047866 0.00091714272 -0.0085332025)
(-1.554688 0.001275473 -0.0099232612)
(-0.11556272 -0.00019548359 2.3161191e-05)
(-0.37502341 -0.00058003218 0.00011535068)
(-0.69371947 -0.00093570082 0.00031099935)
(-1.0385675 -0.0010817659 0.00039397331)
(-1.3472109 -0.00086754446 -0.00032208662)
(-1.5529974 -0.00028167559 -0.0023673905)
(-1.6296654 0.00051868886 -0.0054307665)
(-1.6131508 0.0013052596 -0.0083755834)
(-1.5646332 0.0019044662 -0.0098252914)
(-0.11506406 -0.00030779874 6.3942308e-05)
(-0.37337028 -0.00091111224 0.00024092259)
(-0.6908222 -0.0014719144 0.00052336762)
(-1.0351844 -0.0017362876 0.00067563431)
(-1.3452793 -0.0014975672 1.7208787e-06)
(-1.5550081 -0.00073553284 -0.0020258908)
(-1.6369426 0.00034193833 -0.0051004644)
(-1.6249211 0.00142022 -0.008091545)
(-1.5789672 0.0022538142 -0.0096307309)
(-0.1141553 -0.00044235944 0.00012725182)
(-0.37047583 -0.001307855 0.00043410048)
(-0.68583402 -0.0021184714 0.00084763977)
(-1.0291798 -0.0025478924 0.001106392)
(-1.3409807 -0.0023354153 0.00050463423)
(-1.5559385 -0.0014494729 -0.001484259)
(-1.6451161 -0.00013848603 -0.0045650014)
(-1.639453 0.0012099122 -0.007621669)
(-1.5972219 0.0022781056 -0.0092856251)
(-0.11264827 -0.00059104963 0.00021620915)
(-0.36577315 -0.0017482937 0.00070459195)
(-0.67780672 -0.0028440772 0.0013007759)
(-1.0193107 -0.0034856668 0.0017104366)
(-1.3329413 -0.0033586583 0.0012185422)
(-1.5544849 -0.0024140148 -0.00070242137)
(-1.6531402 -0.00092467312 -0.0037787773)
(-1.6560047 0.00065447313 -0.0068937617)
(-1.6189053 0.001949205 -0.008723076)
(-0.11042731 -0.00074092259 0.00033017653)
(-0.35890486 -0.0021980084 0.0010511796)
(-0.66609567 -0.0035990032 0.0018833584)
(-1.004623 -0.0044947389 0.0024942547)
(-1.3199504 -0.0045193257 0.0021575338)
(-1.549363 -0.0035946506 0.00034417655)
(-1.6599227 -0.001999946 -0.0026912423)
(-1.6738334 -0.00023441456 -0.0058658392)
(-1.6435074 0.0012656792 -0.0078760041)
(-0.10759121 -0.00088280941 0.00046923701)
(-0.35001866 -0.0026283505 0.0014724963)
(-0.65069562 -0.0043367623 0.0025899669)
(-0.98474921 -0.0055157152 0.0034485483)
(-1.3011984 -0.0057524595 0.003311677)
(-1.5394964 -0.0049336249 0.0016534269)
(-1.6644378 -0.0033200057 -0.0012933286)
(-1.6922339 -0.0014332562 -0.0044923639)
(-1.6705041 0.00023947881 -0.006685266)
(-0.10391606 -0.001004208 0.00061885374)
(-0.33851483 -0.0030054696 0.0019283108)
(-0.63070288 -0.0050052777 0.0033653098)
(-0.95858544 -0.0064870928 0.0045160467)
(-1.2754764 -0.0069955443 0.0046375572)
(-1.5237016 -0.0063697547 0.0032048215)
(-1.6656739 -0.0048346264 0.00041807166)
(-1.7105092 -0.0029068017 -0.0027433799)
(-1.699302 -0.0011140411 -0.0050991894)
(-0.099127779 -0.0010816714 0.00076884668)
(-0.3236882 -0.0032690982 0.0023926665)
(-0.6050869 -0.0055201724 0.0041697894)
(-0.92490288 -0.0073148864 0.005652053)
(-1.2414461 -0.0081579031 0.0060889384)
(-1.5005325 -0.0078176483 0.0049485298)
(-1.6622128 -0.0064597419 0.0024021436)
(-1.7274728 -0.0045752214 -0.00063330415)
(-1.7289198 -0.0027358645 -0.0030913239)
(-0.093563909 -0.0011332333 0.00092694767)
(-0.30631628 -0.00345463 0.0028772549)
(-0.57473709 -0.0059129518 0.0050036295)
(-0.88420356 -0.0080077454 0.0068275008)
(-1.1987102 -0.0092212229 0.0076028443)
(-1.4683986 -0.0092541378 0.0068121111)
(-1.6515878 -0.0081905322 0.0046048112)
(-1.7406127 -0.0064477666 0.0018288793)
(-1.7573355 -0.004584379 -0.00062110529)
(-0.086868809 -0.0011096874 0.0010226889)
(-0.2854305 -0.0034397157 0.003188214)
(-0.5380719 -0.0060176949 0.0055832379)
(-0.83407885 -0.0083997642 0.0077579932)
(-1.1435055 -0.01007088 0.0090129681)
(-1.4215523 -0.010670549 0.0088104879)
(-1.6259857 -0.010176307 0.0071887814)
(-1.7415694 -0.0088643838 0.0048392437)
(-1.7783775 -0.0070674692 0.002624509)
(-0.093891597 -8.0025016e-05 -6.2053867e-05)
(-0.30762167 -0.00030786731 -0.00022359749)
(-0.57755319 -0.00072083164 -0.00045763863)
(-0.8904209 -0.0014902467 -0.00077900236)
(-1.2132745 -0.0028593225 -0.0011713713)
(-1.4998632 -0.0050239213 -0.0016093496)
(-1.7091605 -0.0079582365 -0.0021303842)
(-1.8284122 -0.01134246 -0.0028388684)
(-1.8689408 -0.014722053 -0.0037847241)
(-0.10146296 -9.2461519e-05 -6.2173894e-05)
(-0.33113149 -0.00034967737 -0.00021958618)
(-0.61854043 -0.00081335778 -0.00045112767)
(-0.94604529 -0.0016884145 -0.00077807725)
(-1.2743544 -0.0032569934 -0.0011868408)
(-1.5523954 -0.0057292148 -0.0016555896)
(-1.7403277 -0.0090463476 -0.0022403937)
(-1.8333716 -0.012799517 -0.0030809487)
(-1.8545184 -0.016392291 -0.0043003297)
(-0.10785821 -0.00010508012 -6.0532041e-05)
(-0.3509795 -0.00039259636 -0.0002145613)
(-0.65293291 -0.00090326048 -0.00044879907)
(-0.99185328 -0.0018626251 -0.00078621193)
(-1.3226279 -0.003573289 -0.0012064413)
(-1.5902476 -0.0062436751 -0.0016823577)
(-1.7571269 -0.0097719134 -0.0022720829)
(-1.8271429 -0.013665917 -0.0031034223)
(-1.8340244 -0.017262655 -0.0042417503)
(-0.11351115 -0.00013725279 -7.0262357e-05)
(-0.36836579 -0.00048802691 -0.00024228691)
(-0.68272393 -0.0010691826 -0.00050004765)
(-1.0308562 -0.0021122475 -0.00086212462)
(-1.3625796 -0.0039249185 -0.0012933111)
(-1.6198236 -0.0067057981 -0.0017550934)
(-1.7677089 -0.010318088 -0.0022986898)
(-1.8181725 -0.014212792 -0.0030193812)
(-1.813361 -0.017689971 -0.0039618208)
(-0.11805743 -0.00017387074 -7.8031387e-05)
(-0.38245726 -0.00059583858 -0.00026438161)
(-0.70697077 -0.0012504005 -0.00054017996)
(-1.0625356 -0.0023623638 -0.00091670447)
(-1.3946192 -0.0042289124 -0.0013410857)
(-1.6426603 -0.0070311571 -0.001761222)
(-1.7743868 -0.010603538 -0.0022182449)
(-1.808663 -0.01436226 -0.0027816699)
(-1.7941058 -0.017578518 -0.0034942063)
(-0.12177233 -0.00020827945 -7.8941462e-05)
(-0.39395193 -0.00069444873 -0.00026542107)
(-0.72667201 -0.0014067414 -0.00054261271)
(-1.0880505 -0.0025524802 -0.00091295225)
(-1.4199722 -0.0044061691 -0.0013028714)
(-1.6599948 -0.0071237701 -0.0016470349)
(-1.7782853 -0.010521169 -0.0019839621)
(-1.7994259 -0.014005754 -0.0023685286)
(-1.776854 -0.016860756 -0.0028598169)
(-0.12487665 -0.00023218333 -7.2313841e-05)
(-0.40342741 -0.00075872762 -0.00024317086)
(-0.74267777 -0.001495933 -0.00050218557)
(-1.1083991 -0.0026257093 -0.00084211127)
(-1.4396524 -0.004389273 -0.0011724751)
(-1.6727311 -0.0069139159 -0.001416099)
(-1.7800377 -0.010008252 -0.0016105398)
(-1.7907679 -0.013102463 -0.001814497)
(-1.7618057 -0.01553223 -0.002110871)
(-0.12721687 -0.0002367336 -5.7535181e-05)
(-0.41058877 -0.00076331363 -0.00019629578)
(-0.75476701 -0.0014762968 -0.00041932671)
(-1.1236645 -0.0025270883 -0.0007105492)
(-1.4541289 -0.0041177107 -0.00096271859)
(-1.6815387 -0.006347792 -0.0010916967)
(-1.7802096 -0.0090293634 -0.0011390609)
(-1.7829533 -0.011644826 -0.0011717966)
(-1.7490787 -0.01361829 -0.0013123309)
(-0.12886468 -0.00021812044 -3.7571842e-05)
(-0.41566428 -0.00069693988 -0.00013392585)
(-0.76336803 -0.0013298525 -0.00030982442)
(-1.1344987 -0.0022355473 -0.00054210987)
(-1.4642294 -0.0035732067 -0.00070945825)
(-1.6872568 -0.0054160771 -0.00072271878)
(-1.7794047 -0.0075931426 -0.00062750483)
(-1.7762637 -0.0096623961 -0.00050321109)
(-1.7388078 -0.011118362 -0.00053427614)
(-0.1299665 -0.00017647362 -1.6478736e-05)
(-0.41909943 -0.00056045893 -6.8442775e-05)
(-0.76922417 -0.0010595045 -0.00019576671)
(-1.1418535 -0.0017581974 -0.00037010048)
(-1.4709479 -0.0027708819 -0.00045790088)
(-1.6907419 -0.0041459464 -0.00036457571)
(-1.7782029 -0.0057433815 -0.00014135454)
(-1.770974 -0.0071915007 9.8662567e-05)
(-1.7309936 -0.0082752115 0.00011454719)
(-0.13092856 -0.00011542193 7.5866414e-07)
(-0.42186071 -0.00036475386 -1.5223262e-05)
(-0.77360093 -0.00068489746 -0.00010380916)
(-1.1469953 -0.0011262731 -0.00023272367)
(-1.4753422 -0.0017575625 -0.00025994981)
(-1.692759 -0.0026069846 -8.7183901e-05)