/*--------------------------------*- C++ -*----------------------------------*\
  =========                 |
  \\      /  F ield         | OpenFOAM: The Open Source CFD Toolbox
   \\    /   O peration     | Website:  https://openfoam.org
    \\  /    A nd           | Version:  10
     \\/     M anipulation  |
\*---------------------------------------------------------------------------*/
FoamFile
{
    format      ascii;
    class       volScalarField;
    location    "0.055";
    object      T;
}
// * * * * * * * * * * * * * * * * * * * * * * * * * * * * * * * * * * * * * //

dimensions      [0 0 0 1 0 0 0];

internalField   nonuniform List<scalar> 
12225
(
1.00694
1.00397
1.00144
1.00053
1.00001
0.99965
0.999457
0.99937
0.999323
0.99929
0.999261
0.999211
0.999103
0.998835
0.998163
0.996541
0.992311
0.982207
0.994965
0.99447
0.996349
0.997908
0.99867
0.998979
0.999136
0.999239
0.999302
0.999332
0.999337
0.999311
0.999217
0.998965
0.998321
0.996773
0.992924
0.983903
0.999592
0.99992
1
0.999967
0.999819
0.999637
0.999514
0.999449
0.999409
0.999378
0.999344
0.999293
0.999186
0.998937
0.998331
0.996909
0.993559
0.986357
1.00032
1.00007
0.999547
0.99942
0.999421
0.999388
0.999355
0.999341
0.999334
0.999323
0.999304
0.999265
0.999172
0.998948
0.998407
0.997165
0.994405
0.988885
1.00013
0.999833
0.999434
0.999387
0.999436
0.999423
0.999388
0.999365
0.999348
0.999331
0.999306
0.999264
0.999174
0.998968
0.998495
0.997451
0.995264
0.991174
0.999993
0.999846
0.999578
0.999496
0.999494
0.99946
0.999412
0.999376
0.99935
0.999325
0.999295
0.99925
0.999164
0.998982
0.998582
0.99774
0.996071
0.993122
0.999975
0.999925
0.999719
0.999592
0.999547
0.999498
0.999443
0.999399
0.999362
0.999329
0.999293
0.999245
0.999164
0.999005
0.998678
0.998023
0.996793
0.994718
0.999983
0.999963
0.999798
0.999661
0.999596
0.999539
0.999477
0.999423
0.999378
0.999337
0.999295
0.999243
0.999165
0.999026
0.998755
0.998238
0.997306
0.995783
0.999986
0.999973
0.99984
0.999706
0.999627
0.99956
0.999491
0.99943
0.999377
0.999329
0.999282
0.999228
0.999153
0.99903
0.998805
0.998394
0.99768
0.996545
0.999984
0.999963
0.999852
0.999723
0.999631
0.999554
0.999478
0.99941
0.999351
0.999297
0.999244
0.999187
0.999116
0.999009
0.998827
0.998512
0.997986
0.997172
0.99998
0.999942
0.99984
0.999715
0.999612
0.999524
0.999441
0.999365
0.9993
0.999241
0.999184
0.999125
0.999058
0.998965
0.998821
0.998588
0.998216
0.997657
0.999976
0.999921
0.999818
0.999694
0.999583
0.999486
0.999398
0.999317
0.999245
0.99918
0.99912
0.999061
0.998998
0.998918
0.998806
0.998638
0.998386
0.998019
0.999975
0.999912
0.999811
0.99969
0.999577
0.999476
0.999384
0.9993
0.999224
0.999156
0.999096
0.999037
0.998975
0.998908
0.998822
0.998704
0.998538
0.998308
0.999978
0.999919
0.999828
0.999717
0.99961
0.999512
0.999421
0.999338
0.999264
0.999196
0.999137
0.999081
0.999024
0.998966
0.998902
0.99882
0.998714
0.998576
0.999982
0.999936
0.999861
0.999769
0.999677
0.99959
0.999511
0.999438
0.99937
0.999308
0.999254
0.999205
0.999158
0.999112
0.999062
0.999007
0.998942
0.998864
0.999987
0.999957
0.999905
0.99984
0.999774
0.999712
0.999654
0.9996
0.999548
0.999503
0.999462
0.999426
0.999393
0.999361
0.999327
0.999292
0.999256
0.999214
0.999993
0.999986
0.999968
0.999941
0.999912
0.999886
0.999864
0.999841
0.99982
0.999801
0.999783
0.999767
0.999755
0.999743
0.999729
0.999715
0.9997
0.999684
1
1.00003
1.00005
1.00007
1.00009
1.00011
1.00013
1.00015
1.00017
1.00018
1.0002
1.00021
1.00022
1.00023
1.00024
1.00024
1.00025
1.00025
1.00001
1.00006
1.00011
1.00017
1.00022
1.00028
1.00034
1.00039
1.00043
1.00048
1.00051
1.00055
1.00058
1.0006
1.00063
1.00065
1.00067
1.00068
1.00001
1.00006
1.00012
1.00019
1.00026
1.00033
1.00039
1.00046
1.00052
1.00057
1.00062
1.00067
1.00071
1.00075
1.00078
1.00081
1.00084
1.00086
1.00001
1.00006
1.00012
1.00018
1.00025
1.00031
1.00038
1.00045
1.00051
1.00057
1.00062
1.00068
1.00072
1.00077
1.00081
1.00085
1.00088
1.00091
1.00001
1.00006
1.00012
1.00017
1.00023
1.0003
1.00036
1.00043
1.00049
1.00055
1.00061
1.00067
1.00072
1.00077
1.00081
1.00085
1.00089
1.00092
1
1.00008
1.00013
1.00016
1.00021
1.00027
1.00034
1.00041
1.00048
1.00054
1.0006
1.00066
1.00071
1.00076
1.00081
1.00085
1.00089
1.00093
0.999997
1.0001
1.00014
1.00015
1.00019
1.00026
1.00033
1.0004
1.00047
1.00054
1.00061
1.00067
1.00072
1.00077
1.00082
1.00086
1.00091
1.00094
1
1.00009
1.0001
1.00012
1.00019
1.00028
1.00035
1.00042
1.00049
1.00056
1.00063
1.00069
1.00074
1.00079
1.00084
1.00088
1.00093
1.00097
1.00014
1.00014
0.999953
0.999972
1.00014
1.00029
1.00039
1.00047
1.00055
1.00062
1.00068
1.00074
1.0008
1.00084
1.00089
1.00093
1.00097
1.00101
1.0005
1.00058
1.0001
0.999927
1.00003
1.00018
1.00031
1.00042
1.00053
1.00062
1.0007
1.00076
1.00082
1.00088
1.00093
1.00097
1.00102
1.00106
1.00004
1.00088
1.00115
1.00111
1.00099
1.00088
1.00081
1.0008
1.00082
1.00085
1.00088
1.00092
1.00096
1.00099
1.00103
1.00106
1.0011
1.00113
0.994517
0.993822
0.99606
0.998048
0.999185
0.99978
1.00015
1.0004
1.00059
1.00072
1.00083
1.00091
1.00098
1.00104
1.00109
1.00114
1.00118
1.00121
1.00648
1.00454
1.00223
1.0015
1.00119
1.00097
1.00088
1.00087
1.00089
1.00092
1.00096
1.00099
1.00103
1.00107
1.0011
1.00114
1.00117
1.00122
0.543495
0.543467
0.543377
0.543244
0.543078
0.542878
0.542641
0.542368
0.542063
0.541727
0.541361
0.540965
0.540542
0.540093
0.53962
0.539125
0.53861
0.538079
0.537533
0.536976
0.536412
0.535843
0.535272
0.534703
0.53414
0.533585
0.533041
0.532508
0.53199
0.531489
0.531017
0.530596
0.530281
0.530166
0.530075
0.529878
0.529711
0.529542
0.529387
0.529253
0.529121
0.529055
0.529083
0.52912
0.529211
0.529391
0.529609
0.529876
0.53019
0.53055
0.530953
0.531399
0.531887
0.532414
0.53298
0.533583
0.534222
0.534896
0.535602
0.536339
0.537106
0.537901
0.538722
0.539568
0.540437
0.541327
0.542236
0.543163
0.544107
0.545065
0.546036
0.547018
0.548011
0.549012
0.55002
0.551033
0.552051
0.553072
0.554094
0.555117
0.556139
0.55716
0.558177
0.559192
0.560201
0.561204
0.562202
0.563192
0.564174
0.565147
0.566111
0.567065
0.568008
0.56894
0.569859
0.570765
0.571656
0.57253
0.573392
0.574241
0.575075
0.575893
0.576694
0.577479
0.578246
0.578995
0.579726
0.580438
0.581131
0.581803
0.582456
0.583088
0.583698
0.584287
0.584854
0.585399
0.58592
0.586418
0.586891
0.58734
0.587763
0.588161
0.588532
0.588875
0.58919
0.589476
0.589734
0.589962
0.590161
0.590329
0.590466
0.590571
0.590645
0.590686
0.590693
0.590667
0.590606
0.59051
0.590379
0.590211
0.590006
0.589764
0.589483
0.589162
0.5888
0.588398
0.587953
0.587466
0.586935
0.58636
0.58574
0.585074
0.584363
0.583604
0.582798
0.581944
0.581041
0.580089
0.579086
0.578033
0.576929
0.575771
0.574553
0.573267
0.571914
0.570505
0.569042
0.567528
0.56596
0.564339
0.562663
0.560931
0.559143
0.557297
0.555396
0.553437
0.551445
0.54935
0.547453
0.544759
0.544704
0.544666
0.544592
0.544475
0.544322
0.544134
0.543908
0.543644
0.543343
0.543006
0.542634
0.54223
0.541798
0.54134
0.540859
0.540357
0.539838
0.539303
0.538755
0.538199
0.537638
0.537075
0.536514
0.535961
0.53542
0.534897
0.534397
0.533927
0.533492
0.533094
0.532731
0.532391
0.532061
0.531614
0.531113
0.530754
0.530479
0.530283
0.530153
0.530074
0.530056
0.530074
0.530093
0.53018
0.530335
0.530512
0.53073
0.530992
0.5313
0.531652
0.532048
0.532487
0.532967
0.533488
0.534047
0.534644
0.535276
0.535943
0.536642
0.537373
0.538133
0.538921
0.539736
0.540575
0.541437
0.54232
0.543223
0.544144
0.545082
0.546034
0.546999
0.547976
0.548962
0.549958
0.550961
0.551969
0.552982
0.553997
0.555015
0.556033
0.557051
0.558067
0.559081
0.560091
0.561097
0.562096
0.56309
0.564076
0.565054
0.566024
0.566984
0.567934
0.568874
0.569801
0.570717
0.571621
0.572513
0.573392
0.574257
0.575104
0.575936
0.576751
0.57755
0.578332
0.579096
0.579842
0.58057
0.581279
0.581968
0.582638
0.583287
0.583915
0.584522
0.585108
0.585671
0.586211
0.586729
0.587222
0.587691
0.588136
0.588555
0.588947
0.589313
0.589651
0.589961
0.590242
0.590494
0.590717
0.590909
0.591071
0.591202
0.591301
0.591368
0.591402
0.591402
0.591369
0.5913
0.591196
0.591057
0.590881
0.590668
0.590417
0.590126
0.589796
0.589425
0.589012
0.588558
0.58806
0.587518
0.586932
0.586301
0.585624
0.5849
0.58413
0.583311
0.582444
0.581528
0.580563
0.579547
0.57848
0.57736
0.576188
0.574964
0.57369
0.572363
0.570981
0.569545
0.568054
0.566509
0.564909
0.563253
0.561541
0.559771
0.557944
0.556061
0.554122
0.552145
0.550084
0.54815
0.545736
0.547194
0.547117
0.547024
0.546897
0.546733
0.546528
0.546283
0.546001
0.545681
0.545326
0.544938
0.544519
0.544072
0.543599
0.543102
0.542586
0.542052
0.541503
0.540943
0.540375
0.539803
0.539229
0.538658
0.538094
0.53754
0.537
0.536477
0.535972
0.535486
0.53502
0.534575
0.534155
0.533768
0.533402
0.53306
0.532762
0.532504
0.532295
0.532138
0.532034
0.531987
0.531997
0.532055
0.532156
0.532296
0.532473
0.532691
0.532952
0.533256
0.533603
0.533992
0.534424
0.534896
0.535408
0.535958
0.536546
0.537169
0.537827
0.538517
0.539239
0.53999
0.540769
0.541575
0.542406
0.54326
0.544136
0.545032
0.545946
0.546877
0.547823
0.548782
0.549754
0.550736
0.551727
0.552726
0.553731
0.554741
0.555754
0.55677
0.557787
0.558804
0.55982
0.560834
0.561845
0.562851
0.563853
0.564848
0.565837
0.566818
0.567791
0.568755
0.56971
0.570654
0.571587
0.572507
0.573416
0.574311
0.575193
0.576061
0.576914
0.577752
0.578574
0.57938
0.580169
0.58094
0.581694
0.582429
0.583145
0.583842
0.584519
0.585176
0.585812
0.586427
0.58702
0.587591
0.588139
0.588664
0.589165
0.589642
0.590093
0.590519
0.590919
0.591291
0.591636
0.591952
0.59224
0.592498
0.592727
0.592925
0.593092
0.593228
0.593332
0.593403
0.593441
0.593446
0.593416
0.59335
0.593249
0.593112
0.592939
0.592727
0.592477
0.592187
0.591858
0.591486
0.591073
0.590618
0.590119
0.589575
0.588987
0.588354
0.587674
0.586947
0.586173
0.58535
0.584479
0.583558
0.582588
0.581567
0.580495
0.579371
0.578195
0.576968
0.575693
0.574368
0.57299
0.571557
0.570071
0.568529
0.566932
0.565278
0.563568
0.561801
0.559975
0.558092
0.556151
0.554166
0.552103
0.550127
0.547853
0.550921
0.550806
0.550685
0.550539
0.550354
0.550126
0.549857
0.54955
0.549206
0.548827
0.548417
0.547975
0.547506
0.547012
0.546495
0.545959
0.545405
0.544838
0.54426
0.543675
0.543086
0.542497
0.541911
0.541331
0.540761
0.540203
0.539661
0.539137
0.538634
0.538153
0.5377
0.537278
0.536889
0.536529
0.5362
0.535911
0.535663
0.535457
0.535295
0.535178
0.535109
0.535087
0.535111
0.535183
0.5353
0.53546
0.535665
0.535913
0.536204
0.536537
0.536913
0.53733
0.537788
0.538285
0.53882
0.539392
0.54
0.540642
0.541317
0.542024
0.542761
0.543526
0.544318
0.545135
0.545977
0.54684
0.547724
0.548627
0.549547
0.550483
0.551433
0.552396
0.553371
0.554355
0.555348
0.556348
0.557353
0.558363
0.559376
0.560391
0.561407
0.562423
0.563437
0.564449
0.565457
0.566461
0.56746
0.568453
0.569439
0.570418
0.571388
0.57235
0.573301
0.574242
0.575171
0.576089
0.576994
0.577886
0.578765
0.579629
0.580478
0.581311
0.582129
0.58293
0.583714
0.58448
0.585228
0.585958
0.586668
0.587359
0.58803
0.58868
0.589309
0.589916
0.590501
0.591063
0.591602
0.592117
0.592607
0.593072
0.593512
0.593925
0.594311
0.594668
0.594997
0.595297
0.595568
0.595809
0.596019
0.596198
0.596344
0.596459
0.59654
0.596588
0.596602
0.596581
0.596524
0.596431
0.596302
0.596135
0.595929
0.595685
0.595401
0.595075
0.594708
0.594299
0.593846
0.59335
0.592809
0.592222
0.591589
0.59091
0.590183
0.589408
0.588585
0.587713
0.58679
0.585818
0.584794
0.58372
0.582594
0.581415
0.580186
0.578907
0.577576
0.576193
0.574755
0.573264
0.571717
0.570116
0.568458
0.566743
0.56497
0.563139
0.561248
0.559298
0.557297
0.555219
0.553201
0.550963
0.555862
0.55571
0.555562
0.555396
0.55519
0.554937
0.554643
0.554308
0.553936
0.55353
0.55309
0.552621
0.552123
0.551601
0.551058
0.550495
0.549915
0.549323
0.548722
0.548113
0.547502
0.54689
0.546283
0.545682
0.545091
0.544514
0.543953
0.543411
0.542892
0.542399
0.541934
0.5415
0.541098
0.540728
0.540393
0.540096
0.53984
0.539625
0.539453
0.539324
0.539241
0.539201
0.539207
0.539258
0.539355
0.539496
0.539681
0.53991
0.540181
0.540496
0.540852
0.541249
0.541686
0.542163
0.542677
0.543229
0.543816
0.544438
0.545093
0.54578
0.546497
0.547243
0.548017
0.548816
0.54964
0.550487
0.551355
0.552243
0.553149
0.554071
0.555009
0.555961
0.556925
0.557899
0.558883
0.559876
0.560875
0.561879
0.562888
0.563899
0.564913
0.565927
0.56694
0.567953
0.568963
0.569969
0.570971
0.571969
0.57296
0.573944
0.574921
0.57589
0.576849
0.577799
0.578738
0.579666
0.580582
0.581486
0.582376
0.583253
0.584115
0.584963
0.585794
0.58661
0.587409
0.588191
0.588954
0.5897
0.590427
0.591134
0.591821
0.592488
0.593134
0.593758
0.59436
0.594939
0.595495
0.596027
0.596534
0.597016
0.597472
0.597902
0.598303
0.598677
0.599022
0.599337
0.599623
0.599878
0.600103
0.600295
0.600456
0.600583
0.600677
0.600737
0.600762
0.600752
0.600705
0.600622
0.600502
0.600343
0.600146
0.599908
0.59963
0.599311
0.598949
0.598544
0.598095
0.597602
0.597063
0.596478
0.595847
0.595168
0.594441
0.593666
0.592842
0.591968
0.591044
0.590069
0.589042
0.587964
0.586834
0.585653
0.584419
0.583134
0.581797
0.580407
0.578963
0.577466
0.575913
0.574305
0.572641
0.57092
0.569141
0.567302
0.565403
0.563441
0.561424
0.559328
0.557277
0.555018
0.562032
0.56185
0.56168
0.561494
0.561264
0.560986
0.560664
0.560299
0.559896
0.559458
0.558986
0.558484
0.557954
0.5574
0.556824
0.55623
0.55562
0.554999
0.554368
0.553732
0.553094
0.552457
0.551825
0.5512
0.550587
0.549988
0.549407
0.548846
0.54831
0.5478
0.547318
0.546868
0.54645
0.546065
0.545716
0.545405
0.545134
0.544904
0.544715
0.544569
0.544467
0.544409
0.544395
0.544426
0.5445
0.544618
0.54478
0.544984
0.545231
0.545521
0.545851
0.546223
0.546634
0.547085
0.547573
0.548098
0.548659
0.549255
0.549885
0.550546
0.551238
0.55196
0.552709
0.553486
0.554287
0.555112
0.55596
0.556828
0.557715
0.55862
0.559541
0.560477
0.561426
0.562387
0.563359
0.56434
0.565329
0.566325
0.567326
0.568331
0.56934
0.57035
0.571361
0.572371
0.573381
0.574388
0.575392
0.576392
0.577387
0.578376
0.579359
0.580334
0.581301
0.58226
0.583208
0.584146
0.585073
0.585988
0.586891
0.587781
0.588657
0.589519
0.590365
0.591196
0.592011
0.592809
0.59359
0.594352
0.595096
0.595821
0.596527
0.597212
0.597876
0.598518
0.599139
0.599736
0.600311
0.600861
0.601387
0.601888
0.602362
0.602809
0.603229
0.60362
0.603982
0.604315
0.604617
0.604889
0.605129
0.605337
0.605512
0.605654
0.605761
0.605834
0.605872
0.605873
0.605838
0.605766
0.605655
0.605506
0.605317
0.605087
0.604816
0.604502
0.604146
0.603745
0.6033
0.60281
0.602274
0.601691
0.60106
0.600382
0.599655
0.598879
0.598053
0.597176
0.596249
0.595271
0.59424
0.593158
0.592024
0.590837
0.589598
0.588307
0.586963
0.585566
0.584115
0.582611
0.581051
0.579437
0.577766
0.576038
0.574252
0.572406
0.570498
0.568525
0.566493
0.564379
0.562297
0.55999
0.569464
0.56926
0.56907
0.568863
0.568609
0.568304
0.567952
0.567556
0.56712
0.566646
0.566139
0.565602
0.565036
0.564447
0.563836
0.563207
0.562564
0.561909
0.561247
0.560581
0.559913
0.559248
0.558588
0.557938
0.5573
0.556677
0.556074
0.555492
0.554934
0.554404
0.553903
0.553432
0.552995
0.552591
0.552223
0.551893
0.551602
0.551351
0.551141
0.550974
0.550849
0.550766
0.550727
0.550731
0.550779
0.550869
0.551001
0.551177
0.551394
0.551652
0.551952
0.552292
0.552671
0.55309
0.553546
0.554039
0.554568
0.555132
0.555729
0.556359
0.557021
0.557712
0.558432
0.55918
0.559953
0.560751
0.561572
0.562414
0.563277
0.564159
0.565058
0.565973
0.566903
0.567846
0.568801
0.569766
0.570741
0.571724
0.572713
0.573708
0.574707
0.57571
0.576714
0.57772
0.578726
0.57973
0.580733
0.581733
0.582729
0.583721
0.584707
0.585686
0.586659
0.587624
0.58858
0.589526
0.590463
0.591389
0.592303
0.593204
0.594093
0.594968
0.595829
0.596675
0.597505
0.598318
0.599115
0.599895
0.600656
0.601399
0.602122
0.602826
0.603508
0.604169
0.604809
0.605425
0.606019
0.606588
0.607133
0.607653
0.608146
0.608611
0.609049
0.609459
0.609839
0.610189
0.610509
0.610797
0.611054
0.611278
0.611468
0.611625
0.611747
0.611833
0.611884
0.611898
0.611874
0.611813
0.611713
0.611573
0.611392
0.61117
0.610906
0.610599
0.610248
0.609852
0.609411
0.608924
0.60839
0.607808
0.607178
0.6065
0.605772
0.604994
0.604166
0.603287
0.602356
0.601374
0.600339
0.599252
0.598112
0.596919
0.595674
0.594376
0.593025
0.59162
0.590162
0.588651
0.587084
0.585462
0.583784
0.582049
0.580255
0.578401
0.576484
0.574501
0.572456
0.570323
0.568212
0.56585
0.578204
0.577985
0.577775
0.577546
0.577267
0.576933
0.57655
0.576121
0.57565
0.575141
0.574597
0.574022
0.573419
0.572791
0.572143
0.571477
0.570798
0.570108
0.569412
0.568712
0.568012
0.567316
0.566627
0.565949
0.565284
0.564635
0.564006
0.5634
0.562818
0.562264
0.561739
0.561245
0.560784
0.560357
0.559965
0.559611
0.559295
0.559018
0.558782
0.558587
0.558434
0.558322
0.558252
0.558225
0.558239
0.558296
0.558394
0.558534
0.558715
0.558937
0.5592
0.559502
0.559843
0.560223
0.560641
0.561095
0.561586
0.562111
0.562671
0.563263
0.563887
0.564541
0.565225
0.565937
0.566675
0.56744
0.568228
0.569039
0.569871
0.570723
0.571594
0.572482
0.573386
0.574305
0.575237
0.576181
0.577136
0.578099
0.579072
0.580051
0.581036
0.582025
0.583019
0.584014
0.585011
0.586009
0.587006
0.588001
0.588994
0.589984
0.590969
0.59195
0.592924
0.593892
0.594852
0.595804
0.596746
0.597679
0.598601
0.599512
0.600411
0.601297
0.602169
0.603028
0.603871
0.604699
0.60551
0.606304
0.607081
0.60784
0.60858
0.6093
0.609999
0.610678
0.611335
0.61197
0.612581
0.613169
0.613732
0.614269
0.61478
0.615264
0.61572
0.616147
0.616544
0.616912
0.617248
0.617553
0.617826
0.618065
0.618271
0.618442
0.618578
0.618678
0.618742
0.618768
0.618756
0.618706
0.618615
0.618485
0.618313
0.618099
0.617841
0.61754
0.617194
0.616803
0.616366
0.615881
0.615349
0.614768
0.614139
0.61346
0.612731
0.611952
0.611121
0.610239
0.609304
0.608317
0.607278
0.606185
0.605039
0.60384
0.602588
0.601283
0.599924
0.598512
0.597046
0.595526
0.593952
0.592322
0.590637
0.588895
0.587094
0.585233
0.583308
0.581315
0.579258
0.577109
0.574971
0.572555
0.58831
0.588078
0.587849
0.587596
0.58729
0.586927
0.586511
0.586048
0.585542
0.584995
0.584413
0.583799
0.583156
0.582489
0.581801
0.581097
0.580379
0.579652
0.57892
0.578185
0.577451
0.576722
0.576002
0.575292
0.574597
0.57392
0.573262
0.572628
0.572019
0.571437
0.570884
0.570362
0.569873
0.569418
0.568998
0.568614
0.568268
0.567961
0.567693
0.567465
0.567277
0.56713
0.567024
0.566959
0.566935
0.566952
0.56701
0.567108
0.567247
0.567426
0.567645
0.567903
0.568199
0.568534
0.568906
0.569315
0.56976
0.57024
0.570754
0.571301
0.571881
0.572491
0.573131
0.5738
0.574497
0.57522
0.575968
0.576739
0.577533
0.578349
0.579184
0.580038
0.580909
0.581796
0.582698
0.583613
0.58454
0.585478
0.586426
0.587383
0.588346
0.589316
0.590291
0.59127
0.592252
0.593236
0.594221
0.595206
0.596189
0.597171
0.59815
0.599125
0.600096
0.601061
0.60202
0.602972
0.603916
0.604851
0.605777
0.606692
0.607596
0.608489
0.609369
0.610235
0.611088
0.611925
0.612747
0.613553
0.614342
0.615113
0.615866
0.6166
0.617314
0.618007
0.618679
0.619329
0.619956
0.620559
0.621138
0.621691
0.622218
0.622718
0.623189
0.623632
0.624045
0.624428
0.62478
0.6251
0.625387
0.625641
0.625861
0.626046
0.626195
0.626307
0.626383
0.62642
0.626419
0.626378
0.626297
0.626175
0.626011
0.625804
0.625553
0.625258
0.624917
0.624529
0.624095
0.623612
0.623082
0.622502
0.621873
0.621194
0.620463
0.619681
0.618848
0.617962
0.617023
0.616032
0.614987
0.613889
0.612737
0.611531
0.610272
0.608959
0.607593
0.606173
0.604699
0.603172
0.60159
0.599953
0.598261
0.596512
0.594704
0.592836
0.590905
0.588905
0.586838
0.584675
0.582516
0.580051
0.599848
0.599602
0.599353
0.599075
0.598741
0.598347
0.597898
0.5974
0.596856
0.596271
0.595649
0.594994
0.594311
0.593603
0.592874
0.592129
0.591372
0.590606
0.589834
0.589062
0.588292
0.587528
0.586772
0.586029
0.585302
0.584592
0.583902
0.583236
0.582595
0.581982
0.581397
0.580843
0.580321
0.579833
0.579379
0.578961
0.57858
0.578236
0.57793
0.577663
0.577435
0.577246
0.577098
0.576989
0.57692
0.576891
0.576902
0.576952
0.577042
0.577171
0.577339
0.577546
0.577791
0.578073
0.578392
0.578748
0.57914
0.579567
0.580028
0.580522
0.581048
0.581606
0.582195
0.582813
0.583459
0.584132
0.584831
0.585555
0.586303
0.587072
0.587863
0.588674
0.589503
0.59035
0.591212
0.59209
0.592981
0.593885
0.5948
0.595725
0.596659
0.5976
0.598549
0.599503
0.600461
0.601423
0.602388
0.603354
0.60432
0.605286
0.606251
0.607213
0.608173
0.609128
0.610079
0.611023
0.611961
0.612892
0.613815
0.614728
0.615631
0.616524
0.617405
0.618274
0.61913
0.619971
0.620799
0.621611
0.622406
0.623185
0.623946
0.624689
0.625412
0.626115
0.626798
0.627458
0.628097
0.628712
0.629302
0.629868
0.630407
0.630919
0.631404
0.631859
0.632285
0.632681
0.633045
0.633377
0.633677
0.633943
0.634174
0.63437
0.63453
0.634653
0.634738
0.634785
0.634793
0.634761
0.634688
0.634573
0.634416
0.634215
0.633969
0.633678
0.633341
0.632956
0.632524
0.632044
0.631514
0.630935
0.630305
0.629625
0.628892
0.628108
0.627271
0.626382
0.625439
0.624443
0.623393
0.622288
0.62113
0.619918
0.618652
0.617332
0.615959
0.614531
0.61305
0.611515
0.609927
0.608283
0.606584
0.60483
0.603017
0.601144
0.599208
0.597203
0.59513
0.592958
0.590782
0.588276
0.612891
0.612631
0.61236
0.612055
0.61169
0.611263
0.61078
0.610244
0.609662
0.609037
0.608374
0.607677
0.60695
0.606199
0.605428
0.604641
0.603841
0.603033
0.602221
0.601409
0.6006
0.599797
0.599005
0.598225
0.59746
0.596714
0.595989
0.595287
0.59461
0.593961
0.593339
0.592748
0.592189
0.591662
0.591169
0.590711
0.590288
0.589901
0.589551
0.589239
0.588965
0.588728
0.588531
0.588371
0.588251
0.588169
0.588125
0.58812
0.588154
0.588226
0.588336
0.588483
0.588668
0.58889
0.589149
0.589444
0.589774
0.590139
0.590538
0.59097
0.591435
0.591932
0.592459
0.593017
0.593603
0.594217
0.594857
0.595524
0.596214
0.596929
0.597665
0.598422
0.5992
0.599995
0.600809
0.601639
0.602483
0.603342
0.604214
0.605097
0.60599
0.606894
0.607805
0.608724
0.609648
0.610578
0.611513
0.61245
0.613389
0.61433
0.615271
0.616211
0.61715
0.618086
0.619019
0.619947
0.620871
0.621788
0.622699
0.623601
0.624495
0.62538
0.626255
0.627118
0.627969
0.628808
0.629633
0.630444
0.631239
0.632018
0.632781
0.633526
0.634252
0.634959
0.635646
0.636312
0.636956
0.637577
0.638174
0.638747
0.639293
0.639813
0.640305
0.640769
0.641204
0.641608
0.641981
0.642321
0.642629
0.642904
0.643143
0.643347
0.643515
0.643646
0.643738
0.643792
0.643807
0.643781
0.643714
0.643604
0.643452
0.643255
0.643013
0.642725
0.64239
0.642008
0.641577
0.641097
0.640568
0.639988
0.639357
0.638675
0.637941
0.637154
0.636314
0.63542
0.634473
0.633472
0.632417
0.631307
0.630143
0.628925
0.627653
0.626326
0.624946
0.623512
0.622024
0.620483
0.618888
0.617238
0.615535
0.613776
0.611959
0.610083
0.608145
0.606138
0.604063
0.601885
0.5997
0.597162
0.62752
0.627245
0.62695
0.626615
0.626217
0.625755
0.625234
0.624659
0.624035
0.623367
0.62266
0.621918
0.621147
0.62035
0.619533
0.6187
0.617856
0.617004
0.616148
0.615293
0.614441
0.613597
0.612763
0.611942
0.611137
0.610351
0.609586
0.608843
0.608126
0.607435
0.606772
0.606138
0.605536
0.604964
0.604426
0.603921
0.603451
0.603015
0.602615
0.602251
0.601923
0.601632
0.601378
0.601161
0.600981
0.600838
0.600733
0.600665
0.600635
0.600641
0.600685
0.600765
0.600882
0.601035
0.601224
0.601448
0.601707
0.602001
0.602329
0.602689
0.603083
0.603508
0.603964
0.604451
0.604966
0.60551
0.606081
0.606679
0.607302
0.607949
0.608619
0.609312
0.610025
0.610759
0.611511
0.612281
0.613067
0.613869
0.614685
0.615514
0.616355
0.617208
0.61807
0.618942
0.619821
0.620707
0.621599
0.622495
0.623396
0.624299
0.625205
0.626111
0.627018
0.627924
0.628828
0.62973
0.630627
0.631521
0.632409
0.633291
0.634166
0.635032
0.63589
0.636738
0.637576
0.638402
0.639215
0.640016
0.640802
0.641574
0.642329
0.643068
0.64379
0.644493
0.645176
0.64584
0.646482
0.647103
0.647699
0.648272
0.64882
0.649341
0.649836
0.650302
0.650739
0.651146
0.651522
0.651867
0.652179
0.652457
0.6527
0.652908
0.65308
0.653214
0.653311
0.653369
0.653387
0.653364
0.6533
0.653193
0.653043
0.652848
0.652607
0.65232
0.651987
0.651605
0.651174
0.650694
0.650163
0.649583
0.64895
0.648266
0.647529
0.646738
0.645895
0.644998
0.644046
0.643041
0.641981
0.640866
0.639696
0.638473
0.637194
0.635862
0.634476
0.633036
0.631543
0.629996
0.628396
0.626743
0.625036
0.623274
0.621456
0.619579
0.617642
0.615636
0.613563
0.611386
0.609198
0.606639
0.643828
0.643535
0.643214
0.642845
0.64241
0.641909
0.641346
0.640727
0.640057
0.639342
0.638586
0.637795
0.636974
0.636127
0.635261
0.634379
0.633485
0.632585
0.631681
0.630779
0.62988
0.62899
0.62811
0.627244
0.626394
0.625563
0.624752
0.623964
0.623201
0.622463
0.621753
0.621071
0.620419
0.619797
0.619207
0.618649
0.618124
0.617633
0.617175
0.616752
0.616363
0.61601
0.615691
0.615409
0.615162
0.614951
0.614775
0.614636
0.614532
0.614465
0.614433
0.614436
0.614475
0.61455
0.614659
0.614803
0.614981
0.615194
0.615439
0.615718
0.616028
0.616371
0.616744
0.617148
0.617581
0.618043
0.618532
0.619049
0.619591
0.620159
0.62075
0.621365
0.622001
0.622659
0.623336
0.624032
0.624747
0.625478
0.626225
0.626986
0.627761
0.628549
0.629349
0.630159
0.630979
0.631807
0.632643
0.633486
0.634334
0.635187
0.636044
0.636903
0.637765
0.638627
0.63949
0.640352
0.641211
0.642069
0.642922
0.643771
0.644614
0.645451
0.646281
0.647102
0.647915
0.648717
0.649509
0.650288
0.651055
0.651809
0.652548
0.653271
0.653978
0.654668
0.655339
0.655992
0.656624
0.657235
0.657823
0.658388
0.658929
0.659445
0.659934
0.660395
0.660829
0.661232
0.661606
0.661948
0.662258
0.662534
0.662776
0.662983
0.663154
0.663287
0.663383
0.663441
0.663458
0.663435
0.663371
0.663263
0.663112
0.662916
0.662675
0.662387
0.662052
0.661668
0.661236
0.660754
0.660221
0.659638
0.659003
0.658315
0.657575
0.656781
0.655934
0.655033
0.654078
0.653068
0.652003
0.650884
0.649709
0.648481
0.647198
0.645861
0.64447
0.643026
0.641528
0.639978
0.638375
0.636719
0.635011
0.633248
0.631431
0.629557
0.627623
0.625623
0.623556
0.621386
0.619202
0.616633
0.661915
0.661602
0.661249
0.660842
0.660364
0.659816
0.659205
0.658535
0.657812
0.657043
0.656232
0.655385
0.654507
0.653605
0.652682
0.651745
0.650796
0.649842
0.648885
0.64793
0.646979
0.646038
0.645107
0.64419
0.64329
0.642408
0.641546
0.640707
0.639891
0.639101
0.638336
0.6376
0.636892
0.636213
0.635564
0.634945
0.634358
0.633803
0.63328
0.632789
0.632332
0.631908
0.631517
0.63116
0.630837
0.630548
0.630294
0.630073
0.629887
0.629735
0.629618
0.629535
0.629486
0.629471
0.62949
0.629542
0.629628
0.629747
0.629899
0.630083
0.630299
0.630546
0.630824
0.631132
0.63147
0.631836
0.63223
0.632652
0.633099
0.633573
0.634071
0.634593
0.635138
0.635705
0.636293
0.6369
0.637528
0.638173
0.638835
0.639514
0.640208
0.640916
0.641637
0.642371
0.643116
0.643871
0.644636
0.645409
0.64619
0.646978
0.647771
0.648569
0.64937
0.650175
0.650982
0.651789
0.652597
0.653404
0.654209
0.655011
0.65581
0.656604
0.657392
0.658174
0.658949
0.659716
0.660473
0.66122
0.661955
0.662679
0.66339
0.664087
0.664768
0.665434
0.666083
0.666714
0.667326
0.667918
0.668489
0.669038
0.669563
0.670064
0.670539
0.670988
0.67141
0.671803
0.672166
0.672498
0.672799
0.673067
0.673302
0.673502
0.673666
0.673794
0.673884
0.673936
0.673948
0.67392
0.673851
0.673739
0.673584
0.673384
0.673139
0.672847
0.672508
0.67212
0.671684
0.671199
0.670662
0.670075
0.669436
0.668745
0.668001
0.667203
0.666352
0.665447
0.664487
0.663473
0.662404
0.661281
0.660103
0.658871
0.657584
0.656243
0.654849
0.653402
0.651902
0.65035
0.648746
0.64709
0.645382
0.643622
0.641808
0.639939
0.638012
0.636022
0.633966
0.631809
0.629637
0.627069
0.681898
0.681558
0.681166
0.680712
0.680183
0.679579
0.678909
0.678177
0.67739
0.676555
0.675678
0.674765
0.673821
0.672853
0.671865
0.670863
0.669852
0.668836
0.667818
0.666803
0.665795
0.664795
0.663806
0.662832
0.661875
0.660936
0.660017
0.659119
0.658245
0.657394
0.656569
0.655771
0.654999
0.654254
0.653539
0.652852
0.652194
0.651567
0.650969
0.650403
0.649867
0.649362
0.648889
0.648448
0.648039
0.647662
0.647318
0.647006
0.646726
0.646479
0.646265
0.646084
0.645935
0.645819
0.645735
0.645684
0.645665
0.645678
0.645723
0.6458
0.645907
0.646045
0.646214
0.646412
0.646639
0.646895
0.647179
0.647491
0.647829
0.648193
0.648582
0.648996
0.649433
0.649893
0.650375
0.650878
0.651402
0.651945
0.652506
0.653085
0.653681
0.654293
0.654919
0.65556
0.656214
0.65688
0.657557
0.658245
0.658942
0.659647
0.660361
0.661081
0.661807
0.662538
0.663273
0.664011
0.664752
0.665493
0.666235
0.666975
0.667715
0.668451
0.669184
0.669913
0.670636
0.671353
0.672063
0.672764
0.673456
0.674137
0.674807
0.675465
0.67611
0.67674
0.677355
0.677954
0.678535
0.679097
0.67964
0.680162
0.680662
0.681138
0.681591
0.682018
0.682419
0.682793
0.683138
0.683453
0.683738
0.68399
0.68421
0.684396
0.684547
0.684663
0.684742
0.684783
0.684785
0.684747
0.684669
0.684548
0.684384
0.684177
0.683924
0.683625
0.683279
0.682885
0.682443
0.681951
0.68141
0.680817
0.680173
0.679476
0.678728
0.677925
0.67707
0.67616
0.675197
0.674179
0.673107
0.67198
0.670799
0.669564
0.668275
0.666932
0.665536
0.664088
0.662588
0.661036
0.659433
0.657779
0.656074
0.654319
0.652512
0.650651
0.648735
0.646758
0.644719
0.64258
0.640427
0.637872
0.703931
0.703557
0.703117
0.702603
0.702007
0.701331
0.700582
0.699769
0.698899
0.697979
0.697017
0.696019
0.694992
0.693942
0.692875
0.691796
0.69071
0.68962
0.688531
0.687447
0.68637
0.685303
0.684249
0.68321
0.682187
0.681183
0.680198
0.679234
0.678293
0.677374
0.67648
0.67561
0.674766
0.673947
0.673155
0.67239
0.671652
0.670941
0.670259
0.669605
0.66898
0.668384
0.667817
0.66728
0.666773
0.666296
0.66585
0.665433
0.665048
0.664693
0.664369
0.664076
0.663814
0.663583
0.663383
0.663213
0.663075
0.662968
0.662891
0.662845
0.662828
0.662842
0.662886
0.662958
0.66306
0.663189
0.663347
0.663532
0.663744
0.663982
0.664245
0.664534
0.664846
0.665183
0.665542
0.665923
0.666326
0.666749
0.667192
0.667655
0.668135
0.668633
0.669148
0.669678
0.670223
0.670783
0.671355
0.67194