/*--------------------------------*- C++ -*----------------------------------*\
  =========                 |
  \\      /  F ield         | OpenFOAM: The Open Source CFD Toolbox
   \\    /   O peration     | Website:  https://openfoam.org
    \\  /    A nd           | Version:  10
     \\/     M anipulation  |
\*---------------------------------------------------------------------------*/
FoamFile
{
    format      ascii;
    class       volScalarField;
    location    "1";
    object      T;
}
// * * * * * * * * * * * * * * * * * * * * * * * * * * * * * * * * * * * * * //

dimensions      [0 0 -1 0 0 0 0];

internalField   nonuniform List<scalar> 
100
(
0.0018617
0.00551922
0.00898123
0.0121251
0.0148394
0.017028
0.0186134
0.0195393
0.0197731
0.0193064
0.0181558
0.016362
0.0139885
0.0111196
0.00785667
0.00431545
0.000621351
-0.00309477
-0.00670127
-0.0100704
-0.0130827
-0.0156316
-0.0176268
-0.0189976
-0.0196953
-0.0196955
-0.0189979
-0.0176273
-0.0156322
-0.0130833
-0.0100708
-0.00670158
-0.00309488
0.00062146
0.00431576
0.00785716
0.0111202
0.0139893
0.0163628
0.0181567
0.0193074
0.0197741
0.0195402
0.0186142
0.0170287
0.01484
0.0121256
0.00898161
0.00551945
0.00186177
-0.00186187
-0.00551955
-0.00898168
-0.0121256
-0.01484
-0.0170287
-0.0186142
-0.0195402
-0.019774
-0.0193073
-0.0181567
-0.0163628
-0.0139892
-0.0111201
-0.00785709
-0.0043157
-0.000621417
0.0030949
0.00670158
0.0100708
0.0130833
0.0156322
0.0176273
0.0189979
0.0196955
0.0196954
0.0189976
0.0176268
0.0156316
0.0130827
0.0100703
0.00670119
0.0030947
-0.000621413
-0.0043155
-0.0078567
-0.0111196
-0.0139885
-0.016362
-0.0181558
-0.0193064
-0.0197731
-0.0195393
-0.0186133
-0.0170279
-0.0148393
-0.012125
-0.00898124
-0.00551927
-0.00186176
)
;

boundaryField
{
    inlet
    {
        type            cyclic;
    }
    outlet
    {
        type            cyclic;
    }
    bottom
    {
        type            slip;
    }
    top
    {
        type            slip;
    }
    frontAndBack
    {
        type            empty;
    }
}


// ************************************************************************* //
