/*--------------------------------*- C++ -*----------------------------------*\
  =========                 |
  \\      /  F ield         | OpenFOAM: The Open Source CFD Toolbox
   \\    /   O peration     | Website:  https://openfoam.org
    \\  /    A nd           | Version:  10
     \\/     M anipulation  |
\*---------------------------------------------------------------------------*/
FoamFile
{
    format      ascii;
    class       volScalarField;
    location    "1";
    object      T_0;
}
// * * * * * * * * * * * * * * * * * * * * * * * * * * * * * * * * * * * * * //

dimensions      [0 0 -1 0 0 0 0];

internalField   nonuniform List<scalar> 
100
(
0.00306392
0.00908325
0.0147808
0.0199548
0.0244218
0.0280237
0.0306328
0.0321567
0.0325414
0.0317734
0.0298798
0.0269276
0.0230216
0.0183
0.0129301
0.00710214
0.00102259
-0.00509319
-0.0110285
-0.0165732
-0.0215308
-0.0257256
-0.0290091
-0.031265
-0.0324133
-0.0324134
-0.0312653
-0.0290096
-0.0257262
-0.0215313
-0.0165737
-0.0110288
-0.00509327
0.00102273
0.00710248
0.0129306
0.0183006
0.0230224
0.0269285
0.0298807
0.0317744
0.0325424
0.0321576
0.0306336
0.0280244
0.0244224
0.0199553
0.0147812
0.00908346
0.00306396
-0.00306408
-0.00908357
-0.0147813
-0.0199553
-0.0244225
-0.0280244
-0.0306336
-0.0321576
-0.0325424
-0.0317743
-0.0298807
-0.0269285
-0.0230223
-0.0183005
-0.0129305
-0.00710239
-0.00102266
0.00509332
0.0110289
0.0165737
0.0215313
0.0257261
0.0290096
0.0312653
0.0324135
0.0324134
0.031265
0.0290091
0.0257256
0.0215307
0.0165731
0.0110284
0.00509309
-0.00102268
-0.00710221
-0.0129301
-0.0183
-0.0230216
-0.0269276
-0.0298798
-0.0317734
-0.0325414
-0.0321567
-0.0306327
-0.0280236
-0.0244217
-0.0199547
-0.0147808
-0.00908327
-0.00306395
)
;

boundaryField
{
    inlet
    {
        type            cyclic;
    }
    outlet
    {
        type            cyclic;
    }
    bottom
    {
        type            slip;
    }
    top
    {
        type            slip;
    }
    frontAndBack
    {
        type            empty;
    }
}


// ************************************************************************* //
