/*--------------------------------*- C++ -*----------------------------------*\
  =========                 |
  \\      /  F ield         | OpenFOAM: The Open Source CFD Toolbox
   \\    /   O peration     | Website:  https://openfoam.org
    \\  /    A nd           | Version:  10
     \\/     M anipulation  |
\*---------------------------------------------------------------------------*/
FoamFile
{
    format      ascii;
    class       volScalarField;
    location    "21.5";
    object      T;
}
// * * * * * * * * * * * * * * * * * * * * * * * * * * * * * * * * * * * * * //

dimensions      [0 0 -1 0 0 0 0];

internalField   nonuniform List<scalar> 
100
(
1.78204
5.32958
8.82981
12.2517
15.5648
18.7397
21.7484
24.5639
27.1615
29.518
31.6124
33.4263
34.9435
36.1505
37.0367
37.5941
37.8178
37.7059
37.2593
36.4819
35.3808
33.9656
32.2489
30.246
27.9747
25.455
22.7094
19.7622
16.6396
13.3693
9.9804
6.50287
2.96763
-0.593956
-4.15026
-7.66973
-11.1211
-14.4738
-17.698
-20.7651
-23.6479
-26.3208
-28.7601
-30.9441
-32.8534
-34.4711
-35.7829
-36.777
-37.4447
-37.78
-37.78
-37.4447
-36.777
-35.7829
-34.4711
-32.8534
-30.944
-28.76
-26.3208
-23.6479
-20.7651
-17.698
-14.4737
-11.1211
-7.66967
-4.1502
-0.593894
2.96769
6.50293
9.98046
13.3694
16.6397
19.7623
22.7094
25.455
27.9747
30.2461
32.249
33.9657
35.3808
36.482
37.2593
37.7059
37.8179
37.5941
37.0367
36.1506
34.9435
33.4264
31.6125
29.518
27.1615
24.564
21.7484
18.7398
15.5648
12.2517
8.82982
5.32959
1.78205
)
;

boundaryField
{
    xmin
    {
        type            fixedValue;
        value           uniform 0;
    }
    xmax
    {
        type            fixedValue;
        value           uniform 0;
    }
    frontAndBack
    {
        type            empty;
    }
}


// ************************************************************************* //
