/*--------------------------------*- C++ -*----------------------------------*\
  =========                 |
  \\      /  F ield         | OpenFOAM: The Open Source CFD Toolbox
   \\    /   O peration     | Website:  https://openfoam.org
    \\  /    A nd           | Version:  10
     \\/     M anipulation  |
\*---------------------------------------------------------------------------*/
FoamFile
{
    format      ascii;
    class       volScalarField;
    location    "7.5";
    object      T_0;
}
// * * * * * * * * * * * * * * * * * * * * * * * * * * * * * * * * * * * * * //

dimensions      [0 0 -1 0 0 0 0];

internalField   nonuniform List<scalar> 
100
(
6.86884
20.5427
34.0343
47.2237
59.994
72.2318
83.8285
94.6811
104.693
113.776
121.849
128.841
134.689
139.341
142.757
144.905
145.768
145.336
143.615
140.619
136.374
130.919
124.303
116.582
107.827
98.1154
87.5325
76.1726
64.1367
51.5314
38.4688
25.0647
11.4381
-2.28999
-15.9978
-29.5635
-42.8669
-55.7898
-68.2174
-80.0396
-91.1514
-101.454
-110.856
-119.274
-126.634
-132.869
-137.926
-141.757
-144.331
-145.624
-145.624
-144.331
-141.757
-137.925
-132.869
-126.634
-119.274
-110.856
-101.454
-91.1513
-80.0395
-68.2173
-55.7896
-42.8668
-29.5634
-15.9976
-2.28984
11.4383
25.0648
38.4689
51.5316
64.1368
76.1728
87.5326
98.1156
107.828
116.583
124.303
130.92
136.374
140.619
143.615
145.336
145.768
144.906
142.757
139.341
134.689
128.841
121.849
113.776
104.693
94.6811
83.8285
72.2318
59.994
47.2237
34.0343
20.5427
6.86884
)
;

boundaryField
{
    xmin
    {
        type            fixedValue;
        value           uniform 0;
    }
    xmax
    {
        type            fixedValue;
        value           uniform 0;
    }
    frontAndBack
    {
        type            empty;
    }
}


// ************************************************************************* //
