/*--------------------------------*- C++ -*----------------------------------*\
| =========                 |                                                 |
| \\      /  F ield         | OpenFOAM: The Open Source CFD Toolbox           |
|  \\    /   O peration     | Version:  2406                                  |
|   \\  /    A nd           | Website:  www.openfoam.com                      |
|    \\/     M anipulation  |                                                 |
\*---------------------------------------------------------------------------*/
FoamFile
{
    version     2.0;
    format      ascii;
    arch        "LSB;label=32;scalar=64";
    class       volScalarField;
    location    "30";
    object      p;
}
// * * * * * * * * * * * * * * * * * * * * * * * * * * * * * * * * * * * * * //

dimensions      [0 2 -2 0 0 0 0];

internalField   nonuniform List<scalar> 
1176
(
0.79699976
0.79702263
0.7970463
0.79705396
0.79702243
0.79692774
0.79677051
0.79658434
0.79640514
0.79623799
0.79608336
0.79598776
0.79598776
0.79608337
0.796238
0.79640518
0.79658441
0.79677063
0.79692792
0.7970227
0.79705433
0.7970468
0.79702326
0.79700048
0.77385133
0.77380437
0.77375662
0.77373972
0.77380222
0.77400458
0.7743699
0.7748343
0.77526516
0.77555126
0.77567066
0.77570492
0.77570491
0.77567065
0.77555124
0.77526512
0.77483423
0.77436979
0.77400443
0.77380202
0.77373946
0.7737563
0.77380401
0.77385093
0.75676658
0.75678859
0.75680838
0.75680647
0.75674741
0.75658624
0.75631447
0.75598652
0.75568031
0.75546752
0.75535672
0.7553079
0.7553079
0.75535673
0.75546754
0.75568035
0.75598657
0.75631452
0.75658628
0.75674744
0.75680649
0.75680839
0.75678858
0.75676655
0.74009468
0.74010381
0.74011587
0.74013227
0.74015481
0.74017238
0.74014015
0.74000674
0.73977463
0.73950206
0.73927785
0.73915736
0.73915736
0.73927786
0.73950207
0.73977464
0.74000675
0.74014016
0.74017239
0.74015482
0.74013228
0.74011588
0.74010383
0.7400947
0.72367564
0.72367959
0.72368458
0.72369064
0.72370035
0.72372062
0.7237568
0.72379831
0.72381998
0.72379611
0.72373399
0.72368136
0.72368136
0.72373399
0.72379611
0.72381998
0.72379831
0.7237568
0.72372061
0.72370033
0.72369063
0.72368456
0.72367957
0.72367561
0.70721398
0.70721639
0.70721964
0.70722368
0.70722859
0.70723543
0.70724959
0.70728091
0.7073309
0.70738814
0.70743085
0.70744751
0.70744751
0.70743085
0.70738814
0.7073309
0.70728091
0.70724959
0.70723542
0.70722859
0.70722368
0.70721963
0.70721639
0.70721398
0.69080817
0.69081031
0.69081312
0.69081655
0.69082044
0.69082396
0.69082602
0.6908282
0.69083675
0.69085398
0.69087188
0.69088359
0.69088359
0.69087188
0.69085398
0.69083675
0.6908282
0.69082602
0.69082396
0.69082044
0.69081655
0.69081312
0.69081031
0.69080818
0.67442831
0.67443006
0.67443239
0.67443531
0.67443898
0.67444336
0.67444781
0.67445096
0.6744522
0.67445382
0.67445086
0.67444835
0.67444835
0.67445086
0.67445382
0.6744522
0.67445096
0.67444781
0.67444335
0.67443899
0.67443532
0.6744324
0.67443007
0.67442832
0.65807402
0.65807548
0.6580774
0.65807982
0.65808283
0.65808662
0.65809166
0.65809871
0.6581074
0.65811742
0.65812519
0.65812878
0.65812878
0.65812519
0.65811742
0.65810739
0.65809871
0.65809166
0.65808662
0.65808284
0.65807982
0.65807742
0.65807549
0.65807404
0.64173633
0.64173753
0.64173914
0.64174118
0.64174374
0.64174692
0.64175108
0.64175747
0.64176763
0.64178077
0.64179509
0.6418044
0.6418044
0.64179509
0.64178076
0.64176763
0.64175747
0.64175108
0.64174692
0.64174375
0.64174119
0.64173916
0.64173756
0.64173636
0.62541195
0.62541298
0.62541435
0.6254161
0.62541831
0.62542104
0.62542443
0.62542928
0.62543714
0.6254478
0.62546036
0.6254695
0.6254695
0.62546036
0.6254478
0.62543714
0.62542927
0.62542443
0.62542104
0.62541832
0.62541611
0.62541437
0.625413
0.62541198
0.60909848
0.60909937
0.60910057
0.60910209
0.60910403
0.60910643
0.60910939
0.6091134
0.60911962
0.60912828
0.60913885
0.6091463
0.6091463
0.60913885
0.60912828
0.60911962
0.6091134
0.60910939
0.60910643
0.60910404
0.60910211
0.60910059
0.6090994
0.60909851
0.59279428
0.59279507
0.59279613
0.59279747
0.59279919
0.59280132
0.59280396
0.5928075
0.5928129
0.59282065
0.59283034
0.59283702
0.59283702
0.59283034
0.59282064
0.59281289
0.59280749
0.59280396
0.59280133
0.5927992
0.59279749
0.59279615
0.5927951
0.59279432
0.57649806
0.57649876
0.5764997
0.57650091
0.57650244
0.57650435
0.5765067
0.57650983
0.5765146
0.57652158
0.57653024
0.57653633
0.57653633
0.57653024
0.57652157
0.5765146
0.57650982
0.57650669
0.57650435
0.57650245
0.57650093
0.57649973
0.5764988
0.57649811
0.56020879
0.56020942
0.56021027
0.56021135
0.56021273
0.56021445
0.56021655
0.56021931
0.56022347
0.5602296
0.56023713
0.56024253
0.56024253
0.56023713
0.5602296
0.56022346
0.5602193
0.56021654
0.56021445
0.56021274
0.56021137
0.5602103
0.56020947
0.56020885
0.54392567
0.54392624
0.543927
0.54392798
0.54392924
0.54393079
0.54393269
0.54393514
0.54393878
0.54394415
0.54395069
0.54395548
0.54395548
0.54395069
0.54394415
0.54393877
0.54393513
0.54393268
0.5439308
0.54392925
0.54392801
0.54392705
0.5439263
0.54392574
0.52764804
0.52764856
0.52764926
0.52765015
0.52765129
0.52765271
0.52765443
0.52765663
0.52765985
0.52766462
0.52767034
0.52767463
0.52767463
0.52767034
0.52766461
0.52765984
0.52765662
0.52765442
0.52765271
0.52765131
0.52765018
0.52764931
0.52764863
0.52764812
0.51137537
0.51137584
0.51137647
0.51137729
0.51137834
0.51137963
0.51138121
0.5113832
0.51138607
0.51139032
0.51139537
0.51139924
0.51139924
0.51139537
0.51139031
0.51138606
0.51138318
0.5113812
0.51137964
0.51137836
0.51137733
0.51137654
0.51137592
0.51137546
0.49510717
0.4951076
0.49510819
0.49510894
0.4951099
0.49511109
0.49511253
0.49511434
0.49511692
0.49512072
0.49512522
0.49512871
0.49512871
0.49512522
0.49512071
0.4951169
0.49511432
0.49511252
0.4951111
0.49510993
0.49510899
0.49510826
0.4951077
0.49510728
0.47884306
0.47884346
0.478844
0.47884469
0.47884558
0.47884668
0.478848
0.47884965
0.47885197
0.4788554
0.47885943
0.47886259
0.47886259
0.47885943
0.47885539
0.47885195
0.47884963
0.47884799
0.47884668
0.47884561
0.47884475
0.47884408
0.47884357
0.47884318
0.46258269
0.46258306
0.46258356
0.4625842
0.46258502
0.46258604
0.46258726
0.46258877
0.46259087
0.46259397
0.46259762
0.46260049
0.46260049
0.46259761
0.46259396
0.46259085
0.46258875
0.46258725
0.46258604
0.46258505
0.46258426
0.46258365
0.46258318
0.46258283
0.44632576
0.4463261
0.44632656
0.44632715
0.44632791
0.44632886
0.44632999
0.44633138
0.44633329
0.44633611
0.44633943
0.44634204
0.44634204
0.44633943
0.4463361
0.44633327
0.44633136
0.44632998
0.44632887
0.44632795
0.44632723
0.44632667
0.44632624
0.44632591
0.43007199
0.43007231
0.43007274
0.43007329
0.430074
0.43007488
0.43007593
0.43007721
0.43007896
0.43008153
0.43008456
0.43008695
0.43008695
0.43008456
0.43008152
0.43007893
0.43007718
0.43007591
0.43007489
0.43007404
0.43007337
0.43007286
0.43007246
0.43007217
0.41382116
0.41382145
0.41382185
0.41382237
0.41382303
0.41382384
0.41382482
0.41382601
0.41382761
0.41382997
0.41383276
0.41383495
0.41383495
0.41383276
0.41382996
0.41382759
0.41382598
0.41382481
0.41382386
0.41382307
0.41382246
0.41382199
0.41382162
0.41382135
0.39757304
0.39757332
0.39757369
0.39757417
0.39757478
0.39757555
0.39757646
0.39757756
0.39757904
0.3975812
0.39758378
0.39758579
0.39758579
0.39758378
0.39758119
0.39757901
0.39757753
0.39757644
0.39757556
0.39757484
0.39757427
0.39757384
0.3975735
0.39757326
0.38132745
0.38132771
0.38132805
0.3813285
0.38132908
0.38132979
0.38133064
0.38133167
0.38133303
0.38133503
0.38133741
0.38133926
0.38133927
0.38133741
0.38133501
0.381333
0.38133163
0.38133062
0.3813298
0.38132914
0.38132861
0.38132821
0.38132791
0.38132768
0.36508421
0.36508445
0.36508477
0.36508519
0.36508573
0.3650864
0.3650872
0.36508815
0.36508942
0.36509126
0.36509347
0.36509518
0.36509518
0.36509347
0.36509124
0.36508938
0.36508811
0.36508717
0.36508641
0.36508579
0.36508531
0.36508495
0.36508467
0.36508446
0.34884316
0.34884338
0.34884369
0.34884408
0.34884458
0.34884521
0.34884596
0.34884685
0.34884802
0.34884973
0.34885179
0.34885337
0.34885337
0.34885178
0.34884971
0.34884798
0.34884681
0.34884593
0.34884523
0.34884465
0.34884421
0.34884387
0.34884362
0.34884343
0.33260415
0.33260436
0.33260465
0.33260502
0.33260549
0.33260608
0.33260678
0.33260761
0.3326087
0.33261029
0.33261221
0.33261368
0.33261368
0.33261221
0.33261027
0.33260866
0.33260757
0.33260675
0.3326061
0.33260557
0.33260516
0.33260485
0.33260462
0.33260444
0.31636706
0.31636726
0.31636753
0.31636788
0.31636832
0.31636887
0.31636953
0.31637031
0.31637133
0.3163728
0.31637459
0.31637596
0.31637596
0.31637459
0.31637278
0.31637128
0.31637026
0.3163695
0.31636889
0.3163684
0.31636802
0.31636774
0.31636753
0.31636737
0.30013177
0.30013195
0.3001322
0.30013253
0.30013295
0.30013347
0.30013408
0.30013481
0.30013576
0.30013714
0.30013881
0.30014009
0.30014009
0.30013881
0.30013711
0.30013572
0.30013476
0.30013405
0.30013348
0.30013303
0.30013268
0.30013243
0.30013223
0.30013209
0.28389815
0.28389832
0.28389856
0.28389887
0.28389926
0.28389975
0.28390033
0.28390101
0.2839019
0.28390318
0.28390475
0.28390594
0.28390594
0.28390475
0.28390316
0.28390185
0.28390096
0.2839003
0.28389977
0.28389935
0.28389902
0.28389879
0.28389861
0.28389848
0.26766611
0.26766627
0.2676665
0.26766679
0.26766716
0.26766761
0.26766816
0.2676688
0.26766963
0.26767083
0.2676723
0.26767342
0.26767342
0.2676723
0.26767081
0.26766959
0.26766875
0.26766813
0.26766763
0.26766724
0.26766695
0.26766673
0.26766657
0.26766645
0.25143555
0.25143571
0.25143592
0.25143619
0.25143654
0.25143697
0.25143748
0.25143809
0.25143887
0.25143998
0.25144136
0.25144241
0.25144241
0.25144136
0.25143996
0.25143882
0.25143803
0.25143745
0.25143699
0.25143662
0.25143635
0.25143615
0.251436
0.25143589
0.23520638
0.23520653
0.23520673
0.23520698
0.23520731
0.23520772
0.2352082
0.23520877
0.2352095
0.23521055
0.23521185
0.23521283
0.23521283
0.23521185
0.23521053
0.23520945
0.23520872
0.23520817
0.23520774
0.2352074
0.23520714
0.23520696
0.23520682
0.23520671
0.21897853
0.21897867
0.21897885
0.21897909
0.2189794
0.21897979
0.21898024
0.21898078
0.21898146
0.21898244
0.21898366
0.21898458
0.21898458
0.21898366
0.21898242
0.21898141
0.21898072
0.21898021
0.21897981
0.21897949
0.21897925
0.21897907
0.21897894
0.21897884
0.2027519
0.20275203
0.20275221
0.20275244
0.20275273
0.20275309
0.20275352
0.20275402
0.20275467
0.20275559
0.20275674
0.2027576
0.20275761
0.20275674
0.20275557
0.20275462
0.20275397
0.20275349
0.20275311
0.20275281
0.20275258
0.20275241
0.20275229
0.20275219
0.18652644
0.18652657
0.18652673
0.18652695
0.18652722
0.18652756
0.18652797
0.18652844
0.18652905
0.18652991
0.18653099
0.18653179
0.1865318
0.18653099
0.18652989
0.18652901
0.1865284
0.18652794
0.18652758
0.18652729
0.18652707
0.18652691
0.18652679
0.1865267
0.17030207
0.17030219
0.17030235
0.17030255
0.17030281
0.17030313
0.17030351
0.17030396
0.17030453
0.17030534
0.17030636
0.17030712
0.17030713
0.17030637
0.17030533
0.17030449
0.17030392
0.17030349
0.17030315
0.17030287
0.17030266
0.17030249
0.17030237
0.17030228
0.15407874
0.15407885
0.154079
0.15407919
0.15407944
0.15407974
0.1540801
0.15408052
0.15408106
0.15408181
0.15408276
0.15408347
0.15408348
0.15408277
0.1540818
0.15408103
0.15408049
0.15408009
0.15407976
0.15407948
0.15407927
0.15407911
0.15407898
0.15407888
0.13785638
0.13785648
0.13785662
0.1378568
0.13785703
0.13785732
0.13785766
0.13785805
0.13785856
0.13785927
0.13786017
0.13786084
0.13786085
0.13786018
0.13785927
0.13785854
0.13785804
0.13785765
0.13785733
0.13785706
0.13785685
0.13785668
0.13785654
0.13785644
0.12163495
0.12163505
0.12163518
0.12163535
0.12163557
0.12163584
0.12163616
0.12163653
0.121637
0.12163765
0.12163848
0.12163909
0.12163909
0.12163849
0.12163765
0.12163699
0.12163653
0.12163616
0.12163585
0.12163558
0.12163535
0.12163517
0.12163503
0.12163492
0.10541437
0.10541446
0.10541458
0.10541474
0.10541495
0.10541521
0.10541551
0.10541586
0.1054163
0.10541691
0.10541768
0.10541825
0.10541825
0.10541769
0.10541692
0.1054163
0.10541587
0.10541552
0.10541521
0.10541493
0.1054147
0.10541451
0.10541436
0.10541424
0.089194653
0.089194741
0.089194859
0.089195011
0.089195206
0.089195447
0.089195732
0.089196059
0.089196458
0.089196998
0.089197656
0.089198132
0.089198137
0.089197668
0.089197013
0.089196478
0.089196083
0.089195748
0.08919544
0.08919516
0.089194915
0.089194711
0.089194544
0.089194421
0.072975648
0.07297573
0.072975841
0.072975985
0.072976171
0.072976403
0.072976676
0.072976987
0.07297736
0.072977854
0.072978441
0.072978845
0.072978849
0.072978454
0.072977877
0.072977395
0.072977026
0.072976699
0.072976386
0.072976095
0.072975837
0.072975622
0.072975446
0.072975317
0.056757528
0.056757608
0.056757715
0.056757852
0.056758026
0.05675824
0.056758489
0.05675877
0.056759088
0.056759461
0.056759838
0.056760056
0.05676006
0.056759851
0.05675949
0.056759136
0.056758824
0.056758518
0.056758213
0.056757921
0.056757658
0.056757434
0.05675725
0.056757116
0.04053974
0.040539811
0.040539908
0.040540037
0.040540211
0.040540433
0.040540696
0.040540985
0.040541307
0.04054171
0.040542176
0.040542484
0.040542486
0.040542187
0.040541744
0.040541366
0.04054105
0.04054073
0.0405404
0.040540088
0.040539814
0.040539591
0.040539414
0.040539288
0.02432347
0.024323553
0.024323659
0.024323786
0.024323932
0.024324092
0.024324264
0.024324444
0.024324607
0.02432468
0.024324589
0.024324355
0.024324355
0.024324596
0.024324712
0.024324668
0.02432451
0.024324294
0.024324055
0.024323812
0.024323584
0.024323388
0.024323228
0.024323111
0.0081053728
0.0081054425
0.0081055347
0.0081056553
0.0081058155
0.0081060145
0.0081062346
0.008106473
0.0081068491
0.0081076819
0.0081091566
0.0081105209
0.008110519
0.0081091571
0.0081076994
0.0081068889
0.0081065175
0.0081062531
0.0081059828
0.0081057244
0.0081055075
0.0081053417
0.0081052174
0.0081051285
)
;

boundaryField
{
    INLET
    {
        type            zeroGradient;
    }
    OUTLET
    {
        type            fixedValue;
        value           uniform 0;
    }
    WALL
    {
        type            zeroGradient;
    }
    frontAndBackPlanes
    {
        type            empty;
    }
}


// ************************************************************************* //
