/*--------------------------------*- C++ -*----------------------------------*\
| =========                 |                                                 |
| \\      /  F ield         | OpenFOAM: The Open Source CFD Toolbox           |
|  \\    /   O peration     | Version:  2406                                  |
|   \\  /    A nd           | Website:  www.openfoam.com                      |
|    \\/     M anipulation  |                                                 |
\*---------------------------------------------------------------------------*/
FoamFile
{
    version     2.0;
    format      ascii;
    arch        "LSB;label=32;scalar=64";
    class       surfaceScalarField;
    location    "30";
    object      phi;
}
// * * * * * * * * * * * * * * * * * * * * * * * * * * * * * * * * * * * * * //

dimensions      [0 3 -1 0 0 0 0];

oriented        oriented;

internalField   nonuniform List<scalar> 
2279
(
2.3617539e-08
1.0148926e-05
2.0509776e-07
4.982375e-05
6.933178e-07
0.00014252872
1.5784718e-06
0.00034353082
2.678848e-06
0.00075378089
3.3472917e-06
0.0015415573
3.0435204e-06
0.0029497096
2.1516849e-06
0.005249171
1.4318049e-06
0.008582269
9.895934e-07
0.012685995
5.1266853e-07
0.016666385
-6.7842673e-13
0.01918202
-5.1267446e-07
0.01918202
-9.8961613e-07
0.016666385
-1.4318648e-06
0.012685995
-2.1518139e-06
0.0085822691
-3.0437533e-06
0.0052491711
-3.3476795e-06
0.0029497097
-2.6794422e-06
0.0015415575
-1.5792173e-06
0.00075378102
-6.9406213e-07
0.00034353091
-2.0562705e-07
0.00014252877
-2.3874176e-08
4.9823773e-05
1.0148933e-05
-9.5248487e-08
1.0244175e-05
-5.3794009e-07
5.0266441e-05
-1.6230012e-06
0.00014361378
-3.5389523e-06
0.00034544677
-5.9201863e-06
0.00075616213
-7.4055019e-06
0.0015430426
-6.5847263e-06
0.0029488888
-3.9361581e-06
0.0052465224
-1.3883865e-06
0.0085797213
-6.5115346e-08
0.012684671
2.424116e-07
0.016666078
5.5687739e-12
0.019182263
-2.4239826e-07
0.019182263
6.5135691e-08
0.016666078
1.3884214e-06
0.012684671
3.9362224e-06
0.0085797212
6.5848442e-06
0.0052465223
7.4057027e-06
0.0029488887
5.9204813e-06
0.0015430426
3.5392965e-06
0.00075616208
1.623312e-06
0.00034544675
5.3814404e-07
0.00014361377
9.5338693e-08
5.0266437e-05
1.0244174e-05
5.0139866e-08
1.0194035e-05
2.6334507e-07
5.0053236e-05
7.4910736e-07
0.00014312802
1.5314587e-06
0.00034466442
2.3366563e-06
0.00075535693
2.5476628e-06
0.0015428316
1.8390974e-06
0.0029495974
9.7567647e-07
0.0052473858
6.7696059e-07
0.00858002
6.7178895e-07
0.012684677
4.8416625e-07
0.016666266
1.6727234e-12
0.019182747
-4.8416445e-07
0.019182747
-6.7179187e-07
0.016666266
-6.7697144e-07
0.012684677
-9.7568048e-07
0.00858002
-1.8390825e-06
0.0052473859
-2.5476247e-06
0.0029495974
-2.3365935e-06
0.0015428316
-1.5313796e-06
0.00075535693
-7.4902758e-07
0.00034466442
-2.632861e-07
0.00014312802
-5.010921e-08
5.0053235e-05
1.0194035e-05
1.9586879e-08
1.0174448e-05
1.1184965e-07
4.9960974e-05
3.61285e-07
0.00014287858
9.0504885e-07
0.00034412066
1.8716613e-06
0.00075439032
3.0948253e-06
0.0015416085
3.8987261e-06
0.0029487935
3.7285576e-06
0.005247556
2.9242135e-06
0.0085808243
1.9733777e-06
0.012685627
1.0127729e-06
0.016667226
-1.6737644e-12
0.01918376
-1.0127824e-06
0.01918376
-1.9734018e-06
0.016667226
-2.9242477e-06
0.012685627
-3.7285884e-06
0.0085808243
-3.8987422e-06
0.005247556
-3.0948305e-06
0.0029487935
-1.8716677e-06
0.0015416085
-9.0506369e-07
0.00075439032
-3.6130616e-07
0.00034412066
-1.1186703e-07
0.00014287859
-1.9595895e-08
4.9960974e-05
1.0174449e-05
8.0840484e-09
1.0166364e-05
4.7141765e-08
4.9921916e-05
1.5494746e-07
0.00014277078
3.9846407e-07
0.00034387714
8.7979592e-07
0.00075390899
1.701518e-06
0.0015407867
2.7512772e-06
0.0029477437
3.462364e-06
0.0052468449
3.4708652e-06
0.0085808158
2.8006909e-06
0.012686298
1.5505196e-06
0.016668476
2.622861e-12
0.01918531
-1.5505179e-06
0.01918531
-2.8006959e-06
0.016668476
-3.470871e-06
0.012686298
-3.462365e-06
0.0085808158
-2.7512697e-06
0.0052468449
-1.7015016e-06
0.0029477437
-8.7977356e-07
0.0015407867
-3.984407e-07
0.00075390898
-1.5492833e-07
0.00034387714
-4.7130041e-08
0.00014277078
-8.0790964e-09
4.9921916e-05
1.0166364e-05
4.9359639e-09
1.0161429e-05
2.8699093e-08
4.9898153e-05
9.5121896e-08
0.00014270436
2.4921505e-07
0.00034372305
5.6361026e-07
0.00075359459
1.1213759e-06
0.001540229
1.9184586e-06
0.0029469467
2.6588219e-06
0.0052461046
2.8930609e-06
0.0085805816
2.4787696e-06
0.012686712
1.4344301e-06
0.016669521
3.3245663e-12
0.019186745
-1.4344259e-06
0.019186745
-2.4787698e-06
0.016669521
-2.8930636e-06
0.012686712
-2.6588216e-06
0.0085805816
-1.9184546e-06
0.0052461046
-1.1213695e-06
0.0029469467
-5.6360441e-07
0.001540229
-2.4921154e-07
0.00075359459
-9.5120602e-08
0.00034372305
-2.8699025e-08
0.00014270436
-4.936124e-09
4.9898153e-05
1.0161429e-05
4.412465e-09
1.0157016e-05
2.5525918e-08
4.987704e-05
8.3830511e-08
0.00014264605
2.1689462e-07
0.00034358999
4.8450155e-07
0.00075332698
9.5636109e-07
0.0015397571
1.6413738e-06
0.0029462616
2.3245826e-06
0.0052454214
2.593954e-06
0.0085803122
2.2393645e-06
0.012687066
1.3066758e-06
0.016670453
2.3064789e-12
0.019188051
-1.3066723e-06
0.019188051
-2.2393624e-06
0.016670453
-2.5939518e-06
0.012687066
-2.3245795e-06
0.0085803122
-1.6413709e-06
0.0052454214
-9.5636141e-07
0.0029462616
-4.8450717e-07
0.0015397571
-2.1690469e-07
0.00075332698
-8.384148e-08
0.00034358999
-2.553421e-08
0.00014264605
-4.416637e-09
4.987704e-05
1.0157016e-05
3.6256099e-09
1.0153391e-05
2.1036736e-08
4.9859629e-05
6.943831e-08
0.00014259765
1.8114163e-07
0.00034347828
4.0971436e-07
0.00075309841
8.2390368e-07
0.0015393429
1.4539921e-06
0.0029456316
2.1430755e-06
0.0052447323
2.4674735e-06
0.0085799878
2.1883942e-06
0.012687346
1.2866437e-06
0.016671355
1.1697437e-12
0.019189338
-1.2866412e-06
0.019189338
-2.1883905e-06
0.016671355
-2.4674678e-06
0.012687346
-2.1430699e-06
0.0085799878
-1.4539897e-06
0.0052447323
-8.2390843e-07
0.0029456316
-4.0972679e-07
0.0015393429
-1.8115856e-07
0.00075309841
-6.9454258e-08
0.00034347828
-2.1047896e-08
0.00014259765
-3.6309829e-09
4.9859629e-05
1.0153391e-05
2.9831249e-09
1.0150408e-05
1.7346965e-08
4.9845265e-05
5.7377181e-08
0.00014255762
1.500736e-07
0.00034338559
3.4097075e-07
0.00075290751
6.9193128e-07
0.001538992
1.2441083e-06
0.0029450794
1.9041859e-06
0.0052440722
2.301601e-06
0.0085795904
2.0975088e-06
0.01268755
1.2520109e-06
0.016672201
1.7797921e-13
0.01919059
-1.2520098e-06
0.01919059
-2.0975055e-06
0.016672201
-2.3015951e-06
0.01268755
-1.9041804e-06
0.0085795904
-1.2441084e-06
0.0052440722
-6.9194193e-07
0.0029450794
-3.4099153e-07
0.001538992
-1.5009919e-07
0.00075290751
-5.7399938e-08
0.00034338559
-1.7362267e-08
0.00014255762
-2.9902843e-09
4.9845265e-05
1.0150408e-05
2.465352e-09
1.0147942e-05
1.4362932e-08
4.9833367e-05
4.7626138e-08
0.00014252436
1.2502817e-07
0.00034330818
2.8558827e-07
0.00075274695
5.8417871e-07
0.0015386934
1.0641837e-06
0.0029445994
1.6641575e-06
0.0052434722
2.0898746e-06
0.0085791647
1.9528947e-06
0.012687687
1.1802444e-06
0.016672973
-8.8913732e-13
0.01919177
-1.1802452e-06
0.01919177
-1.9528927e-06
0.016672973
-2.0898697e-06
0.012687687
-1.6641531e-06
0.0085791647
-1.0641865e-06
0.0052434722
-5.8419436e-07
0.0029445994
-2.856159e-07
0.0015386934
-1.2506096e-07
0.00075274695
-4.7654833e-08
0.00034330818
-1.4382019e-08
0.00014252436
-2.4742225e-09
4.9833367e-05
1.0147942e-05
2.1023353e-09
1.014584e-05
1.2257796e-08
4.9823212e-05
4.0687803e-08
0.00014249593
1.0698956e-07
0.00034324188
2.4507768e-07
0.00075260887
5.0385212e-07
0.0015384346
9.2623387e-07
0.002944177
1.4715104e-06
0.005242927
1.8909077e-06
0.0085787453
1.8050217e-06
0.012687772
1.1036886e-06
0.016673675
-2.0957106e-12
0.019192874
-1.1036915e-06
0.019192874
-1.8050213e-06
0.016673675
-1.8909037e-06
0.012687772
-1.4715068e-06
0.0085787453
-9.2623849e-07
0.0052429269
-5.0387119e-07
0.002944177
-2.4511017e-07
0.0015384346
-1.0702776e-07
0.00075260887
-4.0721211e-08
0.00034324188
-1.2280025e-08
0.00014249593
-2.1126782e-09
4.9823212e-05
1.014584e-05
1.8281028e-09
1.0144011e-05
1.0665201e-08
4.9814374e-05
3.5429819e-08
0.00014247116
9.3282367e-08
0.00034318403
2.1413839e-07
0.00075248801
4.4192666e-07
0.0015382068
8.1811245e-07
0.0029438008
1.3163793e-06
0.0052424287
1.7244923e-06
0.0085783372
1.6780408e-06
0.012687819
1.0378018e-06
0.016674315
-3.3094143e-12
0.019193912
-1.0378068e-06
0.019193912
-1.6780417e-06
0.016674315
-1.7244889e-06
0.012687819
-1.316376e-06
0.0085783372
-8.1811798e-07
0.0052424287
-4.4194816e-07
0.0029438008
-2.1417505e-07
0.0015382068
-9.3325786e-08
0.00075248801
-3.5468097e-08
0.00034318403
-1.0690824e-08
0.00014247116
-1.8400802e-09
4.9814374e-05
1.0144011e-05
1.6103649e-09
1.0142401e-05
9.3994027e-09
4.9806585e-05
3.1244013e-08
0.00014244932
8.2339908e-08
0.00034313293
1.8932011e-07
0.00075238103
3.9182231e-07
0.0015380043
7.2924049e-07
0.0029434634
1.1851441e-06
0.0052419728
1.5781731e-06
0.0085779442
1.5623363e-06
0.012687835
9.7669418e-07
0.0166749
-4.3218683e-12
0.019194888
-9.7670087e-07
0.019194888
-1.5623379e-06
0.0166749
-1.5781694e-06
0.012687835
-1.1851402e-06
0.0085779441
-7.2924622e-07
0.0052419728
-3.9184608e-07
0.0029434634
-1.8936148e-07
0.0015380043
-8.2389546e-08
0.00075238103
-3.1288194e-08
0.00034313293
-9.4291765e-09
0.00014244932
-1.6243493e-09
4.9806585e-05
1.0142401e-05
1.4322225e-09
1.0140969e-05
8.3628435e-09
4.9799655e-05
2.7812385e-08
0.00014242987
7.3352566e-08
0.00034308739
1.6886858e-07
0.00075228551
3.5026775e-07
0.0015378229
6.5458249e-07
0.0029431591
1.072058e-06
0.0052415553
1.4464311e-06
0.0085775698
1.4548726e-06
0.012687826
9.1880468e-07
0.016675437
-4.9778099e-12
0.019195807
-9.1881224e-07
0.019195807
-1.454874e-06
0.016675437
-1.4464262e-06
0.012687826
-1.0720526e-06
0.0085775698
-6.545881e-07
0.0052415553
-3.5029446e-07
0.0029431591
-1.689162e-07
0.0015378229
-7.3410337e-08
0.00075228551
-2.7864136e-08
0.00034308739
-8.397868e-09
0.00014242987
-1.4487207e-09
4.9799654e-05
1.0140969e-05
1.2849551e-09
1.0139684e-05
7.5050133e-09
4.9793434e-05
2.4968807e-08
0.0001424124
6.5891189e-08
0.00034304647
1.5183824e-07
0.00075219957
3.1548562e-07
0.0015376593
5.9149674e-07
0.0029428831
9.7478638e-07
0.005241172
1.3297027e-06
0.0085772149
1.3567833e-06
0.012687799
8.6524673e-07
0.016675928
-5.2969821e-12
0.019196672
-8.6525444e-07
0.019196672
-1.3567836e-06
0.016675928
-1.3296955e-06
0.012687799
-9.7477878e-07
0.0085772149
-5.9150227e-07
0.005241172
-3.1551648e-07
0.0029428831
-1.5189428e-07
0.0015376593
-6.5959573e-08
0.00075219957
-2.5030195e-08
0.00034304647
-7.5466096e-09
0.0001424124
-1.3045621e-09
4.9793434e-05
1.0139684e-05
1.1614766e-09
1.0138522e-05
6.7852192e-09
4.9787811e-05
2.2580554e-08
0.00014239661
5.9615649e-08
0.00034300944
1.3748153e-07
0.0007521217
2.8604728e-07
0.0015375107
5.3771166e-07
0.0029426314
8.907061e-07
0.005240819
1.2263963e-06
0.0085768792
1.267486e-06
0.012687758
8.1592121e-07
0.01667638
-5.4103251e-12
0.019197488
-8.1592856e-07
0.019197488
-1.2674844e-06
0.01667638
-1.2263858e-06
0.012687758
-8.9069565e-07
0.0085768792
-5.3771738e-07
0.005240819
-2.8608375e-07
0.0029426314
-1.3754836e-07
0.0015375107
-5.9697247e-08
0.0007521217
-2.2653714e-08
0.00034300944
-6.8347381e-09
0.00014239661
-1.1847969e-09
4.978781e-05
1.0138522e-05
1.0561531e-09
1.0137466e-05
6.1710281e-09
4.9782696e-05
2.0541486e-08
0.00014238224
5.4252419e-08
0.00034297572
1.2519129e-07
0.00075205076
2.6076875e-07
0.0015373751
4.9125267e-07
0.0029424009
8.1722567e-07
0.005240493
1.1341826e-06
0.0085765622
1.1857871e-06
0.012687707
7.7020908e-07
0.016676795
-5.4809291e-12
0.019198259
-7.7021586e-07
0.019198259
-1.1857832e-06
0.016676795
-1.1341684e-06
0.012687707
-8.17212e-07
0.0085765622
-4.9125899e-07
0.005240493
-2.6081228e-07
0.0029424009
-1.2527111e-07
0.0015373751
-5.4349646e-08
0.00075205076
-2.0628395e-08
0.00034297572
-6.2297171e-09
0.00014238224
-1.0837445e-09
4.9782696e-05
1.0137466e-05
9.6514705e-10
1.0136501e-05
5.6401988e-09
4.9778021e-05
1.8778377e-08
0.0001423691
4.9611498e-08
0.00034294489
1.1454212e-07
0.00075198583
2.3881177e-07
0.0015372509
4.5070506e-07
0.002942189
7.5248357e-07
0.0052401913
1.0514991e-06
0.0085762632
1.110828e-06
0.012687647
7.2768259e-07
0.016677178
-5.6432291e-12
0.019198986
-7.2768883e-07
0.019198986
-1.1108215e-06
0.016677178
-1.0514806e-06
0.012687647
-7.5246639e-07
0.0085762632
-4.5071237e-07
0.0052401913
-2.3886359e-07
0.002942189
-1.1463685e-07
0.0015372509
-4.9726413e-08
0.00075198583
-1.888073e-08
0.00034294489
-5.7091317e-09
0.0001423691
-9.9749176e-10
4.9778021e-05
1.0136501e-05
8.8578363e-10
1.0135615e-05
5.1771805e-09
4.9773729e-05
1.723987e-08
0.00014235704
4.5559055e-08
0.00034291657
1.0523263e-07
0.00075192616
2.1957726e-07
0.0015371365
4.150434e-07
0.0029419936
6.9509005e-07
0.0052399112
9.7709348e-07
0.0085759812
1.0418636e-06
0.012687582
6.8799841e-07
0.016677532
-5.9762556e-12
0.019199674
-6.8800428e-07
0.019199674
-1.0418543e-06
0.016677532
-9.770704e-07
0.012687582
-6.9506917e-07
0.0085759812
-4.1505201e-07
0.0052399112
-2.1963837e-07
0.0029419936
-1.0534377e-07
0.0015371365
-4.5693317e-08
0.00075192616
-1.7359048e-08
0.00034291657
-5.2572399e-09
0.00014235704
-9.2328085e-10
4.9773729e-05
1.0135615e-05
8.1597437e-10
1.0134799e-05
4.7698283e-09
4.9769776e-05
1.5885871e-08
0.00014234592
4.1990606e-08
0.00034289047
9.7027152e-08
0.00075187112
2.0259437e-07
0.0015370309
3.8345009e-07
0.0029418127
6.4389661e-07
0.0052396508
9.0984198e-07
0.0085757152
9.7823173e-07
0.012687514
6.5085884e-07
0.01667786
-6.5101265e-12
0.019200325
-6.5086461e-07
0.019200325
-9.7821967e-07
0.01667786
-9.0981409e-07
0.012687514
-6.4387192e-07
0.0085757152
-3.8346026e-07
0.0052396508
-2.0266554e-07
0.0029418127
-9.7155892e-08
0.0015370309
-4.2145527e-08
0.00075187112
-1.6022979e-08
0.00034289047
-4.8617288e-09
0.00014234592
-8.5895026e-10
4.9769775e-05
1.0134799e-05
7.5407548e-10
1.0134045e-05
4.4085697e-09
4.9766121e-05
1.4684739e-08
0.00014233564
3.8823565e-08
0.00034286633
8.9738893e-08
0.00075182021
1.8748785e-07
0.0015369332
3.5526672e-07
0.0029416449
5.9795937e-07
0.0052394081
8.487875e-07
0.0085754644
9.1936196e-07
0.012687443
6.1600203e-07
0.016678163
-7.2368357e-12
0.019200941
-6.1600797e-07
0.019200941
-9.1934713e-07
0.016678163
-8.4875462e-07
0.012687443
-5.9793076e-07
0.0085754644
-3.5527864e-07
0.0052394081
-1.8756966e-07
0.0029416449
-8.9886161e-08
0.0015369332
-3.9000193e-08
0.00075182021
-1.4840676e-08
0.00034286633
-4.5128986e-09
0.00014233564
-8.0280046e-10
4.9766121e-05
1.0134045e-05
6.9880316e-10
1.0133346e-05
4.0859201e-09
4.9762734e-05
1.3611698e-08
0.00014232612
3.5993114e-08
0.00034284395
8.3220753e-08
0.00075177298
1.7396058e-07
0.0015368425
3.2996675e-07
0.0029414889
5.5650853e-07
0.0052391815
7.9311968e-07
0.0085752278
8.6476283e-07
0.012687372
5.8322201e-07
0.016678444
-8.1160815e-12
0.019201524
-5.8322832e-07
0.019201524
-8.6474522e-07
0.016678444
-7.9308164e-07
0.012687372
-5.5647586e-07
0.0085752278
-3.2998053e-07
0.0052391815
-1.740535e-07
0.0029414889
-8.3387311e-08
0.0015368425
-3.6192325e-08
0.00075177298
-1.3787218e-08
0.00034284395
-4.2031735e-09
0.00014232612
-7.535066e-10
4.9762733e-05
1.0133346e-05
6.4914434e-10
1.0132697e-05
3.7959721e-09
4.9759587e-05
1.2647175e-08
0.00014231727
3.344799e-08
0.00034282315
7.7356143e-08
0.00075172907
1.617762e-07
0.001536758
3.0712863e-07
0.0029413436
5.1892092e-07
0.0052389697
7.4217173e-07
0.0085750045
8.1400787e-07
0.0126873
5.5233175e-07
0.016678706
-9.0869065e-12
0.019202077
-5.5233854e-07
0.019202077
-8.139874e-07
0.016678706
-7.4212832e-07
0.0126873
-5.1888403e-07
0.0085750045
-3.0714433e-07
0.0052389697
-1.6188061e-07
0.0029413436
-7.7542652e-08
0.001536758
-3.3670544e-08
0.00075172907
-1.2842929e-08
0.00034282315
-3.9265738e-09
0.00014231727
-7.1002105e-10
4.9759586e-05
1.0132696e-05
6.0428612e-10
1.0132092e-05
3.5339883e-09
4.9756657e-05
1.1775474e-08
0.00014230903
3.1147034e-08
0.00034280378
7.2051285e-08
0.00075168817
1.5074396e-07
0.0015366793
2.8640995e-07
0.0029412079
4.8468341e-07
0.0052387715
6.9537969e-07
0.0085747938
7.667372e-07
0.012687229
5.2319258e-07
0.01667895
-1.0079815e-11
0.0192026
-5.2319984e-07
0.0192026
-7.6671368e-07
0.01667895
-6.9533063e-07
0.012687229
-4.8464211e-07
0.0085747938
-2.8642761e-07
0.0052387715
-1.5086022e-07
0.0029412079
-7.2258328e-08
0.0015366793
-3.1393582e-08
0.00075168817
-1.1992002e-08
0.00034280378
-3.6782826e-09
0.00014230903
-6.7149123e-10
4.9756657e-05
1.0132092e-05
5.635695e-10
1.0131528e-05
3.2961318e-09
4.9753925e-05
1.0983877e-08
0.00014230134
2.905689e-08
0.0003427857
6.7230103e-08
0.00075165
1.4070882e-07
0.0015366059
2.675313e-07
0.0029410811
4.5337456e-07
0.0052385856
6.5227472e-07
0.0085745949
7.2262897e-07
0.012687158
4.95661e-07
0.016679177
-1.1026929e-11
0.019203096
-4.9566859e-07
0.019203096
-7.2260213e-07
0.016679177
-6.5221968e-07
0.012687158
-4.5332863e-07
0.0085745949
-2.6755096e-07
0.0052385856
-1.4083722e-07
0.0029410811
-6.7458158e-08
0.0015366059
-2.9327932e-08
0.00075165
-1.1221566e-08
0.0003427857
-3.4543493e-09
0.00014230134
-6.3720162e-10
4.9753924e-05
1.0131528e-05
5.2645387e-10
1.0131002e-05
3.0792581e-09
4.9751372e-05
1.0261962e-08
0.00014229416
2.7150202e-08
0.00034276882
6.2830116e-08
0.00075161432
1.3154308e-07
0.0015365372
2.5026134e-07
0.0029409624
4.2464082e-07
0.0052384112
6.124527e-07
0.0085744071
6.8141543e-07
0.012687089
4.6964312e-07
0.016679388
-1.1870654e-11
0.019203565
-4.696508e-07
0.019203565
-6.8138493e-07
0.016679388
-6.1239132e-07
0.012687089
-4.2459006e-07
0.0085744071
-2.5028301e-07
0.0052384112
-1.3168386e-07
0.0029409624
-6.3079484e-08
0.0015365372
-2.7445993e-08
0.00075161432
-1.0520959e-08
0.00034276882
-3.2514585e-09
0.00014229416
-6.0652799e-10
4.9751371e-05
1.0131002e-05
4.924929e-10
1.0130509e-05
2.8807726e-09
4.9748984e-05
9.6011312e-09
0.00014228744
2.5404398e-08
0.00034275302
5.8799752e-08
0.00075158092
1.2314127e-07
0.0015364728
2.3440863e-07
0.0029408511
3.9818926e-07
0.0052382475
5.7557717e-07
0.0085742297
6.4284446e-07
0.012687022
4.4501764e-07
0.016679586
-1.2564023e-11
0.01920401
-4.4502509e-07
0.01920401
-6.4280991e-07
0.016679586
-5.7550911e-07
0.012687022
-3.9813349e-07
0.0085742297
-2.3443234e-07
0.0052382474
-1.232945e-07
0.0029408511
-5.9070448e-08
0.0015364728
-2.5724818e-08
0.00075158093
-9.8812327e-09
0.00034275302
-3.0667696e-09
0.00014228744
-5.7890558e-10
4.9748983e-05
1.0130509e-05
4.6131337e-10
1.0130048e-05
2.6985069e-09
4.9746746e-05
8.9941952e-09
0.00014228114
2.380059e-08
0.00034273821
5.5095792e-08
0.00075154963
1.1541476e-07
0.0015364125
2.1981142e-07
0.0029407467
3.7376849e-07
0.0052380935
5.4135061e-07
0.0085740621
6.0671584e-07
0.012686957
4.2172504e-07
0.016679771
-1.3078075e-11
0.019204432
-4.2173194e-07
0.019204432
-6.0667688e-07
0.016679771
-5.4127558e-07
0.012686957
-3.7370763e-07
0.0085740621
-2.1983716e-07
0.0052380935
-1.1558031e-07
0.0029407467
-5.5387414e-08
0.0015364125
-2.4144994e-08
0.00075154963
-9.2947149e-09
0.00034273821
-2.8977829e-09
0.00014228114
-5.5380348e-10
4.9746746e-05
1.0130048e-05
4.3260176e-10
1.0129615e-05
2.5306369e-09
4.9744649e-05
8.4351069e-09
0.00014227524
2.2322897e-08
0.00034272432
5.168192e-08
0.00075152027
1.0828911e-07
0.0015363559
2.0633393e-07
0.0029406487
3.5116847e-07
0.0052379487
5.0952489e-07
0.0085739038
5.728218e-07
0.012686893
3.9965075e-07
0.016679944
-1.3471213e-11
0.019204832
-3.9965678e-07
0.019204832
-5.7277811e-07
0.016679944
-5.0944274e-07
0.012686893
-3.5110251e-07
0.0085739038
-2.0636167e-07
0.0052379486
-1.0846656e-07
0.0029406486
-5.1993504e-08
0.0015363559
-2.2689945e-08
0.00075152028
-8.7547329e-09
0.00034272432
-2.7422491e-09
0.00014227524
-5.3070731e-10
4.9744648e-05
1.0129615e-05
4.0609249e-10
1.0129209e-05
2.3756171e-09
4.9742679e-05
7.9187368e-09
0.0001422697
2.095782e-08
0.00034271129
4.8527173e-08
0.00075149271
1.017006e-07
0.0015363027
1.9385912e-07
0.0029405565
3.3020458e-07
0.0052378123
4.7987496e-07
0.0085737541
5.4101572e-07
0.012686832
3.78767e-07
0.016680107
-1.3640661e-11
0.01920521
-3.787718e-07
0.01920521
-5.4096707e-07
0.016680107
-4.7978566e-07
0.012686832
-3.3013368e-07
0.0085737541
-1.9388879e-07
0.0052378123
-1.0188915e-07
0.0029405565
-4.8857047e-08
0.0015363027
-2.1345308e-08
0.00075149271
-8.2553863e-09
0.00034271129
-2.5981032e-09
0.00014226969
-5.0910734e-10
4.9742679e-05
1.0129209e-05
3.8155843e-10
1.0128828e-05
2.2321198e-09
4.9740829e-05
7.4406764e-09
0.00014226449
1.969378e-08
0.00034269903
4.5605079e-08
0.0007514668
9.5594916e-08
0.0015362527
1.8228756e-07
0.0029404698
3.1072163e-07
0.0052376839
4.5221235e-07
0.0085736126
5.1111439e-07
0.012686773
3.5895259e-07
0.016680259
-1.3612277e-11
0.019205569
-3.5895575e-07
0.019205569
-5.110606e-07
0.016680259
-4.5211607e-07
0.012686773
-3.1064612e-07
0.0085736126
-1.8231902e-07
0.0052376839
-9.579329e-08
0.0029404698
-4.5950721e-08
0.0015362527
-2.0098479e-08
0.0007514668
-7.7913603e-09
0.00034269904
-2.4634097e-09
0.00014226449
-4.8849232e-10
4.9740829e-05
1.0128828e-05
3.5880666e-10
1.0128469e-05
2.0990187e-09
4.9739089e-05
6.9971801e-09
0.00014225959
1.8520888e-08
0.00034268751
4.289286e-08
0.00075144243
8.9924975e-08
0.0015362057
1.7153221e-07
0.0029403882
2.9258062e-07
0.0052375628
4.2636422e-07
0.0085734788
4.8302001e-07
0.012686717
3.4021545e-07
0.016680402
-1.3335764e-11
0.01920591
-3.4021664e-07
0.01920591
-4.829611e-07
0.016680402
-4.262614e-07
0.012686717
-2.9250103e-07
0.0085734788
-1.7156528e-07
0.0052375628
-9.0131357e-08
0.0029403882
-4.3250748e-08
0.0015362057
-1.8938368e-08
0.00075144243
-7.3578488e-09
0.00034268751
-2.3363331e-09
0.00014225959
-4.683379e-10
4.9739089e-05
1.0128469e-05
3.3766681e-10
1.0128131e-05
1.9753089e-09
4.9737452e-05
6.5849053e-09
0.00014225498
1.7430382e-08
0.00034267667
4.0370551e-08
0.00075141949
8.4649879e-08
0.0015361614
1.6151798e-07
0.0029403113
2.7566312e-07
0.0052374487
4.021814e-07
0.0085733523
4.5655531e-07
0.012686662
3.2241297e-07
0.016680536
-1.2878446e-11
0.019206232
-3.2241197e-07
0.019206232
-4.5649149e-07
0.016680536
-4.0207281e-07
0.012686662
-2.7558027e-07
0.0085733523
-1.6155239e-07
0.0052374487
-8.4861834e-08
0.0029403113
-4.0736046e-08
0.0015361614
-1.7854874e-08
0.0007514195
-6.9503304e-09
0.00034267667
-2.2150823e-09
0.00014225498
-4.4810724e-10
4.9737452e-05
1.0128131e-05
3.1799798e-10
1.0127813e-05
1.8601685e-09
4.9735911e-05
6.2011118e-09
0.00014225064
1.6414972e-08
0.00034266646
3.8021191e-08
0.00075139789
7.9734262e-08
0.0015361197
1.5217916e-07
0.0029402389
2.5986359e-07
0.005237341
3.7953322e-07
0.0085732326
4.3167555e-07
0.01268661
3.0559969e-07
0.016680662
-1.2319311e-11
0.019206538
-3.0559646e-07
0.019206538
-4.3160734e-07
0.016680662
-3.7942001e-07
0.01268661
-2.597786e-07
0.0085732326
-1.5221457e-07
0.005237341
-7.9948674e-08
0.0029402389
-3.8388423e-08
0.0015361197
-1.6839249e-08
0.00075139789
-6.5647946e-09
0.00034266646
-2.0979937e-09
0.00014225064
-4.2726863e-10
4.9735911e-05
1.0127813e-05
2.9966484e-10
1.0127514e-05
1.7527889e-09
4.9734458e-05
5.8431094e-09
0.00014224655
1.5467667e-08
0.00034265684
3.5829051e-08
0.00075137753
7.5146169e-08
0.0015360804
1.4345681e-07
0.0029401706
2.4508714e-07
0.0052372394
3.5829194e-07
0.0085731194
4.0818709e-07
0.01268656
2.8959228e-07
0.01668078
-1.1585201e-11
0.019206827
-2.8958682e-07
0.019206827
-4.0811527e-07
0.01668078
-3.5817567e-07
0.01268656
-2.4500145e-07
0.0085731194
-1.4349279e-07
0.0052372394
-7.5359145e-08
0.0029401706
-3.6190758e-08
0.0015360804
-1.5882844e-08
0.00075137754
-6.1970933e-09
0.00034265684
-1.9832881e-09
0.00014224656
-4.0523521e-10
4.9734458e-05
1.0127514e-05
2.8256891e-10
1.0127232e-05
1.6526082e-09
4.9733089e-05
5.5090184e-09
0.0001422427
1.4583349e-08
0.00034264777
3.3781854e-08
0.00075135833
7.0859414e-08
0.0015360433
1.3530214e-07
0.0029401061
2.312568e-07
0.0052371434
3.3836946e-07
0.0085730123
3.8611445e-07
0.012686512
2.7451211e-07
0.016680892
-1.0684645e-11
0.019207102
-2.7450452e-07
0.019207102
-3.8604011e-07
0.016680892
-3.3825214e-07
0.012686512
-2.3117221e-07
0.0085730123
-1.3533817e-07
0.0052371434
-7.1066274e-08
0.0029401061
-3.4129376e-08
0.0015360433
-1.4978899e-08
0.00075135834
-5.8439339e-09
0.00034264777
-1.8694751e-09
0.0001422427
-3.8147998e-10
4.9733089e-05
1.0127232e-05
2.6659006e-10
1.0126965e-05
1.5588913e-09
4.9731798e-05
5.196401e-09
0.00014223906
1.3755836e-08
0.00034263921
3.1866171e-08
0.00075134023
6.6847416e-08
0.0015360084
1.2766573e-07
0.0029400453
2.1828859e-07
0.0052370528
3.1963778e-07
0.0085729109
3.6521524e-07
0.012686467
2.6010687e-07
0.016680997
-9.6050332e-12
0.019207362
-2.600973e-07
0.019207362
-3.6513976e-07
0.016680997
-3.1952189e-07
0.012686467
-2.1820726e-07
0.0085729109
-1.2770115e-07
0.0052370528
-6.7042621e-08
0.0029400453
-3.218937e-08
0.0015360084
-1.4119539e-08
0.00075134024
-5.5014375e-09
0.00034263921
-1.7548837e-09
0.00014223907
-3.5545536e-10
4.9731798e-05
1.0126966e-05
2.516789e-10
1.0126714e-05
1.4713909e-09
4.9730579e-05
4.9044122e-09
0.00014223563
1.2982501e-08
0.00034263114
3.0074706e-08
0.00075132314
6.3093112e-08
0.0015359753
1.2051578e-07
0.0029399879
2.0613807e-07
0.0052369672
3.0206718e-07
0.008572815
3.4561823e-07
0.012686423
2.4659849e-07
0.016681096
-8.4971083e-12
0.019207609
-2.4658728e-07
0.019207609
-3.4554336e-07
0.016681096
-3.0195572e-07
0.012686423
-2.0606253e-07
0.008572815
-1.2054978e-07
0.0052369672
-6.3270147e-08
0.0029399879
-3.0361753e-08
0.0015359753
-1.330014e-08
0.00075132315
-5.1670123e-09
0.00034263114
-1.6381098e-09
0.00014223564
-3.2657664e-10
4.973058e-05
1.0126714e-05
2.377017e-10
1.0126477e-05
1.3892547e-09
4.9729429e-05
4.6302457e-09
0.0001422324
1.2256564e-08
0.00034262351
2.83938e-08
0.00075130701
5.9571181e-08
0.0015359442
1.1380467e-07
0.0029399337
1.9471484e-07
0.0052368863
2.8549468e-07
0.0085727242
3.2698078e-07
0.012686382
2.3362326e-07
0.016681189
-7.2532844e-12
0.019207842
-2.3361074e-07
0.019207842
-3.2690858e-07
0.016681189
-2.8539115e-07
0.012686382
-1.9464799e-07
0.0085727242
-1.1383631e-07
0.0052368863
-5.9722813e-08
0.0029399337
-2.8631757e-08
0.0015359442
-1.2512816e-08
0.00075130701
-4.8370676e-09
0.00034262352
-1.5178635e-09
0.0001422324
-2.9453391e-10
4.972943e-05
1.0126477e-05
2.2469888e-10
1.0126253e-05
1.3128252e-09
4.9728342e-05
4.3749808e-09
0.00014222934
1.157984e-08
0.00034261631
2.6824411e-08
0.00075129176
5.6278443e-08
0.0015359147
1.0752619e-07
0.0029398824
1.8402792e-07
0.0052368098
2.6999421e-07
0.0085726382
3.0960396e-07
0.012686342
2.2155953e-07
0.016681277
-5.9264677e-12
0.019208064
-2.2154623e-07
0.019208064
-3.0953687e-07
0.016681277
-2.6990259e-07
0.012686342
-1.8397292e-07
0.0085726382
-1.0755431e-07
0.0052368098
-5.6396613e-08
0.0029398824
-2.6999171e-08
0.0015359147
-1.1758229e-08
0.00075129177
-4.5118395e-09
0.00034261632
-1.3940128e-09
0.00014222934
-2.5918003e-10
4.9728343e-05
1.0126253e-05
2.1245045e-10
1.0126041e-05
1.2406497e-09
4.9727316e-05
4.133887e-09
0.00014222645
1.0941514e-08
0.00034260951
2.5346812e-08
0.00075127736
5.318222e-08
0.0015358869
1.0161949e-07
0.002939834
1.7394722e-07
0.0052367374
2.5530353e-07
0.0085725569
2.9296164e-07
0.012686304
2.0986946e-07
0.01668136
-4.4742839e-12
0.019208274
-2.0985593e-07
0.019208274
-2.9290238e-07
0.01668136
-2.5522824e-07
0.012686304
-1.7390755e-07
0.0085725569
-1.0164276e-07
0.0052367374
-5.3258113e-08
0.002939834
-2.5442966e-08
0.0015358869
-1.1024019e-08
0.00075127737
-4.1851966e-09
0.00034260951
-1.2641723e-09
0.00014222645
-2.1986715e-10
4.9727317e-05
1.0126042e-05
2.0123642e-10
1.0125841e-05
1.1746248e-09
4.9726344e-05
3.9130542e-09
0.00014222371
1.0354759e-08
0.00034260307
2.3982332e-08
0.00075126374
5.0311686e-08
0.0015358605
9.6134758e-08
0.0029397882
1.6459592e-07
0.005236669
2.4170695e-07
0.0085724798
2.7765654e-07
0.012686268
1.9918229e-07
0.016681439
-2.9503087e-12
0.019208473
-1.991694e-07
0.019208473
-2.7760817e-07
0.016681439
-2.4165267e-07
0.012686268
-1.6457519e-07
0.0085724798
-9.6151999e-08
0.005236669
-5.0337097e-08
0.0029397882
-2.3986057e-08
0.0015358606
-1.0325937e-08
0.00075126375
-3.866168e-09
0.00034260308
-1.1325028e-09
0.00014222371
-1.7803713e-10
4.9726346e-05
1.0125842e-05
1.904511e-10
1.0125652e-05
1.110817e-09
4.9725426e-05
3.6998693e-09
0.00014222113
9.7914534e-09
0.00034259698
2.2682219e-08
0.00075125085
4.7593437e-08
0.0015358356
9.0948581e-08
0.0029397448
1.5572095e-07
0.0052366042
2.2871677e-07
0.0085724068
2.6285587e-07
0.012686234
1.8870444e-07
0.016681513
-1.4147145e-12
0.019208662
-1.8869311e-07
0.019208662
-2.6282141e-07
0.016681513
-2.2868783e-07
0.012686234
-1.5572191e-07
0.0085724068
-9.0957699e-08
0.0052366042
-4.7560062e-08
0.0029397448
-2.2581084e-08
0.0015358356
-9.6387056e-09
0.00075125086
-3.5455179e-09
0.00034259699
-9.9776854e-10
0.00014222113
-1.345241e-10
4.9725428e-05
1.0125652e-05
1.812249e-10
1.0125472e-05
1.0564626e-09
4.9724553e-05
3.5173566e-09
0.00014221867
9.3026746e-09
0.0003425912
2.1534333e-08
0.00075123862
4.5156761e-08
0.001535812
8.6267014e-08
0.0029397037
1.4772041e-07
0.0052365428
2.1706545e-07
0.0085723374
2.4971141e-07
0.012686202
1.7948672e-07
0.016681583
7.0932905e-14
0.019208841
-1.7947805e-07
0.019208841
-2.4969424e-07
0.016681583
-2.1706563e-07
0.012686202
-1.4774408e-07
0.0085723374
-8.626413e-08
0.0052365428
-4.5055779e-08
0.0029397037
-2.1316739e-08
0.001535812
-9.0149516e-09
0.00075123863
-3.247707e-09
0.00034259121
-8.6827676e-10
0.00014221867
-9.1076542e-11
4.9724555e-05
1.0125472e-05
1.7025491e-10
1.0125303e-05
9.9178594e-10
4.9723734e-05
3.3042012e-09
0.00014221636
8.7531602e-09
0.00034258576
2.0306739e-08
0.00075122707
4.2675316e-08
0.0015357896
8.1653615e-08
0.0029396647
1.3993712e-07
0.0052364845
2.0573066e-07
0.0085722716
2.3676758e-07
0.012686171
1.7031334e-07
0.01668165
1.919147e-12
0.019209011
-1.703079e-07
0.019209011
-2.3677056e-07
0.01668165
-2.0576296e-07
0.012686171
-1.3998332e-07
0.0085722716
-8.1635088e-08
0.0052364845
-4.2503689e-08
0.0029396647
-1.9975204e-08
0.0015357897
-8.340186e-09
0.00075122707
-2.9326058e-09
0.00034258576
-7.3961056e-10
0.00014221636
-5.1655213e-11
4.9723735e-05
1.0125303e-05
1.6555229e-10
1.0125139e-05