/*--------------------------------*- C++ -*----------------------------------*\
| =========                 |                                                 |
| \\      /  F ield         | OpenFOAM: The Open Source CFD Toolbox           |
|  \\    /   O peration     | Version:  2406                                  |
|   \\  /    A nd           | Website:  www.openfoam.com                      |
|    \\/     M anipulation  |                                                 |
\*---------------------------------------------------------------------------*/
FoamFile
{
    version     2.0;
    format      ascii;
    arch        "LSB;label=32;scalar=64";
    class       volVectorField;
    location    "30";
    object      U;
}
// * * * * * * * * * * * * * * * * * * * * * * * * * * * * * * * * * * * * * //

dimensions      [0 1 -1 0 0 0 0];

internalField   nonuniform List<vector> 
1176
(
(0.019493789 7.0786495e-07 0)
(0.066677318 8.1696639e-06 0)
(0.13357994 3.9503176e-05 0)
(0.22724701 0.00010873578 0)
(0.35591522 0.00021176028 0)
(0.52772023 0.00030396288 0)
(0.74780387 0.00031818022 0)
(1.0136216 0.00024904592 0)
(1.3093323 0.00016667001 0)
(1.6017081 0.00011264687 0)
(1.8421723 7.0214142e-05 0)
(1.9793239 2.3940735e-05 0)
(1.9793239 -2.3941085e-05 0)
(1.8421723 -7.0215483e-05 0)
(1.6017081 -0.00011265069 0)
(1.3093323 -0.00016667875 0)
(1.0136216 -0.00024906275 0)
(0.7478039 -0.00031820993 0)
(0.52772027 -0.00030401213 0)
(0.35591527 -0.00021183015 0)
(0.22724705 -0.00010881252 0)
(0.13357997 -3.9568021e-05 0)
(0.06667734 -8.2064399e-06 0)
(0.019493798 -7.1589728e-07 0)
(0.020187017 -3.7419185e-06 0)
(0.068813532 -2.4638641e-05 0)
(0.13732107 -9.6548554e-05 0)
(0.23247391 -0.0002483946 0)
(0.36204617 -0.0004726878 0)
(0.53373556 -0.00067421181 0)
(0.75267407 -0.00069486938 0)
(1.0170176 -0.0004968736 0)
(1.3116385 -0.00023345905 0)
(1.6034438 -4.9824212e-05 0)
(1.8436588 1.9765042e-05 0)
(1.9807026 1.3428215e-05 0)
(1.9807026 -1.3426938e-05 0)
(1.8436588 -1.9763204e-05 0)
(1.6034438 4.9827107e-05 0)
(1.3116385 0.00023346375 0)
(1.0170176 0.00049688197 0)
(0.75267407 0.00069488467 0)
(0.53373557 0.00067423697 0)
(0.36204619 0.00047272131 0)
(0.23247393 0.0002484282 0)
(0.13732109 9.6574212e-05 0)
(0.068813548 2.4652223e-05 0)
(0.020187023 3.7446067e-06 0)
(0.020018442 2.0918378e-06 0)
(0.068327405 1.2720779e-05 0)
(0.13655404 4.687727e-05 0)
(0.23159544 0.00011389741 0)
(0.36138709 0.00019769272 0)
(0.53366969 0.00023903242 0)
(0.75344344 0.00020559822 0)
(1.0184881 0.00011361122 0)
(1.3134639 7.4313647e-05 0)
(1.6053464 7.9532932e-05 0)
(1.8455118 7.051657e-05 0)
(1.9825245 2.7825693e-05 0)
(1.9825245 -2.7825563e-05 0)
(1.8455118 -7.0516636e-05 0)
(1.6053464 -7.9533468e-05 0)
(1.3134639 -7.4314188e-05 0)
(1.0184881 -0.00011361059 0)
(0.75344343 -0.00020559517 0)
(0.53366968 -0.00023902722 0)
(0.36138707 -0.00019768556 0)
(0.23159543 -0.00011388936 0)
(0.13655403 -4.6870195e-05 0)
(0.068327397 -1.2716514e-05 0)
(0.020018439 -2.0908431e-06 0)
(0.019966547 7.0077e-07 0)
(0.068159231 4.6870738e-06 0)
(0.13624021 1.9355496e-05 0)
(0.2311194 5.6456257e-05 0)
(0.36078093 0.00013444578 0)
(0.53306293 0.00025829331 0)
(0.75295637 0.00035344754 0)
(1.0181104 0.00036912015 0)
(1.313184 0.0003075889 0)
(1.6051633 0.00022777262 0)
(1.8453995 0.00014555967 0)
(1.9824491 4.9997316e-05 0)
(1.9824491 -4.999775e-05 0)
(1.8453995 -0.00014556111 0)
(1.6051633 -0.00022777547 0)
(1.313184 -0.00030759222 0)
(1.0181104 -0.00036912249 0)
(0.75295637 -0.00035344865 0)
(0.53306293 -0.00025829381 0)
(0.36078093 -0.00013444681 0)
(0.2311194 -5.6458158e-05 0)
(0.13624021 -1.9357535e-05 0)
(0.068159232 -4.6883186e-06 0)
(0.019966547 -7.0105068e-07 0)
(0.019942203 2.9077288e-07 0)
(0.068078703 1.9872245e-06 0)
(0.13608628 8.2361624e-06 0)
(0.23087699 2.3699401e-05 0)
(0.36044744 5.6881732e-05 0)
(0.53266448 0.00012306898 0)
(0.75256878 0.00022681828 0)
(1.017808 0.0003227223 0)
(1.3129044 0.00034572478 0)
(1.604912 0.00030730007 0)
(1.8452029 0.00021095353 0)
(1.9822898 7.4614911e-05 0)
(1.9822898 -7.4614491e-05 0)
(1.8452029 -0.00021095364 0)
(1.604912 -0.00030730068 0)
(1.3129044 -0.00034572515 0)
(1.017808 -0.00032272196 0)
(0.75256878 -0.00022681721 0)
(0.53266448 -0.00012306697 0)
(0.36044744 -5.6879344e-05 0)
(0.23087699 -2.3697248e-05 0)
(0.13608628 -8.2346461e-06 0)
(0.068078703 -1.9864569e-06 0)
(0.019942204 -2.9062398e-07 0)
(0.019933132 1.7181834e-07 0)
(0.068047755 1.1940925e-06 0)
(0.13602489 5.0652336e-06 0)
(0.23077535 1.4968918e-05 0)
(0.36029899 3.6219621e-05 0)
(0.5324792 7.6944319e-05 0)
(0.75239427 0.00014713777 0)
(1.0177222 0.00023749033 0)
(1.3129292 0.00028525605 0)
(1.6049746 0.00027441512 0)
(1.8452865 0.00019644657 0)
(1.9823834 7.1177384e-05 0)
(1.9823834 -7.1176818e-05 0)
(1.8452865 -0.00019644635 0)
(1.6049746 -0.00027441525 0)
(1.3129292 -0.00028525625 0)
(1.0177222 -0.0002374901 0)
(0.75239427 -0.00014713723 0)
(0.5324792 -7.6943706e-05 0)
(0.36029898 -3.6219171e-05 0)
(0.23077535 -1.4968703e-05 0)
(0.13602488 -5.0651789e-06 0)
(0.068047755 -1.1940995e-06 0)
(0.019933131 -1.7182072e-07 0)
(0.0199234 1.5587936e-07 0)
(0.068015507 1.0700931e-06 0)
(0.13596286 4.493497e-06 0)
(0.23067607 1.3195507e-05 0)
(0.36015773 3.1857172e-05 0)
(0.53230178 6.6958261e-05 0)
(0.75221429 0.00012411888 0)
(1.0176105 0.00019917051 0)
(1.3129358 0.0002549085 0)
(1.6050904 0.00024595187 0)
(1.8454579 0.00018127923 0)
(1.9825798 6.6548805e-05 0)
(1.9825798 -6.65484e-05 0)
(1.8454579 -0.00018127897 0)
(1.6050904 -0.00024595165 0)
(1.3129358 -0.00025490826 0)
(1.0176105 -0.00019917025 0)
(0.75221429 -0.00012411875 0)
(0.53230178 -6.6958594e-05 0)
(0.36015773 -3.1858023e-05 0)
(0.23067607 -1.3196608e-05 0)
(0.13596286 -4.4944721e-06 0)
(0.068015507 -1.0706818e-06 0)
(0.0199234 -1.5600811e-07 0)
(0.019915697 1.2758871e-07 0)
(0.067989792 8.7802762e-07 0)
(0.13591293 3.6960185e-06 0)
(0.23059503 1.0901622e-05 0)
(0.36003987 2.6613353e-05 0)
(0.53214753 5.7237094e-05 0)
(0.75204133 0.00010911043 0)
(1.0174723 0.00017936623 0)
(1.3128926 0.0002380248 0)
(1.6051414 0.00023746765 0)
(1.8455877 0.00017750695 0)
(1.9827514 6.5539562e-05 0)
(1.9827514 -6.5539353e-05 0)
(1.8455877 -0.00017750667 0)
(1.6051414 -0.00023746716 0)
(1.3128926 -0.00023802425 0)
(1.0174723 -0.00017936586 0)
(0.75204133 -0.00010911058 0)
(0.53214753 -5.7238041e-05 0)
(0.36003987 -2.6614918e-05 0)
(0.23059503 -1.0903313e-05 0)
(0.13591293 -3.6973643e-06 0)
(0.067989792 -8.7880495e-07 0)
(0.019915697 -1.2775486e-07 0)
(0.019909217 1.0465814e-07 0)
(0.067968141 7.2313493e-07 0)
(0.13587084 3.0520982e-06 0)
(0.23052654 9.0118156e-06 0)
(0.35993984 2.1999845e-05 0)
(0.53201542 4.7473375e-05 0)
(0.75188901 9.2013975e-05 0)
(1.0173341 0.00015618181 0)
(1.3128278 0.00021699676 0)
(1.6051595 0.00022709635 0)
(1.8456699 0.00017232641 0)
(1.982868 6.4147754e-05 0)
(1.982868 -6.4147721e-05 0)
(1.8456699 -0.00017232621 0)
(1.6051595 -0.00022709587 0)
(1.3128278 -0.0002169962 0)
(1.0173341 -0.00015618156 0)
(0.75188901 -9.2014554e-05 0)
(0.53201542 -4.7475067e-05 0)
(0.35993984 -2.2002293e-05 0)
(0.23052654 -9.014284e-06 0)
(0.13587084 -3.053975e-06 0)
(0.067968141 -7.241869e-07 0)
(0.019909217 -1.0487903e-07 0)
(0.019903971 8.6124766e-08 0)
(0.067950552 5.9695125e-07 0)
(0.13583649 2.527354e-06 0)
(0.2304703 7.4915753e-06 0)
(0.35985692 1.8376243e-05 0)
(0.53190436 3.9835617e-05 0)
(0.75175836 7.7712072e-05 0)
(1.0172122 0.00013432427 0)
(1.3127613 0.00019323368 0)
(1.6051772 0.00021058352 0)
(1.8457533 0.00016272976 0)
(1.9829863 6.1084213e-05 0)
(1.9829863 -6.108436e-05 0)
(1.8457533 -0.00016272971 0)
(1.6051772 -0.00021058318 0)
(1.3127613 -0.00019323324 0)
(1.0172122 -0.0001343242 0)
(0.75175836 -7.7713032e-05 0)
(0.53190436 -3.9837921e-05 0)
(0.35985692 -1.8379417e-05 0)
(0.2304703 -7.4947062e-06 0)
(0.13583649 -2.5297079e-06 0)
(0.067950552 -5.9825921e-07 0)
(0.019903971 -8.6398458e-08 0)
(0.019899543 7.3353424e-08 0)
(0.067935688 5.0894465e-07 0)
(0.13580742 2.156854e-06 0)
(0.23042259 6.4027133e-06 0)
(0.35978626 1.5747528e-05 0)
(0.5318089 3.4277751e-05 0)
(0.75164409 6.7204523e-05 0)
(1.0171021 0.00011722985 0)
(1.3126976 0.00017262458 0)
(1.6051928 0.00019308901 0)
(1.8458371 0.0001521986 0)
(1.9831061 5.754464e-05 0)
(1.9831061 -5.7544994e-05 0)
(1.8458371 -0.00015219873 0)
(1.6051928 -0.00019308881 0)
(1.3126976 -0.00017262423 0)
(1.0171021 -0.00011722991 0)
(0.75164409 -6.7205747e-05 0)
(0.5318089 -3.4280485e-05 0)
(0.35978626 -1.5751235e-05 0)
(0.23042259 -6.4063578e-06 0)
(0.13580742 -2.1595965e-06 0)
(0.067935688 -5.1046865e-07 0)
(0.019899543 -7.3672534e-08 0)
(0.019895721 6.3723192e-08 0)
(0.06792285 4.4250142e-07 0)
(0.13578228 1.8767008e-06 0)
(0.23038125 5.5764775e-06 0)
(0.35972483 1.3738625e-05 0)
(0.53172535 2.9997946e-05 0)
(0.75154264 5.911149e-05 0)
(1.0170011 0.0001038881 0)
(1.3126345 0.00015540269 0)
(1.6052015 0.00017849514 0)
(1.8459125 0.00014271537 0)
(1.9832185 5.4330339e-05 0)
(1.9832185 -5.4330904e-05 0)
(1.8459125 -0.00014271567 0)
(1.6052015 -0.00017849506 0)
(1.3126344 -0.00015540239 0)
(1.0170011 -0.00010388821 0)
(0.75154264 -5.9112881e-05 0)
(0.53172535 -3.0001026e-05 0)
(0.35972483 -1.3742826e-05 0)
(0.23038125 -5.5806386e-06 0)
(0.13578228 -1.8798552e-06 0)
(0.06792285 -4.4426168e-07 0)
(0.019895721 -6.4092699e-08 0)
(0.019892371 5.6086253e-08 0)
(0.067911586 3.8975937e-07 0)
(0.13576021 1.6540922e-06 0)
(0.2303449 4.9187264e-06 0)
(0.35967069 1.2131975e-05 0)
(0.53165136 2.6542403e-05 0)
(0.7514519 5.2498727e-05 0)
(1.0169086 9.2875604e-05 0)
(1.3125728 0.00014061474 0)
(1.605205 0.00016529597 0)
(1.8459798 0.000133989 0)
(1.9833221 5.1387073e-05 0)
(1.9833221 -5.1387813e-05 0)
(1.8459798 -0.00013398942 0)
(1.605205 -0.00016529592 0)
(1.3125728 -0.0001406144 0)
(1.0169086 -9.2875692e-05 0)
(0.7514519 -5.2500245e-05 0)
(0.53165136 -2.6545856e-05 0)
(0.35967069 -1.2136754e-05 0)
(0.2303449 -4.9235103e-06 0)
(0.13576021 -1.6577479e-06 0)
(0.067911586 -3.9180916e-07 0)
(0.019892371 -5.6517694e-08 0)
(0.019889403 4.9846036e-08 0)
(0.067901607 3.4660371e-07 0)
(0.13574064 1.4717419e-06 0)
(0.23031264 4.3793693e-06 0)
(0.35962253 1.0812299e-05 0)
(0.53158531 2.3691404e-05 0)
(0.75137029 4.6984122e-05 0)
(1.016824 8.3546236e-05 0)
(1.3125139 0.00012773731 0)
(1.6052051 0.00015293322 0)
(1.8460415 0.00012582002 0)
(1.9834196 4.8616054e-05 0)
(1.9834196 -4.86169e-05 0)
(1.8460415 -0.00012582049 0)
(1.6052051 -0.00015293311 0)
(1.3125139 -0.00012773684 0)
(1.016824 -8.3546246e-05 0)
(0.75137029 -4.6985787e-05 0)
(0.53158531 -2.3695351e-05 0)
(0.35962253 -1.081784e-05 0)
(0.23031264 -4.3849589e-06 0)
(0.13574064 -1.4760345e-06 0)
(0.067901607 -3.4901821e-07 0)
(0.019889403 -5.0355062e-08 0)
(0.019886752 4.469718e-08 0)
(0.067892685 3.1093624e-07 0)
(0.13572313 1.3208081e-06 0)
(0.23028375 3.9322045e-06 0)
(0.35957935 9.7158949e-06 0)
(0.53152592 2.1315622e-05 0)
(0.75129648 4.2360287e-05 0)
(1.0167465 7.5619879e-05 0)
(1.3124581 0.00011654223 0)
(1.6052027 0.00014169848 0)
(1.8460982 0.00011827062 0)
(1.9835117 4.6031078e-05 0)
(1.9835117 -4.6031965e-05 0)
(1.8460982 -0.00011827105 0)
(1.6052027 -0.00014169821 0)
(1.3124581 -0.00011654154 0)
(1.0167465 -7.5619774e-05 0)
(0.75129648 -4.2362167e-05 0)
(0.53152592 -2.1320245e-05 0)
(0.35957935 -9.7224422e-06 0)
(0.23028375 -3.9388301e-06 0)
(0.13572313 -1.3259029e-06 0)
(0.067892685 -3.1380482e-07 0)
(0.019886752 -4.5302161e-08 0)
(0.019884362 4.0385777e-08 0)
(0.067884644 2.8103699e-07 0)
(0.13570735 1.1941556e-06 0)
(0.23025769 3.5564986e-06 0)
(0.35954035 8.7929272e-06 0)
(0.53147216 1.9310089e-05 0)
(0.75122934 3.8440233e-05 0)
(1.0166753 6.8838989e-05 0)
(1.3124053 0.00010678349 0)
(1.6051983 0.00013155207 0)
(1.8461504 0.00011132761 0)
(1.9835985 4.3630638e-05 0)
(1.9835985 -4.3631524e-05 0)
(1.8461504 -0.00011132794 0)
(1.6051983 -0.00013155156 0)
(1.3124053 -0.00010678251 0)
(1.0166753 -6.8838755e-05 0)
(0.75122934 -3.844242e-05 0)
(0.53147216 -1.931559e-05 0)
(0.35954035 -8.8007395e-06 0)
(0.23025769 -3.5643997e-06 0)
(0.13570735 -1.2002229e-06 0)
(0.067884643 -2.8445072e-07 0)
(0.019884362 -4.1105372e-08 0)
(0.019882195 3.6711263e-08 0)
(0.067877349 2.5553855e-07 0)
(0.13569303 1.0860826e-06 0)
(0.23023403 3.2356465e-06 0)
(0.3595049 8.0036231e-06 0)
(0.5314232 1.7591002e-05 0)
(0.75116797 3.5067323e-05 0)
(1.0166096 6.2964233e-05 0)
(1.3123553 9.8203212e-05 0)
(1.6051923 0.00012233343 0)
(1.8461982 0.00010491274 0)
(1.9836803 4.1389926e-05 0)
(1.9836803 -4.1390798e-05 0)
(1.8461982 -0.00010491294 0)
(1.6051923 -0.00012233263 0)
(1.3123553 -9.8201893e-05 0)
(1.0166096 -6.296387e-05 0)
(0.75116797 -3.5069911e-05 0)
(0.5314232 -1.7597574e-05 0)
(0.3595049 -8.012942e-06 0)
(0.23023403 -3.2450448e-06 0)
(0.13569303 -1.0932797e-06 0)
(0.067877348 -2.595815e-07 0)
(0.019882195 -3.7562689e-08 0)
(0.019880219 3.353841e-08 0)
(0.067870695 2.3351007e-07 0)
(0.13567996 9.9267561e-07 0)
(0.23021243 2.9581682e-06 0)
(0.35947252 7.3203345e-06 0)
(0.53137842 1.6100212e-05 0)
(0.75111164 3.2133115e-05 0)
(1.0165488 5.7823508e-05 0)
(1.3123082 9.0602509e-05 0)
(1.6051852 0.00011395325 0)
(1.8462423 9.8955535e-05 0)
(1.9837576 3.9288385e-05 0)
(1.9837576 -3.9289256e-05 0)
(1.8462423 -9.8955586e-05 0)
(1.6051852 -0.00011395212 0)
(1.3123082 -9.0600815e-05 0)
(1.0165488 -5.7823023e-05 0)
(0.75111164 -3.2136189e-05 0)
(0.53137842 -1.6108021e-05 0)
(0.35947252 -7.3313658e-06 0)
(0.23021243 -2.9692531e-06 0)
(0.13567996 -1.001138e-06 0)
(0.067870695 -2.3825474e-07 0)
(0.019880219 -3.4536549e-08 0)
(0.019878409 3.0773267e-08 0)
(0.0678646 2.1430317e-07 0)
(0.13566798 9.1119979e-07 0)
(0.23019263 2.7159983e-06 0)
(0.35944282 6.7234652e-06 0)
(0.53133728 1.4796093e-05 0)
(0.75105977 2.955981e-05 0)
(1.0164925 5.3292674e-05 0)
(1.3122638 8.3831639e-05 0)
(1.6051772 0.00010632389 0)
(1.846283 9.3402768e-05 0)
(1.9838307 3.7311805e-05 0)
(1.9838307 -3.73127e-05 0)
(1.846283 -9.3402674e-05 0)
(1.6051772 -0.00010632241 0)
(1.3122638 -8.3829544e-05 0)
(1.0164925 -5.3292072e-05 0)
(0.75105977 -2.9563436e-05 0)
(0.53133728 -1.480527e-05 0)
(0.35944282 -6.7363742e-06 0)
(0.23019263 -2.7289235e-06 0)
(0.13566798 -9.2103844e-07 0)
(0.067864599 -2.1980933e-07 0)
(0.019878409 -3.1930441e-08 0)
(0.019876745 2.8342289e-08 0)
(0.067858993 1.9741099e-07 0)
(0.13565697 8.3951864e-07 0)
(0.23017441 2.5028402e-06 0)
(0.35941547 6.197696e-06 0)
(0.53129936 1.3645894e-05 0)
(0.75101183 2.7285457e-05 0)
(1.0164401 4.9271891e-05 0)
(1.3122219 7.7767789e-05 0)
(1.6051688 9.9355963e-05 0)
(1.8463207 8.8213041e-05 0)
(1.9838998 3.5448806e-05 0)
(1.9838998 -3.5449759e-05 0)
(1.8463207 -8.8212814e-05 0)
(1.6051688 -9.9354123e-05 0)
(1.3122219 -7.7765279e-05 0)
(1.0164401 -4.9271177e-05 0)
(0.75101183 -2.7289689e-05 0)
(0.53129936 -1.3656542e-05 0)
(0.35941547 -6.2126125e-06 0)
(0.23017441 -2.517728e-06 0)
(0.13565697 -8.5082296e-07 0)
(0.067858992 -2.037272e-07 0)
(0.019876745 -2.9668569e-08 0)
(0.019875209 2.6187672e-08 0)
(0.067853818 1.8243439e-07 0)
(0.1356468 7.7594756e-07 0)
(0.23015758 2.3137249e-06 0)
(0.3593902 5.7309298e-06 0)
(0.5312643 1.2623685e-05 0)
(0.75096742 2.526053e-05 0)
(1.0163914 4.5679746e-05 0)
(1.3121824 7.230817e-05 0)
(1.6051599 9.2973207e-05 0)
(1.8463555 8.3349743e-05 0)
(1.9839652 3.3688737e-05 0)
(1.9839652 -3.3689778e-05 0)
(1.8463555 -8.3349398e-05 0)
(1.6051599 -9.2971005e-05 0)
(1.3121824 -7.2305232e-05 0)
(1.0163914 -4.5678924e-05 0)
(0.75096742 -2.5265405e-05 0)
(0.5312643 -1.2635883e-05 0)
(0.3593902 -5.747957e-06 0)
(0.23015758 -2.3306739e-06 0)
(0.1356468 -7.887907e-07 0)
(0.067853817 -1.8960075e-07 0)
(0.019875208 -2.7691409e-08 0)
(0.019873787 2.4264379e-08 0)
(0.067849027 1.6906182e-07 0)
(0.13563738 7.1916921e-07 0)
(0.230142 2.1447588e-06 0)
(0.35936679 5.313665e-06 0)
(0.53123178 1.1709044e-05 0)
(0.75092616 2.3445804e-05 0)
(1.016346 4.245079e-05 0)
(1.3121452 6.7367753e-05 0)
(1.6051509 8.7107351e-05 0)
(1.8463878 7.8784539e-05 0)
(1.9840271 3.2023023e-05 0)
(1.9840271 -3.2024177e-05 0)
(1.8463878 -7.8784088e-05 0)
(1.6051509 -8.7104779e-05 0)
(1.3121452 -6.736437e-05 0)
(1.016346 -4.2449858e-05 0)
(0.75092616 -2.3451352e-05 0)
(0.53123178 -1.1722857e-05 0)
(0.35936679 -5.3328885e-06 0)
(0.230142 -2.1638519e-06 0)
(0.13563738 -7.3361284e-07 0)
(0.067849027 -1.7711223e-07 0)
(0.019873786 -2.5952662e-08 0)
(0.019872467 2.2536927e-08 0)
(0.067844581 1.5704754e-07 0)
(0.13562864 6.6814394e-07 0)
(0.23012754 1.9928655e-06 0)
(0.35934505 4.9383794e-06 0)
(0.53120156 1.0885763e-05 0)
(0.75088776 2.1810057e-05 0)
(1.0163035 3.9532506e-05 0)
(1.31211 6.2876673e-05 0)
(1.6051418 8.1701895e-05 0)
(1.8464178 7.4491201e-05 0)
(1.9840857 3.0443525e-05 0)
(1.9840857 -3.0444805e-05 0)
(1.8464178 -7.4490647e-05 0)
(1.6051418 -8.1698941e-05 0)
(1.31211 -6.2872828e-05 0)
(1.0163035 -3.9531458e-05 0)
(0.75088776 -2.1816301e-05 0)
(0.53120156 -1.0901246e-05 0)
(0.35934505 -4.9598735e-06 0)
(0.23012754 -2.0141742e-06 0)
(0.13562864 -6.8424086e-07 0)
(0.067844581 -1.6601092e-07 0)
(0.019872467 -2.4415782e-08 0)
(0.01987124 2.0976872e-08 0)
(0.067840446 1.4619456e-07 0)
(0.13562051 6.2203826e-07 0)
(0.23011408 1.8555769e-06 0)
(0.35932481 4.5990289e-06 0)
(0.53117342 1.0140781e-05 0)
(0.75085195 2.0328035e-05 0)
(1.0162638 3.6882201e-05 0)
(1.3120768 5.8777223e-05 0)
(1.6051327 7.6706573e-05 0)
(1.8464458 7.0450619e-05 0)
(1.9841412 2.8944207e-05 0)
(1.9841412 -2.8945613e-05 0)
(1.8464458 -7.0449954e-05 0)
(1.6051327 -7.6703214e-05 0)
(1.3120768 -5.8772891e-05 0)
(1.0162638 -3.6881029e-05 0)
(0.75085195 -2.0334996e-05 0)
(0.53117342 -1.0157983e-05 0)
(0.35932481 -4.6228582e-06 0)
(0.23011408 -1.8791615e-06 0)
(0.13562051 -6.3983176e-07 0)
(0.067840445 -1.560942e-07 0)
(0.01987124 -2.3051104e-08 0)
(0.019870096 1.9561174e-08 0)
(0.067836592 1.3634331e-07 0)
(0.13561293 5.8017713e-07 0)
(0.23010153 1.7308938e-06 0)
(0.35930594 4.2907143e-06 0)
(0.53114716 9.4634981e-06 0)
(0.75081849 1.8979182e-05 0)
(1.0162266 3.4464886e-05 0)
(1.3120455 5.5021273e-05 0)
(1.6051237 7.2080599e-05 0)
(1.8464718 6.6642027e-05 0)
(1.9841938 2.7518642e-05 0)
(1.9841938 -2.7520164e-05 0)
(1.8464718 -6.6641233e-05 0)
(1.6051237 -7.2076808e-05 0)
(1.3120455 -5.5016427e-05 0)
(1.0162266 -3.4463581e-05 0)
(0.75081849 -1.8986877e-05 0)
(0.53114716 -9.482461e-06 0)
(0.35930594 -4.3169298e-06 0)
(0.23010153 -1.7567987e-06 0)
(0.13561293 -5.9969701e-07 0)
(0.067836591 -1.4719446e-07 0)
(0.019870096 -2.1833845e-08 0)
(0.019869029 1.8270948e-08 0)
(0.067832994 1.27363e-07 0)
(0.13560586 5.4200748e-07 0)
(0.23008981 1.6171773e-06 0)
(0.35928831 4.0094151e-06 0)
(0.53112262 8.8451978e-06 0)
(0.75078719 1.7746546e-05 0)
(1.0161917 3.2251619e-05 0)
(1.312016 5.1568626e-05 0)
(1.6051149 6.7786139e-05 0)
(1.846496 6.3052208e-05 0)
(1.9842437 2.6162805e-05 0)
(1.9842437 -2.6164419e-05 0)
(1.846496 -6.3051257e-05 0)
(1.6051149 -6.778188e-05 0)
(1.3120159 -5.1563239e-05 0)
(1.0161917 -3.2250172e-05 0)
(0.75078719 -1.7754988e-05 0)
(0.53112262 -8.8659491e-06 0)
(0.35928832 -4.0380453e-06 0)
(0.23008981 -1.6454222e-06 0)
(0.13560586 -5.6326306e-07 0)
(0.067832994 -1.3916893e-07 0)
(0.019869028 -2.074254e-08 0)
(0.019868031 1.7090611e-08 0)
(0.067829631 1.1914572e-07 0)
(0.13559924 5.0707296e-07 0)
(0.23007886 1.5130752e-06 0)
(0.35927183 3.7518142e-06 0)
(0.53109966 8.278687e-06 0)
(0.75075787 1.6616117e-05 0)
(1.0161589 3.0218314e-05 0)
(1.311988 4.8385255e-05 0)
(1.6051063 6.3793582e-05 0)
(1.8465187 5.9662972e-05 0)
(1.9842909 2.4871341e-05 0)
(1.9842909 -2.4873016e-05 0)
(1.8465187 -5.966183e-05 0)
(1.6051063 -6.378882e-05 0)
(1.311988 -4.8379301e-05 0)
(1.0161589 -3.0216717e-05 0)
(0.75075787 -1.6625312e-05 0)
(0.53109966 -8.3012316e-06 0)
(0.35927183 -3.7828524e-06 0)
(0.23007886 -1.5436424e-06 0)
(0.13559924 -5.3004384e-07 0)
(0.06782963 -1.3189259e-07 0)
(0.019868031 -1.9757952e-08 0)
(0.019867097 1.600714e-08 0)
(0.067826482 1.116013e-07 0)
(0.13559305 4.749923e-07 0)
(0.2300686 1.4174571e-06 0)
(0.35925639 3.515133e-06 0)
(0.53107814 7.7579255e-06 0)
(0.75073038 1.5576105e-05 0)
(1.0161281 2.8344714e-05 0)
(1.3119617 4.5442504e-05 0)
(1.6050979 6.0073415e-05 0)
(1.8465398 5.6465873e-05 0)
(1.9843356 2.3641935e-05 0)
(1.9843356 -2.3643634e-05 0)
(1.8465398 -5.6464507e-05 0)
(1.6050979 -6.0068117e-05 0)
(1.3119617 -4.5435963e-05 0)
(1.0161281 -2.8342961e-05 0)
(0.75073038 -1.5586046e-05 0)
(0.53107814 -7.7822346e-06 0)
(0.35925639 -3.5485231e-06 0)
(0.2300686 -1.4502771e-06 0)
(0.13559305 -4.9961776e-07 0)
(0.067826481 -1.2525233e-07 0)
(0.019867096 -1.8862189e-08 0)
(0.019866221 1.5009594e-08 0)
(0.067823531 1.0465392e-07 0)
(0.13558724 4.454446e-07 0)
(0.23005898 1.3293717e-06 0)
(0.35924191 3.2970372e-06 0)
(0.53105796 7.2778452e-06 0)
(0.75070457 1.4616602e-05 0)
(1.0160992 2.661363e-05 0)
(1.3119367 4.2715533e-05 0)
(1.6050897 5.6603966e-05 0)
(1.8465596 5.3443334e-05 0)
(1.984378 2.2469612e-05 0)
(1.984378 -2.247129e-05 0)
(1.8465596 -5.3441714e-05 0)
(1.6050897 -5.6598108e-05 0)
(1.3119367 -4.2708396e-05 0)
(1.0160992 -2.6611721e-05 0)
(0.75070457 -1.4627266e-05 0)
(0.53105796 -7.3038441e-06 0)
(0.35924191 -3.3326566e-06 0)
(0.23005898 -1.3643079e-06 0)
(0.13558724 -4.7161193e-07 0)
(0.06782353 -1.1914294e-07 0)
(0.019866221 -1.8038108e-08 0)
(0.0198654 1.4088706e-08 0)
(0.067820761 9.8239381e-08 0)
(0.1355818 4.1815811e-07 0)
(0.23004995 1.248012e-06 0)
(0.35922832 3.0955383e-06 0)
(0.53103901 6.8341095e-06 0)
(0.75068032 1.3729116e-05 0)
(1.0160719 2.501043e-05 0)
(1.3119132 4.0183448e-05 0)
(1.6050818 5.3361304e-05 0)
(1.8465781 5.0591541e-05 0)
(1.9844182 2.1353613e-05 0)
(1.9844182 -2.1355236e-05 0)
(1.8465781 -5.0589636e-05 0)
(1.6050818 -5.3354871e-05 0)
(1.3119132 -4.017572e-05 0)
(1.0160719 -2.5008368e-05 0)
(0.75068032 -1.3740456e-05 0)
(0.53103901 -6.8616653e-06 0)
(0.35922832 -3.1331817e-06 0)
(0.23004996 -1.284844e-06 0)
(0.1355818 -4.4569083e-07 0)
(0.067820761 -1.1346447e-07 0)
(0.019865399 -1.7268907e-08 0)
(0.019864628 1.3236551e-08 0)
(0.067818161 9.2302568e-08 0)
(0.13557668 3.9289895e-07 0)
(0.23004148 1.1726845e-06 0)
(0.35921555 2.9089355e-06 0)
(0.5310212 6.4230265e-06 0)
(0.75065752 1.2906409e-05 0)
(1.0160463 2.352241e-05 0)
(1.3118909 3.7827428e-05 0)
(1.6050743 5.0329602e-05 0)
(1.8465955 4.7891757e-05 0)
(1.9844563 2.0288623e-05 0)
(1.9844563 -2.0290167e-05 0)
(1.8465955 -4.7889537e-05 0)
(1.6050743 -5.0322593e-05 0)
(1.3118909 -3.7819131e-05 0)
(1.0160463 -2.3520202e-05 0)
(0.75065752 -1.2918352e-05 0)
(0.5310212 -6.451936e-06 0)
(0.35921556 -2.9482987e-06 0)
(0.23004148 -1.2110935e-06 0)
(0.13557668 -4.2154588e-07 0)
(0.06781816 -1.0812004e-07 0)
(0.019864628 -1.6537888e-08 0)
(0.019863903 1.2446396e-08 0)
(0.067815716 8.6796836e-08 0)
(0.13557187 3.6946912e-07 0)
(0.23003351 1.102799e-06 0)
(0.35920355 2.735768e-06 0)
(0.53100445 6.0413949e-06 0)
(0.75063606 1.2142191e-05 0)
(1.0160221 2.213876e-05 0)
(1.3118699 3.5632088e-05 0)
(1.6050669 4.7488819e-05 0)
(1.8466118 4.5345498e-05 0)
(1.9844924 1.9275593e-05 0)
(1.9844924 -1.9277044e-05 0)
(1.8466118 -4.5342943e-05 0)
(1.6050669 -4.7481252e-05 0)
(1.3118699 -3.5623269e-05 0)
(1.0160221 -2.2136426e-05 0)
(0.75063606 -1.2154634e-05 0)
(0.53100445 -6.0713726e-06 0)
(0.35920355 -2.7764314e-06 0)
(0.23003351 -1.1423511e-06 0)
(0.13557187 -3.9889173e-07 0)
(0.067815716 -1.0301429e-07 0)
(0.019863903 -1.5828088e-08 0)
(0.019863221 1.1712291e-08 0)
(0.067813417 8.1680512e-08 0)
(0.13556735 3.476911e-07 0)
(0.23002601 1.03783e-06 0)
(0.35919226 2.5747522e-06 0)
(0.53098868 5.6864386e-06 0)
(0.75061585 1.1431005e-05 0)
(1.0159993 2.0849732e-05 0)
(1.31185 3.3582471e-05 0)
(1.6050599 4.4827425e-05 0)
(1.8466272 4.2930854e-05 0)
(1.9845266 1.8308099e-05 0)
(1.9845266 -1.8309439e-05 0)
(1.8466272 -4.292796e-05 0)
(1.6050599 -4.4819345e-05 0)
(1.31185 -3.3573203e-05 0)
(1.0159993 -2.0847297e-05 0)
(0.75061585 -1.1443806e-05 0)
(0.53098869 -5.7171064e-06 0)
(0.35919226 -2.6161667e-06 0)
(0.23002601 -1.0779627e-06 0)
(0.13556735 -3.7745396e-07 0)
(0.067813416 -9.8051577e-08 0)
(0.019863221 -1.5122239e-08 0)
(0.019862579 1.1029321e-08 0)
(0.067811252 7.6919708e-08 0)
(0.13556309 3.274208e-07 0)
(0.23001895 9.7734479e-07 0)
(0.35918162 2.4248047e-06 0)
(0.53097384 5.3557566e-06 0)
(0.75059681 1.0768121e-05 0)
(1.0159778 1.9647311e-05 0)
(1.3118312 3.1667497e-05 0)
(1.6050532 4.2328437e-05 0)
(1.8466415 4.0656243e-05 0)
(1.984559 1.7389328e-05 0)
(1.984559 -1.7390534e-05 0)
(1.8466415 -4.0653029e-05 0)
(1.6050532 -4.231992e-05 0)
(1.3118312 -3.1657887e-05 0)
(1.0159778 -1.9644811e-05 0)
(0.75059681 -1.07811e-05 0)
(0.53097384 -5.3866346e-06 0)
(0.35918162 -2.4662801e-06 0)
(0.23001895 -1.017357e-06 0)
(0.13556309 -3.5698445e-07 0)
(0.067811252 -9.3140352e-08 0)
(0.019862579 -1.4403372e-08 0)
(0.019861974 1.0392758e-08 0)
(0.067809213 7.2480838e-08 0)
(0.13555908 3.085146e-07 0)
(0.2300123 9.209212e-07 0)
(0.3591716 2.2849094e-06 0)
(0.53095985 5.0471815e-06 0)
(0.75057886 1.014927e-05 0)
(1.0159575 1.8523622e-05 0)
(1.3118134 2.9874354e-05 0)
(1.6050467 3.9983085e-05 0)
(1.8466551 3.8493952e-05 0)
(1.9845898 1.6510718e-05 0)
(1.9845898 -1.651177e-05 0)
(1.8466551 -3.8490451e-05 0)
(1.6050467 -3.9974239e-05 0)
(1.3118134 -2.9864544e-05 0)
(1.0159575 -1.8521108e-05 0)
(0.75057886 -1.0162201e-05 0)
(0.53095985 -5.0776743e-06 0)
(0.35917161 -2.3255954e-06 0)
(0.2300123 -9.5995307e-07 0)
(0.13555908 -3.3721977e-07 0)
(0.067809213 -8.8180488e-08 0)
(0.019861974 -1.3652805e-08 0)
(0.019861404 9.7991725e-09 0)
(0.067807292 6.8340894e-08 0)
(0.13555529 2.908751e-07 0)
(0.23000603 8.6826059e-07 0)
(0.35916216 2.1542917e-06 0)
(0.53094666 4.758941e-06 0)
(0.75056194 9.5709405e-06 0)
(1.0159384 1.7472975e-05 0)
(1.3117965 2.8195988e-05 0)
(1.6050405 3.7777687e-05 0)
(1.8466678 3.6462018e-05 0)
(1.9846188 1.5678689e-05 0)
(1.9846188 -1.5679576e-05 0)
(1.8466678 -3.6458283e-05 0)
(1.6050405 -3.7768655e-05 0)
(1.3117965 -2.818616e-05 0)
(1.0159384 -1.7470508e-05 0)
(0.75056194 -9.5835521e-06 0)
(0.53094666 -4.7883367e-06 0)
(0.35916216 -2.1931782e-06 0)
(0.23000604 -9.0529701e-07 0)
(0.1355553 -3.1794743e-07 0)
(0.067807292 -8.3085504e-08 0)
(0.019861404 -1.285387e-08 0)
(0.019860867 9.2443633e-09 0)
(0.067805479 6.4469136e-08 0)
(0.13555173 2.7437034e-07 0)
(0.23000012 8.1898302e-07 0)
(0.35915325 2.0320718e-06 0)
(0.53093422 4.4892292e-06 0)
(0.75054596 9.029585e-06 0)
(1.0159203 1.6488426e-05 0)
(1.3117806 2.6619927e-05 0)
(1.6050346 3.5704002e-05 0)
(1.8466798 3.4523182e-05 0)
(1.9846465 1.488109e-05 0)
(1.9846465 -1.4881801e-05 0)
(1.8466798 -3.4519279e-05 0)
(1.6050346 -3.5694965e-05 0)
(1.3117806 -2.6610302e-05 0)
(1.0159203 -1.648608e-05 0)
(0.75054596 -9.0415537e-06 0)
(0.53093422 -4.5166913e-06 0)
(0.35915325 -2.0679824e-06 0)
(0.23000012 -8.5284962e-07 0)
(0.13555173 -2.9891895e-07 0)
(0.06780548 -7.7761008e-08 0)
(0.019860867 -1.1989216e-08 0)
(0.01986036 8.72664e-09 0)
(0.067803771 6.085589e-08 0)
(0.13554837 2.5896047e-07 0)
(0.22999455 7.7294907e-07 0)
(0.35914485 1.9178152e-06 0)
(0.53092248 4.2369093e-06 0)
(0.75053089 8.5228954e-06 0)
(1.0159032 1.5566783e-05 0)
(1.3117655 2.5144074e-05 0)
(1.605029 3.3753675e-05 0)
(1.846691 3.2709467e-05 0)
(1.9846726 1.4129337e-05 0)
(1.9846726 -1.4129866e-05 0)
(1.846691 -3.2705494e-05 0)
(1.605029 -3.3744855e-05 0)
(1.3117655 -2.5134916e-05 0)
(1.0159032 -1.5564643e-05 0)
(0.75053089 -8.533839e-06 0)
(0.53092248 -4.2614608e-06 0)
(0.35914485 -1.9493805e-06 0)
(0.22999455 -8.0228119e-07 0)
(0.13554837 -2.7995098e-07 0)
(0.067803771 -7.2118164e-08 0)
(0.01986036 -1.1040521e-08 0)
(0.019859881 8.2412944e-09 0)
(0.067802156 5.7464992e-08 0)
(0.13554519 2.4448958e-07 0)
(0.22998928 7.2972679e-07 0)
(0.35913691 1.8105961e-06 0)
(0.53091139 4.0002388e-06 0)
(0.75051664 8.0475154e-06 0)
(1.0158871 1.4700838e-05 0)
(1.3117512 2.3753684e-05 0)
(1.6050236 3.1914984e-05 0)
(1.8467017 3.0968612e-05 0)
(1.9846975 1.3405478e-05 0)
(1.9846975 -1.3405818e-05 0)
(1.8467017 -3.0964679e-05 0)
(1.6050236 -3.1906639e-05 0)
(1.3117512 -2.3745299e-05 0)
(1.0158871 -1.4698999e-05 0)
(0.75051664 -8.0570079e-06 0)
(0.53091139 -4.0208042e-06 0)
(0.35913692 -1.836331e-06 0)
(0.22998928 -7.5306545e-07 0)
(0.13554519 -2.608302e-07 0)
(0.067802157 -6.6092402e-08 0)
(0.019859882 -9.997623e-09 0)
(0.01985943 7.789861e-09 0)
(0.067800634 5.4312141e-08 0)
(0.13554219 2.3102723e-07 0)
(0.22998431 6.8947041e-07 0)
(0.35912943 1.7105681e-06 0)
(0.53090093 3.7790848e-06 0)
(0.7505032 7.6029389e-06 0)
(1.0158719 1.3891278e-05 0)
(1.3117377 2.2454809e-05 0)
(1.6050185 3.0190371e-05 0)
(1.8467117 2.9353619e-05 0)
(1.9847208 1.2728842e-05 0)
(1.9847208 -1.2729e-05 0)
(1.8467117 -2.934987e-05 0)
(1.6050185 -3.0182802e-05 0)
(1.3117377 -2.2447542e-05 0)
(1.0158719 -1.388984e-05 0)
(0.7505032 -7.610499e-06 0)
(0.53090094 -3.794484e-06 0)
(0.35912943 -1.7288673e-06 0)
(0.22998432 -7.0525702e-07 0)
(0.1355422 -2.4156334e-07 0)
(0.067800636 -5.9669089e-08 0)
(0.019859431 -8.8564924e-09 0)
(0.019859002 7.3644738e-09 0)
(0.067799193 5.1334606e-08 0)
(0.13553936 2.1830315e-07 0)
(0.22997961 6.514608e-07 0)
(0.35912234 1.6163196e-06 0)
(0.53089102 3.5711042e-06 0)
(0.75049046 7.1849356e-06 0)
(1.0158574 1.312836e-05 0)
(1.3117249 2.122566e-05 0)
(1.6050136 2.8557104e-05 0)
(1.8467212 2.7789418e-05 0)
(1.9847433 1.2072371e-05 0)
(1.9847434 -1.2072359e-05 0)
(1.8467212 -2.7786002e-05 0)
(1.6050136 -2.8550645e-05 0)
(1.3117249 -2.1219892e-05 0)
(1.0158574 -1.3127432e-05 0)
(0.75049047 -7.1900381e-06 0)
(0.53089103 -3.5800516e-06 0)
(0.35912234 -1.6254304e-06 0)
(0.22997961 -6.5798679e-07 0)
(0.13553936 -2.2176329e-07 0)
(0.067799194 -5.2721733e-08 0)
(0.019859003 -7.5955964e-09 0)
(0.0198586 6.9754011e-09 0)
(0.067797836 4.8615719e-08 0)
(0.13553669 2.0667478e-07 0)
(0.22997518 6.1661453e-07 0)
(0.35911566 1.5294963e-06 0)
(0.5308817 3.3786006e-06 0)
(0.75047849 6.7970948e-06 0)
(1.0158438 1.2421021e-05 0)
(1.3117128 2.008861e-05 0)
(1.6050089 2.7040669e-05 0)
(1.84673 2.6361423e-05 0)
(1.9847642 1.1468286e-05 0)
(1.9847642 -1.1468128e-05 0)
(1.84673 -2.6358522e-05 0)
(1.605009 -2.7035684e-05 0)
(1.3117128 -2.0084742e-05 0)
(1.0158438 -1.2420722e-05 0)
(0.75047849 -6.799248e-06 0)
(0.5308817 -3.3799224e-06 0)