/*--------------------------------*- C++ -*----------------------------------*\
  =========                 |
  \\      /  F ield         | OpenFOAM: The Open Source CFD Toolbox
   \\    /   O peration     | Website:  https://openfoam.org
    \\  /    A nd           | Version:  10
     \\/     M anipulation  |
\*---------------------------------------------------------------------------*/
FoamFile
{
    format      ascii;
    class       volScalarField;
    location    "32.5";
    object      T_0;
}
// * * * * * * * * * * * * * * * * * * * * * * * * * * * * * * * * * * * * * //

dimensions      [0 0 0 1 0 0 0];

internalField   nonuniform List<scalar> 
10000
(
374.983
361.291
356.613
354.563
353.452
352.751
352.264
351.901
351.618
351.388
351.197
351.034
350.892
350.767
350.656
350.555
350.463
350.378
350.3
350.226
350.157
350.092
350.031
349.972
349.916
349.863
349.811
349.762
349.714
349.668
349.624
349.581
349.539
349.498
349.459
349.421
349.383
349.347
349.311
349.277
349.243
349.21
349.178
349.146
349.116
349.086
349.056
349.028
349
348.972
348.946
348.92
348.894
348.869
348.845
348.821
348.798
348.776
348.754
348.733
348.712
348.692
348.672
348.653
348.634
348.616
348.599
348.582
348.565
348.55
348.534
348.52
348.505
348.492
348.478
348.466
348.454
348.442
348.431
348.42
348.41
348.401
348.392
348.383
348.375
348.368
348.361
348.354
348.348
348.343
348.338
348.334
348.33
348.327
348.324
348.321
348.32
348.318
348.318
348.317
388.615
374.862
367.21
362.752
359.946
358.043
356.669
355.625
354.8
354.127
353.564
353.082
352.662
352.291
351.959
351.658
351.383
351.13
350.895
350.676
350.47
350.275
350.091
349.916
349.748
349.588
349.434
349.286
349.144
349.006
348.873
348.744
348.618
348.497
348.378
348.263
348.151
348.042
347.935
347.831
347.73
347.631
347.535
347.44
347.348
347.258
347.17
347.084
347.001
346.919
346.839
346.76
346.684
346.61
346.537
346.466
346.397
346.329
346.264
346.2
346.137
346.077
346.018
345.96
345.905
345.851
345.798
345.748
345.698
345.651
345.605
345.561
345.518
345.477
345.437
345.399
345.363
345.328
345.295
345.263
345.233
345.204
345.177
345.152
345.128
345.105
345.085
345.065
345.048
345.031
345.017
345.004
344.992
344.982
344.974
344.967
344.961
344.957
344.955
344.954
393.232
382.328
374.615
369.287
365.537
362.806
360.743
359.13
357.831
356.757
355.849
355.067
354.383
353.776
353.23
352.735
352.282
351.864
351.476
351.113
350.771
350.449
350.143
349.852
349.574
349.308
349.052
348.806
348.569
348.34
348.118
347.903
347.695
347.492
347.295
347.104
346.917
346.735
346.558
346.385
346.216
346.051
345.891
345.734
345.58
345.43
345.284
345.141
345.001
344.864
344.731
344.601
344.474
344.35
344.229
344.111
343.995
343.883
343.773
343.667
343.563
343.462
343.364
343.268
343.176
343.086
342.998
342.914
342.832
342.753
342.676
342.602
342.531
342.462
342.396
342.333
342.272
342.214
342.159
342.106
342.056
342.008
341.963
341.921
341.881
341.844
341.809
341.777
341.747
341.72
341.696
341.674
341.655
341.638
341.624
341.612
341.603
341.597
341.593
341.592
395.22
386.601
379.634
374.245
370.109
366.901
364.367
362.322
360.637
359.221
358.009
356.956
356.028
355.2
354.453
353.773
353.148
352.571
352.033
351.529
351.056
350.608
350.182
349.777
349.39
349.019
348.663
348.32
347.989
347.669
347.359
347.059
346.768
346.485
346.21
345.942
345.681
345.427
345.179
344.938
344.702
344.471
344.246
344.027
343.812
343.602
343.398
343.198
343.002
342.811
342.625
342.443
342.265
342.091
341.922
341.756
341.595
341.438
341.285
341.136
340.99
340.849
340.712
340.578
340.448
340.322
340.2
340.082
339.967
339.856
339.749
339.646
339.546
339.45
339.358
339.269
339.184
339.103
339.026
338.952
338.881
338.815
338.752
338.692
338.636
338.584
338.536
338.491
338.449
338.412
338.378
338.347
338.32
338.297
338.277
338.261
338.248
338.239
338.234
338.232
396.27
389.222
383.077
377.951
373.753
370.324
367.503
365.156
363.176
361.482
360.012
358.721
357.574
356.544
355.61
354.756
353.969
353.239
352.558
351.919
351.317
350.746
350.204
349.687
349.193
348.719
348.264
347.825
347.401
346.991
346.595
346.21
345.837
345.474
345.121
344.778
344.443
344.117
343.799
343.489
343.186
342.89
342.602
342.32
342.044
341.775
341.512
341.255
341.004
340.759
340.519
340.285
340.057
339.834
339.616
339.404
339.197
338.995
338.798
338.606
338.42
338.238
338.062
337.89
337.723
337.561
337.405
337.252
337.105
336.963
336.825
336.692
336.564
336.441
336.322
336.209
336.099
335.995
335.895
335.8
335.71
335.624
335.543
335.467
335.395
335.328
335.266
335.208
335.155
335.106
335.063
335.023
334.989
334.959
334.933
334.913
334.896
334.885
334.878
334.875
396.909
390.941
385.5
380.728
376.629
373.139
370.167
367.624
365.43
363.519
361.838
360.345
359.006
357.795
356.69
355.675
354.736
353.862
353.044
352.275
351.549
350.86
350.205
349.579
348.98
348.405
347.852
347.318
346.803
346.305
345.823
345.354
344.9
344.458
344.028
343.61
343.202
342.805
342.417
342.038
341.669
341.308
340.956
340.612
340.276
339.948
339.627
339.313
339.007
338.707
338.415
338.129
337.85
337.578
337.313
337.053
336.8
336.554
336.314
336.08
335.852
335.63
335.414
335.205
335.001
334.804
334.612
334.426
334.247
334.073
333.905
333.742
333.586
333.435
333.29
333.151
333.018
332.891
332.769
332.653
332.542
332.438
332.339
332.246
332.158
332.076
332
331.929
331.865
331.805
331.752
331.704
331.662
331.625
331.594
331.569
331.549
331.535
331.526
331.523
397.335
392.131
387.257
382.833
378.898
375.437
372.404
369.744
367.403
365.328
363.479
361.817
360.312
358.941
357.683
356.52
355.44
354.432
353.485
352.592
351.747
350.945
350.179
349.448
348.747
348.073
347.425
346.799
346.194
345.609
345.042
344.491
343.956
343.436
342.93
342.438
341.957
341.489
341.032
340.586
340.151
339.726
339.31
338.904
338.508
338.12
337.742
337.372
337.01
336.657
336.312
335.975
335.646
335.325
335.011
334.705
334.407
334.116
333.832
333.556
333.287
333.025
332.771
332.523
332.283
332.05
331.823
331.604
331.392
331.187
330.988
330.797
330.612
330.434
330.263
330.099
329.942
329.791
329.647
329.51
329.38
329.256
329.139
329.029
328.926
328.829
328.739
328.656
328.579
328.509
328.446
328.39
328.34
328.296
328.26
328.23
328.206
328.19
328.18
328.176
397.637
392.991
388.563
384.449
380.695
377.307
374.269
371.548
369.109
366.916
364.934
363.133
361.489
359.978
358.583
357.287
356.077
354.943
353.876
352.866
351.908
350.996
350.126
349.292
348.492
347.723
346.981
346.265
345.572
344.901
344.251
343.619
343.005
342.408
341.827
341.26
340.708
340.17
339.644
339.131
338.631
338.141
337.663
337.196
336.74
336.294
335.858
335.432
335.016
334.609
334.211
333.823
333.444
333.074
332.713
332.36
332.017
331.681
331.354
331.036
330.726
330.425
330.131
329.846
329.569
329.3
329.039
328.787
328.542
328.305
328.077
327.856
327.643
327.438
327.241
327.052
326.87
326.697
326.531
326.373
326.223
326.08
325.946
325.819
325.7
325.588
325.485
325.389
325.3
325.22
325.147
325.081
325.024
324.974
324.932
324.897
324.87
324.851
324.839
324.836
397.859
393.632
389.557
385.707
382.125
378.83
375.817
373.073
370.573
368.294
366.21
364.297
362.535
360.904
359.387
357.971
356.644
355.394
354.213
353.094
352.029
351.013
350.041
349.109
348.213
347.351
346.518
345.714
344.935
344.181
343.448
342.737
342.045
341.372
340.717
340.078
339.455
338.847
338.254
337.674
337.109
336.556
336.016
335.488
334.972
334.468
333.975
333.493
333.022
332.562
332.113
331.674
331.245
330.826
330.418
330.019
329.63
329.25
328.881
328.521
328.17
327.828
327.496
327.174
326.86
326.556
326.261
325.975
325.698
325.43
325.171
324.921
324.68
324.448
324.225
324.011
323.806
323.609
323.421
323.243
323.073
322.911
322.759
322.615
322.48
322.354
322.237
322.128
322.028
321.937
321.854
321.78
321.715
321.659
321.611
321.572
321.541
321.52
321.506
321.502
398.028
394.123
390.326
386.696
383.271
380.071
377.101
374.354
371.82
369.48
367.318
365.315
363.453
361.718
360.095
358.572
357.137
355.781
354.495
353.272
352.106
350.991
349.923
348.896
347.908
346.956
346.035
345.145
344.283
343.446
342.634
341.845
341.076
340.328
339.6
338.889
338.196
337.52
336.86
336.215
335.585
334.969
334.367
333.779
333.204
332.642
332.093
331.556
331.031
330.518
330.017
329.527
329.049
328.582
328.126
327.681
327.247
326.824
326.412
326.01
325.618
325.238
324.867
324.507
324.157
323.818
323.488
323.169
322.86
322.561
322.272
321.993
321.724
321.465
321.216
320.977
320.748
320.529
320.319
320.12
319.93
319.75
319.58
319.419
319.269
319.128
318.997
318.875
318.764
318.662
318.57
318.487
318.414
318.351
318.298
318.254
318.22
318.196
318.181
318.176
398.158
394.504
390.93
387.483
384.194
381.084
378.162
375.427
372.874
370.493
368.27
366.194
364.25
362.425
360.709
359.089
357.557
356.103
354.72
353.401
352.139
350.931
349.77
348.653
347.576
346.537
345.531
344.558
343.614
342.697
341.807
340.941
340.097
339.276
338.475
337.694
336.932
336.188
335.462
334.752
334.058
333.381
332.718
332.07
331.437
330.818
330.212
329.62
329.042
328.476
327.924
327.384
326.857
326.342
325.839
325.348
324.87
324.403
323.948
323.504
323.073
322.652
322.244
321.846
321.46
321.086
320.722
320.37
320.029
319.699
319.38
319.072
318.776
318.49
318.215
317.951
317.698
317.456
317.225
317.005
316.795
316.597
316.409
316.232
316.065
315.91
315.765
315.631
315.508
315.396
315.294
315.203
315.123
315.053
314.994
314.946
314.908
314.882
314.866
314.86
398.26
394.804
391.409
388.112
384.94
381.912
379.037
376.321
373.76
371.35
369.081
366.945
364.931
363.03
361.231
359.525
357.904
356.361
354.888
353.478
352.127
350.83
349.581
348.378
347.216
346.093
345.005
343.951
342.927
341.933
340.966
340.025
339.108
338.215
337.343
336.493
335.663
334.852
334.06
333.287
332.53
331.791
331.068
330.361
329.67
328.994
328.333
327.687
327.055
326.438
325.834
325.244
324.668
324.106
323.556
323.02
322.497
321.987
321.49
321.005
320.533
320.074
319.627
319.193
318.771
318.361
317.964
317.579
317.206
316.845
316.497
316.16
315.835
315.523
315.222
314.934
314.657
314.393
314.14
313.899
313.67
313.453
313.247
313.054
312.872
312.702
312.544
312.397
312.262
312.139
312.028
311.929
311.841
311.765
311.7
311.648
311.607
311.577
311.56
311.553
398.341
395.042
391.791
388.618
385.544
382.587
379.758
377.062
374.499
372.068
369.764
367.578
365.506
363.537
361.665
359.883
358.182
356.556
354.999
353.505
352.07
350.689
349.357
348.071
346.827
345.623
344.456
343.323
342.223
341.152
340.111
339.097
338.108
337.144
336.203
335.285
334.388
333.512
332.655
331.818
331
330.2
329.417
328.652
327.904
327.172
326.456
325.756
325.071
324.402
323.748
323.109
322.484
321.874
321.279
320.697
320.13
319.577
319.038
318.512
318.001
317.502
317.018
316.547
316.089
315.645
315.214
314.796
314.391
314
313.622
313.257
312.904
312.565
312.239
311.926
311.626
311.339
311.065
310.803
310.555
310.319
310.096
309.886
309.689
309.504
309.332
309.173
309.027
308.894
308.773
308.665
308.57
308.487
308.417
308.36
308.315
308.284
308.264
308.258
398.406
395.233
392.098
389.025
386.033
383.138
380.349
377.672
375.111
372.665
370.331
368.105
365.981
363.954
362.017
360.165
358.391
356.689
355.055
353.483
351.968
350.508
349.096
347.731
346.409
345.128
343.884
342.675
341.5
340.356
339.242
338.156
337.097
336.063
335.055
334.069
333.107
332.166
331.247
330.347
329.468
328.608
327.766
326.943
326.138
325.351
324.58
323.827
323.09
322.37
321.666
320.978
320.305
319.648
319.007
318.381
317.77
317.174
316.593
316.027
315.475
314.939
314.416
313.909
313.416
312.937
312.472
312.022
311.586
311.164
310.756
310.363
309.983
309.618
309.266
308.929
308.605
308.296
308
307.718
307.45
307.196
306.956
306.729
306.517
306.318
306.133
305.961
305.804
305.66
305.53
305.413
305.31
305.221
305.146
305.084
305.036
305.002
304.981
304.974
398.458
395.385
392.343
389.352
386.428
383.584
380.83
378.171
375.613
373.154
370.796
368.534
366.366
364.287
362.292
360.376
358.535
356.764
355.057
353.412
351.823
350.287
348.8
347.36
345.963
344.606
343.288
342.006
340.758
339.543
338.358
337.202
336.075
334.974
333.898
332.847
331.82
330.816
329.834
328.873
327.934
327.015
326.115
325.235
324.374
323.532
322.708
321.901
321.113
320.342
319.588
318.851
318.131
317.428
316.741
316.071
315.416
314.778
314.156
313.549
312.958
312.383
311.824
311.28
310.751
310.238
309.74
309.258
308.791
308.338
307.902
307.48
307.073
306.681
306.304
305.943
305.596
305.264
304.947
304.645
304.358
304.085
303.828
303.585
303.357
303.144
302.945
302.761
302.592
302.438
302.299
302.174
302.064
301.968
301.887
301.821
301.77
301.733
301.711
301.703
398.499
395.507
392.54
389.615
386.746
383.944
381.218
378.574
376.017
373.549
371.169
368.876
366.668
364.542
362.494
360.521
358.618
356.782
355.009
353.294
351.634
350.027
348.469
346.956
345.487
344.059
342.67
341.317
339.999
338.713
337.46
336.236
335.041
333.874
332.733
331.618
330.528
329.461
328.418
327.397
326.398
325.42
324.464
323.527
322.611
321.715
320.837
319.979
319.139
318.318
317.515
316.73
315.963
315.214
314.482
313.767
313.07
312.39
311.726
311.08
310.45
309.837
309.24
308.66
308.097
307.55
307.019
306.504
306.006
305.524
305.058
304.608
304.174
303.756
303.354
302.968
302.599
302.245
301.906
301.584
301.278
300.987
300.712
300.453
300.21
299.983
299.771
299.575
299.394
299.23
299.081
298.948
298.83
298.728
298.642
298.572
298.517
298.477
298.454
298.446
398.531
395.603
392.696
389.824
386.999
384.23
381.527
378.895
376.339
373.86
371.461
369.139
366.895
364.727
362.63
360.604
358.644
356.747
354.911
353.131
351.405
349.73
348.103
346.522
344.984
343.487
342.028
340.607
339.221
337.868
336.547
335.257
333.997
332.765
331.561
330.382
329.23
328.102
326.998
325.918
324.861
323.826
322.813
321.821
320.85
319.9
318.97
318.06
317.17
316.299
315.448
314.615
313.802
313.007
312.23
311.472
310.732
310.01
309.306
308.619
307.951
307.3
306.667
306.051
305.453
304.872
304.308
303.762
303.233
302.721
302.226
301.748
301.287
300.844
300.417
300.007
299.614
299.238
298.879
298.537
298.211
297.902
297.611
297.335
297.077
296.835
296.611
296.402
296.211
296.036
295.878
295.736
295.611
295.503
295.412
295.337
295.278
295.237
295.211
295.203
398.557
395.679
392.819
389.988
387.197
384.455
381.769
379.145
376.587
374.098
371.68
369.332
367.055
364.846
362.705
360.629
358.616
356.663
354.767
352.926
351.137
349.397
347.705
346.058
344.454
342.89
341.365
339.877
338.425
337.007
335.621
334.266
332.942
331.647
330.38
329.14
327.926
326.739
325.576
324.437
323.322
322.231
321.162
320.116
319.091
318.088
317.106
316.146
315.205
314.286
313.386
312.507
311.647
310.807
309.986
309.184
308.402
307.639
306.894
306.169
305.462
304.774
304.104
303.453
302.82
302.206
301.609
301.031
300.472
299.93
299.407
298.901
298.414
297.944
297.493
297.059
296.643
296.246
295.866
295.503
295.159
294.832
294.523
294.232
293.959
293.703
293.465
293.245
293.042
292.857
292.69
292.54
292.408
292.293
292.196
292.117
292.055
292.011
291.985
291.975
398.577
395.738
392.913
390.114
387.349
384.627
381.953
379.333
376.772
374.272
371.835
369.462
367.153
364.907
362.724
360.601
358.538
356.531
354.579
352.68
350.831
349.03
347.276
345.565
343.897
342.269
340.68
339.128
337.612
336.13
334.681
333.263
331.877
330.52
329.192
327.891
326.618
325.371
324.15
322.954
321.783
320.636
319.512
318.412
317.334
316.279
315.246
314.235
313.246
312.278
311.331
310.405
309.499
308.614
307.75
306.905
306.081
305.277
304.493
303.728
302.983
302.258
301.552
300.866
300.199
299.551
298.923
298.314
297.724
297.153
296.601
296.068
295.554
295.059
294.583
294.126
293.687
293.268
292.867
292.485
292.122
291.777
291.452
291.145
290.856
290.587
290.336
290.103
289.889
289.694
289.518
289.36
289.22
289.1
288.997
288.914
288.849
288.802
288.774
288.764
398.592
395.782
392.984
390.209
387.463
384.753
382.087
379.468
376.901
374.388
371.932
369.535
367.195
364.914
362.691
360.524
358.413
356.356
354.351
352.396
350.49
348.631
346.816
345.045
343.316
341.626
339.975
338.361
336.782
335.238
333.728
332.249
330.802
329.384
327.996
326.637
325.305
324.001
322.722
321.47
320.243
319.041
317.864
316.71
315.581
314.474
313.391
312.33
311.292
310.276
309.282
308.31
307.359
306.43
305.522
304.636
303.77
302.926
302.102
301.299
300.516
299.754
299.013
298.291
297.591
296.91
296.25
295.609
294.989
294.389
293.809
293.249
292.709
292.188
291.688
291.207
290.746
290.305
289.884
289.482
289.101
288.739
288.396
288.073
287.77
287.487
287.223
286.978
286.754
286.548
286.363
286.197
286.05
285.923
285.816
285.728
285.659
285.61
285.581
285.571
398.603
395.813
393.035
390.276
387.542
384.841
382.177
379.556
376.981
374.455
371.979
369.557
367.188
364.873
362.611
360.403
358.246
356.14
354.084
352.077
350.116
348.2
346.328
344.499
342.71
340.961
339.25
337.576
335.937
334.333
332.762
331.224
329.717
328.241
326.794
325.377
323.988
322.627
321.292
319.985
318.703
317.448
316.217
315.011
313.83
312.673
311.54
310.43
309.344
308.281
307.241
306.223
305.228
304.255
303.305
302.376
301.47
300.585
299.722
298.881
298.061
297.262
296.485
295.73
294.995
294.282
293.59
292.919
292.269
291.64
291.032
290.445
289.879
289.333
288.808
288.305
287.822
287.359
286.918
286.497
286.096
285.717
285.358
285.019
284.701
284.404
284.127
283.871
283.635
283.42
283.225
283.051
282.898
282.765
282.652
282.56
282.488
282.436
282.406
282.395
398.61
395.834
393.069
390.319
387.593
384.895
382.231
379.604
377.018
374.476
371.981
369.534
367.136
364.788
362.489
360.24
358.04
355.888
353.783
351.724
349.711
347.741
345.814
343.928
342.082
340.275
338.506
336.774
335.076
333.414
331.785
330.188
328.623
327.089
325.586
324.112
322.667
321.25
319.861
318.499
317.164
315.855
314.573
313.315
312.084
310.877
309.694
308.536
307.403
306.293
305.207
304.144
303.105
302.089
301.096
300.127
299.18
298.255
297.354
296.475
295.618
294.784
293.971
293.182
292.414
291.668
290.945
290.243
289.564
288.906
288.271
287.657
287.065
286.494
285.946
285.419
284.914
284.43
283.968
283.528
283.109
282.712
282.337
281.983
281.65
281.339
281.05
280.782
280.536
280.311
280.107
279.925
279.764
279.625
279.507
279.41
279.335
279.282
279.249
279.238
398.614
395.847
393.087
390.343
387.619
384.92
382.251
379.616
377.017
374.459
371.943
369.471
367.044
364.663
362.328
360.04
357.797
355.601
353.449
351.341
349.277
347.255
345.275
343.334
341.433
339.57
337.745
335.956
334.202
332.482
330.796
329.143
327.521
325.931
324.372
322.843
321.342
319.871
318.428
317.013
315.625
314.265
312.931
311.623
310.341
309.085
307.854
306.649
305.468
304.313
303.181
302.075
300.992
299.933
298.899
297.888
296.901
295.938
294.998
294.081
293.188
292.318
291.471
290.648
289.847
289.07
288.315
287.583
286.875
286.189
285.526
284.885
284.268
283.673
283.1
282.551
282.024
281.519
281.037
280.578
280.141
279.727
279.335
278.965
278.619
278.294
277.992
277.712
277.455
277.22
277.008
276.818
276.65
276.505
276.382
276.281
276.203
276.147
276.113
276.101
398.615
395.851
393.093
390.349
387.623
384.92
382.243
379.596
376.984
374.407
371.869
369.372
366.916
364.502
362.132
359.805
357.522
355.282
353.085
350.93
348.817
346.744
344.712
342.719
340.764
338.848
336.967
335.123
333.314
331.539
329.797
328.089
326.412
324.767
323.153
321.569
320.015
318.491
316.995
315.527
314.088
312.676
311.292
309.934
308.603
307.299
306.021
304.768
303.542
302.341
301.165
300.014
298.889
297.788
296.712
295.661
294.635
293.633
292.655
291.701
290.772
289.867
288.986
288.129
287.296
286.487
285.701
284.94
284.202
283.488
282.798
282.131
281.488
280.869
280.273
279.701
279.152
278.627
278.125
277.647
277.192
276.76
276.352
275.968
275.606
275.269
274.954
274.663
274.395
274.15
273.929
273.731
273.557
273.405
273.277
273.172
273.091
273.032
272.997
272.985
398.615
395.848
393.088
390.34
387.608
384.897
382.21
379.55
376.92
374.324
371.763
369.24
366.755
364.309
361.904
359.54
357.217
354.935
352.693
350.492
348.332
346.21
344.128
342.084
340.077
338.108
336.174
334.277
332.413
330.584
328.789
327.026
325.296
323.597
321.93
320.293
318.686
317.109
315.561
314.043
312.552
311.09
309.656
308.25
306.871
305.519
304.194
302.895
301.623
300.377
299.158
297.964
296.796
295.654
294.538
293.447
292.381
291.341
290.325
289.335
288.37
287.431
286.516
285.625
284.76
283.92
283.104
282.313
281.546
280.805
280.088
279.395
278.727
278.083
277.464
276.87
276.299
275.754
275.232
274.735
274.262
273.814
273.39
272.99
272.615
272.264
271.937
271.634
271.356
271.102
270.872
270.666
270.484
270.327
270.194
270.085
270
269.939
269.903
269.89
398.612
395.84
393.074
390.318
387.577
384.855
382.154
379.479
376.831
374.214
371.629
369.079
366.565
364.087
361.648
359.247
356.884
354.561
352.277
350.031
347.824
345.655
343.524
341.43
339.373
337.353
335.368
333.418
331.502
329.62
327.772
325.957
324.174
322.423
320.703
319.014
317.355
315.727
314.129
312.56
311.019
309.508
308.025
306.571
305.144
303.745
302.374
301.03
299.713
298.423
297.16
295.924
294.715
293.532
292.375
291.245
290.14
289.062
288.01
286.984
285.984
285.01
284.061
283.138
282.241
281.37
280.524
279.704
278.909
278.14
277.396
276.678
275.985
275.317
274.675
274.058
273.467
272.901
272.36
271.844
271.354
270.889
270.449
270.034
269.645
269.28
268.941
268.627
268.338
268.075
267.836
267.623
267.434
267.271
267.133
267.02
266.932
266.869
266.831
266.818
398.608
395.827
393.051
390.285
387.532
384.796
382.079
379.386
376.719
374.08
371.47
368.893
366.349
363.839
361.366
358.928
356.527
354.163
351.837
349.548
347.296
345.081
342.902
340.76
338.654
336.583
334.548
332.547
330.58
328.647
326.748
324.881
323.046
321.244
319.473
317.733
316.024
314.345
312.697
311.078
309.489
307.93
306.399
304.897
303.424
301.979
300.562
299.173
297.812
296.479
295.174
293.896
292.645
291.421
290.225
289.056
287.914
286.798
285.71
284.648
283.613
282.605
281.623
280.668
279.739
278.837
277.962
277.113
276.29
275.493
274.723
273.98
273.262
272.571
271.906
271.267
270.655
270.069
269.509
268.975
268.467
267.985
267.529
267.1
266.697
266.319
265.968
265.643
265.344
265.07
264.823
264.602
264.407
264.238
264.095
263.978
263.886
263.821
263.782
263.768
398.602
395.809
393.02
390.241
387.473
384.721
381.988
379.275
376.586
373.924
371.289
368.684
366.11
363.568
361.06
358.587
356.148
353.744
351.377
349.045
346.749
344.488
342.264
340.074
337.92
335.801
333.717
331.666
329.65
327.667
325.717
323.799
321.915
320.062
318.241
316.451
314.692
312.965
311.267
309.6
307.963
306.356
304.778
303.23
301.71
300.22
298.759
297.326
295.921
294.546
293.198
291.879
290.587
289.324
288.089
286.881
285.701
284.549
283.425
282.328
281.259
280.217
279.202
278.215
277.256
276.323
275.418
274.541
273.69
272.867
272.071
271.302
270.56
269.846
269.158
268.498
267.865
267.258
266.679
266.127
265.602
265.104
264.633
264.189
263.771
263.381
263.018
262.682
262.372
262.09
261.834
261.605
261.404
261.229
261.081
260.959
260.865
260.798
260.757
260.743
398.594
395.787
392.983
390.188
387.404
384.634
381.881
379.148
376.436
373.749
371.087
368.454
365.85
363.276
360.734
358.225
355.748
353.306
350.898
348.524
346.185
343.88
341.61
339.375
337.174
335.007
332.875
330.776
328.711
326.679
324.68
322.713
320.779
318.877
317.007
315.169
313.361
311.585
309.84
308.125
306.441
304.787
303.163
301.569
300.004
298.47
296.964
295.488
294.041
292.623
291.234
289.874
288.543
287.24
285.966
284.721
283.504
282.316
281.156
280.024
278.921
277.846
276.799
275.781
274.79
273.828
272.894
271.988
271.111
270.261
269.439
268.645
267.88
267.142
266.432
265.75
265.096
264.471
263.873
263.302
262.76
262.246
261.759
261.301
260.87
260.467
260.092
259.744
259.425
259.133
258.869
258.633
258.425
258.244
258.091
257.966
257.869
257.799
257.757
257.742
398.586
395.762
392.941
390.128
387.325
384.535
381.761
379.005
376.27
373.557
370.868
368.206
365.571
362.965
360.389
357.844
355.331
352.85
350.402
347.987
345.606
343.258
340.944
338.663
336.417
334.204
332.024
329.878
327.765
325.685
323.638
321.623
319.641
317.691
315.773
313.886
312.032
310.208
308.416
306.654
304.924
303.224
301.555
299.916
298.307
296.728
295.179
293.661
292.172
290.712
289.283
287.882
286.512
285.17
283.859
282.576
281.323
280.099
278.904
277.738
276.601
275.493
274.415
273.365
272.345
271.353
270.39
269.456
268.552
267.676
266.828
266.01
265.221
264.46
263.728
263.025
262.351
261.706
261.089
260.501
259.942
259.412
258.91
258.437
257.993
257.577
257.19
256.832
256.503
256.202
255.929
255.686
255.471
255.285
255.127
254.998
254.897
254.826
254.782
254.767
398.577
395.733
392.893
390.06
387.237
384.426
381.63
378.85
376.09
373.35
370.634
367.942
365.276
362.638
360.028
357.448
354.898
352.379
349.891
347.436
345.013
342.622
340.265
337.94
335.649
333.391
331.165
328.973
326.813
324.686
322.592
320.53
318.501
316.504
314.539
312.605
310.704
308.834
306.996
305.188
303.412
301.667
299.953
298.27
296.618
294.996
293.405
291.844
290.314
288.814
287.344
285.904
284.495
283.115
281.766
280.447
279.157
277.898
276.669
275.469
274.299
273.159
272.049
270.969
269.918
268.898
267.907
266.945
266.014
265.112
264.24
263.397
262.585
261.801
261.048
260.324
259.63
258.965
258.33
257.725
257.149
256.602
256.086
255.599
255.141
254.713
254.314
253.945
253.606
253.296
253.016
252.765
252.543
252.351
252.189
252.056
251.953
251.878
251.834
251.818
398.566
395.702
392.842
389.987
387.142
384.308
381.488
378.683
375.897
373.13
370.386
367.664
364.967
362.296
359.652
357.036
354.45
351.893
349.367
346.872
344.408
341.976
339.576
337.208
334.873
332.57
330.299
328.062
325.856
323.684
321.544
319.436
317.36
315.317
313.306
311.326
309.379
307.464
305.58
303.728
301.907
300.118
298.36
296.634
294.938
293.274
291.641
290.039
288.468
286.928
285.419
283.94
282.493
281.076
279.689
278.334
277.009
275.715
274.452
273.219
272.016
270.845
269.704
268.593
267.513
266.464
265.445
264.456
263.498
262.571
261.674
260.807
259.972
259.166
258.391
257.647
256.932
256.249
255.596
254.973
254.38
253.818
253.287
252.786
252.315
251.875
251.465
251.085
250.736
250.417
250.129
249.87
249.643
249.445
249.278
249.141
249.035
248.958
248.913
248.897
398.555
395.669
392.786
389.909
387.04
384.182
381.337
378.507
375.694
372.899
370.125
367.373
364.645
361.941
359.263
356.612
353.99
351.396
348.831
346.297
343.792
341.319
338.878
336.467
334.089
331.742
329.428
327.146
324.896
322.678
320.493
318.34
316.219
314.13
312.074
310.05
308.058
306.097
304.169
302.273
300.409
298.576
296.775
295.006
293.269
291.563
289.889
288.246
286.635
285.056
283.508
281.991
280.506
279.052
277.629
276.238
274.878
273.55
272.253
270.987
269.753
268.55
267.378
266.238
265.129
264.051
263.004
261.989
261.005
260.053
259.131
258.241
257.383
256.555
255.759
254.994
254.26
253.558
252.887
252.247
251.638
251.061
250.514
249.999
249.516
249.063
248.642
248.252
247.893
247.565
247.269
247.003
246.769
246.566
246.395
246.254
246.145
246.066
246.019
246.003
398.544
395.634
392.727
389.826
386.933
384.05
381.178
378.322
375.481
372.658
369.854
367.071
364.311
361.575
358.863
356.177
353.519
350.887
348.285
345.712
343.168
340.654
338.171
335.72
333.299
330.91
328.552
326.226
323.933
321.671
319.441
317.244
315.079
312.946
310.845
308.777
306.74
304.736
302.765
300.825
298.918
297.043
295.2
293.389
291.61
289.863
288.149
286.466
284.816
283.197
281.611
280.057
278.535
277.044
275.586
274.16
272.766
271.404
270.074
268.776
267.51
266.276
265.074
263.904
262.766
261.661
260.587
259.545
258.536
257.558
256.613
255.699
254.818
253.969
253.152
252.367
251.614
250.893
250.204
249.547
248.922
248.33
247.769
247.24
246.744
246.279
245.847
245.446
245.078
244.741
244.437
244.165
243.924
243.716
243.54
243.395
243.283
243.202
243.154
243.137
398.531
395.597
392.665
389.739
386.82
383.911
381.013
378.129
375.26
372.407
369.574
366.76
363.968
361.198
358.453
355.732
353.038
350.37
347.73
345.118
342.535
339.982
337.459
334.966
332.504
330.072
327.672
325.304
322.967
320.662
318.389
316.149
313.94
311.764
309.619
307.508
305.428
303.381
301.367
299.385
297.435
295.518
293.634
291.782
289.962
288.176
286.421
284.7
283.01
281.354
279.73
278.139
276.58
275.054
273.561
272.1
270.672
269.277
267.914
266.584
265.287
264.023
262.791
261.592
260.426
259.293
258.193
257.125
256.09
255.088
254.119
253.183
252.279
251.408
250.571
249.766
248.994
248.254
247.548
246.875
246.234
245.626
245.051
244.509
244
243.523
243.08
242.669
242.291
241.946
241.634
241.355
241.108
240.895
240.714
240.566
240.45
240.368
240.318
240.301
398.519
395.559
392.601
389.649
386.703
383.767
380.842
377.929
375.031
372.149
369.285
366.44
363.616
360.813
358.034
355.279
352.549
349.845
347.167
344.518
341.896
339.304
336.741
334.207
331.704
329.232
326.79
324.38
322.001
319.654
317.338
315.055
312.804
310.585
308.398
306.244
304.122
302.033
299.976
297.953
295.962
294.004
292.078
290.186
288.327
286.5
284.707
282.947
281.22
279.526
277.865
276.237
274.643
273.081
271.554
270.059
268.598
267.17
265.775
264.414
263.086
261.792
260.531
259.303
258.109
256.949
255.822
254.729
253.669
252.643
251.65
250.691
249.766
248.874
248.016
247.192
246.401
245.643
244.92
244.23
243.574
242.951
242.362
241.806
241.285
240.797
240.342
239.921
239.534
239.181
238.861
238.575
238.322
238.103
237.918
237.766
237.648
237.563
237.512
237.495
398.505
395.519
392.535
389.555
386.583
383.619
380.665
377.724
374.797
371.885
368.99
366.113
363.257
360.421
357.608
354.818
352.053
349.313
346.599
343.912
341.252
338.621
336.019
333.446
330.902
328.389
325.907
323.455
321.035
318.646
316.289
313.964
311.67
309.41
307.181
304.985
302.822
300.691
298.594
296.529
294.498
292.499
290.534
288.602
286.704
284.839
283.007
281.209
279.444
277.713
276.016
274.353
272.723
271.127
269.565
268.037
266.543
265.083
263.657
262.265
260.907
259.583
258.293
257.038
255.816
254.629
253.476
252.358
251.273
250.223
249.208
248.226
247.279
246.367
245.489
244.645
243.835
243.06
242.32
241.614
240.942
240.304
239.702
239.133
238.599
238.099
237.634
237.203
236.807
236.445
236.118
235.825
235.566
235.342
235.152
234.997
234.876
234.789
234.737
234.719
398.492
395.478
392.466
389.459
386.459
383.467
380.484
377.514
374.557
371.615
368.689
365.781
362.892
360.023
357.176
354.352
351.551
348.775
346.025
343.301
340.604
337.934