/*--------------------------------*- C++ -*----------------------------------*\
| =========                 |                                                 |
| \\      /  F ield         | OpenFOAM: The Open Source CFD Toolbox           |
|  \\    /   O peration     | Version:  2406                                  |
|   \\  /    A nd           | Website:  www.openfoam.com                      |
|    \\/     M anipulation  |                                                 |
\*---------------------------------------------------------------------------*/
FoamFile
{
    version     2.0;
    format      ascii;
    arch        "LSB;label=32;scalar=64";
    class       volScalarField;
    location    "26";
    object      p;
}
// * * * * * * * * * * * * * * * * * * * * * * * * * * * * * * * * * * * * * //

dimensions      [0 2 -2 0 0 0 0];

internalField   nonuniform List<scalar> 
1176
(
0.79699975
0.79702263
0.79704629
0.79705395
0.79702243
0.79692773
0.7967705
0.79658433
0.79640513
0.79623798
0.79608336
0.79598775
0.79598775
0.79608336
0.796238
0.79640518
0.79658442
0.79677065
0.79692796
0.79702276
0.79705443
0.79704694
0.79702344
0.79700069
0.77385132
0.77380436
0.77375661
0.77373971
0.77380221
0.77400457
0.77436989
0.77483429
0.77526515
0.77555125
0.77567065
0.77570491
0.7757049
0.77567064
0.77555123
0.7752651
0.7748342
0.77436975
0.77400437
0.77380195
0.77373938
0.77375621
0.7738039
0.77385082
0.75676657
0.75678858
0.75680837
0.75680646
0.7567474
0.75658623
0.75631446
0.75598651
0.7556803
0.75546751
0.75535671
0.75530789
0.75530789
0.75535672
0.75546754
0.75568035
0.75598657
0.75631452
0.75658628
0.75674744
0.75680649
0.75680838
0.75678857
0.75676655
0.74009467
0.7401038
0.74011586
0.74013226
0.7401548
0.74017237
0.74014014
0.74000673
0.73977462
0.73950205
0.73927784
0.73915734
0.73915735
0.73927785
0.73950206
0.73977463
0.74000674
0.74014015
0.74017238
0.74015482
0.74013228
0.74011589
0.74010384
0.74009472
0.72367563
0.72367958
0.72368457
0.72369063
0.72370034
0.72372061
0.72375679
0.7237983
0.72381997
0.7237961
0.72373398
0.72368135
0.72368135
0.72373398
0.7237961
0.72381997
0.7237983
0.72375679
0.7237206
0.72370033
0.72369063
0.72368456
0.72367957
0.72367562
0.70721397
0.70721638
0.70721963
0.70722367
0.70722858
0.70723542
0.70724958
0.7072809
0.70733089
0.70738813
0.70743084
0.7074475
0.70744749
0.70743084
0.70738813
0.70733088
0.70728089
0.70724958
0.70723542
0.70722859
0.70722368
0.70721964
0.7072164
0.70721399
0.69080816
0.6908103
0.69081311
0.69081654
0.69082043
0.69082395
0.69082601
0.69082819
0.69083674
0.69085397
0.69087187
0.69088358
0.69088358
0.69087186
0.69085397
0.69083673
0.69082818
0.69082601
0.69082395
0.69082044
0.69081655
0.69081313
0.69081032
0.69080819
0.6744283
0.67443005
0.67443238
0.6744353
0.67443897
0.67444334
0.6744478
0.67445095
0.67445219
0.67445381
0.67445085
0.67444834
0.67444834
0.67445085
0.6744538
0.67445218
0.67445095
0.67444779
0.67444334
0.67443898
0.67443531
0.67443239
0.67443007
0.67442832
0.65807401
0.65807546
0.65807739
0.65807981
0.65808282
0.65808661
0.65809165
0.6580987
0.65810738
0.65811741
0.65812518
0.65812877
0.65812877
0.65812518
0.65811741
0.65810738
0.65809869
0.65809165
0.65808661
0.65808283
0.65807981
0.65807741
0.65807548
0.65807403
0.64173632
0.64173752
0.64173913
0.64174116
0.64174373
0.64174691
0.64175107
0.64175746
0.64176762
0.64178075
0.64179508
0.64180439
0.64180439
0.64179508
0.64178075
0.64176761
0.64175745
0.64175107
0.64174691
0.64174374
0.64174117
0.64173914
0.64173754
0.64173634
0.62541194
0.62541297
0.62541434
0.62541609
0.6254183
0.62542103
0.62542442
0.62542927
0.62543713
0.62544779
0.62546035
0.62546949
0.62546949
0.62546035
0.62544779
0.62543712
0.62542926
0.62542442
0.62542103
0.62541831
0.6254161
0.62541436
0.62541299
0.62541196
0.60909846
0.60909936
0.60910056
0.60910208
0.60910402
0.60910642
0.60910938
0.60911339
0.60911961
0.60912827
0.60913883
0.60914628
0.60914628
0.60913883
0.60912827
0.6091196
0.60911339
0.60910938
0.60910642
0.60910403
0.60910209
0.60910057
0.60909938
0.60909849
0.59279427
0.59279506
0.59279611
0.59279746
0.59279918
0.59280131
0.59280395
0.59280749
0.59281289
0.59282063
0.59283032
0.592837
0.592837
0.59283032
0.59282063
0.59281288
0.59280748
0.59280394
0.59280131
0.59279919
0.59279748
0.59279613
0.59279508
0.5927943
0.57649805
0.57649875
0.57649969
0.57650089
0.57650243
0.57650434
0.57650668
0.57650982
0.57651459
0.57652156
0.57653023
0.57653632
0.57653632
0.57653023
0.57652156
0.57651459
0.57650981
0.57650668
0.57650434
0.57650244
0.57650091
0.57649971
0.57649877
0.57649808
0.56020878
0.56020941
0.56021025
0.56021134
0.56021272
0.56021444
0.56021654
0.5602193
0.56022346
0.56022959
0.56023711
0.56024252
0.56024252
0.56023711
0.56022959
0.56022345
0.56021929
0.56021653
0.56021444
0.56021273
0.56021135
0.56021027
0.56020943
0.56020881
0.54392566
0.54392623
0.54392699
0.54392797
0.54392923
0.54393078
0.54393268
0.54393513
0.54393877
0.54394414
0.54395068
0.54395547
0.54395547
0.54395068
0.54394414
0.54393876
0.54393512
0.54393267
0.54393078
0.54392923
0.54392798
0.54392701
0.54392625
0.54392569
0.52764803
0.52764855
0.52764925
0.52765014
0.52765128
0.5276527
0.52765442
0.52765662
0.52765984
0.5276646
0.52767033
0.52767462
0.52767462
0.52767033
0.5276646
0.52765984
0.52765662
0.52765441
0.5276527
0.52765129
0.52765015
0.52764926
0.52764857
0.52764806
0.51137535
0.51137583
0.51137646
0.51137728
0.51137833
0.51137962
0.51138119
0.51138318
0.51138606
0.51139031
0.51139536
0.51139922
0.51139922
0.51139536
0.5113903
0.51138605
0.51138318
0.51138119
0.51137962
0.51137833
0.51137729
0.51137648
0.51137585
0.51137538
0.49510716
0.49510759
0.49510818
0.49510893
0.49510989
0.49511108
0.49511252
0.49511433
0.4951169
0.49512071
0.49512521
0.4951287
0.4951287
0.49512521
0.49512071
0.4951169
0.49511432
0.49511252
0.49511108
0.4951099
0.49510894
0.4951082
0.49510762
0.49510719
0.47884305
0.47884345
0.47884399
0.47884468
0.47884556
0.47884666
0.47884799
0.47884964
0.47885196
0.47885538
0.47885942
0.47886258
0.47886258
0.47885942
0.47885538
0.47885195
0.47884963
0.47884799
0.47884667
0.47884557
0.47884469
0.478844
0.47884347
0.47884307
0.46258268
0.46258305
0.46258354
0.46258418
0.462585
0.46258602
0.46258724
0.46258875
0.46259086
0.46259396
0.4625976
0.46260047
0.46260047
0.4625976
0.46259395
0.46259085
0.46258875
0.46258724
0.46258602
0.46258501
0.4625842
0.46258356
0.46258307
0.4625827
0.44632574
0.44632609
0.44632655
0.44632714
0.4463279
0.44632885
0.44632998
0.44633137
0.44633328
0.4463361
0.44633941
0.44634203
0.44634203
0.44633941
0.44633609
0.44633328
0.44633136
0.44632997
0.44632885
0.44632791
0.44632715
0.44632656
0.44632611
0.44632577
0.43007198
0.4300723
0.43007273
0.43007328
0.43007399
0.43007486
0.43007591
0.4300772
0.43007895
0.43008152
0.43008455
0.43008694
0.43008694
0.43008455
0.43008151
0.43007894
0.43007719
0.43007591
0.43007486
0.43007399
0.43007329
0.43007274
0.43007231
0.430072
0.41382115
0.41382144
0.41382184
0.41382235
0.41382301
0.41382383
0.41382481
0.413826
0.4138276
0.41382996
0.41383274
0.41383493
0.41383493
0.41383274
0.41382995
0.4138276
0.41382599
0.41382481
0.41382383
0.41382302
0.41382236
0.41382185
0.41382145
0.41382116
0.39757303
0.3975733
0.39757368
0.39757416
0.39757477
0.39757554
0.39757645
0.39757755
0.39757903
0.39758119
0.39758376
0.39758577
0.39758577
0.39758376
0.39758119
0.39757902
0.39757755
0.39757645
0.39757554
0.39757477
0.39757416
0.39757368
0.39757331
0.39757304
0.38132744
0.38132769
0.38132804
0.38132849
0.38132907
0.38132978
0.38133063
0.38133166
0.38133302
0.38133502
0.3813374
0.38133925
0.38133925
0.3813374
0.38133502
0.38133302
0.38133165
0.38133063
0.38132978
0.38132907
0.38132849
0.38132804
0.38132769
0.38132743
0.36508419
0.36508444
0.36508476
0.36508518
0.36508572
0.36508639
0.36508718
0.36508814
0.3650894
0.36509125
0.36509346
0.36509516
0.36509516
0.36509346
0.36509125
0.3650894
0.36508814
0.36508718
0.36508639
0.36508572
0.36508517
0.36508475
0.36508442
0.36508418
0.34884314
0.34884337
0.34884367
0.34884407
0.34884457
0.3488452
0.34884594
0.34884684
0.34884801
0.34884972
0.34885177
0.34885335
0.34885335
0.34885177
0.34884972
0.34884801
0.34884684
0.34884595
0.3488452
0.34884457
0.34884406
0.34884366
0.34884335
0.34884312
0.33260414
0.33260435
0.33260464
0.33260501
0.33260548
0.33260607
0.33260677
0.3326076
0.33260869
0.33261028
0.33261219
0.33261366
0.33261366
0.33261219
0.33261028
0.3326087
0.33260761
0.33260677
0.33260607
0.33260547
0.33260499
0.33260461
0.33260431
0.33260409
0.31636705
0.31636725
0.31636752
0.31636786
0.31636831
0.31636886
0.31636952
0.3163703
0.31637132
0.31637279
0.31637458
0.31637594
0.31637594
0.31637458
0.31637279
0.31637132
0.31637031
0.31636952
0.31636886
0.31636829
0.31636783
0.31636747
0.31636719
0.31636698
0.30013175
0.30013194
0.30013219
0.30013252
0.30013294
0.30013345
0.30013407
0.3001348
0.30013576
0.30013713
0.3001388
0.30014007
0.30014007
0.3001388
0.30013713
0.30013576
0.30013481
0.30013408
0.30013345
0.30013291
0.30013248
0.30013213
0.30013186
0.30013166
0.28389814
0.28389831
0.28389855
0.28389886
0.28389925
0.28389974
0.28390032
0.283901
0.28390189
0.28390317
0.28390474
0.28390592
0.28390592
0.28390474
0.28390318
0.28390191
0.28390102
0.28390033
0.28389973
0.28389922
0.2838988
0.28389847
0.28389821
0.28389802
0.2676661
0.26766626
0.26766649
0.26766677
0.26766714
0.2676676
0.26766815
0.26766879
0.26766963
0.26767082
0.26767229
0.26767339
0.26767339
0.26767229
0.26767083
0.26766965
0.26766881
0.26766816
0.2676676
0.26766711
0.26766671
0.26766639
0.26766613
0.26766595
0.25143554
0.25143569
0.2514359
0.25143618
0.25143652
0.25143696
0.25143747
0.25143808
0.25143886
0.25143998
0.25144135
0.25144238
0.25144238
0.25144135
0.25143999
0.25143888
0.2514381
0.25143749
0.25143695
0.25143648
0.25143609
0.25143578
0.25143554
0.25143536
0.23520637
0.23520652
0.23520672
0.23520697
0.2352073
0.23520771
0.23520819
0.23520876
0.2352095
0.23521055
0.23521184
0.2352128
0.2352128
0.23521184
0.23521056
0.23520953
0.2352088
0.23520821
0.2352077
0.23520725
0.23520687
0.23520657
0.23520633
0.23520615
0.21897852
0.21897865
0.21897884
0.21897908
0.21897939
0.21897978
0.21898023
0.21898077
0.21898146
0.21898244
0.21898365
0.21898455
0.21898455
0.21898365
0.21898246
0.21898149
0.21898081
0.21898025
0.21897976
0.21897933
0.21897896
0.21897867
0.21897843
0.21897826
0.20275189
0.20275202
0.2027522
0.20275242
0.20275272
0.20275308
0.20275351
0.20275402
0.20275467
0.20275559
0.20275673
0.20275758
0.20275757
0.20275673
0.20275561
0.20275471
0.20275406
0.20275354
0.20275306
0.20275264
0.20275228
0.20275199
0.20275176
0.20275159
0.18652643
0.18652655
0.18652672
0.18652693
0.18652721
0.18652755
0.18652796
0.18652844
0.18652905
0.18652991
0.18653097
0.18653176
0.18653176
0.18653098
0.18652993
0.18652909
0.18652849
0.18652799
0.18652753
0.18652713
0.18652677
0.18652648
0.18652625
0.18652608
0.17030206
0.17030218
0.17030233
0.17030254
0.1703028
0.17030312
0.1703035
0.17030395
0.17030453
0.17030534
0.17030635
0.17030709
0.17030709
0.17030636
0.17030537
0.17030458
0.17030402
0.17030354
0.1703031
0.1703027
0.17030235
0.17030207
0.17030184
0.17030167
0.15407873
0.15407884
0.15407899
0.15407918
0.15407942
0.15407973
0.15408009
0.15408052
0.15408106
0.15408181
0.15408275
0.15408344
0.15408344
0.15408276
0.15408185
0.15408112
0.15408059
0.15408013
0.15407971
0.15407932
0.15407897
0.15407869
0.15407846
0.15407829
0.13785636
0.13785647
0.13785661
0.13785679
0.13785702
0.13785731
0.13785765
0.13785805
0.13785856
0.13785927
0.13786016
0.13786081
0.13786081
0.13786017
0.13785931
0.13785863
0.13785813
0.1378577
0.13785728
0.1378569
0.13785656
0.13785627
0.13785604
0.13785587
0.12163493
0.12163503
0.12163516
0.12163533
0.12163556
0.12163583
0.12163615
0.12163653
0.121637
0.12163766
0.12163847
0.12163906
0.12163905
0.12163847
0.1216377
0.12163708
0.12163662
0.1216362
0.1216358
0.12163542
0.12163508
0.12163479
0.12163456
0.12163439
0.10541435
0.10541444
0.10541457
0.10541473
0.10541494
0.1054152
0.1054155
0.10541586
0.1054163
0.10541692
0.10541767
0.10541822
0.10541822
0.10541768
0.10541696
0.10541639
0.10541595
0.10541556
0.10541517
0.10541479
0.10541445
0.10541416
0.10541393
0.10541376
0.089194634
0.089194723
0.089194842
0.089194995
0.089195193
0.089195438
0.089195727
0.08919606
0.089196464
0.089197003
0.089197648
0.089198102
0.089198099
0.089197656
0.089197053
0.089196558
0.089196162
0.089195784
0.089195401
0.089195031
0.089194693
0.089194406
0.089194171
0.089194002
0.072975629
0.072975711
0.072975823
0.072975969
0.072976158
0.072976394
0.072976672
0.072976989
0.072977367
0.072977861
0.072978435
0.072978817
0.072978813
0.072978442
0.072977912
0.072977466
0.072977096
0.072976729
0.072976351
0.072975982
0.072975646
0.072975361
0.07297513
0.072974964
0.056757508
0.056757589
0.056757697
0.056757836
0.056758013
0.056758231
0.056758486
0.056758773
0.056759096
0.056759469
0.056759835
0.056760031
0.056760025
0.056759838
0.05675952
0.056759198
0.056758884
0.056758543
0.056758183
0.056757829
0.056757502
0.056757224
0.056756997
0.056756835
0.040539721
0.040539792
0.04053989
0.040540021
0.040540198
0.040540424
0.040540692
0.040540987
0.040541315
0.04054172
0.040542175
0.040542462
0.040542454
0.040542174
0.040541767
0.040541417
0.040541099
0.040540751
0.040540378
0.040540019
0.040539701
0.040539441
0.040539236
0.040539093
0.024323454
0.024323536
0.024323644
0.024323773
0.024323921
0.024324084
0.02432426
0.024324446
0.024324614
0.02432469
0.02432459
0.024324339
0.024324329
0.024324583
0.024324728
0.024324705
0.024324546
0.024324308
0.024324037
0.024323762
0.024323503
0.024323283
0.024323106
0.024322979
0.0081053603
0.0081054311
0.0081055246
0.008105647
0.0081058091
0.0081060102
0.0081062327
0.008106474
0.0081068534
0.0081076879
0.0081091585
0.0081105131
0.0081105051
0.0081091494
0.0081077069
0.0081069081
0.0081065366
0.0081062615
0.0081059749
0.0081056994
0.0081054676
0.008105291
0.0081051597
0.0081050671
)
;

boundaryField
{
    INLET
    {
        type            zeroGradient;
    }
    OUTLET
    {
        type            fixedValue;
        value           uniform 0;
    }
    WALL
    {
        type            zeroGradient;
    }
    frontAndBackPlanes
    {
        type            empty;
    }
}


// ************************************************************************* //
