/*--------------------------------*- C++ -*----------------------------------*\
| =========                 |                                                 |
| \\      /  F ield         | OpenFOAM: The Open Source CFD Toolbox           |
|  \\    /   O peration     | Version:  2406                                  |
|   \\  /    A nd           | Website:  www.openfoam.com                      |
|    \\/     M anipulation  |                                                 |
\*---------------------------------------------------------------------------*/
FoamFile
{
    version     2.0;
    format      ascii;
    arch        "LSB;label=32;scalar=64";
    class       surfaceScalarField;
    location    "26";
    object      phi;
}
// * * * * * * * * * * * * * * * * * * * * * * * * * * * * * * * * * * * * * //

dimensions      [0 3 -1 0 0 0 0];

oriented        oriented;

internalField   nonuniform List<scalar> 
2279
(
2.3617579e-08
1.0148926e-05
2.0509782e-07
4.982375e-05
6.9331784e-07
0.00014252872
1.5784717e-06
0.00034353082
2.6788478e-06
0.00075378089
3.3472914e-06
0.0015415573
3.0435203e-06
0.0029497096
2.151685e-06
0.005249171
1.4318051e-06
0.008582269
9.895937e-07
0.012685995
5.126689e-07
0.016666385
-5.1592332e-13
0.01918202
-5.1267569e-07
0.01918202
-9.8962199e-07
0.016666385
-1.4318818e-06
0.012685995
-2.1518552e-06
0.0085822692
-3.0438307e-06
0.0052491712
-3.347806e-06
0.0029497098
-2.67963e-06
0.0015415575
-1.5794498e-06
0.00075378105
-6.9429374e-07
0.00034353093
-2.0579209e-07
0.00014252878
-2.3954592e-08
4.9823779e-05
1.0148935e-05
-9.5248476e-08
1.0244175e-05
-5.3794009e-07
5.0266441e-05
-1.6230012e-06
0.00014361378
-3.5389524e-06
0.00034544677
-5.9201864e-06
0.00075616213
-7.405502e-06
0.0015430426
-6.5847263e-06
0.0029488888
-3.9361579e-06
0.0052465224
-1.388386e-06
0.0085797213
-6.511452e-08
0.012684671
2.4241294e-07
0.016666078
7.8473111e-12
0.019182263
-2.42394e-07
0.019182263
6.5143711e-08
0.016666078
1.3884351e-06
0.012684671
3.936246e-06
0.0085797212
6.5848861e-06
0.0052465223
7.4057687e-06
0.0029488887
5.9205687e-06
0.0015430425
3.5393902e-06
0.00075616206
1.6233917e-06
0.00034544674
5.3819399e-07
0.00014361377
9.5359954e-08
5.0266436e-05
1.0244173e-05
5.0139883e-08
1.0194035e-05
2.6334508e-07
5.0053236e-05
7.4910733e-07
0.00014312802
1.5314586e-06
0.00034466442
2.336656e-06
0.00075535693
2.5476626e-06
0.0015428316
1.8390972e-06
0.0029495974
9.7567628e-07
0.0052473859
6.7696057e-07
0.00858002
6.7178921e-07
0.012684677
4.8416683e-07
0.016666266
2.4205303e-12
0.019182747
-4.841637e-07
0.019182747
-6.7179104e-07
0.016666266
-6.7697074e-07
0.012684677
-9.7567285e-07
0.00858002
-1.8390642e-06
0.0052473859
-2.5476037e-06
0.0029495974
-2.3365761e-06
0.0015428317
-1.531367e-06
0.00075535694
-7.4901826e-07
0.00034466442
-2.6328032e-07
0.00014312802
-5.0106293e-08
5.0053234e-05
1.0194035e-05
1.9586911e-08
1.0174448e-05
1.118497e-07
4.9960974e-05
3.6128503e-07
0.00014287858
9.050488e-07
0.00034412066
1.8716612e-06
0.00075439032
3.094825e-06
0.0015416085
3.8987259e-06
0.0029487935
3.7285575e-06
0.005247556
2.9242135e-06
0.0085808243
1.9733779e-06
0.012685627
1.0127731e-06
0.016667226
-2.4107758e-12
0.01918376
-1.0127858e-06
0.01918376
-1.9734084e-06
0.016667226
-2.9242542e-06
0.012685627
-3.7285889e-06
0.0085808243
-3.8987395e-06
0.005247556
-3.0948357e-06
0.0029487935
-1.8716873e-06
0.0015416085
-9.0509412e-07
0.00075439033
-3.6133696e-07
0.00034412067
-1.1188913e-07
0.00014287859
-1.9606603e-08
4.9960975e-05
1.0174449e-05
8.0840568e-09
1.0166364e-05
4.7141767e-08
4.9921916e-05
1.5494743e-07
0.00014277078
3.9846394e-07
0.00034387714
8.7979566e-07
0.00075390899
1.7015176e-06
0.0015407867
2.7512766e-06
0.0029477437
3.4623632e-06
0.0052468449
3.4708645e-06
0.0085808158
2.8006907e-06
0.012686298
1.5505196e-06
0.016668476
2.0002851e-12
0.01918531
-1.55052e-06
0.01918531
-2.8006983e-06
0.016668476
-3.4708702e-06
0.012686298
-3.4623605e-06
0.0085808158
-2.7512722e-06
0.0052468449
-1.7015187e-06
0.0029477437
-8.7980123e-07
0.0015407867
-3.9846947e-07
0.00075390898
-1.5494967e-07
0.00034387714
-4.7142517e-08
0.00014277078
-8.0843204e-09
4.9921916e-05
1.0166364e-05
4.9359664e-09
1.0161429e-05
2.8699085e-08
4.9898153e-05
9.5121846e-08
0.00014270436
2.4921489e-07
0.00034372305
5.6360993e-07
0.00075359459
1.1213753e-06
0.001540229
1.9184576e-06
0.0029469467
2.6588204e-06
0.0052461046
2.8930596e-06
0.0085805816
2.4787686e-06
0.012686712
1.4344295e-06
0.016669521
2.4002307e-12
0.019186745
-1.4344274e-06
0.019186745
-2.4787703e-06
0.016669521
-2.8930614e-06
0.012686712
-2.6588201e-06
0.0085805816
-1.918464e-06
0.0052461046
-1.1213935e-06
0.0029469467
-5.6363758e-07
0.001540229
-2.4924411e-07
0.00075359459
-9.5144343e-08
0.00034372305
-2.8712528e-08
0.00014270436
-4.941584e-09
4.9898153e-05
1.0161429e-05
4.4124474e-09
1.0157016e-05
2.5525885e-08
4.987704e-05
8.3830464e-08
0.00014264605
2.1689455e-07
0.00034358999
4.8450137e-07
0.00075332699
9.5636066e-07
0.0015397571
1.6413729e-06
0.0029462616
2.3245811e-06
0.0052454214
2.5939522e-06
0.0085803122
2.2393629e-06
0.012687066
1.3066745e-06
0.016670453
9.3953709e-13
0.019188051
-1.3066736e-06
0.019188051
-2.2393619e-06
0.016670453
-2.5939489e-06
0.012687066
-2.3245798e-06
0.0085803122
-1.6413815e-06
0.0052454214
-9.563832e-07
0.0029462616
-4.8453508e-07
0.0015397571
-2.1693147e-07
0.00075332699
-8.3861356e-08
0.00034358999
-2.5545758e-08
0.00014264605
-4.4214432e-09
4.987704e-05
1.0157016e-05
3.6255264e-09
1.0153391e-05
2.1036598e-08
4.9859629e-05
6.9438191e-08
0.00014259765
1.8114165e-07
0.00034347828
4.0971451e-07
0.00075309841
8.239038e-07
0.0015393429
1.4539919e-06
0.0029456316
2.1430746e-06
0.0052447323
2.467472e-06
0.0085799878
2.1883925e-06
0.012687346
1.286642e-06
0.016671355
-2.6651978e-13
0.019189338
-1.2866415e-06
0.019189338
-2.1883884e-06
0.016671355
-2.4674646e-06
0.012687346
-2.1430709e-06
0.0085799878
-1.4539981e-06
0.0052447323
-8.2392243e-07
0.0029456316
-4.0974291e-07
0.0015393429
-1.8117315e-07
0.00075309841
-6.9464833e-08
0.00034347828
-2.105397e-08
0.00014259765
-3.6335071e-09
4.9859629e-05
1.0153391e-05
2.982993e-09
1.0150408e-05
1.7346761e-08
4.9845265e-05
5.7377059e-08
0.00014255762
1.5007382e-07
0.00034338559
3.4097137e-07
0.00075290752
6.9193219e-07
0.001538992
1.2441091e-06
0.0029450794
1.9041862e-06
0.0052440722
2.3016006e-06
0.0085795904
2.0975077e-06
0.01268755
1.2520094e-06
0.016672201
-1.1364273e-12
0.01919059
-1.2520096e-06
0.01919059
-2.0975031e-06
0.016672201
-2.3015926e-06
0.01268755
-1.9041818e-06
0.0085795904
-1.2441135e-06
0.0052440722
-6.919484e-07
0.0029450794
-3.4099765e-07
0.001538992
-1.5010394e-07
0.00075290751
-5.740302e-08
0.00034338559
-1.7363887e-08
0.00014255762
-2.9909088e-09
4.9845265e-05
1.0150408e-05
2.4652613e-09
1.0147942e-05
1.4362838e-08
4.9833367e-05
4.7626232e-08
0.00014252436
1.2502875e-07
0.00034330818
2.8558943e-07
0.00075274695
5.8418035e-07
0.0015386934
1.0641856e-06
0.0029445994
1.6641592e-06
0.0052434722
2.0898755e-06
0.0085791647
1.9528946e-06
0.012687687
1.1802435e-06
0.016672973
-1.6080976e-12
0.01919177
-1.1802443e-06
0.01919177
-1.9528901e-06
0.016672973
-2.0898677e-06
0.012687687
-1.6641539e-06
0.0085791647
-1.0641886e-06
0.0052434722
-5.8419577e-07
0.0029445994
-2.856158e-07
0.0015386934
-1.2505959e-07
0.00075274695
-4.7653008e-08
0.00034330818
-1.4380571e-08
0.00014252436
-2.4734732e-09
4.9833367e-05
1.0147942e-05
2.1023624e-09
1.014584e-05
1.2257949e-08
4.9823212e-05
4.0688255e-08
0.00014249593
1.0699053e-07
0.00034324188
2.4507923e-07
0.00075260887
5.038542e-07
0.0015384346
9.2623639e-07
0.002944177
1.4715132e-06
0.005242927
1.89091e-06
0.0085787453
1.8050229e-06
0.012687772
1.1036886e-06
0.016673675
-1.8923466e-12
0.019192874
-1.1036897e-06
0.019192874
-1.8050182e-06
0.016673675
-1.8909016e-06
0.012687772
-1.4715068e-06
0.0085787453
-9.2623885e-07
0.0052429269
-5.0387002e-07
0.002944177
-2.4510676e-07
0.0015384346
-1.070227e-07
0.00075260887
-4.0715982e-08
0.00034324188
-1.2276204e-08
0.00014249593
-2.1107755e-09
4.9823212e-05
1.014584e-05
1.8282456e-09
1.0144011e-05
1.0665576e-08
4.9814375e-05
3.5430546e-08
0.00014247116
9.3283542e-08
0.00034318403
2.1414002e-07
0.00075248801
4.4192875e-07
0.0015382068
8.181151e-07
0.0029438008
1.3163825e-06
0.0052424287
1.7244955e-06
0.0085783372
1.6780429e-06
0.012687819
1.0378028e-06
0.016674315
-2.12865e-12
0.019193912
-1.0378042e-06
0.019193912
-1.6780381e-06
0.016674315
-1.7244864e-06
0.012687819
-1.3163756e-06
0.0085783372
-8.1811763e-07
0.0052424287
-4.4194568e-07
0.0029438008
-2.1416933e-07
0.0015382068
-9.3317509e-08
0.00075248801
-3.5459552e-08
0.00034318403
-1.0684534e-08
0.00014247116
-1.8369317e-09
4.9814374e-05
1.0144011e-05
1.6105537e-09
1.0142401e-05
9.3998479e-09
4.9806585e-05
3.124478e-08
0.00014244932
8.2340998e-08
0.00034313293
1.8932149e-07
0.00075238103
3.9182404e-07
0.0015380043
7.2924281e-07
0.0029434634
1.1851472e-06
0.0052419728
1.5781766e-06
0.0085779442
1.5623391e-06
0.012687835
9.7669601e-07
0.0166749
-2.3301477e-12
0.019194888
-9.7669765e-07
0.019194888
-1.5623342e-06
0.0166749
-1.5781671e-06
0.012687835
-1.18514e-06
0.0085779441
-7.2924577e-07
0.0052419728
-3.9184217e-07
0.0029434634
-1.8935245e-07
0.0015380043
-8.2376564e-08
0.00075238103
-3.1274958e-08
0.00034313293
-9.4194767e-09
0.00014244932
-1.6195144e-09
4.9806585e-05
1.0142401e-05
1.432382e-09
1.0140969e-05
8.3632084e-09
4.9799655e-05
2.7812989e-08
0.00014242987
7.335338e-08
0.00034308739
1.6886957e-07
0.00075228551
3.5026897e-07
0.0015378229
6.5458426e-07
0.0029431591
1.0720607e-06
0.0052415553
1.4464345e-06
0.0085775698
1.4548756e-06
0.012687826
9.1880703e-07
0.016675437
-2.4395268e-12
0.019195807
-9.1880885e-07
0.019195807
-1.4548707e-06
0.016675437
-1.446425e-06
0.012687826
-1.0720536e-06
0.0085775698
-6.5458774e-07
0.0052415553
-3.5028801e-07
0.0029431591
-1.689016e-07
0.0015378229
-7.3389956e-08
0.00075228551
-2.7843932e-08
0.00034308739
-8.3832917e-09
0.00014242987
-1.4415378e-09
4.9799655e-05
1.0140969e-05
1.2850505e-09
1.0139684e-05
7.5052382e-09
4.9793435e-05
2.4969192e-08
0.0001424124
6.5891724e-08
0.00034304647
1.5183889e-07
0.00075219957
3.1548642e-07
0.0015376593
5.9149796e-07
0.0029428831
9.7478843e-07
0.005241172
1.3297056e-06
0.0085772149
1.3567863e-06
0.012687799
8.6524941e-07
0.016675928
-2.4446385e-12
0.019196672
-8.6525126e-07
0.019196672
-1.3567815e-06
0.016675928
-1.3296963e-06
0.012687799
-9.7478162e-07
0.0085772149
-5.9150184e-07
0.005241172
-3.155059e-07
0.0029428831
-1.5187138e-07
0.0015376593
-6.5928727e-08
0.00075219957
-2.500049e-08
0.00034304647
-7.5255523e-09
0.0001424124
-1.2943137e-09
4.9793435e-05
1.0139684e-05
1.1615182e-09
1.0138522e-05
6.7853365e-09
4.9787811e-05
2.2580793e-08
0.00014239661
5.9616036e-08
0.00034300944
1.3748203e-07
0.0007521217
2.8604786e-07
0.0015375107
5.3771251e-07
0.0029426314
8.9070761e-07
0.005240819
1.2263986e-06
0.0085768792
1.2674888e-06
0.012687758
8.1592415e-07
0.01667638
-2.3359428e-12
0.019197488
-8.1592584e-07
0.019197488
-1.267484e-06
0.01667638
-1.2263894e-06
0.012687758
-8.9070097e-07
0.0085768792
-5.3771651e-07
0.005240819
-2.8606738e-07
0.0029426314
-1.3751451e-07
0.0015375107
-5.9653036e-08
0.0007521217
-2.2612128e-08
0.00034300944
-6.8056946e-09
0.00014239661
-1.1708098e-09
4.9787811e-05
1.0138522e-05
1.056175e-09
1.0137466e-05
6.1711149e-09
4.9782696e-05
2.0541703e-08
0.00014238224
5.425282e-08
0.00034297573
1.2519181e-07
0.00075205076
2.6076931e-07
0.0015373751
4.9125335e-07
0.0029424009
8.1722685e-07
0.0052404931
1.1341846e-06
0.0085765622
1.1857899e-06
0.012687707
7.7021235e-07
0.016676795
-2.1084846e-12
0.019198259
-7.7021368e-07
0.019198259
-1.1857848e-06
0.016676795
-1.1341753e-06
0.012687707
-8.1722017e-07
0.0085765622
-4.9125725e-07
0.005240493
-2.6078862e-07
0.0029424009
-1.2522401e-07
0.0015373751
-5.4289558e-08
0.00075205076
-2.0572854e-08
0.00034297573
-6.1913698e-09
0.00014238224
-1.0654255e-09
4.9782696e-05
1.0137466e-05
9.6518347e-10
1.0136501e-05
5.6403267e-09
4.9778021e-05
1.8778677e-08
0.0001423691
4.9612028e-08
0.00034294489
1.1454279e-07
0.00075198583
2.3881243e-07
0.0015372509
4.5070573e-07
0.002942189
7.5248459e-07
0.0052401913
1.0515009e-06
0.0085762632
1.1108309e-06
0.012687647
7.276864e-07
0.016677178
-1.783419e-12
0.019198986
-7.2768713e-07
0.019198986
-1.1108254e-06
0.016677178
-1.0514913e-06
0.012687647
-7.5247767e-07
0.0085762632
-4.5070936e-07
0.0052401913
-2.388314e-07
0.002942189
-1.1457459e-07
0.0015372509
-4.9648337e-08
0.00075198583
-1.8809462e-08
0.00034294489
-5.660339e-09
0.0001423691
-9.7432084e-10
4.9778021e-05
1.0136501e-05
8.8585543e-10
1.0135615e-05
5.1773895e-09
4.9773729e-05
1.7240302e-08
0.00014235704
4.5559751e-08
0.00034291657
1.0523346e-07
0.00075192616
2.1957803e-07
0.0015371365
4.150441e-07
0.0029419936
6.9509105e-07
0.0052399112
9.7709537e-07
0.0085759812
1.0418669e-06
0.012687582
6.8800307e-07
0.016677532
-1.2829162e-12
0.019199674
-6.8800295e-07
0.019199674
-1.0418607e-06
0.016677532
-9.7708529e-07
0.012687582
-6.9508376e-07
0.0085759812
-4.1504742e-07
0.0052399112
-2.1959662e-07
0.0029419936
-1.0526472e-07
0.0015371365
-4.5595417e-08
0.00075192616
-1.7270478e-08
0.00034291657
-5.1969677e-09
0.00014235704
-8.9478044e-10
4.9773729e-05
1.0135615e-05
8.1608729e-10
1.0134799e-05
4.7701247e-09
4.9769776e-05
1.588643e-08
0.00014234592
4.1991438e-08
0.00034289047
9.7028085e-08
0.00075187112
2.025952e-07
0.0015370309
3.8345082e-07
0.0029418127
6.4389768e-07
0.0052396508
9.0984415e-07
0.0085757152
9.7823572e-07
0.012687514
6.5086468e-07
0.01667786
-7.063891e-13
0.019200325
-6.5086351e-07
0.019200325
-9.7822865e-07
0.01667786
-9.0983344e-07
0.012687514
-6.4389001e-07
0.0085757152
-3.8345383e-07
0.0052396508
-2.0261331e-07
0.0029418127
-9.7058553e-08
0.0015370309
-4.2026055e-08
0.00075187112
-1.5915579e-08
0.00034289047
-4.7889581e-09
0.00014234592
-8.2464463e-10
4.9769776e-05
1.0134799e-05
7.5422453e-10
1.0134045e-05
4.408937e-09
4.9766121e-05
1.4685388e-08
0.00014233564
3.8824462e-08
0.00034286633
8.9739837e-08
0.00075182021
1.8748863e-07
0.0015369332
3.552674e-07
0.0029416449
5.979605e-07
0.0052394081
8.4879004e-07
0.0085754644
9.1936687e-07
0.012687443
6.1600934e-07
0.016678163
-8.2087609e-14
0.019200941
-6.1600702e-07
0.019200941
-9.1935886e-07
0.016678163
-8.4877873e-07
0.012687443
-5.9795253e-07
0.0085754644
-3.5527014e-07
0.0052394081
-1.8750605e-07
0.0029416449
-8.976899e-08
0.0015369332
-3.8857322e-08
0.00075182021
-1.4712828e-08
0.00034286633
-4.4265433e-09
0.00014233564
-7.621803e-10
4.9766121e-05
1.0134045e-05
6.9897782e-10
1.0133346e-05
4.0863305e-09
4.9762734e-05
1.3612382e-08
0.00014232612
3.5993992e-08
0.00034284395
8.32216e-08
0.00075177298
1.739612e-07
0.0015368425
3.2996727e-07
0.0029414889
5.5650964e-07
0.0052391815
7.9312262e-07
0.0085752278
8.6476883e-07
0.012687372
5.8323103e-07
0.016678444
5.6687685e-13
0.019201524
-5.8322749e-07
0.019201524
-8.647599e-07
0.016678444
-7.9311084e-07
0.012687372
-5.5650157e-07
0.0085752278
-3.2996975e-07
0.0052391815
-1.7397752e-07
0.0029414889
-8.3248589e-08
0.0015368425
-3.6024003e-08
0.00075177298
-1.3637113e-08
0.00034284395
-4.1020193e-09
0.00014232612
-7.060034e-10
4.9762734e-05
1.0133346e-05
6.4933305e-10
1.0132697e-05
3.7963966e-09
4.9759587e-05
1.2647841e-08
0.00014231727
3.3448769e-08
0.00034282315
7.7356789e-08
0.00075172907
1.6177654e-07
0.001536758
3.0712885e-07
0.0029413436
5.189219e-07
0.0052389697
7.4217503e-07
0.0085750045
8.1401504e-07
0.0126873
5.5234265e-07
0.016678706
1.2160728e-12
0.019202077
-5.5233788e-07
0.019202077
-8.140053e-07
0.016678706
-7.4216303e-07
0.0126873
-5.1891398e-07
0.0085750045
-3.0713104e-07
0.0052389697
-1.6179113e-07
0.0029413436
-7.7380396e-08
0.001536758
-3.3474417e-08
0.00075172907
-1.2668507e-08
0.00034282315
-3.809247e-09
0.00014231727
-6.5499532e-10
4.9759587e-05
1.0132697e-05
6.0447927e-10
1.0132092e-05
3.5344032e-09
4.9756657e-05
1.1776079e-08
0.00014230903
3.1147647e-08
0.00034280378
7.2051641e-08
0.00075168817
1.507439e-07
0.0015366793
2.8640974e-07
0.0029412079
4.8468411e-07
0.0052387715
6.9538325e-07
0.0085747938
7.6674554e-07
0.012687229
5.2320545e-07
0.01667895
1.8876486e-12
0.0192026
-5.2319947e-07
0.0192026
-7.6673516e-07
0.01667895
-6.9537139e-07
0.012687229
-4.8467669e-07
0.0085747938
-2.8641157e-07
0.0052387715
-1.5075592e-07
0.0029412079
-7.2070258e-08
0.0015366793
-3.1166975e-08
0.00075168817
-1.1790949e-08
0.00034280378
-3.5432557e-09
0.00014230903
-6.0823691e-10
4.9756657e-05
1.0132092e-05
5.6376067e-10
1.0131528e-05
3.2965209e-09
4.9753925e-05
1.0984389e-08
0.00014230134
2.9057288e-08
0.0003427857
6.7230098e-08
0.00075165
1.4070826e-07
0.0015366059
2.6753052e-07
0.0029410811
4.5337482e-07
0.0052385856
6.5227839e-07
0.0085745949
7.2263844e-07
0.012687158
4.9567588e-07
0.016679177
2.6151991e-12
0.019203096
-4.9566868e-07
0.019203096
-7.2262764e-07
0.016679177
-6.5226712e-07
0.012687158
-4.5336832e-07
0.0085745949
-2.6753186e-07
0.0052385856
-1.4071661e-07
0.0029410811
-6.7241729e-08
0.0015366059
-2.9067902e-08
0.00075165
-1.0991371e-08
0.00034278571
-3.2999799e-09
0.00014230134
-5.6496563e-10
4.9753925e-05
1.0131529e-05
5.2663993e-10
1.0131002e-05
3.0796122e-09
4.9751372e-05
1.0262363e-08
0.00014229416
2.7150348e-08
0.00034276882
6.2829693e-08
0.00075161432
1.3154194e-07
0.0015365372
2.5025986e-07
0.0029409624
4.2464047e-07
0.0052384112
6.1245632e-07
0.0085744071
6.8142594e-07
0.012687089
4.6966001e-07
0.016679388
3.4117056e-12
0.019203565
-4.6965158e-07
0.019203565
-6.8141501e-07
0.016679388
-6.124462e-07
0.012687089
-4.2463539e-07
0.0085744071
-2.5026055e-07
0.0052384112
-1.3154531e-07
0.0029409624
-6.2831968e-08
0.0015365372
-2.7149435e-08
0.00075161432
-1.025901e-08
0.00034276882
-3.0760581e-09
0.00014229416
-5.2454292e-10
4.9751372e-05
1.0131002e-05
4.9267346e-10
1.0130509e-05
2.8810882e-09
4.9748984e-05
9.6014076e-09
0.00014228744
2.5404263e-08
0.00034275301
5.8798859e-08
0.00075158092
1.2313947e-07
0.0015364728
2.3440635e-07
0.0029408511
3.9818814e-07
0.0052382475
5.7558057e-07
0.0085742297
6.4285591e-07
0.012687022
4.4503651e-07
0.016679586
4.300822e-12
0.01920401
-4.4502683e-07
0.01920401
-6.4284517e-07
0.016679586
-5.7557226e-07
0.012687022
-3.9818503e-07
0.0085742297
-2.3440616e-07
0.0052382475
-1.2313632e-07
0.0029408511
-5.8789061e-08
0.0015364728
-2.5388621e-08
0.00075158093
-9.5849542e-09
0.00034275302
-2.8686958e-09
0.00014228744
-4.864328e-10
4.9748984e-05
1.0130509e-05
4.6148977e-10
1.0130048e-05
2.6987835e-09
4.9746746e-05
8.9943388e-09
0.00014228114
2.3800147e-08
0.00034273821
5.5094379e-08
0.00075154963
1.1541222e-07
0.0015364125
2.1980821e-07
0.0029407467
3.7376647e-07
0.0052380935
5.4135366e-07
0.0085740621
6.0672816e-07
0.012686957
4.217459e-07
0.016679771
5.3112172e-12
0.019204432
-4.217349e-07
0.019204432
-6.0671798e-07
0.016679771
-5.4134788e-07
0.012686957
-3.7376594e-07
0.0085740622
-2.1980688e-07
0.0052380935
-1.1540082e-07
0.0029407467
-5.5069471e-08
0.0015364125
-2.3766229e-08
0.00075154963
-8.9617343e-09
0.00034273821
-2.6755482e-09
0.00014228114
-4.501836e-10
4.9746747e-05
1.0130048e-05
4.3277591e-10
1.0129615e-05
2.5308745e-09
4.9744649e-05
8.4351073e-09
0.00014227524
2.2322114e-08
0.00034272432
5.1679928e-08
0.00075152027
1.0828575e-07
0.0015363559
2.063297e-07
0.0029406487
3.5116542e-07
0.0052379487
5.0952748e-07
0.0085739038
5.7283494e-07
0.012686893
3.9967364e-07
0.016679944
6.4733669e-12
0.019204832
-3.9966124e-07
0.019204832
-5.7282571e-07
0.016679944
-5.0952503e-07
0.012686893
-3.5116813e-07
0.0085739038
-2.0632689e-07
0.0052379487
-1.0826417e-07
0.0029406487
-5.1636603e-08
0.0015363559
-2.2266079e-08
0.00075152027
-8.3830654e-09
0.00034272432
-2.4946439e-09
0.00014227524
-4.1541712e-10
4.9744649e-05
1.0129615e-05
4.0626574e-10
1.0129209e-05
2.3758133e-09
4.9742679e-05
7.918578e-09
0.0001422697
2.0956654e-08
0.00034271129
4.8524531e-08
0.00075149271
1.0169632e-07
0.0015363027
1.9385376e-07
0.0029405565
3.3020039e-07
0.0052378123
4.7987699e-07
0.0085737541
5.4102967e-07
0.012686832
3.7879199e-07
0.016680107
7.8092573e-12
0.01920521
-3.7877806e-07
0.01920521
-5.4102181e-07
0.016680107
-4.7987873e-07
0.012686832
-3.3020703e-07
0.0085737541
-1.9384908e-07
0.0052378123
-1.016625e-07
0.0029405565
-4.8459261e-08
0.0015363027
-2.0874433e-08
0.00075149271
-7.8436308e-09
0.00034271129
-2.3243242e-09
0.0001422697
-3.8181897e-10
4.974268e-05
1.0129209e-05
3.8173076e-10
1.0128828e-05
2.232268e-09
4.9740829e-05
7.4403334e-09
0.00014226449
1.9692174e-08
0.00034269903
4.5601699e-08
0.0007514668
9.5589622e-08
0.0015362527
1.8228095e-07
0.0029404698
3.1071619e-07
0.0052376839
4.5221374e-07
0.0085736126
5.1112913e-07
0.012686773
3.5897974e-07
0.016680259
9.3400484e-12
0.019205569
-3.5896414e-07
0.019205569
-5.111231e-07
0.016680259
-4.5222058e-07
0.012686773
-3.1072745e-07
0.0085736126
-1.8227398e-07
0.0052376839
-9.5541369e-08
0.0029404698
-4.5510794e-08
0.0015362527
-1.9579537e-08
0.0007514668
-7.3388916e-09
0.00034269904
-2.1631847e-09
0.00014226449
-3.4913036e-10
4.9740829e-05
1.0128828e-05
3.5897604e-10
1.0128469e-05
2.0991069e-09
4.9739089e-05
6.9966173e-09
0.00014225959
1.8518768e-08
0.00034268751
4.2888635e-08
0.00075144243
8.991854e-08
0.0015362057
1.7152425e-07
0.0029403882
2.9257383e-07
0.0052375628
4.263649e-07
0.0085734788
4.8303555e-07
0.012686717
3.4024482e-07
0.016680402
1.1078349e-11
0.01920591
-3.4022742e-07
0.01920591
-4.8303185e-07
0.016680402
-4.2637781e-07
0.012686717
-2.9259043e-07
0.0085734788
-1.7151451e-07
0.0052375629
-8.9853596e-08
0.0029403882
-4.2768316e-08
0.0015362057
-1.8371405e-08
0.00075144243
-6.8650372e-09
0.00034268751
-2.0100656e-09
0.00014225959
-3.1714649e-10
4.973909e-05
1.0128469e-05
3.3782857e-10
1.0128131e-05
1.9753183e-09
4.9737452e-05
6.5840751e-09
0.00014225498
1.7427658e-08
0.00034267667
4.0365358e-08
0.00075141949
8.4642172e-08
0.0015361614
1.6150854e-07
0.0029403113
2.7565488e-07
0.0052374487
4.0218134e-07
0.0085733523
4.5657168e-07
0.012686662
3.2244463e-07
0.016680536
1.3030898e-11
0.019206232
-3.224253e-07
0.019206232
-4.5657084e-07
0.016680536
-4.0220132e-07
0.012686662
-2.7567757e-07
0.0085733523
-1.6149557e-07
0.0052374487
-8.4558247e-08
0.0029403113
-4.0211823e-08
0.0015361614
-1.7241249e-08
0.00075141949
-6.4187169e-09
0.00034267667
-1.8639638e-09
0.00014225498
-2.8570135e-10
4.9737453e-05
1.0128131e-05
3.1814439e-10
1.0127813e-05
1.8600734e-09
4.9735911e-05
6.1999542e-09
0.00014225064
1.6411536e-08
0.00034266646
3.801489e-08
0.00075139789
7.9725139e-08
0.0015361197
1.5216812e-07
0.0029402389
2.5985381e-07
0.005237341
3.7953237e-07
0.0085732326
4.316928e-07
0.01268661
3.0563375e-07
0.016680662
1.5173253e-11
0.019206538
-3.0561242e-07
0.019206538
-4.3169541e-07
0.016680662
-3.7956048e-07
0.01268661
-2.5988335e-07
0.0085732326
-1.5215144e-07
0.005237341
-7.9619971e-08
0.0029402389
-3.7824394e-08
0.0015361197
-1.6181844e-08
0.00075139788
-5.9972595e-09
0.00034266646
-1.7241102e-09
0.00014225064
-2.5468212e-10
4.9735911e-05
1.0127814e-05
2.9978521e-10
1.0127514e-05
1.7525566e-09
4.9734458e-05
5.8415541e-09
0.00014224655
1.54634e-08
0.00034265684
3.5821493e-08
0.00075137753
7.5135484e-08
0.0015360804
1.4344405e-07
0.0029401706
2.4507573e-07
0.0052372394
3.5829025e-07
0.0085731194
4.0820523e-07
0.01268656
2.8962881e-07
0.01668078
1.749073e-11
0.019206827
-2.8960542e-07
0.019206827
-4.0821195e-07
0.01668078
-3.5832761e-07
0.01268656
-2.4511292e-07
0.0085731194
-1.4342324e-07
0.0052372394
-7.5006883e-08
0.0029401706
-3.5590417e-08
0.0015360804
-1.5186347e-08
0.00075137753
-5.5981146e-09
0.00034265684
-1.5897946e-09
0.00014224656
-2.2400377e-10
4.9734459e-05
1.0127514e-05
2.8264992e-10
1.0127232e-05
1.6522007e-09
4.9733089e-05
5.5069872e-09
0.0001422427
1.4578125e-08
0.00034264777
3.3772888e-08
0.00075135833
7.0847027e-08
0.0015360433
1.3528755e-07
0.0029401061
2.3124368e-07
0.0052371434
3.3836688e-07
0.0085730123
3.8613348e-07
0.012686512
2.7455112e-07
0.016680892
1.9916934e-11
0.019207102
-2.7452577e-07
0.019207102
-3.8614506e-07
0.016680892
-3.3841466e-07
0.012686512
-2.3128934e-07
0.0085730123
-1.352622e-07
0.0052371435
-7.0692903e-08
0.0029401061
-3.3497773e-08
0.0015360433
-1.424981e-08
0.00075135833
-5.2195458e-09
0.00034264777
-1.4605498e-09
0.0001422427
-1.93616e-10
4.973309e-05
1.0127232e-05
2.6661603e-10
1.0126965e-05
1.5582661e-09
4.9731798e-05
5.1938105e-09
0.00014223906
1.3749527e-08
0.00034263921
3.1855648e-08
0.00075134023
6.6833201e-08
0.0015360083
1.2764923e-07
0.0029400453
2.1827369e-07
0.0052370528
3.1963425e-07
0.0085729109
3.6523512e-07
0.012686467
2.601483e-07
0.016680997
2.2410535e-11
0.019207362
-2.6012113e-07
0.019207362
-3.6525238e-07
0.016680997
-3.1969366e-07
0.012686467
-2.1832868e-07
0.008572911
-1.2761902e-07
0.0052370528
-6.6651655e-08
0.0029400453
-3.1533358e-08
0.0015360083
-1.3366447e-08
0.00075134022
-4.8594839e-09
0.00034263921
-1.3358973e-09
0.00014223907
-1.635299e-10
4.9731798e-05
1.0126966e-05
2.5163203e-10
1.0126714e-05
1.4705019e-09
4.9730579e-05
4.9011762e-09
0.00014223563
1.297498e-08
0.00034263113
3.0062493e-08
0.00075132314
6.3076968e-08
0.0015359753
1.2049732e-07
0.0029399879
2.0612137e-07
0.0052369672
3.0206265e-07
0.008572815
3.4563887e-07
0.012686423
2.4664222e-07
0.016681096
2.4876297e-11
0.019207609
-2.4661355e-07
0.019207609
-3.4566273e-07
0.016681096
-3.0213495e-07
0.012686423
-2.0618651e-07
0.0085728151
-1.2046196e-07
0.0052369672
-6.2866256e-08
0.0029399879
-2.9690165e-08
0.0015359753
-1.2533954e-08
0.00075132313
-4.5173814e-09
0.00034263113
-1.2157954e-09
0.00014223563
-1.3381245e-10
4.973058e-05
1.0126714e-05
2.3756244e-10
1.0126477e-05
1.3880533e-09
4.9729429e-05
4.6262785e-09
0.0001422324
1.2247714e-08
0.00034262351
2.8379785e-08
0.000751307
5.9553042e-08
0.0015359442
1.1378424e-07
0.0029399337
1.9469635e-07
0.0052368863
2.8548912e-07
0.0085727242
3.2700204e-07
0.012686382
2.3366903e-07
0.016681189
2.7294817e-11
0.019207842
-2.3363925e-07
0.019207842
-3.2703348e-07
0.016681189
-2.8557556e-07
0.012686382
-1.9477249e-07
0.0085727243
-1.1374348e-07
0.0052368863
-5.931157e-08
0.0029399337
-2.7954786e-08
0.0015359441
-1.1745798e-08
0.000751307
-4.1905902e-09
0.00034262351
-1.0994741e-09
0.0001422324
-1.043504e-10
4.972943e-05
1.0126477e-05
2.244466e-10
1.0126253e-05
1.3112629e-09
4.9728342e-05
4.3702013e-09
0.00014222934
1.1569559e-08
0.00034261631
2.680851e-08
0.00075129176
5.6258287e-08
0.0015359147
1.0750384e-07
0.0029398824
1.840077e-07
0.0052368098
2.699876e-07
0.0085726382
3.0962565e-07
0.012686342
2.2160698e-07
0.016681277
2.9562268e-11
0.019208064
-2.2157666e-07
0.019208064
-3.0966573e-07
0.016681277
-2.700894e-07
0.012686342
-1.8409561e-07
0.0085726383
-1.0745754e-07
0.0052368098
-5.5984929e-08
0.0029398824
-2.6329165e-08
0.0015359147
-1.100512e-08
0.00075129176
-3.8813161e-09
0.00034261631
-9.8800643e-10
0.00014222934
-7.5360508e-11
4.9728343e-05
1.0126253e-05
2.120638e-10
1.0126041e-05
1.2386788e-09
4.9727316e-05
4.1282221e-09
0.00014222645
1.0929723e-08
0.00034260951
2.5328982e-08
0.00075127736
5.3160086e-08
0.0015358869
1.0159534e-07
0.002939834
1.7392542e-07
0.0052367374
2.5529591e-07
0.0085725569
2.9298356e-07
0.012686304
2.0991815e-07
0.01668136
3.1647324e-11
0.019208274
-2.0988783e-07
0.019208274
-2.930332e-07
0.01668136
-2.5541412e-07
0.012686304
-1.7402573e-07
0.008572557
-1.0154338e-07
0.0052367375
-5.2854039e-08
0.002939834
-2.4794234e-08
0.0015358869
-1.0301887e-08
0.00075127735
-3.5856668e-09
0.00034260951
-8.8057661e-10
0.00014222645
-4.7075455e-11
4.9727317e-05
1.0126042e-05
2.0069411e-10
1.0125841e-05
1.172201e-09
4.9726344e-05
3.9064432e-09
0.00014222371
1.0341408e-08
0.00034260307
2.3962578e-08
0.00075126374
5.0287674e-08
0.0015358605
9.6109015e-08
0.0029397882
1.6457278e-07
0.005236669
2.4169842e-07
0.0085724798
2.7767851e-07
0.012686268
1.992318e-07
0.016681439
3.347602e-11
0.019208473
-1.9920215e-07
0.019208473
-2.7773859e-07
0.016681439
-2.4183382e-07
0.012686269
-1.646859e-07
0.0085724798
-9.6051284e-08
0.005236669
-4.9948352e-08
0.0029397882
-2.3371458e-08
0.0015358605
-9.6490447e-09
0.00075126373
-3.3091816e-09
0.00034260307
-7.7857713e-10
0.00014222371
-1.949887e-11
4.9726345e-05
1.0125841e-05
1.8973361e-10
1.0125652e-05
1.1079033e-09
4.9725426e-05
3.6922702e-09
0.00014222112
9.7765284e-09
0.00034259698
2.2660595e-08
0.00075125085
4.7567702e-08
0.0015358356
9.0921504e-08
0.0029397448
1.5569676e-07
0.0052366042
2.2870753e-07
0.0085724068
2.6287777e-07
0.012686234
1.8875438e-07
0.016681513
3.5061816e-11
0.019208662
-1.8872601e-07
0.019208662
-2.6294897e-07
0.016681513
-2.2886032e-07
0.012686234
-1.5582237e-07
0.0085724069
-9.0857677e-08
0.0052366043
-4.7195462e-08
0.0029397448
-2.2014695e-08
0.0015358356
-9.0224546e-09
0.00075125084
-3.0435546e-09
0.00034259698
-6.8130114e-10
0.00014222113
6.3616122e-12
4.9725427e-05
1.0125652e-05
1.8031839e-10
1.0125472e-05
1.0530386e-09
4.9724553e-05
3.5087615e-09
0.00014221867
9.2862115e-09
0.0003425912
2.1510939e-08
0.00075123862
4.5129476e-08
0.001535812
8.6238847e-08
0.0029397037
1.4769545e-07
0.0052365428
2.170557e-07
0.0085723374
2.4973323e-07
0.012686202
1.7953686e-07
0.016681583
3.6743109e-11
0.019208841
-1.7950993e-07
0.019208841
-2.4981597e-07
0.016681583
-2.1722524e-07
0.012686202
-1.478313e-07
0.0085723375
-8.6166605e-08
0.0052365428
-4.4724379e-08
0.0029397037
-2.081429e-08
0.001535812
-8.4781003e-09
0.00075123861
-2.8174333e-09
0.0003425912
-6.0036528e-10
0.00014221867
2.7116655e-11
4.9724554e-05
1.0125472e-05
1.691582e-10
1.0125303e-05
9.8787127e-10
4.9723734e-05
3.2946882e-09
0.00014221636
8.7353317e-09
0.00034258576
2.0281814e-08
0.00075122707
4.2646715e-08
0.0015357896
8.1624529e-08
0.0029396647
1.399115e-07
0.0052364845
2.0572039e-07
0.0085722716
2.3678916e-07
0.012686171
1.7036352e-07
0.01668165
3.9057976e-11
0.019209011
-1.7033753e-07
0.019209011
-2.3688403e-07
0.01668165
-2.0590632e-07
0.012686171
-1.4005438e-07
0.0085722717
-8.153993e-08
0.0052364845
-4.2208909e-08
0.0029396647
-1.9541396e-08
0.0015357896
-7.8858975e-09
0.00075122706
-2.5745875e-09
0.00034258576
-5.1966922e-10
0.00014221636
4.4277593e-11
4.9723734e-05
1.0125303e-05
1.6428519e-10
1.0125139e-05
9.5969633e-10
4.9722937e-05
3.1948808e-09
0.00014221412