/*--------------------------------*- C++ -*----------------------------------*\
| =========                 |                                                 |
| \\      /  F ield         | OpenFOAM: The Open Source CFD Toolbox           |
|  \\    /   O peration     | Version:  2406                                  |
|   \\  /    A nd           | Website:  www.openfoam.com                      |
|    \\/     M anipulation  |                                                 |
\*---------------------------------------------------------------------------*/
FoamFile
{
    version     2.0;
    format      ascii;
    arch        "LSB;label=32;scalar=64";
    class       volVectorField;
    location    "26";
    object      U;
}
// * * * * * * * * * * * * * * * * * * * * * * * * * * * * * * * * * * * * * //

dimensions      [0 1 -1 0 0 0 0];

internalField   nonuniform List<vector> 
1176
(
(0.019493789 7.0786621e-07 0)
(0.066677318 8.1696689e-06 0)
(0.13357994 3.9503182e-05 0)
(0.22724701 0.00010873577 0)
(0.35591522 0.00021176027 0)
(0.52772023 0.00030396286 0)
(0.74780387 0.0003181802 0)
(1.0136216 0.00024904592 0)
(1.3093323 0.00016667003 0)
(1.6017081 0.00011264689 0)
(1.8421723 7.0214174e-05 0)
(1.9793239 2.3940759e-05 0)
(1.9793239 -2.3941137e-05 0)
(1.8421723 -7.021581e-05 0)
(1.6017081 -0.00011265172 0)
(1.3093323 -0.00016668139 0)
(1.0136216 -0.00024906829 0)
(0.7478039 -0.00031821978 0)
(0.52772028 -0.00030402794 0)
(0.35591527 -0.00021185204 0)
(0.22724705 -0.00010883642 0)
(0.13357998 -3.9588206e-05 0)
(0.066677344 -8.2179611e-06 0)
(0.019493799 -7.1845503e-07 0)
(0.020187017 -3.7419182e-06 0)
(0.068813532 -2.463864e-05 0)
(0.13732107 -9.6548555e-05 0)
(0.23247391 -0.00024839461 0)
(0.36204617 -0.00047268781 0)
(0.53373557 -0.00067421182 0)
(0.75267407 -0.00069486939 0)
(1.0170176 -0.00049687359 0)
(1.3116385 -0.00023345902 0)
(1.6034438 -4.9824148e-05 0)
(1.8436588 1.9765147e-05 0)
(1.9807026 1.3428394e-05 0)
(1.9807026 -1.3426609e-05 0)
(1.8436588 -1.9762568e-05 0)
(1.6034438 4.9828251e-05 0)
(1.3116385 0.00023346553 0)
(1.0170176 0.00049688493 0)
(0.75267407 0.00069488986 0)
(0.53373557 0.00067424476 0)
(0.36204619 0.00047273075 0)
(0.23247394 0.00024843704 0)
(0.1373211 9.6580626e-05 0)
(0.068813552 2.4655498e-05 0)
(0.020187025 3.7452514e-06 0)
(0.020018442 2.0918383e-06 0)
(0.068327405 1.272078e-05 0)
(0.13655405 4.687727e-05 0)
(0.23159544 0.0001138974 0)
(0.36138709 0.00019769271 0)
(0.53366969 0.0002390324 0)
(0.75344344 0.0002055982 0)
(1.0184881 0.00011361119 0)
(1.3134639 7.4313628e-05 0)
(1.6053464 7.9532933e-05 0)
(1.8455118 7.0516599e-05 0)
(1.9825245 2.7825739e-05 0)
(1.9825245 -2.7825515e-05 0)
(1.8455118 -7.0516568e-05 0)
(1.6053464 -7.953338e-05 0)
(1.3134639 -7.431385e-05 0)
(1.0184881 -0.00011360945 0)
(0.75344343 -0.00020559284 0)
(0.53366967 -0.00023902536 0)
(0.36138707 -0.00019768417 0)
(0.23159542 -0.00011388832 0)
(0.13655403 -4.6869428e-05 0)
(0.068327395 -1.2716102e-05 0)
(0.020018438 -2.0907364e-06 0)
(0.019966547 7.0077099e-07 0)
(0.068159232 4.6870778e-06 0)
(0.13624021 1.9355501e-05 0)
(0.2311194 5.6456257e-05 0)
(0.36078093 0.00013444577 0)
(0.53306293 0.00025829328 0)
(0.75295637 0.00035344751 0)
(1.0181104 0.00036912014 0)
(1.313184 0.00030758889 0)
(1.6051633 0.00022777262 0)
(1.8453995 0.0001455597 0)
(1.9824491 4.9997306e-05 0)
(1.9824491 -4.9997914e-05 0)
(1.8453995 -0.00014556154 0)
(1.6051633 -0.00022777618 0)
(1.313184 -0.00030759267 0)
(1.0181104 -0.00036912235 0)
(0.75295637 -0.00035344889 0)
(0.53306293 -0.0002582951 0)
(0.36078093 -0.00013444946 0)
(0.2311194 -5.6461334e-05 0)
(0.13624021 -1.9360191e-05 0)
(0.068159233 -4.6898643e-06 0)
(0.019966548 -7.0138521e-07 0)
(0.019942203 2.9077314e-07 0)
(0.068078703 1.9872251e-06 0)
(0.13608628 8.2361615e-06 0)
(0.23087699 2.3699394e-05 0)
(0.36044744 5.6881715e-05 0)
(0.53266448 0.00012306894 0)
(0.75256878 0.00022681823 0)
(1.017808 0.00032272224 0)
(1.3129044 0.0003457247 0)
(1.604912 0.00030730002 0)
(1.8452029 0.00021095353 0)
(1.9822898 7.46149e-05 0)
(1.9822898 -7.4614601e-05 0)
(1.8452029 -0.00021095385 0)
(1.604912 -0.00030730087 0)
(1.3129044 -0.00034572497 0)
(1.017808 -0.00032272169 0)
(0.75256878 -0.00022681833 0)
(0.53266449 -0.00012306938 0)
(0.36044744 -5.688229e-05 0)
(0.23087699 -2.3699761e-05 0)
(0.13608628 -8.2362557e-06 0)
(0.068078703 -1.9872762e-06 0)
(0.019942204 -2.9078679e-07 0)
(0.019933132 1.718184e-07 0)
(0.068047755 1.1940924e-06 0)
(0.13602489 5.0652314e-06 0)
(0.23077535 1.4968909e-05 0)
(0.36029899 3.6219598e-05 0)
(0.5324792 7.6944275e-05 0)
(0.75239427 0.00014713769 0)
(1.0177222 0.00023749021 0)
(1.3129292 0.00028525591 0)
(1.6049746 0.000274415 0)
(1.8452865 0.00019644649 0)
(1.9823834 7.1177322e-05 0)
(1.9823834 -7.1176923e-05 0)
(1.8452865 -0.00019644644 0)
(1.6049746 -0.00027441523 0)
(1.3129292 -0.0002852561 0)
(1.0177222 -0.00023749039 0)
(0.75239427 -0.00014713899 0)
(0.5324792 -7.6946733e-05 0)
(0.36029898 -3.6222574e-05 0)
(0.23077535 -1.497151e-05 0)
(0.13602488 -5.0669522e-06 0)
(0.068047755 -1.1949715e-06 0)
(0.019933131 -1.71988e-07 0)
(0.0199234 1.5587878e-07 0)
(0.068015507 1.0700907e-06 0)
(0.13596286 4.493493e-06 0)
(0.23067607 1.3195502e-05 0)
(0.36015773 3.1857161e-05 0)
(0.53230178 6.6958234e-05 0)
(0.75221429 0.00012411882 0)
(1.0176105 0.00019917039 0)
(1.3129358 0.00025490832 0)
(1.6050904 0.0002459517 0)
(1.8454579 0.0001812791 0)
(1.9825798 6.6548696e-05 0)
(1.9825798 -6.6548512e-05 0)
(1.8454579 -0.000181279 0)
(1.6050904 -0.00024595155 0)
(1.3129358 -0.00025490813 0)
(1.0176105 -0.00019917076 0)
(0.75221429 -0.00012412042 0)
(0.53230178 -6.696117e-05 0)
(0.36015773 -3.1860829e-05 0)
(0.23067607 -1.3198932e-05 0)
(0.13596286 -4.4959857e-06 0)
(0.068015507 -1.0714365e-06 0)
(0.0199234 -1.5615676e-07 0)
(0.019915697 1.2758608e-07 0)
(0.067989793 8.7801686e-07 0)
(0.13591293 3.6960038e-06 0)
(0.23059503 1.0901615e-05 0)
(0.36003987 2.6613361e-05 0)
(0.53214753 5.7237112e-05 0)
(0.75204133 0.00010911043 0)
(1.0174723 0.00017936618 0)
(1.3128926 0.00023802468 0)
(1.6051414 0.00023746749 0)
(1.8455877 0.00017750679 0)
(1.9827514 6.5539436e-05 0)
(1.9827514 -6.5539433e-05 0)
(1.8455877 -0.00017750662 0)
(1.6051414 -0.00023746694 0)
(1.3128926 -0.00023802412 0)
(1.0174723 -0.00017936632 0)
(0.75204133 -0.00010911172 0)
(0.53214753 -5.723958e-05 0)
(0.36003987 -2.661648e-05 0)
(0.23059503 -1.0904559e-05 0)
(0.13591293 -3.6981675e-06 0)
(0.067989793 -8.7920192e-07 0)
(0.019915697 -1.2783357e-07 0)
(0.019909217 1.0465402e-07 0)
(0.067968141 7.2311851e-07 0)
(0.13587084 3.0520782e-06 0)
(0.23052654 9.0118164e-06 0)
(0.35993984 2.1999885e-05 0)
(0.53201542 4.7473454e-05 0)
(0.75188901 9.2014068e-05 0)
(1.0173341 0.00015618187 0)
(1.3128278 0.00021699675 0)
(1.6051595 0.00022709626 0)
(1.8456699 0.00017232629 0)
(1.982868 6.4147637e-05 0)
(1.982868 -6.4147771e-05 0)
(1.8456699 -0.00017232612 0)
(1.6051595 -0.00022709566 0)
(1.3128278 -0.00021699612 0)
(1.0173341 -0.00015618188 0)
(0.75188901 -9.2015132e-05 0)
(0.53201542 -4.7475695e-05 0)
(0.35993984 -2.2002834e-05 0)
(0.23052654 -9.0146656e-06 0)
(0.13587084 -3.0542003e-06 0)
(0.067968141 -7.2429017e-07 0)
(0.019909217 -1.0489928e-07 0)
(0.019903971 8.6121964e-08 0)
(0.067950553 5.9694169e-07 0)
(0.13583649 2.5273492e-06 0)
(0.2304703 7.4916041e-06 0)
(0.35985692 1.8376327e-05 0)
(0.53190436 3.9835757e-05 0)
(0.75175837 7.771225e-05 0)
(1.0172122 0.00013432446 0)
(1.3127613 0.00019323381 0)
(1.6051772 0.00021058355 0)
(1.8457533 0.00016272971 0)
(1.9829863 6.1084146e-05 0)
(1.9829863 -6.1084357e-05 0)
(1.8457533 -0.00016272957 0)
(1.6051772 -0.00021058296 0)
(1.3127613 -0.00019323316 0)
(1.0172122 -0.00013432435 0)
(0.75175836 -7.7713203e-05 0)
(0.53190436 -3.983797e-05 0)
(0.35985692 -1.8379326e-05 0)
(0.2304703 -7.4945354e-06 0)
(0.13583649 -2.5295422e-06 0)
(0.067950553 -5.9815603e-07 0)
(0.019903971 -8.6376436e-08 0)
(0.019899543 7.3354309e-08 0)
(0.067935688 5.0895217e-07 0)
(0.13580742 2.1568796e-06 0)
(0.23042259 6.4027803e-06 0)
(0.35978626 1.5747652e-05 0)
(0.5318089 3.4277932e-05 0)
(0.75164409 6.7204752e-05 0)
(1.0171021 0.00011723012 0)
(1.3126976 0.00017262483 0)
(1.6051928 0.00019308918 0)
(1.8458371 0.00015219866 0)
(1.9831061 5.7544653e-05 0)
(1.9831061 -5.7544915e-05 0)
(1.8458371 -0.00015219852 0)
(1.6051928 -0.00019308855 0)
(1.3126976 -0.00017262411 0)
(1.0171021 -0.00011722993 0)
(0.75164409 -6.72057e-05 0)
(0.5318089 -3.4280236e-05 0)
(0.35978626 -1.5750784e-05 0)
(0.23042259 -6.4058262e-06 0)
(0.13580742 -2.1591409e-06 0)
(0.067935688 -5.101998e-07 0)
(0.019899543 -7.3614867e-08 0)
(0.019895721 6.3727668e-08 0)
(0.06792285 4.4252494e-07 0)
(0.13578228 1.8767523e-06 0)
(0.23038125 5.5765699e-06 0)
(0.35972483 1.3738765e-05 0)
(0.53172535 2.9998131e-05 0)
(0.75154264 5.9111722e-05 0)
(1.0170011 0.00010388839 0)
(1.3126345 0.00015540301 0)
(1.6052015 0.00017849541 0)
(1.8459125 0.00014271552 0)
(1.9832185 5.4330438e-05 0)
(1.9832185 -5.4330742e-05 0)
(1.8459125 -0.00014271538 0)
(1.6052015 -0.00017849474 0)
(1.3126344 -0.00015540222 0)
(1.0170011 -0.00010388816 0)
(0.75154264 -5.9112735e-05 0)
(0.53172535 -3.0000591e-05 0)
(0.35972483 -1.3742083e-05 0)
(0.23038125 -5.5797692e-06 0)
(0.13578228 -1.879107e-06 0)
(0.06792285 -4.4381732e-07 0)
(0.019895721 -6.3996479e-08 0)
(0.019892371 5.6092134e-08 0)
(0.067911587 3.8978857e-07 0)
(0.13576021 1.6541505e-06 0)
(0.2303449 4.9188178e-06 0)
(0.35967069 1.2132098e-05 0)
(0.53165136 2.6542557e-05 0)
(0.7514519 5.2498924e-05 0)
(1.0169086 9.2875869e-05 0)
(1.3125728 0.00014061507 0)
(1.605205 0.00016529629 0)
(1.8459798 0.00013398922 0)
(1.9833221 5.1387244e-05 0)
(1.9833221 -5.1387583e-05 0)
(1.8459798 -0.00013398909 0)
(1.605205 -0.00016529559 0)
(1.3125728 -0.00014061425 0)
(1.0169086 -9.2875656e-05 0)
(0.7514519 -5.2500022e-05 0)
(0.53165136 -2.6545167e-05 0)
(0.35967069 -1.2135584e-05 0)
(0.2303449 -4.9221552e-06 0)
(0.13576021 -1.6565934e-06 0)
(0.067911586 -3.9112449e-07 0)
(0.019892371 -5.6369369e-08 0)
(0.019889403 4.985098e-08 0)
(0.067901607 3.4662795e-07 0)
(0.13574064 1.471789e-06 0)
(0.23031264 4.3794395e-06 0)
(0.35962253 1.0812389e-05 0)
(0.53158531 2.3691513e-05 0)
(0.75137029 4.6984266e-05 0)
(1.016824 8.354645e-05 0)
(1.3125139 0.00012773761 0)
(1.6052051 0.00015293355 0)
(1.8460415 0.00012582029 0)
(1.9834196 4.8616275e-05 0)
(1.9834196 -4.8616633e-05 0)
(1.8460415 -0.00012582016 0)
(1.6052051 -0.00015293285 0)
(1.3125139 -0.0001277368 0)
(1.016824 -8.3546268e-05 0)
(0.75137029 -4.6985435e-05 0)
(0.53158531 -2.3694224e-05 0)
(0.35962253 -1.0815982e-05 0)
(0.23031264 -4.3828652e-06 0)
(0.13574064 -1.4742911e-06 0)
(0.067901607 -3.4799396e-07 0)
(0.019889403 -5.0134256e-08 0)
(0.019886752 4.4700125e-08 0)
(0.067892685 3.10951e-07 0)
(0.13572313 1.3208374e-06 0)
(0.23028375 3.9322498e-06 0)
(0.35957935 9.7159539e-06 0)
(0.53152592 2.1315693e-05 0)
(0.75129648 4.2360383e-05 0)
(1.0167465 7.5620035e-05 0)
(1.3124581 0.00011654248 0)
(1.6052027 0.00014169877 0)
(1.8460982 0.0001182709 0)
(1.9835117 4.6031332e-05 0)
(1.9835117 -4.6031688e-05 0)
(1.8460982 -0.00011827078 0)
(1.6052027 -0.0001416981 0)
(1.3124581 -0.00011654169 0)
(1.0167465 -7.5619886e-05 0)
(0.75129648 -4.2361594e-05 0)
(0.53152592 -2.1318449e-05 0)
(0.35957935 -9.7195913e-06 0)
(0.23028375 -3.9357148e-06 0)
(0.13572313 -1.3233687e-06 0)
(0.067892685 -3.1233281e-07 0)
(0.019886752 -4.4986758e-08 0)
(0.019884362 4.0387056e-08 0)
(0.067884644 2.8104417e-07 0)
(0.13570735 1.194172e-06 0)
(0.23025769 3.5565289e-06 0)
(0.35954035 8.792971e-06 0)
(0.53147216 1.9310142e-05 0)
(0.75122934 3.8440301e-05 0)
(1.0166753 6.8839101e-05 0)
(1.3124053 0.00010678368 0)
(1.6051983 0.00013155233 0)
(1.8461504 0.00011132789 0)
(1.9835985 4.3630919e-05 0)
(1.9835985 -4.3631252e-05 0)
(1.8461504 -0.00011132777 0)
(1.6051983 -0.00013155167 0)
(1.3124053 -0.00010678291 0)
(1.0166753 -6.8838966e-05 0)
(0.75122934 -3.8441519e-05 0)
(0.53147216 -1.9312898e-05 0)
(0.35954035 -8.7966072e-06 0)
(0.23025769 -3.5599958e-06 0)
(0.13570735 -1.1967082e-06 0)
(0.067884644 -2.8242951e-07 0)
(0.019884362 -4.0674607e-08 0)
(0.019882195 3.6711943e-08 0)
(0.067877349 2.555433e-07 0)
(0.13569303 1.0860959e-06 0)
(0.23023403 3.2356761e-06 0)
(0.3595049 8.0036693e-06 0)
(0.5314232 1.7591056e-05 0)
(0.75116797 3.5067383e-05 0)
(1.0166096 6.296432e-05 0)
(1.3123553 9.8203365e-05 0)
(1.6051923 0.00012233367 0)
(1.8461982 0.00010491304 0)
(1.9836803 4.1390243e-05 0)
(1.9836803 -4.1390531e-05 0)
(1.8461982 -0.00010491288 0)
(1.6051923 -0.000122333 0)
(1.3123553 -9.8202592e-05 0)
(1.0166096 -6.2964177e-05 0)
(0.75116797 -3.5068583e-05 0)
(0.5314232 -1.7593786e-05 0)
(0.3595049 -8.0072778e-06 0)
(0.23023403 -3.2391208e-06 0)
(0.13569303 -1.0886185e-06 0)
(0.067877349 -2.5692204e-07 0)
(0.019882195 -3.6998257e-08 0)
(0.019880219 3.3539554e-08 0)
(0.067870696 2.3351734e-07 0)
(0.13567996 9.9269464e-07 0)
(0.23021243 2.9582081e-06 0)
(0.35947252 7.3203945e-06 0)
(0.53137842 1.6100279e-05 0)
(0.75111164 3.213318e-05 0)
(1.0165488 5.7823588e-05 0)
(1.3123082 9.0602645e-05 0)
(1.6051852 0.00011395348 0)
(1.8462423 9.8955865e-05 0)
(1.9837576 3.9288759e-05 0)
(1.9837576 -3.9288978e-05 0)
(1.8462423 -9.8955659e-05 0)
(1.6051852 -0.00011395278 0)
(1.3123082 -9.0601845e-05 0)
(1.0165488 -5.782342e-05 0)
(0.75111164 -3.2134351e-05 0)
(0.53137842 -1.6102971e-05 0)
(0.35947252 -7.32396e-06 0)
(0.23021243 -2.9616127e-06 0)
(0.13567996 -9.9518732e-07 0)
(0.067870696 -2.3487947e-07 0)
(0.019880219 -3.3822393e-08 0)
(0.019878409 3.0775519e-08 0)
(0.0678646 2.1431584e-07 0)
(0.13566798 9.1122916e-07 0)
(0.23019263 2.7160531e-06 0)
(0.35944282 6.7235418e-06 0)
(0.53133728 1.4796174e-05 0)
(0.75105977 2.9559883e-05 0)
(1.0164925 5.3292757e-05 0)
(1.3122638 8.3831778e-05 0)
(1.6051772 0.00010632414 0)
(1.846283 9.3403155e-05 0)
(1.9838307 3.7312261e-05 0)
(1.9838307 -3.7312393e-05 0)
(1.846283 -9.3402875e-05 0)
(1.6051772 -0.00010632337 0)
(1.3122638 -8.3830933e-05 0)
(1.0164925 -5.3292554e-05 0)
(0.75105977 -2.9561019e-05 0)
(0.53133728 -1.4798819e-05 0)
(0.35944282 -6.727046e-06 0)
(0.23019263 -2.7193936e-06 0)
(0.13566798 -9.1366965e-07 0)
(0.0678646 -2.1564757e-07 0)
(0.019878409 -3.1051804e-08 0)
(0.019876745 2.8345824e-08 0)
(0.067858993 1.9742966e-07 0)
(0.13565697 8.3955873e-07 0)
(0.23017441 2.5029084e-06 0)
(0.35941547 6.1977851e-06 0)
(0.53129936 1.3645983e-05 0)
(0.75101183 2.7285535e-05 0)
(1.0164401 4.9271978e-05 0)
(1.3122219 7.7767945e-05 0)
(1.6051688 9.9356257e-05 0)
(1.8463207 8.8213514e-05 0)
(1.9838998 3.5449373e-05 0)
(1.9838998 -3.5449404e-05 0)
(1.8463207 -8.821314e-05 0)
(1.6051688 -9.9355417e-05 0)
(1.3122219 -7.776705e-05 0)
(1.0164401 -4.9271742e-05 0)
(0.75101183 -2.7286632e-05 0)
(0.53129936 -1.3648561e-05 0)
(0.35941547 -6.2011921e-06 0)
(0.23017441 -2.506142e-06 0)
(0.13565697 -8.419103e-07 0)
(0.067858993 -1.9870898e-07 0)
(0.019876745 -2.8610742e-08 0)
(0.019875209 2.6192328e-08 0)
(0.067853818 1.8245811e-07 0)
(0.1356468 7.7599589e-07 0)
(0.23015758 2.3138012e-06 0)
(0.3593902 5.7310231e-06 0)
(0.5312643 1.2623773e-05 0)
(0.75096742 2.5260602e-05 0)
(1.0163914 4.5679834e-05 0)
(1.3121824 7.2308348e-05 0)
(1.6051599 9.2973564e-05 0)
(1.8463555 8.3350328e-05 0)
(1.9839652 3.368944e-05 0)
(1.9839652 -3.3689357e-05 0)
(1.8463555 -8.334985e-05 0)
(1.6051599 -9.2972648e-05 0)
(1.3121824 -7.2307407e-05 0)
(1.0163914 -4.567957e-05 0)
(0.75096742 -2.5261651e-05 0)
(0.5312643 -1.2626245e-05 0)
(0.3593902 -5.7342675e-06 0)
(0.23015758 -2.3168562e-06 0)
(0.1356468 -7.7820063e-07 0)
(0.067853818 -1.8365131e-07 0)
(0.019875209 -2.6438635e-08 0)
(0.019873787 2.4269828e-08 0)
(0.067849027 1.6908884e-07 0)
(0.13563738 7.1922196e-07 0)
(0.230142 2.1448365e-06 0)
(0.35936679 5.3137527e-06 0)
(0.53123178 1.1709119e-05 0)
(0.75092616 2.3445859e-05 0)
(1.016346 4.2450869e-05 0)
(1.3121452 6.736795e-05 0)
(1.6051509 8.710778e-05 0)
(1.8463878 7.8785256e-05 0)
(1.9840271 3.2023883e-05 0)
(1.9840271 -3.2023679e-05 0)
(1.8463878 -7.8784671e-05 0)
(1.6051509 -8.7106794e-05 0)
(1.3121452 -6.7366979e-05 0)
(1.016346 -4.2450587e-05 0)
(0.75092616 -2.3446838e-05 0)
(0.53123178 -1.1711416e-05 0)
(0.35936679 -5.3167318e-06 0)
(0.230142 -2.1476057e-06 0)
(0.13563738 -7.2119605e-07 0)
(0.067849027 -1.7014804e-07 0)
(0.019873787 -2.4487348e-08 0)
(0.019872467 2.2542808e-08 0)
(0.067844581 1.5707602e-07 0)
(0.13562864 6.6819722e-07 0)
(0.23012754 1.9929381e-06 0)
(0.35934505 4.9384524e-06 0)
(0.53120156 1.0885813e-05 0)
(0.75088776 2.1810082e-05 0)
(1.0163035 3.9532563e-05 0)
(1.31211 6.2876882e-05 0)
(1.6051418 8.1702399e-05 0)
(1.8464178 7.4492063e-05 0)
(1.9840857 3.0444556e-05 0)
(1.9840857 -3.0444226e-05 0)
(1.8464178 -7.4491375e-05 0)
(1.6051418 -8.170136e-05 0)
(1.31211 -6.2875906e-05 0)
(1.0163035 -3.9532275e-05 0)
(0.75088776 -2.1810958e-05 0)
(0.53120156 -1.0887837e-05 0)
(0.35934505 -4.9410218e-06 0)
(0.23012754 -1.9952746e-06 0)
(0.13562864 -6.6982811e-07 0)
(0.067844581 -1.5793771e-07 0)
(0.019872467 -2.2718136e-08 0)
(0.01987124 2.0982888e-08 0)
(0.067840446 1.4622298e-07 0)
(0.13562051 6.220889e-07 0)
(0.23011408 1.855639e-06 0)
(0.35932481 4.5990793e-06 0)
(0.53117342 1.0140796e-05 0)
(0.75085195 2.0328019e-05 0)
(1.0162638 3.6882221e-05 0)
(1.3120768 5.8777429e-05 0)
(1.6051327 7.6707146e-05 0)
(1.8464458 7.0451631e-05 0)
(1.9841412 2.8945415e-05 0)
(1.9841412 -2.8944956e-05 0)
(1.8464458 -7.0450849e-05 0)
(1.6051327 -7.6706077e-05 0)
(1.3120768 -5.8776482e-05 0)
(1.0162638 -3.688194e-05 0)
(0.75085195 -2.0328742e-05 0)
(0.53117342 -1.0142415e-05 0)
(0.35932481 -4.6010513e-06 0)
(0.23011408 -1.8573547e-06 0)
(0.13562051 -6.2323419e-07 0)
(0.067840446 -1.4680745e-07 0)
(0.01987124 -2.1099271e-08 0)
(0.019870096 1.9567126e-08 0)
(0.067836592 1.3637062e-07 0)
(0.13561293 5.8022289e-07 0)
(0.23010153 1.7309414e-06 0)
(0.35930594 4.2907363e-06 0)
(0.53114716 9.4634697e-06 0)
(0.75081849 1.8979111e-05 0)
(1.0162266 3.4464855e-05 0)
(1.3120455 5.5021461e-05 0)
(1.6051237 7.2081232e-05 0)
(1.8464718 6.6643189e-05 0)
(1.9841938 2.752003e-05 0)
(1.9841938 -2.7519436e-05 0)
(1.8464718 -6.6642324e-05 0)
(1.6051237 -7.2080166e-05 0)
(1.3120455 -5.5020585e-05 0)
(1.0162266 -3.4464595e-05 0)
(0.75081849 -1.8979619e-05 0)
(0.53114716 -9.4645194e-06 0)
(0.35930594 -4.2918797e-06 0)
(0.23010153 -1.7318076e-06 0)
(0.13561293 -5.807107e-07 0)
(0.067836592 -1.3658216e-07 0)
(0.019870096 -1.9604511e-08 0)
(0.019869029 1.8276741e-08 0)
(0.067832994 1.2738867e-07 0)
(0.13560586 5.4204707e-07 0)
(0.23008981 1.6172078e-06 0)
(0.35928831 4.009404e-06 0)
(0.53112262 8.8451191e-06 0)
(0.75078719 1.7746412e-05 0)
(1.0161917 3.2251523e-05 0)
(1.312016 5.1568781e-05 0)
(1.6051149 6.7786818e-05 0)
(1.846496 6.3053515e-05 0)
(1.9842437 2.6164369e-05 0)
(1.9842437 -2.6163634e-05 0)
(1.846496 -6.305258e-05 0)
(1.6051149 -6.7785795e-05 0)
(1.312016 -5.1568025e-05 0)
(1.0161917 -3.2251301e-05 0)
(0.75078719 -1.7746626e-05 0)
(0.53112262 -8.8454023e-06 0)
(0.35928832 -4.0094465e-06 0)
(0.23008981 -1.6169566e-06 0)
(0.13560586 -5.4167741e-07 0)
(0.067832995 -1.2711639e-07 0)
(0.019869029 -1.8211944e-08 0)
(0.019868031 1.7096234e-08 0)
(0.067829631 1.1916959e-07 0)
(0.13559924 5.0710572e-07 0)
(0.23007886 1.5130868e-06 0)
(0.35927183 3.7517661e-06 0)
(0.53109966 8.2785516e-06 0)
(0.75075787 1.661591e-05 0)
(1.0161589 3.0218139e-05 0)
(1.311988 4.838536e-05 0)
(1.6051063 6.3794295e-05 0)
(1.8465187 5.9664417e-05 0)
(1.9842909 2.4873076e-05 0)
(1.9842909 -2.4872189e-05 0)
(1.8465187 -5.9663424e-05 0)
(1.6051063 -6.3793359e-05 0)
(1.311988 -4.8384783e-05 0)
(1.0161589 -3.0217972e-05 0)
(0.75075788 -1.661574e-05 0)
(0.53109966 -8.2778417e-06 0)
(0.35927183 -3.7503967e-06 0)
(0.23007886 -1.5114145e-06 0)
(0.13559924 -5.0565284e-07 0)
(0.067829631 -1.182887e-07 0)
(0.019868031 -1.6903214e-08 0)
(0.019867097 1.6012635e-08 0)
(0.067826482 1.1162345e-07 0)
(0.13559305 4.7501795e-07 0)
(0.2300686 1.4174481e-06 0)
(0.35925639 3.5150442e-06 0)
(0.53107814 7.7577271e-06 0)
(0.75073038 1.5575815e-05 0)
(1.0161281 2.8344449e-05 0)
(1.3119617 4.5442546e-05 0)
(1.6050979 6.007415e-05 0)
(1.8465398 5.6467452e-05 0)
(1.9843356 2.3643837e-05 0)
(1.9843356 -2.3642782e-05 0)
(1.8465398 -5.6466413e-05 0)
(1.6050979 -6.0073352e-05 0)
(1.3119617 -4.5442212e-05 0)
(1.0161281 -2.8344352e-05 0)
(0.75073038 -1.5575156e-05 0)
(0.53107814 -7.7557701e-06 0)
(0.35925639 -3.5119174e-06 0)
(0.2300686 -1.4140193e-06 0)
(0.13559305 -4.7223346e-07 0)
(0.067826482 -1.0999706e-07 0)
(0.019867097 -1.5662869e-08 0)
(0.019866221 1.5015021e-08 0)
(0.067823531 1.0467446e-07 0)
(0.13558724 4.4546282e-07 0)
(0.23005898 1.3293402e-06 0)
(0.35924191 3.2969032e-06 0)
(0.53105796 7.2775767e-06 0)
(0.75070457 1.4616221e-05 0)
(1.0160992 2.6613264e-05 0)
(1.3119367 4.27155e-05 0)
(1.6050897 5.6604715e-05 0)
(1.8465596 5.3445047e-05 0)
(1.984378 2.2471675e-05 0)
(1.984378 -2.2470433e-05 0)
(1.8465596 -5.3443974e-05 0)
(1.6050897 -5.660411e-05 0)
(1.3119367 -4.2715479e-05 0)
(1.0160992 -2.6613255e-05 0)
(0.75070457 -1.4614956e-05 0)
(0.53105796 -7.2740949e-06 0)
(0.35924191 -3.2916442e-06 0)
(0.23005898 -1.3237927e-06 0)
(0.13558724 -4.4107965e-07 0)
(0.067823531 -1.0215577e-07 0)
(0.019866221 -1.4477967e-08 0)
(0.0198654 1.4094107e-08 0)
(0.067820761 9.8258315e-08 0)
(0.1355818 4.1816822e-07 0)
(0.23004995 1.2479552e-06 0)
(0.35922832 3.0953536e-06 0)
(0.53103901 6.8337628e-06 0)
(0.75068032 1.3728634e-05 0)
(1.0160719 2.5009953e-05 0)
(1.3119132 4.018333e-05 0)
(1.6050818 5.336206e-05 0)
(1.8465781 5.0593389e-05 0)
(1.9844182 2.135584e-05 0)
(1.9844182 -2.1354387e-05 0)
(1.8465781 -5.0592295e-05 0)
(1.6050818 -5.3361709e-05 0)
(1.3119132 -4.0183697e-05 0)
(1.0160719 -2.5010046e-05 0)
(0.75068032 -1.3726636e-05 0)
(0.53103901 -6.8284586e-06 0)
(0.35922832 -3.087564e-06 0)
(0.23004996 -1.2399062e-06 0)
(0.1355818 -4.119051e-07 0)
(0.067820762 -9.4693115e-08 0)
(0.0198654 -1.3337731e-08 0)
(0.019864628 1.3241924e-08 0)
(0.067818161 9.2319639e-08 0)
(0.13557668 3.9289968e-07 0)
(0.23004148 1.1725985e-06 0)
(0.35921555 2.9086926e-06 0)
(0.5310212 6.4225917e-06 0)
(0.75065752 1.2905815e-05 0)
(1.0160463 2.352181e-05 0)
(1.3118909 3.7827217e-05 0)
(1.6050743 5.0330363e-05 0)
(1.8465955 4.7893741e-05 0)
(1.9844563 2.0291023e-05 0)
(1.9844563 -2.0289333e-05 0)
(1.8465955 -4.7892639e-05 0)
(1.6050743 -5.0330327e-05 0)
(1.3118909 -3.7828049e-05 0)
(1.0160463 -2.3522019e-05 0)
(0.75065752 -1.2902947e-05 0)
(0.5310212 -6.4151532e-06 0)
(0.35921555 -2.8979578e-06 0)
(0.23004148 -1.1616511e-06 0)
(0.13557668 -3.8446597e-07 0)
(0.067818161 -8.7548961e-08 0)
(0.019864628 -1.2233256e-08 0)
(0.019863903 1.2451677e-08 0)
(0.067815716 8.681145e-08 0)
(0.13557187 3.6945842e-07 0)
(0.23003351 1.1026787e-06 0)
(0.35920355 2.7354581e-06 0)
(0.53100445 6.0408604e-06 0)
(0.75063606 1.2141473e-05 0)
(1.0160221 2.2138028e-05 0)
(1.3118699 3.5631776e-05 0)
(1.6050669 4.748958e-05 0)
(1.8466118 4.534762e-05 0)
(1.9844924 1.9278183e-05 0)
(1.9844924 -1.9276226e-05 0)
(1.8466118 -4.5346524e-05 0)
(1.6050669 -4.7489928e-05 0)
(1.3118699 -3.5633155e-05 0)
(1.0160221 -2.2138367e-05 0)
(0.75063606 -1.2137596e-05 0)
(0.53100445 -6.0309672e-06 0)
(0.35920355 -2.7213545e-06 0)
(0.23003351 -1.0884293e-06 0)
(0.13557187 -3.5855962e-07 0)
(0.067815717 -8.0674586e-08 0)
(0.019863903 -1.1157447e-08 0)
(0.019863221 1.1717334e-08 0)
(0.067813416 8.169165e-08 0)
(0.13556735 3.4766608e-07 0)
(0.23002601 1.0376687e-06 0)
(0.35919225 2.5743643e-06 0)
(0.53098868 5.6857912e-06 0)
(0.75061585 1.1430151e-05 0)
(1.0159993 2.0848858e-05 0)
(1.31185 3.3582051e-05 0)
(1.6050599 4.4828185e-05 0)
(1.8466272 4.2933117e-05 0)
(1.9845266 1.8310889e-05 0)
(1.9845266 -1.8308636e-05 0)
(1.8466272 -4.2932044e-05 0)
(1.6050599 -4.4828989e-05 0)
(1.31185 -3.3584062e-05 0)
(1.0159993 -2.0849341e-05 0)
(0.75061585 -1.1425121e-05 0)
(0.53098868 -5.6731205e-06 0)
(0.35919225 -2.556467e-06 0)
(0.23002601 -1.0197137e-06 0)
(0.13556735 -3.340084e-07 0)
(0.067813417 -7.4028643e-08 0)
(0.019863221 -1.0104497e-08 0)
(0.019862579 1.1033884e-08 0)
(0.067811252 7.6925872e-08 0)
(0.13556309 3.2737759e-07 0)
(0.23001895 9.7713441e-07 0)
(0.35918162 2.4243264e-06 0)
(0.53097384 5.3549817e-06 0)
(0.75059681 1.0767117e-05 0)
(1.0159778 1.9646283e-05 0)
(1.3118312 3.1666964e-05 0)
(1.6050532 4.2329197e-05 0)
(1.8466415 4.0658653e-05 0)
(1.984559 1.7392321e-05 0)
(1.984559 -1.7389749e-05 0)
(1.8466415 -4.0657625e-05 0)
(1.6050532 -4.2330533e-05 0)
(1.3118312 -3.1669695e-05 0)
(1.0159778 -1.9646925e-05 0)
(0.75059681 -1.0760793e-05 0)
(0.53097384 -5.3392152e-06 0)
(0.35918162 -2.4022178e-06 0)
(0.23001895 -9.5507845e-07 0)
(0.13556309 -3.1067437e-07 0)
(0.067811253 -6.7581034e-08 0)
(0.019862579 -9.0703744e-09 0)
(0.019861974 1.0396506e-08 0)
(0.067809213 7.2480081e-08 0)
(0.13555907 3.0844852e-07 0)
(0.2300123 9.2065253e-07 0)
(0.3591716 2.2843271e-06 0)
(0.53095985 5.0462639e-06 0)
(0.75057886 1.0148103e-05 0)
(1.0159575 1.852243e-05 0)
(1.3118134 2.98737e-05 0)
(1.6050467 3.9983844e-05 0)
(1.8466551 3.8496512e-05 0)
(1.9845898 1.6513917e-05 0)
(1.9845898 -1.6511003e-05 0)
(1.8466551 -3.8495555e-05 0)
(1.6050467 -3.9985796e-05 0)
(1.3118134 -2.9877244e-05 0)
(1.0159575 -1.8523251e-05 0)
(0.75057886 -1.0140349e-05 0)
(0.53095985 -5.0270938e-06 0)
(0.3591716 -2.2576049e-06 0)
(0.2300123 -8.9411631e-07 0)
(0.13555908 -2.8842587e-07 0)
(0.067809214 -6.1305151e-08 0)
(0.019861974 -8.0519437e-09 0)
(0.019861404 9.8016924e-09 0)
(0.067807291 6.8330887e-08 0)
(0.13555529 2.9078077e-07 0)
(0.23000603 8.6792364e-07 0)
(0.35916216 2.1535912e-06 0)
(0.53094666 4.7578656e-06 0)
(0.75056194 9.5695983e-06 0)
(1.0159384 1.7471611e-05 0)
(1.3117965 2.8195208e-05 0)
(1.6050405 3.7778442e-05 0)
(1.8466678 3.6464727e-05 0)
(1.9846188 1.5682092e-05 0)
(1.9846188 -1.5678829e-05 0)
(1.8466678 -3.646388e-05 0)
(1.6050405 -3.7781099e-05 0)
(1.3117965 -2.8199663e-05 0)
(1.0159384 -1.7472631e-05 0)
(0.75056194 -9.5602855e-06 0)
(0.53094666 -4.734998e-06 0)
(0.35916216 -2.1218707e-06 0)
(0.23000603 -8.3654445e-07 0)
(0.1355553 -2.6717718e-07 0)
(0.067807292 -5.5184612e-08 0)
(0.019861405 -7.0472984e-09 0)
(0.019860867 9.2451658e-09 0)
(0.067805479 6.4447218e-08 0)
(0.13555173 2.7424189e-07 0)
(0.23000012 8.1856734e-07 0)
(0.35915325 2.031239e-06 0)
(0.53093421 4.4879816e-06 0)
(0.75054596 9.0280564e-06 0)
(1.0159203 1.6486882e-05 0)
(1.3117806 2.6619014e-05 0)
(1.6050346 3.5704749e-05 0)
(1.8466798 3.4526035e-05 0)
(1.9846465 1.488469e-05 0)
(1.9846465 -1.4881077e-05 0)
(1.8466798 -3.452534e-05 0)
(1.6050346 -3.5708208e-05 0)
(1.3117806 -2.6624481e-05 0)
(1.0159203 -1.6488129e-05 0)
(0.75054596 -9.0170693e-06 0)
(0.53093421 -4.4611494e-06 0)
(0.35915325 -1.9941735e-06 0)
(0.23000012 -7.8202187e-07 0)
(0.13555173 -2.4682783e-07 0)
(0.06780548 -4.9206782e-08 0)
(0.019860867 -6.0564008e-09 0)
(0.01986036 8.725172e-09 0)
(0.06780377 6.0819127e-08 0)
(0.13554837 2.5879168e-07 0)
(0.22999455 7.7244419e-07 0)
(0.35914485 1.9168367e-06 0)
(0.53092248 4.2354772e-06 0)
(0.75053089 8.5211724e-06 0)
(1.0159032 1.5565055e-05 0)
(1.3117655 2.5143025e-05 0)
(1.605029 3.3754409e-05 0)
(1.846691 3.2712454e-05 0)
(1.9846726 1.4133115e-05 0)
(1.9846726 -1.412917e-05 0)
(1.846691 -3.271197e-05 0)
(1.605029 -3.3758771e-05 0)
(1.3117655 -2.5149606e-05 0)
(1.0159032 -1.5566558e-05 0)
(0.75053089 -8.5084054e-06 0)
(0.53092248 -4.2044363e-06 0)
(0.35914485 -1.8741112e-06 0)
(0.22999455 -7.3044083e-07 0)
(0.13554837 -2.2736339e-07 0)
(0.067803771 -4.3376942e-08 0)
(0.01986036 -5.0814001e-09 0)
(0.019859881 8.2369477e-09 0)
(0.067802156 5.7410241e-08 0)
(0.13554519 2.4427406e-07 0)
(0.22998928 7.2912257e-07 0)
(0.35913691 1.8094599e-06 0)
(0.53091139 3.9986126e-06 0)
(0.75051664 8.0455943e-06 0)
(1.0158871 1.4698926e-05 0)
(1.3117512 2.3752498e-05 0)
(1.6050236 3.1915695e-05 0)
(1.8467017 3.0971716e-05 0)
(1.9846975 1.3409409e-05 0)
(1.9846975 -1.3405154e-05 0)
(1.8467017 -3.0971504e-05 0)
(1.6050236 -3.192107e-05 0)
(1.3117512 -2.3760295e-05 0)
(1.0158871 -1.4700713e-05 0)
(0.75051664 -8.0309519e-06 0)
(0.53091138 -3.9631397e-06 0)
(0.35913691 -1.7607836e-06 0)
(0.22998928 -6.8138948e-07 0)
(0.13554519 -2.0863852e-07 0)
(0.067802157 -3.7663661e-08 0)
(0.019859882 -4.1179451e-09 0)
(0.01985943 7.781994e-09 0)
(0.067800634 5.4236177e-08 0)
(0.13554219 2.307587e-07 0)
(0.22998431 6.8875764e-07 0)
(0.35912943 1.7092645e-06 0)
(0.53090093 3.7772586e-06 0)
(0.7505032 7.6008209e-06 0)
(1.0158719 1.3889189e-05 0)
(1.3117377 2.2453488e-05 0)
(1.6050185 3.019105e-05 0)
(1.8467117 2.9356819e-05 0)
(1.9847208 1.2732895e-05 0)
(1.9847208 -1.2728371e-05 0)
(1.8467117 -2.9356956e-05 0)
(1.6050185 -3.0197547e-05 0)
(1.3117377 -2.2462601e-05 0)
(1.0158719 -1.3891293e-05 0)
(0.7505032 -7.584236e-06 0)
(0.53090093 -3.7372051e-06 0)
(0.35912942 -1.6544639e-06 0)
(0.22998431 -6.3514863e-07 0)
(0.13554219 -1.9080985e-07 0)
(0.067800635 -3.2126593e-08 0)
(0.01985943 -3.1713001e-09 0)
(0.019859002 7.3524231e-09 0)
(0.067799193 5.1234195e-08 0)
(0.13553936 2.1797568e-07 0)
(0.22997961 6.5063166e-07 0)
(0.35912234 1.6148419e-06 0)
(0.53089102 3.5690771e-06 0)
(0.75049046 7.1826287e-06 0)
(1.0158574 1.3126108e-05 0)
(1.3117249 2.1224214e-05 0)
(1.6050136 2.8557742e-05 0)
(1.8467212 2.7792682e-05 0)
(1.9847433 1.207651e-05 0)
(1.9847433 -1.207176e-05 0)
(1.8467212 -2.7793239e-05 0)
(1.6050136 -2.8565456e-05 0)
(1.3117249 -2.1234726e-05 0)
(1.0158574 -1.3128553e-05 0)
(0.75049047 -7.1640521e-06 0)
(0.53089102 -3.5243447e-06 0)
(0.35912233 -1.553818e-06 0)
(0.22997961 -5.9108148e-07 0)
(0.13553936 -1.7368566e-07 0)
(0.067799194 -2.6753239e-08 0)
(0.019859003 -2.2494253e-09 0)
(0.0198586 6.9585053e-09 0)
(0.067797836 4.8487755e-08 0)
(0.13553669 2.0628307e-07 0)
(0.22997518 6.1566318e-07 0)
(0.35911566 1.5278417e-06 0)
(0.5308817 3.3763774e-06 0)
(0.75047849 6.7946136e-06 0)
(1.0158438 1.2418626e-05 0)
(1.3117128 2.0087056e-05 0)
(1.6050089 2.7041265e-05 0)
(1.84673 2.6364723e-05 0)
(1.9847642 1.1472472e-05 0)
(1.9847642 -1.1467552e-05 0)
(1.84673 -2.6365775e-05 0)
(1.605009 -2.7050277e-05 0)
(1.3117129 -2.0099026e-05 0)
(1.0158438 -1.2421429e-05 0)
(0.75047849 -6.7740113e-06 0)