/*--------------------------------*- C++ -*----------------------------------*\
  =========                 |
  \\      /  F ield         | OpenFOAM: The Open Source CFD Toolbox
   \\    /   O peration     | Website:  https://openfoam.org
    \\  /    A nd           | Version:  10
     \\/     M anipulation  |
\*---------------------------------------------------------------------------*/
FoamFile
{
    format      ascii;
    class       volScalarField;
    location    "8.9";
    object      T;
}
// * * * * * * * * * * * * * * * * * * * * * * * * * * * * * * * * * * * * * //

dimensions      [0 0 -1 0 0 0 0];

internalField   nonuniform List<scalar> 
100
(
0.0387488
0.114873
0.186927
0.25236
0.308853
0.354404
0.3874
0.406673
0.411539
0.401826
0.377878
0.340544
0.291145
0.231433
0.163522
0.0898182
0.0129325
-0.0644113
-0.139473
-0.209594
-0.272291
-0.325341
-0.366865
-0.395394
-0.409915
-0.409915
-0.395393
-0.366865
-0.32534
-0.27229
-0.209593
-0.139472
-0.0644102
0.0129337
0.0898193
0.163523
0.231434
0.291146
0.340544
0.377879
0.401826
0.411539
0.406673
0.3874
0.354404
0.308852
0.252359
0.186927
0.114872
0.038748
-0.0387488
-0.114873
-0.186927
-0.25236
-0.308853
-0.354404
-0.387401
-0.406673
-0.411539
-0.401826
-0.377878
-0.340544
-0.291146
-0.231433
-0.163522
-0.0898185
-0.0129328
0.064411
0.139473
0.209594
0.27229
0.32534
0.366865
0.395394
0.409915
0.409915
0.395393
0.366865
0.32534
0.27229
0.209594
0.139472
0.0644104
-0.0129334
-0.089819
-0.163523
-0.231434
-0.291146
-0.340544
-0.377878
-0.401826
-0.411539
-0.406673
-0.3874
-0.354404
-0.308852
-0.252359
-0.186927
-0.114872
-0.0387479
)
;

boundaryField
{
    inlet
    {
        type            cyclic;
    }
    outlet
    {
        type            cyclic;
    }
    bottom
    {
        type            slip;
    }
    top
    {
        type            slip;
    }
    frontAndBack
    {
        type            empty;
    }
}


// ************************************************************************* //
