/*--------------------------------*- C++ -*----------------------------------*\
  =========                 |
  \\      /  F ield         | OpenFOAM: The Open Source CFD Toolbox
   \\    /   O peration     | Website:  https://openfoam.org
    \\  /    A nd           | Version:  10
     \\/     M anipulation  |
\*---------------------------------------------------------------------------*/
FoamFile
{
    format      ascii;
    class       volScalarField;
    location    "8.9";
    object      T_0;
}
// * * * * * * * * * * * * * * * * * * * * * * * * * * * * * * * * * * * * * //

dimensions      [0 0 -1 0 0 0 0];

internalField   nonuniform List<scalar> 
100
(
0.0387283
0.114812
0.186829
0.252227
0.308689
0.354217
0.387196
0.406458
0.411321
0.401613
0.377678
0.340364
0.290991
0.231311
0.163436
0.0897707
0.0129257
-0.0643772
-0.1394
-0.209484
-0.272146
-0.325169
-0.366671
-0.395185
-0.409698
-0.409698
-0.395184
-0.366671
-0.325168
-0.272146
-0.209483
-0.139398
-0.0643761
0.0129268
0.0897718
0.163437
0.231312
0.290992
0.340364
0.377679
0.401614
0.411321
0.406458
0.387195
0.354216
0.308689
0.252226
0.186828
0.114811
0.0387275
-0.0387283
-0.114812
-0.186829
-0.252227
-0.308689
-0.354217
-0.387196
-0.406458
-0.411321
-0.401614
-0.377678
-0.340364
-0.290992
-0.231311
-0.163436
-0.089771
-0.012926
0.064377
0.139399
0.209483
0.272146
0.325168
0.366671
0.395185
0.409698
0.409698
0.395184
0.366671
0.325168
0.272146
0.209483
0.139399
0.0643764
-0.0129265
-0.0897715
-0.163436
-0.231311
-0.290992
-0.340364
-0.377679
-0.401614
-0.411321
-0.406458
-0.387195
-0.354216
-0.308689
-0.252226
-0.186828
-0.114811
-0.0387275
)
;

boundaryField
{
    inlet
    {
        type            cyclic;
    }
    outlet
    {
        type            cyclic;
    }
    bottom
    {
        type            slip;
    }
    top
    {
        type            slip;
    }
    frontAndBack
    {
        type            empty;
    }
}


// ************************************************************************* //
