/*--------------------------------*- C++ -*----------------------------------*\
  =========                 |
  \\      /  F ield         | OpenFOAM: The Open Source CFD Toolbox
   \\    /   O peration     | Website:  https://openfoam.org
    \\  /    A nd           | Version:  10
     \\/     M anipulation  |
\*---------------------------------------------------------------------------*/
FoamFile
{
    format      ascii;
    class       volScalarField;
    location    "0.3";
    object      T;
}
// * * * * * * * * * * * * * * * * * * * * * * * * * * * * * * * * * * * * * //

dimensions      [0 0 -1 0 0 0 0];

internalField   nonuniform List<scalar> 
100
(
-0.0419995
-0.12451
-0.202609
-0.273531
-0.334763
-0.384136
-0.4199
-0.44079
-0.446064
-0.435536
-0.409579
-0.369113
-0.31557
-0.250848
-0.17724
-0.0973533
-0.0140176
0.0698148
0.151174
0.227178
0.295133
0.352634
0.397642
0.428563
0.444303
0.444303
0.428563
0.397641
0.352633
0.295132
0.227177
0.151173
0.0698138
-0.0140185
-0.0973541
-0.177241
-0.250849
-0.31557
-0.369112
-0.409579
-0.435535
-0.446063
-0.440789
-0.419899
-0.384135
-0.334762
-0.27353
-0.202608
-0.124509
-0.0419986
0.0419994
0.12451
0.202609
0.273531
0.334762
0.384135
0.4199
0.440789
0.446063
0.435535
0.409578
0.369112
0.31557
0.250848
0.17724
0.097353
0.0140174
-0.0698147
-0.151174
-0.227177
-0.295133
-0.352633
-0.397642
-0.428563
-0.444303
-0.444303
-0.428563
-0.397642
-0.352633
-0.295133
-0.227177
-0.151173
-0.0698139
0.0140185
0.0973542
0.177241
0.250849
0.315571
0.369113
0.40958
0.435536
0.446064
0.44079
0.4199
0.384135
0.334762
0.27353
0.202608
0.124509
0.0419987
)
;

boundaryField
{
    inlet
    {
        type            cyclic;
    }
    outlet
    {
        type            cyclic;
    }
    bottom
    {
        type            slip;
    }
    top
    {
        type            slip;
    }
    frontAndBack
    {
        type            empty;
    }
}


// ************************************************************************* //
