/*--------------------------------*- C++ -*----------------------------------*\
| =========                 |                                                 |
| \\      /  F ield         | OpenFOAM: The Open Source CFD Toolbox           |
|  \\    /   O peration     | Version:  2406                                  |
|   \\  /    A nd           | Website:  www.openfoam.com                      |
|    \\/     M anipulation  |                                                 |
\*---------------------------------------------------------------------------*/
FoamFile
{
    version     2.0;
    format      ascii;
    arch        "LSB;label=32;scalar=64";
    class       volScalarField;
    location    "14.25";
    object      p;
}
// * * * * * * * * * * * * * * * * * * * * * * * * * * * * * * * * * * * * * //

dimensions      [0 2 -2 0 0 0 0];

internalField   nonuniform List<scalar> 
34560
(
-13.13774
-13.144433
-13.154883
-13.170303
-13.190965
-13.216097
-13.244146
-13.274435
-13.30427
-13.108182
-13.117067
-13.131006
-13.151507
-13.178723
-13.211297
-13.246777
-13.283767
-13.319585
-13.079633
-13.090871
-13.108438
-13.13392
-13.167236
-13.206366
-13.247825
-13.289679
-13.329214
-13.049426
-13.063028
-13.084342
-13.115046
-13.154622
-13.200185
-13.247223
-13.293275
-13.33602
-13.018626
-13.034638
-13.059739
-13.095684
-13.141464
-13.193269
-13.245715
-13.295685
-13.341264
-12.989218
-13.007399
-13.035998
-13.076856
-13.128448
-13.186013
-13.243509
-13.297132
-13.345177
-12.961917
-12.982067
-13.01387
-13.059241
-13.116127
-13.178846
-13.240853
-13.297799
-13.348012
-12.93747
-12.959366
-12.994011
-13.043373
-13.104906
-13.172097
-13.238008
-13.297854
-13.349958
-12.916628
-12.939999
-12.977045
-13.029772
-13.095201
-13.166107
-13.235244
-13.297498
-13.351193
-12.900355
-12.924852
-12.963752
-13.019084
-13.087515
-13.161268
-13.232867
-13.296967
-13.351905
-12.889332
-12.914598
-12.954759
-13.011842
-13.082274
-13.157921
-13.231154
-13.296486
-13.352273
-12.883409
-12.909109
-12.94996
-13.007978
-13.07946
-13.156096
-13.230178
-13.296151
-13.352387
-12.883409
-12.909109
-12.94996
-13.007978
-13.079461
-13.156097
-13.230178
-13.296151
-13.352387
-12.889332
-12.914598
-12.954759
-13.011843
-13.082274
-13.157922
-13.231154
-13.296486
-13.352274
-12.900355
-12.924852
-12.963753
-13.019085
-13.087515
-13.161269
-13.232868
-13.296968
-13.351905
-12.916629
-12.939999
-12.977045
-13.029773
-13.095201
-13.166107
-13.235245
-13.297498
-13.351193
-12.937471
-12.959367
-12.994011
-13.043373
-13.104907
-13.172097
-13.238008
-13.297854
-13.349958
-12.961917
-12.982068
-13.013871
-13.059241
-13.116127
-13.178846
-13.240854
-13.297799
-13.34801
-12.989221
-13.007401
-13.036
-13.076858
-13.12845
-13.186014
-13.24351
-13.297131
-13.345175
-13.018628
-13.034641
-13.059742
-13.095688
-13.141466
-13.193271
-13.245716
-13.295684
-13.341261
-13.04943
-13.063032
-13.084347
-13.115051
-13.154626
-13.200188
-13.247225
-13.293274
-13.336017
-13.079639
-13.090877
-13.108444
-13.133926
-13.167242
-13.206371
-13.247829
-13.28968
-13.329212
-13.108188
-13.117074
-13.131013
-13.151514
-13.17873
-13.211303
-13.246782
-13.283771
-13.319586
-13.137748
-13.144441
-13.154892
-13.170311
-13.190973
-13.216104
-13.244152
-13.274441
-13.304273
-12.831015
-12.828963
-12.826489
-12.822921
-12.816854
-12.807538
-12.794932
-12.779391
-12.763904
-12.853442
-12.850654
-12.846937
-12.841151
-12.831402
-12.817155
-12.799708
-12.780617
-12.763049
-12.878446
-12.874952
-12.870187
-12.862512
-12.849387
-12.830252
-12.80783
-12.785029
-12.764971
-12.903133
-12.89889
-12.893072
-12.883605
-12.867421
-12.843805
-12.816654
-12.790211
-12.767356
-12.927146
-12.922195
-12.915334
-12.904059
-12.884966
-12.857194
-12.825454
-12.795474
-12.769873
-12.949641
-12.944086
-12.936291
-12.92334
-12.901598
-12.870165
-12.834181
-12.800785
-12.772635
-12.970043
-12.963942
-12.955279
-12.940749
-12.916568
-12.882064
-12.842523
-12.805947
-12.775452
-12.987918
-12.981362
-12.971947
-12.956001
-12.929639
-12.8925
-12.850004
-12.810603
-12.777913
-13.002792
-12.995884
-12.985862
-12.968725
-12.940509
-12.901162
-12.856257
-12.814427
-12.779712
-13.014265
-13.007109
-12.996633
-12.978568
-12.948868
-12.907725
-12.860973
-12.817274
-12.780984
-13.022087
-13.014757
-13.003959
-12.985238
-12.954492
-12.912071
-12.864024
-12.819117
-12.781829
-13.026026
-13.018622
-13.007673
-12.988625
-12.95734
-12.914255
-12.865534
-12.820021
-12.782244
-13.026027
-13.018622
-13.007673
-12.988625
-12.95734
-12.914255
-12.865534
-12.820021
-12.782244
-13.022087
-13.014758
-13.003959
-12.985239
-12.954492
-12.912071
-12.864025
-12.819118
-12.781829
-13.014265
-13.00711
-12.996634
-12.978568
-12.948869
-12.907726
-12.860974
-12.817275
-12.780984
-13.002793
-12.995886
-12.985863
-12.968727
-12.94051
-12.901163
-12.856258
-12.814427
-12.779711
-12.98792
-12.981364
-12.971949
-12.956003
-12.92964
-12.892502
-12.850005
-12.810603
-12.777912
-12.970045
-12.963944
-12.955281
-12.940751
-12.916571
-12.882066
-12.842524
-12.805947
-12.775451
-12.949644
-12.94409
-12.936295
-12.923343
-12.901601
-12.870167
-12.834182
-12.800786
-12.772634
-12.92715
-12.922198
-12.915338
-12.904063
-12.88497
-12.857198
-12.825457
-12.795475
-12.769873
-12.903138
-12.898895
-12.893077
-12.88361
-12.867426
-12.843809
-12.816658
-12.790213
-12.767357
-12.878452
-12.874958
-12.870193
-12.862518
-12.849393
-12.830258
-12.807835
-12.785032
-12.764973
-12.853449
-12.850661
-12.846944
-12.841158
-12.831409
-12.817162
-12.799714
-12.780621
-12.763052
-12.831023
-12.828971
-12.826497
-12.822929
-12.816862
-12.807545
-12.794939
-12.779397
-12.763908
-11.998659
-11.998114
-11.997753
-11.998021
-11.999106
-12.000439
-12.000192
-11.99738
-11.993518
-12.002542
-12.001827
-12.001237
-12.001315
-12.002333
-12.003649
-12.003269
-12.00004
-11.99593
-12.006031
-12.00517
-12.004441
-12.004521
-12.005837
-12.007686
-12.007721
-12.004518
-12.000186
-12.008469
-12.007458
-12.006591
-12.006689
-12.008352
-12.010881
-12.01152
-12.008441
-12.003781
-12.010479
-12.009338
-12.00834
-12.008414
-12.010251
-12.013255
-12.014432
-12.011508
-12.006679
-12.012432
-12.011165
-12.010059
-12.010104
-12.011991
-12.015215
-12.016749
-12.013972
-12.009086
-12.01427
-12.012893
-12.011716
-12.011791
-12.013755
-12.016973
-12.018574
-12.015953
-12.011092
-12.015975
-12.014508
-12.013286
-12.013422
-12.015485
-12.018634
-12.020131
-12.017639
-12.012907
-12.017483
-12.015944
-12.0147
-12.01491
-12.017082
-12.02018
-12.021532
-12.019189
-12.014684
-12.018723
-12.017131
-12.01588
-12.016173
-12.018473
-12.021597
-12.022819
-12.020562
-12.016199
-12.019612
-12.01798
-12.01673
-12.017094
-12.019505
-12.022684
-12.023853
-12.021605
-12.017256
-12.020061
-12.018413
-12.017168
-12.017575
-12.020051
-12.023271
-12.024427
-12.022174
-12.017806
-12.020061
-12.018413
-12.017168
-12.017575
-12.020051
-12.023272
-12.024427
-12.022174
-12.017806
-12.019612
-12.01798
-12.016731
-12.017095
-12.019505
-12.022685
-12.023853
-12.021605
-12.017256
-12.018724
-12.017131
-12.015881
-12.016174
-12.018474
-12.021598
-12.022819
-12.020562
-12.016199
-12.017484
-12.015945
-12.014701
-12.014911
-12.017084
-12.020181
-12.021533
-12.01919
-12.014684
-12.015977
-12.01451
-12.013288
-12.013424
-12.015487
-12.018636
-12.020133
-12.01764
-12.012907
-12.014272
-12.012896
-12.011718
-12.011793
-12.013758
-12.016975
-12.018577
-12.015954
-12.011092
-12.012435
-12.011169
-12.010063
-12.010107
-12.011995
-12.015219
-12.016752
-12.013974
-12.009087
-12.010484
-12.009343
-12.008345
-12.008419
-12.010256
-12.013259
-12.014436
-12.011511
-12.006681
-12.008474
-12.007464
-12.006596
-12.006695
-12.008357
-12.010886
-12.011524
-12.008445
-12.003783
-12.006037
-12.005176
-12.004447
-12.004528
-12.005843
-12.007693
-12.007727
-12.004522
-12.000189
-12.002549
-12.001834
-12.001244
-12.001323
-12.002341
-12.003656
-12.003276
-12.000045
-11.995935
-11.998667
-11.998122
-11.997761
-11.998028
-11.999114
-12.000446
-12.000199
-11.997386
-11.993524
-11.463995
-11.464197
-11.464416
-11.46452
-11.464288
-11.463432
-11.462338
-11.461511
-11.460286
-11.468348
-11.468497
-11.468588
-11.468432
-11.467724
-11.466053
-11.463686
-11.461562
-11.459755
-11.473313
-11.47341
-11.473404
-11.473052
-11.471979
-11.469735
-11.466538
-11.463462
-11.461128
-11.47807
-11.478101
-11.478005
-11.477496
-11.47612
-11.473479
-11.469785
-11.466109
-11.463327
-11.48255
-11.482518
-11.482337
-11.48169
-11.480027
-11.477
-11.472947
-11.468889
-11.465767
-11.486567
-11.486493
-11.486255
-11.485456
-11.483521
-11.480127
-11.475736
-11.471363
-11.467931
-11.48985
-11.489763
-11.489484
-11.488559
-11.486351
-11.482611
-11.477906
-11.473246
-11.469536
-11.492419
-11.49234
-11.49203
-11.490986
-11.48853
-11.48448
-11.479506
-11.474624
-11.470698
-11.494279
-11.494223
-11.493911
-11.492781
-11.490131
-11.485824
-11.480635
-11.475608
-11.471535
-11.495559
-11.495522
-11.49521
-11.494019
-11.491227
-11.486729
-11.481382
-11.476271
-11.472091
-11.496358
-11.496336
-11.496023
-11.494786
-11.491895
-11.487267
-11.481823
-11.476664
-11.472415
-11.496726
-11.496714
-11.496404
-11.495147
-11.492206
-11.487514
-11.482027
-11.476846
-11.472563
-11.496726
-11.496714
-11.496404
-11.495147
-11.492207
-11.487515
-11.482027
-11.476846
-11.472563
-11.496359
-11.496337
-11.496023
-11.494787
-11.491895
-11.487268
-11.481824
-11.476664
-11.472415
-11.49556
-11.495523
-11.49521
-11.49402
-11.491228
-11.48673
-11.481383
-11.476271
-11.472091
-11.49428
-11.494224
-11.493912
-11.492782
-11.490132
-11.485825
-11.480636
-11.475609
-11.471534
-11.49242
-11.492341
-11.492032
-11.490988
-11.488532
-11.484482
-11.479507
-11.474624
-11.470698
-11.489852
-11.489765
-11.489486
-11.488561
-11.486354
-11.482613
-11.477908
-11.473247
-11.469536
-11.486569
-11.486496
-11.486258
-11.485459
-11.483525
-11.48013
-11.475739
-11.471365
-11.467931
-11.482554
-11.482522
-11.482341
-11.481695
-11.480032
-11.477005
-11.472951
-11.468892
-11.465768
-11.478075
-11.478107
-11.47801
-11.477502
-11.476127
-11.473486
-11.46979
-11.466113
-11.463329
-11.47332
-11.473417
-11.473411
-11.473059
-11.471987
-11.469743
-11.466545
-11.463468
-11.461132
-11.468357
-11.468506
-11.468597
-11.468441
-11.467733
-11.466061
-11.463694
-11.46157
-11.459761
-11.464005
-11.464207
-11.464426
-11.46453
-11.464298
-11.463443
-11.462348
-11.461521
-11.460296
-10.860439
-10.860444
-10.86049
-10.860621
-10.86089
-10.861334
-10.861936
-10.862537
-10.862839
-10.862648
-10.862611
-10.862589
-10.862622
-10.86276
-10.863056
-10.863457
-10.863791
-10.8639
-10.864921
-10.864851
-10.864794
-10.864795
-10.864898
-10.865141
-10.865431
-10.865602
-10.865586
-10.86673
-10.866641
-10.866566
-10.866564
-10.866682
-10.866905
-10.867126
-10.867144
-10.866908
-10.867974
-10.867891
-10.867812
-10.867785
-10.867875
-10.86807
-10.868209
-10.868064
-10.867617
-10.868834
-10.868761
-10.868681
-10.868645
-10.868691
-10.868829
-10.868882
-10.868592
-10.867982
-10.86947
-10.869404
-10.869322
-10.869276
-10.869315
-10.869416
-10.869405
-10.86902
-10.868285
-10.869947
-10.869882
-10.869809
-10.869768
-10.869812
-10.8699
-10.869846
-10.869388
-10.868545
-10.870314
-10.870246
-10.870167
-10.870131
-10.870184
-10.870274
-10.870198
-10.869682
-10.868746
-10.87058
-10.870509
-10.870427
-10.870389
-10.870447
-10.870546
-10.870459
-10.869897
-10.868891
-10.870754
-10.870679
-10.870592
-10.870553
-10.870616
-10.870723
-10.87063
-10.870037
-10.868986
-10.870831
-10.870755
-10.870667
-10.870629
-10.870695
-10.870808
-10.870715
-10.870109
-10.869036
-10.870831
-10.870755
-10.870668
-10.870629
-10.870695
-10.870808
-10.870715
-10.870109
-10.869036
-10.870754
-10.870679
-10.870592
-10.870554
-10.870616
-10.870723
-10.87063
-10.870037
-10.868985
-10.87058
-10.870509
-10.870427
-10.870389
-10.870448
-10.870546
-10.870459
-10.869896
-10.86889
-10.870314
-10.870246
-10.870167
-10.870131
-10.870185
-10.870275
-10.870199
-10.869682
-10.868745
-10.869947
-10.869883
-10.86981
-10.869769
-10.869814
-10.869901
-10.869847
-10.869388
-10.868544
-10.869472
-10.869406
-10.869324
-10.869278
-10.869318
-10.869419
-10.869407
-10.869021
-10.868284
-10.868837
-10.868764
-10.868684
-10.868648
-10.868694
-10.868832
-10.868885
-10.868593
-10.867982
-10.867978
-10.867895
-10.867816
-10.86779
-10.86788
-10.868074
-10.868213
-10.868066
-10.867617
-10.866736
-10.866647
-10.866572
-10.86657
-10.866689
-10.866912
-10.867131
-10.867147
-10.866909
-10.864928
-10.864859
-10.864802
-10.864804
-10.864907
-10.865149
-10.865438
-10.865607
-10.865589
-10.862657
-10.86262
-10.862598
-10.862632
-10.86277
-10.863066
-10.863467
-10.863799
-10.863905
-10.860449
-10.860455
-10.860501
-10.860632
-10.860901
-10.861345
-10.861947
-10.862548
-10.862847
-10.30493
-10.304977
-10.305037
-10.305098
-10.305148
-10.305165
-10.305133
-10.305065
-10.304864
-10.305422
-10.305468
-10.305513
-10.305528
-10.305479
-10.305339
-10.305132
-10.304893
-10.304613
-10.306079
-10.306122
-10.306149
-10.306118
-10.305988
-10.305743
-10.305445
-10.305144
-10.304882
-10.306834
-10.306864
-10.30687
-10.306801
-10.306614
-10.306315
-10.305965
-10.305625
-10.305355
-10.307734
-10.307747
-10.307732
-10.307635
-10.307414
-10.307077
-10.306675
-10.306285
-10.305988
-10.308714
-10.308711
-10.308677
-10.308569
-10.308349
-10.308
-10.307554
-10.307108
-10.306765
-10.309693
-10.309675
-10.309629
-10.309523
-10.309317
-10.30897
-10.308499
-10.308001
-10.307598
-10.310606
-10.310577
-10.310525
-10.310424
-10.310231
-10.309892
-10.309405
-10.30886
-10.308386
-10.311394
-10.311358
-10.311302
-10.311203
-10.311022
-10.310697
-10.310199
-10.30961
-10.309066
-10.312018
-10.311978
-10.311919
-10.311824
-10.311655
-10.31134
-10.310834
-10.310208
-10.309602
-10.312452
-10.312409
-10.312349
-10.312257
-10.312097
-10.31179
-10.311277
-10.310622
-10.309973
-10.312672
-10.312627
-10.312567
-10.312477
-10.312322
-10.31202
-10.311504
-10.310835
-10.310162
-10.312672
-10.312627
-10.312567
-10.312477
-10.312322
-10.31202
-10.311504
-10.310835
-10.310162
-10.312452
-10.312409
-10.312348
-10.312257
-10.312097
-10.31179
-10.311277
-10.310622
-10.309972
-10.312017
-10.311977
-10.311919
-10.311824
-10.311655
-10.31134
-10.310834
-10.310207
-10.309601
-10.311393
-10.311358
-10.311301
-10.311203
-10.311023
-10.310697
-10.310199
-10.30961
-10.309064
-10.310606
-10.310577
-10.310525
-10.310425
-10.310232
-10.309893
-10.309405
-10.308859
-10.308384
-10.309693
-10.309675
-10.30963
-10.309525
-10.309319
-10.308972
-10.3085
-10.308001
-10.307596
-10.308716
-10.308713
-10.308679
-10.308572
-10.308352
-10.308003
-10.307557
-10.307108
-10.306763
-10.307737
-10.307751
-10.307736
-10.307639
-10.307418
-10.307082
-10.306678
-10.306287
-10.305987
-10.306839
-10.306869
-10.306876
-10.306808
-10.306621
-10.306321
-10.30597
-10.305628
-10.305355
-10.306086
-10.306129
-10.306156
-10.306126
-10.305996
-10.305751
-10.305452
-10.305149
-10.304883
-10.305431
-10.305478
-10.305522
-10.305538
-10.305489
-10.305349
-10.30514
-10.3049
-10.304616
-10.304941
-10.304988
-10.305047
-10.305108
-10.305158
-10.305176
-10.305144
-10.305075
-10.304871
-9.7395163
-9.7395212
-9.7395354
-9.7395679
-9.7396334
-9.7397453
-9.7398983
-9.7400713
-9.740184
-9.7400545
-9.7400499
-9.7400481
-9.7400581
-9.7400949
-9.740168
-9.7402632
-9.7403519
-9.7403969
-9.7406032
-9.7405932
-9.7405845
-9.7405868
-9.7406139
-9.7406671
-9.7407228
-9.7407595
-9.7407745
-9.7410568
-9.7410433
-9.7410323
-9.7410352
-9.7410622
-9.7411003
-9.7411202
-9.7411087
-9.7410751
-9.7413959
-9.7413831
-9.7413734
-9.7413776
-9.7413964
-9.7414071
-9.7413855
-9.7413239
-9.7412359
-9.7416272
-9.7416176
-9.7416099
-9.7416099
-9.741607
-9.7415835
-9.7415205
-9.7414096
-9.7412686
-9.7417576
-9.7417516
-9.7417437
-9.7417312
-9.741705
-9.741652
-9.7415518
-9.741397
-9.741211
-9.7418288
-9.7418236
-9.7418122
-9.7417879
-9.7417426
-9.7416615
-9.7415262
-9.7413334
-9.7411118
-9.7418691
-9.7418628
-9.7418475
-9.7418158
-9.741754
-9.7416458
-9.7414792
-9.7412554
-9.7410068
-9.7418936
-9.7418856
-9.7418669
-9.7418281
-9.7417523
-9.7416229
-9.741432
-9.741185
-9.7409168
-9.7419078
-9.7418984
-9.7418768
-9.7418324
-9.7417464
-9.7416029
-9.7413958
-9.7411338
-9.7408527
-9.7419119
-9.7419021
-9.7418794
-9.7418323
-9.7417414
-9.7415911
-9.7413764
-9.7411072
-9.7408199
-9.7419117
-9.7419019
-9.7418792
-9.7418322
-9.7417414
-9.7415911
-9.7413763
-9.741107
-9.7408193
-9.7419072
-9.7418978
-9.7418764
-9.7418321
-9.7417463
-9.7416028
-9.7413955
-9.741133
-9.7408512
-9.7418927
-9.7418848
-9.7418663
-9.7418278
-9.7417522
-9.7416229
-9.7414316
-9.7411839
-9.7409144
-9.741868
-9.741862
-9.741847
-9.7418157
-9.7417541
-9.741646
-9.741479
-9.7412541
-9.7410038
-9.741828
-9.7418232
-9.7418121
-9.7417883
-9.7417433
-9.7416622
-9.7415263
-9.7413321
-9.7411083
-9.7417576
-9.7417519
-9.7417444
-9.7417324
-9.7417067
-9.7416537
-9.7415526
-9.741396
-9.7412074
-9.7416284
-9.7416191
-9.7416119
-9.7416124
-9.74161
-9.7415863
-9.7415222
-9.7414092
-9.7412652
-9.7413987
-9.7413864
-9.7413772
-9.7413819
-9.7414011
-9.7414115
-9.7413886
-9.7413245
-9.7412331
-9.7410619
-9.7410488
-9.7410383
-9.7410416
-9.7410689
-9.7411066
-9.741125
-9.7411108
-9.7410734
-9.7406108
-9.7406011
-9.7405929
-9.7405955
-9.7406227
-9.7406754
-9.7407296
-9.7407635
-9.7407745
-9.7400644
-9.7400601
-9.7400586
-9.7400688
-9.7401057
-9.7401783
-9.7402723
-9.7403586
-9.7403995
-9.7395276
-9.7395326
-9.7395469
-9.7395794
-9.739645
-9.7397569
-9.7399095
-9.7400811
-9.7401903
-9.1844582
-9.1844682
-9.1844818
-9.1844977
-9.1845147
-9.1845298
-9.1845453
-9.1845662
-9.1845633
-9.184596
-9.1846046
-9.1846135
-9.184618
-9.1846125
-9.1845947
-9.1845732
-9.1845564
-9.1845361
-9.1847717
-9.1847789
-9.1847836
-9.1847786
-9.1847573
-9.1847214
-9.1846831
-9.1846555
-9.1846444
-9.1849605
-9.1849646
-9.1849645
-9.1849524
-9.1849228
-9.1848802
-9.1848363
-9.184804
-9.1847928
-9.1851772
-9.1851776
-9.1851724
-9.1851541
-9.1851193
-9.1850724
-9.1850228
-9.1849837
-9.1849668
-9.1854153
-9.185412
-9.1854032
-9.185383
-9.185348
-9.1852993
-9.1852443
-9.1851969
-9.1851705
-9.1856529
-9.1856468
-9.1856362
-9.1856172
-9.1855853
-9.1855385
-9.1854815
-9.185427
-9.1853884
-9.185876
-9.1858682
-9.1858567
-9.1858388
-9.1858106
-9.1857683
-9.1857119
-9.185651
-9.1855984
-9.1860703
-9.1860613
-9.1860493
-9.1860327
-9.1860083
-9.185971
-9.185916
-9.185849
-9.1857824
-9.1862251
-9.1862155
-9.1862034
-9.1861881
-9.186167
-9.1861339
-9.18608
-9.1860076
-9.1859289
-9.1863329
-9.1863229
-9.1863109
-9.1862967
-9.1862781
-9.1862477
-9.1861942
-9.1861179
-9.1860304
-9.1863877
-9.1863774
-9.1863655
-9.1863519
-9.1863347
-9.1863058
-9.1862527
-9.1861743
-9.1860822
-9.1863873
-9.1863771
-9.1863652
-9.1863517
-9.1863345
-9.1863057
-9.1862526
-9.186174
-9.1860815
-9.186332
-9.186322
-9.1863102
-9.1862962
-9.1862777
-9.1862474
-9.1861938
-9.1861169
-9.1860285
-9.1862237
-9.1862142
-9.1862024
-9.1861874
-9.1861666
-9.1861336
-9.1860793
-9.186006
-9.1859259
-9.1860686
-9.1860599
-9.1860483
-9.1860321
-9.186008
-9.1859708
-9.1859154
-9.1858471
-9.1857786
-9.1858746
-9.1858671
-9.185856
-9.1858387
-9.1858108
-9.1857685
-9.1857115
-9.185649
-9.1855939
-9.1856522
-9.1856465
-9.1856363
-9.185618
-9.1855864
-9.1855396
-9.1854817
-9.1854252
-9.1853837
-9.1854158
-9.1854129
-9.1854047
-9.1853851
-9.1853505
-9.1853016
-9.1852455
-9.1851957
-9.1851659
-9.1851795
-9.1851803
-9.1851758
-9.185158
-9.1851236
-9.1850764
-9.1850254
-9.1849835
-9.1849628
-9.1849652
-9.1849697
-9.1849702
-9.1849587
-9.1849293
-9.1848862
-9.1848407
-9.1848053
-9.1847901
-9.1847792
-9.1847868
-9.1847919
-9.1847874
-9.1847661
-9.1847297
-9.1846898
-9.1846591
-9.1846439
-9.1846061
-9.1846149
-9.184624
-9.1846288
-9.1846234
-9.1846053
-9.1845826
-9.1845633
-9.1845388
-9.1844698
-9.1844798
-9.1844935
-9.1845095
-9.1845267
-9.1845419
-9.1845571
-9.1845768
-9.1845701
-8.626121
-8.626122
-8.6261254
-8.6261336
-8.6261504
-8.6261788
-8.6262178
-8.6262623
-8.6262912
-8.6262482
-8.6262469
-8.6262464
-8.626249
-8.6262581
-8.6262755
-8.6262978
-8.6263186
-8.6263287
-8.6263768
-8.6263744
-8.6263723
-8.6263728
-8.6263787
-8.6263893
-8.6263996
-8.6264067
-8.6264116
-8.6264824
-8.6264793
-8.6264767
-8.6264772
-8.6264823
-8.6264882
-8.6264898
-8.6264865
-8.6264831
-8.6265638
-8.6265607
-8.6265582
-8.6265585
-8.6265608
-8.6265605
-8.6265538
-8.6265412
-8.6265283
-8.6266235
-8.6266208
-8.6266182
-8.6266166
-8.6266142
-8.6266077
-8.6265933
-8.6265714
-8.6265483
-8.626663
-8.6266606
-8.6266575
-8.6266532
-8.6266466
-8.6266346
-8.6266127
-8.6265813
-8.6265481
-8.6266901
-8.6266875
-8.6266834
-8.6266773
-8.626667
-8.6266491
-8.6266195
-8.6265789
-8.6265363
-8.6267093
-8.6267063
-8.6267014
-8.6266937
-8.6266802
-8.6266567
-8.6266198
-8.6265711
-8.6265205
-8.6267226
-8.6267192
-8.6267136
-8.6267046
-8.6266885
-8.6266604
-8.6266177
-8.6265625
-8.6265056
-8.626731
-8.6267272
-8.6267211
-8.6267111
-8.6266931
-8.6266621
-8.6266154
-8.6265557
-8.6264945
-8.6267344
-8.6267306
-8.6267243
-8.6267139
-8.626695
-8.6266625
-8.6266139
-8.6265518
-8.6264883
-8.626734
-8.6267302
-8.626724
-8.6267136
-8.6266948
-8.6266624
-8.6266136
-8.6265514
-8.6264876
-8.6267298
-8.6267262
-8.6267203
-8.6267105
-8.6266926
-8.6266617
-8.6266148
-8.6265545
-8.6264924
-8.6267209
-8.6267176
-8.6267124
-8.6267037
-8.6266878
-8.6266599
-8.6266168
-8.6265607
-8.6265023
-8.6267072
-8.6267045
-8.6267
-8.6266928
-8.6266796
-8.6266562
-8.6266188
-8.6265688
-8.6265162
-8.6266882
-8.6266859
-8.6266823
-8.6266767
-8.6266668
-8.626649
-8.6266187
-8.6265765
-8.6265314
-8.6266617
-8.6266597
-8.6266571
-8.6266535
-8.6266473
-8.6266352
-8.6266124
-8.6265791
-8.6265428
-8.6266234
-8.6266211
-8.6266191
-8.6266181
-8.6266162
-8.6266096
-8.626594
-8.6265697
-8.6265431
-8.6265654
-8.6265628
-8.6265609
-8.6265618
-8.6265644
-8.6265639
-8.6265558
-8.6265405
-8.6265238
-8.6264863
-8.6264836
-8.6264816
-8.6264827
-8.6264881
-8.6264936
-8.6264935
-8.6264874
-8.6264799
-8.6263834
-8.6263813
-8.6263797
-8.6263806
-8.6263866
-8.6263967
-8.6264055
-8.6264098
-8.6264107
-8.6262571
-8.6262561
-8.6262559
-8.6262588
-8.6262679
-8.626285
-8.6263061
-8.6263245
-8.6263308
-8.6261313
-8.6261323
-8.6261358
-8.6261441
-8.6261611
-8.6261896
-8.6262282
-8.6262717
-8.6262972
-8.0699628
-8.0699648
-8.0699676
-8.0699711
-8.0699755
-8.0699813
-8.0699899
-8.0700024
-8.0700097
-8.0700017
-8.0700029
-8.070004
-8.0700044
-8.0700037
-8.0700028
-8.070004
-8.0700082
-8.0700116
-8.0700512
-8.0700519
-8.0700518
-8.0700499
-8.070046
-8.0700413
-8.0700388
-8.0700403
-8.0700458
-8.0701028
-8.0701026
-8.0701016
-8.0700983
-8.0700927
-8.0700862
-8.0700813
-8.0700804
-8.0700845
-8.0701555
-8.0701547
-8.0701527
-8.0701487
-8.0701419
-8.0701336
-8.0701257
-8.0701213
-8.0701224
-8.0702077
-8.0702064
-8.070204
-8.0701996
-8.0701923
-8.0701823
-8.0701716
-8.0701635
-8.0701611
-8.0702558
-8.0702542
-8.0702517
-8.0702471
-8.0702397
-8.070229
-8.0702163
-8.0702054
-8.0701995
-8.0702987
-8.070297
-8.0702943
-8.0702897
-8.0702823
-8.0702713
-8.0702574
-8.0702442
-8.0702352
-8.0703347
-8.0703329
-8.0703302
-8.0703257
-8.0703184
-8.0703074
-8.0702926
-8.0702776
-8.0702659
-8.0703627
-8.0703609
-8.0703582
-8.0703538
-8.0703466
-8.0703356
-8.0703202
-8.0703037
-8.0702898
-8.0703819
-8.07038
-8.0703773
-8.070373
-8.070366
-8.070355
-8.0703392
-8.0703216
-8.070306
-8.0703913
-8.0703895
-8.0703868
-8.0703825
-8.0703757
-8.0703647
-8.0703487
-8.0703305
-8.0703139
-8.0703908
-8.070389
-8.0703864
-8.0703823
-8.0703755
-8.0703645
-8.0703484
-8.0703301
-8.0703132
-8.0703807
-8.070379
-8.0703764
-8.0703723
-8.0703654
-8.0703545
-8.0703385
-8.0703204
-8.0703039
-8.0703609
-8.0703593
-8.0703568
-8.0703527
-8.0703459
-8.0703349
-8.0703192
-8.0703018
-8.0702865
-8.0703325
-8.070331
-8.0703286
-8.0703246
-8.0703177
-8.0703067
-8.0702914
-8.0702752
-8.0702615
-8.0702966
-8.0702952
-8.070293
-8.0702889
-8.070282
-8.070271
-8.0702564
-8.0702416
-8.0702301
-8.0702543
-8.0702531
-8.070251
-8.0702471
-8.0702401
-8.0702294
-8.0702158
-8.0702029
-8.070194
-8.0702072
-8.0702063
-8.0702045
-8.0702008
-8.0701939
-8.0701838
-8.070172
-8.0701616
-8.0701556
-8.0701567
-8.0701563
-8.0701549
-8.0701515
-8.0701452
-8.0701365
-8.0701274
-8.0701203
-8.0701175
-8.0701062
-8.0701064
-8.0701059
-8.0701032
-8.0700978
-8.0700909
-8.0700846
-8.0700808
-8.0700809
-8.070057
-8.070058
-8.0700584
-8.0700569
-8.0700531
-8.070048
-8.070044
-8.0700427
-8.0700441
-8.0700096
-8.070011
-8.0700124
-8.0700131
-8.0700125
-8.0700112
-8.0700112
-8.0700132
-8.0700127
-8.0699718
-8.0699739
-8.0699768
-8.0699804
-8.0699848
-8.0699906
-8.0699989
-8.0700103
-8.0700145
-7.5131541
-7.5131545
-7.5131554
-7.5131574
-7.5131613
-7.5131676
-7.5131759
-7.5131852
-7.5131904
-7.5131831
-7.5131829
-7.5131828
-7.5131834
-7.5131852
-7.5131883
-7.5131921
-7.5131955
-7.5131967
-7.5132143
-7.5132137
-7.5132133
-7.5132132
-7.5132137
-7.5132145
-7.5132148
-7.5132149
-7.5132156
-7.5132415
-7.5132407
-7.51324
-7.5132396
-7.5132394
-7.5132387
-7.5132371
-7.5132353
-7.5132346
-7.5132644
-7.5132635
-7.5132625
-7.5132616
-7.5132606
-7.5132589
-7.513256
-7.5132527
-7.5132504
-7.5132836
-7.5132826
-7.5132813
-7.5132799
-7.5132783
-7.5132759
-7.5132721
-7.5132673
-7.513263
-7.5132997
-7.5132985
-7.513297
-7.5132952
-7.5132931
-7.5132902
-7.5132856
-7.5132793
-7.5132729
-7.5133133
-7.513312
-7.5133102
-7.5133081
-7.5133057
-7.5133024
-7.513297
-7.5132891
-7.5132805
-7.5133244
-7.5133229
-7.5133209
-7.5133186
-7.513316
-7.5133124
-7.5133062
-7.5132969
-7.5132863
-7.5133327
-7.5133311
-7.513329
-7.5133266
-7.5133239
-7.5133201
-7.5133134
-7.5133029
-7.5132906
-7.5133383
-7.5133366
-7.5133344
-7.513332
-7.5133292
-7.5133254
-7.5133183
-7.5133069
-7.5132933
-7.5133408
-7.5133391
-7.5133369
-7.5133345
-7.5133318
-7.5133279
-7.5133206
-7.5133087
-7.5132944
-7.5133404
-7.5133387
-7.5133366
-7.5133343
-7.5133316
-7.5133278
-7.5133204
-7.5133083
-7.5132937
-7.5133372
-7.5133356
-7.5133336
-7.5133313
-7.5133287
-7.5133249
-7.5133176
-7.5133058
-7.5132914
-7.5133311
-7.5133296
-7.5133278
-7.5133257
-7.5133232
-7.5133195
-7.5133125
-7.5133011
-7.5132875
-7.5133224
-7.5133211
-7.5133195
-7.5133177
-7.5133153
-7.5133118
-7.5133052
-7.5132947
-7.5132823
-7.5133114
-7.5133104
-7.513309
-7.5133074
-7.5133054
-7.5133021
-7.5132961
-7.5132867
-7.5132758
-7.5132984
-7.5132975
-7.5132964
-7.5132952
-7.5132935
-7.5132906
-7.5132852
-7.513277
-7.5132678
-7.5132833
-7.5132826
-7.5132819
-7.513281
-7.5132798
-7.5132773
-7.5132725
-7.5132655
-7.513258
-7.5132655
-7.513265
-7.5132646
-7.5132643
-7.5132636
-7.5132616
-7.5132576
-7.5132517
-7.5132459
-7.5132446
-7.5132443
-7.513244
-7.5132442
-7.5132442
-7.5132431
-7.5132401
-7.5132357
-7.5132313
-7.5132197
-7.5132195
-7.5132194
-7.5132197
-7.5132204
-7.5132207
-7.5132196
-7.5132172
-7.5132142
-7.5131905
-7.5131906
-7.5131908
-7.5131916
-7.5131935
-7.5131962
-7.5131989
-7.5132003
-7.513198
-7.5131627
-7.5131631
-7.5131641
-7.5131662
-7.5131702
-7.5131765
-7.5131845
-7.513193
-7.5131952
-6.9566451
-6.9566452
-6.9566456
-6.9566463
-6.9566477
-6.9566502
-6.9566539
-6.9566589
-6.956662
-6.9566579
-6.9566578
-6.9566576
-6.9566575
-6.9566577
-6.9566586
-6.9566606
-6.9566636
-6.956666
-6.9566722
-6.956672
-6.9566716
-6.9566711
-6.9566706
-6.9566706
-6.9566713
-6.9566731
-6.9566757
-6.9566854
-6.9566852
-6.9566847
-6.956684
-6.9566832
-6.9566824
-6.9566823
-6.9566831
-6.9566851
-6.9566976
-6.9566972
-6.9566967
-6.9566959
-6.9566946
-6.9566932
-6.9566919
-6.9566915
-6.9566923
-6.9567087
-6.9567083
-6.9567077
-6.9567067
-6.9567052
-6.9567029
-6.9567004
-6.9566985
-6.956698
-6.9567183
-6.956718
-6.9567174
-6.9567163
-6.9567144
-6.9567114
-6.9567077
-6.9567044
-6.9567025
-6.9567266
-6.9567262
-6.9567256
-6.9567244
-6.9567223
-6.9567186
-6.9567138
-6.9567091
-6.956706
-6.9567333
-6.9567329
-6.9567323
-6.956731
-6.9567287
-6.9567245
-6.9567187
-6.9567129
-6.9567086
-6.9567383
-6.9567379
-6.9567373
-6.956736
-6.9567335
-6.9567289
-6.9567224
-6.9567157
-6.9567105
-6.9567415
-6.9567412
-6.9567406
-6.9567393
-6.9567366
-6.9567318
-6.9567248
-6.9567174
-6.9567115
-6.956743
-6.9567427
-6.9567421
-6.9567408
-6.9567381
-6.9567331
-6.9567259
-6.9567181
-6.9567117
-6.9567427
-6.9567424
-6.9567418
-6.9567406
-6.956738
-6.956733
-6.9567257
-6.9567178
-6.9567112
-6.9567407
-6.9567405
-6.9567399
-6.9567388
-6.9567363
-6.9567315
-6.9567243
-6.9567165
-6.95671
-6.956737
-6.9567368
-6.9567364
-6.9567354
-6.956733
-6.9567285
-6.9567217
-6.9567143
-6.956708
-6.9567318
-6.9567317
-6.9567313
-6.9567304
-6.9567283
-6.9567242
-6.956718
-6.9567113
-6.9567055
-6.9567253
-6.9567252
-6.9567249
-6.9567241
-6.9567222
-6.9567186
-6.9567133
-6.9567074
-6.9567023
-6.9567175
-6.9567174
-6.9567172
-6.9567166
-6.956715
-6.956712
-6.9567076
-6.9567027
-6.9566986
-6.9567087
-6.9567087
-6.9567085
-6.956708
-6.9567067
-6.9567044
-6.956701
-6.9566973
-6.9566942
-6.9566989
-6.9566989
-6.9566988
-6.9566985
-6.9566975
-6.9566959
-6.9566935
-6.956691
-6.9566891
-6.9566886
-6.9566886
-6.9566885
-6.9566883
-6.9566876
-6.9566866
-6.9566852
-6.9566838
-6.9566829
-6.9566773
-6.9566773
-6.9566773
-6.9566771
-6.9566767
-6.9566763
-6.9566758
-6.9566756
-6.9566753
-6.9566647
-6.9566648
-6.9566649
-6.956665
-6.9566652
-6.9566659
-6.956667
-6.9566684
-6.9566678
-6.9566529
-6.9566531
-6.9566535
-6.9566543
-6.9566559
-6.9566584
-6.9566621
-6.9566665
-6.956667
-6.4001348
-6.4001349
-6.4001351
-6.4001355
-6.4001363
-6.4001376
-6.4001394
-6.4001417
-6.4001433
-6.4001416
-6.4001415
-6.4001415
-6.4001415
-6.4001416
-6.4001419
-6.4001426
-6.4001438
-6.4001448
-6.4001494
-6.4001492
-6.400149
-6.4001488
-6.4001484
-6.4001481
-6.4001481
-6.4001486
-6.4001498
-6.4001571
-6.4001569
-6.4001566
-6.4001561
-6.4001555
-6.4001549
-6.4001545
-6.4001546
-6.4001556
-6.4001649
-6.4001645
-6.4001641
-6.4001635
-6.4001628
-6.4001621
-6.4001615
-6.4001612
-6.4001617
-6.4001725
-6.4001721
-6.4001716
-6.4001709
-6.4001703
-6.4001696
-6.4001689
-6.4001683
-6.4001683
-6.4001797
-6.4001792
-6.4001786
-6.4001779
-6.4001774
-6.4001768
-6.4001761
-6.4001754
-6.4001749
-6.4001861
-6.4001855
-6.4001849
-6.4001843
-6.4001838
-6.4001834
-6.4001828
-6.4001819
-6.4001809
-6.4001914
-6.4001908
-6.4001902
-6.4001896