/*--------------------------------*- C++ -*----------------------------------*\
| =========                 |                                                 |
| \\      /  F ield         | OpenFOAM: The Open Source CFD Toolbox           |
|  \\    /   O peration     | Version:  2406                                  |
|   \\  /    A nd           | Website:  www.openfoam.com                      |
|    \\/     M anipulation  |                                                 |
\*---------------------------------------------------------------------------*/
FoamFile
{
    version     2.0;
    format      ascii;
    arch        "LSB;label=32;scalar=64";
    class       surfaceScalarField;
    location    "14.25";
    object      phi;
}
// * * * * * * * * * * * * * * * * * * * * * * * * * * * * * * * * * * * * * //

dimensions      [0 3 -1 0 0 0 0];

oriented        oriented;

internalField   nonuniform List<scalar> 
101088
(
0.00014731526
-1.3729398e-05
9.6732041e-06
1.1925293e-05
0.00032736451
-5.9692377e-05
4.4058454e-05
5.2748573e-05
0.00052650488
-0.00014498533
0.00011139053
0.00012982075
0.00071607464
-0.00027664705
0.00022184384
0.00025113895
0.0008585253
-0.00044177725
0.0003693689
0.00040726825
0.00092649726
-0.00059944977
0.00051971154
0.00056162095
0.00092140443
-0.00069098262
0.00061932955
0.00065783188
0.00086886228
-0.00069149041
0.00063119905
0.00067056261
-0.00061196736
0.00056016298
0.00061112829
0.0007951013
0.00017917848
-1.5136662e-05
1.2594215e-05
0.00039347487
-6.4824897e-05
5.6880671e-05
0.00062236053
-0.00015525558
0.00014276267
0.00082709047
-0.00029159453
0.00028198473
0.00096220333
-0.00045816418
0.00046508052
0.0010009113
-0.00061202092
0.00064845692
0.00095476044
-0.00069560162
0.00076872984
0.00085960689
-0.00068396268
0.00078534104
-0.00059550465
0.00070632552
0.00075563291
0.00021097301
-1.5934546e-05
1.5697196e-05
0.0004582664
-6.7254377e-05
7.027688e-05
0.00071431874
-0.00015907758
0.00017500245
0.00093152066
-0.00029471348
0.00034254877
0.0010586627
-0.00045653822
0.0005590132
0.0010714838
-0.00060133242
0.00077101265
0.00099186633
-0.00067538306
0.00090661973
0.00086556826
-0.00065423464
0.0009239689
-0.00056246937
0.00083559126
0.00073690238
0.0002417629
-1.6137848e-05
1.896872e-05
0.00052035045
-6.7107877e-05
8.4129701e-05
0.00080117741
-0.00015675249
0.00020772184
0.0010283428
-0.00028662431
0.00040273303
0.0011466682
-0.00043859522
0.00065012809
0.0011360773
-0.0005707529
0.00088675571
0.001028353
-0.00063480868
0.0010334085
0.00087791429
-0.00060746378
0.0010484345
-0.00051701396
0.0009492725
0.000730905
0.00027062748
-1.5591599e-05
2.2233247e-05
0.00057782259
-6.4101405e-05
9.7785717e-05
0.00088050998
-0.00014827601
0.00023959759
0.0011157047
-0.00026833723
0.00046055442
0.0012255059
-0.0004068475
0.00073620347
0.0011945641
-0.00052437331
0.00099406903
0.0010631168
-0.00057820102
0.0011485866
0.00089328469
-0.00054776945
0.0011592431
-0.00046219826
0.0010484698
0.00073200313
0.000297368
-1.4488074e-05
2.5414173e-05
0.00063096498
-5.8938418e-05
0.00011093447
0.00095371556
-0.0001350836
0.00026993821
0.0011962872
-0.00024216878
0.00051487304
0.0012984559
-0.000364259
0.00081590173
0.0012494336
-0.00046551107
0.0010919305
0.0010973436
-0.00050899281
0.0012518622
0.00091105912
-0.00047817731
0.0012568383
-0.00040008318
0.0011341518
0.00073774923
0.00032095416
-1.2887774e-05
2.8414469e-05
0.00067742078
-5.1917687e-05
0.00012317732
0.0010170712
-0.00011800535
0.00029784164
0.0012653075
-0.00020980224
0.00056416821
0.0013603262
-0.00031346242
0.00088722622
0.001295773
-0.00039763761
0.0011782952
0.0011268273
-0.00043139542
0.0013418464
0.0009273009
-0.00040225977
0.0013407062
-0.00033364102
0.0012066522
0.00074468209
0.00034110648
-1.0849144e-05
3.108352e-05
0.0007168877
-4.3340651e-05
0.00013399504
0.0010705486
-9.7824035e-05
0.00032234246
0.0013231556
-0.00017272678
0.00060715148
0.0014117605
-0.0002566789
0.00094892992
0.0013340227
-0.00032358259
0.0012523926
0.0011512304
-0.00034861499
0.001418371
0.00094088527
-0.00032277281
0.0014113113
-0.00026534042
0.0012669266
0.00075105984
0.00035755574
-8.4366399e-06
3.3323396e-05
0.00074896977
-3.3507469e-05
0.00014303644
0.0011138043
-7.5249393e-05
0.00034275229
0.0013696489
-0.00013220142
0.00064283592
0.0014526906
-0.000195697
0.00099994384
0.0013640074
-0.00024549724
0.0013133447
0.0011699645
-0.00026293902
0.0014809605
0.00095099715
-0.00024181911
0.0014686333
-0.00019713628
0.0013153518
0.0007558903
0.00037012928
-5.7783786e-06
3.5070408e-05
0.00077348039
-2.2860243e-05
0.00015007455
0.0011467858
-5.1120278e-05
0.00035861057
0.0014049269
-8.9435735e-05
0.0006704959
0.0014833989
-0.00013196751
0.0010393574
0.0013860206
-0.00016489241
0.0013602358
0.0011832018
-0.00017576548
0.001528845
0.00095774692
-0.00016072007
0.0015122459
-0.00013011925
0.0013518303
0.00075905059
0.00037849349
-2.9597279e-06
3.6322966e-05
0.00078956638
-1.163381e-05
0.00015504494
0.0011680807
-2.590568e-05
0.00036965163
0.0014272424
-4.5164161e-05
0.00068949242
0.0015022545
-6.6467267e-05
0.0010661091
0.0013989301
-8.2812197e-05
0.0013917555
0.0011904177
-8.798211e-05
0.0015607817
0.00096110996
-8.0127892e-05
0.0015411156
-6.457443e-05
0.0013757833
0.00076065088
0.00038270586
-1.8376659e-11
3.6908451e-05
0.00079770156
-7.2849279e-11
0.00015741642
0.0011789032
-1.4534101e-10
0.00037502212
0.0014386145
-2.6574999e-10
0.00069890374
0.0015118334
-5.1182995e-10
0.0010795597
0.0014053852
-7.3333344e-10
0.0014077505
0.0011938767
-9.7420211e-10
0.001577055
0.00096259086
-1.3227356e-09
0.0015558264
-1.470405e-09
0.0013879604
0.00076126436
0.0003827058
2.959713e-06
3.6908445e-05
0.00079770151
1.1633679e-05
0.0001574164
0.0011789029
2.590536e-05
0.00037502208
0.0014386142
4.5163645e-05
0.00069890365
0.0015118332
6.6466338e-05
0.0010795596
0.001405385
8.2810715e-05
0.0014077504
0.0011938765
8.7979948e-05
0.0015770549
0.00096259075
8.012507e-05
0.0015558263
6.4571451e-05
0.0013879603
0.00076126439
0.00037849334
5.7783851e-06
3.6322967e-05
0.00078956649
2.2860125e-05
0.00015504494
0.0011680806
5.1120021e-05
0.00036965162
0.0014272423
8.9435493e-05
0.0006894924
0.0015022544
0.00013196691
0.0010661091
0.0013989301
0.0001648909
0.0013917554
0.0011904175
0.00017576298
0.0015607816
0.00096110973
0.00016071708
0.0015411155
0.00013011634
0.0013757831
0.00076065091
0.00037012904
8.4366432e-06
3.50704e-05
0.00077348062
3.3507353e-05
0.00015007451
0.0011467859
7.5249393e-05
0.00035861048
0.001404927
0.00013220167
0.00067049574
0.0014833986
0.00019569664
0.0010393572
0.0013860203
0.00024549563
0.0013602355
0.0011832013
0.00026293649
0.0015288447
0.00095774649
0.0002418163
0.0015122456
0.00019713343
0.0013518301
0.00075905045
0.00035755581
1.0849097e-05
3.332339e-05
0.00074897019
4.334039e-05
0.00014303641
0.0011138044
9.7823952e-05
0.00034275224
0.0013696491
0.00017272689
0.00064283581
0.0014526903
0.00025667835
0.00099994367
0.001364007
0.00032358112
0.0013133445
0.0011699638
0.00034861307
0.0014809603
0.00095099647
0.00032277061
0.0014686331
0.00026533753
0.0013153517
0.00075588962
0.0003411067
1.288772e-05
3.1083519e-05
0.00071688789
5.191745e-05
0.00013399503
0.0010705484
0.00011800516
0.00032234244
0.0013231559
0.00020980216
0.00060715143
0.0014117605
0.00031346191
0.00094892983
0.0013340225
0.00039763664
0.0012523925
0.0011512297
0.00043139407
0.0014183709
0.00094088425
0.00040225805
0.0014113111
0.00033363839
0.0012669265
0.00075105806
0.00032095433
1.4488165e-05
2.841447e-05
0.00067742085
5.89386e-05
0.00012317733
0.0010170708
0.00013508358
0.00029784164
0.0012653081
0.0002421688
0.00056416821
0.0013603268
0.00036425878
0.0008872262
0.0012957731
0.00046551064
0.0011782952
0.0011268266
0.00050899161
0.0013418464
0.00092729944
0.00047817584
0.0013407061
0.00040008163
0.001206652
0.00074467932
0.0002973682
1.5591618e-05
2.5414178e-05
0.00063096546
6.4101509e-05
0.00011093449
0.00095371616
0.00014827594
0.00026993826
0.0011962885
0.00026833727
0.00051487312
0.0012984566
0.00040684738
0.00081590185
0.0012494336
0.00052437337
0.0010919307
0.0010973427
0.00057820021
0.0012518623
0.00091105738
0.00054776825
0.0012568383
0.00046219773
0.0011341517
0.00073774673
0.00027062749
1.6137882e-05
2.2233246e-05
0.00057782289
6.7107948e-05
9.7785713e-05
0.00088051032
0.00015675255
0.00023959758
0.0011157045
0.00028662436
0.0004605544
0.0012255058
0.00043859553
0.00073620343
0.0011945637
0.00057075339
0.00099406898
0.0010631155
0.00063480862
0.0011485865
0.00089328328
0.00060746259
0.001159243
0.00051701337
0.0010484697
0.00073200195
0.0002417628
1.5934589e-05
1.8968717e-05
0.00052035036
6.725446e-05
8.4129684e-05
0.00080117734
0.00015907789
0.0002077218
0.0010283426
0.00029471397
0.00040273295
0.0011466684
0.00045653905
0.00065012796
0.0011360774
0.00060133341
0.00088675556
0.0010283521
0.00067538359
0.0010334084
0.00087791297
0.00065423326
0.0010484344
0.0005624673
0.00094927243
0.00073090467
0.00021097291
1.5136691e-05
1.5697191e-05
0.00045826621
6.4824977e-05
7.027686e-05
0.00071431855
0.0001552558
0.0001750024
0.00093152049
0.00029159474
0.00034254869
0.0010586623
0.00045816427
0.00055901308
0.0010714831
0.00061202165
0.00077101251
0.00099186437
0.00069560321
0.00090661959
0.00086556523
0.00068396224
0.00092396881
0.00059550108
0.0008355912
0.00073690192
0.00017917844
1.3729421e-05
1.2594216e-05
0.00039347471
5.9692457e-05
5.6880674e-05
0.00062236028
0.00014498551
0.00014276268
0.00082709019
0.00027664725
0.00028198475
0.00096220282
0.00044177742
0.00046508055
0.0010009109
0.00059945041
0.00064845695
0.00095476076
0.00069098451
0.00076872986
0.00085960727
0.00069148888
0.00078534105
0.00061196331
0.00070632554
0.00075563377
0.0001473153
9.6732083e-06
1.1925306e-05
0.00032736461
4.4058472e-05
5.2748591e-05
0.0005265049
0.00011139058
0.00012982075
0.00071607435
0.00022184393
0.00025113886
0.00085852533
0.00036936903
0.00040726807
0.00092649806
0.00051971169
0.00056162115
0.00092140498
0.00061932968
0.0006578323
0.00086886421
0.00063119913
0.00067055968
0.00056016303
0.00061112548
0.0007951026
3.2075467e-06
1.6577139e-06
6.7145529e-06
-1.9066066e-06
1.6049623e-05
3.1995829e-06
3.2958259e-05
-4.9414437e-06
4.4838909e-05
-5.3095171e-06
8.9114625e-05
-1.2037897e-06
9.5295823e-05
-4.4093058e-05
0.00018947686
2.6003242e-05
0.00016737502
-0.0001367482
0.00033552954
9.8508382e-05
0.00024944425
-0.00028236121
0.00049805353
0.00022194995
0.00032250666
-0.00043844261
0.00061871237
0.00036599752
0.00037677123
-0.00053692962
0.00064783487
0.0004660294
-0.00054290721
0.00058170654
0.00048658779
0.00041154719
4.3784117e-06
1.7319604e-06
8.1415724e-06
2.1883686e-05
2.2675296e-06
4.0307531e-05
6.0360387e-05
-1.0731297e-05
0.0001097079
0.00012458739
-6.0470018e-05
0.00023413485
0.00020863126
-0.00017023331
0.00041452186
0.00029202077
-0.00033064473
0.00061335108
0.00035146119
-0.00048907412
0.00075992091
0.00038174594
-0.00058007791
0.0007982049
-0.00057312173
0.00072694192
0.00039134412
6.055652e-06
1.8860097e-06
9.4875057e-06
2.9406829e-05
1.8505868e-06
4.7342656e-05
7.8623002e-05
-1.4514897e-05
0.00012956984
0.00015620962
-7.2675144e-05
0.0002771673
0.00024951064
-0.00019418217
0.00048966124
0.00033085928
-0.00036132845
0.00072034779
0.00037583047
-0.00051424009
0.00088681467
0.000385197
-0.00059516389
0.00092968836
-0.00057921402
0.00085213461
0.00037474596
8.0637175e-06
1.9654216e-06
1.0825612e-05
3.8285167e-05
1.4622338e-06
5.4296646e-05
9.9602886e-05
-1.717027e-05
0.00014905952
0.00019100774
-8.0278712e-05
0.00031893182
0.00029203088
-0.00020648507
0.00056140755
0.0003696554
-0.00037232066
0.00082012329
0.00040136449
-0.00051433916
0.0010017987
0.00039327298
-0.00058428906
0.0010456514
-0.00056283106
0.00096021101
0.00036595147
1.0132661e-05
1.9854857e-06
1.2080476e-05
4.7305745e-05
1.2088005e-06
6.0865884e-05
0.00012061662
-1.8399908e-05
0.00016751623
0.0002252199
-8.2709209e-05
0.00035838185
0.00033320803
-0.00020687262
0.0006286027
0.00040734547
-0.00036453058
0.00091214145
0.00042837758
-0.0004924166
0.001105632
0.000406729
-0.00055135459
0.0011479573
-0.00052750919
0.0010534026
0.00036647452
1.2217668e-05
1.915753e-06
1.326622e-05
5.6321687e-05
9.744397e-07
6.7064788e-05
0.00014144804
-1.846622e-05
0.00018487818
0.000258936
-8.0610368e-05
0.00039528583
0.00037420833
-0.00019711488
0.00069087192
0.00044604868
-0.00034060851
0.00099616816
0.0004586278
-0.00045202123
0.0011988879
0.00042650385
-0.00050026575
0.0012378734
-0.00047691327
0.0011334311
0.00037662868
1.4188448e-05
1.7490212e-06
1.4392593e-05
6.4743663e-05
7.3389811e-07
7.2862537e-05
0.00016064275
-1.7438915e-05
0.00020091546
0.00028950561
-7.4292599e-05
0.00042898702
0.00041081525
-0.00017825947
0.00074706122
0.0004808936
-0.00030322865
0.0010708371
0.00048748367
-0.00039727977
0.0012805151
0.00044870872
-0.00043605804
0.0013152735
-0.00041553923
0.0012010177
0.00039296922
1.5948007e-05
1.4957217e-06
1.5388708e-05
7.2193796e-05
5.0087151e-07
7.7982252e-05
0.00017746536
-1.5413679e-05
0.00021504594
0.00031605594
-6.4320303e-05
0.00045858846
0.00044253355
-0.00015194897
0.00079614203
0.0005114447
-0.00025521363
0.0011354664
0.00051343499
-0.00033130202
0.001350403
0.00047011087
-0.00036217408
0.0013807513
-0.00034546828
0.0012573012
0.00040966538
1.7424474e-05
1.1737064e-06
1.6220946e-05
7.839425e-05
2.9959316e-07
8.2267781e-05
0.00019133749
-1.2493023e-05
0.00022688852
0.0003376744
-5.1238695e-05
0.00048341736
0.00046807578
-0.00011957934
0.0008371731
0.00053611296
-0.00019907257
0.0011891664
0.00053458894
-0.00025682338
0.0014080058
0.00048697791
-0.00028021066
0.0014342808
-0.00026646176
0.001302752
0.00042057126
1.8560912e-05
8.0939948e-07
1.6873891e-05
8.3137338e-05
1.5993793e-07
8.5637592e-05
0.00020186377
-8.8138184e-06
0.00023620498
0.00035387482
-3.5685547e-05
0.00050293153
0.00048691302
-8.2531612e-05
0.00086927139
0.00055368388
-0.00013650723
0.0012308994
0.00054883187
-0.00017555234
0.0014524259
0.00049665311
-0.00019108035
0.0014752942
-0.00018074651
0.0013372136
0.00042555454
1.9346039e-05
3.9571006e-07
1.7390659e-05
8.6369452e-05
4.5933862e-09
8.8176783e-05
0.00020890009
-4.6674307e-06
0.0002429747
0.00036444585
-1.8449033e-05
0.00051671
0.00049886983
-4.2257796e-05
0.00089141106
0.00056443203
-6.9506899e-05
0.0012591928
0.00055667139
-8.9176087e-05
0.0014821661
0.00050098596
-9.6817622e-05
0.0015025381
-9.1181687e-05
0.0013599054
0.00042729887
1.9700566e-05
8.8542923e-12
1.7603578e-05
8.7816301e-05
4.4007635e-12
8.9305195e-05
0.00021203059
-3.3964314e-11
0.00024614036
0.00036909502
-2.1306426e-10
0.00052339034
0.00050401489
-5.7841722e-10
0.00090238251
0.00056887962
-9.8887811e-10
0.0012733798
0.00055958719
-1.3198611e-09
0.0014971726
0.00050225593
-1.5797896e-09
0.0015163414
-1.4428808e-09
0.0013714098
0.00042762603
1.9700558e-05
-3.9568668e-07
1.7603575e-05
8.7816307e-05
-4.5830679e-09
8.9305181e-05
0.0002120305
4.6673654e-06
0.00024614032
0.00036909493
1.8448672e-05
0.00052339027
0.00050401482
4.2256765e-05
0.00090238239
0.00056887952
6.9504984e-05
0.0012733797
0.00055958704
8.9173412e-05
0.0014971724
0.00050225581
9.681441e-05
0.0015163413
9.1178765e-05
0.0013714097
0.00042762599
1.9345986e-05
-8.0937926e-07
1.7390657e-05
8.6369502e-05
-1.5995744e-07
8.8176776e-05
0.0002089
8.8137481e-06
0.00024297468
0.00036444582
3.5685342e-05
0.00051670996
0.0004988698
8.2530852e-05
0.000891411
0.00056443188
0.00013650547
0.0012591927
0.00055667103
0.0001755497
0.0014821659
0.00050098558
0.00019107719
0.001502538
0.0001807436
0.0013599053
0.00042729867
1.8560812e-05
-1.1736888e-06
1.6873884e-05
8.3137441e-05
-2.9962266e-07
8.5637562e-05
0.00020186375
1.2493029e-05
0.0002362049
0.00035387481
5.1238683e-05
0.00050293138
0.00048691278
0.00011957875
0.00086927115
0.00055368344
0.00019907092
0.0012308991
0.00054883117
0.00025682093
0.0014524256
0.00049665233
0.00028020782
0.0014752939
0.00026645897
0.0013372134
0.00042555392
1.7424471e-05
-1.4957113e-06
1.622094e-05
7.8394429e-05
-5.0090908e-07
8.2267756e-05
0.00019133749
1.5413715e-05
0.00022688846
0.00033767439
6.4320286e-05
0.00048341724
0.00046807539
0.00015194834
0.00083717291
0.00053611236
0.0002552122
0.0011891661
0.00053458804
0.00033130006
0.0014080055
0.00048697673
0.00036217182
0.0014342805
0.00034546572
0.0013027518
0.00042056986
1.594811e-05
-1.749012e-06
1.5388704e-05
7.2193895e-05
-7.3391436e-07
7.7982234e-05
0.00017746513
1.7438931e-05
0.00021504591
0.00031605588
7.4292489e-05
0.00045858837
0.00044253321
0.00017825888
0.00079614191
0.00051144417
0.00030322759
0.0011354662
0.00051343404
0.00039727832
0.0013504028
0.00047010941
0.00043605635
0.0013807511
0.00041553709
0.001257301
0.00040966322
1.4188546e-05
-1.9156931e-06
1.4392591e-05
6.4743716e-05
-9.7429469e-07
7.2862526e-05
0.0001606425
1.8466342e-05
0.00020091544
0.00028950586
8.0610403e-05
0.00042898697
0.00041081525
0.00019711459
0.00074706115
0.00048089325
0.00034060785
0.001070837
0.0004874827
0.0004520201
0.001280515
0.00044870704
0.00050026455
0.0013152733
0.00047691186
0.0012010175
0.00039296667
1.2217693e-05
-1.9854403e-06
1.3266221e-05
5.6321771e-05
-1.2086664e-06
6.7064795e-05
0.00014144816
1.8400036e-05
0.0001848782
0.00025893646
8.2709385e-05
0.00039528587
0.00037420838
0.00020687252
0.00069087199
0.00044604834
0.00036453026
0.00099616823
0.00045862682
0.00049241583
0.0011988879
0.00042650218
0.00055135395
0.0012378734
0.00052750843
0.001133431
0.00037662652
1.0132707e-05
-1.9653759e-06
1.2080475e-05
4.7305989e-05
-1.4620943e-06
6.0865881e-05
0.0001206169
1.7170479e-05
0.00016751623
0.00022521986
8.0278942e-05
0.00035838184
0.00033320789
0.00020648524
0.00062860267
0.00040734505
0.00037232067
0.00091214138
0.00042837662
0.00051433882
0.0011056319
0.00040672774
0.00058428884
0.0011479571
0.00056283047
0.0010534024
0.00036647313
8.0637027e-06
-1.8859779e-06
1.0825611e-05
3.8285179e-05
-1.8505099e-06
5.4296639e-05
9.9602861e-05
1.4515104e-05
0.0001490595
0.00019100759
7.2675478e-05
0.00031893177
0.00029203085
0.00019418264
0.00056140746
0.00036965523
0.00036132878
0.00082012316
0.00040136387
0.00051424006
0.0010017985
0.00039327214
0.00059516385
0.0010456512
0.000579213
0.00096021089
0.00036595088
6.0556424e-06
-1.7319468e-06
9.4875048e-06
2.9406831e-05
-2.2674924e-06
4.7342649e-05
7.8623062e-05
1.0731459e-05
0.00012956982
0.00015620975
6.0470297e-05
0.00027716725
0.00024951063
0.00017023362
0.00048966115
0.00033085906
0.00033064502
0.00072034766
0.00037582958
0.00048907466
0.00088681453
0.00038519554
0.00058007856
0.00092968825
0.00057312019
0.00085213453
0.00037474545
4.3784042e-06
-1.6577032e-06
8.141575e-06
2.1883667e-05
-3.1995524e-06
4.030754e-05
6.0360431e-05
5.3095963e-06
0.00010970793
0.00012458758
4.4093165e-05
0.00023413489
0.00020863154
0.00013674829
0.0004145219
0.00029202129
0.00028236138
0.00061335112
0.00035146187
0.00043844342
0.00075992093
0.0003817465
0.00053692998
0.00079820494
0.00054290578
0.00072694195
0.00039134463
3.2075756e-06
6.7145579e-06
-1.9066208e-06
1.604972e-05
3.295828e-05
-4.9414994e-06
4.4839015e-05
8.9114674e-05
-1.2038742e-06
9.5295848e-05
0.00018947694
2.6003108e-05
0.00016737526
0.00033552965
9.8508239e-05
0.00024944507
0.00049805365
0.00022194987
0.00032250796
0.00061871248
0.00036599717
0.00037677419
0.00064783498
0.00046602805
0.00058170663
0.00048658718
0.00041154948
7.2595242e-07
2.1518665e-07
6.4832818e-06
-7.0986752e-07
4.0183842e-06
-4.8103481e-08
3.178595e-05
-2.0720116e-06
1.2090557e-05
-3.8551632e-06
8.6379866e-05
-1.4822253e-06
2.7755361e-05
-1.9555972e-05
0.00018532215
8.0459177e-06
5.4176871e-05
-6.3340582e-05
0.00033170179
4.0746845e-05
9.3266036e-05
-0.00015028118
0.00049770395
0.00011154161
0.00014319886
-0.00026779679
0.00062340985
0.00021316652
0.00019515779
-0.00035993887
0.00065594841
0.00029986642
-0.00038491515
0.00058973391
0.00033368678
0.00023835883
9.5263677e-07
-2.3557484e-07
7.6397007e-06
5.4878469e-06
-2.1443257e-06
3.7868564e-05
1.6735606e-05
-9.3135191e-06
0.00010391854
3.791427e-05
-3.1201814e-05
0.00022460208
7.0759448e-05
-8.5312799e-05
0.00040364895
0.00011312861
-0.000185633
0.00060633382
0.00015770848
-0.00031238453
0.0007599288
0.00019658795
-0.0004039621
0.00080334877
-0.00042046685
0.00073305249
0.00022602914
1.2462087e-06
-6.4660628e-07
8.6523309e-06
7.1371706e-06
-4.0192885e-06
4.3326659e-05
2.161443e-05
-1.4139891e-05
0.00011991894
4.8237864e-05
-4.134676e-05
0.0002606888
8.6902739e-05
-0.00010380233
0.00046948591
0.00013090597
-0.00021341011
0.00070412165
0.000168737
-0.00034305897
0.00087965814
0.00019415696
-0.00042914304
0.00092944939
-0.00043668327
0.000854145
0.00020836303
1.5535569e-06
-9.8848469e-07
9.6139363e-06
8.8948654e-06
-5.5589026e-06
4.8494965e-05
2.6784085e-05
-1.7988408e-05
0.00013501885
5.8950515e-05
-4.9100134e-05
0.00029451883
0.00010320323
-0.00011713989
0.00053049239
0.00014808232
-0.00023126106
0.00079309516
0.00017910186
-0.00035823147
0.00098595166
0.00019238806
-0.0004353905
0.0010386127
-0.0004343885
0.00095689014
0.00019341417
1.8207377e-06
-1.2021805e-06
1.0473422e-05
1.0496959e-05
-6.5490709e-06
5.317979e-05
3.164692e-05
-2.0450227e-05
0.00014882805
6.9199604e-05
-5.3847046e-05
0.0003255761
0.00011868138
-0.00012439618
0.0005863772
0.00016387149
-0.00023798734
0.00087367765
0.00018853755
-0.00035773768
0.0010804722
0.00019179194
-0.00042422621
0.0011335387
-0.00041610913
0.0010442062
0.00018270901
2.1214557e-06
-1.3199048e-06
1.1262482e-05
1.2230722e-05
-7.077198e-06
5.7483649e-05
3.6789344e-05
-2.16435e-05
0.00016151286
7.9747271e-05
-5.5596621e-05
0.00035407738
0.00013398902
-0.000125196
0.00063743003
0.00017910067
-0.00023333039
0.00094639961
0.00019776446
-0.00034186364
0.0011643501
0.00019206659
-0.00039663146
0.0012159767
-0.00038303299
0.0011181444
0.00017427729
2.4034544e-06
-1.3346751e-06
1.2003878e-05
1.3838197e-05
-7.0997746e-06
6.1450351e-05
4.1489818e-05
-2.1428741e-05
0.00017304917
8.9200579e-05
-5.407712e-05
0.00037975669
0.00014739641
-0.00011929313
0.00068296257
0.00019162275
-0.00021721394
0.0010104944
0.00020408968
-0.00031089029
0.001237075
0.0001903424
-0.00035371951
0.0012861089
-0.00033655949
0.0011796099
0.00016527676
2.6454676e-06
-1.2381482e-06
1.2646693e-05
1.5208755e-05
-6.5709728e-06
6.4890147e-05
4.5455078e-05
-1.968316e-05
0.0001830541
9.6995502e-05
-4.9059863e-05
0.00040203078
0.00015785456
-0.00010638705
0.00072237703
0.00020038939
-0.00018989094
0.0010656087
0.00020724137
-0.00026622763
0.0012988885
0.00018694395
-0.00029743828
0.0013447676
-0.00027930814
0.0012299011
0.00015709281
2.845475e-06
-1.0350716e-06
1.3172388e-05
1.6324197e-05
-5.4986988e-06
6.7716783e-05
4.8627549e-05
-1.6410914e-05
0.00019131299
0.00010305821
-4.0561944e-05
0.00042048882
0.00016550799
-8.6752734e-05
0.00075508917
0.00020580403
-0.00015221738
0.0011111969
0.00020781844
-0.0002097831
0.001349547
0.00018342683
-0.00023095042
0.0013921847
-0.00021543292
0.001269775
0.00015252871
3.0044116e-06
-7.4424707e-07
1.3578662e-05
1.7193948e-05
-3.9608331e-06
6.9910182e-05
5.1052204e-05
-1.1801279e-05
0.00019773716
0.00010755188
-2.9003094e-05
0.000434873
0.0001709057
-6.1396385e-05
0.00078056133
0.00020941094
-0.00010634472
0.0011465216
0.00020810036
-0.0001445106
0.0013884641
0.00018190754
-0.00015759795
0.0014281346
-0.00014667839
0.0012995541
0.00015081264
3.1277427e-06
-3.9335119e-07
1.3912029e-05
1.7837113e-05
-2.0870836e-06
7.1593654e-05
5.2770765e-05
-6.195579e-06
0.00020243542
0.000110589
-1.5147263e-05
0.00044503594
0.0001743022
-3.1824326e-05
0.00079812586
0.00021135235
-5.4643038e-05
0.001170441
0.00020818415
-7.3584489e-05
0.0014144082
0.00018116659
-7.984605e-05
0.0014518039
-7.4242753e-05
0.0013189164
0.00014972009
3.1738452e-06
9.1905433e-12
1.4036375e-05
1.8095599e-05
1.4502565e-11
7.2296324e-05
5.3487768e-05
2.9226484e-12
0.00020455265
0.00011185631
-1.0984686e-10
0.00044987467
0.00017563015
-4.0897698e-10
0.00080678483
0.00021191387
-8.2607981e-10
0.001182454
0.00020796531
-1.1858747e-09
0.0014275379
0.00018064687
-1.3202081e-09
0.0014638152
-1.1347266e-09
0.0013287351
0.00014908002
3.1738382e-06
3.9337542e-07
1.4036373e-05
1.8095582e-05
2.0871261e-06
7.2296314e-05
5.3487706e-05
6.1956094e-06
0.00020455262
0.00011185621
1.5147086e-05
0.00044987461
0.00017563
3.1823561e-05
0.00080678474
0.00021191368
5.4641424e-05
0.0011824539
0.00020796508
7.358213e-05
0.0014275378
0.00018064663
7.984341e-05
0.0014638151
7.4240497e-05
0.0013287351
0.00014907974
3.1277374e-06
7.4427003e-07
1.3912029e-05
1.7837119e-05
3.9608754e-06
7.1593652e-05
5.2770711e-05
1.1801332e-05
0.00020243541
0.00011058891
2.9002996e-05
0.00044503593
0.00017430199
6.1395752e-05
0.00079812583
0.00021135198
0.00010634325
0.001170441
0.00020818362
0.00014450837
0.0014144081
0.00018116592
0.00015759542
0.0014518038
0.0001466763
0.0013189163
0.00014971923
3.0043999e-06
1.0351018e-06
1.3578658e-05
1.7193925e-05
5.4987664e-06
6.9910164e-05
5.1052076e-05
1.6411029e-05
0.00019773711
0.00010755168
4.0561947e-05
0.00043487289
0.00017090526
8.6752239e-05
0.00078056116
0.00020941025
0.00015221608
0.0011465213
0.00020809942
0.00020978105
0.0013884638
0.00018190638
0.00023094811
0.0014281343
0.00021543118
0.0012995538
0.00015081116
2.8454707e-06
1.2381921e-06
1.3172385e-05
1.6324161e-05
6.5710801e-06
6.7716771e-05
4.8627383e-05
1.9683344e-05
0.00019131296
0.00010305792
4.9059956e-05
0.00042048875
0.00016550739
0.0001063867
0.00075508905
0.0002058031
0.00018988985
0.0011111967
0.00020781718
0.00026622585
0.0013495468
0.00018342527
0.00029743628
0.0013921844
0.00027930686
0.0012697747
0.00015252673
2.6454729e-06
1.3347355e-06
1.2646692e-05
1.5208722e-05
7.0999354e-06
6.4890143e-05
4.5454877e-05
2.1429032e-05
0.00018305409
9.6995148e-05
5.4077356e-05
0.00040203076
0.00015785389
0.00011929295
0.00072237698
0.0002003884
0.0002172131
0.0010656086
0.00020723996
0.00031088881
0.0012988883
0.00018694218
0.00035371783
0.0013447674
0.0003365586
0.0012299008
0.00015709064
2.4034758e-06
1.3199738e-06
1.2003878e-05
1.3838201e-05
7.0773957e-06
6.1450352e-05
4.1489659e-05
2.1643863e-05
0.00017304917
8.9200323e-05
5.5597006e-05
0.0003797567
0.00014739586
0.00012519603
0.00068296258
0.00019162181
0.00023332981
0.0010104944
0.00020408828
0.00034186245
0.0012370749
0.00019034063
0.00039663005
0.0012861087
0.00038303231
0.0011796096
0.00016527479
2.1214529e-06
1.2022574e-06
1.1262485e-05
1.2230691e-05
6.5492987e-06
5.7483664e-05
3.6789229e-05
2.0450642e-05
0.0001615129
7.9747093e-05
5.3847562e-05
0.00035407747
0.00013398857
0.00012439639
0.00063743017
0.00017909986
0.00023798702
0.00094639976
0.00019776324
0.00035773678
0.0011643502
0.00019206503
0.00042422504
0.0012159766
0.00041610842
0.0011181442
0.00017427582
1.8207481e-06
9.8855806e-07
1.0473423e-05
1.0496988e-05
5.5591428e-06
5.3179796e-05
3.1646917e-05
1.7988863e-05
0.00014882806
6.9199468e-05
4.9100705e-05
0.00032557614
0.00011868109
0.00011714024
0.00058637724
0.00016387092
0.00023126096
0.00087367766
0.00018853661
0.00035823085
0.0010804721
0.00019179066
0.0004353896
0.0011335385
0.00043438755
0.001044206
0.00018270802
1.5535559e-06
6.466711e-07
9.6139367e-06
8.8948778e-06
4.0194961e-06
4.8494965e-05
2.6784122e-05
1.4140284e-05
0.00013501884
5.8950549e-05
4.1347273e-05
0.00029451882
0.00010320324
0.00010380273
0.00053049236
0.00014808219
0.00021341011
0.00079309509
0.00017910149
0.00034305852
0.00098595155
0.00019238722
0.00042914257
0.0010386126
0.00043668215
0.00095688999
0.00019341357
1.2462156e-06
2.3562441e-07
8.6523314e-06
7.1372247e-06
2.1444833e-06
4.3326659e-05
2.1614586e-05
9.3138359e-06
0.00011991893
4.8238157e-05
3.1202235e-05
0.00026068877
8.6903106e-05
8.531308e-05
0.00046948586
0.00013090639
0.00018563288
0.00070412155
0.00016873734
0.00031238412
0.00087965801
0.00019415681
0.00040396214
0.00092944927
0.00042046612
0.00085414489
0.00020836256
9.5265987e-07
-2.1516074e-07
7.6397041e-06
5.4879468e-06
4.8187157e-08
3.7868576e-05
1.6735869e-05
3.8553208e-06
0.00010391857
3.7914779e-05
1.9556139e-05
0.00022460211
7.076018e-05
6.3340579e-05
0.00040364898
0.00011312956
0.00015028082
0.00060633385
0.0001577095
0.00026779642
0.00075992881
0.00019658867
0.00035993913
0.00080334881
0.00038491535
0.00073305251
0.00022602889
7.260048e-07
6.4832875e-06
-7.098897e-07
4.0186047e-06
3.1785972e-05
-2.072091e-06
1.2091081e-05
8.6379915e-05
-1.482398e-06
2.7756317e-05
0.00018532223
8.0455797e-06
5.4178418e-05
0.00033170189
4.0746242e-05
9.3268262e-05
0.00049770406
0.00011154068
0.00014320161
0.00062340995
0.0002131655
0.00019516093
0.00065594853
0.00029986632
0.00058973399
0.00033368872
0.00023836021
-2.8053863e-07
-2.9792686e-08
6.8287106e-06
-3.5097436e-08
-1.3630784e-06
-8.4540085e-07
3.3290422e-05
4.2347017e-07
-3.179057e-06
-4.4122545e-06
8.9808885e-05
2.7992207e-06
-3.9485048e-06
-1.547581e-05
0.00019108106
1.0486356e-05
9.0350289e-07
-4.2607967e-05
0.00033955448
2.9903264e-05
1.7464399e-05
-9.4009465e-05
0.00050725962
6.7892899e-05
4.6556792e-05
-0.00016082877
0.00063449372
0.00012065252
8.2173748e-05
-0.00021893118
0.00066783351
0.00017142913
-0.0002428192
0.00060040422
0.0001985383
0.00011578432
-3.4863083e-07
-3.6482128e-08
7.9950214e-06
-1.5677107e-06
-1.1375045e-06
3.9379751e-05
-3.3443429e-06
-5.9048922e-06
0.00010718782
-3.3604167e-06
-2.0425082e-05
0.00022956742
3.3897776e-06
-5.518218e-05
0.00040947297
2.2030012e-05
-0.00011893927
0.00061262339
5.1521185e-05
-0.00019777588
0.00076738471
8.3596099e-05
-0.00025976469
0.00081210736
-0.00027972823
0.00074147118
0.00011208643
-3.2841661e-07
-4.65733e-08
8.9908377e-06
-1.4334123e-06
-1.4192502e-06
4.4713394e-05
-2.7359866e-06
-7.3406214e-06
0.00012265722
-1.3409626e-06
-2.5162003e-05
0.00026403064
8.128554e-06
-6.6961173e-05
0.00047179533
2.9227134e-05
-0.00014093584
0.0007050196
5.8067411e-05
-0.00022794602
0.00088098796
8.5746671e-05
-0.00029048224
0.00093248764
-0.00030487299
0.00085787552
0.00010716085
-2.360666e-07
-1.0917833e-07
9.912607e-06
-9.3904505e-07
-1.866783e-06
4.9645473e-05
-1.1859604e-06
-8.9919406e-06
0.00013691707
2.4350122e-06
-2.9833711e-05
0.00029556955
1.5520857e-05
-7.7687466e-05
0.00052813279
3.9185001e-05
-0.00015843162
0.00078692671
6.6758974e-05
-0.00024879228
0.00097922388
8.9402562e-05
-0.000308536
0.0010340229