/*--------------------------------*- C++ -*----------------------------------*\
| =========                 |                                                 |
| \\      /  F ield         | OpenFOAM: The Open Source CFD Toolbox           |
|  \\    /   O peration     | Version:  2406                                  |
|   \\  /    A nd           | Website:  www.openfoam.com                      |
|    \\/     M anipulation  |                                                 |
\*---------------------------------------------------------------------------*/
FoamFile
{
    version     2.0;
    format      ascii;
    arch        "LSB;label=32;scalar=64";
    class       volVectorField;
    location    "14.25";
    object      U;
}
// * * * * * * * * * * * * * * * * * * * * * * * * * * * * * * * * * * * * * //

dimensions      [0 1 -1 0 0 0 0];

internalField   nonuniform List<vector> 
34560
(
(0.067201147 -0.0011461983 -0.015965756)
(0.21516805 -0.0023737548 -0.051460406)
(0.39606711 -0.0041932241 -0.092511799)
(0.60173894 -0.0060616774 -0.13555192)
(0.81609495 -0.0085873249 -0.17350799)
(1.0164388 -0.011930449 -0.19921339)
(1.1788392 -0.015248466 -0.20778731)
(1.2951045 -0.0186004 -0.20185739)
(1.3718751 -0.020522904 -0.18786911)
(0.08168951 -0.001645155 -0.018602878)
(0.25734553 -0.0033372566 -0.059557127)
(0.46593398 -0.0054111837 -0.1056261)
(0.69456858 -0.007162292 -0.15210739)
(0.92286143 -0.0092834099 -0.19048428)
(1.125413 -0.012063778 -0.21309008)
(1.2796879 -0.014650884 -0.21604842)
(1.3819125 -0.016764829 -0.20380038)
(1.446069 -0.017942222 -0.18293855)
(0.096556812 -0.0017405361 -0.020583549)
(0.29967107 -0.003277223 -0.065800223)
(0.53437672 -0.0051307279 -0.11567403)
(0.78288746 -0.0066329669 -0.16466695)
(1.0213901 -0.0085721518 -0.20322962)
(1.2231931 -0.011346713 -0.2234589)
(1.3686331 -0.014093857 -0.22262353)
(1.4580937 -0.015935612 -0.20606338)
(1.5116938 -0.01704191 -0.18215574)
(0.11189452 -0.001924429 -0.022469412)
(0.34242885 -0.0034431495 -0.071664332)
(0.60207931 -0.0050768142 -0.12486854)
(0.86827355 -0.0062280466 -0.17574102)
(1.1143319 -0.0078416523 -0.21403683)
(1.3136952 -0.010409501 -0.23179876)
(1.4501921 -0.013114955 -0.22770925)
(1.5279906 -0.014588344 -0.20788371)
(1.5718379 -0.015245726 -0.18193046)
(0.1269192 -0.0019152676 -0.024050407)
(0.38375874 -0.0031907383 -0.076670556)
(0.66667618 -0.0044681426 -0.13265246)
(0.9486288 -0.0052480431 -0.18495808)
(1.2005335 -0.0065761558 -0.22288862)
(1.3968186 -0.0089021675 -0.23839934)
(1.5247725 -0.011423646 -0.23154248)
(1.5920599 -0.012497143 -0.2091422)
(1.6269348 -0.012778409 -0.18176319)
(0.14130792 -0.0018402024 -0.025338317)
(0.42283583 -0.0028996259 -0.080831006)
(0.72701489 -0.0038423849 -0.139111)
(1.0227614 -0.0042828643 -0.19254317)
(1.2792383 -0.0053203688 -0.23009129)
(1.4722655 -0.0073253241 -0.24360924)
(1.5920942 -0.0094892859 -0.23426358)
(1.6502842 -0.010226569 -0.2099838)
(1.6770558 -0.010209182 -0.18152995)
(0.15476745 -0.0016993145 -0.026431654)
(0.45894496 -0.0025366036 -0.084371076)
(0.78214355 -0.0031635351 -0.14454485)
(1.0897415 -0.0033060377 -0.19881757)
(1.3497702 -0.004070725 -0.23591686)
(1.5396438 -0.0057340336 -0.24763235)
(1.6521442 -0.0075033514 -0.23612676)
(1.7023966 -0.0079745711 -0.21040716)
(1.7219312 -0.007738712 -0.1810873)
(0.1666373 -0.001496677 -0.027313543)
(0.49056765 -0.0021288476 -0.087270881)
(0.83014013 -0.0024975575 -0.14897943)
(1.147767 -0.0024260694 -0.20388687)
(1.4107281 -0.0029612564 -0.24054169)
(1.5979649 -0.0042870422 -0.25067316)
(1.7043015 -0.0056678563 -0.23733963)
(1.7477607 -0.0059209844 -0.21045183)
(1.7609626 -0.0055346035 -0.1803992)
(0.17652032 -0.0012221125 -0.027990257)
(0.51677381 -0.0016557453 -0.089541369)
(0.86978414 -0.0018295632 -0.15245127)
(1.1956239 -0.0016433601 -0.20782789)
(1.461027 -0.0020109671 -0.24407661)
(1.6462705 -0.0030292096 -0.25286173)
(1.7477103 -0.0040567067 -0.2380098)
(1.78555 -0.0041468538 -0.21015642)
(1.7934165 -0.0036965677 -0.17951468)
(0.18417417 -0.00090283838 -0.028475671)
(0.53700172 -0.0011878926 -0.091205003)
(0.90030507 -0.0012578061 -0.15500425)
(1.2324126 -0.001063018 -0.21071771)
(1.4997688 -0.0013080158 -0.24661142)
(1.6836152 -0.0020265994 -0.25430784)
(1.7814025 -0.0027218107 -0.23825477)
(1.8148601 -0.0027002989 -0.20963551)
(1.8185655 -0.0022758625 -0.17859032)
(0.18961821 -0.00058561598 -0.028830335)
(0.55120514 -0.000794063 -0.092381592)
(0.92149708 -0.00083571104 -0.15676667)
(1.2577135 -0.00069171152 -0.21266364)
(1.5262987 -0.0008126198 -0.24823678)
(1.7091369 -0.0012142648 -0.25512664)
(1.8044249 -0.0015911808 -0.23822351)
(1.834845 -0.0015215956 -0.20907573)
(1.8357033 -0.0012108034 -0.17780861)
(0.19217581 -0.00017626144 -0.028987382)
(0.55797656 -0.00018803502 -0.092936881)
(0.9317324 -0.00015632473 -0.15761191)
(1.2700858 -8.2199375e-05 -0.21360544)
(1.5394266 -0.00012747578 -0.24902043)
(1.7218944 -0.0002870856 -0.25549894)
(1.8160142 -0.00044236206 -0.23815764)
(1.8449282 -0.00044066304 -0.20873835)
(1.8443619 -0.0003512352 -0.17737275)
(0.19217581 0.00017624393 -0.028987375)
(0.55797656 0.00018796788 -0.092936885)
(0.9317324 0.00015620893 -0.1576119)
(1.2700857 8.203264e-05 -0.21360542)
(1.5394266 0.00012723533 -0.24902043)
(1.7218944 0.00028679137 -0.25549894)
(1.8160142 0.00044201167 -0.23815763)
(1.8449282 0.00044022833 -0.20873833)
(1.8443619 0.00035075308 -0.17737273)
(0.18961821 0.00058561363 -0.02883033)
(0.55120514 0.0007940182 -0.09238158)
(0.92149708 0.00083562196 -0.15676669)
(1.2577135 0.00069159561 -0.21266363)
(1.5262986 0.00081243645 -0.24823679)
(1.7091368 0.0012139945 -0.25512665)
(1.8044249 0.0015908186 -0.23822346)
(1.834845 0.00152116 -0.20907564)
(1.8357032 0.0012103301 -0.17780856)
(0.18417417 0.00090284551 -0.028475715)
(0.53700171 0.0011879067 -0.091205033)
(0.90030505 0.0012577995 -0.1550044)
(1.2324126 0.0010629773 -0.21071781)
(1.4997687 0.0013078805 -0.24661147)
(1.6836151 0.0020263416 -0.25430781)
(1.7814024 0.0027214485 -0.23825466)
(1.8148599 0.002699889 -0.20963538)
(1.8185654 0.0022754197 -0.17859027)
(0.17652031 0.0012221318 -0.027990341)
(0.51677379 0.0016558102 -0.089541479)
(0.86978412 0.0018296192 -0.15245144)
(1.1956238 0.0016433173 -0.20782796)
(1.4610269 0.0020108036 -0.24407662)
(1.6462704 0.0030289532 -0.25286165)
(1.7477101 0.0040563935 -0.23800966)
(1.7855498 0.0041465102 -0.21015624)
(1.7934164 0.0036961697 -0.17951459)
(0.16663729 0.0014966748 -0.02731355)
(0.49056763 0.0021288304 -0.087270904)
(0.8301401 0.0024975368 -0.14897939)
(1.1477669 0.0024259346 -0.20388678)
(1.410728 0.0029610412 -0.24054168)
(1.5979647 0.0042868174 -0.2506731)
(1.7043013 0.0056676317 -0.23733949)
(1.7477606 0.0059207235 -0.21045158)
(1.7609624 0.0055342656 -0.18039896)
(0.15476744 0.0016993182 -0.026431584)
(0.45894493 0.0025365281 -0.084371077)
(0.78214349 0.003163459 -0.14454471)
(1.0897414 0.0033059326 -0.19881751)
(1.3497701 0.0040705678 -0.23591699)
(1.5396437 0.0057338857 -0.24763237)
(1.6521441 0.0075031898 -0.23612661)
(1.7023965 0.0079743662 -0.21040682)
(1.721931 0.0077384418 -0.18108687)
(0.14130791 0.0018402159 -0.025338327)
(0.42283579 0.0028996216 -0.080831018)
(0.7270148 0.0038423518 -0.13911101)
(1.0227613 0.0042828803 -0.19254331)
(1.2792381 0.0053203151 -0.23009148)
(1.4722654 0.007325298 -0.24360925)
(1.5920941 0.0094891955 -0.23426336)
(1.6502841 0.010226388 -0.20998337)
(1.6770556 0.010208917 -0.18152946)
(0.12691919 0.0019152824 -0.02405038)
(0.38375871 0.0031907146 -0.076670578)
(0.66667613 0.0044680913 -0.13265259)
(0.94862874 0.0052480617 -0.18495822)
(1.2005334 0.006576179 -0.22288871)
(1.3968185 0.0089021956 -0.23839932)
(1.5247724 0.011423707 -0.23154218)
(1.5920598 0.012497033 -0.20914167)
(1.6269347 0.012778115 -0.1817627)
(0.11189451 0.0019244464 -0.022469417)
(0.34242882 0.0034431215 -0.071664477)
(0.60207927 0.0050768127 -0.12486872)
(0.86827349 0.006228046 -0.17574119)
(1.1143318 0.0078417401 -0.21403696)
(1.3136951 0.0104096 -0.23179875)
(1.4501921 0.013115204 -0.22770895)
(1.5279905 0.014588395 -0.20788304)
(1.5718378 0.015245488 -0.18193004)
(0.096556808 0.0017405693 -0.020583596)
(0.29967106 0.0032772594 -0.065800382)
(0.53437671 0.0051308224 -0.11567417)
(0.78288746 0.0066330653 -0.16466708)
(1.0213901 0.0085723006 -0.20322969)
(1.2231931 0.011346909 -0.2234589)
(1.3686331 0.014094169 -0.22262313)
(1.4580937 0.015936165 -0.20606279)
(1.5116937 0.01704194 -0.18215558)
(0.081689514 0.0016451755 -0.018602891)
(0.25734555 0.0033372782 -0.059557162)
(0.46593401 0.0054112595 -0.1056261)
(0.69456864 0.0071624158 -0.15210741)
(0.9228615 0.0092835579 -0.1904843)
(1.125413 0.012063938 -0.21309)
(1.279688 0.014651024 -0.21604828)
(1.3819125 0.016765321 -0.20379988)
(1.4460689 0.017942375 -0.18293774)
(0.06720116 0.0011462052 -0.01596575)
(0.21516809 0.00237374 -0.051460397)
(0.39606721 0.0041932225 -0.092511786)
(0.6017391 0.006061726 -0.13555189)
(0.81609517 0.0085874378 -0.17350784)
(1.016439 0.011930549 -0.19921323)
(1.1788393 0.015248545 -0.20778716)
(1.2951046 0.018600408 -0.20185639)
(1.3718751 0.020522752 -0.18786803)
(0.04573016 0.0013573752 0.00098350694)
(0.16037479 0.0029323135 0.0010911994)
(0.32166226 0.0025968936 -0.003274919)
(0.53135325 -0.0016155556 -0.014937717)
(0.77571187 -0.011066064 -0.034620146)
(1.0247011 -0.02508908 -0.058485843)
(1.2435604 -0.041063434 -0.079982502)
(1.4073948 -0.054912658 -0.092597828)
(1.5069285 -0.063960427 -0.095607235)
(0.052101266 0.00117116 0.00060056351)
(0.18279287 0.001915362 -0.0004459359)
(0.36591112 8.7920653e-05 -0.0070451544)
(0.60048124 -0.0062899149 -0.022074243)
(0.86496443 -0.018018817 -0.045327673)
(1.1209904 -0.033355734 -0.070909433)
(1.331889 -0.049004655 -0.091003444)
(1.479889 -0.061244541 -0.10032494)
(1.5656576 -0.067989962 -0.099226358)
(0.058123894 0.0013552021 0.00049712395)
(0.20406708 0.002017893 -0.0011323202)
(0.40791593 -0.00045029383 -0.0093018357)
(0.66565644 -0.0080313741 -0.026760499)
(0.94734362 -0.02091926 -0.052333456)
(1.2068332 -0.036380941 -0.078421148)
(1.4072853 -0.050761419 -0.096538092)
(1.5399273 -0.061285263 -0.10333519)
(1.6146714 -0.066496714 -0.099874897)
(0.064266694 0.0014254467 0.00028928033)
(0.22545665 0.0019385757 -0.0020301592)
(0.4495809 -0.0010034604 -0.011762785)
(0.72933723 -0.0093004309 -0.031389551)
(1.0265996 -0.022582615 -0.058550727)
(1.2879212 -0.037450314 -0.084417751)
(1.4775262 -0.050160772 -0.10030078)
(1.595808 -0.058947759 -0.10499825)
(1.6602379 -0.063025683 -0.099962432)
(0.070110836 0.0014667429 7.7550829e-05)
(0.24584257 0.001894187 -0.0028608375)
(0.48926778 -0.0012835237 -0.013945845)
(0.78975518 -0.0098197593 -0.035350824)
(1.1014082 -0.022877355 -0.063483243)
(1.3641966 -0.03671655 -0.08899104)
(1.5437287 -0.047684635 -0.10286568)
(1.6488912 -0.054843404 -0.1060046)
(1.7034239 -0.057928184 -0.10001456)
(0.075669359 0.0014611668 -0.00014780042)
(0.2651586 0.00184822 -0.0036508878)
(0.52669701 -0.0013446371 -0.01586718)
(0.84636704 -0.0096686974 -0.038613247)
(1.1710966 -0.021952807 -0.067259876)
(1.4352236 -0.034394112 -0.092351745)
(1.6060724 -0.043640342 -0.10467049)
(1.6993228 -0.049300536 -0.10662007)
(1.7445978 -0.051578668 -0.10028674)
(0.081018046 0.0013731228 -0.00038065252)
(0.28348166 0.0016899553 -0.0044077974)
(0.56176531 -0.0013702838 -0.017583187)
(0.89881624 -0.0091140812 -0.041360098)
(1.2350406 -0.020175445 -0.070202499)
(1.5001043 -0.030943737 -0.094579321)
(1.6636661 -0.038496031 -0.10585728)
(1.7466463 -0.042880932 -0.10699022)
(1.7836797 -0.044587837 -0.10084294)
(0.085775164 0.0012208722 -0.00059832217)
(0.29976696 0.0014674204 -0.005073536)
(0.59288884 -0.001301056 -0.019008792)
(0.94527084 -0.0081349811 -0.043527089)
(1.2915713 -0.017632166 -0.072354612)
(1.557582 -0.026591022 -0.096035523)
(1.7152218 -0.032590033 -0.10651705)
(1.7898441 -0.035997033 -0.10709371)
(1.819984 -0.037343742 -0.10124899)
(0.089760692 0.0010062872 -0.00078935312)
(0.31344498 0.0011777759 -0.0056271692)
(0.61907626 -0.001159449 -0.020129942)
(0.9843975 -0.0068062901 -0.045135904)
(1.3392613 -0.014480355 -0.073795186)
(1.6062341 -0.021555536 -0.096772418)
(1.7593071 -0.02614897 -0.10666783)
(1.8274885 -0.028776582 -0.10684127)
(1.8521021 -0.029792536 -0.10087075)
(0.092888522 0.00075049492 -0.00094051657)
(0.32422471 0.00085924835 -0.0060445715)
(0.63975872 -0.00092237802 -0.020928532)
(1.0153069 -0.0051523824 -0.04619763)
(1.3768734 -0.010804361 -0.074605348)
(1.6446357 -0.015940705 -0.096942812)
(1.7942535 -0.019234956 -0.10615344)
(1.8578295 -0.021114769 -0.10602824)
(1.8781192 -0.02176551 -0.099324756)
(0.095375852 0.0004629141 -0.0010466912)
(0.33246397 0.00052024169 -0.0063288351)
(0.65506667 -0.00060139399 -0.021445171)
(1.0375777 -0.0032228671 -0.046817685)
(1.4034072 -0.0066814578 -0.074965085)
(1.6714215 -0.009799754 -0.096769533)
(1.8185759 -0.011804225 -0.1054813)
(1.8790264 -0.012937865 -0.1048714)
(1.8963268 -0.013261308 -0.097711969)
(0.096412093 0.00013771283 -0.0010975524)
(0.33612699 0.00012122252 -0.0064583708)
(0.6622075 -0.00028282224 -0.021666379)
(1.0483524 -0.0011805342 -0.047061569)
(1.4165556 -0.0023434393 -0.075052592)
(1.6848876 -0.0033751513 -0.096560012)
(1.8309172 -0.0040264482 -0.10500772)
(1.8898417 -0.0043814542 -0.1040637)
(1.9056212 -0.0044581509 -0.096725364)
(0.096412091 -0.00013770148 -0.0010975532)
(0.33612699 -0.00012122016 -0.0064583759)
(0.66220749 0.00028279666 -0.021666383)
(1.0483524 0.0011804246 -0.047061567)
(1.4165556 0.0023432045 -0.075052595)
(1.6848875 0.0033748067 -0.09656001)
(1.8309172 0.0040260296 -0.1050077)
(1.8898417 0.0043809737 -0.10406366)
(1.9056212 0.0044576938 -0.096725342)
(0.095375847 -0.00046289488 -0.0010466944)
(0.33246395 -0.00052022312 -0.0063288418)
(0.65506664 0.00060139227 -0.021445188)
(1.0375777 0.0032227987 -0.046817689)
(1.4034071 0.0066812739 -0.074965095)
(1.6714214 0.0097994448 -0.096769516)
(1.8185758 0.011803827 -0.10548123)
(1.8790262 0.012937404 -0.1048713)
(1.8963266 0.013260858 -0.0977119)
(0.09288851 -0.0007504765 -0.00094053084)
(0.32422467 -0.00085922047 -0.0060445989)
(0.63975865 0.00092239856 -0.020928598)
(1.0153068 0.0051523534 -0.046197678)
(1.3768733 0.010804223 -0.074605372)
(1.6446355 0.01594043 -0.096942762)
(1.7942533 0.019234594 -0.10615331)
(1.8578293 0.021114355 -0.10602806)
(1.878119 0.021765091 -0.09932463)
(0.089760676 -0.0010062695 -0.00078938581)
(0.31344493 -0.0011777405 -0.0056272445)
(0.61907617 0.0011594831 -0.020130041)
(0.98439736 0.0068062634 -0.045135963)
(1.3392611 0.014480222 -0.073795192)
(1.6062339 0.021555289 -0.096772329)
(1.7593068 0.026148665 -0.10666766)
(1.8274882 0.028776252 -0.10684101)
(1.8521019 0.029792179 -0.10087055)
(0.085775145 -0.001220859 -0.00059834125)
(0.2997669 -0.0014674112 -0.005073611)
(0.59288874 0.0013010594 -0.019008827)
(0.94527068 0.0081349109 -0.043527101)
(1.2915711 0.017632015 -0.072354609)
(1.5575818 0.026590819 -0.096035436)
(1.7152215 0.032589807 -0.10651687)
(1.7898438 0.035996806 -0.10709339)
(1.8199837 0.037343463 -0.10124868)
(0.081018027 -0.0013731041 -0.00038064655)
(0.28348159 -0.0016899628 -0.0044078589)
(0.56176518 0.0013702698 -0.01758319)
(0.89881605 0.0091140164 -0.041360147)
(1.2350404 0.020175325 -0.070202574)
(1.500104 0.030943597 -0.094579282)
(1.6636659 0.038495877 -0.10585709)
(1.7466461 0.042880794 -0.10698982)
(1.7836794 0.044587635 -0.1008425)
(0.075669342 -0.0014611402 -0.00014779903)
(0.26515854 -0.0018481994 -0.0036509365)
(0.52669691 0.0013446568 -0.01586723)
(0.84636689 0.0096687026 -0.038613382)
(1.1710965 0.02195275 -0.067259989)
(1.4352234 0.034394038 -0.092351701)
(1.6060723 0.043640247 -0.10467027)
(1.6993226 0.049300457 -0.10661961)
(1.7445976 0.051578505 -0.10028625)
(0.070110828 -0.0014667171 7.7542684e-05)
(0.24584254 -0.0018941722 -0.0028609334)
(0.48926774 0.0012835514 -0.013945973)
(0.78975511 0.009819792 -0.035350968)
(1.1014081 0.02287735 -0.063483309)
(1.3641965 0.036716532 -0.088990975)
(1.5437286 0.04768459 -0.10286543)
(1.6488911 0.054843337 -0.10600408)
(1.7034237 0.057928021 -0.10001405)
(0.064266697 -0.0014254258 0.00028926381)
(0.22545665 -0.0019385742 -0.0020302678)
(0.4495809 0.0010034863 -0.011762904)
(0.72933721 0.009300462 -0.03138966)
(1.0265995 0.022582665 -0.058550782)
(1.2879211 0.037450361 -0.084417681)
(1.4775261 0.050160791 -0.10030049)
(1.5958079 0.058947685 -0.10499766)
(1.6602378 0.063025518 -0.099961984)
(0.058123901 -0.0013551837 0.00049710828)
(0.2040671 -0.0020178861 -0.0011323953)
(0.40791596 0.00045033015 -0.0093019141)
(0.66565648 0.0080314303 -0.026760593)
(0.94734365 0.020919368 -0.052333502)
(1.2068332 0.036381078 -0.078421055)
(1.4072853 0.050761534 -0.096537743)
(1.5399274 0.061285285 -0.10333461)
(1.6146714 0.066496558 -0.099874505)
(0.052101283 -0.0011711552 0.00060056283)
(0.18279293 -0.001915375 -0.00044595134)
(0.36591122 -8.7909102e-05 -0.0070451639)
(0.60048139 0.0062899573 -0.022074278)
(0.86496459 0.018018897 -0.045327676)
(1.1209905 0.033355859 -0.070909301)
(1.3318892 0.049004787 -0.091003103)
(1.4798891 0.061244586 -0.1003243)
(1.5656577 0.067989786 -0.099225791)
(0.045730187 -0.001357377 0.00098351309)
(0.16037488 -0.0029323295 0.0010912064)
(0.32166241 -0.0025969045 -0.0032749151)
(0.53135346 0.0016155644 -0.014937711)
(0.77571211 0.01106609 -0.034620086)
(1.0247013 0.025089105 -0.058485686)
(1.2435607 0.041063488 -0.079982092)
(1.4073951 0.054912668 -0.092597035)
(1.5069288 0.063960226 -0.095606729)
(0.034938149 0.00038092921 0.00028370048)
(0.12679714 0.00082147103 0.00034197951)
(0.26369706 0.00059618278 -0.00094527354)
(0.45394312 -0.0014306787 -0.0048502839)
(0.69300226 -0.0070455601 -0.012743212)
(0.95486442 -0.017608353 -0.024875509)
(1.1956094 -0.032089848 -0.039074337)
(1.3785655 -0.04577177 -0.049946853)
(1.4888212 -0.055078916 -0.05480659)
(0.037553635 -2.8455783e-06 -8.4979527e-05)
(0.13775327 -0.00038250696 -0.00080683517)
(0.28862927 -0.0015701927 -0.0031023476)
(0.49826924 -0.0047138918 -0.0083176379)
(0.75793513 -0.011666889 -0.01780097)
(1.0332116 -0.023553477 -0.031427824)
(1.2733568 -0.038592112 -0.045856201)
(1.4438905 -0.051608105 -0.05530937)
(1.5414421 -0.059220899 -0.057993855)
(0.039526857 -0.00023759556 -0.00026731924)
(0.14660701 -0.0011467901 -0.0014178705)
(0.30957966 -0.0029695598 -0.0043486324)
(0.53621345 -0.0068252485 -0.010441475)
(0.81352636 -0.014516226 -0.020932541)
(1.0989288 -0.026812315 -0.035296824)
(1.3359978 -0.041308799 -0.049270732)
(1.4946531 -0.053038272 -0.057190289)
(1.5824708 -0.059257988 -0.058021731)
(0.041488544 -0.00048299795 -0.0004130845)
(0.15520173 -0.0019059955 -0.0018984129)
(0.32962093 -0.0042832986 -0.0053483688)
(0.57206949 -0.0086805204 -0.012168119)
(0.86540703 -0.016822821 -0.023428928)
(1.159434 -0.029141671 -0.038176358)
(1.3928366 -0.042689592 -0.051372971)
(1.5404395 -0.052882011 -0.057675197)
(1.6193212 -0.0577871 -0.056913138)
(0.043239181 -0.00064938487 -0.00047507003)
(0.16304778 -0.0024381344 -0.0021271843)
(0.34814885 -0.0052189669 -0.005919901)
(0.60548726 -0.009991718 -0.013303524)
(0.91395295 -0.018349831 -0.025206078)
(1.2160655 -0.030411516 -0.040007228)
(1.4461652 -0.042786665 -0.052276042)
(1.5837834 -0.051386384 -0.057066282)
(1.6541002 -0.055004323 -0.05503329)
(0.044927696 -0.00074789809 -0.00047949371)
(0.17051635 -0.0027610792 -0.0021748096)
(0.36567596 -0.0057859738 -0.0061695633)
(0.63707315 -0.010734061 -0.01396618)
(0.95982761 -0.019011695 -0.026292945)
(1.2693488 -0.030449261 -0.040743943)
(1.4966429 -0.041472204 -0.051976765)
(1.6253799 -0.048503107 -0.055335785)
(1.6875663 -0.050968044 -0.052230361)
(0.046707015 -0.00079468972 -0.0004547411)
(0.17795915 -0.0029070808 -0.0021189954)
(0.38259752 -0.0060122411 -0.0062026714)
(0.6670517 -0.010910561 -0.014231216)
(1.0030938 -0.01878818 -0.026746584)
(1.3193227 -0.029215345 -0.040744967)
(1.5439793 -0.038717755 -0.050594611)
(1.6648193 -0.044223697 -0.052571946)
(1.7193748 -0.045685965 -0.048453149)
(0.048331481 -0.00077499322 -0.00040439235)
(0.18469691 -0.0028299684 -0.0019709081)
(0.39785416 -0.0058195486 -0.0060311627)
(0.69409867 -0.010415899 -0.01411471)
(1.0422212 -0.017550865 -0.026566595)
(1.3645679 -0.026609318 -0.039881681)
(1.5870307 -0.034437062 -0.048293889)
(1.7010219 -0.038498601 -0.04904962)
(1.7485684 -0.039140425 -0.044177358)
(0.049713834 -0.00068886558 -0.00034162548)
(0.19043454 -0.0025204182 -0.0017720659)
(0.41089251 -0.0051755933 -0.005726762)
(0.71740791 -0.0091845579 -0.013736909)
(1.0759684 -0.015214251 -0.025930874)
(1.4036921 -0.022580709 -0.038490288)
(1.6243655 -0.028636038 -0.045495363)
(1.7326378 -0.031424479 -0.045263775)
(1.7740933 -0.031535348 -0.040236166)
(0.050827567 -0.00054109369 -0.00027844591)
(0.19505156 -0.0019872538 -0.0015644152)
(0.42138122 -0.0040850865 -0.0053760879)
(0.73620185 -0.0072138829 -0.013240322)
(1.1031522 -0.011801443 -0.025101796)
(1.4351634 -0.017221383 -0.03694119)
(1.6544363 -0.021470851 -0.04295252)
(1.758135 -0.02324592 -0.041960191)
(1.794821 -0.023132974 -0.037417098)
(0.051859518 -0.00034739516 -0.00022967744)
(0.19891439 -0.0012771983 -0.0014005805)
(0.42957574 -0.0026269389 -0.0050882928)
(0.75022066 -0.0046226947 -0.012810649)
(1.1228049 -0.0074936289 -0.024376233)
(1.4574753 -0.010799237 -0.035654558)
(1.6755054 -0.013292953 -0.040932332)
(1.776003 -0.014267121 -0.03967121)
(1.8093755 -0.014144521 -0.035421781)
(0.052207131 -0.0001224533 -0.00020371272)
(0.20044072 -0.00044760039 -0.0013111937)
(0.43315992 -0.00091372088 -0.0049239243)
(0.75680169 -0.0015967957 -0.012555624)
(1.1324264 -0.0025726818 -0.023950981)
(1.4686425 -0.0036841662 -0.034933723)
(1.6861596 -0.0045058754 -0.039833192)
(1.7851119 -0.0048146059 -0.038499065)
(1.8168158 -0.0047630963 -0.034354931)
(0.052207129 0.00012246673 -0.00020371465)
(0.20044071 0.00044761696 -0.0013112015)
(0.43315991 0.00091372666 -0.0049239347)
(0.75680167 0.0015967446 -0.012555632)
(1.1324264 0.0025725227 -0.023950982)
(1.4686425 0.0036838924 -0.034933711)
(1.6861595 0.0045055209 -0.039833162)
(1.7851119 0.004814222 -0.038499018)
(1.8168157 0.0047627486 -0.034354882)
(0.051859513 0.00034741096 -0.00022968191)
(0.19891437 0.0012772218 -0.0014005974)
(0.42957571 0.0026269569 -0.0050883156)
(0.7502206 0.0046226606 -0.012810667)
(1.1228048 0.0074934892 -0.024376233)
(1.4574752 0.010798981 -0.035654518)
(1.6755052 0.013292616 -0.040932242)
(1.7760028 0.014266756 -0.039671067)
(1.8093753 0.014144196 -0.035421632)
(0.050827558 0.00054111146 -0.00027845146)
(0.19505154 0.0019872832 -0.00156445)
(0.42138117 0.0040851186 -0.0053761258)
(0.73620177 0.0072138718 -0.013240353)
(1.1031521 0.011801333 -0.025101797)
(1.4351632 0.017221159 -0.036941121)
(1.654436 0.021470548 -0.042952367)
(1.7581347 0.023245597 -0.041959954)
(1.7948207 0.023132704 -0.037416846)
(0.049713824 0.00068889005 -0.00034163137)
(0.19043451 0.0025204577 -0.0017721221)
(0.41089246 0.0051756457 -0.0057268136)
(0.71740781 0.0091845748 -0.013736956)
(1.0759682 0.015214175 -0.025930873)
(1.4036919 0.022580524 -0.03849019)
(1.6243652 0.028635783 -0.045495153)
(1.7326374 0.031424218 -0.045263448)
(1.774093 0.031535162 -0.040235828)
(0.048331471 0.00077502652 -0.00040440216)
(0.18469688 0.0028300186 -0.001970987)
(0.39785411 0.0058196194 -0.0060312344)
(0.69409857 0.010415939 -0.014114778)
(1.0422211 0.017550821 -0.026566595)
(1.3645676 0.02660918 -0.039881563)
(1.5870305 0.034436867 -0.048293636)
(1.7010216 0.038498412 -0.049049225)
(1.748568 0.039140321 -0.044176972)
(0.046707004 0.00079473108 -0.00045475769)
(0.17795911 0.0029071456 -0.0021190876)
(0.38259745 0.0060123318 -0.0062027613)
(0.66705159 0.010910625 -0.014231305)
(1.0030936 0.018788172 -0.026746597)
(1.3193225 0.029215257 -0.040744846)
(1.5439791 0.038717618 -0.050594333)
(1.664819 0.044223571 -0.052571509)
(1.7193745 0.0456859 -0.048452772)
(0.044927689 0.00074794188 -0.00047951073)
(0.17051633 0.0027611489 -0.0021748985)
(0.36567592 0.0057860726 -0.0061696587)
(0.63707308 0.010734144 -0.013966283)
(0.95982752 0.019011716 -0.02629297)
(1.2693486 0.030449217 -0.040743825)
(1.4966427 0.041472116 -0.051976476)
(1.6253796 0.048503023 -0.055335329)
(1.6875659 0.050967969 -0.052230022)
(0.043239183 0.00064942847 -0.0004750907)
(0.16304779 0.0024381997 -0.0021272838)
(0.34814886 0.0052190705 -0.0059200099)
(0.60548727 0.0099918117 -0.013303642)
(0.91395293 0.018349875 -0.025206117)
(1.2160654 0.030411505 -0.040007127)
(1.4461651 0.042786615 -0.052275762)
(1.5837832 0.051386336 -0.057065831)
(1.6540999 0.055004247 -0.055032998)
(0.041488551 0.00048303914 -0.00041310388)
(0.15520175 0.0019060579 -0.0018984998)
(0.32962095 0.0042834037 -0.0053484686)
(0.57206952 0.0086806184 -0.012168231)
(0.86540704 0.016822877 -0.023428976)
(1.159434 0.029141669 -0.038176276)
(1.3928365 0.042689557 -0.05137272)
(1.5404393 0.052882017 -0.057674801)
(1.619321 0.057787115 -0.056912918)
(0.03952687 0.00023763137 -0.00026733849)
(0.14660704 0.0011468421 -0.0014179514)
(0.30957971 0.0029696464 -0.0043487353)
(0.53621352 0.0068253306 -0.010441591)
(0.81352643 0.014516279 -0.020932595)
(1.0989289 0.026812315 -0.035296769)
(1.3359978 0.041308748 -0.049270562)
(1.4946531 0.053038319 -0.057190042)
(1.5824707 0.059258164 -0.058021577)
(0.037553656 2.8718394e-06 -8.4995247e-05)
(0.13775332 0.00038254531 -0.0008068944)
(0.28862937 0.0015702531 -0.0031024249)
(0.49826937 0.0047139422 -0.008317727)
(0.75793526 0.011666911 -0.017801012)
(1.0332117 0.023553468 -0.031427787)
(1.2733569 0.038592064 -0.045856155)
(1.4438906 0.051608142 -0.05530932)
(1.5414422 0.059221186 -0.057993789)
(0.034938179 -0.00038092676 0.00028369787)
(0.12679722 -0.00082147587 0.00034196124)
(0.26369719 -0.00059619435 -0.00094530512)
(0.45394328 0.001430639 -0.0048503163)
(0.69300243 0.0070454737 -0.012743202)
(0.95486456 0.017608211 -0.024875443)
(1.1956095 0.032089657 -0.039074264)
(1.3785657 0.04577168 -0.049946813)
(1.4888214 0.055079057 -0.054806845)
(0.040275601 9.3728384e-06 3.1056328e-05)
(0.14298785 -0.00030958416 -0.000128421)
(0.29107073 -0.0013983182 -0.00069305903)
(0.49009378 -0.0038789791 -0.0020906641)
(0.73314858 -0.0084901377 -0.0050708269)
(0.99531502 -0.015617659 -0.010339252)
(1.2365441 -0.024235072 -0.016742338)
(1.4220912 -0.032813921 -0.022827082)
(1.5334566 -0.039549095 -0.026895276)
(0.043145152 -5.0462111e-05 -1.8352845e-05)
(0.15426034 -0.0005914743 -0.00030168697)
(0.3154454 -0.0021132041 -0.0010847044)
(0.53142662 -0.0053617376 -0.0029085741)
(0.791287 -0.011163059 -0.0066613446)
(1.0633838 -0.019748185 -0.013007689)
(1.3021149 -0.029440701 -0.020322218)
(1.4747798 -0.037962115 -0.026459482)
(1.5739359 -0.043694625 -0.029930385)
(0.045286151 -2.5915927e-05 9.9393999e-07)
(0.16309276 -0.00062649523 -0.00027788853)
(0.33510233 -0.0023989701 -0.0011453642)
(0.56515169 -0.0061799981 -0.0032407751)
(0.83853197 -0.012798512 -0.0075668706)
(1.117372 -0.022278587 -0.014742112)
(1.3516499 -0.032396772 -0.022688332)
(1.5121251 -0.040448826 -0.028752155)
(1.6019343 -0.045256492 -0.031613229)
(0.047355286 -4.76824e-05 -1.7464702e-05)
(0.1714339 -0.00076517471 -0.00034895026)
(0.35337238 -0.0027916319 -0.0013418744)
(0.59606981 -0.0070208959 -0.0037204422)
(0.88130212 -0.014262933 -0.0086126447)
(1.1656002 -0.024234569 -0.016424902)
(1.3954128 -0.034267505 -0.024621245)
(1.5451273 -0.041610518 -0.030404278)
(1.6266593 -0.045489896 -0.032535414)
(0.049136686 -9.9473958e-05 -4.8970281e-05)
(0.17878528 -0.00097067569 -0.00044901264)
(0.36971281 -0.0032514392 -0.0015684412)
(0.62402446 -0.0078720863 -0.0042100649)
(0.92038187 -0.015617674 -0.0096487356)
(1.2099036 -0.025658352 -0.017699496)
(1.4361106 -0.035221133 -0.025819744)
(1.5765315 -0.041654104 -0.031094663)
(1.6502658 -0.04450718 -0.032387388)
(0.050785611 -0.00020029812 -9.2732405e-05)
(0.18554883 -0.0012863176 -0.00056493442)
(0.38470182 -0.003827357 -0.0017699105)
(0.64971489 -0.0087475587 -0.0045794248)
(0.95648374 -0.01658059 -0.010110218)
(1.2511205 -0.026255773 -0.018000697)
(1.4745206 -0.034988681 -0.025712101)
(1.6068642 -0.040305105 -0.030244026)
(1.6731314 -0.042145809 -0.030765719)
(0.052463864 -0.00032695503 -0.0001265487)
(0.1921188 -0.0016419417 -0.00062809612)
(0.39886311 -0.0043811724 -0.001812267)
(0.67364865 -0.0093842717 -0.0045546728)
(0.98966964 -0.016922794 -0.0098148966)
(1.2891703 -0.02585756 -0.017288128)
(1.5103665 -0.033472945 -0.024347078)
(1.6357166 -0.037605811 -0.028091218)
(1.6949626 -0.038515619 -0.027979718)
(0.053935616 -0.00042881476 -0.0001314807)
(0.19787254 -0.0018938211 -0.00059074822)
(0.4112747 -0.0046846985 -0.0016407429)
(0.69469217 -0.0094506142 -0.0040682411)
(1.0189978 -0.016340744 -0.008853325)
(1.3231104 -0.024186717 -0.015705234)
(1.5427449 -0.030471441 -0.021986736)
(1.6621934 -0.033413944 -0.025003941)
(1.715073 -0.033558477 -0.024509333)
(0.055126732 -0.00046182665 -0.00010556446)
(0.20256841 -0.0019042618 -0.00045111532)
(0.42148861 -0.0044877611 -0.0012506756)
(0.71209548 -0.0087049947 -0.0032452691)
(1.043649 -0.014587462 -0.0074434137)
(1.3519885 -0.021037701 -0.013579862)
(1.5705964 -0.025876618 -0.019065386)
(1.685199 -0.027746739 -0.021509964)
(1.7325676 -0.02740393 -0.020981718)
(0.056041949 -0.00041160514 -6.1429563e-05)
(0.20620497 -0.0016356732 -0.00026177696)
(0.42943972 -0.0037365613 -0.00077920106)
(0.72570099 -0.0070632899 -0.0023192648)
(1.0630617 -0.011581315 -0.0059194229)
(1.374866 -0.016377972 -0.011358125)
(1.5927703 -0.019755296 -0.016177932)
(1.7035809 -0.02080017 -0.018267297)
(1.7465096 -0.020292357 -0.018008031)
(0.056907552 -0.00028495014 -1.7755957e-05)
(0.20928324 -0.0011071546 -8.5648389e-05)
(0.43565979 -0.0024831379 -0.00036655586)
(0.73577069 -0.0046180803 -0.0015363712)
(1.0769498 -0.0074651902 -0.0046578582)
(1.3909237 -0.010417486 -0.0095534815)
(1.6081833 -0.01239024 -0.013884201)
(1.7162983 -0.012881745 -0.015840511)
(1.7561235 -0.012474204 -0.015872051)
(0.057161004 -0.00010202143 7.521607e-06)
(0.21038827 -0.00039265047 1.4684459e-05)
(0.43820489 -0.00087372082 -0.00013293754)
(0.74027831 -0.0016125915 -0.001094792)
(1.0835459 -0.0025874166 -0.0039513337)
(1.3988131 -0.0035840983 -0.0085567289)
(1.6158866 -0.0042288358 -0.012627851)