/*--------------------------------*- C++ -*----------------------------------*\
  =========                 |
  \\      /  F ield         | OpenFOAM: The Open Source CFD Toolbox
   \\    /   O peration     | Website:  https://openfoam.org
    \\  /    A nd           | Version:  10
     \\/     M anipulation  |
\*---------------------------------------------------------------------------*/
FoamFile
{
    format      ascii;
    class       volScalarField;
    location    "14.5";
    object      ddt0(T);
}
// * * * * * * * * * * * * * * * * * * * * * * * * * * * * * * * * * * * * * //

dimensions      [0 0 -1 1 0 0 0];

internalField   nonuniform List<scalar> 
10000
(
2926.38
972.671
1081.97
1103.04
1103.74
1103.73
1103.83
1103.88
1103.9
1103.91
1103.92
1103.92
1103.93
1103.93
1103.94
1103.94
1103.94
1103.95
1103.95
1103.96
1103.96
1103.96
1103.97
1103.97
1103.97
1103.98
1103.98
1103.98
1103.99
1103.99
1103.99
1103.99
1104
1104
1104
1104
1104
1104.01
1104.01
1104.01
1104.01
1104.01
1104.01
1104.02
1104.02
1104.02
1104.02
1104.02
1104.02
1104.02
1104.02
1104.02
1104.02
1104.02
1104.02
1104.02
1104.02
1104.02
1104.02
1104.02
1104.02
1104.02
1104.02
1104.02
1104.02
1104.02
1104.02
1104.02
1104.02
1104.02
1104.02
1104.02
1104.02
1104.02
1104.02
1104.02
1104.01
1104.01
1104.01
1104.01
1104.01
1104.01
1104.01
1104.01
1104.01
1104.01
1104.01
1104.01
1104.01
1104.01
1104.01
1104.01
1104.01
1104.01
1104.01
1104
1103.73
1099.98
1071.4
1142.08
1164.51
-579.012
-316.254
-281.172
-282.438
-283.238
-283.253
-283.196
-283.165
-283.147
-283.132
-283.117
-283.104
-283.09
-283.077
-283.064
-283.052
-283.039
-283.027
-283.016
-283.005
-282.994
-282.983
-282.973
-282.963
-282.953
-282.944
-282.935
-282.926
-282.918
-282.91
-282.902
-282.895
-282.888
-282.881
-282.875
-282.869
-282.864
-282.859
-282.854
-282.849
-282.845
-282.841
-282.838
-282.834
-282.831
-282.829
-282.826
-282.824
-282.823
-282.821
-282.82
-282.819
-282.818
-282.817
-282.817
-282.817
-282.817
-282.817
-282.817
-282.818
-282.818
-282.819
-282.82
-282.821
-282.822
-282.823
-282.825
-282.826
-282.828
-282.829
-282.831
-282.832
-282.834
-282.835
-282.837
-282.839
-282.84
-282.842
-282.844
-282.845
-282.847
-282.848
-282.85
-282.851
-282.853
-282.854
-282.855
-282.856
-282.858
-282.859
-282.86
-282.86
-282.86
-282.85
-282.794
-282.715
-284.457
-300.667
-273.709
1244.02
-352.819
-59.0731
-23.1405
-25.3422
-26.3798
-26.4082
-26.3381
-26.2953
-26.2669
-26.2424
-26.2191
-26.1963
-26.1739
-26.152
-26.1304
-26.1094
-26.0888
-26.0687
-26.0492
-26.0303
-26.0118
-25.994
-25.9767
-25.96
-25.9438
-25.9282
-25.9132
-25.8987
-25.8848
-25.8715
-25.8588
-25.8466
-25.8351
-25.8241
-25.8137
-25.8038
-25.7946
-25.7859
-25.7777
-25.7701
-25.7631
-25.7566
-25.7507
-25.7452
-25.7403
-25.7359
-25.7319
-25.7284
-25.7254
-25.7228
-25.7206
-25.7188
-25.7174
-25.7164
-25.7157
-25.7154
-25.7154
-25.7156
-25.7162
-25.717
-25.7181
-25.7194
-25.7209
-25.7226
-25.7245
-25.7265
-25.7287
-25.731
-25.7334
-25.7359
-25.7385
-25.7412
-25.7438
-25.7466
-25.7493
-25.7521
-25.7548
-25.7575
-25.7602
-25.7629
-25.7655
-25.768
-25.7704
-25.7728
-25.7751
-25.7773
-25.7793
-25.7813
-25.7831
-25.7848
-25.7865
-25.7884
-25.7905
-25.7856
-25.7249
-25.4772
-25.7085
-33.6707
-20.2747
1260.93
-322.043
-27.4066
7.3752
4.72707
3.61289
3.58972
3.67259
3.72627
3.76452
3.79827
3.83066
3.86237
3.8935
3.92406
3.95403
3.98336
4.01202
4.03996
4.06718
4.09365
4.11936
4.14431
4.16848
4.19187
4.21448
4.2363
4.25732
4.27755
4.29698
4.3156
4.33341
4.35041
4.3666
4.38197
4.39654
4.41029
4.42324
4.4354
4.44676
4.45735
4.46717
4.47623
4.48455
4.49215
4.49904
4.50523
4.51076
4.51563
4.51987
4.5235
4.52655
4.52903
4.53096
4.53239
4.53331
4.53377
4.53379
4.53339
4.53259
4.53143
4.52992
4.5281
4.52598
4.52359
4.52095
4.5181
4.51504
4.51181
4.50844
4.50493
4.50131
4.49761
4.49384
4.49002
4.48618
4.48233
4.47849
4.47468
4.47091
4.4672
4.46357
4.46003
4.45659
4.45327
4.45008
4.44703
4.44413
4.44139
4.43882
4.4364
4.43403
4.43111
4.42587
4.41717
4.43
4.61212
5.10886
3.71527
7.81696
1261.46
-323.032
-29.2662
5.07833
2.31947
1.19953
1.18816
1.28251
1.34628
1.39396
1.43688
1.47828
1.51887
1.55875
1.59793
1.63635
1.67398
1.71075
1.74663
1.78158
1.81559
1.84863
1.88069
1.91177
1.94184
1.9709
1.99895
2.02598
2.05198
2.07694
2.10087
2.12375
2.14558
2.16637
2.18612
2.20481
2.22247
2.23909
2.25469
2.26928
2.28286
2.29545
2.30708
2.31775
2.32749
2.33632
2.34426
2.35134
2.35759
2.36302
2.36767
2.37156
2.37473
2.37721
2.37902
2.3802
2.38077
2.38078
2.38025
2.37922
2.37771
2.37576
2.37341
2.37067
2.36759
2.3642
2.36052
2.35659
2.35243
2.34808
2.34357
2.33891
2.33415
2.3293
2.32439
2.31945
2.3145
2.30956
2.30466
2.29982
2.29505
2.29038
2.28582
2.2814
2.27713
2.27303
2.2691
2.26537
2.26185
2.25855
2.25547
2.25259
2.24951
2.24443
2.23216
2.2104
2.23183
2.46359
2.62391
3.7734
1261.45
-323.706
-30.1615
4.10869
1.3441
0.235343
0.235796
0.340571
0.41395
0.470894
0.522904
0.573273
0.622699
0.671295
0.719043
0.765887
0.811763
0.856612
0.900383
0.943038
0.984545
1.02488
1.06402
1.10196
1.13867
1.17416
1.20841
1.2414
1.27314
1.30361
1.33281
1.36073
1.38738
1.41274
1.43682
1.45963
1.48116
1.50143
1.52045
1.53823
1.55479
1.57014
1.58431
1.59731
1.60918
1.61993
1.6296
1.63822
1.64582
1.65243
1.65808
1.66281
1.66666
1.66966
1.67186
1.67327
1.67396
1.67395
1.67329
1.67201
1.67015
1.66776
1.66486
1.66151
1.65773
1.65358
1.64907
1.64426
1.63917
1.63385
1.62833
1.62264
1.61681
1.61088
1.60488
1.59884
1.59279
1.58675
1.58076
1.57484
1.56901
1.5633
1.55773
1.55233
1.54711
1.54209
1.5373
1.53274
1.52844
1.5244
1.52066
1.51723
1.51406
1.51038
1.50269
1.48327
1.45598
1.4819
1.63227
2.01024
1261.53
-323.714
-30.1831
4.09201
1.33905
0.24207
0.253071
0.367575
0.450294
0.516387
0.577418
0.636692
0.694903
0.752154
0.808414
0.863616
0.917685
0.970552
1.02216
1.07246
1.12141
1.16898
1.21515
1.2599
1.30321
1.34507
1.38547
1.42439
1.46182
1.49776
1.5322
1.56512
1.59654
1.62644
1.65482
1.6817
1.70708
1.73097
1.75338
1.77433
1.79383
1.81191
1.82859
1.84391
1.85788
1.87053
1.88191
1.89205
1.90099
1.90875
1.91539
1.92095
1.92546
1.92897
1.93153
1.93318
1.93396
1.93393
1.93312
1.93158
1.92937
1.92652
1.92308
1.9191
1.91463
1.9097
1.90437
1.89867
1.89265
1.88635
1.87981
1.87308
1.86619
1.85918
1.85208
1.84494
1.83779
1.83065
1.82357
1.81657
1.80969
1.80294
1.79636
1.78998
1.78381
1.77788
1.77222
1.76683
1.76174
1.75697
1.75254
1.74848
1.74487
1.74165
1.73758
1.72801
1.70631
1.67993
1.70996
1.89335
1261.58
-323.663
-30.1192
4.16842
1.42683
0.340239
0.360963
0.484834
0.576731
0.65188
0.721859
0.789969
0.856898
0.922736
0.987441
1.05093
1.11313
1.17395
1.23332
1.2912
1.34753
1.40228
1.45542
1.50693
1.55678
1.60497
1.65146
1.69626
1.73934
1.78069
1.82032
1.8582
1.89434
1.92874
1.96139
1.99231
2.02149
2.04896
2.07472
2.0988
2.12122
2.142
2.16117
2.17876
2.1948
2.20934
2.2224
2.23404
2.24429
2.25319
2.2608
2.26716
2.27232
2.27632
2.27923
2.28109
2.28196
2.28188
2.28092
2.27912
2.27653
2.27322
2.26923
2.26462
2.25944
2.25374
2.24757
2.24098
2.23402
2.22674
2.21919
2.21141
2.20346
2.19536
2.18717
2.17893
2.17067
2.16244
2.15426
2.14619
2.13824
2.13046
2.12287
2.11551
2.10839
2.10156
2.09502
2.08881
2.08294
2.07744
2.07232
2.0676
2.06336
2.05972
2.05657
2.05224
2.04117
2.01321
1.98463
2.13521
1261.6
-323.634
-30.0789
4.21949
1.48796
0.410976
0.441042
0.574094
0.67506
0.759179
0.838028
0.914899
0.990469
1.06482
1.13789
1.2096
1.27984
1.34854
1.41561
1.48099
1.54463
1.6065
1.66654
1.72474
1.78107
1.83552
1.88805
1.93866
1.98734
2.03406
2.07881
2.12161
2.16242
2.20127
2.23814
2.27304
2.30599
2.337
2.36608
2.39325
2.41855
2.44199
2.46361
2.48345
2.50154
2.51792
2.53264
2.54574
2.55728
2.5673
2.57585
2.58299
2.58877
2.59326
2.5965
2.59856
2.59949
2.59936
2.59823
2.59615
2.59318
2.5894
2.58485
2.57959
2.57369
2.56721
2.5602
2.55271
2.54481
2.53655
2.52798
2.51916
2.51013
2.50095
2.49166
2.48231
2.47295
2.46362
2.45436
2.4452
2.4362
2.42738
2.41879
2.41044
2.40238
2.39464
2.38724
2.3802
2.37356
2.36733
2.36152
2.35617
2.35129
2.34701
2.34354
2.34073
2.33554
2.3126
2.25012
2.42107
1261.6
-323.616
-30.0511
4.25713
1.53504
0.467326
0.506549
0.648665
0.758606
0.851609
0.939242
1.02479
1.10892
1.19169
1.27304
1.35288
1.43109
1.50758
1.58226
1.65507
1.72595
1.79484
1.86172
1.92654
1.98928
2.04991
2.10842
2.16479
2.21899
2.27101
2.32085
2.36849
2.41392
2.45716
2.4982
2.53704
2.57371
2.6082
2.64055
2.67078
2.69891
2.72497
2.74901
2.77105
2.79115
2.80935
2.82569
2.84023
2.85303
2.86413
2.8736
2.8815
2.88789
2.89283
2.89638
2.89862
2.8996
2.8994
2.89808
2.89571
2.89236
2.88808
2.88296
2.87706
2.87043
2.86316
2.8553
2.84691
2.83806
2.82881
2.81922
2.80934
2.79924
2.78897
2.77859
2.76813
2.75767
2.74723
2.73688
2.72665
2.71659
2.70674
2.69714
2.68782
2.67881
2.67016
2.66189
2.65403
2.64662
2.63966
2.63319
2.62721
2.62175
2.61687
2.61281
2.6101
2.6077
2.58875
2.49705
2.70524
1261.61
-323.601
-30.0267
4.29084
1.57794
0.519332
0.567593
0.71867
0.837491
0.939285
1.03561
1.12974
1.22232
1.31342
1.40296
1.49083
1.57692
1.66111
1.74331
1.82346
1.90148
1.97733
2.05095
2.12231
2.19138
2.25814
2.32255
2.38459
2.44425
2.50151
2.55635
2.60878
2.65878
2.70635
2.75149
2.79422
2.83454
2.87248
2.90805
2.94127
2.97219
3.00083
3.02724
3.05145
3.07352
3.09349
3.11142
3.12737
3.1414
3.15356
3.16392
3.17255
3.17951
3.18488
3.18873
3.19112
3.19214
3.19185
3.19033
3.18765
3.18389
3.17912
3.17341
3.16684
3.15949
3.15141
3.14269
3.13339
3.12359
3.11335
3.10273
3.0918
3.08062
3.06926
3.05777
3.04622
3.03464
3.02311
3.01167
3.00036
2.98925
2.97836
2.96775
2.95745
2.94751
2.93795
2.92882
2.92014
2.91195
2.90427
2.89712
2.89053
2.88451
2.87908
2.87447
2.87146
2.87055
2.85482
2.73612
2.98358
1261.62
-323.587
-30.0033
4.32335
1.61948
0.569867
0.627057
0.786992
0.914592
1.02507
1.12999
1.23259
1.33353
1.43286
1.53048
1.62628
1.72013
1.81192
1.90155
1.98894
2.07402
2.15672
2.237
2.31481
2.39013
2.46292
2.53314
2.60079
2.66583
2.72825
2.78803
2.84517
2.89966
2.9515
3.00069
3.04724
3.09117
3.13248
3.17121
3.20739
3.24104
3.27221
3.30094
3.32728
3.35128
3.37299
3.39247
3.40978
3.425
3.43818
3.4494
3.45874
3.46625
3.47203
3.47614
3.47867
3.4797
3.4793
3.47756
3.47455
3.47037
3.46509
3.45878
3.45154
3.44344
3.43456
3.42497
3.41476
3.40399
3.39275
3.3811
3.36911
3.35686
3.3444
3.33181
3.31914
3.30646
3.29383
3.28129
3.26892
3.25674
3.24482
3.23321
3.22194
3.21105
3.2006
3.1906
3.18111
3.17214
3.16374
3.15592
3.14872
3.14214
3.1362
3.13106
3.12767
3.12761
3.11469
2.97287
3.25536
1261.62
-323.573
-29.9805
4.35521
1.66028
0.619537
0.685545
0.854226
0.990492
1.10955
1.22294
1.3339
1.44309
1.55052
1.65611
1.75973
1.86124
1.96052
2.05747
2.152
2.24402
2.33348
2.42032
2.5045
2.58596
2.66469
2.74065
2.81381
2.88415
2.95165
3.0163
3.07808
3.13699
3.19302
3.24619
3.29649
3.34395
3.38858
3.43042
3.46949
3.50582
3.53947
3.57047
3.59889
3.62476
3.64816
3.66915
3.6878
3.70417
3.71834
3.73039
3.74039
3.74843
3.75458
3.75893
3.76157
3.76259
3.76206
3.76008
3.75673
3.75211
3.7463
3.73939
3.73146
3.7226
3.7129
3.70244
3.6913
3.67957
3.66732
3.65463
3.64158
3.62824
3.61469
3.60099
3.58721
3.57343
3.55969
3.54607
3.53261
3.51938
3.50643
3.49381
3.48157
3.46975
3.45839
3.44754
3.43723
3.4275
3.41838
3.4099
3.40208
3.39494
3.38849
3.38287
3.37905
3.37944
3.36886
3.20903
3.51993
1261.63
-323.56
-29.958
4.38655
1.70042
0.668436
0.743139
0.920446
1.06525
1.19276
1.3145
1.43371
1.55101
1.66643
1.77987
1.89118
2.00023
2.10689
2.21104
2.31259
2.41146
2.50757
2.60086
2.6913
2.77882
2.8634
2.94499
3.02358
3.09913
3.17162
3.24104
3.30738
3.37062
3.43078
3.48784
3.54183
3.59276
3.64064
3.68552
3.72742
3.76638
3.80244
3.83566
3.8661
3.89381
3.91886
3.94131
3.96124
3.97873
3.99385
4.00668
4.01732
4.02585
4.03235
4.03691
4.03964
4.04061
4.03994
4.0377
4.03399
4.02891
4.02255
4.01502
4.00639
3.99676
3.98623
3.97488
3.96281
3.9501
3.93684
3.92311
3.90899
3.89456
3.87991
3.8651
3.85022
3.83532
3.82048
3.80577
3.79124
3.77696
3.76298
3.74935
3.73614
3.72339
3.71113
3.69943
3.68831
3.67781
3.66797
3.65883
3.6504
3.64271
3.63576
3.62966
3.62541
3.62593
3.61712
3.44467
3.77686
1261.63
-323.546
-29.9358
4.41737
1.7399
0.716543
0.79981
0.985608
1.13883
1.27465
1.40461
1.53192
1.65721
1.78048
1.90164
2.02052
2.13698
2.2509
2.36213
2.47059
2.57618
2.67882
2.77846
2.87504
2.96851
3.05883
3.14597
3.22988
3.31054
3.38794
3.46204
3.53285
3.60035
3.66454
3.72543
3.78302
3.83734
3.88841
3.93626
3.98092
4.02244
4.06086
4.09625
4.12865
4.15814
4.18478
4.20865
4.22982
4.24838
4.26441
4.278
4.28923
4.29821
4.30503
4.30978
4.31256
4.31347
4.31262
4.31009
4.30601
4.30045
4.29354
4.28536
4.27601
4.26561
4.25423
4.24199
4.22898
4.21528
4.201
4.18622
4.17103
4.15551
4.13975
4.12384
4.10784
4.09183
4.07589
4.06008
4.04448
4.02914
4.01414
3.99952
3.98533
3.97165
3.9585
3.94594
3.93402
3.92276
3.91221
3.9024
3.89337
3.88513
3.87768
3.87113
3.86644
3.86686
3.85924
3.67922
4.02588
1261.63
-323.533
-29.9141
4.44762
1.77868
0.763805
0.855492
1.04964
1.21112
1.35513
1.49316
1.62843
1.76157
1.89256
2.02129
2.1476
2.27135
2.39238
2.51057
2.62581
2.738
2.84706
2.95293
3.05554
3.15485
3.2508
3.34336
3.43249
3.51817
3.60037
3.67907
3.75425
3.82592
3.89406
3.95868
4.0198
4.07744
4.13161
4.18236
4.22971
4.27372
4.31444
4.35192
4.38624
4.41745
4.44563
4.47086
4.49323
4.51282
4.52971
4.54401
4.55581
4.56521
4.5723
4.5772
4.58001
4.58084
4.57978
4.57695
4.57246
4.56641
4.55891
4.55008
4.54
4.5288
4.51658
4.50343
4.48946
4.47477
4.45946
4.44363
4.42736
4.41075
4.39388
4.37685
4.35974
4.34262
4.32557
4.30868
4.292
4.27561
4.25958
4.24396
4.22881
4.2142
4.20016
4.18675
4.17402
4.16201
4.15076
4.1403
4.13066
4.12187
4.11393
4.10693
4.10181
4.10196
4.09501
3.91188
4.26688
1261.64
-323.521
-29.8928
4.47727
1.81671
0.810163
0.910115
1.11246
1.28206
1.43408
1.58004
1.72313
1.86395
2.00252
2.13868
2.27229
2.40317
2.53119
2.65619
2.77808
2.89674
3.01209
3.12406
3.23258
3.33761
3.43908
3.53696
3.63121
3.72179
3.80869
3.89188
3.97134
4.04707
4.11908
4.18735
4.25191
4.31278
4.36997
4.42354
4.47352
4.51995
4.56289
4.60241
4.63858
4.67145
4.70112
4.72766
4.75117
4.77173
4.78945
4.80442
4.81674
4.82652
4.83386
4.83888
4.84169
4.84239
4.84111
4.83795
4.83303
4.82646
4.81837
4.80886
4.79804
4.78603
4.77293
4.75887
4.74394
4.72825
4.71191
4.69501
4.67765
4.65994
4.64197
4.62382
4.60559
4.58736
4.56921
4.55122
4.53347
4.51603
4.49897
4.48236
4.46625
4.45071
4.43578
4.42153
4.40801
4.39524
4.38328
4.37217
4.36194
4.35261
4.34419
4.33675
4.3312
4.33094
4.32426
4.14177
4.49981
1261.64
-323.508
-29.872
4.5063
1.85395
0.855561
0.963616
1.17399
1.35154
1.51143
1.66515
1.8159
1.96426
2.11024
2.25369
2.39443
2.53231
2.66717
2.79885
2.92724
3.05224
3.17374
3.29169
3.406
3.51661
3.62348
3.72656
3.82581
3.92119
4.01267
4.10025
4.18389
4.26359
4.33936
4.41119
4.4791
4.54311
4.60325
4.65956
4.71208
4.76086
4.80596
4.84745
4.88539
4.91987
4.95096
4.97876
5.00336
5.02485
5.04334
5.05893
5.07173
5.08185
5.08941
5.09451
5.09728
5.09783
5.09629
5.09278
5.08741
5.08031
5.0716
5.06139
5.04981
5.03697
5.023
5.00801
4.99211
4.97541
4.95802
4.94005
4.92161
4.9028
4.88371
4.86444
4.84509
4.82574
4.80649
4.78741
4.76859
4.7501
4.73202
4.71441
4.69734
4.68088
4.66507
4.64998
4.63565
4.62214
4.60949
4.59773
4.58691
4.57704
4.56814
4.56028
4.55431
4.55354
4.54682
4.368
4.72466
1261.65
-323.496
-29.8517
4.53466
1.89034
0.899951
1.01594
1.23417
1.41951
1.58709
1.7484
1.90665
2.06239
2.21562
2.36619
2.51393
2.65864
2.80018
2.9384
3.07315
3.20434
3.33186
3.45564
3.57561
3.69168
3.80383
3.91198
4.0161
4.11616
4.21213
4.30398
4.39169
4.47526
4.55469
4.62997
4.70114
4.76821
4.8312
4.89017
4.94515
4.99621
5.04339
5.08677
5.12643
5.16245
5.19491
5.22391
5.24954
5.27191
5.29112
5.30729
5.32053
5.33095
5.33867
5.34382
5.34652
5.3469
5.34507
5.34118
5.33533
5.32767
5.31832
5.3074
5.29504
5.28137
5.2665
5.25057
5.23368
5.21596
5.19752
5.17848
5.15894
5.13902
5.11881
5.09842
5.07795
5.05749
5.03714
5.01697
4.99708
4.97754
4.95843
4.93983
4.92181
4.90442
4.88773
4.87181
4.85669
4.84244
4.82909
4.81669
4.80528
4.79489
4.78552
4.77724
4.77085
4.76951
4.76253
4.58975
4.94143
1261.65
-323.484
-29.8318
4.56233
1.92588
0.943294
1.06703
1.29295
1.48589
1.66099
1.82973
1.9953
2.15825
2.31857
2.4761
2.63066
2.78206
2.93013
3.07471
3.21568
3.35292
3.48631
3.61579
3.74127
3.86267
3.97995
4.09306
4.20194
4.30655
4.40688
4.50288
4.59456
4.68189
4.76487
4.84352
4.91784
4.98787
5.05363
5.11517
5.17253
5.22578
5.27497
5.32017
5.36148
5.39897
5.43273
5.46287
5.48947
5.51267
5.53255
5.54925
5.56288
5.57356
5.58141
5.58657
5.58917
5.58933
5.58719
5.58289
5.57654
5.5683
5.55828
5.54663
5.53348
5.51895
5.50318
5.48629
5.46841
5.44966
5.43016
5.41004
5.3894
5.36836
5.34704
5.32552
5.30393
5.28235
5.26089
5.23963
5.21867
5.19809
5.17796
5.15837
5.13939
5.12109
5.10353
5.08677
5.07086
5.05587
5.04183
5.0288
5.01681
5.00589
4.99606
4.98737
4.98057
4.97861
4.97122
4.80624
5.15017
1261.66
-323.473
-29.8125
4.58931
1.96052
0.985562
1.11686
1.35028
1.55065
1.73309
1.90907
2.08178
2.25177
2.419
2.58332
2.74454
2.90245
3.05689
3.2077
3.35472
3.49785
3.63697
3.772
3.90285
4.02944
4.15173
4.26965
4.38315
4.4922
4.59676
4.69681
4.79232
4.8833
4.96974
5.05164
5.12902
5.20191
5.27035
5.33437
5.39402
5.44937
5.50049
5.54745
5.59033
5.62922
5.66422
5.69543
5.72296
5.74691
5.76742
5.7846
5.79857
5.80946
5.81741
5.82254
5.825
5.82492
5.82243
5.81769
5.81082
5.80196
5.79127
5.77887
5.7649
5.7495
5.73281
5.71495
5.69606
5.67628
5.65571
5.6345
5.61276
5.5906
5.56815
5.54551
5.52279
5.50009
5.47753
5.45518
5.43315
5.41152
5.39038
5.3698
5.34987
5.33066
5.31222
5.29463
5.27794
5.26222
5.2475
5.23383
5.22127
5.20983
5.19953
5.19045
5.18325
5.18063
5.17274
5.01677
5.35088
1261.66
-323.461
-29.7937
4.61557
1.99425
1.02673
1.16541
1.40613
1.61373
1.80333
1.98637
2.16604
2.34288
2.51685
2.68779
2.85549
3.01975
3.18039
3.33725
3.49018
3.63904
3.78373
3.92416
4.06023
4.19187
4.31902
4.44162
4.55961
4.67296
4.78164
4.8856
4.98485
5.07935
5.16913
5.25418
5.33452
5.41017
5.48118
5.54759
5.60945
5.66683
5.71979
5.76841
5.81279
5.85302
5.88918
5.92141
5.94979
5.97446
5.99553
6.01314
6.0274
6.03847
6.04646
6.05153
6.05381
6.05345
6.05059
6.04537
6.03795
6.02847
6.01707
6.0039
5.98909
5.97281
5.95518
5.93634
5.91644
5.8956
5.87397
5.85166
5.8288
5.80552
5.78194
5.75817
5.73433
5.71051
5.68684
5.66341
5.64031
5.61764
5.59548
5.57392
5.55304
5.53292
5.51361
5.4952
5.47773
5.46127
5.44588
5.43159
5.41845
5.4065
5.39575
5.38626
5.37867
5.37538
5.36694
5.22072
5.54359
1261.66
-323.45
-29.7754
4.64111
2.02707
1.06678
1.21263
1.46047
1.67511
1.87167
2.06159
2.24803
2.43154
2.61207
2.78944
2.96344
3.13388
3.30056
3.4633
3.62196
3.7764
3.9265
4.07217
4.21332
4.34986
4.48173
4.60886
4.73121
4.84873
4.96138
5.06914
5.17199
5.26991
5.36291
5.45099
5.53418
5.6125
5.68599
5.75469
5.81866
5.87797
5.9327
5.98291
6.02871
6.0702
6.10747
6.14063
6.16982
6.19514
6.21672
6.2347
6.24921
6.2604
6.2684
6.27336
6.27543
6.27475
6.27148
6.26577
6.25777
6.24763
6.2355
6.22154
6.20589
6.1887
6.17012
6.15029
6.12936
6.10746
6.08474
6.06133
6.03735
6.01295
5.98823
5.96333
5.93836
5.91343
5.88865
5.86413
5.83997
5.81625
5.79309
5.77055
5.74872
5.72769
5.70752
5.68829
5.67005
5.65286
5.63679
5.62188
5.60818
5.59572
5.58452
5.57465
5.56666
5.5627
5.55368
5.41756
5.72832
1261.67
-323.44
-29.7577
4.66592
2.05895
1.10569
1.25852
1.51327
1.73476
1.93808
2.13468
2.3277
2.51769
2.70459
2.88821
3.06835
3.24478
3.41731
3.58577
3.74999
3.90984
4.06519
4.21595
4.36201
4.5033
4.63974
4.77127
4.89783
5.01938
5.13589
5.24731
5.35363
5.45485
5.55096
5.64196
5.72789
5.80876
5.88463
5.95552
6.02152
6.08268
6.13908
6.1908
6.23795
6.28062
6.31892
6.35296
6.38288
6.40879
6.43083
6.44913
6.46384
6.4751
6.48306
6.48788
6.48969
6.48867
6.48496
6.47872
6.47011
6.45929
6.44641
6.43163
6.41511
6.397
6.37746
6.35662
6.33465
6.31169
6.28788
6.26335
6.23826
6.21272
6.18687
6.16083
6.13473
6.10868
6.0828
6.05719
6.03196
6.00721
5.98303
5.95952
5.93675
5.91482
5.89379
5.87374
5.85473
5.83683
5.82009
5.80456
5.79029
5.77733
5.76569
5.75543
5.74706
5.74245
5.73284
5.60683
5.90507
1261.67
-323.429
-29.7405
4.68999
2.08989
1.14345
1.30305
1.56452
1.79264
2.00253
2.20561
2.40503
2.6013
2.79438
2.98407
3.17015
3.35239
3.5306
3.7046
3.87421
4.0393
4.19974
4.35542
4.50624
4.65212
4.79298
4.92876
5.05939
5.18483
5.30505
5.42
5.52968
5.63407
5.73316
5.82697
5.91553
5.99885
6.07698
6.14998
6.2179
6.28081
6.3388
6.39195
6.44036
6.48414
6.5234
6.55826
6.58884
6.61528
6.63771
6.65629
6.67114
6.68243
6.69031
6.69494
6.69646
6.69505
6.69087
6.68407
6.67483
6.6633
6.64965
6.63404
6.61663
6.59758
6.57706
6.5552
6.53218
6.50814
6.48323
6.45759
6.43136
6.40469
6.3777
6.35053
6.3233
6.29613
6.26914
6.24245
6.21616
6.19037
6.16519
6.1407
6.11699
6.09416
6.07228
6.05141
6.03164
6.01302
5.99562
5.97948
5.96466
5.95119
5.93911
5.92848
5.91974
5.91449
5.9043
5.78816
6.07383
1261.67
-323.42
-29.7238
4.71333
2.11988
1.18005
1.34622
1.61419
1.84875
2.065
2.27436
2.47997
2.68234
2.8814
3.07696
3.26879
3.45667
3.64038
3.81973
3.99456
4.16472
4.33007
4.49051
4.64593
4.79624
4.94137
5.08124
5.2158
5.34499
5.46878
5.58713
5.70003
5.80746
5.90942
6.00592
6.09699
6.18266
6.26296
6.33795
6.4077
6.47227
6.53176
6.58625
6.63585
6.68066
6.7208
6.7564
6.78759
6.81449
6.83727
6.85605
6.87101
6.88228
6.89003
6.89442
6.89562
6.89378
6.88909
6.88171
6.8718
6.85954
6.84509
6.82863
6.81031
6.79031
6.76879
6.74591
6.72182
6.69669
6.67067
6.64391
6.61655
6.58873
6.5606
6.53229
6.50393
6.47564
6.44756
6.41978
6.39243
6.36561
6.33942
6.31396
6.28932
6.2656
6.24286
6.22119
6.20066
6.18133
6.16327
6.14653
6.13115
6.11719
6.10468
6.09367
6.08457
6.07871
6.06796
5.96125
6.23458
1261.68
-323.41
-29.7076
4.73592
2.1489
1.21548
1.388
1.66226
1.90306
2.12547
2.34091
2.5525
2.76076
2.96562
3.16686
3.36425
3.55757
3.74659
3.93112
4.11098
4.28603
4.45613
4.62116
4.78101
4.9356
5.08484
5.22865
5.36698
5.49978
5.62701
5.74862
5.86461
5.97495
6.07965
6.17873
6.27219
6.36009
6.44245
6.51933
6.59081
6.65696
6.71785
6.7736
6.8243
6.87007
6.91102
6.94729
6.97901
7.00633
7.02938
7.04832
7.06332
7.07452
7.0821
7.08622
7.08704
7.08476
7.07952
7.07152
7.06092
7.0479
7.03263
7.01529
6.99605
6.97508
6.95255
6.92862
6.90346
6.87724
6.8501
6.8222
6.7937
6.76475
6.73547
6.70602
6.67653
6.64712
6.61793
6.58907
6.56066
6.53281
6.50563
6.4792
6.45364
6.42902
6.40544
6.38297
6.36168
6.34165
6.32293
6.30559
6.28967
6.27523
6.26228
6.2509
6.24145
6.23501
6.22375
6.1259
6.38732
1261.68
-323.401
-29.692
4.75775
2.17697
1.24973
1.42839
1.70874
1.95555
2.18391
2.40522
2.6226
2.83655
3.04699
3.25372
3.45648
3.65505
3.84919
4.03871
4.22344
4.4032
4.57787
4.74732
4.91144
5.07014
5.22332
5.37093
5.51288
5.64914
5.77966
5.90439
6.02333
6.13647
6.24379
6.34531
6.44106
6.53107
6.61538
6.69406
6.76716
6.83478
6.897
6.95391
7.00563
7.05228
7.09397
7.13084
7.16303
7.19069
7.21396
7.23301
7.24799
7.25908
7.26643
7.27024
7.27066
7.26787
7.26207
7.25341
7.24209
7.22829
7.21218
7.19394
7.17376
7.1518
7.12824
7.10326
7.07701
7.04968
7.02142
6.99239
6.96274
6.93264
6.90222
6.87163
6.841
6.81048
6.78019
6.75025
6.72078
6.69191
6.66372
6.63634
6.60985
6.58435
6.55993
6.53666
6.51463
6.49389
6.47453
6.45659
6.44014
6.4252
6.41184
6.40009
6.3903
6.38331
6.37158
6.28193
6.532
1261.68
-323.392
-29.677
4.77884
2.20406
1.28279
1.46737
1.75359
2.00621
2.24031
2.46728
2.69024
2.90968
3.12551
3.33752
3.54546
3.74908
3.94816
4.14249
4.33188
4.51618
4.69525
4.86894
5.03716
5.1998
5.35678
5.50802
5.65345
5.79301
5.92668
6.0544
6.17616
6.29194
6.40175
6.50561
6.60352
6.69553
6.78169
6.86205
6.93669
7.00568
7.06913
7.12712
7.17978
7.22722
7.26957
7.30697
7.33957
7.3675
7.39094
7.41003
7.42495
7.43587
7.44296
7.44641
7.44638
7.44307
7.43665
7.42731
7.41525
7.40063
7.38366
7.3645
7.34335
7.32039
7.29579
7.26974
7.2424
7.21395
7.18456
7.15439
7.12359
7.09234
7.06077
7.02903
6.99728
6.96564
6.93425
6.90323
6.87272
6.84281
6.81364
6.7853
6.75789
6.73151
6.70626
6.6822
6.65942
6.63799
6.61799
6.59946
6.58247
6.56706
6.55328
6.54118
6.53104
6.52354
6.51139
6.42924
6.66862
1261.69
-323.383
-29.6624
4.79916
2.23017
1.31465
1.50494
1.79681
2.05503
2.29466
2.52708
2.7554
2.98012
3.20114
3.41824
3.63115
3.83963
4.04345
4.2424
4.43629
4.62494
4.80822
4.98599
5.15814
5.32456
5.48516
5.63987
5.78862
5.93135
6.06802
6.19858
6.32302
6.44133
6.55351
6.65956
6.75952
6.85342
6.94131
7.02326
7.09932
7.1696
7.23418
7.29317
7.34668
7.39484
7.43778
7.47564
7.50856
7.53671
7.56025
7.57933
7.59414
7.60484
7.61162
7.61466
7.61415
7.61027
7.60321
7.59316
7.58032
7.56487
7.54701
7.52691
7.50478
7.4808
7.45515
7.42802
7.39957
7.37
7.33947
7.30815
7.2762
7.24379
7.21107
7.17819
7.14531
7.11255
7.08006
7.04797
7.01641
6.98549
6.95532
6.92603
6.89771
6.87046
6.84437
6.81953
6.79601
6.7739
6.75326
6.73415
6.71663
6.70075
6.68655
6.6741
6.66364
6.65566
6.64313
6.56778
6.79714
1261.69
-323.374
-29.6485
4.81872
2.25529
1.34531
1.54108
1.83839
2.10199
2.34693
2.58459
2.81808
3.04787
3.27387
3.49585
3.71354
3.92669
4.13506
4.33843
4.53662
4.72945
4.91676
5.09843
5.27434
5.44437
5.60844
5.76647
5.91838
6.06412
6.20364
6.33691
6.46389
6.58459
6.699
6.80714
6.90903
7.0047
7.09422
7.17763
7.25503
7.32649
7.39211
7.45201
7.50629
7.55509
7.59853
7.63678
7.66997
7.69828
7.72185
7.74087
7.75551
7.76595
7.77237
7.77497
7.77393
7.76944
7.76171
7.75092
7.73727
7.72097
7.70219
7.68114
7.65801
7.63299
7.60627
7.57804
7.54848
7.51778
7.4861
7.45363
7.42052
7.38695
7.35308
7.31906
7.28504
7.25117
7.21759
7.18443
7.15182
7.11988
7.08874
7.0585
7.02927
7.00115
6.97424
6.94862
6.92437
6.90158
6.88031
6.86062
6.84258
6.82624
6.81163
6.79883
6.78805
6.77963
6.76678
6.69752
6.91755
1261.69
-323.366
-29.635
4.83751
2.27943
1.37476
1.5758
1.87833
2.14709
2.39713
2.63981
2.87825
3.11291
3.34369
3.57034
3.79261
4.01023
4.22295
4.43057
4.63287
4.82969
5.02086
5.20625
5.38574
5.55922
5.72659
5.88777
6.04269
6.19129
6.33352
6.46935
6.59874
6.7217
6.83822
6.94831
7.052
7.14934
7.24037
7.32515
7.40378
7.47633
7.5429
7.60361
7.65858
7.70793
7.75182
7.79038
7.82377
7.85216
7.87572
7.89461
7.90903
7.91916
7.92518
7.92729
7.92568
7.92056
7.91212
7.90056
7.88608
7.86889
7.84917
7.82715
7.803
7.77693
7.74913
7.7198
7.68911
7.65727
7.62444
7.5908
7.55654
7.52181
7.48679
7.45162
7.41648
7.38149
7.34682
7.31259
7.27894
7.24599
7.21387
7.18269
7.15256
7.12358
7.09585
7.06945
7.04449
7.02102
6.99912
6.97887
6.96031
6.94351
6.9285
6.91535
6.90426
6.89544
6.88231
6.8185
7.02985
1261.69
-323.359
-29.6221
4.85553
2.30257
1.40299
1.60908
1.91661
2.19032
2.44524
2.69274
2.93591
3.17523
3.41058
3.64171
3.86835
4.09024
4.30713
4.51879
4.72502
4.92564
5.12049
5.30943
5.49233
5.66908
5.83959
6.00377
6.16154
6.31285
6.45765
6.59589
6.72756
6.85264
6.97113
7.08306
7.18844
7.28732
7.37975
7.4658
7.54555
7.61909
7.68652
7.74796
7.80353
7.85337
7.89761
7.93642
7.96994
7.99836
8.02183
8.04055
8.0547
8.06446
8.07003
8.07162
8.06941
8.06361
8.05443
8.04207
8.02673
8.00863
7.98796
7.96493
7.93975
7.91262
7.88373
7.85327
7.82146
7.78846
7.75447
7.71968
7.68425
7.64836
7.61218
7.57587
7.5396
7.5035
7.46774
7.43245
7.39776
7.36381
7.33071
7.2986
7.26757
7.23774
7.20919
7.18204
7.15635
7.13221
7.1097
7.08888
7.06982
7.05256
7.03716
7.02367
7.01229
7.00309
6.98972
6.93076
7.13404
1261.7
-323.351
-29.6098
4.87278
2.32472
1.43001
1.64093
1.95324
2.23167
2.49126
2.74336
2.99107
3.23483
3.47454
3.70994
3.94076
4.16672
4.38758
4.60309
4.81306
5.0173
5.21565
5.40796
5.5941
5.77397
5.94745
6.11446
6.27493
6.4288
6.57601
6.71653
6.85033
6.9774
7.09775
7.21138
7.31833
7.41864
7.51237
7.59958
7.68035
7.75478
7.82298
7.88506
7.94115
7.99139
8.03592
8.0749
8.10849
8.13686
8.1602
8.17869
8.19251
8.20186
8.20695
8.20796
8.20511
8.1986
8.18865
8.17545
8.15923
8.1402
8.11855
8.09451
8.06828
8.04006
8.01006
7.97848
7.94552
7.91137
7.87622
7.84026
7.80366
7.76661
7.72928
7.69183
7.65443
7.61723
7.58038
7.54402
7.5083
7.47335
7.43929
7.40625
7.37433
7.34365
7.3143
7.28638
7.25999
7.23519
7.21207
7.19069
7.17113
7.15342
7.13763
7.12381
7.11213
7.10258
7.08903
7.03437
7.23014
1261.7
-323.344
-29.598
4.88926
2.34588
1.45581
1.67134
1.98821
2.27115
2.53519
2.79169
3.04371
3.29171
3.53558
3.77505
4.00984
4.23968
4.46431
4.68349
4.89701
5.10469
5.30635
5.50185
5.69106
5.87387
6.05016
6.21985
6.38286
6.53913
6.68862
6.83127
6.96707
7.096
7.21806
7.33328
7.44169
7.54331
7.63822
7.72649
7.80819
7.88342
7.95229
8.01493
8.07145
8.12201
8.16675
8.20583
8.23942
8.2677
8.29084
8.30904
8.32249
8.33139
8.33593
8.33634
8.33281
8.32556
8.3148
8.30074
8.28361
8.26362
8.24098
8.2159
8.1886
8.15929
8.12817
8.09546
8.06135
8.02603
7.98971
7.95258
7.91481
7.8766
7.83811
7.79953
7.761
7.72269
7.68476
7.64735
7.6106
7.57466
7.53964
7.50567
7.47287
7.44134
7.4112
7.38253
7.35543
7.32998
7.30626
7.28433
7.26427
7.24613
7.22995
7.21581
7.20384
7.19397
7.18027
7.12942
7.31818
1261.7
-323.338
-29.5868
4.90496
2.36604
1.4804
1.70031
2.02153
2.30877
2.57705
2.83771
3.09384
3.34588
3.59369
3.83703
4.07559
4.30911
4.53732
4.75997
4.97686
5.18779
5.3926
5.59112
5.78323
5.9688
6.14774
6.31995
6.48535
6.64388
6.79549
6.94013
7.07779
7.20845
7.33211
7.44879
7.55853
7.66136
7.75734
7.84656
7.92908
8.00502
8.07448
8.13758
8.19446
8.24526
8.29014
8.32926
8.36278
8.3909
8.41379
8.43165
8.44467
8.45306
8.45703
8.45678
8.45254
8.44451
8.43292
8.41798
8.39991
8.37894
8.35528
8.32915
8.30077
8.27035
8.23811
8.20424
8.16897
8.13249
8.095
8.05669
8.01776
7.97838
7.93874
7.89901
7.85936
7.81995
7.78094
7.74248
7.70471
7.66778
7.6318
7.59692
7.56324
7.53088
7.49995
7.47054
7.44274
7.41664
7.39233
7.36986
7.34931
7.33073
7.31418
7.29972
7.28747
7.2773
7.26349
7.21602
7.39822
1261.7
-323.331
-29.5761
4.9199
2.38521
1.50377
1.72786
2.05321
2.34452
2.61682
2.88145
3.14148
3.39734
3.6489
3.8959
4.13804
4.37504
4.60664
4.83258
5.05265
5.26665
5.47441
5.67578
5.87061
6.05879
6.24021
6.41478
6.58242
6.74306
6.89665
7.04315
7.18253
7.31478
7.43992
7.55794
7.66889
7.77282
7.86977
7.95983
8.04308
8.11963
8.18958
8.25307
8.31022
8.36119
8.40614
8.44522
8.47862
8.50651
8.52909
8.54656
8.55911
8.56695
8.5703
8.56936
8.56436
8.55553
8.54307
8.52721
8.50819
8.48622
8.46152
8.43432
8.40484
8.3733
8.33992
8.3049
8.26846
8.23081