/*--------------------------------*- C++ -*----------------------------------*\
  =========                 |
  \\      /  F ield         | OpenFOAM: The Open Source CFD Toolbox
   \\    /   O peration     | Website:  https://openfoam.org
    \\  /    A nd           | Version:  10
     \\/     M anipulation  |
\*---------------------------------------------------------------------------*/
FoamFile
{
    format      ascii;
    class       volScalarField;
    location    "14.5";
    object      T;
}
// * * * * * * * * * * * * * * * * * * * * * * * * * * * * * * * * * * * * * //

dimensions      [0 0 0 1 0 0 0];

internalField   nonuniform List<scalar> 
10000
(
374.97
361.235
356.516
354.427
353.276
352.536
352.009
351.607
351.285
351.017
350.788
350.587
350.408
350.246
350.097
349.96
349.833
349.713
349.599
349.492
349.389
349.291
349.197
349.107
349.02
348.936
348.855
348.777
348.701
348.627
348.556
348.487
348.42
348.355
348.291
348.23
348.17
348.112
348.056
348.001
347.948
347.897
347.847
347.798
347.751
347.706
347.662
347.619
347.577
347.537
347.498
347.461
347.425
347.39
347.356
347.323
347.292
347.261
347.232
347.204
347.177
347.151
347.126
347.102
347.079
347.057
347.036
347.015
346.996
346.977
346.96
346.943
346.927
346.912
346.897
346.884
346.871
346.858
346.847
346.836
346.825
346.816
346.807
346.798
346.791
346.783
346.777
346.771
346.765
346.76
346.756
346.752
346.749
346.746
346.743
346.742
346.74
346.739
346.739
346.74
388.559
374.681
366.91
362.333
359.408
357.387
355.895
354.734
353.793
353.004
352.326
351.73
351.198
350.716
350.273
349.864
349.482
349.123
348.784
348.463
348.156
347.863
347.581
347.311
347.05
346.799
346.556
346.321
346.094
345.873
345.659
345.452
345.251
345.055
344.866
344.681
344.502
344.329
344.16
343.996
343.837
343.682
343.533
343.387
343.246
343.11
342.977
342.849
342.725
342.604
342.488
342.376
342.267
342.162
342.06
341.962
341.868
341.777
341.689
341.605
341.524
341.446
341.371
341.299
341.229
341.163
341.1
341.039
340.981
340.925
340.873
340.822
340.774
340.728
340.685
340.644
340.605
340.568
340.533
340.5
340.469
340.441
340.414
340.389
340.365
340.344
340.324
340.306
340.289
340.274
340.261
340.249
340.239
340.231
340.224
340.218
340.214
340.211
340.21
340.211
393.136
382.028
374.116
368.59
364.642
361.714
359.455
357.647
356.153
354.887
353.788
352.817
351.945
351.152
350.424
349.748
349.116
348.522
347.96
347.427
346.918
346.43
345.963
345.514
345.081
344.663
344.259
343.868
343.489
343.122
342.767
342.421
342.086
341.761
341.445
341.138
340.84
340.551
340.27
339.997
339.732
339.475
339.225
338.983
338.748
338.521
338.3
338.086
337.879
337.679
337.485
337.298
337.117
336.942
336.773
336.61
336.453
336.301
336.155
336.014
335.879
335.749
335.624
335.504
335.389
335.279
335.173
335.072
334.975
334.883
334.794
334.71
334.63
334.554
334.482
334.413
334.348
334.287
334.229
334.174
334.123
334.075
334.03
333.988
333.949
333.913
333.88
333.85
333.822
333.798
333.776
333.756
333.739
333.725
333.713
333.704
333.697
333.693
333.691
333.692
395.085
386.182
378.937
373.271
368.857
365.374
362.565
360.247
358.291
356.605
355.126
353.808
352.618
351.53
350.527
349.594
348.72
347.896
347.116
346.373
345.665
344.987
344.335
343.709
343.105
342.522
341.958
341.412
340.883
340.371
339.874
339.391
338.923
338.468
338.027
337.598
337.181
336.777
336.384
336.002
335.632
335.272
334.923
334.584
334.256
333.938
333.629
333.33
333.041
332.761
332.49
332.227
331.974
331.729
331.493
331.265
331.045
330.833
330.628
330.432
330.243
330.061
329.886
329.718
329.557
329.402
329.255
329.113
328.978
328.848
328.725
328.607
328.495
328.389
328.288
328.192
328.101
328.015
327.934
327.857
327.785
327.718
327.655
327.597
327.542
327.492
327.446
327.404
327.365
327.33
327.3
327.272
327.249
327.229
327.212
327.199
327.19
327.184
327.181
327.182
396.095
388.684
382.182
376.699
372.146
368.362
365.189
362.491
360.162
358.122
356.31
354.679
353.195
351.831
350.568
349.389
348.281
347.235
346.243
345.297
344.393
343.527
342.695
341.894
341.121
340.374
339.652
338.953
338.275
337.618
336.981
336.362
335.762
335.178
334.612
334.061
333.527
333.007
332.503
332.013
331.537
331.076
330.628
330.193
329.771
329.363
328.966
328.583
328.211
327.851
327.503
327.166
326.841
326.527
326.223
325.93
325.648
325.375
325.113
324.86
324.617
324.383
324.159
323.943
323.736
323.538
323.348
323.166
322.992
322.826
322.668
322.517
322.373
322.236
322.106
321.983
321.866
321.755
321.651
321.553
321.461
321.374
321.294
321.218
321.149
321.084
321.025
320.97
320.921
320.876
320.837
320.802
320.771
320.746
320.725
320.708
320.696
320.688
320.685
320.686
396.694
390.284
384.408
379.201
374.668
370.745
367.343
364.371
361.752
359.419
357.319
355.411
353.66
352.042
350.536
349.124
347.793
346.533
345.335
344.192
343.098
342.049
341.039
340.066
339.127
338.219
337.34
336.49
335.665
334.865
334.089
333.335
332.603
331.892
331.201
330.53
329.878
329.245
328.629
328.032
327.452
326.889
326.342
325.811
325.297
324.798
324.315
323.846
323.393
322.954
322.529
322.118
321.721
321.337
320.967
320.609
320.264
319.932
319.611
319.303
319.006
318.721
318.447
318.184
317.931
317.689
317.457
317.235
317.023
316.82
316.627
316.442
316.266
316.099
315.941
315.79
315.647
315.513
315.385
315.266
315.153
315.048
314.949
314.857
314.772
314.693
314.62
314.554
314.494
314.439
314.391
314.348
314.311
314.28
314.254
314.234
314.219
314.209
314.205
314.206
397.081
391.357
385.968
381.03
376.583
372.612
369.071
365.906
363.062
360.49
358.146
355.994
354.005
352.154
350.421
348.791
347.249
345.785
344.389
343.055
341.777
340.548
339.365
338.224
337.121
336.055
335.023
334.022
333.052
332.111
331.197
330.309
329.447
328.61
327.796
327.005
326.237
325.49
324.765
324.06
323.376
322.712
322.067
321.442
320.835
320.247
319.676
319.124
318.589
318.071
317.57
317.085
316.616
316.164
315.726
315.304
314.897
314.505
314.127
313.763
313.413
313.076
312.753
312.442
312.144
311.859
311.585
311.323
311.072
310.833
310.605
310.387
310.18
309.982
309.795
309.617
309.449
309.29
309.14
308.998
308.866
308.741
308.625
308.516
308.415
308.322
308.237
308.158
308.087
308.023
307.966
307.916
307.872
307.835
307.804
307.78
307.763
307.752
307.747
307.748
397.343
392.099
387.079
382.373
378.029
374.053
370.43
367.128
364.111
361.344
358.792
356.428
354.225
352.162
350.22
348.385
346.643
344.985
343.401
341.883
340.425
339.023
337.671
336.365
335.103
333.881
332.698
331.55
330.437
329.356
328.306
327.287
326.296
325.333
324.397
323.488
322.604
321.745
320.911
320.1
319.313
318.548
317.806
317.086
316.388
315.711
315.054
314.418
313.802
313.205
312.628
312.07
311.53
311.009
310.505
310.019
309.551
309.099
308.663
308.244
307.841
307.453
307.08
306.723
306.379
306.05
305.735
305.433
305.144
304.869
304.606
304.355
304.116
303.889
303.673
303.468
303.274
303.091
302.918
302.755
302.602
302.459
302.324
302.199
302.083
301.976
301.878
301.787
301.705
301.631
301.565
301.507
301.457
301.414
301.379
301.352
301.331
301.318
301.313
301.314
397.527
392.624
387.878
383.359
379.11
375.15
371.476
368.074
364.921
361.992
359.265
356.714
354.32
352.064
349.93
347.904
345.975
344.132
342.367
340.673
339.043
337.472
335.956
334.49
333.072
331.698
330.366
329.074
327.819
326.601
325.417
324.267
323.149
322.063
321.006
319.98
318.982
318.011
317.069
316.153
315.263
314.4
313.561
312.747
311.958
311.192
310.45
309.73
309.034
308.359
307.707
307.075
306.465
305.876
305.306
304.757
304.226
303.715
303.223
302.749
302.293
301.854
301.432
301.028
300.639
300.267
299.91
299.569
299.242
298.931
298.633
298.349
298.079
297.822
297.578
297.346
297.127
296.919
296.724
296.539
296.366
296.204
296.052
295.911
295.779
295.658
295.546
295.444
295.351
295.268
295.193
295.127
295.07
295.022
294.982
294.951
294.928
294.913
294.907
294.909
397.657
392.998
388.455
384.079
379.91
375.968
372.26
368.781
365.517
362.454
359.574
356.859
354.294
351.862
349.55
347.347
345.241
343.224
341.287
339.423
337.627
335.894
334.218
332.597
331.027
329.504
328.027
326.593
325.2
323.846
322.531
321.252
320.009
318.8
317.625
316.482
315.371
314.291
313.241
312.221
311.23
310.268
309.333
308.426
307.547
306.693
305.866
305.064
304.288
303.536
302.808
302.105
301.424
300.767
300.132
299.519
298.928
298.358
297.809
297.28
296.772
296.282
295.812
295.361
294.928
294.512
294.115
293.734
293.37
293.022
292.69
292.373
292.072
291.785
291.513
291.254
291.01
290.778
290.56
290.354
290.161
289.98
289.811
289.653
289.507
289.371
289.247
289.133
289.029
288.936
288.853
288.779
288.716
288.662
288.617
288.582
288.557
288.54
288.533
288.535
397.749
393.265
388.867
384.597
380.489
376.562
372.826
369.283
365.926
362.747
359.734
356.873
354.153
351.561
349.085
346.716
344.444
342.261
340.16
338.135
336.179
334.289
332.459
330.686
328.968
327.3
325.68
324.107
322.579
321.093
319.647
318.242
316.875
315.546
314.253
312.996
311.773
310.584
309.429
308.305
307.214
306.154
305.125
304.126
303.157
302.217
301.305
300.422
299.566
298.737
297.936
297.16
296.41
295.685
294.985
294.31
293.658
293.03
292.424
291.842
291.281
290.741
290.223
289.725
289.247
288.79
288.351
287.931
287.529
287.146
286.78
286.431
286.098
285.782
285.482
285.197
284.927
284.672
284.431
284.204
283.991
283.791
283.604
283.43
283.269
283.12
282.982
282.856
282.742
282.639
282.547
282.467
282.396
282.337
282.288
282.249
282.221
282.203
282.195
282.197
397.813
393.451
389.156
384.961
380.893
376.973
373.21
369.611
366.173
362.891
359.759
356.766
353.905
351.165
348.537
346.013
343.585
341.245
338.988
336.808
334.699
332.657
330.678
328.758
326.895
325.086
323.328
321.619
319.957
318.341
316.768
315.239
313.75
312.302
310.893
309.523
308.19
306.894
305.634
304.409
303.218
302.062
300.939
299.849
298.791
297.765
296.77
295.805
294.871
293.966
293.091
292.244
291.425
290.634
289.869
289.131
288.42
287.733
287.072
286.436
285.823
285.234
284.667
284.124
283.602
283.102
282.622
282.164
281.725
281.306
280.906
280.524
280.161
279.816
279.487
279.176
278.881
278.602
278.339
278.092
277.859
277.64
277.436
277.246
277.07
276.906
276.756
276.619
276.494
276.381
276.281
276.193
276.116
276.051
275.997
275.955
275.924
275.904
275.896
275.898
397.857
393.576
389.35
385.203
381.159
377.236
373.444
369.791
366.278
362.904
359.663
356.55
353.559
350.682
347.912
345.242
342.666
340.178
337.772
335.443
333.186
330.998
328.875
326.813
324.81
322.863
320.969
319.128
317.335
315.592
313.894
312.242
310.634
309.07
307.547
306.065
304.624
303.221
301.858
300.532
299.244
297.992
296.777
295.596
294.451
293.339
292.262
291.217
290.205
289.225
288.277
287.359
286.472
285.614
284.786
283.987
283.215
282.472
281.755
281.065
280.401
279.762
279.149
278.559
277.994
277.452
276.932
276.435
275.959
275.505
275.071
274.658
274.264
273.889
273.534
273.196
272.876
272.574
272.289
272.02
271.768
271.531
271.31
271.103
270.912
270.735
270.572
270.423
270.288
270.166
270.057
269.961
269.878
269.807
269.749
269.703
269.67
269.648
269.639
269.641
397.884
393.655
389.471
385.35
381.314
377.378
373.553
369.847
366.263
362.801
359.459
356.235
353.123
350.118
347.214
344.408
341.692
339.062
336.514
334.043
331.644
329.315
327.052
324.853
322.713
320.632
318.606
316.635
314.715
312.846
311.027
309.255
307.53
305.85
304.215
302.623
301.075
299.568
298.103
296.678
295.293
293.947
292.64
291.371
290.139
288.943
287.784
286.66
285.571
284.517
283.496
282.508
281.553
280.63
279.739
278.878
278.048
277.248
276.476
275.733
275.018
274.331
273.67
273.035
272.426
271.843
271.283
270.748
270.236
269.746
269.279
268.834
268.41
268.007
267.623
267.26
266.916
266.59
266.283
265.993
265.721
265.466
265.228
265.006
264.8
264.609
264.434
264.273
264.127
263.996
263.878
263.775
263.685
263.609
263.547
263.497
263.461
263.438
263.428
263.43
397.899
393.697
389.532
385.42
381.378
377.42
373.558
369.797
366.144
362.599
359.162
355.832
352.606
349.48
346.451
343.514
340.666
337.901
335.217
332.609
330.074
327.609
325.211
322.878
320.606
318.394
316.24
314.142
312.098
310.107
308.167
306.277
304.437
302.644
300.899
299.2
297.546
295.937
294.371
292.848
291.368
289.929
288.531
287.174
285.856
284.578
283.338
282.136
280.971
279.843
278.75
277.694
276.672
275.684
274.73
273.809
272.921
272.064
271.238
270.443
269.677
268.941
268.234
267.554
266.903
266.277
265.678
265.105
264.557
264.033
263.533
263.056
262.602
262.17
261.76
261.37
261.002
260.653
260.324
260.014
259.723
259.45
259.194
258.956
258.736
258.531
258.343
258.172
258.015
257.874
257.749
257.638
257.542
257.46
257.393
257.34
257.301
257.277
257.266
257.268
397.903
393.709
389.546
385.428
381.369
377.381
373.475
369.658
365.935
362.31
358.782
355.351
352.017
348.777
345.628
342.568
339.592
336.698
333.884
331.144
328.478
325.882
323.353
320.89
318.49
316.151
313.872
311.65
309.484
307.373
305.316
303.311
301.358
299.455
297.601
295.796
294.038
292.328
290.663
289.044
287.47
285.94
284.453
283.009
281.607
280.246
278.926
277.647
276.407
275.206
274.043
272.918
271.83
270.778
269.762
268.782
267.835
266.923
266.043
265.196
264.381
263.597
262.843
262.12
261.425
260.759
260.121
259.51
258.926
258.368
257.835
257.327
256.843
256.383
255.946
255.531
255.138
254.767
254.416
254.086
253.775
253.484
253.212
252.959
252.723
252.505
252.305
252.122
251.955
251.805
251.671
251.553
251.451
251.364
251.292
251.236
251.194
251.167
251.156
251.158
397.9
393.698
389.523
385.385
381.298
377.273
373.319
369.444
365.651
361.946
358.329
354.802
351.365
348.015
344.751
341.572
338.475
335.458
332.518
329.652
326.859
324.136
321.481
318.892
316.367
313.904
311.503
309.16
306.876
304.648
302.476
300.359
298.294
296.283
294.323
292.413
290.554
288.744
286.982
285.268
283.601
281.981
280.406
278.876
277.391
275.95
274.551
273.195
271.881
270.608
269.376
268.183
267.03
265.915
264.838
263.798
262.795
261.827
260.894
259.996
259.132
258.3
257.501
256.733
255.997
255.29
254.614
253.966
253.346
252.754
252.189
251.65
251.137
250.648
250.185
249.744
249.328
248.933
248.561
248.211
247.882
247.573
247.284
247.015
246.765
246.534
246.322
246.127
245.95
245.791
245.649
245.523
245.415
245.322
245.246
245.186
245.142
245.114
245.101
245.104
397.89
393.667
389.468
385.301
381.178
377.109
373.102
369.165
365.302
361.518
357.815
354.194
350.656
347.201
343.827
340.534
337.32
334.184
331.123
328.135
325.219
322.374
319.596
316.885
314.239
311.656
309.135
306.675
304.275
301.933
299.649
297.42
295.248
293.129
291.065
289.053
287.094
285.186
283.329
281.522
279.764
278.055
276.393
274.779
273.212
271.691
270.215
268.784
267.397
266.053
264.752
263.492
262.274
261.097
259.96
258.861
257.801
256.779
255.794
254.845
253.932
253.054
252.21
251.399
250.62
249.874
249.159
248.475
247.82
247.194
246.597
246.027
245.485
244.969
244.479
244.014
243.573
243.157
242.763
242.393
242.045
241.718
241.413
241.129
240.865
240.621
240.396
240.19
240.003
239.835
239.685
239.552
239.437
239.339
239.259
239.195
239.149
239.119
239.105
239.108
397.875
393.62
389.387
385.183
381.016
376.897
372.834
368.832
364.898
361.035
357.246
353.533
349.898
346.341
342.861
339.458
336.131
332.88
329.702
326.596
323.562
320.597
317.701
314.871
312.107
309.407
306.771
304.196
301.683
299.229
296.835
294.499
292.22
289.997
287.83
285.718
283.661
281.657
279.706
277.807
275.959
274.163
272.416
270.72
269.072
267.472
265.92
264.414
262.955
261.541
260.172
258.847
257.565
256.326
255.129
253.973
252.858
251.782
250.745
249.747
248.785
247.86
246.972
246.118
245.299
244.513
243.76
243.039
242.35
241.691
241.062
240.462
239.891
239.348
238.831
238.342
237.878
237.439
237.025
236.635
236.268
235.924
235.603
235.303
235.025
234.768
234.531
234.314
234.117
233.94
233.781
233.642
233.52
233.417
233.333
233.266
233.216
233.185
233.17
233.173
397.855
393.561
389.286
385.036
380.82
376.646
372.522
368.454
364.447
360.505
356.631
352.828
349.098
345.441
341.858
338.348
334.913
331.55
328.259
325.039
321.89
318.81
315.798
312.853
309.974
307.161
304.411
301.725
299.101
296.539
294.037
291.595
289.212
286.887
284.62
282.41
280.256
278.158
276.114
274.125
272.19
270.307
268.477
266.699
264.971
263.294
261.667
260.088
258.558
257.075
255.639
254.25
252.905
251.606
250.35
249.137
247.967
246.838
245.75
244.702
243.693
242.722
241.79
240.894
240.034
239.209
238.419
237.662
236.939
236.247
235.587
234.957
234.358
233.787
233.245
232.731
232.244
231.783
231.348
230.939
230.554
230.193
229.855
229.54
229.248
228.978
228.729
228.502
228.295
228.109
227.942
227.795
227.668
227.56
227.471
227.4
227.348
227.315
227.3
227.303
397.832
393.491
389.167
384.866
380.595
376.362
372.174
368.037
363.956
359.934
355.977
352.085
348.261
344.507
340.823
337.211
333.669
330.198
326.797
323.467
320.206
317.014
313.89
310.833
307.843
304.919
302.059
299.264
296.532
293.863
291.256
288.711
286.226
283.801
281.436
279.129
276.881
274.69
272.556
270.479
268.457
266.49
264.578
262.719
260.914
259.16
257.459
255.808
254.208
252.658
251.156
249.702
248.296
246.937
245.623
244.354
243.13
241.949
240.81
239.714
238.658
237.642
236.666
235.728
234.828
233.965
233.138
232.346
231.589
230.865
230.174
229.515
228.887
228.29
227.722
227.184
226.674
226.192
225.737
225.308
224.904
224.526
224.173
223.844
223.538
223.255
222.994
222.756
222.539
222.344
222.17
222.016
221.882
221.769
221.675
221.601
221.547
221.512
221.496
221.499
397.806
393.412
389.034
384.677
380.347
376.051
371.796
367.588
363.432
359.331
355.289
351.309
347.394
343.544
339.762
336.049
332.404
328.828
325.321
321.883
318.513
315.212
311.979
308.814
305.715
302.682
299.716
296.814
293.977
291.204
288.495
285.848
283.264
280.741
278.28
275.879
273.538
271.256
269.034
266.869
264.763
262.713
260.72
258.782
256.9
255.072
253.298
251.576
249.907
248.29
246.724
245.207
243.74
242.322
240.951
239.627
238.349
237.117
235.929
234.784
233.682
232.622
231.603
230.624
229.685
228.784
227.92
227.094
226.303
225.547
224.826
224.137
223.482
222.858
222.266
221.704
221.171
220.668
220.192
219.744
219.323
218.928
218.559
218.215
217.895
217.6
217.328
217.079
216.853
216.648
216.466
216.305
216.166
216.047
215.95
215.872
215.815
215.779
215.762
215.765
397.777
393.326
388.889
384.471
380.078
375.717
371.393
367.112
362.879
358.698
354.573
350.506
346.5
342.557
338.679
334.867
331.121
327.443
323.832
320.29
316.815
313.408
310.069
306.797
303.592
300.455
297.383
294.378
291.438
288.564
285.754
283.009
280.327
277.709
275.153
272.66
270.228
267.858
265.548
263.299
261.109
258.978
256.905
254.89
252.932
251.031
249.185
247.394
245.658
243.975
242.345
240.766
239.24
237.763
236.336
234.958
233.628
232.344
231.107
229.916
228.768
227.664
226.603
225.584
224.606
223.667
222.768
221.907
221.083
220.296
219.544
218.827
218.145
217.495
216.878
216.292
215.737
215.213
214.717
214.251
213.812
213.4
213.016
212.657
212.324
212.016
211.733
211.473
211.237
211.025
210.835
210.667
210.522
210.398
210.296
210.215
210.156
210.117
210.1
210.103
397.747
393.233
388.735
384.252
379.794
375.364
370.969
366.614
362.304
358.043
353.834
349.681
345.585
341.551
337.578
333.669
329.825
326.047
322.335
318.69
315.113
311.603
308.16
304.785
301.478
298.237
295.064
291.958
288.918
285.944
283.037
280.194
277.418
274.705
272.058
269.474
266.953
264.496
262.101
259.768
257.497
255.286
253.135
251.044
249.012
247.039
245.123
243.264
241.461
239.713
238.021
236.382
234.796
233.262
231.78
230.348
228.967
227.633
226.348
225.11
223.918
222.771
221.668
220.609
219.592
218.617
217.683
216.788
215.932
215.113
214.332
213.587
212.878
212.202
211.561
210.952
210.375
209.83
209.315
208.829
208.373
207.945
207.545
207.173
206.826
206.506
206.211
205.941
205.696
205.475
205.277
205.103
204.951
204.823
204.716
204.632
204.57
204.53
204.512
204.515
397.714
393.136
388.572
384.023
379.496
374.995
370.528
366.098
361.71
357.368
353.076
348.837
344.653
340.528
336.463
332.459
328.519
324.643
320.833
317.088
313.411
309.8
306.257
302.781
299.373
296.032
292.76
289.555
286.417
283.347
280.343
277.407
274.537
271.733
268.995
266.323
263.716
261.173
258.694
256.28
253.928
251.639
249.412
247.247
245.142
243.098
241.113
239.187
237.318
235.508
233.753
232.055
230.411
228.821
227.285
225.801
224.368
222.986
221.653
220.369
219.133
217.944
216.801
215.702
214.648
213.636
212.667
211.739
210.851
210.002
209.192
208.419
207.683
206.982
206.316
205.685
205.086
204.52
203.986
203.483
203.009
202.565
202.15
201.763
201.404
201.072
200.766
200.485
200.231
200.001
199.796
199.615
199.458
199.324
199.214
199.126
199.062
199.02
199.001
199.003
397.681
393.035
388.403
383.785
379.187
374.614
370.073
365.567
361.1
356.678
352.303
347.979
343.708
339.493
335.337
331.24
327.206
323.235
319.328
315.486
311.711
308.002
304.36
300.786
297.28
293.842
290.472
287.171
283.938
280.773
277.676
274.648
271.687
268.793
265.967
263.208
260.516
257.89
255.33
252.835
250.405
248.039
245.737
243.499
241.323
239.209
237.157
235.165
233.232
231.359
229.545
227.787
226.087
224.442
222.852
221.317
219.834
218.404
217.025
215.696
214.416
213.185
212.002
210.865
209.773
208.726
207.722
206.761
205.842
204.963
204.124
203.324
202.562
201.836
201.147
200.493
199.873
199.287
198.734
198.212
197.722
197.262
196.832
196.432
196.059
195.715
195.398
195.108
194.844
194.606
194.393
194.205
194.043
193.904
193.789
193.699
193.632
193.588
193.568
193.571
397.646
392.931
388.228
383.539
378.869
374.224
369.607
365.024
360.479
355.976
351.518
347.109
342.752
338.449
334.203
330.016
325.889
321.824
317.823
313.886
310.015
306.211
302.473
298.803
295.201
291.668
288.204
284.808
281.482
278.225
275.037
271.918
268.869
265.888
262.976
260.132
257.356
254.648
252.008
249.435
246.928
244.488
242.112
239.802
237.557
235.375
233.256
231.199
229.204
227.27
225.396
223.581
221.825
220.126
218.484
216.898
215.366
213.888
212.464
211.091
209.769
208.497
207.274
206.099
204.971
203.888
202.851
201.858
200.908
200
199.132
198.305
197.517
196.767
196.055
195.379
194.738
194.132
193.56
193.021
192.514
192.038
191.594
191.179
190.794
190.438
190.11
189.81
189.537
189.291
189.071
188.877
188.708
188.565
188.446
188.352
188.283
188.238
188.217
188.219
397.611
392.824
388.05
383.289
378.545
373.825
369.133
364.472
359.848
355.265
350.725
346.232
341.789
337.4
333.065
328.788
324.571
320.415
316.321
312.291
308.327
304.429
300.597
296.834
293.139
289.513
285.956
282.469
279.052
275.704
272.427
269.221
266.084
263.018
260.021
257.095
254.238
251.45
248.732
246.082
243.5
240.986
238.539
236.159
233.844
231.596
229.412
227.292
225.235
223.242
221.309
219.438
217.627
215.875
214.182
212.546
210.966
209.442
207.972
206.556
205.192
203.88
202.618
201.406
200.242
199.125
198.055
197.03
196.05
195.113
194.218
193.364
192.551
191.777
191.041
190.343
189.682
189.057
188.466
187.909
187.386
186.895
186.437
186.009
185.611
185.243
184.905
184.595
184.313
184.058
183.831
183.631
183.456
183.308
183.186
183.088
183.017
182.97
182.948
182.95
397.574
392.715
387.868
383.034
378.216
373.421
368.652
363.914
359.211
354.547
349.925
345.35
340.822
336.347
331.926
327.561
323.254
319.008
314.824
310.704
306.648
302.658
298.736
294.881
291.095
287.378
283.731
280.154
276.648
273.213
269.849
266.556
263.335
260.185
257.106
254.099
251.162
248.297
245.501
242.776
240.121
237.535
235.018
232.569
230.188
227.874
225.626
223.444
221.328
219.275
217.286
215.36
213.495
211.691
209.947
208.262
206.635
205.066
203.552
202.093
200.688
199.337
198.037
196.788
195.589
194.438
193.336
192.28
191.269
190.304
189.382
188.502
187.664
186.866
186.108
185.389
184.708
184.063
183.454
182.88
182.341
181.835
181.362
180.921
180.511
180.132
179.783
179.463
179.172
178.91
178.676
178.469
178.289
178.136
178.009
177.909
177.835
177.786
177.764
177.766
397.538
392.605
387.685
382.776
377.883
373.012
368.167
363.351
358.57
353.826
349.123
344.464
339.854
335.294
330.787
326.335
321.941
317.607
313.335
309.125
304.98
300.901
296.889
292.945
289.07
285.265
281.53
277.866
274.273
270.752
267.303
263.927
260.622
257.391
254.232
251.145
248.131
245.189
242.319
239.521
236.793
234.137
231.551
229.035
226.588
224.21
221.9
219.658
217.482
215.372
213.327
211.347
209.429
207.575
205.781
204.049
202.375
200.761
199.204
197.704
196.259
194.868
193.531
192.246
191.012
189.829
188.695
187.608
186.568
185.575
184.626
183.721
182.858
182.037
181.257
180.517
179.816
179.152
178.526
177.935
177.38
176.859
176.372
175.918
175.496
175.106
174.746
174.417
174.118
173.847
173.606
173.393
173.208
173.05
172.919
172.816
172.739
172.689
172.665
172.668
397.501
392.494
387.499
382.516
377.548
372.601
367.679
362.786
357.926
353.102
348.319
343.579
338.886
334.242
329.651
325.114
320.635
316.215
311.855
307.559
303.326
299.16
295.061
291.03
287.068
283.176
279.355
275.605
271.928
268.323
264.791
261.333
257.948
254.637
251.399
248.235
245.145
242.129
239.186
236.315
233.518
230.793
228.14
225.558
223.047
220.607
218.236
215.934
213.7
211.534
209.434
207.401
205.432
203.527
201.686
199.906
198.188
196.529
194.93
193.389
191.904
190.476
189.102
187.782
186.515
185.299
184.133
183.016
181.948
180.927
179.952
179.022
178.135
177.292
176.49
175.729
175.008
174.326
173.682
173.075
172.504
171.969
171.468
171.001
170.567
170.166
169.796
169.458
169.15
168.872
168.624
168.404
168.214
168.051
167.917
167.81
167.731
167.68
167.655
167.657
397.464
392.383
387.313
382.255
377.212
372.189
367.19
362.22
357.281
352.379
347.516
342.695
337.921
333.195
328.52
323.9
319.337
314.832
310.387
306.005
301.688
297.436
293.251
289.135
285.088
281.112
277.207
273.374
269.614
265.928
262.315
258.777
255.313
251.924
248.61
245.371
242.206
239.117
236.102
233.162
230.296
227.504
224.785
222.139
219.565
217.064
214.633
212.273
209.983
207.762
205.609
203.523
201.504
199.55
197.661
195.836
194.073
192.372
190.731
189.15
187.627
186.161
184.752
183.397
182.096
180.848
179.652
178.506
177.41
176.362
175.361
174.406
173.496
172.63
171.808
171.026
170.286
169.586
168.925
168.302
167.716
167.166
166.652
166.172
165.727
165.314
164.935
164.587
164.271
163.985
163.73
163.505
163.309
163.142
163.004
162.894
162.813
162.759
162.734
162.735
397.426
392.271
387.127
381.994
376.876
371.777
366.702
361.654
356.638
351.657
346.715
341.815
336.96
332.153
327.397
322.695
318.048
313.46
308.933
304.467
300.066
295.731
291.463
287.263
283.134
279.075
275.088
271.174
267.334
263.567
259.876
256.259
252.719
249.254
245.865
242.552
239.315
236.155
233.07
230.062
227.128
224.271
221.487
218.779
216.144
213.583
211.094
208.677
206.331
204.056
201.851
199.715
197.646
195.645
193.71
191.839
190.033
188.29
186.608
184.988
183.427
181.925
180.48
179.092
177.759
176.48
175.254
174.079
172.955
171.881
170.854
169.876
168.943
168.055
167.211
166.41
165.651
164.933
164.255
163.616
163.015
162.451
161.924
161.432
160.975
160.552
160.163
159.806
159.481
159.188
158.926
158.695
158.494
158.323
158.181
158.068
157.984
157.929
157.903
157.904
397.389
392.16
386.941
381.733
376.54
371.366
366.215
361.091
355.998
350.939
345.919
340.94
336.005
331.119
326.282
321.499
316.772
312.102
307.493
302.946
298.464
294.046
289.697
285.416
281.206
277.066
273
269.006
265.087
261.243
257.475
253.782
250.166
246.627
243.165
239.781
236.473
233.243
230.091
227.015
224.017
221.095
218.249
215.479
212.784
210.164
207.619
205.146
202.747
200.419
198.163
195.977
193.86
191.812
189.831
187.917
186.069
184.284
182.563
180.904
179.307
177.769
176.29
174.868
173.503
172.194
170.938
169.735
168.584
167.484
166.433
165.431
164.475
163.566
162.702
161.882
161.104
160.369
159.674
159.019
158.404
157.826
157.286
156.782
156.314
155.88
155.481
155.116
154.783
154.483
154.214
153.977
153.771
153.595
153.449
153.334
153.247
153.191
153.163
153.165
397.352
392.049
386.756
381.474
376.206
370.956
365.73
360.53
355.361
350.226
345.128
340.071
335.059
330.094
325.178
320.316
315.509
310.76
306.071
301.444
296.881
292.384
287.955
283.595
279.305
275.088
270.943
266.872
262.876
258.956
255.112
251.346
247.657
244.045
240.512
237.057
233.681
230.384
227.165
224.024
220.961
217.977
215.07
212.24
209.487
206.81
204.209
201.682
199.23
196.851
194.545
192.31
190.147
188.053
186.028
184.071
182.181
180.356
178.596
176.9
175.266
173.693
172.181
170.727
169.331
167.991
166.707
165.476
164.299
163.174
162.099
161.073
160.095
159.165
158.281
157.442
156.646
155.894
155.183
154.513
153.883
153.291
152.738
152.223
151.743
151.3
150.891
150.517
150.176
149.869
149.594
149.351
149.14
148.959
148.81
148.692
148.603
148.545
148.517
148.518
397.315
391.938
386.572
381.215
375.873
370.55
365.249
359.974
354.729
349.518
344.344
339.211
334.122
329.079
324.086
319.146
314.261
309.434
304.666
299.961
295.32
290.745
286.238
281.801
277.434
273.14
268.919
264.772
260.702
256.708
252.791
248.952
245.191
241.509
237.907
234.384
230.94
227.577
224.293
221.088
217.964
214.918
211.952
209.063
206.253
203.521
200.865
198.286
195.782
193.353
190.998
188.716
186.506
184.368
182.3
180.301
178.37
176.506
174.708
172.975
171.306
169.699
168.154
166.668
165.242
163.873
162.56
161.303
160.1
158.95
157.851
156.803
155.804
154.853
153.949
153.091
152.278
151.509
150.782
150.097
149.453
148.848
148.283
147.756
147.265
146.812
146.394
146.011
145.663
145.348
145.067
144.818
144.602
144.417
144.265
144.143
144.052
143.993
143.963
143.964
397.279
391.829
386.389
380.96
375.544
370.147
364.772
359.423
354.104
348.818
343.569
338.36
333.195
328.076
323.007
317.991
313.029
308.125
303.281
298.5
293.782
289.131
284.548
280.035
275.593
271.224
266.929
262.709
258.565
254.499
250.51
246.601
242.77
239.02
235.35
231.76
228.251
224.823
221.476
218.21
215.024
211.919
208.894
205.949
203.084
200.297
197.588
194.957
192.403
189.925
187.523
185.194
182.94
180.758
178.647
176.607
174.637
172.735
170.9
169.131
167.427
165.787
164.21
162.693
161.237
159.839
158.5
157.216
155.988
154.813
153.691
152.621
151.601
150.63
149.707
148.831
148
147.215
146.472
145.773
145.115
144.497
143.92
143.381
142.88
142.417
141.99
141.599
141.243
140.921
140.633
140.379
140.158
139.97
139.813
139.689
139.596
139.534
139.504
139.504
397.243
391.72
386.208
380.706
375.218
369.748
364.3
358.878
353.485
348.125
342.802
337.52
332.28
327.087
321.943