/*--------------------------------*- C++ -*----------------------------------*\
  =========                 |
  \\      /  F ield         | OpenFOAM: The Open Source CFD Toolbox
   \\    /   O peration     | Website:  https://openfoam.org
    \\  /    A nd           | Version:  10
     \\/     M anipulation  |
\*---------------------------------------------------------------------------*/
FoamFile
{
    format      ascii;
    class       volScalarField;
    location    "36.5";
    object      ddt0(T);
}
// * * * * * * * * * * * * * * * * * * * * * * * * * * * * * * * * * * * * * //

dimensions      [0 0 -1 1 0 0 0];

internalField   nonuniform List<scalar> 
10000
(
543.719
43.5115
113.034
111.095
110.586
110.669
110.69
110.692
110.692
110.693
110.694
110.695
110.696
110.697
110.698
110.699
110.699
110.7
110.701
110.702
110.703
110.704
110.704
110.705
110.706
110.707
110.707
110.708
110.709
110.71
110.71
110.711
110.712
110.713
110.713
110.714
110.715
110.715
110.716
110.717
110.717
110.718
110.719
110.719
110.72
110.72
110.721
110.721
110.722
110.723
110.723
110.724
110.724
110.725
110.725
110.726
110.726
110.726
110.727
110.727
110.728
110.728
110.729
110.729
110.729
110.73
110.73
110.73
110.731
110.731
110.731
110.732
110.732
110.732
110.732
110.733
110.733
110.733
110.733
110.734
110.734
110.734
110.734
110.734
110.734
110.735
110.735
110.735
110.735
110.735
110.735
110.735
110.735
110.735
110.735
110.737
110.82
111.295
105.542
86.871
68.1428
-104.094
-34.1132
-43.3494
-44.225
-44.0192
-43.9849
-43.9862
-43.9852
-43.9828
-43.9802
-43.9776
-43.9751
-43.9725
-43.97
-43.9675
-43.965
-43.9626
-43.9601
-43.9577
-43.9552
-43.9528
-43.9504
-43.9481
-43.9457
-43.9434
-43.9411
-43.9388
-43.9366
-43.9344
-43.9322
-43.93
-43.9279
-43.9257
-43.9236
-43.9216
-43.9196
-43.9176
-43.9156
-43.9136
-43.9117
-43.9098
-43.908
-43.9062
-43.9044
-43.9026
-43.9009
-43.8992
-43.8976
-43.8959
-43.8944
-43.8928
-43.8913
-43.8898
-43.8883
-43.8869
-43.8855
-43.8842
-43.8829
-43.8816
-43.8803
-43.8791
-43.8779
-43.8768
-43.8757
-43.8746
-43.8735
-43.8725
-43.8715
-43.8706
-43.8697
-43.8688
-43.8679
-43.8671
-43.8663
-43.8656
-43.8649
-43.8642
-43.8635
-43.8629
-43.8623
-43.8618
-43.8612
-43.8607
-43.8603
-43.8598
-43.8594
-43.8591
-43.8587
-43.8584
-43.8581
-43.8579
-43.8576
-43.8575
-43.8594
-43.8685
-43.8349
-43.3341
-44.4829
-33.4115
128.167
-41.7267
19.4146
9.21582
8.57058
8.84809
8.88891
8.88829
8.89076
8.89496
8.89929
8.90358
8.90783
8.91206
8.91627
8.92046
8.92462
8.92876
8.93287
8.93694
8.94099
8.945
8.94898
8.95292
8.95682
8.96069
8.96452
8.96831
8.97206
8.97577
8.97943
8.98305
8.98663
8.99016
8.99364
8.99708
9.00046
9.0038
9.00709
9.01033
9.01351
9.01665
9.01973
9.02276
9.02574
9.02866
9.03153
9.03434
9.0371
9.0398
9.04245
9.04504
9.04758
9.05006
9.05248
9.05485
9.05716
9.05941
9.06161
9.06375
9.06583
9.06786
9.06983
9.07175
9.07361
9.07541
9.07716
9.07885
9.08048
9.08206
9.08359
9.08506
9.08647
9.08783
9.08914
9.09039
9.09159
9.09273
9.09382
9.09486
9.09584
9.09677
9.09765
9.09848
9.09926
9.09998
9.10065
9.10127
9.10184
9.10236
9.10283
9.10326
9.10368
9.10403
9.1021
9.08652
9.06294
9.26975
7.96221
7.93039
126.825
-49.6995
10.451
0.453653
-0.0881
0.203502
0.24434
0.244566
0.248631
0.25455
0.260603
0.266592
0.27254
0.278456
0.284342
0.290194
0.296011
0.30179
0.307529
0.313227
0.318881
0.32449
0.330052
0.335566
0.341029
0.346439
0.351796
0.357098
0.362343
0.367529
0.372656
0.377721
0.382724
0.387662
0.392535
0.397342
0.402082
0.406752
0.411353
0.415884
0.420342
0.424728
0.429041
0.43328
0.437445
0.441534
0.445547
0.449483
0.453343
0.457125
0.46083
0.464457
0.468005
0.471474
0.474865
0.478177
0.48141
0.484564
0.487638
0.490634
0.49355
0.496387
0.499146
0.501825
0.504426
0.506948
0.509393
0.511759
0.514047
0.516257
0.518391
0.520447
0.522427
0.52433
0.526157
0.527908
0.529584
0.531185
0.532711
0.534163
0.535541
0.536845
0.538075
0.539232
0.540316
0.541328
0.542268
0.543135
0.54393
0.544654
0.545306
0.545902
0.546537
0.547518
0.548492
0.542866
0.529182
0.69069
0.71489
0.327106
126.413
-50.4786
9.87454
-0.0214056
-0.543109
-0.250802
-0.209577
-0.207961
-0.202212
-0.194576
-0.186812
-0.179121
-0.171478
-0.163874
-0.156308
-0.148786
-0.141309
-0.13388
-0.126502
-0.119177
-0.111908
-0.104698
-0.0975481
-0.0904611
-0.0834391
-0.0764843
-0.0695987
-0.0627845
-0.0560435
-0.0493777
-0.042789
-0.0362791
-0.0298498
-0.0235029
-0.0172398
-0.0110622
-0.00497141
0.00103105
0.00694391
0.0127659
0.0184959
0.0241327
0.0296754
0.035123
0.0404746
0.0457294
0.0508866
0.0559455
0.0609056
0.0657663
0.0705271
0.0751876
0.0797474
0.0842062
0.0885637
0.0928199
0.0969744
0.101027
0.104978
0.108828
0.112576
0.116222
0.119766
0.12321
0.126552
0.129794
0.132934
0.135975
0.138915
0.141756
0.144497
0.14714
0.149684
0.15213
0.154478
0.156728
0.158882
0.160939
0.162901
0.164766
0.166537
0.168212
0.169793
0.171281
0.172674
0.173975
0.175182
0.176297
0.17732
0.17825
0.179084
0.179819
0.180499
0.181385
0.182709
0.180442
0.162145
0.182684
0.229453
0.201728
126.484
-50.3025
10.1165
0.234766
-0.286109
0.00646482
0.0489475
0.0522155
0.0596845
0.0690375
0.0785093
0.0879001
0.0972352
0.106524
0.115764
0.124953
0.134086
0.14316
0.152172
0.161119
0.169997
0.178804
0.187538
0.196194
0.204772
0.213267
0.221678
0.230001
0.238235
0.246377
0.254425
0.262377
0.27023
0.277983
0.285633
0.293179
0.300618
0.30795
0.315172
0.322284
0.329283
0.336168
0.342938
0.349592
0.356129
0.362547
0.368847
0.375026
0.381084
0.387021
0.392837
0.398529
0.404099
0.409545
0.414867
0.420066
0.425141
0.430091
0.434917
0.439619
0.444197
0.44865
0.45298
0.457186
0.461268
0.465228
0.469064
0.472778
0.476369
0.479839
0.483188
0.486415
0.489523
0.49251
0.495378
0.498127
0.500758
0.503271
0.505666
0.507945
0.510107
0.512154
0.514085
0.515902
0.517604
0.519192
0.520667
0.522029
0.523279
0.524416
0.525438
0.526335
0.527111
0.527926
0.52932
0.530621
0.524909
0.520363
0.519923
0.534117
126.502
-50.2725
10.1528
0.271427
-0.248997
0.0448403
0.0889575
0.0939438
0.103133
0.114197
0.125372
0.136459
0.147483
0.158452
0.169364
0.180215
0.191
0.201716
0.212358
0.222924
0.233409
0.243809
0.254123
0.264346
0.274475
0.284508
0.29444
0.30427
0.313994
0.323609
0.333113
0.342504
0.351778
0.360933
0.369968
0.378879
0.387664
0.396323
0.404852
0.41325
0.421515
0.429646
0.437641
0.445499
0.453218
0.460798
0.468237
0.475534
0.482689
0.4897
0.496567
0.50329
0.509867
0.516299
0.522584
0.528723
0.534716
0.540562
0.546261
0.551814
0.557219
0.562479
0.567592
0.572558
0.577379
0.582055
0.586585
0.590971
0.595212
0.59931
0.603264
0.607076
0.610745
0.614273
0.61766
0.620906
0.624013
0.62698
0.629809
0.6325
0.635054
0.637471
0.639752
0.641897
0.643907
0.645783
0.647524
0.649133
0.650609
0.651952
0.653162
0.654232
0.655142
0.65592
0.656875
0.658372
0.658547
0.657247
0.652232
0.660472
126.504
-50.2733
10.1529
0.272423
-0.2466
0.0488898
0.0947252
0.101432
0.112334
0.125104
0.137978
0.150757
0.163465
0.176111
0.18869
0.201199
0.213633
0.225986
0.238255
0.250436
0.262523
0.274514
0.286404
0.29819
0.309867
0.321433
0.332884
0.344216
0.355426
0.366511
0.377468
0.388294
0.398985
0.40954
0.419955
0.430228
0.440357
0.450338
0.460171
0.469852
0.479381
0.488754
0.497971
0.50703
0.515929
0.524667
0.533243
0.541656
0.549904
0.557986
0.565903
0.573653
0.581235
0.588649
0.595896
0.602973
0.609881
0.616621
0.623191
0.629592
0.635824
0.641887
0.647781
0.653507
0.659065
0.664454
0.669677
0.674733
0.679622
0.684346
0.688905
0.693299
0.697529
0.701596
0.7055
0.709243
0.712824
0.716245
0.719506
0.722609
0.725552
0.728339
0.730968
0.733441
0.735758
0.737921
0.739929
0.741783
0.743484
0.745033
0.74643
0.747673
0.748748
0.749632
0.750401
0.751334
0.752351
0.753147
0.748243
0.755356
126.505
-50.2721
10.1556
0.276741
-0.240598
0.0566125
0.104168
0.112588
0.125197
0.139667
0.154235
0.168701
0.183089
0.197406
0.211649
0.225811
0.239889
0.253875
0.267766
0.281557
0.295242
0.308818
0.322281
0.335624
0.348846
0.361941
0.374906
0.387736
0.400428
0.412979
0.425384
0.437641
0.449746
0.461696
0.473488
0.485119
0.496587
0.507888
0.51902
0.529982
0.54077
0.551382
0.561818
0.572074
0.582149
0.592043
0.601752
0.611277
0.620615
0.629766
0.638729
0.647503
0.656088
0.664482
0.672686
0.680699
0.688521
0.696151
0.703589
0.710836
0.717892
0.724756
0.73143
0.737912
0.744205
0.750307
0.75622
0.761944
0.76748
0.772828
0.777989
0.782964
0.787753
0.792358
0.796778
0.801015
0.80507
0.808943
0.812635
0.816148
0.819481
0.822635
0.825612
0.828412
0.831035
0.833484
0.835757
0.837856
0.839782
0.841535
0.843117
0.844528
0.845764
0.846805
0.847641
0.848358
0.849276
0.850945
0.844288
0.853414
126.506
-50.2696
10.1598
0.282676
-0.232946
0.0659815
0.115249
0.125375
0.139684
0.155849
0.172106
0.188254
0.204316
0.220299
0.2362
0.252011
0.267726
0.283341
0.298848
0.314244
0.329523
0.344679
0.359708
0.374605
0.389366
0.403985
0.418459
0.432783
0.446952
0.460964
0.474813
0.488497
0.502011
0.515352
0.528516
0.541501
0.554303
0.56692
0.579348
0.591585
0.603628
0.615476
0.627126
0.638576
0.649824
0.660868
0.671708
0.682341
0.692766
0.702982
0.712988
0.722783
0.732367
0.741738
0.750896
0.759842
0.768573
0.777091
0.785396
0.793486
0.801363
0.809026
0.816476
0.823713
0.830737
0.83755
0.844151
0.850541
0.856721
0.862691
0.868453
0.874006
0.879353
0.884493
0.889428
0.894158
0.898685
0.903009
0.90713
0.911051
0.914772
0.918294
0.921617
0.924743
0.927672
0.930405
0.932943
0.935286
0.937436
0.939393
0.941158
0.942732
0.944117
0.945303
0.946265
0.946983
0.947841
0.950381
0.941211
0.952998
126.506
-50.267
10.1642
0.288728
-0.225184
0.0754515
0.126423
0.138248
0.154252
0.172106
0.190045
0.207869
0.2256
0.243244
0.260796
0.278249
0.295597
0.312834
0.329953
0.346948
0.363814
0.380545
0.397135
0.41358
0.429874
0.446012
0.46199
0.477802
0.493444
0.508911
0.524199
0.539304
0.554222
0.568949
0.583481
0.597814
0.611946
0.625873
0.639592
0.653101
0.666395
0.679474
0.692333
0.704973
0.717389
0.729581
0.741546
0.753283
0.764791
0.776068
0.787114
0.797926
0.808505
0.81885
0.828959
0.838834
0.848472
0.857875
0.867042
0.875972
0.884667
0.893126
0.901349
0.909338
0.917092
0.924612
0.931898
0.938952
0.945774
0.952364
0.958724
0.964855
0.970756
0.976431
0.981878
0.987099
0.992096
0.996869
1.00142
1.00575
1.00985
1.01374
1.01741
1.02086
1.02409
1.02711
1.02991
1.0325
1.03487
1.03703
1.03898
1.04072
1.04224
1.04356
1.04464
1.04541
1.04625
1.04973
1.03809
1.05242
126.507
-50.2644
10.1684
0.29472
-0.217489
0.0848473
0.137516
0.151034
0.168725
0.188261
0.207877
0.227371
0.246763
0.266061
0.285258
0.304348
0.323322
0.342174
0.360898
0.379486
0.397933
0.416232
0.434378
0.452365
0.470186
0.487837
0.505312
0.522606
0.539714
0.556632
0.573353
0.589874
0.60619
0.622297
0.638191
0.653869
0.669325
0.684558
0.699562
0.714337
0.728877
0.743181
0.757247
0.77107
0.78465
0.797985
0.811071
0.823908
0.836495
0.848829
0.860909
0.872735
0.884305
0.895619
0.906676
0.917476
0.928018
0.938302
0.948327
0.958095
0.967604
0.976856
0.98585
0.994587
1.00307
1.01129
1.01926
1.02698
1.03444
1.04164
1.0486
1.05531
1.06176
1.06797
1.07392
1.07963
1.0851
1.09032
1.0953
1.10003
1.10452
1.10877
1.11278
1.11656
1.12009
1.12339
1.12646
1.12929
1.13188
1.13425
1.13638
1.13828
1.13994
1.14139
1.14258
1.14341
1.14421
1.14858
1.1348
1.15133
126.508
-50.2619
10.1727
0.300674
-0.209839
0.0941906
0.148549
0.163753
0.183124
0.204336
0.22562
0.246776
0.267824
0.288768
0.309604
0.330322
0.350915
0.371376
0.391697
0.411872
0.431893
0.451754
0.471448
0.49097
0.510312
0.529469
0.548436
0.567206
0.585774
0.604135
0.622283
0.640214
0.657922
0.675404
0.692654
0.709669
0.726444
0.742976
0.759262
0.775296
0.791077
0.806602
0.821867
0.83687
0.851609
0.866081
0.880284
0.894216
0.907876
0.921262
0.934373
0.947208
0.959765
0.972044
0.984045
0.995766
1.00721
1.01837
1.02925
1.03985
1.05017
1.06021
1.06997
1.07945
1.08866
1.09758
1.10623
1.1146
1.1227
1.13052
1.13807
1.14535
1.15236
1.15909
1.16556
1.17175
1.17769
1.18335
1.18875
1.19389
1.19876
1.20338
1.20773
1.21183
1.21567
1.21925
1.22257
1.22564
1.22846
1.23103
1.23334
1.2354
1.23721
1.23878
1.24007
1.24097
1.24175
1.24684
1.23138
1.24967
126.509
-50.2594
10.1769
0.306598
-0.202226
0.103489
0.159529
0.176411
0.197455
0.220334
0.24328
0.26609
0.288784
0.311368
0.333834
0.356174
0.378378
0.40044
0.422352
0.444105
0.465693
0.487108
0.508344
0.529393
0.550249
0.570906
0.591357
0.611596
0.631617
0.651414
0.670983
0.690316
0.709411
0.72826
0.74686
0.765207
0.783295
0.80112
0.818679
0.835969
0.852985
0.869724
0.886183
0.90236
0.918252
0.933856
0.94917
0.964192
0.978921
0.993354
1.00749
1.02133
1.03487
1.04811
1.06105
1.07369
1.08602
1.09806
1.10979
1.12122
1.13234
1.14317
1.1537
1.16392
1.17384
1.18347
1.19279
1.20182
1.21055
1.21898
1.22712
1.23497
1.24252
1.24978
1.25676
1.26344
1.26983
1.27594
1.28177
1.2873
1.29256
1.29754
1.30223
1.30665
1.31079
1.31465
1.31823
1.32154
1.32458
1.32735
1.32984
1.33206
1.33401
1.3357
1.33711
1.33807
1.33884
1.34448
1.32779
1.34742
126.51
-50.2568
10.1812
0.312492
-0.194651
0.112741
0.170454
0.189005
0.211714
0.236252
0.260851
0.285307
0.30964
0.333854
0.357942
0.381895
0.405703
0.429358
0.452852
0.476176
0.499323
0.522285
0.545054
0.567623
0.589985
0.612133
0.634061
0.655761
0.677228
0.698455
0.719436
0.740166
0.760639
0.780849
0.800792
0.820463
0.839857
0.858969
0.877796
0.896334
0.914578
0.932526
0.950173
0.967518
0.984557
1.00129
1.01771
1.03381
1.0496
1.06508
1.08024
1.09507
1.10959
1.12379
1.13766
1.15121
1.16443
1.17734
1.18992
1.20217
1.2141
1.22571
1.23699
1.24795
1.25859
1.26891
1.27891
1.28859
1.29795
1.30699
1.31572
1.32413
1.33223
1.34002
1.34749
1.35466
1.36151
1.36806
1.3743
1.38024
1.38588
1.39121
1.39625
1.40098
1.40542
1.40956
1.4134
1.41695
1.42021
1.42318
1.42585
1.42823
1.43032
1.43214
1.43365
1.43469
1.43546
1.44146
1.42399
1.44455
126.511
-50.2543
10.1853
0.318354
-0.187118
0.121943
0.18132
0.201532
0.225896
0.252083
0.278326
0.304419
0.330382
0.356218
0.38192
0.407477
0.432879
0.458119
0.483186
0.508073
0.53277
0.557269
0.581563
0.605644
0.629504
0.653136
0.676532
0.699686
0.722591
0.745239
0.767626
0.789744
0.811588
0.833152
0.854431
0.875419
0.896111
0.916504
0.936591
0.95637
0.975836
0.994985
1.01381
1.03232
1.0505
1.06835
1.08587
1.10305
1.1199
1.13641
1.15259
1.16842
1.1839
1.19905
1.21385
1.22831
1.24242
1.25619
1.26961
1.28268
1.29541
1.30779
1.31983
1.33153
1.34288
1.35389
1.36456
1.37488
1.38487
1.39452
1.40383
1.4128
1.42145
1.42975
1.43773
1.44537
1.45269
1.45967
1.46633
1.47267
1.47868
1.48438
1.48975
1.4948
1.49953
1.50395
1.50805
1.51184
1.51531
1.51848
1.52133
1.52387
1.52611
1.52804
1.52965
1.53078
1.53158
1.53778
1.51991
1.54105
126.512
-50.2518
10.1895
0.324181
-0.179628
0.131091
0.192123
0.213985
0.239995
0.267823
0.295699
0.32342
0.351003
0.378452
0.405758
0.432909
0.459897
0.486712
0.513344
0.539783
0.566022
0.59205
0.617861
0.643445
0.668794
0.6939
0.718757
0.743355
0.767689
0.791751
0.815535
0.839033
0.86224
0.88515
0.907756
0.930054
0.952037
0.973702
0.995043
1.01606
1.03674
1.05708
1.07708
1.09674
1.11606
1.13502
1.15363
1.17189
1.18979
1.20733
1.22451
1.24133
1.25778
1.27387
1.2896
1.30496
1.31995
1.33457
1.34883
1.36272
1.37624
1.3894
1.40219
1.41461
1.42667
1.43837
1.4497
1.46067
1.47128
1.48153
1.49142
1.50096
1.51014
1.51896
1.52743
1.53555
1.54332
1.55075
1.55782
1.56456
1.57094
1.57699
1.5827
1.58806
1.59309
1.59779
1.60214
1.60617
1.60986
1.61322
1.61625
1.61895
1.62133
1.62338
1.62509
1.6263
1.62715
1.63342
1.61546
1.6369
126.513
-50.2493
10.1937
0.329971
-0.172185
0.140182
0.202859
0.226361
0.254006
0.283464
0.312965
0.342303
0.371497
0.400548
0.429447
0.458184
0.486748
0.515128
0.543314
0.571297
0.599068
0.626616
0.653933
0.68101
0.707839
0.734411
0.760719
0.786754
0.812508
0.837975
0.863146
0.888016
0.912578
0.936825
0.96075
0.984349
1.00762
1.03055
1.05313
1.07537
1.09726
1.11879
1.13996
1.16077
1.18121
1.20128
1.22098
1.2403
1.25924
1.27781
1.29599
1.31379
1.3312
1.34823
1.36487
1.38113
1.39699
1.41247
1.42756
1.44226
1.45657
1.47049
1.48403
1.49718
1.50994
1.52232
1.53431
1.54592
1.55715
1.568
1.57847
1.58856
1.59827
1.60761
1.61658
1.62517
1.6334
1.64125
1.64874
1.65587
1.66263
1.66903
1.67506
1.68074
1.68607
1.69103
1.69565
1.69991
1.70381
1.70737
1.71058
1.71344
1.71595
1.71812
1.71994
1.72124
1.72213
1.72838
1.7106
1.73208
126.513
-50.2469
10.1978
0.335724
-0.164791
0.149213
0.213523
0.238655
0.267925
0.299003
0.330117
0.361062
0.391855
0.422498
0.452981
0.483293
0.513421
0.543356
0.573087
0.602604
0.631896
0.660953
0.689767
0.718328
0.746628
0.774656
0.802405
0.829866
0.857031
0.883893
0.910444
0.936677
0.962584
0.988159
1.0134
1.03829
1.06283
1.08701
1.11084
1.13429
1.15738
1.18009
1.20242
1.22437
1.24593
1.2671
1.28787
1.30825
1.32823
1.34782
1.36699
1.38577
1.40414
1.4221
1.43965
1.45679
1.47353
1.48985
1.50577
1.52127
1.53637
1.55105
1.56533
1.5792
1.59266
1.60571
1.61836
1.63061
1.64245
1.65389
1.66494
1.67558
1.68582
1.69567
1.70513
1.7142
1.72287
1.73116
1.73906
1.74657
1.7537
1.76045
1.76682
1.77281
1.77842
1.78366
1.78853
1.79302
1.79714
1.80089
1.80428
1.80729
1.80994
1.81223
1.81415
1.81554
1.8165
1.82263
1.80523
1.82656
126.514
-50.2444
10.2019
0.341436
-0.157449
0.158181
0.224113
0.250863
0.281747
0.314433
0.347149
0.37969
0.412072
0.444296
0.476351
0.508226
0.539909
0.571388
0.602653
0.633692
0.664495
0.695052
0.725352
0.755387
0.785146
0.81462
0.8438
0.872678
0.901245
0.929492
0.957412
0.984998
1.01224
1.03914
1.06567
1.09185
1.11766
1.14309
1.16814
1.19281
1.21708
1.24096
1.26444
1.28752
1.31019
1.33246
1.3543
1.37573
1.39674
1.41734
1.4375
1.45724
1.47656
1.49544
1.5139
1.53193
1.54953
1.56669
1.58343
1.59973
1.6156
1.63105
1.64606
1.66064
1.6748
1.68852
1.70183
1.7147
1.72716
1.73919
1.7508
1.76199
1.77276
1.78312
1.79306
1.80259
1.81172
1.82043
1.82874
1.83664
1.84413
1.85123
1.85793
1.86423
1.87013
1.87564
1.88076
1.88548
1.88982
1.89376
1.89732
1.90049
1.90328
1.90568
1.9077
1.90918
1.91022
1.91616
1.89931
1.92034
126.515
-50.242
10.2059
0.347106
-0.150161
0.167083
0.234626
0.262982
0.295467
0.329749
0.364056
0.398181
0.43214
0.465933
0.499549
0.532976
0.566202
0.599214
0.632001
0.664552
0.696855
0.7289
0.760676
0.792173
0.823381
0.85429
0.884891
0.915175
0.945133
0.974756
1.00404
1.03296
1.06153
1.08974
1.11757
1.14502
1.17208
1.19875
1.22502
1.25089
1.27634
1.30139
1.32601
1.35021
1.37399
1.39733
1.42024
1.44272
1.46475
1.48634
1.50749
1.52819
1.54845
1.56825
1.58761
1.60651
1.62496
1.64296
1.66051
1.67761
1.69425
1.71045
1.72619
1.74148
1.75633
1.77072
1.78467
1.79817
1.81123
1.82385
1.83602
1.84776
1.85905
1.86992
1.88034
1.89034
1.8999
1.90904
1.91775
1.92604
1.9339
1.94134
1.94836
1.95497
1.96116
1.96694
1.9723
1.97726
1.9818
1.98594
1.98967
1.993
1.99592
1.99844
2.00056
2.00213
2.00324
2.00897
1.99277
2.0134
126.516
-50.2396
10.2099
0.352732
-0.142929
0.175916
0.245057
0.275007
0.309082
0.344947
0.380833
0.416529
0.452053
0.487403
0.522568
0.557536
0.592292
0.626826
0.661123
0.695174
0.728965
0.762486
0.795727
0.828675
0.861321
0.893654
0.925665
0.957344
0.988682
1.01967
1.0503
1.08056
1.11044
1.13995
1.16906
1.19777
1.22608
1.25398
1.28146
1.30852
1.33515
1.36135
1.3871
1.41242
1.43729
1.46171
1.48567
1.50918
1.53223
1.55481
1.57693
1.59859
1.61978
1.64049
1.66074
1.68051
1.69981
1.71864
1.737
1.75488
1.77229
1.78923
1.8057
1.8217
1.83722
1.85228
1.86687
1.88099
1.89465
1.90785
1.92058
1.93286
1.94467
1.95604
1.96694
1.9774
1.9874
1.99696
2.00607
2.01474
2.02296
2.03075
2.03809
2.045
2.05148
2.05752
2.06314
2.06832
2.07307
2.0774
2.0813
2.08478
2.08784
2.09048
2.0927
2.09435
2.09555
2.10102
2.08555
2.1057
126.517
-50.2372
10.2139
0.358312
-0.135757
0.184677
0.255403
0.286934
0.322585
0.360022
0.397473
0.434728
0.471804
0.508699
0.545401
0.581896
0.618171
0.654213
0.690009
0.725547
0.760815
0.795801
0.830493
0.864881
0.898953
0.932699
0.966108
0.999171
1.03188
1.06422
1.09618
1.12777
1.15896
1.18975
1.22013
1.2501
1.27965
1.30876
1.33744
1.36568
1.39347
1.42081
1.4477
1.47412
1.50007
1.52556
1.55057
1.5751
1.59916
1.62273
1.64581
1.66841
1.69052
1.71215
1.73327
1.75391
1.77406
1.79371
1.81286
1.83153
1.8497
1.86737
1.88456
1.90125
1.91746
1.93317
1.9484
1.96314
1.97739
1.99116
2.00445
2.01726
2.0296
2.04145
2.05284
2.06375
2.07419
2.08416
2.09367
2.10271
2.1113
2.11942
2.12709
2.1343
2.14106
2.14737
2.15322
2.15863
2.1636
2.16811
2.17219
2.17582
2.17901
2.18177
2.18408
2.18582
2.18711
2.19231
2.1776
2.19724
126.517
-50.2348
10.2179
0.363845
-0.128645
0.193364
0.265661
0.29876
0.335975
0.37497
0.413972
0.452774
0.491388
0.529814
0.568039
0.606049
0.64383
0.681368
0.71865
0.755663
0.792395
0.828833
0.864965
0.90078
0.936266
0.971412
1.00621
1.04064
1.07471
1.10839
1.14168
1.17458
1.20706
1.23913
1.27077
1.30198
1.33275
1.36308
1.39295
1.42236
1.4513
1.47978
1.50778
1.53529
1.56232
1.58886
1.61491
1.64046
1.66551
1.69006
1.71411
1.73764
1.76067
1.78319
1.80519
1.82668
1.84766
1.86813
1.88808
1.90752
1.92644
1.94485
1.96275
1.98013
1.99701
2.01337
2.02923
2.04458
2.05942
2.07377
2.08761
2.10095
2.11379
2.12614
2.13799
2.14936
2.16023
2.17062
2.18052
2.18994
2.19888
2.20734
2.21532
2.22283
2.22987
2.23644
2.24254
2.24817
2.25334
2.25805
2.26229
2.26607
2.2694
2.27227
2.27467
2.27651
2.27788
2.28281
2.26888
2.28799
126.518
-50.2325
10.2218
0.369329
-0.121596
0.201974
0.275829
0.310481
0.349245
0.389784
0.430325
0.470659
0.510798
0.550742
0.590477
0.629989
0.669262
0.708282
0.747037
0.785512
0.823694
0.861571
0.89913
0.93636
0.973247
1.00978
1.04595
1.08175
1.11716
1.15217
1.18678
1.22097
1.25474
1.28807
1.32096
1.3534
1.38539
1.41691
1.44796
1.47853
1.50862
1.53822
1.56732
1.59592
1.62402
1.65161
1.67868
1.70524
1.73128
1.7568
1.78179
1.80625
1.83019
1.85359
1.87647
1.89881
1.92061
1.94188
1.96262
1.98283
2.00249
2.02163
2.04023
2.0583
2.07584
2.09285
2.10934
2.12529
2.14072
2.15563
2.17001
2.18388
2.19723
2.21007
2.22239
2.2342
2.2455
2.2563
2.26659
2.27638
2.28567
2.29447
2.30277
2.31057
2.31789
2.32472
2.33106
2.33691
2.34229
2.34718
2.35159
2.35552
2.35898
2.36196
2.36446
2.36638
2.36784
2.3725
2.35933
2.37793
126.519
-50.2301
10.2257
0.374763
-0.114612
0.210504
0.285902
0.322094
0.362393
0.404462
0.446527
0.488378
0.530029
0.571477
0.612708
0.653707
0.694458
0.734948
0.775161
0.815084
0.854704
0.894007
0.93298
0.971611
1.00989
1.0478
1.08533
1.12247
1.15921
1.19554
1.23145
1.26693
1.30197
1.33656
1.37069
1.40435
1.43754
1.47025
1.50246
1.53418
1.5654
1.59611
1.62631
1.65599
1.68514
1.71377
1.74186
1.76942
1.79644
1.82291
1.84884
1.87423
1.89906
1.92335
1.94708
1.97026
1.99288
2.01496
2.03647
2.05743
2.07784
2.0977
2.117
2.13575
2.15395
2.1716
2.1887
2.20525
2.22126
2.23673
2.25165
2.26604
2.27989
2.29321
2.30599
2.31825
2.32998
2.34118
2.35186
2.36202
2.37166
2.38078
2.38939
2.39749
2.40508
2.41217
2.41875
2.42482
2.4304
2.43547
2.44005
2.44413
2.44772
2.45081
2.45341
2.45542
2.45696
2.46137
2.44893
2.46703
126.52
-50.2278
10.2295
0.380144
-0.107696
0.218952
0.295879
0.333595
0.375414
0.418998
0.462573
0.505927
0.549075
0.592012
0.634724
0.677196
0.719412
0.761356
0.803014
0.844372
0.885415
0.92613
0.966503
1.00652
1.04617
1.08544
1.12432
1.1628
1.20086
1.2385
1.2757
1.31245
1.34874
1.38458
1.41993
1.4548
1.48918
1.52306
1.55644
1.5893
1.62164
1.65345
1.68473
1.71547
1.74567
1.77533
1.80443
1.83297
1.86096
1.88839
1.91525
1.94154
1.96727
1.99242
2.01701
2.04102
2.06445
2.08732
2.1096
2.13132
2.15246
2.17302
2.19302
2.21244
2.23129
2.24957
2.26729
2.28443
2.30102
2.31704
2.3325
2.3474
2.36175
2.37554
2.38879
2.40148
2.41363
2.42523
2.43629
2.44682
2.4568
2.46626
2.47518
2.48357
2.49143
2.49877
2.50558
2.51188
2.51765
2.52291
2.52765
2.53188
2.5356
2.5388
2.54149
2.54358
2.54521
2.54938
2.53764
2.55527
126.52
-50.2255
10.2333
0.385472
-0.100848
0.227316
0.305756
0.344981
0.388305
0.433389
0.478458
0.523301
0.56793
0.612341
0.65652
0.70045
0.744115
0.7875
0.830588
0.873366
0.915818
0.957931
0.99969
1.04108
1.0821
1.12271
1.16293
1.20273
1.24209
1.28102
1.3195
1.35751
1.39505
1.43211
1.46868
1.50475
1.54031
1.57535
1.60987
1.64386
1.67731
1.71021
1.74256
1.77436
1.8056
1.83626
1.86636
1.89589
1.92484
1.9532
1.98098
2.00818
2.03479
2.0608
2.08623
2.11106
2.1353
2.15895
2.182
2.20446
2.22632
2.24759
2.26827
2.28836
2.30785
2.32676
2.34508
2.36282
2.37997
2.39654
2.41253
2.42794
2.44278
2.45705
2.47074
2.48387
2.49643
2.50843
2.51988
2.53076
2.54109
2.55086
2.56009
2.56877
2.5769
2.58449
2.59154
2.59805
2.60402
2.60946
2.61437
2.61874
2.62258
2.6259
2.62868
2.63086
2.63256
2.63651
2.62542
2.64262
126.521
-50.2233
10.2371
0.390744
-0.0940723
0.235592
0.315529
0.356249
0.401061
0.44763
0.494177
0.540493
0.586588
0.632459
0.678089
0.723462
0.768562
0.813371
0.857875
0.902058
0.945905
0.989401
1.03253
1.07528
1.11764
1.1596
1.20113
1.24223
1.28289
1.3231
1.36284
1.4021
1.44088
1.47915
1.51692
1.55417
1.5909
1.62709
1.66274
1.69785
1.73239
1.76638
1.79979
1.83263
1.86489
1.89657
1.92765
1.95814
1.98804
2.01734
2.04603
2.07412
2.1016
2.12847
2.15473
2.18037
2.20541
2.22983
2.25363
2.27683
2.29941
2.32137
2.34273
2.36347
2.38361
2.40314
2.42206
2.44037
2.45809
2.4752
2.49171
2.50763
2.52296
2.53769
2.55183
2.56539
2.57837
2.59076
2.60258
2.61382
2.62448
2.63458
2.64411
2.65307
2.66147
2.66931
2.67659
2.68332
2.68949
2.6951
2.70017
2.70469
2.70866
2.71208
2.71496
2.71722
2.719
2.72275
2.71226
2.72907
126.522
-50.2211
10.2408
0.39596
-0.0873694
0.243779
0.325198
0.367394
0.41368
0.461717
0.509727
0.5575
0.605045
0.652359
0.699425
0.746225
0.792744
0.838963
0.884867
0.93044
0.975666
1.02053
1.06502
1.10911
1.15281
1.19608
1.23892
1.28132
1.32326
1.36472
1.40571
1.44621
1.4862
1.52568
1.56464
1.60306
1.64094
1.67827
1.71504
1.75125
1.78688
1.82193
1.8564
1.89027
1.92354
1.95621
1.98827
2.01972
2.05056
2.08077
2.11037
2.13934
2.16768
2.19539
2.22248
2.24893
2.27475
2.29993
2.32449
2.34841
2.3717
2.39435
2.41638
2.43777
2.45854
2.47868
2.4982
2.51709
2.53535
2.553
2.57004
2.58645
2.60226
2.61745
2.63204
2.64603
2.65941
2.67219
2.68438
2.69597
2.70697
2.71739
2.72721
2.73646
2.74512
2.75321
2.76072
2.76765
2.77402
2.77981
2.78503
2.78969
2.79379
2.79732
2.80029
2.80263
2.80448
2.80805
2.79811
2.81459
126.523
-50.2188
10.2445
0.401117
-0.0807416
0.251875
0.334758
0.378415
0.426158
0.475646
0.525103
0.574316
0.623296
0.672036
0.720522
0.768734
0.816655
0.864268
0.911557
0.958504
1.00509
1.05131
1.09714
1.14257
1.18757
1.23215
1.27629
1.31996
1.36316
1.40588
1.44811
1.48982
1.53102
1.57169
1.61182
1.6514
1.69042
1.72888
1.76676
1.80405
1.84076
1.87686
1.91237
1.94726
1.98153
2.01519
2.04821
2.08061
2.11237
2.1435
2.17398
2.20382
2.23302
2.26156
2.28946
2.31671
2.34331
2.36925
2.39454
2.41918
2.44317
2.46651
2.4892
2.51124
2.53263
2.55337
2.57347
2.59293
2.61175
2.62993
2.64747
2.66438
2.68066
2.69632
2.71134
2.72575
2.73953
2.7527
2.76525
2.77719
2.78852
2.79925
2.80937
2.8189
2.82782
2.83615
2.84389
2.85103
2.85759
2.86356
2.86894
2.87374
2.87796
2.8816
2.88465
2.88707
2.889
2.89242
2.88297
2.89914
126.523
-50.2167
10.2482
0.406214
-0.0741904
0.259877
0.344207
0.389309
0.438491
0.489414
0.540301
0.590938
0.641334
0.691485
0.741374
0.790981
0.840289
0.88928
0.937936
0.986242
1.03418
1.08173
1.12889
1.17563
1.22194
1.26781
1.31322
1.35815
1.40261
1.44656
1.49001
1.53293
1.57532
1.61716
1.65845
1.69918
1.73933
1.77889
1.81787
1.85624
1.89401
1.93116
1.96768
2.00358
2.03885
2.07347
2.10745
2.14079
2.17347
2.20549
2.23685
2.26756
2.29759
2.32696
2.35567
2.3837
2.41106
2.43776
2.46378
2.48913
2.51381
2.53782
2.56116
2.58384
2.60585
2.62719
2.64787
2.66789
2.68725
2.70595
2.724
2.7414
2.75815
2.77425
2.78971
2.80453
2.81872
2.83226
2.84518
2.85746
2.86912
2.88016
2.89057
2.90037
2.90955
2.91812
2.92608
2.93343
2.94018
2.94632
2.95186
2.9568
2.96114
2.96489
2.96803
2.97053
2.97253
2.9758
2.96681
2.98272
126.524
-50.2145
10.2518
0.411251
-0.0677179
0.267783
0.353543
0.400072
0.450676
0.503017
0.555316
0.60736
0.659157
0.710701
0.761976
0.812961
0.863639
0.913991
0.964
1.01365
1.06292
1.11179
1.16026
1.2083
1.25589
1.30303
1.3497
1.39589
1.44158
1.48675
1.5314
1.57552
1.61908
1.66209
1.70452
1.74638
1.78764
1.82831
1.86836
1.9078
1.94661
1.98479
2.02233
2.05923
2.09547
2.13106
2.16598
2.20024
2.23382
2.26673
2.29897
2.33052
2.36139
2.39157
2.42107
2.44988
2.478
2.50543
2.53218
2.55823
2.58359
2.60827
2.63226
2.65556
2.67818
2.70011
2.72136
2.74194
2.76183
2.78106
2.79961
2.81749
2.8347
2.85125
2.86714
2.88237
2.89694
2.91086
2.92413
2.93676
2.94874
2.96008
2.97079
2.98086
2.99029
2.9991
3.00728
3.01484
3.02177
3.02808
3.03378
3.03885
3.04332
3.04717
3.0504
3.05297
3.05504
3.0582
3.04961
3.06529
126.525
-50.2124
10.2553
0.416225
-0.0613255
0.275591
0.362764
0.410701
0.46271
0.516451
0.570145
0.623578
0.676758
0.729679
0.782322
0.834669
0.8867
0.938396
0.989739
1.04071
1.0913
1.14148
1.19123
1.24056
1.28942
1.33782
1.38574
1.43315
1.48006
1.52644
1.57228
1.61757
1.6623
1.70645
1.75002
1.79299
1.83536
1.87711
1.91823
1.95872
1.99856
2.03776
2.0763
2.11418
2.15139
2.18792
2.22378
2.25895
2.29343
2.32721
2.3603
2.3927
2.42439
2.45538
2.48566
2.51524
2.54411
2.57227
2.59972
2.62647
2.65251
2.67784
2.70246
2.72639
2.7496
2.77212
2.79394
2.81506
2.83549
2.85522
2.87426
2.89262
2.91029
2.92728
2.94359
2.95922
2.97418
2.98848
3.0021
3.01506
3.02736
3.03901
3.05
3.06033
3.07002
3.07906
3.08746
3.09522
3.10234
3.10882
3.11466
3.11988
3.12446
3.12841
3.13173
3.13438
3.13652
3.13957
3.13135
3.14683
126.526
-50.2103
10.2588
0.421136
-0.0550149
0.283299
0.371866
0.421194
0.47459
0.529714
0.584785
0.639589
0.694134
0.748413
0.802408
0.856099
0.909465
0.962488
1.01515
1.06743
1.11931
1.17078
1.22182
1.2724
1.32252
1.37216
1.42131
1.46994
1.51805
1.56562
1.61264
1.65909
1.70497
1.75025
1.79494
1.83901
1.88246
1.92528
1.96745
2.00898
2.04985
2.09005
2.12958
2.16843
2.20659
2.24406
2.28083
2.3169
2.35226
2.38691
2.42085
2.45407
2.48657
2.51836
2.54941
2.57975
2.60936
2.63824
2.66639
2.69382
2.72053
2.74651
2.77176
2.7963
2.82011
2.8432
2.86558
2.88724
2.90819
2.92842
2.94795
2.96678
2.9849
3.00232
3.01905
3.03508
3.05043
3.06509
3.07906
3.09235
3.10497
3.11691
3.12818
3.13878
3.14872
3.15799
3.16661
3.17456
3.18186
3.18851
3.19451
3.19985
3.20455
3.20861
3.21201
3.21474