/*--------------------------------*- C++ -*----------------------------------*\
  =========                 |
  \\      /  F ield         | OpenFOAM: The Open Source CFD Toolbox
   \\    /   O peration     | Website:  https://openfoam.org
    \\  /    A nd           | Version:  10
     \\/     M anipulation  |
\*---------------------------------------------------------------------------*/
FoamFile
{
    format      ascii;
    class       volScalarField;
    location    "6";
    object      ddt0(T);
}
// * * * * * * * * * * * * * * * * * * * * * * * * * * * * * * * * * * * * * //

dimensions      [0 0 -1 1 0 0 0];

internalField   nonuniform List<scalar> 
10000
(
5813.21
2679.02
2693.48
2741.23
2752.47
2754.87
2755.51
2755.73
2755.82
2755.87
2755.9
2755.92
2755.95
2755.97
2755.99
2756.01
2756.03
2756.05
2756.07
2756.09
2756.1
2756.11
2756.13
2756.14
2756.15
2756.16
2756.17
2756.17
2756.18
2756.18
2756.19
2756.19
2756.19
2756.2
2756.2
2756.2
2756.2
2756.2
2756.2
2756.19
2756.19
2756.19
2756.19
2756.18
2756.18
2756.18
2756.17
2756.17
2756.16
2756.16
2756.16
2756.15
2756.15
2756.14
2756.14
2756.13
2756.13
2756.13
2756.12
2756.12
2756.11
2756.11
2756.11
2756.1
2756.1
2756.1
2756.09
2756.09
2756.09
2756.09
2756.08
2756.08
2756.08
2756.08
2756.08
2756.07
2756.07
2756.07
2756.07
2756.07
2756.07
2756.07
2756.06
2756.06
2756.06
2756.06
2756.06
2756.06
2756.06
2756.06
2756.06
2756.06
2756.05
2756.05
2756.01
2755.77
2754.38
2747.44
2735.54
3147.59
3112.44
-781.097
-608.507
-492.727
-465.914
-460.368
-458.979
-458.513
-458.309
-458.192
-458.104
-458.027
-457.956
-457.888
-457.823
-457.762
-457.704
-457.649
-457.598
-457.55
-457.506
-457.465
-457.428
-457.394
-457.363
-457.335
-457.311
-457.289
-457.271
-457.255
-457.242
-457.231
-457.223
-457.217
-457.213
-457.211
-457.211
-457.213
-457.216
-457.221
-457.227
-457.235
-457.243
-457.253
-457.263
-457.274
-457.286
-457.298
-457.311
-457.324
-457.337
-457.35
-457.363
-457.376
-457.389
-457.402
-457.414
-457.427
-457.439
-457.45
-457.462
-457.473
-457.483
-457.493
-457.503
-457.512
-457.521
-457.53
-457.538
-457.545
-457.552
-457.559
-457.565
-457.571
-457.577
-457.582
-457.587
-457.591
-457.596
-457.6
-457.604
-457.607
-457.611
-457.614
-457.617
-457.619
-457.622
-457.624
-457.627
-457.629
-457.631
-457.634
-457.638
-457.65
-457.705
-458.011
-459.741
-468.268
-495.006
-417.938
3101.42
-649.755
-378.851
-230.941
-195.934
-188.404
-186.478
-185.824
-185.528
-185.347
-185.206
-185.08
-184.961
-184.849
-184.741
-184.639
-184.542
-184.45
-184.365
-184.285
-184.211
-184.142
-184.08
-184.023
-183.971
-183.925
-183.883
-183.847
-183.816
-183.789
-183.767
-183.749
-183.734
-183.724
-183.718
-183.714
-183.714
-183.717
-183.723
-183.731
-183.741
-183.754
-183.768
-183.783
-183.801
-183.819
-183.838
-183.859
-183.879
-183.901
-183.922
-183.944
-183.966
-183.988
-184.009
-184.031
-184.052
-184.072
-184.092
-184.112
-184.131
-184.149
-184.166
-184.183
-184.199
-184.215
-184.23
-184.243
-184.257
-184.269
-184.281
-184.292
-184.303
-184.313
-184.322
-184.331
-184.339
-184.347
-184.354
-184.361
-184.367
-184.373
-184.378
-184.383
-184.388
-184.393
-184.397
-184.401
-184.405
-184.409
-184.412
-184.416
-184.422
-184.433
-184.463
-184.601
-185.42
-189.916
-206.487
-191.283
3137.81
-552.936
-251.385
-93.0288
-54.9804
-46.5688
-44.3498
-43.5695
-43.1988
-42.9605
-42.7681
-42.594
-42.4298
-42.2731
-42.1236
-41.9813
-41.8464
-41.7192
-41.5999
-41.4886
-41.3853
-41.2899
-41.2024
-41.1226
-41.0504
-40.9857
-40.9281
-40.8774
-40.8335
-40.7961
-40.7649
-40.7396
-40.72
-40.7057
-40.6965
-40.692
-40.692
-40.6961
-40.704
-40.7153
-40.7299
-40.7472
-40.7671
-40.7893
-40.8134
-40.8391
-40.8663
-40.8945
-40.9237
-40.9536
-40.9839
-41.0144
-41.045
-41.0755
-41.1058
-41.1357
-41.165
-41.1938
-41.2219
-41.2491
-41.2755
-41.301
-41.3256
-41.3492
-41.3718
-41.3933
-41.4139
-41.4334
-41.4519
-41.4695
-41.486
-41.5017
-41.5164
-41.5302
-41.5432
-41.5554
-41.5669
-41.5776
-41.5876
-41.597
-41.6058
-41.614
-41.6217
-41.629
-41.6358
-41.6422
-41.6482
-41.6538
-41.6592
-41.6643
-41.6695
-41.6752
-41.683
-41.6965
-41.7212
-41.7695
-41.9513
-43.11
-48.0908
-43.1439
3146.73
-530.346
-221.203
-59.9061
-20.8386
-12.0593
-9.68288
-8.81528
-8.38175
-8.08991
-7.84805
-7.62691
-7.41756
-7.21758
-7.02656
-6.84468
-6.67225
-6.5096
-6.35694
-6.2144
-6.08204
-5.95983
-5.84766
-5.74539
-5.65282
-5.56974
-5.49588
-5.43096
-5.37469
-5.32673
-5.28677
-5.25444
-5.22937
-5.21119
-5.19951
-5.19393
-5.19404
-5.19944
-5.20971
-5.22445
-5.24323
-5.26566
-5.29135
-5.3199
-5.35094
-5.38411
-5.41906
-5.45546
-5.49301
-5.5314
-5.57036
-5.60964
-5.649
-5.68824
-5.72714
-5.76555
-5.8033
-5.84025
-5.8763
-5.91133
-5.94527
-5.97804
-6.00959
-6.03988
-6.06888
-6.09657
-6.12296
-6.14804
-6.17183
-6.19435
-6.21562
-6.23568
-6.25458
-6.27235
-6.28903
-6.30468
-6.31936
-6.3331
-6.34597
-6.35801
-6.36929
-6.37985
-6.38975
-6.39903
-6.40774
-6.41592
-6.42363
-6.4309
-6.43779
-6.44437
-6.45085
-6.45783
-6.46703
-6.48271
-6.51239
-6.56123
-6.62471
-6.7848
-7.379
-5.15995
3148.68
-525.654
-214.707
-52.577
-13.1504
-4.20218
-1.73012
-0.795228
-0.305828
0.0368557
0.326859
0.594221
0.848052
1.09077
1.32273
1.54365
1.75313
1.9508
2.13638
2.30969
2.47067
2.61935
2.75583
2.88027
2.9929
3.09399
3.18383
3.26277
3.33117
3.38941
3.43791
3.4771
3.50742
3.52934
3.54334
3.5499
3.54952
3.54269
3.52994
3.51175
3.48862
3.46106
3.42954
3.39453
3.3565
3.31589
3.27311
3.22857
3.18265
3.1357
3.08807
3.04006
2.99195
2.94402
2.89649
2.84957
2.80346
2.75833
2.71431
2.67154
2.6301
2.59009
2.55158
2.51461
2.47921
2.44541
2.41321
2.3826
2.35358
2.3261
2.30015
2.27567
2.25263
2.23096
2.21061
2.19153
2.17364
2.15689
2.14121
2.12653
2.11279
2.09993
2.08787
2.07657
2.06597
2.056
2.04662
2.03777
2.02941
2.02145
2.01374
2.00588
1.99652
1.98201
1.9543
1.90315
1.83345
1.79805
2.01287
3.07593
3149.22
-524.465
-213.032
-50.6275
-11.0484
-2.00544
0.535517
1.52774
2.06906
2.46076
2.79781
3.11055
3.40811
3.69286
3.96506
4.22435
4.47024
4.70229
4.92018
5.1237
5.31276
5.48739
5.64768
5.79384
5.92611
6.0448
6.15025
6.24286
6.32306
6.3913
6.44806
6.49384
6.52919
6.55464
6.57076
6.57812
6.57731
6.56893
6.55356
6.5318
6.50424
6.47147
6.43404
6.39253
6.34746
6.29936
6.24873
6.19603
6.14172
6.08622
6.02992
5.97318
5.91634
5.85972
5.80358
5.74818
5.69374
5.64045
5.58849
5.538
5.48909
5.44188
5.39644
5.35281
5.31105
5.27117
5.23319
5.19709
5.16285
5.13046
5.09985
5.07099
5.04382
5.01828
4.9943
4.97182
4.95074
4.93101
4.91254
4.89526
4.87908
4.86394
4.84976
4.83646
4.82399
4.81227
4.80124
4.79084
4.78102
4.7717
4.76281
4.7541
4.74489
4.73292
4.7123
4.6721
4.6047
4.54414
4.70135
5.29292
3149.4
-524.055
-212.45
-49.9257
-10.2612
-1.15152
1.44669
2.49123
3.08205
3.52135
3.9044
4.2616
4.60204
4.92799
5.23962
5.53649
5.81802
6.08373
6.33323
6.56628
6.78278
6.98275
7.1663
7.33363
7.48503
7.62085
7.74147
7.84735
7.93896
8.01684
8.08153
8.13362
8.17371
8.20244
8.22045
8.22841
8.227
8.21688
8.19876
8.1733
8.1412
8.10312
8.05971
8.01162
7.95946
7.90384
7.84532
7.78444
7.72173
7.65766
7.59269
7.52724
7.46169
7.39639
7.33166
7.2678
7.20505
7.14365
7.08377
7.0256
6.96927
6.91488
6.86254
6.8123
6.76421
6.7183
6.67457
6.63301
6.5936
6.55632
6.5211
6.48789
6.45663
6.42725
6.39967
6.37381
6.34958
6.3269
6.30567
6.28581
6.26724
6.24985
6.23357
6.21831
6.20399
6.19055
6.1779
6.16599
6.15473
6.14408
6.13396
6.12426
6.11471
6.10426
6.08954
6.06205
6.00751
5.925
5.94387
6.4185
3149.48
-523.869
-212.176
-49.5789
-9.85229
-0.686849
1.96331
3.0574
3.69605
4.1817
4.60969
5.01035
5.3927
5.75891
6.10906
6.44261
6.75893
7.05746
7.33777
7.5996
7.84282
8.06744
8.27359
8.46149
8.63145
8.78386
8.91915
9.03782
9.14043
9.22754
9.29979
9.35784
9.40237
9.4341
9.45375
9.46207
9.45984
9.44781
9.42676
9.39747
9.3607
9.31721
9.26772
9.21298
9.15367
9.09048
9.02403
8.95495
8.88383
8.81119
8.73755
8.66339
8.58914
8.51519
8.4419
8.36961
8.29859
8.22909
8.16135
8.09553
8.03181
7.9703
7.9111
7.85429
7.79992
7.74801
7.69857
7.6516
7.60706
7.56492
7.52513
7.48761
7.45231
7.41912
7.38798
7.35878
7.33143
7.30584
7.28189
7.25949
7.23854
7.21894
7.2006
7.18341
7.1673
7.15216
7.13793
7.12453
7.11188
7.09991
7.08857
7.07778
7.06745
7.0572
7.04544
7.02647
6.98428
6.89137
6.80419
7.32584
3149.53
-523.756
-212.002
-49.3472
-9.56703
-0.350626
2.3487
3.49051
4.17559
4.70638
5.17817
5.6212
6.04439
6.44982
6.83747
7.20672
7.55686
7.88729
8.19753
8.48729
8.75642
9.00494
9.23298
9.44077
9.62866
9.79706
9.94647
10.0774
10.1905
10.2864
10.3658
10.4295
10.4781
10.5125
10.5335
10.5419
10.5386
10.5245
10.5003
10.4671
10.4255
10.3765
10.3208
10.2593
10.1928
10.122
10.0476
9.97027
9.89071
9.80949
9.7272
9.64434
9.5614
9.47882
9.39701
9.31632
9.23706
9.15952
9.08395
9.01054
8.93946
8.87087
8.80487
8.74153
8.68092
8.62307
8.56797
8.51563
8.46601
8.41907
8.37474
8.33296
8.29365
8.25671
8.22204
8.18955
8.15912
8.13065
8.10402
8.07912
8.05584
8.03407
8.0137
7.99463
7.97674
7.95996
7.94419
7.92934
7.91533
7.90209
7.88955
7.87765
7.86635
7.85557
7.84469
7.83019
7.79669
7.69894
7.52986
8.15931
3149.56
-523.669
-211.862
-49.1555
-9.32568
-0.0608418
2.68579
3.87382
4.60398
5.17866
5.69303
6.17725
6.64012
7.08363
7.50766
7.91152
8.29445
8.65577
8.99497
9.31174
9.60592
9.8775
10.1266
10.3536
10.5587
10.7425
10.9054
11.048
11.1711
11.2753
11.3614
11.4302
11.4826
11.5193
11.5413
11.5496
11.545
11.5285
11.5011
11.4636
11.4171
11.3624
11.3005
11.2322
11.1584
11.0799
10.9974
10.9119
10.8239
10.7341
10.6431
10.5516
10.46
10.3688
10.2785
10.1895
10.102
10.0165
9.93311
9.85216
9.77379
9.69817
9.62541
9.55561
9.48881
9.42506
9.36436
9.3067
9.25205
9.20035
9.15155
9.10555
9.06228
9.02162
8.98348
8.94774
8.91428
8.88297
8.85371
8.82635
8.80078
8.77688
8.75453
8.73361
8.71401
8.69562
8.67834
8.66209
8.64677
8.6323
8.6186
8.60562
8.59332
8.58172
8.57072
8.55823
8.53035
8.43057
8.19481
8.94256
3149.58
-523.592
-211.735
-48.9801
-9.1028
0.20866
3.00103
4.23384
5.00771
5.62493
6.18058
6.7047
7.20598
7.68633
8.14554
8.58285
8.99743
9.38856
9.75569
10.0985
10.4168
10.7105
10.9799
11.2252
11.4468
11.6452
11.8209
11.9747
12.1072
12.2192
12.3115
12.385
12.4407
12.4794
12.5021
12.5099
12.5038
12.4847
12.4537
12.4119
12.3603
12.2998
12.2315
12.1562
12.0751
11.9888
11.8984
11.8046
11.7081
11.6097
11.5101
11.4099
11.3097
11.2099
11.1112
11.0138
10.9182
10.8247
10.7336
10.6452
10.5596
10.477
10.3975
10.3213
10.2484
10.1788
10.1126
10.0496
9.99
9.9336
9.88037
9.83021
9.78303
9.73871
9.69714
9.6582
9.62175
9.58766
9.5558
9.52604
9.49823
9.47225
9.44796
9.42523
9.40396
9.38401
9.36528
9.34767
9.33108
9.31543
9.30062
9.2866
9.27332
9.26085
9.24931
9.23757
9.21333
9.11327
8.82439
9.67861
3149.61
-523.519
-211.615
-48.8138
-8.8907
0.465773
3.30235
4.57845
5.39458
6.05292
6.64844
7.21106
7.74941
8.26527
8.75838
9.2279
9.67293
10.0927
10.4867
10.8544
11.1958
11.5108
11.7995
12.0623
12.2996
12.5119
12.6998
12.864
13.0053
13.1245
13.2225
13.3003
13.3588
13.3991
13.4222
13.4292
13.4212
13.3992
13.3646
13.3182
13.2613
13.1948
13.12
13.0378
12.9492
12.8551
12.7566
12.6545
12.5495
12.4426
12.3343
12.2255
12.1166
12.0084
11.9012
11.7955
11.6918
11.5905
11.4917
11.3958
11.303
11.2135
11.1275
11.0449
10.9659
10.8905
10.8188
10.7507
10.6862
10.6251
10.5675
10.5132
10.4622
10.4143
10.3693
10.3272
10.2879
10.251
10.2166
10.1845
10.1545
10.1265
10.1003
10.0758
10.0529
10.0315
10.0114
9.99245
9.97464
9.95785
9.94198
9.92697
9.91276
9.89943
9.8872
9.87558
9.85367
9.75449
9.42634
10.3665
3149.63
-523.45
-211.5
-48.6544
-8.68729
0.712563
3.59176
4.90958
5.76643
6.46437
7.09826
7.69793
8.2719
8.82188
9.34752
9.84792
10.3221
10.7694
11.189
11.5806
11.9439
12.2791
12.5863
12.8657
13.1178
13.3432
13.5425
13.7165
13.866
13.9918
14.095
14.1765
14.2374
14.2789
14.3019
14.3078
14.2976
14.2726
14.2339
14.1828
14.1204
14.0479
13.9665
13.8771
13.781
13.6791
13.5725
13.462
13.3486
13.233
13.1162
12.9987
12.8813
12.7645
12.649
12.5351
12.4234
12.3142
12.2078
12.1045
12.0047
11.9083
11.8157
11.7268
11.6418
11.5608
11.4836
11.4104
11.341
11.2754
11.2135
11.1551
11.1003
11.0488
11.0006
10.9554
10.9131
10.8736
10.8367
10.8023
10.7702
10.7402
10.7121
10.686
10.6615
10.6386
10.6171
10.5969
10.578
10.5601
10.5432
10.5273
10.5122
10.498
10.4851
10.4733
10.4528
10.3553
10.0014
11.0047
3149.65
-523.384
-211.39
-48.5017
-8.49226
0.949284
3.86942
5.22732
6.12326
6.85919
7.52987
8.16504
8.77313
9.35575
9.9125
10.4424
10.9445
11.4178
11.8619
12.2762
12.6605
13.0148
13.3394
13.6345
13.9005
14.1382
14.3481
14.5312
14.6881
14.82
14.9278
15.0125
15.0754
15.1175
15.1402
15.1446
15.1319
15.1035
15.0607
15.0046
14.9366
14.8578
14.7696
14.673
14.5693
14.4595
14.3447
14.2259
14.1039
13.9798
13.8544
13.7283
13.6023
13.4771
13.3533
13.2312
13.1115
12.9946
12.8806
12.7701
12.6632
12.5601
12.4609
12.3659
12.275
12.1883
12.1058
12.0275
11.9533
11.8832
11.817
11.7547
11.6962
11.6412
11.5897
11.5415
11.4964
11.4542
11.4149
11.3782
11.344
11.3121
11.2823
11.2545
11.2285
11.2042
11.1814
11.16
11.14
11.1211
11.1033
11.0864
11.0705
11.0556
11.042
11.0298
11.0102
10.9149
10.5476
11.5919
3149.68
-523.321
-211.285
-48.3558
-8.30581
1.17566
4.13499
5.53122
6.46454
7.23678
7.94261
8.61166
9.25228
9.86602
10.4524
11.0104
11.5389
12.0371
12.5043
12.94
13.3441
13.7165
14.0575
14.3673
14.6464
14.8955
15.1152
15.3066
15.4703
15.6076
15.7193
15.8068
15.8711
15.9135
15.9354
15.9379
15.9225
15.8904
15.8431
15.7818
15.708
15.6229
15.5277
15.4239
15.3125
15.1947
15.0717
14.9445
14.8141
14.6814
14.5473
14.4127
14.2782
14.1446
14.0125
13.8824
13.7548
13.6301
13.5087
13.391
13.2771
13.1673
13.0617
12.9606
12.8638
12.7716
12.6838
12.6005
12.5216
12.447
12.3767
12.3105
12.2483
12.1899
12.1352
12.084
12.0361
11.9914
11.9497
11.9108
11.8746
11.8408
11.8093
11.7799
11.7524
11.7267
11.7027
11.6803
11.6591
11.6393
11.6206
11.603
11.5863
11.5707
11.5564
11.5437
11.5247
11.4322
11.0622
12.1272
3149.7
-523.261
-211.186
-48.2168
-8.12823
1.3913
4.38798
5.82075
6.78966
7.59647
8.33572
9.03699
9.70851
10.3518
10.9662
11.5508
12.1044
12.626
13.1151
13.5711
13.9937
14.3831
14.7393
15.0628
15.354
15.6137
15.8424
16.0413
16.2112
16.3531
16.4683
16.5579
16.6231
16.6654
16.686
16.6863
16.6677
16.6317
16.5797
16.5131
16.4332
16.3415
16.2394
16.1281
16.009
15.8832
15.7519
15.6163
15.4774
15.3362
15.1936
15.0504
14.9075
14.7656
14.6252
14.4871
14.3516
14.2193
14.0906
13.9657
13.8449
13.7285
13.6166
13.5094
13.4069
13.3092
13.2162
13.128
13.0445
12.9655
12.8911
12.8211
12.7552
12.6935
12.6357
12.5815
12.531
12.4838
12.4398
12.3987
12.3605
12.3249
12.2917
12.2608
12.2319
12.205
12.1798
12.1562
12.1341
12.1134
12.0939
12.0755
12.0582
12.0419
12.027
12.0138
11.9951
11.9059
11.5419
12.6101
3149.71
-523.204
-211.091
-48.0851
-7.95984
1.59584
4.62799
6.09542
7.09809
7.93766
8.70858
9.44033
10.1411
10.8123
11.4532
12.0629
12.64
13.1838
13.6933
14.1682
14.6083
15.0134
15.3839
15.72
16.0224
16.2916
16.5286
16.7342
16.9094
17.0554
17.1734
17.2645
17.3302
17.3718
17.3908
17.3885
17.3665
17.3263
17.2693
17.197
17.111
17.0126
16.9033
16.7845
16.6576
16.5237
16.3842
16.2401
16.0927
15.943
15.7918
15.6402
15.4889
15.3387
15.1902
15.0441
14.9009
14.761
14.625
14.493
14.3655
14.2426
14.1245
14.0113
13.9031
13.8
13.7019
13.6089
13.5208
13.4376
13.3591
13.2853
13.2159
13.1509
13.09
13.0331
12.9799
12.9302
12.8839
12.8408
12.8007
12.7633
12.7285
12.6961
12.6659
12.6377
12.6114
12.5868
12.5638
12.5422
12.522
12.5029
12.485
12.4681
12.4527
12.4391
12.4205
12.335
11.9842
13.0407
3149.73
-523.151
-211.002
-47.9608
-7.80085
1.78901
4.85467
6.35485
7.38941
8.25989
9.06068
9.82116
10.5494
11.2469
11.9127
12.5459
13.1452
13.7095
14.2382
14.7308
15.187
15.6067
15.9903
16.3381
16.6506
16.9286
17.1728
17.3844
17.5642
17.7136
17.8337
17.9259
17.9915
18.032
18.0489
18.0436
18.0178
17.9731
17.9108
17.8328
17.7403
17.6351
17.5186
17.3922
17.2573
17.1153
16.9675
16.8151
16.6592
16.5009
16.3413
16.1812
16.0215
15.8631
15.7066
15.5526
15.4017
15.2544
15.1111
14.9722
14.838
14.7086
14.5844
14.4653
14.3516
14.2431
14.1401
14.0423
13.9497
13.8623
13.7799
13.7024
13.6296
13.5613
13.4974
13.4377
13.3819
13.3299
13.2815
13.2363
13.1943
13.1552
13.1189
13.085
13.0535
13.0242
12.9968
12.9713
12.9474
12.9251
12.9041
12.8844
12.8659
12.8486
12.8328
12.8187
12.8001
12.7189
12.3864
13.4191
3149.75
-523.101
-210.918
-47.844
-7.65141
1.97062
5.06783
6.59881
7.66333
8.56286
9.39168
10.1791
10.9332
11.6552
12.3443
12.9995
13.6193
14.2029
14.7494
15.2582
15.7293
16.1625
16.5581
16.9164
17.2381
17.5238
17.7746
17.9913
18.175
18.327
18.4487
18.5413
18.6063
18.6452
18.6596
18.651
18.6211
18.5715
18.5038
18.4197
18.3207
18.2085
18.0846
17.9505
17.8076
17.6575
17.5013
17.3405
17.1761
17.0094
16.8413
16.6728
16.5049
16.3383
16.1738
16.012
15.8536
15.6989
15.5485
15.4027
15.2619
15.1262
14.9959
14.8711
14.7518
14.6382
14.5302
14.4277
14.3308
14.2393
14.153
14.0719
13.9957
13.9243
13.8575
13.795
13.7368
13.6824
13.6318
13.5848
13.541
13.5002
13.4624
13.4272
13.3944
13.364
13.3356
13.3092
13.2845
13.2614
13.2398
13.2196
13.2006
13.1829
13.1666
13.1521
13.1337
13.057
12.7467
13.7461
3149.77
-523.054
-210.84
-47.7348
-7.51156
2.14061
5.26735
6.82717
7.91973
8.84641
9.70142
10.514
11.2921
12.037
12.7478
13.4233
14.0623
14.6636
15.2264
15.7503
16.235
16.6804
17.0869
17.4547
17.7846
18.0772
18.3335
18.5545
18.7414
18.8954
19.018
19.1104
19.1743
19.2112
19.2226
19.2103
19.176
19.1213
19.0479
18.9575
18.8518
18.7325
18.601
18.4592
18.3083
18.1499
17.9855
17.8162
17.6434
17.4682
17.2917
17.1149
16.9388
16.7641
16.5917
16.4222
16.2563
16.0943
15.9369
15.7844
15.637
15.4951
15.3589
15.2284
15.1037
14.985
14.8721
14.7651
14.6639
14.5683
14.4783
14.3936
14.3142
14.2397
14.17
14.1049
14.0442
13.9877
13.935
13.886
13.8405
13.7982
13.7589
13.7224
13.6885
13.657
13.6276
13.6003
13.5749
13.5512
13.529
13.5083
13.4889
13.4708
13.4542
13.4393
13.421
13.3491
13.0633
14.0223
3149.78
-523.01
-210.767
-47.6331
-7.38131
2.29896
5.45324
7.03991
8.15857
9.11051
9.98987
10.8258
11.6262
12.3922
13.1231
13.8174
14.4739
15.0915
15.6693
16.2069
16.704
17.1605
17.5766
17.9529
18.29
18.5885
18.8495
19.0741
19.2634
19.4187
19.5415
19.6333
19.6955
19.7298
19.738
19.7216
19.6825
19.6224
19.5431
19.4462
19.3336
19.207
19.068
18.9183
18.7593
18.5927
18.4199
18.2422
18.061
17.8774
17.6926
17.5075
17.3233
17.1406
16.9604
16.7833
16.6099
16.4409
16.2765
16.1173
15.9636
15.8156
15.6735
15.5374
15.4075
15.2837
15.1661
15.0546
14.9492
14.8497
14.7559
14.6678
14.5851
14.5077
14.4352
14.3676
14.3045
14.2458
14.1911
14.1403
14.0931
14.0492
14.0086
13.9708
13.9358
13.9033
13.8731
13.845
13.8189
13.7945
13.7718
13.7507
13.7309
13.7125
13.6956
13.6805
13.6622
13.5952
13.3353
14.2489
3149.79
-522.97
-210.699
-47.5388
-7.26057
2.44577
5.62556
7.23713
8.37995
9.35526
10.2571
11.1146
11.9355
12.7211
13.4703
14.1819
14.8544
15.4868
16.0783
16.6282
17.1364
17.6027
18.0275
18.4112
18.7544
19.058
19.3229
19.5502
19.7412
19.8971
20.0196
20.1101
20.1701
20.2015
20.2059
20.1851
20.1409
20.0752
19.9896
19.8862
19.7665
19.6325
19.4858
19.3281
19.1611
18.9862
18.8051
18.619
18.4294
18.2374
18.0443
17.851
17.6587
17.4682
17.2802
17.0956
16.915
16.7389
16.5677
16.402
16.2419
16.0879
15.94
15.7985
15.6634
15.5347
15.4125
15.2966
15.1871
15.0837
14.9864
14.8949
14.8091
14.7287
14.6536
14.5834
14.5181
14.4572
14.4006
14.348
14.2992
14.2539
14.2119
14.173
14.1369
14.1034
14.0723
14.0435
14.0168
13.9919
13.9687
13.9472
13.9271
13.9084
13.8913
13.8759
13.8578
13.7957
13.5619
14.4271
3149.81
-522.932
-210.637
-47.4519
-7.14923
2.58115
5.78448
7.41897
8.58405
9.58084
10.5034
11.3806
12.2204
13.0237
13.7897
14.5169
15.204
15.8499
16.4536
17.0146
17.5326
18.0076
18.44
18.83
19.1784
19.4861
19.754
19.9832
20.1751
20.3311
20.4526
20.5412
20.5987
20.6266
20.6269
20.6013
20.5518
20.4801
20.3881
20.2778
20.151
20.0094
19.8549
19.6893
19.5141
19.331
19.1415
18.947
18.7491
18.5488
18.3474
18.1461
17.9458
17.7475
17.5519
17.3599
17.1721
16.989
16.8112
16.639
16.4728
16.3129
16.1594
16.0125
15.8723
15.7388
15.612
15.4919
15.3784
15.2712
15.1704
15.0756
14.9867
14.9035
14.8258
14.7532
14.6856
14.6227
14.5642
14.5099
14.4595
14.4128
14.3696
14.3295
14.2924
14.258
14.2262
14.1967
14.1693
14.144
14.1204
14.0985
14.0782
14.0593
14.0421
14.0265
14.0085
13.9511
13.743
14.5583
3149.82
-522.898
-210.58
-47.3722
-7.04713
2.70531
5.9302
7.58569
8.77112
9.78754
10.7289
11.6242
12.481
13.3005
14.0817
14.823
15.5232
16.181
16.7956
17.3664
17.8931
18.3757
18.8144
19.2098
19.5625
19.8733
20.1434
20.3738
20.566
20.7212
20.8412
20.9275
20.9818
21.0059
21.0017
20.971
20.9157
20.8379
20.7393
20.622
20.4878
20.3386
20.1763
20.0026
19.8192
19.6278
19.43
19.2273
19.021
18.8125
18.603
18.3936
18.1854
17.9794
17.7764
17.5771
17.3821
17.1922
17.0078
16.8293
16.6571
16.4914
16.3324
16.1802
16.0351
15.8969
15.7657
15.6414
15.5239
15.4131
15.3088
15.2108
15.119
15.033
14.9527
14.8778
14.8081
14.7432
14.6829
14.627
14.5751
14.5271
14.4826
14.4414
14.4034
14.3682
14.3356
14.3054
14.2776
14.2517
14.2278
14.2056
14.1851
14.1661
14.1487
14.133
14.1151
14.0624
13.8789
14.644
3149.83
-522.867
-210.528
-47.2996
-6.95406
2.81846
6.06299
7.73757
8.94148
9.97572
10.9341
11.8457
12.718
13.552
14.3468
15.1007
15.8125
16.4809
17.1051
17.6844
18.2185
18.7075
19.1516
19.5513
19.9073
20.2205
20.4919
20.7228
20.9145
21.0684
21.1863
21.2697
21.3204
21.3402
21.3311
21.295
21.2338
21.1495
21.0442
20.9197
20.778
20.6211
20.4509
20.2691
20.0775
19.8779
19.6717
19.4607
19.2462
19.0295
18.8119
18.5947
18.3787
18.1651
17.9546
17.7482
17.5463
17.3497
17.1588
16.9741
16.7959
16.6246
16.4602
16.3029
16.1529
16.0101
15.8746
15.7462
15.6249
15.5105
15.4029
15.3018
15.2071
15.1185
15.0357
14.9585
14.8867
14.8199
14.7579
14.7003
14.6471
14.5977
14.5521
14.5099
14.4709
14.4349
14.4017
14.3709
14.3426
14.3163
14.2921
14.2697
14.249
14.2299
14.2124
14.1966
14.1789
14.1305
13.9701
14.6858
3149.84
-522.839
-210.481
-47.2339
-6.86982
2.92087
6.18314
7.87495
9.09552
10.1458
11.1195
12.0457
12.9317
13.7787
14.5855
15.3506
16.0726
16.7503
17.3827
17.9692
18.5096
19.0039
19.4523
19.8554
20.2138
20.5284
20.8004
21.031
21.2216
21.3736
21.4888
21.5688
21.6155
21.6307
21.6164
21.5745
21.5071
21.4162
21.3038
21.172
21.0228
20.8581
20.6799
20.49
20.2902
20.0823
19.8679
19.6487
19.4259
19.2012
18.9756
18.7505
18.5269
18.3058
18.0881
17.8746
17.6659
17.4627
17.2655
17.0747
16.8907
16.7138
16.5441
16.3819
16.2271
16.0799
15.9401
15.8078
15.6828
15.5649
15.454
15.3499
15.2524
15.1612
15.076
14.9966
14.9228
14.8541
14.7904
14.7314
14.6767
14.6262
14.5795
14.5363
14.4965
14.4597
14.4258
14.3945
14.3657
14.3391
14.3146
14.292
14.2711
14.252
14.2345
14.2187
14.2013
14.1568
14.0176
14.6856
3149.84
-522.814
-210.438
-47.1748
-6.79414
3.01285
6.291
7.99823
9.23368
10.2982
11.2856
12.2247
13.1229
13.9813
14.7986
15.5734
16.3042
16.9898
17.6292
18.2218
18.7674
19.2659
19.7176
20.1231
20.483
20.7983
21.0701
21.2997
21.4885
21.6381
21.75
21.8262
21.8684
21.8786
21.8587
21.8108
21.7369
21.6392
21.5197
21.3804
21.2235
21.051
20.8647
20.6667
20.4587
20.2426
20.02
19.7926
19.5617
19.329
19.0956
18.8627
18.6316
18.4031
18.1782
17.9578
17.7424
17.5327
17.3293
17.1326
16.943
16.7606
16.5858
16.4187
16.2593
16.1077
15.9638
15.8276
15.699
15.5777
15.4637
15.3567
15.2564
15.1627
15.0752
14.9937
14.9179
14.8475
14.7822
14.7217
14.6657
14.614
14.5662
14.5221
14.4815
14.444
14.4095
14.3777
14.3485
14.3216
14.2968
14.2741
14.2531
14.234
14.2165
14.2007
14.1835
14.1428
14.0229
14.6451
3149.85
-522.792
-210.401
-47.1222
-6.72677
3.09469
6.38695
8.10783
9.35644
10.4336
11.4329
12.3833
13.2922
14.1604
14.9869
15.77
16.5083
17.2005
17.8456
18.4432
18.9928
19.4945
19.9485
20.3555
20.7161
21.0312
21.3021
21.5301
21.7165
21.863
21.9713
22.0431
22.0805
22.0852
22.0595
22.0053
21.9248
21.82
21.6932
21.5464
21.3817
21.2012
21.0069
20.8008
20.5846
20.3603
20.1296
19.894
19.6552
19.4145
19.1733
18.9329
18.6943
18.4586
18.2267
17.9994
17.7775
17.5615
17.3521
17.1495
16.9543
16.7667
16.5869
16.4149
16.2511
16.0952
15.9473
15.8074
15.6752
15.5507
15.4336
15.3237
15.2209
15.1247
15.035
14.9514
14.8737
14.8016
14.7347
14.6728
14.6156
14.5627
14.514
14.469
14.4276
14.3895
14.3545
14.3222
14.2926
14.2654
14.2405
14.2176
14.1966
14.1775
14.1601
14.1443
14.1275
14.0901
13.9874
14.5663
3149.86
-522.772
-210.368
-47.0758
-6.66742
3.16677
6.47139
8.20423
9.46431
10.5524
11.5622
12.5223
13.4403
14.317
15.1511
15.9412
16.6857
17.3833
18.033
18.6344
19.187
19.6909
20.1463
20.5539
20.9143
21.2286
21.4979
21.7235
21.907
22.0499
22.154
22.2211
22.2532
22.2522
22.2203
22.1596
22.0722
21.9603
21.826
21.6715
21.499
21.3106
21.1082
20.8939
20.6697
20.4372
20.1984
19.9548
19.708
19.4596
19.2107
18.9628
18.7169
18.4741
18.2353
18.0014
17.773
17.5509
17.3355
17.1273
16.9266
16.7339
16.5491
16.3726
16.2043
16.0443
15.8925
15.7489
15.6134
15.4856
15.3656
15.253
15.1476
15.049
14.9572
14.8716
14.7921
14.7184
14.65
14.5868
14.5283
14.4744
14.4247
14.3789
14.3368
14.298
14.2625
14.2298
14.1999
14.1725
14.1474
14.1244
14.1034
14.0843
14.067
14.0513
14.0348
14.0005
13.9131
14.4512
3149.86
-522.755
-210.339
-47.0355
-6.61578
3.22943
6.54475
8.2879
9.55786
10.6553
11.674
12.6424
13.5681
14.4517
15.2923
16.088
16.8374
17.5392
18.1925
18.7965
19.3511
19.8562
20.3122
20.7195
21.079
21.3917
21.6587
21.8814
22.0614
22.2002
22.2997
22.3617
22.3881
22.3812
22.3429
22.2754
22.1809
22.0617
21.9199
21.7577
21.5773
21.3809
21.1704
20.948
20.7157
20.4752
20.2283
19.9768
19.7222
19.466
19.2097
18.9544
18.7013
18.4515
18.206
17.9655
17.7309
17.5027
17.2815
17.0678
16.8619
16.664
16.4745
16.2935
16.1209
15.9569
15.8014
15.6542
15.5153
15.3845
15.2616
15.1464
15.0385
14.9377
14.8437
14.7563
14.675
14.5997
14.5299
14.4653
14.4058
14.3508
14.3002
14.2536
14.2108
14.1715
14.1355
14.1025
14.0723
14.0446
14.0194
13.9964
13.9754
13.9564
13.9392
13.9237
13.9075
13.876
13.8018
14.3018
3149.87
-522.74
-210.314
-47.0009
-6.57154
3.28307
6.60749
8.35938
9.63768
10.743
11.769
12.7443
13.6763
14.5657
15.4112
16.2114
16.9646
17.6695
18.3251
18.9309
19.4865
19.9919
20.4475
20.8539
21.2117
21.5221
21.7862
22.0055
22.1814
22.3157
22.4101
22.4666
22.4871
22.4739
22.4289
22.3545
22.2528
22.1261
21.9767
21.8067
21.6184
21.4139
21.1955
20.965
20.7246
20.4761
20.2213
19.9619
19.6996
19.4359
19.1721
18.9096
18.6495
18.3929
18.1408
17.8939
17.6531
17.4191
17.1922
16.9731
16.762
16.5593
16.3652
16.1797
16.003
15.8351
15.6759
15.5253
15.3832
15.2495
15.1238
15.0059
14.8956
14.7927
14.6967
14.6074
14.5245
14.4476
14.3764
14.3107
14.25
14.1941
14.1426
14.0953
14.0519
14.012
13.9756
13.9422
13.9117
13.8839
13.8586
13.8355
13.8146
13.7957
13.7787
13.7634
13.7476
13.7185
13.6559
14.1203
3149.87
-522.727
-210.293
-46.9718
-6.53437
3.3281
6.66009
8.41922
9.70438
10.8162
11.8482
12.8289
13.7659
14.6597
15.5091
16.3125
17.0683
17.7752
18.4322
19.0387
19.5944
20.0994
20.5538
20.9584
21.3139
21.6214
21.882
22.0973
22.2687
22.398
22.4869
22.5376
22.552
22.5322
22.4804
22.3988
22.2898
22.1555
21.9983
21.8205
21.6243
21.4119
21.1854
20.9469
20.6985
20.4421
20.1794
19.9124
19.6425
19.3713
19.1002
18.8306
18.5636
18.3004
18.0418
17.7887
17.5419
17.3021
17.0697
16.8454
16.6293
16.4218
16.2232
16.0335
15.8528
15.6811
15.5183
15.3644
15.2192
15.0825
14.9541
14.8338
14.7212
14.6161
14.5182
14.4272
14.3426
14.2643
14.1918
14.1249
14.0631
14.0063
13.954
13.906
13.862
13.8217
13.7848
13.7511
13.7204
13.6925
13.667
13.644
13.6231
13.6044
13.5876
13.5724
13.5571
13.5303
13.4774
13.9088
3149.88
-522.717
-210.276
-46.948
-6.50393
3.36493
6.70304
8.46798
9.7586
10.8755
11.9121
12.8971
13.8378
14.7348
15.5869
16.3924
17.1498
17.8577
18.5151
19.1214
19.6764
20.18
20.6326
21.0347
21.3872
21.6911
21.9478
22.1585
22.325
22.4489
22.5321
22.5766
22.5845
22.5579
22.4991
22.4103
22.2938
22.1519
21.9869
21.8013
21.5971
21.3767
21.1422
20.8958
20.6395
20.3753
20.1049
19.8302
19.5529
19.2744
18.9962
18.7196
18.4459
18.1761
17.9112
17.652
17.3994
17.154
16.9163
16.6868
16.4659
16.2538
16.0508
15.8569
15.6723
15.497
15.3308
15.1736
15.0254
14.886
14.755
14.6322
14.5175
14.4103
14.3105
14.2178
14.1317
14.052
13.9782
13.9102
13.8474
13.7897
13.7366
13.688
13.6434
13.6026
13.5654
13.5314
13.5005
13.4724
13.447
13.4239
13.4032
13.3846
13.368
13.3531
13.3382
13.3134
13.2689
13.6697
3149.88
-522.709
-210.262
-46.9291
-6.47985
3.39399
6.73684
8.50625
9.80102
10.9217
11.9617
12.9497
13.8929
14.792
15.6457
16.4523
17.2102
17.9181
18.5751
19.1804
19.7338
20.2353
20.6853
21.0843
21.4332
21.7331
21.9852
22.191
22.3521
22.4703
22.5474
22.5856
22.5867
22.5532
22.4872
22.3909
22.2669
22.1173
21.9446
21.751
21.5389
21.3106
21.0682
20.8139
20.5498
20.2778
19.9999
19.7177
19.433
19.1474
18.8622
18.5788
18.2985
18.0223
17.7513
17.4862
17.2279
16.9771
16.7342
16.4997
16.2741
16.0575
15.8502
15.6524
15.464
15.2851
15.1156
14.9553
14.8042
14.6621
14.5286
14.4035
14.2866
14.1775
14.0759
13.9815
13.894
13.8129
13.7379
13.6688
13.6051
13.5465
13.4927
13.4435
13.3984
13.3572
13.3196
13.2854
13.2543
13.2261
13.2006
13.1776
13.157
13.1385
13.1222
13.1076
13.0931
13.0701
13.0327
13.4051
3149.88
-522.703
-210.252
-46.9148
-6.46178
3.41573
6.76204
8.53464
9.83231
10.9556
11.9978
12.9876
13.9322
14.8323
15.6866
16.4933
17.2508
17.9579
18.6135
19.217
19.7682
20.2669
20.7136
21.109
21.4537
21.749
21.9962
22.1966
22.352
22.4641
22.5349
22.5664
22.5606
22.52
22.4466
22.3429
22.2112
22.0539
21.8733
21.6719
21.452
21.2158
20.9656
20.7035
20.4317
20.1521
19.8666
19.5771
19.2852
18.9926
18.7006
18.4106
18.1238
17.8414
17.5644
17.2936
17.0297
16.7736
16.5256
16.2864
16.0561
15.8352
15.6239
15.4221
15.2301
15.0478
14.875
14.7118
14.5579
14.4131
14.2772
14.1499
14.031
13.92
13.8167
13.7207
13.6317
13.5493
13.4732
13.403
13.3384
13.2791
13.2246
13.1747
13.1291
13.0875
13.0496
13.0152
12.984
12.9557
12.9302
12.9073
12.8868
12.8685
12.8524
12.8381
12.824
12.8028
12.7712
13.1173
3149.88
-522.699
-210.245
-46.905
-6.44936
3.4306
6.77915
8.55376
9.85316
10.9779
12.0212
13.0118
13.9568
14.8569
15.7108
16.5167
17.273
17.9784
18.6319
19.2328
19.781
20.2763
20.7192
21.1103
21.4504
21.7407
21.9824
22.1772
22.3265
22.4323
22.4964
22.521
22.5083
22.4603
22.3795
22.2683
22.1289
21.9638
21.7755
21.5662
21.3385
21.0945
20.8365
20.5667
20.2873
20.0002
19.7074
19.4107