/*--------------------------------*- C++ -*----------------------------------*\
  =========                 |
  \\      /  F ield         | OpenFOAM: The Open Source CFD Toolbox
   \\    /   O peration     | Website:  https://openfoam.org
    \\  /    A nd           | Version:  10
     \\/     M anipulation  |
\*---------------------------------------------------------------------------*/
FoamFile
{
    format      ascii;
    class       volScalarField;
    location    "6";
    object      T;
}
// * * * * * * * * * * * * * * * * * * * * * * * * * * * * * * * * * * * * * //

dimensions      [0 0 0 1 0 0 0];

internalField   nonuniform List<scalar> 
10000
(
374.926
361.089
356.27
354.081
352.831
351.993
351.37
350.872
350.456
350.095
349.775
349.486
349.221
348.975
348.745
348.529
348.325
348.132
347.948
347.773
347.606
347.446
347.294
347.148
347.009
346.876
346.749
346.628
346.512
346.402
346.297
346.197
346.102
346.012
345.926
345.845
345.768
345.695
345.627
345.562
345.501
345.444
345.39
345.339
345.291
345.247
345.205
345.167
345.13
345.097
345.065
345.036
345.009
344.984
344.961
344.94
344.92
344.902
344.886
344.871
344.857
344.844
344.832
344.822
344.812
344.804
344.796
344.789
344.782
344.777
344.772
344.767
344.763
344.76
344.757
344.754
344.752
344.75
344.748
344.747
344.746
344.745
344.745
344.744
344.744
344.744
344.744
344.745
344.745
344.746
344.747
344.748
344.749
344.75
344.751
344.753
344.754
344.756
344.758
344.761
388.414
374.23
366.158
361.282
358.061
355.746
353.964
352.517
351.294
350.228
349.279
348.418
347.627
346.894
346.207
345.562
344.951
344.372
343.822
343.297
342.797
342.319
341.863
341.426
341.01
340.611
340.231
339.867
339.521
339.19
338.876
338.576
338.291
338.021
337.764
337.52
337.29
337.072
336.866
336.672
336.489
336.317
336.155
336.003
335.86
335.727
335.602
335.486
335.377
335.276
335.182
335.095
335.014
334.94
334.87
334.807
334.748
334.694
334.644
334.598
334.557
334.518
334.484
334.452
334.423
334.397
334.374
334.353
334.334
334.317
334.302
334.288
334.276
334.266
334.257
334.249
334.242
334.236
334.231
334.228
334.224
334.222
334.221
334.22
334.219
334.219
334.22
334.221
334.223
334.225
334.227
334.23
334.233
334.237
334.241
334.245
334.25
334.254
334.259
334.265
392.891
381.275
372.863
366.84
362.399
358.982
356.24
353.955
351.993
350.266
348.716
347.304
346.002
344.79
343.655
342.586
341.574
340.614
339.7
338.829
337.998
337.204
336.445
335.719
335.026
334.363
333.73
333.126
332.549
332
331.476
330.977
330.503
330.053
329.625
329.22
328.837
328.474
328.131
327.808
327.503
327.216
326.947
326.694
326.457
326.235
326.027
325.833
325.653
325.485
325.328
325.183
325.048
324.924
324.808
324.702
324.604
324.514
324.431
324.356
324.286
324.223
324.165
324.112
324.064
324.021
323.982
323.947
323.915
323.887
323.862
323.839
323.819
323.802
323.787
323.773
323.762
323.753
323.745
323.738
323.733
323.729
323.726
323.725
323.724
323.724
323.725
323.727
323.73
323.734
323.738
323.742
323.748
323.754
323.76
323.767
323.774
323.782
323.791
323.8
394.739
385.131
377.187
370.826
365.724
361.558
358.074
355.091
352.479
350.15
348.04
346.106
344.315
342.642
341.071
339.588
338.183
336.847
335.575
334.362
333.204
332.096
331.038
330.026
329.058
328.133
327.249
326.406
325.6
324.832
324.101
323.404
322.742
322.113
321.515
320.949
320.413
319.906
319.428
318.976
318.55
318.149
317.773
317.419
317.088
316.777
316.487
316.216
315.964
315.729
315.51
315.307
315.119
314.945
314.784
314.635
314.498
314.372
314.256
314.15
314.053
313.965
313.884
313.81
313.743
313.683
313.628
313.579
313.535
313.495
313.46
313.428
313.401
313.376
313.355
313.336
313.321
313.307
313.296
313.287
313.28
313.274
313.271
313.268
313.267
313.268
313.269
313.272
313.276
313.28
313.286
313.293
313.3
313.308
313.317
313.327
313.337
313.349
313.36
313.373
395.65
387.337
379.938
373.565
368.128
363.469
359.43
355.879
352.71
349.844
347.223
344.802
342.548
340.435
338.443
336.559
334.77
333.068
331.445
329.896
328.415
326.999
325.645
324.349
323.11
321.926
320.794
319.713
318.68
317.696
316.758
315.865
315.016
314.209
313.444
312.718
312.03
311.38
310.766
310.186
309.64
309.126
308.643
308.19
307.764
307.366
306.994
306.647
306.323
306.021
305.74
305.48
305.239
305.015
304.808
304.618
304.442
304.28
304.132
303.996
303.871
303.758
303.654
303.559
303.474
303.396
303.326
303.263
303.206
303.155
303.11
303.069
303.034
303.002
302.975
302.951
302.931
302.914
302.899
302.888
302.879
302.872
302.867
302.864
302.862
302.863
302.865
302.868
302.873
302.879
302.886
302.895
302.904
302.915
302.926
302.938
302.952
302.966
302.981
302.997
396.151
388.643
381.675
375.383
369.773
364.784
360.327
356.316
352.673
349.335
346.25
343.379
340.69
338.159
335.765
333.495
331.335
329.276
327.31
325.432
323.635
321.916
320.271
318.696
317.189
315.748
314.371
313.055
311.799
310.6
309.458
308.371
307.337
306.354
305.421
304.537
303.699
302.907
302.158
301.452
300.787
300.16
299.571
299.019
298.5
298.015
297.562
297.138
296.743
296.375
296.033
295.716
295.421
295.149
294.897
294.665
294.451
294.253
294.073
293.907
293.755
293.616
293.489
293.374
293.27
293.175
293.09
293.013
292.943
292.881
292.826
292.777
292.733
292.695
292.662
292.633
292.608
292.587
292.569
292.555
292.544
292.535
292.529
292.525
292.524
292.524
292.527
292.531
292.537
292.544
292.553
292.563
292.574
292.587
292.601
292.616
292.632
292.65
292.668
292.687
396.441
389.424
382.75
376.536
370.822
365.594
360.812
356.423
352.375
348.62
345.117
341.832
338.737
335.811
333.035
330.393
327.875
325.471
323.172
320.973
318.867
316.851
314.92
313.071
311.301
309.608
307.988
306.441
304.963
303.554
302.21
300.93
299.713
298.556
297.458
296.417
295.431
294.498
293.617
292.785
292.001
291.263
290.57
289.919
289.308
288.737
288.202
287.703
287.238
286.805
286.402
286.028
285.681
285.36
285.064
284.79
284.537
284.305
284.092
283.896
283.717
283.554
283.405
283.269
283.146
283.035
282.934
282.843
282.761
282.688
282.623
282.565
282.514
282.469
282.429
282.395
282.366
282.341
282.32
282.303
282.29
282.28
282.273
282.268
282.266
282.267
282.269
282.274
282.281
282.289
282.3
282.311
282.325
282.34
282.356
282.374
282.393
282.413
282.435
282.457
396.608
389.879
383.383
377.211
371.411
365.993
360.944
356.236
351.836
347.709
343.827
340.161
336.689
333.391
330.251
327.255
324.393
321.655
319.033
316.522
314.115
311.808
309.598
307.48
305.452
303.51
301.653
299.878
298.183
296.565
295.022
293.553
292.155
290.827
289.565
288.369
287.236
286.165
285.152
284.196
283.295
282.448
281.651
280.902
280.201
279.544
278.93
278.356
277.821
277.323
276.86
276.43
276.031
275.662
275.321
275.006
274.716
274.449
274.204
273.979
273.773
273.585
273.414
273.258
273.116
272.988
272.872
272.767
272.673
272.589
272.514
272.448
272.389
272.337
272.291
272.252
272.218
272.19
272.166
272.146
272.131
272.119
272.111
272.105
272.103
272.104
272.107
272.112
272.12
272.129
272.141
272.154
272.17
272.187
272.205
272.225
272.247
272.27
272.295
272.321
396.697
390.121
383.712
377.539
371.649
366.063
360.782
355.794
351.081
346.621
342.392
338.375
334.55
330.902
327.417
324.083
320.891
317.831
314.897
312.083
309.383
306.794
304.31
301.93
299.649
297.464
295.374
293.375
291.465
289.642
287.904
286.248
284.673
283.175
281.753
280.404
279.126
277.918
276.775
275.697
274.681
273.725
272.825
271.981
271.189
270.448
269.755
269.108
268.504
267.942
267.419
266.934
266.484
266.068
265.683
265.327
265
264.698
264.422
264.168
263.935
263.723
263.53
263.354
263.194
263.049
262.918
262.8
262.694
262.599
262.514
262.438
262.372
262.313
262.262
262.217
262.179
262.147
262.12
262.098
262.08
262.067
262.057
262.051
262.048
262.049
262.052
262.058
262.066
262.077
262.09
262.105
262.122
262.141
262.162
262.185
262.209
262.235
262.263
262.291
396.734
390.217
383.825
377.612
371.619
365.871
360.377
355.136
350.139
345.374
340.827
336.483
332.328
328.35
324.538
320.881
317.372
314.003
310.768
307.661
304.677
301.812
299.063
296.426
293.898
291.475
289.157
286.939
284.819
282.795
280.865
279.026
277.275
275.611
274.03
272.531
271.111
269.767
268.498
267.299
266.169
265.106
264.106
263.167
262.286
261.462
260.691
259.971
259.3
258.674
258.093
257.553
257.053
256.589
256.161
255.765
255.401
255.066
254.758
254.475
254.217
253.981
253.765
253.569
253.391
253.23
253.084
252.953
252.835
252.729
252.634
252.55
252.476
252.411
252.354
252.304
252.262
252.225
252.195
252.17
252.151
252.136
252.125
252.118
252.115
252.115
252.118
252.125
252.134
252.146
252.16
252.177
252.196
252.216
252.239
252.264
252.291
252.32
252.35
252.382
396.735
390.21
383.783
377.496
371.384
365.473
359.776
354.299
349.04
343.992
339.148
334.498
330.033
325.743
321.62
317.655
313.843
310.177
306.651
303.261
300.002
296.87
293.862
290.975
288.206
285.552
283.009
280.577
278.252
276.031
273.912
271.893
269.971
268.143
266.408
264.761
263.201
261.724
260.329
259.012
257.77
256.601
255.502
254.47
253.502
252.596
251.749
250.957
250.219
249.531
248.892
248.299
247.748
247.239
246.767
246.333
245.932
245.563
245.224
244.914
244.629
244.37
244.133
243.917
243.721
243.544
243.383
243.239
243.109
242.992
242.888
242.796
242.714
242.642
242.579
242.525
242.478
242.438
242.404
242.377
242.355
242.338
242.326
242.319
242.315
242.315
242.319
242.325
242.335
242.348
242.364
242.382
242.402
242.425
242.45
242.477
242.506
242.537
242.57
242.605
396.71
390.129
383.627
377.238
370.992
364.914
359.019
353.316
347.809
342.495
337.372
332.434
327.676
323.09
318.671
314.413
310.311
306.359
302.553
298.889
295.364
291.973
288.714
285.584
282.58
279.699
276.939
274.298
271.771
269.358
267.055
264.86
262.77
260.782
258.894
257.102
255.405
253.798
252.28
250.846
249.495
248.222
247.026
245.902
244.848
243.862
242.939
242.077
241.273
240.525
239.828
239.182
238.582
238.027
237.514
237.041
236.604
236.202
235.833
235.495
235.185
234.902
234.644
234.409
234.196
234.002
233.828
233.67
233.528
233.401
233.288
233.187
233.098
233.019
232.951
232.891
232.84
232.796
232.76
232.73
232.706
232.687
232.674
232.665
232.661
232.661
232.664
232.672
232.682
232.696
232.712
232.732
232.753
232.778
232.805
232.834
232.866
232.899
232.935
232.972
396.666
389.994
383.387
376.873
370.479
364.229
358.137
352.216
346.471
340.905
335.517
330.306
325.269
320.402
315.701
311.162
306.781
302.555
298.479
294.552
290.769
287.127
283.625
280.259
277.027
273.926
270.954
268.108
265.385
262.784
260.301
257.934
255.679
253.535
251.497
249.564
247.732
245.998
244.359
242.811
241.352
239.978
238.686
237.473
236.335
235.269
234.272
233.341
232.473
231.664
230.912
230.214
229.566
228.967
228.412
227.9
227.429
226.995
226.596
226.23
225.896
225.59
225.311
225.057
224.826
224.617
224.428
224.258
224.104
223.967
223.844
223.735
223.639
223.554
223.479
223.415
223.359
223.312
223.272
223.239
223.213
223.193
223.178
223.169
223.164
223.164
223.167
223.175
223.186
223.2
223.218
223.238
223.261
223.288
223.316
223.347
223.381
223.417
223.455
223.495
396.609
389.817
383.083
376.428
369.875
363.446
357.158
351.023
345.049
339.24
333.599
328.128
322.825
317.689
312.718
307.91
303.262
298.772
294.437
290.255
286.223
282.339
278.601
275.007
271.553
268.238
265.059
262.014
259.101
256.316
253.658
251.122
248.708
246.41
244.227
242.155
240.192
238.333
236.576
234.916
233.352
231.878
230.493
229.191
227.971
226.828
225.759
224.76
223.828
222.961
222.154
221.405
220.71
220.066
219.472
218.922
218.416
217.95
217.523
217.13
216.771
216.442
216.143
215.87
215.623
215.398
215.195
215.012
214.848
214.7
214.568
214.451
214.347
214.256
214.176
214.106
214.047
213.996
213.953
213.917
213.889
213.867
213.851
213.84
213.835
213.834
213.838
213.845
213.857
213.872
213.89
213.912
213.937
213.964
213.995
214.028
214.063
214.101
214.142
214.184
396.541
389.611
382.732
375.922
369.201
362.59
356.105
349.759
343.561
337.517
331.634
325.913
320.356
314.962
309.733
304.667
299.762
295.019
290.434
286.006
281.734
277.616
273.65
269.833
266.165
262.642
259.263
256.025
252.926
249.962
247.133
244.434
241.862
239.416
237.091
234.884
232.792
230.811
228.938
227.17
225.502
223.932
222.455
221.067
219.766
218.547
217.407
216.342
215.349
214.424
213.563
212.764
212.023
211.337
210.702
210.116
209.576
209.079
208.623
208.204
207.821
207.47
207.151
206.86
206.596
206.356
206.139
205.944
205.768
205.611
205.47
205.345
205.234
205.136
205.051
204.976
204.912
204.857
204.811
204.773
204.743
204.719
204.702
204.69
204.684
204.683
204.686
204.694
204.706
204.721
204.741
204.763
204.789
204.818
204.85
204.884
204.922
204.962
205.005
205.049
396.465
389.383
382.346
375.37
368.474
361.677
354.995
348.44
342.024
335.753
329.635
323.674
317.872
312.232
306.754
301.44
296.289
291.301
286.476
281.811
277.308
272.963
268.776
264.745
260.869
257.144
253.571
250.145
246.865
243.729
240.733
237.875
235.151
232.559
230.095
227.757
225.539
223.44
221.455
219.58
217.812
216.146
214.58
213.109
211.728
210.436
209.226
208.097
207.043
206.061
205.148
204.301
203.514
202.786
202.113
201.491
200.918
200.391
199.906
199.462
199.055
198.683
198.344
198.035
197.754
197.5
197.27
197.062
196.876
196.708
196.559
196.426
196.308
196.204
196.113
196.033
195.965
195.907
195.858
195.817
195.784
195.759
195.74
195.727
195.72
195.719
195.722
195.73
195.742
195.758
195.778
195.801
195.828
195.858
195.891
195.928
195.967
196.009
196.053
196.1
396.384
389.139
381.935
374.786
367.71
360.724
353.845
347.084
340.453
333.961
327.616
321.422
315.385
309.507
303.79
298.238
292.85
287.627
282.57
277.678
272.95
268.387
263.987
259.749
255.671
251.752
247.989
244.382
240.927
237.622
234.465
231.452
228.58
225.847
223.248
220.781
218.442
216.227
214.132
212.154
210.287
208.53
206.876
205.323
203.866
202.501
201.224
200.031
198.919
197.882
196.918
196.023
195.192
194.423
193.712
193.055
192.45
191.893
191.381
190.911
190.481
190.089
189.73
189.404
189.107
188.838
188.595
188.376
188.178
188.001
187.843
187.702
187.577
187.467
187.371
187.287
187.214
187.152
187.1
187.057
187.022
186.995
186.974
186.961
186.953
186.95
186.953
186.961
186.973
186.99
187.01
187.035
187.062
187.093
187.128
187.166
187.206
187.25
187.296
187.344
396.299
388.883
381.505
374.179
366.919
359.743
352.667
345.702
338.861
332.154
325.587
319.169
312.904
306.797
300.851
295.068
289.452
284.003
278.723
273.611
268.668
263.894
259.288
254.849
250.577
246.469
242.524
238.741
235.116
231.648
228.334
225.171
222.156
219.285
216.556
213.964
211.506
209.179
206.977
204.898
202.937
201.089
199.351
197.718
196.186
194.751
193.408
192.154
190.984
189.894
188.88
187.938
187.064
186.255
185.507
184.816
184.179
183.593
183.055
182.561
182.108
181.695
181.318
180.974
180.662
180.379
180.123
179.892
179.684
179.498
179.331
179.182
179.051
178.935
178.833
178.744
178.668
178.602
178.547
178.501
178.464
178.435
178.413
178.398
178.389
178.386
178.389
178.396
178.409
178.425
178.446
178.471
178.5
178.532
178.567
178.606
178.648
178.693
178.741
178.791
396.211
388.619
381.064
373.556
366.111
358.744
351.472
344.306
337.259
330.341
323.56
316.924
310.439
304.11
297.943
291.939
286.103
280.437
274.941
269.617
264.467
259.489
254.685
250.053
245.592
241.302
237.181
233.227
229.439
225.813
222.347
219.038
215.883
212.88
210.024
207.311
204.738
202.302
199.997
197.819
195.765
193.83
192.01
190.299
188.695
187.191
185.785
184.47
183.244
182.102
181.04
180.053
179.137
178.289
177.505
176.781
176.114
175.499
174.935
174.417
173.943
173.509
173.114
172.753
172.426
172.129
171.86
171.618
171.4
171.204
171.029
170.873
170.735
170.613
170.506
170.413
170.332
170.263
170.205
170.156
170.117
170.086
170.062
170.046
170.037
170.033
170.035
170.042
170.055
170.072
170.093
170.118
170.147
170.18
170.217
170.257
170.3
170.346
170.396
170.447
396.122
388.351
380.615
372.924
365.292
357.736
350.269
342.906
335.656
328.532
321.542
314.695
307.998
301.455
295.074
288.858
282.81
276.933
271.23
265.703
260.352
255.179
250.183
245.364
240.722
236.256
231.965
227.846
223.899
220.12
216.507
213.058
209.769
206.636
203.657
200.827
198.143
195.601
193.195
190.923
188.779
186.759
184.859
183.073
181.398
179.828
178.36
176.987
175.707
174.514
173.404
172.374
171.417
170.532
169.713
168.956
168.259
167.617
167.027
166.486
165.991
165.538
165.124
164.748
164.405
164.095
163.814
163.561
163.333
163.128
162.945
162.782
162.637
162.509
162.397
162.299
162.214
162.142
162.08
162.029
161.988
161.955
161.93
161.912
161.902
161.897
161.899
161.906
161.918
161.935
161.956
161.982
162.012
162.046
162.083
162.124
162.168
162.215
162.266
162.319
396.032
388.081
380.163
372.289
364.471
356.726
349.067
341.508
334.061
326.736
319.543
312.491
305.588
298.839
292.251
285.83
279.578
273.499
267.597
261.873
256.329
250.967
245.786
240.788
235.971
231.336
226.88
222.603
218.502
214.576
210.821
207.236
203.816
200.559
197.461
194.518
191.726
189.081
186.579
184.214
181.983
179.881
177.903
176.045
174.301
172.667
171.138
169.709
168.376
167.134
165.979
164.906
163.91
162.988
162.135
161.347
160.621
159.952
159.338
158.774
158.258
157.786
157.355
156.962
156.606
156.282
155.99
155.725
155.488
155.274
155.083
154.913
154.762
154.628
154.511
154.409
154.32
154.244
154.18
154.126
154.082
154.047
154.02
154.002
153.99
153.985
153.986
153.992
154.004
154.021
154.043
154.069
154.099
154.133
154.171
154.212
154.257
154.306
154.358
154.412
395.942
387.81
379.712
371.654
363.652
355.72
347.872
340.121
332.48
324.96
317.569
310.319
303.216
296.268
289.481
282.861
276.412
270.139
264.045
258.132
252.403
246.859
241.5
236.329
231.344
226.545
221.931
217.5
213.252
209.183
205.292
201.575
198.03
194.652
191.439
188.387
185.491
182.747
180.15
177.697
175.382
173.2
171.147
169.218
167.408
165.712
164.125
162.641
161.257
159.968
158.768
157.653
156.619
155.662
154.776
153.958
153.203
152.509
151.871
151.285
150.749
150.258
149.81
149.403
149.032
148.696
148.391
148.117
147.869
147.647
147.449
147.271
147.114
146.975
146.853
146.746
146.654
146.574
146.507
146.45
146.404
146.367
146.339
146.319
146.306
146.3
146.3
146.306
146.318
146.335
146.356
146.382
146.413
146.447
146.486
146.528
146.573
146.623
146.675
146.73
395.852
387.541
379.262
371.024
362.839
354.723
346.689
338.751
330.92
323.209
315.627
308.184
300.888
293.747
286.768
279.957
273.319
266.859
260.58
254.485
248.577
242.858
237.329
231.991
226.843
221.887
217.12
212.542
208.152
203.946
199.923
196.079
192.413
188.919
185.595
182.437
179.441
176.601
173.914
171.374
168.978
166.72
164.595
162.597
160.723
158.967
157.323
155.787
154.354
153.018
151.775
150.621
149.55
148.558
147.64
146.792
146.011
145.291
144.63
144.023
143.467
142.959
142.495
142.072
141.688
141.339
141.024
140.739
140.482
140.252
140.046
139.862
139.698
139.554
139.427
139.316
139.219
139.136
139.066
139.007
138.959
138.92
138.89
138.868
138.854
138.847
138.847
138.852
138.864
138.88
138.901
138.927
138.958
138.993
139.031
139.074
139.12
139.17
139.223
139.279
395.764
387.275
378.818
370.401
362.036
353.739
345.523
337.401
329.386
321.49
313.721
306.092
298.609
291.282
284.118
277.123
270.303
263.662
257.205
250.935
244.856
238.968
233.275
227.777
222.474
217.366
212.452
207.733
203.205
198.867
194.717
190.752
186.968
183.363
179.933
176.673
173.579
170.647
167.872
165.25
162.775
160.443
158.248
156.185
154.249
152.434
150.736
149.149
147.668
146.288
145.004
143.811
142.704
141.679
140.73
139.854
139.046
138.303
137.619
136.991
136.417
135.891
135.411
134.974
134.577
134.216
133.89
133.595
133.329
133.091
132.877
132.687
132.517
132.368
132.236
132.12
132.02
131.934
131.861
131.799
131.749
131.708
131.676
131.653
131.638
131.63
131.629
131.633
131.644
131.66
131.681
131.707
131.738
131.772
131.811
131.854
131.901
131.951
132.005
132.061
395.676
387.013
378.381
369.787
361.246
352.772
344.378
336.078
327.883
319.806
311.857
304.047
296.384
288.878
281.535
274.362
267.366
260.552
253.924
247.486
241.242
235.193
229.342
223.69
218.237
212.984
207.929
203.073
198.414
193.949
189.677
185.595
181.699
177.986
174.453
171.095
167.908
164.887
162.028
159.326
156.776
154.372
152.11
149.984
147.988
146.117
144.367
142.731
141.204
139.781
138.457
137.226
136.085
135.027
134.049
133.146
132.312
131.545
130.84
130.193
129.6
129.057
128.562
128.111
127.701
127.329
126.992
126.687
126.413
126.167
125.946
125.749
125.574
125.419
125.283
125.163
125.059
124.97
124.894
124.829
124.776
124.734
124.7
124.676
124.659
124.65
124.648
124.652
124.662
124.678
124.698
124.724
124.754
124.789
124.828
124.871
124.918
124.968
125.023
125.079
395.591
386.756
377.952
369.186
360.473
351.825
343.257
334.783
326.414
318.162
310.038
302.053
294.217
286.537
279.022
271.679
264.514
257.533
250.741
244.142
237.739
231.535
225.532
219.732
214.136
208.743
203.553
198.567
193.781
189.194
184.805
180.61
176.606
172.79
169.158
165.706
162.429
159.323
156.383
153.605
150.982
148.509
146.182
143.995
141.941
140.017
138.216
136.532
134.961
133.497
132.135
130.868
129.694
128.605
127.598
126.668
125.811
125.021
124.295
123.628
123.018
122.459
121.95
121.485
121.063
120.679
120.332
120.018
119.735
119.481
119.254
119.051
118.87
118.71
118.569
118.445
118.338
118.245
118.166
118.099
118.044
117.999
117.964
117.938
117.92
117.91
117.907
117.91
117.919
117.934
117.955
117.98
118.01
118.045
118.083
118.126
118.173
118.224
118.278
118.335
395.507
386.504
377.532
368.599
359.717
350.901
342.164
333.52
324.982
316.561
308.268
300.115
292.11
284.263
276.583
269.075
261.748
254.607
247.658
240.904
234.349
227.996
221.848
215.907
210.172
204.645
199.326
194.214
189.307
184.604
180.102
175.799
171.691
167.776
164.049
160.507
157.144
153.956
150.938
148.086
145.393
142.855
140.465
138.219
136.111
134.135
132.285
130.556
128.942
127.438
126.039
124.738
123.531
122.413
121.379
120.423
119.542
118.73
117.984
117.3
116.672
116.098
115.574
115.096
114.662
114.268
113.911
113.588
113.297
113.036
112.801
112.592
112.406
112.241
112.096
111.968
111.857
111.761
111.679
111.61
111.552
111.506
111.469
111.441
111.422
111.411
111.406
111.409
111.417
111.431
111.451
111.476
111.506
111.54
111.578
111.621
111.668
111.719
111.773
111.83
395.425
386.259
377.124
368.026
358.981
350.001
341.1
332.292
323.59
315.005
306.549
298.233
290.067
282.06
274.22
266.555
259.072
251.777
244.676
237.774
231.073
224.578
218.291
212.214
206.347
200.692
195.249
190.016
184.993
180.178
175.568
171.162
166.955
162.945
159.127
155.498
152.052
148.786
145.694
142.771
140.011
137.409
134.96
132.658
130.497
128.471
126.574
124.802
123.147
121.605
120.17
118.836
117.598
116.452
115.391
114.411
113.507
112.674
111.909
111.206
110.563
109.974
109.436
108.946
108.5
108.095
107.729
107.397
107.098
106.83
106.589
106.374
106.183
106.013
105.863
105.732
105.617
105.518
105.433
105.362
105.302
105.253
105.215
105.185
105.165
105.152
105.146
105.148
105.155
105.169
105.188
105.212
105.241
105.275
105.313
105.356
105.402
105.453
105.507
105.564
395.346
386.021
376.726
367.47
358.266
349.127
340.067
331.101
322.24
313.497
304.884
296.412
288.09
279.928
271.935
264.119
256.486
249.044
241.798
234.753
227.913
221.282
214.862
208.654
202.662
196.884
191.322
185.974
180.84
175.918
171.205
166.699
162.398
158.297
154.392
150.68
147.155
143.814
140.65
137.659
134.835
132.173
129.666
127.31
125.098
123.025
121.083
119.269
117.575
115.997
114.527
113.162
111.895
110.72
109.634
108.63
107.705
106.852
106.068
105.349
104.689
104.086
103.535
103.033
102.576
102.161
101.785
101.445
101.139
100.864
100.617
100.396
100.199
100.025
99.8708
99.7357
99.6177
99.5157
99.4281
99.3539
99.2919
99.2412
99.2008
99.1699
99.1477
99.1337
99.1271
99.1274
99.1341
99.1468
99.1651
99.1887
99.2172
99.2504
99.2881
99.3301
99.3762
99.4264
99.4803
99.5369
395.269
385.79
376.341
366.932
357.573
348.28
339.067
329.948
320.934
312.039
303.275
294.651
286.18
277.87
269.73
261.768
253.993
246.41
239.025
231.844
224.871
218.109
211.561
205.23
199.116
193.221
187.545
182.088
176.847
171.823
167.011
162.411
158.019
153.831
149.843
146.051
142.451
139.038
135.806
132.75
129.865
127.144
124.583
122.175
119.915
117.796
115.812
113.957
112.226
110.612
109.11
107.714
106.419
105.218
104.107
103.081
102.135
101.263
100.461
99.7252
99.0507
98.4336
97.87
97.3562
96.8887
96.4641
96.0795
95.7317
95.418
95.1358
94.8828
94.6565
94.4549
94.276
94.118
93.9791
93.8578
93.7527
93.6625
93.5858
93.5216
93.4688
93.4266
93.3941
93.3704
93.355
93.3472
93.3464
93.3521
93.3638
93.3813
93.4041
93.4319
93.4644
93.5015
93.5429
93.5885
93.6382
93.6916
93.7478
395.194
385.566
375.969
366.411
356.904
347.463
338.102
328.834
319.674
310.632
301.722
292.954
284.339
275.886
267.606
259.505
251.593
243.875
236.358
229.046
221.945
215.059
208.389
201.939
195.711
189.704
183.919
178.357
173.015
167.892
162.987
158.297
153.817
149.546
145.479
141.612
137.939
134.457
131.16
128.042
125.098
122.323
119.709
117.252
114.945
112.782
110.757
108.864
107.097
105.45
103.917
102.491
101.169
99.9433
98.8092
97.7614
96.7949
95.9046
95.086
94.3344
93.6455
93.0151
92.4394
91.9144
91.4367
91.0029
90.6097
90.2542
89.9335
89.6449
89.386
89.1544
88.948
88.7647
88.6027
88.4602
88.3357
88.2277
88.1347
88.0556
87.9892
87.9344
87.8904
87.8562
87.831
87.8142
87.8051
87.8031
87.8077
87.8185
87.835
87.8569
87.8839
87.9156
87.952
87.9927
88.0377
88.0867
88.1395
88.1952
395.122
385.351
375.61
365.908
356.258
346.674
337.171
327.761
318.459
309.277
300.227
291.32
282.568
273.979
265.564
257.33
249.287
241.44
233.796
226.36
219.137
212.132
205.346
198.783
192.444
186.331
180.443
174.78
169.342
164.126
159.131
154.354
149.792
145.442
141.299
137.359
133.618
130.07
126.711
123.534
120.534
117.706
115.042
112.538
110.187
107.982
105.918
103.989
102.187
100.508
98.9448
97.4919
96.1435
94.8938
93.7374
92.669
91.6834
90.7755
89.9405
89.1739
88.4713
87.8282
87.2408
86.7052
86.2178
85.775
85.3737
85.0107
84.6832
84.3884
84.1239
83.8872
83.6761
83.4886
83.3228
83.1768
83.0491
82.9382
82.8426
82.7611
82.6925
82.6357
82.5899
82.554
82.5273
82.509
82.4986
82.4954
82.4988
82.5085
82.524
82.5449
82.571
82.6019
82.6374
82.6773
82.7215
82.7698
82.8219
82.8769
395.053
385.143
375.265
365.425
355.637
345.916
336.275
326.73
317.292
307.975
298.791
289.751
280.867
272.148
263.604
255.243
247.074
239.104
231.339
223.785
216.446
209.327
202.431
195.76
189.317
183.101
177.115
171.357
165.826
160.522
155.441
150.583
145.942
141.516
137.301
133.292
129.486
125.875
122.457
119.223
116.17
113.291
110.58
108.031
105.638
103.393
101.292
99.3276
97.4936
95.7838
94.1922
92.7127
91.3396
90.067
88.8893
87.8012
86.7973
85.8725
85.0221
84.2411
83.5253
82.8701
82.2716
81.7258
81.229
80.7777
80.3685
79.9984
79.6644
79.3637
79.0937
78.8521
78.6365
78.4449
78.2753
78.126
77.9952
77.8814
77.7833
77.6994
77.6286
77.5699
77.5222
77.4846
77.4563
77.4366
77.4248
77.4203
77.4226
77.4311
77.4455
77.4654
77.4904
77.5204
77.5549
77.5939
77.6372
77.6846
77.7359
77.7901
394.987
384.944
374.933
364.961
355.041
345.188
335.416
325.74
316.172
306.726
297.413
288.246
279.236
270.392
261.725
253.244
244.956
236.868
228.988
221.321
213.871
206.644
199.643
192.869
186.326
180.014
173.934
168.085
162.467
157.078
151.916
146.979
142.264
137.766
133.483
129.408
125.539
121.87
118.394
115.108
112.004
109.077
106.32
103.729
101.295
99.0128
96.876
94.8782
93.013
91.2742
89.6554
88.1507
86.754
85.4595
84.2616
83.1547
82.1334
81.1925
80.3272
79.5326
78.8042
78.1375
77.5283
76.9728
76.467
76.0075
75.5909
75.2139
74.8736
74.5672
74.2921
74.0457
73.8258
73.6302
73.4571
73.3044
73.1706
73.0541
72.9534
72.8672
72.7943
72.7336
72.684
72.6448
72.6149
72.5937
72.5805
72.5747
72.5757
72.583
72.5962
72.615
72.639
72.6678
72.7014
72.7394
72.7817
72.8281
72.8784
72.9317
394.923
384.753
374.615
364.516
354.469
344.49
334.593
324.791
315.099
305.529
296.094
286.806
277.676
268.713
259.929
251.332
242.93
234.731
226.741
218.966
211.412
204.082
196.98
190.109
183.471
177.067
170.898
164.963
159.261
153.792
148.553
143.542
138.755
134.19
129.841
125.705
121.776
118.05
114.521
111.183
108.031
105.059
102.259
99.6268
97.1548
94.8368
92.6663
90.6369
88.7421
86.9755
85.3309
83.8022
82.3831
81.0678
79.8506
78.7257
77.6879
76.7318
75.8523
75.0447
74.3042
73.6265
73.0072
72.4423
71.928
71.4607
71.0369
70.6534
70.3071
69.9953
69.7151
69.4641
69.2401
69.0407
68.864
68.7082
68.5715
68.4523
68.3491
68.2606
68.1856
68.1229
68.0716
68.0306
67.9991
67.9764
67.9618
67.9546
67.9543
67.9603
67.9724
67.99
68.0128
68.0405
68.0729
68.1098
68.1511
68.1964
68.2457
68.2978
394.862
384.571
374.311
364.09
353.923
343.823
333.805
323.884
314.073
304.386
294.834
285.43
276.185
267.11
258.214
249.507
240.997
232.691
224.597
216.72
209.065
201.638
194.441
187.478
180.75
174.258
168.004
161.987
156.207
150.662
145.35
140.268
135.414
130.783
126.373
122.177
118.192
114.413
110.833
107.447
104.249
101.233
98.3931
95.722
93.2137
90.8616
88.659
86.5996
84.6767
82.8839
81.2148
79.6631
78.2228
76.8877
75.6521
74.5102
73.4566
72.486
71.5931
70.773
70.0212
69.3329
68.7039
68.1302
67.6078
67.133
66.7024
66.3126
65.9606
65.6435
65.3585
65.1032
64.8751
64.6721
64.492
64.3331
64.1935
64.0717
63.9661
63.8754
63.7983
63.7337
63.6805
63.6378
63.6047
63.5805
63.5644
63.5558
63.5542
63.5589
63.5697
63.586
63.6076
63.6342
63.6654
63.7011
63.7412
63.7854
63.8335
63.8845
394.804
384.396
374.02
363.684
353.401
343.186
333.054
323.019
313.095
303.295
293.632
284.118
274.764
265.581
256.579
247.767
239.154
230.747
222.554
214.58
206.831
199.311
192.024
184.973
178.159
171.585
165.251
159.157
153.301
147.684
142.303
137.154
132.236
127.544
123.075
118.823
114.785
110.955
107.327
103.895
100.654
97.5968
94.7178
92.0102
89.4675
87.083
84.8501
82.7621
80.8125
78.9948
77.3024
75.7291
74.2685
72.9147
71.6617
70.5037
69.4351
68.4506
67.5449
66.7131
65.9503
65.2521
64.6139
64.0318
63.5016
63.0197
62.5825
62.1868
61.8293
61.5072
61.2176
60.9581
60.7261
60.5196
60.3363
60.1743
60.032
59.9076
59.7997
59.7068
59.6276
59.5611
59.5061
59.4618
59.4271
59.4013
59.3837
59.3737
59.3707
59.3741
59.3835
59.3986
59.4189
59.4442
59.4742
59.5086
59.5474
59.5904
59.6372
59.687
394.749
384.23
373.744
363.297
352.903
342.579
332.338
322.194
312.163
302.256
292.487
282.868
273.411
264.126
255.023
246.112