/*--------------------------------*- C++ -*----------------------------------*\
  =========                 |
  \\      /  F ield         | OpenFOAM: The Open Source CFD Toolbox
   \\    /   O peration     | Website:  https://openfoam.org
    \\  /    A nd           | Version:  10
     \\/     M anipulation  |
\*---------------------------------------------------------------------------*/
FoamFile
{
    format      ascii;
    class       volScalarField;
    location    "6";
    object      T_0;
}
// * * * * * * * * * * * * * * * * * * * * * * * * * * * * * * * * * * * * * //

dimensions      [0 0 0 1 0 0 0];

internalField   nonuniform List<scalar> 
10000
(
374.902
361.073
356.254
354.065
352.815
351.977
351.353
350.855
350.438
350.078
349.758
349.468
349.203
348.956
348.727
348.51
348.306
348.113
347.928
347.753
347.586
347.426
347.274
347.128
346.989
346.856
346.729
346.607
346.492
346.381
346.276
346.176
346.081
345.991
345.905
345.824
345.747
345.675
345.606
345.541
345.48
345.423
345.369
345.318
345.271
345.226
345.185
345.146
345.11
345.076
345.045
345.016
344.989
344.964
344.941
344.92
344.9
344.882
344.866
344.851
344.837
344.824
344.812
344.802
344.792
344.784
344.776
344.769
344.763
344.757
344.752
344.748
344.744
344.74
344.737
344.734
344.732
344.73
344.729
344.727
344.726
344.726
344.725
344.725
344.725
344.725
344.725
344.725
344.726
344.727
344.728
344.728
344.73
344.731
344.732
344.733
344.735
344.737
344.738
344.738
388.396
374.228
366.158
361.28
358.058
355.742
353.959
352.511
351.287
350.221
349.271
348.41
347.618
346.884
346.197
345.55
344.94
344.36
343.809
343.284
342.783
342.305
341.848
341.412
340.994
340.596
340.215
339.852
339.505
339.174
338.859
338.56
338.275
338.004
337.747
337.504
337.273
337.055
336.85
336.655
336.472
336.3
336.138
335.987
335.844
335.711
335.586
335.47
335.362
335.261
335.167
335.08
334.999
334.924
334.855
334.792
334.733
334.679
334.629
334.584
334.542
334.504
334.47
334.438
334.41
334.384
334.36
334.339
334.32
334.304
334.288
334.275
334.263
334.253
334.244
334.236
334.229
334.223
334.219
334.215
334.212
334.209
334.208
334.207
334.207
334.207
334.207
334.209
334.21
334.212
334.215
334.218
334.221
334.225
334.228
334.233
334.237
334.242
334.247
334.252
392.873
381.275
372.863
366.838
362.395
358.976
356.232
353.947
351.983
350.255
348.703
347.29
345.987
344.774
343.638
342.568
341.555
340.594
339.68
338.808
337.976
337.181
336.421
335.695
335.001
334.338
333.705
333.1
332.523
331.973
331.449
330.95
330.476
330.026
329.598
329.193
328.809
328.447
328.104
327.781
327.476
327.19
326.92
326.667
326.43
326.209
326.001
325.808
325.627
325.459
325.303
325.158
325.023
324.899
324.784
324.678
324.58
324.49
324.408
324.332
324.263
324.2
324.142
324.09
324.042
323.999
323.96
323.925
323.893
323.865
323.84
323.818
323.798
323.78
323.765
323.752
323.741
323.732
323.724
323.717
323.712
323.708
323.706
323.704
323.703
323.704
323.705
323.707
323.71
323.713
323.717
323.722
323.727
323.733
323.74
323.747
323.754
323.762
323.771
323.78
394.721
385.13
377.185
370.821
365.716
361.548
358.062
355.077
352.463
350.132
348.021
346.085
344.292
342.618
341.046
339.561
338.155
336.818
335.545
334.33
333.171
332.063
331.003
329.99
329.022
328.096
327.212
326.368
325.562
324.794
324.062
323.365
322.702
322.073
321.476
320.91
320.374
319.867
319.388
318.936
318.51
318.11
317.733
317.38
317.049
316.739
316.449
316.178
315.926
315.691
315.473
315.27
315.082
314.909
314.748
314.6
314.463
314.337
314.222
314.116
314.019
313.931
313.85
313.777
313.71
313.65
313.596
313.546
313.502
313.463
313.428
313.397
313.369
313.345
313.324
313.305
313.29
313.276
313.265
313.256
313.249
313.244
313.24
313.238
313.237
313.237
313.239
313.242
313.246
313.25
313.256
313.263
313.27
313.278
313.287
313.297
313.308
313.319
313.331
313.343
395.632
387.334
379.934
373.557
368.117
363.456
359.414
355.86
352.689
349.821
347.198
344.775
342.518
340.403
338.41
336.524
334.734
333.03
331.405
329.855
328.372
326.955
325.6
324.303
323.064
321.878
320.745
319.663
318.631
317.646
316.708
315.814
314.965
314.158
313.392
312.666
311.979
311.329
310.714
310.135
309.589
309.075
308.592
308.139
307.714
307.317
306.945
306.598
306.274
305.973
305.692
305.432
305.191
304.968
304.762
304.572
304.396
304.235
304.087
303.951
303.827
303.714
303.61
303.516
303.431
303.353
303.283
303.221
303.164
303.113
303.068
303.028
302.993
302.962
302.934
302.911
302.891
302.874
302.859
302.848
302.839
302.832
302.827
302.824
302.823
302.823
302.825
302.829
302.834
302.84
302.847
302.856
302.865
302.876
302.887
302.9
302.913
302.927
302.943
302.958
396.133
388.639
381.669
375.373
369.76
364.767
360.307
356.293
352.647
349.307
346.219
343.346
340.655
338.121
335.725
333.452
331.29
329.229
327.262
325.382
323.583
321.862
320.216
318.64
317.132
315.69
314.312
312.995
311.738
310.539
309.396
308.309
307.274
306.291
305.358
304.474
303.636
302.844
302.096
301.39
300.724
300.098
299.51
298.957
298.439
297.955
297.501
297.078
296.684
296.316
295.975
295.658
295.364
295.092
294.841
294.609
294.395
294.198
294.018
293.852
293.701
293.563
293.436
293.322
293.218
293.123
293.038
292.961
292.892
292.83
292.775
292.726
292.683
292.645
292.612
292.583
292.559
292.538
292.521
292.506
292.495
292.487
292.481
292.477
292.476
292.476
292.479
292.483
292.489
292.496
292.505
292.515
292.527
292.54
292.554
292.569
292.585
292.602
292.621
292.64
396.422
389.419
382.743
376.524
370.806
365.575
360.789
356.397
352.345
348.587
345.08
341.792
338.695
335.766
332.987
330.343
327.823
325.416
323.115
320.914
318.806
316.788
314.855
313.005
311.234
309.539
307.919
306.37
304.892
303.482
302.137
300.857
299.639
298.482
297.384
296.343
295.357
294.424
293.543
292.711
291.928
291.19
290.497
289.847
289.237
288.666
288.132
287.633
287.169
286.736
286.334
285.96
285.614
285.293
284.997
284.724
284.472
284.241
284.028
283.833
283.654
283.491
283.343
283.207
283.085
282.974
282.873
282.783
282.701
282.628
282.564
282.506
282.455
282.41
282.371
282.337
282.308
282.283
282.263
282.246
282.233
282.223
282.216
282.211
282.21
282.21
282.213
282.218
282.225
282.233
282.244
282.256
282.269
282.284
282.3
282.318
282.337
282.358
282.379
282.402
396.589
389.874
383.375
377.197
371.392
365.971
360.918
356.206
351.801
347.671
343.785
340.116
336.641
333.339
330.196
327.198
324.333
321.592
318.968
316.454
314.045
311.736
309.524
307.404
305.375
303.432
301.574
299.797
298.101
296.482
294.939
293.469
292.071
290.742
289.481
288.284
287.152
286.08
285.067
284.112
283.212
282.364
281.567
280.82
280.119
279.462
278.849
278.276
277.741
277.244
276.782
276.352
275.954
275.586
275.245
274.931
274.641
274.375
274.131
273.906
273.701
273.514
273.343
273.187
273.046
272.918
272.803
272.699
272.605
272.521
272.447
272.38
272.322
272.27
272.225
272.186
272.152
272.124
272.1
272.081
272.066
272.054
272.046
272.041
272.039
272.039
272.042
272.048
272.055
272.065
272.077
272.091
272.106
272.123
272.142
272.162
272.184
272.207
272.232
272.258
396.677
390.115
383.702
377.523
371.628
366.037
360.752
355.759
351.042
346.578
342.345
338.324
334.495
330.844
327.355
324.018
320.823
317.76
314.823
312.007
309.305
306.713
304.227
301.845
299.562
297.376
295.284
293.284
291.373
289.55
287.811
286.154
284.578
283.08
281.658
280.309
279.031
277.822
276.68
275.603
274.587
273.631
272.732
271.888
271.097
270.357
269.664
269.018
268.415
267.853
267.331
266.847
266.398
265.982
265.598
265.243
264.916
264.615
264.339
264.086
263.854
263.643
263.45
263.274
263.115
262.971
262.84
262.722
262.617
262.522
262.438
262.363
262.297
262.238
262.187
262.143
262.105
262.073
262.046
262.024
262.007
261.994
261.984
261.979
261.976
261.977
261.98
261.986
261.994
262.005
262.018
262.034
262.051
262.07
262.091
262.114
262.138
262.164
262.192
262.221
396.714
390.21
383.814
377.595
371.596
365.842
360.344
355.098
350.096
345.327
340.775
336.426
332.267
328.285
324.469
320.809
317.297
313.925
310.686
307.576
304.59
301.723
298.971
296.332
293.801
291.378
289.057
286.838
284.717
282.692
280.761
278.921
277.17
275.506
273.925
272.426
271.006
269.662
268.393
267.194
266.065
265.002
264.002
263.064
262.184
261.361
260.59
259.871
259.201
258.576
257.996
257.457
256.957
256.494
256.067
255.672
255.308
254.974
254.667
254.385
254.127
253.892
253.677
253.482
253.304
253.144
252.998
252.867
252.75
252.645
252.551
252.467
252.393
252.328
252.271
252.222
252.18
252.144
252.114
252.09
252.07
252.055
252.045
252.038
252.035
252.035
252.039
252.046
252.055
252.067
252.081
252.098
252.117
252.138
252.161
252.186
252.213
252.242
252.272
252.304
396.715
390.203
383.771
377.477
371.359
365.442
359.74
354.257
348.993
343.94
339.091
334.436
329.966
325.672
321.545
317.577
313.761
310.091
306.562
303.168
299.906
296.772
293.761
290.872
288.101
285.444
282.901
280.467
278.14
275.918
273.799
271.779
269.856
268.028
266.292
264.646
263.086
261.609
260.214
258.898
257.656
256.488
255.389
254.358
253.391
252.485
251.639
250.848
250.111
249.424
248.786
248.193
247.644
247.135
246.665
246.231
245.831
245.463
245.125
244.815
244.532
244.273
244.037
243.822
243.626
243.45
243.29
243.146
243.016
242.901
242.797
242.705
242.624
242.552
242.49
242.435
242.389
242.349
242.316
242.289
242.267
242.251
242.239
242.231
242.228
242.228
242.232
242.239
242.249
242.262
242.277
242.296
242.316
242.339
242.364
242.391
242.421
242.452
242.485
242.52
396.69
390.121
383.614
377.217
370.965
364.88
358.979
353.271
347.758
342.439
337.31
332.367
327.604
323.013
318.59
314.328
310.221
306.265
302.456
298.789
295.26
291.866
288.605
285.472
282.466
279.583
276.822
274.178
271.65
269.236
266.932
264.736
262.646
260.657
258.769
256.977
255.28
253.674
252.155
250.722
249.371
248.099
246.904
245.781
244.728
243.742
242.82
241.959
241.156
240.409
239.713
239.068
238.47
237.915
237.403
236.931
236.495
236.094
235.726
235.389
235.08
234.798
234.54
234.306
234.093
233.901
233.727
233.57
233.429
233.302
233.189
233.089
233
232.922
232.854
232.795
232.744
232.701
232.664
232.635
232.611
232.593
232.58
232.571
232.567
232.567
232.571
232.578
232.589
232.603
232.619
232.639
232.661
232.686
232.713
232.742
232.773
232.807
232.843
232.881
396.646
389.984
383.372
376.851
370.45
364.193
358.095
352.167
346.416
340.844
335.451
330.234
325.192
320.32
315.614
311.07
306.685
302.454
298.375
294.444
290.657
287.013
283.508
280.139
276.904
273.801
270.827
267.979
265.256
262.653
260.169
257.801
255.546
253.401
251.364
249.43
247.598
245.864
244.226
242.678
241.22
239.846
238.555
237.343
236.206
235.141
234.145
233.215
232.348
231.54
230.789
230.092
229.445
228.847
228.293
227.783
227.312
226.879
226.481
226.117
225.783
225.478
225.2
224.946
224.717
224.508
224.32
224.15
223.998
223.861
223.739
223.63
223.534
223.45
223.376
223.312
223.257
223.21
223.17
223.138
223.112
223.092
223.078
223.068
223.064
223.064
223.067
223.075
223.086
223.101
223.118
223.139
223.163
223.189
223.218
223.249
223.283
223.319
223.357
223.397
396.588
389.808
383.067
376.404
369.844
363.408
357.113
350.971
344.99
339.175
333.529
328.051
322.743
317.601
312.625
307.812
303.16
298.665
294.326
290.14
286.104
282.217
278.476
274.878
271.422
268.105
264.924
261.878
258.963
256.177
253.517
250.981
248.566
246.268
244.084
242.013
240.049
238.19
236.434
234.775
233.211
231.738
230.353
229.053
227.833
226.691
225.623
224.626
223.695
222.829
222.023
221.275
220.581
219.939
219.345
218.797
218.292
217.828
217.401
217.009
216.651
216.324
216.025
215.753
215.506
215.283
215.081
214.898
214.735
214.588
214.457
214.34
214.237
214.146
214.066
213.997
213.938
213.887
213.845
213.81
213.782
213.76
213.744
213.734
213.729
213.728
213.732
213.74
213.751
213.767
213.785
213.807
213.832
213.859
213.89
213.923
213.959
213.997
214.038
214.08
396.52
389.601
382.715
375.896
369.167
362.549
356.057
349.703
343.499
337.449
331.559
325.832
320.268
314.869
309.634
304.563
299.654
294.905
290.316
285.884
281.608
277.486
273.517
269.697
266.026
262.501
259.12
255.88
252.779
249.815
246.984
244.284
241.712
239.265
236.94
234.733
232.641
230.66
228.788
227.02
225.353
223.783
222.307
220.921
219.621
218.403
217.264
216.2
215.208
214.284
213.425
212.627
211.887
211.202
210.569
209.984
209.445
208.95
208.494
208.077
207.694
207.345
207.027
206.737
206.473
206.234
206.019
205.824
205.649
205.492
205.352
205.228
205.117
205.02
204.935
204.861
204.797
204.743
204.698
204.66
204.63
204.606
204.589
204.578
204.572
204.571
204.575
204.583
204.595
204.611
204.63
204.653
204.679
204.708
204.74
204.774
204.812
204.852
204.895
204.94
396.444
389.372
382.328
375.343
368.439
361.634
354.944
348.382
341.959
335.681
329.556
323.588
317.78
312.133
306.65
301.33
296.174
291.181
286.351
281.683
277.175
272.826
268.636
264.602
260.723
256.996
253.42
249.993
246.711
243.573
240.576
237.717
234.993
232.4
229.936
227.598
225.38
223.281
221.296
219.422
217.655
215.99
214.425
212.955
211.576
210.284
209.076
207.948
206.895
205.915
205.003
204.157
203.372
202.645
201.973
201.353
200.781
200.255
199.771
199.328
198.922
198.552
198.213
197.906
197.626
197.372
197.143
196.937
196.751
196.584
196.435
196.303
196.186
196.082
195.992
195.913
195.845
195.787
195.738
195.698
195.666
195.641
195.622
195.61
195.603
195.602
195.605
195.613
195.625
195.642
195.662
195.685
195.713
195.743
195.776
195.812
195.852
195.894
195.938
195.985
396.363
389.127
381.916
374.758
367.673
360.679
353.791
347.023
340.385
333.886
327.533
321.332
315.288
309.404
303.681
298.123
292.729
287.501
282.439
277.542
272.811
268.244
263.84
259.598
255.518
251.596
247.831
244.222
240.765
237.459
234.3
231.287
228.414
225.68
223.082
220.615
218.276
216.061
213.967
211.989
210.123
208.367
206.714
205.162
203.706
202.343
201.067
199.876
198.764
197.729
196.767
195.873
195.043
194.276
193.566
192.911
192.307
191.751
191.24
190.772
190.343
189.952
189.594
189.269
188.973
188.705
188.463
188.245
188.048
187.872
187.714
187.574
187.45
187.341
187.245
187.161
187.089
187.028
186.976
186.933
186.899
186.872
186.852
186.838
186.831
186.829
186.832
186.84
186.852
186.869
186.89
186.914
186.942
186.973
187.008
187.046
187.087
187.13
187.177
187.225
396.278
388.871
381.486
374.149
366.88
359.696
352.611
345.638
338.79
332.074
325.501
319.075
312.803
306.689
300.737
294.948
289.326
283.872
278.586
273.47
268.523
263.744
259.135
254.693
250.417
246.307
242.36
238.574
234.948
231.478
228.163
224.999
221.983
219.112
216.382
213.791
211.333
209.006
206.805
204.726
202.766
200.919
199.182
197.55
196.02
194.586
193.245
191.992
190.823
189.735
188.722
187.782
186.91
186.102
185.355
184.666
184.031
183.446
182.909
182.416
181.965
181.553
181.177
180.834
180.523
180.241
179.986
179.756
179.549
179.363
179.198
179.05
178.919
178.804
178.702
178.614
178.538
178.473
178.418
178.373
178.336
178.307
178.286
178.271
178.263
178.26
178.263
178.271
178.283
178.3
178.321
178.346
178.375
178.408
178.443
178.482
178.524
178.57
178.618
178.668
396.19
388.607
381.043
373.525
366.07
358.695
351.414
344.24
337.185
330.258
323.47
316.826
310.334
303.998
297.824
291.815
285.973
280.3
274.799
269.471
264.316
259.334
254.525
249.89
245.426
241.133
237.01
233.054
229.263
225.636
222.169
218.859
215.704
212.7
209.844
207.131
204.559
202.122
199.818
197.641
195.588
193.654
191.835
190.126
188.522
187.02
185.615
184.303
183.078
181.938
180.877
179.891
178.977
178.131
177.349
176.626
175.96
175.347
174.784
174.268
173.795
173.362
172.968
172.609
172.283
171.987
171.719
171.478
171.261
171.066
170.892
170.737
170.599
170.478
170.372
170.279
170.199
170.13
170.072
170.024
169.985
169.955
169.932
169.916
169.906
169.903
169.906
169.913
169.926
169.943
169.964
169.99
170.019
170.052
170.089
170.129
170.172
170.219
170.268
170.32
396.1
388.338
380.594
372.892
365.251
357.685
350.21
342.837
335.579
328.447
321.449
314.594
307.889
301.339
294.951
288.728
282.674
276.792
271.084
265.551
260.196
255.018
250.018
245.195
240.55
236.082
231.788
227.667
223.718
219.937
216.323
212.873
209.583
206.45
203.471
200.641
197.958
195.415
193.011
190.739
188.596
186.578
184.678
182.894
181.22
179.652
178.185
176.814
175.536
174.344
173.236
172.207
171.253
170.369
169.551
168.797
168.101
167.461
166.872
166.333
165.838
165.387
164.974
164.599
164.258
163.949
163.669
163.417
163.19
162.986
162.804
162.641
162.497
162.37
162.259
162.162
162.077
162.005
161.945
161.894
161.853
161.82
161.796
161.778
161.768
161.764
161.766
161.773
161.786
161.803
161.824
161.85
161.88
161.914
161.951
161.992
162.037
162.084
162.135
162.188
396.01
388.067
380.141
372.256
364.428
356.673
349.005
341.437
333.981
326.648
319.447
312.387
305.475
298.719
292.125
285.696
279.438
273.353
267.445
261.716
256.168
250.801
245.616
240.614
235.794
231.155
226.697
222.418
218.315
214.387
210.631
207.045
203.625
200.367
197.269
194.326
191.535
188.89
186.388
184.025
181.795
179.694
177.718
175.861
174.118
172.486
170.959
169.532
168.2
166.96
165.806
164.735
163.741
162.82
161.969
161.183
160.458
159.791
159.179
158.616
158.102
157.631
157.202
156.811
156.455
156.133
155.841
155.578
155.341
155.129
154.939
154.769
154.619
154.486
154.37
154.268
154.18
154.104
154.041
153.987
153.944
153.909
153.883
153.865
153.853
153.849
153.85
153.857
153.869
153.886
153.908
153.934
153.964
153.998
154.037
154.078
154.123
154.172
154.224
154.278
395.92
387.796
379.688
371.62
363.607
355.666
347.808
340.048
332.398
324.869
317.47
310.211
303.1
296.145
289.35
282.723
276.268
269.989
263.889
257.971
252.236
246.688
241.325
236.15
231.161
226.359
221.743
217.31
213.06
208.989
205.097
201.379
197.833
194.455
191.242
188.19
185.294
182.551
179.955
177.503
175.189
173.008
170.957
169.029
167.221
165.526
163.941
162.459
161.077
159.789
158.591
157.479
156.446
155.49
154.606
153.79
153.037
152.345
151.708
151.124
150.589
150.1
149.654
149.248
148.878
148.543
148.24
147.967
147.72
147.499
147.301
147.125
146.969
146.83
146.709
146.603
146.511
146.432
146.365
146.309
146.264
146.227
146.199
146.18
146.167
146.161
146.162
146.168
146.18
146.197
146.219
146.245
146.276
146.31
146.349
146.391
146.437
146.487
146.539
146.594
395.83
387.527
379.239
370.989
362.793
354.667
346.623
338.676
330.836
323.116
315.525
308.073
300.769
293.621
286.634
279.816
273.171
266.705
260.419
254.319
248.406
242.683
237.149
231.807
226.656
221.697
216.928
212.347
207.955
203.747
199.723
195.879
192.211
188.718
185.394
182.236
179.24
176.4
173.714
171.176
168.781
166.524
164.4
162.404
160.532
158.777
157.135
155.601
154.17
152.836
151.595
150.443
149.373
148.383
147.467
146.622
145.842
145.124
144.464
143.859
143.305
142.798
142.336
141.915
141.532
141.184
140.87
140.586
140.331
140.101
139.896
139.713
139.55
139.407
139.28
139.17
139.074
138.992
138.922
138.864
138.816
138.778
138.748
138.727
138.713
138.707
138.706
138.712
138.724
138.74
138.762
138.788
138.819
138.854
138.893
138.935
138.982
139.032
139.085
139.141
395.741
387.26
378.794
370.365
361.989
353.682
345.456
337.324
329.3
321.394
313.617
305.978
298.488
291.153
283.981
276.978
270.151
263.504
257.041
250.766
244.681
238.789
233.091
227.589
222.282
217.171
212.255
207.533
203.004
198.664
194.513
190.547
186.763
183.157
179.727
176.467
173.374
170.443
167.669
165.048
162.574
160.243
158.05
155.988
154.054
152.241
150.545
148.96
147.481
146.103
144.821
143.63
142.525
141.501
140.555
139.681
138.875
138.133
137.451
136.825
136.252
135.728
135.25
134.814
134.418
134.059
133.734
133.44
133.176
132.938
132.726
132.536
132.368
132.219
132.088
131.973
131.874
131.788
131.715
131.654
131.604
131.564
131.533
131.51
131.495
131.488
131.487
131.492
131.503
131.519
131.54
131.566
131.597
131.632
131.671
131.714
131.761
131.811
131.865
131.922
395.654
386.998
378.356
369.751
361.199
352.714
344.309
335.999
327.795
319.708
311.75
303.931
296.26
288.745
281.395
274.215
267.212
260.391
253.757
247.313
241.064
235.01
229.155
223.498
218.042
212.785
207.728
202.87
198.209
193.743
189.469
185.386
181.489
177.776
174.243
170.885
167.699
164.679
161.821
159.12
156.571
154.169
151.908
149.784
147.79
145.921
144.173
142.539
141.014
139.593
138.271
137.043
135.903
134.848
133.872
132.97
132.139
131.373
130.67
130.025
129.433
128.893
128.399
127.95
127.541
127.17
126.834
126.531
126.258
126.013
125.793
125.597
125.423
125.269
125.133
125.015
124.911
124.823
124.747
124.683
124.631
124.589
124.556
124.532
124.516
124.507
124.505
124.509
124.52
124.535
124.556
124.582
124.613
124.648
124.687
124.73
124.777
124.828
124.882
124.939
395.568
386.74
377.926
369.149
360.424
351.766
343.187
334.703
326.324
318.062
309.929
301.935
294.09
286.402
278.879
271.528
264.357
257.369
250.571
243.966
237.557
231.349
225.342
219.537
213.937
208.541
203.349
198.36
193.572
188.984
184.593
180.398
176.393
172.577
168.945
165.493
162.217
159.112
156.173
153.396
150.774
148.303
145.978
143.792
141.741
139.819
138.019
136.338
134.769
133.307
131.947
130.683
129.51
128.424
127.419
126.491
125.635
124.848
124.123
123.459
122.85
122.293
121.785
121.322
120.901
120.519
120.173
119.861
119.579
119.327
119.1
118.898
118.718
118.559
118.419
118.296
118.189
118.097
118.019
117.953
117.898
117.854
117.819
117.793
117.776
117.766
117.763
117.767
117.776
117.791
117.812
117.838
117.868
117.903
117.942
117.985
118.032
118.083
118.137
118.194
395.484
386.488
377.506
368.561
359.667
350.84
342.093
333.439
324.89
316.459
308.157
299.995
291.981
284.126
276.437
268.923
261.588
254.441
247.484
240.724
234.164
227.807
221.654
215.709
209.971
204.441
199.119
194.004
189.095
184.39
179.887
175.583
171.475
167.56
163.833
160.291
156.929
153.742
150.726
147.874
145.183
142.646
140.259
138.015
135.908
133.934
132.087
130.36
128.748
127.247
125.849
124.551
123.346
122.23
121.198
120.245
119.365
118.556
117.812
117.129
116.503
115.931
115.409
114.933
114.5
114.107
113.751
113.43
113.14
112.88
112.647
112.439
112.254
112.09
111.945
111.818
111.708
111.613
111.531
111.463
111.406
111.36
111.323
111.296
111.277
111.266
111.262
111.265
111.274
111.288
111.308
111.333
111.363
111.398
111.436
111.479
111.526
111.577
111.631
111.689
395.402
386.243
377.097
367.988
358.93
349.939
341.028
332.209
323.497
314.902
306.437
298.111
289.936
281.92
274.072
266.4
258.909
251.608
244.501
237.592
230.886
224.386
218.094
212.013
206.143
200.485
195.039
189.804
184.778
179.962
175.351
170.944
166.737
162.726
158.909
155.28
151.835
148.57
145.479
142.557
139.799
137.199
134.752
132.451
130.292
128.268
126.374
124.604
122.952
121.412
119.979
118.648
117.412
116.268
115.209
114.231
113.33
112.499
111.736
111.035
110.393
109.806
109.27
108.782
108.338
107.934
107.569
107.239
106.942
106.674
106.435
106.221
106.03
105.861
105.712
105.582
105.468
105.37
105.286
105.215
105.155
105.107
105.069
105.04
105.02
105.008
105.002
105.004
105.012
105.026
105.045
105.07
105.099
105.133
105.171
105.214
105.261
105.311
105.366
105.423
395.323
386.004
376.7
367.431
358.215
349.064
339.994
331.017
322.146
313.393
304.77
296.288
287.957
279.787
271.785
263.961
256.322
248.873
241.621
234.57
227.724
221.088
214.663
208.451
202.455
196.674
191.109
185.759
180.623
175.699
170.986
166.479
162.177
158.076
154.172
150.46
146.936
143.596
140.433
137.444
134.621
131.961
129.457
127.102
124.893
122.821
120.882
119.07
117.379
115.803
114.336
112.973
111.708
110.536
109.452
108.451
107.527
106.677
105.895
105.177
104.52
103.918
103.369
102.869
102.413
102
101.626
101.287
100.982
100.708
100.462
100.243
100.047
99.8737
99.7206
99.5863
99.4692
99.3678
99.2809
99.2073
99.1459
99.0957
99.0558
99.0253
99.0036
98.9899
98.9837
98.9843
98.9913
99.0043
99.0229
99.0466
99.0754
99.1088
99.1467
99.1888
99.2351
99.2854
99.3394
99.3961
395.246
385.773
376.314
366.892
357.521
348.217
338.993
329.863
320.839
311.934
303.159
294.526
286.046
277.727
269.579
261.61
253.827
246.237
238.846
231.658
224.679
217.912
211.36
205.025
198.908
193.01
187.331
181.871
176.629
171.602
166.79
162.189
157.796
153.608
149.621
145.83
142.23
138.818
135.587
132.533
129.65
126.931
124.372
121.967
119.708
117.591
115.61
113.757
112.029
110.417
108.918
107.525
106.231
105.033
103.925
102.901
101.957
101.087
100.288
99.554
98.8816
98.2664
97.7046
97.1926
96.7267
96.3038
95.9206
95.5743
95.262
94.9811
94.7292
94.5041
94.3035
94.1256
93.9685
93.8305
93.71
93.6057
93.5161
93.44
93.3764
93.3242
93.2825
93.2504
93.2272
93.2122
93.2047
93.2042
93.2102
93.2223
93.24
93.263
93.291
93.3237
93.3609
93.4025
93.4483
93.4981
93.5516
93.608
395.171
385.55
375.942
366.371
356.851
347.399
338.027
328.749
319.577
310.526
301.605
292.828
284.204
275.742
267.453
259.345
251.425
243.7
236.176
228.859
221.752
214.861
208.187
201.733
195.5
189.49
183.703
178.138
172.795
167.671
162.765
158.073
153.594
149.323
145.256
141.389
137.718
134.237
130.941
127.825
124.883
122.109
119.498
117.043
114.738
112.577
110.555
108.664
106.9
105.255
103.725
102.302
100.982
99.7588
98.6272
97.5819
96.6176
95.7297
94.9132
94.1638
93.4769
92.8486
92.2747
91.7516
91.2756
90.8434
90.4518
90.0977
89.7784
89.4911
89.2334
89.003
88.7977
88.6154
88.4544
88.3128
88.1891
88.0818
87.9895
87.911
87.8452
87.791
87.7475
87.7138
87.689
87.6726
87.6638
87.6622
87.6671
87.6781
87.6949
87.717
87.7442
87.7762
87.8127
87.8536
87.8987
87.9478
88.0008
88.0566
395.099
385.334
375.583
365.868
356.206
346.61
337.095
327.675
318.362
309.17
300.11
291.193
282.431
273.834
265.41
257.169
249.117
241.263
233.613
226.171
218.943
211.932
205.142
198.575
192.233
186.116
180.225
174.56
169.12
163.903
158.907
154.13
149.568
145.217
141.075
137.136
133.396
129.849
126.491
123.316
120.318
117.492
114.83
112.328
109.98
107.778
105.716
103.789
101.99
100.314
98.7532
97.3029
95.9571
94.71
93.5561
92.4901
91.5069
90.6013
89.7687
89.0043
88.3037
87.6627
87.0773
86.5435
86.0578
85.6167
85.217
84.8555
84.5294
84.236
83.9727
83.7372
83.5272
83.3408
83.1759
83.0308
82.904
82.7938
82.6989
82.618
82.5501
82.4939
82.4485
82.4131
82.3868
82.369
82.3589
82.356
82.3598
82.3697
82.3855
82.4067
82.4329
82.464
82.4997
82.5398
82.5841
82.6325
82.6847
82.7398
395.03
385.126
375.237
365.384
355.584
345.851
336.199
326.643
317.194
307.867
298.672
289.623
280.729
272.001
263.449
255.08
246.904
238.927
231.155
223.595
216.251
209.127
202.226
195.551
189.104
182.886
176.896
171.136
165.604
160.298
155.217
150.357
145.717
141.291
137.076
133.069
129.263
125.654
122.237
119.005
115.954
113.077
110.369
107.822
105.431
103.189
101.09
99.1286
97.2972
95.5901
94.0012
92.5245
91.154
89.884
88.7089
87.6233
86.6219
85.6996
84.8514
84.0727
83.359
82.7059
82.1094
81.5655
81.0705
80.6209
80.2134
79.8448
79.5122
79.2129
78.9442
78.7038
78.4893
78.2988
78.1302
77.9818
77.8518
77.7388
77.6414
77.5582
77.4881
77.4299
77.3827
77.3456
77.3178
77.2985
77.287
77.2829
77.2854
77.2942
77.3089
77.329
77.3543
77.3844
77.4191
77.4583
77.5017
77.5492
77.6006
77.6549
394.964
384.927
374.905
364.92
354.987
345.123
335.34
325.652
316.073
306.617
297.294
288.118
279.098
270.246
261.57
253.08
244.785
236.69
228.803
221.13
213.675
206.443
199.437
192.659
186.113
179.797
173.715
167.864
162.244
156.854
151.691
146.754
142.038
137.541
133.258
129.185
125.316
121.648
118.174
114.89
111.788
108.863
106.109
103.52
101.088
98.809
96.675
94.68
92.8175
91.0815
89.4655
87.9635
86.5696
85.2778
84.0825
82.9782
81.9594
81.021
80.1581
79.3658
78.6395
77.9749
77.3678
76.8142
76.3103
75.8526
75.4376
75.0622
74.7234
74.4184
74.1445
73.8994
73.6806
73.4862
73.314
73.1623
73.0293
72.9136
72.8136
72.7281
72.6558
72.5957
72.5467
72.5079
72.4785
72.4577
72.4449
72.4394
72.4407
72.4483
72.4618
72.4808
72.505
72.534
72.5678
72.6059
72.6483
72.6949
72.7453
72.7986
394.9
384.736
374.587
364.475
354.416
344.425
334.516
324.703
315
305.42
295.975
286.677
277.537
268.566
259.773
251.168
242.758
234.552
226.555
218.775
211.215
203.88
196.774
189.899
183.257
176.85
170.678
164.741
159.038
153.568
148.328
143.316
138.53
133.964
129.616
125.481
121.553
117.829
114.301
110.966
107.816
104.846
102.049
99.4187
96.9493
94.634
92.4663
90.4397
88.5478
86.7841
85.1423
83.6164
82.2001
80.8876
79.6731
78.5509
77.5156
76.562
75.685
74.8797
74.1415
73.4659
72.8487
72.2858
71.7734
71.3079
70.8858
70.5039
70.1591
69.8487
69.5698
69.3201
69.0972
68.899
68.7233
68.5684
68.4326
68.3141
68.2117
68.1239
68.0496
67.9875
67.9367
67.8962
67.8652
67.8429
67.8286
67.8218
67.8218
67.8281
67.8404
67.8582
67.8812
67.9092
67.9418
67.9788
68.0201
68.0656
68.115
68.1672
394.839
384.554
374.283
364.049
353.869
343.757
333.728
323.796
313.974
304.276
294.714
285.301
276.046
266.962
258.057
249.342
240.824
232.512
224.411
216.528
208.868
201.436
194.234
187.267
180.535
174.041
167.785
161.766
155.984
150.437
145.125
140.043
135.188
130.558
126.148
121.954
117.97
114.192
110.614
107.23
104.035
101.021
98.1834
95.515
93.0094
90.6601
88.4604
86.4038
84.4838
82.6939
81.0278
79.479
78.0415
76.7093
75.4765
74.3373
73.2863
72.3182
71.4278
70.6102
69.8606
69.1745
68.5477
67.976
67.4555
66.9825
66.5536
66.1655
65.815
65.4993
65.2157
64.9617
64.7348
64.5329
64.3539
64.1959
64.0572
63.9362
63.8314
63.7413
63.6649
63.6009
63.5483
63.5061
63.4735
63.4497
63.4339
63.4257
63.4243
63.4294
63.4404
63.457
63.4788
63.5055
63.5369
63.5728
63.6129
63.6572
63.7054
63.7565
394.781
384.379
373.992
363.642
353.347
343.12
332.977
322.93
312.996
303.185
293.512
283.988
274.625
265.433
256.422
247.602
238.982
230.568
222.368
214.388
206.634
199.109
191.817
184.762
177.945
171.368
165.031
158.935
153.078
147.46
142.078
136.929
132.011
127.32
122.851
118.601
114.564
110.735
107.109
103.679
100.44
97.3859
94.5095
91.8046
89.2646
86.883
84.653
82.568
80.6214
78.8067
77.1173
75.5469
74.0893
72.7383
71.4881
70.3329
69.267
68.2851
67.382
66.5526
65.7922
65.0962
64.4602
63.88
63.3518
62.8718
62.4364
62.0423
61.6864
61.3658
61.0776
60.8193
60.5886
60.3832
60.2009
60.04
59.8985
59.775
59.6678
59.5756
59.4971
59.4312
59.3768
59.3329
59.2987
59.2733
59.2562
59.2465
59.2438
59.2475
59.2572
59.2724
59.293
59.3184
59.3486
59.3832
59.4221
59.4651
59.5121
59.5619
394.725
384.213
373.715
363.255
352.849
342.513
332.26
322.106
312.063
302.146
292.367
282.738
273.272
263.977
254.866
245.947
237.229
228.719
220.426
212.354
204.509
196.897
189.52