/*--------------------------------*- C++ -*----------------------------------*\
  =========                 |
  \\      /  F ield         | OpenFOAM: The Open Source CFD Toolbox
   \\    /   O peration     | Website:  https://openfoam.org
    \\  /    A nd           | Version:  10
     \\/     M anipulation  |
\*---------------------------------------------------------------------------*/
FoamFile
{
    format      ascii;
    class       volScalarField;
    location    "1.5";
    object      T_0;
}
// * * * * * * * * * * * * * * * * * * * * * * * * * * * * * * * * * * * * * //

dimensions      [0 0 -1 0 0 0 0];

internalField   nonuniform List<scalar> 
100
(
-0.0545639
-0.161758
-0.263221
-0.355359
-0.434909
-0.499052
-0.545516
-0.572655
-0.579507
-0.565829
-0.532107
-0.479535
-0.409975
-0.325892
-0.230263
-0.126478
-0.0182115
0.0906999
0.196398
0.295139
0.383424
0.458127
0.5166
0.556772
0.57722
0.57722
0.556772
0.5166
0.458126
0.383424
0.295139
0.196398
0.0906993
-0.0182122
-0.126478
-0.230264
-0.325893
-0.409976
-0.479536
-0.532108
-0.56583
-0.579507
-0.572655
-0.545516
-0.499052
-0.434909
-0.355359
-0.26322
-0.161757
-0.0545628
0.054564
0.161758
0.263221
0.35536
0.43491
0.499053
0.545517
0.572655
0.579507
0.56583
0.532108
0.479535
0.409975
0.325892
0.230263
0.126477
0.0182109
-0.0907005
-0.196399
-0.29514
-0.383425
-0.458127
-0.5166
-0.556772
-0.57722
-0.57722
-0.556772
-0.516599
-0.458126
-0.383423
-0.295138
-0.196397
-0.0906987
0.0182127
0.126479
0.230264
0.325893
0.409976
0.479536
0.532108
0.56583
0.579507
0.572654
0.545516
0.499052
0.434908
0.355359
0.26322
0.161756
0.0545628
)
;

boundaryField
{
    inlet
    {
        type            cyclic;
    }
    outlet
    {
        type            cyclic;
    }
    bottom
    {
        type            slip;
    }
    top
    {
        type            slip;
    }
    frontAndBack
    {
        type            empty;
    }
}


// ************************************************************************* //
