/*--------------------------------*- C++ -*----------------------------------*\
  =========                 |
  \\      /  F ield         | OpenFOAM: The Open Source CFD Toolbox
   \\    /   O peration     | Website:  https://openfoam.org
    \\  /    A nd           | Version:  10
     \\/     M anipulation  |
\*---------------------------------------------------------------------------*/
FoamFile
{
    format      ascii;
    class       volScalarField;
    location    "0.1";
    object      T_0;
}
// * * * * * * * * * * * * * * * * * * * * * * * * * * * * * * * * * * * * * //

dimensions      [0 0 -1 0 0 0 0];

internalField   nonuniform List<scalar> 
100
(
0.0160758
0.0476578
0.0775516
0.104698
0.128135
0.147033
0.160722
0.168717
0.170736
0.166706
0.156771
0.141282
0.120788
0.0960151
0.0678407
0.0372634
0.00536552
-0.0267222
-0.0578633
-0.0869546
-0.112965
-0.134974
-0.152202
-0.164037
-0.170062
-0.170062
-0.164037
-0.152202
-0.134974
-0.112965
-0.0869545
-0.0578633
-0.026722
0.00536568
0.0372634
0.0678409
0.0960152
0.120788
0.141282
0.156771
0.166706
0.170736
0.168717
0.160721
0.147032
0.128134
0.104697
0.0775506
0.047657
0.0160753
-0.0160758
-0.0476577
-0.077551
-0.104697
-0.128134
-0.147032
-0.160721
-0.168717
-0.170736
-0.166706
-0.156771
-0.141282
-0.120788
-0.096015
-0.0678408
-0.0372632
-0.0053653
0.0267223
0.0578635
0.0869548
0.112966
0.134974
0.152202
0.164037
0.170062
0.170062
0.164037
0.152202
0.134974
0.112965
0.0869542
0.0578629
0.0267218
-0.00536585
-0.0372636
-0.0678411
-0.0960153
-0.120788
-0.141282
-0.156771
-0.166706
-0.170736
-0.168717
-0.160722
-0.147033
-0.128135
-0.104697
-0.0775511
-0.0476575
-0.0160754
)
;

boundaryField
{
    inlet
    {
        type            cyclic;
    }
    outlet
    {
        type            cyclic;
    }
    bottom
    {
        type            slip;
    }
    top
    {
        type            slip;
    }
    frontAndBack
    {
        type            empty;
    }
}


// ************************************************************************* //
