/*--------------------------------*- C++ -*----------------------------------*\
| =========                 |                                                 |
| \\      /  F ield         | OpenFOAM: The Open Source CFD Toolbox           |
|  \\    /   O peration     | Version:  2406                                  |
|   \\  /    A nd           | Website:  www.openfoam.com                      |
|    \\/     M anipulation  |                                                 |
\*---------------------------------------------------------------------------*/
FoamFile
{
    version     2.0;
    format      ascii;
    arch        "LSB;label=32;scalar=64";
    class       volScalarField;
    location    "18.25";
    object      p;
}
// * * * * * * * * * * * * * * * * * * * * * * * * * * * * * * * * * * * * * //

dimensions      [0 2 -2 0 0 0 0];

internalField   nonuniform List<scalar> 
34560
(
-42.446006
-42.437248
-42.426866
-42.416552
-42.407205
-42.401138
-42.39937
-42.400679
-42.404747
-42.50948
-42.499239
-42.486673
-42.473449
-42.460609
-42.450837
-42.444438
-42.442098
-42.443872
-42.567183
-42.555872
-42.541919
-42.527032
-42.512085
-42.499469
-42.489299
-42.483435
-42.482031
-42.622574
-42.610302
-42.595074
-42.578676
-42.561892
-42.546561
-42.532981
-42.523487
-42.518356
-42.674734
-42.661649
-42.645342
-42.627686
-42.60936
-42.591246
-42.574537
-42.561424
-42.552381
-42.721566
-42.708017
-42.691043
-42.6725
-42.652774
-42.632281
-42.612978
-42.596457
-42.583612
-42.763527
-42.749558
-42.732002
-42.712704
-42.691721
-42.669226
-42.647527
-42.627868
-42.61149
-42.79964
-42.785373
-42.767398
-42.747539
-42.725495
-42.701308
-42.677464
-42.655042
-42.635525
-42.829305
-42.814839
-42.796578
-42.77633
-42.753412
-42.727828
-42.702173
-42.677442
-42.655285
-42.851877
-42.837311
-42.81889
-42.798409
-42.774799
-42.748167
-42.721113
-42.694602
-42.670392
-42.867121
-42.852466
-42.833926
-42.813262
-42.789092
-42.761886
-42.733909
-42.706199
-42.680591
-42.874821
-42.860133
-42.841529
-42.820736
-42.796285
-42.768782
-42.740324
-42.711997
-42.685672
-42.874822
-42.860133
-42.841529
-42.820737
-42.796285
-42.768782
-42.740324
-42.711997
-42.685672
-42.867122
-42.852467
-42.833926
-42.813262
-42.789093
-42.761887
-42.733909
-42.706198
-42.680591
-42.851877
-42.837311
-42.818891
-42.79841
-42.774799
-42.748168
-42.721113
-42.694602
-42.670393
-42.829305
-42.81484
-42.796578
-42.776331
-42.753413
-42.727829
-42.702174
-42.677443
-42.655285
-42.79964
-42.785373
-42.767398
-42.747539
-42.725496
-42.70131
-42.677466
-42.655043
-42.635526
-42.763527
-42.749558
-42.732003
-42.712705
-42.691723
-42.669228
-42.647528
-42.62787
-42.611491
-42.721569
-42.708019
-42.691044
-42.672502
-42.652775
-42.632282
-42.61298
-42.596459
-42.583613
-42.674735
-42.66165
-42.645342
-42.627686
-42.609361
-42.591248
-42.574539
-42.561425
-42.552382
-42.622576
-42.610304
-42.595076
-42.578678
-42.561893
-42.546562
-42.532982
-42.523488
-42.518358
-42.567185
-42.555874
-42.541921
-42.527033
-42.512085
-42.499468
-42.489299
-42.483436
-42.482033
-42.509481
-42.49924
-42.486673
-42.473449
-42.460608
-42.450835
-42.444437
-42.442098
-42.443874
-42.446007
-42.43725
-42.426867
-42.416553
-42.407204
-42.401137
-42.399369
-42.400678
-42.404749
-39.672926
-39.672083
-39.67111
-39.670282
-39.669582
-39.668733
-39.6675
-39.665937
-39.662866
-39.679333
-39.678383
-39.677214
-39.676034
-39.674701
-39.672787
-39.670801
-39.668076
-39.663708
-39.685413
-39.684368
-39.683078
-39.681745
-39.680084
-39.677651
-39.675169
-39.670894
-39.664868
-39.691544
-39.690411
-39.68898
-39.68742
-39.685316
-39.682394
-39.679227
-39.673363
-39.665615
-39.697386
-39.696191
-39.694637
-39.692814
-39.690117
-39.686752
-39.682827
-39.67547
-39.666194
-39.702686
-39.701486
-39.699871
-39.697882
-39.694892
-39.691202
-39.686074
-39.677305
-39.666723
-39.707451
-39.706246
-39.704574
-39.702422
-39.69923
-39.695355
-39.688894
-39.678869
-39.667208
-39.711465
-39.710266
-39.708546
-39.706232
-39.702852
-39.698688
-39.691203
-39.680158
-39.667639
-39.714648
-39.713466
-39.711709
-39.709228
-39.705688
-39.701268
-39.693018
-39.681182
-39.668009
-39.716991
-39.715833
-39.71405
-39.711414
-39.707772
-39.703164
-39.694361
-39.68195
-39.668304
-39.718558
-39.717415
-39.715615
-39.712897
-39.709255
-39.704431
-39.695253
-39.682467
-39.668514
-39.719391
-39.718251
-39.716445
-39.7137
-39.710018
-39.705087
-39.695723
-39.682749
-39.668641
-39.719392
-39.718252
-39.716445
-39.7137
-39.710018
-39.705087
-39.695723
-39.682749
-39.668641
-39.718559
-39.717415
-39.715616
-39.712898
-39.709256
-39.704432
-39.695254
-39.682468
-39.668515
-39.716992
-39.715834
-39.714051
-39.711415
-39.707774
-39.703165
-39.694363
-39.681952
-39.668305
-39.71465
-39.713468
-39.711711
-39.70923
-39.70569
-39.70127
-39.69302
-39.681184
-39.668011
-39.711467
-39.710268
-39.708548
-39.706234
-39.702854
-39.69869
-39.691205
-39.68016
-39.667641
-39.707454
-39.706248
-39.704577
-39.702425
-39.699233
-39.695357
-39.688897
-39.678872
-39.66721
-39.702689
-39.701489
-39.699874
-39.697885
-39.694895
-39.691206
-39.686077
-39.677309
-39.666726
-39.697389
-39.696194
-39.69464
-39.692817
-39.69012
-39.686756
-39.682831
-39.675474
-39.666198
-39.691548
-39.690416
-39.688984
-39.687424
-39.68532
-39.682398
-39.679231
-39.673367
-39.665619
-39.685417
-39.684372
-39.683082
-39.681749
-39.680089
-39.677656
-39.675174
-39.670899
-39.664873
-39.679338
-39.678388
-39.677219
-39.676039
-39.674706
-39.672792
-39.670806
-39.668081
-39.663714
-39.672931
-39.672088
-39.671116
-39.670287
-39.669587
-39.668738
-39.667505
-39.665943
-39.662873
-38.353934
-38.353779
-38.353539
-38.353152
-38.352761
-38.352573
-38.352746
-38.352954
-38.352603
-38.359267
-38.359052
-38.358664
-38.357986
-38.357158
-38.356429
-38.355961
-38.355022
-38.353941
-38.364039
-38.363783
-38.363313
-38.362471
-38.361389
-38.360273
-38.359067
-38.357546
-38.356012
-38.368324
-38.368025
-38.367474
-38.36649
-38.365202
-38.3638
-38.361889
-38.359772
-38.357704
-38.372158
-38.371829
-38.371208
-38.370087
-38.36861
-38.367031
-38.364318
-38.361581
-38.359045
-38.375458
-38.375112
-38.374441
-38.373201
-38.371514
-38.369584
-38.366316
-38.363032
-38.360111
-38.378233
-38.377872
-38.377153
-38.375803
-38.373877
-38.371391
-38.367876
-38.364145
-38.360929
-38.380523
-38.380152
-38.379393
-38.377946
-38.375828
-38.372958
-38.369091
-38.364968
-38.361535
-38.382333
-38.381956
-38.381166
-38.379641
-38.377361
-38.37407
-38.369974
-38.365553
-38.361958
-38.383687
-38.383306
-38.382495
-38.380917
-38.378537
-38.374919
-38.37059
-38.365941
-38.362235
-38.384602
-38.384217
-38.383388
-38.381778
-38.379354
-38.375485
-38.370972
-38.366167
-38.362395
-38.385062
-38.384677
-38.38384
-38.382215
-38.379782
-38.375767
-38.371153
-38.366268
-38.362465
-38.385062
-38.384677
-38.38384
-38.382216
-38.379782
-38.375768
-38.371153
-38.366269
-38.362465
-38.384603
-38.384218
-38.383389
-38.381779
-38.379355
-38.375486
-38.370973
-38.366168
-38.362396
-38.383688
-38.383308
-38.382496
-38.380919
-38.378539
-38.374921
-38.370592
-38.365943
-38.362237
-38.382335
-38.381958
-38.381168
-38.379644
-38.377364
-38.374072
-38.369976
-38.365556
-38.361961
-38.380526
-38.380155
-38.379396
-38.377949
-38.375831
-38.372961
-38.369094
-38.364972
-38.361539
-38.378237
-38.377877
-38.377157
-38.375807
-38.373881
-38.371394
-38.36788
-38.364149
-38.360934
-38.375462
-38.375117
-38.374445
-38.373205
-38.371519
-38.369589
-38.366321
-38.363037
-38.360116
-38.372164
-38.371834
-38.371214
-38.370093
-38.368616
-38.367037
-38.364324
-38.361586
-38.359051
-38.36833
-38.368032
-38.367481
-38.366496
-38.365208
-38.363806
-38.361895
-38.359778
-38.35771
-38.364046
-38.36379
-38.36332
-38.362479
-38.361397
-38.36028
-38.359074
-38.357553
-38.356018
-38.359274
-38.359059
-38.358672
-38.357994
-38.357166
-38.356437
-38.355969
-38.355029
-38.353948
-38.353942
-38.353787
-38.353547
-38.35316
-38.35277
-38.352582
-38.352754
-38.352963
-38.352611
-36.400414
-36.400297
-36.400214
-36.400258
-36.40046
-36.400763
-36.401102
-36.401339
-36.401083
-36.402913
-36.402753
-36.402597
-36.40252
-36.402528
-36.402567
-36.40252
-36.402318
-36.401738
-36.405629
-36.405424
-36.405216
-36.405083
-36.405022
-36.404959
-36.404769
-36.404374
-36.403619
-36.408327
-36.408075
-36.407813
-36.407632
-36.407526
-36.407411
-36.407151
-36.40659
-36.405531
-36.41092
-36.410628
-36.41032
-36.410092
-36.409938
-36.409767
-36.409435
-36.408708
-36.407316
-36.413286
-36.41297
-36.412634
-36.412383
-36.412207
-36.412
-36.411605
-36.410727
-36.408997
-36.415386
-36.415053
-36.414699
-36.414436
-36.414252
-36.414014
-36.413598
-36.412597
-36.410535
-36.41719
-36.416846
-36.416482
-36.416217
-36.41603
-36.415744
-36.415362
-36.414253
-36.41188
-36.418676
-36.418326
-36.417959
-36.417698
-36.417536
-36.41733
-36.416865
-36.415638
-36.413003
-36.419812
-36.419459
-36.419093
-36.418839
-36.418694
-36.418528
-36.418032
-36.416712
-36.413874
-36.420581
-36.420227
-36.419862
-36.419614
-36.419482
-36.419338
-36.418826
-36.417444
-36.414468
-36.420967
-36.420613
-36.420249
-36.420003
-36.419878
-36.419744
-36.419229
-36.417816
-36.41477
-36.420967
-36.420614
-36.420249
-36.420004
-36.419878
-36.419744
-36.419229
-36.417816
-36.414771
-36.420582
-36.420229
-36.419863
-36.419615
-36.419483
-36.419339
-36.418828
-36.417445
-36.414469
-36.419814
-36.419461
-36.419095
-36.418841
-36.418696
-36.41853
-36.418034
-36.416714
-36.413876
-36.418679
-36.418329
-36.417962
-36.417701
-36.417539
-36.417332
-36.416868
-36.415641
-36.413006
-36.417194
-36.41685
-36.416486
-36.41622
-36.416034
-36.415748
-36.415366
-36.414257
-36.411884
-36.415391
-36.415057
-36.414704
-36.41444
-36.414257
-36.414018
-36.413602
-36.412602
-36.410539
-36.413291
-36.412975
-36.41264
-36.412388
-36.412213
-36.412005
-36.411611
-36.410732
-36.409003
-36.410926
-36.410634
-36.410326
-36.410099
-36.409944
-36.409773
-36.409441
-36.408714
-36.407322
-36.408334
-36.408081
-36.407819
-36.407639
-36.407533
-36.407418
-36.407158
-36.406597
-36.405537
-36.405637
-36.405432
-36.405223
-36.405091
-36.405029
-36.404967
-36.404777
-36.404381
-36.403626
-36.402921
-36.402762
-36.402605
-36.402529
-36.402537
-36.402576
-36.402528
-36.402326
-36.401745
-36.400423
-36.400307
-36.400223
-36.400268
-36.400469
-36.400773
-36.401111
-36.401348
-36.40109
-34.649364
-34.64943
-34.649515
-34.649612
-34.649728
-34.649868
-34.650017
-34.650119
-34.649898
-34.65039
-34.650441
-34.650489
-34.650511
-34.650506
-34.650466
-34.650356
-34.6501
-34.649618
-34.651491
-34.651525
-34.651545
-34.651522
-34.65145
-34.651317
-34.651084
-34.650681
-34.650165
-34.652452
-34.652469
-34.652465
-34.652411
-34.652301
-34.652114
-34.651794
-34.651288
-34.650701
-34.653263
-34.653269
-34.653248
-34.653168
-34.653024
-34.65278
-34.652364
-34.651749
-34.651082
-34.653976
-34.653975
-34.65394
-34.653837
-34.653654
-34.653346
-34.652834
-34.652114
-34.651371
-34.654574
-34.654566
-34.654519
-34.654396
-34.654178
-34.653813
-34.653215
-34.652411
-34.651603
-34.655065
-34.655051
-34.654993
-34.654851
-34.654602
-34.654188
-34.653519
-34.652649
-34.651781
-34.655445
-34.655427
-34.655361
-34.655204
-34.65493
-34.654476
-34.65375
-34.652829
-34.651909
-34.655725
-34.655703
-34.65563
-34.655462
-34.655171
-34.654684
-34.653916
-34.652958
-34.651995
-34.655913
-34.655886
-34.655808
-34.655632
-34.655328
-34.654817
-34.654023
-34.65304
-34.652047
-34.656
-34.655973
-34.655893
-34.655714
-34.655404
-34.654884
-34.654075
-34.653079
-34.652071
-34.656001
-34.655974
-34.655894
-34.655714
-34.655404
-34.654884
-34.654076
-34.65308
-34.652072
-34.655914
-34.655888
-34.655809
-34.655633
-34.655329
-34.654819
-34.654025
-34.653042
-34.652049
-34.655728
-34.655705
-34.655632
-34.655464
-34.655173
-34.654686
-34.653919
-34.65296
-34.651998
-34.655448
-34.65543
-34.655364
-34.655207
-34.654934
-34.654479
-34.653753
-34.652832
-34.651913
-34.655069
-34.655055
-34.654998
-34.654856
-34.654606
-34.654192
-34.653523
-34.652653
-34.651785
-34.65458
-34.654571
-34.654524
-34.654402
-34.654183
-34.653818
-34.653221
-34.652417
-34.651608
-34.653982
-34.653981
-34.653946
-34.653843
-34.65366
-34.653352
-34.65284
-34.65212
-34.651378
-34.65327
-34.653277
-34.653255
-34.653176
-34.653031
-34.652787
-34.652372
-34.651756
-34.651089
-34.65246
-34.652477
-34.652473
-34.652419
-34.652309
-34.652122
-34.651802
-34.651296
-34.650709
-34.6515
-34.651534
-34.651553
-34.651531
-34.651459
-34.651326
-34.651093
-34.65069
-34.650175
-34.6504
-34.650451
-34.650498
-34.650521
-34.650516
-34.650476
-34.650365
-34.65011
-34.649628
-34.649375
-34.649441
-34.649526
-34.649622
-34.649739
-34.649879
-34.650028
-34.65013
-34.649909
-32.862147
-32.86219
-32.862256
-32.862351
-32.86248
-32.862636
-32.862814
-32.862998
-32.863034
-32.86288
-32.862916
-32.862966
-32.863028
-32.863098
-32.863163
-32.863203
-32.86318
-32.863064
-32.863717
-32.863748
-32.863787
-32.86383
-32.863868
-32.863882
-32.863849
-32.863756
-32.863634
-32.864513
-32.864534
-32.864561
-32.86459
-32.864611
-32.864603
-32.864535
-32.8644
-32.864242
-32.865262
-32.865272
-32.865285
-32.865298
-32.865302
-32.865274
-32.865178
-32.865006
-32.864804
-32.865955
-32.865955
-32.865956
-32.865955
-32.865941
-32.865895
-32.865774
-32.865568
-32.865319
-32.866567
-32.86656
-32.866551
-32.866537
-32.86651
-32.866445
-32.866301
-32.866061
-32.865763
-32.867093
-32.86708
-32.867064
-32.867041
-32.867002
-32.866919
-32.866752
-32.866478
-32.866133
-32.867526
-32.867509
-32.867488
-32.867458
-32.867407
-32.867307
-32.86712
-32.866817
-32.866431
-32.867854
-32.867836
-32.867811
-32.867775
-32.867714
-32.867603
-32.867401
-32.867075
-32.866654
-32.868075
-32.868055
-32.868028
-32.867988
-32.867922
-32.867803
-32.86759
-32.867248
-32.866803
-32.868184
-32.868163
-32.868135
-32.868093
-32.868024
-32.867902
-32.867684
-32.867334
-32.866878
-32.868184
-32.868164
-32.868136
-32.868094
-32.868025
-32.867903
-32.867685
-32.867335
-32.866879
-32.868077
-32.868057
-32.86803
-32.86799
-32.867923
-32.867804
-32.867592
-32.867249
-32.866805
-32.867857
-32.867839
-32.867814
-32.867778
-32.867717
-32.867606
-32.867404
-32.867077
-32.866657
-32.867529
-32.867513
-32.867492
-32.867462
-32.86741
-32.867311
-32.867124
-32.866821
-32.866434
-32.867098
-32.867085
-32.867069
-32.867046
-32.867007
-32.866924
-32.866757
-32.866483
-32.866139
-32.866573
-32.866566
-32.866557
-32.866543
-32.866516
-32.866451
-32.866308
-32.866067
-32.86577
-32.865963
-32.865963
-32.865964
-32.865962
-32.865949
-32.865902
-32.865782
-32.865575
-32.865326
-32.86527
-32.86528
-32.865293
-32.865306
-32.86531
-32.865282
-32.865186
-32.865014
-32.864813
-32.864523
-32.864543
-32.864571
-32.8646
-32.864621
-32.864612
-32.864545
-32.86441
-32.864251
-32.863728
-32.863758
-32.863798
-32.863841
-32.863879
-32.863893
-32.86386
-32.863767
-32.863645
-32.862891
-32.862928
-32.862978
-32.86304
-32.86311
-32.863174
-32.863215
-32.863191
-32.863076
-32.86216
-32.862203
-32.862269
-32.862364
-32.862492
-32.862649
-32.862827
-32.863011
-32.863047
-31.077211
-31.077234
-31.077266
-31.077309
-31.077363
-31.077421
-31.077479
-31.077536
-31.077516
-31.077597
-31.077614
-31.077635
-31.077655
-31.07767
-31.077667
-31.077639
-31.077582
-31.077485
-31.07803
-31.078043
-31.078055
-31.078063
-31.078058
-31.078027
-31.077963
-31.077878
-31.077795
-31.078432
-31.078439
-31.078444
-31.078444
-31.078428
-31.078385
-31.078308
-31.07821
-31.078116
-31.078799
-31.078802
-31.078801
-31.078791
-31.078764
-31.078707
-31.078614
-31.078496
-31.078379
-31.07913
-31.079129
-31.079123
-31.079106
-31.079068
-31.078997
-31.078886
-31.078745
-31.078603
-31.079413
-31.079409
-31.079398
-31.079376
-31.079331
-31.079249
-31.079122
-31.078961
-31.078796
-31.079652
-31.079646
-31.079632
-31.079605
-31.079553
-31.079463
-31.079323
-31.079145
-31.078958
-31.079845
-31.079836
-31.079819
-31.079788
-31.079733
-31.079636
-31.079486
-31.079295
-31.079088
-31.079992
-31.079981
-31.079962
-31.079928
-31.079869
-31.079768
-31.079611
-31.079408
-31.079185
-31.080092
-31.08008
-31.080058
-31.080022
-31.079961
-31.079857
-31.079694
-31.079484
-31.07925
-31.080141
-31.080128
-31.080106
-31.080069
-31.080007
-31.079901
-31.079736
-31.079523
-31.079283
-31.080142
-31.080129
-31.080107
-31.08007
-31.080008
-31.079902
-31.079737
-31.079523
-31.079284
-31.080093
-31.080082
-31.08006
-31.080024
-31.079963
-31.079859
-31.079696
-31.079486
-31.079252
-31.079995
-31.079984
-31.079965
-31.079931
-31.079872
-31.079771
-31.079614
-31.079411
-31.079188
-31.079849
-31.079841
-31.079824
-31.079793
-31.079737
-31.079641
-31.079491
-31.079299
-31.079092
-31.079658
-31.079652
-31.079638
-31.07961
-31.079559
-31.079469
-31.079329
-31.079151
-31.078963
-31.07942
-31.079416
-31.079406
-31.079383
-31.079338
-31.079256
-31.079129
-31.078968
-31.078803
-31.079138
-31.079137
-31.079131
-31.079114
-31.079077
-31.079006
-31.078894
-31.078753
-31.078611
-31.078809
-31.078812
-31.078811
-31.078802
-31.078774
-31.078717
-31.078624
-31.078506
-31.078388
-31.078443
-31.07845
-31.078456
-31.078455
-31.07844
-31.078396
-31.078319
-31.078221
-31.078127
-31.078043
-31.078056
-31.078068
-31.078076
-31.078071
-31.07804
-31.077976
-31.07789
-31.077807
-31.077612
-31.077629
-31.077649
-31.07767
-31.077684
-31.077682
-31.077653
-31.077595
-31.077498
-31.077227
-31.07725
-31.077282
-31.077325
-31.077379
-31.077437
-31.077494
-31.077551
-31.07753
-29.302995
-29.30301
-29.30303
-29.303057
-29.303092
-29.303134
-29.303185
-29.303242
-29.303253
-29.303216
-29.303228
-29.303243
-29.303258
-29.303272
-29.303283
-29.303286
-29.303273
-29.303233
-29.303463
-29.303473
-29.303485
-29.303493
-29.303497
-29.303491
-29.303471
-29.303437
-29.303401
-29.303696
-29.303704
-29.303712
-29.303716
-29.303714
-29.303701
-29.303671
-29.303627
-29.303588
-29.303915
-29.30392
-29.303924
-29.303923
-29.303915
-29.303895
-29.303858
-29.303807
-29.303761
-29.304119
-29.304121
-29.304121
-29.304117
-29.304104
-29.304078
-29.304034
-29.303977
-29.303923
-29.304302
-29.304301
-29.304298
-29.304289
-29.304272
-29.304242
-29.304194
-29.304131
-29.304069
-29.304461
-29.304458
-29.304452
-29.30444
-29.304419
-29.304386
-29.304334
-29.304266
-29.304195
-29.304594
-29.304589
-29.304581
-29.304566
-29.304542
-29.304505
-29.30445
-29.304378
-29.304298
-29.304697
-29.304691
-29.30468
-29.304663
-29.304637
-29.304598
-29.30454
-29.304464
-29.304376
-29.304767
-29.30476
-29.304748
-29.30473
-29.304702
-29.304661
-29.304602
-29.304522
-29.30443
-29.304803
-29.304795
-29.304783
-29.304763
-29.304734
-29.304693
-29.304633
-29.304552
-29.304457
-29.304804
-29.304796
-29.304783
-29.304764
-29.304735
-29.304694
-29.304634
-29.304553
-29.304458
-29.30477
-29.304762
-29.304751
-29.304732
-29.304704
-29.304663
-29.304604
-29.304524
-29.304432
-29.304701
-29.304694
-29.304684
-29.304667
-29.30464
-29.304601
-29.304544
-29.304467
-29.30438
-29.304599
-29.304594
-29.304586
-29.304571
-29.304547
-29.30451
-29.304455
-29.304383
-29.304303
-29.304467
-29.304464
-29.304458
-29.304446
-29.304426
-29.304392
-29.30434
-29.304273
-29.304201
-29.30431
-29.304309
-29.304306
-29.304297
-29.30428
-29.30425
-29.304202
-29.304139
-29.304077
-29.304129
-29.304131
-29.304131
-29.304126
-29.304113
-29.304088
-29.304044
-29.303986
-29.303932
-29.303926
-29.303931
-29.303935
-29.303935
-29.303927
-29.303907
-29.303869
-29.303817
-29.303771
-29.303709
-29.303717
-29.303725
-29.303729
-29.303727
-29.303714
-29.303684
-29.30364
-29.3036
-29.303478
-29.303488
-29.3035
-29.303508
-29.303512
-29.303506
-29.303486
-29.303451
-29.303415
-29.303232
-29.303244
-29.303259
-29.303274
-29.303289
-29.303299
-29.303302
-29.303289
-29.303248
-29.303013
-29.303028
-29.303048
-29.303075
-29.30311
-29.303152
-29.303203
-29.303259
-29.30327
-27.524394
-27.524399
-27.524407
-27.524418
-27.524434
-27.524454
-27.524477
-27.524506
-27.524514
-27.524528
-27.524531
-27.524535
-27.524539
-27.524544
-27.524546
-27.524544
-27.524538
-27.524521
-27.524672
-27.524674
-27.524675
-27.524676
-27.524676
-27.52467
-27.524659
-27.524645
-27.524633
-27.524807
-27.524807
-27.524807
-27.524806
-27.524803
-27.524794
-27.524781
-27.524765
-27.524751
-27.524932
-27.524931
-27.524929
-27.524926
-27.524919
-27.524908
-27.524891
-27.524871
-27.524851
-27.525045
-27.525043
-27.525039
-27.525034
-27.525026
-27.525012
-27.524992
-27.524966
-27.524939
-27.525144
-27.525141
-27.525136
-27.52513
-27.52512
-27.525104
-27.52508
-27.525048
-27.525014
-27.525228
-27.525224
-27.525219
-27.525211
-27.5252
-27.525182
-27.525155
-27.525119
-27.525076
-27.525296
-27.525292
-27.525286
-27.525277
-27.525266
-27.525247
-27.525217
-27.525176
-27.525127
-27.525348
-27.525344
-27.525337
-27.525328
-27.525316
-27.525296
-27.525265
-27.52522
-27.525165
-27.525384
-27.525379
-27.525372
-27.525363
-27.52535
-27.52533
-27.525297
-27.52525
-27.525191
-27.525402
-27.525397
-27.52539
-27.525381
-27.525368
-27.525348
-27.525314
-27.525265
-27.525204
-27.525403
-27.525398
-27.525391
-27.525381
-27.525369
-27.525348
-27.525315
-27.525266
-27.525205
-27.525386
-27.525381
-27.525374
-27.525365
-27.525353
-27.525333
-27.5253
-27.525252
-27.525193
-27.525352
-27.525347
-27.525341
-27.525332
-27.52532
-27.5253
-27.525269
-27.525224
-27.525168
-27.525301
-27.525297
-27.525291
-27.525283
-27.525271
-27.525252
-27.525223
-27.525181
-27.525132
-27.525234
-27.525231
-27.525225
-27.525218
-27.525207
-27.525189
-27.525162
-27.525126
-27.525083
-27.525152
-27.525149
-27.525145
-27.525138
-27.525129
-27.525112
-27.525088
-27.525057
-27.525022
-27.525055
-27.525053
-27.52505
-27.525045
-27.525036
-27.525022
-27.525002
-27.524976
-27.524948
-27.524944
-27.524943
-27.524941
-27.524937
-27.524931
-27.52492
-27.524903
-27.524883
-27.524863
-27.524821
-27.524821
-27.524821
-27.52482
-27.524816
-27.524808
-27.524794
-27.524778
-27.524764
-27.524687
-27.524689
-27.524691
-27.524692
-27.524691
-27.524685
-27.524674
-27.52466
-27.524648
-27.524545
-27.524548
-27.524552
-27.524556
-27.524561
-27.524563
-27.52456
-27.524554
-27.524537
-27.524413
-27.524418
-27.524425
-27.524437
-27.524453
-27.524473
-27.524496
-27.524524
-27.524532
-25.749067
-25.74907
-25.749075
-25.749081
-25.74909
-25.749101
-25.749115
-25.749131
-25.749134
-25.749137
-25.749139
-25.749142
-25.749145
-25.749147
-25.749149
-25.749148
-25.749144
-25.749131
-25.749212
-25.749214
-25.749216
-25.749216
-25.749216
-25.749213
-25.749206
-25.749196
-25.749185
-25.749283
-25.749284
-25.749285
-25.749284
-25.749282
-25.749277
-25.749269
-25.749256
-25.749245
-25.74935
-25.74935
-25.749349
-25.749348
-25.749344
-25.749338
-25.749327
-25.749313
-25.7493
-25.749411
-25.74941
-25.749409
-25.749406
-25.749401
-25.749394
-25.749382
-25.749366
-25.74935
-25.749465
-25.749464
-25.749462
-25.749458
-25.749453
-25.749444
-25.749431
-25.749414
-25.749396
-25.749513
-25.749511
-25.749508
-25.749504
-25.749498
-25.749489
-25.749475
-25.749456
-25.749435
-25.749552
-25.74955
-25.749547
-25.749542
-25.749535
-25.749525
-25.749511
-25.749491
-25.749467
-25.749583
-25.74958
-25.749577
-25.749571
-25.749564
-25.749554
-25.749539
-25.749517
-25.749492
-25.749603
-25.749601
-25.749597
-25.749591
-25.749584
-25.749573
-25.749558
-25.749536
-25.749509
-25.749614
-25.749611
-25.749607
-25.749602
-25.749594
-25.749584
-25.749568
-25.749546
-25.749518
-25.749615
-25.749612
-25.749608
-25.749603
-25.749595
-25.749584
-25.749569
-25.749546
-25.749518
-25.749606
-25.749603
-25.749599
-25.749594
-25.749586
-25.749576
-25.74956
-25.749538
-25.749511
-25.749586
-25.749584
-25.74958
-25.749575
-25.749568
-25.749558
-25.749543
-25.749521
-25.749495
-25.749558
-25.749555
-25.749552
-25.749547
-25.749541
-25.749531
-25.749516
-25.749496
-25.749472
-25.74952
-25.749518
-25.749515
-25.749511
-25.749505
-25.749496
-25.749482
-25.749463
-25.749441
-25.749474
-25.749473
-25.749471
-25.749467
-25.749462
-25.749453
-25.74944
-25.749423
-25.749404
-25.749421
-25.74942
-25.749419
-25.749416
-25.749412
-25.749404
-25.749392
-25.749376
-25.74936
-25.749361
-25.749361
-25.749361
-25.749359
-25.749356
-25.74935
-25.749339
-25.749325
-25.749311
-25.749297
-25.749297
-25.749298
-25.749298
-25.749296
-25.749291
-25.749282
-25.74927
-25.749258
-25.749227
-25.749229
-25.749231
-25.749232
-25.749231
-25.749228
-25.749221
-25.749211
-25.7492
-25.749154
-25.749156
-25.749159
-25.749162
-25.749164
-25.749165
-25.749165
-25.74916
-25.749147
-25.749086
-25.749089
-25.749093
-25.749099
-25.749108
-25.749119
-25.749133
-25.749148
-25.749151
-23.972694
-23.972695
-23.972697
-23.9727
-23.972704
-23.97271
-23.972717
-23.972726
-23.972729
-23.972736
-23.972736
-23.972737
-23.972738
-23.972738
-23.972739
-23.972739
-23.972737
-23.972732
-23.972779
-23.972779
-23.972779
-23.972779
-23.972778
-23.972777
-23.972774
-23.97277
-23.972766
-23.97282
-23.97282
-23.972819
-23.972818
-23.972817
-23.972814
-23.972811
-23.972806
-23.972801
-23.972858
-23.972857
-23.972856
-23.972855
-23.972853
-23.972849
-23.972844
-23.972838
-23.972832
-23.972892
-23.972891
-23.97289
-23.972888
-23.972885
-23.972881
-23.972875
-23.972868
-23.97286
-23.972922
-23.972921
-23.972919
-23.972917
-23.972914
-23.97291
-23.972903
-23.972894
-23.972884
-23.972948
-23.972947
-23.972945
-23.972942
-23.972939
-23.972934
-23.972927
-23.972916
-23.972904
-23.972969
-23.972968
-23.972966
-23.972963
-23.972959
-23.972954
-23.972946
-23.972935
-23.97292
-23.972986
-23.972984
-23.972982
-23.972979
-23.972975
-23.97297
-23.972961
-23.972949
-23.972933
-23.972997
-23.972995
-23.972993
-23.97299
-23.972986
-23.972981
-23.972972
-23.972959
-23.972942
-23.973003
-23.973001
-23.972999
-23.972996
-23.972992
-23.972987
-23.972977
-23.972964
-23.972946
-23.973004
-23.973002
-23.973
-23.972997
-23.972993
-23.972987
-23.972978
-23.972965
-23.972947
-23.972999
-23.972997
-23.972995
-23.972992
-23.972988
-23.972983
-23.972974
-23.972961
-23.972944
-23.972989
-23.972988
-23.972985
-23.972983
-23.972979
-23.972973
-23.972965
-23.972952
-23.972936
-23.972974
-23.972973
-23.972971
-23.972968
-23.972965
-23.972959
-23.972951
-23.972939
-23.972925
-23.972954
-23.972953
-23.972951
-23.972949
-23.972946
-23.972941
-23.972933
-23.972923
-23.97291
-23.97293
-23.972929
-23.972927
-23.972925
-23.972922
-23.972918
-23.972911
-23.972902
-23.972891
-23.972901
-23.9729
-23.972899
-23.972897
-23.972895
-23.972891
-23.972885
-23.972877
-23.972869
-23.972869
-23.972868
-23.972867
-23.972866
-23.972864
-23.97286
-23.972855
-23.972849
-23.972843
-23.972833
-23.972832
-23.972832
-23.972831
-23.97283
-23.972827
-23.972823
-23.972818
-23.972813
-23.972793
-23.972793
-23.972793
-23.972793
-23.972793
-23.972791
-23.972788
-23.972783
-23.972779
-23.972751
-23.972752
-23.972753
-23.972753
-23.972754
-23.972755
-23.972754
-23.972752
-23.972747
-23.972711
-23.972712
-23.972714
-23.972717
-23.972721
-23.972727
-23.972734
-23.972742
-23.972745
-22.197019
-22.19702
-22.197021
-22.197023
-22.197025
-22.197028
-22.197032
-22.197036
-22.197037
-22.197041
-22.197042
-22.197042
-22.197043
-22.197043
-22.197043
-22.197043
-22.197042
-22.197039
-22.197064
-22.197064
-22.197064
-22.197064
-22.197064
-22.197063
-22.197061
-22.197058
-22.197055
-22.197085
-22.197085
-22.197085
-22.197085
-22.197084
-22.197083
-22.19708
-22.197077
-22.197074
-22.197105
-22.197105
-22.197105
-22.197104
-22.197103
-22.197101
-22.197098
-22.197095
-22.197091
-22.197123
-22.197123
-22.197122
-22.197122
-22.19712
-22.197118
-22.197115
-22.197111
-22.197106
-22.197139
-22.197139
-22.197138
-22.197137
-22.197136
-22.197133
-22.19713
-22.197125
-22.197119
-22.197153
-22.197153
-22.197152
-22.197151
-22.197149
-22.197147
-22.197143
-22.197138
-22.197131
-22.197165
-22.197164
-22.197163
-22.197162
-22.19716
-22.197158
-22.197154
-22.197148
-22.197141
-22.197174
-22.197173
-22.197172
-22.197171
-22.197169
-22.197166
-22.197162
-22.197156
-22.197148
-22.19718
-22.197179
-22.197178
-22.197177
-22.197175
-22.197172
-22.197168
-22.197162
-22.197153
-22.197183
-22.197182
-22.197181
-22.19718
-22.197178
-22.197176
-22.197171
-22.197165
-22.197156
-22.197184
-22.197183
-22.197182
-22.197181
-22.197179
-22.197176
-22.197172
-22.197165
-22.197157
-22.197181
-22.197181
-22.19718
-22.197178
-22.197177
-22.197174
-22.19717
-22.197163
-22.197155
-22.197177
-22.197176
-22.197175
-22.197174
-22.197172
-22.197169
-22.197165
-22.197159
-22.197151
-22.197169
-22.197168
-22.197167
-22.197166
-22.197164
-22.197162
-22.197158
-22.197152
-22.197145
-22.197159
-22.197158
-22.197157
-22.197156
-22.197155
-22.197152
-22.197148
-22.197143
-22.197136
-22.197146
-22.197146
-22.197145
-22.197144
-22.197142
-22.19714
-22.197137
-22.197132
-22.197126
-22.197131
-22.197131
-22.19713
-22.19713
-22.197128
-22.197126
-22.197123
-22.197118
-22.197114
-22.197114
-22.197114
-22.197114
-22.197113
-22.197112
-22.19711
-22.197108
-22.197104
-22.1971
-22.197096
-22.197096
-22.197096
-22.197096
-22.197095
-22.197093
-22.197091
-22.197087
-22.197084
-22.197076
-22.197076
-22.197077
-22.197077
-22.197076
-22.197075
-22.197073
-22.19707
-22.197067
-22.197055
-22.197055
-22.197056
-22.197056
-22.197057
-22.197057
-22.197056
-22.197055
-22.197051
-22.197034
-22.197035
-22.197036
-22.197037
-22.19704
-22.197042
-22.197046
-22.197051
-22.197051
-20.421153
-20.421154
-20.421154
-20.421155
-20.421156
-20.421157
-20.421159
-20.421161
-20.421162
-20.421166
-20.421166
-20.421166
-20.421166
-20.421166
-20.421166
-20.421166
-20.421166
-20.421164
-20.421178
-20.421178
-20.421178
-20.421178
-20.421178
-20.421177
-20.421176
-20.421175
-20.421174
-20.42119
-20.42119
-20.42119
-20.421189
-20.421189
-20.421188
-20.421187
-20.421186
-20.421184
-20.421201
-20.421201
-20.421201
-20.4212
-20.4212
-20.421199
-20.421197
-20.421195
-20.421193
-20.421211
-20.421211
-20.421211
-20.42121
-20.421209
-20.421208
-20.421206
-20.421204
-20.421202
-20.42122
-20.42122
-20.421219
-20.421219
-20.421218
-20.421217
-20.421215
-20.421212
-20.421209
-20.421228
-20.421228
-20.421227
-20.421226
-20.421225
-20.421224
-20.421222
-20.421219
-20.421216
-20.421234
-20.421234
-20.421233
-20.421233
-20.421232