/*--------------------------------*- C++ -*----------------------------------*\
| =========                 |                                                 |
| \\      /  F ield         | OpenFOAM: The Open Source CFD Toolbox           |
|  \\    /   O peration     | Version:  2406                                  |
|   \\  /    A nd           | Website:  www.openfoam.com                      |
|    \\/     M anipulation  |                                                 |
\*---------------------------------------------------------------------------*/
FoamFile
{
    version     2.0;
    format      ascii;
    arch        "LSB;label=32;scalar=64";
    class       surfaceScalarField;
    location    "18.25";
    object      phi;
}
// * * * * * * * * * * * * * * * * * * * * * * * * * * * * * * * * * * * * * //

dimensions      [0 3 -1 0 0 0 0];

oriented        oriented;

internalField   nonuniform List<scalar> 
101088
(
-1.8062194e-05
1.5799555e-05
-1.019895e-05
-1.3857654e-05
-2.1355531e-05
6.6843207e-05
-4.1329171e-05
-5.9051546e-05
2.8461159e-06
0.00015725214
-9.2158619e-05
-0.00013938892
6.1748102e-05
0.00029120159
-0.00015708637
-0.00025846584
0.00014350821
0.00045493067
-0.0002135085
-0.00040413258
0.00021134006
0.00061657017
-0.00023073965
-0.0005469172
0.00022382394
0.0007373569
-0.00019681531
-0.00065157787
0.00016855161
0.00079532699
-0.00013876361
-0.00069587909
0.00079057962
-8.1731896e-05
-0.00068008948
5.7443866e-05
-2.1687611e-05
1.7476252e-05
-1.2275004e-05
-2.4157429e-05
7.3160124e-05
-4.8967902e-05
8.7007242e-06
0.00017048017
-0.0001073754
8.5802703e-05
0.00031332321
-0.00017923547
0.00019119064
0.00048760587
-0.00023707902
0.00027772664
0.00066092865
-0.00024530933
0.00030540648
0.000792878
-0.00020496679
0.0002609968
0.00086009546
-0.00013869266
0.00085778834
-7.7158127e-05
0.00016599562
-2.5175197e-05
1.8642586e-05
-1.4298872e-05
-2.6464826e-05
7.7261651e-05
-5.6259109e-05
1.4513753e-05
0.00017851941
-0.0001214755
0.00010640301
0.00032564378
-0.00019861405
0.00022853125
0.00050415662
-0.0002553275
0.00032807911
0.00068172445
-0.00025509464
0.00036621532
0.00081803912
-0.00020698525
0.00033087433
0.0008883932
-0.00013328418
0.00088459712
-6.8997513e-05
0.00024756609
-2.8528508e-05
1.9122709e-05
-1.6136994e-05
-2.8698529e-05
7.8579304e-05
-6.2688556e-05
1.9688523e-05
0.00018027487
-0.00013339377
0.00012412875
0.00032679826
-0.00021379736
0.00025789109
0.00050367083
-0.00026665071
0.00036553518
0.00067825109
-0.00025795369
0.00040869626
0.00081340041
-0.00020240069
0.00037790822
0.000882597
-0.00012364977
0.00087618578
-5.8354631e-05
0.00030090108
-3.1665367e-05
1.8758264e-05
-1.7731877e-05
-3.086043e-05
7.6682042e-05
-6.8103405e-05
2.388786e-05
0.00017508011
-0.0001429661
0.00013845844
0.00031594347
-0.00022481952
0.00027892081
0.0004849213
-0.00027057957
0.00039123955
0.0006509667
-0.00025624942
0.00043510323
0.00078051786
-0.00019308833
0.00040538532
0.00084562143
-0.00011123418
0.00083647521
-4.6481566e-05
0.00033181414
-3.4830262e-05
1.7747501e-05
-1.908898e-05
-3.4009646e-05
7.2156557e-05
-7.2561017e-05
2.4776373e-05
0.00016393906
-0.00015040193
0.00014548894
0.00029452704
-0.00023219968
0.00028963584
0.00045042163
-0.0002725744
0.0004036357
0.0006027714
-0.00025266707
0.00044513797
0.00072140693
-0.00018065024
0.00041472442
0.00077989885
-9.723114e-05
0.00076858775
-3.4225927e-05
0.00034334474
-3.759184e-05
1.598917e-05
-2.0174595e-05
-3.6759811e-05
6.4768344e-05
-7.5983148e-05
2.5205101e-05
0.00014665188
-0.00015569376
0.00014997881
0.00026267955
-0.00023619941
0.0002956647
0.00040057404
-0.00027103953
0.0004081469
0.00053473601
-0.00024484762
0.00044519397
0.00063881227
-0.00016653721
0.0004122901
0.00068911713
-8.2733403e-05
0.00067677529
-2.2264105e-05
0.00034142226
-4.003216e-05
1.3573506e-05
-2.1021051e-05
-3.9476789e-05
5.4852304e-05
-7.8552086e-05
2.4538107e-05
0.00012392078
-0.00015935781
0.00015140375
0.00022153906
-0.00023782917
0.00029689739
0.00033704441
-0.00026756065
0.00040615407
0.00044922125
-0.00023552135
0.0004379714
0.00053590108
-0.00015250027
0.00040183587
0.00057705162
-6.8963693e-05
0.00056506533
-1.1284752e-05
0.00033057078
-4.2093544e-05
1.0625313e-05
-2.1660907e-05
-4.2006559e-05
4.2885912e-05
-8.0431074e-05
2.3157075e-05
9.675416e-05
-0.00016183104
0.00015059442
0.00017275305
-0.00023793947
0.00029479931
0.00026232093
-0.00026349981
0.00040019671
0.00034933079
-0.0002264517
0.00042682521
0.00041639541
-0.00013991483
0.00038735074
0.00044777501
-5.6922176e-05
0.00043749237
-1.8853782e-06
0.00031524848
-4.3742745e-05
7.3110594e-06
-2.2116402e-05
-4.4255907e-05
2.9459812e-05
-8.172846e-05
2.1333121e-05
6.6342313e-05
-0.00016340135
0.00014826041
0.00011820986
-0.00023713181
0.00029087117
0.00017903717
-0.00025972052
0.00039254057
0.00023858878
-0.00021877819
0.00041465801
0.00028435498
-0.00012975572
0.0003722708
0.00030552888
-4.7361326e-05
0.00029805134
5.4680076e-06
0.00029930625
-4.4836364e-05
3.71268e-06
-2.239591e-05
-4.5770677e-05
1.4953185e-05
-8.2476987e-05
1.9910298e-05
3.3657081e-05
-0.00016416117
0.00014595429
5.9918981e-05
-0.00023615228
0.00028763248
9.0734301e-05
-0.00025801914
0.00038598547
0.00012091752
-0.00021312061
0.00040464925
0.00014409062
-0.00012263253
0.00036008492
0.00015474266
-4.0801398e-05
0.00015081672
1.0431687e-05
0.00028643604
-4.5423216e-05
6.1816001e-11
-2.2532099e-05
-4.66693e-05
1.1518686e-10
-8.2854852e-05
1.891532e-05
7.9256692e-11
-0.00016457737
0.00014462985
1.3611446e-11
-0.00023603681
0.00028584203
-4.8360535e-10
-0.00025726207
0.00038245975
-9.374894e-10
-0.00021044549
0.00039926417
-1.4632914e-09
-0.00011923096
0.00035344068
-1.6585456e-09
-3.7664751e-05
-1.1419321e-09
1.2795774e-05
0.00027925745
-4.5423538e-05
-3.7126534e-06
-2.2532097e-05
-4.6669653e-05
-1.4953153e-05
-8.2854846e-05
1.8915307e-05
-3.3657027e-05
-0.00016457736
0.00014462953
-5.9918951e-05
-0.00023603679
0.0002858421
-9.0735242e-05
-0.00025726204
0.00038245973
-0.00012091933
-0.00021044546
0.00039926409
-0.00014409341
-0.00011923094
0.00035344073
-0.00015474576
-3.7664742e-05
-0.00015081879
1.2795773e-05
0.00027925736
-4.4836673e-05
-7.3111379e-06
-2.2395911e-05
-4.5770724e-05
-2.9459974e-05
-8.2476993e-05
1.9910616e-05
-6.6342337e-05
-0.00016416119
0.00014595346
-0.00011820995
-0.00023615228
0.0002876328
-0.00017903815
-0.00025801913
0.00038598544
-0.00023859043
-0.0002131206
0.00040464903
-0.00028435746
-0.00012263252
0.00036008503
-0.0003055315
-4.0801391e-05
-0.0002980529
1.0431678e-05
0.00028643577
-4.3742275e-05
-1.0625301e-05
-2.2116396e-05
-4.4254831e-05
-4.2885846e-05
-8.1728442e-05
2.133371e-05
-9.6754112e-05
-0.00016340132
0.00014825932
-0.00017275354
-0.00023713177
0.00029087187
-0.00026232193
-0.00025972047
0.00039254043
-0.00034933213
-0.00021877815
0.00041465761
-0.00041639752
-0.00012975571
0.00037227089
-0.0004477771
-4.7361321e-05
-0.00043749342
5.4679962e-06
0.00029930578
-4.2093193e-05
-1.3573472e-05
-2.1660905e-05
-4.2006138e-05
-5.4852178e-05
-8.0431068e-05
2.3157205e-05
-0.00012392096
-0.00016183103
0.00015059393
-0.00022153994
-0.00023793947
0.00029480052
-0.00033704505
-0.0002634998
0.00040019648
-0.00044922236
-0.00022645168
0.00042682487
-0.00053590294
-0.00013991482
0.00038735083
-0.00057705327
-5.6922173e-05
-0.00056506612
-1.8853851e-06
0.00031524786
-4.0032371e-05
-1.5989182e-05
-2.1021052e-05
-3.9476832e-05
-6.476813e-05
-7.8552087e-05
2.4539238e-05
-0.00014665156
-0.0001593578
0.00015140496
-0.00026267964
-0.00023782917
0.00029689848
-0.00040057419
-0.00026756065
0.00040615375
-0.00053473765
-0.00023552135
0.00043797133
-0.00063881417
-0.00015250028
0.00040183578
-0.00068911858
-6.8963697e-05
-0.00067677614
-1.1284759e-05
0.00033056993
-3.759165e-05
-1.7747278e-05
-2.0174593e-05
-3.6759059e-05
-7.2155947e-05
-7.5983141e-05
2.5206525e-05
-0.00016393844
-0.00015569374
0.00014998016
-0.00029452764
-0.00023619941
0.00029566468
-0.00045042347
-0.00027103956
0.00040814691
-0.0006027748
-0.00024484768
0.00044519422
-0.00072140956
-0.00016653727
0.00041228965
-0.00077990087
-8.2733431e-05
-0.00076858857
-2.2264121e-05
0.00034142102
-3.4830852e-05
-1.875848e-05
-1.9088985e-05
-3.4011374e-05
-7.6682727e-05
-7.2561035e-05
2.4775356e-05
-0.00017508097
-0.00015040196
0.00014549041
-0.00031594464
-0.00023219977
0.00028963606
-0.00048492348
-0.00027257449
0.00040363666
-0.00065097004
-0.00025266716
0.00044513832
-0.00078052151
-0.00018065032
0.00041472379
-0.00084562459
-9.7231178e-05
-0.00083647533
-3.4225935e-05
0.00034334301
-3.1665866e-05
-1.9122603e-05
-1.7731876e-05
-3.0861071e-05
-7.8578911e-05
-6.8103403e-05
2.3888626e-05
-0.000180274
-0.00014296609
0.00013846003
-0.00032679759
-0.00022481948
0.00027892058
-0.00050367213
-0.00027057955
0.00039124034
-0.00067825333
-0.0002562494
0.00043510357
-0.00081340377
-0.00019308833
0.00040538514
-0.00088259928
-0.00011123417
-0.00087618529
-4.6481553e-05
0.00033181175
-2.8528651e-05
-1.8642597e-05
-1.613699e-05
-2.8699186e-05
-7.7261699e-05
-6.2688541e-05
1.9687316e-05
-0.00017851959
-0.00013339374
0.00012412761
-0.00032564441
-0.0002137973
0.00025789107
-0.0005041586
-0.00026665066
0.00036553538
-0.00068172764
-0.00025795361
0.00040869641
-0.00081804113
-0.00020240062
0.00037790856
-0.00088839429
-0.00012364972
-0.00088459812
-5.8354612e-05
0.00030089887
-2.5175342e-05
-1.7476267e-05
-1.4298865e-05
-2.6465443e-05
-7.3160178e-05
-5.6259086e-05
1.4512368e-05
-0.00017048046
-0.00012147545
0.00010640125
-0.00031332411
-0.00019861395
0.00022853084
-0.00048760779
-0.00025532733
0.00032807968
-0.00066093203
-0.0002550945
0.0003662146
-0.00079288065
-0.00020698512
0.00033087399
-0.00086009714
-0.00013328413
-0.00085778596
-6.8997473e-05
0.0002475652
-2.1687658e-05
-1.5799549e-05
-1.2275001e-05
-2.4157883e-05
-6.684318e-05
-4.8967893e-05
8.6994802e-06
-0.00015725211
-0.00010737538
8.580082e-05
-0.00029120154
-0.00017923542
0.00019119027
-0.00045493066
-0.00023707892
0.00027772836
-0.00061657084
-0.00024530924
0.00030540619
-0.0007373591
-0.00020496671
0.000260999
-0.00079532854
-0.00013869256
-0.00079057784
-7.7158073e-05
0.00016599534
-1.8062184e-05
-1.0198948e-05
-1.3857642e-05
-2.1355716e-05
-4.1329166e-05
-5.9051552e-05
2.8456199e-06
-9.2158612e-05
-0.00013938908
6.1747385e-05
-0.00015708635
-0.00025846643
0.00014350786
-0.00021350845
-0.00040413374
0.00021133999
-0.00023073954
-0.00054691876
0.00022382299
-0.0001968152
-0.00065157959
0.00016855277
-0.00013876353
-0.00069588098
-8.1731813e-05
-0.00068009241
5.7441555e-05
3.5964094e-07
3.1653377e-06
-1.1208598e-05
-2.5153306e-06
3.1075446e-06
1.3801935e-05
-4.6804459e-05
-1.1074613e-05
1.063936e-05
3.2889482e-05
-0.00010600883
-2.6571271e-05
2.438383e-05
5.97569e-05
-0.00018193003
-4.865794e-05
4.4450432e-05
8.6516941e-05
-0.00024894141
-7.115077e-05
6.8627154e-05
9.9447948e-05
-0.00027213666
-8.2227911e-05
9.0383271e-05
9.3390995e-05
-0.00023758697
-7.4375539e-05
9.9766249e-05
7.5783623e-05
-0.00016817437
-5.5754711e-05
5.5819209e-05
-0.00010212695
-3.631219e-05
0.00010065409
4.7616723e-07
3.7506023e-06
-1.3336415e-05
4.1733602e-06
1.6213763e-05
-5.5076723e-05
1.4490957e-05
3.8213512e-05
-0.00012301649
3.3636537e-05
6.8390601e-05
-0.00020701384
6.1313812e-05
9.7482959e-05
-0.00027572155
9.466607e-05
0.00011140957
-0.00029062347
0.00011926364
0.00010703317
-0.00024320622
0.00012689023
8.9633977e-05
-0.00016016973
7.0802343e-05
-8.9338417e-05
0.00012408742
6.6176551e-07
4.1744653e-06
-1.5384539e-05
5.6240943e-06
1.7936451e-05
-6.294428e-05
1.9267842e-05
4.1941839e-05
-0.00013884789
4.4339953e-05
7.4132296e-05
-0.00022942831
7.9978217e-05
0.00010413266
-0.00029761599
0.00012044184
0.00011823161
-0.00030238005
0.00014416594
0.00011453501
-0.00023821078
0.00014775415
9.8774166e-05
-0.00014601292
8.2577017e-05
-7.1788339e-05
0.00013877
8.6461424e-07
4.3954433e-06
-1.7222436e-05
7.1668971e-06
1.8812922e-05
-6.9866816e-05
2.4302732e-05
4.3764728e-05
-0.00015235162
5.541399e-05
7.671072e-05
-0.00024748628
9.9157061e-05
0.00010666582
-0.0003129274
0.00014481958
0.00012149421
-0.00030687857
0.00016612387
0.00011838902
-0.00022755916
0.00016441669
0.00010419376
-0.00012736251
9.0569928e-05
-5.155992e-05
0.00014962912
1.0483531e-06
4.3945213e-06
-1.8779295e-05
8.5904802e-06
1.8788145e-05
-7.5620917e-05
2.8964824e-05
4.3619907e-05
-0.00016319612
6.5450316e-05
7.622994e-05
-0.00026082461
0.00011723664
0.00010622484
-0.0003219246
0.00016651915
0.00012234972
-0.00030638758
0.00018477522
0.00011894791
-0.00021190322
0.00017776623
0.00010589124
-0.00010592262
9.4199039e-05
-3.0404853e-05
0.00015806024
1.1763854e-06
4.1996358e-06
-2.0070313e-05
9.7490146e-06
1.7929645e-05
-8.027463e-05
3.2986551e-05
4.1556472e-05
-0.00017157564
7.4650759e-05
7.2454622e-05
-0.00027008914
0.00013282697
0.00010107775
-0.00032560313
0.00018323078
0.00011775748
-0.0002984786
0.00019941339
0.0001148631
-0.00019274835
0.00018796202
0.00010318383
-8.3072508e-05
9.303076e-05
-9.4106939e-06
0.00016431474
1.3028434e-06
3.8017284e-06
-2.1079574e-05
1.0814401e-05
1.622737e-05
-8.3792422e-05
3.660805e-05
3.7582983e-05
-0.00017751358
8.2968672e-05
6.5427692e-05
-0.00027553309
0.00014638923
9.14327e-05
-0.00032481448
0.00019603406
0.00010690108
-0.00028363592
0.00021055959
0.00010550195
-0.00017170207
0.00019538158
9.5735769e-05
-6.0107511e-05
8.7050966e-05
1.0567661e-05
0.00016852952
1.3907224e-06
3.2284077e-06
-2.1838529e-05
1.1624766e-05
1.3793715e-05
-8.6352567e-05
3.9423722e-05
3.1952915e-05
-0.00018152662
8.9644544e-05
5.5606698e-05
-0.00027822928
0.00015679049
7.8020505e-05
-0.00032129435
0.00020586456
9.1580781e-05
-0.00026927502
0.00021845526
9.1286533e-05
-0.0001508758
0.00020016078
8.358493e-05
-3.8518285e-05
7.6450529e-05
2.8689164e-05
0.0001707876
1.4309007e-06
2.524616e-06
-2.2388235e-05
1.2137823e-05
1.0803985e-05
-8.8148322e-05
4.1334173e-05
2.5046696e-05
-0.00018412061
9.4585538e-05
4.361277e-05
-0.00027919664
0.00016439618
6.149477e-05
-0.00031678472
0.00021282585
7.2476889e-05
-0.00025577729
0.00022346919
7.2795062e-05
-0.00013206663
0.00020261269
6.713046e-05
-1.9610886e-05
6.1653633e-05
4.4202836e-05
0.0001713219
1.4310769e-06
1.7399602e-06
-2.2762947e-05
1.2392319e-05
7.4479257e-06
-8.9333758e-05
4.2453542e-05
1.7272974e-05
-0.00018568843
9.7976772e-05
3.0136497e-05
-0.00027917825
0.00016948839
4.2779964e-05
-0.00031251719
0.00021717104
5.0345826e-05
-0.00024432945
0.00022611017
5.076873e-05
-0.00011666823
0.00020327017
4.7060582e-05
-4.4510764e-06
4.3341505e-05
5.6449535e-05
0.00017060127
1.4479828e-06
8.9111694e-07
-2.2994947e-05
1.2622149e-05
3.8096499e-06
-9.0012871e-05
4.3308398e-05
8.8404681e-06
-0.0001864148
0.00010038976
1.5458021e-05
-0.00027855482
0.000172362
2.1921034e-05
-0.00030913227
0.00021952718
2.5842403e-05
-0.00023578199
0.00022717274
2.6141323e-05
-0.00010565031
0.00020296747
2.4312431e-05
6.1523204e-06
2.242641e-05
6.4889965e-05
0.00016942456
1.454796e-06
3.0264327e-11
-2.3095713e-05
1.2728929e-05
7.5547406e-11
-9.0319375e-05
4.3737617e-05
1.0610962e-10
-0.00018674566
0.00010139772
6.8473909e-11
-0.00027823873
0.0001736791
-1.8177823e-10
-0.00030762201
0.0002205456
-5.4241709e-10
-0.00023146867
0.00022750334
-7.7446498e-10
-0.00010004622
0.00020258405
-5.8242119e-10
1.1567741e-05
3.6226907e-11
6.9207033e-05
0.00016859918
1.4546941e-06
-8.9107309e-07
-2.309571e-05
1.2728807e-05
-3.8095294e-06
-9.0319366e-05
4.3737598e-05
-8.8402573e-06
-0.00018674564
0.0001013977
-1.5457867e-05
-0.0002782387
0.00017367914
-2.1921395e-05
-0.00030762198
0.00022054563
-2.5843523e-05
-0.00023146867
0.00022750339
-2.6142926e-05
-0.00010004624
0.00020258407
-2.4313636e-05
1.1567721e-05
-2.2426323e-05
6.9207019e-05
0.00016859906
1.4478437e-06
-1.739938e-06
-2.2994948e-05
1.2622043e-05
-7.4478373e-06
-9.0012875e-05
4.3308437e-05
-1.7272749e-05
-0.00018641481
0.00010038972
-3.0136337e-05
-0.00027855483
0.00017236213
-4.278037e-05
-0.00030913229
0.00021952731
-5.0347074e-05
-0.00023578203
0.00022717292
-5.0770505e-05
-0.00010565037
0.0002029676
-4.7061896e-05
6.1522661e-06
-4.3341336e-05
6.4889929e-05
0.00016942427
1.4311711e-06
-2.5245847e-06
-2.2762943e-05
1.2392569e-05
-1.0803875e-05
-8.9333742e-05
4.2453664e-05
-2.5046476e-05
-0.0001856884
9.7976653e-05
-4.3612735e-05
-0.00027917822
0.00016948848
-6.1495346e-05
-0.00031251718
0.00021717114
-7.2478348e-05
-0.00024432949
0.00022611042
-7.279709e-05
-0.00011666831
0.00020327043
-6.713189e-05
-4.4511604e-06
-6.165325e-05
5.644948e-05
0.00017060094
1.4311216e-06
-3.2283735e-06
-2.2388233e-05
1.2138167e-05
-1.3793614e-05
-8.8148316e-05
4.1334215e-05
-3.1952766e-05
-0.0001841206
9.4585421e-05
-5.5606805e-05
-0.00027919664
0.00016439621
-7.8021203e-05
-0.00031678473
0.00021282593
-9.1582399e-05
-0.00025577734
0.00022346958
-9.1288734e-05
-0.00013206672
0.00020261318
-8.3586364e-05
-1.9610984e-05
-7.6449876e-05
4.4202769e-05
0.00017132174
1.3907757e-06
-3.8016721e-06
-2.183853e-05
1.1624832e-05
-1.622718e-05
-8.6352573e-05
3.9423653e-05
-3.7582697e-05
-0.00018152663
8.9644562e-05
-6.5427685e-05
-0.0002782293
0.0001567905
-9.1433363e-05
-0.00032129438
0.0002058647
-0.00010690273
-0.00026927508
0.00021845586
-0.0001055041
-0.0001508759
0.00020016148
-9.5737101e-05
-3.851839e-05
-8.7050306e-05
2.8689086e-05
0.00017078779
1.3028595e-06
-4.1995636e-06
-2.1079575e-05
1.0814371e-05
-1.7929422e-05
-8.3792428e-05
3.6607815e-05
-4.1556227e-05
-0.00017751359
8.2968704e-05
-7.2454772e-05
-0.00027553312
0.00014638925
-0.0001010786
-0.00032481453
0.00019603438
-0.00011775914
-0.00028363602
0.00021056034
-0.00011486502
-0.00017170218
0.00019538226
-0.0001031851
-6.0107621e-05
-9.3030346e-05
1.0567578e-05
0.00016852999
1.1762775e-06
-4.3945156e-06
-2.0070317e-05
9.7486024e-06
-1.878813e-05
-8.0274651e-05
3.2986064e-05
-4.3619884e-05
-0.00017157569
7.4651036e-05
-7.6230129e-05
-0.00027008922
0.00013282728
-0.00010622584
-0.00032560323
0.00018323134
-0.00012235157
-0.00029847874
0.0001994141
-0.00011894994
-0.00019274848
0.00018796241
-0.00010589269
-8.3072612e-05
-9.4198665e-05
-9.4107626e-06
0.00016431519
1.0482952e-06
-4.3953668e-06
-1.8779294e-05
8.5904694e-06
-1.8812675e-05
-7.5620914e-05
2.8965147e-05
-4.3764276e-05
-0.00016319612
6.5450978e-05
-7.6710506e-05
-0.0002608246
0.00011723722
-0.00010666676
-0.00032192462
0.00016651982
-0.00012149609
-0.00030638765
0.00018477568
-0.00011839126
-0.00021190329
0.0001777664
-0.00010419532
-0.00010592269
-9.0569487e-05
-3.0404898e-05
0.00015806054
8.6457618e-07
-4.174478e-06
-1.7222431e-05
7.1667596e-06
-1.7936508e-05
-6.9866799e-05
2.4302477e-05
-4.1941991e-05
-0.00015235159
5.5413805e-05
-7.4132728e-05
-0.00024748624
9.9157636e-05
-0.00010413367
-0.00031292739
0.00014482002
-0.00011823341
-0.00030687859
0.0001661241
-0.00011453681
-0.00022755919
0.00016441696
-9.8775269e-05
-0.00012736253
-8.2577165e-05
-5.1559943e-05
0.00014962975
6.617873e-07
-3.7505735e-06
-1.5384531e-05
5.624192e-06
-1.6213692e-05
-6.2944251e-05
1.9268028e-05
-3.8213459e-05
-0.00013884783
4.4340151e-05
-6.8390794e-05
-0.00022942822
7.997862e-05
-9.7483841e-05
-0.00029761589
0.00012044202
-0.0001114116
-0.00030238
0.00014416582
-0.00010703553
-0.00023821077
0.00014775418
-8.963522e-05
-0.00014601293
-7.0802463e-05
-7.1788344e-05
0.00013877057
4.7618883e-07
-3.1653417e-06
-1.333641e-05
4.1733968e-06
-1.3801981e-05
-5.5076711e-05
1.4490963e-05
-3.2889653e-05
-0.00012301647
3.3636386e-05
-5.9757338e-05
-0.00020701381
6.1313689e-05
-8.6517785e-05
-0.00027572152
9.4666381e-05
-9.9449376e-05
-0.00029062347
0.0001192638
-9.3393149e-05
-0.00024320623
0.00012688976
-7.5784629e-05
-0.0001601697
-5.5819631e-05
-8.9338407e-05
0.00012408695
3.5963672e-07
-1.1208595e-05
-2.5153656e-06
3.1075377e-06
-4.6804451e-05
-1.1074763e-05
1.0639441e-05
-0.00010600882
-2.6571665e-05
2.4384182e-05
-0.00018193001
-4.8658827e-05
4.4451226e-05
-0.0002489414
-7.1152445e-05
6.8628264e-05
-0.00027213663
-8.2230411e-05
9.0384783e-05
-0.00023758695
-7.4377847e-05
9.9766126e-05
-0.00016817435
-5.575495e-05
-0.00010212691
-3.6312492e-05
0.00010065282
1.8100095e-07
8.5772109e-07
-1.1271608e-05
-9.7571175e-07
7.9785619e-07
3.3572443e-06
-4.6828974e-05
-3.9495965e-06
2.763061e-06
6.8746624e-06
-0.00010628038
-8.5683382e-06
8.5573657e-06
9.2094704e-06
-0.00018367951
-1.3254318e-05
2.1331626e-05
4.5047968e-06
-0.00025325308
-1.2967392e-05
4.2877798e-05
-1.5325419e-05
-0.00027804154
-3.157616e-07
7.0160303e-05
-5.2386852e-05
-0.0002414728
2.8990407e-05
9.7447911e-05
-9.3669211e-05
-0.0001675029
6.5710225e-05
-0.00011813848
-9.6936641e-05
9.3824841e-05
0.00011657072
2.6630799e-07
7.5418003e-07
-1.349918e-05
1.2857547e-06
2.7609181e-06
-5.5499834e-05
4.5354938e-06
5.0391412e-06
-0.00012443062
1.344907e-05
4.7614991e-06
-0.00021147911
3.1607396e-05
-4.4506472e-06
-0.00028492379
5.9418406e-05
-3.0699806e-05
-0.00030305958
8.9833009e-05
-7.4202087e-05
-0.00025180541
0.00011674501
-0.00011637073
-0.00016437985
-0.0001376474
-8.605007e-05
0.00013296565
3.8723067e-07
6.493279e-07
-1.5666944e-05
1.8908612e-06
2.17894e-06
-6.3866056e-05
6.4680064e-06
3.3003839e-06
-0.00014168644
1.8297947e-05
6.8881533e-07
-0.0002371856
4.1199971e-05
-1.2307176e-05
-0.00031266141
7.3591612e-05
-4.3118066e-05
-0.00032235333
0.00010685929
-8.9482328e-05
-0.00025619829
0.00013120766
-0.00013095258
-0.00015577948
-0.00014843791
-7.113668e-05
0.00014134644
5.2734873e-07
5.3420396e-07
-1.7634633e-05
2.5904099e-06
1.5998246e-06
-7.1350664e-05
8.6320116e-06
1.7090623e-06
-0.00015680156
2.3480132e-05
-2.7518281e-06
-0.00025889315
5.1005901e-05
-1.8345208e-05
-0.00033441486
8.7005604e-05
-5.1442233e-05
-0.00033455389
0.00012212209
-9.8062099e-05
-0.00025409571
0.00014328141
-0.00013687863
-0.0001425956
-0.00015069481
-5.3501278e-05
0.00014747987
6.5428516e-07
4.216294e-07
-1.9321046e-05
3.2327968e-06
1.0831043e-06
-7.7682665e-05
1.0661581e-05
4.0178833e-07
-0.00016931726
2.8503393e-05
-5.3019013e-06
-0.00027611578
6.0600617e-05
-2.2385169e-05
-0.00034998164
9.919009e-05
-5.63827e-05
-0.00034003604
0.00013591263
-0.00010028484
-0.00024640275
0.00015408418
-0.00013486371
-0.00012610907
-0.00014558872
-3.459918e-05
0.00015317237
7.6502043e-07
3.2027946e-07
-2.0734041e-05
3.8051144e-06
6.6107582e-07
-8.2892756e-05
1.250695e-05
-5.5606792e-07
-0.0001793194
3.3073525e-05
-6.8713402e-06
-0.00028908599
6.9185507e-05
-2.4194054e-05
-0.00035990603
0.0001112976
-5.7226519e-05
-0.00033974643
0.00014911499
-9.6531535e-05
-0.00023431902
0.00016464118
-0.00012603262
-0.00010742997
-0.00013424339
-1.5394922e-05
0.00015927996
8.5692841e-07
2.3458027e-07
-2.1850762e-05
4.2891681e-06
3.4992199e-07
-8.6913284e-05
1.4081748e-05
-1.1216368e-06
-0.00018674005
3.6957788e-05
-7.3774414e-06
-0.00029790284
7.6152084e-05
-2.3523369e-05
-0.0003646794
0.00012272469
-5.2865581e-05
-0.00033456953
0.00016098185
-8.7336429e-05
-0.00021915432
0.00017437258
-0.00011179466
-8.7736203e-05
-0.00011798667
3.2737952e-06
0.00016540979
9.3104926e-07
1.6474251e-07
-2.2699831e-05
4.6907125e-06
1.417365e-07
-8.9904072e-05
1.5417378e-05
-1.3373005e-06
-0.00019203735
4.0301975e-05
-6.9734606e-06
-0.00030351785
8.2384489e-05
-2.0976463e-05
-0.0003659235
0.00013220151
-4.5944641e-05
-0.00032601315
0.00017109882
-7.4128231e-05
-0.00020298122
0.00018289605
-9.3531792e-05
-6.8578141e-05
-9.8086607e-05
2.0494422e-05
0.000171191
9.8598762e-07
1.1121928e-07
-2.3320722e-05
4.9956533e-06
3.025689e-08
-9.2046454e-05
1.6454844e-05
-1.24387e-06
-0.00019567306
4.2962429e-05
-5.8056101e-06
-0.0003068722
8.7131586e-05
-1.6828608e-05
-0.00036510134
0.00014003148
-3.6136709e-05
-0.00031848517
0.0001793459
-5.7848309e-05
-0.00018766078
0.00018996583
-7.2377568e-05
-5.1384667e-05
-7.5575425e-05
3.5423026e-05
0.00017623486
1.0272413e-06
6.9428112e-08
-2.3748346e-05
5.2289727e-06
-1.191789e-08
-9.3493186e-05
1.7251179e-05
-9.3573515e-07
-0.00019801864
4.5052321e-05
-4.1161568e-06
-0.00030866898
9.0715531e-05
-1.1655179e-05
-0.00036335352
0.00014584586
-2.4838447e-05
-0.00031075793
0.0001856137
-3.9558217e-05
-0.00017472588
0.00019540468
-4.9250232e-05
-3.7368975e-05
-5.1291999e-05
4.7310738e-05
0.00018026047
1.059828e-06
3.2024179e-08
-2.4017358e-05
5.4110089e-06
-2.0209714e-08
-9.4355707e-05
1.7856413e-05
-5.0775801e-07
-0.00019928808
4.6600797e-05
-2.1374223e-06
-0.00030927793
9.3070048e-05
-5.9475461e-06
-0.0003613089
0.0001496698
-1.2640207e-05
-0.00030457971
0.00018977657
-2.0070046e-05
-0.00016524491
0.00019904366
-2.4914039e-05
-2.7450559e-05
-2.5907822e-05
5.5543396e-05
0.0001830064
1.0707407e-06
2.5651565e-11
-2.4134486e-05
5.477331e-06
7.8913345e-11
-9.4746261e-05
1.8107389e-05
1.4057815e-10
-0.0001998835
4.7305099e-05
9.7696016e-11
-0.00030957375
9.4037457e-05
-1.5879843e-10
-0.00036030148
0.00015140535
-5.5350383e-10
-0.00030147584
0.00019173924
-6.9327964e-10
-0.00016044908
0.00020080944
-2.6036421e-10
-2.2415895e-05
6.3328135e-10
5.9724993e-05
0.00018438325
1.0707518e-06
-3.196314e-08
-2.4134483e-05
5.4773485e-06
2.039577e-08
-9.4746248e-05
1.8107384e-05
5.0808362e-07
-0.00019988347
4.7305149e-05
2.1376622e-06
-0.00030957372
9.4037472e-05
5.947268e-06
-0.00036030145
0.00015140539
1.2639089e-05
-0.00030147583
0.00019173931
2.00686e-05
-0.0001604491
0.00020080949
2.4913465e-05
-2.2415919e-05
2.5909114e-05
5.9724971e-05
0.0001843832
1.0598297e-06
-6.9351412e-08
-2.4017358e-05
5.4109919e-06
1.2150711e-08
-9.4355706e-05
1.785635e-05
9.3613384e-07
-0.00019928808
4.6600917e-05
4.1164792e-06
-0.00030927794
9.3070097e-05
1.1654934e-05
-0.00036130892
0.00014966996
2.4837253e-05
-0.00030457976
0.00018977683
3.9556607e-05
-0.00016524498
0.00019904387
4.9249533e-05
-2.7450634e-05
5.1293396e-05
5.5543335e-05
0.00018300637
1.0272286e-06
-1.1114067e-07
-2.3748341e-05
5.2289043e-06
-3.00176e-08
-9.3493166e-05
1.7251035e-05
1.2442898e-06
-0.0001980186
4.5052422e-05
5.8059624e-06
-0.00030866894
9.0715478e-05
1.6828287e-05
-0.00036335349
0.00014584606
3.6135311e-05
-0.00031075796
0.00018561409
5.7846427e-05
-0.00017472597
0.00019540508
7.2376684e-05
-3.736909e-05
7.5576925e-05
4.7310639e-05
0.00018026069
9.8603794e-07
-1.6467116e-07
-2.3320719e-05
4.9957078e-06
-1.415305e-07
-9.2046444e-05
1.6454745e-05
1.3376942e-06
-0.00019567304
4.2962465e-05
6.9737895e-06
-0.00030687219
8.7131414e-05
2.0975961e-05
-0.00036510135
0.00014003171
4.5942987e-05
-0.00031848522
0.00017934643
7.4126086e-05
-0.0001876609
0.00018996647
9.3530742e-05
-5.1384813e-05
9.8088112e-05
3.5422898e-05
0.00017623547
9.3112299e-07
-2.344968e-07
-2.2699831e-05
4.6907826e-06
-3.4970667e-07
-8.9904074e-05
1.541716e-05
1.1220114e-06
-0.00019203736
4.0301809e-05
7.377687e-06
-0.00030351787
8.2384311e-05
2.3522688e-05
-0.00036592355
0.00013220182
5.2863809e-05
-0.00032601324
0.00017109947
8.7334172e-05
-0.00020298135
0.00018289689
0.00011179351
-6.8578303e-05
0.00011798798
2.0494278e-05
0.00017119192
8.5690777e-07
-3.2022948e-07
-2.1850764e-05
4.2890055e-06
-6.6095128e-07
-8.6913296e-05
1.4081294e-05
5.5625355e-07
-0.00018674009
3.6957504e-05
6.8713907e-06
-0.0002979029
7.6152116e-05
2.419335e-05
-0.00036467949
0.00012272508
5.7224874e-05
-0.00033456965
0.00016098251
9.6529413e-05
-0.00021915448
0.0001743734
0.00012603149
-8.7736369e-05
0.0001342444
3.2736528e-06
0.0001654107
7.650709e-07
-4.215729e-07
-2.0734047e-05
3.8052239e-06
-1.0829457e-06
-8.2892781e-05
1.2506949e-05
-4.0156762e-07
-0.00017931946
3.3073517e-05
5.3019653e-06
-0.00028908608
6.9185783e-05
2.2384462e-05
-0.00035990617
0.00011129795
5.6380983e-05
-0.00033974661
0.00014911553
0.00010028278
-0.0002343192
0.00016464177
0.00013486261
-0.00010743013
0.00014558967
-1.5395043e-05
0.00015928061
6.5435163e-07
-5.3414615e-07
-1.9321046e-05
3.2329463e-06
-1.5996887e-06
-7.7682665e-05
1.0661654e-05
-1.7088965e-06
-0.00016931726
2.8503416e-05
2.7517539e-06
-0.00027611581
6.0600993e-05
1.8344288e-05
-0.00034998171
9.9190414e-05
5.1440153e-05
-0.00034003616
0.0001359129
9.8059685e-05
-0.00024640289
0.00015408438
0.00013687729
-0.0001261092
0.00015069586
-3.4599261e-05
0.00015317281
5.2738593e-07
-6.4930009e-07
-1.763463e-05
2.5905526e-06
-2.1788953e-06
-7.135065e-05
8.6322218e-06
-3.3003856e-06
-0.00015680154
2.3480308e-05
-6.8913263e-07
-0.00025889313
5.100621e-05
1.230609e-05
-0.00033441487
8.7005797e-05
4.3115962e-05
-0.00033455397
0.0001221221
8.9479846e-05
-0.00025409581
0.00014328133
0.0001309513
-0.00014259568
0.000148439
-5.3501319e-05
0.00014748012
3.8727466e-07
-7.5415123e-07
-1.5666938e-05
1.8910535e-06
-2.7608655e-06
-6.3866034e-05
6.4683856e-06
-5.0391354e-06
-0.0001416864
1.8298335e-05
-4.7618008e-06
-0.00023718555
4.1200159e-05
4.44959e-06
-0.00031266138
7.3591453e-05
3.0697832e-05
-0.00032235336
0.00010685905
7.419982e-05
-0.00025619836
0.00013120728
0.00011636974
-0.00015577951
0.00013764778
-7.1136682e-05
0.00014134636
2.6633314e-07
-8.5771201e-07
-1.3499177e-05
1.2858858e-06
-3.3572536e-06
-5.5499824e-05
4.5357829e-06
-6.8747784e-06
-0.0001244306
1.3449398e-05
-9.2099392e-06
-0.00021147909
3.1607398e-05
-4.505963e-06
-0.0002849238
5.9417982e-05
1.5323526e-05
-0.00030305963
8.9832605e-05
5.2384768e-05
-0.00025180547
0.00011674376
9.3668123e-05
-0.00016437988
0.00011813838
-8.6050049e-05
0.00013296531
1.8101794e-07
-1.1271606e-05
-9.7573345e-07
7.9794957e-07
-4.6828969e-05
-3.9496982e-06
2.7633e-06
-0.00010628037
-8.5686215e-06
8.5577959e-06
-0.00018367951
-1.3255027e-05
2.1332063e-05
-0.0002532531
-1.296886e-05
4.287806e-05
-0.00027804158
-3.1810265e-07
7.0160654e-05
-0.00024147284
2.8988391e-05
9.7446573e-05
-0.00016750289
6.5709943e-05
-9.6936614e-05
9.3825341e-05
0.00011656967
-1.7344764e-09
6.0025272e-07
-1.133367e-05
-5.364555e-07
1.0736426e-07
2.3490319e-06
-4.7152539e-05
-2.1345572e-06
4.548415e-07
4.6671219e-06
-0.00010689067
-4.4042912e-06
1.3406728e-06
5.5031708e-06
-0.00018417876
-5.8897482e-06
4.0381243e-06
-2.4746549e-07
-0.00025304134
-2.6617258e-06
1.1658838e-05
-1.9550736e-05
-0.00027680378
1.0692384e-05
2.7156512e-05
-5.4757426e-05
-0.00023955642
3.7343582e-05
4.9683091e-05
-9.5331391e-05
-0.00016550341
7.0805195e-05
-0.00012322716
-9.53809e-05
9.7992532e-05
7.3361896e-05
2.1590658e-08
6.6432615e-07
-1.3584843e-05
3.189381e-07
2.5065633e-06
-5.5954722e-05
1.2312683e-06
4.672815e-06
-0.00012534867
3.3042132e-06
4.4511791e-06
-0.00021250009