/*--------------------------------*- C++ -*----------------------------------*\
| =========                 |                                                 |
| \\      /  F ield         | OpenFOAM: The Open Source CFD Toolbox           |
|  \\    /   O peration     | Version:  2406                                  |
|   \\  /    A nd           | Website:  www.openfoam.com                      |
|    \\/     M anipulation  |                                                 |
\*---------------------------------------------------------------------------*/
FoamFile
{
    version     2.0;
    format      ascii;
    arch        "LSB;label=32;scalar=64";
    class       volVectorField;
    location    "18.25";
    object      U;
}
// * * * * * * * * * * * * * * * * * * * * * * * * * * * * * * * * * * * * * //

dimensions      [0 1 -1 0 0 0 0];

internalField   nonuniform List<vector> 
34560
(
(-0.036496459 0.0088272283 0.009961062)
(-0.10592939 0.027769302 0.029300799)
(-0.1723836 0.051779384 0.046707487)
(-0.22017665 0.081328691 0.0566711)
(-0.23280128 0.11430888 0.055809424)
(-0.20295574 0.14777047 0.043877158)
(-0.1408078 0.17743763 0.025872424)
(-0.069864768 0.20017999 0.0090503602)
(-0.0079571119 0.21548814 0.00034638077)
(-0.039338817 0.0098818177 0.0101619)
(-0.11140803 0.030413403 0.029340332)
(-0.17590911 0.055614038 0.045205027)
(-0.21548634 0.085773564 0.051773498)
(-0.21452694 0.11849075 0.046532596)
(-0.17005859 0.15060164 0.031016243)
(-0.098470955 0.17780868 0.011672206)
(-0.023906088 0.1981091 -0.0037522954)
(0.037402249 0.21140139 -0.0093945393)
(-0.042016874 0.010488399 0.0097821723)
(-0.11644529 0.03188315 0.027815499)
(-0.17885759 0.05760473 0.04140005)
(-0.21047016 0.087670433 0.044439922)
(-0.19694598 0.11941928 0.035455359)
(-0.13985503 0.14957044 0.017364661)
(-0.061536493 0.17397517 -0.0024188105)
(0.014419095 0.19145528 -0.016376614)
(0.073818181 0.2019908 -0.019946363)
(-0.044233641 0.010883255 0.0092747392)
(-0.12017665 0.032680091 0.025916183)
(-0.17987572 0.058340264 0.03701738)
(-0.20362459 0.087593254 0.036508902)
(-0.17882014 0.1176334 0.024093871)
(-0.11182464 0.14510756 0.0039484239)
(-0.028621951 0.16658254 -0.015719188)
(0.047276216 0.18117967 -0.028013734)
(0.1041108 0.18911976 -0.029364773)
(-0.045996354 0.01082557 0.0085653213)
(-0.12272311 0.032260086 0.023518247)
(-0.17928241 0.057115096 0.032032652)
(-0.19543382 0.08490895 0.028173326)
(-0.16051405 0.11269589 0.012821732)
(-0.085738167 0.13716696 -0.0088003927)
(0.00093175272 0.15577593 -0.027998458)
(0.075856161 0.16766605 -0.038471461)
(0.12967715 0.17335979 -0.03777399)
(-0.047370237 0.010431774 0.0076940867)
(-0.12430871 0.030898363 0.020714944)
(-0.1774954 0.054265431 0.02663837)
(-0.18644997 0.079887849 0.0197435)
(-0.14253494 0.10488757 0.0019360582)
(-0.06152423 0.12620678 -0.020706507)
(0.027453318 0.14194828 -0.03913357)
(0.10084002 0.15135067 -0.047655382)
(0.15141563 0.15521019 -0.045084802)
(-0.048343357 0.0096560555 0.0067977817)
(-0.12498996 0.028452723 0.017879934)
(-0.17475758 0.049633741 0.021333326)
(-0.17716013 0.072487043 0.011712011)
(-0.125547 0.094324407 -0.0081390599)
(-0.039573041 0.11239782 -0.031415649)
(0.050881993 0.12529589 -0.048889638)
(0.12248297 0.13249824 -0.055501335)
(0.16983272 0.13493712 -0.051292454)
(-0.049038042 0.0084747858 0.0059148994)
(-0.12517604 0.024892284 0.015142181)
(-0.17180815 0.04321656 0.016366052)
(-0.16858535 0.062743622 0.0044201879)
(-0.11088282 0.081047902 -0.017066441)
(-0.02064898 0.095870694 -0.040673876)
(0.070858712 0.10609385 -0.05712991)
(0.14074082 0.11143642 -0.061985146)
(0.18513403 0.1128527 -0.056389347)
(-0.049537048 0.0069440439 0.0051163952)
(-0.125138 0.020362247 0.01269186)
(-0.16911865 0.035239235 0.012014351)
(-0.16129714 0.05094931 -0.0018164545)
(-0.09876413 0.06544095 -0.024536912)
(-0.0051616015 0.076992711 -0.048279662)
(0.087108513 0.08473572 -0.063772972)
(0.15550679 0.088539425 -0.067104958)
(0.19738355 0.089279254 -0.060383136)
(-0.049873751 0.0051590194 0.0044581824)
(-0.12498502 0.015107975 0.010686108)
(-0.16688329 0.026074129 0.0085107101)
(-0.15553817 0.037556956 -0.0067401876)
(-0.089421697 0.048007367 -0.030325885)
(0.0066748315 0.056287738 -0.054099381)
(0.099461839 0.061712601 -0.068765376)
(0.16668135 0.064236442 -0.070871842)
(0.20658192 0.064568296 -0.063289769)
(-0.050035266 0.0031896709 0.0039978308)
(-0.12469181 0.0093226054 0.0092897767)
(-0.16509327 0.016040386 0.0060881026)
(-0.15135499 0.023014138 -0.010109381)
(-0.082907747 0.029304101 -0.034270595)
(0.01475667 0.034289038 -0.058046931)
(0.10779977 0.037497616 -0.072075164)
(0.1741674 0.03892913 -0.073306486)
(0.21269288 0.039047063 -0.065135623)
(-0.05013844 0.0010527381 0.0037674103)
(-0.12462196 0.0030838422 0.0085961573)
(-0.16432572 0.0053256187 0.0048991121)
(-0.14940953 0.0076728702 -0.011760125)
(-0.079778144 0.0097954955 -0.036216291)
(0.018706207 0.011480141 -0.060000084)
(0.11191225 0.012556117 -0.073700872)
(0.17787412 0.013029636 -0.074486771)
(0.21571412 0.013062845 -0.066018612)
(-0.050138443 -0.0010526912 0.0037674121)
(-0.12462197 -0.003083782 0.008596207)
(-0.16432574 -0.005325588 0.0048991364)
(-0.14940953 -0.0076728725 -0.011760101)
(-0.079778138 -0.0097956937 -0.036216259)
(0.018706211 -0.011480451 -0.060000074)
(0.11191226 -0.01255654 -0.073700851)
(0.17787412 -0.013030096 -0.074486759)
(0.21571409 -0.013063178 -0.066018602)
(-0.05003527 -0.0031896811 0.0039978417)
(-0.12469183 -0.0093226184 0.0092898212)
(-0.1650933 -0.01604039 0.0060880932)
(-0.15135498 -0.023014165 -0.010109334)
(-0.082907729 -0.029304303 -0.034270524)
(0.014756676 -0.03428933 -0.05804692)
(0.10779977 -0.037498005 -0.072075108)
(0.17416738 -0.038929541 -0.073306449)
(0.21269282 -0.039047344 -0.065135596)
(-0.04987375 -0.0051590329 0.0044581923)
(-0.12498502 -0.015107992 0.010685998)
(-0.16688329 -0.026074135 0.0085105991)
(-0.15553815 -0.037557014 -0.0067401333)
(-0.089421696 -0.04800755 -0.030325834)
(0.0066748255 -0.056287989 -0.054099406)
(0.099461821 -0.061712935 -0.068765301)
(0.16668133 -0.064236777 -0.070871785)
(0.20658185 -0.064568501 -0.063289728)
(-0.049537052 -0.0069440382 0.0051163897)
(-0.12513801 -0.020362272 0.012691752)
(-0.16911868 -0.035239316 0.012014327)
(-0.16129717 -0.050949454 -0.0018163841)
(-0.098764165 -0.065441094 -0.024536954)
(-0.0051616122 -0.076992927 -0.048279728)
(0.087108501 -0.084736008 -0.063772886)
(0.15550679 -0.088539687 -0.06710489)
(0.19738351 -0.089279402 -0.060383076)
(-0.049038046 -0.0084748071 0.0059148962)
(-0.12517605 -0.02489235 0.015142227)
(-0.17180815 -0.043216697 0.016366024)
(-0.16858537 -0.062743781 0.0044200251)
(-0.11088284 -0.081047993 -0.017066646)
(-0.020648982 -0.095870949 -0.040673923)
(0.070858718 -0.10609415 -0.057129819)
(0.14074085 -0.11143665 -0.061985054)
(0.18513401 -0.11285284 -0.056389235)
(-0.04834335 -0.009656028 0.0067977803)
(-0.12498993 -0.028452688 0.017879905)
(-0.17475752 -0.049633775 0.021333112)
(-0.17716011 -0.072487212 0.011711747)
(-0.12554701 -0.094324609 -0.0081391381)
(-0.039573065 -0.11239824 -0.031415535)
(0.050881977 -0.12529627 -0.048889543)
(0.12248299 -0.1324985 -0.055501158)
(0.16983269 -0.13493725 -0.051292219)
(-0.04737023 -0.010431761 0.0076940652)
(-0.12430869 -0.030898296 0.020715038)
(-0.1774954 -0.05426542 0.026638548)
(-0.18645005 -0.07988811 0.019743571)
(-0.142535 -0.10488798 0.0019361277)
(-0.061524286 -0.12620737 -0.020706368)
(0.027453263 -0.14194883 -0.039133466)
(0.10084002 -0.15135109 -0.047655058)
(0.15141562 -0.15521023 -0.045084415)
(-0.045996355 -0.01082558 0.0085653266)
(-0.12272312 -0.032260068 0.02351837)
(-0.17928242 -0.057115124 0.032032726)
(-0.1954338 -0.08490913 0.02817323)
(-0.16051406 -0.11269628 0.012821798)
(-0.085738176 -0.13716746 -0.0088002184)
(0.00093172107 -0.15577661 -0.027998249)
(0.075856164 -0.16766664 -0.038471154)
(0.12967716 -0.17335969 -0.037773631)
(-0.044233635 -0.010883249 0.0092747346)
(-0.12017664 -0.032680054 0.025916225)
(-0.1798757 -0.058340179 0.037017479)
(-0.20362456 -0.087593232 0.036509081)
(-0.17882015 -0.11763375 0.024094139)
(-0.11182463 -0.14510805 0.0039486858)
(-0.028621967 -0.16658319 -0.015718906)
(0.047276209 -0.18118019 -0.028013675)
(0.1041108 -0.1891198 -0.029364556)
(-0.04201687 -0.010488397 0.0097821704)
(-0.11644529 -0.031883136 0.027815524)
(-0.17885758 -0.0576047 0.041400173)
(-0.21047012 -0.087670435 0.044440216)
(-0.19694591 -0.11941953 0.035455722)
(-0.13985501 -0.14957102 0.017364977)
(-0.061536478 -0.17397571 -0.002418668)
(0.014419078 -0.19145585 -0.016376478)
(0.073818259 -0.201991 -0.019946133)
(-0.039338818 -0.0098818178 0.010161897)
(-0.11140805 -0.030413377 0.029340367)
(-0.17590913 -0.055614006 0.045205127)
(-0.21548633 -0.085773523 0.051773752)
(-0.21452691 -0.11849081 0.046532916)
(-0.17005858 -0.15060205 0.031016375)
(-0.09847096 -0.17780926 0.011672345)
(-0.023906056 -0.19810986 -0.0037522344)
(0.037402327 -0.21140183 -0.0093947238)
(-0.036496455 -0.008827242 0.0099610754)
(-0.10592939 -0.027769335 0.029300852)
(-0.17238361 -0.051779428 0.046707616)
(-0.22017665 -0.08132875 0.056671354)
(-0.23280124 -0.11430899 0.055809722)
(-0.20295562 -0.14777064 0.043877387)
(-0.14080771 -0.17743799 0.02587279)
(-0.06986477 -0.20018054 0.0090502352)
(-0.0079570684 -0.21548842 0.00034611167)
(-0.073533765 0.0018875163 0.0016945373)
(-0.22244714 0.0060761373 0.0051378779)
(-0.38008882 0.011359964 0.0082792798)
(-0.5183842 0.017296534 0.0098783846)
(-0.6019218 0.022878876 0.008510576)
(-0.60671704 0.027076952 0.0032720725)
(-0.5391422 0.029697949 -0.0047980166)
(-0.43431358 0.03121887 -0.012737419)
(-0.33650443 0.031884488 -0.019239446)
(-0.080258392 0.0022821309 0.0018152069)
(-0.2391316 0.0072066927 0.0053987255)
(-0.40105069 0.013178633 0.008363932)
(-0.53332074 0.019532861 0.0092291048)
(-0.59898565 0.025098218 0.0064752296)
(-0.57871884 0.028995883 -0.00057720998)
(-0.48822276 0.031392474 -0.0097842073)
(-0.37180941 0.032161243 -0.017750665)
(-0.27170838 0.032081746 -0.023235693)
(-0.086465338 0.0025478758 0.0017551242)
(-0.25440868 0.0079830552 0.0051389181)
(-0.41991108 0.014440483 0.0076058196)
(-0.54606133 0.021067597 0.0075387455)
(-0.59509928 0.026644376 0.0033848165)
(-0.55298778 0.030374924 -0.0050914942)
(-0.44437656 0.032556475 -0.014762223)
(-0.32117536 0.032694168 -0.021930495)
(-0.22140317 0.032192074 -0.02583838)
(-0.091759187 0.0027227421 0.0016205694)
(-0.26699558 0.0084740818 0.0046480504)
(-0.43443641 0.015192447 0.0064485749)
(-0.55365809 0.021889495 0.005314126)
(-0.58682216 0.027344248 -0.00028338837)
(-0.52537156 0.030974805 -0.0099923753)
(-0.40342148 0.032679326 -0.01984105)
(-0.27726972 0.032209545 -0.025858854)
(-0.17970301 0.031340241 -0.028114024)
(-0.095993199 0.002763291 0.001416238)
(-0.276645 0.0085762812 0.003966761)
(-0.44449688 0.015305619 0.0050263919)
(-0.55622858 0.021900213 0.0028507739)
(-0.57451026 0.027232189 -0.0040888895)
(-0.49613411 0.030830019 -0.014843496)
(-0.36459603 0.031945284 -0.024671443)
(-0.23817381 0.030958863 -0.029493355)
(-0.14424017 0.029848074 -0.030214889)
(-0.099329781 0.0026932678 0.0011565373)
(-0.2838183 0.0083473592 0.0031260829)
(-0.45085194 0.014856166 0.0033689421)
(-0.55480296 0.021176411 0.00015166375)
(-0.55927688 0.026307179 -0.0079775482)
(-0.46621419 0.029749029 -0.019415623)
(-0.32794401 0.030318383 -0.028979757)
(-0.20297942 0.028994973 -0.032762669)
(-0.11355112 0.027744966 -0.032206496)
(-0.10183905 0.0025073941 0.00088572894)
(-0.28878468 0.0077609274 0.0022536667)
(-0.45407468 0.013782207 0.0016760272)
(-0.55037031 0.019587184 -0.0025597598)
(-0.54237303 0.024306447 -0.011793328)
(-0.43696639 0.027415764 -0.023694678)
(-0.2941285 0.027674071 -0.032777484)
(-0.1715385 0.02625651 -0.035640751)
(-0.086912336 0.024983525 -0.034039823)
(-0.10364753 0.0022035864 0.00061949642)
(-0.29203895 0.0068226609 0.0014065607)
(-0.45517842 0.012105287 7.1333727e-05)
(-0.54440028 0.01717725 -0.0050714253)
(-0.52532656 0.021334997 -0.015216622)
(-0.41016218 0.023957214 -0.027495202)
(-0.26427461 0.024083067 -0.036058377)
(-0.14427002 0.02274499 -0.038078333)
(-0.064195762 0.021558662 -0.03562512)
(-0.10491012 0.0018028918 0.00038134174)
(-0.29408524 0.0055891507 0.00065612583)
(-0.45509793 0.0099166535 -0.0013230338)
(-0.5382947 0.014068506 -0.007219492)
(-0.5101061 0.017516978 -0.018105952)
(-0.38730386 0.019618274 -0.030649981)
(-0.23935341 0.019669171 -0.03872593)
(-0.12170247 0.018519046 -0.04000757)
(-0.045560295 0.017510368 -0.036876787)
(-0.10573801 0.0013373049 0.00018834743)
(-0.29526961 0.00415002 5.2098821e-05)
(-0.45444023 0.0073647496 -0.0024288465)
(-0.53290172 0.010458007 -0.0089087587)
(-0.49775335 0.013062584 -0.020357936)
(-0.36932635 0.014585423 -0.033058653)
(-0.22004901 0.014582249 -0.040714633)
(-0.10431283 0.013699239 -0.041396407)
(-0.031272645 0.012932621 -0.037755319)
(-0.10625626 0.00083080159 5.1397272e-05)
(-0.29585733 0.0025753447 -0.00037941928)
(-0.45354449 0.0045657174 -0.00322488)
(-0.52862081 0.0064846901 -0.010117645)
(-0.48875943 0.0081044266 -0.021915911)
(-0.35673483 0.0090118436 -0.034663509)
(-0.20679625 0.0089863688 -0.042011112)
(-0.092472082 0.008427346 -0.042266395)
(-0.021592206 0.0079456969 -0.038283681)
(-0.10645883 0.00027786639 -1.5791164e-05)
(-0.29607578 0.00086125592 -0.0005915144)
(-0.45307965 0.0015313156 -0.0036145715)
(-0.52654146 0.0021801507 -0.010705315)
(-0.48435284 0.0027255774 -0.022672499)
(-0.35050342 0.0030267257 -0.035448948)
(-0.2001933 0.0030167821 -0.042642847)
(-0.08653983 0.0028316489 -0.042679083)
(-0.016728361 0.0026751436 -0.038525352)
(-0.10645883 -0.00027783381 -1.5789814e-05)
(-0.29607579 -0.00086119421 -0.00059149847)
(-0.45307967 -0.0015312453 -0.0036145614)
(-0.52654147 -0.0021801128 -0.010705311)
(-0.48435285 -0.0027256462 -0.022672497)
(-0.35050343 -0.0030269062 -0.035448951)
(-0.20019331 -0.0030170163 -0.042642852)
(-0.086539843 -0.0028318218 -0.042679088)
(-0.016728369 -0.0026751355 -0.038525348)
(-0.10625626 -0.00083078197 5.1398255e-05)
(-0.29585735 -0.0025753007 -0.00037940437)
(-0.45354452 -0.0045656549 -0.003224878)
(-0.52862084 -0.0064846591 -0.010117645)
(-0.48875945 -0.0081045036 -0.021915907)
(-0.35673487 -0.009012041 -0.034663516)
(-0.2067963 -0.0089866237 -0.042011124)
(-0.092472119 -0.0084275327 -0.04226641)
(-0.021592227 -0.0079456811 -0.038283677)
(-0.10573801 -0.0013372882 0.00018834171)
(-0.29526962 -0.0041499821 5.206254e-05)
(-0.45444025 -0.0073646903 -0.002428887)
(-0.53290176 -0.010457988 -0.0089087707)
(-0.4977534 -0.013062675 -0.020357932)
(-0.36932641 -0.014585646 -0.033058653)
(-0.22004908 -0.014582536 -0.040714642)
(-0.10431289 -0.013699444 -0.041396433)
(-0.031272675 -0.012932587 -0.037755333)
(-0.10491012 -0.001802868 0.00038133172)
(-0.29408525 -0.0055891075 0.00065607044)
(-0.45509795 -0.0099165988 -0.0013230808)
(-0.53829477 -0.014068502 -0.0072195048)
(-0.51010616 -0.017517082 -0.018105952)
(-0.38730391 -0.01961852 -0.030649968)
(-0.23935348 -0.019669486 -0.038725931)
(-0.12170254 -0.018519265 -0.040007615)
(-0.045560337 -0.01751031 -0.036876841)
(-0.10364753 -0.0022035646 0.00061949099)
(-0.29203898 -0.0068226231 0.0014065286)
(-0.45517844 -0.012105242 7.1296589e-05)
(-0.54440032 -0.017177253 -0.0050714578)
(-0.5253266 -0.021335113 -0.015216635)
(-0.41016223 -0.023957479 -0.027495174)
(-0.26427469 -0.024083398 -0.036058376)
(-0.14427011 -0.022745214 -0.0380784)
(-0.064195823 -0.021558602 -0.035625219)
(-0.10183904 -0.0025073623 0.00088571693)
(-0.28878466 -0.0077608741 0.0022536172)
(-0.45407462 -0.013782151 0.0016759758)
(-0.5503703 -0.019587195 -0.002559793)
(-0.54237307 -0.024306589 -0.011793324)
(-0.4369665 -0.027416048 -0.023694634)
(-0.29412863 -0.027674405 -0.032777487)
(-0.17153861 -0.026256735 -0.035640814)
(-0.08691241 -0.024983492 -0.034039923)
(-0.099329778 -0.002693241 0.0011565308)
(-0.2838183 -0.00834731 0.0031260794)
(-0.45085194 -0.014856123 0.0033689618)
(-0.55480299 -0.021176455 0.00015167509)
(-0.55927692 -0.026307381 -0.0079775327)
(-0.46621431 -0.029749353 -0.01941558)
(-0.32794415 -0.030318731 -0.028979743)
(-0.20297953 -0.028995194 -0.032762672)
(-0.11355117 -0.027744918 -0.032206538)
(-0.095993192 -0.0027632637 0.0014162293)
(-0.27664499 -0.0085762271 0.0039667517)
(-0.44449686 -0.015305581 0.0050263526)
(-0.55622853 -0.021900264 0.0028507188)
(-0.57451028 -0.027232431 -0.0040888968)
(-0.49613418 -0.03083039 -0.014843455)
(-0.36459611 -0.031945674 -0.024671391)
(-0.23817386 -0.030959087 -0.02949329)
(-0.1442402 -0.029847951 -0.030214892)
(-0.091759183 -0.0027227227 0.0016205614)
(-0.26699558 -0.0084740359 0.0046480586)
(-0.43443642 -0.015192406 0.0064486013)
(-0.55365809 -0.021889524 0.0053141942)
(-0.58682224 -0.027344472 -0.00028330405)
(-0.5253716 -0.030975181 -0.0099922948)
(-0.40342152 -0.03267971 -0.019840952)
(-0.27726972 -0.032209719 -0.025858784)
(-0.17970302 -0.031340083 -0.028114061)
(-0.086465324 -0.0025478679 0.0017551194)
(-0.25440865 -0.0079830515 0.0051389135)
(-0.41991104 -0.014440512 0.0076058145)
(-0.54606124 -0.021067695 0.0075387691)
(-0.59509916 -0.026644607 0.0033848842)
(-0.55298774 -0.030375316 -0.0050913554)
(-0.44437652 -0.032556878 -0.014762067)
(-0.32117537 -0.032694315 -0.021930385)
(-0.22140317 -0.032191844 -0.025838422)
(-0.080258382 -0.0022821225 0.0018152011)
(-0.23913159 -0.0072066881 0.0053987231)
(-0.40105068 -0.013178659 0.0083639464)
(-0.53332071 -0.01953295 0.0092291858)
(-0.59898559 -0.025098409 0.0064754132)
(-0.57871883 -0.028996206 -0.00057696383)
(-0.48822275 -0.031392856 -0.0097840606)
(-0.37180931 -0.032161458 -0.017750682)
(-0.27170832 -0.032081601 -0.023235827)
(-0.073533747 -0.0018875343 0.001694553)
(-0.22244711 -0.0060761906 0.0051379329)
(-0.38008877 -0.011360068 0.0082793851)
(-0.51838415 -0.017296712 0.0098785679)
(-0.60192172 -0.022879165 0.0085108418)
(-0.60671686 -0.027077351 0.00327242)
(-0.53914206 -0.029698341 -0.0047978106)
(-0.43431345 -0.031219 -0.012737635)
(-0.33650422 -0.031884543 -0.019239694)
(-0.062700444 0.00061933983 0.00054601465)
(-0.19066749 0.0017975233 0.0015350405)
(-0.3273311 0.0029815519 0.0022051879)
(-0.44791744 0.0038247129 0.0019546618)
(-0.5193592 0.0038844949 -0.0001779443)
(-0.51639792 0.0026407638 -0.0049475787)
(-0.44213418 -0.00015468215 -0.012012838)
(-0.33123379 -0.00397444 -0.019421514)
(-0.22566275 -0.0075217972 -0.025152601)
(-0.06829388 0.00052587668 0.00039886118)
(-0.20493917 0.0014387278 0.0010490086)
(-0.34599797 0.0022256402 0.0012235438)
(-0.46237404 0.0025262622 0.00023559104)
(-0.51839491 0.0019340246 -0.0029761276)
(-0.49146729 -2.29712e-05 -0.0090875178)
(-0.39339214 -0.003451213 -0.017300965)
(-0.26780256 -0.007341933 -0.025139773)
(-0.15642337 -0.010541879 -0.030459489)
(-0.073516629 0.00045981878 0.00028945221)
(-0.21832155 0.001173466 0.00068313935)
(-0.36358127 0.0016533925 0.00047156312)
(-0.47619476 0.0015464331 -0.0010816788)
(-0.51834418 0.00052090612 -0.0050856081)
(-0.47053461 -0.0017847657 -0.012124535)
(-0.35334976 -0.0052602028 -0.02111253)
(-0.21696616 -0.0087269322 -0.029077409)
(-0.10272053 -0.011412865 -0.033658257)
(-0.077998917 0.00038295212 0.00019201394)
(-0.22958435 0.00089867804 0.00036754998)
(-0.37786194 0.0011127147 -0.00017056863)
(-0.48627596 0.00069487529 -0.0022040347)
(-0.51550054 -0.00060173368 -0.0068920511)
(-0.44942827 -0.0030372818 -0.014641238)
(-0.31694908 -0.0063384405 -0.024123619)
(-0.1731297 -0.0093890959 -0.03207306)
(-0.057936503 -0.011734673 -0.035946835)
(-0.081560003 0.00030857532 0.00011635526)
(-0.23831219 0.00065133714 0.00012897329)
(-0.3883191 0.00065072318 -0.00065443672)
(-0.49209408 1.3467454e-05 -0.0030783041)
(-0.50925905 -0.0014386594 -0.0083592163)
(-0.42722512 -0.0039142557 -0.016686847)
(-0.28252933 -0.0068699518 -0.02646728)
(-0.1340049 -0.0094301039 -0.034340256)
(-0.019584823 -0.011447756 -0.037561443)
(-0.084322647 0.00024179924 5.8136255e-05)
(-0.2448034 0.00044623212 -4.4625729e-05)
(-0.3953592 0.00028983855 -0.00099845963)
(-0.49407688 -0.00048271082 -0.0036959008)
(-0.4999846 -0.0020090846 -0.0094260004)
(-0.40414218 -0.0044056569 -0.018274512)
(-0.24957398 -0.0068705792 -0.028316311)
(-0.098435737 -0.0089020916 -0.036064976)
(0.01387194 -0.010630288 -0.03871868)
(-0.086354825 0.00018182105 1.6037251e-05)
(-0.24927112 0.00027984039 -0.00016233046)
(-0.39938203 2.5094408e-05 -0.0012260121)
(-0.4928295 -0.00079522991 -0.0040962969)
(-0.4884244 -0.0022698485 -0.010123792)
(-0.38080073 -0.0043995839 -0.019421281)
(-0.21838864 -0.0063880317 -0.02976401)
(-0.066170011 -0.0079614622 -0.037360502)
(0.043200314 -0.0094238885 -0.039539516)
(-0.087761217 0.00013207438 -1.2507577e-05)
(-0.25211741 0.00015903014 -0.00023545428)
(-0.40120089 -0.00013279433 -0.0013624481)
(-0.48961378 -0.00090910706 -0.0043472486)
(-0.47613047 -0.0022151469 -0.010590856)
(-0.35861746 -0.0039888931 -0.020207363)
(-0.19009218 -0.0055659726 -0.030793671)
(-0.037708584 -0.0067735519 -0.038257029)
(0.068479347 -0.0079579584 -0.040094754)
(-0.088686334 9.2225282e-05 -3.0745972e-05)
(-0.25379814 7.9559892e-05 -0.00027624835)
(-0.40163292 -0.0001982663 -0.001433106)
(-0.48561072 -0.00086350384 -0.0044787971)
(-0.46453353 -0.001934205 -0.010854823)
(-0.33905002 -0.0033280162 -0.020723637)
(-0.16581901 -0.0045131458 -0.03151869)
(-0.013747809 -0.0054083029 -0.038862156)
(0.089444111 -0.0063254502 -0.040442435)
(-0.08925063 6.1268558e-05 -4.1786217e-05)
(-0.25467735 3.6165768e-05 -0.00029700038)
(-0.40130397 -0.00018709418 -0.001466319)
(-0.48169167 -0.00068874952 -0.0045477481)
(-0.45470238 -0.001469265 -0.011000322)
(-0.32317449 -0.0024670091 -0.02102867)
(-0.14655991 -0.0033047085 -0.031979171)
(0.005003228 -0.0039308071 -0.039237994)
(0.1056805 -0.004587226 -0.04063035)
(-0.08960805 3.4704047e-05 -4.856552e-05)
(-0.25510568 1.3447422e-05 -0.00030881889)
(-0.40068314 -0.00012951583 -0.0014879707)
(-0.47840769 -0.00043709003 -0.0045968426)
(-0.44730296 -0.00090696027 -0.011087781)
(-0.3117612 -0.001510132 -0.021196351)
(-0.13306763 -0.0020110735 -0.032244958)
(0.01793699 -0.002383263 -0.039448507)
(0.11676902 -0.0027798653 -0.040717064)
(-0.089718281 1.0169724e-05 -5.1240939e-05)
(-0.25520453 -7.0800727e-07 -0.00031186928)
(-0.40029322 -5.2290015e-05 -0.0014926467)
(-0.47676207 -0.00015790937 -0.0046121149)
(-0.44364194 -0.00031535969 -0.011111981)
(-0.306071 -0.00051781185 -0.021251461)
(-0.12629332 -0.00068246357 -0.032355861)
(0.024455851 -0.00080315175 -0.039538404)
(0.1223667 -0.00093279962 -0.040748956)
(-0.089718281 -1.0134777e-05 -5.1241658e-05)
(-0.25520453 7.8526753e-07 -0.00031187253)
(-0.40029322 5.2391207e-05 -0.0014926498)
(-0.47676207 0.0001579666 -0.0046121203)
(-0.44364195 0.00031530819 -0.011111988)
(-0.30607102 0.00051763429 -0.021251468)
(-0.12629335 0.00068225581 -0.032355873)
(0.024455822 0.00080307153 -0.039538417)
(0.12236667 0.00093298855 -0.040748966)
(-0.08960805 -3.4661868e-05 -4.8568515e-05)
(-0.25510568 -1.3356177e-05 -0.00030883121)
(-0.40068314 0.00012963441 -0.0014879788)
(-0.4784077 0.00043716398 -0.0045968578)
(-0.44730298 0.00090691632 -0.011087798)
(-0.31176126 0.0015099449 -0.021196362)
(-0.13306771 0.0020108439 -0.032244985)
(0.017936905 0.0023831659 -0.039448547)
(0.11676895 0.0027800631 -0.040717104)
(-0.089250628 -6.1220972e-05 -4.1792851e-05)
(-0.25467735 -3.6066114e-05 -0.00029702539)
(-0.40130398 0.00018722633 -0.0014663363)
(-0.48169171 0.00068883591 -0.0045477761)
(-0.45470243 0.0014692166 -0.011000339)
(-0.32317458 0.0024667966 -0.021028669)
(-0.14656004 0.0033044402 -0.031979203)
(0.0050030919 0.0039306811 -0.039238062)
(0.10568038 0.0045874348 -0.040630441)
(-0.088686333 -9.2176191e-05 -3.075594e-05)
(-0.25379815 -7.9458124e-05 -0.00027628644)
(-0.40163294 0.0001984045 -0.0014331457)
(-0.48561077 0.00086359089 -0.0044788381)
(-0.46453358 0.0019341298 -0.010854825)
(-0.33905013 0.0033277651 -0.020723611)
(-0.16581916 0.0045128335 -0.031518717)
(-0.013747982 0.0054081441 -0.038862251)
(0.089443955 0.0063256607 -0.040442597)
(-0.087761216 -0.00013202376 -1.2520406e-05)
(-0.25211742 -0.00015892833 -0.0002355095)
(-0.40120091 0.00013293103 -0.0013624978)
(-0.48961383 0.00090918095 -0.0043472698)
(-0.47613053 0.0022150317 -0.010590822)
(-0.35861757 0.0039886077 -0.020207315)
(-0.19009234 0.0055656273 -0.030793691)
(-0.037708777 0.0067733672 -0.038257145)
(0.068479165 0.0079581556 -0.04009497)
(-0.086354821 -0.00018177744 1.6021938e-05)
(-0.24927113 -0.00027975795 -0.000162379)
(-0.39938205 -2.4984868e-05 -0.0012260263)
(-0.49282955 0.0007952768 -0.0040962723)
(-0.48842447 0.0022697083 -0.010123741)
(-0.38080084 0.0043992873 -0.019421236)
(-0.2183888 0.0063876787 -0.029764017)
(-0.066170209 0.007961272 -0.037360612)
(0.043200124 0.009424071 -0.039539733)
(-0.084322642 -0.00024176461 5.8121549e-05)
(-0.2448034 -0.00044617082 -4.4665711e-05)
(-0.3953592 -0.00028976966 -0.00099849706)
(-0.4940769 0.00048272126 -0.0036959145)
(-0.49998467 0.0020089234 -0.0094259776)
(-0.40414231 0.0044053498 -0.018274463)
(-0.24957415 0.0068702424 -0.028316282)
(-0.098435924 0.0089019333 -0.036065037)
(0.013871773 0.010630491 -0.03871884)
(-0.081559993 -0.00030854082 0.0001163403)
(-0.23831218 -0.00065128524 0.00012892176)
(-0.38831908 -0.00065067312 -0.00065449412)
(-0.49209409 -1.3484514e-05 -0.0030783243)
(-0.50925913 0.0014384671 -0.0083591796)
(-0.42722525 0.0039139041 -0.016686766)
(-0.28252949 0.0068696111 -0.026467191)
(-0.13400506 0.0094299938 -0.034340218)
(-0.019584944 0.011448041 -0.037561529)
(-0.077998908 -0.00038292361 0.00019199864)
(-0.22958433 -0.00089863869 0.00036751167)
(-0.37786193 -0.0011126961 -0.00017060792)
(-0.48627597 -0.00069494484 -0.0022040337)
(-0.51550061 0.00060150157 -0.0068919805)
(-0.44942839 0.0030369017 -0.014641095)
(-0.31694922 0.0063380983 -0.024123444)
(-0.17312981 0.009389055 -0.032072921)
(-0.057936579 0.011735084 -0.035946841)
(-0.073516615 -0.00045979841 0.00028943913)
(-0.21832152 -0.0011734439 0.00068311073)
(-0.36358124 -0.0016534076 0.00047152841)
(-0.47619474 -0.001546552 -0.0010816817)
(-0.51834421 -0.0005211728 -0.0050855118)
(-0.47053471 0.0017843946 -0.012124312)
(-0.35334988 0.0052599113 -0.021112266)
(-0.21696623 0.0087270461 -0.029077227)
(-0.10272056 0.011413316 -0.033658128)
(-0.068293863 -0.0005258654 0.00039885207)
(-0.20493913 -0.0014387308 0.0010489892)
(-0.34599792 -0.0022256874 0.0012235365)
(-0.462374 -0.0025264119 0.00023563876)
(-0.51839492 -0.001934305 -0.0029759581)
(-0.49146737 2.2635806e-05 -0.0090872192)
(-0.39339221 0.0034509853 -0.017300696)
(-0.26780258 0.0073421255 -0.025139422)
(-0.15642335 0.010542461 -0.030459245)
(-0.062700423 -0.00061934369 0.00054601793)
(-0.19066744 -0.0017975508 0.0015350574)
(-0.32733102 -0.0029816285 0.0022052323)
(-0.44791736 -0.0038248843 0.0019547683)
(-0.51935916 -0.0038847895 -0.0001777197)
(-0.51639793 -0.0026411076 -0.0049471934)
(-0.4421342 0.00015449436 -0.012012463)
(-0.33123375 0.0039745992 -0.019421139)
(-0.22566269 0.0075220562 -0.025152327)
(-0.067631443 0.00038577592 0.00034829369)
(-0.20514077 0.0011108553 0.00096950183)
(-0.35153574 0.0017270131 0.0013916821)
(-0.48065918 0.0018312543 0.0012451889)
(-0.55802421 0.00079709315 8.8707046e-05)
(-0.55758422 -0.0019481499 -0.002502243)
(-0.48260387 -0.0064687371 -0.0065743564)
(-0.3675395 -0.011946962 -0.011379634)
(-0.25710295 -0.017120937 -0.015785119)
(-0.073912881 0.00041189866 0.00032625336)
(-0.2212859 0.0011422178 0.00087371435)
(-0.3731415 0.0016762369 0.0011315185)
(-0.49896583 0.0015211754 0.00066313329)
(-0.56177192 -4.2572351e-05 -0.0010401989)
(-0.53832158 -0.003594184 -0.0044039403)
(-0.44011892 -0.0089921212 -0.0093141496)
(-0.30946768 -0.015021762 -0.01470092)
(-0.1917597 -0.020105578 -0.0193086)
(-0.079822229 0.00044177602 0.00029811654)
(-0.23657788 0.0011853978 0.00075720805)
(-0.39381167 0.0016557434 0.0008342778)
(-0.51701109 0.0012947101 5.8494714e-05)
(-0.56711655 -0.0006565925 -0.0021021088)
(-0.5239748 -0.0047201861 -0.006056035)
(-0.40681109 -0.010537769 -0.011519274)
(-0.2643627 -0.016614697 -0.017133199)
(-0.14220799 -0.021357172 -0.021362218)
(-0.084938878 0.00043508449 0.00024605781)
(-0.24962922 0.0011283628 0.00057463696)
(-0.41105292 0.0014861396 0.00043361638)
(-0.53130033 0.00091470493 -0.00066521454)
(-0.56985312 -0.001348811 -0.0032506171)
(-0.50973262 -0.0057478871 -0.0076831846)
(-0.37707922 -0.011747591 -0.013483669)
(-0.22596118 -0.017647165 -0.019039085)
(-0.10124418 -0.021918822 -0.022689859)
(-0.089065471 0.0003981416 0.00018506353)
(-0.25997614 0.00099003118 0.0003732934)
(-0.42425485 0.0011990285 2.2555194e-05)
(-0.54114008 0.00042767424 -0.0013605869)
(-0.56908517 -0.0020659483 -0.0042891241)
(-0.49423805 -0.0066171323 -0.0090429397)
(-0.34892678 -0.012567789 -0.014970073)
(-0.19166391 -0.018107088 -0.020265202)
(-0.06611222 -0.021744463 -0.023279977)
(-0.092328143 0.00034067843 0.00012243076)
(-0.26791556 0.00080061602 0.00017634529)
(-0.43379106 0.00084530732 -0.00035234689)
(-0.54684879 -9.8404145e-05 -0.0019421229)
(-0.56493938 -0.0026982083 -0.005072298)
(-0.4772304 -0.0071862666 -0.0099701211)
(-0.32157159 -0.01283247 -0.015843944)
(-0.16020201 -0.017854669 -0.020739169)
(-0.03526407 -0.020802848 -0.023160585)
(-0.094793558 0.00027109944 6.8078111e-05)
(-0.27365755 0.00058621586 1.1984309e-05)
(-0.44005152 0.00047656474 -0.00064691382)
(-0.5490066 -0.00057608514 -0.0023591514)
(-0.55808573 -0.0031436058 -0.0055638389)
(-0.4592587 -0.0073510584 -0.010463352)
(-0.29523491 -0.012453467 -0.016155051)
(-0.13132924 -0.016827543 -0.020588344)
(-0.0080451762 -0.019117391 -0.022507892)
(-0.096566899 0.00020204808 2.6388944e-05)
(-0.27760106 0.00038849604 -0.00010692963)
(-0.4438325 0.00016863687 -0.00084189846)
(-0.5488219 -0.000899466 -0.0025952949)
(-0.5499939 -0.0032715199 -0.0057699705)
(-0.44175835 -0.0069769133 -0.010566309)
(-0.27102283 -0.011372232 -0.016019265)
(-0.10560814 -0.014998968 -0.020034209)
(0.015507059 -0.016727676 -0.021551943)
(-0.097792739 0.00013991285 -2.9413364e-06)
(-0.28019502 0.00022825525 -0.0001839699)
(-0.44592454 -4.0022665e-05 -0.00095292592)
(-0.54740617 -0.0010168391 -0.0026991748)