/*--------------------------------*- C++ -*----------------------------------*\
  =========                 |
  \\      /  F ield         | OpenFOAM: The Open Source CFD Toolbox
   \\    /   O peration     | Website:  https://openfoam.org
    \\  /    A nd           | Version:  10
     \\/     M anipulation  |
\*---------------------------------------------------------------------------*/
FoamFile
{
    format      ascii;
    class       volScalarField;
    location    "16";
    object      T;
}
// * * * * * * * * * * * * * * * * * * * * * * * * * * * * * * * * * * * * * //

dimensions      [0 0 0 1 0 0 0];

internalField   nonuniform List<scalar> 
10000
(
374.973
361.244
356.532
354.45
353.305
352.572
352.052
351.656
351.34
351.079
350.855
350.661
350.488
350.332
350.19
350.058
349.936
349.822
349.714
349.612
349.515
349.422
349.333
349.247
349.165
349.086
349.009
348.935
348.863
348.794
348.726
348.66
348.597
348.535
348.475
348.416
348.359
348.304
348.25
348.198
348.147
348.098
348.05
348.003
347.958
347.914
347.871
347.829
347.789
347.75
347.712
347.675
347.64
347.605
347.572
347.539
347.508
347.478
347.449
347.421
347.394
347.367
347.342
347.318
347.295
347.272
347.25
347.23
347.21
347.191
347.173
347.155
347.139
347.123
347.107
347.093
347.079
347.066
347.054
347.043
347.032
347.021
347.012
347.003
346.994
346.987
346.979
346.973
346.967
346.961
346.957
346.952
346.949
346.945
346.943
346.941
346.939
346.938
346.937
346.938
388.569
374.711
366.96
362.402
359.498
357.496
356.024
354.882
353.96
353.19
352.531
351.954
351.44
350.976
350.551
350.159
349.795
349.453
349.13
348.824
348.533
348.255
347.989
347.733
347.486
347.249
347.019
346.797
346.581
346.373
346.17
345.974
345.783
345.597
345.417
345.242
345.071
344.905
344.744
344.587
344.435
344.287
344.143
344.003
343.867
343.735
343.606
343.482
343.361
343.244
343.13
343.02
342.913
342.809
342.709
342.612
342.519
342.428
342.341
342.256
342.175
342.096
342.021
341.948
341.878
341.81
341.745
341.683
341.624
341.567
341.512
341.46
341.41
341.362
341.317
341.273
341.232
341.194
341.157
341.122
341.089
341.058
341.03
341.003
340.977
340.954
340.933
340.913
340.895
340.879
340.864
340.851
340.84
340.83
340.822
340.816
340.811
340.808
340.807
340.807
393.152
382.078
374.199
368.706
364.791
361.896
359.669
357.893
356.432
355.197
354.129
353.189
352.348
351.585
350.886
350.24
349.637
349.071
348.536
348.029
347.546
347.084
346.642
346.216
345.807
345.411
345.029
344.66
344.302
343.954
343.617
343.29
342.972
342.664
342.363
342.071
341.788
341.511
341.243
340.982
340.728
340.481
340.241
340.008
339.782
339.562
339.348
339.14
338.939
338.744
338.554
338.371
338.193
338.02
337.854
337.692
337.536
337.385
337.24
337.099
336.963
336.832
336.706
336.585
336.468
336.356
336.248
336.144
336.045
335.95
335.859
335.772
335.689
335.609
335.534
335.462
335.393
335.329
335.267
335.209
335.155
335.103
335.055
335.01
334.969
334.93
334.894
334.861
334.831
334.804
334.78
334.758
334.74
334.724
334.71
334.7
334.692
334.687
334.684
334.684
395.107
386.252
379.054
373.433
369.066
365.628
362.865
360.592
358.68
357.039
355.604
354.329
353.181
352.136
351.174
350.281
349.447
348.662
347.92
347.216
346.544
345.901
345.285
344.692
344.12
343.569
343.035
342.519
342.019
341.534
341.063
340.606
340.162
339.73
339.311
338.903
338.506
338.12
337.745
337.379
337.024
336.679
336.344
336.018
335.701
335.393
335.094
334.804
334.522
334.249
333.984
333.727
333.478
333.237
333.004
332.778
332.56
332.349
332.145
331.948
331.758
331.575
331.399
331.229
331.066
330.909
330.758
330.613
330.474
330.341
330.213
330.091
329.975
329.864
329.758
329.657
329.562
329.471
329.385
329.304
329.228
329.156
329.089
329.026
328.967
328.913
328.863
328.817
328.775
328.737
328.703
328.673
328.647
328.625
328.606
328.591
328.58
328.573
328.569
328.57
396.124
388.774
382.331
376.907
372.413
368.689
365.574
362.934
360.662
358.679
356.923
355.347
353.918
352.609
351.399
350.272
349.215
348.219
347.276
346.378
345.522
344.701
343.913
343.155
342.424
341.718
341.035
340.374
339.733
339.112
338.508
337.922
337.352
336.798
336.26
335.736
335.227
334.732
334.25
333.781
333.326
332.882
332.452
332.033
331.626
331.231
330.847
330.474
330.112
329.762
329.421
329.091
328.772
328.462
328.162
327.872
327.592
327.321
327.059
326.807
326.563
326.328
326.101
325.883
325.673
325.471
325.277
325.091
324.913
324.742
324.578
324.421
324.272
324.129
323.993
323.864
323.741
323.625
323.514
323.41
323.312
323.22
323.133
323.053
322.977
322.908
322.843
322.784
322.73
322.682
322.638
322.599
322.566
322.537
322.513
322.494
322.48
322.471
322.466
322.466
396.73
390.394
384.59
379.455
374.994
371.143
367.812
364.911
362.362
360.098
358.067
356.226
354.543
352.991
351.549
350.201
348.933
347.734
346.596
345.512
344.475
343.481
342.525
341.605
340.717
339.859
339.028
338.224
337.444
336.687
335.951
335.237
334.543
333.868
333.212
332.573
331.952
331.348
330.76
330.189
329.633
329.092
328.567
328.056
327.559
327.077
326.608
326.154
325.712
325.284
324.868
324.466
324.076
323.698
323.332
322.978
322.636
322.305
321.985
321.677
321.379
321.092
320.815
320.549
320.293
320.046
319.81
319.582
319.365
319.156
318.956
318.765
318.582
318.408
318.242
318.084
317.934
317.792
317.657
317.53
317.41
317.298
317.192
317.094
317.002
316.916
316.838
316.766
316.7
316.641
316.587
316.54
316.499
316.464
316.435
316.412
316.394
316.383
316.377
316.377
397.123
391.485
386.182
381.33
376.968
373.081
369.624
366.543
363.782
361.291
359.028
356.956
355.046
353.273
351.616
350.061
348.592
347.2
345.876
344.611
343.4
342.237
341.118
340.038
338.996
337.989
337.013
336.067
335.149
334.259
333.393
332.552
331.735
330.94
330.167
329.414
328.682
327.97
327.277
326.603
325.948
325.31
324.691
324.088
323.502
322.933
322.381
321.844
321.323
320.818
320.328
319.853
319.392
318.946
318.515
318.097
317.693
317.303
316.926
316.562
316.21
315.871
315.545
315.231
314.928
314.637
314.358
314.09
313.833
313.586
313.35
313.124
312.909
312.703
312.508
312.321
312.144
311.976
311.818
311.667
311.526
311.393
311.268
311.152
311.043
310.943
310.85
310.765
310.687
310.617
310.554
310.499
310.45
310.409
310.374
310.347
310.327
310.313
310.306
310.306
397.392
392.247
387.326
382.718
378.471
374.594
371.067
367.861
364.939
362.266
359.808
357.535
355.423
353.449
351.595
349.846
348.19
346.614
345.111
343.673
342.293
340.966
339.688
338.454
337.261
336.107
334.988
333.903
332.85
331.828
330.834
329.868
328.928
328.015
327.125
326.26
325.418
324.599
323.802
323.026
322.272
321.538
320.825
320.131
319.457
318.802
318.165
317.548
316.948
316.366
315.801
315.254
314.724
314.211
313.713
313.232
312.767
312.317
311.883
311.463
311.059
310.668
310.292
309.93
309.582
309.247
308.925
308.616
308.319
308.035
307.764
307.504
307.255
307.018
306.793
306.578
306.374
306.181
305.998
305.825
305.662
305.509
305.365
305.231
305.106
304.99
304.883
304.785
304.695
304.614
304.542
304.478
304.422
304.374
304.335
304.303
304.28
304.264
304.256
304.257
397.582
392.791
388.157
383.749
379.611
375.76
372.196
368.902
365.856
363.034
360.412
357.965
355.673
353.518
351.484
349.555
347.722
345.973
344.3
342.696
341.153
339.668
338.235
336.85
335.51
334.212
332.954
331.732
330.546
329.394
328.274
327.184
326.124
325.093
324.089
323.112
322.161
321.236
320.335
319.459
318.607
317.778
316.971
316.187
315.425
314.684
313.965
313.266
312.588
311.93
311.292
310.673
310.073
309.492
308.93
308.386
307.86
307.351
306.859
306.385
305.927
305.486
305.06
304.651
304.256
303.877
303.513
303.163
302.828
302.507
302.199
301.905
301.624
301.356
301.101
300.858
300.627
300.408
300.201
300.006
299.821
299.648
299.485
299.333
299.192
299.061
298.94
298.829
298.727
298.636
298.554
298.481
298.418
298.364
298.319
298.284
298.257
298.239
298.231
298.231
397.718
393.185
388.765
384.513
380.467
376.648
373.062
369.703
366.559
363.615
360.852
358.253
355.802
353.482
351.282
349.187
347.188
345.275
343.44
341.677
339.979
338.34
336.757
335.226
333.743
332.305
330.909
329.554
328.237
326.957
325.712
324.501
323.322
322.175
321.058
319.971
318.912
317.882
316.879
315.903
314.953
314.03
313.131
312.257
311.408
310.582
309.78
309.002
308.246
307.512
306.8
306.11
305.442
304.794
304.167
303.56
302.973
302.406
301.858
301.329
300.818
300.326
299.851
299.394
298.954
298.532
298.125
297.735
297.361
297.003
296.66
296.332
296.018
295.719
295.434
295.163
294.906
294.662
294.431
294.212
294.007
293.813
293.632
293.462
293.305
293.158
293.023
292.899
292.786
292.684
292.593
292.512
292.441
292.381
292.331
292.291
292.261
292.242
292.232
292.232
397.817
393.47
389.209
385.076
381.102
377.31
373.709
370.299
367.074
364.026
361.141
358.408
355.814
353.345
350.991
348.742
346.588
344.52
342.532
340.616
338.768
336.983
335.255
333.581
331.959
330.384
328.855
327.369
325.924
324.518
323.15
321.819
320.523
319.262
318.033
316.837
315.672
314.538
313.434
312.36
311.314
310.296
309.306
308.344
307.408
306.498
305.614
304.756
303.923
303.114
302.33
301.569
300.832
300.118
299.427
298.758
298.111
297.485
296.881
296.297
295.734
295.191
294.668
294.164
293.679
293.213
292.765
292.334
291.922
291.527
291.148
290.786
290.44
290.111
289.797
289.498
289.214
288.944
288.689
288.449
288.222
288.008
287.808
287.621
287.447
287.286
287.137
287
286.875
286.763
286.662
286.572
286.495
286.428
286.373
286.329
286.296
286.274
286.263
286.264
397.887
393.675
389.529
385.483
381.563
377.79
374.174
370.719
367.425
364.286
361.294
358.441
355.717
353.112
350.617
348.223
345.923
343.709
341.575
339.515
337.523
335.595
333.727
331.916
330.158
328.45
326.79
325.176
323.605
322.077
320.589
319.14
317.729
316.355
315.016
313.712
312.443
311.206
310.002
308.83
307.689
306.579
305.499
304.448
303.426
302.433
301.469
300.532
299.622
298.739
297.882
297.052
296.247
295.467
294.712
293.981
293.274
292.591
291.931
291.293
290.678
290.085
289.513
288.962
288.432
287.923
287.433
286.963
286.512
286.08
285.667
285.271
284.894
284.533
284.19
283.863
283.553
283.259
282.98
282.717
282.469
282.236
282.017
281.813
281.622
281.446
281.283
281.134
280.997
280.874
280.764
280.666
280.581
280.508
280.448
280.4
280.364
280.34
280.328
280.328
397.937
393.819
389.754
385.768
381.884
378.12
374.487
370.991
367.633
364.413
361.324
358.362
355.519
352.788
350.162
347.634
345.197
342.845
340.572
338.372
336.243
334.178
332.175
330.231
328.341
326.503
324.716
322.977
321.283
319.635
318.029
316.464
314.94
313.455
312.008
310.598
309.225
307.887
306.584
305.316
304.081
302.879
301.709
300.572
299.465
298.39
297.345
296.33
295.344
294.388
293.46
292.56
291.687
290.842
290.024
289.232
288.466
287.725
287.009
286.318
285.652
285.008
284.389
283.792
283.217
282.665
282.134
281.625
281.136
280.667
280.219
279.79
279.381
278.99
278.617
278.263
277.927
277.608
277.305
277.02
276.751
276.498
276.261
276.039
275.833
275.642
275.465
275.303
275.155
275.022
274.902
274.796
274.704
274.625
274.559
274.507
274.468
274.442
274.429
274.429
397.97
393.916
389.905
385.957
382.093
378.328
374.674
371.136
367.72
364.423
361.246
358.183
355.23
352.382
349.634
346.979
344.412
341.928
339.523
337.192
334.93
332.733
330.6
328.526
326.508
324.545
322.633
320.772
318.958
317.192
315.47
313.792
312.156
310.562
309.009
307.495
306.02
304.582
303.182
301.818
300.491
299.198
297.94
296.717
295.527
294.37
293.245
292.153
291.093
290.063
289.064
288.095
287.156
286.246
285.365
284.513
283.688
282.89
282.12
281.376
280.658
279.965
279.298
278.655
278.036
277.441
276.87
276.321
275.794
275.29
274.807
274.345
273.904
273.483
273.082
272.7
272.338
271.994
271.669
271.361
271.071
270.799
270.543
270.305
270.082
269.876
269.686
269.511
269.352
269.208
269.079
268.965
268.865
268.78
268.71
268.654
268.611
268.584
268.57
268.57
397.991
393.975
389.996
386.069
382.211
378.436
374.755
371.175
367.7
364.332
361.071
357.914
354.858
351.9
349.036
346.262
343.573
340.964
338.432
335.974
333.585
331.262
329.002
326.803
324.661
322.575
320.543
318.562
316.632
314.749
312.914
311.125
309.38
307.679
306.021
304.404
302.829
301.293
299.797
298.339
296.92
295.538
294.193
292.885
291.612
290.374
289.172
288.003
286.868
285.766
284.697
283.661
282.656
281.682
280.739
279.826
278.943
278.089
277.264
276.468
275.699
274.957
274.243
273.554
272.892
272.255
271.642
271.055
270.491
269.951
269.433
268.939
268.466
268.015
267.586
267.177
266.789
266.421
266.072
265.743
265.432
265.14
264.867
264.611
264.373
264.152
263.948
263.761
263.59
263.436
263.298
263.175
263.069
262.978
262.902
262.842
262.797
262.767
262.752
262.752
398.002
394.005
390.04
386.117
382.254
378.461
374.748
371.123
367.591
364.153
360.811
357.564
354.412
351.35
348.377
345.489
342.683
339.955
337.302
334.722
332.21
329.765
327.383
325.063
322.801
320.596
318.446
316.349
314.304
312.309
310.363
308.464
306.613
304.807
303.045
301.328
299.653
298.021
296.43
294.88
293.371
291.901
290.47
289.078
287.723
286.406
285.126
283.881
282.673
281.5
280.362
279.258
278.188
277.15
276.146
275.174
274.233
273.324
272.445
271.596
270.777
269.987
269.226
268.492
267.786
267.107
266.455
265.829
265.228
264.652
264.101
263.574
263.07
262.59
262.132
261.696
261.282
260.89
260.518
260.167
259.836
259.525
259.234
258.961
258.707
258.472
258.254
258.055
257.873
257.709
257.561
257.431
257.317
257.22
257.139
257.075
257.027
256.995
256.979
256.979
398.004
394.011
390.045
386.115
382.235
378.416
374.667
370.994
367.403
363.897
360.477
357.145
353.899
350.738
347.661
344.664
341.746
338.904
336.136
333.438
330.809
328.245
325.746
323.307
320.929
318.608
316.343
314.133
311.976
309.871
307.816
305.811
303.854
301.945
300.083
298.266
296.495
294.767
293.084
291.443
289.844
288.287
286.772
285.297
283.862
282.466
281.109
279.79
278.51
277.266
276.059
274.889
273.754
272.654
271.589
270.558
269.561
268.596
267.664
266.764
265.895
265.057
264.249
263.471
262.722
262.002
261.31
260.645
260.008
259.397
258.812
258.253
257.718
257.208
256.723
256.26
255.821
255.405
255.01
254.638
254.287
253.957
253.647
253.358
253.088
252.838
252.608
252.396
252.203
252.028
251.872
251.733
251.613
251.509
251.424
251.355
251.304
251.27
251.253
251.253
398
393.997
390.018
386.071
382.166
378.314
374.523
370.799
367.149
363.575
360.079
356.663
353.327
350.071
346.894
343.793
340.768
337.817
334.937
332.126
329.383
326.705
324.091
321.539
319.047
316.613
314.237
311.916
309.65
307.437
305.276
303.167
301.107
299.097
297.136
295.221
293.354
291.534
289.758
288.028
286.342
284.7
283.1
281.544
280.029
278.556
277.124
275.732
274.379
273.066
271.792
270.556
269.357
268.195
267.07
265.981
264.927
263.908
262.923
261.972
261.054
260.169
259.315
258.493
257.702
256.94
256.209
255.507
254.833
254.187
253.569
252.978
252.413
251.874
251.361
250.872
250.408
249.968
249.551
249.157
248.786
248.437
248.109
247.803
247.518
247.254
247.01
246.786
246.582
246.398
246.232
246.086
245.958
245.849
245.758
245.686
245.632
245.596
245.578
245.578
397.99
393.968
389.966
385.991
382.054
378.163
374.326
370.549
366.838
363.195
359.624
356.127
352.704
349.356
346.082
342.881
339.753
336.695
333.708
330.788
327.935
325.147
322.422
319.759
317.157
314.614
312.129
309.7
307.328
305.009
302.745
300.533
298.373
296.263
294.204
292.195
290.234
288.321
286.456
284.638
282.866
281.139
279.458
277.821
276.228
274.678
273.171
271.707
270.284
268.902
267.561
266.26
264.999
263.776
262.592
261.445
260.335
259.263
258.226
257.224
256.258
255.325
254.426
253.56
252.727
251.925
251.155
250.416
249.706
249.026
248.375
247.752
247.157
246.589
246.048
245.534
245.045
244.581
244.142
243.727
243.336
242.968
242.623
242.301
242
241.722
241.465
241.229
241.014
240.819
240.645
240.491
240.356
240.241
240.146
240.069
240.012
239.974
239.955
239.955
397.976
393.924
389.891
385.882
381.906
377.971
374.084
370.251
366.478
362.766
359.121
355.544
352.036
348.598
345.23
341.932
338.704
335.544
332.452
329.427
326.468
323.572
320.74
317.97
315.261
312.611
310.02
307.486
305.01
302.589
300.222
297.91
295.652
293.445
291.291
289.188
287.135
285.132
283.178
281.273
279.417
277.607
275.845
274.129
272.459
270.834
269.254
267.718
266.225
264.776
263.369
262.004
260.681
259.398
258.155
256.951
255.787
254.661
253.573
252.522
251.507
250.528
249.584
248.676
247.801
246.959
246.15
245.374
244.629
243.915
243.231
242.577
241.952
241.356
240.788
240.247
239.734
239.247
238.785
238.35
237.939
237.553
237.19
236.852
236.537
236.244
235.974
235.726
235.5
235.296
235.113
234.95
234.809
234.688
234.588
234.508
234.448
234.408
234.387
234.387
397.958
393.87
389.799
385.749
381.729
377.746
373.805
369.914
366.076
362.295
358.576
354.919
351.328
347.802
344.343
340.951
337.626
334.367
331.174
328.047
324.984
321.985
319.048
316.174
313.36
310.606
307.912
305.276
302.698
300.177
297.711
295.301
292.946
290.645
288.397
286.202
284.058
281.967
279.927
277.937
275.997
274.106
272.264
270.47
268.724
267.025
265.373
263.766
262.205
260.689
259.218
257.79
256.405
255.062
253.762
252.503
251.284
250.106
248.967
247.866
246.804
245.78
244.792
243.84
242.924
242.043
241.197
240.384
239.604
238.856
238.14
237.455
236.801
236.177
235.582
235.016
234.478
233.968
233.485
233.028
232.598
232.194
231.814
231.46
231.129
230.823
230.54
230.281
230.044
229.83
229.638
229.468
229.32
229.193
229.088
229.004
228.941
228.899
228.877
228.877
397.937
393.807
389.692
385.596
381.527
377.491
373.494
369.542
365.639
361.788
357.995
354.26
350.586
346.975
343.427
339.943
336.523
333.168
329.877
326.65
323.487
320.386
317.348
314.372
311.457
308.602
305.808
303.072
300.394
297.775
295.213
292.707
290.257
287.863
285.523
283.238
281.006
278.828
276.702
274.629
272.607
270.636
268.716
266.846
265.025
263.253
261.53
259.854
258.226
256.644
255.108
253.618
252.173
250.772
249.415
248.1
246.829
245.598
244.409
243.261
242.152
241.082
240.051
239.057
238.101
237.181
236.296
235.447
234.633
233.852
233.104
232.389
231.706
231.054
230.432
229.841
229.279
228.746
228.242
227.765
227.315
226.893
226.496
226.126
225.781
225.461
225.165
224.894
224.647
224.423
224.222
224.045
223.89
223.757
223.647
223.559
223.493
223.449
223.427
223.426
397.914
393.736
389.572
385.426
381.304
377.212
373.156
369.141
365.171
361.251
357.383
353.57
349.815
346.119
342.484
338.91
335.399
331.95
328.563
325.24
321.979
318.78
315.643
312.568
309.554
306.601
303.708
300.875
298.1
295.385
292.728
290.129
287.586
285.101
282.672
280.298
277.98
275.716
273.507
271.352
269.25
267.2
265.203
263.258
261.363
259.52
257.727
255.983
254.288
252.642
251.043
249.492
247.987
246.529
245.115
243.747
242.422
241.141
239.902
238.706
237.551
236.437
235.362
234.327
233.331
232.373
231.451
230.567
229.718
228.904
228.125
227.38
226.668
225.989
225.341
224.725
224.139
223.584
223.058
222.561
222.093
221.652
221.239
220.853
220.493
220.16
219.852
219.569
219.311
219.078
218.868
218.683
218.522
218.384
218.269
218.177
218.108
218.062
218.039
218.038
397.888
393.658
389.442
385.242
381.064
376.913
372.796
368.716
364.679
360.687
356.745
352.855
349.02
345.241
341.52
337.858
334.257
330.716
327.236
323.818
320.462
317.168
313.935
310.763
307.653
304.604
301.615
298.686
295.818
293.009
290.259
287.568
284.936
282.361
279.844
277.384
274.981
272.634
270.342
268.106
265.925
263.799
261.726
259.707
257.741
255.827
253.965
252.154
250.394
248.684
247.024
245.412
243.849
242.333
240.865
239.443
238.066
236.735
235.448
234.205
233.004
231.846
230.729
229.653
228.618
227.621
226.664
225.744
224.861
224.016
223.206
222.431
221.69
220.984
220.311
219.67
219.061
218.483
217.937
217.42
216.933
216.475
216.045
215.643
215.269
214.922
214.602
214.307
214.039
213.796
213.579
213.386
213.218
213.074
212.955
212.859
212.788
212.74
212.715
212.714
397.86
393.576
389.303
385.046
380.809
376.597
372.416
368.271
364.165
360.102
356.086
352.119
348.204
344.343
340.538
336.79
333.1
329.47
325.899
322.389
318.94
315.552
312.225
308.96
305.756
302.613
299.53
296.509
293.548
290.648
287.808
285.027
282.306
279.644
277.041
274.496
272.01
269.581
267.209
264.895
262.636
260.434
258.287
256.196
254.159
252.175
250.246
248.369
246.545
244.772
243.051
241.38
239.76
238.188
236.666
235.191
233.763
232.383
231.048
229.758
228.513
227.311
226.153
225.037
223.962
222.929
221.935
220.981
220.065
219.187
218.347
217.543
216.775
216.041
215.343
214.678
214.046
213.446
212.879
212.342
211.837
211.361
210.915
210.498
210.11
209.75
209.417
209.112
208.833
208.581
208.355
208.155
207.98
207.831
207.707
207.608
207.533
207.483
207.458
207.457
397.831
393.488
389.158
384.84
380.542
376.267
372.021
367.809
363.633
359.499
355.408
351.365
347.371
343.429
339.541
335.708
331.932
328.214
324.555
320.955
317.415
313.936
310.518
307.16
303.864
300.63
297.456
294.344
291.294
288.304
285.375
282.507
279.699
276.952
274.265
271.637
269.069
266.56
264.11
261.718
259.384
257.107
254.888
252.725
250.618
248.567
246.571
244.63
242.743
240.909
239.128
237.399
235.721
234.095
232.519
230.992
229.515
228.085
226.703
225.368
224.079
222.835
221.635
220.479
219.367
218.296
217.267
216.279
215.331
214.421
213.551
212.718
211.922
211.163
210.439
209.75
209.096
208.475
207.887
207.331
206.807
206.314
205.852
205.42
205.018
204.644
204.3
203.983
203.694
203.433
203.199
202.992
202.811
202.656
202.527
202.424
202.347
202.295
202.269
202.267
397.801
393.398
389.006
384.626
380.265
375.926
371.614
367.333
363.088
358.881
354.716
350.597
346.525
342.503
338.533
334.617
330.756
326.952
323.205
319.518
315.889
312.321
308.813
305.366
301.981
298.657
295.395
292.194
289.055
285.978
282.963
280.009
277.117
274.286
271.517
268.808
266.16
263.572
261.045
258.577
256.169
253.819
251.529
249.296
247.121
245.003
242.942
240.937
238.988
237.094
235.254
233.468
231.735
230.055
228.426
226.849
225.322
223.844
222.416
221.036
219.703
218.418
217.178
215.983
214.832
213.726
212.662
211.64
210.66
209.72
208.819
207.958
207.135
206.35
205.602
204.889
204.212
203.57
202.962
202.387
201.845
201.336
200.858
200.411
199.995
199.608
199.252
198.924
198.626
198.355
198.113
197.898
197.711
197.551
197.417
197.311
197.231
197.177
197.149
197.148
397.77
393.304
388.849
384.406
379.98
375.575
371.196
366.846
362.53
358.251
354.013
349.817
345.668
341.567
337.516
333.518
329.574
325.686
321.854
318.08
314.365
310.71
307.115
303.58
300.107
296.696
293.347
290.06
286.835
283.673
280.573
277.535
274.561
271.648
268.798
266.01
263.284
260.619
258.016
255.474
252.993
250.572
248.212
245.911
243.669
241.486
239.361
237.293
235.283
233.33
231.432
229.59
227.803
226.069
224.389
222.762
221.186
219.662
218.188
216.764
215.389
214.062
212.782
211.549
210.361
209.219
208.121
207.066
206.054
205.084
204.154
203.265
202.416
201.605
200.832
200.096
199.397
198.734
198.106
197.513
196.953
196.427
195.933
195.472
195.042
194.643
194.275
193.936
193.628
193.349
193.098
192.876
192.683
192.517
192.379
192.269
192.186
192.131
192.102
192.1
397.738
393.208
388.689
384.181
379.689
375.217
370.77
366.351
361.964
357.613
353.3
349.03
344.803
340.624
336.494
332.415
328.389
324.418
320.503
316.644
312.845
309.104
305.424
301.804
298.245
294.749
291.315
287.943
284.634
281.388
278.206
275.087
272.031
269.039
266.11
263.244
260.442
257.702
255.025
252.41
249.858
247.367
244.938
242.57
240.262
238.015
235.827
233.699
231.629
229.618
227.664
225.766
223.925
222.14
220.409
218.732
217.109
215.539
214.02
212.553
211.136
209.768
208.449
207.178
205.955
204.777
203.645
202.558
201.515
200.515
199.557
198.64
197.764
196.929
196.132
195.373
194.653
193.969
193.322
192.71
192.133
191.59
191.081
190.605
190.162
189.75
189.37
189.021
188.703
188.415
188.157
187.928
187.728
187.557
187.415
187.301
187.216
187.158
187.128
187.126
397.706
393.11
388.526
383.952
379.393
374.853
370.337
365.849
361.391
356.967
352.581
348.236
343.934
339.677
335.468
331.31
327.204
323.151
319.154
315.213
311.33
307.506
303.742
300.039
296.397
292.817
289.3
285.845
282.455
279.127
275.864
272.665
269.531
266.46
263.454
260.512
257.635
254.821
252.072
249.386
246.764
244.205
241.709
239.275
236.903
234.593
232.344
230.156
228.028
225.959
223.949
221.998
220.104
218.267
216.487
214.762
213.092
211.476
209.914
208.404
206.946
205.538
204.181
202.873
201.614
200.402
199.237
198.118
197.044
196.015
195.028
194.085
193.183
192.323
191.503
190.722
189.98
189.276
188.609
187.979
187.385
186.826
186.302
185.812
185.355
184.931
184.54
184.181
183.853
183.556
183.29
183.054
182.848
182.672
182.526
182.408
182.32
182.261
182.23
182.227
397.673
393.011
388.36
383.719
379.093
374.486
369.901
365.342
360.813
356.317
351.858
347.438
343.061
338.728
334.442
330.205
326.02
321.887
317.809
313.788
309.823
305.918
302.072
298.287
294.563
290.902
287.304
283.769
280.298
276.891
273.549
270.272
267.06
263.913
260.832
257.816
254.865
251.979
249.159
246.404
243.713
241.087
238.525
236.027
233.592
231.221
228.911
226.664
224.479
222.354
220.29
218.286
216.341
214.454
212.625
210.853
209.137
207.476
205.871
204.319
202.82
201.374
199.979
198.635
197.34
196.095
194.897
193.747
192.643
191.585
190.571
189.601
188.674
187.789
186.946
186.143
185.38
184.656
183.97
183.322
182.711
182.137
181.598
181.094
180.624
180.188
179.786
179.416
179.079
178.773
178.499
178.257
178.045
177.864
177.713
177.592
177.501
177.44
177.408
177.405
397.639
392.911
388.193
383.485
378.791
374.115
369.461
364.832
360.232
355.665
351.133
346.639
342.187
337.779
333.416
329.102
324.839
320.628
316.471
312.37
308.327
304.341
300.415
296.55
292.747
289.006
285.328
281.714
278.165
274.68
271.261
267.908
264.62
261.399
258.244
255.155
252.133
249.177
246.287
243.464
240.706
238.015
235.388
232.827
230.331
227.899
225.531
223.226
220.985
218.806
216.688
214.632
212.636
210.7
208.823
207.005
205.244
203.54
201.892
200.299
198.761
197.276
195.844
194.464
193.135
191.857
190.627
189.446
188.313
187.226
186.185
185.189
184.237
183.328
182.462
181.638
180.854
180.111
179.407
178.741
178.114
177.523
176.969
176.452
175.969
175.521
175.108
174.728
174.382
174.068
173.786
173.537
173.319
173.133
172.978
172.853
172.76
172.697
172.664
172.661
397.606
392.811
388.025
383.249
378.487
373.742
369.019
364.32
359.65
355.011
350.407
345.841
341.314
336.831
332.394
328.004
323.664
319.376
315.142
310.963
306.841
302.777
298.773
294.83
290.948
287.129
283.374
279.683
276.057
272.497
269.002
265.574
262.213
258.919
255.692
252.532
249.44
246.415
243.457
240.567
237.745
234.989
232.3
229.677
227.12
224.629
222.204
219.843
217.546
215.313
213.143
211.036
208.991
207.007
205.083
203.219
201.414
199.667
197.978
196.345
194.768
193.246
191.778
190.363
189
187.689
186.428
185.217
184.054
182.94
181.872
180.85
179.874
178.942
178.054
177.208
176.404
175.641
174.919
174.236
173.593
172.987
172.419
171.887
171.392
170.933
170.509
170.119
169.763
169.441
169.152
168.896
168.673
168.481
168.322
168.194
168.098
168.033
167.999
167.996
397.572
392.71
387.857
383.013
378.183
373.369
368.577
363.809
359.068
354.358
349.682
345.043
340.444
335.888
331.376
326.911
322.496
318.132
313.822
309.567
305.368
301.228
297.147
293.128
289.17
285.275
281.444
277.677
273.976
270.342
266.774
263.273
259.839
256.474
253.176
249.947
246.787
243.695
240.671
237.716
234.829
232.01
229.26
226.577
223.961
221.412
218.93
216.514
214.164
211.879
209.658
207.501
205.407
203.375
201.406
199.497
197.649
195.861
194.131
192.458
190.843
189.284
187.781
186.331
184.935
183.592
182.301
181.06
179.869
178.727
177.633
176.587
175.586
174.631
173.721
172.854
172.031
171.249
170.509
169.809
169.15
168.529
167.946
167.402
166.894
166.423
165.989
165.589
165.224
164.894
164.598
164.335
164.106
163.91
163.746
163.615
163.516
163.449
163.414
163.411
397.538
392.608
387.688
382.777
377.878
372.997
368.135
363.298
358.487
353.707
348.96
344.25
339.579
334.949
330.364
325.826
321.337
316.899
312.514
308.184
303.91
299.695
295.539
291.445
287.412
283.443
279.537
275.698
271.924
268.216
264.576
261.004
257.5
254.065
250.699
247.402
244.175
241.017
237.929
234.91
231.961
229.081
226.27
223.528
220.855
218.249
215.712
213.242
210.839
208.503
206.232
204.026
201.884
199.807
197.793
195.84
193.95
192.12
190.35
188.64
186.987
185.392
183.854
182.371
180.943
179.568
178.246
176.977
175.758
174.589
173.47
172.398
171.375
170.397
169.465
168.578
167.735
166.935
166.177
165.461
164.785
164.15
163.554
162.996
162.477
161.994
161.549
161.14
160.766
160.428
160.125
159.856
159.621
159.42
159.252
159.118
159.016
158.947
158.911
158.908
397.505
392.508
387.52
382.541
377.575
372.625
367.695
362.789
357.909
353.059
348.242
343.461
338.718
334.017
329.36
324.75
320.188
315.677
311.219
306.815
302.468
298.179
293.95
289.782
285.677
281.635
277.657
273.745
269.9
266.122
262.411
258.77
255.197
251.694
248.261
244.898
241.605
238.383
235.231
232.15
229.14
226.2
223.331
220.531
217.802
215.141
212.55
210.027
207.573
205.186
202.866
200.612
198.425
196.302
194.244
192.249
190.317
188.447
186.638
184.89
183.201
181.571
179.998
178.482
177.022
175.617
174.266
172.968
171.722
170.527
169.382
168.287
167.24
166.24
165.287
164.38
163.518
162.7
161.925
161.192
160.501
159.851
159.242
158.671
158.14
157.646
157.191
156.772
156.39
156.044
155.733
155.458
155.218
155.012
154.84
154.702
154.598
154.528
154.491
154.487
397.471
392.407
387.352
382.306
377.273
372.255
367.258
362.283
357.334
352.415
347.529
342.678
337.865
333.094
328.366
323.684
319.05
314.468
309.938
305.462
301.043
296.683
292.382
288.142
283.965
279.852
275.804
271.821
267.906
264.059
260.28
256.57
252.93
249.361
245.862
242.435
239.078
235.793
232.58
229.438
226.369
223.37
220.443
217.587
214.803
212.088
209.444
206.87
204.365
201.929
199.562
197.261
195.028
192.861
190.76
188.724
186.751
184.842
182.995
181.21
179.485
177.82
176.214
174.666
173.175
171.74
170.36
169.034
167.761
166.541
165.371
164.252
163.183
162.162
161.188
160.262
159.381
158.545
157.753
157.004
156.298
155.634
155.011
154.428
153.885
153.38
152.915
152.487
152.096
151.742
151.425
151.144
150.898
150.687
150.511
150.37
150.264
150.192
150.153
150.149
397.438
392.307
387.186
382.073
376.973
371.888
366.823
361.781
356.764
351.777
346.822
341.902
337.02
332.179
327.381
322.629
317.926