/*--------------------------------*- C++ -*----------------------------------*\
| =========                 |                                                 |
| \\      /  F ield         | OpenFOAM: The Open Source CFD Toolbox           |
|  \\    /   O peration     | Version:  2406                                  |
|   \\  /    A nd           | Website:  www.openfoam.com                      |
|    \\/     M anipulation  |                                                 |
\*---------------------------------------------------------------------------*/
FoamFile
{
    version     2.0;
    format      ascii;
    arch        "LSB;label=32;scalar=64";
    class       volScalarField;
    location    "35";
    object      p;
}
// * * * * * * * * * * * * * * * * * * * * * * * * * * * * * * * * * * * * * //

dimensions      [0 2 -2 0 0 0 0];

internalField   nonuniform List<scalar> 
1176
(
0.79699976
0.79702264
0.7970463
0.79705397
0.79702244
0.79692774
0.79677051
0.79658434
0.79640514
0.79623799
0.79608337
0.79598776
0.79598776
0.79608337
0.796238
0.79640517
0.79658438
0.79677057
0.79692783
0.79702257
0.79705415
0.79704655
0.79702292
0.79700007
0.77385133
0.77380438
0.77375662
0.77373972
0.77380222
0.77400458
0.7743699
0.7748343
0.77526516
0.77555126
0.77567066
0.77570492
0.77570492
0.77567066
0.77555126
0.77526514
0.77483425
0.77436979
0.77400442
0.77380201
0.77373947
0.77375634
0.77380409
0.77385105
0.75676658
0.75678859
0.75680838
0.75680648
0.75674741
0.75658624
0.75631447
0.75598652
0.75568031
0.75546752
0.75535672
0.7553079
0.75530791
0.75535673
0.75546754
0.75568034
0.75598655
0.7563145
0.75658626
0.75674743
0.75680649
0.7568084
0.7567886
0.75676659
0.74009469
0.74010381
0.74011587
0.74013227
0.74015482
0.74017239
0.74014015
0.74000674
0.73977463
0.73950206
0.73927786
0.73915736
0.73915736
0.73927786
0.73950207
0.73977464
0.74000675
0.74014016
0.74017239
0.74015483
0.74013228
0.74011588
0.74010383
0.7400947
0.72367564
0.72367959
0.72368458
0.72369065
0.72370035
0.72372062
0.7237568
0.72379832
0.72381999
0.72379611
0.72373399
0.72368136
0.72368136
0.723734
0.72379611
0.72381999
0.72379832
0.7237568
0.72372062
0.72370034
0.72369064
0.72368458
0.72367958
0.72367563
0.70721398
0.7072164
0.70721964
0.70722368
0.7072286
0.70723543
0.7072496
0.70728091
0.7073309
0.70738815
0.70743085
0.70744751
0.70744751
0.70743085
0.70738815
0.7073309
0.70728091
0.7072496
0.70723543
0.7072286
0.70722369
0.70721965
0.7072164
0.70721399
0.69080817
0.69081031
0.69081312
0.69081655
0.69082045
0.69082396
0.69082603
0.6908282
0.69083675
0.69085398
0.69087188
0.6908836
0.6908836
0.69087188
0.69085398
0.69083675
0.6908282
0.69082603
0.69082396
0.69082045
0.69081655
0.69081312
0.69081031
0.69080818
0.67442831
0.67443007
0.67443239
0.67443531
0.67443899
0.67444336
0.67444781
0.67445096
0.6744522
0.67445382
0.67445086
0.67444835
0.67444835
0.67445086
0.67445382
0.6744522
0.67445097
0.67444781
0.67444336
0.67443899
0.67443531
0.67443239
0.67443007
0.67442831
0.65807402
0.65807548
0.65807741
0.65807982
0.65808283
0.65808662
0.65809166
0.65809871
0.6581074
0.65811742
0.65812519
0.65812878
0.65812878
0.65812519
0.65811743
0.6581074
0.65809871
0.65809167
0.65808662
0.65808283
0.65807982
0.65807741
0.65807548
0.65807402
0.64173633
0.64173753
0.64173914
0.64174118
0.64174374
0.64174692
0.64175108
0.64175747
0.64176763
0.64178077
0.64179509
0.6418044
0.6418044
0.6417951
0.64178077
0.64176763
0.64175747
0.64175108
0.64174692
0.64174374
0.64174117
0.64173914
0.64173753
0.64173633
0.62541195
0.62541298
0.62541435
0.6254161
0.62541831
0.62542104
0.62542443
0.62542928
0.62543714
0.6254478
0.62546036
0.6254695
0.6254695
0.62546036
0.62544781
0.62543714
0.62542928
0.62542443
0.62542104
0.62541831
0.6254161
0.62541435
0.62541297
0.62541195
0.60909847
0.60909937
0.60910057
0.60910209
0.60910403
0.60910643
0.60910939
0.6091134
0.60911962
0.60912828
0.60913884
0.60914629
0.6091463
0.60913885
0.60912828
0.60911962
0.6091134
0.60910939
0.60910643
0.60910403
0.60910209
0.60910056
0.60909936
0.60909847
0.59279428
0.59279507
0.59279613
0.59279747
0.59279919
0.59280132
0.59280396
0.5928075
0.5928129
0.59282065
0.59283034
0.59283702
0.59283702
0.59283034
0.59282065
0.5928129
0.5928075
0.59280396
0.59280132
0.59279919
0.59279747
0.59279612
0.59279506
0.59279428
0.57649806
0.57649876
0.5764997
0.57650091
0.57650244
0.57650435
0.5765067
0.57650983
0.5765146
0.57652158
0.57653024
0.57653633
0.57653633
0.57653024
0.57652158
0.57651461
0.57650983
0.5765067
0.57650435
0.57650244
0.5765009
0.5764997
0.57649876
0.57649806
0.56020879
0.56020942
0.56021027
0.56021135
0.56021273
0.56021445
0.56021655
0.56021931
0.56022347
0.5602296
0.56023713
0.56024253
0.56024253
0.56023713
0.5602296
0.56022347
0.56021931
0.56021655
0.56021445
0.56021273
0.56021134
0.56021026
0.56020942
0.56020879
0.54392567
0.54392624
0.54392701
0.54392798
0.54392924
0.54393079
0.54393269
0.54393514
0.54393878
0.54394416
0.54395069
0.54395548
0.54395548
0.54395069
0.54394416
0.54393878
0.54393514
0.54393269
0.54393079
0.54392924
0.54392798
0.543927
0.54392624
0.54392567
0.52764805
0.52764856
0.52764926
0.52765015
0.5276513
0.52765271
0.52765443
0.52765664
0.52765986
0.52766462
0.52767034
0.52767463
0.52767463
0.52767034
0.52766462
0.52765986
0.52765664
0.52765443
0.52765271
0.52765129
0.52765015
0.52764925
0.52764856
0.52764804
0.51137537
0.51137584
0.51137648
0.51137729
0.51137834
0.51137964
0.51138121
0.5113832
0.51138607
0.51139032
0.51139537
0.51139924
0.51139924
0.51139537
0.51139032
0.51138608
0.5113832
0.51138121
0.51137964
0.51137834
0.51137729
0.51137647
0.51137584
0.51137536
0.49510717
0.49510761
0.49510819
0.49510894
0.4951099
0.4951111
0.49511254
0.49511434
0.49511692
0.49512073
0.49512522
0.49512871
0.49512871
0.49512522
0.49512073
0.49511692
0.49511434
0.49511253
0.49511109
0.4951099
0.49510894
0.49510819
0.4951076
0.49510717
0.47884306
0.47884346
0.478844
0.47884469
0.47884558
0.47884668
0.478848
0.47884965
0.47885197
0.4788554
0.47885943
0.47886259
0.47886259
0.47885943
0.4788554
0.47885197
0.47884965
0.478848
0.47884668
0.47884558
0.47884469
0.478844
0.47884346
0.47884306
0.46258269
0.46258306
0.46258356
0.4625842
0.46258502
0.46258604
0.46258726
0.46258877
0.46259087
0.46259397
0.46259762
0.46260048
0.46260048
0.46259762
0.46259397
0.46259087
0.46258877
0.46258726
0.46258604
0.46258502
0.4625842
0.46258356
0.46258306
0.46258269
0.44632576
0.4463261
0.44632656
0.44632715
0.44632792
0.44632886
0.44632999
0.44633138
0.4463333
0.44633611
0.44633943
0.44634204
0.44634204
0.44633943
0.44633611
0.4463333
0.44633138
0.44632999
0.44632886
0.44632792
0.44632716
0.44632656
0.4463261
0.44632576
0.43007199
0.43007231
0.43007274
0.43007329
0.430074
0.43007488
0.43007593
0.43007721
0.43007896
0.43008153
0.43008456
0.43008695
0.43008695
0.43008456
0.43008153
0.43007896
0.43007721
0.43007593
0.43007488
0.430074
0.43007329
0.43007274
0.43007232
0.430072
0.41382116
0.41382145
0.41382185
0.41382237
0.41382303
0.41382385
0.41382482
0.41382601
0.41382762
0.41382997
0.41383276
0.41383494
0.41383494
0.41383276
0.41382997
0.41382761
0.41382601
0.41382482
0.41382385
0.41382303
0.41382237
0.41382186
0.41382146
0.41382117
0.39757304
0.39757332
0.39757369
0.39757417
0.39757479
0.39757555
0.39757646
0.39757756
0.39757904
0.39758121
0.39758378
0.39758578
0.39758578
0.39758378
0.3975812
0.39757904
0.39757756
0.39757646
0.39757555
0.39757479
0.39757418
0.3975737
0.39757333
0.39757305
0.38132745
0.38132771
0.38132805
0.3813285
0.38132908
0.38132979
0.38133064
0.38133167
0.38133304
0.38133503
0.38133741
0.38133926
0.38133926
0.38133741
0.38133503
0.38133303
0.38133167
0.38133064
0.3813298
0.38132909
0.38132852
0.38132807
0.38132772
0.38132747
0.36508421
0.36508445
0.36508477
0.36508519
0.36508573
0.3650864
0.3650872
0.36508815
0.36508942
0.36509126
0.36509347
0.36509518
0.36509518
0.36509347
0.36509126
0.36508941
0.36508815
0.3650872
0.36508641
0.36508575
0.36508521
0.36508479
0.36508447
0.36508423
0.34884316
0.34884338
0.34884369
0.34884408
0.34884458
0.34884521
0.34884596
0.34884685
0.34884803
0.34884973
0.34885179
0.34885337
0.34885336
0.34885178
0.34884973
0.34884802
0.34884684
0.34884596
0.34884522
0.3488446
0.3488441
0.34884371
0.34884341
0.34884318
0.33260415
0.33260436
0.33260465
0.33260502
0.33260549
0.33260608
0.33260678
0.33260761
0.33260871
0.33261029
0.33261221
0.33261367
0.33261367
0.3326122
0.33261029
0.3326087
0.33260761
0.33260678
0.33260609
0.33260551
0.33260505
0.33260468
0.3326044
0.33260419
0.31636706
0.31636726
0.31636753
0.31636787
0.31636832
0.31636887
0.31636953
0.31637031
0.31637133
0.3163728
0.31637459
0.31637595
0.31637595
0.31637459
0.31637279
0.31637132
0.3163703
0.31636953
0.31636889
0.31636835
0.31636791
0.31636757
0.31636731
0.31636711
0.30013176
0.30013195
0.3001322
0.30013253
0.30013295
0.30013347
0.30013408
0.30013482
0.30013577
0.30013714
0.30013881
0.30014008
0.30014008
0.30013881
0.30013713
0.30013575
0.30013481
0.30013409
0.30013349
0.30013298
0.30013258
0.30013225
0.30013201
0.30013182
0.28389815
0.28389832
0.28389856
0.28389887
0.28389926
0.28389975
0.28390033
0.28390102
0.28390191
0.28390319
0.28390475
0.28390594
0.28390593
0.28390474
0.28390317
0.28390189
0.283901
0.28390033
0.28389977
0.2838993
0.28389892
0.28389862
0.28389839
0.28389821
0.26766611
0.26766627
0.2676665
0.26766678
0.26766715
0.26766761
0.26766816
0.26766881
0.26766964
0.26767084
0.26767231
0.26767341
0.26767341
0.2676723
0.26767082
0.26766962
0.26766879
0.26766816
0.26766764
0.26766721
0.26766685
0.26766657
0.26766635
0.26766619
0.25143555
0.2514357
0.25143591
0.25143618
0.25143653
0.25143697
0.25143748
0.25143809
0.25143887
0.25143999
0.25144137
0.2514424
0.2514424
0.25144136
0.25143997
0.25143885
0.25143807
0.25143749
0.251437
0.2514366
0.25143627
0.251436
0.2514358
0.25143564
0.23520638
0.23520653
0.23520673
0.23520698
0.23520731
0.23520772
0.2352082
0.23520877
0.23520951
0.23521056
0.23521185
0.23521282
0.23521282
0.23521184
0.23521054
0.23520948
0.23520876
0.23520821
0.23520776
0.23520738
0.23520708
0.23520683
0.23520664
0.23520649
0.21897852
0.21897866
0.21897885
0.21897909
0.2189794
0.21897978
0.21898024
0.21898078
0.21898147
0.21898245
0.21898367
0.21898457
0.21898457
0.21898365
0.21898243
0.21898144
0.21898076
0.21898025
0.21897983
0.21897948
0.2189792
0.21897897
0.21897879
0.21897865
0.2027519
0.20275203
0.2027522
0.20275243
0.20275272
0.20275309
0.20275352
0.20275402
0.20275467
0.2027556
0.20275675
0.2027576
0.2027576
0.20275673
0.20275557
0.20275464
0.202754
0.20275353
0.20275314
0.20275282
0.20275256
0.20275234
0.20275218
0.20275205
0.18652644
0.18652656
0.18652673
0.18652694
0.18652722
0.18652756
0.18652796
0.18652844
0.18652905
0.18652992
0.18653099
0.18653179
0.18653179
0.18653098
0.18652988
0.18652901
0.18652842
0.18652798
0.18652762
0.18652733
0.18652709
0.18652689
0.18652673
0.18652661
0.17030207
0.17030218
0.17030234
0.17030254
0.1703028
0.17030313
0.17030351
0.17030396
0.17030453
0.17030535
0.17030637
0.17030712
0.17030712
0.17030635
0.17030531
0.17030449
0.17030393
0.17030352
0.1703032
0.17030293
0.17030271
0.17030252
0.17030238
0.17030227
0.15407873
0.15407884
0.15407899
0.15407918
0.15407943
0.15407973
0.1540801
0.15408052
0.15408106
0.15408182
0.15408277
0.15408347
0.15408347
0.15408275
0.15408178
0.15408101
0.15408049
0.15408011
0.15407982
0.15407958
0.15407938
0.1540792
0.15407907
0.15407896
0.13785637
0.13785647
0.13785661
0.13785679
0.13785702
0.13785731
0.13785765
0.13785805
0.13785856
0.13785928
0.13786018
0.13786085
0.13786084
0.13786016
0.13785923
0.1378585
0.13785802
0.13785767
0.13785741
0.13785719
0.13785701
0.13785685
0.13785672
0.13785662
0.12163494
0.12163503
0.12163517
0.12163534
0.12163556
0.12163583
0.12163615
0.12163653
0.121637
0.12163766
0.12163849
0.1216391
0.12163909
0.12163846
0.12163761
0.12163694
0.12163649
0.12163618
0.12163594
0.12163575
0.12163558
0.12163543
0.12163532
0.12163522
0.10541435
0.10541445
0.10541457
0.10541473
0.10541494
0.1054152
0.1054155
0.10541586
0.1054163
0.10541692
0.1054177
0.10541826
0.10541826
0.10541767
0.10541686
0.10541623
0.10541581
0.10541553
0.10541532
0.10541515
0.105415
0.10541486
0.10541476
0.10541467
0.089194637
0.089194725
0.089194845
0.089194998
0.089195195
0.089195438
0.089195724
0.089196054
0.089196458
0.089197005
0.089197673
0.089198153
0.089198146
0.089197644
0.089196942
0.089196377
0.089196002
0.089195751
0.08919557
0.089195424
0.089195294
0.089195163
0.089195062
0.089194979
0.072975631
0.072975714
0.072975827
0.072975972
0.07297616
0.072976393
0.072976667
0.072976981
0.072977359
0.072977861
0.07297846
0.072978872
0.072978866
0.072978429
0.072977792
0.072977269
0.072976923
0.072976695
0.072976533
0.072976405
0.072976288
0.072976166
0.072976071
0.072975994
0.056757511
0.056757592
0.056757701
0.056757839
0.056758015
0.05675823
0.05675848
0.056758763
0.056759085
0.056759467
0.05675986
0.05676009
0.056760084
0.056759828
0.056759393
0.056758987
0.056758697
0.056758505
0.056758373
0.056758266
0.056758163
0.056758047
0.056757955
0.056757879
0.040539725
0.040539796
0.040539894
0.040540025
0.0405402
0.040540424
0.040540687
0.040540976
0.040541302
0.040541716
0.0405422
0.040542524
0.040542517
0.040542167
0.040541639
0.0405412
0.040540906
0.040540706
0.04054056
0.040540442
0.040540334
0.040540222
0.040540138
0.040540069
0.024323457
0.02432354
0.024323648
0.024323776
0.024323923
0.024324083
0.024324255
0.024324435
0.024324601
0.024324684
0.024324612
0.024324397
0.024324391
0.024324581
0.02432461
0.024324504
0.02432437
0.024324275
0.024324208
0.024324135
0.024324039
0.024323918
0.024323814
0.024323727
0.008105366
0.0081054363
0.0081055291
0.0081056505
0.008105811
0.0081060098
0.0081062293
0.0081064669
0.008106844
0.0081076822
0.0081091691
0.0081105471
0.0081105447
0.0081091527
0.008107638
0.0081067821
0.0081064251
0.0081062451
0.0081060965
0.0081059553
0.0081058261
0.0081057073
0.0081056129
0.0081055373
)
;

boundaryField
{
    INLET
    {
        type            zeroGradient;
    }
    OUTLET
    {
        type            fixedValue;
        value           uniform 0;
    }
    WALL
    {
        type            zeroGradient;
    }
    frontAndBackPlanes
    {
        type            empty;
    }
}


// ************************************************************************* //
