/*--------------------------------*- C++ -*----------------------------------*\
| =========                 |                                                 |
| \\      /  F ield         | OpenFOAM: The Open Source CFD Toolbox           |
|  \\    /   O peration     | Version:  2406                                  |
|   \\  /    A nd           | Website:  www.openfoam.com                      |
|    \\/     M anipulation  |                                                 |
\*---------------------------------------------------------------------------*/
FoamFile
{
    version     2.0;
    format      ascii;
    arch        "LSB;label=32;scalar=64";
    class       surfaceScalarField;
    location    "35";
    object      phi;
}
// * * * * * * * * * * * * * * * * * * * * * * * * * * * * * * * * * * * * * //

dimensions      [0 3 -1 0 0 0 0];

oriented        oriented;

internalField   nonuniform List<scalar> 
2279
(
2.3617522e-08
1.0148926e-05
2.0509771e-07
4.982375e-05
6.933177e-07
0.00014252872
1.5784716e-06
0.00034353082
2.6788477e-06
0.00075378089
3.3472911e-06
0.0015415573
3.0435195e-06
0.0029497096
2.1516833e-06
0.005249171
1.4318025e-06
0.008582269
9.8958956e-07
0.012685995
5.1266291e-07
0.016666385
-8.2271624e-12
0.01918202
-5.1268247e-07
0.01918202
-9.8962313e-07
0.016666385
-1.4318698e-06
0.012685995
-2.1517892e-06
0.0085822691
-3.0436744e-06
0.0052491711
-3.3474996e-06
0.0029497098
-2.6790947e-06
0.0015415575
-1.5787163e-06
0.00075378101
-6.9352172e-07
0.00034353087
-2.0523013e-07
0.00014252874
-2.3678398e-08
4.9823755e-05
1.0148928e-05
-9.5248456e-08
1.0244175e-05
-5.3794006e-07
5.0266441e-05
-1.6230012e-06
0.00014361378
-3.5389525e-06
0.00034544677
-5.9201868e-06
0.00075616213
-7.405503e-06
0.0015430426
-6.5847282e-06
0.0029488888
-3.936161e-06
0.0052465224
-1.388391e-06
0.0085797213
-6.5122439e-08
0.012684671
2.4240086e-07
0.016666078
-8.8307779e-12
0.019182263
-2.4241386e-07
0.019182263
6.5131114e-08
0.016666078
1.3884553e-06
0.012684671
3.936312e-06
0.0085797212
6.5849722e-06
0.0052465223
7.405794e-06
0.0029488887
5.9204521e-06
0.0015430425
3.5391357e-06
0.00075616205
1.6230995e-06
0.00034544673
5.3797945e-07
0.00014361376
9.5255122e-08
5.0266434e-05
1.0244173e-05
5.0139848e-08
1.0194035e-05
2.63345e-07
5.0053236e-05
7.4910718e-07
0.00014312802
1.5314584e-06
0.00034466442
2.3366556e-06
0.00075535693
2.5476618e-06
0.0015428316
1.8390959e-06
0.0029495974
9.7567403e-07
0.0052473858
6.769564e-07
0.00858002
6.7178148e-07
0.012684677
4.8415316e-07
0.016666266
-2.0151299e-11
0.019182747
-4.841979e-07
0.019182747
-6.7183594e-07
0.016666266
-6.7701427e-07
0.012684677
-9.7573945e-07
0.00858002
-1.8391627e-06
0.0052473859
-2.5477112e-06
0.0029495974
-2.3366792e-06
0.0015428316
-1.5314633e-06
0.00075535694
-7.4910235e-07
0.00034466443
-2.6333854e-07
0.00014312802
-5.0135221e-08
5.0053237e-05
1.0194035e-05
1.9586718e-08
1.0174448e-05
1.1184926e-07
4.9960974e-05
3.6128434e-07
0.00014287858
9.0504794e-07
0.00034412066
1.8716603e-06
0.00075439032
3.0948243e-06
0.0015416085
3.898725e-06
0.0029487935
3.7285563e-06
0.005247556
2.924212e-06
0.0085808243
1.973376e-06
0.012685627
1.0127727e-06
0.016667226
4.6686224e-12
0.01918376
-1.0127612e-06
0.01918376
-1.9733593e-06
0.016667226
-2.9241954e-06
0.012685627
-3.7285466e-06
0.0085808243
-3.8987261e-06
0.005247556
-3.0948361e-06
0.0029487935
-1.8716804e-06
0.0015416085
-9.0506697e-07
0.00075439032
-3.6129805e-07
0.00034412066
-1.1185688e-07
0.00014287858
-1.9589663e-08
4.9960973e-05
1.0174448e-05
8.0838877e-09
1.0166364e-05
4.7141377e-08
4.9921916e-05
1.5494679e-07
0.00014277078
3.9846313e-07
0.00034387714
8.7979485e-07
0.00075390899
1.701517e-06
0.0015407867
2.7512763e-06
0.0029477437
3.462363e-06
0.0052468449
3.4708637e-06
0.0085808158
2.8006884e-06
0.012686298
1.5505166e-06
0.016668476
1.3363953e-12
0.01918531
-1.5505142e-06
0.01918531
-2.8006862e-06
0.016668476
-3.4708591e-06
0.012686298
-3.462358e-06
0.0085808158
-2.7512643e-06
0.0052468449
-1.7014987e-06
0.0029477437
-8.7977719e-07
0.0015407867
-3.9845004e-07
0.00075390898
-1.549383e-07
0.00034387714
-4.7136765e-08
0.00014277078
-8.0821148e-09
4.9921916e-05
1.0166364e-05
4.9358142e-09
1.0161429e-05
2.8698744e-08
4.9898153e-05
9.5121308e-08
0.00014270436
2.4921425e-07
0.00034372305
5.6360938e-07
0.00075359459
1.121375e-06
0.001540229
1.9184579e-06
0.0029469467
2.6588213e-06
0.0052461046
2.8930598e-06
0.0085805816
2.4787676e-06
0.012686712
1.4344276e-06
0.016669521
2.3039468e-12
0.019186745
-1.4344231e-06
0.019186745
-2.4787638e-06
0.016669521
-2.8930586e-06
0.012686712
-2.6588217e-06
0.0085805816
-1.9184588e-06
0.0052461046
-1.1213778e-06
0.0029469467
-5.6361229e-07
0.001540229
-2.4921514e-07
0.00075359459
-9.5120343e-08
0.00034372305
-2.8697379e-08
0.00014270436
-4.9348611e-09
4.9898153e-05
1.0161429e-05
4.4122996e-09
1.0157016e-05
2.5525564e-08
4.987704e-05
8.3829979e-08
0.00014264605
2.16894e-07
0.00034358998
4.8450093e-07
0.00075332698
9.5636047e-07
0.0015397571
1.6413731e-06
0.0029462616
2.3245818e-06
0.0052454214
2.5939527e-06
0.0085803122
2.2393627e-06
0.012687066
1.3066739e-06
0.016670453
1.4963161e-12
0.019188051
-1.3066708e-06
0.019188051
-2.2393602e-06
0.016670453
-2.5939522e-06
0.012687066
-2.3245814e-06
0.0085803122
-1.6413734e-06
0.0052454214
-9.5636189e-07
0.0029462616
-4.8450262e-07
0.0015397571
-2.1689519e-07
0.00075332698
-8.3830719e-08
0.00034358999
-2.5525986e-08
0.00014264605
-4.4124657e-09
4.987704e-05
1.0157016e-05
3.6254689e-09
1.0153391e-05
2.1036457e-08
4.9859629e-05
6.943794e-08
0.00014259765
1.8114128e-07
0.00034347828
4.0971405e-07
0.00075309841
8.2390328e-07
0.0015393429
1.4539914e-06
0.0029456316
2.1430744e-06
0.0052447323
2.467472e-06
0.0085799878
2.1883925e-06
0.012687346
1.2866422e-06
0.016671355
6.5568102e-13
0.019189338
-1.2866411e-06
0.019189338
-2.1883919e-06
0.016671355
-2.4674721e-06
0.012687346
-2.1430729e-06
0.0085799878
-1.4539887e-06
0.0052447323
-8.2390044e-07
0.0029456316
-4.0971168e-07
0.0015393429
-1.8113997e-07
0.00075309841
-6.9437797e-08
0.00034347828
-2.1036868e-08
0.00014259765
-3.6258762e-09
4.9859629e-05
1.0153391e-05
2.9830475e-09
1.0150408e-05
1.7346839e-08
4.9845265e-05
5.7377074e-08
0.00014255762
1.500736e-07
0.00034338559
3.4097083e-07
0.00075290751
6.9193125e-07
0.001538992
1.2441079e-06
0.0029450794
1.904185e-06
0.0052440722
2.3015997e-06
0.0085795904
2.0975074e-06
0.01268755
1.25201e-06
0.016672201
2.3294104e-13
0.01919059
-1.2520096e-06
0.01919059
-2.0975071e-06
0.016672201
-2.3015995e-06
0.01268755
-1.9041831e-06
0.0085795904
-1.2441048e-06
0.0052440722
-6.9192763e-07
0.0029450794
-3.4096769e-07
0.001538992
-1.5007192e-07
0.00075290751
-5.737697e-08
0.00034338559
-1.7347448e-08
0.00014255762
-2.9836236e-09
4.9845265e-05
1.0150408e-05
2.4653438e-09
1.0147942e-05
1.4362969e-08
4.9833367e-05
4.7626302e-08
0.00014252436
1.2502853e-07
0.00034330818
2.8558877e-07
0.00075274695
5.8417915e-07
0.0015386934
1.0641839e-06
0.0029445994
1.6641574e-06
0.0052434722
2.0898742e-06
0.0085791647
1.9528944e-06
0.012687687
1.1802449e-06
0.016672973
5.3192959e-13
0.01919177
-1.1802439e-06
0.01919177
-1.9528937e-06
0.016672973
-2.0898736e-06
0.012687687
-1.6641556e-06
0.0085791647
-1.0641807e-06
0.0052434722
-5.8417501e-07
0.0029445994
-2.8558504e-07
0.0015386934
-1.250265e-07
0.00075274695
-4.7626116e-08
0.00034330818
-1.4363625e-08
0.00014252436
-2.4659876e-09
4.9833367e-05
1.0147942e-05
2.1023925e-09
1.014584e-05
1.2257974e-08
4.9823212e-05
4.0688181e-08
0.00014249593
1.0699018e-07
0.00034324188
2.4507848e-07
0.00075260886
5.0385295e-07
0.0015384346
9.2623467e-07
0.002944177
1.4715112e-06
0.0052429269
1.8909085e-06
0.0085787453
1.8050229e-06
0.012687772
1.1036907e-06
0.016673675
6.9937091e-13
0.019192874
-1.1036896e-06
0.019192874
-1.8050226e-06
0.016673675
-1.8909084e-06
0.012687772
-1.47151e-06
0.0085787453
-9.2623175e-07
0.005242927
-5.0384866e-07
0.002944177
-2.4507442e-07
0.0015384346
-1.0698784e-07
0.00075260887
-4.0687783e-08
0.00034324188
-1.2258524e-08
0.00014249593
-2.1030064e-09
4.9823212e-05
1.014584e-05
1.8282125e-09
1.0144011e-05
1.0665476e-08
4.9814374e-05
3.5430309e-08
0.00014247116
9.3283066e-08
0.00034318403
2.1413925e-07
0.00075248801
4.4192766e-07
0.0015382068
8.1811366e-07
0.0029438008
1.3163808e-06
0.0052424287
1.7244943e-06
0.0085783372
1.6780434e-06
0.012687819
1.0378054e-06
0.016674315
6.2017863e-13
0.019193912
-1.0378046e-06
0.019193912
-1.6780437e-06
0.016674315
-1.7244949e-06
0.012687819
-1.3163804e-06
0.0085783372
-8.1811113e-07
0.0052424287
-4.4192353e-07
0.0029438008
-2.1413519e-07
0.0015382068
-9.3280641e-08
0.00075248801
-3.5429819e-08
0.00034318403
-1.0665968e-08
0.00014247116
-1.8288038e-09
4.9814374e-05
1.0144011e-05
1.610496e-09
1.0142401e-05
9.399698e-09
4.9806585e-05
3.1244481e-08
0.00014244932
8.2340498e-08
0.00034313293
1.893208e-07
0.00075238103
3.9182317e-07
0.0015380043
7.2924175e-07
0.0029434634
1.185146e-06
0.0052419728
1.5781758e-06
0.0085779441
1.56234e-06
0.012687835
9.7669888e-07
0.0166749
3.4580811e-13
0.019194888
-9.7669874e-07
0.019194888
-1.562341e-06
0.0166749
-1.5781771e-06
0.012687835
-1.185146e-06
0.0085779441
-7.2923947e-07
0.0052419728
-3.9181913e-07
0.0029434634
-1.8931673e-07
0.0015380043
-8.233804e-08
0.00075238103
-3.1243978e-08
0.00034313293
-9.4001943e-09
0.00014244932
-1.611096e-09
4.9806585e-05
1.0142401e-05
1.4323388e-09
1.0140969e-05
8.3630828e-09
4.9799654e-05
2.7812719e-08
0.00014242987
7.3352913e-08
0.00034308739
1.6886894e-07
0.00075228551
3.5026825e-07
0.0015378229
6.5458344e-07
0.0029431591
1.0720597e-06
0.0052415553
1.446434e-06
0.0085775698
1.4548768e-06
0.012687826
9.1880992e-07
0.016675437
-2.7743994e-14
0.019195807
-9.188105e-07
0.019195807
-1.4548783e-06
0.016675437
-1.4464358e-06
0.012687826
-1.07206e-06
0.0085775698
-6.5458129e-07
0.0052415553
-3.502642e-07
0.0029431591
-1.6886483e-07
0.0015378229
-7.3350449e-08
0.00075228551
-2.7812247e-08
0.00034308739
-8.3636173e-09
0.00014242987
-1.4329636e-09
4.9799655e-05
1.0140969e-05
1.2850346e-09
1.0139684e-05
7.5051579e-09
4.9793434e-05
2.4968965e-08
0.0001424124
6.5891266e-08
0.00034304647
1.5183823e-07
0.00075219957
3.1548566e-07
0.0015376593
5.9149713e-07
0.0029428831
9.7478756e-07
0.005241172
1.3297052e-06
0.0085772149
1.3567874e-06
0.012687799
8.6525215e-07
0.016675928
-3.5017093e-13
0.019196672
-8.6525332e-07
0.019196672
-1.3567895e-06
0.016675928
-1.3297073e-06
0.012687799
-9.7478808e-07
0.0085772149
-5.9149508e-07
0.005241172
-3.1548163e-07
0.0029428831
-1.5183414e-07
0.0015376593
-6.5888853e-08
0.00075219957
-2.4968556e-08
0.00034304647
-7.5057376e-09
0.0001424124
-1.28568e-09
4.9793434e-05
1.0139684e-05
1.1615205e-09
1.0138522e-05
6.7852799e-09
4.9787811e-05
2.2580567e-08
0.00014239661
5.9615515e-08
0.00034300944
1.3748122e-07
0.0007521217
2.8604687e-07
0.0015375107
5.3771141e-07
0.0029426314
8.9070649e-07
0.005240819
1.226398e-06
0.0085768792
1.2674898e-06
0.012687758
8.1592661e-07
0.01667638
-5.6247513e-13
0.019197488
-8.1592817e-07
0.019197488
-1.2674921e-06
0.01667638
-1.2264003e-06
0.012687758
-8.9070719e-07
0.0085768792
-5.377095e-07
0.005240819
-2.8604296e-07
0.0029426314
-1.3747727e-07
0.0015375107
-5.9613235e-08
0.0007521217
-2.2580237e-08
0.00034300944
-6.7858824e-09
0.00014239661
-1.1621612e-09
4.9787811e-05
1.0138522e-05
1.0561794e-09
1.0137466e-05
6.1710482e-09
4.9782696e-05
2.0541428e-08
0.00014238224
5.4252169e-08
0.00034297572
1.2519077e-07
0.00075205076
2.6076796e-07
0.0015373751
4.912518e-07
0.0029424009
8.1722526e-07
0.005240493
1.1341836e-06
0.0085765622
1.1857904e-06
0.012687707
7.7021446e-07
0.016676795
-6.5775675e-13
0.019198259
-7.7021619e-07
0.019198259
-1.1857929e-06
0.016676795
-1.134186e-06
0.012687707
-8.1722609e-07
0.0085765622
-4.9125011e-07
0.005240493
-2.6076436e-07
0.0029424009
-1.2518715e-07
0.0015373751
-5.425014e-08
0.00075205076
-2.0541189e-08
0.00034297572
-6.1716341e-09
0.00014238224
-1.0567756e-09
4.9782696e-05
1.0137466e-05
9.651783e-10
1.0136501e-05
5.6402266e-09
4.9778021e-05
1.8778319e-08
0.0001423691
4.9611211e-08
0.00034294489
1.1454147e-07
0.00075198583
2.3881067e-07
0.0015372509
4.5070364e-07
0.002942189
7.5248243e-07
0.0052401913
1.0514994e-06
0.0085762632
1.1108311e-06
0.012687647
7.2768814e-07
0.016677178
-6.5011849e-13
0.019198986
-7.2768982e-07
0.019198986
-1.1108335e-06
0.016677178
-1.0515017e-06
0.012687647
-7.5248335e-07
0.0085762632
-4.507023e-07
0.0052401913
-2.3880763e-07
0.002942189
-1.1453845e-07
0.0015372509
-4.9609593e-08
0.00075198583
-1.8778195e-08
0.00034294489
-5.6407522e-09
0.0001423691
-9.6568334e-10
4.9778021e-05
1.0136501e-05
8.8583701e-10
1.0135615e-05
5.1772499e-09
4.9773729e-05
1.7239858e-08
0.00014235704
4.5558772e-08
0.00034291657
1.0523187e-07
0.00075192616
2.1957588e-07
0.0015371365
4.150415e-07
0.0029419936
6.9508831e-07
0.0052399112
9.7709329e-07
0.0085759812
1.0418665e-06
0.012687582
6.8800439e-07
0.016677532
-5.5605022e-13
0.019199674
-6.8800585e-07
0.019199674
-1.0418686e-06
0.016677532
-9.7709544e-07
0.012687582
-6.9508931e-07
0.0085759812
-4.1504066e-07
0.0052399112
-2.1957372e-07
0.0029419936
-1.0522978e-07
0.0015371365
-4.5557756e-08
0.00075192616
-1.7239884e-08
0.00034291657
-5.1776732e-09
0.00014235704
-8.8620175e-10
4.9773729e-05
1.0135615e-05
8.1605774e-10
1.0134799e-05
4.7699525e-09
4.9769775e-05
1.5885916e-08
0.00014234592
4.199033e-08
0.00034289047
9.702629e-08
0.00075187112
2.0259274e-07
0.0015370309
3.834478e-07
0.0029418127
6.4389443e-07
0.0052396508
9.0984155e-07
0.0085757152
9.782349e-07
0.012687514
6.5086557e-07
0.01667786
-3.8192125e-13
0.019200325
-6.5086663e-07
0.019200325
-9.7823655e-07
0.01667786
-9.0984333e-07
0.012687514
-6.4389547e-07
0.0085757152
-3.8344763e-07
0.0052396508
-2.0259179e-07
0.0029418127
-9.7025476e-08
0.0015370309
-4.1990131e-08
0.00075187112
-1.588614e-08
0.00034289047
-4.7702325e-09
0.00014234592
-8.1623099e-10
4.9769775e-05
1.0134799e-05
7.5418844e-10
1.0134045e-05
4.4087445e-09
4.9766121e-05
1.4684828e-08
0.00014233564
3.882327e-08
0.00034286633
8.9737909e-08
0.00075182021
1.8748598e-07
0.0015369332
3.5526411e-07
0.0029416449
5.9795689e-07
0.0052394081
8.4878702e-07
0.0085754644
9.1936563e-07
0.012687443
6.1600983e-07
0.016678163
-1.2564359e-13
0.019200941
-6.1601033e-07
0.019200941
-9.1936663e-07
0.016678163
-8.4878827e-07
0.012687443
-5.9795793e-07
0.0085754644
-3.552648e-07
0.0052394081
-1.8748661e-07
0.0029416449
-8.9738749e-08
0.0015369332
-3.8824124e-08
0.00075182021
-1.4685303e-08
0.00034286633
-4.4088388e-09
0.00014233564
-7.5411573e-10
4.9766121e-05
1.0134045e-05
6.9893966e-10
1.0133346e-05
4.0861298e-09
4.9762734e-05
1.3611801e-08
0.00014232612
3.5992761e-08
0.00034284395
8.3219614e-08
0.00075177298
1.7395847e-07
0.0015368425
3.2996387e-07
0.0029414889
5.5650585e-07
0.0052391815
7.9311932e-07
0.0085752278
8.6476725e-07
0.012687372
5.8323117e-07
0.016678444
2.1970511e-13
0.019201524
-5.832309e-07
0.019201524
-8.6476738e-07
0.016678444
-7.9311986e-07
0.012687372
-5.5650686e-07
0.0085752278
-3.2996563e-07
0.0052391815
-1.7396107e-07
0.0029414889
-8.3222516e-08
0.0015368425
-3.5994921e-08
0.00075177298
-1.3612583e-08
0.00034284395
-4.0859915e-09
0.00014232612
-6.9856136e-10
4.9762734e-05
1.0133346e-05
6.4929523e-10
1.0132697e-05
3.796195e-09
4.9759587e-05
1.2647257e-08
0.00014231727
3.3447531e-08
0.00034282315
7.7354807e-08
0.00075172907
1.6177384e-07
0.001536758
3.071255e-07
0.0029413436
5.189181e-07
0.0052389697
7.4217161e-07
0.0085750045
8.1401322e-07
0.0126873
5.5234249e-07
0.016678706
6.6287658e-13
0.019202077
-5.5234124e-07
0.019202077
-8.1401223e-07
0.016678706
-7.4217123e-07
0.0126873
-5.1891903e-07
0.0085750045
-3.0712852e-07
0.0052389697
-1.6177882e-07
0.0029413436
-7.736021e-08
0.001536758
-3.3451269e-08
0.00075172907
-1.2648405e-08
0.00034282315
-3.7957708e-09
0.00014231727
-6.4854504e-10
4.9759587e-05
1.0132697e-05
6.0444129e-10
1.0132092e-05
3.5342012e-09
4.9756657e-05
1.1775495e-08
0.00014230903
3.1146419e-08
0.00034280378
7.2049704e-08
0.00075168817
1.5074131e-07
0.0015366793
2.8640654e-07
0.0029412079
4.8468044e-07
0.0052387715
6.9537983e-07
0.0085747938
7.6674355e-07
0.012687229
5.2320504e-07
0.01667895
1.2158118e-12
0.0192026
-5.2320257e-07
0.0192026
-7.6674118e-07
0.01667895
-6.953783e-07
0.012687229
-4.8468123e-07
0.0085747938
-2.8641106e-07
0.0052387715
-1.5074914e-07
0.0029412079
-7.205809e-08
0.0015366793
-3.1152035e-08
0.00075168817
-1.1777073e-08
0.00034280378
-3.533431e-09
0.00014230903
-6.0324523e-10
4.9756657e-05
1.0132092e-05
5.6371925e-10
1.0131528e-05
3.2963124e-09
4.9753925e-05
1.09838e-08
0.00014230134
2.9056071e-08
0.0003427857
6.7228222e-08
0.00075165
1.4070582e-07
0.0015366059
2.6752755e-07
0.0029410811
4.5337138e-07
0.0052385856
6.5227507e-07
0.0085745949
7.2263634e-07
0.012687158
4.9567523e-07
0.016679177
1.8707327e-12
0.019203096
-4.956713e-07
0.019203096
-7.226323e-07
0.016679177
-6.5227213e-07
0.012687158
-4.5337197e-07
0.0085745949
-2.6753382e-07
0.0052385856
-1.4071701e-07
0.0029410811
-6.7240129e-08
0.0015366059
-2.9063896e-08
0.00075165
-1.0985879e-08
0.0003427857
-3.2951291e-09
0.00014230134
-5.6199499e-10
4.9753924e-05
1.0131528e-05
5.2658968e-10
1.0131002e-05
3.0793866e-09
4.9751372e-05
1.0261755e-08
0.00014229416
2.7149131e-08
0.00034276882
6.2827879e-08
0.00075161432
1.3153967e-07
0.0015365372
2.5025717e-07
0.0029409624
4.2463731e-07
0.0052384112
6.1245315e-07
0.0085744071
6.8142375e-07
0.012687089
4.6965912e-07
0.016679388
2.6551653e-12
0.019203565
-4.6965345e-07
0.019203565
-6.8141773e-07
0.016679388
-6.1244853e-07
0.012687089
-4.2463765e-07
0.0085744071
-2.5026547e-07
0.0052384112
-1.3155479e-07
0.0029409624
-6.2843909e-08
0.0015365372
-2.7159539e-08
0.00075161432
-1.0264413e-08
0.00034276882
-3.0777161e-09
0.00014229416
-5.2424569e-10
4.9751371e-05
1.0131002e-05
4.9260772e-10
1.0130509e-05
2.8808321e-09
4.9748984e-05
9.6007623e-09
0.00014228744
2.5403029e-08
0.00034275301
5.8797099e-08
0.00075158092
1.2313737e-07
0.0015364728
2.3440393e-07
0.0029408511
3.9818528e-07
0.0052382475
5.7557756e-07
0.0085742297
6.428536e-07
0.012687022
4.4503532e-07
0.016679586
3.5492733e-12
0.01920401
-4.4502767e-07
0.01920401
-6.4284528e-07
0.016679586
-5.7557099e-07
0.012687022
-3.9818534e-07
0.0085742297
-2.3441464e-07
0.0052382475
-1.2315709e-07
0.0029408511
-5.8817938e-08
0.0015364728
-2.5416443e-08
0.00075158092
-9.6040917e-09
0.00034275301
-2.8785928e-09
0.00014228744
-4.8954233e-10
4.9748983e-05
1.0130509e-05
4.6140146e-10
1.0130048e-05
2.6984831e-09
4.9746746e-05
8.9936389e-09
0.00014228114
2.3798883e-08
0.00034273821
5.5092665e-08
0.00075154963
1.1541029e-07
0.0015364125
2.1980608e-07
0.0029407467
3.7376391e-07
0.0052380935
5.4135077e-07
0.0085740621
6.0672565e-07
0.012686957
4.2174432e-07
0.016679771
4.5491705e-12
0.019204432
-4.2173442e-07
0.019204432
-6.0671473e-07
0.016679771
-5.4134201e-07
0.012686957
-3.7376368e-07
0.0085740622
-2.198196e-07
0.0052380935
-1.1543537e-07
0.0029407467
-5.5119083e-08
0.0015364125
-2.3815776e-08
0.00075154963
-8.9977434e-09
0.00034273821
-2.6955849e-09
0.00014228114
-4.5750168e-10
4.9746746e-05
1.0130048e-05
4.3265823e-10
1.0129615e-05
2.5305175e-09
4.9744649e-05
8.4343394e-09
0.00014227524
2.2320814e-08
0.00034272432
5.1678266e-08
0.00075152027
1.0828399e-07
0.0015363559
2.0632786e-07
0.0029406487
3.5116314e-07
0.0052379487
5.0952467e-07
0.0085739038
5.7283213e-07
0.012686893
3.9967152e-07
0.016679944
5.6383204e-12
0.019204832
-3.9965916e-07
0.019204832
-5.7281832e-07
0.016679944
-5.0951345e-07
0.012686893
-3.5116266e-07
0.0085739038
-2.0634468e-07
0.0052379487
-1.0831529e-07
0.0029406487
-5.171113e-08
0.0015363559
-2.2341719e-08
0.00075152027
-8.4393359e-09
0.00034272432
-2.5268605e-09
0.00014227524
-4.2779844e-10
4.9744648e-05
1.0129615e-05
4.0611252e-10
1.0129209e-05
2.3753898e-09
4.9742679e-05
7.9177351e-09
0.0001422697
2.0955324e-08
0.00034271129
4.8522944e-08
0.00075149271
1.0169478e-07
0.0015363027
1.9385224e-07
0.0029405565
3.3019841e-07
0.0052378123
4.798742e-07
0.0085737541
5.4102641e-07
0.012686832
3.7878911e-07
0.016680107
6.8066015e-12
0.01920521
-3.7877409e-07
0.01920521
-5.4100941e-07
0.016680107
-4.7986028e-07
0.012686832
-3.3019774e-07
0.0085737541
-1.9387293e-07
0.0052378123
-1.0173325e-07
0.0029405565
-4.8563223e-08
0.0015363027
-2.0980833e-08
0.0007514927
-7.9237537e-09
0.00034271128
-2.3708634e-09
0.00014226969
-4.0015325e-10
4.9742679e-05
1.0129209e-05
3.8153653e-10
1.0128828e-05
2.2317712e-09
4.9740829e-05
7.4394162e-09
0.00014226449
1.9690837e-08
0.00034269903
4.5600235e-08
0.0007514668
9.5588365e-08
0.0015362527
1.8227983e-07
0.0029404698
3.1071454e-07
0.0052376839
4.5221094e-07
0.0085736126
5.1112527e-07
0.012686773
3.5897586e-07
0.016680259
8.0395799e-12
0.019205569
-3.5895799e-07
0.019205569
-5.111048e-07
0.016680259
-4.5219408e-07
0.012686773
-3.1071376e-07
0.0085736126
-1.82305e-07
0.0052376839
-9.5635068e-08
0.0029404698
-4.5648999e-08
0.0015362527
-1.9721603e-08
0.00075146679
-7.4465994e-09
0.00034269903
-2.2262515e-09
0.00014226449
-3.7432304e-10
4.9740829e-05
1.0128827e-05
3.5873602e-10
1.0128469e-05
2.0985329e-09
4.9739089e-05
6.9956346e-09
0.00014225959
1.8517462e-08
0.00034268751
4.288737e-08
0.00075144243
8.9917671e-08
0.0015362057
1.7152363e-07
0.0029403882
2.9257258e-07
0.0052375628
4.2636207e-07
0.0085734788
4.8303092e-07
0.012686717
3.4023967e-07
0.016680402
9.3177853e-12
0.01920591
-3.4021878e-07
0.01920591
-4.8300672e-07
0.016680402
-4.2634203e-07
0.012686717
-2.9257178e-07
0.0085734788
-1.7155398e-07
0.0052375629
-8.9973786e-08
0.0029403882
-4.2945798e-08
0.0015362057
-1.8554205e-08
0.00075144242
-7.0041376e-09
0.00034268751
-2.0918827e-09
0.00014225959
-3.5009747e-10
4.9739089e-05
1.0128469e-05
3.3753878e-10
1.0128131e-05
1.9746665e-09
4.9737452e-05
6.5830446e-09
0.00014225498
1.742644e-08
0.00034267667
4.0364395e-08
0.00075141949
8.4641832e-08
0.0015361614
1.6150858e-07
0.0029403113
2.7565417e-07
0.0052374487
4.0217849e-07
0.0085733523
4.5656612e-07
0.012686662
3.2243793e-07
0.016680536
1.0630301e-11
0.019206232
-3.2241388e-07
0.019206232
-4.565379e-07
0.016680536
-4.02155e-07
0.012686662
-2.7565345e-07
0.0085733523
-1.6154486e-07
0.0052374487
-8.4708639e-08
0.0029403113
-4.0433772e-08
0.0015361614
-1.746994e-08
0.00075141949
-6.5930322e-09
0.00034267667
-1.9667325e-09
0.00014225498
-3.2728691e-10
4.9737451e-05
1.0128131e-05
3.178018e-10
1.0127813e-05
1.8593467e-09
4.9735911e-05
6.1989021e-09
0.00014225064
1.6410479e-08
0.00034266646
3.801436e-08
0.00075139789
7.9725506e-08
0.0015361197
1.52169e-07
0.0029402389
2.5985379e-07
0.005237341
3.7952953e-07
0.0085732326
4.3168614e-07
0.01268661
3.0562519e-07
0.016680662
1.1949199e-11
0.019206538
-3.0559788e-07
0.019206538
-4.3165364e-07
0.016680662
-3.7950233e-07
0.01268661
-2.5985328e-07
0.0085732326
-1.5221204e-07
0.005237341
-7.9804397e-08
0.0029402389
-3.809608e-08
0.0015361197
-1.6461583e-08
0.00075139788
-6.2105509e-09
0.00034266646
-1.8499605e-09
0.00014225064
-3.0573138e-10
4.973591e-05
1.0127813e-05
2.9938782e-10
1.0127514e-05
1.7517615e-09
4.9734458e-05
5.8405149e-09
0.00014224655
1.5462595e-08
0.00034265684
3.5821547e-08
0.00075137753
7.5136763e-08
0.0015360804
1.4344602e-07
0.0029401706
2.4507659e-07
0.0052372394
3.582875e-07
0.0085731194
4.0819733e-07
0.01268656
2.8961806e-07
0.01668078
1.3258752e-11
0.019206827
-2.8958742e-07
0.019206827
-4.0816028e-07
0.01668078
-3.582563e-07
0.01268656
-2.4507643e-07
0.0085731194
-1.434967e-07
0.0052372394
-7.5229243e-08
0.0029401706
-3.5917117e-08
0.0015360804
-1.5522212e-08
0.00075137752
-5.8540129e-09
0.00034265684
-1.7407402e-09
0.00014224655
-2.8527735e-10
4.9734457e-05
1.0127514e-05
2.8219673e-10
1.0127232e-05
1.6513467e-09
4.9733089e-05
5.5060028e-09
0.0001422427
1.4577673e-08
0.00034264777
3.3773696e-08
0.00075135833
7.0849442e-08
0.0015360433
1.3529085e-07
0.0029401061
2.3124564e-07
0.0052371434
3.3836428e-07
0.0085730123
3.8612417e-07
0.012686512
2.7453786e-07
0.016680892
1.4503758e-11
0.019207102
-2.745039e-07
0.019207102
-3.8608236e-07
0.016680892
-3.3832885e-07
0.012686512
-2.31246e-07
0.0085730123
-1.3535013e-07
0.0052371434
-7.0957119e-08
0.0029401061
-3.3884713e-08
0.0015360433
-1.4646757e-08
0.00075135833
-5.5215347e-09
0.00034264776
-1.6384858e-09
0.0001422427
-2.6580649e-10
4.9733088e-05
1.0127231e-05
2.6610706e-10
1.0126965e-05
1.557366e-09
4.9731798e-05
5.1929291e-09
0.00014223906
1.3749541e-08
0.00034263921
3.1857394e-08
0.00075134023
6.6836988e-08
0.0015360084
1.276541e-07
0.0029400453
2.1827696e-07
0.0052370528
3.1963188e-07
0.0085729109
3.6522423e-07
0.012686467
2.601322e-07
0.016680997
1.5656547e-11
0.019207362
-2.6009498e-07
0.019207362
-3.6517752e-07
0.016680997
-3.1959201e-07
0.012686467
-2.1827807e-07
0.008572911
-1.2772305e-07
0.0052370528
-6.6961586e-08
0.0029400453
-3.1985553e-08
0.0015360083
-1.38291e-08
0.00075134022
-5.2106913e-09
0.00034263921
-1.5424521e-09
0.00014223906
-2.4718677e-10
4.9731797e-05
1.0126965e-05
2.5106834e-10
1.0126714e-05
1.4695713e-09
4.9730579e-05
4.9004522e-09
0.00014223563
1.2975582e-08
0.00034263114
3.0065368e-08
0.00075132314
6.3082368e-08
0.0015359753
1.2050403e-07
0.0029399879
2.0612616e-07
0.0052369672
3.0206056e-07
0.008572815
3.456262e-07
0.012686423
2.4662289e-07
0.016681096
1.6613695e-11
0.019207609
-2.4658267e-07
0.019207609
-3.4557454e-07
0.016681096
-3.0201615e-07
0.012686423
-2.0612833e-07
0.008572815
-1.2058378e-07
0.0052369672
-6.3225713e-08
0.0029399879
-3.0212451e-08
0.0015359753
-1.3066672e-08
0.00075132313
-4.9206554e-09
0.00034263113
-1.4523908e-09
0.00014223563
-2.2936518e-10
4.9730578e-05
1.0126714e-05
2.3694622e-10
1.0126477e-05
1.387111e-09
4.9729429e-05
4.6257718e-09
0.0001422324
1.2249033e-08
0.00034262351
2.8383987e-08
0.00075130701
5.9560298e-08
0.0015359442
1.1379303e-07
0.0029399337
1.9470285e-07
0.0052368863
2.8548736e-07
0.0085727242
3.269874e-07
0.012686382
2.3364612e-07
0.016681189
1.7332676e-11
0.019207842
-2.3360324e-07
0.019207842
-3.2693085e-07
0.016681189
-2.8543836e-07
0.012686382
-1.9470646e-07
0.0085727243
-1.1388478e-07
0.0052368863
-5.9724233e-08
0.0029399337
-2.8551757e-08
0.0015359441
-1.2352667e-08
0.000751307
-4.6485776e-09
0.00034262351
-1.3674149e-09
0.00014223239
-2.1218673e-10
4.9729428e-05
1.0126477e-05
2.2378086e-10
1.0126253e-05
1.31033e-09
4.9728343e-05
4.3699763e-09
0.00014222934
1.1571731e-08
0.00034261631
2.6814243e-08
0.00075129177
5.6267637e-08
0.0015359147
1.0751494e-07
0.0029398824
1.8401607e-07
0.0052368098
2.6998616e-07
0.0085726382
3.0960878e-07
0.012686342
2.2158006e-07
0.016681277
1.7630987e-11
0.019208064
-2.2153513e-07
0.019208064
-3.0954759e-07
0.016681277
-2.6993269e-07
0.012686342
-1.8402156e-07
0.0085726383
-1.0761988e-07
0.0052368098
-5.6453914e-08
0.0029398824
-2.7004321e-08
0.0015359147
-1.1688781e-08
0.00075129176
-4.3954539e-09
0.00034261631
-1.2878305e-09
0.00014222933
-1.9568417e-10
4.9728341e-05
1.0126253e-05
2.1135206e-10
1.0126041e-05
1.2377778e-09
4.9727316e-05
4.1283463e-09
0.00014222645
1.0932887e-08
0.00034260951
2.5336449e-08
0.00075127736
5.3171758e-08
0.0015358869
1.0160896e-07
0.002939834
1.7393579e-07
0.0052367375
2.5529476e-07
0.0085725569
2.9296419e-07
0.012686304
2.0988681e-07
0.01668136
1.7497035e-11
0.019208274
-2.0984052e-07
0.019208274
-2.9289874e-07
0.01668136
-2.5523705e-07
0.012686304
-1.7394371e-07
0.0085725569
-1.0172825e-07
0.0052367375
-5.338198e-08
0.002939834
-2.5550245e-08
0.0015358869
-1.1064072e-08
0.00075127735
-4.1565335e-09
0.00034260951
-1.2122269e-09
0.00014222644
-1.796863e-10
4.9727314e-05
1.0126041e-05
1.9994024e-10
1.0125841e-05
1.1713559e-09
4.9726345e-05
3.9069872e-09
0.00014222371
1.0345708e-08
0.00034260307
2.3971982e-08
0.00075126374
5.0301888e-08
0.0015358606
9.6125318e-08
0.0029397882
1.6458522e-07
0.005236669
2.4169743e-07
0.0085724798
2.7765622e-07
0.012686268
1.9919544e-07
0.016681439
1.6742268e-11
0.019208473
-1.9914884e-07
0.019208473
-2.7758711e-07
0.016681439
-2.416358e-07
0.012686269
-1.6459611e-07
0.0085724798
-9.6260048e-08
0.005236669
-5.0537515e-08
0.0029397882
-2.4210793e-08
0.0015358605
-1.0491749e-08
0.00075126373
-3.9380461e-09
0.00034260307
-1.1426564e-09
0.00014222371
-1.6457812e-10
4.9726343e-05
1.0125841e-05
1.8894186e-10
1.0125652e-05
1.1071397e-09
4.9725426e-05
3.6933087e-09
0.00014222113
9.7821153e-09
0.00034259699
2.267215e-08
0.00075125085
4.7584683e-08
0.0015358356
9.0940666e-08
0.0029397448
1.5571132e-07
0.0052366042
2.2870655e-07
0.0085724068
2.6285215e-07
0.012686234
1.887124e-07
0.016681513
1.5305696e-11
0.019208662
-1.886667e-07
0.019208662
-2.6278017e-07
0.016681513
-2.2864141e-07
0.012686234
-1.5572558e-07
0.0085724068
-9.1091387e-08
0.0052366042
-4.784616e-08
0.0029397448
-2.2935973e-08
0.0015358356
-9.9425688e-09
0.00075125084
-3.7266739e-09
0.00034259698
-1.0748957e-09
0.00014222112
-1.4971316e-10
4.9725425e-05
1.0125651e-05
1.7949253e-10
1.0125472e-05
1.0523804e-09
4.9724553e-05
3.510366e-09
0.00014221867
9.2932353e-09
0.0003425912
2.1524868e-08
0.00075123862
4.5149473e-08
0.001535812
8.6261068e-08
0.0029397037
1.477122e-07
0.0052365428
2.1705452e-07
0.0085723374
2.4970369e-07
0.012686202
1.7948837e-07
0.016681583
1.3118432e-11
0.019208841
-1.79445e-07
0.019208841
-2.496298e-07
0.016681583
-2.1698618e-07
0.012686202
-1.4772969e-07
0.0085723375
-8.642734e-08
0.0052365428
-4.5435614e-08
0.0029397037
-2.1811524e-08
0.001535812
-9.4656096e-09
0.00075123861
-3.5442414e-09
0.0003425912
-1.0157704e-09
0.00014221867
-1.3623401e-10
4.9724552e-05
1.0125471e-05
1.6830556e-10
1.0125303e-05
9.8733979e-10
4.9723734e-05
3.2969057e-09
0.00014221636
8.7438827e-09
0.00034258576
2.0298263e-08
0.00075122707
4.2669931e-08
0.0015357897
8.1650056e-08
0.0029396647
1.3993065e-07
0.0052364845
2.057191e-07
0.0085722716
2.3675549e-07
0.012686171
1.7030776e-07
0.01668165
1.0247226e-11
0.019209011
-1.7026836e-07
0.019209011
-2.3668142e-07
0.01668165
-2.0564824e-07
0.012686171
-1.3995053e-07
0.0085722717
-8.182963e-08
0.0052364845
-4.2976981e-08
0.0029396647
-2.0603016e-08
0.0015357896
-8.9242571e-09
0.00075122706
-3.3296441e-09
0.00034258576
-9.46428e-10
0.00014221636
-1.2162399e-10
4.9723734e-05
1.0125303e-05
1.6343593e-10
1.0125139e-05
9.5932806e-10
4.9722938e-05
3.1977037e-09
0.00014221412