/*--------------------------------*- C++ -*----------------------------------*\
| =========                 |                                                 |
| \\      /  F ield         | OpenFOAM: The Open Source CFD Toolbox           |
|  \\    /   O peration     | Version:  2406                                  |
|   \\  /    A nd           | Website:  www.openfoam.com                      |
|    \\/     M anipulation  |                                                 |
\*---------------------------------------------------------------------------*/
FoamFile
{
    version     2.0;
    format      ascii;
    arch        "LSB;label=32;scalar=64";
    class       volVectorField;
    location    "35";
    object      U;
}
// * * * * * * * * * * * * * * * * * * * * * * * * * * * * * * * * * * * * * //

dimensions      [0 1 -1 0 0 0 0];

internalField   nonuniform List<vector> 
1176
(
(0.019493789 7.0786319e-07 0)
(0.066677318 8.1696636e-06 0)
(0.13357994 3.9503166e-05 0)
(0.22724701 0.00010873576 0)
(0.35591522 0.00021176026 0)
(0.52772023 0.00030396283 0)
(0.74780387 0.00031818015 0)
(1.0136216 0.0002490458 0)
(1.3093323 0.00016666982 0)
(1.6017081 0.00011264657 0)
(1.8421723 7.0213692e-05 0)
(1.9793239 2.3940117e-05 0)
(1.9793239 -2.3941807e-05 0)
(1.8421723 -7.0216228e-05 0)
(1.6017081 -0.00011265155 0)
(1.3093323 -0.00016667875 0)
(1.0136216 -0.00024905992 0)
(0.7478039 -0.00031820096 0)
(0.52772027 -0.00030398965 0)
(0.35591525 -0.00021178732 0)
(0.22724702 -0.00010875937 0)
(0.13357995 -3.9511586e-05 0)
(0.06667732 -8.1854804e-06 0)
(0.01949379 -7.0639732e-07 0)
(0.020187017 -3.7419184e-06 0)
(0.068813532 -2.4638636e-05 0)
(0.13732107 -9.6548555e-05 0)
(0.23247391 -0.00024839461 0)
(0.36204617 -0.00047268783 0)
(0.53373556 -0.00067421189 0)
(0.75267407 -0.00069486952 0)
(1.0170176 -0.00049687383 0)
(1.3116385 -0.00023345941 0)
(1.6034438 -4.9824768e-05 0)
(1.8436588 1.9764209e-05 0)
(1.9807026 1.3426998e-05 0)
(1.9807026 -1.3428444e-05 0)
(1.8436588 -1.9764401e-05 0)
(1.6034438 4.9828066e-05 0)
(1.3116385 0.0002334698 0)
(1.0170176 0.0004968939 0)
(0.75267407 0.0006948972 0)
(0.53373557 0.00067424074 0)
(0.36204617 0.00047271009 0)
(0.2324739 0.00024840784 0)
(0.13732106 9.6553255e-05 0)
(0.068813527 2.4641802e-05 0)
(0.020187015 3.7417339e-06 0)
(0.020018442 2.0918367e-06 0)
(0.068327405 1.2720776e-05 0)
(0.13655404 4.6877258e-05 0)
(0.23159544 0.00011389739 0)
(0.36138709 0.00019769268 0)
(0.53366969 0.00023903234 0)
(0.75344344 0.00020559809 0)
(1.0184881 0.00011361104 0)
(1.3134639 7.4313345e-05 0)
(1.6053464 7.9532398e-05 0)
(1.8455118 7.051565e-05 0)
(1.9825245 2.7824125e-05 0)
(1.9825245 -2.7828066e-05 0)
(1.8455118 -7.0520248e-05 0)
(1.6053464 -7.9537563e-05 0)
(1.3134639 -7.4318994e-05 0)
(1.0184881 -0.00011361703 0)
(0.75344343 -0.00020560537 0)
(0.53366968 -0.00023903552 0)
(0.36138708 -0.00019769369 0)
(0.23159544 -0.00011389709 0)
(0.13655404 -4.6876901e-05 0)
(0.068327404 -1.2719994e-05 0)
(0.020018441 -2.091887e-06 0)
(0.019966547 7.0076472e-07 0)
(0.068159231 4.6870498e-06 0)
(0.13624021 1.9355445e-05 0)
(0.2311194 5.6456179e-05 0)
(0.36078093 0.00013444567 0)
(0.53306293 0.0002582932 0)
(0.75295637 0.00035344744 0)
(1.0181104 0.00036912003 0)
(1.313184 0.00030758876 0)
(1.6051633 0.00022777245 0)
(1.8453995 0.00014555954 0)
(1.9824491 4.9997487e-05 0)
(1.9824491 -4.9996658e-05 0)
(1.8453995 -0.00014555826 0)
(1.6051633 -0.00022777024 0)
(1.313184 -0.00030758756 0)
(1.0181104 -0.0003691201 0)
(0.75295637 -0.00035344743 0)
(0.53306293 -0.00025829543 0)
(0.36078093 -0.00013444784 0)
(0.23111939 -5.6457818e-05 0)
(0.1362402 -1.9356141e-05 0)
(0.06815923 -4.6877527e-06 0)
(0.019966547 -7.0071627e-07 0)
(0.019942203 2.9076976e-07 0)
(0.068078703 1.9871961e-06 0)
(0.13608628 8.2361162e-06 0)
(0.23087699 2.369932e-05 0)
(0.36044744 5.6881627e-05 0)
(0.53266448 0.00012306886 0)
(0.75256878 0.00022681819 0)
(1.017808 0.00032272222 0)
(1.3129044 0.00034572467 0)
(1.604912 0.00030729987 0)
(1.8452029 0.00021095323 0)
(1.9822898 7.4614641e-05 0)
(1.9822898 -7.4614412e-05 0)
(1.8452029 -0.00021095298 0)
(1.604912 -0.00030729952 0)
(1.3129044 -0.00034572389 0)
(1.017808 -0.00032272176 0)
(0.75256878 -0.00022681643 0)
(0.53266448 -0.00012306699 0)
(0.36044744 -5.6880001e-05 0)
(0.23087699 -2.369821e-05 0)
(0.13608628 -8.2357899e-06 0)
(0.068078702 -1.986652e-06 0)
(0.019942203 -2.9082545e-07 0)
(0.019933132 1.7181661e-07 0)
(0.068047755 1.1940639e-06 0)
(0.13602488 5.065196e-06 0)
(0.23077535 1.4968848e-05 0)
(0.36029898 3.6219532e-05 0)
(0.5324792 7.6944225e-05 0)
(0.75239427 0.00014713769 0)
(1.0177222 0.00023749027 0)
(1.3129292 0.00028525599 0)
(1.6049746 0.00027441497 0)
(1.8452865 0.00019644632 0)
(1.9823834 7.1177153e-05 0)
(1.9823834 -7.1176763e-05 0)
(1.8452865 -0.00019644591 0)
(1.6049746 -0.00027441471 0)
(1.3129292 -0.00028525584 0)
(1.0177222 -0.00023749046 0)
(0.75239427 -0.00014713783 0)
(0.5324792 -7.6944443e-05 0)
(0.36029898 -3.6219663e-05 0)
(0.23077535 -1.4968797e-05 0)
(0.13602488 -5.0651735e-06 0)
(0.068047755 -1.1938694e-06 0)
(0.019933132 -1.7183939e-07 0)
(0.0199234 1.5587736e-07 0)
(0.068015507 1.0700629e-06 0)
(0.13596286 4.4934615e-06 0)
(0.23067607 1.3195447e-05 0)
(0.36015773 3.1857105e-05 0)
(0.53230178 6.6958192e-05 0)
(0.75221429 0.00012411881 0)
(1.0176105 0.00019917044 0)
(1.3129358 0.0002549084 0)
(1.6050904 0.00024595172 0)
(1.8454579 0.00018127904 0)
(1.9825798 6.6548645e-05 0)
(1.9825798 -6.6548371e-05 0)
(1.8454579 -0.00018127874 0)
(1.6050904 -0.00024595158 0)
(1.3129358 -0.00025490841 0)
(1.0176105 -0.00019917044 0)
(0.75221429 -0.00012411885 0)
(0.53230178 -6.6958362e-05 0)
(0.36015773 -3.185727e-05 0)
(0.23067607 -1.3195557e-05 0)
(0.13596286 -4.4934632e-06 0)
(0.068015507 -1.0701429e-06 0)
(0.0199234 -1.5586414e-07 0)
(0.019915697 1.2758852e-07 0)
(0.067989792 8.7799981e-07 0)
(0.13591293 3.6959961e-06 0)
(0.23059503 1.0901582e-05 0)
(0.36003987 2.6613314e-05 0)
(0.53214753 5.7237053e-05 0)
(0.75204133 0.00010911037 0)
(1.0174723 0.00017936615 0)
(1.3128926 0.00023802468 0)
(1.6051414 0.00023746749 0)
(1.8455877 0.00017750679 0)
(1.9827514 6.5539469e-05 0)
(1.9827514 -6.5539342e-05 0)
(1.8455877 -0.00017750666 0)
(1.6051414 -0.00023746751 0)
(1.3128926 -0.00023802466 0)
(1.0174723 -0.00017936592 0)
(0.75204133 -0.00010911008 0)
(0.53214753 -5.7236821e-05 0)
(0.36003987 -2.6613166e-05 0)
(0.23059503 -1.090155e-05 0)
(0.13591293 -3.695926e-06 0)
(0.067989793 -8.7813126e-07 0)
(0.019915697 -1.2756398e-07 0)
(0.019909217 1.0466129e-07 0)
(0.067968141 7.2311428e-07 0)
(0.13587084 3.052099e-06 0)
(0.23052654 9.0118059e-06 0)
(0.35993984 2.1999844e-05 0)
(0.53201542 4.7473372e-05 0)
(0.75188901 9.2013952e-05 0)
(1.0173341 0.00015618174 0)
(1.3128278 0.00021699665 0)
(1.6051595 0.00022709621 0)
(1.8456699 0.0001723263 0)
(1.982868 6.4147729e-05 0)
(1.982868 -6.4147673e-05 0)
(1.8456699 -0.00017232624 0)
(1.6051595 -0.00022709622 0)
(1.3128278 -0.00021699658 0)
(1.0173341 -0.00015618147 0)
(0.75188901 -9.2013625e-05 0)
(0.53201542 -4.7473081e-05 0)
(0.35993984 -2.1999647e-05 0)
(0.23052654 -9.0117667e-06 0)
(0.13587084 -3.0520151e-06 0)
(0.067968141 -7.2328845e-07 0)
(0.019909217 -1.0463002e-07 0)
(0.019903971 8.6130206e-08 0)
(0.067950552 5.9694068e-07 0)
(0.13583649 2.527376e-06 0)
(0.2304703 7.4915968e-06 0)
(0.35985692 1.8376282e-05 0)
(0.53190436 3.9835658e-05 0)
(0.75175836 7.7712101e-05 0)
(1.0172122 0.00013432427 0)
(1.3127613 0.00019323365 0)
(1.6051772 0.00021058348 0)
(1.8457533 0.00016272976 0)
(1.9829863 6.1084322e-05 0)
(1.9829863 -6.1084204e-05 0)
(1.8457533 -0.00016272967 0)
(1.6051772 -0.00021058344 0)
(1.3127613 -0.00019323354 0)
(1.0172122 -0.00013432401 0)
(0.75175836 -7.7711759e-05 0)
(0.53190436 -3.9835315e-05 0)
(0.35985692 -1.8376039e-05 0)
(0.2304703 -7.4915403e-06 0)
(0.13583649 -2.5272826e-06 0)
(0.067950553 -5.9712881e-07 0)
(0.019903971 -8.6096557e-08 0)
(0.019899543 7.3359499e-08 0)
(0.067935688 5.0894625e-07 0)
(0.13580742 2.1568902e-06 0)
(0.23042259 6.4027587e-06 0)
(0.35978626 1.5747595e-05 0)
(0.5318089 3.4277828e-05 0)
(0.75164409 6.7204602e-05 0)
(1.017102 0.00011722993 0)
(1.3126976 0.00017262465 0)
(1.6051928 0.0001930891 0)
(1.8458371 0.00015219876 0)
(1.9831061 5.7544894e-05 0)
(1.9831061 -5.7544744e-05 0)
(1.8458371 -0.00015219868 0)
(1.6051928 -0.00019308909 0)
(1.3126976 -0.0001726246 0)
(1.0171021 -0.00011722973 0)
(0.75164409 -6.7204268e-05 0)
(0.5318089 -3.4277455e-05 0)
(0.35978626 -1.5747317e-05 0)
(0.23042259 -6.4026765e-06 0)
(0.13580742 -2.1567849e-06 0)
(0.067935688 -5.0912624e-07 0)
(0.019899543 -7.332619e-08 0)
(0.019895721 6.3728735e-08 0)
(0.06792285 4.4251428e-07 0)
(0.13578228 1.8767426e-06 0)
(0.23038125 5.5765342e-06 0)
(0.35972483 1.3738702e-05 0)
(0.53172535 2.9998036e-05 0)
(0.75154264 5.9111596e-05 0)
(1.0170011 0.00010388823 0)
(1.3126344 0.00015540286 0)
(1.6052015 0.00017849536 0)
(1.8459125 0.00014271567 0)
(1.9832185 5.4330719e-05 0)
(1.9832185 -5.4330589e-05 0)
(1.8459125 -0.00014271564 0)
(1.6052015 -0.00017849541 0)
(1.3126344 -0.00015540288 0)
(1.0170011 -0.00010388809 0)
(0.75154264 -5.9111289e-05 0)
(0.53172535 -2.9997667e-05 0)
(0.35972483 -1.3738417e-05 0)
(0.23038125 -5.5764428e-06 0)
(0.13578228 -1.8766309e-06 0)
(0.06792285 -4.4269039e-07 0)
(0.019895721 -6.3695409e-08 0)
(0.019892371 5.6090559e-08 0)
(0.067911586 3.8977824e-07 0)
(0.13576021 1.6541303e-06 0)
(0.2303449 4.9187783e-06 0)
(0.35967069 1.2132038e-05 0)
(0.53165136 2.6542479e-05 0)
(0.7514519 5.249883e-05 0)
(1.0169086 9.2875755e-05 0)
(1.3125728 0.00014061496 0)
(1.605205 0.00016529628 0)
(1.8459798 0.00013398941 0)
(1.9833221 5.1387537e-05 0)
(1.9833221 -5.1387465e-05 0)
(1.8459798 -0.00013398943 0)
(1.605205 -0.00016529639 0)
(1.3125728 -0.00014061503 0)
(1.0169086 -9.2875654e-05 0)
(0.7514519 -5.2498537e-05 0)
(0.53165136 -2.6542112e-05 0)
(0.35967069 -1.2131751e-05 0)
(0.2303449 -4.9186857e-06 0)
(0.13576021 -1.6540155e-06 0)
(0.067911586 -3.8995787e-07 0)
(0.019892371 -5.6056453e-08 0)
(0.019889403 4.9848764e-08 0)
(0.067901607 3.4662183e-07 0)
(0.13574064 1.4717688e-06 0)
(0.23031264 4.3794039e-06 0)
(0.35962253 1.0812334e-05 0)
(0.53158531 2.3691446e-05 0)
(0.75137029 4.6984191e-05 0)
(1.016824 8.3546364e-05 0)
(1.3125139 0.00012773753 0)
(1.6052051 0.00015293356 0)
(1.8460415 0.00012582048 0)
(1.9834196 4.8616554e-05 0)
(1.9834196 -4.8616558e-05 0)
(1.8460415 -0.00012582057 0)
(1.6052051 -0.00015293373 0)
(1.3125139 -0.00012773764 0)
(1.016824 -8.3546285e-05 0)
(0.75137029 -4.6983903e-05 0)
(0.53158531 -2.3691077e-05 0)
(0.35962253 -1.0812047e-05 0)
(0.23031264 -4.3793138e-06 0)
(0.13574064 -1.471654e-06 0)
(0.067901607 -3.4680762e-07 0)
(0.019889403 -4.9813814e-08 0)
(0.019886752 4.4698383e-08 0)
(0.067892685 3.1094928e-07 0)
(0.13572313 1.3208211e-06 0)
(0.23028375 3.9322178e-06 0)
(0.35957935 9.7158992e-06 0)
(0.53152592 2.1315623e-05 0)
(0.75129648 4.2360306e-05 0)
(1.0167465 7.5619951e-05 0)
(1.3124581 0.00011654241 0)
(1.6052027 0.00014169879 0)
(1.8460982 0.00011827108 0)
(1.9835117 4.6031582e-05 0)
(1.9835117 -4.6031652e-05 0)
(1.8460982 -0.00011827122 0)
(1.6052027 -0.000141699 0)
(1.3124581 -0.00011654254 0)
(1.0167465 -7.5619887e-05 0)
(0.75129648 -4.2360024e-05 0)
(0.53152592 -2.1315257e-05 0)
(0.35957935 -9.7156159e-06 0)
(0.23028375 -3.9321335e-06 0)
(0.13572313 -1.3207107e-06 0)
(0.067892685 -3.1113837e-07 0)
(0.019886752 -4.4663379e-08 0)
(0.019884362 4.0385859e-08 0)
(0.067884644 2.8104467e-07 0)
(0.13570735 1.1941576e-06 0)
(0.23025769 3.5564947e-06 0)
(0.35954035 8.7929064e-06 0)
(0.53147216 1.9310054e-05 0)
(0.75122934 3.8440199e-05 0)
(1.0166753 6.8838991e-05 0)
(1.3124053 0.00010678358 0)
(1.6051983 0.00013155233 0)
(1.8461504 0.00011132805 0)
(1.9835985 4.3631134e-05 0)
(1.9835985 -4.3631248e-05 0)
(1.8461504 -0.00011132823 0)
(1.6051983 -0.00013155257 0)
(1.3124053 -0.00010678374 0)
(1.0166753 -6.8838941e-05 0)
(0.75122934 -3.8439929e-05 0)
(0.53147216 -1.93097e-05 0)
(0.35954035 -8.7926359e-06 0)
(0.23025769 -3.5564188e-06 0)
(0.13570735 -1.1940569e-06 0)
(0.067884644 -2.8122863e-07 0)
(0.019884362 -4.0352432e-08 0)
(0.019882195 3.6710814e-08 0)
(0.067877349 2.5554357e-07 0)
(0.13569303 1.0860792e-06 0)
(0.23023403 3.2356336e-06 0)
(0.3595049 8.0035869e-06 0)
(0.5314232 1.7590938e-05 0)
(0.75116797 3.506724e-05 0)
(1.0166096 6.2964165e-05 0)
(1.3123553 9.8203232e-05 0)
(1.6051923 0.00012233364 0)
(1.8461982 0.00010491315 0)
(1.9836803 4.1390419e-05 0)
(1.9836803 -4.1390554e-05 0)
(1.8461982 -0.00010491335 0)
(1.6051923 -0.00012233387 0)
(1.3123553 -9.8203395e-05 0)
(1.0166096 -6.2964131e-05 0)
(0.75116797 -3.5066996e-05 0)
(0.5314232 -1.7590614e-05 0)
(0.3595049 -8.0033425e-06 0)
(0.23023403 -3.2355692e-06 0)
(0.13569303 -1.0859945e-06 0)
(0.067877349 -2.5571022e-07 0)
(0.019882195 -3.668121e-08 0)
(0.019880219 3.3538012e-08 0)
(0.067870695 2.3351596e-07 0)
(0.13567996 9.9267263e-07 0)
(0.23021243 2.958154e-06 0)
(0.35947252 7.3202906e-06 0)
(0.53137842 1.6100127e-05 0)
(0.75111164 3.2132991e-05 0)
(1.0165488 5.7823379e-05 0)
(1.3123082 9.0602459e-05 0)
(1.6051852 0.0001139534 0)
(1.8462423 9.8955941e-05 0)
(1.9837576 3.9288894e-05 0)
(1.9837576 -3.928903e-05 0)
(1.8462423 -9.8956131e-05 0)
(1.6051852 -0.00011395363 0)
(1.3123082 -9.0602622e-05 0)
(1.0165488 -5.7823365e-05 0)
(0.75111164 -3.213279e-05 0)
(0.53137842 -1.6099855e-05 0)
(0.35947252 -7.3200906e-06 0)
(0.23021243 -2.9581061e-06 0)
(0.13567996 -9.9261189e-07 0)
(0.067870695 -2.3365129e-07 0)
(0.019880219 -3.3514836e-08 0)
(0.019878409 3.0773352e-08 0)
(0.0678646 2.1431253e-07 0)
(0.13566798 9.1120093e-07 0)
(0.23019263 2.7159873e-06 0)
(0.35944282 6.7234173e-06 0)
(0.53133728 1.479599e-05 0)
(0.75105977 2.9559649e-05 0)
(1.0164925 5.3292493e-05 0)
(1.3122638 8.3831536e-05 0)
(1.6051772 0.00010632401 0)
(1.846283 9.3403187e-05 0)
(1.9838307 3.7312355e-05 0)
(1.9838307 -3.7312474e-05 0)
(1.846283 -9.3403355e-05 0)
(1.6051772 -0.00010632421 0)
(1.3122638 -8.3831691e-05 0)
(1.0164925 -5.3292506e-05 0)
(0.75105977 -2.9559512e-05 0)
(0.53133728 -1.4795798e-05 0)
(0.35944282 -6.7232839e-06 0)
(0.23019263 -2.7159628e-06 0)
(0.13566798 -9.1117331e-07 0)
(0.0678646 -2.1440176e-07 0)
(0.019878409 -3.0759418e-08 0)
(0.019876745 2.8343081e-08 0)
(0.067858993 1.9742484e-07 0)
(0.13565697 8.3952523e-07 0)
(0.23017441 2.5028331e-06 0)
(0.35941547 6.1976442e-06 0)
(0.53129936 1.3645774e-05 0)
(0.75101183 2.7285266e-05 0)
(1.0164401 4.927167e-05 0)
(1.3122219 7.7767653e-05 0)
(1.6051688 9.9356077e-05 0)
(1.8463207 8.8213502e-05 0)
(1.9838998 3.5449427e-05 0)
(1.9838998 -3.5449514e-05 0)
(1.8463207 -8.821363e-05 0)
(1.6051688 -9.9356242e-05 0)
(1.3122219 -7.776779e-05 0)
(1.0164401 -4.9271716e-05 0)
(0.75101183 -2.7285217e-05 0)
(0.53129936 -1.3645694e-05 0)
(0.35941547 -6.1976024e-06 0)
(0.23017441 -2.5028405e-06 0)
(0.13565697 -8.3954099e-07 0)
(0.067858993 -1.9745248e-07 0)
(0.019876745 -2.8341385e-08 0)
(0.019875208 2.6189209e-08 0)
(0.067853818 1.8245244e-07 0)
(0.1356468 7.7595898e-07 0)
(0.23015758 2.3137198e-06 0)
(0.3593902 5.7308716e-06 0)
(0.5312643 1.2623548e-05 0)
(0.75096742 2.5260311e-05 0)
(1.0163914 4.5679496e-05 0)
(1.3121824 7.2308019e-05 0)
(1.6051599 9.2973344e-05 0)
(1.8463555 8.3350276e-05 0)
(1.9839652 3.3689458e-05 0)
(1.9839652 -3.3689496e-05 0)
(1.8463555 -8.3350347e-05 0)
(1.6051599 -9.2973451e-05 0)
(1.3121824 -7.2308128e-05 0)
(1.0163914 -4.5679581e-05 0)
(0.75096742 -2.5260375e-05 0)
(0.5312643 -1.2623613e-05 0)
(0.3593902 -5.7309486e-06 0)
(0.23015758 -2.3137682e-06 0)
(0.1356468 -7.7602934e-07 0)
(0.067853818 -1.8240191e-07 0)
(0.019875208 -2.6202963e-08 0)
(0.019873787 2.4266553e-08 0)
(0.067849027 1.6908289e-07 0)
(0.13563738 7.1918352e-07 0)
(0.230142 2.1447522e-06 0)
(0.35936679 5.3135963e-06 0)
(0.53123178 1.1708887e-05 0)
(0.75092616 2.3445559e-05 0)
(1.016346 4.2450517e-05 0)
(1.3121452 6.7367599e-05 0)
(1.6051509 8.7107531e-05 0)
(1.8463878 7.878517e-05 0)
(1.9840271 3.2023869e-05 0)
(1.9840271 -3.202384e-05 0)
(1.8463878 -7.8785164e-05 0)
(1.6051509 -8.7107562e-05 0)
(1.3121452 -6.736767e-05 0)
(1.016346 -4.2450649e-05 0)
(0.75092616 -2.3445764e-05 0)
(0.53123178 -1.1709134e-05 0)
(0.35936679 -5.3138212e-06 0)
(0.230142 -2.1448516e-06 0)
(0.13563738 -7.1932068e-07 0)
(0.067849027 -1.6893602e-07 0)
(0.019873786 -2.4299264e-08 0)
(0.019872467 2.2539534e-08 0)
(0.067844581 1.5707005e-07 0)
(0.13562864 6.6815853e-07 0)
(0.23012754 1.9928531e-06 0)
(0.35934505 4.9382956e-06 0)
(0.53120156 1.0885583e-05 0)
(0.75088776 2.1809787e-05 0)
(1.0163035 3.9532214e-05 0)
(1.31211 6.2876524e-05 0)
(1.6051418 8.1702132e-05 0)
(1.8464178 7.449195e-05 0)
(1.9840857 3.0444515e-05 0)
(1.9840857 -3.04444e-05 0)
(1.8464178 -7.4491846e-05 0)
(1.6051418 -8.1702067e-05 0)
(1.31211 -6.2876546e-05 0)
(1.0163035 -3.9532398e-05 0)
(0.75088776 -2.1810162e-05 0)
(0.53120156 -1.088605e-05 0)
(0.35934505 -4.9386995e-06 0)
(0.23012754 -1.9930139e-06 0)
(0.13562864 -6.6837579e-07 0)
(0.067844581 -1.5680662e-07 0)
(0.019872467 -2.2595072e-08 0)
(0.01987124 2.0979664e-08 0)
(0.067840446 1.4621683e-07 0)
(0.13562051 6.2205028e-07 0)
(0.23011408 1.8555543e-06 0)
(0.35932481 4.5989248e-06 0)
(0.53117342 1.0140573e-05 0)
(0.75085195 2.0327736e-05 0)
(1.0162638 3.6881888e-05 0)
(1.3120768 5.877708e-05 0)
(1.6051327 7.6706872e-05 0)
(1.8464458 7.0451497e-05 0)
(1.9841412 2.8945354e-05 0)
(1.9841412 -2.8945131e-05 0)
(1.8464458 -7.0451273e-05 0)
(1.6051327 -7.6706687e-05 0)
(1.3120768 -5.8777036e-05 0)
(1.0162638 -3.6882133e-05 0)
(0.75085195 -2.0328313e-05 0)
(0.53117342 -1.0141302e-05 0)
(0.35932481 -4.5995419e-06 0)
(0.23011408 -1.8557877e-06 0)
(0.13562051 -6.223623e-07 0)
(0.067840446 -1.458143e-07 0)
(0.01987124 -2.1062329e-08 0)
(0.019870096 1.9563909e-08 0)
(0.067836592 1.3636373e-07 0)
(0.13561293 5.8018385e-07 0)
(0.23010153 1.7308567e-06 0)
(0.35930594 4.2905846e-06 0)
(0.53114716 9.4632562e-06 0)
(0.75081849 1.8978848e-05 0)
(1.0162266 3.4464546e-05 0)
(1.3120455 5.502113e-05 0)
(1.6051237 7.2080959e-05 0)
(1.8464718 6.6643037e-05 0)
(1.9841938 2.7519951e-05 0)
(1.9841938 -2.7519597e-05 0)
(1.8464718 -6.6642667e-05 0)
(1.6051237 -7.2080628e-05 0)
(1.3120455 -5.5021006e-05 0)
(1.0162266 -3.4464859e-05 0)
(0.75081849 -1.8979661e-05 0)
(0.53114716 -9.4642953e-06 0)
(0.35930594 -4.2914531e-06 0)
(0.23010153 -1.7311752e-06 0)
(0.13561293 -5.8060695e-07 0)
(0.067836592 -1.3579697e-07 0)
(0.019870096 -1.967849e-08 0)
(0.019869029 1.8273426e-08 0)
(0.067832994 1.2738016e-07 0)
(0.13560586 5.4200648e-07 0)
(0.23008981 1.6171216e-06 0)
(0.35928831 4.0092547e-06 0)
(0.53112262 8.844916e-06 0)
(0.75078719 1.774617e-05 0)
(1.0161917 3.2251242e-05 0)
(1.312016 5.1568473e-05 0)
(1.6051149 6.778655e-05 0)
(1.846496 6.3053348e-05 0)
(1.9842436 2.6164276e-05 0)
(1.9842436 -2.6163767e-05 0)
(1.846496 -6.3052805e-05 0)
(1.6051149 -6.7786046e-05 0)
(1.312016 -5.1568252e-05 0)
(1.0161917 -3.2251635e-05 0)
(0.75078719 -1.7747261e-05 0)
(0.53112262 -8.8463179e-06 0)
(0.35928831 -4.0104172e-06 0)
(0.23008981 -1.6175394e-06 0)
(0.13560586 -5.4255893e-07 0)
(0.067832994 -1.2662118e-07 0)
(0.019869029 -1.8425255e-08 0)
(0.019868031 1.709269e-08 0)
(0.067829631 1.1915838e-07 0)
(0.13559924 5.070622e-07 0)
(0.23007886 1.5129974e-06 0)
(0.35927183 3.7516177e-06 0)
(0.53109966 8.2783586e-06 0)
(0.75075787 1.661569e-05 0)
(1.0161589 3.0217888e-05 0)
(1.311988 4.8385077e-05 0)
(1.6051063 6.3794031e-05 0)
(1.8465187 5.9664231e-05 0)
(1.9842909 2.4872967e-05 0)
(1.9842909 -2.4872281e-05 0)
(1.8465187 -5.9663489e-05 0)
(1.6051063 -6.3793326e-05 0)
(1.311988 -4.8384744e-05 0)
(1.0161589 -3.0218375e-05 0)
(0.75075787 -1.6617105e-05 0)
(0.53109966 -8.2801839e-06 0)
(0.35927183 -3.7531228e-06 0)
(0.23007886 -1.5135305e-06 0)
(0.13559924 -5.0776447e-07 0)
(0.06782963 -1.1817606e-07 0)
(0.019868031 -1.7287704e-08 0)
(0.019867097 1.6008737e-08 0)
(0.067826482 1.1160838e-07 0)
(0.13559305 4.7497011e-07 0)
(0.2300686 1.4173538e-06 0)
(0.35925639 3.5148956e-06 0)
(0.53107814 7.7575436e-06 0)
(0.75073038 1.5575617e-05 0)
(1.0161281 2.8344226e-05 0)
(1.3119617 4.5442285e-05 0)
(1.6050979 6.0073885e-05 0)
(1.8465398 5.646724e-05 0)
(1.9843356 2.3643706e-05 0)
(1.9843356 -2.3642821e-05 0)
(1.8465398 -5.6466273e-05 0)
(1.6050979 -6.0072955e-05 0)
(1.3119617 -4.5441829e-05 0)
(1.0161281 -2.8344827e-05 0)
(0.75073038 -1.5577411e-05 0)
(0.53107814 -7.7598614e-06 0)
(0.35925639 -3.516798e-06 0)
(0.2300686 -1.4180205e-06 0)
(0.13559305 -4.7584513e-07 0)
(0.067826481 -1.1036805e-07 0)
(0.019867096 -1.6253536e-08 0)
(0.019866221 1.5010672e-08 0)
(0.067823531 1.0465439e-07 0)
(0.13558724 4.4540959e-07 0)
(0.23005898 1.32924e-06 0)
(0.35924191 3.2967542e-06 0)
(0.53105796 7.2774035e-06 0)
(0.75070457 1.4616045e-05 0)
(1.0160992 2.661307e-05 0)
(1.3119367 4.271526e-05 0)
(1.6050897 5.6604443e-05 0)
(1.8465596 5.3444796e-05 0)
(1.984378 2.2471513e-05 0)
(1.984378 -2.247041e-05 0)
(1.8465596 -5.344358e-05 0)
(1.6050897 -5.660326e-05 0)
(1.3119367 -4.2714668e-05 0)
(1.0160992 -2.6613807e-05 0)
(0.75070457 -1.4618281e-05 0)
(0.53105795 -7.2802915e-06 0)
(0.35924191 -3.2991154e-06 0)
(0.23005898 -1.3300608e-06 0)
(0.13558724 -4.4648289e-07 0)
(0.06782353 -1.0311751e-07 0)
(0.019866221 -1.5312566e-08 0)
(0.0198654 1.4089251e-08 0)
(0.067820761 9.8232206e-08 0)
(0.1355818 4.1810895e-07 0)
(0.23004995 1.2478489e-06 0)
(0.35922832 3.0952055e-06 0)
(0.53103901 6.8336026e-06 0)
(0.75068032 1.3728484e-05 0)
(1.0160719 2.5009789e-05 0)
(1.3119132 4.0183107e-05 0)
(1.6050818 5.3361772e-05 0)
(1.8465781 5.0593085e-05 0)
(1.9844182 2.1355633e-05 0)
(1.9844182 -2.1354294e-05 0)
(1.8465781 -5.0591598e-05 0)
(1.6050818 -5.3360313e-05 0)
(1.3119132 -4.0182371e-05 0)
(1.0160719 -2.5010691e-05 0)
(0.75068032 -1.3731232e-05 0)
(0.531039 -6.8371481e-06 0)
(0.35922832 -3.0980939e-06 0)
(0.23004995 -1.2488468e-06 0)
(0.1355818 -4.1940886e-07 0)
(0.067820761 -9.6355929e-08 0)
(0.019865399 -1.4456303e-08 0)
(0.019864628 1.3236546e-08 0)
(0.067818161 9.2286564e-08 0)
(0.13557668 3.9283421e-07 0)
(0.23004148 1.1724868e-06 0)
(0.35921555 2.9085488e-06 0)
(0.5310212 6.4224502e-06 0)
(0.75065752 1.2905697e-05 0)
(1.0160463 2.3521681e-05 0)
(1.3118909 3.7827011e-05 0)
(1.6050743 5.0330049e-05 0)
(1.8465955 4.7893365e-05 0)
(1.9844563 2.0290754e-05 0)
(1.9844563 -2.0289164e-05 0)
(1.8465955 -4.7891586e-05 0)
(1.6050743 -5.0328291e-05 0)
(1.3118909 -3.7826124e-05 0)
(1.0160463 -2.3522782e-05 0)
(0.75065752 -1.2909036e-05 0)
(0.53102119 -6.4267496e-06 0)
(0.35921555 -2.9120403e-06 0)
(0.23004148 -1.1736873e-06 0)
(0.13557668 -3.9439193e-07 0)
(0.06781816 -9.0023329e-08 0)
(0.019864628 -1.3677598e-08 0)
(0.019863903 1.2445802e-08 0)
(0.067815716 8.6770604e-08 0)
(0.13557187 3.6938717e-07 0)
(0.23003351 1.1025638e-06 0)
(0.35920355 2.735324e-06 0)
(0.53100445 6.0407464e-06 0)
(0.75063606 1.2141398e-05 0)
(1.0160221 2.2137944e-05 0)
(1.3118699 3.5631591e-05 0)
(1.6050669 4.7489234e-05 0)
(1.8466118 4.5347153e-05 0)
(1.9844924 1.9277829e-05 0)
(1.9844924 -1.9275978e-05 0)
(1.8466118 -4.5345062e-05 0)
(1.6050669 -4.7487152e-05 0)
(1.3118699 -3.5630544e-05 0)
(1.0160221 -2.2139278e-05 0)
(0.75063606 -1.2145416e-05 0)
(0.53100445 -6.0459061e-06 0)
(0.35920355 -2.7395019e-06 0)
(0.23003351 -1.1039944e-06 0)
(0.13557187 -3.7123684e-07 0)
(0.067815715 -8.4067836e-08 0)
(0.019863903 -1.2970459e-08 0)
(0.019863221 1.171103e-08 0)
(0.067813416 8.1642366e-08 0)
(0.13556735 3.4758998e-07 0)
(0.23002601 1.0375537e-06 0)
(0.35919226 2.5742476e-06 0)
(0.53098868 5.6857168e-06 0)
(0.75061585 1.1430134e-05 0)
(1.0159993 2.0848831e-05 0)
(1.31185 3.3581894e-05 0)
(1.6050599 4.48278e-05 0)
(1.8466272 4.2932538e-05 0)
(1.9845266 1.831043e-05 0)
(1.9845266 -1.8308308e-05 0)
(1.8466272 -4.2930119e-05 0)
(1.6050599 -4.4825372e-05 0)
(1.31185 -3.3580678e-05 0)
(1.0159993 -2.0850439e-05 0)
(0.75061585 -1.1434924e-05 0)
(0.53098868 -5.6918525e-06 0)
(0.35919225 -2.5792025e-06 0)
(0.23002601 -1.0392445e-06 0)
(0.13556735 -3.4976858e-07 0)
(0.067813416 -7.8442037e-08 0)
(0.01986322 -1.232961e-08 0)
(0.019862579 1.1027266e-08 0)
(0.067811252 7.6867646e-08 0)
(0.13556309 3.2729818e-07 0)
(0.23001895 9.7702392e-07 0)
(0.35918162 2.424237e-06 0)
(0.53097384 5.3549622e-06 0)
(0.75059681 1.0767176e-05 0)
(1.0159778 1.9646332e-05 0)
(1.3118312 3.1666843e-05 0)
(1.6050532 4.2328767e-05 0)
(1.8466415 4.0657942e-05 0)
(1.984559 1.7391733e-05 0)
(1.984559 -1.7389335e-05 0)
(1.8466415 -4.0655179e-05 0)
(1.6050532 -4.2325968e-05 0)
(1.3118312 -3.1665452e-05 0)
(1.0159778 -1.9648256e-05 0)
(0.75059681 -1.0772842e-05 0)
(0.53097384 -5.3621996e-06 0)
(0.35918162 -2.430067e-06 0)
(0.23001895 -9.7900715e-07 0)
(0.13556309 -3.2984549e-07 0)
(0.067811251 -7.3106216e-08 0)
(0.019862578 -1.1750636e-08 0)
(0.019861974 1.0389741e-08 0)
(0.067809213 7.2412571e-08 0)
(0.13555907 3.0836791e-07 0)
(0.2300123 9.2055216e-07 0)
(0.3591716 2.2842767e-06 0)
(0.53095985 5.0463169e-06 0)
(0.75057886 1.0148259e-05 0)
(1.0159575 1.8522576e-05 0)
(1.3118134 2.987363e-05 0)
(1.6050467 3.9983367e-05 0)
(1.8466551 3.8495647e-05 0)
(1.9845898 1.6513177e-05 0)
(1.9845898 -1.6510501e-05 0)
(1.8466551 -3.8492527e-05 0)
(1.6050467 -3.9980174e-05 0)
(1.3118134 -2.9872056e-05 0)
(1.0159575 -1.8524863e-05 0)
(0.75057886 -1.0154911e-05 0)
(0.53095984 -5.0547919e-06 0)
(0.3591716 -2.2910878e-06 0)
(0.2300123 -9.2286285e-07 0)
(0.13555907 -3.1132636e-07 0)
(0.067809212 -6.8020785e-08 0)
(0.019861974 -1.122902e-08 0)
(0.019861404 9.7949996e-09 0)
(0.067807292 6.8253903e-08 0)
(0.13555529 2.9070161e-07 0)
(0.23000603 8.6783998e-07 0)
(0.35916216 2.153593e-06 0)
(0.53094666 4.7580106e-06 0)
(0.75056194 9.5698745e-06 0)
(1.0159384 1.7471875e-05 0)
(1.3117965 2.8195202e-05 0)
(1.6050405 3.7777914e-05 0)
(1.8466678 3.6463688e-05 0)
(1.9846188 1.5681176e-05 0)
(1.9846188 -1.5678232e-05 0)
(1.8466678 -3.6460205e-05 0)
(1.6050405 -3.7774308e-05 0)
(1.3117965 -2.8193441e-05 0)
(1.0159384 -1.7474577e-05 0)
(0.75056194 -9.5776325e-06 0)
(0.53094666 -4.7678673e-06 0)
(0.35916216 -2.1614965e-06 0)
(0.23000603 -8.7051416e-07 0)
(0.13555529 -2.9411497e-07 0)
(0.06780729 -6.315572e-08 0)
(0.019861404 -1.0760954e-08 0)
(0.019860867 9.2388246e-09 0)
(0.067805479 6.4360704e-08 0)
(0.13555173 2.7416732e-07 0)
(0.23000012 8.1850784e-07 0)
(0.35915325 2.0313075e-06 0)
(0.53093422 4.4882394e-06 0)
(0.75054596 9.0284772e-06 0)
(1.0159203 1.6487289e-05 0)
(1.3117806 2.6619088e-05 0)
(1.6050346 3.5704167e-05 0)
(1.8466798 3.4524797e-05 0)
(1.9846465 1.4883576e-05 0)
(1.9846465 -1.4880375e-05 0)
(1.8466798 -3.4520951e-05 0)
(1.6050346 -3.5700134e-05 0)
(1.3117806 -2.661714e-05 0)
(1.0159203 -1.6490465e-05 0)
(0.75054596 -9.0374703e-06 0)
(0.53093421 -4.499632e-06 0)
(0.35915325 -2.0404216e-06 0)
(0.23000012 -8.2158478e-07 0)
(0.13555173 -2.7808043e-07 0)
(0.067805478 -5.8473701e-08 0)
(0.019860866 -1.0340345e-08 0)
(0.01986036 8.7195281e-09 0)
(0.067803771 6.0723146e-08 0)
(0.13554837 2.5872533e-07 0)
(0.22999455 7.72417e-07 0)
(0.35914485 1.9169872e-06 0)
(0.53092248 4.2358692e-06 0)
(0.75053089 8.5217622e-06 0)
(1.0159032 1.5565627e-05 0)
(1.3117655 2.5143191e-05 0)
(1.605029 3.3753766e-05 0)
(1.846691 3.2710993e-05 0)
(1.9846726 1.4131779e-05 0)
(1.9846726 -1.4128352e-05 0)
(1.846691 -3.2706799e-05 0)
(1.605029 -3.3749302e-05 0)
(1.3117655 -2.5141066e-05 0)
(1.0159032 -1.5569345e-05 0)
(0.75053089 -8.5321288e-06 0)
(0.53092248 -4.2489609e-06 0)
(0.35914485 -1.9274363e-06 0)
(0.22999455 -7.7594067e-07 0)
(0.13554836 -2.6318277e-07 0)
(0.067803769 -5.3955265e-08 0)
(0.019860359 -9.9601719e-09 0)
(0.019859881 8.2324277e-09 0)
(0.067802156 5.7304964e-08 0)
(0.13554519 2.4422011e-07 0)
(0.22998928 7.2913653e-07 0)
(0.35913691 1.8097084e-06 0)
(0.53091139 3.9991606e-06 0)
(0.75051664 8.0463768e-06 0)
(1.0158871 1.4699684e-05 0)
(1.3117512 2.3752769e-05 0)
(1.6050236 3.1914987e-05 0)
(1.8467017 3.0970006e-05 0)
(1.9846975 1.3407827e-05 0)
(1.9846975 -1.3404213e-05 0)
(1.8467017 -3.0965488e-05 0)
(1.6050236 -3.1910096e-05 0)
(1.3117512 -2.3750482e-05 0)
(1.0158871 -1.4704016e-05 0)
(0.75051664 -8.058258e-06 0)
(0.53091138 -4.0141134e-06 0)
(0.35913691 -1.8216131e-06 0)
(0.22998928 -7.3313768e-07 0)
(0.13554519 -2.4927006e-07 0)
(0.067802154 -4.9592029e-08 0)
(0.01985988 -9.6369946e-09 0)
(0.01985943 7.7791115e-09 0)
(0.067800634 5.412181e-08 0)
(0.13554219 2.3072178e-07 0)
(0.22998431 6.8882209e-07 0)
(0.35912943 1.7096276e-06 0)
(0.53090093 3.7779846e-06 0)
(0.7505032 7.6018189e-06 0)
(1.0158719 1.3890152e-05 0)
(1.3117377 2.2453872e-05 0)
(1.6050185 3.0190266e-05 0)
(1.8467117 2.9354827e-05 0)
(1.9847208 1.2731035e-05 0)
(1.9847208 -1.2727304e-05 0)
(1.8467117 -2.9350034e-05 0)
(1.6050185 -3.0184969e-05 0)
(1.3117377 -2.2451451e-05 0)
(1.0158719 -1.3895174e-05 0)
(0.7505032 -7.61535e-06 0)
(0.53090093 -3.7949485e-06 0)
(0.35912942 -1.7230943e-06 0)
(0.22998431 -6.9331893e-07 0)
(0.13554219 -2.3640486e-07 0)
(0.067800632 -4.5408784e-08 0)
(0.019859429 -9.3764898e-09 0)
(0.019859003 7.3517847e-09 0)
(0.067799193 5.1110884e-08 0)
(0.13553936 2.1796084e-07 0)
(0.22997961 6.5075625e-07 0)
(0.35912234 1.6153366e-06 0)
(0.53089102 3.5700023e-06 0)
(0.75049047 7.1838632e-06 0)
(1.0158574 1.312729e-05 0)
(1.3117249 2.1224716e-05 0)
(1.6050136 2.8556869e-05 0)
(1.8467212 2.779038e-05 0)
(1.9847433 1.2074343e-05 0)
(1.9847433 -1.207057e-05 0)
(1.8467212 -2.7785369e-05 0)
(1.6050136 -2.8551199e-05 0)
(1.3117249 -2.12222e-05 0)
(1.0158574 -1.3133085e-05 0)
(0.75049046 -7.1991731e-06 0)
(0.53089102 -3.5891122e-06 0)
(0.35912233 -1.630456e-06 0)
(0.22997961 -6.5576845e-07 0)
(0.13553936 -2.24302e-07 0)
(0.067799191 -4.133592e-08 0)
(0.019859001 -9.1520084e-09 0)
(0.0198586 6.9608232e-09 0)
(0.067797836 4.8355549e-08 0)
(0.13553669 2.062958e-07 0)
(0.22997518 6.1585788e-07 0)
(0.35911566 1.5284848e-06 0)
(0.5308817 3.3775228e-06 0)
(0.75047849 6.7961039e-06 0)
(1.0158438 1.2420041e-05 0)
(1.3117128 2.0087674e-05 0)
(1.605009 2.7040278e-05 0)
(1.84673 2.6362063e-05 0)
(1.9847642 1.1469952e-05 0)
(1.9847642 -1.1466249e-05 0)
(1.84673 -2.6356917e-05 0)
(1.605009 -2.7034284e-05 0)
(1.3117128 -2.0085104e-05 0)
(1.0158438 -1.2426684e-05 0)
(0.75047848 -6.8133136e-06 0)