/*--------------------------------*- C++ -*----------------------------------*\
  =========                 |
  \\      /  F ield         | OpenFOAM: The Open Source CFD Toolbox
   \\    /   O peration     | Website:  https://openfoam.org
    \\  /    A nd           | Version:  10
     \\/     M anipulation  |
\*---------------------------------------------------------------------------*/
FoamFile
{
    format      ascii;
    class       volScalarField;
    location    "17.5";
    object      ddt0(T);
}
// * * * * * * * * * * * * * * * * * * * * * * * * * * * * * * * * * * * * * //

dimensions      [0 0 -1 1 0 0 0];

internalField   nonuniform List<scalar> 
10000
(
2309.61
673.874
788.63
803.052
802.659
802.577
802.656
802.696
802.709
802.715
802.719
802.723
802.726
802.73
802.733
802.736
802.739
802.742
802.745
802.748
802.751
802.753
802.756
802.758
802.761
802.763
802.765
802.768
802.77
802.772
802.774
802.776
802.778
802.78
802.781
802.783
802.785
802.786
802.788
802.789
802.791
802.792
802.793
802.794
802.795
802.796
802.797
802.798
802.799
802.8
802.8
802.801
802.801
802.802
802.802
802.803
802.803
802.803
802.804
802.804
802.804
802.804
802.804
802.804
802.805
802.805
802.805
802.804
802.804
802.804
802.804
802.804
802.804
802.804
802.804
802.803
802.803
802.803
802.803
802.803
802.802
802.802
802.802
802.802
802.801
802.801
802.801
802.801
802.801
802.8
802.8
802.8
802.8
802.8
802.802
802.815
802.74
800.249
774.597
801.745
818.219
-480.235
-240.753
-222.576
-225.978
-226.739
-226.721
-226.676
-226.657
-226.645
-226.635
-226.625
-226.616
-226.607
-226.597
-226.588
-226.579
-226.571
-226.562
-226.554
-226.546
-226.538
-226.53
-226.522
-226.515
-226.508
-226.501
-226.494
-226.488
-226.481
-226.475
-226.469
-226.463
-226.458
-226.452
-226.447
-226.442
-226.438
-226.433
-226.429
-226.425
-226.421
-226.417
-226.414
-226.411
-226.408
-226.405
-226.402
-226.4
-226.398
-226.396
-226.394
-226.392
-226.39
-226.389
-226.388
-226.387
-226.386
-226.385
-226.384
-226.384
-226.383
-226.383
-226.383
-226.383
-226.383
-226.383
-226.383
-226.383
-226.383
-226.384
-226.384
-226.385
-226.385
-226.386
-226.386
-226.387
-226.387
-226.388
-226.389
-226.389
-226.39
-226.391
-226.391
-226.392
-226.392
-226.393
-226.394
-226.394
-226.395
-226.395
-226.396
-226.396
-226.396
-226.39
-226.334
-226.115
-226.667
-238.546
-215.29
905.855
-271.963
-17.215
-1.45381
-5.99137
-6.91903
-6.89356
-6.83574
-6.80816
-6.78999
-6.77357
-6.75751
-6.74169
-6.72607
-6.71069
-6.69555
-6.68067
-6.66607
-6.65177
-6.63778
-6.6241
-6.61074
-6.59771
-6.58501
-6.57264
-6.5606
-6.5489
-6.53754
-6.52652
-6.51585
-6.50552
-6.49555
-6.48593
-6.47666
-6.46776
-6.45921
-6.45102
-6.4432
-6.43573
-6.42862
-6.42186
-6.41546
-6.40941
-6.4037
-6.39834
-6.3933
-6.3886
-6.38422
-6.38016
-6.37641
-6.37295
-6.36979
-6.36692
-6.36432
-6.36199
-6.35991
-6.35809
-6.3565
-6.35514
-6.354
-6.35306
-6.35232
-6.35177
-6.3514
-6.35119
-6.35114
-6.35123
-6.35145
-6.3518
-6.35226
-6.35283
-6.35349
-6.35423
-6.35505
-6.35593
-6.35686
-6.35784
-6.35885
-6.3599
-6.36096
-6.36203
-6.36311
-6.36418
-6.36524
-6.36628
-6.3673
-6.36828
-6.36923
-6.37013
-6.37098
-6.3718
-6.37263
-6.3738
-6.37602
-6.37681
-6.33939
-6.10139
-5.90243
-12.0205
-1.48355
917.663
-255.635
-3.17541
11.0551
6.14961
5.18944
5.22722
5.29538
5.33053
5.35537
5.37823
5.40059
5.42264
5.44439
5.46582
5.48691
5.50763
5.52797
5.5479
5.56742
5.58651
5.60516
5.62336
5.64111
5.65841
5.67524
5.6916
5.70749
5.72291
5.73784
5.75228
5.76623
5.77969
5.79264
5.8051
5.81705
5.82849
5.83943
5.84987
5.85981
5.86925
5.8782
5.88666
5.89463
5.90213
5.90916
5.91573
5.92185
5.92753
5.93277
5.93759
5.94201
5.94602
5.94965
5.95291
5.9558
5.95835
5.96057
5.96246
5.96406
5.96536
5.96639
5.96715
5.96767
5.96796
5.96803
5.96789
5.96758
5.96708
5.96643
5.96564
5.96471
5.96367
5.96253
5.96129
5.95999
5.95861
5.95719
5.95573
5.95424
5.95274
5.95123
5.94972
5.94823
5.94677
5.94534
5.94395
5.94262
5.94134
5.94013
5.93899
5.93787
5.93638
5.93283
5.92372
5.92144
6.05449
6.57495
5.59899
8.07437
917.33
-258.48
-7.09622
6.77176
1.81084
0.859551
0.90879
0.985238
1.02728
1.05861
1.08782
1.11647
1.14473
1.17262
1.2001
1.22716
1.25376
1.27988
1.30548
1.33056
1.35508
1.37905
1.40245
1.42527
1.44751
1.46914
1.49018
1.51061
1.53042
1.54961
1.56816
1.58609
1.60337
1.62001
1.63601
1.65136
1.66605
1.6801
1.69351
1.70627
1.71838
1.72987
1.74073
1.75096
1.76059
1.76961
1.77804
1.78589
1.79317
1.7999
1.80609
1.81175
1.8169
1.82155
1.82572
1.82944
1.8327
1.83554
1.83797
1.84001
1.84168
1.84299
1.84396
1.84462
1.84499
1.84507
1.84489
1.84448
1.84384
1.843
1.84197
1.84078
1.83943
1.83796
1.83637
1.83469
1.83292
1.83109
1.82921
1.82729
1.82535
1.82341
1.82147
1.81956
1.81768
1.81584
1.81405
1.81233
1.81069
1.80913
1.80767
1.80634
1.80499
1.80242
1.79377
1.77199
1.77224
1.95992
2.07578
2.61508
917.264
-259.125
-7.90198
5.93333
0.981041
0.041629
0.0997558
0.183375
0.232007
0.26974
0.305271
0.340178
0.374634
0.408636
0.442157
0.475163
0.507615
0.539481
0.570728
0.601334
0.631277
0.660541
0.689112
0.716977
0.744126
0.770549
0.796235
0.821176
0.845363
0.868787
0.891442
0.913321
0.934417
0.954726
0.974246
0.992973
1.01091
1.02805
1.0444
1.05997
1.07475
1.08876
1.102
1.11449
1.12622
1.13723
1.14751
1.15708
1.16596
1.17416
1.1817
1.1886
1.19487
1.20054
1.20563
1.21015
1.21412
1.21758
1.22053
1.22301
1.22504
1.22663
1.22781
1.2286
1.22904
1.22913
1.22891
1.22839
1.2276
1.22657
1.22531
1.22384
1.2222
1.22039
1.21844
1.21638
1.21422
1.21197
1.20967
1.20733
1.20496
1.20258
1.20021
1.19787
1.19557
1.19332
1.19113
1.18903
1.18702
1.18511
1.18332
1.18171
1.18033
1.17895
1.17517
1.16153
1.13597
1.14692
1.22557
1.39869
917.333
-259.107
-7.87837
5.96851
1.02745
0.0968907
0.162306
0.252582
0.307656
0.351742
0.393562
0.434695
0.475309
0.515393
0.554915
0.593833
0.632102
0.669683
0.70654
0.742644
0.777969
0.812497
0.846208
0.879089
0.911124
0.942302
0.972611
1.00204
1.03058
1.05821
1.08494
1.11075
1.13563
1.15959
1.18261
1.20469
1.22584
1.24606
1.26534
1.28369
1.30112
1.31764
1.33325
1.34796
1.3618
1.37477
1.38688
1.39816
1.40862
1.41828
1.42717
1.43529
1.44268
1.44935
1.45534
1.46066
1.46534
1.4694
1.47287
1.47578
1.47816
1.48002
1.4814
1.48233
1.48283
1.48292
1.48265
1.48203
1.48109
1.47985
1.47835
1.47661
1.47466
1.47252
1.47021
1.46777
1.46521
1.46255
1.45983
1.45705
1.45425
1.45144
1.44864
1.44586
1.44314
1.44048
1.4379
1.43541
1.43303
1.43077
1.42865
1.42668
1.42499
1.42372
1.4224
1.41773
1.40332
1.38187
1.38334
1.48362
917.367
-259.067
-7.82611
6.03082
1.09797
0.174562
0.246631
0.343363
0.404804
0.455198
0.503269
0.550589
0.597322
0.64345
0.688934
0.733724
0.777772
0.82103
0.863459
0.905023
0.945695
0.985451
1.02427
1.06213
1.09902
1.13492
1.16982
1.20371
1.23656
1.26838
1.29915
1.32886
1.35751
1.38508
1.41158
1.437
1.46134
1.4846
1.50679
1.52791
1.54797
1.56697
1.58493
1.60186
1.61777
1.63268
1.64662
1.65959
1.67161
1.68272
1.69293
1.70227
1.71076
1.71843
1.7253
1.73141
1.73677
1.74143
1.74542
1.74875
1.75146
1.75359
1.75517
1.75621
1.75677
1.75687
1.75653
1.7558
1.7547
1.75326
1.75152
1.7495
1.74724
1.74476
1.74209
1.73926
1.7363
1.73323
1.73008
1.72687
1.72364
1.72039
1.71715
1.71395
1.71081
1.70774
1.70476
1.70189
1.69914
1.69653
1.69407
1.69177
1.68969
1.68798
1.68683
1.68552
1.68037
1.66265
1.63278
1.72714
917.379
-259.048
-7.80001
6.06443
1.13846
0.221634
0.300148
0.403249
0.471005
0.527662
0.581939
0.635404
0.688212
0.74034
0.791741
0.842361
0.892143
0.941035
0.988993
1.03598
1.08195
1.1269
1.17078
1.21359
1.25529
1.29588
1.33534
1.37364
1.41079
1.44676
1.48154
1.51512
1.5475
1.57866
1.60861
1.63733
1.66484
1.69112
1.71619
1.74004
1.7627
1.78416
1.80445
1.82357
1.84154
1.85838
1.87411
1.88875
1.90233
1.91487
1.92639
1.93692
1.9465
1.95514
1.96289
1.96977
1.97582
1.98106
1.98554
1.98929
1.99233
1.99472
1.99647
1.99764
1.99824
1.99833
1.99793
1.99708
1.99582
1.99417
1.99218
1.98988
1.9873
1.98448
1.98145
1.97823
1.97486
1.97138
1.9678
1.96416
1.96049
1.9568
1.95313
1.9495
1.94593
1.94245
1.93907
1.93581
1.9327
1.92975
1.92696
1.92435
1.92194
1.91981
1.91819
1.91736
1.91615
1.90395
1.85416
1.96644
917.385
-259.037
-7.78208
6.08906
1.16958
0.259161
0.344034
0.453447
0.527469
0.590341
0.650777
0.710337
0.769171
0.827249
0.884518
0.940917
0.996384
1.05086
1.1043
1.15666
1.2079
1.25798
1.30689
1.35459
1.40108
1.44631
1.49028
1.53297
1.57436
1.61444
1.6532
1.69062
1.72669
1.76141
1.79477
1.82677
1.8574
1.88668
1.9146
1.94117
1.9664
1.9903
2.01288
2.03416
2.05417
2.07291
2.09042
2.10671
2.12182
2.13576
2.14857
2.16029
2.17093
2.18054
2.18915
2.19679
2.2035
2.20932
2.21428
2.21842
2.22179
2.22442
2.22635
2.22762
2.22826
2.22833
2.22786
2.22689
2.22545
2.22359
2.22135
2.21876
2.21587
2.2127
2.20929
2.20569
2.20191
2.19801
2.194
2.18993
2.18581
2.18169
2.17758
2.17352
2.16953
2.16563
2.16185
2.15821
2.15473
2.15143
2.14832
2.14542
2.14272
2.14026
2.13821
2.13715
2.13754
2.12917
2.05942
2.19791
917.389
-259.027
-7.76566
6.11194
1.19883
0.294744
0.385916
0.501588
0.581822
0.650856
0.717396
0.782997
0.847802
0.911775
0.974857
1.03698
1.09808
1.15809
1.21696
1.27463
1.33108
1.38626
1.44014
1.4927
1.54391
1.59374
1.64219
1.68922
1.73481
1.77896
1.82165
1.86287
1.9026
1.94084
1.97757
2.01281
2.04654
2.07878
2.10951
2.13876
2.16653
2.19284
2.21769
2.24112
2.26313
2.28375
2.30301
2.32093
2.33754
2.35287
2.36695
2.37983
2.39152
2.40207
2.41152
2.4199
2.42726
2.43364
2.43907
2.4436
2.44728
2.45014
2.45223
2.4536
2.45428
2.45432
2.45377
2.45266
2.45105
2.44897
2.44647
2.44359
2.44036
2.43684
2.43306
2.42906
2.42488
2.42055
2.41611
2.4116
2.40704
2.40248
2.39793
2.39344
2.38902
2.38471
2.38054
2.37651
2.37266
2.36901
2.36558
2.36237
2.35941
2.35668
2.35429
2.35292
2.35414
2.34889
2.25969
2.42496
917.392
-259.017
-7.74957
6.13438
1.22757
0.32976
0.427172
0.549044
0.635432
0.710568
0.783153
0.854735
0.925451
0.995259
1.06409
1.13188
1.19855
1.26403
1.32827
1.39122
1.45281
1.51303
1.57184
1.6292
1.68508
1.73947
1.79233
1.84365
1.89341
1.94159
1.98816
2.03313
2.07648
2.11819
2.15827
2.1967
2.2335
2.26865
2.30217
2.33406
2.36434
2.39302
2.42012
2.44565
2.46964
2.49211
2.51309
2.53261
2.5507
2.5674
2.58273
2.59674
2.60946
2.62094
2.63121
2.64032
2.64831
2.65522
2.66111
2.66602
2.66999
2.67307
2.67531
2.67676
2.67746
2.67747
2.67682
2.67558
2.67378
2.67147
2.66871
2.66552
2.66197
2.65809
2.65393
2.64954
2.64494
2.64018
2.63531
2.63036
2.62536
2.62035
2.61537
2.61044
2.6056
2.60087
2.59629
2.59188
2.58767
2.58367
2.57991
2.5764
2.57316
2.57017
2.56751
2.56585
2.56756
2.56506
2.45893
2.64789
917.396
-259.008
-7.73369
6.15653
1.25596
0.364358
0.467946
0.595953
0.688432
0.769605
0.848169
0.925666
1.00223
1.0778
1.15232
1.22571
1.29789
1.36878
1.43833
1.50648
1.57317
1.63837
1.70204
1.76414
1.82464
1.88353
1.94076
1.99632
2.05019
2.10234
2.15276
2.20143
2.24835
2.29349
2.33686
2.37845
2.41826
2.4563
2.49256
2.52706
2.55981
2.59083
2.62013
2.64774
2.67367
2.69796
2.72064
2.74173
2.76128
2.77931
2.79587
2.81099
2.82472
2.8371
2.84817
2.85799
2.86659
2.87403
2.88036
2.88562
2.88987
2.89316
2.89554
2.89706
2.89777
2.89773
2.89699
2.89559
2.8936
2.89105
2.88801
2.88453
2.88064
2.8764
2.87185
2.86705
2.86204
2.85685
2.85154
2.84614
2.8407
2.83525
2.82982
2.82446
2.81919
2.81405
2.80907
2.80428
2.79969
2.79535
2.79126
2.78745
2.78393
2.78069
2.77777
2.77582
2.77779
2.77755
2.65813
2.86627
917.399
-258.998
-7.718
6.1784
1.28399
0.398531
0.508226
0.642299
0.740796
0.827936
0.912407
0.995748
1.07808
1.15936
1.23949
1.31841
1.39603
1.47226
1.54705
1.62033
1.69206
1.76217
1.83064
1.89743
1.9625
2.02582
2.08736
2.14711
2.20503
2.2611
2.31531
2.36764
2.41807
2.4666
2.51322
2.55792
2.6007
2.64157
2.68054
2.71761
2.75279
2.78611
2.81758
2.84722
2.87507
2.90115
2.92549
2.94813
2.9691
2.98844
3.00619
3.0224
3.03711
3.05037
3.06223
3.07273
3.08192
3.08987
3.09662
3.10222
3.10674
3.11022
3.11272
3.11429
3.11501
3.11491
3.11405
3.1125
3.1103
3.10751
3.10419
3.10039
3.09616
3.09155
3.08662
3.08141
3.07597
3.07035
3.0646
3.05875
3.05286
3.04696
3.04109
3.03529
3.0296
3.02405
3.01866
3.01348
3.00853
3.00384
2.99942
2.99531
2.99151
2.98802
2.98485
2.98263
2.98467
2.98611
2.85727
3.0798
917.402
-258.989
-7.70253
6.19997
1.31165
0.432256
0.547981
0.688043
0.792482
0.88551
0.975813
1.06492
1.15295
1.23984
1.32552
1.4099
1.49288
1.57438
1.65434
1.73269
1.80937
1.88434
1.95754
2.02895
2.09851
2.16621
2.23201
2.29588
2.35779
2.41773
2.47567
2.5316
2.5855
2.63736
2.68717
2.73494
2.78065
2.82431
2.86593
2.90552
2.9431
2.97868
3.01228
3.04392
3.07365
3.10148
3.12745
3.15159
3.17396
3.19458
3.2135
3.23077
3.24644
3.26055
3.27317
3.28433
3.2941
3.30253
3.30968
3.31561
3.32037
3.32402
3.32663
3.32826
3.32895
3.32878
3.32781
3.32608
3.32367
3.32063
3.31702
3.3129
3.30832
3.30333
3.298
3.29238
3.28652
3.28046
3.27426
3.26797
3.26162
3.25527
3.24896
3.24272
3.2366
3.23063
3.22485
3.21928
3.21396
3.20892
3.20418
3.19976
3.19569
3.19195
3.18854
3.18606
3.18802
3.19055
3.05593
3.2883
917.405
-258.98
-7.68729
6.22121
1.33891
0.465499
0.587171
0.733138
0.843436
0.942271
1.03832
1.13311
1.22676
1.31919
1.41033
1.50008
1.58835
1.67505
1.7601
1.84344
1.92501
2.00475
2.08262
2.15858
2.23257
2.30458
2.37456
2.44249
2.50834
2.57208
2.6337
2.69317
2.75048
2.80562
2.85857
2.90935
2.95793
3.00434
3.04857
3.09064
3.13056
3.16835
3.20404
3.23765
3.26921
3.29876
3.32632
3.35194
3.37567
3.39754
3.4176
3.4359
3.4525
3.46744
3.48079
3.49259
3.50291
3.51181
3.51934
3.52557
3.53056
3.53437
3.53708
3.53873
3.5394
3.53914
3.53803
3.53613
3.53349
3.53019
3.52628
3.52183
3.51689
3.51153
3.5058
3.49975
3.49346
3.48696
3.48031
3.47356
3.46676
3.45996
3.4532
3.44653
3.43997
3.43359
3.4274
3.42145
3.41576
3.41037
3.4053
3.40059
3.39624
3.39225
3.38861
3.38589
3.38766
3.39074
3.25357
3.4917
917.408
-258.971
-7.67229
6.24212
1.36574
0.498225
0.625755
0.777539
0.893608
0.998161
1.09987
1.20026
1.29943
1.39732
1.49384
1.58888
1.68235
1.77416
1.86423
1.95249
2.03886
2.12331
2.20577
2.2862
2.36455
2.4408
2.5149
2.58682
2.65654
2.72402
2.78925
2.8522
2.91286
2.97122
3.02726
3.08099
3.1324
3.18149
3.22828
3.27278
3.315
3.35497
3.3927
3.42823
3.46159
3.49281
3.52193
3.54899
3.57404
3.59713
3.6183
3.6376
3.6551
3.67084
3.6849
3.69731
3.70816
3.7175
3.72539
3.7319
3.7371
3.74106
3.74384
3.7455
3.74613
3.74578
3.74452
3.74242
3.73955
3.73598
3.73176
3.72697
3.72167
3.71592
3.70978
3.70331
3.69658
3.68963
3.68253
3.67533
3.66807
3.66081
3.6536
3.64649
3.6395
3.6327
3.62611
3.61977
3.61371
3.60798
3.60259
3.59757
3.59295
3.58871
3.58485
3.5819
3.58339
3.5866
3.44959
3.68997
917.411
-258.962
-7.65755
6.26267
1.39211
0.5304
0.663694
0.821202
0.942948
1.05313
1.16041
1.2663
1.37091
1.47417
1.57597
1.67621
1.7748
1.87164
1.96664
2.05973
2.15083
2.2399
2.32687
2.4117
2.49434
2.57475
2.6529
2.72874
2.80226
2.87341
2.94219
3.00856
3.0725
3.13402
3.19309
3.24971
3.30389
3.35562
3.40492
3.45179
3.49626
3.53835
3.57808
3.61549
3.6506
3.68345
3.71409
3.74256
3.7689
3.79316
3.81541
3.83568
3.85405
3.87057
3.8853
3.8983
3.90965
3.91941
3.92764
3.93441
3.93981
3.94389
3.94672
3.94839
3.94895
3.94849
3.94707
3.94477
3.94166
3.9378
3.93326
3.92813
3.92245
3.9163
3.90975
3.90285
3.89568
3.88828
3.88072
3.87305
3.86534
3.85763
3.84996
3.8424
3.83499
3.82776
3.82077
3.81404
3.80762
3.80154
3.79582
3.79051
3.78561
3.78113
3.77705
3.77387
3.77503
3.77804
3.64338
3.88309
917.414
-258.953
-7.6431
6.28284
1.41801
0.561998
0.700956
0.864088
0.991413
1.10712
1.21987
1.33117
1.44113
1.54965
1.65665
1.76201
1.86562
1.9674
2.06724
2.16507
2.26082
2.35443
2.44583
2.53498
2.62183
2.70633
2.78844
2.86814
2.94538
3.02014
3.09239
3.1621
3.22927
3.29388
3.35592
3.41538
3.47226
3.52657
3.57832
3.62752
3.67419
3.71835
3.76004
3.79927
3.83609
3.87053
3.90265
3.93248
3.96007
3.98548
4.00876
4.02997
4.04918
4.06644
4.08182
4.09539
4.10721
4.11736
4.12591
4.13292
4.13849
4.14267
4.14555
4.14719
4.14768
4.1471
4.14551
4.14299
4.13961
4.13546
4.1306
4.12511
4.11905
4.1125
4.10552
4.09819
4.09056
4.08271
4.07469
4.06656
4.05838
4.05021
4.04209
4.03408
4.02624
4.01859
4.01119
4.00408
3.99729
3.99086
3.98482
3.97921
3.97404
3.96931
3.96502
3.96163
3.96241
3.96496
3.83439
4.07108
917.417
-258.945
-7.62892
6.30261
1.44341
0.592993
0.737512
0.906165
1.03897
1.1601
1.27822
1.39483
1.51003
1.62373
1.73582
1.8462
1.95475
2.06137
2.16596
2.26845
2.36876
2.46681
2.56256
2.65595
2.74691
2.83542
2.92143
3.0049
3.08579
3.16408
3.23973
3.31273
3.38305
3.45069
3.51562
3.57786
3.63739
3.69422
3.74836
3.79983
3.84864
3.89483
3.93841
3.97942
4.01791
4.0539
4.08744
4.11859
4.1474
4.17391
4.1982
4.22032
4.24033
4.2583
4.2743
4.2884
4.30067
4.31119
4.32003
4.32727
4.33298
4.33724
4.34014
4.34175
4.34215
4.34142
4.33964
4.33689
4.33325
4.32879
4.32359
4.31774
4.31129
4.30433
4.29692
4.28915
4.28107
4.27275
4.26426
4.25567
4.24702
4.23838
4.22981
4.22136
4.21307
4.205
4.1972
4.1897
4.18254
4.17577
4.16941
4.1635
4.15806
4.15309
4.14859
4.14499
4.14535
4.14728
4.02209
4.25392
917.42
-258.937
-7.61505
6.32199
1.4683
0.623368
0.773339
0.947405
1.08558
1.21203
1.33541
1.45723
1.57757
1.69635
1.81344
1.92873
2.04212
2.15348
2.26274
2.36979
2.47456
2.57698
2.67698
2.77451
2.86952
2.96195
3.05177
3.13893
3.2234
3.30513
3.38412
3.46032
3.53373
3.60432
3.67209
3.73703
3.79915
3.85844
3.91491
3.96859
4.0195
4.06765
4.11308
4.15582
4.19592
4.23341
4.26834
4.30077
4.33075
4.35833
4.38358
4.40657
4.42735
4.446
4.46259
4.47719
4.48988
4.50074
4.50985
4.51728
4.52312
4.52745
4.53035
4.53191
4.5322
4.53132
4.52933
4.52634
4.52241
4.51764
4.51209
4.50586
4.49901
4.49163
4.48379
4.47556
4.46703
4.45824
4.44928
4.44021
4.4311
4.42199
4.41296
4.40406
4.39534
4.38685
4.37863
4.37075
4.36322
4.3561
4.34942
4.34322
4.3375
4.3323
4.32759
4.32378
4.32371
4.3249
4.20598
4.43163
917.423
-258.929
-7.60147
6.34095
1.49266
0.653105
0.808416
0.987785
1.13121
1.26288
1.39142
1.51834
1.64372
1.76745
1.88944
2.00955
2.12767
2.24369
2.3575
2.46902
2.57816
2.68484
2.78901
2.8906
2.98956
3.08584
3.17938
3.27015
3.3581
3.44322
3.52545
3.60479
3.6812
3.75468
3.82522
3.8928
3.95743
4.01911
4.07786
4.13369
4.18663
4.23669
4.28391
4.32834
4.37
4.40894
4.44522
4.47888
4.50999
4.5386
4.56477
4.58859
4.6101
4.6294
4.64655
4.66162
4.67471
4.68589
4.69523
4.70284
4.70878
4.71315
4.71604
4.71752
4.71769
4.71663
4.71443
4.71117
4.70695
4.70185
4.69594
4.68932
4.68207
4.67426
4.66598
4.6573
4.64829
4.63903
4.6296
4.62005
4.61046
4.60089
4.5914
4.58204
4.57288
4.56397
4.55535
4.54707
4.53918
4.53172
4.52471
4.51821
4.51223
4.50679
4.50187
4.49787
4.49735
4.49773
4.38565
4.60419
917.425
-258.921
-7.58821
6.35949
1.51649
0.68219
0.842727
1.02728
1.17586
1.31262
1.44621
1.57812
1.70842
1.83702
1.96379
2.08862
2.21137
2.33193
2.4502
2.56608
2.67949
2.79035
2.89859
3.00415
3.10697
3.20699
3.30417
3.39846
3.48983
3.57823
3.66364
3.74603
3.82538
3.90167
3.9749
4.04505
4.11213
4.17614
4.2371
4.29502
4.34993
4.40185
4.45081
4.49686
4.54003
4.58038
4.61795
4.6528
4.68499
4.71459
4.74165
4.76626
4.78847
4.80838
4.82605
4.84157
4.85502
4.86648
4.87605
4.8838
4.88982
4.89421
4.89706
4.89845
4.89847
4.89722
4.89479
4.89126
4.88673
4.88129
4.87501
4.868
4.86033
4.85208
4.84335
4.8342
4.82473
4.81499
4.80508
4.79505
4.78498
4.77494
4.76498
4.75517
4.74557
4.73623
4.7272
4.71854
4.71028
4.70247
4.69515
4.68835
4.6821
4.67642
4.6713
4.6671
4.66613
4.66567
4.5607
4.77158
917.428
-258.913
-7.57525
6.37761
1.53977
0.710611
0.876256
1.06588
1.21949
1.36124
1.49976
1.63654
1.77166
1.905
2.03645
2.16588
2.29316
2.41816
2.54079
2.66093
2.77851
2.89345
3.00566
3.11509
3.22167
3.32535
3.42608
3.52381
3.6185
3.71011
3.79861
3.88397
3.96618
4.04521
4.12105
4.1937
4.26316
4.32943
4.39254
4.45248
4.5093
4.56301
4.61366
4.66128
4.70591
4.74761
4.78643
4.82242
4.85565
4.88619
4.9141
4.93946
4.96234
4.98282
5.00099
5.01692
5.0307
5.04242
5.05217
5.06004
5.06613
5.07051
5.0733
5.07458
5.07444
5.07298
5.0703
5.06649
5.06164
5.05584
5.04918
5.04176
5.03366
5.02497
5.01578
5.00616
4.99621
4.98599
4.97559
4.96508
4.95453
4.94401
4.93358
4.92332
4.91328
4.90351
4.89407
4.88502
4.87639
4.86824
4.8606
4.8535
4.84699
4.84107
4.83575
4.83136
4.82995
4.82864
4.73082
4.93379
917.43
-258.905
-7.5626
6.39529
1.5625
0.738358
0.908989
1.10357
1.26208
1.4087
1.55203
1.69357
1.83339
1.97137
2.10739
2.24131
2.373
2.50234
2.62921
2.75352
2.87517
2.99407
3.11016
3.22336
3.33362
3.44086
3.54504
3.64612
3.74404
3.83877
3.93028
4.01853
4.10351
4.1852
4.26359
4.33866
4.41043
4.4789
4.54408
4.60599
4.66465
4.7201
4.77237
4.8215
4.86754
4.91054
4.95056
4.98764
5.02187
5.05331
5.08202
5.10809
5.1316
5.15262
5.17124
5.18755
5.20163
5.21359
5.2235
5.23146
5.23758
5.24194
5.24465
5.24579
5.24548
5.2438
5.24085
5.23674
5.23155
5.22538
5.21833
5.2105
5.20196
5.19282
5.18316
5.17307
5.16262
5.15192
5.14103
5.13003
5.11899
5.10799
5.0971
5.08638
5.07589
5.0657
5.05585
5.04641
5.03741
5.02891
5.02095
5.01356
5.00678
5.00063
4.99511
4.99053
4.9887
4.98655
4.89574
5.09079
917.433
-258.898
-7.55027
6.41254
1.58466
0.765419
0.940914
1.14032
1.30363
1.45498
1.60302
1.7492
1.8936
2.0361
2.17656
2.31486
2.45086
2.58442
2.71543
2.84379
2.9694
3.09218
3.21204
3.32892
3.44274
3.55345
3.661
3.76532
3.86639
3.96415
4.05858
4.14965
4.23732
4.32159
4.40244
4.47986
4.55387
4.62446
4.69165
4.75545
4.8159
4.87302
4.92686
4.97744
5.02484
5.06908
5.11024
5.14837
5.18355
5.21584
5.24532
5.27206
5.29615
5.31768
5.33672
5.35337
5.36773
5.37988
5.38993
5.39796
5.40409
5.4084
5.411
5.412
5.41148
5.40956
5.40633
5.4019
5.39636
5.38982
5.38236
5.3741
5.36512
5.35551
5.34538
5.3348
5.32387
5.31267
5.30128
5.28979
5.27826
5.26678
5.25542
5.24424
5.23331
5.22268
5.21243
5.20259
5.19323
5.18438
5.1761
5.16842
5.16138
5.15499
5.14927
5.1445
5.14226
5.13933
5.05523
5.24253
917.435
-258.891
-7.53825
6.42934
1.60626
0.791785
0.972019
1.17613
1.3441
1.50008
1.65269
1.80339
1.95225
2.09915
2.24395
2.38651
2.5267
2.66437
2.79941
2.93172
3.06118
3.18772
3.31125
3.4317
3.54899
3.66307
3.77388
3.88137
3.98549
4.0862
4.18346
4.27724
4.36753
4.45429
4.53753
4.61723
4.6934
4.76604
4.83516
4.9008
4.96296
5.0217
5.07703
5.12902
5.17771
5.22315
5.2654
5.30453
5.34061
5.3737
5.4039
5.43128
5.45591
5.4779
5.49733
5.5143
5.52889
5.54122
5.55137
5.55944
5.56555
5.56979
5.57227
5.57309
5.57236
5.57018
5.56665
5.56189
5.55599
5.54905
5.54118
5.53248
5.52304
5.51297
5.50235
5.49128
5.47985
5.46815
5.45626
5.44427
5.43225
5.42029
5.40845
5.39681
5.38543
5.37438
5.36371
5.35348
5.34375
5.33456
5.32596
5.31799
5.31068
5.30406
5.29815
5.29319
5.29057
5.28689
5.20912
5.38897
917.438
-258.884
-7.52656
6.4457
1.62728
0.817448
1.00229
1.21098
1.38349
1.54397
1.70102
1.85612
2.00933
2.16051
2.30952
2.45623
2.60049
2.74216
2.88112
3.01725
3.15046
3.28066
3.40775
3.53166
3.65233
3.76968
3.88366
3.99421
4.10128
4.20484
4.30485
4.40127
4.49408
4.58326
4.6688
4.7507
4.82895
4.90357
4.97456
5.04195
5.10577
5.16605
5.22283
5.27616
5.32608
5.37266
5.41596
5.45603
5.49296
5.52682
5.55769
5.58566
5.6108
5.63322
5.653
5.67024
5.68505
5.69751
5.70773
5.71583
5.72189
5.72604
5.72837
5.729
5.72803
5.72557
5.72173
5.71662
5.71034
5.703
5.6947
5.68555
5.67565
5.66509
5.65398
5.64242
5.63048
5.61828
5.60588
5.59339
5.58088
5.56843
5.55611
5.54401
5.53218
5.52069
5.50962
5.499
5.4889
5.47937
5.47045
5.46219
5.45461
5.44776
5.44165
5.43651
5.43352
5.42916
5.35727
5.53007
917.44
-258.877
-7.51519
6.46161
1.64772
0.842397
1.03172
1.24486
1.42179
1.58663
1.74801
1.90738
2.0648
2.22014
2.37325
2.52399
2.6722
2.81775
2.96051
3.10037
3.23721
3.37095
3.5015
3.62877
3.7527
3.87322
3.99027
4.10378
4.21372
4.32004
4.4227
4.52167
4.61692
4.70843
4.7962
4.88021
4.96047
5.03699
5.10978
5.17887
5.24427
5.30603
5.36419
5.4188
5.4699
5.51756
5.56184
5.60282
5.64055
5.67513
5.70663
5.73514
5.76075
5.78356
5.80365
5.82114
5.83612
5.84869
5.85896
5.86704
5.87304
5.87707
5.87923
5.87964
5.87842
5.87566
5.87149
5.86602
5.85934
5.85159
5.84285
5.83324
5.82286
5.81182
5.80021
5.78814
5.7757
5.76298
5.75008
5.73708
5.72407
5.71112
5.69833
5.68576
5.67348
5.66157
5.65007
5.63907
5.6286
5.61872
5.60949
5.60093
5.5931
5.58602
5.57971
5.5744
5.57106
5.56608
5.49959
5.66577
917.442
-258.87
-7.50414
6.47706
1.66757
0.866626
1.0603
1.27776
1.45897
1.62806
1.79363
1.95715
2.11866
2.27804
2.43512
2.58976
2.74181
2.89112
3.03756
3.18102
3.32139
3.45857
3.59246
3.72299
3.85008
3.97366
4.09367
4.21006
4.32277
4.43175
4.53697
4.63839
4.736
4.82976
4.91967
5.00572
5.08791
5.16626
5.24077
5.31147
5.3784
5.44158
5.50105
5.55688
5.6091
5.65779
5.70301
5.74482
5.78331
5.81856
5.85064
5.87966
5.9057
5.92885
5.94923
5.96692
5.98204
5.99469
6.00498
6.01302
6.01893
6.02281
6.02478
6.02496
6.02346
6.02039
6.01587
6.01002
6.00294
5.99475
5.98556
5.97548
5.96462
5.95308
5.94096
5.92838
5.91542
5.90219
5.88877
5.87526
5.86175
5.84832
5.83504
5.822
5.80927
5.79693
5.78502
5.77362
5.76279
5.75257
5.74302
5.73417
5.72608
5.71877
5.71227
5.70678
5.70313
5.69759
5.636
5.79602
917.444
-258.864
-7.49343
6.49205
1.68683
0.890126
1.08802
1.30967
1.49503
1.66823
1.83787
2.00541
2.17089
2.33417
2.4951
2.65353
2.80929
2.96224
3.11225
3.2592
3.40298
3.54347
3.6806
3.81428
3.94442
4.07097
4.19384
4.313
4.42837
4.53992
4.64761
4.7514
4.85127
4.9472
5.03917
5.12717
5.21122
5.29132
5.36748
5.43973
5.50811
5.57263
5.63336
5.69035
5.74363
5.79329
5.83939
5.882
5.92119
5.95706
5.98968
6.01916
6.04558
6.06905
6.08967
6.10754
6.12276
6.13546
6.14574
6.15372
6.1595
6.16322
6.16498
6.1649
6.1631
6.1597
6.15482
6.14857
6.14107
6.13244
6.12279
6.11222
6.10087
6.08882
6.07619
6.06309
6.04961
6.03586
6.02192
6.0079
5.99388
5.97995
5.96619
5.95269
5.93951
5.92672
5.91441
5.90262
5.89141
5.88085
5.87098
5.86185
5.8535
5.84596
5.83927
5.8336
5.82966
5.82363
5.76647
5.92078
917.446
-258.858
-7.48305
6.50657
1.70548
0.912891
1.11487
1.34057
1.52995
1.70713
1.88072
2.05215
2.22146
2.38853
2.55318
2.71526
2.87462
3.03109
3.18455
3.33487
3.48194
3.62565
3.7659
3.90261
4.03571
4.16511
4.29075
4.41257
4.53051
4.64454
4.7546
4.86067
4.96271
5.06071
5.15466
5.24454
5.33036
5.41213
5.48987
5.5636
5.63336
5.69917
5.76109
5.81917
5.87346
5.92403
5.97095
6.0143
6.05415
6.09059
6.12371
6.15361
6.18037
6.20411
6.22493
6.24294
6.25824
6.27096
6.2812
6.28908
6.29472
6.29824
6.29977
6.29941
6.2973
6.29355
6.28829
6.28163
6.2737
6.26461
6.25448
6.24343
6.23156
6.219
6.20586
6.19223
6.17822
6.16394
6.14948
6.13494
6.12041
6.10599
6.09174
6.07777
6.06413
6.05092
6.03818
6.026
6.01444
6.00353
5.99335
5.98393
5.97533
5.96756
5.96067
5.95484
5.95061
5.94416
5.89098
6.04001
917.448
-258.852
-7.473
6.52062
1.72353
0.934915
1.14085
1.37047
1.56374
1.74477
1.92215
2.09735
2.27037
2.44109
2.60934
2.77496
2.93778
3.09766
3.25445
3.40802
3.55826
3.70507
3.84833
3.98797
4.1239
4.25605
4.38435
4.50874
4.62916
4.74556
4.85791
4.96616
5.07029
5.17028
5.26611
5.35779
5.4453
5.52867
5.60792
5.68305
5.75412
5.82115
5.88419
5.9433
5.99854
6.04997
6.09766
6.14169
6.18215
6.21912
6.25269
6.28296
6.31003
6.334
6.35499
6.3731
6.38845
6.40114
6.41131
6.41907
6.42455
6.42785
6.42912
6.42847
6.42602
6.4219
6.41624
6.40916
6.40078
6.39122
6.38061
6.36905
6.35668
6.34359
6.32992
6.31575
6.30122
6.2864
6.27142
6.25636
6.24132
6.22639
6.21166
6.19721
6.18312
6.16947
6.15633
6.14376
6.13182
6.12058
6.11008
6.10038
6.09152
6.08353
6.07645
6.07045
6.06597
6.05915
6.00952
6.15368
917.45
-258.846
-7.4633
6.53419
1.74097
0.956192
1.16594
1.39935
1.59637
1.78112
1.96218
2.141
2.31761
2.49185
2.66357
2.8326
2.99877
3.16193
3.32192
3.47863
3.63193
3.78172
3.92788
4.07034
4.209
4.34379
4.47465
4.6015
4.72429
4.84297
4.9575
5.06785
5.17397
5.27587
5.37351
5.46689
5.55603
5.64092
5.72159
5.79806
5.87036
5.93854
6.00265
6.06273
6.11885
6.17108
6.21949
6.26416
6.30517
6.34261
6.37659
6.40719
6.43452
6.45869
6.47981
6.49799
6.51335
6.526
6.53607
6.54368
6.54896
6.55202
6.55301
6.55204
6.54924
6.54474
6.53866
6.53114
6.5223
6.51226
6.50115
6.48908
6.47618
6.46257
6.44836
6.43365
6.41858
6.40323
6.38771
6.37213
6.35657
6.34114
6.32592
6.311
6.29646
6.28238
6.26882
6.25586
6.24356
6.23197
6.22117
6.21118
6.20206
6.19385
6.18658
6.18041
6.1757
6.16856
6.12211
6.26177
917.452
-258.84
-7.45393
6.54729
1.75779
0.97672
1.19015
1.42721
1.62785
1.81618
2.00079
2.1831
2.36316
2.5408
2.71587
2.88818
3.05757
3.22388
3.38697
3.54669
3.70293
3.85558
4.00453
4.14969
4.29098
4.42831
4.56161
4.69083
4.81589
4.93676
5.05338
5.16572
5.27376
5.37746
5.47683
5.57184
5.66251
5.74885
5.83087
5.9086
5.98207
6.05134
6.11644
6.17743
6.23438
6.28735
6.33642
6.38167
6.42319
6.46107
6.4954
6.52629
6.55384
6.57817
6.59938
6.61759
6.63293
6.64551
6.65545
6.66288
6.66794
6.67074
6.67142
6.67011
6.66694
6.66204
6.65554
6.64756
6.63824
6.62771
6.61609
6.6035
6.59007
6.57592
6.56116
6.54592
6.53029
6.5144
6.49835
6.48224
6.46617
6.45023
6.43453
6.41913
6.40413
6.38961
6.37564
6.36229
6.34963
6.33771
6.32659
6.31632
6.30695
6.29851
6.29106
6.28473
6.27979
6.27239
6.22877
6.36426
917.454
-258.835
-7.4449
6.55992
1.774
0.996496
1.21347
1.45405
1.65817
1.84995
2.03797
2.22365
2.40703
2.58794
2.76622
2.94169
3.11417
3.28352
3.44957
3.61219
3.77126
3.92666
4.07828
4.22604
4.36984
4.5096
4.64525
4.77672
4.90396
5.02691
5.14553
5.25978
5.36963
5.47506
5.57606
5.67262
5.76475
5.85245
5.93575
6.01467
6.08925
6.15953
6.22556
6.2874
6.34512
6.39877
6.44845
6.49423
6.53621
6.57447
6.60911
6.64025
6.66799
6.69243
6.7137
6.73191
6.74719
6.75966
6.76945
6.77668
6.78149
6.784
6.78436
6.78269
6.77913
6.77381
6.76686
6.75841
6.74861
6.73757
6.72543
6.71231
6.69834
6.68364
6.66833
6.65254
6.63636
6.61993
6.60334
6.5867
6.57011
6.55366
6.53747
6.5216
6.50614
6.49119
6.47681
6.46307
6.45004
6.43778
6.42635
6.4158
6.40618
6.39753
6.38989
6.38339
6.37825
6.37062
6.32954
6.46114
917.455
-258.83
-7.43622
6.57206
1.78959
1.01552
1.2359
1.47986
1.68733
1.88243
2.07372
2.26264
2.4492
2.63326
2.81462
2.99312
3.16858
3.34084
3.50973
3.67513
3.83691
3.99494
4.14912
4.29936
4.44557
4.58765
4.72554
4.85917
4.98849
5.11343
5.23395
5.35001
5.46159
5.56866
5.67121
5.76924
5.86274
5.95173
6.03624
6.11628
6.19189
6.26312
6.33002
6.39264
6.45106
6.50535
6.55558
6.60184
6.64422
6.68282
6.71774
6.74908
6.77695
6.80147
6.82276
6.84094
6.85613
6.86846
6.87807
6.88507
6.88961
6.89182