/*--------------------------------*- C++ -*----------------------------------*\
  =========                 |
  \\      /  F ield         | OpenFOAM: The Open Source CFD Toolbox
   \\    /   O peration     | Website:  https://openfoam.org
    \\  /    A nd           | Version:  10
     \\/     M anipulation  |
\*---------------------------------------------------------------------------*/
FoamFile
{
    format      ascii;
    class       volScalarField;
    location    "15.5";
    object      T_0;
}
// * * * * * * * * * * * * * * * * * * * * * * * * * * * * * * * * * * * * * //

dimensions      [0 0 0 1 0 0 0];

internalField   nonuniform List<scalar> 
10000
(
374.962
361.236
356.522
354.437
353.291
352.555
352.033
351.635
351.318
351.054
350.829
350.632
350.457
350.299
350.155
350.022
349.898
349.782
349.672
349.568
349.469
349.375
349.284
349.197
349.114
349.033
348.955
348.879
348.806
348.735
348.666
348.6
348.535
348.472
348.411
348.351
348.293
348.237
348.183
348.13
348.078
348.028
347.979
347.932
347.886
347.841
347.798
347.756
347.715
347.676
347.638
347.601
347.565
347.53
347.497
347.464
347.433
347.403
347.373
347.345
347.318
347.292
347.267
347.242
347.219
347.197
347.175
347.155
347.135
347.116
347.098
347.081
347.064
347.049
347.034
347.019
347.006
346.993
346.981
346.97
346.959
346.949
346.939
346.931
346.922
346.915
346.908
346.901
346.896
346.89
346.886
346.881
346.878
346.875
346.872
346.87
346.869
346.868
346.867
346.867
388.56
374.703
366.946
362.381
359.47
357.462
355.984
354.836
353.908
353.132
352.466
351.883
351.364
350.894
350.464
350.066
349.696
349.349
349.021
348.71
348.414
348.131
347.86
347.599
347.348
347.106
346.872
346.646
346.426
346.214
346.008
345.808
345.613
345.425
345.241
345.063
344.89
344.721
344.557
344.398
344.244
344.093
343.947
343.806
343.668
343.534
343.404
343.279
343.156
343.038
342.923
342.812
342.705
342.601
342.5
342.403
342.309
342.218
342.13
342.046
341.964
341.886
341.81
341.738
341.668
341.601
341.536
341.475
341.415
341.359
341.304
341.253
341.203
341.156
341.111
341.069
341.028
340.99
340.954
340.92
340.887
340.857
340.829
340.803
340.778
340.755
340.734
340.715
340.697
340.682
340.667
340.655
340.644
340.635
340.627
340.621
340.616
340.613
340.612
340.612
393.141
382.063
374.174
368.67
364.744
361.838
359.601
357.815
356.343
355.098
354.021
353.071
352.22
351.448
350.739
350.083
349.471
348.896
348.353
347.837
347.346
346.876
346.425
345.992
345.575
345.172
344.783
344.407
344.042
343.688
343.345
343.012
342.689
342.375
342.069
341.772
341.484
341.203
340.931
340.666
340.408
340.158
339.915
339.678
339.449
339.226
339.01
338.801
338.597
338.4
338.209
338.024
337.845
337.672
337.504
337.342
337.186
337.034
336.888
336.748
336.612
336.481
336.355
336.234
336.118
336.006
335.899
335.796
335.697
335.603
335.512
335.426
335.344
335.265
335.191
335.12
335.052
334.988
334.928
334.871
334.818
334.767
334.72
334.676
334.635
334.597
334.562
334.53
334.501
334.474
334.451
334.43
334.412
334.396
334.384
334.373
334.366
334.361
334.359
334.359
395.094
386.231
379.017
373.381
368.999
365.547
362.77
360.482
358.556
356.901
355.452
354.163
353.002
351.943
350.968
350.062
349.215
348.418
347.664
346.947
346.263
345.609
344.981
344.378
343.796
343.234
342.691
342.165
341.656
341.162
340.682
340.217
339.765
339.326
338.899
338.484
338.081
337.689
337.307
336.937
336.577
336.227
335.887
335.556
335.235
334.924
334.622
334.328
334.044
333.768
333.501
333.242
332.992
332.749
332.515
332.288
332.069
331.857
331.653
331.456
331.266
331.084
330.907
330.738
330.575
330.419
330.269
330.125
329.987
329.854
329.728
329.607
329.492
329.383
329.278
329.179
329.085
328.995
328.911
328.831
328.756
328.686
328.62
328.558
328.501
328.448
328.399
328.354
328.313
328.276
328.243
328.214
328.189
328.167
328.149
328.135
328.124
328.117
328.114
328.114
396.109
388.747
382.284
376.841
372.328
368.585
365.451
362.793
360.503
358.502
356.727
355.134
353.688
352.361
351.134
349.99
348.917
347.905
346.946
346.033
345.161
344.326
343.524
342.752
342.008
341.288
340.593
339.919
339.267
338.634
338.019
337.422
336.842
336.279
335.731
335.199
334.681
334.178
333.689
333.213
332.751
332.301
331.865
331.44
331.029
330.629
330.241
329.864
329.499
329.145
328.802
328.469
328.147
327.836
327.535
327.244
326.962
326.69
326.428
326.175
325.931
325.696
325.47
325.252
325.043
324.842
324.649
324.464
324.287
324.117
323.955
323.8
323.652
323.511
323.377
323.249
323.128
323.014
322.905
322.803
322.707
322.616
322.531
322.452
322.378
322.31
322.247
322.19
322.137
322.09
322.047
322.01
321.977
321.949
321.926
321.908
321.895
321.886
321.882
321.882
396.712
390.36
384.532
379.374
374.89
371.016
367.662
364.739
362.167
359.882
357.829
355.966
354.262
352.689
351.226
349.857
348.569
347.351
346.194
345.091
344.035
343.023
342.05
341.113
340.209
339.334
338.488
337.669
336.874
336.103
335.355
334.628
333.921
333.234
332.567
331.918
331.286
330.673
330.076
329.496
328.932
328.383
327.851
327.333
326.83
326.342
325.869
325.409
324.964
324.531
324.113
323.707
323.314
322.934
322.566
322.211
321.867
321.536
321.215
320.907
320.609
320.322
320.046
319.78
319.525
319.279
319.044
318.818
318.602
318.395
318.196
318.007
317.826
317.654
317.49
317.335
317.187
317.047
316.915
316.79
316.672
316.561
316.458
316.361
316.271
316.188
316.111
316.041
315.977
315.919
315.867
315.821
315.781
315.747
315.719
315.697
315.68
315.67
315.664
315.665
397.104
391.445
386.114
381.235
376.846
372.931
369.448
366.34
363.553
361.036
358.747
356.65
354.714
352.916
351.235
349.656
348.164
346.749
345.401
344.115
342.882
341.697
340.558
339.459
338.397
337.37
336.376
335.413
334.478
333.571
332.69
331.834
331.002
330.193
329.406
328.641
327.897
327.174
326.47
325.786
325.121
324.474
323.846
323.236
322.643
322.067
321.509
320.966
320.441
319.931
319.437
318.958
318.495
318.046
317.612
317.193
316.787
316.396
316.018
315.654
315.302
314.964
314.638
314.324
314.023
313.733
313.455
313.189
312.933
312.689
312.455
312.231
312.018
311.815
311.622
311.438
311.263
311.098
310.942
310.794
310.655
310.525
310.403
310.289
310.183
310.084
309.994
309.911
309.835
309.766
309.705
309.651
309.604
309.564
309.531
309.505
309.485
309.472
309.466
309.467
397.371
392.201
387.247
382.608
378.33
374.421
370.864
367.627
364.675
361.972
359.484
357.182
355.041
353.038
351.157
349.38
347.696
346.094
344.565
343.102
341.697
340.346
339.044
337.786
336.571
335.395
334.256
333.15
332.078
331.036
330.024
329.041
328.084
327.155
326.25
325.37
324.515
323.682
322.873
322.086
321.32
320.576
319.853
319.15
318.468
317.805
317.162
316.538
315.932
315.345
314.776
314.225
313.691
313.174
312.675
312.192
311.725
311.274
310.839
310.419
310.014
309.624
309.249
308.887
308.54
308.207
307.886
307.579
307.285
307.003
306.734
306.476
306.231
305.997
305.774
305.562
305.361
305.171
304.991
304.821
304.661
304.51
304.369
304.238
304.116
304.002
303.898
303.802
303.715
303.636
303.566
303.503
303.449
303.403
303.365
303.334
303.312
303.297
303.29
303.291
397.558
392.739
388.069
383.625
379.451
375.566
371.967
368.638
365.558
362.702
360.046
357.566
355.242
353.054
350.988
349.029
347.164
345.385
343.683
342.05
340.479
338.966
337.507
336.096
334.731
333.408
332.126
330.882
329.673
328.499
327.359
326.249
325.17
324.121
323.1
322.107
321.14
320.2
319.286
318.396
317.531
316.69
315.873
315.079
314.307
313.558
312.831
312.125
311.44
310.777
310.133
309.51
308.906
308.322
307.757
307.21
306.682
306.172
305.68
305.205
304.747
304.306
303.881
303.473
303.08
302.702
302.34
301.993
301.66
301.341
301.036
300.745
300.467
300.202
299.95
299.71
299.483
299.267
299.064
298.871
298.69
298.52
298.361
298.212
298.074
297.945
297.827
297.719
297.62
297.531
297.451
297.381
297.319
297.267
297.224
297.19
297.164
297.147
297.139
297.14
397.693
393.127
388.667
384.375
380.29
376.432
372.806
369.409
366.227
363.245
360.445
357.809
355.321
352.966
350.729
348.6
346.567
344.62
342.753
340.957
339.228
337.559
335.946
334.386
332.874
331.409
329.987
328.606
327.265
325.961
324.693
323.46
322.26
321.092
319.956
318.851
317.775
316.728
315.71
314.719
313.756
312.819
311.908
311.023
310.163
309.328
308.518
307.731
306.968
306.228
305.51
304.815
304.142
303.491
302.86
302.251
301.662
301.093
300.544
300.015
299.504
299.012
298.538
298.083
297.644
297.223
296.819
296.432
296.06
295.705
295.365
295.04
294.73
294.434
294.153
293.886
293.632
293.392
293.164
292.95
292.748
292.558
292.38
292.214
292.06
291.917
291.785
291.664
291.554
291.454
291.365
291.287
291.218
291.16
291.112
291.073
291.045
291.026
291.017
291.018
397.789
393.406
389.101
384.923
380.907
377.072
373.427
369.975
366.708
363.618
360.693
357.919
355.284
352.776
350.383
348.096
345.904
343.799
341.775
339.824
337.941
336.122
334.361
332.656
331.002
329.397
327.839
326.325
324.852
323.421
322.028
320.673
319.354
318.07
316.82
315.604
314.42
313.268
312.146
311.056
309.995
308.963
307.96
306.985
306.038
305.117
304.224
303.357
302.516
301.7
300.909
300.143
299.401
298.683
297.988
297.317
296.667
296.04
295.435
294.851
294.288
293.745
293.223
292.72
292.237
291.773
291.327
290.9
290.49
290.098
289.723
289.365
289.023
288.697
288.386
288.092
287.812
287.547
287.296
287.059
286.836
286.627
286.431
286.248
286.078
285.92
285.774
285.641
285.519
285.41
285.311
285.225
285.149
285.085
285.031
284.989
284.958
284.937
284.927
284.928
397.858
393.605
389.411
385.317
381.35
377.529
373.867
370.366
367.026
363.841
360.805
357.907
355.139
352.491
349.953
347.518
345.177
342.923
340.749
338.65
336.621
334.656
332.753
330.906
329.114
327.374
325.682
324.037
322.437
320.88
319.364
317.889
316.453
315.054
313.693
312.367
311.077
309.82
308.598
307.408
306.25
305.124
304.03
302.966
301.932
300.928
299.952
299.006
298.087
297.197
296.333
295.497
294.686
293.902
293.143
292.409
291.7
291.015
290.354
289.716
289.101
288.508
287.937
287.388
286.86
286.353
285.866
285.399
284.951
284.523
284.113
283.722
283.348
282.992
282.653
282.331
282.025
281.735
281.461
281.202
280.959
280.73
280.516
280.316
280.13
279.957
279.798
279.652
279.519
279.4
279.292
279.197
279.115
279.044
278.986
278.94
278.905
278.883
278.872
278.873
397.905
393.743
389.626
385.588
381.653
377.838
374.155
370.609
367.202
363.932
360.794
357.784
354.894
352.116
349.444
346.871
344.389
341.993
339.677
337.437
335.266
333.162
331.12
329.138
327.211
325.338
323.517
321.744
320.019
318.339
316.703
315.11
313.559
312.047
310.576
309.142
307.746
306.387
305.064
303.777
302.524
301.305
300.12
298.968
297.848
296.761
295.704
294.679
293.684
292.719
291.784
290.877
289.999
289.149
288.327
287.532
286.763
286.02
285.304
284.612
283.945
283.303
282.684
282.089
281.517
280.967
280.439
279.933
279.448
278.983
278.539
278.114
277.709
277.323
276.955
276.606
276.274
275.96
275.663
275.383
275.119
274.87
274.638
274.421
274.219
274.032
273.86
273.702
273.558
273.427
273.311
273.208
273.119
273.042
272.979
272.929
272.891
272.867
272.855
272.856
397.937
393.834
389.767
385.764
381.845
378.025
374.317
370.725
367.255
363.906
360.676
357.561
354.558
351.66
348.862
346.158
343.544
341.013
338.562
336.186
333.88
331.641
329.466
327.351
325.294
323.292
321.344
319.447
317.599
315.799
314.045
312.337
310.672
309.05
307.47
305.93
304.431
302.97
301.548
300.164
298.817
297.507
296.233
294.993
293.789
292.619
291.482
290.379
289.308
288.27
287.263
286.287
285.342
284.427
283.542
282.686
281.858
281.059
280.287
279.543
278.825
278.133
277.467
276.826
276.21
275.617
275.049
274.504
273.981
273.481
273.002
272.545
272.109
271.693
271.297
270.921
270.563
270.225
269.905
269.603
269.318
269.051
268.801
268.567
268.349
268.148
267.962
267.792
267.636
267.496
267.371
267.26
267.163
267.081
267.013
266.959
266.919
266.892
266.879
266.88
397.956
393.888
389.848
385.862
381.945
378.112
374.373
370.736
367.204
363.779
360.462
357.249
354.139
351.128
348.211
345.385
342.644
339.986
337.405
334.899
332.463
330.094
327.79
325.547
323.363
321.237
319.165
317.146
315.179
313.261
311.392
309.57
307.794
306.063
304.376
302.732
301.131
299.571
298.051
296.572
295.132
293.731
292.369
291.044
289.755
288.504
287.288
286.108
284.962
283.851
282.774
281.729
280.718
279.739
278.791
277.875
276.989
276.133
275.307
274.51
273.741
273.001
272.287
271.601
270.941
270.307
269.698
269.114
268.555
268.019
267.506
267.017
266.55
266.104
265.68
265.277
264.895
264.532
264.189
263.866
263.561
263.275
263.006
262.756
262.523
262.307
262.108
261.926
261.759
261.609
261.475
261.356
261.252
261.164
261.091
261.033
260.99
260.962
260.948
260.949
397.964
393.912
389.883
385.898
381.971
378.116
374.342
370.656
367.063
363.565
360.164
356.858
353.647
350.529
347.499
344.556
341.696
338.915
336.21
333.579
331.017
328.523
326.094
323.728
321.421
319.173
316.981
314.843
312.759
310.726
308.744
306.811
304.926
303.088
301.296
299.55
297.848
296.19
294.575
293.002
291.47
289.98
288.53
287.12
285.75
284.417
283.123
281.867
280.647
279.464
278.317
277.205
276.128
275.085
274.076
273.1
272.157
271.245
270.365
269.516
268.697
267.908
267.148
266.417
265.714
265.038
264.39
263.767
263.171
262.6
262.054
261.532
261.034
260.56
260.108
259.678
259.271
258.884
258.519
258.174
257.849
257.544
257.258
256.991
256.743
256.513
256.301
256.106
255.929
255.769
255.625
255.499
255.388
255.294
255.217
255.155
255.108
255.078
255.063
255.064
397.965
393.912
389.879
385.882
381.936
378.052
374.237
370.499
366.844
363.274
359.792
356.397
353.09
349.869
346.732
343.677
340.701
337.803
334.98
332.228
329.546
326.931
324.381
321.894
319.468
317.102
314.793
312.54
310.341
308.196
306.103
304.061
302.069
300.127
298.232
296.385
294.584
292.829
291.12
289.455
287.833
286.255
284.719
283.226
281.773
280.362
278.991
277.659
276.366
275.112
273.896
272.717
271.576
270.47
269.4
268.365
267.364
266.397
265.464
264.563
263.695
262.858
262.052
261.276
260.53
259.814
259.126
258.466
257.833
257.227
256.648
256.094
255.566
255.062
254.583
254.127
253.694
253.284
252.897
252.531
252.186
251.862
251.559
251.276
251.012
250.768
250.543
250.336
250.148
249.978
249.826
249.691
249.574
249.474
249.392
249.326
249.277
249.245
249.229
249.23
397.959
393.893
389.843
385.825
381.851
377.929
374.07
370.278
366.56
362.918
359.356
355.875
352.474
349.155
345.914
342.752
339.667
336.656
333.717
330.85
328.051
325.319
322.653
320.049
317.507
315.026
312.602
310.237
307.927
305.672
303.471
301.322
299.226
297.18
295.185
293.238
291.341
289.491
287.689
285.933
284.222
282.558
280.937
279.361
277.829
276.339
274.891
273.485
272.121
270.797
269.513
268.268
267.062
265.894
264.764
263.67
262.613
261.592
260.606
259.655
258.737
257.853
257.001
256.181
255.393
254.636
253.909
253.211
252.543
251.903
251.29
250.705
250.147
249.614
249.108
248.626
248.169
247.735
247.325
246.938
246.574
246.232
245.911
245.612
245.333
245.075
244.837
244.618
244.419
244.24
244.079
243.937
243.813
243.707
243.62
243.55
243.498
243.464
243.447
243.448
397.947
393.858
389.782
385.733
381.723
377.759
373.85
370.001
366.219
362.506
358.865
355.299
351.808
348.393
345.053
341.787
338.595
335.476
332.427
329.447
326.536
323.691
320.911
318.194
315.54
312.946
310.412
307.936
305.517
303.155
300.848
298.595
296.396
294.25
292.155
290.112
288.119
286.176
284.282
282.437
280.64
278.89
277.186
275.529
273.917
272.35
270.827
269.349
267.913
266.52
265.168
263.858
262.589
261.36
260.17
259.019
257.907
256.832
255.794
254.792
253.826
252.894
251.998
251.135
250.305
249.507
248.741
248.007
247.303
246.629
245.984
245.367
244.779
244.219
243.685
243.177
242.696
242.239
241.807
241.4
241.016
240.655
240.318
240.002
239.708
239.436
239.185
238.955
238.746
238.556
238.387
238.237
238.106
237.995
237.903
237.829
237.775
237.739
237.721
237.722
397.932
393.81
389.699
385.612
381.56
377.548
373.586
369.678
365.829
362.044
358.326
354.677
351.097
347.589
344.152
340.787
337.492
334.267
331.111
328.024
325.003
322.048
319.158
316.331
313.567
310.864
308.222
305.639
303.114
300.647
298.237
295.882
293.583
291.338
289.146
287.007
284.921
282.887
280.903
278.97
277.087
275.253
273.468
271.73
270.04
268.398
266.801
265.25
263.744
262.283
260.865
259.491
258.159
256.87
255.621
254.414
253.246
252.118
251.028
249.977
248.963
247.986
247.044
246.138
245.267
244.43
243.626
242.855
242.116
241.408
240.731
240.084
239.466
238.877
238.317
237.784
237.278
236.799
236.345
235.917
235.514
235.135
234.781
234.449
234.141
233.855
233.592
233.35
233.13
232.931
232.753
232.595
232.458
232.341
232.244
232.167
232.109
232.071
232.053
232.053
397.912
393.75
389.598
385.468
381.367
377.304
373.285
369.315
365.399
361.542
357.746
354.014
350.348
346.749
343.218
339.755
336.361
333.034
329.774
326.582
323.455
320.393
317.396
314.463
311.592
308.783
306.035
303.348
300.72
298.15
295.638
293.184
290.786
288.445
286.158
283.926
281.748
279.624
277.552
275.533
273.565
271.649
269.783
267.967
266.201
264.483
262.813
261.192
259.617
258.088
256.605
255.168
253.775
252.425
251.119
249.856
248.634
247.453
246.313
245.213
244.151
243.128
242.143
241.195
240.283
239.406
238.565
237.757
236.983
236.242
235.533
234.856
234.209
233.593
233.006
232.448
231.918
231.416
230.942
230.493
230.071
229.674
229.303
228.956
228.633
228.334
228.058
227.804
227.574
227.365
227.179
227.014
226.87
226.747
226.646
226.565
226.504
226.464
226.445
226.445
397.889
393.682
389.482
385.303
381.15
377.031
372.952
368.918
364.934
361.003
357.13
353.317
349.566
345.878
342.255
338.698
335.206
331.779
328.419
325.124
321.895
318.73
315.629
312.591
309.617
306.704
303.854
301.064
298.335
295.665
293.055
290.503
288.009
285.573
283.193
280.869
278.602
276.389
274.231
272.127
270.077
268.079
266.134
264.241
262.399
260.608
258.867
257.175
255.532
253.938
252.391
250.891
249.437
248.029
246.666
245.347
244.072
242.839
241.649
240.5
239.392
238.325
237.296
236.306
235.354
234.438
233.56
232.717
231.908
231.135
230.394
229.687
229.011
228.368
227.755
227.172
226.619
226.094
225.598
225.13
224.689
224.275
223.887
223.524
223.187
222.874
222.586
222.321
222.08
221.862
221.667
221.495
221.345
221.216
221.11
221.025
220.962
220.921
220.9
220.9
397.864
393.606
389.355
385.121
380.913
376.735
372.593
368.493
364.439
360.435
356.485
352.591
348.756
344.981
341.267
337.617
334.03
330.508
327.049
323.655
320.325
317.059
313.857
310.718
307.643
304.63
301.679
298.79
295.962
293.194
290.487
287.84
285.252
282.723
280.252
277.839
275.483
273.184
270.941
268.754
266.623
264.546
262.523
260.554
258.638
256.774
254.963
253.202
251.493
249.833
248.223
246.661
245.148
243.682
242.263
240.89
239.562
238.278
237.039
235.843
234.689
233.576
232.505
231.474
230.482
229.528
228.613
227.735
226.893
226.087
225.315
224.578
223.875
223.204
222.565
221.958
221.381
220.835
220.318
219.83
219.371
218.939
218.534
218.156
217.805
217.479
217.178
216.902
216.651
216.424
216.221
216.041
215.884
215.751
215.64
215.551
215.485
215.442
215.42
215.421
397.837
393.524
389.217
384.926
380.658
376.418
372.212
368.044
363.92
359.842
355.815
351.84
347.922
344.061
340.259
336.518
332.839
329.221
325.667
322.176
318.749
315.385
312.084
308.847
305.673
302.561
299.513
296.526
293.602
290.739
287.938
285.198
282.518
279.898
277.337
274.837
272.394
270.011
267.685
265.416
263.205
261.05
258.951
256.907
254.918
252.984
251.103
249.275
247.499
245.776
244.103
242.481
240.909
239.387
237.912
236.485
235.106
233.772
232.484
231.241
230.042
228.886
227.772
226.7
225.669
224.678
223.727
222.814
221.939
221.101
220.299
219.532
218.801
218.103
217.439
216.808
216.208
215.64
215.103
214.596
214.118
213.669
213.248
212.855
212.489
212.15
211.837
211.551
211.289
211.053
210.841
210.654
210.491
210.352
210.237
210.145
210.076
210.031
210.008
210.008
397.808
393.436
389.07
384.719
380.389
376.085
371.813
367.576
363.38
359.228
355.123
351.069
347.068
343.123
339.234
335.404
331.634
327.924
324.277
320.691
317.168
313.709
310.312
306.978
303.708
300.501
297.357
294.276
291.258
288.302
285.408
282.576
279.806
277.098
274.45
271.863
269.337
266.87
264.463
262.114
259.825
257.593
255.419
253.302
251.242
249.237
247.288
245.394
243.554
241.768
240.034
238.353
236.723
235.144
233.616
232.136
230.705
229.323
227.987
226.697
225.454
224.255
223.1
221.988
220.918
219.89
218.903
217.956
217.048
216.178
215.346
214.551
213.792
213.068
212.379
211.724
211.102
210.512
209.955
209.428
208.932
208.466
208.029
207.621
207.242
206.89
206.565
206.268
205.996
205.751
205.531
205.337
205.168
205.023
204.903
204.808
204.736
204.689
204.665
204.665
397.777
393.345
388.917
384.503
380.109
375.739
371.399
367.092
362.823
358.597
354.415
350.282
346.199
342.17
338.195
334.278
330.419
326.619
322.88
319.203
315.587
312.033
308.543
305.116
301.752
298.451
295.214
292.04
288.93
285.883
282.899
279.979
277.121
274.325
271.592
268.921
266.312
263.764
261.277
258.85
256.484
254.177
251.93
249.741
247.61
245.537
243.521
241.562
239.659
237.811
236.017
234.277
232.591
230.957
229.375
227.843
226.363
224.931
223.548
222.214
220.926
219.685
218.489
217.337
216.23
215.166
214.143
213.163
212.222
211.322
210.46
209.637
208.85
208.101
207.387
206.708
206.064
205.453
204.876
204.33
203.816
203.333
202.881
202.458
202.065
201.7
201.364
201.056
200.774
200.52
200.292
200.091
199.916
199.766
199.641
199.542
199.468
199.419
199.394
199.394
397.746
393.25
388.758
384.279
379.819
375.382
370.972
366.595
362.253
357.952
353.693
349.481
345.317
341.205
337.147
333.144
329.197
325.309
321.481
317.713
314.006
310.361
306.779
303.26
299.805
296.413
293.085
289.821
286.621
283.485
280.413
277.406
274.462
271.581
268.765
266.011
263.321
260.693
258.128
255.625
253.183
250.803
248.483
246.224
244.025
241.885
239.803
237.78
235.814
233.906
232.053
230.256
228.514
226.826
225.191
223.609
222.079
220.6
219.171
217.791
216.46
215.177
213.941
212.751
211.607
210.506
209.45
208.436
207.464
206.533
205.642
204.79
203.977
203.202
202.464
201.763
201.096
200.465
199.867
199.303
198.772
198.272
197.805
197.367
196.961
196.583
196.235
195.916
195.625
195.362
195.127
194.918
194.737
194.582
194.453
194.35
194.273
194.222
194.197
194.196
397.713
393.152
388.594
384.049
379.521
375.015
370.536
366.087
361.672
357.296
352.96
348.67
344.426
340.233
336.091
332.003
327.971
323.997
320.08
316.224
312.429
308.695
305.023
301.415
297.87
294.389
290.972
287.62
284.332
281.11
277.952
274.859
271.831
268.868
265.969
263.135
260.365
257.66
255.018
252.44
249.925
247.472
245.082
242.754
240.487
238.281
236.135
234.05
232.023
230.054
228.144
226.291
224.494
222.752
221.066
219.434
217.856
216.33
214.855
213.432
212.059
210.735
209.459
208.231
207.05
205.914
204.824
203.777
202.774
201.813
200.893
200.014
199.175
198.375
197.613
196.889
196.201
195.549
194.932
194.349
193.801
193.285
192.802
192.35
191.93
191.541
191.181
190.852
190.551
190.279
190.036
189.821
189.633
189.473
189.34
189.234
189.154
189.101
189.075
189.074
397.68
393.052
388.427
383.814
379.218
374.642
370.092
365.571
361.083
356.631
352.22
347.851
343.529
339.254
335.031
330.86
326.744
322.684
318.682
314.739
310.857
307.036
303.277
299.581
295.949
292.38
288.877
285.439
282.065
278.758
275.516
272.34
269.23
266.185
263.207
260.294
257.447
254.665
251.948
249.297
246.709
244.186
241.727
239.331
236.998
234.728
232.519
230.372
228.285
226.258
224.291
222.382
220.532
218.739
217.002
215.321
213.694
212.122
210.604
209.137
207.722
206.358
205.044
203.778
202.561
201.391
200.267
199.188
198.154
197.163
196.216
195.31
194.445
193.62
192.835
192.088
191.379
190.706
190.07
189.47
188.904
188.372
187.874
187.409
186.976
186.574
186.203
185.863
185.553
185.273
185.022
184.8
184.606
184.441
184.304
184.194
184.112
184.057
184.029
184.029
397.646
392.95
388.257
383.575
378.91
374.264
369.643
365.049
360.488
355.961
351.474
347.028
342.627
338.273
333.968
329.716
325.517
321.373
317.287
313.26
309.292
305.386
301.542
297.76
294.043
290.39
286.801
283.279
279.822
276.431
273.107
269.85
266.66
263.536
260.479
257.49
254.567
251.71
248.92
246.197
243.539
240.947
238.42
235.958
233.56
231.226
228.956
226.748
224.603
222.519
220.496
218.533
216.63
214.785
212.999
211.27
209.597
207.979
206.417
204.908
203.452
202.049
200.696
199.394
198.141
196.937
195.78
194.67
193.606
192.586
191.611
190.678
189.788
188.939
188.131
187.362
186.632
185.94
185.285
184.667
184.084
183.537
183.024
182.544
182.098
181.685
181.303
180.953
180.634
180.345
180.086
179.857
179.658
179.487
179.346
179.233
179.148
179.091
179.063
179.062
397.612
392.847
388.085
383.334
378.599
373.882
369.189
364.523
359.888
355.288
350.724
346.202
341.723
337.29
332.906
328.573
324.293
320.068
315.899
311.789
307.738
303.748
299.82
295.955
292.154
288.418
284.747
281.142
277.604
274.132
270.728
267.391
264.122
260.921
257.788
254.723
251.726
248.796
245.935
243.141
240.414
237.754
235.161
232.634
230.173
227.777
225.446
223.18
220.977
218.837
216.759
214.743
212.789
210.894
209.059
207.282
205.564
203.902
202.297
200.746
199.251
197.808
196.418
195.08
193.793
192.555
191.366
190.225
189.131
188.083
187.08
186.122
185.206
184.334
183.502
182.712
181.961
181.25
180.577
179.941
179.342
178.779
178.252
177.759
177.3
176.874
176.482
176.122
175.793
175.496
175.23
174.995
174.789
174.614
174.468
174.352
174.264
174.206
174.176
174.175
397.577
392.743
387.912
383.091
378.285
373.498
368.734
363.995
359.287
354.612
349.974
345.375
340.819
336.309
331.846
327.434
323.074
318.768
314.519
310.327
306.195
302.123
298.113
294.167
290.284
286.467
282.715
279.03
275.411
271.861
268.378
264.964
261.618
258.342
255.134
251.995
248.926
245.925
242.993
240.131
237.336
234.61
231.952
229.362
226.839
224.382
221.992
219.668
217.408
215.214
213.083
211.015
209.009
207.066
205.183
203.36
201.597
199.892
198.244
196.653
195.118
193.637
192.211
190.837
189.516
188.245
187.025
185.853
184.73
183.655
182.625
181.641
180.701
179.805
178.951
178.14
177.369
176.638
175.947
175.294
174.679
174.101
173.559
173.053
172.582
172.145
171.741
171.371
171.034
170.729
170.455
170.213
170.002
169.822
169.672
169.552
169.462
169.402
169.372
169.37
397.542
392.639
387.738
382.847
377.971
373.113
368.277
363.466
358.685
353.936
349.224
344.55
339.918
335.331
330.791
326.3
321.862
317.477
313.148
308.877
304.665
300.513
296.423
292.397
288.435
284.538
280.707
276.943
273.247
269.619
266.06
262.57
259.15
255.799
252.518
249.308
246.167
243.097
240.097
237.167
234.307
231.516
228.795
226.142
223.558
221.043
218.594
216.213
213.899
211.65
209.467
207.348
205.294
203.302
201.372
199.504
197.697
195.949
194.26
192.629
191.056
189.538
188.075
186.667
185.312
184.009
182.758
181.557
180.405
179.302
178.246
177.237
176.273
175.354
174.479
173.646
172.856
172.106
171.397
170.728
170.097
169.503
168.948
168.428
167.945
167.496
167.083
166.703
166.357
166.043
165.763
165.514
165.298
165.113
164.958
164.835
164.743
164.681
164.649
164.648
397.507
392.535
387.564
382.603
377.656
372.727
367.82
362.937
358.084
353.262
348.476
343.727
339.02
334.358
329.741
325.174
320.658
316.196
311.789
307.44
303.149
298.919
294.752
290.647
286.607
282.632
278.725
274.884
271.112
267.408
263.775
260.211
256.717
253.294
249.942
246.661
243.452
240.313
237.246
234.251
231.326
228.472
225.689
222.976
220.333
217.759
215.254
212.818
210.449
208.148
205.914
203.745
201.642
199.603
197.628
195.715
193.865
192.075
190.346
188.676
187.065
185.511
184.013
182.571
181.183
179.849
178.567
177.337
176.157
175.027
173.945
172.912
171.924
170.983
170.086
169.233
168.423
167.655
166.928
166.242
165.596
164.988
164.418
163.886
163.39
162.931
162.507
162.117
161.763
161.442
161.154
160.899
160.677
160.487
160.329
160.202
160.107
160.044
160.011
160.009
397.473
392.43
387.39
382.359
377.342
372.343
367.364
362.41
357.485
352.591
347.731
342.909
338.128
333.391
328.699
324.057
319.465
314.927
310.444
306.017
301.65
297.344
293.099
288.919
284.802
280.752
276.769
272.853
269.007
265.23
261.523
257.887
254.322
250.828
247.407
244.057
240.78
237.575
234.443
231.383
228.395
225.48
222.636
219.864
217.162
214.532
211.972
209.481
207.06
204.708
202.423
200.206
198.055
195.97
193.95
191.994
190.102
188.271
186.503
184.795
183.146
181.556
180.024
178.549
177.129
175.764
174.452
173.193
171.986
170.83
169.723
168.665
167.655
166.691
165.773
164.9
164.071
163.285
162.542
161.839
161.177
160.555
159.972
159.427
158.92
158.449
158.015
157.616
157.253
156.924
156.629
156.368
156.141
155.946
155.784
155.654
155.557
155.492
155.458
155.456
397.438
392.326
387.216
382.116
377.029
371.96
366.911
361.886
356.889
351.923
346.991
342.097
337.243
332.432
327.667
322.95
318.284
313.67
309.112
304.611
300.169
295.788
291.468
287.213
283.022
278.898
274.841
270.853
266.933
263.084
259.306
255.599
251.965
248.402
244.913
241.497
238.153
234.884
231.688
228.565
225.516
222.54
219.637
216.807
214.049
211.363
208.749
206.206
203.733
201.33
198.997
196.732
194.534
192.404
190.341
188.342
186.408
184.538
182.731
180.985
179.301
177.676
176.11
174.602
173.151
171.755
170.415
169.128
167.894
166.712
165.581
164.499
163.466
162.481
161.542
160.65
159.802
158.998
158.238
157.519
156.843
156.206
155.61
155.052
154.533
154.052
153.608
153.2
152.828
152.492
152.19
151.923
151.69
151.491
151.325
151.192
151.092
151.025
150.991
150.988
397.404
392.223
387.044
381.874
376.718
371.579
366.46
361.365
356.298
351.261
346.258
341.292
336.365
331.482
326.644
321.854
317.115
312.429
307.797
303.223
298.707
294.252
289.86
285.531
281.268
277.071
272.942
268.882
264.892
260.973
257.125
253.35
249.647
246.017
242.462
238.98
235.573
232.24
228.981
225.797
222.688
219.653
216.693
213.806
210.993
208.253
205.586
202.991
200.468
198.016
195.635
193.323
191.081
188.907
186.8
184.76
182.786
180.877
179.032
177.249
175.529
173.87
172.271
170.731
169.25
167.825
166.456
165.142
163.881
162.674
161.518
160.413
159.358
158.352
157.393
156.482
155.616
154.795
154.018
153.284
152.592
151.942
151.332
150.763
150.233
149.741
149.287
148.87
148.49
148.146
147.838
147.565
147.326
147.123
146.953
146.817
146.715
146.646
146.61
146.607
397.369
392.12
386.873
381.635
376.41
371.201
366.013
360.849
355.711
350.604
345.531
340.494
335.497