/*--------------------------------*- C++ -*----------------------------------*\
| =========                 |                                                 |
| \\      /  F ield         | OpenFOAM: The Open Source CFD Toolbox           |
|  \\    /   O peration     | Version:  2406                                  |
|   \\  /    A nd           | Website:  www.openfoam.com                      |
|    \\/     M anipulation  |                                                 |
\*---------------------------------------------------------------------------*/
FoamFile
{
    version     2.0;
    format      ascii;
    arch        "LSB;label=32;scalar=64";
    class       volScalarField;
    location    "33";
    object      p;
}
// * * * * * * * * * * * * * * * * * * * * * * * * * * * * * * * * * * * * * //

dimensions      [0 2 -2 0 0 0 0];

internalField   nonuniform List<scalar> 
1176
(
0.79699975
0.79702263
0.79704629
0.79705395
0.79702243
0.79692773
0.7967705
0.79658433
0.79640513
0.79623798
0.79608335
0.79598774
0.79598774
0.79608335
0.79623797
0.79640512
0.7965843
0.79677044
0.79692764
0.7970223
0.7970538
0.7970461
0.79702243
0.79699956
0.77385132
0.77380437
0.77375661
0.77373971
0.77380221
0.77400457
0.77436989
0.77483429
0.77526515
0.77555125
0.77567065
0.7757049
0.7757049
0.77567064
0.77555125
0.77526517
0.77483434
0.77436998
0.7740047
0.77380239
0.77373991
0.77375683
0.77380459
0.77385154
0.75676657
0.75678858
0.75680837
0.75680647
0.7567474
0.75658623
0.75631446
0.75598651
0.7556803
0.75546751
0.7553567
0.75530788
0.75530788
0.75535669
0.75546749
0.75568028
0.75598648
0.75631442
0.75658618
0.75674734
0.7568064
0.75680831
0.75678852
0.7567665
0.74009468
0.7401038
0.74011586
0.74013226
0.74015481
0.74017238
0.74014014
0.74000673
0.73977462
0.73950205
0.73927785
0.73915735
0.73915735
0.73927785
0.73950205
0.73977462
0.74000673
0.74014014
0.74017236
0.74015479
0.74013224
0.74011583
0.74010377
0.74009465
0.72367563
0.72367958
0.72368457
0.72369064
0.72370034
0.72372061
0.72375679
0.72379831
0.72381997
0.7237961
0.72373398
0.72368135
0.72368135
0.72373398
0.7237961
0.72381998
0.72379831
0.72375679
0.72372061
0.72370034
0.72369064
0.72368458
0.72367958
0.72367563
0.70721397
0.70721639
0.70721963
0.70722367
0.70722859
0.70723542
0.70724959
0.7072809
0.70733089
0.70738814
0.70743084
0.7074475
0.7074475
0.70743084
0.70738813
0.70733089
0.7072809
0.70724958
0.70723541
0.70722858
0.70722367
0.70721963
0.70721639
0.70721397
0.69080816
0.6908103
0.69081311
0.69081654
0.69082044
0.69082395
0.69082602
0.69082819
0.69083674
0.69085397
0.69087187
0.69088359
0.69088358
0.69087187
0.69085397
0.69083674
0.69082819
0.69082601
0.69082395
0.69082044
0.69081654
0.69081311
0.6908103
0.69080817
0.6744283
0.67443006
0.67443238
0.6744353
0.67443898
0.67444335
0.6744478
0.67445096
0.67445219
0.67445381
0.67445085
0.67444834
0.67444834
0.67445085
0.67445381
0.67445219
0.67445095
0.6744478
0.67444335
0.67443898
0.67443531
0.67443239
0.67443006
0.6744283
0.65807401
0.65807547
0.6580774
0.65807981
0.65808282
0.65808661
0.65809166
0.6580987
0.65810739
0.65811742
0.65812518
0.65812877
0.65812877
0.65812518
0.65811741
0.65810739
0.6580987
0.65809166
0.65808661
0.65808283
0.65807981
0.6580774
0.65807547
0.65807402
0.64173632
0.64173752
0.64173913
0.64174117
0.64174373
0.64174691
0.64175107
0.64175746
0.64176762
0.64178076
0.64179508
0.64180439
0.64180439
0.64179508
0.64178076
0.64176762
0.64175746
0.64175107
0.64174691
0.64174373
0.64174117
0.64173913
0.64173753
0.64173632
0.62541194
0.62541297
0.62541434
0.62541609
0.6254183
0.62542103
0.62542442
0.62542927
0.62543713
0.62544779
0.62546035
0.62546949
0.62546949
0.62546035
0.62544779
0.62543713
0.62542927
0.62542442
0.62542103
0.6254183
0.62541609
0.62541434
0.62541297
0.62541194
0.60909847
0.60909936
0.60910056
0.60910208
0.60910402
0.60910642
0.60910938
0.60911339
0.60911961
0.60912827
0.60913884
0.60914629
0.60914629
0.60913884
0.60912827
0.60911961
0.60911339
0.60910938
0.60910642
0.60910402
0.60910208
0.60910056
0.60909936
0.60909847
0.59279427
0.59279506
0.59279612
0.59279746
0.59279918
0.59280132
0.59280395
0.59280749
0.59281289
0.59282064
0.59283033
0.59283701
0.59283701
0.59283033
0.59282064
0.59281289
0.59280749
0.59280395
0.59280132
0.59279918
0.59279746
0.59279612
0.59279506
0.59279427
0.57649805
0.57649875
0.57649969
0.5765009
0.57650243
0.57650434
0.57650669
0.57650982
0.5765146
0.57652157
0.57653023
0.57653632
0.57653632
0.57653023
0.57652157
0.5765146
0.57650982
0.57650669
0.57650434
0.57650243
0.5765009
0.57649969
0.57649875
0.57649805
0.56020878
0.56020941
0.56021026
0.56021134
0.56021272
0.56021444
0.56021654
0.5602193
0.56022346
0.56022959
0.56023712
0.56024252
0.56024252
0.56023712
0.56022959
0.56022346
0.5602193
0.56021654
0.56021444
0.56021272
0.56021134
0.56021025
0.56020941
0.56020878
0.54392566
0.54392623
0.543927
0.54392798
0.54392923
0.54393079
0.54393268
0.54393513
0.54393877
0.54394415
0.54395068
0.54395547
0.54395547
0.54395068
0.54394415
0.54393877
0.54393514
0.54393268
0.54393078
0.54392923
0.54392797
0.54392699
0.54392623
0.54392566
0.52764804
0.52764856
0.52764925
0.52765014
0.52765129
0.5276527
0.52765442
0.52765663
0.52765985
0.52766461
0.52767033
0.52767462
0.52767463
0.52767033
0.52766461
0.52765985
0.52765663
0.52765442
0.5276527
0.52765128
0.52765014
0.52764924
0.52764855
0.52764803
0.51137536
0.51137583
0.51137647
0.51137729
0.51137833
0.51137963
0.5113812
0.51138319
0.51138607
0.51139031
0.51139537
0.51139923
0.51139923
0.51139537
0.51139031
0.51138607
0.51138319
0.5113812
0.51137963
0.51137833
0.51137728
0.51137646
0.51137582
0.51137535
0.49510717
0.4951076
0.49510818
0.49510893
0.4951099
0.49511109
0.49511253
0.49511433
0.49511691
0.49512072
0.49512521
0.4951287
0.4951287
0.49512521
0.49512072
0.49511691
0.49511434
0.49511253
0.49511109
0.49510989
0.49510892
0.49510817
0.49510759
0.49510715
0.47884306
0.47884346
0.47884399
0.47884469
0.47884557
0.47884667
0.478848
0.47884964
0.47885197
0.47885539
0.47885943
0.47886258
0.47886258
0.47885943
0.47885539
0.47885197
0.47884965
0.478848
0.47884667
0.47884557
0.47884467
0.47884398
0.47884344
0.47884304
0.46258269
0.46258306
0.46258355
0.46258419
0.46258501
0.46258603
0.46258725
0.46258876
0.46259087
0.46259397
0.46259761
0.46260048
0.46260048
0.46259761
0.46259397
0.46259087
0.46258877
0.46258725
0.46258603
0.462585
0.46258418
0.46258354
0.46258304
0.46258267
0.44632575
0.44632609
0.44632656
0.44632715
0.44632791
0.44632886
0.44632999
0.44633138
0.44633329
0.44633611
0.44633942
0.44634203
0.44634203
0.44633942
0.44633611
0.44633329
0.44633138
0.44632999
0.44632885
0.4463279
0.44632713
0.44632654
0.44632607
0.44632573
0.43007199
0.43007231
0.43007273
0.43007329
0.43007399
0.43007487
0.43007592
0.43007721
0.43007896
0.43008153
0.43008456
0.43008694
0.43008694
0.43008456
0.43008153
0.43007896
0.43007721
0.43007592
0.43007487
0.43007398
0.43007327
0.43007271
0.43007228
0.43007196
0.41382115
0.41382145
0.41382185
0.41382236
0.41382302
0.41382384
0.41382482
0.41382601
0.41382761
0.41382997
0.41383275
0.41383494
0.41383494
0.41383275
0.41382997
0.41382762
0.41382601
0.41382482
0.41382383
0.41382301
0.41382234
0.41382182
0.41382142
0.41382112
0.39757304
0.39757331
0.39757369
0.39757417
0.39757478
0.39757555
0.39757646
0.39757756
0.39757904
0.3975812
0.39758377
0.39758578
0.39758578
0.39758377
0.39758121
0.39757904
0.39757756
0.39757646
0.39757554
0.39757476
0.39757414
0.39757365
0.39757328
0.397573
0.38132745
0.3813277
0.38132805
0.3813285
0.38132908
0.38132979
0.38133064
0.38133167
0.38133303
0.38133503
0.3813374
0.38133925
0.38133925
0.38133741
0.38133503
0.38133304
0.38133167
0.38133064
0.38132978
0.38132905
0.38132847
0.38132801
0.38132766
0.3813274
0.3650842
0.36508444
0.36508477
0.36508519
0.36508573
0.3650864
0.36508719
0.36508815
0.36508942
0.36509126
0.36509347
0.36509517
0.36509517
0.36509347
0.36509126
0.36508942
0.36508816
0.36508719
0.36508638
0.3650857
0.36508515
0.36508473
0.36508439
0.36508415
0.34884315
0.34884338
0.34884368
0.34884408
0.34884458
0.34884521
0.34884595
0.34884685
0.34884802
0.34884973
0.34885178
0.34885336
0.34885336
0.34885178
0.34884973
0.34884803
0.34884685
0.34884595
0.34884519
0.34884455
0.34884403
0.34884363
0.34884332
0.34884309
0.33260415
0.33260436
0.33260465
0.33260502
0.33260549
0.33260608
0.33260678
0.33260761
0.33260871
0.33261029
0.3326122
0.33261367
0.33261367
0.3326122
0.3326103
0.33260872
0.33260762
0.33260678
0.33260606
0.33260546
0.33260497
0.33260459
0.33260429
0.33260407
0.31636706
0.31636726
0.31636753
0.31636787
0.31636832
0.31636887
0.31636953
0.31637031
0.31637133
0.3163728
0.31637459
0.31637595
0.31637595
0.31637459
0.31637281
0.31637134
0.31637032
0.31636953
0.31636885
0.31636828
0.31636782
0.31636746
0.31636718
0.31636697
0.30013176
0.30013195
0.3001322
0.30013253
0.30013295
0.30013346
0.30013408
0.30013482
0.30013577
0.30013714
0.30013881
0.30014008
0.30014008
0.30013881
0.30013715
0.30013578
0.30013483
0.30013408
0.30013344
0.3001329
0.30013246
0.30013212
0.30013186
0.30013166
0.28389815
0.28389832
0.28389856
0.28389887
0.28389926
0.28389975
0.28390033
0.28390102
0.28390191
0.28390319
0.28390475
0.28390593
0.28390593
0.28390475
0.2839032
0.28390192
0.28390103
0.28390033
0.28389972
0.28389921
0.28389879
0.28389847
0.28389822
0.28389803
0.26766611
0.26766627
0.2676665
0.26766678
0.26766715
0.26766761
0.26766816
0.26766881
0.26766964
0.26767084
0.2676723
0.2676734
0.2676734
0.2676723
0.26767085
0.26766966
0.26766882
0.26766816
0.26766759
0.2676671
0.2676667
0.26766639
0.26766615
0.26766598
0.25143555
0.25143571
0.25143592
0.25143619
0.25143654
0.25143697
0.25143748
0.25143809
0.25143887
0.25143999
0.25144136
0.25144239
0.25144239
0.25144136
0.25144
0.25143889
0.25143811
0.25143748
0.25143694
0.25143647
0.25143609
0.2514358
0.25143557
0.2514354
0.23520638
0.23520653
0.23520673
0.23520698
0.23520731
0.23520772
0.23520821
0.23520878
0.23520951
0.23521056
0.23521185
0.23521281
0.23521281
0.23521185
0.23521057
0.23520954
0.2352088
0.2352082
0.23520768
0.23520724
0.23520688
0.2352066
0.23520638
0.23520622
0.21897853
0.21897867
0.21897885
0.21897909
0.2189794
0.21897979
0.21898025
0.21898078
0.21898147
0.21898245
0.21898366
0.21898456
0.21898456
0.21898366
0.21898247
0.2189815
0.21898081
0.21898024
0.21897975
0.21897932
0.21897897
0.21897871
0.2189785
0.21897834
0.2027519
0.20275203
0.20275221
0.20275244
0.20275273
0.20275309
0.20275352
0.20275403
0.20275468
0.2027556
0.20275674
0.20275759
0.20275759
0.20275674
0.20275562
0.20275471
0.20275406
0.20275352
0.20275305
0.20275264
0.20275231
0.20275205
0.20275185
0.2027517
0.18652644
0.18652657
0.18652673
0.18652695
0.18652722
0.18652757
0.18652797
0.18652845
0.18652906
0.18652992
0.18653099
0.18653178
0.18653177
0.18653099
0.18652994
0.18652909
0.18652848
0.18652797
0.18652752
0.18652712
0.1865268
0.18652656
0.18652636
0.18652622
0.17030207
0.17030219
0.17030235
0.17030255
0.17030281
0.17030313
0.17030352
0.17030397
0.17030454
0.17030535
0.17030636
0.1703071
0.1703071
0.17030637
0.17030538
0.17030458
0.170304
0.17030352
0.17030308
0.1703027
0.17030239
0.17030216
0.17030197
0.17030183
0.15407874
0.15407885
0.154079
0.15407919
0.15407944
0.15407974
0.15408011
0.15408053
0.15408107
0.15408183
0.15408276
0.15408345
0.15408345
0.15408277
0.15408185
0.15408111
0.15408057
0.15408011
0.15407969
0.15407932
0.15407902
0.1540788
0.15407862
0.15407848
0.13785638
0.13785648
0.13785662
0.1378568
0.13785703
0.13785732
0.13785767
0.13785807
0.13785857
0.13785929
0.13786017
0.13786082
0.13786082
0.13786018
0.13785931
0.13785862
0.13785811
0.13785767
0.13785726
0.13785691
0.13785662
0.1378564
0.13785623
0.1378561
0.12163495
0.12163504
0.12163518
0.12163535
0.12163557
0.12163584
0.12163617
0.12163654
0.12163702
0.12163767
0.12163848
0.12163907
0.12163907
0.12163848
0.1216377
0.12163706
0.12163659
0.12163617
0.12163578
0.12163544
0.12163516
0.12163495
0.12163478
0.12163465
0.10541436
0.10541445
0.10541458
0.10541474
0.10541495
0.10541521
0.10541552
0.10541587
0.10541631
0.10541693
0.10541768
0.10541823
0.10541823
0.10541769
0.10541696
0.10541637
0.10541592
0.10541552
0.10541514
0.10541481
0.10541454
0.10541434
0.10541417
0.10541406
0.089194644
0.089194732
0.089194852
0.089195005
0.089195203
0.089195448
0.089195737
0.08919607
0.089196474
0.089197014
0.08919766
0.089198115
0.089198112
0.089197663
0.089197045
0.08919653
0.089196119
0.08919574
0.089195381
0.08919506
0.089194798
0.089194602
0.089194444
0.089194329
0.072975637
0.07297572
0.072975832
0.072975977
0.072976166
0.072976402
0.072976679
0.072976997
0.072977375
0.07297787
0.072978445
0.07297883
0.072978827
0.072978449
0.072977902
0.072977434
0.072977049
0.072976684
0.072976333
0.072976021
0.072975766
0.072975578
0.072975427
0.072975317
0.056757515
0.056757595
0.056757704
0.056757842
0.056758019
0.056758237
0.056758491
0.056758778
0.056759101
0.056759475
0.056759844
0.056760045
0.056760041
0.056759847
0.056759508
0.056759162
0.056758833
0.056758499
0.056758171
0.056757877
0.056757635
0.056757456
0.05675731
0.056757204
0.040539726
0.040539797
0.040539895
0.040540026
0.040540202
0.040540428
0.040540696
0.04054099
0.040541318
0.040541723
0.040542183
0.040542476
0.040542472
0.040542184
0.040541755
0.040541378
0.040541046
0.040540706
0.040540369
0.040540071
0.040539836
0.040539669
0.040539539
0.040539446
0.024323457
0.02432354
0.024323648
0.024323776
0.024323924
0.024324087
0.024324262
0.024324447
0.024324615
0.024324691
0.024324595
0.02432435
0.024324346
0.024324595
0.024324719
0.02432467
0.024324497
0.02432427
0.024324032
0.024323809
0.024323615
0.024323461
0.024323331
0.024323234
0.0081053632
0.0081054338
0.008105527
0.0081056488
0.0081058105
0.0081060112
0.0081062333
0.0081064741
0.0081068531
0.0081076875
0.0081091599
0.0081105187
0.0081105148
0.0081091573
0.0081077029
0.0081068875
0.008106507
0.0081062387
0.0081059758
0.0081057366
0.0081055475
0.0081054115
0.0081053074
0.0081052301
)
;

boundaryField
{
    INLET
    {
        type            zeroGradient;
    }
    OUTLET
    {
        type            fixedValue;
        value           uniform 0;
    }
    WALL
    {
        type            zeroGradient;
    }
    frontAndBackPlanes
    {
        type            empty;
    }
}


// ************************************************************************* //
