/*--------------------------------*- C++ -*----------------------------------*\
| =========                 |                                                 |
| \\      /  F ield         | OpenFOAM: The Open Source CFD Toolbox           |
|  \\    /   O peration     | Version:  2406                                  |
|   \\  /    A nd           | Website:  www.openfoam.com                      |
|    \\/     M anipulation  |                                                 |
\*---------------------------------------------------------------------------*/
FoamFile
{
    version     2.0;
    format      ascii;
    arch        "LSB;label=32;scalar=64";
    class       surfaceScalarField;
    location    "33";
    object      phi;
}
// * * * * * * * * * * * * * * * * * * * * * * * * * * * * * * * * * * * * * //

dimensions      [0 3 -1 0 0 0 0];

oriented        oriented;

internalField   nonuniform List<scalar> 
2279
(
2.3617503e-08
1.0148926e-05
2.0509769e-07
4.982375e-05
6.9331772e-07
0.00014252872
1.5784718e-06
0.00034353082
2.6788481e-06
0.00075378089
3.347292e-06
0.0015415573
3.0435211e-06
0.0029497096
2.1516859e-06
0.005249171
1.4318062e-06
0.008582269
9.8959503e-07
0.012685995
5.1267097e-07
0.016666385
4.3651219e-12
0.01918202
-5.1265932e-07
0.01918202
-9.8956996e-07
0.016666385
-1.431746e-06
0.012685995
-2.1515616e-06
0.0085822689
-3.0433216e-06
0.0052491708
-3.3470419e-06
0.0029497094
-2.6786012e-06
0.0015415572
-1.578277e-06
0.00075378079
-6.9319265e-07
0.00034353078
-2.0503379e-07
0.00014252871
-2.3594379e-08
4.9823749e-05
1.0148926e-05
-9.5248462e-08
1.0244175e-05
-5.3794005e-07
5.0266441e-05
-1.6230011e-06
0.00014361378
-3.5389523e-06
0.00034544677
-5.9201864e-06
0.00075616213
-7.405502e-06
0.0015430426
-6.5847264e-06
0.0029488888
-3.936158e-06
0.0052465224
-1.3883859e-06
0.0085797213
-6.5114144e-08
0.012684671
2.4241282e-07
0.016666078
4.0607874e-12
0.019182263
-2.42412e-07
0.019182263
6.508904e-08
0.016666078
1.3883058e-06
0.012684671
3.9359872e-06
0.0085797214
6.584454e-06
0.0052465226
7.4051761e-06
0.002948889
5.9198991e-06
0.0015430428
3.5387652e-06
0.00075616221
1.6229115e-06
0.00034544681
5.3791136e-07
0.0001436138
9.5248293e-08
5.0266448e-05
1.0244177e-05
5.013984e-08
1.0194035e-05
2.6334499e-07
5.0053236e-05
7.491072e-07
0.00014312802
1.5314585e-06
0.00034466442
2.3366559e-06
0.00075535693
2.5476623e-06
0.0015428316
1.8390967e-06
0.0029495974
9.7567574e-07
0.0052473858
6.7696028e-07
0.00858002
6.7179044e-07
0.012684677
4.8417265e-07
0.016666266
1.8645054e-11
0.019182747
-4.8412948e-07
0.019182747
-6.7173282e-07
0.016666265
-6.768878e-07
0.012684677
-9.755966e-07
0.0085800199
-1.8390187e-06
0.0052473858
-2.5475919e-06
0.0029495974
-2.336605e-06
0.0015428316
-1.5314341e-06
0.00075535691
-7.4910284e-07
0.00034466441
-2.6334865e-07
0.00014312801
-5.0144581e-08
5.0053234e-05
1.0194034e-05
1.9586702e-08
1.0174448e-05
1.1184922e-07
4.9960974e-05
3.6128425e-07
0.00014287858
9.0504776e-07
0.00034412066
1.87166e-06
0.00075439032
3.0948237e-06
0.0015416085
3.8987242e-06
0.0029487935
3.7285551e-06
0.005247556
2.92421e-06
0.0085808243
1.9733732e-06
0.012685627
1.0127685e-06
0.016667226
-2.9608799e-12
0.01918376
-1.0127761e-06
0.01918376
-1.9733845e-06
0.016667226
-2.9242232e-06
0.012685627
-3.7285623e-06
0.0085808243
-3.8987133e-06
0.005247556
-3.0947952e-06
0.0029487935
-1.8716278e-06
0.0015416085
-9.0502358e-07
0.00075439031
-3.6127104e-07
0.00034412065
-1.1184398e-07
0.00014287858
-1.9585711e-08
4.9960972e-05
1.0174448e-05
8.0839148e-09
1.0166364e-05
4.7141429e-08
4.9921916e-05
1.5494684e-07
0.00014277078
3.9846312e-07
0.00034387714
8.7979471e-07
0.00075390899
1.7015166e-06
0.0015407867
2.7512757e-06
0.0029477437
3.4623623e-06
0.0052468449
3.4708629e-06
0.0085808158
2.800688e-06
0.012686298
1.5505173e-06
0.016668476
4.0529848e-12
0.01918531
-1.5505092e-06
0.01918531
-2.8006804e-06
0.016668476
-3.4708567e-06
0.012686298
-3.462358e-06
0.0085808158
-2.7512742e-06
0.0052468449
-1.7015184e-06
0.0029477437
-8.797982e-07
0.0015407867
-3.9846617e-07
0.00075390899
-1.549484e-07
0.00034387714
-4.7141901e-08
0.00014277078
-8.0838146e-09
4.9921916e-05
1.0166364e-05
4.9358614e-09
1.0161429e-05
2.8698837e-08
4.9898153e-05
9.5121425e-08
0.00014270436
2.4921434e-07
0.00034372305
5.6360939e-07
0.00075359459
1.1213749e-06
0.001540229
1.9184575e-06
0.0029469467
2.6588204e-06
0.0052461046
2.8930588e-06
0.0085805816
2.4787668e-06
0.012686712
1.4344275e-06
0.016669521
3.2136621e-12
0.019186745
-1.4344213e-06
0.019186745
-2.478761e-06
0.016669521
-2.8930535e-06
0.012686712
-2.6588154e-06
0.0085805816
-1.9184534e-06
0.0052461046
-1.1213724e-06
0.0029469467
-5.6360882e-07
0.001540229
-2.4921503e-07
0.00075359459
-9.5122356e-08
0.00034372305
-2.8699456e-08
0.00014270436
-4.9361283e-09
4.9898153e-05
1.0161429e-05
4.4123449e-09
1.0157016e-05
2.5525639e-08
4.987704e-05
8.3830042e-08
0.00014264605
2.1689398e-07
0.00034358999
4.8450079e-07
0.00075332698
9.5636016e-07
0.0015397571
1.6413725e-06
0.0029462616
2.3245808e-06
0.0052454214
2.5939514e-06
0.0085803122
2.2393612e-06
0.012687066
1.3066726e-06
0.016670453
2.5833842e-13
0.019188051
-1.3066726e-06
0.019188051
-2.239363e-06
0.016670453
-2.5939552e-06
0.012687066
-2.3245849e-06
0.0085803122
-1.6413756e-06
0.0052454214
-9.5636263e-07
0.0029462616
-4.8450285e-07
0.0015397571
-2.1689546e-07
0.00075332698
-8.3830826e-08
0.00034358999
-2.5525911e-08
0.00014264605
-4.4123579e-09
4.987704e-05
1.0157016e-05
3.6255303e-09
1.0153391e-05
2.1036557e-08
4.9859629e-05
6.9438018e-08
0.00014259765
1.8114124e-07
0.00034347828
4.0971383e-07
0.00075309841
8.2390285e-07
0.0015393429
1.4539907e-06
0.0029456316
2.1430732e-06
0.0052447323
2.4674704e-06
0.0085799878
2.1883906e-06
0.012687346
1.2866402e-06
0.016671355
-1.5804169e-12
0.019189338
-1.286644e-06
0.019189338
-2.188396e-06
0.016671355
-2.4674772e-06
0.012687346
-2.1430796e-06
0.0085799878
-1.4539962e-06
0.0052447323
-8.2390787e-07
0.0029456316
-4.0971807e-07
0.0015393429
-1.811441e-07
0.00075309841
-6.9439457e-08
0.00034347828
-2.1037045e-08
0.00014259765
-3.6255595e-09
4.9859629e-05
1.0153391e-05
2.9831313e-09
1.0150408e-05
1.7346981e-08
4.9845265e-05
5.7377207e-08
0.00014255762
1.5007361e-07
0.00034338559
3.4097063e-07
0.00075290751
6.9193081e-07
0.001538992
1.2441071e-06
0.0029450794
1.9041837e-06
0.0052440722
2.3015978e-06
0.0085795904
2.0975051e-06
0.01268755
1.2520076e-06
0.016672201
-2.6139833e-12
0.01919059
-1.2520133e-06
0.01919059
-2.0975122e-06
0.016672201
-2.3016053e-06
0.01268755
-1.9041896e-06
0.0085795904
-1.2441119e-06
0.0052440722
-6.9193507e-07
0.0029450794
-3.4097416e-07
0.001538992
-1.5007596e-07
0.00075290751
-5.7378392e-08
0.00034338559
-1.7347391e-08
0.00014255762
-2.9831695e-09
4.9845265e-05
1.0150408e-05
2.4654277e-09
1.0147942e-05
1.4363108e-08
4.9833367e-05
4.7626428e-08
0.00014252436
1.2502853e-07
0.00034330818
2.8558856e-07
0.00075274695
5.841787e-07
0.0015386934
1.0641832e-06
0.0029445994
1.6641562e-06
0.0052434722
2.0898723e-06
0.0085791647
1.952892e-06
0.012687687
1.1802422e-06
0.016672973
-2.44131e-12
0.01919177
-1.1802476e-06
0.01919177
-1.9528982e-06
0.016672973
-2.0898783e-06
0.012687687
-1.6641606e-06
0.0085791647
-1.0641868e-06
0.0052434722
-5.8418192e-07
0.0029445994
-2.8559114e-07
0.0015386934
-1.2503017e-07
0.00075274695
-4.7627205e-08
0.00034330818
-1.436335e-08
0.00014252436
-2.4654319e-09
4.9833367e-05
1.0147942e-05
2.1024517e-09
1.014584e-05
1.2258062e-08
4.9823212e-05
4.068824e-08
0.00014249593
1.0699011e-07
0.00034324188
2.4507822e-07
0.00075260887
5.0385247e-07
0.0015384346
9.2623391e-07
0.002944177
1.4715101e-06
0.005242927
1.8909069e-06
0.0085787453
1.8050209e-06
0.012687772
1.1036884e-06
0.016673675
-1.6969102e-12
0.019192874
-1.103692e-06
0.019192874
-1.8050249e-06
0.016673675
-1.8909103e-06
0.012687772
-1.4715124e-06
0.0085787453
-9.2623592e-07
0.0052429269
-5.0385436e-07
0.002944177
-2.4507974e-07
0.0015384346
-1.0699102e-07
0.00075260887
-4.068862e-08
0.00034324188
-1.2258147e-08
0.00014249593
-2.1024271e-09
4.9823212e-05
1.014584e-05
1.8282374e-09
1.0144011e-05
1.0665501e-08
4.9814374e-05
3.5430297e-08
0.00014247116
9.3282953e-08
0.00034318403
2.1413898e-07
0.00075248801
4.4192718e-07
0.0015382068
8.1811296e-07
0.0029438008
1.31638e-06
0.0052424287
1.7244932e-06
0.0085783372
1.6780421e-06
0.012687819
1.0378039e-06
0.016674315
-6.5432052e-13
0.019193912
-1.0378054e-06
0.019193912
-1.6780436e-06
0.016674315
-1.724494e-06
0.012687819
-1.3163803e-06
0.0085783372
-8.1811328e-07
0.0052424287
-4.4192762e-07
0.0029438008
-2.141393e-07
0.0015382068
-9.3283022e-08
0.00075248801
-3.5430216e-08
0.00034318403
-1.0665406e-08
0.00014247116
-1.8281828e-09
4.9814374e-05
1.0144011e-05
1.6104935e-09
1.0142401e-05
9.3996808e-09
4.9806585e-05
3.1244435e-08
0.00014244932
8.2340395e-08
0.00034313293
1.8932059e-07
0.00075238103
3.9182282e-07
0.0015380043
7.2924124e-07
0.0029434634
1.1851455e-06
0.0052419728
1.5781754e-06
0.0085779441
1.5623396e-06
0.012687835
9.7669845e-07
0.0166749
2.42684e-13
0.019194888
-9.7669807e-07
0.019194888
-1.562339e-06
0.0166749
-1.5781742e-06
0.012687835
-1.1851442e-06
0.0085779441
-7.292402e-07
0.0052419728
-3.9182196e-07
0.0029434634
-1.8931974e-07
0.0015380043
-8.2339589e-08
0.00075238103
-3.1243859e-08
0.00034313293
-9.3993869e-09
0.00014244932
-1.6104043e-09
4.9806585e-05
1.0142401e-05
1.4323223e-09
1.0140969e-05
8.363051e-09
4.9799654e-05
2.7812681e-08
0.00014242987
7.3352874e-08
0.00034308739
1.6886887e-07
0.00075228551
3.5026812e-07
0.0015378229
6.5458325e-07
0.0029431591
1.0720597e-06
0.0052415553
1.4464342e-06
0.0085775698
1.4548771e-06
0.012687826
9.1881044e-07
0.016675437
8.7197234e-13
0.019195807
-9.1880873e-07
0.019195807
-1.4548752e-06
0.016675437
-1.4464318e-06
0.012687826
-1.0720574e-06
0.0085775698
-6.5458121e-07
0.0052415553
-3.5026612e-07
0.0029431591
-1.6886688e-07
0.0015378229
-7.335117e-08
0.00075228551
-2.7811583e-08
0.00034308739
-8.3625451e-09
0.00014242987
-1.4321959e-09
4.9799655e-05
1.0140969e-05
1.2850152e-09
1.0139684e-05
7.5051311e-09
4.9793434e-05
2.4968956e-08
0.0001424124
6.5891308e-08
0.00034304647
1.5183833e-07
0.00075219957
3.1548579e-07
0.0015376593
5.9149732e-07
0.0029428831
9.7478795e-07
0.005241172
1.3297059e-06
0.0085772149
1.3567884e-06
0.012687799
8.6525331e-07
0.016675928
1.1509561e-12
0.019196672
-8.6525099e-07
0.019196672
-1.3567859e-06
0.016675928
-1.3297032e-06
0.012687799
-9.747853e-07
0.0085772149
-5.9149458e-07
0.005241172
-3.1548275e-07
0.0029428831
-1.5183516e-07
0.0015376593
-6.5888648e-08
0.00075219957
-2.4967294e-08
0.00034304647
-7.5043941e-09
0.0001424124
-1.2848484e-09
4.9793434e-05
1.0139684e-05
1.1615028e-09
1.0138522e-05
6.7852636e-09
4.9787811e-05
2.258059e-08
0.00014239661
5.9615627e-08
0.00034300943
1.3748146e-07
0.0007521217
2.8604724e-07
0.0015375107
5.3771194e-07
0.0029426314
8.9070729e-07
0.005240819
1.2263992e-06
0.0085768792
1.2674911e-06
0.012687758
8.1592807e-07
0.01667638
1.1198698e-12
0.019197488
-8.159258e-07
0.019197488
-1.2674887e-06
0.01667638
-1.2263967e-06
0.012687758
-8.9070461e-07
0.0085768792
-5.3770867e-07
0.005240819
-2.8604316e-07
0.0029426314
-1.3747704e-07
0.0015375107
-5.9611925e-08
0.0007521217
-2.2578309e-08
0.00034300944
-6.7842726e-09
0.00014239661
-1.1612917e-09
4.9787811e-05
1.0138522e-05
1.0561631e-09
1.0137466e-05
6.1710385e-09
4.9782696e-05
2.0541469e-08
0.00014238224
5.4252327e-08
0.00034297572
1.251911e-07
0.00075205076
2.607685e-07
0.0015373751
4.9125257e-07
0.0029424009
8.1722631e-07
0.005240493
1.1341849e-06
0.0085765622
1.1857919e-06
0.012687707
7.7021592e-07
0.016676795
8.6754897e-13
0.019198259
-7.7021416e-07
0.019198259
-1.1857901e-06
0.016676795
-1.134183e-06
0.012687707
-8.1722383e-07
0.0085765622
-4.9124884e-07
0.005240493
-2.6076331e-07
0.0029424009
-1.2518531e-07
0.0015373751
-5.4247472e-08
0.00075205076
-2.0538504e-08
0.00034297572
-6.1697664e-09
0.00014238224
-1.0559028e-09
4.9782696e-05
1.0137466e-05
9.6516112e-10
1.0136501e-05
5.6402171e-09
4.9778021e-05
1.8778366e-08
0.0001423691
4.961139e-08
0.00034294489
1.1454185e-07
0.00075198583
2.3881129e-07
0.0015372509
4.5070453e-07
0.002942189
7.5248357e-07
0.0052401913
1.0515007e-06
0.0085762632
1.1108325e-06
0.012687647
7.2768937e-07
0.016677178
5.0919987e-13
0.019198986
-7.276884e-07
0.019198986
-1.1108315e-06
0.016677178
-1.0514996e-06
0.012687647
-7.5248142e-07
0.0085762632
-4.5070033e-07
0.0052401913
-2.3880488e-07
0.002942189
-1.1453453e-07
0.0015372509
-4.9605255e-08
0.00075198583
-1.8774641e-08
0.00034294489
-5.6386318e-09
0.0001423691
-9.648455e-10
4.9778021e-05
1.0136501e-05
8.858172e-10
1.0135615e-05
5.1772358e-09
4.9773729e-05
1.72399e-08
0.00014235704
4.555895e-08
0.00034291657
1.0523226e-07
0.00075192616
2.1957651e-07
0.0015371365
4.1504237e-07
0.0029419936
6.9508937e-07
0.0052399112
9.7709448e-07
0.0085759812
1.0418677e-06
0.012687582
6.8800524e-07
0.016677532
4.4151708e-14
0.019199674
-6.8800524e-07
0.019199674
-1.0418678e-06
0.016677532
-9.7709432e-07
0.012687582
-6.950876e-07
0.0085759812
-4.1503765e-07
0.0052399112
-2.1956874e-07
0.0029419936
-1.0522324e-07
0.0015371365
-4.5551384e-08
0.00075192616
-1.7235322e-08
0.00034291657
-5.1752979e-09
0.00014235704
-8.8543826e-10
4.9773729e-05
1.0135615e-05
8.1603478e-10
1.0134799e-05
4.7699317e-09
4.9769775e-05
1.5885947e-08
0.00014234592
4.199049e-08
0.00034289047
9.7026643e-08
0.00075187112
2.025933e-07
0.0015370309
3.8344853e-07
0.0029418127
6.4389528e-07
0.0052396508
9.0984243e-07
0.0085757152
9.7823565e-07
0.012687514
6.5086595e-07
0.01667786
-4.3632028e-13
0.019200325
-6.5086699e-07
0.019200325
-9.7823694e-07
0.01667786
-9.0984326e-07
0.012687514
-6.4389388e-07
0.0085757152
-3.8344319e-07
0.0052396508
-2.0258398e-07
0.0029418127
-9.7015705e-08
0.0015370309
-4.1981307e-08
0.00075187112
-1.5880401e-08
0.00034289047
-4.7675918e-09
0.00014234592
-8.1558236e-10
4.9769776e-05
1.0134799e-05
7.5416278e-10
1.0134045e-05
4.4087168e-09
4.9766121e-05
1.4684844e-08
0.00014233564
3.8823399e-08
0.00034286633
8.9738193e-08
0.00075182021
1.874864e-07
0.0015369332
3.5526462e-07
0.0029416449
5.9795743e-07
0.0052394081
8.4878752e-07
0.0085754644
9.1936595e-07
0.012687443
6.1600971e-07
0.016678163
-8.987832e-13
0.019200941
-6.1601176e-07
0.019200941
-9.193684e-07
0.016678163
-8.4878934e-07
0.012687443
-5.9795633e-07
0.0085754644
-3.552585e-07
0.0052394081
-1.874753e-07
0.0029416449
-8.9725061e-08
0.0015369332
-3.8812364e-08
0.00075182021
-1.4678187e-08
0.00034286633
-4.4059131e-09
0.00014233564
-7.5362438e-10
4.9766121e-05
1.0134045e-05
6.9891216e-10
1.0133346e-05
4.0860955e-09
4.9762734e-05
1.3611799e-08
0.00014232612
3.5992845e-08
0.00034284395
8.32198e-08
0.00075177298
1.7395871e-07
0.0015368425
3.2996409e-07
0.0029414889
5.5650602e-07
0.0052391815
7.9311941e-07
0.0085752278
8.6476713e-07
0.012687372
5.8323053e-07
0.016678444
-1.3207729e-12
0.019201524
-5.8323354e-07
0.019201524
-8.6477069e-07
0.016678444
-7.9312217e-07
0.012687372
-5.5650513e-07
0.0085752278
-3.2995701e-07
0.0052391815
-1.7394552e-07
0.0029414889
-8.320413e-08
0.0015368425
-3.5979669e-08
0.00075177298
-1.3603854e-08
0.00034284395
-4.0827527e-09
0.00014232612
-6.9827294e-10
4.9762734e-05
1.0133346e-05
6.4926673e-10
1.0132697e-05
3.7961546e-09
4.9759587e-05
1.2647235e-08
0.00014231727
3.3447562e-08
0.00034282315
7.7354875e-08
0.00075172907
1.6177386e-07
0.001536758
3.0712539e-07
0.0029413436
5.1891787e-07
0.0052389697
7.4217127e-07
0.0085750045
8.1401267e-07
0.0126873
5.5234134e-07
0.016678706
-1.6762758e-12
0.019202077
-5.523452e-07
0.019202077
-8.1401728e-07
0.016678706
-7.4217491e-07
0.0126873
-5.1891706e-07
0.0085750045
-3.071171e-07
0.0052389697
-1.6175822e-07
0.0029413436
-7.7336245e-08
0.001536758
-3.3431891e-08
0.00075172907
-1.2637787e-08
0.00034282315
-3.7921833e-09
0.00014231727
-6.4850976e-10
4.9759587e-05
1.0132697e-05
6.0441251e-10
1.0132092e-05
3.5341554e-09
4.9756657e-05
1.1775451e-08
0.00014230903
3.1146391e-08
0.00034280378
7.2049642e-08
0.00075168817
1.507411e-07
0.0015366793
2.864061e-07
0.0029412079
4.8467981e-07
0.0052387715
6.953791e-07
0.0085747938
7.6674263e-07
0.012687229
5.2320343e-07
0.01667895
-1.9433605e-12
0.0192026
-5.2320798e-07
0.0192026
-7.6674818e-07
0.01667895
-6.9538355e-07
0.012687229
-4.8467895e-07
0.0085747938
-2.8639631e-07
0.0052387715
-1.5072257e-07
0.0029412079
-7.2027548e-08
0.0015366793
-3.1127808e-08
0.00075168817
-1.1764254e-08
0.00034280378
-3.5294528e-09
0.00014230903
-6.035191e-10
4.9756657e-05
1.0132092e-05
5.6369091e-10
1.0131528e-05
3.2962621e-09
4.9753924e-05
1.0983735e-08
0.00014230134
2.9055982e-08
0.0003427857
6.7228029e-08
0.00075165
1.4070538e-07
0.0015366059
2.6752678e-07
0.0029410811
4.5337036e-07
0.0052385856
6.5227399e-07
0.0085745949
7.2263512e-07
0.012687158
4.9567323e-07
0.016679177
-2.1073002e-12
0.019203096
-4.956783e-07
0.019203096
-7.226415e-07
0.016679177
-6.5227917e-07
0.012687158
-4.5336932e-07
0.0085745949
-2.6751519e-07
0.0052385856
-1.4068344e-07
0.0029410811
-6.7201891e-08
0.0015366059
-2.9034012e-08
0.00075165
-1.0970509e-08
0.0003427857
-3.2907137e-09
0.00014230134
-5.6264096e-10
4.9753925e-05
1.0131529e-05
5.2656268e-10
1.0131002e-05
3.0793333e-09
4.9751372e-05
1.026167e-08
0.00014229416
2.7148983e-08
0.00034276882
6.2827557e-08
0.00075161432
1.31539e-07
0.0015365372
2.5025607e-07
0.0029409624
4.2463594e-07
0.0052384112
6.1245176e-07
0.0085744071
6.8142229e-07
0.012687089
4.6965678e-07
0.016679388
-2.1633525e-12
0.019203565
-4.696622e-07
0.019203565
-6.8142943e-07
0.016679388
-6.1245765e-07
0.012687089
-4.246346e-07
0.0085744071
-2.5024234e-07
0.0052384112
-1.315131e-07
0.0029409624
-6.2796729e-08
0.0015365372
-2.71231e-08
0.00075161432
-1.0246106e-08
0.00034276882
-3.0728147e-09
0.00014229416
-5.2533504e-10
4.9751372e-05
1.0131002e-05
4.9258319e-10
1.0130509e-05
2.880778e-09
4.9748983e-05
9.6006603e-09
0.00014228744
2.5402825e-08
0.00034275301
5.879665e-08
0.00075158092
1.2313648e-07
0.0015364728
2.3440252e-07
0.0029408511
3.9818357e-07
0.0052382475
5.755759e-07
0.0085742297
6.4285197e-07
0.012687022
4.4503271e-07
0.016679586
-2.1248978e-12
0.01920401
-4.4503834e-07
0.01920401
-6.4285983e-07
0.016679586
-5.755825e-07
0.012687022
-3.9818183e-07
0.0085742297
-2.3438631e-07
0.0052382475
-1.23106e-07
0.0029408511
-5.8760437e-08
0.0015364728
-2.5372464e-08
0.00075158092
-9.5824317e-09
0.00034275301
-2.8731568e-09
0.00014228744
-4.9115608e-10
4.9748984e-05
1.0130509e-05
4.6138086e-10
1.0130048e-05
2.6984307e-09
4.9746746e-05
8.9935224e-09
0.00014228114
2.3798624e-08
0.00034273821
5.5092088e-08
0.00075154963
1.1540917e-07
0.0015364125
2.1980435e-07
0.0029407467
3.7376186e-07
0.0052380935
5.4134888e-07
0.0085740621
6.0672392e-07
0.012686957
4.2174149e-07
0.016679771
-2.0160412e-12
0.019204432
-4.2174724e-07
0.019204432
-6.0673251e-07
0.016679771
-5.4135625e-07
0.012686957
-3.7375966e-07
0.0085740621
-2.1978532e-07
0.0052380935
-1.1537349e-07
0.0029407467
-5.5049754e-08
0.0015364125
-2.3763188e-08
0.00075154963
-8.9722841e-09
0.00034273821
-2.6895696e-09
0.00014228114
-4.5973214e-10
4.9746747e-05
1.0130048e-05
4.3264325e-10
1.0129615e-05
2.5304695e-09
4.9744648e-05
8.4342104e-09
0.00014227524
2.2320497e-08
0.00034272432
5.1677551e-08
0.00075152027
1.0828263e-07
0.0015363559
2.0632579e-07
0.0029406486
3.5116074e-07
0.0052379487
5.0952254e-07
0.0085739038
5.7283033e-07
0.012686893
3.996685e-07
0.016679944
-1.8686072e-12
0.019204832
-3.9967435e-07
0.019204832
-5.7283973e-07
0.016679944
-5.0953081e-07
0.012686893
-3.5115806e-07
0.0085739038
-2.0630358e-07
0.0052379487
-1.0824108e-07
0.0029406487
-5.1628333e-08
0.0015363559
-2.2279373e-08
0.00075152027
-8.4096092e-09
0.00034272432
-2.5202282e-09
0.00014227524
-4.3075095e-10
4.9744649e-05
1.0129615e-05
4.061051e-10
1.0129209e-05
2.3753491e-09
4.9742679e-05
7.9175943e-09
0.00014226969
2.0954943e-08
0.00034271128
4.8522072e-08
0.0007514927
1.0169314e-07
0.0015363027
1.9384978e-07
0.0029405565
3.301956e-07
0.0052378123
4.7987182e-07
0.0085737541
5.4102455e-07
0.012686832
3.7878594e-07
0.016680107
-1.714245e-12
0.01920521
-3.7879191e-07
0.01920521
-5.4103491e-07
0.016680107
-4.7988115e-07
0.012686832
-3.3019245e-07
0.0085737541
-1.9382406e-07
0.0052378123
-1.0164506e-07
0.0029405565
-4.8465197e-08
0.0015363027
-2.0907509e-08
0.00075149271
-7.8892738e-09
0.00034271129
-2.363587e-09
0.0001422697
-4.0394771e-10
4.974268e-05
1.0129209e-05
3.8153882e-10
1.0128828e-05
2.2317403e-09
4.9740829e-05
7.4392628e-09
0.00014226449
1.969038e-08
0.00034269903
4.5599174e-08
0.00075146679
9.5586382e-08
0.0015362527
1.822769e-07
0.0029404698
3.1071126e-07
0.0052376839
4.5220826e-07
0.0085736126
5.1112335e-07
0.012686773
3.5897253e-07
0.016680259
-1.5765228e-12
0.019205569
-3.5897873e-07
0.019205569
-5.1113486e-07
0.016680259
-4.5221886e-07
0.012686773
-3.1070765e-07
0.0085736126
-1.8224735e-07
0.0052376839
-9.5531111e-08
0.0029404698
-4.5533872e-08
0.0015362527
-1.9636016e-08
0.0007514668
-7.40687e-09
0.00034269903
-2.218319e-09
0.00014226449
-3.7909576e-10
4.974083e-05
1.0128828e-05
3.5875032e-10
1.0128469e-05
2.0985142e-09
4.9739089e-05
6.9954662e-09
0.00014225959
1.8516913e-08
0.00034268751
4.288608e-08
0.00075144243
8.9915281e-08
0.0015362057
1.7152015e-07
0.0029403882
2.9256875e-07
0.0052375628
4.2635905e-07
0.0085734788
4.8302896e-07
0.012686717
3.402362e-07
0.016680402
-1.4681624e-12
0.01920591
-3.4024271e-07
0.01920591
-4.830418e-07
0.016680402
-4.2637113e-07
0.012686717
-2.9256472e-07
0.0085734788
-1.7148644e-07
0.0052375628
-8.9852166e-08
0.0029403882
-4.2811592e-08
0.0015362057
-1.8455016e-08
0.00075144243
-6.9586592e-09
0.00034268751
-2.0833009e-09
0.00014225959
-3.560025e-10
4.973909e-05
1.0128469e-05
3.3756756e-10
1.0128131e-05
1.9746623e-09
4.9737452e-05
6.5828573e-09
0.00014225498
1.7425779e-08
0.00034267667
4.0362828e-08
0.00075141949
8.4638954e-08
0.0015361614
1.6150444e-07
0.0029403113
2.7564968e-07
0.0052374487
4.0217508e-07
0.0085733523
4.5656413e-07
0.012686662
3.2243436e-07
0.016680536
-1.3857292e-12
0.019206232
-3.2244129e-07
0.019206232
-4.5657851e-07
0.016680536
-4.0218885e-07
0.012686662
-2.7564527e-07
0.0085733523
-1.6146628e-07
0.0052374487
-8.4567364e-08
0.0029403113
-4.0278427e-08
0.0015361614
-1.7355772e-08
0.00075141949
-6.5413117e-09
0.00034267667
-1.9575319e-09
0.00014225498
-3.3449774e-10
4.9737453e-05
1.0128132e-05
3.1784768e-10
1.0127813e-05
1.8593591e-09
4.9735911e-05
6.1986912e-09
0.00014225064
1.6409683e-08
0.00034266646
3.8012463e-08
0.00075139788
7.9722055e-08
0.0015361197
1.5216411e-07
0.0029402389
2.5984858e-07
0.005237341
3.7952572e-07
0.0085732326
4.3168418e-07
0.01268661
3.0562161e-07
0.016680662
-1.3062778e-12
0.019206538
-3.0562902e-07
0.019206538
-4.3170026e-07
0.016680662
-3.7954136e-07
0.01268661
-2.598438e-07
0.0085732326
-1.521212e-07
0.005237341
-7.96414e-08
0.0029402389
-3.7917471e-08
0.0015361197
-1.6331036e-08
0.00075139789
-6.1521131e-09
0.00034266646
-1.8402008e-09
0.00014225064
-3.1444203e-10
4.9735911e-05
1.0127814e-05
2.9945365e-10
1.0127514e-05
1.7517927e-09
4.9734458e-05
5.8402747e-09
0.00014224655
1.5461638e-08
0.00034265684
3.5819265e-08
0.00075137753
7.5132654e-08
0.0015360804
1.4344028e-07
0.0029401706
2.450706e-07
0.0052372394
3.582833e-07
0.0085731194
4.0819551e-07
0.01268656
2.896146e-07
0.01668078
-1.2081391e-12
0.019206827
-2.896225e-07
0.019206827
-4.0821338e-07
0.01668078
-3.5830096e-07
0.01268656
-2.4506548e-07
0.0085731194
-1.4339235e-07
0.0052372394
-7.5042392e-08
0.0029401706
-3.5713071e-08
0.0015360804
-1.5373879e-08
0.00075137753
-5.7884063e-09
0.00034265684
-1.7305111e-09
0.00014224655
-2.9570153e-10
4.9734459e-05
1.0127514e-05
2.8228566e-10
1.0127232e-05
1.6513995e-09
4.9733089e-05
5.505728e-09
0.0001422427
1.457653e-08
0.00034264776
3.3770975e-08
0.00075135833
7.0844598e-08
0.0015360433
1.3528418e-07
0.0029401061
2.3123883e-07
0.0052371434
3.3835977e-07
0.0085730123
3.8612268e-07
0.012686512
2.7453477e-07
0.016680892
-1.039343e-12
0.019207102
-2.7454307e-07
0.019207102
-3.8614238e-07
0.016680892
-3.3837954e-07
0.012686512
-2.3123337e-07
0.0085730123
-1.35231e-07
0.0052371434
-7.0744262e-08
0.0029401062
-3.3653058e-08
0.0015360433
-1.4479264e-08
0.00075135834
-5.4483584e-09
0.00034264777
-1.6279188e-09
0.0001422427
-2.7817997e-10
4.973309e-05
1.0127232e-05
2.6622264e-10
1.0126965e-05
1.5574434e-09
4.9731798e-05
5.1926149e-09
0.00014223906
1.3748189e-08
0.00034263921
3.1854185e-08
0.00075134022
6.6831345e-08
0.0015360083
1.2764647e-07
0.0029400453
2.1826937e-07
0.0052370528
3.196272e-07
0.0085729109
3.6522332e-07
0.012686467
2.6012976e-07
0.016680997
-7.7477656e-13
0.019207362
-2.6013833e-07
0.019207362
-3.6524483e-07
0.016680997
-3.1964912e-07
0.012686467
-2.1826355e-07
0.0085729109
-1.2758784e-07
0.0052370528
-6.6720575e-08
0.0029400454
-3.1724158e-08
0.0015360084
-1.3641137e-08
0.00075134023
-5.1296076e-09
0.00034263921
-1.5317214e-09
0.00014223906
-2.6176411e-10
4.9731798e-05
1.0126966e-05
2.5121463e-10
1.0126714e-05
1.4696775e-09
4.9730579e-05
4.9000949e-09
0.00014223563
1.2973998e-08
0.00034263113
3.0061626e-08
0.00075132314
6.3075874e-08
0.0015359753
1.2049541e-07
0.0029399879
2.0611785e-07
0.0052369672
3.0205593e-07
0.008572815
3.4562625e-07
0.012686423
2.4662157e-07
0.016681096
-3.5806022e-13
0.019207609
-2.4663014e-07
0.019207609
-3.4564941e-07
0.016681096
-3.0207997e-07
0.012686423
-2.0611166e-07
0.008572815
-1.2043119e-07
0.0052369672
-6.2954405e-08
0.0029399879
-2.991922e-08
0.0015359754
-1.2856984e-08
0.00075132314
-4.8313713e-09
0.00034263113
-1.4416943e-09
0.00014223563
-2.4640696e-10
4.973058e-05
1.0126714e-05
2.37128e-10
1.0126477e-05
1.3872514e-09
4.9729429e-05
4.6253692e-09
0.0001422324
1.2247196e-08
0.00034262351
2.8379672e-08
0.000751307
5.9552911e-08
0.0015359442
1.1378342e-07
0.0029399337
1.9469393e-07
0.0052368863
2.8548302e-07
0.0085727242
3.2698881e-07
0.012686382
2.3364641e-07
0.016681189
2.1836795e-13
0.019207842
-2.3365468e-07
0.019207842
-3.2701344e-07
0.016681189
-2.8550912e-07
0.012686382
-1.9468735e-07
0.0085727242
-1.1371357e-07
0.0052368863
-5.9420664e-08
0.0029399337
-2.8224838e-08
0.0015359442
-1.2120228e-08
0.00075130701
-4.5509659e-09
0.00034262351
-1.3570377e-09
0.0001422324
-2.3198564e-10
4.972943e-05
1.0126477e-05
2.2400385e-10
1.0126253e-05
1.3105114e-09
4.9728342e-05
4.369528e-09
0.00014222934
1.1569624e-08
0.00034261631
2.6809318e-08
0.00075129176
5.6259327e-08
0.0015359147
1.0750437e-07
0.0029398824
1.8400668e-07
0.0052368098
2.6998245e-07
0.0085726382
3.096121e-07
0.012686342
2.2158261e-07
0.016681277
1.0066704e-12
0.019208064
-2.2159024e-07
0.019208064
-3.0963794e-07
0.016681277
-2.7001048e-07
0.012686342
-1.8399971e-07
0.0085726382
-1.0742893e-07
0.0052368098
-5.6116384e-08
0.0029398825
-2.6642204e-08
0.0015359147
-1.1432884e-08
0.00075129177
-4.2895897e-09
0.00034261631
-1.2781444e-09
0.00014222934
-2.1855082e-10
4.9728343e-05
1.0126253e-05
2.1162316e-10
1.0126041e-05
1.2380094e-09
4.9727316e-05
4.1278542e-09
0.00014222645
1.0930491e-08
0.00034260951
2.5330878e-08
0.00075127736
5.3162496e-08
0.0015358869
1.0159746e-07
0.002939834
1.7392608e-07
0.0052367374
2.55292e-07
0.0085725569
2.929699e-07
0.012686304
2.0989224e-07
0.01668136
2.0023475e-12
0.019208274
-2.0989886e-07
0.019208274
-2.9299669e-07
0.01668136
-2.5532185e-07
0.012686304
-1.7391876e-07
0.0085725568
-1.0151664e-07
0.0052367374
-5.3009222e-08
0.002939834
-2.5151949e-08
0.0015358869
-1.078441e-08
0.00075127737
-4.0426656e-09
0.00034260951
-1.2036208e-09
0.00014222645
-2.0589152e-10
4.9727316e-05
1.0126042e-05
2.0026779e-10
1.0125841e-05
1.171649e-09
4.9726344e-05
3.9064548e-09
0.00014222371
1.0343006e-08
0.00034260307
2.3965724e-08
0.00075126374
5.0291634e-08
0.0015358605
9.6112902e-08
0.0029397882
1.6457533e-07
0.005236669
2.4169593e-07
0.0085724798
2.7766489e-07
0.012686268
1.9920451e-07
0.016681439
3.2224389e-12
0.019208473
-1.9920978e-07
0.019208473
-2.7769242e-07
0.016681439
-2.4172758e-07
0.012686268
-1.6456784e-07
0.0085724797
-9.6027172e-08
0.005236669
-5.0128796e-08
0.0029397882
-2.3775901e-08
0.0015358606
-1.0188401e-08
0.00075126374
-3.8165457e-09
0.00034260307
-1.135482e-09
0.00014222371
-1.9431678e-10
4.9726345e-05
1.0125841e-05
1.8933587e-10
1.0125652e-05
1.107509e-09
4.9725426e-05
3.6927441e-09
0.00014222113
9.7790913e-09
0.00034259698
2.2665163e-08
0.00075125085
4.7573391e-08
0.0015358356
9.0927321e-08
0.0029397448
1.5570131e-07
0.0052366042
2.2870649e-07
0.0085724068
2.6286408e-07
0.012686234
1.8872566e-07
0.016681513
4.6172389e-12
0.019208662
-1.8872916e-07
0.019208662
-2.6289212e-07
0.016681513
-2.2873999e-07
0.012686234
-1.5569404e-07
0.0085724067
-9.0837451e-08
0.0052366042
-4.7402208e-08
0.0029397449
-2.2465917e-08
0.0015358357
-9.6172752e-09
0.00075125085
-3.5989672e-09
0.00034259698
-1.0699554e-09
0.00014222112
-1.832604e-10
4.9725426e-05
1.0125652e-05
1.7996368e-10
1.0125472e-05
1.0528425e-09
4.9724553e-05
3.5097811e-09
0.00014221867
9.2898787e-09
0.0003425912
2.1517109e-08
0.00075123862
4.5137077e-08
0.001535812
8.6246732e-08
0.0029397037
1.4770201e-07
0.0052365428
2.1705587e-07
0.0085723374
2.4971893e-07
0.012686202
1.7950612e-07
0.016681583
6.092313e-12
0.019208841
-1.7950758e-07
0.019208841
-2.4974717e-07
0.016681583
-2.170914e-07
0.012686202
-1.4769584e-07
0.0085723374
-8.615412e-08
0.0052365428
-4.4959492e-08
0.0029397038
-2.1310828e-08
0.001535812
-9.1231235e-09
0.00075123863
-3.4137052e-09
0.0003425912
-1.0146672e-09
0.00014221867
-1.7396795e-10
4.9724553e-05
1.0125472e-05
1.6886233e-10
1.0125303e-05
9.8791261e-10
4.9723734e-05
3.2963268e-09
0.00014221636
8.7402206e-09
0.00034258576
2.0289749e-08
0.00075122707
4.2656432e-08
0.0015357896
8.1634691e-08
0.0029396647
1.3992017e-07
0.0052364845
2.0572154e-07
0.0085722716
2.3677348e-07
0.012686171
1.7032953e-07
0.01668165
7.5367456e-12
0.019209011
-1.7032853e-07
0.019209011
-2.3680106e-07
0.01668165
-2.0575896e-07
0.012686171
-1.3991639e-07
0.0085722716
-8.1541612e-08
0.0052364845
-4.2475196e-08
0.0029396648
-2.0079411e-08
0.0015357897
-8.5711682e-09
0.00075122707
-3.1996829e-09
0.00034258575
-9.4989651e-10
0.00014221636
-1.6310612e-10
4.9723733e-05
1.0125303e-05
1.6407308e-10
1.0125139e-05
9.60013e-10
4.9722938e-05
3.197164e-09
0.00014221412