/*--------------------------------*- C++ -*----------------------------------*\
| =========                 |                                                 |
| \\      /  F ield         | OpenFOAM: The Open Source CFD Toolbox           |
|  \\    /   O peration     | Version:  2406                                  |
|   \\  /    A nd           | Website:  www.openfoam.com                      |
|    \\/     M anipulation  |                                                 |
\*---------------------------------------------------------------------------*/
FoamFile
{
    version     2.0;
    format      ascii;
    arch        "LSB;label=32;scalar=64";
    class       volVectorField;
    location    "33";
    object      U;
}
// * * * * * * * * * * * * * * * * * * * * * * * * * * * * * * * * * * * * * //

dimensions      [0 1 -1 0 0 0 0];

internalField   nonuniform List<vector> 
1176
(
(0.019493789 7.0786422e-07 0)
(0.066677318 8.1696578e-06 0)
(0.13357994 3.950317e-05 0)
(0.22724701 0.00010873577 0)
(0.35591522 0.00021176029 0)
(0.52772023 0.0003039629 0)
(0.74780387 0.00031818028 0)
(1.0136216 0.00024904601 0)
(1.3093323 0.00016667012 0)
(1.6017081 0.00011264701 0)
(1.8421723 7.0214336e-05 0)
(1.9793239 2.3941066e-05 0)
(1.9793239 -2.3940154e-05 0)
(1.8421723 -7.0212599e-05 0)
(1.6017081 -0.00011264291 0)
(1.3093323 -0.00016666096 0)
(1.0136215 -0.00024902916 0)
(0.74780385 -0.00031815569 0)
(0.52772021 -0.00030393475 0)
(0.35591521 -0.00021173659 0)
(0.22724701 -0.00010871887 0)
(0.13357995 -3.9502977e-05 0)
(0.066677325 -8.1576406e-06 0)
(0.019493792 -7.0985117e-07 0)
(0.020187017 -3.7419179e-06 0)
(0.068813532 -2.4638637e-05 0)
(0.13732107 -9.654855e-05 0)
(0.23247391 -0.0002483946 0)
(0.36204617 -0.0004726878 0)
(0.53373556 -0.00067421182 0)
(0.75267407 -0.00069486939 0)
(1.0170176 -0.0004968736 0)
(1.3116385 -0.00023345902 0)
(1.6034438 -4.9824135e-05 0)
(1.8436588 1.9765168e-05 0)
(1.9807026 1.3428183e-05 0)
(1.9807026 -1.34277e-05 0)
(1.8436588 -1.9766215e-05 0)
(1.6034438 4.9819054e-05 0)
(1.3116385 0.00023344678 0)
(1.0170176 0.00049685148 0)
(0.75267406 0.0006948385 0)
(0.53373556 0.00067417969 0)
(0.36204616 0.00047266416 0)
(0.2324739 0.00024838154 0)
(0.13732107 9.6546293e-05 0)
(0.068813538 2.4634902e-05 0)
(0.02018702 3.7424679e-06 0)
(0.020018442 2.0918373e-06 0)
(0.068327405 1.2720774e-05 0)
(0.13655404 4.687726e-05 0)
(0.23159544 0.00011389739 0)
(0.36138709 0.00019769269 0)
(0.53366969 0.00023903238 0)
(0.75344344 0.00020559816 0)
(1.0184881 0.00011361115 0)
(1.3134639 7.431359e-05 0)
(1.6053464 7.9532967e-05 0)
(1.8455118 7.0516929e-05 0)
(1.9825245 2.782676e-05 0)
(1.9825245 -2.7823146e-05 0)
(1.8455118 -7.0512248e-05 0)
(1.6053464 -7.9526649e-05 0)
(1.3134639 -7.4305916e-05 0)
(1.0184882 -0.00011360297 0)
(0.75344346 -0.00020559122 0)
(0.5336697 -0.00023902649 0)
(0.3613871 -0.00019768945 0)
(0.23159545 -0.00011389654 0)
(0.13655405 -4.6876369e-05 0)
(0.068327405 -1.2722128e-05 0)
(0.020018442 -2.0915534e-06 0)
(0.019966547 7.0076637e-07 0)
(0.068159231 4.687041e-06 0)
(0.13624021 1.9355445e-05 0)
(0.2311194 5.6456166e-05 0)
(0.36078093 0.00013444565 0)
(0.53306293 0.00025829316 0)
(0.75295637 0.00035344737 0)
(1.0181104 0.00036911994 0)
(1.313184 0.00030758861 0)
(1.6051633 0.00022777223 0)
(1.8453995 0.00014555923 0)
(1.9824491 4.9996988e-05 0)
(1.9824491 -4.999761e-05 0)
(1.8453995 -0.00014556013 0)
(1.6051633 -0.00022777332 0)
(1.313184 -0.00030758957 0)
(1.0181104 -0.00036912 0)
(0.75295636 -0.00035344501 0)
(0.53306292 -0.00025829 0)
(0.36078092 -0.00013444274 0)
(0.23111939 -5.6454324e-05 0)
(0.1362402 -1.9355009e-05 0)
(0.068159229 -4.6864339e-06 0)
(0.019966546 -7.0084376e-07 0)
(0.019942203 2.9077006e-07 0)
(0.068078703 1.987199e-06 0)
(0.13608628 8.236122e-06 0)
(0.23087699 2.3699324e-05 0)
(0.36044744 5.6881624e-05 0)
(0.53266448 0.00012306884 0)
(0.75256878 0.00022681814 0)
(1.017808 0.00032272215 0)
(1.3129044 0.00034572458 0)
(1.604912 0.00030729979 0)
(1.8452029 0.00021095323 0)
(1.9822898 7.4614783e-05 0)
(1.9822898 -7.461409e-05 0)
(1.8452029 -0.00021095249 0)
(1.604912 -0.00030729895 0)
(1.3129044 -0.00034572404 0)
(1.017808 -0.00032272193 0)
(0.75256877 -0.00022681815 0)
(0.53266448 -0.0001230692 0)
(0.36044744 -5.6881961e-05 0)
(0.23087699 -2.3699524e-05 0)
(0.13608628 -8.236145e-06 0)
(0.068078702 -1.9872609e-06 0)
(0.019942203 -2.9075714e-07 0)
(0.019933132 1.7181577e-07 0)
(0.068047755 1.1940739e-06 0)
(0.13602489 5.0652021e-06 0)
(0.23077535 1.496886e-05 0)
(0.36029899 3.6219541e-05 0)
(0.5324792 7.6944225e-05 0)
(0.75239427 0.00014713767 0)
(1.0177222 0.0002374902 0)
(1.3129292 0.00028525588 0)
(1.6049746 0.00027441486 0)
(1.8452865 0.00019644627 0)
(1.9823834 7.1177189e-05 0)
(1.9823834 -7.1176636e-05 0)
(1.8452865 -0.00019644568 0)
(1.6049746 -0.00027441424 0)
(1.3129292 -0.00028525525 0)
(1.0177222 -0.0002374899 0)
(0.75239427 -0.00014713733 0)
(0.5324792 -7.6944055e-05 0)
(0.36029899 -3.6219557e-05 0)
(0.23077535 -1.4968943e-05 0)
(0.13602488 -5.0653191e-06 0)
(0.068047755 -1.1940696e-06 0)
(0.019933132 -1.7182686e-07 0)
(0.0199234 1.5587618e-07 0)
(0.068015507 1.0700728e-06 0)
(0.13596286 4.4934634e-06 0)
(0.23067607 1.3195452e-05 0)
(0.36015773 3.1857102e-05 0)
(0.53230178 6.6958177e-05 0)
(0.75221429 0.00012411877 0)
(1.0176105 0.00019917036 0)
(1.3129358 0.00025490828 0)
(1.6050904 0.00024595157 0)
(1.8454579 0.00018127889 0)
(1.9825798 6.6548518e-05 0)
(1.9825798 -6.6548509e-05 0)
(1.8454579 -0.00018127894 0)
(1.6050904 -0.00024595183 0)
(1.3129358 -0.00025490871 0)
(1.0176105 -0.00019917072 0)
(0.75221429 -0.00012411903 0)
(0.53230178 -6.6958356e-05 0)
(0.36015773 -3.185725e-05 0)
(0.23067607 -1.3195536e-05 0)
(0.13596286 -4.4936146e-06 0)
(0.068015507 -1.0699837e-06 0)
(0.0199234 -1.5590508e-07 0)
(0.019915697 1.2758648e-07 0)
(0.067989792 8.7801482e-07 0)
(0.13591293 3.6959969e-06 0)
(0.23059503 1.0901588e-05 0)
(0.36003987 2.6613307e-05 0)
(0.53214753 5.7237029e-05 0)
(0.75204133 0.00010911032 0)
(1.0174723 0.00017936606 0)
(1.3128926 0.00023802453 0)
(1.6051414 0.00023746731 0)
(1.8455877 0.00017750659 0)
(1.9827514 6.5539262e-05 0)
(1.9827514 -6.5539592e-05 0)
(1.8455877 -0.000177507 0)
(1.6051414 -0.00023746792 0)
(1.3128926 -0.00023802525 0)
(1.0174723 -0.00017936664 0)
(0.75204133 -0.00010911081 0)
(0.53214753 -5.7237453e-05 0)
(0.36003987 -2.6613636e-05 0)
(0.23059503 -1.0901772e-05 0)
(0.13591293 -3.6961524e-06 0)
(0.067989793 -8.7796655e-07 0)
(0.019915697 -1.2760799e-07 0)
(0.019909217 1.0465805e-07 0)
(0.067968141 7.2313693e-07 0)
(0.13587084 3.0520997e-06 0)
(0.23052654 9.0118181e-06 0)
(0.35993984 2.1999841e-05 0)
(0.53201542 4.7473349e-05 0)
(0.75188901 9.2013901e-05 0)
(1.0173341 0.00015618165 0)
(1.3128278 0.00021699649 0)
(1.6051595 0.000227096 0)
(1.8456699 0.00017232606 0)
(1.982868 6.4147475e-05 0)
(1.982868 -6.4147986e-05 0)
(1.8456699 -0.00017232666 0)
(1.6051595 -0.00022709675 0)
(1.3128278 -0.0002169972 0)
(1.0173341 -0.00015618215 0)
(0.75188901 -9.2014311e-05 0)
(0.53201542 -4.7473705e-05 0)
(0.35993984 -2.2000115e-05 0)
(0.23052654 -9.0119716e-06 0)
(0.13587084 -3.0522257e-06 0)
(0.067968141 -7.231013e-07 0)
(0.019909217 -1.0467495e-07 0)
(0.019903971 8.6126587e-08 0)
(0.067950553 5.9696467e-07 0)
(0.13583649 2.5273751e-06 0)
(0.2304703 7.4916085e-06 0)
(0.35985692 1.8376278e-05 0)
(0.53190436 3.9835633e-05 0)
(0.75175836 7.7712049e-05 0)
(1.0172122 0.00013432419 0)
(1.3127613 0.0001932335 0)
(1.6051772 0.00021058326 0)
(1.8457533 0.00016272951 0)
(1.9829863 6.108405e-05 0)
(1.9829863 -6.1084518e-05 0)
(1.8457533 -0.00016273007 0)
(1.6051772 -0.00021058392 0)
(1.3127613 -0.00019323405 0)
(1.0172122 -0.00013432456 0)
(0.75175836 -7.771236e-05 0)
(0.53190436 -3.9835897e-05 0)
(0.35985692 -1.8376472e-05 0)
(0.2304703 -7.4917119e-06 0)
(0.13583649 -2.5274617e-06 0)
(0.067950553 -5.9693423e-07 0)
(0.019903971 -8.6139165e-08 0)
(0.019899543 7.3356635e-08 0)
(0.067935688 5.0896388e-07 0)
(0.13580742 2.156887e-06 0)
(0.23042259 6.4027632e-06 0)
(0.35978626 1.5747583e-05 0)
(0.5318089 3.4277797e-05 0)
(0.75164409 6.7204545e-05 0)
(1.0171021 0.00011722985 0)
(1.3126976 0.00017262453 0)
(1.6051928 0.00019308892 0)
(1.8458371 0.00015219854 0)
(1.9831061 5.7544667e-05 0)
(1.9831061 -5.7544975e-05 0)
(1.8458371 -0.00015219892 0)
(1.6051928 -0.00019308934 0)
(1.3126976 -0.00017262482 0)
(1.0171021 -0.00011723004 0)
(0.75164409 -6.7204719e-05 0)
(0.5318089 -3.4277951e-05 0)
(0.35978626 -1.5747695e-05 0)
(0.23042259 -6.4028182e-06 0)
(0.13580742 -2.1569282e-06 0)
(0.067935688 -5.0894602e-07 0)
(0.019899543 -7.3362971e-08 0)
(0.019895721 6.3727247e-08 0)
(0.06792285 4.4252226e-07 0)
(0.13578228 1.8767385e-06 0)
(0.23038125 5.576531e-06 0)
(0.35972483 1.3738685e-05 0)
(0.53172535 2.9998001e-05 0)
(0.75154264 5.9111541e-05 0)
(1.0170011 0.00010388816 0)
(1.3126344 0.00015540277 0)
(1.6052015 0.00017849525 0)
(1.8459125 0.00014271553 0)
(1.9832185 5.4330582e-05 0)
(1.9832185 -5.4330695e-05 0)
(1.8459125 -0.00014271569 0)
(1.6052015 -0.0001784954 0)
(1.3126344 -0.00015540282 0)
(1.0170011 -0.00010388817 0)
(0.75154264 -5.9111567e-05 0)
(0.53172535 -2.9998034e-05 0)
(0.35972483 -1.3738702e-05 0)
(0.23038125 -5.57653e-06 0)
(0.13578228 -1.8767285e-06 0)
(0.06792285 -4.425181e-07 0)
(0.019895721 -6.3726699e-08 0)
(0.019892371 5.6090411e-08 0)
(0.067911586 3.8977799e-07 0)
(0.13576021 1.6541274e-06 0)
(0.2303449 4.918772e-06 0)
(0.35967069 1.2132023e-05 0)
(0.53165136 2.654245e-05 0)
(0.7514519 5.2498786e-05 0)
(1.0169086 9.2875705e-05 0)
(1.3125728 0.00014061492 0)
(1.605205 0.00016529624 0)
(1.8459798 0.00013398936 0)
(1.9833221 5.1387507e-05 0)
(1.9833221 -5.1387445e-05 0)
(1.8459798 -0.00013398934 0)
(1.605205 -0.00016529617 0)
(1.3125728 -0.0001406148 0)
(1.0169086 -9.2875582e-05 0)
(0.7514519 -5.2498688e-05 0)
(0.53165136 -2.654237e-05 0)
(0.35967069 -1.2131945e-05 0)
(0.2303449 -4.9187121e-06 0)
(0.13576021 -1.6540615e-06 0)
(0.067911586 -3.8978881e-07 0)
(0.019892371 -5.6082372e-08 0)
(0.019889403 4.984955e-08 0)
(0.067901607 3.4661688e-07 0)
(0.13574064 1.4717686e-06 0)
(0.23031264 4.3793995e-06 0)
(0.35962253 1.0812328e-05 0)
(0.53158531 2.3691433e-05 0)
(0.75137029 4.6984172e-05 0)
(1.016824 8.354635e-05 0)
(1.3125139 0.00012773754 0)
(1.6052051 0.0001529336 0)
(1.8460415 0.00012582052 0)
(1.9834196 4.8616622e-05 0)
(1.9834196 -4.8616438e-05 0)
(1.8460415 -0.00012582036 0)
(1.6052051 -0.00015293339 0)
(1.3125139 -0.00012773731 0)
(1.016824 -8.3546134e-05 0)
(0.75137029 -4.6983976e-05 0)
(0.53158531 -2.369125e-05 0)
(0.35962253 -1.0812154e-05 0)
(0.23031264 -4.3792787e-06 0)
(0.13574064 -1.4716415e-06 0)
(0.067901607 -3.4664515e-07 0)
(0.019889403 -4.9833133e-08 0)
(0.019886752 4.4699657e-08 0)
(0.067892685 3.1094274e-07 0)
(0.13572313 1.3208239e-06 0)
(0.23028375 3.9322179e-06 0)
(0.35957935 9.7159037e-06 0)
(0.53152592 2.131563e-05 0)
(0.75129648 4.2360317e-05 0)
(1.0167465 7.5619978e-05 0)
(1.3124581 0.00011654247 0)
(1.6052027 0.00014169889 0)
(1.8460982 0.00011827119 0)
(1.9835117 4.6031713e-05 0)
(1.9835117 -4.6031477e-05 0)
(1.8460982 -0.00011827097 0)
(1.6052027 -0.00014169863 0)
(1.3124581 -0.0001165422 0)
(1.0167465 -7.5619708e-05 0)
(0.75129648 -4.2360042e-05 0)
(0.53152592 -2.1315348e-05 0)
(0.35957935 -9.7156312e-06 0)
(0.23028375 -3.9320318e-06 0)
(0.13572313 -1.3206296e-06 0)
(0.067892685 -3.1099075e-07 0)
(0.019886752 -4.467389e-08 0)
(0.019884362 4.0387324e-08 0)
(0.067884644 2.8103812e-07 0)
(0.13570735 1.1941626e-06 0)
(0.23025769 3.5564993e-06 0)
(0.35954035 8.7929208e-06 0)
(0.53147216 1.9310079e-05 0)
(0.75122934 3.8440238e-05 0)
(1.0166753 6.8839054e-05 0)
(1.3124053 0.00010678368 0)
(1.6051983 0.00013155247 0)
(1.8461504 0.00011132819 0)
(1.9835985 4.3631289e-05 0)
(1.9835985 -4.3631062e-05 0)
(1.8461504 -0.00011132797 0)
(1.6051983 -0.00013155222 0)
(1.3124053 -0.00010678342 0)
(1.0166753 -6.8838756e-05 0)
(0.75122934 -3.8439891e-05 0)
(0.53147216 -1.9309693e-05 0)
(0.35954035 -8.7925411e-06 0)
(0.23025769 -3.5562419e-06 0)
(0.13570735 -1.1938942e-06 0)
(0.067884644 -2.8110793e-07 0)
(0.019884362 -4.0351201e-08 0)
(0.019882195 3.6712351e-08 0)
(0.067877348 2.5553723e-07 0)
(0.13569303 1.0860855e-06 0)
(0.23023403 3.2356412e-06 0)
(0.3595049 8.0036081e-06 0)
(0.5314232 1.7590976e-05 0)
(0.75116796 3.50673e-05 0)
(1.0166096 6.2964252e-05 0)
(1.3123553 9.8203354e-05 0)
(1.6051923 0.00012233378 0)
(1.8461982 0.00010491331 0)
(1.9836803 4.1390566e-05 0)
(1.9836803 -4.1390392e-05 0)
(1.8461982 -0.00010491313 0)
(1.6051923 -0.00012233359 0)
(1.3123553 -9.8203126e-05 0)
(1.0166096 -6.296394e-05 0)
(0.75116797 -3.5066882e-05 0)
(0.5314232 -1.7590479e-05 0)
(0.3595049 -8.0031099e-06 0)
(0.23023403 -3.2353047e-06 0)
(0.13569303 -1.0857354e-06 0)
(0.067877349 -2.5563073e-07 0)
(0.019882195 -3.6664849e-08 0)
(0.019880219 3.3539607e-08 0)
(0.067870695 2.3350943e-07 0)
(0.13567996 9.9267923e-07 0)
(0.23021243 2.9581627e-06 0)
(0.35947252 7.3203152e-06 0)
(0.53137842 1.6100172e-05 0)
(0.75111164 3.2133061e-05 0)
(1.0165488 5.7823475e-05 0)
(1.3123082 9.0602585e-05 0)
(1.6051852 0.00011395355 0)
(1.8462423 9.8956079e-05 0)
(1.9837576 3.928901e-05 0)
(1.9837576 -3.9288916e-05 0)
(1.8462423 -9.895598e-05 0)
(1.6051852 -0.00011395343 0)
(1.3123082 -9.0602409e-05 0)
(1.0165488 -5.7823156e-05 0)
(0.75111164 -3.2132566e-05 0)
(0.53137842 -1.609955e-05 0)
(0.35947252 -7.3196852e-06 0)
(0.23021243 -2.9577383e-06 0)
(0.13567996 -9.9223912e-07 0)
(0.067870695 -2.3362859e-07 0)
(0.019880219 -3.347961e-08 0)
(0.019878409 3.0775013e-08 0)
(0.0678646 2.1430545e-07 0)
(0.13566798 9.1120736e-07 0)
(0.23019263 2.7159957e-06 0)
(0.35944282 6.7234422e-06 0)
(0.53133728 1.4796036e-05 0)
(0.75105976 2.9559719e-05 0)
(1.0164925 5.3292585e-05 0)
(1.3122638 8.3831648e-05 0)
(1.6051772 0.00010632413 0)
(1.846283 9.3403294e-05 0)
(1.9838307 3.7312425e-05 0)
(1.9838307 -3.7312425e-05 0)
(1.846283 -9.340329e-05 0)
(1.6051772 -0.00010632411 0)
(1.3122638 -8.3831533e-05 0)
(1.0164925 -5.3292258e-05 0)
(0.75105977 -2.9559137e-05 0)
(0.53133728 -1.4795275e-05 0)
(0.35944282 -6.7226648e-06 0)
(0.23019263 -2.7154728e-06 0)
(0.13566798 -9.1066676e-07 0)
(0.0678646 -2.1445269e-07 0)
(0.019878409 -3.0701171e-08 0)
(0.019876745 2.8344801e-08 0)
(0.067858993 1.9741709e-07 0)
(0.13565697 8.3953114e-07 0)
(0.23017441 2.5028402e-06 0)
(0.35941547 6.1976668e-06 0)
(0.53129936 1.3645815e-05 0)
(0.75101183 2.7285326e-05 0)
(1.0164401 4.9271744e-05 0)
(1.3122219 7.7767739e-05 0)
(1.6051688 9.9356164e-05 0)
(1.8463207 8.8213567e-05 0)
(1.9838998 3.5449444e-05 0)
(1.9838998 -3.544954e-05 0)
(1.8463207 -8.8213667e-05 0)
(1.6051688 -9.9356247e-05 0)
(1.3122219 -7.7767685e-05 0)
(1.0164401 -4.9271403e-05 0)
(0.75101183 -2.7284644e-05 0)
(0.53129936 -1.3644896e-05 0)
(0.35941547 -6.1967227e-06 0)
(0.23017441 -2.5022057e-06 0)
(0.13565697 -8.3887682e-07 0)
(0.067858993 -1.9759575e-07 0)
(0.019876745 -2.8255359e-08 0)
(0.019875208 2.6190949e-08 0)
(0.067853818 1.8244413e-07 0)
(0.1356468 7.7596409e-07 0)
(0.23015758 2.3137247e-06 0)
(0.3593902 5.7308895e-06 0)
(0.5312643 1.2623579e-05 0)
(0.75096742 2.5260354e-05 0)
(1.0163914 4.5679544e-05 0)
(1.3121824 7.230807e-05 0)
(1.6051599 9.2973389e-05 0)
(1.8463555 8.3350294e-05 0)
(1.9839652 3.3689415e-05 0)
(1.9839652 -3.3689607e-05 0)
(1.8463555 -8.3350499e-05 0)
(1.6051599 -9.2973572e-05 0)
(1.3121824 -7.2308074e-05 0)
(1.0163914 -4.5679178e-05 0)
(0.75096742 -2.5259554e-05 0)
(0.5312643 -1.2622479e-05 0)
(0.3593902 -5.729755e-06 0)
(0.23015758 -2.3129625e-06 0)
(0.1356468 -7.7517913e-07 0)
(0.067853818 -1.8265871e-07 0)
(0.019875209 -2.6083622e-08 0)
(0.019873786 2.4268261e-08 0)
(0.067849027 1.6907425e-07 0)
(0.13563738 7.1918759e-07 0)
(0.230142 2.1447543e-06 0)
(0.35936679 5.3136076e-06 0)
(0.53123178 1.1708905e-05 0)
(0.75092616 2.3445579e-05 0)
(1.016346 4.2450534e-05 0)
(1.3121452 6.7367611e-05 0)
(1.6051509 8.7107532e-05 0)
(1.8463878 7.878514e-05 0)
(1.9840271 3.2023763e-05 0)
(1.9840271 -3.2024044e-05 0)
(1.8463878 -7.8785443e-05 0)
(1.6051509 -8.710781e-05 0)
(1.3121452 -6.7367666e-05 0)
(1.016346 -4.2450128e-05 0)
(0.75092616 -2.3444638e-05 0)
(0.53123178 -1.1707594e-05 0)
(0.35936679 -5.3122532e-06 0)
(0.230142 -2.1438443e-06 0)
(0.13563738 -7.182509e-07 0)
(0.067849027 -1.6933059e-07 0)
(0.019873787 -2.4140161e-08 0)
(0.019872467 2.2541159e-08 0)
(0.067844581 1.5706129e-07 0)
(0.13562864 6.6816133e-07 0)
(0.23012754 1.9928519e-06 0)
(0.35934505 4.9382989e-06 0)
(0.53120156 1.0885585e-05 0)
(0.75088776 2.1809781e-05 0)
(1.0163035 3.9532195e-05 0)
(1.31211 6.2876496e-05 0)
(1.6051418 8.1702091e-05 0)
(1.8464178 7.4491873e-05 0)
(1.9840857 3.0444346e-05 0)
(1.9840857 -3.0444704e-05 0)
(1.8464178 -7.4492266e-05 0)
(1.6051418 -8.1702457e-05 0)
(1.31211 -6.2876591e-05 0)
(1.0163035 -3.9531731e-05 0)
(0.75088776 -2.1808669e-05 0)
(0.53120156 -1.0884028e-05 0)
(0.35934505 -4.9366883e-06 0)
(0.23012754 -1.9917698e-06 0)
(0.13562864 -6.6704748e-07 0)
(0.067844581 -1.5736661e-07 0)
(0.019872467 -2.2388767e-08 0)
(0.01987124 2.0981167e-08 0)
(0.067840446 1.4620813e-07 0)
(0.13562051 6.2205169e-07 0)
(0.23011408 1.8555495e-06 0)
(0.35932481 4.5989194e-06 0)
(0.53117342 1.0140558e-05 0)
(0.75085195 2.0327703e-05 0)
(1.0162638 3.6881834e-05 0)
(1.3120768 5.8777013e-05 0)
(1.6051327 7.6706792e-05 0)
(1.8464458 7.0451377e-05 0)
(1.9841412 2.8945122e-05 0)
(1.9841412 -2.8945541e-05 0)
(1.8464458 -7.0451848e-05 0)
(1.6051327 -7.6707236e-05 0)
(1.3120768 -5.8777136e-05 0)
(1.0162638 -3.688129e-05 0)
(0.75085195 -2.0326388e-05 0)
(0.53117342 -1.0138712e-05 0)
(0.35932481 -4.5970097e-06 0)
(0.23011408 -1.8542669e-06 0)
(0.13562051 -6.2073108e-07 0)
(0.067840446 -1.4657096e-07 0)
(0.01987124 -2.0800364e-08 0)
(0.019870096 1.9565264e-08 0)
(0.067836592 1.3635526e-07 0)
(0.13561293 5.8018382e-07 0)
(0.23010153 1.7308482e-06 0)
(0.35930594 4.2905703e-06 0)
(0.53114716 9.4632242e-06 0)
(0.75081849 1.8978787e-05 0)
(1.0162266 3.4464456e-05 0)
(1.3120455 5.5021027e-05 0)
(1.6051237 7.2080846e-05 0)
(1.8464718 6.6642882e-05 0)
(1.9841938 2.7519659e-05 0)
(1.9841938 -2.7520121e-05 0)
(1.8464718 -6.6643414e-05 0)
(1.6051237 -7.2081357e-05 0)
(1.3120455 -5.5021167e-05 0)
(1.0162266 -3.4463811e-05 0)
(0.75081849 -1.8977232e-05 0)
(0.53114716 -9.4610412e-06 0)
(0.35930594 -4.2883123e-06 0)
(0.23010153 -1.7293326e-06 0)
(0.13561293 -5.7862311e-07 0)
(0.067836592 -1.367853e-07 0)
(0.019870096 -1.9351387e-08 0)
(0.019869029 1.8274611e-08 0)
(0.067832994 1.2737211e-07 0)
(0.13560586 5.4200507e-07 0)
(0.23008981 1.6171097e-06 0)
(0.35928831 4.0092316e-06 0)
(0.53112262 8.8448672e-06 0)
(0.75078719 1.7746083e-05 0)
(1.0161917 3.225112e-05 0)
(1.3120159 5.1568337e-05 0)
(1.6051149 6.7786409e-05 0)
(1.846496 6.3053162e-05 0)
(1.9842436 2.6163925e-05 0)
(1.9842436 -2.6164412e-05 0)
(1.846496 -6.3053744e-05 0)
(1.6051149 -6.7786982e-05 0)
(1.3120159 -5.1568484e-05 0)
(1.0161917 -3.2250349e-05 0)
(0.75078719 -1.7744245e-05 0)
(0.53112262 -8.8422926e-06 0)
(0.35928831 -4.0065708e-06 0)
(0.23008981 -1.6153254e-06 0)
(0.13560586 -5.4016777e-07 0)
(0.067832995 -1.2788003e-07 0)
(0.019869029 -1.8022538e-08 0)
(0.019868031 1.7093681e-08 0)
(0.067829631 1.1915099e-07 0)
(0.13559924 5.0705951e-07 0)
(0.23007886 1.5129822e-06 0)
(0.35927183 3.7515862e-06 0)
(0.53109965 8.2782934e-06 0)
(0.75075787 1.6615578e-05 0)
(1.0161589 3.0217734e-05 0)
(1.311988 4.838491e-05 0)
(1.6051063 6.3793867e-05 0)
(1.8465187 5.9664021e-05 0)
(1.9842909 2.4872559e-05 0)
(1.9842909 -2.4873055e-05 0)
(1.8465187 -5.9664642e-05 0)
(1.6051063 -6.3794497e-05 0)
(1.311988 -4.8385058e-05 0)
(1.0161589 -3.0216817e-05 0)
(0.75075788 -1.6613414e-05 0)
(0.53109966 -8.2752683e-06 0)
(0.35927183 -3.7484635e-06 0)
(0.23007886 -1.5108909e-06 0)
(0.13559924 -5.0490665e-07 0)
(0.067829631 -1.1974827e-07 0)
(0.019868031 -1.6797922e-08 0)
(0.019867097 1.6009496e-08 0)
(0.067826482 1.1160197e-07 0)
(0.13559305 4.7496624e-07 0)
(0.2300686 1.4173356e-06 0)
(0.35925639 3.5148557e-06 0)
(0.53107814 7.7574619e-06 0)
(0.75073038 1.5575479e-05 0)
(1.0161281 2.8344041e-05 0)
(1.3119617 4.5442089e-05 0)
(1.6050979 6.0073702e-05 0)
(1.8465398 5.6467011e-05 0)
(1.9843356 2.3643241e-05 0)
(1.9843356 -2.3643736e-05 0)
(1.8465398 -5.6467665e-05 0)
(1.6050979 -6.0074391e-05 0)
(1.3119617 -4.5442237e-05 0)
(1.0161281 -2.8342958e-05 0)
(0.75073038 -1.5572945e-05 0)
(0.53107814 -7.7539243e-06 0)
(0.35925639 -3.5112089e-06 0)
(0.2300686 -1.4148968e-06 0)
(0.13559305 -4.7245704e-07 0)
(0.067826482 -1.1230062e-07 0)
(0.019867097 -1.5664296e-08 0)
(0.019866221 1.5011143e-08 0)
(0.06782353 1.0464938e-07 0)
(0.13558724 4.4540454e-07 0)
(0.23005898 1.3292189e-06 0)
(0.35924191 3.2967055e-06 0)
(0.53105795 7.2773041e-06 0)
(0.75070457 1.461588e-05 0)
(1.0160992 2.6612851e-05 0)
(1.3119367 4.2715033e-05 0)
(1.6050897 5.660424e-05 0)
(1.8465596 5.344455e-05 0)
(1.984378 2.2470989e-05 0)
(1.984378 -2.2471478e-05 0)
(1.8465596 -5.344524e-05 0)
(1.6050897 -5.6604997e-05 0)
(1.3119367 -4.2715182e-05 0)
(1.0160992 -2.6611584e-05 0)
(0.75070457 -1.461293e-05 0)
(0.53105796 -7.27319e-06 0)
(0.35924191 -3.2924704e-06 0)
(0.23005898 -1.326391e-06 0)
(0.13558724 -4.424972e-07 0)
(0.067823531 -1.0546178e-07 0)
(0.019866221 -1.4610575e-08 0)
(0.019865399 1.4089352e-08 0)
(0.067820761 9.8229104e-08 0)
(0.1355818 4.1810259e-07 0)
(0.23004995 1.2478246e-06 0)
(0.35922832 3.0951468e-06 0)
(0.531039 6.8334831e-06 0)
(0.75068032 1.3728287e-05 0)
(1.0160719 2.5009531e-05 0)
(1.3119132 4.0182847e-05 0)
(1.6050818 5.336155e-05 0)
(1.8465781 5.0592823e-05 0)
(1.9844182 2.1355046e-05 0)
(1.9844182 -2.1355532e-05 0)
(1.8465781 -5.0593554e-05 0)
(1.6050818 -5.3362385e-05 0)
(1.3119132 -4.0183002e-05 0)
(1.0160719 -2.5008063e-05 0)
(0.75068032 -1.3724876e-05 0)
(0.53103901 -6.8287275e-06 0)
(0.35922832 -3.0902581e-06 0)
(0.23004995 -1.2445657e-06 0)
(0.1355818 -4.1475501e-07 0)
(0.067820762 -9.9167756e-08 0)
(0.0198654 -1.3627424e-08 0)
(0.019864628 1.3236169e-08 0)
(0.067818161 9.2285963e-08 0)
(0.13557668 3.9282629e-07 0)
(0.23004148 1.1724591e-06 0)
(0.35921555 2.9084783e-06 0)
(0.5310212 6.4223068e-06 0)
(0.75065752 1.2905462e-05 0)
(1.0160463 2.3521379e-05 0)
(1.3118909 3.7826711e-05 0)
(1.6050743 5.0329804e-05 0)
(1.8465955 4.7893086e-05 0)
(1.9844563 2.02901e-05 0)
(1.9844563 -2.0290588e-05 0)
(1.8465955 -4.7893871e-05 0)
(1.6050743 -5.0330734e-05 0)
(1.3118909 -3.7826883e-05 0)
(1.0160463 -2.3519695e-05 0)
(0.75065752 -1.2901545e-05 0)
(0.5310212 -6.4168446e-06 0)
(0.35921555 -2.902871e-06 0)
(0.23004148 -1.1687273e-06 0)
(0.13557668 -3.8899683e-07 0)
(0.067818161 -9.3363259e-08 0)
(0.019864628 -1.2706933e-08 0)
(0.019863903 1.2444807e-08 0)
(0.067815716 8.6773187e-08 0)
(0.13557187 3.6937724e-07 0)
(0.23003351 1.1025318e-06 0)
(0.35920355 2.7352393e-06 0)
(0.53100445 6.0405741e-06 0)
(0.75063606 1.2141119e-05 0)
(1.0160221 2.2137588e-05 0)
(1.3118699 3.5631245e-05 0)
(1.6050669 4.7488962e-05 0)
(1.8466118 4.5346856e-05 0)
(1.9844924 1.9277104e-05 0)
(1.9844924 -1.9277604e-05 0)
(1.8466118 -4.5347708e-05 0)
(1.6050669 -4.7490004e-05 0)
(1.3118699 -3.5631441e-05 0)
(1.0160221 -2.2135674e-05 0)
(0.75063606 -1.2136651e-05 0)
(0.53100445 -6.0343416e-06 0)
(0.35920355 -2.7288496e-06 0)
(0.23003351 -1.0982865e-06 0)
(0.13557187 -3.6502558e-07 0)
(0.067815717 -8.8001209e-08 0)
(0.019863903 -1.1842466e-08 0)
(0.019863221 1.1709251e-08 0)
(0.067813416 8.1648898e-08 0)
(0.13556735 3.4757746e-07 0)
(0.23002601 1.0375165e-06 0)
(0.35919225 2.5741457e-06 0)
(0.53098868 5.6855098e-06 0)
(0.75061585 1.1429801e-05 0)
(1.0159993 2.0848414e-05 0)
(1.31185 3.3581495e-05 0)
(1.6050599 4.4827499e-05 0)
(1.8466272 4.2932225e-05 0)
(1.9845266 1.830963e-05 0)
(1.9845266 -1.831015e-05 0)
(1.8466271 -4.2933158e-05 0)
(1.6050599 -4.482867e-05 0)
(1.31185 -3.3581723e-05 0)
(1.0159993 -2.0846255e-05 0)
(0.75061585 -1.142474e-05 0)
(0.53098869 -5.6784455e-06 0)
(0.35919226 -2.5669126e-06 0)
(0.23002601 -1.0327191e-06 0)
(0.13556735 -3.4266545e-07 0)
(0.067813417 -8.3039088e-08 0)
(0.019863221 -1.1028295e-08 0)
(0.019862579 1.1024509e-08 0)
(0.067811252 7.6878974e-08 0)
(0.13556309 3.2728234e-07 0)
(0.23001895 9.7698041e-07 0)
(0.35918162 2.4241143e-06 0)
(0.53097384 5.3547142e-06 0)
(0.75059681 1.0766781e-05 0)
(1.0159778 1.9645843e-05 0)
(1.3118312 3.1666386e-05 0)
(1.6050532 4.2328438e-05 0)
(1.8466415 4.0657616e-05 0)
(1.984559 1.7390861e-05 0)
(1.984559 -1.7391407e-05 0)
(1.8466415 -4.065864e-05 0)
(1.6050532 -4.232975e-05 0)
(1.3118312 -3.1666656e-05 0)
(1.0159778 -1.9643428e-05 0)
(0.75059682 -1.0761088e-05 0)
(0.53097384 -5.3467608e-06 0)
(0.35918162 -2.4159816e-06 0)
(0.23001895 -9.715955e-07 0)
(0.13556309 -3.2177527e-07 0)
(0.067811253 -7.8442086e-08 0)
(0.019862579 -1.0259844e-08 0)
(0.019861974 1.0385788e-08 0)
(0.067809213 7.2429629e-08 0)
(0.13555907 3.0834792e-07 0)
(0.2300123 9.205011e-07 0)
(0.3591716 2.2841297e-06 0)
(0.53095985 5.0460214e-06 0)
(0.75057886 1.0147794e-05 0)
(1.0159575 1.8522009e-05 0)
(1.3118134 2.9873112e-05 0)
(1.6050467 3.9983015e-05 0)
(1.8466551 3.8495319e-05 0)
(1.9845898 1.6512237e-05 0)
(1.9845898 -1.651281e-05 0)
(1.8466551 -3.8496438e-05 0)
(1.6050467 -3.9984477e-05 0)
(1.3118134 -2.9873427e-05 0)
(1.0159575 -1.8519325e-05 0)
(0.75057887 -1.0141431e-05 0)
(0.53095985 -5.0371267e-06 0)
(0.3591716 -2.2750467e-06 0)
(0.2300123 -9.1449737e-07 0)
(0.13555908 -3.0221566e-07 0)
(0.067809214 -7.4174946e-08 0)
(0.019861975 -9.5329744e-09 0)
(0.019861404 9.789611e-09 0)
(0.067807291 6.8277725e-08 0)
(0.13555529 2.9067657e-07 0)
(0.23000603 8.6778014e-07 0)
(0.35916216 2.1534182e-06 0)
(0.53094666 4.7576618e-06 0)
(0.75056193 9.5693325e-06 0)
(1.0159384 1.7471226e-05 0)
(1.3117965 2.8194627e-05 0)
(1.6050405 3.777755e-05 0)
(1.8466678 3.6463376e-05 0)
(1.9846188 1.5680186e-05 0)
(1.9846188 -1.5680777e-05 0)
(1.8466677 -3.6464586e-05 0)
(1.6050405 -3.7779165e-05 0)
(1.3117965 -2.8194988e-05 0)
(1.0159384 -1.7468261e-05 0)
(0.75056194 -9.5622688e-06 0)
(0.53094666 -4.747781e-06 0)
(0.35916216 -2.1433421e-06 0)
(0.23000603 -8.611316e-07 0)
(0.13555529 -2.8389471e-07 0)
(0.067807292 -7.021281e-08 0)
(0.019861405 -8.8450105e-09 0)
(0.019860867 9.2317358e-09 0)
(0.067805479 6.4392449e-08 0)
(0.13555173 2.7413631e-07 0)
(0.23000012 8.1843805e-07 0)
(0.35915325 2.0311015e-06 0)
(0.53093421 4.487832e-06 0)
(0.75054596 9.027853e-06 0)
(1.0159203 1.6486556e-05 0)
(1.3117806 2.6618463e-05 0)
(1.6050346 3.570381e-05 0)
(1.8466798 3.4524527e-05 0)
(1.9846465 1.4882555e-05 0)
(1.9846465 -1.488315e-05 0)
(1.8466798 -3.4525818e-05 0)
(1.6050346 -3.5705573e-05 0)
(1.3117806 -2.661887e-05 0)
(1.0159203 -1.6483301e-05 0)
(0.75054596 -9.0200643e-06 0)
(0.53093422 -4.4769317e-06 0)
(0.35915325 -2.0200017e-06 0)
(0.23000012 -8.1112725e-07 0)
(0.13555173 -2.6668832e-07 0)
(0.06780548 -6.6523623e-08 0)
(0.019860867 -8.1926409e-09 0)
(0.01986036 8.7104492e-09 0)
(0.06780377 6.0764125e-08 0)
(0.13554837 2.586874e-07 0)
(0.22999455 7.7233623e-07 0)
(0.35914485 1.9167469e-06 0)
(0.53092248 4.2353989e-06 0)
(0.75053089 8.5210526e-06 0)
(1.0159032 1.5564813e-05 0)
(1.3117655 2.5142529e-05 0)
(1.605029 3.3753442e-05 0)
(1.846691 3.2710801e-05 0)
(1.9846726 1.4130762e-05 0)
(1.9846726 -1.4131338e-05 0)
(1.846691 -3.2712153e-05 0)
(1.605029 -3.3755343e-05 0)
(1.3117655 -2.5142977e-05 0)
(1.0159032 -1.5561261e-05 0)
(0.75053089 -8.5125214e-06 0)
(0.53092249 -4.2234547e-06 0)
(0.35914485 -1.9046025e-06 0)
(0.22999455 -7.6435199e-07 0)
(0.13554837 -2.5056542e-07 0)
(0.067803771 -6.3093887e-08 0)
(0.019860361 -7.5756127e-09 0)
(0.019859881 8.221037e-09 0)
(0.067802156 5.7356691e-08 0)
(0.13554519 2.4417431e-07 0)
(0.22998928 7.2904392e-07 0)
(0.35913691 1.8094313e-06 0)
(0.53091139 3.998624e-06 0)
(0.75051664 8.0455805e-06 0)
(1.0158871 1.4698795e-05 0)
(1.3117512 2.3752087e-05 0)
(1.6050236 3.1914728e-05 0)
(1.8467017 3.0969934e-05 0)
(1.9846975 1.3406853e-05 0)
(1.9846975 -1.3407382e-05 0)
(1.8467017 -3.097132e-05 0)
(1.6050236 -3.1916749e-05 0)
(1.3117512 -2.375257e-05 0)
(1.0158871 -1.4694944e-05 0)
(0.75051665 -8.0363027e-06 0)
(0.5309114 -3.9856306e-06 0)
(0.35913691 -1.7962408e-06 0)
(0.22998928 -7.2038855e-07 0)
(0.13554519 -2.3538207e-07 0)
(0.067802157 -5.9885975e-08 0)
(0.019859882 -6.9905244e-09 0)
(0.01985943 7.7650483e-09 0)
(0.067800634 5.4186053e-08 0)
(0.13554219 2.3066718e-07 0)
(0.22998431 6.8871699e-07 0)
(0.35912943 1.709311e-06 0)
(0.53090093 3.7773785e-06 0)
(0.7505032 7.600936e-06 0)
(1.0158719 1.3889197e-05 0)
(1.3117377 2.2453195e-05 0)
(1.6050185 3.0190112e-05 0)
(1.8467117 2.9354934e-05 0)
(1.9847208 1.2730164e-05 0)
(1.9847208 -1.273061e-05 0)
(1.8467117 -2.9356322e-05 0)
(1.6050185 -3.0192232e-05 0)
(1.3117377 -2.2453705e-05 0)
(1.0158719 -1.388505e-05 0)
(0.75050321 -7.5909186e-06 0)
(0.53090094 -3.7633464e-06 0)
(0.35912943 -1.6950905e-06 0)
(0.22998431 -6.794047e-07 0)
(0.13554219 -2.2122242e-07 0)
(0.067800635 -5.6911359e-08 0)
(0.019859431 -6.441014e-09 0)
(0.019859002 7.3346384e-09 0)
(0.067799193 5.1189749e-08 0)
(0.13553936 2.178965e-07 0)
(0.22997961 6.5063821e-07 0)
(0.35912234 1.6149782e-06 0)
(0.53089102 3.5693242e-06 0)
(0.75049046 7.1828942e-06 0)
(1.0158574 1.3126278e-05 0)
(1.3117249 2.1224065e-05 0)
(1.6050136 2.8556858e-05 0)
(1.8467212 2.7790716e-05 0)
(1.9847433 1.2073631e-05 0)
(1.9847433 -1.2073961e-05 0)
(1.8467212 -2.7792074e-05 0)
(1.6050136 -2.8559057e-05 0)
(1.3117249 -2.1224597e-05 0)
(1.0158574 -1.312185e-05 0)
(0.75049047 -7.1721657e-06 0)
(0.53089103 -3.5542916e-06 0)
(0.35912234 -1.5997697e-06 0)
(0.22997961 -6.4069958e-07 0)
(0.13553936 -2.0783374e-07 0)
(0.067799193 -5.4102174e-08 0)
(0.019859003 -5.9216653e-09 0)
(0.0198586 6.9401196e-09 0)
(0.067797836 4.8451541e-08 0)
(0.13553669 2.0622072e-07 0)
(0.22997518 6.1572657e-07 0)
(0.35911566 1.5280821e-06 0)
(0.5308817 3.3767691e-06 0)
(0.75047849 6.795048e-06 0)
(1.0158438 1.2418979e-05 0)
(1.3117128 2.0087071e-05 0)
(1.6050089 2.704045e-05 0)
(1.84673 2.6362691e-05 0)
(1.9847642 1.1469477e-05 0)
(1.9847642 -1.1469648e-05 0)
(1.84673 -2.6363993e-05 0)
(1.6050089 -2.7042713e-05 0)
(1.3117128 -2.0087635e-05 0)
(1.0158438 -1.2414305e-05 0)
(0.7504785 -6.7836687e-06 0)