/*--------------------------------*- C++ -*----------------------------------*\
  =========                 |
  \\      /  F ield         | OpenFOAM: The Open Source CFD Toolbox
   \\    /   O peration     | Website:  https://openfoam.org
    \\  /    A nd           | Version:  10
     \\/     M anipulation  |
\*---------------------------------------------------------------------------*/
FoamFile
{
    format      ascii;
    class       volScalarField;
    location    "12.5";
    object      T;
}
// * * * * * * * * * * * * * * * * * * * * * * * * * * * * * * * * * * * * * //

dimensions      [0 0 -1 0 0 0 0];

internalField   nonuniform List<scalar> 
100
(
4.23976
12.6799
21.0075
29.1486
37.031
44.5848
51.7428
58.4415
64.6215
70.2279
75.2109
79.5264
83.136
86.0077
88.116
89.4422
89.9745
89.7082
88.6456
86.7962
84.1764
80.8094
76.7252
71.9599
66.556
60.5613
54.029
47.0172
39.5881
31.8075
23.7447
15.4711
7.06016
-1.41343
-9.87447
-18.2479
-26.4593
-34.4358
-42.1068
-49.4039
-56.2626
-62.6218
-68.4253
-73.6213
-78.164
-82.0128
-85.1336
-87.4989
-89.0874
-89.8853
-89.8852
-89.0874
-87.4988
-85.1336
-82.0127
-78.1639
-73.6213
-68.4252
-62.6218
-56.2625
-49.4038
-42.1067
-34.4358
-26.4592
-18.2478
-9.87436
-1.41332
7.06027
15.4712
23.7448
31.8076
39.5882
47.0173
54.0291
60.5614
66.5561
71.96
76.7253
80.8095
84.1764
86.7962
88.6456
89.7082
89.9746
89.4423
88.1161
86.0078
83.1361
79.5265
75.211
70.2279
64.6215
58.4415
51.7428
44.5848
37.0311
29.1486
21.0075
12.6799
4.23977
)
;

boundaryField
{
    xmin
    {
        type            fixedValue;
        value           uniform 0;
    }
    xmax
    {
        type            fixedValue;
        value           uniform 0;
    }
    frontAndBack
    {
        type            empty;
    }
}


// ************************************************************************* //
