/*--------------------------------*- C++ -*----------------------------------*\
  =========                 |
  \\      /  F ield         | OpenFOAM: The Open Source CFD Toolbox
   \\    /   O peration     | Website:  https://openfoam.org
    \\  /    A nd           | Version:  10
     \\/     M anipulation  |
\*---------------------------------------------------------------------------*/
FoamFile
{
    format      ascii;
    class       volScalarField;
    location    "9.3";
    object      T;
}
// * * * * * * * * * * * * * * * * * * * * * * * * * * * * * * * * * * * * * //

dimensions      [0 0 -1 0 0 0 0];

internalField   nonuniform List<scalar> 
100
(
0.0291014
0.0862726
0.140388
0.189529
0.231957
0.266167
0.290948
0.305422
0.309077
0.301782
0.283797
0.255758
0.218658
0.173813
0.12281
0.0674563
0.00971309
-0.0483742
-0.104748
-0.157411
-0.204497
-0.244339
-0.275525
-0.296951
-0.307857
-0.307857
-0.296951
-0.275525
-0.244339
-0.204497
-0.15741
-0.104747
-0.0483739
0.00971335
0.0674565
0.12281
0.173813
0.218658
0.255758
0.283797
0.301782
0.309077
0.305422
0.290948
0.266166
0.231956
0.189529
0.140387
0.0862719
0.0291007
-0.0291014
-0.0862725
-0.140387
-0.189529
-0.231957
-0.266167
-0.290948
-0.305422
-0.309077
-0.301782
-0.283796
-0.255757
-0.218658
-0.173812
-0.122809
-0.0674559
-0.00971271
0.0483745
0.104748
0.157411
0.204497
0.244339
0.275526
0.296951
0.307857
0.307857
0.296951
0.275525
0.244339
0.204497
0.15741
0.104747
0.0483736
-0.00971369
-0.0674568
-0.12281
-0.173813
-0.218659
-0.255758
-0.283797
-0.301782
-0.309077
-0.305422
-0.290948
-0.266167
-0.231956
-0.189529
-0.140387
-0.0862719
-0.0291007
)
;

boundaryField
{
    inlet
    {
        type            cyclic;
    }
    outlet
    {
        type            cyclic;
    }
    bottom
    {
        type            slip;
    }
    top
    {
        type            slip;
    }
    frontAndBack
    {
        type            empty;
    }
}


// ************************************************************************* //
