/*--------------------------------*- C++ -*----------------------------------*\
  =========                 |
  \\      /  F ield         | OpenFOAM: The Open Source CFD Toolbox
   \\    /   O peration     | Website:  https://openfoam.org
    \\  /    A nd           | Version:  10
     \\/     M anipulation  |
\*---------------------------------------------------------------------------*/
FoamFile
{
    format      ascii;
    class       volScalarField;
    location    "26.5";
    object      ddt0(T);
}
// * * * * * * * * * * * * * * * * * * * * * * * * * * * * * * * * * * * * * //

dimensions      [0 0 -1 1 0 0 0];

internalField   nonuniform List<scalar> 
10000
(
1152.6
210.375
310.376
312.943
311.945
311.973
312.028
312.042
312.045
312.047
312.049
312.05
312.052
312.053
312.055
312.056
312.058
312.059
312.061
312.062
312.063
312.065
312.066
312.067
312.068
312.07
312.071
312.072
312.073
312.074
312.076
312.077
312.078
312.079
312.08
312.081
312.082
312.083
312.084
312.085
312.086
312.087
312.087
312.088
312.089
312.09
312.091
312.091
312.092
312.093
312.093
312.094
312.095
312.095
312.096
312.097
312.097
312.098
312.098
312.099
312.099
312.099
312.1
312.1
312.101
312.101
312.101
312.102
312.102
312.102
312.103
312.103
312.103
312.103
312.104
312.104
312.104
312.104
312.104
312.105
312.105
312.105
312.105
312.105
312.105
312.105
312.106
312.106
312.106
312.106
312.106
312.106
312.106
312.106
312.106
312.121
312.241
312.03
297.828
279.463
272.451
-245.648
-99.1086
-104.919
-107.962
-108.009
-107.925
-107.909
-107.905
-107.901
-107.897
-107.892
-107.888
-107.884
-107.88
-107.875
-107.871
-107.867
-107.863
-107.859
-107.855
-107.851
-107.847
-107.843
-107.839
-107.836
-107.832
-107.828
-107.825
-107.821
-107.818
-107.814
-107.811
-107.808
-107.805
-107.802
-107.799
-107.796
-107.793
-107.79
-107.787
-107.785
-107.782
-107.779
-107.777
-107.775
-107.772
-107.77
-107.768
-107.766
-107.764
-107.762
-107.76
-107.758
-107.756
-107.755
-107.753
-107.751
-107.75
-107.748
-107.747
-107.746
-107.744
-107.743
-107.742
-107.741
-107.74
-107.739
-107.738
-107.737
-107.736
-107.735
-107.734
-107.734
-107.733
-107.732
-107.732
-107.731
-107.731
-107.73
-107.73
-107.729
-107.729
-107.728
-107.728
-107.728
-107.728
-107.727
-107.727
-107.727
-107.727
-107.726
-107.726
-107.727
-107.729
-107.719
-107.544
-106.889
-110.923
-93.7117
354.888
-116.075
23.4858
14.328
10.9925
11.0194
11.132
11.155
11.1617
11.1685
11.1757
11.183
11.1903
11.1975
11.2047
11.2118
11.2188
11.2257
11.2326
11.2394
11.2461
11.2527
11.2592
11.2656
11.272
11.2782
11.2843
11.2904
11.2963
11.3021
11.3078
11.3135
11.319
11.3243
11.3296
11.3348
11.3398
11.3448
11.3496
11.3543
11.3588
11.3633
11.3676
11.3718
11.3759
11.3799
11.3838
11.3875
11.3912
11.3947
11.3981
11.4014
11.4045
11.4076
11.4105
11.4134
11.4161
11.4188
11.4213
11.4237
11.426
11.4283
11.4304
11.4324
11.4344
11.4362
11.438
11.4397
11.4413
11.4428
11.4443
11.4456
11.4469
11.4482
11.4493
11.4504
11.4514
11.4524
11.4533
11.4541
11.4549
11.4556
11.4563
11.4569
11.4575
11.458
11.4585
11.4589
11.4593
11.4597
11.46
11.4603
11.4604
11.4595
11.4536
11.4404
11.5072
11.9051
9.00258
12.4297
357.336
-120.752
15.5273
5.80973
2.51855
2.58745
2.71168
2.73843
2.74801
2.75767
2.76786
2.77809
2.78825
2.79832
2.8083
2.8182
2.828
2.83769
2.84727
2.85674
2.8661
2.87533
2.88444
2.89342
2.90227
2.91098
2.91956
2.92799
2.93629
2.94443
2.95243
2.96028
2.96797
2.9755
2.98288
2.9901
2.99715
3.00405
3.01078
3.01734
3.02374
3.02997
3.03604
3.04194
3.04767
3.05324
3.05864
3.06388
3.06896
3.07387
3.07863
3.08322
3.08766
3.09194
3.09607
3.10004
3.10387
3.10755
3.11108
3.11447
3.11773
3.12084
3.12382
3.12668
3.1294
3.132
3.13447
3.13683
3.13907
3.1412
3.14322
3.14514
3.14695
3.14866
3.15027
3.15179
3.15322
3.15456
3.15581
3.15698
3.15808
3.15909
3.16003
3.1609
3.1617
3.16243
3.1631
3.16371
3.16425
3.16473
3.16517
3.16559
3.16605
3.16613
3.16239
3.14683
3.16371
3.50332
3.21713
3.14638
356.53
-123.375
12.6009
2.92356
-0.319577
-0.234121
-0.104972
-0.0753209
-0.0629046
-0.0503405
-0.0372353
-0.0241006
-0.011058
0.00188008
0.0147092
0.0274223
0.0400113
0.0524686
0.0647874
0.0769615
0.0889854
0.100854
0.112562
0.124105
0.13548
0.146681
0.157704
0.168547
0.179204
0.189673
0.19995
0.210032
0.219916
0.229598
0.239077
0.248351
0.257416
0.266272
0.274918
0.283351
0.291572
0.299579
0.307372
0.314952
0.322319
0.329473
0.336414
0.343145
0.349666
0.355979
0.362085
0.367987
0.373686
0.379185
0.384486
0.389593
0.394508
0.399234
0.403773
0.408131
0.412309
0.416312
0.420142
0.423805
0.427303
0.43064
0.433821
0.436849
0.439729
0.442464
0.445058
0.447515
0.44984
0.452037
0.454108
0.456059
0.457893
0.459614
0.461225
0.462731
0.464134
0.465439
0.466647
0.467764
0.468791
0.469732
0.470589
0.471366
0.472063
0.472683
0.473233
0.473746
0.474346
0.475115
0.474248
0.462536
0.4377
0.514334
0.576859
0.501389
356.559
-123.417
12.6207
2.98334
-0.243421
-0.152351
-0.0201562
0.0123162
0.0276247
0.0431086
0.0591277
0.0751602
0.0910813
0.106876
0.122539
0.138062
0.153433
0.168644
0.183687
0.198554
0.213237
0.227732
0.24203
0.256128
0.270019
0.283698
0.297161
0.310402
0.323417
0.336202
0.348752
0.361063
0.373132
0.384956
0.39653
0.407854
0.418923
0.429737
0.440293
0.45059
0.460627
0.470404
0.47992
0.489174
0.498169
0.506903
0.515378
0.523596
0.531557
0.539265
0.54672
0.553925
0.560883
0.567597
0.574069
0.580303
0.586304
0.592073
0.597615
0.602935
0.608035
0.612922
0.617598
0.622069
0.626339
0.630413
0.634296
0.637993
0.641507
0.644846
0.648012
0.651012
0.65385
0.656531
0.659059
0.66144
0.663679
0.665779
0.667746
0.669584
0.671296
0.672888
0.674364
0.675727
0.67698
0.678129
0.679175
0.680122
0.680973
0.68173
0.682392
0.682973
0.683574
0.684502
0.685724
0.683321
0.668493
0.664641
0.672614
0.68511
356.607
-123.345
12.7193
3.09314
-0.128712
-0.0345907
0.100423
0.135777
0.154004
0.172408
0.191333
0.210255
0.229044
0.247687
0.266174
0.284495
0.302639
0.320594
0.338351
0.355901
0.373235
0.390345
0.407226
0.423868
0.440268
0.456417
0.47231
0.487942
0.503306
0.518398
0.533213
0.547747
0.561994
0.575951
0.589614
0.60298
0.616046
0.628811
0.641271
0.653425
0.665273
0.676812
0.688044
0.698968
0.709584
0.719893
0.729896
0.739595
0.748992
0.758089
0.766888
0.775392
0.783604
0.791527
0.799166
0.806524
0.813605
0.820414
0.826955
0.833233
0.839252
0.845019
0.850537
0.855813
0.860853
0.86566
0.870242
0.874604
0.878752
0.882691
0.886427
0.889967
0.893316
0.896479
0.899462
0.902272
0.904913
0.907391
0.909712
0.91188
0.9139
0.915779
0.917519
0.919127
0.920606
0.921961
0.923195
0.924313
0.925317
0.926211
0.926992
0.927657
0.928235
0.92892
0.930126
0.931247
0.928249
0.921094
0.90944
0.933738
356.618
-123.33
12.7403
3.11788
-0.101059
-0.00411018
0.133787
0.172058
0.193207
0.214522
0.236343
0.258142
0.27979
0.301269
0.322569
0.343679
0.364584
0.385273
0.405733
0.425956
0.44593
0.465647
0.485098
0.504277
0.523174
0.541784
0.560098
0.578111
0.595816
0.613207
0.630278
0.647025
0.663441
0.679523
0.695266
0.710667
0.725723
0.74043
0.754786
0.76879
0.782441
0.795736
0.808677
0.821262
0.833493
0.845371
0.856896
0.86807
0.878896
0.889376
0.899513
0.90931
0.91877
0.927899
0.936699
0.945175
0.953332
0.961176
0.968711
0.975942
0.982876
0.989519
0.995876
1.00195
1.00776
1.0133
1.01857
1.0236
1.02837
1.03291
1.03721
1.04129
1.04515
1.04879
1.05223
1.05546
1.0585
1.06136
1.06403
1.06653
1.06885
1.07102
1.07302
1.07487
1.07658
1.07814
1.07956
1.08084
1.082
1.08303
1.08394
1.08471
1.08534
1.08589
1.08661
1.08777
1.08861
1.08623
1.07096
1.09775
356.621
-123.326
12.7471
3.12758
-0.0885058
0.0113386
0.152155
0.193349
0.217412
0.241626
0.26633
0.290995
0.315488
0.339792
0.363893
0.387778
0.411433
0.434843
0.457995
0.480878
0.50348
0.525792
0.547804
0.569507
0.590892
0.611951
0.632675
0.653059
0.673094
0.692773
0.712091
0.73104
0.749616
0.767813
0.785627
0.803053
0.820088
0.836729
0.852973
0.868818
0.884263
0.899306
0.913947
0.928187
0.942025
0.955463
0.968502
0.981144
0.993392
1.00525
1.01672
1.0278
1.0385
1.04883
1.05878
1.06837
1.0776
1.08647
1.095
1.10318
1.11102
1.11854
1.12573
1.1326
1.13917
1.14543
1.1514
1.15708
1.16248
1.16762
1.17248
1.17709
1.18145
1.18557
1.18946
1.19312
1.19656
1.19979
1.20281
1.20563
1.20826
1.21071
1.21298
1.21507
1.21699
1.21876
1.22037
1.22182
1.22313
1.22429
1.22532
1.22621
1.22694
1.22752
1.22802
1.22876
1.23026
1.23061
1.21014
1.24341
356.623
-123.322
12.7539
3.13734
-0.0758333
0.0269331
0.170671
0.214778
0.241741
0.268841
0.296415
0.32393
0.351256
0.378369
0.405257
0.431904
0.458295
0.484412
0.510243
0.535773
0.56099
0.585884
0.610443
0.634657
0.658517
0.682013
0.705136
0.727878
0.750231
0.772187
0.793739
0.81488
0.835604
0.855906
0.875779
0.89522
0.914225
0.932789
0.95091
0.968587
0.985816
1.0026
1.01893
1.03481
1.05025
1.06524
1.07979
1.09389
1.10755
1.12077
1.13357
1.14593
1.15787
1.16939
1.18049
1.19118
1.20148
1.21137
1.22088
1.23
1.23875
1.24713
1.25515
1.26281
1.27014
1.27712
1.28378
1.29011
1.29614
1.30186
1.30729
1.31243
1.31729
1.32188
1.32622
1.3303
1.33413
1.33773
1.3411
1.34425
1.34718
1.34991
1.35243
1.35477
1.35691
1.35888
1.36067
1.36229
1.36375
1.36505
1.36619
1.36719
1.36803
1.36869
1.36918
1.3697
1.37131
1.37368
1.34596
1.38786
356.625
-123.318
12.7612
3.14757
-0.0626939
0.0429894
0.189637
0.236641
0.266489
0.296459
0.326887
0.357239
0.38738
0.417288
0.446948
0.476341
0.505452
0.534261
0.562755
0.590918
0.618736
0.646197
0.673288
0.7
0.72632
0.752239
0.777747
0.802834
0.827492
0.851712
0.875485
0.898806
0.921666
0.94406
0.965981
0.987425
1.00839
1.02886
1.04885
1.06835
1.08735
1.10586
1.12387
1.14139
1.15842
1.17495
1.19099
1.20654
1.22161
1.2362
1.2503
1.26394
1.2771
1.2898
1.30205
1.31384
1.32519
1.3361
1.34659
1.35665
1.36629
1.37553
1.38437
1.39282
1.4009
1.4086
1.41594
1.42292
1.42956
1.43587
1.44186
1.44752
1.45288
1.45795
1.46272
1.46722
1.47145
1.47541
1.47913
1.4826
1.48583
1.48883
1.49162
1.49419
1.49656
1.49872
1.5007
1.50248
1.50409
1.50552
1.50678
1.50788
1.50881
1.50956
1.5101
1.51054
1.51223
1.51656
1.48143
1.53191
356.626
-123.313
12.7685
3.15782
-0.0495347
0.0590503
0.20859
0.258476
0.291191
0.324015
0.35728
0.39045
0.42339
0.456075
0.488489
0.520613
0.552426
0.583912
0.615052
0.64583
0.676232
0.706245
0.735854
0.765047
0.793813
0.82214
0.850017
0.877435
0.904383
0.930852
0.956833
0.982319
1.0073
1.03177
1.05573
1.07916
1.10207
1.12445
1.14629
1.16759
1.18836
1.20858
1.22827
1.24741
1.26601
1.28408
1.30161
1.3186
1.33506
1.351
1.36641
1.38131
1.39569
1.40957
1.42294
1.43583
1.44823
1.46015
1.4716
1.48259
1.49312
1.50322
1.51287
1.52211
1.53092
1.53934
1.54735
1.55498
1.56224
1.56912
1.57566
1.58185
1.5877
1.59323
1.59845
1.60336
1.60797
1.6123
1.61636
1.62015
1.62368
1.62696
1.63
1.63281
1.63539
1.63775
1.63991
1.64186
1.64361
1.64518
1.64655
1.64775
1.64877
1.6496
1.65019
1.65059
1.65234
1.65848
1.61689
1.67486
356.628
-123.309
12.7758
3.168
-0.0364624
0.0750059
0.22742
0.280168
0.315732
0.35139
0.387473
0.423444
0.459164
0.494608
0.529757
0.564592
0.59909
0.633233
0.667002
0.700378
0.733347
0.765893
0.798002
0.82966
0.860855
0.891573
0.921804
0.951536
0.980759
1.00946
1.03764
1.06527
1.09236
1.1189
1.14487
1.17028
1.19512
1.21938
1.24307
1.26617
1.28868
1.31061
1.33195
1.35271
1.37288
1.39246
1.41146
1.42989
1.44773
1.46501
1.48172
1.49787
1.51346
1.5285
1.543
1.55697
1.57041
1.58333
1.59574
1.60765
1.61907
1.63001
1.64048
1.65048
1.66004
1.66916
1.67784
1.68611
1.69397
1.70144
1.70852
1.71522
1.72157
1.72756
1.73321
1.73853
1.74353
1.74822
1.75261
1.75672
1.76054
1.7641
1.76739
1.77043
1.77323
1.77579
1.77813
1.78024
1.78214
1.78383
1.78532
1.78662
1.78772
1.78863
1.78928
1.78965
1.79142
1.79905
1.75235
1.81637
356.629
-123.304
12.783
3.1781
-0.0234888
0.0908429
0.24611
0.3017
0.340094
0.378566
0.417447
0.456196
0.494677
0.532859
0.570724
0.60825
0.645413
0.682194
0.718572
0.754527
0.790044
0.825105
0.859696
0.8938
0.927405
0.960498
0.993064
1.02509
1.05657
1.08749
1.11784
1.14761
1.17679
1.20538
1.23336
1.26073
1.28748
1.31362
1.33913
1.36401
1.38826
1.41188
1.43486
1.45722
1.47894
1.50003
1.5205
1.54034
1.55956
1.57816
1.59616
1.61355
1.63034
1.64654
1.66215
1.67719
1.69166
1.70557
1.71894
1.73176
1.74406
1.75584
1.76711
1.77788
1.78817
1.79798
1.80733
1.81623
1.82469
1.83273
1.84035
1.84757
1.85439
1.86084
1.86692
1.87265
1.87803
1.88308
1.88781
1.89222
1.89634
1.90016
1.90371
1.90698
1.90999
1.91275
1.91526
1.91753
1.91958
1.9214
1.923
1.92439
1.92558
1.92656
1.92727
1.92764
1.92939
1.93813
1.88775
1.95632
356.631
-123.3
12.7902
3.18812
-0.010618
0.106555
0.264654
0.323064
0.364264
0.405529
0.447185
0.488693
0.529911
0.57081
0.61137
0.651565
0.691373
0.73077
0.769736
0.80825
0.846294
0.88385
0.920902
0.957434
0.99343
1.02888
1.06376
1.09807
1.13179
1.16491
1.19741
1.2293
1.26055
1.29117
1.32114
1.35045
1.37911
1.4071
1.43442
1.46106
1.48703
1.51233
1.53695
1.56088
1.58415
1.60673
1.62865
1.6499
1.67048
1.6904
1.70967
1.72829
1.74626
1.76361
1.78033
1.79643
1.81192
1.82682
1.84113
1.85486
1.86802
1.88063
1.89269
1.90422
1.91523
1.92574
1.93574
1.94527
1.95433
1.96293
1.97108
1.97881
1.98611
1.99301
1.99952
2.00565
2.01141
2.01681
2.02187
2.02659
2.03099
2.03508
2.03888
2.04238
2.0456
2.04855
2.05124
2.05367
2.05586
2.0578
2.05952
2.06101
2.06228
2.06333
2.06409
2.06448
2.06621
2.07565
2.02294
2.09465
356.632
-123.296
12.7973
3.19806
0.00214294
0.122134
0.283041
0.344247
0.388231
0.432264
0.476673
0.520915
0.564848
0.608441
0.651671
0.694514
0.736943
0.778935
0.820467
0.861517
0.902067
0.942097
0.981589
1.02053
1.05889
1.09667
1.13386
1.17042
1.20636
1.24166
1.2763
1.31029
1.3436
1.37623
1.40817
1.43941
1.46995
1.49977
1.52889
1.55728
1.58496
1.61191
1.63815
1.66366
1.68844
1.71251
1.73586
1.7585
1.78043
1.80166
1.82219
1.84202
1.86118
1.87966
1.89747
1.91462
1.93113
1.94699
1.96223
1.97686
1.99088
2.00431
2.01716
2.02944
2.04117
2.05235
2.06301
2.07316
2.0828
2.09196
2.10064
2.10887
2.11665
2.12399
2.13092
2.13745
2.14358
2.14933
2.15471
2.15974
2.16443
2.16878
2.17282
2.17655
2.17997
2.18311
2.18597
2.18856
2.19089
2.19297
2.19479
2.19638
2.19773
2.19885
2.19967
2.20008
2.20178
2.2116
2.15773
2.23134
356.634
-123.292
12.8043
3.2079
0.0147866
0.137571
0.30126
0.365238
0.41198
0.458757
0.505893
0.552844
0.599468
0.64573
0.691607
0.737072
0.782098
0.826661
0.870736
0.9143
0.957332
0.999813
1.04172
1.08304
1.12376
1.16385
1.20331
1.24211
1.28025
1.31771
1.35447
1.39054
1.42588
1.46051
1.4944
1.52755
1.55995
1.5916
1.62249
1.65262
1.68198
1.71058
1.73841
1.76547
1.79177
1.8173
1.84208
1.86609
1.88936
1.91187
1.93365
1.95469
1.97501
1.99461
2.0135
2.0317
2.0492
2.06603
2.0822
2.09771
2.11258
2.12682
2.14044
2.15346
2.1659
2.17776
2.18906
2.19982
2.21005
2.21975
2.22896
2.23768
2.24593
2.25371
2.26106
2.26797
2.27447
2.28057
2.28627
2.2916
2.29657
2.30118
2.30546
2.30941
2.31304
2.31637
2.3194
2.32215
2.32461
2.32681
2.32875
2.33043
2.33186
2.33305
2.33392
2.33437
2.33605
2.34594
2.29191
2.36636
356.635
-123.288
12.8113
3.21764
0.0273058
0.152856
0.319301
0.386023
0.435497
0.484991
0.534828
0.584463
0.633751
0.682656
0.731154
0.779217
0.826816
0.873924
0.920516
0.966569
1.01206
1.05697
1.10127
1.14495
1.188
1.23038
1.27209
1.31311
1.35342
1.39302
1.43188
1.47
1.50736
1.54396
1.57978
1.61482
1.64907
1.68252
1.71517
1.74701
1.77804
1.80827
1.83768
1.86628
1.89408
1.92106
1.94724
1.97262
1.9972
2.02099
2.044
2.06624
2.08771
2.10842
2.12838
2.1476
2.16609
2.18387
2.20095
2.21733
2.23304
2.24808
2.26248
2.27623
2.28937
2.30189
2.31383
2.32519
2.33599
2.34624
2.35596
2.36517
2.37388
2.3821
2.38986
2.39715
2.40401
2.41045
2.41647
2.4221
2.42734
2.43222
2.43673
2.4409
2.44473
2.44825
2.45144
2.45434
2.45694
2.45926
2.46131
2.46308
2.46459
2.46585
2.46678
2.46728
2.46892
2.47866
2.42529
2.4997
356.637
-123.283
12.8182
3.22728
0.0396939
0.167982
0.337154
0.406593
0.458771
0.510954
0.563465
0.615756
0.66768
0.719202
0.770294
0.820927
0.871071
0.920699
0.969784
1.0183
1.06622
1.11353
1.16021
1.20622
1.25157
1.29622
1.34015
1.38337
1.42583
1.46754
1.50848
1.54864
1.58799
1.62654
1.66427
1.70118
1.73726
1.77249
1.80688
1.84042
1.8731
1.90493
1.93591
1.96603
1.9953
2.02372
2.05129
2.07802
2.1039
2.12896
2.15319
2.1766
2.1992
2.22101
2.24202
2.26226
2.28173
2.30045
2.31843
2.33568
2.35221
2.36805
2.3832
2.39768
2.4115
2.42469
2.43725
2.4492
2.46057
2.47136
2.48159
2.49127
2.50044
2.50909
2.51725
2.52492
2.53214
2.53891
2.54525
2.55117
2.55668
2.56181
2.56655
2.57094
2.57497
2.57867
2.58203
2.58508
2.58782
2.59025
2.5924
2.59427
2.59586
2.59718
2.59817
2.59872
2.60034
2.60974
2.55767
2.63133
356.638
-123.279
12.8251
3.23681
0.0519451
0.182941
0.354812
0.426938
0.48179
0.536633
0.591788
0.646706
0.701238
0.755348
0.809006
0.862182
0.914844
0.966964
1.01851
1.06947
1.1198
1.16948
1.2185
1.26682
1.31444
1.36133
1.40748
1.45286
1.49745
1.54125
1.58424
1.62641
1.66774
1.70822
1.74784
1.78659
1.82447
1.86147
1.89757
1.93279
1.96711
2.00053
2.03305
2.06468
2.0954
2.12524
2.15418
2.18224
2.20941
2.23571
2.26115
2.28572
2.30945
2.33233
2.35439
2.37563
2.39607
2.41571
2.43458
2.45268
2.47003
2.48664
2.50254
2.51773
2.53224
2.54607
2.55925
2.57179
2.58371
2.59503
2.60576
2.61592
2.62553
2.63461
2.64316
2.65122
2.65878
2.66588
2.67253
2.67873
2.68452
2.68989
2.69487
2.69946
2.70369
2.70756
2.71109
2.71429
2.71716
2.71971
2.72197
2.72392
2.72559
2.72698
2.72803
2.72863
2.73022
2.73916
2.68887
2.76125
356.639
-123.275
12.8318
3.24624
0.0640538
0.197727
0.372265
0.447047
0.504543
0.562017
0.619786
0.677301
0.734411
0.791079
0.847273
0.902962
0.958114
1.0127
1.06668
1.12004
1.17275
1.22478
1.27612
1.32673
1.3766
1.4257
1.47402
1.52154
1.56825
1.61411
1.65913
1.70328
1.74656
1.78895
1.83044
1.87101
1.91067
1.94941
1.98721
2.02408
2.06002
2.09501
2.12906
2.16216
2.19433
2.22556
2.25586
2.28523
2.31368
2.34121
2.36783
2.39355
2.41838
2.44234
2.46542
2.48765
2.50904
2.5296
2.54934
2.56828
2.58643
2.60382
2.62045
2.63635
2.65152
2.66599
2.67978
2.6929
2.70537
2.71721
2.72843
2.73906
2.74911
2.7586
2.76755
2.77597
2.78388
2.7913
2.79825
2.80474
2.81078
2.8164
2.8216
2.82641
2.83083
2.83488
2.83857
2.8419
2.84491
2.84758
2.84994
2.85198
2.85373
2.85518
2.85628
2.85694
2.8585
2.86689
2.81873
2.88943
356.641
-123.271
12.8385
3.25554
0.0760152
0.212333
0.389506
0.466913
0.527021
0.587093
0.647445
0.707525
0.767183
0.826378
0.885078
0.943251
1.00086
1.05788
1.11427
1.17001
1.22507
1.27942
1.33304
1.38591
1.438
1.48929
1.53976
1.5894
1.63818
1.68609
1.73311
1.77922
1.82442
1.86869
1.91202
1.9544
1.99582
2.03628
2.07576
2.11426
2.15178
2.18832
2.22388
2.25845
2.29204
2.32465
2.35628
2.38695
2.41665
2.44539
2.47318
2.50004
2.52596
2.55097
2.57507
2.59827
2.62059
2.64205
2.66266
2.68242
2.70137
2.71952
2.73687
2.75346
2.76929
2.78439
2.79878
2.81247
2.82548
2.83783
2.84953
2.86062
2.8711
2.881
2.89033
2.89912
2.90737
2.91511
2.92235
2.92912
2.93542
2.94128
2.94671
2.95172
2.95632
2.96054
2.96439
2.96787
2.971
2.97379
2.97624
2.97838
2.9802
2.98171
2.98287
2.98358
2.98512
2.9929
2.94708
3.01585
356.642
-123.267
12.845
3.26473
0.0878245
0.226754
0.406529
0.486527
0.549215
0.611852
0.674754
0.737368
0.799541
0.861231
0.922405
0.98303
1.04307
1.10249
1.16126
1.21934
1.27672
1.33336
1.38924
1.44433
1.49862
1.55207
1.60467
1.65639
1.70722
1.75715
1.80614
1.8542
1.90129
1.94742
1.99257
2.03672
2.07988
2.12203
2.16316
2.20328
2.24237
2.28043
2.31747
2.35349
2.38848
2.42245
2.4554
2.48734
2.51828
2.54822
2.57717
2.60514
2.63213
2.65818
2.68327
2.70744
2.73068
2.75303
2.77448
2.79506
2.81479
2.83368
2.85175
2.86902
2.8855
2.90122
2.91619
2.93044
2.94398
2.95683
2.96902
2.98055
2.99146
3.00176
3.01147
3.02061
3.02919
3.03724
3.04478
3.05182
3.05837
3.06447
3.07011
3.07532
3.08011
3.0845
3.0885
3.09212
3.09538
3.09828
3.10083
3.10305
3.10494
3.10652
3.10773
3.1085
3.11002
3.11715
3.07379
3.14048
356.643
-123.263
12.8515
3.2738
0.0994774
0.240984
0.423327
0.505882
0.571115
0.636283
0.701702
0.766816
0.831471
0.895623
0.959239
1.02228
1.08472
1.14651
1.20762
1.26802
1.32769
1.38659
1.4447
1.50199
1.55843
1.61402
1.66871
1.72249
1.77535
1.82726
1.8782
1.92817
1.97713
2.0251
2.07203
2.11794
2.16281
2.20663
2.24939
2.29109
2.33173
2.3713
2.40981
2.44724
2.48362
2.51892
2.55318
2.58637
2.61853
2.64964
2.67973
2.70879
2.73685
2.76391
2.78999
2.8151
2.83925
2.86247
2.88476
2.90614
2.92664
2.94626
2.96503
2.98297
3.00009
3.01641
3.03196
3.04676
3.06082
3.07417
3.08682
3.0988
3.11012
3.12082
3.1309
3.14038
3.14929
3.15765
3.16547
3.17278
3.17958
3.18591
3.19176
3.19717
3.20214
3.2067
3.21085
3.2146
3.21798
3.22099
3.22364
3.22595
3.22791
3.22955
3.23081
3.23164
3.23314
3.23962
3.19875
3.2633
356.645
-123.26
12.8579
3.28274
0.110969
0.255018
0.439892
0.52497
0.592713
0.660378
0.728279
0.795858
0.86296
0.929542
0.995565
1.06099
1.12579
1.18992
1.25334
1.31603
1.37796
1.43908
1.49939
1.55884
1.61742
1.6751
1.73186
1.78768
1.84253
1.89639
1.94926
2.0011
2.05192
2.10168
2.15039
2.19802
2.24458
2.29004
2.33441
2.37767
2.41984
2.46089
2.50084
2.53967
2.5774
2.61403
2.64956
2.684
2.71735
2.74962
2.78083
2.81097
2.84007
2.86814
2.89518
2.92122
2.94626
2.97033
2.99345
3.01562
3.03687
3.05721
3.07667
3.09526
3.11301
3.12993
3.14605
3.16138
3.17596
3.18979
3.2029
3.21531
3.22704
3.23812
3.24856
3.25839
3.26762
3.27628
3.28438
3.29195
3.299
3.30554
3.31161
3.31721
3.32236
3.32708
3.33137
3.33526
3.33876
3.34188
3.34462
3.34701
3.34905
3.35074
3.35206
3.35295
3.35442
3.36027
3.32185
3.38426
356.646
-123.256
12.8642
3.29155
0.122297
0.26885
0.456221
0.543784
0.614001
0.684128
0.754474
0.824484
0.893998
0.962973
1.03137
1.09915
1.16627
1.23271
1.29841
1.36335
1.4275
1.49082
1.55329
1.61488
1.67556
1.73531
1.7941
1.85192
1.90873
1.96453
2.01928
2.07298
2.12561
2.17716
2.2276
2.27694
2.32515
2.37223
2.41818
2.46299
2.50665
2.54916
2.59052
2.63074
2.66981
2.70773
2.74452
2.78017
2.8147
2.84811
2.88042
2.91163
2.94175
2.9708
2.99879
3.02574
3.05167
3.07658
3.1005
3.12344
3.14543
3.16648
3.18662
3.20585
3.22421
3.24172
3.2584
3.27426
3.28933
3.30364
3.3172
3.33003
3.34217
3.35363
3.36442
3.37459
3.38413
3.39308
3.40146
3.40928
3.41656
3.42333
3.4296
3.43539
3.44071
3.44559
3.45003
3.45405
3.45766
3.46088
3.46372
3.46619
3.46829
3.47004
3.47141
3.47236
3.47381
3.47906
3.443
3.50334
356.647
-123.252
12.8704
3.30023
0.133455
0.282476
0.472306
0.562318
0.634972
0.707522
0.780279
0.852682
0.924573
0.995904
1.06664
1.13673
1.20615
1.27485
1.3428
1.40996
1.4763
1.54178
1.60638
1.67007
1.73282
1.79461
1.8554
1.91519
1.97394
2.03163
2.08825
2.14377
2.19819
2.25148
2.30364
2.35465
2.40449
2.45317
2.50067
2.54699
2.59213
2.63608
2.67884
2.72041
2.76079
2.79999
2.83801
2.87486
2.91055
2.94508
2.97847
3.01072
3.04184
3.07186
3.10079
3.12864
3.15542
3.18116
3.20587
3.22957
3.25229
3.27403
3.29483
3.3147
3.33366
3.35174
3.36896
3.38534
3.40091
3.41568
3.42968
3.44293
3.45546
3.46728
3.47843
3.48892
3.49877
3.508
3.51665
3.52472
3.53224
3.53922
3.54569
3.55166
3.55715
3.56218
3.56676
3.57091
3.57464
3.57796
3.58089
3.58344
3.58561
3.58742
3.58883
3.58983
3.59127
3.59594
3.56212
3.62051
356.648
-123.248
12.8765
3.30878
0.144441
0.295891
0.488142
0.580564
0.655618
0.730555
0.805683
0.880442
0.954672
1.02832
1.10136
1.17374
1.24541
1.31635
1.3865
1.45584
1.52433
1.59195
1.65864
1.7244
1.78919
1.85298
1.91574
1.97746
2.03812
2.09768
2.15613
2.21345
2.26963
2.32464
2.37848
2.43113
2.48258
2.53283
2.58186
2.62967
2.67625
2.72161
2.76574
2.80864
2.85032
2.89077
2.93001
2.96803
3.00486
3.04049
3.07493
3.10821
3.14032
3.17129
3.20113
3.22986
3.25748
3.28403
3.30952
3.33397
3.35739
3.37982
3.40126
3.42175
3.44131
3.45995
3.4777
3.49459
3.51063
3.52586
3.54029
3.55395
3.56686
3.57905
3.59053
3.60134
3.61149
3.62101
3.62991
3.63822
3.64597
3.65316
3.65983
3.66598
3.67163
3.67681
3.68153
3.6858
3.68964
3.69307
3.69608
3.6987
3.70094
3.7028
3.70427
3.70532
3.70675
3.71089
3.67915
3.73571
356.65
-123.245
12.8825
3.31719
0.155251
0.309091
0.503723
0.598518
0.675932
0.753216
0.830678
0.907756
0.984287
1.06022
1.13552
1.21014
1.28403
1.35717
1.42949
1.50098
1.57159
1.6413
1.71006
1.77785
1.84464
1.9104
1.9751
2.03873
2.10125
2.16265
2.2229
2.28199
2.33989
2.3966
2.45209
2.50635
2.55939
2.61117
2.6617
2.71097
2.75898
2.80573
2.8512
2.89541
2.93835
2.98004
3.02047
3.05965
3.09759
3.13429
3.16978
3.20406
3.23714
3.26904
3.29978
3.32937
3.35782
3.38517
3.41141
3.43659
3.46071
3.4838
3.50588
3.52698
3.54711
3.5663
3.58458
3.60196
3.61847
3.63414
3.64899
3.66305
3.67634
3.68888
3.70069
3.71181
3.72225
3.73204
3.7412
3.74975
3.75772
3.76512
3.77197
3.7783
3.78411
3.78944
3.79429
3.79868
3.80263
3.80615
3.80925
3.81195
3.81425
3.81617
3.81768
3.81879
3.8202
3.82386
3.79403
3.84891
356.651
-123.241
12.8885
3.32547
0.165881
0.322071
0.519045
0.616172
0.695907
0.7755
0.855257
0.934613
1.01341
1.09159
1.16911
1.24593
1.32201
1.3973
1.47177
1.54536
1.61806
1.68982
1.76061
1.8304
1.89915
1.96685
2.03346
2.09896
2.16332
2.22652
2.28854
2.34936
2.40896
2.46733
2.52444
2.5803
2.63488
2.68817
2.74018
2.79089
2.84029
2.8884
2.93519
2.98068
3.02487
3.06776
3.10936
3.14967
3.18871
3.22647
3.26298
3.29824
3.33227
3.36509
3.3967
3.42713
3.4564
3.48452
3.51151
3.5374
3.56221
3.58595
3.60865
3.63034
3.65103
3.67076
3.68955
3.70741
3.72439
3.74049
3.75575
3.7702
3.78385
3.79673
3.80887
3.82029
3.83102
3.84108
3.85048
3.85927
3.86745
3.87505
3.88208
3.88858
3.89455
3.90002
3.905
3.90951
3.91357
3.91718
3.92037
3.92314
3.9255
3.92747
3.92903
3.93018
3.93159
3.93481
3.90674
3.96007
356.652
-123.238
12.8943
3.3336
0.176328
0.334828
0.534103
0.633521
0.715537
0.797399
0.87941
0.961006
1.04202
1.12241
1.20212
1.28111
1.35933
1.43674
1.5133
1.58898
1.66372
1.7375
1.81028
1.88203
1.95272
2.02232
2.0908
2.15813
2.2243
2.28927
2.35302
2.41555
2.47681
2.53681
2.59552
2.65293
2.70903
2.76381
2.81727
2.86938
2.92016
2.96959
3.01769
3.06444
3.10985
3.15392
3.19666
3.23808
3.27819
3.31699
3.35449
3.39072
3.42568
3.45939
3.49186
3.52312
3.55318
3.58206
3.60978
3.63637
3.66184
3.68622
3.70953
3.7318
3.75304
3.7733
3.79258
3.81092
3.82834
3.84487
3.86053
3.87535
3.88936
3.90258
3.91503
3.92675
3.93776
3.94807
3.95772
3.96673
3.97512
3.98291
3.99012
3.99678
4.00291
4.00852
4.01362
4.01825
4.02241
4.02611
4.02938
4.03222
4.03465
4.03667
4.03827
4.03946
4.04087
4.04371
4.01723
4.06916
356.653
-123.234
12.9
3.34158
0.186588
0.347356
0.548891
0.65056
0.734816
0.818905
0.903131
0.986926
1.07013
1.15268
1.23453
1.31565
1.39598
1.47547
1.55409
1.6318
1.70855
1.78431
1.85905
1.93273
2.00531
2.07678
2.14709
2.21623
2.28417
2.35088
2.41634
2.48053
2.54343
2.60503
2.6653
2.72424
2.78183
2.83807
2.89293
2.94643
2.99855
3.04929
3.09866
3.14664
3.19324
3.23847
3.28234
3.32485
3.366
3.40581
3.4443
3.48147
3.51734
3.55192
3.58524
3.6173
3.64814
3.67776
3.7062
3.73347
3.75959
3.78459
3.80849
3.83133
3.85311
3.87387
3.89364
3.91244
3.9303
3.94724
3.96329
3.97848
3.99284
4.00638
4.01914
4.03115
4.04242
4.05299
4.06287
4.0721
4.08069
4.08867
4.09606
4.10288
4.10916
4.1149
4.12013
4.12486
4.12912
4.13292
4.13626
4.13917
4.14166
4.14372
4.14537
4.14661
4.14801
4.15051
4.12546
4.17614
356.654
-123.231
12.9056
3.34942
0.196659
0.359653
0.563406
0.667284
0.753738
0.840013
0.926412
1.01237
1.09771
1.18238
1.26635
1.34955
1.43194
1.51348
1.59413
1.67383
1.75255
1.83026
1.90691
1.98248
2.05692
2.13022
2.20233
2.27324
2.34291
2.41133
2.47846
2.54429
2.60879
2.67195
2.73376
2.7942
2.85325
2.91091
2.96717
3.02202
3.07545
3.12747
3.17808
3.22727
3.27504
3.32141
3.36637
3.40994
3.45212
3.49293
3.53237
3.57046
3.60722
3.64266
3.6768
3.70965
3.74125
3.7716
3.80073
3.82866
3.85542
3.88102
3.90551
3.92889
3.9512
3.97246
3.9927
4.01195
4.03023
4.04758
4.06401
4.07956
4.09425
4.10811
4.12117
4.13346
4.14499
4.1558
4.16592
4.17536
4.18415
4.19231
4.19987
4.20684
4.21326
4.21913
4.22448
4.22932
4.23368
4.23756
4.24098
4.24396
4.2465
4.24862
4.2503
4.25158
4.25298
4.25518
4.23143
4.28097
356.655
-123.228
12.9111
3.35711
0.206538
0.371716
0.577644
0.683688
0.772298
0.860718
0.949247
1.03732
1.12476
1.21152
1.29755
1.3828
1.46722
1.55076
1.63339
1.71505
1.7957
1.87531
1.95385
2.03126
2.10753
2.18262
2.2565
2.32914
2.40052
2.4706
2.53937
2.6068
2.67287
2.73757
2.80088
2.86278
2.92327
2.98232
3.03994
3.09611
3.15084
3.20411
3.25593
3.3063
3.35522
3.4027
3.44873
3.49334
3.53653
3.5783
3.61868
3.65767
3.6953
3.73157
3.76651
3.80014
3.83247
3.86353
3.89334
3.92192
3.9493
3.9755
4.00055
4.02447
4.04729
4.06904
4.08974
4.10942
4.12812
4.14585
4.16265
4.17855
4.19357
4.20774
4.22109
4.23365
4.24544
4.25649
4.26682
4.27646
4.28544
4.29378
4.30151
4.30863
4.31518
4.32118
4.32665
4.33159
4.33604
4.34001
4.3435
4.34655
4.34914
4.35131
4.35304
4.35435
4.35575
4.35769
4.3351
4.38363
356.656
-123.225
12.9165
3.36465
0.216222
0.38354
0.591601
0.699769
0.790492
0.881013
0.971631
1.06178
1.15128
1.24008
1.32813
1.41539
1.50179
1.5873
1.67187
1.75544
1.83799
1.91947
1.99985
2.07908
2.15714
2.23398
2.30959
2.38393
2.45697
2.52869
2.59906
2.66806
2.73567
2.80187
2.86664
2.92998
2.99186
3.05228
3.11123
3.1687
3.22469
3.27918
3.33219
3.38372
3.43376
3.48232
3.5294
3.57503
3.61919
3.66192
3.70321
3.74308
3.78155
3.81864
3.85437
3.88875
3.9218
3.95355
3.98402
4.01323
4.04122
4.06799
4.09359
4.11803
4.14135
4.16357
4.18472
4.20483
4.22393
4.24204
4.2592
4.27544
4.29078
4.30525
4.31888
4.3317
4.34373
4.35501
4.36556
4.3754
4.38457
4.39308
4.40096
4.40823
4.41492
4.42104
4.42661
4.43166
4.4362
4.44024
4.44381
4.44692
4.44957
4.45178
4.45354
4.4549
4.45629
4.458
4.43647
4.48408
356.657
-123.221
12.9217
3.37203
0.225709
0.395124
0.605273
0.715521
0.808314
0.900895
0.993559
1.08574
1.17725
1.26806
1.35809
1.44731
1.53566
1.62309
1.70956
1.79501
1.87941
1.96272
2.0449
2.12591
2.20571
2.28428
2.36158
2.43758
2.51225
2.58557
2.6575
2.72804
2.79715
2.86483
2.93104
2.99578
3.05903
3.12079
3.18103
3.23977
3.29698
3.35268
3.40685
3.4595
3.51064
3.56025
3.60837
3.65498
3.7001
3.74375
3.78593
3.82667
3.86597
3.90385
3.94034
3.97545
4.00921
4.04163
4.07274
4.10257
4.13114
4.15848
4.18461
4.20956
4.23336
4.25604
4.27763
4.29815
4.31764
4.33612
4.35363
4.37019
4.38584
4.4006
4.4145
4.42758
4.43985
4.45135
4.46211
4.47214
4.48149
4.49016
4.4982
4.50561
4.51242
4.51866
4.52435
4.52949
4.53412
4.53824