/*--------------------------------*- C++ -*----------------------------------*\
  =========                 |
  \\      /  F ield         | OpenFOAM: The Open Source CFD Toolbox
   \\    /   O peration     | Website:  https://openfoam.org
    \\  /    A nd           | Version:  10
     \\/     M anipulation  |
\*---------------------------------------------------------------------------*/
FoamFile
{
    format      ascii;
    class       volScalarField;
    location    "26.5";
    object      T;
}
// * * * * * * * * * * * * * * * * * * * * * * * * * * * * * * * * * * * * * //

dimensions      [0 0 0 1 0 0 0];

internalField   nonuniform List<scalar> 
10000
(
374.983
361.281
356.595
354.538
353.419
352.711
352.216
351.846
351.555
351.318
351.119
350.949
350.8
350.668
350.55
350.442
350.342
350.251
350.165
350.085
350.009
349.938
349.869
349.804
349.742
349.682
349.624
349.569
349.515
349.463
349.413
349.364
349.316
349.27
349.225
349.181
349.138
349.097
349.056
349.016
348.978
348.94
348.903
348.867
348.832
348.797
348.764
348.731
348.699
348.668
348.637
348.608
348.579
348.55
348.523
348.496
348.47
348.444
348.419
348.395
348.371
348.348
348.326
348.305
348.284
348.263
348.244
348.225
348.206
348.188
348.171
348.155
348.139
348.123
348.109
348.095
348.081
348.068
348.056
348.044
348.033
348.022
348.012
348.003
347.994
347.986
347.978
347.971
347.965
347.959
347.953
347.949
347.944
347.941
347.938
347.935
347.933
347.932
347.931
347.931
388.605
374.827
367.153
362.672
359.844
357.918
356.522
355.456
354.608
353.913
353.328
352.824
352.382
351.989
351.636
351.314
351.018
350.744
350.488
350.248
350.022
349.807
349.603
349.408
349.221
349.042
348.869
348.702
348.541
348.385
348.234
348.088
347.945
347.807
347.672
347.54
347.412
347.287
347.165
347.047
346.931
346.817
346.707
346.599
346.493
346.39
346.289
346.191
346.095
346.002
345.91
345.821
345.734
345.649
345.566
345.485
345.407
345.33
345.255
345.183
345.112
345.043
344.977
344.912
344.849
344.788
344.729
344.672
344.617
344.564
344.512
344.462
344.415
344.369
344.324
344.282
344.242
344.203
344.166
344.131
344.097
344.065
344.035
344.007
343.981
343.956
343.933
343.912
343.892
343.875
343.859
343.844
343.832
343.821
343.811
343.804
343.798
343.794
343.791
343.791
393.215
382.27
374.52
369.155
365.367
362.599
360.498
358.848
357.512
356.401
355.456
354.638
353.917
353.274
352.693
352.162
351.674
351.221
350.798
350.4
350.025
349.669
349.33
349.006
348.696
348.398
348.111
347.834
347.566
347.307
347.055
346.811
346.574
346.343
346.119
345.9
345.687
345.479
345.276
345.078
344.885
344.696
344.512
344.332
344.156
343.985
343.817
343.653
343.493
343.337
343.185
343.036
342.891
342.75
342.612
342.477
342.346
342.218
342.094
341.973
341.856
341.741
341.63
341.522
341.418
341.316
341.218
341.123
341.031
340.942
340.856
340.773
340.694
340.617
340.543
340.473
340.405
340.341
340.279
340.22
340.164
340.112
340.062
340.015
339.971
339.93
339.891
339.856
339.824
339.794
339.767
339.743
339.722
339.704
339.688
339.676
339.666
339.659
339.655
339.654
395.195
386.522
379.502
374.06
369.872
366.611
364.025
361.928
360.191
358.723
357.46
356.355
355.376
354.498
353.701
352.971
352.297
351.67
351.084
350.533
350.012
349.517
349.045
348.594
348.162
347.746
347.346
346.959
346.585
346.223
345.872
345.531
345.2
344.877
344.563
344.258
343.96
343.669
343.385
343.109
342.839
342.575
342.317
342.065
341.82
341.58
341.345
341.116
340.893
340.674
340.461
340.253
340.05
339.852
339.659
339.471
339.288
339.109
338.935
338.766
338.601
338.441
338.286
338.135
337.988
337.846
337.709
337.576
337.447
337.323
337.203
337.087
336.975
336.868
336.765
336.666
336.572
336.481
336.395
336.313
336.235
336.161
336.091
336.025
335.964
335.906
335.853
335.803
335.758
335.716
335.679
335.645
335.616
335.59
335.569
335.551
335.538
335.528
335.522
335.52
396.237
389.12
382.907
377.713
373.448
369.952
367.064
364.65
362.603
360.842
359.306
357.95
356.737
355.642
354.644
353.726
352.875
352.083
351.339
350.639
349.975
349.344
348.743
348.167
347.615
347.083
346.571
346.076
345.597
345.134
344.684
344.247
343.822
343.408
343.006
342.614
342.231
341.858
341.494
341.139
340.792
340.454
340.123
339.8
339.484
339.176
338.875
338.581
338.293
338.013
337.739
337.472
337.211
336.957
336.709
336.467
336.232
336.002
335.779
335.562
335.35
335.145
334.945
334.751
334.563
334.38
334.204
334.033
333.867
333.707
333.553
333.404
333.261
333.123
332.991
332.864
332.742
332.626
332.515
332.41
332.31
332.215
332.125
332.041
331.961
331.887
331.819
331.755
331.697
331.643
331.595
331.552
331.514
331.481
331.454
331.431
331.414
331.401
331.394
331.392
396.869
390.816
385.293
380.438
376.257
372.684
369.63
367.005
364.73
362.738
360.976
359.403
357.984
356.693
355.51
354.416
353.4
352.449
351.556
350.711
349.911
349.148
348.42
347.722
347.052
346.407
345.784
345.183
344.601
344.037
343.489
342.957
342.439
341.936
341.445
340.967
340.501
340.046
339.602
339.169
338.746
338.333
337.929
337.535
337.15
336.774
336.406
336.047
335.697
335.354
335.02
334.694
334.376
334.065
333.763
333.468
333.18
332.9
332.627
332.361
332.103
331.852
331.608
331.372
331.142
330.919
330.703
330.494
330.292
330.097
329.909
329.727
329.552
329.384
329.222
329.067
328.919
328.777
328.641
328.513
328.39
328.274
328.165
328.062
327.965
327.875
327.791
327.713
327.641
327.576
327.518
327.465
327.419
327.379
327.345
327.317
327.296
327.281
327.272
327.269
397.287
391.984
387.012
382.49
378.458
374.9
371.77
369.014
366.576
364.406
362.461
360.704
359.106
357.641
356.289
355.035
353.863
352.764
351.728
350.746
349.813
348.923
348.072
347.256
346.471
345.715
344.984
344.278
343.594
342.931
342.286
341.66
341.051
340.458
339.881
339.318
338.768
338.232
337.709
337.198
336.7
336.212
335.736
335.271
334.817
334.373
333.94
333.516
333.103
332.699
332.305
331.92
331.544
331.178
330.82
330.472
330.132
329.802
329.48
329.166
328.862
328.565
328.277
327.998
327.727
327.464
327.209
326.962
326.724
326.493
326.271
326.056
325.85
325.651
325.46
325.277
325.102
324.934
324.775
324.622
324.478
324.341
324.212
324.09
323.976
323.869
323.77
323.678
323.594
323.517
323.447
323.385
323.331
323.283
323.243
323.211
323.186
323.168
323.157
323.154
397.582
392.821
388.281
384.055
380.188
376.688
373.538
370.706
368.157
365.853
363.761
361.851
360.098
358.48
356.977
355.575
354.26
353.022
351.85
350.738
349.679
348.667
347.697
346.766
345.869
345.004
344.168
343.359
342.575
341.814
341.075
340.357
339.657
338.976
338.312
337.665
337.033
336.417
335.815
335.227
334.653
334.093
333.545
333.009
332.486
331.975
331.476
330.989
330.512
330.047
329.593
329.15
328.717
328.295
327.883
327.482
327.09
326.709
326.338
325.977
325.626
325.285
324.953
324.631
324.318
324.015
323.722
323.437
323.162
322.897
322.64
322.393
322.155
321.926
321.706
321.495
321.293
321.1
320.916
320.74
320.574
320.416
320.267
320.127
319.995
319.872
319.758
319.652
319.555
319.466
319.386
319.314
319.251
319.197
319.151
319.113
319.084
319.064
319.051
319.048
397.796
393.44
389.238
385.26
381.552
378.129
374.991
372.12
369.495
367.091
364.882
362.846
360.961
359.207
357.57
356.034
354.587
353.219
351.921
350.685
349.506
348.376
347.292
346.25
345.244
344.274
343.335
342.426
341.544
340.687
339.855
339.045
338.256
337.488
336.739
336.008
335.295
334.599
333.919
333.256
332.607
331.973
331.354
330.749
330.158
329.58
329.016
328.464
327.926
327.399
326.886
326.384
325.895
325.417
324.951
324.497
324.055
323.624
323.204
322.795
322.398
322.011
321.636
321.271
320.918
320.575
320.242
319.921
319.609
319.309
319.019
318.739
318.469
318.21
317.961
317.722
317.493
317.275
317.066
316.868
316.679
316.501
316.332
316.173
316.024
315.885
315.755
315.636
315.526
315.425
315.335
315.254
315.182
315.121
315.068
315.026
314.993
314.97
314.956
314.952
397.958
393.908
389.97
386.198
382.631
379.289
376.178
373.291
370.617
368.138
365.836
363.695
361.697
359.825
358.067
356.41
354.841
353.353
351.937
350.585
349.291
348.049
346.856
345.706
344.595
343.522
342.483
341.476
340.498
339.548
338.624
337.724
336.848
335.994
335.161
334.348
333.554
332.78
332.023
331.284
330.561
329.855
329.165
328.491
327.832
327.188
326.559
325.944
325.343
324.757
324.184
323.624
323.079
322.546
322.026
321.52
321.026
320.545
320.077
319.621
319.177
318.746
318.327
317.92
317.526
317.143
316.772
316.413
316.066
315.73
315.406
315.094
314.793
314.504
314.226
313.96
313.704
313.46
313.228
313.006
312.795
312.596
312.408
312.23
312.064
311.909
311.764
311.631
311.508
311.396
311.295
311.204
311.125
311.056
310.998
310.95
310.913
310.887
310.872
310.867
398.081
394.267
390.537
386.933
383.488
380.222
377.144
374.254
371.546
369.011
366.636
364.407
362.312
360.337
358.471
356.703
355.024
353.425
351.897
350.435
349.033
347.684
346.386
345.132
343.921
342.748
341.612
340.509
339.437
338.396
337.382
336.394
335.432
334.493
333.577
332.683
331.811
330.958
330.125
329.311
328.516
327.738
326.978
326.236
325.509
324.8
324.106
323.428
322.766
322.119
321.488
320.871
320.269
319.682
319.109
318.55
318.005
317.475
316.958
316.455
315.966
315.49
315.028
314.579
314.144
313.721
313.312
312.916
312.533
312.163
311.805
311.461
311.129
310.809
310.503
310.208
309.927
309.658
309.401
309.156
308.924
308.704
308.496
308.3
308.117
307.945
307.786
307.638
307.503
307.379
307.267
307.168
307.08
307.004
306.939
306.887
306.846
306.818
306.801
306.795
398.176
394.546
390.98
387.511
384.168
380.969
377.924
375.038
372.309
369.73
367.294
364.991
362.812
360.746
358.784
356.917
355.136
353.433
351.802
350.237
348.731
347.281
345.882
344.529
343.22
341.951
340.72
339.524
338.362
337.23
336.128
335.055
334.007
332.986
331.989
331.015
330.064
329.135
328.226
327.339
326.471
325.623
324.794
323.983
323.19
322.415
321.658
320.918
320.195
319.488
318.798
318.125
317.467
316.825
316.199
315.588
314.993
314.413
313.849
313.299
312.764
312.244
311.739
311.249
310.772
310.311
309.863
309.43
309.011
308.607
308.216
307.839
307.476
307.127
306.792
306.47
306.162
305.868
305.587
305.319
305.065
304.825
304.598
304.384
304.183
303.995
303.821
303.659
303.511
303.376
303.254
303.145
303.049
302.966
302.895
302.838
302.794
302.762
302.744
302.738
398.25
394.762
391.326
387.966
384.706
381.564
378.551
375.67
372.925
370.311
367.825
365.459
363.207
361.06
359.012
357.053
355.178
353.38
351.652
349.989
348.386
346.839
345.344
343.896
342.492
341.131
339.808
338.522
337.27
336.051
334.863
333.705
332.575
331.472
330.395
329.342
328.314
327.309
326.327
325.367
324.427
323.509
322.611
321.733
320.875
320.036
319.215
318.413
317.63
316.864
316.116
315.386
314.673
313.977
313.298
312.636
311.991
311.362
310.75
310.154
309.574
309.01
308.462
307.93
307.413
306.912
306.427
305.957
305.503
305.064
304.64
304.231
303.837
303.459
303.095
302.746
302.412
302.092
301.787
301.497
301.222
300.961
300.714
300.482
300.264
300.06
299.871
299.696
299.535
299.388
299.256
299.138
299.033
298.943
298.867
298.805
298.757
298.722
298.702
298.696
398.307
394.931
391.596
388.322
385.131
382.035
379.047
376.173
373.414
370.772
368.242
365.821
363.504
361.285
359.157
357.116
355.154
353.266
351.448
349.693
347.998
346.359
344.771
343.232
341.738
340.286
338.875
337.501
336.163
334.858
333.587
332.346
331.134
329.951
328.795
327.666
326.562
325.482
324.427
323.395
322.385
321.398
320.432
319.488
318.564
317.661
316.778
315.915
315.071
314.247
313.442
312.655
311.887
311.138
310.407
309.694
308.999
308.321
307.662
307.02
306.395
305.787
305.197
304.623
304.067
303.527
303.004
302.498
302.008
301.535
301.078
300.637
300.213
299.805
299.413
299.036
298.676
298.332
298.003
297.691
297.394
297.112
296.846
296.596
296.361
296.142
295.938
295.749
295.575
295.417
295.275
295.147
295.034
294.937
294.855
294.788
294.736
294.699
294.677
294.671
398.351
395.062
391.806
388.6
385.461
382.403
379.435
376.564
373.794
371.125
368.557
366.087
363.711
361.426
359.227
357.109
355.067
353.096
351.192
349.351
347.569
345.841
344.165
342.538
340.957
339.418
337.921
336.462
335.039
333.652
332.298
330.977
329.685
328.424
327.191
325.986
324.807
323.654
322.526
321.423
320.344
319.289
318.256
317.246
316.258
315.292
314.347
313.423
312.52
311.638
310.776
309.934
309.112
308.309
307.526
306.763
306.018
305.293
304.586
303.898
303.228
302.577
301.945
301.33
300.734
300.156
299.596
299.053
298.528
298.021
297.531
297.059
296.604
296.167
295.746
295.343
294.957
294.588
294.236
293.901
293.582
293.281
292.996
292.727
292.476
292.24
292.022
291.819
291.633
291.464
291.311
291.174
291.053
290.949
290.861
290.789
290.734
290.694
290.671
290.663
398.385
395.162
391.966
388.812
385.714
382.684
379.731
376.861
374.078
371.385
368.782
366.267
363.838
361.492
359.227
357.037
354.92
352.871
350.887
348.964
347.098
345.287
343.527
341.815
340.15
338.527
336.946
335.405
333.901
332.432
330.999
329.598
328.229
326.89
325.582
324.302
323.05
321.825
320.626
319.453
318.306
317.183
316.084
315.009
313.958
312.929
311.923
310.939
309.978
309.038
308.119
307.222
306.346
305.491
304.657
303.843
303.05
302.276
301.523
300.789
300.076
299.382
298.707
298.052
297.417
296.8
296.202
295.624
295.064
294.523
294.001
293.498
293.012
292.546
292.098
291.668
291.256
290.862
290.487
290.129
289.789
289.467
289.164
288.877
288.609
288.358
288.124
287.909
287.71
287.53
287.366
287.22
287.092
286.98
286.887
286.81
286.75
286.708
286.683
286.676
398.411
395.237
392.087
388.972
385.904
382.893
379.949
377.076
374.28
371.563
368.926
366.369
363.89
361.489
359.161
356.905
354.718
352.595
350.535
348.534
346.589
344.698
342.857
341.064
339.317
337.614
335.952
334.33
332.747
331.2
329.688
328.21
326.764
325.351
323.968
322.615
321.291
319.995
318.726
317.485
316.27
315.08
313.916
312.777
311.663
310.573
309.506
308.463
307.444
306.447
305.473
304.521
303.592
302.685
301.8
300.936
300.094
299.273
298.474
297.695
296.938
296.201
295.485
294.79
294.115
293.46
292.826
292.211
291.617
291.043
290.488
289.954
289.439
288.943
288.467
288.01
287.573
287.155
286.756
286.376
286.016
285.674
285.351
285.047
284.762
284.495
284.247
284.018
283.808
283.616
283.442
283.287
283.15
283.032
282.932
282.851
282.788
282.743
282.717
282.708
398.43
395.292
392.174
389.087
386.039
383.041
380.099
377.221
374.41
371.669
368.999
366.402
363.877
361.422
359.036
356.717
354.463
352.271
350.139
348.064
346.043
344.075
342.156
340.286
338.46
336.679
334.939
333.239
331.578
329.954
328.366
326.813
325.293
323.806
322.35
320.925
319.53
318.164
316.827
315.518
314.237
312.982
311.754
310.552
309.375
308.224
307.098
305.996
304.919
303.866
302.837
301.832
300.85
299.891
298.955
298.042
297.152
296.284
295.439
294.616
293.815
293.036
292.279
291.544
290.83
290.138
289.467
288.817
288.188
287.581
286.994
286.429
285.884
285.36
284.856
284.373
283.91
283.468
283.046
282.644
282.262
281.901
281.559
281.237
280.936
280.654
280.391
280.149
279.926
279.723
279.539
279.375
279.231
279.106
279
278.914
278.847
278.8
278.772
278.763
398.442
395.33
392.234
389.164
386.129
383.136
380.193
377.305
374.477
371.711
369.009
366.373
363.803
361.298
358.856
356.478
354.161
351.903
349.702
347.556
345.463
343.42
341.427
339.481
337.58
335.723
333.907
332.132
330.396
328.697
327.035
325.408
323.815
322.255
320.729
319.233
317.769
316.335
314.93
313.554
312.207
310.888
309.597
308.332
307.095
305.883
304.698
303.539
302.405
301.296
300.213
299.154
298.12
297.11
296.125
295.163
294.225
293.311
292.42
291.553
290.709
289.888
289.09
288.315
287.563
286.833
286.126
285.441
284.778
284.138
283.52
282.923
282.349
281.796
281.265
280.756
280.268
279.802
279.357
278.933
278.531
278.149
277.789
277.45
277.132
276.834
276.558
276.302
276.067
275.853
275.659
275.486
275.334
275.202
275.091
275
274.929
274.879
274.85
274.84
398.45
395.353
392.271
389.21
386.18
383.187
380.238
377.337
374.489
371.698
368.964
366.29
363.675
361.122
358.627
356.192
353.814
351.493
349.226
347.012
344.849
342.736
340.671
338.652
336.678
334.747
332.858
331.009
329.2
327.428
325.694
323.995
322.331
320.701
319.104
317.54
316.007
314.505
313.034
311.593
310.182
308.799
307.445
306.12
304.822
303.551
302.308
301.092
299.902
298.738
297.601
296.489
295.404
294.343
293.308
292.298
291.313
290.353
289.418
288.507
287.62
286.758
285.919
285.105
284.315
283.548
282.805
282.085
281.389
280.716
280.066
279.439
278.835
278.254
277.696
277.161
276.648
276.158
275.69
275.245
274.822
274.421
274.042
273.686
273.351
273.039
272.748
272.479
272.232
272.007
271.803
271.621
271.461
271.322
271.205
271.11
271.036
270.983
270.952
270.942
398.454
395.364
392.287
389.23
386.199
383.2
380.24
377.324
374.454
371.635
368.869
366.157
363.5
360.899
358.353
355.863
353.427
351.045
348.714
346.435
344.205
342.024
339.889
337.8
335.755
333.753
331.793
329.873
327.992
326.149
324.344
322.575
320.841
319.142
317.477
315.845
314.245
312.678
311.142
309.636
308.161
306.716
305.301
303.915
302.557
301.229
299.928
298.655
297.41
296.192
295.002
293.838
292.701
291.591
290.507
289.45
288.418
287.413
286.433
285.478
284.55
283.646
282.768
281.914
281.086
280.283
279.504
278.75
278.02
277.315
276.634
275.977
275.344
274.735
274.15
273.589
273.052
272.538
272.047
271.58
271.137
270.717
270.32
269.946
269.595
269.268
268.963
268.681
268.422
268.186
267.972
267.782
267.613
267.468
267.345
267.245
267.167
267.112
267.08
267.069
398.455
395.365
392.287
389.226
386.189
383.18
380.206
377.27
374.377
371.53
368.73
365.98
363.281
360.634
358.039
355.495
353.003
350.562
348.17
345.828
343.533
341.286
339.084
336.927
334.814
332.742
330.713
328.723
326.773
324.861
322.987
321.149
319.347
317.58
315.848
314.15
312.485
310.852
309.252
307.684
306.146
304.64
303.164
301.718
300.302
298.916
297.559
296.23
294.931
293.659
292.416
291.201
290.014
288.855
287.723
286.618
285.54
284.49
283.466
282.469
281.498
280.554
279.636
278.744
277.878
277.039
276.225
275.436
274.673
273.936
273.224
272.537
271.876
271.239
270.628
270.041
269.479
268.942
268.429
267.941
267.477
267.038
266.623
266.232
265.865
265.522
265.203
264.909
264.638
264.391
264.168
263.968
263.792
263.64
263.512
263.407
263.326
263.268
263.234
263.223
398.452
395.357
392.273
389.203
386.154
383.132
380.14
377.183
374.264
371.386
368.553
365.765
363.024
360.332
357.688
355.092
352.545
350.047
347.596
345.193
342.836
340.524
338.257
336.034
333.854
331.716
329.618
327.561
325.543
323.564
321.622
319.718
317.849
316.016
314.219
312.455
310.726
309.03
307.367
305.736
304.137
302.571
301.035
299.531
298.057
296.614
295.201
293.818
292.464
291.14
289.845
288.58
287.343
286.135
284.955
283.804
282.68
281.585
280.518
279.478
278.467
277.482
276.525
275.595
274.692
273.817
272.968
272.145
271.35
270.581
269.838
269.122
268.432
267.768
267.13
266.518
265.932
265.371
264.836
264.327
263.843
263.385
262.952
262.544
262.161
261.804
261.471
261.163
260.881
260.623
260.39
260.182
259.999
259.84
259.706
259.597
259.512
259.452
259.416
259.405
398.447
395.342
392.246
389.163
386.099
383.059
380.046
377.065
374.118
371.21
368.342
365.516
362.733
359.996
357.304
354.657
352.057
349.503
346.995
344.532
342.114
339.741
337.411
335.123
332.878
330.675
328.512
326.389
324.305
322.26
320.252
318.282
316.348
314.451
312.589
310.762
308.969
307.21
305.486
303.794
302.135
300.509
298.915
297.353
295.822
294.323
292.855
291.418
290.012
288.636
287.29
285.974
284.688
283.432
282.205
281.007
279.839
278.7
277.59
276.509
275.456
274.432
273.436
272.468
271.529
270.617
269.734
268.878
268.05
267.25
266.477
265.732
265.013
264.322
263.658
263.021
262.411
261.827
261.27
260.74
260.236
259.759
259.308
258.884
258.485
258.113
257.767
257.446
257.152
256.884
256.641
256.425
256.234
256.068
255.929
255.815
255.727
255.664
255.627
255.615
398.44
395.32
392.208
389.109
386.026
382.964
379.928
376.92
373.945
371.004
368.1
365.235
362.411
359.629
356.89
354.194
351.542
348.934
346.369
343.849
341.371
338.937
336.546
334.196
331.888
329.621
327.394
325.206
323.058
320.949
318.877
316.843
314.845
312.884
310.959
309.07
307.215
305.396
303.61
301.859
300.141
298.456
296.804
295.186
293.599
292.045
290.523
289.032
287.574
286.146
284.75
283.385
282.05
280.747
279.473
278.23
277.018
275.835
274.683
273.56
272.467
271.403
270.369
269.364
268.389
267.442
266.525
265.636
264.776
263.945
263.142
262.367
261.621
260.903
260.213
259.551
258.917
258.311
257.732
257.181
256.658
256.162
255.693
255.252
254.838
254.451
254.092
253.759
253.453
253.174
252.922
252.697
252.498
252.327
252.182
252.063
251.971
251.906
251.868
251.855
398.431
395.292
392.161
389.041
385.937
382.852
379.789
376.753
373.747
370.772
367.832
364.928
362.063
359.236
356.45
353.705
351.002
348.34
345.721
343.144
340.609
338.116
335.665
333.254
330.884
328.555
326.266
324.016
321.805
319.632
317.498
315.401
313.341
311.318
309.331
307.381
305.466
303.586
301.741
299.93
298.154
296.412
294.704
293.029
291.388
289.78
288.204
286.661
285.151
283.673
282.227
280.813
279.431
278.08
276.761
275.474
274.217
272.992
271.797
270.634
269.501
268.398
267.326
266.285
265.273
264.292
263.341
262.419
261.527
260.665
259.833
259.03
258.256
257.511
256.796
256.109
255.452
254.823
254.223
253.651
253.109
252.594
252.108
251.651
251.221
250.82
250.447
250.101
249.784
249.495
249.233
249
248.794
248.616
248.465
248.342
248.247
248.18
248.14
248.127
398.42
395.259
392.106
388.963
385.834
382.722
379.632
376.566
373.527
370.518
367.541
364.597
361.69
358.819
355.987
353.193
350.44
347.726
345.053
342.421
339.83
337.279
334.769
332.299
329.869
327.479
325.129
322.818
320.545
318.312
316.116
313.957
311.837
309.753
307.706
305.695
303.72
301.782
299.878
298.01
296.177
294.378
292.615
290.885
289.189
287.528
285.9
284.305
282.744
281.216
279.721
278.259
276.83
275.433
274.069
272.737
271.438
270.17
268.934
267.73
266.558
265.417
264.308
263.23
262.183
261.167
260.183
259.229
258.306
257.413
256.552
255.72
254.919
254.148
253.407
252.696
252.016
251.365
250.743
250.152
249.59
249.057
248.554
248.08
247.635
247.219
246.833
246.475
246.147
245.847
245.576
245.334
245.121
244.937
244.781
244.654
244.555
244.485
244.443
244.43
398.408
395.223
392.045
388.875
385.719
382.579
379.459
376.361
373.289
370.244
367.229
364.245
361.296
358.381
355.503
352.661
349.858
347.094
344.368
341.682
339.035
336.428
333.86
331.333
328.844
326.395
323.985
321.614
319.282
316.988
314.732
312.514
310.333
308.19
306.083
304.014
301.981
299.984
298.023
296.099
294.209
292.356
290.537
288.753
287.004
285.29
283.611
281.965
280.354
278.777
277.234
275.725
274.249
272.807
271.398
270.023
268.68
267.371
266.094
264.85
263.639
262.461
261.315
260.201
259.119
258.069
257.052
256.066
255.112
254.19
253.299
252.439
251.611
250.814
250.049
249.314
248.61
247.937
247.295
246.683
246.102
245.551
245.031
244.541
244.081
243.651
243.251
242.882
242.542
242.232
241.952
241.702
241.481
241.291
241.129
240.998
240.896
240.823
240.781
240.767
398.394
395.182
391.977
388.78
385.594
382.424
379.272
376.141
373.034
369.952
366.899
363.875
360.883
357.925
355
352.112
349.259
346.444
343.667
340.927
338.227
335.564
332.941
330.356
327.811
325.304
322.835
320.406
318.015
315.662
313.347
311.07
308.831
306.629
304.465
302.338
300.248
298.194
296.177
294.197
292.252
290.344
288.472
286.635
284.834
283.068
281.338
279.642
277.982
276.357
274.766
273.21
271.689
270.202
268.749
267.33
265.946
264.595
263.278
261.995
260.746
259.53
258.347
257.198
256.082
254.999
253.949
252.931
251.947
250.995
250.075
249.188
248.333
247.511
246.72
245.962
245.235
244.541
243.877
243.246
242.646
242.077
241.54
241.034
240.56
240.116
239.703
239.322
238.971
238.651
238.362
238.103
237.876
237.679
237.512
237.376
237.271
237.196
237.152
237.138
398.38
395.139
391.904
388.677
385.46
382.258
379.073
375.908
372.764
369.645
366.553
363.489
360.454
357.452
354.482
351.546
348.646
345.781
342.952
340.161
337.407
334.69
332.012
329.372
326.77
324.206
321.681
319.194
316.745
314.335
311.963
309.628
307.332
305.073
302.852
300.668
298.522
296.413
294.34
292.305
290.307
288.345
286.42
284.531
282.678
280.862
279.081
277.337
275.628
273.955
272.318
270.716
269.15
267.618
266.122
264.661
263.235
261.844
260.488
259.166
257.879
256.626
255.407
254.223
253.073
251.957
250.874
249.826
248.811
247.83
246.882
245.968
245.087
244.239
243.424
242.642
241.893
241.177
240.493
239.842
239.223
238.637
238.083
237.562
237.072
236.615
236.189
235.796
235.434
235.104
234.806
234.539
234.305
234.101
233.93
233.79
233.681
233.604
233.558
233.543
398.365
395.092
391.826
388.567
385.319
382.083
378.864
375.663
372.483
369.325
366.193
363.088
360.011
356.965
353.95
350.968
348.019
345.105
342.226
339.383
336.577
333.807
331.075
328.38
325.723
323.104
320.523
317.98
315.475
313.008
310.58
308.189
305.836
303.521
301.244
299.005
296.804
294.64
292.514
290.425
288.373
286.359
284.382
282.442
280.538
278.672
276.843
275.05
273.293
271.574
269.89
268.243
266.632
265.057
263.519
262.016
260.549
259.118
257.722
256.362
255.038
253.749
252.495
251.276
250.092
248.944
247.83
246.75
245.706
244.696
243.72
242.779
241.872
240.999
240.16
239.355
238.584
237.846
237.142
236.472
235.835
235.231
234.661
234.124
233.62
233.149
232.71
232.305
231.933
231.593
231.286
231.011
230.77
230.56
230.383
230.239
230.127
230.048
230.001
229.985
398.348
395.044
391.745
388.453
385.17
381.9
378.646
375.408
372.19
368.994
365.822
362.675
359.556
356.466
353.406
350.377
347.381
344.418
341.49
338.596
335.738
332.917
330.131
327.383
324.672
321.999
319.363
316.765
314.205
311.683
309.199
306.753
304.345
301.975
299.644
297.35
295.095
292.878
290.698
288.556
286.453
284.387
282.359
280.368
278.415
276.5
274.622
272.781
270.978
269.212
267.484
265.792
264.138
262.52
260.939
259.395
257.888
256.418
254.984
253.586
252.225
250.9
249.611
248.358
247.141
245.961
244.815
243.706
242.632
241.593
240.59
239.622
238.69
237.792
236.929
236.102
235.308
234.55
233.826
233.137
232.481
231.861
231.274
230.722
230.203
229.718
229.268
228.851
228.468
228.118
227.802
227.52
227.271
227.056
226.874
226.725
226.61
226.529
226.48
226.464
398.332
394.993
391.66
388.334
385.016
381.711
378.419
375.145
371.888
368.653
365.44
362.252
359.09
355.956
352.851
349.776
346.733
343.722
340.745
337.802
334.893
332.02
329.183
326.382
323.618
320.891
318.202
315.55
312.936
310.36
307.821
305.321
302.86
300.436
298.051
295.704
293.396
291.126
288.894
286.701
284.546
282.429
280.351
278.311
276.309
274.346
272.42
270.533
268.684
266.873
265.099
263.364
261.667
260.007
258.385
256.8
255.254
253.744
252.272
250.838
249.44
248.08
246.757
245.47
244.221
243.008
241.832
240.693
239.59
238.523
237.493
236.499
235.541
234.619
233.733
232.883
232.068
231.289
230.545
229.837
229.164
228.526
227.923
227.356
226.823
226.325
225.862
225.434
225.04
224.681
224.356
224.066
223.811
223.589
223.402
223.25
223.131
223.047
222.997
222.981
398.314
394.941
391.573
388.211
384.857
381.515
378.187
374.874
371.579
368.304
365.05
361.821
358.616
355.438
352.288
349.168
346.078
343.019
339.994
337.001
334.043
331.119
328.231
325.379
322.563
319.783
317.041
314.336
311.669
309.04
306.449
303.896
301.381
298.904
296.467
294.068
291.707
289.386
287.103
284.859
282.654
280.487
278.36
276.271
274.221
272.211
270.238
268.305
266.411
264.555
262.738
260.959
259.22
257.518
255.856
254.231
252.646
251.098
249.589
248.117
246.684
245.289
243.932
242.613
241.331
240.088
238.881
237.712
236.581
235.487
234.43
233.41
232.427
231.481
230.572
229.699
228.863
228.063
227.3
226.573
225.883
225.228
224.61
224.027
223.48
222.969
222.494
222.055
221.65
221.282
220.949
220.651
220.389
220.161
219.97
219.813
219.691
219.605
219.554
219.537
398.296
394.887
391.483
388.084
384.694
381.315
377.948
374.597
371.263
367.947
364.653
361.381
358.134
354.912
351.718
348.552
345.416
342.31
339.237
336.196
333.188
330.215
327.277
324.373
321.506
318.676
315.882
313.125
310.406
307.724
305.081
302.476
299.909
297.381
294.892
292.442
290.03
287.658
285.325
283.031
280.776
278.561
276.386
274.249
272.152
270.095
268.077
266.099
264.16
262.26
260.4
258.579
256.798
255.056
253.353
251.689
250.065
248.48
246.934
245.427
243.959
242.529
241.139
239.787
238.474
237.199
235.963
234.765
233.606
232.484
231.401
230.355
229.348
228.378
227.446
226.552
225.695
224.875
224.093
223.347
222.639
221.968
221.334
220.737
220.176
219.652
219.165
218.714
218.3
217.922
217.58
217.275
217.006
216.773
216.576
216.416
216.291
216.202
216.15
216.133
398.278
394.832
391.391
387.955
384.528
381.111
377.706
374.315
370.941
367.585
364.25
360.936
357.646
354.381
351.142
347.931
344.749
341.597
338.476
335.387
332.331
329.309
326.321
323.368
320.451
317.57
314.725
311.917
309.147
306.415
303.72
301.064
298.446
295.867
293.328
290.827
288.365
285.943
283.561
281.218
278.915
276.652
274.429
272.246
270.103
268
265.937
263.914
261.931
259.988
258.086
256.224
254.401
252.619
250.877
249.175
247.513
245.891
244.308
242.766
241.263
239.8
238.377
236.993
235.649
234.344
233.078
231.852
230.664
229.516
228.407
227.336
226.305
225.312
224.357
223.441
222.563
221.724
220.923
220.159
219.434
218.747
218.097
217.485
216.911
216.375
215.875
215.414
214.989
214.602
214.252
213.939
213.664
213.425
213.223
213.059
212.931
212.84
212.786
212.769
398.259
394.776
391.297
387.824
384.358
380.903
377.459
374.029
370.615
367.219
363.842
360.486
357.153
353.845
350.562
347.306
344.079
340.88
337.713
334.577
331.473
328.402
325.366
322.364
319.397
316.466
313.572
310.714
307.894
305.111
302.366
299.66
296.992
294.364
291.774
289.224
286.714
284.243
281.812
279.422
277.071
274.761
272.491
270.262
268.074
265.926
263.818
261.752
259.726
257.741
255.797
253.894
252.031
250.21
248.429
246.689
244.99
243.331
241.713
240.136
238.599
237.103
235.648
234.232
232.857
231.522
230.228
228.973
227.759
226.584
225.449
224.354
223.298
222.282
221.306
220.368
219.47
218.611
217.791
217.01
216.268
215.565
214.9
214.274
213.686
213.137
212.626
212.154
211.719
211.323
210.965
210.645
210.362
210.118
209.912
209.743
209.612
209.519
209.464
209.446
398.24
394.719
391.202
387.691
384.187
380.692
377.209
373.739
370.285
366.848
363.43
360.032
356.657
353.305
349.978
346.678
343.406