/*--------------------------------*- C++ -*----------------------------------*\
  =========                 |
  \\      /  F ield         | OpenFOAM: The Open Source CFD Toolbox
   \\    /   O peration     | Website:  https://openfoam.org
    \\  /    A nd           | Version:  10
     \\/     M anipulation  |
\*---------------------------------------------------------------------------*/
FoamFile
{
    format      ascii;
    class       volScalarField;
    location    "0.3";
    object      T;
}
// * * * * * * * * * * * * * * * * * * * * * * * * * * * * * * * * * * * * * //

dimensions      [0 0 0 1 0 0 0];

internalField   nonuniform List<scalar> 
100
(
1
1
1
1
1
1
1
1
1
1
1
1
1
1
1
1
1
1
1
0.999999
0.999993
0.999972
0.999883
0.999531
0.998163
0.99294
0.97332
0.915921
0.804295
0.635037
0.424591
0.209922
0.0458077
0.000618238
8.21595e-06
1.07887e-07
1.40348e-09
1.81224e-11
2.32488e-13
2.69925e-15
-3.42329e-16
-4.61293e-16
-3.87736e-16
-2.29559e-16
-8.44676e-17
5.3338e-18
3.90917e-17
3.66134e-17
2.04475e-17
5.63802e-18
-2.22964e-18
-3.97526e-18
-2.68849e-18
-9.4399e-19
1.01673e-19
3.85638e-19
2.73109e-19
9.26972e-20
-1.20319e-20
-3.62279e-20
-2.28102e-20
-5.96678e-21
2.16706e-21
3.10246e-21
1.50094e-21
1.75013e-22
-2.72615e-22
-2.16953e-22
-6.75447e-23
1.14891e-23
2.30733e-23
1.09437e-23
1.0283e-24
-1.90198e-24
-1.3016e-24
-3.02572e-25
1.17185e-25
1.27656e-25
4.29732e-26
-4.02644e-27
-1.08487e-26
-4.6925e-27
-1.94375e-28
8.22189e-28
4.37603e-28
5.36383e-29
-5.6745e-29
-3.64753e-29
-6.46577e-30
3.63508e-30
2.7885e-30
6.00481e-31
-2.20676e-31
-1.98823e-31
-4.78673e-32
1.30091e-32
1.33732e-32
3.41373e-33
-7.82977e-34
-7.05958e-34
)
;

boundaryField
{
    top
    {
        type            zeroGradient;
    }
    bottom
    {
        type            zeroGradient;
    }
    in
    {
        type            fixedValue;
        value           uniform 1;
    }
    out
    {
        type            zeroGradient;
    }
    frontAndBack
    {
        type            empty;
    }
}


// ************************************************************************* //
