/*--------------------------------*- C++ -*----------------------------------*\
  =========                 |
  \\      /  F ield         | OpenFOAM: The Open Source CFD Toolbox
   \\    /   O peration     | Website:  https://openfoam.org
    \\  /    A nd           | Version:  10
     \\/     M anipulation  |
\*---------------------------------------------------------------------------*/
FoamFile
{
    format      ascii;
    class       volScalarField;
    location    "30.5";
    object      T_0;
}
// * * * * * * * * * * * * * * * * * * * * * * * * * * * * * * * * * * * * * //

dimensions      [0 0 -1 0 0 0 0];

internalField   nonuniform List<scalar> 
100
(
0.749746
2.24227
3.7149
5.15455
6.54845
7.88423
9.15003
10.3346
11.4275
12.4189
13.3001
14.0632
14.7015
15.2094
15.5822
15.8167
15.9108
15.8637
15.6758
15.3488
14.8855
14.2901
13.5679
12.7252
11.7696
10.7096
9.55442
8.31449
7.00075
5.62488
4.19908
2.73602
1.24867
-0.249761
-1.74597
-3.22668
-4.67876
-6.08929
-7.44578
-8.73618
-9.94903
-11.0736
-12.0998
-13.0187
-13.822
-14.5026
-15.0545
-15.4727
-15.7536
-15.8947
-15.8947
-15.7536
-15.4727
-15.0544
-14.5026
-13.822
-13.0187
-12.0998
-11.0736
-9.94901
-8.73615
-7.44575
-6.08926
-4.67872
-3.22665
-1.74593
-0.249721
1.24871
2.73606
4.19913
5.62492
7.0008
8.31453
9.55447
10.7096
11.7697
12.7253
13.5679
14.2902
14.8856
15.3488
15.6759
15.8638
15.9109
15.8167
15.5822
15.2094
14.7016
14.0632
13.3001
12.4189
11.4275
10.3346
9.15004
7.88425
6.54847
5.15456
3.71491
2.24228
0.749748
)
;

boundaryField
{
    xmin
    {
        type            fixedValue;
        value           uniform 0;
    }
    xmax
    {
        type            fixedValue;
        value           uniform 0;
    }
    frontAndBack
    {
        type            empty;
    }
}


// ************************************************************************* //
