/*--------------------------------*- C++ -*----------------------------------*\
| =========                 |                                                 |
| \\      /  F ield         | OpenFOAM: The Open Source CFD Toolbox           |
|  \\    /   O peration     | Version:  2406                                  |
|   \\  /    A nd           | Website:  www.openfoam.com                      |
|    \\/     M anipulation  |                                                 |
\*---------------------------------------------------------------------------*/
FoamFile
{
    version     2.0;
    format      ascii;
    arch        "LSB;label=32;scalar=64";
    class       volScalarField;
    location    "15.5";
    object      p;
}
// * * * * * * * * * * * * * * * * * * * * * * * * * * * * * * * * * * * * * //

dimensions      [0 2 -2 0 0 0 0];

internalField   nonuniform List<scalar> 
34560
(
-11.784293
-11.791414
-11.802409
-11.818434
-11.839723
-11.865399
-11.893922
-11.924655
-11.954779
-11.75125
-11.760668
-11.775304
-11.796606
-11.824691
-11.85808
-11.894315
-11.932001
-11.968302
-11.719446
-11.731304
-11.749688
-11.776114
-11.810485
-11.850647
-11.893086
-11.935859
-11.976057
-11.686128
-11.700431
-11.722677
-11.754438
-11.795208
-11.842001
-11.89022
-11.937394
-11.981003
-11.652357
-11.669148
-11.695291
-11.732422
-11.779537
-11.83275
-11.886548
-11.937833
-11.984493
-11.620239
-11.639258
-11.66899
-11.711144
-11.764211
-11.823362
-11.882369
-11.93746
-11.986804
-11.590501
-11.611544
-11.644561
-11.691326
-11.74981
-11.814277
-11.877965
-11.936522
-11.988223
-11.563939
-11.586775
-11.622703
-11.673542
-11.736778
-11.805855
-11.873597
-11.935199
-11.988956
-11.541348
-11.565696
-11.604083
-11.658354
-11.725572
-11.798477
-11.869572
-11.933708
-11.989195
-11.523736
-11.549238
-11.589522
-11.646449
-11.716734
-11.792572
-11.866225
-11.932305
-11.989144
-11.511808
-11.538098
-11.579673
-11.638386
-11.710715
-11.788503
-11.863851
-11.931231
-11.988995
-11.505422
-11.532157
-11.574437
-11.634103
-11.707506
-11.786312
-11.86254
-11.930596
-11.988847
-11.505422
-11.532157
-11.574437
-11.634103
-11.707506
-11.786313
-11.862541
-11.930597
-11.988847
-11.511808
-11.538099
-11.579673
-11.638386
-11.710715
-11.788503
-11.863851
-11.931232
-11.988995
-11.523737
-11.549238
-11.589522
-11.646449
-11.716734
-11.792573
-11.866225
-11.932306
-11.989145
-11.541349
-11.565696
-11.604083
-11.658355
-11.725572
-11.798477
-11.869572
-11.933708
-11.989195
-11.563939
-11.586775
-11.622703
-11.673541
-11.736778
-11.805855
-11.873597
-11.935198
-11.988955
-11.590501
-11.611544
-11.644562
-11.691326
-11.74981
-11.814277
-11.877965
-11.936521
-11.988221
-11.620241
-11.63926
-11.668991
-11.711146
-11.764212
-11.823363
-11.882369
-11.937458
-11.986801
-11.652359
-11.66915
-11.695294
-11.732425
-11.77954
-11.832752
-11.886549
-11.937832
-11.98449
-11.686132
-11.700435
-11.722681
-11.754443
-11.795212
-11.842004
-11.890221
-11.937393
-11.980999
-11.719452
-11.73131
-11.749694
-11.77612
-11.81049
-11.850652
-11.893089
-11.935859
-11.976055
-11.751257
-11.760675
-11.775311
-11.796613
-11.824698
-11.858086
-11.89432
-11.932005
-11.968303
-11.784302
-11.791423
-11.802418
-11.818443
-11.839731
-11.865406
-11.893929
-11.924661
-11.954782
-11.567709
-11.565649
-11.563151
-11.559507
-11.553334
-11.543959
-11.531294
-11.515659
-11.500192
-11.590725
-11.587919
-11.584149
-11.578231
-11.568288
-11.553932
-11.536461
-11.517313
-11.499753
-11.616334
-11.612816
-11.607984
-11.600129
-11.5867
-11.567345
-11.544887
-11.522062
-11.50203
-11.641527
-11.637257
-11.631364
-11.621708
-11.605149
-11.581182
-11.553946
-11.527507
-11.504701
-11.66599
-11.661006
-11.65406
-11.642582
-11.623066
-11.59482
-11.562934
-11.532963
-11.507417
-11.688906
-11.683308
-11.675413
-11.66224
-11.640036
-11.608014
-11.571797
-11.538434
-11.510332
-11.709678
-11.703522
-11.694746
-11.679982
-11.655319
-11.620141
-11.58026
-11.543721
-11.513271
-11.727872
-11.721251
-11.711707
-11.695512
-11.668645
-11.63079
-11.587888
-11.54849
-11.515818
-11.743009
-11.736025
-11.72586
-11.708463
-11.679723
-11.639639
-11.594282
-11.552388
-11.517655
-11.754684
-11.747445
-11.736816
-11.718478
-11.688243
-11.646359
-11.599114
-11.555261
-11.518925
-11.762643
-11.755226
-11.744268
-11.725263
-11.693966
-11.650789
-11.602226
-11.557121
-11.519768
-11.766649
-11.759155
-11.748042
-11.728705
-11.696859
-11.653007
-11.603757
-11.558029
-11.520181
-11.766649
-11.759155
-11.748043
-11.728705
-11.696859
-11.653007
-11.603757
-11.558029
-11.520181
-11.762643
-11.755226
-11.744268
-11.725264
-11.693966
-11.65079
-11.602227
-11.557121
-11.519768
-11.754685
-11.747446
-11.736817
-11.718479
-11.688244
-11.64636
-11.599115
-11.555261
-11.518925
-11.74301
-11.736026
-11.725861
-11.708464
-11.679724
-11.63964
-11.594282
-11.552389
-11.517654
-11.727874
-11.721252
-11.711709
-11.695514
-11.668646
-11.630791
-11.587889
-11.54849
-11.515817
-11.70968
-11.703525
-11.694748
-11.679984
-11.655321
-11.620142
-11.580261
-11.543721
-11.51327
-11.688909
-11.683311
-11.675416
-11.662243
-11.640039
-11.608016
-11.571798
-11.538434
-11.510331
-11.665994
-11.66101
-11.654064
-11.642586
-11.62307
-11.594823
-11.562936
-11.532964
-11.507417
-11.641531
-11.637262
-11.631369
-11.621713
-11.605154
-11.581186
-11.55395
-11.527508
-11.504701
-11.616339
-11.612822
-11.60799
-11.600135
-11.586705
-11.56735
-11.544892
-11.522065
-11.502031
-11.590731
-11.587925
-11.584155
-11.578237
-11.568295
-11.553938
-11.536466
-11.517318
-11.499756
-11.567717
-11.565657
-11.563158
-11.559515
-11.553341
-11.543966
-11.531301
-11.515665
-11.500196
-10.779408
-10.77887
-10.778535
-10.778849
-10.779951
-10.781201
-10.780784
-10.777849
-10.773971
-10.783483
-10.782767
-10.782203
-10.782351
-10.783425
-10.784665
-10.784085
-10.780706
-10.776578
-10.787113
-10.786244
-10.785543
-10.785717
-10.787144
-10.788963
-10.788774
-10.785374
-10.78099
-10.789613
-10.78859
-10.78775
-10.787962
-10.789795
-10.792369
-10.792805
-10.789495
-10.784743
-10.791656
-10.7905
-10.789529
-10.789717
-10.791755
-10.794885
-10.795912
-10.792745
-10.787795
-10.793605
-10.792324
-10.791246
-10.791408
-10.793505
-10.796914
-10.798376
-10.795356
-10.790324
-10.795412
-10.794023
-10.792878
-10.793071
-10.795238
-10.798677
-10.800285
-10.797435
-10.792418
-10.797081
-10.795605
-10.794422
-10.794682
-10.796946
-10.800316
-10.801859
-10.799175
-10.794301
-10.798552
-10.797009
-10.79581
-10.796151
-10.798523
-10.801826
-10.803243
-10.800765
-10.796147
-10.799763
-10.798169
-10.79697
-10.797399
-10.799893
-10.803197
-10.804502
-10.802189
-10.797737
-10.800631
-10.798999
-10.797806
-10.798313
-10.800918
-10.80427
-10.80553
-10.803263
-10.798847
-10.801068
-10.799422
-10.798236
-10.798791
-10.801464
-10.804857
-10.806109
-10.803849
-10.799421
-10.801068
-10.799422
-10.798236
-10.798791
-10.801464
-10.804857
-10.806109
-10.803849
-10.799421
-10.800631
-10.798999
-10.797806
-10.798314
-10.800919
-10.80427
-10.805531
-10.803263
-10.798847
-10.799763
-10.798169
-10.79697
-10.7974
-10.799894
-10.803198
-10.804503
-10.802189
-10.797737
-10.798553
-10.797009
-10.795811
-10.796152
-10.798524
-10.801827
-10.803244
-10.800766
-10.796147
-10.797082
-10.795606
-10.794424
-10.794684
-10.796948
-10.800318
-10.80186
-10.799175
-10.794301
-10.795414
-10.794025
-10.79288
-10.793074
-10.79524
-10.798679
-10.800287
-10.797436
-10.792418
-10.793608
-10.792327
-10.79125
-10.791411
-10.793508
-10.796917
-10.798379
-10.795357
-10.790325
-10.79166
-10.790504
-10.789533
-10.789721
-10.79176
-10.794889
-10.795916
-10.792747
-10.787796
-10.789618
-10.788595
-10.787756
-10.787967
-10.7898
-10.792374
-10.792809
-10.789498
-10.784745
-10.787118
-10.78625
-10.785549
-10.785723
-10.78715
-10.788968
-10.788779
-10.785379
-10.780993
-10.78349
-10.782773
-10.78221
-10.782358
-10.783432
-10.784672
-10.784091
-10.780711
-10.776582
-10.779415
-10.778877
-10.778542
-10.778856
-10.779959
-10.781209
-10.780791
-10.777855
-10.773977
-10.30151
-10.301716
-10.301935
-10.302032
-10.301781
-10.300895
-10.299784
-10.298938
-10.297676
-10.305742
-10.305896
-10.305987
-10.305821
-10.305089
-10.303381
-10.300983
-10.298847
-10.297024
-10.310632
-10.310733
-10.310725
-10.310357
-10.309251
-10.306963
-10.303724
-10.300633
-10.298304
-10.315342
-10.315378
-10.315278
-10.314751
-10.313337
-10.31065
-10.306917
-10.303229
-10.300469
-10.319801
-10.319772
-10.319585
-10.318918
-10.31722
-10.314155
-10.310074
-10.306013
-10.302925
-10.323814
-10.323742
-10.323495
-10.322673
-10.320705
-10.317278
-10.312872
-10.308509
-10.305121
-10.327095
-10.327007
-10.326718
-10.325767
-10.323522
-10.319752
-10.315036
-10.310395
-10.306739
-10.329657
-10.329575
-10.329255
-10.328181
-10.325683
-10.321603
-10.316621
-10.311762
-10.307896
-10.331502
-10.331445
-10.331121
-10.329958
-10.327261
-10.322924
-10.317733
-10.312735
-10.308728
-10.332769
-10.33273
-10.332404
-10.331179
-10.328337
-10.323806
-10.318462
-10.313391
-10.309284
-10.333556
-10.333532
-10.333204
-10.331932
-10.32899
-10.324329
-10.31889
-10.313779
-10.309609
-10.333916
-10.333902
-10.333578
-10.332284
-10.329293
-10.324568
-10.319087
-10.313958
-10.309756
-10.333916
-10.333902
-10.333578
-10.332285
-10.329293
-10.324568
-10.319088
-10.313958
-10.309756
-10.333556
-10.333532
-10.333205
-10.331932
-10.328991
-10.324329
-10.31889
-10.313779
-10.309609
-10.332769
-10.33273
-10.332405
-10.331179
-10.328338
-10.323807
-10.318462
-10.313391
-10.309284
-10.331503
-10.331445
-10.331121
-10.329959
-10.327263
-10.322925
-10.317733
-10.312736
-10.308728
-10.329658
-10.329577
-10.329256
-10.328182
-10.325685
-10.321605
-10.316622
-10.311763
-10.307896
-10.327097
-10.327009
-10.32672
-10.32577
-10.323525
-10.319754
-10.315038
-10.310396
-10.306739
-10.323817
-10.323744
-10.323498
-10.322677
-10.320708
-10.317282
-10.312875
-10.30851
-10.305121
-10.319804
-10.319776
-10.319589
-10.318923
-10.317224
-10.31416
-10.310078
-10.306015
-10.302926
-10.315347
-10.315383
-10.315284
-10.314757
-10.313343
-10.310656
-10.306921
-10.303232
-10.300471
-10.310639
-10.31074
-10.310732
-10.310365
-10.309258
-10.30697
-10.303731
-10.300638
-10.298307
-10.305751
-10.305904
-10.305996
-10.30583
-10.305097
-10.30339
-10.300991
-10.298855
-10.297029
-10.301519
-10.301725
-10.301944
-10.302042
-10.301791
-10.300905
-10.299794
-10.298948
-10.297685
-9.7553403
-9.7553453
-9.7553909
-9.7555243
-9.7557971
-9.7562476
-9.7568544
-9.7574579
-9.7577652
-9.7575509
-9.7575128
-9.7574905
-9.7575276
-9.7576744
-9.7579822
-9.7583942
-9.7587354
-9.7588534
-9.7598164
-9.7597457
-9.7596894
-9.7596961
-9.7598097
-9.7600672
-9.76037
-9.7605483
-9.7605376
-9.7615984
-9.7615086
-9.7614354
-9.7614382
-9.7615693
-9.7618107
-9.7620474
-9.7620714
-9.761837
-9.762803
-9.7627194
-9.7626422
-9.7626208
-9.7627208
-9.7629301
-9.7630826
-9.7629399
-9.7624896
-9.7636201
-9.7635479
-9.7634699
-9.7634389
-9.7634902
-9.7636346
-9.7636923
-9.7633982
-9.7627808
-9.7642135
-9.7641491
-9.7640698
-9.7640272
-9.7640705
-9.7641736
-9.7641592
-9.7637638
-9.763018
-9.764651
-9.7645892
-9.7645196
-9.7644823
-9.7645295
-9.7646159
-9.7645544
-9.7640815
-9.7632256
-9.7649866
-9.7649202
-9.7648448
-9.7648128
-9.7648688
-9.7649558
-9.7648689
-9.764336
-9.7633848
-9.7652273
-9.7651584
-9.7650788
-9.7650454
-9.7651063
-9.7652001
-9.7651
-9.7645193
-9.7634964
-9.765384
-9.7653106
-9.7652266
-9.7651918
-9.7652565
-9.7653581
-9.7652507
-9.7646374
-9.7635683
-9.7654519
-9.7653778
-9.7652927
-9.7652581
-9.7653263
-9.7654343
-9.7653252
-9.7646972
-9.7636064
-9.7654518
-9.7653778
-9.7652927
-9.7652582
-9.7653264
-9.7654343
-9.7653253
-9.7646971
-9.7636061
-9.7653839
-9.7653106
-9.7652267
-9.7651919
-9.7652567
-9.7653583
-9.7652509
-9.7646372
-9.7635676
-9.7652271
-9.7651584
-9.7650789
-9.7650457
-9.7651067
-9.7652005
-9.7651003
-9.7645191
-9.7634953
-9.7649866
-9.7649203
-9.7648451
-9.7648134
-9.7648696
-9.7649566
-9.7648695
-9.7643358
-9.7633835
-9.7646513
-9.7645897
-9.7645204
-9.7644834
-9.7645308
-9.7646173
-9.7645553
-9.7640815
-9.7632242
-9.7642145
-9.7641503
-9.7640713
-9.7640291
-9.7640727
-9.7641758
-9.7641608
-9.7637642
-9.7630167
-9.7636222
-9.7635502
-9.7634725
-9.7634419
-9.7634935
-9.7636378
-9.7636948
-9.7633992
-9.7627799
-9.7628064
-9.7627231
-9.7626463
-9.7626253
-9.7627255
-9.7629346
-9.7630862
-9.7629418
-9.7624893
-9.7616036
-9.761514
-9.7614412
-9.7614443
-9.7615756
-9.7618166
-9.7620524
-9.7620746
-9.7618378
-9.7598235
-9.7597531
-9.759697
-9.759704
-9.7598177
-9.7600748
-9.7603768
-9.7605534
-9.7605398
-9.7575599
-9.757522
-9.7574999
-9.7575372
-9.757684
-9.7579916
-9.7584029
-9.7587427
-9.7588578
-9.7553505
-9.7553556
-9.7554013
-9.7555348
-9.7558076
-9.7562582
-9.7568649
-9.757468
-9.7577735
-9.257049
-9.2570958
-9.257155
-9.2572144
-9.2572611
-9.2572749
-9.2572394
-9.2571664
-9.2569624
-9.2575077
-9.2575543
-9.2575986
-9.2576121
-9.25756
-9.2574171
-9.2572085
-9.2569711
-9.2566948
-9.2581393
-9.2581818
-9.2582082
-9.2581759
-9.2580432
-9.2577969
-9.2574975
-9.257199
-9.2569427
-9.2588846
-9.258914
-9.2589193
-9.2588492
-9.2586607
-9.2583584
-9.2580072
-9.2576712
-9.2574104
-9.2597823
-9.2597952
-9.2597787
-9.2596803
-9.2594576
-9.2591191
-9.2587185
-9.2583362
-9.2580528
-9.2607616
-9.2607574
-9.2607226
-9.2606137
-9.2603937
-9.260045
-9.2596051
-9.2591705
-9.2588454
-9.2617422
-9.2617232
-9.2616766
-9.2615715
-9.2613666
-9.2610222
-9.2605595
-9.2600775
-9.2596945
-9.2626598
-9.2626303
-9.2625775
-9.2624777
-9.2622867
-9.2619526
-9.2614759
-9.2609485
-9.2604969
-9.2634528
-9.263417
-9.2633606
-9.2632635
-9.263086
-9.2627657
-9.2622795
-9.2617093
-9.2611879
-9.2640816
-9.2640416
-9.2639832
-9.2638901
-9.2637251
-9.2634168
-9.2629224
-9.2623148
-9.2617322
-9.2645193
-9.2644764
-9.264417
-9.2643275
-9.2641719
-9.2638717
-9.2633705
-9.2627349
-9.2621077
-9.2647415
-9.2646971
-9.2646373
-9.2645501
-9.2644002
-9.264105
-9.2636004
-9.2629503
-9.2623
-9.2647413
-9.2646969
-9.2646372
-9.2645501
-9.2644002
-9.264105
-9.2636003
-9.2629502
-9.2622996
-9.2645189
-9.2644761
-9.2644168
-9.2643274
-9.2641719
-9.2638718
-9.2633704
-9.2627344
-9.2621065
-9.264081
-9.2640411
-9.2639829
-9.26389
-9.2637253
-9.263417
-9.2629224
-9.2623141
-9.2617304
-9.2634522
-9.2634165
-9.2633604
-9.2632636
-9.2630863
-9.2627662
-9.2622796
-9.2617085
-9.2611857
-9.2626594
-9.2626302
-9.2625777
-9.2624783
-9.2622876
-9.2619536
-9.2614764
-9.2609478
-9.2604944
-9.2617425
-9.2617237
-9.2616775
-9.2615729
-9.2613683
-9.261024
-9.2605606
-9.2600772
-9.259692
-9.2607629
-9.260759
-9.2607247
-9.2606163
-9.2603966
-9.2600478
-9.2596071
-9.2591708
-9.2588433
-9.259785
-9.2597983
-9.2597822
-9.2596843
-9.2594619
-9.2591233
-9.2587217
-9.2583375
-9.2580515
-9.2588892
-9.258919
-9.2589246
-9.258855
-9.2586667
-9.2583641
-9.2580118
-9.2576739
-9.2574102
-9.258146
-9.2581888
-9.2582155
-9.2581834
-9.2580509
-9.2578042
-9.2575038
-9.2572034
-9.2569442
-9.2575163
-9.2575631
-9.2576076
-9.2576213
-9.2575692
-9.2574261
-9.2572166
-9.2569776
-9.2566983
-9.2570588
-9.2571057
-9.2571649
-9.2572243
-9.2572711
-9.2572848
-9.2572491
-9.2571754
-9.256969
-8.7483942
-8.7483983
-8.7484117
-8.7484437
-8.7485093
-8.7486218
-8.7487751
-8.7489473
-8.7490606
-8.7489258
-8.7489205
-8.7489181
-8.7489282
-8.7489657
-8.7490407
-8.7491385
-8.7492297
-8.7492776
-8.749465
-8.7494544
-8.7494455
-8.7494481
-8.7494765
-8.7495323
-8.7495915
-8.7496318
-8.7496496
-8.7499045
-8.7498907
-8.7498795
-8.7498831
-8.7499125
-8.749954
-8.7499777
-8.7499697
-8.7499386
-8.7502275
-8.7502145
-8.7502049
-8.75021
-8.7502311
-8.7502447
-8.7502264
-8.7501676
-8.7500817
-8.7504425
-8.7504329
-8.7504255
-8.750426
-8.750424
-8.7504024
-8.7503415
-8.7502327
-8.7500937
-8.7505573
-8.7505514
-8.7505437
-8.7505314
-8.7505054
-8.7504531
-8.7503541
-8.7502009
-8.7500173
-8.7506147
-8.7506097
-8.7505984
-8.7505742
-8.7505289
-8.7504477
-8.750313
-8.7501215
-8.7499025
-8.7506436
-8.7506374
-8.750622
-8.7505903
-8.7505283
-8.7504198
-8.7502537
-8.7500312
-8.7497853
-8.7506594
-8.7506512
-8.7506324
-8.7505934
-8.7505173
-8.7503874
-8.750197
-8.7499515
-8.7496864
-8.7506674
-8.7506578
-8.7506361
-8.7505913
-8.750505
-8.7503609
-8.7501544
-8.749894
-8.7496165
-8.7506685
-8.7506585
-8.7506355
-8.7505881
-8.7504968
-8.750346
-8.7501319
-8.7498644
-8.7495808
-8.7506682
-8.7506582
-8.7506353
-8.7505879
-8.7504967
-8.750346
-8.7501318
-8.7498641
-8.7495802
-8.7506667
-8.7506572
-8.7506356
-8.750591
-8.7505048
-8.7503608
-8.7501541
-8.7498932
-8.7496149
-8.7506583
-8.7506503
-8.7506317
-8.750593
-8.7505171
-8.7503873
-8.7501966
-8.7499503
-8.7496839
-8.7506424
-8.7506364
-8.7506213
-8.75059
-8.7505283
-8.7504199
-8.7502534
-8.7500298
-8.7497822
-8.7506138
-8.7506091
-8.7505981
-8.7505744
-8.7505294
-8.7504483
-8.750313
-8.7501201
-8.749899
-8.750557
-8.7505515
-8.7505442
-8.7505324
-8.7505068
-8.7504545
-8.7503547
-8.7501997
-8.7500136
-8.7504434
-8.7504341
-8.7504272
-8.7504282
-8.7504267
-8.7504049
-8.750343
-8.7502321
-8.7500902
-8.7502299
-8.7502174
-8.7502083
-8.750214
-8.7502353
-8.7502487
-8.7502292
-8.750168
-8.7500787
-8.7499092
-8.7498957
-8.749885
-8.7498891
-8.7499186
-8.7499598
-8.7499821
-8.7499715
-8.7499367
-8.7494721
-8.7494618
-8.7494533
-8.7494563
-8.7494847
-8.7495401
-8.7495979
-8.7496355
-8.7496495
-8.7489352
-8.7489301
-8.7489279
-8.7489382
-8.7489757
-8.7490504
-8.749147
-8.749236
-8.7492801
-8.7484048
-8.748409
-8.7484225
-8.7484546
-8.7485202
-8.7486326
-8.7487856
-8.7489566
-8.7490666
-8.2500151
-8.250025
-8.2500383
-8.2500537
-8.2500697
-8.2500831
-8.2500964
-8.2501148
-8.25011
-8.2501449
-8.2501536
-8.2501623
-8.2501663
-8.2501602
-8.2501415
-8.2501191
-8.2501015
-8.2500806
-8.2503139
-8.250321
-8.2503255
-8.2503202
-8.2502984
-8.2502619
-8.2502231
-8.2501951
-8.2501835
-8.2505001
-8.2505041
-8.2505039
-8.2504914
-8.2504609
-8.2504174
-8.2503729
-8.2503402
-8.2503286
-8.2507161
-8.2507163
-8.250711
-8.2506922
-8.2506567
-8.2506088
-8.2505586
-8.2505193
-8.2505022
-8.2509523
-8.2509488
-8.25094
-8.2509198
-8.2508845
-8.2508354
-8.25078
-8.2507328
-8.2507064
-8.2511878
-8.2511817
-8.2511711
-8.2511523
-8.2511204
-8.2510736
-8.2510167
-8.2509626
-8.2509243
-8.2514088
-8.251401
-8.2513896
-8.2513719
-8.2513439
-8.2513018
-8.2512457
-8.2511852
-8.2511332
-8.2516012
-8.2515923
-8.2515805
-8.2515641
-8.2515398
-8.2515028
-8.251448
-8.2513815
-8.2513158
-8.2517547
-8.2517452
-8.2517334
-8.2517183
-8.2516974
-8.2516644
-8.2516105
-8.2515386
-8.251461
-8.2518616
-8.2518518
-8.25184
-8.2518261
-8.2518076
-8.2517773
-8.2517239
-8.251648
-8.2515616
-8.2519159
-8.2519059
-8.2518942
-8.2518809
-8.2518637
-8.251835
-8.2517819
-8.251704
-8.2516129
-8.2519155
-8.2519055
-8.2518939
-8.2518806
-8.2518636
-8.2518348
-8.2517817
-8.2517036
-8.2516122
-8.2518606
-8.2518509
-8.2518393
-8.2518255
-8.2518071
-8.2517769
-8.2517233
-8.2516469
-8.2515596
-8.2517532
-8.2517439
-8.2517323
-8.2517175
-8.2516968
-8.2516639
-8.2516097
-8.251537
-8.2514579
-8.2515994
-8.2515908
-8.2515794
-8.2515634
-8.2515394
-8.2515024
-8.2514472
-8.2513795
-8.2513118
-8.2514072
-8.2513997
-8.2513888
-8.2513716
-8.2513439
-8.2513019
-8.2512451
-8.251183
-8.2511286
-8.2511869
-8.2511811
-8.251171
-8.2511528
-8.2511213
-8.2510745
-8.2510167
-8.2509605
-8.2509194
-8.2509525
-8.2509495
-8.2509412
-8.2509216
-8.2508867
-8.2508374
-8.2507809
-8.2507313
-8.2507016
-8.2507181
-8.2507187
-8.2507139
-8.2506958
-8.2506606
-8.2506124
-8.2505608
-8.2505188
-8.250498
-8.2505045
-8.2505088
-8.2505092
-8.2504972
-8.250467
-8.250423
-8.2503769
-8.2503412
-8.2503256
-8.2503209
-8.2503284
-8.2503333
-8.2503284
-8.2503068
-8.2502698
-8.2502294
-8.2501984
-8.2501827
-8.2501544
-8.2501633
-8.2501723
-8.2501766
-8.2501705
-8.2501514
-8.2501279
-8.2501079
-8.250083
-8.2500259
-8.2500359
-8.2500494
-8.2500648
-8.250081
-8.2500946
-8.2501076
-8.2501249
-8.2501165
-7.7483251
-7.748326
-7.7483292
-7.7483371
-7.7483536
-7.7483814
-7.7484194
-7.7484628
-7.7484913
-7.7484498
-7.7484484
-7.7484478
-7.7484503
-7.7484593
-7.7484766
-7.7484987
-7.7485193
-7.7485297
-7.7485749
-7.7485724
-7.7485703
-7.7485708
-7.7485769
-7.7485877
-7.7485982
-7.7486054
-7.7486103
-7.7486769
-7.7486737
-7.7486711
-7.7486717
-7.7486771
-7.7486833
-7.7486851
-7.748682
-7.7486784
-7.7487548
-7.7487517
-7.7487492
-7.7487495
-7.7487519
-7.7487518
-7.7487454
-7.748733
-7.7487197
-7.7488108
-7.7488082
-7.7488056
-7.7488039
-7.7488016
-7.7487952
-7.7487811
-7.7487593
-7.7487359
-7.7488472
-7.7488448
-7.7488417
-7.7488374
-7.7488307
-7.7488188
-7.7487971
-7.7487659
-7.7487325
-7.7488717
-7.7488692
-7.7488651
-7.748859
-7.7488487
-7.7488309
-7.7488013
-7.7487608
-7.7487181
-7.7488889
-7.7488859
-7.7488811
-7.7488735
-7.74886
-7.7488365
-7.7487997
-7.7487511
-7.7487005
-7.7489008
-7.7488974
-7.7488919
-7.7488829
-7.7488668
-7.7488389
-7.7487963
-7.7487412
-7.7486845
-7.7489082
-7.7489044
-7.7488984
-7.7488885
-7.7488706
-7.7488396
-7.748793
-7.7487335
-7.7486726
-7.7489112
-7.7489073
-7.748901
-7.7488907
-7.748872
-7.7488396
-7.748791
-7.7487293
-7.7486661
-7.7489107
-7.7489069
-7.7489007
-7.7488904
-7.7488717
-7.7488394
-7.7487908
-7.7487288
-7.7486654
-7.748907
-7.7489033
-7.7488975
-7.7488877
-7.74887
-7.7488391
-7.7487923
-7.7487323
-7.7486705
-7.7488989
-7.7488957
-7.7488905
-7.7488819
-7.7488661
-7.7488382
-7.7487952
-7.7487392
-7.7486811
-7.7488868
-7.748884
-7.7488796
-7.7488724
-7.7488593
-7.7488359
-7.7487986
-7.7487487
-7.7486961
-7.7488697
-7.7488674
-7.7488638
-7.7488582
-7.7488484
-7.7488306
-7.7488003
-7.7487582
-7.748713
-7.7488456
-7.7488437
-7.7488411
-7.7488374
-7.7488312
-7.7488193
-7.7487966
-7.7487634
-7.7487269
-7.7488104
-7.7488082
-7.7488062
-7.7488052
-7.7488033
-7.7487968
-7.7487815
-7.7487573
-7.7487304
-7.7487561
-7.7487535
-7.7487515
-7.7487526
-7.7487553
-7.7487549
-7.7487471
-7.7487319
-7.7487149
-7.7486806
-7.7486778
-7.7486757
-7.7486769
-7.7486825
-7.7486883
-7.7486886
-7.7486825
-7.7486748
-7.7485812
-7.748579
-7.7485773
-7.7485782
-7.7485844
-7.7485948
-7.7486038
-7.7486081
-7.7486088
-7.7484583
-7.7484572
-7.7484569
-7.7484597
-7.7484687
-7.7484857
-7.7485066
-7.7485249
-7.7485312
-7.7483349
-7.7483359
-7.7483392
-7.7483473
-7.7483638
-7.7483917
-7.7484294
-7.7484717
-7.7484968
-7.2488002
-7.2488022
-7.2488049
-7.2488083
-7.2488125
-7.2488181
-7.2488264
-7.2488386
-7.248846
-7.2488372
-7.2488383
-7.2488394
-7.2488398
-7.2488391
-7.2488383
-7.2488396
-7.2488441
-7.2488479
-7.2488855
-7.248886
-7.2488859
-7.248884
-7.24888
-7.2488754
-7.2488731
-7.2488749
-7.2488806
-7.2489358
-7.2489356
-7.2489345
-7.2489313
-7.2489256
-7.2489191
-7.2489144
-7.2489137
-7.2489181
-7.2489872
-7.2489864
-7.2489844
-7.2489804
-7.2489737
-7.2489654
-7.2489577
-7.2489535
-7.2489548
-7.249038
-7.2490367
-7.2490343
-7.24903
-7.2490228
-7.2490129
-7.2490024
-7.2489947
-7.2489926
-7.2490848
-7.2490833
-7.2490807
-7.2490762
-7.2490689
-7.2490584
-7.249046
-7.2490355
-7.2490301
-7.2491264
-7.2491247
-7.2491221
-7.2491176
-7.2491103
-7.2490995
-7.2490859
-7.2490733
-7.2490648
-7.2491613
-7.2491596
-7.2491569
-7.2491525
-7.2491453
-7.2491344
-7.24912
-7.2491056
-7.2490946
-7.2491885
-7.2491867
-7.249184
-7.2491797
-7.2491726
-7.2491617
-7.2491467
-7.2491309
-7.2491177
-7.249207
-7.2492052
-7.2492026
-7.2491983
-7.2491913
-7.2491804
-7.249165
-7.2491482
-7.2491334
-7.249216
-7.2492143
-7.2492117
-7.2492075
-7.2492006
-7.2491898
-7.2491741
-7.2491567
-7.249141
-7.2492155
-7.2492139
-7.2492113
-7.2492072
-7.2492004
-7.2491896
-7.2491739
-7.2491563
-7.2491402
-7.2492057
-7.2492041
-7.2492016
-7.2491975
-7.2491907
-7.2491798
-7.2491642
-7.2491469
-7.2491312
-7.2491866
-7.249185
-7.2491826
-7.2491785
-7.2491717
-7.2491609
-7.2491456
-7.2491289
-7.2491143
-7.249159
-7.2491576
-7.2491552
-7.2491512
-7.2491444
-7.2491336
-7.2491187
-7.2491031
-7.2490901
-7.2491241
-7.2491228
-7.2491206
-7.2491166
-7.2491098
-7.249099
-7.2490848
-7.2490705
-7.2490595
-7.2490831
-7.2490819
-7.2490799
-7.249076
-7.2490691
-7.2490586
-7.2490453
-7.2490328
-7.2490244
-7.2490373
-7.2490364
-7.2490346
-7.2490309
-7.2490241
-7.2490142
-7.2490026
-7.2489925
-7.2489869
-7.2489881
-7.2489877
-7.2489864
-7.248983
-7.2489766
-7.2489681
-7.248959
-7.2489522
-7.2489497
-7.2489389
-7.2489391
-7.2489386
-7.2489358
-7.2489304
-7.2489236
-7.2489174
-7.2489138
-7.2489141
-7.2488909
-7.2488918
-7.2488922
-7.2488907
-7.2488868
-7.2488818
-7.2488779
-7.248877
-7.2488786
-7.2488448
-7.2488462
-7.2488475
-7.2488482
-7.2488475
-7.2488463
-7.2488464
-7.2488486
-7.2488485
-7.2488089
-7.2488109
-7.2488137
-7.2488172
-7.2488215
-7.248827
-7.248835
-7.2488461
-7.2488504
-6.7486278
-6.7486282
-6.7486291
-6.748631
-6.7486348
-6.7486409
-6.7486489
-6.748658
-6.7486629
-6.7486555
-6.7486553
-6.7486552
-6.7486558
-6.7486576
-6.7486607
-6.7486643
-6.7486676
-6.7486688
-6.7486855
-6.748685
-6.7486845
-6.7486844
-6.748685
-6.7486857
-6.7486859
-6.748686
-6.7486866
-6.7487116
-6.7487108
-6.7487101
-6.7487098
-6.7487096
-6.7487089
-6.7487072
-6.7487054
-6.7487047
-6.7487336
-6.7487327
-6.7487317
-6.7487308
-6.7487299
-6.7487281
-6.7487253
-6.748722
-6.7487197
-6.7487521
-6.748751
-6.7487498
-6.7487484
-6.7487468
-6.7487444
-6.7487407
-6.748736
-6.7487317
-6.7487675
-6.7487663
-6.7487648
-6.748763
-6.748761
-6.7487582
-6.7487537
-6.7487475
-6.7487411
-6.7487806
-6.7487792
-6.7487775
-6.7487754
-6.7487731
-6.7487699
-6.7487647
-6.7487569
-6.7487484
-6.7487912
-6.7487897
-6.7487878
-6.7487856
-6.748783
-6.7487796
-6.7487737
-6.7487645
-6.7487541
-6.7487993
-6.7487977
-6.7487956
-6.7487933
-6.7487907
-6.7487872
-6.7487807
-6.7487704
-6.7487583
-6.7488047
-6.748803
-6.7488008
-6.7487985
-6.7487959
-6.7487923
-6.7487855
-6.7487743
-6.7487609
-6.7488072
-6.7488054
-6.7488033
-6.7488009
-6.7487984
-6.7487948
-6.7487878
-6.7487761
-6.748762
-6.7488067
-6.748805
-6.7488029
-6.7488007
-6.7487982
-6.7487946
-6.7487875
-6.7487757
-6.7487613
-6.7488036
-6.7488019
-6.7487999
-6.7487978
-6.7487953
-6.7487918
-6.7487848
-6.7487731
-6.7487589
-6.7487976
-6.7487961
-6.7487943
-6.7487923
-6.7487899
-6.7487864
-6.7487797
-6.7487685
-6.7487551
-6.7487891
-6.7487879
-6.7487862
-6.7487845
-6.7487822
-6.7487789
-6.7487725
-6.7487622
-6.7487499
-6.7487785
-6.7487775
-6.7487761
-6.7487746
-6.7487726
-6.7487695
-6.7487636
-6.7487543
-6.7487436
-6.7487659
-6.7487651
-6.748764
-6.7487628
-6.7487612
-6.7487584
-6.7487531
-6.7487449
-6.7487359
-6.7487514
-6.7487508
-6.7487501
-6.7487492
-6.748748
-6.7487456
-6.7487409
-6.7487339
-6.7487265
-6.7487344
-6.7487339
-6.7487335
-6.7487332
-6.7487326
-6.7487306
-6.7487266
-6.7487208
-6.748715
-6.7487145
-6.7487141
-6.7487139
-6.748714
-6.7487141
-6.748713
-6.7487099
-6.7487054
-6.7487011
-6.7486906
-6.7486904
-6.7486903
-6.7486906
-6.7486913
-6.7486916
-6.7486904
-6.748688
-6.748685
-6.7486626
-6.7486626
-6.7486628
-6.7486637
-6.7486655
-6.7486682
-6.7486708
-6.7486722
-6.7486698
-6.748636
-6.7486364
-6.7486374
-6.7486394
-6.7486433
-6.7486495
-6.7486573
-6.7486655
-6.7486675
-6.2487481
-6.2487482
-6.2487486
-6.2487493
-6.2487506
-6.248753
-6.2487567
-6.2487616
-6.2487648
-6.2487604
-6.2487603
-6.2487602
-6.2487601
-6.2487603
-6.2487612
-6.2487633
-6.2487663
-6.2487688
-6.2487742
-6.248774
-6.2487737
-6.2487732
-6.2487727
-6.2487727
-6.2487735
-6.2487755
-6.2487783
-6.2487869
-6.2487866
-6.2487862
-6.2487855
-6.2487847
-6.248784
-6.248784
-6.2487849
-6.248787
-6.2487984
-6.2487981
-6.2487976
-6.2487967
-6.2487956
-6.2487941
-6.248793
-6.2487927
-6.2487936
-6.2488089
-6.2488086
-6.248808
-6.248807
-6.2488055
-6.2488033
-6.2488008
-6.2487991
-6.2487987
-6.248818
-6.2488177
-6.2488171
-6.248816
-6.2488141
-6.2488112
-6.2488075
-6.2488043
-6.2488026
-6.2488258
-6.2488254
-6.2488248
-6.2488236
-6.2488215
-6.2488179
-6.2488131
-6.2488086
-6.2488056
-6.248832
-6.2488317
-6.2488311
-6.2488298
-6.2488274
-6.2488233
-6.2488176
-6.2488119
-6.2488078
-6.2488367
-6.2488364
-6.2488357
-6.2488345
-6.2488319
-6.2488273
-6.2488209
-6.2488143
-6.2488093
-6.2488397
-6.2488394
-6.2488388
-6.2488375
-6.2488348
-6.2488299
-6.248823
-6.2488158
-6.2488101
-6.2488411
-6.2488408
-6.2488402
-6.2488389
-6.2488362
-6.2488312
-6.248824
-6.2488163
-6.2488102
-6.2488407
-6.2488405
-6.2488399
-6.2488387
-6.2488361
-6.248831
-6.2488238
-6.248816
-6.2488097
-6.2488388
-6.2488386
-6.2488381
-6.248837
-6.2488344
-6.2488296
-6.2488225
-6.2488148
-6.2488085
-6.2488354
-6.2488352
-6.2488347
-6.2488337
-6.2488314
-6.2488268
-6.2488201
-6.2488128
-6.2488068
-6.2488305
-6.2488303
-6.24883
-6.2488291
-6.2488269
-6.2488228
-6.2488167
-6.2488101
-6.2488045
-6.2488243
-6.2488242
-6.2488239
-6.2488231
-6.2488213
-6.2488177
-6.2488124
-6.2488066
-6.2488018
-6.2488169
-6.2488169
-6.2488167
-6.2488161
-6.2488145
-6.2488116
-6.2488072
-6.2488025
-6.2487985
-6.2488087
-6.2488087
-6.2488085
-6.248808
-6.2488068
-6.2488045
-6.2488012
-6.2487976
-6.2487947
-6.2487995
-6.2487995
-6.2487994
-6.2487991
-6.2487982
-6.2487965
-6.2487943
-6.248792
-6.2487901
-6.2487897
-6.2487898
-6.2487897
-6.2487894
-6.2487888
-6.2487878
-6.2487866
-6.2487854
-6.2487845
-6.248779
-6.248779
-6.248779
-6.2487788
-6.2487785
-6.2487781
-6.2487778
-6.2487777
-6.2487775
-6.2487669
-6.248767
-6.2487671
-6.2487672
-6.2487674
-6.2487681
-6.2487693
-6.2487708
-6.2487704
-6.2487555
-6.2487557
-6.2487561
-6.2487569
-6.2487584
-6.2487609
-6.2487645
-6.2487688
-6.2487694
-5.7488726
-5.7488727
-5.7488729
-5.7488733
-5.748874
-5.7488752
-5.7488769
-5.7488791
-5.7488807
-5.748879
-5.7488789
-5.7488789
-5.7488789
-5.748879
-5.7488792
-5.7488799
-5.7488811
-5.7488821
-5.7488864
-5.7488863
-5.7488861
-5.7488859
-5.7488855
-5.7488851
-5.7488851
-5.7488856
-5.7488868
-5.748894
-5.7488937
-5.7488934
-5.748893
-5.7488924
-5.7488918
-5.7488914
-5.7488915
-5.7488924
-5.7489016
-5.7489013
-5.7489008
-5.7489002
-5.7488995
-5.7488988
-5.7488982
-5.748898
-5.7488985
-5.7489091
-5.7489087
-5.7489082
-5.7489075
-5.7489069
-5.7489062
-5.7489056
-5.7489051
-5.7489051
-5.7489162
-5.7489157
-5.7489151
-5.7489145
-5.7489139
-5.7489134
-5.7489128
-5.7489121
-5.7489116
-5.7489225
-5.748922
-5.7489214
-5.7489208
-5.7489203
-5.7489199
-5.7489194
-5.7489186
-5.7489177
-5.7489278
-5.7489273
-5.7489266
-5.7489261
-5.7489257
-5.7489255