/*--------------------------------*- C++ -*----------------------------------*\
| =========                 |                                                 |
| \\      /  F ield         | OpenFOAM: The Open Source CFD Toolbox           |
|  \\    /   O peration     | Version:  2406                                  |
|   \\  /    A nd           | Website:  www.openfoam.com                      |
|    \\/     M anipulation  |                                                 |
\*---------------------------------------------------------------------------*/
FoamFile
{
    version     2.0;
    format      ascii;
    arch        "LSB;label=32;scalar=64";
    class       surfaceScalarField;
    location    "15.5";
    object      phi;
}
// * * * * * * * * * * * * * * * * * * * * * * * * * * * * * * * * * * * * * //

dimensions      [0 3 -1 0 0 0 0];

oriented        oriented;

internalField   nonuniform List<scalar> 
101088
(
0.00015007746
-1.4435214e-05
1.0169358e-05
1.2545366e-05
0.00033283282
-6.2616544e-05
4.6115189e-05
5.534962e-05
0.00053399775
-0.00015176736
0.0001161052
0.00013590206
0.00072429952
-0.00028906287
0.00023021049
0.00026234561
0.00086612384
-0.00046093422
0.00038152479
0.00042465386
0.00093291518
-0.00062472062
0.0005344116
0.00058461366
0.00092730803
-0.00071945605
0.00063433877
0.00068369019
0.00087552598
-0.00072058634
0.00064446838
0.00069703141
-0.00063947215
0.00057066414
0.00063618522
0.00080363863
0.00018252355
-1.591257e-05
1.3211097e-05
0.00039997971
-6.7990675e-05
5.9401551e-05
0.00063102147
-0.00016250673
0.00014846374
0.00083615249
-0.00030473524
0.00029195343
0.00096989679
-0.00047828419
0.00047934752
0.0010065258
-0.00063848022
0.00066551574
0.00095907572
-0.0007254734
0.00078610556
0.00086395734
-0.00071432226
0.0008008337
-0.00062373658
0.00071883984
0.00076084724
0.00021489184
-1.6752229e-05
1.6437896e-05
0.00046576469
-7.054358e-05
7.3263638e-05
0.00072408584
-0.00016653065
0.00018166997
0.0009414617
-0.0003081402
0.00035404066
0.0010666861
-0.00047688405
0.00057521772
0.0010767329
-0.00062793057
0.0007901691
0.00099514619
-0.00070541962
0.00092607445
0.00086817554
-0.00068446257
0.00094142527
-0.00059013661
0.00084989954
0.00073976451
0.00024624275
-1.6971855e-05
1.9831479e-05
0.00052883148
-7.0415819e-05
8.7565718e-05
0.00081207712
-0.00016416726
0.0002153004
0.001039216
-0.00029987346
0.00041562504
0.0011551521
-0.00045840968
0.00066806324
0.0011412595
-0.00059650032
0.00090774432
0.0010310816
-0.00066389494
0.0010546661
0.00087955897
-0.00063646566
0.0010676072
-0.00054331174
0.00096514628
0.00073263728
0.00027562674
-1.6404797e-05
2.3211638e-05
0.00058719096
-6.7291606e-05
0.00010163983
0.00089239846
-0.0001553624
0.00024800894
0.001127364
-0.00028090559
0.00047470067
0.0012344695
-0.00042549699
0.00075567917
0.0011999023
-0.00054845531
0.0010166676
0.00106572
-0.00060542558
0.0011714115
0.00089461508
-0.00057472467
0.0011799173
-0.00048645773
0.0010657076
0.00073331583
0.00030285278
-1.5251127e-05
2.6500823e-05
0.00064117614
-6.1901032e-05
0.00011517415
0.00096658368
-0.00014160906
0.00027910704
0.0012088299
-0.00025366597
0.00053014763
0.0013080993
-0.00038121812
0.00083675044
0.0012552708
-0.00048729525
0.0011159637
0.0011002205
-0.00053355843
0.0012760623
0.00091246904
-0.00050233631
0.0012788183
-0.00042169637
0.0011525744
0.00073900373
0.00032686413
-1.3569508e-05
2.9598463e-05
0.00068836064
-5.4542909e-05
0.00012775949
0.0010307796
-0.00012375159
0.00030767601
0.0012786158
-0.00021988698
0.0005804265
0.0013705641
-0.00032827694
0.00090927168
0.0013020171
-0.00041657436
0.0012035988
0.0011299245
-0.00045265738
0.0013672551
0.00092880985
-0.00042305875
0.0013638169
-0.00035211798
0.0012260879
0.00074591292
0.00034738136
-1.1423276e-05
3.2351831e-05
0.00072845453
-4.5537563e-05
0.00013887205
0.0010849847
-0.00010261206
0.00033274791
0.0013371312
-0.00018111719
0.00062425268
0.0014224998
-0.00026896537
0.00097201059
0.0013405726
-0.00033921315
0.0012788046
0.001154457
-0.00036608877
0.001444859
0.00094236467
-0.00033976068
0.0014354251
-0.00028032216
0.001287253
0.00075213448
0.00036413104
-8.8839774e-06
3.4661818e-05
0.00076105791
-3.5211936e-05
0.00014815856
0.0011288538
-7.8953358e-05
0.00035363439
0.0013841782
-0.00013868003
0.00066064563
0.0014638023
-0.00020514618
0.0010239115
0.0013707082
-0.00025746998
0.0013407313
0.0011731459
-0.00027627659
0.0015084053
0.00095226294
-0.00025469024
0.0014936357
-0.00020841078
0.0013364592
0.00075663836
0.00037693438
-6.0855785e-06
3.646348e-05
0.00078596485
-2.4026094e-05
0.00015538856
0.0011622895
-5.3645571e-05
0.00036986926
0.0014198372
-9.3842255e-05
0.00068887685
0.0014947251
-0.00013837458
0.0010640553
0.0013927305
-0.00017298322
0.0013884361
0.0011861891
-0.00018475197
0.0015571082
0.00095868019
-0.00016932075
0.0015379948
-0.0001376125
0.0013735769
0.00075940098
0.00038544968
-3.1158381e-06
3.7753871e-05
0.00080230449
-1.2224603e-05
0.00016049127
0.0011838636
-2.7183259e-05
0.00038117023
0.0014423665
-4.7391156e-05
0.0007082712
0.0015136574
-6.969963e-05
0.0010913239
0.0014055492
-8.6884979e-05
0.0014205402
0.0011931522
-9.2494749e-05
0.0015896331
0.0009617099
-8.4420299e-05
0.0015674083
-6.8301169e-05
0.0013979836
0.00076065251
0.00038973945
-2.1696176e-11
3.8357912e-05
0.00081057224
-8.522093e-11
0.00016292887
0.0011948347
-1.6090054e-10
0.00038667367
0.001453852
-2.8194169e-10
0.00071789219
0.0015232692
-5.2810803e-10
0.0011050555
0.0014119356
-7.3593151e-10
0.0014368602
0.001196447
-9.3947804e-10
0.0016062386
0.00096299023
-1.2619804e-09
0.0015824222
-1.3971643e-09
0.0014104106
0.00076106654
0.00038973939
3.1158192e-06
3.8357906e-05
0.00081057218
1.2224456e-05
0.00016292885
0.0011948344
2.718292e-05
0.00038667362
0.0014538517
4.7390623e-05
0.00071789209
0.001523269
6.9698689e-05
0.0011050553
0.0014119355
8.6883513e-05
0.00143686
0.0011964469
9.2492665e-05
0.0016062384
0.00096299012
8.4417595e-05
0.0015824221
6.8298306e-05
0.0014104106
0.0007610666
0.00038544953
6.0855859e-06
3.775387e-05
0.00080230459
2.4025979e-05
0.00016049127
0.0011838635
5.3645329e-05
0.00038117021
0.0014423664
9.3842032e-05
0.00070827115
0.0015136574
0.000138374
0.0010913238
0.0014055492
0.00017298176
0.0014205401
0.001193152
0.00018474957
0.0015896331
0.00096170966
0.00016931788
0.0015674083
0.00013760964
0.0013979835
0.00076065256
0.00037693413
8.8839865e-06
3.646347e-05
0.00078596507
3.5211847e-05
0.00015538851
0.0011622896
7.8953398e-05
0.00036986916
0.0014198373
0.0001386803
0.00068887666
0.0014947249
0.00020514586
0.001064055
0.0013927303
0.00025746844
0.0013884358
0.0011861887
0.00027627414
0.0015571079
0.00095867973
0.00025468753
0.0015379946
0.00020840795
0.0013735767
0.00075940079
0.00036413111
1.1423233e-05
3.4661811e-05
0.00076105835
4.553733e-05
0.00014815854
0.0011288539
0.000102612
0.00035363432
0.0013841785
0.00018111731
0.0006606455
0.0014638021
0.00026896483
0.0010239114
0.001370708
0.00033921172
0.0013407311
0.0011731453
0.00036608691
0.0015084051
0.00095226224
0.00033975856
0.0014936355
0.0002803193
0.0013364591
0.00075663753
0.00034738158
1.3569453e-05
3.2351828e-05
0.00072845476
5.454268e-05
0.00013887204
0.0010849845
0.00012375139
0.00033274788
0.0013371316
0.00021988686
0.00062425262
0.0014224999
0.0003282764
0.0009720105
0.0013405726
0.0004165734
0.0012788045
0.0011544564
0.00045265605
0.0014448588
0.00094236363
0.00042305707
0.001435425
0.00035211541
0.0012872529
0.00075213251
0.00032686429
1.5251207e-05
2.9598464e-05
0.00068836073
6.1901189e-05
0.00012775949
0.0010307792
0.000141609
0.000307676
0.0012786165
0.00025366593
0.00058042647
0.0013705648
0.00038121785
0.00090927166
0.0013020173
0.00048729479
0.0012035988
0.0011299238
0.00053355721
0.001367255
0.00092880839
0.00050233482
0.0013638169
0.00042169491
0.0012260878
0.00074590999
0.00030285296
1.6404812e-05
2.6500828e-05
0.00064117657
6.7291693e-05
0.00011517416
0.00096658425
0.0001553623
0.00027910708
0.0012088312
0.0002809056
0.00053014769
0.0013081
0.00042549682
0.00083675053
0.0012552708
0.00054845534
0.0011159638
0.0011002195
0.00060542473
0.0012760625
0.00091246728
0.00057472341
0.0012788184
0.00048645727
0.0011525743
0.00073900113
0.00027562674
1.6971886e-05
2.3211638e-05
0.00058719124
7.0415881e-05
0.00010163982
0.00089239879
0.00016416731
0.00024800893
0.0011273637
0.00029987349
0.00047470064
0.0012344694
0.00045840997
0.0007556791
0.0011999018
0.0005965008
0.0010166675
0.0010657186
0.00066389486
0.0011714115
0.0008946136
0.00063646446
0.0011799173
0.00054331116
0.0010657076
0.00073331465
0.00024624264
1.6752269e-05
1.9831475e-05
0.00052883138
7.0543653e-05
8.75657e-05
0.00081207703
0.00016653094
0.00021530036
0.0010392158
0.00030814068
0.00041562495
0.0011551523
0.00047688491
0.0006680631
0.0011412594
0.00062793166
0.00090774416
0.0010310806
0.00070542021
0.0010546659
0.00087955755
0.00068446117
0.0010676072
0.00059013435
0.00096514623
0.00073263703
0.00021489175
1.5912596e-05
1.6437891e-05
0.0004657645
6.7990747e-05
7.3263619e-05
0.00072408564
0.00016250693
0.00018166993
0.00094146152
0.00030473547
0.00035404058
0.0010666857
0.00047828437
0.0005752176
0.0010767322
0.00063848112
0.00079016895
0.00099514409
0.00072547511
0.00092607431
0.00086817233
0.00071432185
0.00094142519
0.00062373258
0.0008498995
0.00073976413
0.00018252351
1.4435234e-05
1.3211098e-05
0.00039997957
6.2616616e-05
5.9401556e-05
0.00063102124
0.00015176754
0.00014846376
0.00083615221
0.0002890631
0.00029195346
0.00096989632
0.00046093447
0.00047934756
0.0010065255
0.00062472143
0.00066551579
0.00095907598
0.00071945811
0.00078610558
0.00086395759
0.00072058491
0.00080083371
0.00063946759
0.00071883986
0.00076084807
0.0001500775
1.0169363e-05
1.2545383e-05
0.00033283289
4.6115211e-05
5.5349656e-05
0.00053399769
0.00011610525
0.00013590211
0.00072429909
0.00023021059
0.00026234561
0.00086612366
0.00038152494
0.00042465381
0.00093291578
0.00053441177
0.00058461398
0.00092730852
0.00063433891
0.00068369062
0.00087552794
0.00064446846
0.00069702843
0.00057066418
0.00063618222
0.00080363965
3.2453257e-06
1.4880439e-06
7.2231618e-06
-1.7871704e-06
1.6193806e-05
2.362166e-06
3.5142707e-05
-4.3381431e-06
4.5126839e-05
-7.5770684e-06
9.4245084e-05
5.0422869e-07
9.5773581e-05
-4.8861428e-05
0.00019873169
2.9693602e-05
0.00016800409
-0.00014485023
0.00034914165
0.00010500289
0.00025007562
-0.00029374847
0.00051460019
0.00023148833
0.00032320935
-0.00045257947
0.00063558698
0.00037819767
0.0003779907
-0.00055184266
0.00066261925
0.00047891062
-0.00055684295
0.00059325364
0.00049858831
0.00041365595
4.4270642e-06
1.5206108e-06
8.7514815e-06
2.2047118e-05
1.2330444e-06
4.2910702e-05
6.0650173e-05
-1.3492009e-05
0.00011577579
0.00012493442
-6.6156778e-05
0.0002449647
0.00020883765
-0.00017964948
0.00043024365
0.00029185621
-0.00034345193
0.00063220077
0.00035095012
-0.00050452707
0.00077895923
0.00038141079
-0.00059636345
0.00081489414
-0.00058846507
0.00074017422
0.00039169855
6.1201143e-06
1.6432544e-06
1.019515e-05
2.9600579e-05
6.6862788e-07
5.03476e-05
7.8894075e-05
-1.7642497e-05
0.00013652693
0.00015631366
-7.8993393e-05
0.00028945771
0.00024915836
-0.00020454439
0.00050726814
0.00032986866
-0.00037515951
0.00074116642
0.00037428584
-0.00053049727
0.00090762764
0.00038371301
-0.00061226209
0.00094789673
-0.00059532885
0.00086669331
0.00037378303
8.1417804e-06
1.708721e-06
1.1624253e-05
3.8495763e-05
2.0730279e-07
5.7673101e-05
9.9810344e-05
-2.0488841e-05
0.00015683219
0.00019081398
-8.6927881e-05
0.00033255595
0.00029110989
-0.00021741854
0.00058064115
0.0003678435
-0.00038671756
0.00084256861
0.00039884144
-0.00053086431
0.0010240353
0.00039067395
-0.00060155221
0.001065065
-0.00057898249
0.00097580096
0.00036367287
1.0229572e-05
1.7323274e-06
1.2958411e-05
4.7555466e-05
-4.3567459e-08
6.456461e-05
0.00012082035
-2.1732877e-05
0.00017598795
0.00022486799
-8.9390452e-05
0.00037311581
0.00033178963
-0.00021784925
0.00064918802
0.00040470844
-0.00037887887
0.00093590998
0.00042481125
-0.00050856269
0.0011290072
0.00040291859
-0.00056807326
0.0011683311
-0.00054300157
0.0010698167
0.0003628288
1.2343119e-05
1.67671e-06
1.4213302e-05
5.6650484e-05
-2.2014044e-07
7.104332e-05
0.00014173483
-2.1661657e-05
0.00019395147
0.00025854472
-8.7012285e-05
0.00041095912
0.00037243284
-0.00020756605
0.00071257936
0.00044272925
-0.00035422883
0.0010210173
0.00045420254
-0.00046713033
0.0012231569
0.00042169653
-0.00051577329
0.0012590244
-0.00049123767
0.0011505264
0.00037198078
1.4342484e-05
1.5337807e-06
1.5398739e-05
6.5152891e-05
-3.5040119e-07
7.7079216e-05
0.00016102067
-2.0350608e-05
0.00021049739
0.00028911353
-8.0122178e-05
0.00044544293
0.00040889401
-0.00018776124
0.00076968641
0.00047726765
-0.00031556136
0.0010965577
0.00048261953
-0.00041074997
0.001305523
0.00044338406
-0.00044977819
0.0013370572
-0.0004282388
0.0012186806
0.00038779252
1.6129935e-05
1.3118954e-06
1.6443673e-05
7.2685643e-05
-4.3080194e-07
8.2396707e-05
0.00017795182
-1.7921042e-05
0.00022505245
0.00031570345
-6.9323852e-05
0.00047570259
0.00044048475
-0.00016006972
0.00081953802
0.00050749754
-0.00026568979
0.0011619202
0.00050825956
-0.00034268627
0.0013760332
0.0004646062
-0.00037376786
0.0014030681
-0.00035623806
0.0012754554
0.00040440304
1.7630568e-05
1.0278893e-06
1.731527e-05
7.8956709e-05
-4.4183912e-07
8.6843291e-05
0.0001919155
-1.4490732e-05
0.00023724542
0.00033737186
-5.5222081e-05
0.00050108747
0.00046601765
-0.00012602477
0.0008612211
0.00053208052
-0.00020726776
0.0012162463
0.00052931652
-0.00026569545
0.0014341784
0.00048153796
-0.00028942833
0.0014570746
-0.00027497182
0.0013213372
0.00041539374
1.8786009e-05
7.0775478e-07
1.7997699e-05
8.375581e-05
-3.5792525e-07
9.0334651e-05
0.0002025167
-1.0210025e-05
0.00024682773
0.00035361305
-3.8466242e-05
0.00052102449
0.00048483084
-8.7020409e-05
0.00089383308
0.00054972694
-0.00014221232
0.0012584844
0.00054382218
-0.00018173264
0.0014790501
0.00049134182
-0.00019745427
0.001498501
-0.000186564
0.0013561653
0.00042034558
1.9583266e-05
3.4307945e-07
1.8535324e-05
8.7021355e-05
-2.629878e-07
9.2958156e-05
0.00020959058
-5.3880256e-06
0.00025377912
0.00036418866
-1.9882022e-05
0.00053508877
0.00049673686
-4.4565281e-05
0.0009163203
0.00056037142
-7.2431225e-05
0.0012871244
0.0005515327
-9.2367862e-05
0.001509107
0.00049553591
-0.00010009817
0.0015260489
-9.4132921e-05
0.0013791181
0.00042197018
1.9943283e-05
9.2222975e-12
1.8757693e-05
8.8482484e-05
9.1580666e-12
9.4126595e-05
0.00021273385
-2.0215973e-11
0.00025703422
0.00036883007
-1.8924876e-10
0.000541914
0.00050184941
-5.3437337e-10
0.00092747124
0.00056478715
-9.1273447e-10
0.0013014921
0.00055438024
-1.2253275e-09
0.0015242787
0.00049669062
-1.4988209e-09
0.0015400149
-1.4009861e-09
0.0013907612
0.00042220828
1.9943275e-05
-3.4305504e-07
1.875769e-05
8.8482487e-05
2.6300657e-07
9.412658e-05
0.00021273375
5.3879838e-06
0.00025703418
0.00036882996
1.9881709e-05
0.00054191392
0.00050184933
4.4564336e-05
0.00092747111
0.00056478704
7.242945e-05
0.0013014919
0.00055438008
9.2365359e-05
0.0015242786
0.0004966905
0.0001000951
0.0015400148
9.413008e-05
0.0013907611
0.00042220824
1.958321e-05
-7.0773377e-07
1.8535322e-05
8.7021403e-05
3.5791014e-07
9.2958147e-05
0.00020959048
1.0209971e-05
0.00025377909
0.00036418862
3.8466078e-05
0.00053508871
0.00049673682
8.7019723e-05
0.00091632021
0.00056037126
0.00014221068
0.0012871243
0.00055153234
0.00018173014
0.0015091069
0.00049553554
0.00019745124
0.0015260487
0.00018656117
0.001379118
0.00042196998
1.8785901e-05
-1.0278713e-06
1.7997692e-05
8.375592e-05
4.4180961e-07
9.0334618e-05
0.00020251669
1.4490744e-05
0.00024682764
0.00035361307
5.5222087e-05
0.00052102432
0.00048483061
0.00012602422
0.00089383282
0.00054972651
0.00020726619
0.0012584841
0.0005438215
0.00026569311
0.0014790498
0.00049134106
0.00028942561
0.0014985007
0.00027496911
0.0013561651
0.00042034496
1.7630562e-05
-1.3118874e-06
1.7315264e-05
7.8956915e-05
4.3075456e-07
8.6843264e-05
0.00019191553
1.7921062e-05
0.00023724536
0.0003373719
6.9323815e-05
0.00050108733
0.00046601731
0.00016006909
0.0008612209
0.00053207998
0.00026568839
0.0012162461
0.00052931569
0.0003426844
0.0014341781
0.00048153685
0.00037376573
0.0014570743
0.0003562356
0.001321337
0.00041539237
1.6130046e-05
-1.5337772e-06
1.6443667e-05
7.2685779e-05
3.503639e-07
8.2396686e-05
0.00017795164
2.0350587e-05
0.0002250524
0.00031570347
8.0122018e-05
0.00047570249
0.00044048449
0.00018776061
0.00081953789
0.0005074971
0.00031556031
0.00116192
0.00050825871
0.00041074858
0.0013760331
0.00046460486
0.0004497766
0.0014030679
0.00042823675
0.0012754553
0.00040440096
1.4342591e-05
-1.676654e-06
1.5398736e-05
6.5152969e-05
2.2026739e-07
7.7079201e-05
0.00016102045
2.1661741e-05
0.00021049736
0.00028911383
8.7012264e-05
0.00044544288
0.00040889409
0.00020756571
0.00076968635
0.00047726739
0.00035422815
0.0010965577
0.00048261867
0.00046712921
0.001305523
0.00044338252
0.00051577214
0.0013370572
0.00049123636
0.0012186805
0.00038779007
1.2343149e-05
-1.732288e-06
1.4213303e-05
5.6650581e-05
4.3683724e-08
7.1043324e-05
0.00014173497
2.1732971e-05
0.00019395149
0.00025854521
8.9390579e-05
0.00041095916
0.00037243292
0.0002178491
0.00071257942
0.00044272896
0.0003788785
0.0010210173
0.00045420163
0.00050856187
0.0012231569
0.00042169496
0.00056807262
0.0012590244
0.00054300096
0.0011505263
0.00037197868
1.0229617e-05
-1.7086783e-06
1.2958411e-05
4.7555713e-05
-2.0717248e-07
6.4564605e-05
0.00012082062
2.0489029e-05
0.00017598794
0.00022486792
8.6928068e-05
0.00037311579
0.00033178947
0.00021741866
0.00064918797
0.00040470801
0.00038671752
0.0009359099
0.00042481029
0.00053086391
0.0011290071
0.00040291735
0.00060155196
0.001168331
0.00057898204
0.0010698165
0.00036282742
8.1417627e-06
-1.6432252e-06
1.1624252e-05
3.8495759e-05
-6.685569e-07
5.7673094e-05
9.9810276e-05
1.7642692e-05
0.00015683217
0.00019081376
7.8993704e-05
0.0003325559
0.00029110977
0.00020454485
0.00058064105
0.00036784323
0.00037515982
0.00084256846
0.00039884067
0.00053049719
0.0010240352
0.00039067296
0.00061226204
0.0010650649
0.00059532786
0.00097580084
0.00036367224
6.1200967e-06
-1.5205964e-06
1.019515e-05
2.9600551e-05
-1.2330042e-06
5.0347596e-05
7.8894076e-05
1.3492171e-05
0.00013652692
0.0001563137
6.615705e-05
0.00028945767
0.00024915822
0.00017964977
0.00050726806
0.00032986828
0.00034345221
0.00074116629
0.00037428473
0.0005045276
0.00090762749
0.00038371133
0.00059636414
0.00094789662
0.0005884634
0.00086669323
0.0003737825
4.4270519e-06
-1.4880308e-06
8.751485e-06
2.2047079e-05
-2.3621271e-06
4.2910716e-05
6.0650167e-05
7.5771622e-06
0.00011577582
0.00012493452
4.8861553e-05
0.00024496475
0.00020883777
0.00014485033
0.0004302437
0.00029185659
0.00029374862
0.00063220082
0.0003509507
0.00045258026
0.00077895924
0.00038141128
0.00055184304
0.00081489417
0.00055684133
0.00074017425
0.00039169909
3.2453487e-06
7.2231683e-06
-1.7871775e-06
1.6193869e-05
3.5142734e-05
-4.3381672e-06
4.5126866e-05
9.4245147e-05
5.0418941e-07
9.5773455e-05
0.0001987318
2.9693524e-05
0.00016800413
0.0003491418
0.00010500278
0.00025007622
0.00051460034
0.00023148825
0.00032321041
0.00063558711
0.0003781973
0.00037799345
0.00066261936
0.00047890926
0.00059325372
0.00049858751
0.00041365804
7.3072276e-07
2.1027089e-07
6.9874547e-06
-7.0528593e-07
4.0438e-06
-1.1540784e-07
3.3954221e-05
-2.0091747e-06
1.2149408e-05
-4.1570808e-06
9.1507325e-05
-1.2107369e-06
2.780836e-05
-2.0499864e-05
0.00019468924
8.8834111e-06
5.4164574e-05
-6.5592863e-05
0.00034566434
4.2713997e-05
9.3147783e-05
-0.00015424461
0.00051484344
0.00011501818
0.00014298797
-0.00027293369
0.00064091462
0.00021776594
0.00019489216
-0.00036492582
0.0006712232
0.00030441772
-0.00038913188
0.00060155932
0.00033746329
0.00023825512
9.6457243e-07
-2.4483473e-07
8.2420205e-06
5.5450345e-06
-2.2294164e-06
4.0444278e-05
1.6858238e-05
-9.6671173e-06
0.00010997268
3.8027264e-05
-3.2276582e-05
0.00023557246
7.069559e-05
-8.7846961e-05
0.00041982949
0.00011271239
-0.00019000866
0.00062594813
0.00015681646
-0.00031782341
0.0007797449
0.00019533338
-0.00040915222
0.00082060376
-0.00042501657
0.00074654429
0.00022484813
1.2679524e-06
-6.6637464e-07
9.3487404e-06
7.2400502e-06
-4.1448474e-06
4.6290937e-05
2.1838641e-05
-1.4587293e-05
0.0001268485
4.8479144e-05
-4.2606918e-05
0.00027314755
8.6867087e-05
-0.0001066324
0.0004876657
0.00013026048
-0.00021810618
0.00072587057
0.00016737134
-0.0003486574
0.00090135083
0.00019232552
-0.00043442602
0.00094821643
-0.00044140805
0.00086887202
0.00020653835
1.5834668e-06
-1.0225164e-06
1.039693e-05
9.0367419e-06
-5.7388949e-06
5.1813883e-05
2.7095908e-05
-1.8553186e-05
0.00014273894
5.9320958e-05
-5.0575817e-05
0.00030829988
0.00010318269
-0.00012025343
0.00055040043
0.00014722636
-0.00023620178
0.00081662054
0.00017738431
-0.0003639143
0.0010091343
0.00019018326
-0.00044068414
0.0010585244
-0.00043907253
0.0009725249
0.00019112383
1.8583988e-06
-1.2542761e-06
1.1331758e-05
1.0676372e-05
-6.7987942e-06
5.6806484e-05
3.2042852e-05
-2.1162492e-05
0.00015723073
6.9657863e-05
-5.5562849e-05
0.00034048787
0.0001186516
-0.00012777912
0.00060771996
0.0001628588
-0.00024313283
0.00089863385
0.00018658419
-0.00036345097
0.0011048185
0.00018932667
-0.00042940907
0.0011543136
-0.00042059511
0.0010605181
0.00018014786
2.1628688e-06
-1.3891934e-06
1.218534e-05
1.2428837e-05
-7.3936758e-06
6.1372227e-05
3.7221102e-05
-2.2494184e-05
0.00017049093
8.0213885e-05
-5.7523657e-05
0.00036992702
0.00013389905
-0.0001288238
0.00065993891
0.00017788546
-0.00023858147
0.00097247954
0.00019550964
-0.00034751406
0.0011895959
0.00018928712
-0.00040158029
0.0012374183
-0.0003870969
0.0011349755
0.0001713398
2.4453466e-06
-1.4160893e-06
1.2980246e-05
1.4040066e-05
-7.4635568e-06
6.5554347e-05
4.1919256e-05
-2.2371912e-05
0.00018249603
8.9591143e-05
-5.6113274e-05
0.00039636055
0.00014702316
-0.00012295828
0.00070638891
0.00018992119
-0.00022234098
0.0010374193
0.00020126374
-0.0003163244
0.001262991
0.00018696209
-0.00035827279
0.0013080515
-0.00034006849
0.0011968427
0.00016177167
2.6840889e-06
-1.322612e-06
1.366608e-05
1.539466e-05
-6.9448343e-06
6.9167396e-05
4.5830964e-05
-2.0633825e-05
0.00019287813
9.7234079e-05
-5.1055064e-05
0.00041924126
0.00015717181
-0.00010989258
0.00074653469
0.00019822283
-0.00019467472
0.001093203
0.0002037437
-0.0002711223
0.0013253104
0.0001827917
-0.00030133411
0.0013670815
-0.00028210422
0.0012474334
0.0001528495
2.8777845e-06
-1.1102421e-06
1.4225109e-05
1.6479598e-05
-5.8321676e-06
7.21288e-05
4.8913563e-05
-1.7254231e-05
0.00020143193
0.00010307872
-4.2309497e-05
0.00043817676
0.00016436906
-8.9783388e-05
0.00077982174
0.00020295991
-0.00015632683
0.0011393077
0.00020351706
-0.00021385667
0.0013763557
0.00017840135
-0.0002339223
0.0014147785
-0.00021747678
0.0012875201
0.00014759107
3.0326258e-06
-8.0060886e-07
1.4655453e-05
1.732696e-05
-4.2117596e-06
7.4419895e-05
5.126486e-05
-1.2434799e-05
0.00020807047
0.00010737814
-3.0307003e-05
0.0004529087
0.00016934413
-6.3629954e-05
0.00080571376
0.00020579116
-0.00010930248
0.0011750131
0.00020279432
-0.00014735763
0.001415548
0.00017609772
-0.00015965472
0.0014509301
-0.00014805587
0.0013174532
0.00014538901
3.1529913e-06
-4.2377162e-07
1.5005509e-05
1.7952566e-05
-2.2225417e-06
7.6169353e-05
5.2923253e-05
-6.536642e-06
0.00021291035
0.00011025292
-1.5845334e-05
0.00046329743
0.00017240727
-3.3010889e-05
0.00082354694
0.00020725577
-5.6199277e-05
0.0011991728
0.00020237665
-7.50408e-05
0.0014416694
0.00017492123
-8.0877762e-05
0.0014747274
-7.4941383e-05
0.0013369107
0.00014401429
3.1968496e-06
1.0152719e-11
1.5137066e-05
1.8198716e-05
2.2223954e-11
7.6902142e-05
5.3600884e-05
2.0801457e-11
0.00021509544
0.00011142033
-7.6542133e-11
0.00046824931
0.0001735356
-3.5536823e-10
0.00083234552
0.00020751573
-7.5584699e-10
0.0012113135
0.00020186378
-1.1207304e-09
0.0014548911
0.00017419462
-1.2871009e-09
0.0014868077
-1.1258805e-09
0.0013467793
0.00014323635
3.1968425e-06
4.2379707e-07
1.5137063e-05
1.8198702e-05
2.2225964e-06
7.6902132e-05
5.3600821e-05
6.5367023e-06
0.00021509541
0.00011142024
1.5845216e-05
0.00046824925
0.00017353546
3.3010224e-05
0.00083234542
0.00020751554
5.6197793e-05
0.0012113134
0.00020186355
7.503856e-05
0.001454891
0.00017419438
8.0875179e-05
0.0014868076
7.4939137e-05
0.0013467792
0.00014323608
3.152982e-06
8.0063145e-07
1.5005509e-05
1.795257e-05
4.2118051e-06
7.616935e-05
5.2923191e-05
1.2434867e-05
0.00021291035
0.00011025283
3.0306947e-05
0.00046329741
0.00017240705
6.3629398e-05
0.00082354691
0.00020725538
0.00010930111
0.0011991727
0.00020237611
0.00014735548
0.0014416693
0.00017492056
0.00015965223
0.0014747273
0.00014805377
0.0013369106
0.00014401344
3.0326065e-06
1.1102709e-06
1.4655449e-05
1.7326936e-05
5.8322293e-06
7.4419876e-05
5.1264723e-05
1.7254347e-05
0.00020807041
0.00010737793
4.2309529e-05
0.00045290859
0.00016934367
8.9782947e-05
0.00080571358
0.00020579045
0.0001563256
0.0011750129
0.00020279337
0.0002138547
0.0014155478
0.00017609657
0.00023392003
0.0014509298
0.00021747501
0.001317453
0.00014538756
2.877776e-06
1.3226554e-06
1.4225107e-05
1.6479562e-05
6.9449328e-06
7.2128788e-05
4.8913384e-05
2.0634009e-05
0.0002014319
0.00010307842
5.1055181e-05
0.00043817669
0.00016436842
0.00010989226
0.00077982163
0.00020295897
0.00019467369
0.0011393075
0.00020351579
0.00027112061
0.0013763555
0.0001783998
0.00030133217
0.0014147783
0.00028210289
0.0012875199
0.00014758913
2.6840975e-06
1.4161485e-06
1.3666078e-05
1.5394628e-05
7.4637076e-06
6.9167391e-05
4.5830743e-05
2.2372198e-05
0.00019287812
9.7233715e-05
5.611352e-05
0.00041924123
0.00015717114
0.00012295813
0.00074653465
0.00019822183
0.00022234021
0.0010932029
0.00020374229
0.00031632303
0.0013253103
0.00018278994
0.00035827121
0.0013670813
0.00034006754
0.0012474332
0.00015284735
2.4453747e-06
1.3892647e-06
1.2980246e-05
1.4040075e-05
7.3938752e-06
6.5554346e-05
4.1919081e-05
2.2494547e-05
0.00018249603
8.9590902e-05
5.7524057e-05
0.00039636056
0.00014702263
0.00012882387
0.00070638893
0.00018992029
0.00023858098
0.0010374193
0.00020126238
0.00034751298
0.001262991
0.00018696034
0.00040157899
0.0013080514
0.0003870962
0.0011968425
0.0001617697
2.1628736e-06
1.2543515e-06
1.2185343e-05
1.2428825e-05
6.7990186e-06
6.1372241e-05
3.7221004e-05
2.11629e-05
0.00017049097
8.0213748e-05
5.5563372e-05
0.00036992711
0.00013389864
0.00012777936
0.00065993905
0.00017788471
0.0002431326
0.0009724797
0.00019550848
0.00036345018
0.001189596
0.00018928563
0.000429408
0.0012374183
0.00042059446
0.0011349754
0.00017133835
1.8584134e-06
1.0225873e-06
1.1331759e-05
1.067642e-05
5.7391296e-06
5.6806488e-05
3.2042867e-05
1.8553633e-05
0.00015723074
6.9657735e-05
5.0576385e-05
0.0003404879
0.00011865132
0.0001202538
0.00060771998
0.00016285827
0.00023620175
0.00089863385
0.00018658332
0.00036391377
0.0011048185
0.00018932553
0.00044068328
0.0011543135
0.00043907171
0.0010605179
0.00018014694
1.5834654e-06
6.6643686e-07
1.0396931e-05
9.0367583e-06
4.1450483e-06
5.1813882e-05
2.7095953e-05
1.458768e-05
0.00014273893
5.9321001e-05
4.2607433e-05
0.00030829986
0.00010318273
0.00010663283
0.00055040039
0.00014722629
0.00021810624
0.00081662046
0.00017738401
0.00034865699
0.0010091342
0.00019018255
0.00043442551
0.0010585242
0.00044140709
0.00097252473
0.00019112331
1.2679574e-06
2.4488254e-07
9.3487411e-06
7.2401001e-06
2.2295712e-06
4.6290937e-05
2.1838795e-05
9.6674347e-06
0.0001268485
4.8479435e-05
3.2277011e-05
0.00027314752
8.6867443e-05
8.7847257e-05
0.00048766564
0.0001302609
0.00019000856
0.00072587046
0.00016737171
0.00031782302
0.00090135069
0.00019232541
0.0004091522
0.00094821628
0.00042501601
0.0008688719
0.00020653796
9.6459105e-07
-2.1024408e-07
8.2420246e-06
5.5451164e-06
1.1549926e-07
4.0444293e-05
1.6858465e-05
4.1572568e-06
0.00010997271
3.8027712e-05
2.0500062e-05
0.00023557251
7.0696214e-05
6.55929e-05
0.00041982954
0.00011271321
0.0001542443
0.00062594817
0.00015681739
0.00027293334
0.00077974491
0.00019533402
0.000364926
0.00082060376
0.00038913219
0.00074654428
0.00022484786
7.307729e-07
6.9874613e-06
-7.0530386e-07
4.044014e-06
3.3954247e-05
-2.0092387e-06
1.2149917e-05
9.1507383e-05
-1.2108822e-06
2.7809302e-05
0.00019468934
8.8830958e-06
5.4166168e-05
0.00034566446
4.2713385e-05
9.3150149e-05
0.00051484357
0.00011501723
0.00014299076
0.00064091473
0.00021776498
0.00019489505
0.0006712233
0.00030441788
0.00060155938
0.0003374653
0.00023825632
-2.790852e-07
-7.2482117e-08
7.3363544e-06
2.6677331e-09
-1.3524173e-06
-1.0320819e-06
3.5471078e-05
5.8856028e-07
-3.1356823e-06
-4.8711062e-06
9.4957721e-05
3.2039846e-06
-3.8241109e-06
-1.6366561e-05
0.00020047318
1.1271058e-05
1.160694e-06
-4.4050025e-05
0.0003535529
3.1176652e-05
1.7848379e-05
-9.5891647e-05
0.00052448985
6.9557555e-05
4.6856117e-05
-0.00016250165
0.00065215856
0.00012224999
8.2194551e-05
-0.00021991548
0.00068327999
0.00017252026
-0.00024303292
0.0006123615
0.00019890983
0.00011551546
-3.5090681e-07
-8.0967435e-08
8.6014142e-06
-1.5735278e-06
-1.3338554e-06
4.196868e-05
-3.3422985e-06
-6.3903944e-06
0.00011326075
-3.3189437e-06
-2.1368313e-05
0.00024055086
3.495243e-06
-5.6705616e-05
0.00042567091
2.2124346e-05
-0.00012090507
0.00063233247
5.1445222e-05
-0.00019947924
0.0007874016
8.3199311e-05
-0.00026064049
0.00082957469
-0.0002797795
0.00075511367
0.00011137652
-3.3477782e-07
-8.9384057e-08
9.6919344e-06
-1.4577595e-06
-1.6116045e-06
4.769166e-05
-2.7793965e-06
-7.8231092e-06
0.00012960283
-1.3839228e-06
-2.6107109e-05
0.00027649082
8.0952668e-06
-6.8495831e-05
0.00048997668
2.9106138e-05
-0.00014291201
0.0007268666
5.7713013e-05
-0.00022965561
0.00090292028
8.508717e-05
-0.00029129966
0.0009515014
-0.00030489924
0.0008727647
0.0001063142
-2.4628259e-07
-1.4681027e-07
1.0700639e-05
-9.8072583e-07
-2.0413866e-06
5.2978103e-05
-1.2699533e-06
-9.443175e-06
0.00014464821
2.3247184e-06
-3.0739141e-05
0.00030933722
1.5397544e-05
-7.9195126e-05
0.00054802685
3.8949063e-05
-0.00016040131
0.00081055823
6.6237946e-05
-0.0002504885
0.0010026783
8.8585029e-05
-0.00030932634
0.001054204
-0.00031629751
0.00097001927