/*--------------------------------*- C++ -*----------------------------------*\
| =========                 |                                                 |
| \\      /  F ield         | OpenFOAM: The Open Source CFD Toolbox           |
|  \\    /   O peration     | Version:  2406                                  |
|   \\  /    A nd           | Website:  www.openfoam.com                      |
|    \\/     M anipulation  |                                                 |
\*---------------------------------------------------------------------------*/
FoamFile
{
    version     2.0;
    format      ascii;
    arch        "LSB;label=32;scalar=64";
    class       volVectorField;
    location    "15.5";
    object      U;
}
// * * * * * * * * * * * * * * * * * * * * * * * * * * * * * * * * * * * * * //

dimensions      [0 1 -1 0 0 0 0];

internalField   nonuniform List<vector> 
34560
(
(0.069507076 -0.0014439738 -0.016520215)
(0.22202321 -0.0032612628 -0.05311999)
(0.40771572 -0.0057994324 -0.095257944)
(0.61788843 -0.0085367099 -0.13913802)
(0.83573069 -0.012009268 -0.17751684)
(1.0380597 -0.016241359 -0.20312963)
(1.2008853 -0.020189262 -0.21113683)
(1.3168829 -0.023979642 -0.20463928)
(1.3931487 -0.026198105 -0.19030904)
(0.084358316 -0.0019827394 -0.019200663)
(0.26510196 -0.0043116049 -0.061326926)
(0.47882295 -0.00712951 -0.10849827)
(0.71202948 -0.0097522543 -0.15575606)
(0.9435879 -0.012793689 -0.19443439)
(1.1477119 -0.01641143 -0.21681334)
(1.3020062 -0.019564697 -0.21912635)
(1.4036812 -0.02202362 -0.20629124)
(1.4672143 -0.023358334 -0.18506728)
(0.099596973 -0.0020950164 -0.021194996)
(0.30832461 -0.0042804339 -0.067601052)
(0.54846333 -0.0068749373 -0.11855473)
(0.80158457 -0.009229977 -0.16825199)
(1.0431576 -0.012045807 -0.20701586)
(1.2461964 -0.015594583 -0.22692912)
(1.3913422 -0.018844109 -0.22541061)
(1.4800819 -0.020928582 -0.208237)
(1.5330581 -0.022046816 -0.18394033)
(0.11530235 -0.0022915369 -0.023091179)
(0.35194298 -0.0044620823 -0.073486412)
(0.61726635 -0.0068219149 -0.12774328)
(0.88799325 -0.0087933796 -0.17927186)
(1.1370641 -0.011205578 -0.21763262)
(1.3374254 -0.014460418 -0.23499904)
(1.4734039 -0.017601659 -0.23021915)
(1.5503622 -0.019218353 -0.20976329)
(1.5936206 -0.019799608 -0.18347001)
(0.13069063 -0.0022798442 -0.024672743)
(0.39411859 -0.0041865762 -0.078488569)
(0.68295937 -0.0061511584 -0.13548294)
(0.96946049 -0.0076914649 -0.18836537)
(1.2242398 -0.0097372065 -0.22626467)
(1.4213081 -0.012660378 -0.24132226)
(1.5485673 -0.015549411 -0.23378842)
(1.6149363 -0.016695683 -0.21078141)
(1.6492349 -0.016844123 -0.18311117)
(0.14542562 -0.002190622 -0.025951966)
(0.4339897 -0.0038446752 -0.082621161)
(0.74431988 -0.0054198353 -0.14186875)
(1.0446413 -0.0065463185 -0.19580672)
(1.3038804 -0.0082141551 -0.23324711)
(1.4975318 -0.010724414 -0.24626768)
(1.6165899 -0.013188867 -0.23628504)
(1.6737443 -0.013943555 -0.21140631)
(1.6999169 -0.013768433 -0.18269634)
(0.15920153 -0.0020218757 -0.02703271)
(0.47081396 -0.0033971343 -0.086123715)
(0.80035906 -0.0045856412 -0.14721957)
(1.1125654 -0.0053295612 -0.20193351)
(1.3752851 -0.0066363227 -0.2388585)
(1.565671 -0.0087181141 -0.25003823)
(1.6773054 -0.010718632 -0.23789661)
(1.7264704 -0.011175813 -0.21161113)
(1.7453675 -0.010778764 -0.18205033)
(0.17134989 -0.0017774094 -0.027899478)
(0.50306186 -0.0028719049 -0.088980874)
(0.8491488 -0.0037176354 -0.15156953)
(1.1714047 -0.004155192 -0.20686394)
(1.4370374 -0.0051426062 -0.24328263)
(1.624729 -0.0068052098 -0.25283894)
(1.730133 -0.0083600097 -0.23886268)
(1.7724547 -0.0085793917 -0.21142336)
(1.7849574 -0.0080418982 -0.18112843)
(0.18146558 -0.0014506544 -0.028561398)
(0.52978827 -0.002257186 -0.091210854)
(0.88945144 -0.0028131679 -0.15496535)
(1.2199265 -0.0030348875 -0.21068603)
(1.4880365 -0.003759061 -0.24663818)
(1.673723 -0.0050353526 -0.2548036)
(1.7741879 -0.0061897722 -0.23929362)
(1.8108313 -0.0062374484 -0.21088332)
(1.8179195 -0.0056566194 -0.1799919)
(0.18930412 -0.0010724201 -0.02903398)
(0.55043368 -0.0016321687 -0.092839462)
(0.92051616 -0.0019814038 -0.15745308)
(1.2573072 -0.0020832281 -0.21346997)
(1.5273885 -0.002584953 -0.24901721)
(1.7116698 -0.003486261 -0.25605376)
(1.8084509 -0.0042679441 -0.23932195)
(1.8406448 -0.0042045374 -0.21012742)
(1.8434889 -0.0036788791 -0.17883164)
(0.19487733 -0.00069072786 -0.029379921)
(0.56492951 -0.00106845 -0.093992049)
(0.94209321 -0.0012806874 -0.15916978)
(1.2830385 -0.0013166024 -0.21533989)
(1.5543695 -0.0015918103 -0.2505291)
(1.7376404 -0.0021018876 -0.25672615)
(1.831902 -0.0025285767 -0.23912371)
(1.8609966 -0.0024274319 -0.20938052)
(1.8609293 -0.0020523322 -0.17786968)
(0.19749913 -0.00021045783 -0.029532258)
(0.57184801 -0.00027703486 -0.094534903)
(0.95252498 -0.00030139762 -0.15999218)
(1.2956344 -0.00028771682 -0.21624398)
(1.5677369 -0.00038530294 -0.25125531)
(1.7506395 -0.00058192366 -0.25702196)
(1.843723 -0.00075437091 -0.238968)
(1.871274 -0.00074171985 -0.20894097)
(1.8697455 -0.0006307297 -0.1773367)
(0.19749912 0.00021043587 -0.02953225)
(0.571848 0.00027695516 -0.094534908)
(0.95252497 0.00030126863 -0.15999218)
(1.2956344 0.00028753843 -0.21624396)
(1.5677368 0.00038505384 -0.2512553)
(1.7506395 0.00058162776 -0.25702197)
(1.843723 0.00075403001 -0.23896799)
(1.871274 0.00074130132 -0.20894094)
(1.8697454 0.00063026718 -0.17733669)
(0.19487733 0.00069072384 -0.029379913)
(0.5649295 0.0010683994 -0.09399204)
(0.94209319 0.001280593 -0.1591698)
(1.2830384 0.0013164818 -0.21533989)
(1.5543694 0.0015916253 -0.25052912)
(1.7376403 0.0021016226 -0.25672616)
(1.8319019 0.0025282275 -0.23912367)
(1.8609966 0.0024270135 -0.20938044)
(1.8609292 0.0020518725 -0.17786963)
(0.18930411 0.0010724296 -0.029034023)
(0.55043366 0.0016321876 -0.092839492)
(0.92051612 0.0019814025 -0.15745323)
(1.2573071 0.0020831917 -0.21347007)
(1.5273884 0.0025848238 -0.24901727)
(1.7116697 0.0034860142 -0.25605375)
(1.8084508 0.0042675975 -0.23932186)
(1.8406447 0.0042041452 -0.21012729)
(1.8434888 0.0036784437 -0.17883158)
(0.18146557 0.0014506757 -0.028561483)
(0.52978824 0.0022572591 -0.091210961)
(0.8894514 0.0028132308 -0.15496553)
(1.2199264 0.0030348512 -0.2106861)
(1.4880364 0.0037589045 -0.24663821)
(1.6737228 0.005035106 -0.25480354)
(1.7741878 0.0061894706 -0.2392935)
(1.8108312 0.0062371182 -0.21088314)
(1.8179194 0.0056562249 -0.1799918)
(0.17134988 0.0017774065 -0.027899488)
(0.50306182 0.0028718942 -0.088980892)
(0.84914874 0.0037176186 -0.1515695)
(1.1714046 0.0041550607 -0.20686386)
(1.4370373 0.0051423937 -0.24328265)
(1.6247289 0.006804988 -0.25283891)
(1.7301329 0.0083597869 -0.23886256)
(1.7724546 0.0085791336 -0.21142311)
(1.7849573 0.0080415592 -0.18112816)
(0.15920152 0.0020218753 -0.027032645)
(0.47081391 0.0033970597 -0.086123713)
(0.80035897 0.0045855615 -0.14721944)
(1.1125653 0.0053294508 -0.20193346)
(1.375285 0.0066361595 -0.23885864)
(1.5656709 0.0087179598 -0.25003828)
(1.6773053 0.010718461 -0.23789648)
(1.7264704 0.011175595 -0.21161078)
(1.7453675 0.010778486 -0.18204986)
(0.1454256 0.0021906305 -0.025951974)
(0.43398964 0.0038446622 -0.082621167)
(0.74431977 0.0054197908 -0.14186874)
(1.0446411 0.0065463219 -0.19580686)
(1.3038802 0.0082140916 -0.23324729)
(1.4975317 0.010724375 -0.24626769)
(1.6165899 0.01318876 -0.23628483)
(1.6737442 0.013943347 -0.21140587)
(1.6999168 0.013768145 -0.18269582)
(0.13069062 0.0022798556 -0.024672716)
(0.39411855 0.004186543 -0.078488589)
(0.6829593 0.0061510985 -0.13548306)
(0.96946039 0.0076914749 -0.1883655)
(1.2242396 0.0097372249 -0.22626475)
(1.421308 0.0126604 -0.24132223)
(1.5485673 0.01554946 -0.23378811)
(1.6149363 0.016695547 -0.21078086)
(1.6492348 0.016843777 -0.18311066)
(0.11530234 0.0022915516 -0.023091183)
(0.35194296 0.0044620451 -0.073486555)
(0.61726631 0.0068219058 -0.12774346)
(0.88799319 0.0087933798 -0.17927204)
(1.137064 0.011205673 -0.21763275)
(1.3374253 0.014460527 -0.23499902)
(1.4734038 0.017601908 -0.23021883)
(1.5503622 0.019218384 -0.20976259)
(1.5936205 0.019799307 -0.18346956)
(0.09959697 0.0020950464 -0.021195042)
(0.3083246 0.0042804597 -0.06760121)
(0.54846332 0.0068750197 -0.11855487)
(0.80158456 0.0092300764 -0.16825212)
(1.0431576 0.01204597 -0.20701593)
(1.2461964 0.015594806 -0.22692912)
(1.3913421 0.01884445 -0.22541019)
(1.4800819 0.020929119 -0.20823636)
(1.533058 0.022046788 -0.18394014)
(0.084358324 0.0019827555 -0.019200674)
(0.26510199 0.0043116174 -0.061326954)
(0.478823 0.0071295728 -0.10849827)
(0.71202957 0.0097523777 -0.15575608)
(0.943588 0.012793855 -0.19443441)
(1.147712 0.016411625 -0.21681327)
(1.3020063 0.019564884 -0.21912616)
(1.4036812 0.022024134 -0.20629067)
(1.4672143 0.023358471 -0.18506646)
(0.069507093 0.0014439791 -0.016520207)
(0.22202327 0.0032612496 -0.053119976)
(0.40771584 0.0057994356 -0.095257927)
(0.61788862 0.0085367762 -0.13913798)
(0.83573093 0.012009415 -0.17751668)
(1.0380599 0.016241511 -0.20312945)
(1.2008855 0.020189389 -0.21113663)
(1.3168829 0.023979671 -0.20463821)
(1.3931487 0.026197936 -0.19030785)
(0.048934882 0.0012636458 0.00089583738)
(0.17031323 0.0025966067 0.00077780495)
(0.33913587 0.0019093042 -0.003890011)
(0.55604812 -0.0027558083 -0.015904046)
(0.80599047 -0.012717033 -0.035863076)
(1.0579871 -0.027253359 -0.059812948)
(1.2773678 -0.043735129 -0.081272757)
(1.439869 -0.05794971 -0.09361499)
(1.5374783 -0.067194784 -0.096282214)
(0.05564221 0.0010461359 0.00049613936)
(0.19365211 0.0014786639 -0.0008092222)
(0.38474213 -0.0007791856 -0.007740477)
(0.62658218 -0.0076750319 -0.023133032)
(0.89620788 -0.019933832 -0.046616651)
(1.154495 -0.035734772 -0.072166702)
(1.3652148 -0.051799312 -0.092127258)
(1.5114198 -0.064323598 -0.10115641)
(1.5951375 -0.071237719 -0.099732777)
(0.061980611 0.0012112962 0.00039144084)
(0.21578946 0.0015170363 -0.0014995714)
(0.42801186 -0.0014341559 -0.009998657)
(0.69304337 -0.0095785312 -0.027798297)
(0.97942691 -0.023011359 -0.053544929)
(1.2405233 -0.038904297 -0.07951805)
(1.4403124 -0.053624192 -0.097441252)
(1.5709258 -0.06437284 -0.10398351)
(1.6435999 -0.069721128 -0.10024568)
(0.068415971 0.0012688813 0.0001882699)
(0.23797616 0.0013956323 -0.0023814293)
(0.47085226 -0.0020599926 -0.01242368)
(0.75799523 -0.010940758 -0.032323181)
(1.0594159 -0.024787302 -0.059640892)
(1.3217591 -0.040059808 -0.085322575)
(1.5103411 -0.053034284 -0.10094263)
(1.6264995 -0.061994236 -0.10542106)
(1.6888451 -0.066149461 -0.10012268)
(0.074506811 0.0013093949 -1.2518706e-05)
(0.25902551 0.0013434806 -0.0031782466)
(0.51148705 -0.0023589417 -0.014545491)
(0.81933791 -0.011489799 -0.036171033)
(1.1348315 -0.025111722 -0.064426285)
(1.398187 -0.039328587 -0.089669064)
(1.5764092 -0.05049731 -0.1032128)
(1.6794178 -0.057775849 -0.10611887)
(1.7318823 -0.060888256 -0.099899808)
(0.08028332 0.0013104329 -0.00022366311)
(0.27892692 0.0013146615 -0.003923995)
(0.54975122 -0.0023917126 -0.016387614)
(0.87676812 -0.011295726 -0.039301457)
(1.2050815 -0.024118561 -0.068010894)
(1.469425 -0.036902838 -0.09278443)
(1.6386439 -0.046297487 -0.10469703)
(1.72977 -0.052035608 -0.10642882)
(1.7730451 -0.05430681 -0.099875786)
(0.085826489 0.0012342967 -0.00044245083)
(0.29777498 0.0011949256 -0.0046356142)
(0.58557472 -0.0023445223 -0.018019244)
(0.92996669 -0.010626375 -0.041907522)
(1.2695725 -0.022179174 -0.070749156)
(1.5346198 -0.033246141 -0.094813218)
(1.6963146 -0.040908132 -0.10562729)
(1.7771234 -0.045328334 -0.10654922)
(1.8122118 -0.047012502 -0.10022321)
(0.09074913 0.00109918 -0.00064670484)
(0.31451305 0.0010309198 -0.0052575509)
(0.61736422 -0.0021623293 -0.019362442)
(0.97711765 -0.0094703606 -0.043937422)
(1.3266451 -0.019395675 -0.072715752)
(1.5924472 -0.028599547 -0.096041142)
(1.7480774 -0.034670832 -0.1060346)
(1.8204925 -0.03809114 -0.10644232)
(1.8487557 -0.039407407 -0.1004893)
(0.094873738 0.00090544602 -0.0008259512)
(0.32857993 0.0008149625 -0.0057721346)
(0.64414439 -0.0018755355 -0.020408211)
(1.0169116 -0.00791316 -0.045417803)
(1.374887 -0.015935112 -0.073991203)
(1.6415253 -0.023194019 -0.09659591)
(1.7924781 -0.027832629 -0.10599981)
(1.8584459 -0.030477903 -0.10602415)
(1.8812578 -0.031458607 -0.10003248)
(0.098109437 0.00067450979 -0.00096698331)
(0.33966598 0.0005851143 -0.0061557628)
(0.66530092 -0.0014638817 -0.021142627)
(1.0483627 -0.0059882203 -0.046375251)
(1.4130097 -0.011896967 -0.074660508)
(1.6803634 -0.017158401 -0.096595079)
(1.8278176 -0.020475857 -0.10539618)
(1.8891736 -0.02237565 -0.10515457)
(1.9076987 -0.022992464 -0.098358223)
(0.1006771 0.00041530318 -0.0010657378)
(0.34813042 0.0003486349 -0.0064146498)
(0.68095548 -0.00094011537 -0.021610165)
(1.0710323 -0.0037448528 -0.04691558)
(1.4399366 -0.0073619281 -0.074912991)
(1.7075068 -0.010556449 -0.096296829)
(1.8524636 -0.012574344 -0.10460344)
(1.9107198 -0.013716585 -0.10388397)
(1.9262594 -0.014011449 -0.096628975)
(0.10174975 0.00012142254 -0.0011129006)
(0.35190093 6.2686274e-05 -0.0065314298)
(0.68826957 -0.00039813334 -0.0218064)
(1.0820156 -0.0013579685 -0.047118452)
(1.4532998 -0.002574481 -0.074945051)
(1.7211763 -0.0036318059 -0.096023149)
(1.8650005 -0.0042882224 -0.10408108)
(1.9217405 -0.0046455026 -0.10300212)
(1.9357589 -0.0047105937 -0.095576787)
(0.10174975 -0.0001214106 -0.0011129013)
(0.35190092 -6.2679677e-05 -0.0065314346)
(0.68826956 0.00039811564 -0.021806402)
(1.0820155 0.0013578697 -0.047118449)
(1.4532997 0.0025742616 -0.074945052)
(1.7211762 0.003631483 -0.096023147)
(1.8650005 0.004287828 -0.10408106)
(1.9217405 0.0046450429 -0.10300209)
(1.9357588 0.0047101491 -0.095576764)
(0.10067709 -0.00041528348 -0.0010657409)
(0.3481304 -0.00034861319 -0.0064146557)
(0.68095542 0.00094012045 -0.021610179)
(1.0710322 0.0037447948 -0.046915582)
(1.4399365 0.0073617592 -0.074913)
(1.7075066 0.01055616 -0.096296812)
(1.8524635 0.012573969 -0.10460336)
(1.9107197 0.013716143 -0.10388387)
(1.9262593 0.01401101 -0.096628903)
(0.098109422 -0.00067449032 -0.00096699828)
(0.33966593 -0.00058508302 -0.0061557887)
(0.66530082 0.0014639081 -0.021142694)
(1.0483626 0.0059881999 -0.046375301)
(1.4130095 0.011896841 -0.074660537)
(1.6803632 0.017158143 -0.096595035)
(1.8278174 0.020475515 -0.10539606)
(1.8891734 0.022375254 -0.10515439)
(1.9076985 0.022992056 -0.098358095)
(0.09487372 -0.00090542863 -0.00082598561)
(0.32857988 -0.00081492692 -0.0057722082)
(0.64414429 0.001875569 -0.020408314)
(1.0169115 0.0079131338 -0.045417867)
(1.3748868 0.015934981 -0.073991221)
(1.6415251 0.02319378 -0.096595836)
(1.7924779 0.027832338 -0.10599965)
(1.8584458 0.03047759 -0.10602391)
(1.8812576 0.03145826 -0.10003229)
(0.090749105 -0.0010991693 -0.00064672488)
(0.31451297 -0.001030916 -0.0052576248)
(0.61736408 0.0021623245 -0.019362481)
(0.97711746 0.0094702816 -0.043937441)
(1.3266449 0.019395518 -0.072715763)
(1.592447 0.028599344 -0.096041075)
(1.7480772 0.034670613 -0.10603443)
(1.8204923 0.038090925 -0.10644202)
(1.8487556 0.039407136 -0.10048899)
(0.085826463 -0.0012342806 -0.00044244424)
(0.29777489 -0.0011949391 -0.0046356751)
(0.58557457 0.0023444985 -0.018019251)
(0.92996648 0.010626299 -0.041907575)
(1.2695723 0.022179042 -0.070749242)
(1.5346196 0.033245995 -0.094813195)
(1.6963144 0.040907977 -0.10562711)
(1.7771233 0.045328199 -0.10654885)
(1.8122117 0.047012298 -0.10022278)
(0.080283299 -0.0013104087 -0.00022366216)
(0.27892685 -0.0013146444 -0.003924043)
(0.54975108 0.0023917243 -0.016387666)
(0.87676793 0.011295722 -0.039301591)
(1.2050813 0.024118493 -0.068011006)
(1.4694248 0.036902756 -0.092784389)
(1.6386438 0.046297384 -0.10469682)
(1.7297698 0.05203552 -0.10642838)
(1.773045 0.054306634 -0.099875303)
(0.074506801 -0.0013093712 -1.2526826e-05)
(0.25902548 -0.0013434684 -0.0031783421)
(0.51148699 0.0023589633 -0.01454562)
(0.81933781 0.011489824 -0.036171171)
(1.1348313 0.02511171 -0.06442634)
(1.3981869 0.039328563 -0.089668993)
(1.5764091 0.050497257 -0.10321255)
(1.6794178 0.057775764 -0.10611835)
(1.7318822 0.060888065 -0.0998993)
(0.068415973 -0.0012688612 0.00018825355)
(0.23797616 -0.0013956301 -0.0023815372)
(0.47085226 0.002060019 -0.012423794)
(0.75799519 0.010940788 -0.032323278)
(1.0594158 0.024787352 -0.059640932)
(1.321759 0.040059858 -0.085322491)
(1.510341 0.053034304 -0.10094233)
(1.6264995 0.061994142 -0.10542046)
(1.688845 0.066149241 -0.10012222)
(0.061980623 -0.0012112782 0.00039142562)
(0.2157895 -0.0015170276 -0.0014996433)
(0.42801192 0.0014341953 -0.0099987266)
(0.69304345 0.0095785911 -0.027798377)
(0.97942697 0.023011474 -0.053544959)
(1.2405234 0.038904445 -0.079517943)
(1.4403124 0.053624318 -0.097440878)
(1.5709259 0.064372851 -0.10398289)
(1.6436 0.069720894 -0.10024527)
(0.055642232 -0.0010461302 0.00049613904)
(0.19365218 -0.001478674 -0.00080923503)
(0.38474226 0.00077920131 -0.0077404803)
(0.62658236 0.0076750781 -0.023133058)
(0.89620807 0.019933913 -0.046616641)
(1.1544952 0.035734898 -0.07216655)
(1.365215 0.051799447 -0.092126878)
(1.5114199 0.064323625 -0.10115569)
(1.5951376 0.071237482 -0.099732178)
(0.048934918 -0.0012636447 0.00089584198)
(0.17031335 -0.0025966148 0.00077780939)
(0.33913607 -0.0019093025 -0.0038900091)
(0.55604839 0.0027558333 -0.015904039)
(0.80599078 0.012717074 -0.035863007)
(1.0579875 0.027253399 -0.059812775)
(1.277368 0.043735204 -0.081272304)
(1.4398692 0.057949732 -0.093614144)
(1.5374785 0.067194551 -0.096281673)
(0.037833657 0.00037942908 0.0002816684)
(0.13590606 0.00079629609 0.00031661274)
(0.28001085 0.00050269507 -0.0010289839)
(0.47760552 -0.0016689124 -0.0050385592)
(0.72275107 -0.0075238009 -0.013076563)
(0.98801671 -0.018378079 -0.025314847)
(1.2291441 -0.033124319 -0.039496137)
(1.4104864 -0.046926318 -0.050195229)
(1.5184636 -0.05624794 -0.054862838)
(0.040712068 -6.1475972e-06 -8.968925e-05)
(0.14760939 -0.00041320602 -0.00083907671)
(0.30611091 -0.0016755015 -0.003197071)
(0.52328451 -0.0049776712 -0.0085183501)
(0.78879856 -0.012191503 -0.018142661)
(1.0667457 -0.024372211 -0.031859875)
(1.3063264 -0.039636292 -0.046192785)
(1.4745441 -0.052740478 -0.055395804)
(1.5694766 -0.060368259 -0.057878312)
(0.0429255 -0.00024451552 -0.00027534104)
(0.15714834 -0.001186531 -0.0014586962)
(0.32813269 -0.0030887047 -0.0044564984)
(0.56246533 -0.0071097615 -0.010655398)
(0.84540644 -0.015071204 -0.021274599)
(1.1328464 -0.027656064 -0.035700371)
(1.3685545 -0.042340967 -0.049523063)
(1.5243432 -0.054139702 -0.057161333)
(1.609327 -0.060388987 -0.057827178)
(0.045100779 -0.00049753438 -0.00042593679)
(0.16634921 -0.0019653415 -0.001951762)
(0.34911503 -0.0044310057 -0.0054746567)
(0.59939495 -0.0089992313 -0.012400515)
(0.89814424 -0.017412531 -0.023768188)
(1.1936611 -0.03000237 -0.038531431)
(1.4250794 -0.043699868 -0.051543346)
(1.5693989 -0.053935353 -0.057561583)
(1.6452948 -0.058855978 -0.056641002)
(0.047028394 -0.00067442446 -0.00049276668)
(0.17469905 -0.002525771 -0.0021936962)
(0.36842586 -0.0054093073 -0.0060660317)
(0.6337038 -0.010360583 -0.013563247)
(0.94734619 -0.018983541 -0.025530224)
(1.2505007 -0.031291442 -0.040311397)
(1.4781617 -0.043775181 -0.05237181)
(1.612191 -0.052382389 -0.056891644)
(1.6794346 -0.055994026 -0.054686907)
(0.048861095 -0.00078434027 -0.00050023281)
(0.18257567 -0.0028800636 -0.0022492492)
(0.38657931 -0.0060241246 -0.0063248436)
(0.66597936 -0.011158499 -0.01422933)
(0.99369891 -0.019694837 -0.026592672)
(1.3038978 -0.031355333 -0.040978196)
(1.528446 -0.0424441 -0.051979132)
(1.6534135 -0.049442596 -0.055069292)
(1.7124769 -0.051869469 -0.051800862)
(0.050759294 -0.00084093173 -0.00047629939)
(0.19035266 -0.0030539789 -0.0021946411)
(0.40400942 -0.0062934023 -0.006355223)
(0.69650936 -0.011382552 -0.014479185)
(1.0373327 -0.019506568 -0.027000942)
(1.3539089 -0.030129951 -0.040834776)
(1.5756339 -0.039663331 -0.050458261)
(1.692613 -0.045103367 -0.052148788)
(1.7440461 -0.04648978 -0.047864696)
(0.052479028 -0.00082718689 -0.00042417312)
(0.19736114 -0.002993605 -0.002039626)
(0.41968437 -0.0061243024 -0.0061653615)
(0.72402271 -0.010906461 -0.014321776)
(1.076795 -0.018267444 -0.026740614)
(1.3992527 -0.027496644 -0.039844333)
(1.6185999 -0.035327766 -0.048002161)
(1.7286534 -0.039291597 -0.048432723)
(1.7730882 -0.039831656 -0.043389074)
(0.053935507 -0.00073940026 -0.00035703808)
(0.20331303 -0.0026789768 -0.0018258445)
(0.43306259 -0.0054687088 -0.0058286766)
(0.74773242 -0.0096485869 -0.013883746)
(1.1108552 -0.01587837 -0.026002093)
(1.4384969 -0.023388084 -0.038284217)
(1.6559224 -0.029424285 -0.044999258)
(1.760192 -0.032090123 -0.04444226)
(1.7985013 -0.032093059 -0.03921962)
(0.055102132 -0.00058265569 -0.00028878404)
(0.20808486 -0.0021186416 -0.0016013575)
(0.44380022 -0.004328404 -0.005442941)
(0.7668258 -0.0075972965 -0.013324586)
(1.1382828 -0.012344138 -0.025069019)
(1.4700837 -0.017872081 -0.036583744)
(1.685995 -0.022095038 -0.042201833)
(1.7856643 -0.023752509 -0.04089277)
(1.8191799 -0.023545563 -0.036260633)
(0.056174289 -0.00037513041 -0.00023577062)
(0.21206084 -0.0013651134 -0.0014233452)
(0.45217143 -0.0027895195 -0.005125419)
(0.78105385 -0.0048772528 -0.012842078)
(1.1581046 -0.0078496799 -0.024256042)
(1.4924809 -0.011219137 -0.035171763)
(1.7070914 -0.01368867 -0.040033082)
(1.8035425 -0.014584433 -0.038475764)
(1.8337215 -0.014398133 -0.034162857)
(0.056537504 -0.00013216755 -0.00020745978)
(0.21363557 -0.00047840808 -0.0013259884)
(0.45583794 -0.0009706674 -0.0049440855)
(0.787741 -0.0016857664 -0.012556889)
(1.1678189 -0.0026965689 -0.023781399)
(1.5036987 -0.0038292669 -0.034380123)
(1.7177557 -0.0046410155 -0.038839434)
(1.8126646 -0.0049223011 -0.037240878)
(1.8411596 -0.0048493133 -0.033049901)
(0.056537502 0.00013218224 -0.00020746198)
(0.21363557 0.00047843193 -0.0013259961)
(0.45583793 0.00097068593 -0.0049440954)
(0.78774098 0.001685733 -0.012556896)
(1.1678188 0.0026964315 -0.023781399)
(1.5036987 0.0038290155 -0.03438011)
(1.7177556 0.0046406784 -0.038839404)
(1.8126646 0.0049219249 -0.037240831)
(1.8411595 0.0048489673 -0.033049852)
(0.056174282 0.00037514649 -0.00023577576)
(0.21206082 0.001365141 -0.0014233611)
(0.45217139 0.0027895463 -0.0051254409)
(0.78105378 0.0048772328 -0.012842094)
(1.1581045 0.0078495584 -0.02425604)
(1.4924808 0.011218901 -0.035171721)
(1.7070913 0.013688348 -0.040032992)
(1.8035424 0.014584074 -0.038475622)
(1.8337213 0.014397808 -0.034162705)
(0.055102121 0.00058267323 -0.00028879043)
(0.20808483 0.0021186729 -0.0016013901)
(0.44380016 0.004328442 -0.005442979)
(0.76682571 0.0075972958 -0.013324616)
(1.1382827 0.012344041 -0.025069017)
(1.4700836 0.017871871 -0.036583672)
(1.6859949 0.022094748 -0.04220168)
(1.7856641 0.023752192 -0.040892533)
(1.8191796 0.023545292 -0.036260377)
(0.053935497 0.00073942477 -0.00035704506)
(0.203313 0.0026790174 -0.0018259008)
(0.43306253 0.0054687648 -0.0058287306)
(0.74773233 0.0096486093 -0.013883791)
(1.1108551 0.015878301 -0.026002089)
(1.4384968 0.02338791 -0.038284116)
(1.6559222 0.029424043 -0.044999048)
(1.7601918 0.03208987 -0.044441937)
(1.798501 0.032092871 -0.039219281)
(0.052479016 0.00082722038 -0.00042418303)
(0.1973611 0.0029936543 -0.0020397059)
(0.4196843 0.0061243737 -0.0061654318)
(0.7240226 0.010906501 -0.01432184)
(1.0767949 0.018267404 -0.026740612)
(1.3992526 0.027496516 -0.039844217)
(1.6185997 0.035327587 -0.048001912)
(1.7286532 0.039291423 -0.048432334)
(1.7730879 0.039831554 -0.043388691)
(0.050759281 0.00084097397 -0.00047631418)
(0.19035262 0.0030540429 -0.0021947327)
(0.40400934 0.006293493 -0.0063553102)
(0.69650925 0.011382618 -0.014479274)
(1.0373326 0.019506565 -0.027000962)
(1.3539088 0.030129875 -0.040834666)
(1.5756338 0.039663211 -0.050457992)
(1.6926128 0.04510326 -0.052148364)
(1.7440458 0.046489725 -0.047864324)
(0.048861087 0.00078438457 -0.00050025018)
(0.18257564 0.0028801353 -0.002249338)
(0.38657925 0.0060242252 -0.0063249414)
(0.66597928 0.011158587 -0.01422944)
(0.9936988 0.019694865 -0.026592707)
(1.3038977 0.031355303 -0.040978092)
(1.5284459 0.042444029 -0.051978857)
(1.6534133 0.049442533 -0.055068859)
(1.7124766 0.051869411 -0.051800542)
(0.047028394 0.00067446784 -0.00049278741)
(0.17469905 0.0025258383 -0.002193796)
(0.36842585 0.0054094119 -0.0060661453)
(0.63370377 0.010360681 -0.013563369)
(0.94734613 0.018983593 -0.025530269)
(1.2505006 0.031291442 -0.040311308)
(1.4781616 0.043775145 -0.05237155)
(1.6121908 0.052382357 -0.056891228)
(1.6794343 0.055993971 -0.054686644)
(0.045100786 0.00049757453 -0.00042595585)
(0.16634923 0.0019654044 -0.0019518491)
(0.34911505 0.0044311109 -0.0054747591)
(0.59939497 0.0089993305 -0.01240063)
(0.89814425 0.017412594 -0.023768245)
(1.193661 0.030002376 -0.038531366)
(1.4250793 0.043699841 -0.051543127)
(1.5693987 0.053935364 -0.057561236)
(1.6452946 0.058856004 -0.056640822)
(0.042925515 0.00024455013 -0.00027536004)
(0.15714838 0.0011865838 -0.0014587753)
(0.32813275 0.0030887927 -0.0044565992)
(0.56246542 0.0071098462 -0.010655513)
(0.84540651 0.015071263 -0.021274659)
(1.1328464 0.02765607 -0.035700338)
(1.3685545 0.042340917 -0.049522933)
(1.5243432 0.054139748 -0.057161152)
(1.6093269 0.060389157 -0.057827089)
(0.040712092 6.1739138e-06 -8.9704819e-05)
(0.14760946 0.00041324741 -0.00083913399)
(0.30611103 0.0016755684 -0.0031971454)
(0.52328466 0.0049777317 -0.0085184379)
(0.78879871 0.012191535 -0.018142709)
(1.0667458 0.024372208 -0.031859859)
(1.3063265 0.039636243 -0.046192797)
(1.4745442 0.052740504 -0.055395849)
(1.5694766 0.060368504 -0.057878316)
(0.037833692 -0.00037942498 0.00028166472)
(0.13590616 -0.00079629594 0.00031659199)
(0.28001102 -0.00050269926 -0.0010290194)
(0.47760573 0.001668882 -0.0050385949)
(0.72275128 0.0075237207 -0.013076557)
(0.98801689 0.018377931 -0.025314807)
(1.2291443 0.033124119 -0.039496137)
(1.4104866 0.046926219 -0.050195285)
(1.5184637 0.056248061 -0.054863177)
(0.043267021 -1.7425093e-05 6.8746079e-06)
(0.15236398 -0.00039369263 -0.00020342741)
(0.30779984 -0.0015519077 -0.00082520315)
(0.51427405 -0.0041083766 -0.0022815932)
(0.76353134 -0.0087904474 -0.0053139932)
(1.0293476 -0.015959351 -0.01060589)
(1.2712482 -0.024532462 -0.016946286)
(1.4552935 -0.03302921 -0.02292834)
(1.5643185 -0.039669762 -0.026883758)
(0.046401204 -7.9531035e-05 -4.123678e-05)
(0.16437643 -0.00068266983 -0.00037261787)
(0.33330509 -0.0022799064 -0.001208577)
(0.55687131 -0.0056097265 -0.0030855682)
(0.8226573 -0.011484823 -0.0068809725)
(1.0977123 -0.020108948 -0.013231549)
(1.3362414 -0.029745776 -0.020460516)
(1.5066986 -0.038158866 -0.026470863)
(1.6031146 -0.043784017 -0.029819313)
(0.048783085 -5.4408574e-05 -1.812873e-05)
(0.17388389 -0.00071724649 -0.00033774852)
(0.35399357 -0.002566889 -0.0012494872)
(0.59174673 -0.0064309111 -0.0033890087)
(0.87079512 -0.013123837 -0.007749482)
(1.1519742 -0.022641755 -0.014916732)
(1.3853098 -0.032708993 -0.022776472)
(1.5430136 -0.040651074 -0.02870453)
(1.629835 -0.0453568 -0.031454781)
(0.051065348 -7.3699113e-05 -3.2186889e-05)
(0.18281806 -0.00085007364 -0.00039578438)
(0.37316232 -0.0029519742 -0.0014231447)
(0.62365582 -0.0072631302 -0.0038367691)
(0.91432003 -0.014579741 -0.0087576654)
(1.2004259 -0.024588953 -0.01656161)
(1.4286748 -0.034571386 -0.024672487)
(1.5751795 -0.041803928 -0.03031712)
(1.6535564 -0.045590246 -0.03234792)
(0.053021554 -0.00012105612 -5.9105812e-05)
(0.19065506 -0.0010441113 -0.00048253724)
(0.39023524 -0.0033955667 -0.0016281426)
(0.65240882 -0.0080967113 -0.0043008675)
(0.95398576 -0.015922937 -0.0097698398)
(1.2448689 -0.026004754 -0.017822498)
(1.4690133 -0.03551482 -0.025857605)
(1.6058963 -0.041836199 -0.031002119)
(1.6763703 -0.044606145 -0.032203617)
(0.054813426 -0.00021761714 -9.9410785e-05)
(0.19781216 -0.0013480551 -0.00058844934)
(0.40580987 -0.0039547093 -0.0018146069)
(0.67872315 -0.0089576625 -0.004657636)
(0.99052842 -0.016875972 -0.010224751)
(1.2861422 -0.026588561 -0.018115553)
(1.5070985 -0.03526468 -0.025737245)
(1.6356749 -0.040469215 -0.030154557)
(1.6986175 -0.042227849 -0.030601053)
(0.056607704 -0.00034260571 -0.00013157859)
(0.20469725 -0.0016984856 -0.00064663146)
(0.42043288 -0.0045008314 -0.0018502189)
(0.70313894 -0.0095893563 -0.004628781)
(1.0240363 -0.017211756 -0.0099246498)
(1.3242019 -0.026178908 -0.017385168)
(1.5426596 -0.033734529 -0.024353044)
(1.6640815 -0.037755509 -0.027989124)
(1.7199733 -0.038578657 -0.027817392)
(0.058169864 -0.00044442392 -0.00013541934)
(0.21069656 -0.0019492905 -0.00060530717)
(0.4332047 -0.0048021733 -0.0016717983)
(0.72455936 -0.0096497209 -0.0041304637)
(1.0536064 -0.016617949 -0.0089428706)
(1.3581321 -0.024489637 -0.015771202)
(1.5747974 -0.030714832 -0.021970084)
(1.6902099 -0.033553464 -0.024883021)
(1.7397241 -0.033613106 -0.024337823)
(0.059428803 -0.00047608582 -0.0001080327)
(0.21557743 -0.0019544957 -0.00046017437)
(0.44369152 -0.0045940447 -0.0012700774)
(0.74224678 -0.0088853806 -0.0032874162)
(1.0784362 -0.014838909 -0.0075023921)
(1.3869951 -0.021312434 -0.013601624)
(1.6024558 -0.026092402 -0.019008938)
(1.7129484 -0.027863898 -0.021359286)
(1.7569565 -0.027445703 -0.020784208)
(0.060391518 -0.00042298728 -6.2435165e-05)
(0.21934433 -0.0016758048 -0.00026552775)
(0.45183545 -0.0038211535 -0.00078722905)
(0.75605256 -0.0072076693 -0.0023416734)
(1.0979757 -0.01178447 -0.0059484089)
(1.4098628 -0.016601796 -0.01133974)
(1.6244905 -0.019927977 -0.016065727)
(1.7311384 -0.020886323 -0.018066207)
(1.7707152 -0.020318825 -0.01778928)
(0.06129306 -0.00029253528 -1.75944e-05)
(0.22251717 -0.0011337027 -8.5094337e-05)
(0.45819031 -0.0025388339 -0.00036547878)
(0.76625818 -0.0047130349 -0.0015424557)
(1.1119511 -0.0075990346 -0.0046605032)
(1.4259183 -0.010564277 -0.0094960531)
(1.639817 -0.012500669 -0.013728613)
(1.74373 -0.012934016 -0.01560791)
(1.7802096 -0.012488581 -0.015641961)
(0.061559559 -0.00010476192 8.3475867e-06)
(0.22366001 -0.00040216669 1.7749359e-05)
(0.46079427 -0.00089354924 -0.00012631609)
(0.77083065 -0.0016461963 -0.0010905714)
(1.1185943 -0.0026346274 -0.0039369147)
(1.4338146 -0.0036355974 -0.0084738071)
(1.6474874 -0.0042666269 -0.012439976)
(1.7500706 -0.0043832061 -0.014321608)
(1.7850006 -0.0042165094 -0.014524288)