/*--------------------------------*- C++ -*----------------------------------*\
  =========                 |
  \\      /  F ield         | OpenFOAM: The Open Source CFD Toolbox
   \\    /   O peration     | Website:  https://openfoam.org
    \\  /    A nd           | Version:  10
     \\/     M anipulation  |
\*---------------------------------------------------------------------------*/
FoamFile
{
    format      ascii;
    class       volScalarField;
    location    "46";
    object      ddt0(T);
}
// * * * * * * * * * * * * * * * * * * * * * * * * * * * * * * * * * * * * * //

dimensions      [0 0 -1 1 0 0 0];

internalField   nonuniform List<scalar> 
10000
(
270.539
-0.558768
44.5094
41.8006
41.643
41.7024
41.7061
41.7057
41.7063
41.707
41.7076
41.7082
41.7088
41.7094
41.71
41.7106
41.7112
41.7118
41.7124
41.7129
41.7135
41.7141
41.7147
41.7152
41.7158
41.7163
41.7169
41.7174
41.7179
41.7185
41.719
41.7195
41.72
41.7205
41.7211
41.7216
41.722
41.7225
41.723
41.7235
41.724
41.7244
41.7249
41.7254
41.7258
41.7262
41.7267
41.7271
41.7275
41.7279
41.7283
41.7287
41.7291
41.7295
41.7299
41.7303
41.7306
41.731
41.7313
41.7317
41.732
41.7323
41.7326
41.7329
41.7332
41.7335
41.7338
41.7341
41.7343
41.7346
41.7349
41.7351
41.7353
41.7356
41.7358
41.736
41.7362
41.7364
41.7366
41.7367
41.7369
41.7371
41.7372
41.7373
41.7375
41.7376
41.7377
41.7378
41.7379
41.738
41.7381
41.7382
41.7382
41.7383
41.7378
41.7351
41.7654
42.2141
40.2006
28.3902
9.7871
-42.7064
-11.7494
-18.3117
-18.2167
-18.0765
-18.0772
-18.0797
-18.0782
-18.0763
-18.0745
-18.0727
-18.071
-18.0692
-18.0674
-18.0657
-18.0639
-18.0622
-18.0605
-18.0587
-18.057
-18.0553
-18.0536
-18.052
-18.0503
-18.0486
-18.047
-18.0454
-18.0438
-18.0422
-18.0406
-18.039
-18.0374
-18.0359
-18.0344
-18.0329
-18.0314
-18.0299
-18.0285
-18.027
-18.0256
-18.0242
-18.0228
-18.0215
-18.0201
-18.0188
-18.0175
-18.0162
-18.015
-18.0137
-18.0125
-18.0113
-18.0102
-18.009
-18.0079
-18.0068
-18.0057
-18.0046
-18.0036
-18.0026
-18.0016
-18.0006
-17.9997
-17.9988
-17.9979
-17.997
-17.9961
-17.9953
-17.9945
-17.9937
-17.993
-17.9923
-17.9916
-17.9909
-17.9902
-17.9896
-17.989
-17.9884
-17.9879
-17.9873
-17.9868
-17.9864
-17.9859
-17.9855
-17.9851
-17.9847
-17.9844
-17.9841
-17.9838
-17.9835
-17.9833
-17.983
-17.9828
-17.9825
-17.9828
-17.9897
-18.0046
-17.7661
-18.2007
-11.7767
49.8662
-15.0889
10.7329
4.43693
4.74633
4.90312
4.89952
4.89741
4.90019
4.90333
4.90634
4.90932
4.91228
4.91524
4.91818
4.92111
4.92403
4.92693
4.92981
4.93268
4.93554
4.93837
4.94119
4.94398
4.94676
4.94952
4.95225
4.95496
4.95765
4.96031
4.96295
4.96557
4.96816
4.97072
4.97326
4.97577
4.97824
4.9807
4.98312
4.98551
4.98787
4.9902
4.9925
4.99476
4.99699
4.99919
5.00136
5.00349
5.00559
5.00765
5.00968
5.01167
5.01362
5.01554
5.01742
5.01926
5.02107
5.02284
5.02457
5.02626
5.02791
5.02953
5.0311
5.03263
5.03413
5.03558
5.037
5.03837
5.03971
5.041
5.04225
5.04346
5.04463
5.04576
5.04684
5.04789
5.04889
5.04985
5.05076
5.05164
5.05247
5.05326
5.05401
5.05472
5.05538
5.056
5.05658
5.05712
5.05761
5.05806
5.05846
5.05882
5.05917
5.05963
5.05994
5.05346
5.02321
5.11251
4.52442
3.73789
47.7418
-20.8516
5.19174
-0.854286
-0.512711
-0.361119
-0.366073
-0.367236
-0.363229
-0.358874
-0.354666
-0.350504
-0.346356
-0.342224
-0.338108
-0.33401
-0.329931
-0.325873
-0.321836
-0.317822
-0.313832
-0.309866
-0.305926
-0.302014
-0.298129
-0.294273
-0.290448
-0.286654
-0.282892
-0.279163
-0.275468
-0.271809
-0.268186
-0.264599
-0.261051
-0.257541
-0.254071
-0.250641
-0.247253
-0.243906
-0.240603
-0.237343
-0.234128
-0.230957
-0.227833
-0.224755
-0.221724
-0.218741
-0.215806
-0.21292
-0.210084
-0.207298
-0.204562
-0.201878
-0.199246
-0.196665
-0.194137
-0.191663
-0.189242
-0.186874
-0.184562
-0.182303
-0.1801
-0.177953
-0.175861
-0.173825
-0.171845
-0.169923
-0.168057
-0.166248
-0.164497
-0.162803
-0.161167
-0.15959
-0.15807
-0.156609
-0.155207
-0.153864
-0.152579
-0.151354
-0.150188
-0.149081
-0.148034
-0.147046
-0.146118
-0.14525
-0.144441
-0.143693
-0.143004
-0.142376
-0.141809
-0.141306
-0.140839
-0.140169
-0.138622
-0.138149
-0.148751
-0.0760407
0.0170466
-0.161244
47.6102
-20.7839
5.45971
-0.553607
-0.216535
-0.0672443
-0.0715758
-0.0715164
-0.0662825
-0.0607275
-0.0553289
-0.0499797
-0.044649
-0.039337
-0.0340463
-0.0287787
-0.0235356
-0.0183188
-0.0131295
-0.0079694
-0.00283983
0.00225775
0.00732193
0.0123513
0.0173446
0.0223003
0.0272172
0.0320939
0.0369292
0.0417218
0.0464705
0.0511739
0.055831
0.0604406
0.0650014
0.0695124
0.0739724
0.0783804
0.0827353
0.0870361
0.0912819
0.0954715
0.0996041
0.103679
0.107695
0.111651
0.115546
0.11938
0.123152
0.126861
0.130506
0.134087
0.137603
0.141053
0.144436
0.147752
0.151001
0.154182
0.157293
0.160336
0.163308
0.166211
0.169042
0.171802
0.174491
0.177107
0.179651
0.182123
0.184521
0.186845
0.189096
0.191273
0.193375
0.195403
0.197356
0.199233
0.201036
0.202762
0.204413
0.205988
0.207487
0.208909
0.210255
0.211525
0.212718
0.213834
0.214873
0.215835
0.21672
0.217527
0.218256
0.218896
0.219432
0.219941
0.220876
0.221412
0.211744
0.212724
0.23617
0.255659
47.6603
-20.6624
5.59782
-0.419994
-0.0851466
0.0646123
0.06148
0.0627814
0.0692242
0.0759739
0.0825619
0.0890968
0.0956092
0.102098
0.108562
0.114997
0.121401
0.127774
0.134113
0.140417
0.146683
0.152911
0.159097
0.165241
0.171341
0.177395
0.183401
0.189359
0.195266
0.20112
0.206921
0.212667
0.218356
0.223988
0.229559
0.23507
0.240518
0.245903
0.251223
0.256477
0.261664
0.266782
0.271831
0.276808
0.281714
0.286547
0.291306
0.295989
0.300597
0.305128
0.309581
0.313956
0.318251
0.322465
0.326598
0.33065
0.334618
0.338504
0.342305
0.346022
0.349653
0.353199
0.356658
0.36003
0.363314
0.366511
0.369618
0.372637
0.375567
0.378407
0.381157
0.383816
0.386384
0.388861
0.391246
0.39354
0.395742
0.397851
0.399868
0.401792
0.403623
0.405361
0.407005
0.408556
0.410013
0.411376
0.412646
0.413821
0.414902
0.415889
0.416782
0.417576
0.418252
0.418823
0.419621
0.421057
0.419374
0.416183
0.413483
0.421896
47.6634
-20.6626
5.59526
-0.423737
-0.0882637
0.0626913
0.060804
0.0633191
0.0709588
0.0788995
0.0866749
0.0943937
0.102086
0.10975
0.117384
0.124984
0.132549
0.140076
0.147564
0.155009
0.16241
0.169765
0.177072
0.184329
0.191534
0.198684
0.205779
0.212815
0.219792
0.226707
0.233559
0.240346
0.247065
0.253716
0.260297
0.266806
0.273241
0.279601
0.285885
0.292091
0.298217
0.304262
0.310225
0.316104
0.321898
0.327607
0.333227
0.338759
0.344202
0.349553
0.354813
0.35998
0.365053
0.37003
0.374912
0.379698
0.384385
0.388974
0.393464
0.397854
0.402143
0.406331
0.410416
0.414399
0.418278
0.422054
0.425725
0.42929
0.432751
0.436105
0.439352
0.442493
0.445527
0.448452
0.45127
0.453979
0.45658
0.459071
0.461453
0.463725
0.465888
0.467941
0.469883
0.471715
0.473436
0.475046
0.476545
0.477933
0.47921
0.480376
0.481431
0.482375
0.483192
0.483855
0.484467
0.485442
0.486077
0.486118
0.484181
0.486052
47.663
-20.6645
5.59382
-0.42423
-0.0875408
0.0646541
0.0639804
0.0676933
0.0765248
0.0856539
0.0946146
0.103515
0.112385
0.121222
0.130024
0.138788
0.147511
0.15619
0.164823
0.173408
0.181942
0.190423
0.198848
0.207216
0.215523
0.223768
0.231948
0.240062
0.248107
0.25608
0.263981
0.271806
0.279554
0.287223
0.294811
0.302316
0.309736
0.31707
0.324316
0.331471
0.338535
0.345505
0.352381
0.35916
0.365841
0.372423
0.378904
0.385283
0.391558
0.397729
0.403794
0.409751
0.4156
0.42134
0.426969
0.432487
0.437892
0.443183
0.44836
0.453422
0.458368
0.463196
0.467907
0.472499
0.476972
0.481326
0.485558
0.48967
0.49366
0.497527
0.501272
0.504894
0.508391
0.511765
0.515014
0.518138
0.521136
0.524009
0.526755
0.529376
0.531869
0.534236
0.536476
0.538588
0.540572
0.542429
0.544158
0.545758
0.54723
0.548574
0.549791
0.55088
0.551838
0.552641
0.553283
0.553911
0.55455
0.555348
0.553864
0.555797
47.6636
-20.663
5.59661
-0.4202
-0.0822874
0.0711162
0.0716394
0.0765442
0.0865646
0.0968796
0.107023
0.117102
0.127147
0.137155
0.147123
0.157047
0.166925
0.176754
0.186531
0.196253
0.205917
0.215521
0.225062
0.234538
0.243946
0.253283
0.262547
0.271735
0.280845
0.289875
0.298821
0.307683
0.316458
0.325142
0.333735
0.342234
0.350637
0.358943
0.367148
0.375251
0.38325
0.391144
0.39893
0.406607
0.414173
0.421626
0.428966
0.43619
0.443296
0.450284
0.457152
0.463899
0.470522
0.477022
0.483397
0.489645
0.495766
0.501759
0.507621
0.513354
0.518954
0.524422
0.529757
0.534958
0.540023
0.544953
0.549746
0.554403
0.558921
0.563301
0.567541
0.571643
0.575604
0.579424
0.583103
0.586641
0.590036
0.593289
0.5964
0.599367
0.602191
0.604871
0.607408
0.609799
0.612047
0.614149
0.616107
0.61792
0.619587
0.621109
0.622485
0.623717
0.624806
0.625743
0.626508
0.627111
0.627643
0.628725
0.626556
0.629415
47.6643
-20.6611
5.59974
-0.415865
-0.0767531
0.0778452
0.0795596
0.0856529
0.0968593
0.108357
0.119681
0.130936
0.142152
0.153328
0.164459
0.175541
0.186572
0.197547
0.208464
0.21932
0.230112
0.240837
0.251491
0.262072
0.272578
0.283004
0.293348
0.303609
0.313782
0.323865
0.333855
0.343751
0.353549
0.363247
0.372842
0.382333
0.391716
0.40099
0.410153
0.419201
0.428134
0.436948
0.445643
0.454215
0.462664
0.470987
0.479183
0.487249
0.495185
0.502988
0.510657
0.518191
0.525587
0.532846
0.539964
0.546941
0.553776
0.560468
0.567015
0.573415
0.579669
0.585776
0.591733
0.59754
0.603196
0.608701
0.614054
0.619253
0.624299
0.62919
0.633925
0.638505
0.642928
0.647194
0.651302
0.655253
0.659044
0.662677
0.66615
0.669464
0.672617
0.67561
0.678442
0.681113
0.683623
0.685971
0.688157
0.690181
0.692043
0.693742
0.695279
0.696653
0.697867
0.69892
0.6998
0.700471
0.700981
0.70246
0.699393
0.703158
47.6649
-20.6593
5.60275
-0.41166
-0.0713573
0.0844308
0.0873328
0.0946115
0.107001
0.119679
0.132178
0.144606
0.156992
0.169332
0.181622
0.193859
0.206038
0.218157
0.230212
0.242199
0.254115
0.265957
0.277721
0.289405
0.301005
0.312517
0.32394
0.335269
0.346501
0.357635
0.368667
0.379593
0.390412
0.40112
0.411715
0.422195
0.432556
0.442796
0.452913
0.462904
0.472767
0.4825
0.4921
0.501566
0.510895
0.520085
0.529135
0.538041
0.546804
0.55542
0.563888
0.572207
0.580374
0.588388
0.596248
0.603953
0.6115
0.618888
0.626117
0.633185
0.64009
0.646832
0.65341
0.659823
0.666068
0.672147
0.678057
0.683798
0.689369
0.69477
0.699998
0.705055
0.709939
0.71465
0.719186
0.723548
0.727735
0.731746
0.735581
0.73924
0.742722
0.746027
0.749154
0.752103
0.754874
0.757467
0.759881
0.762116
0.764171
0.766048
0.767745
0.769262
0.7706
0.771762
0.772743
0.773487
0.773986
0.775903
0.771985
0.776573
47.6656
-20.6575
5.60572
-0.407496
-0.0660064
0.0909676
0.0950537
0.103514
0.117082
0.130937
0.144609
0.158206
0.171757
0.185257
0.198704
0.212091
0.225417
0.238675
0.251864
0.264979
0.278016
0.290971
0.303842
0.316625
0.329316
0.341911
0.354408
0.366803
0.379092
0.391273
0.403342
0.415296
0.427133
0.438848
0.45044
0.461905
0.473241
0.484444
0.495512
0.506443
0.517234
0.527882
0.538386
0.548742
0.558948
0.569003
0.578904
0.588648
0.598235
0.607661
0.616926
0.626027
0.634963
0.643731
0.65233
0.660759
0.669016
0.6771
0.685008
0.692741
0.700296
0.707672
0.714869
0.721884
0.728718
0.735368
0.741834
0.748115
0.75421
0.760118
0.765839
0.771371
0.776715
0.781868
0.786832
0.791604
0.796184
0.800573
0.804769
0.808772
0.812581
0.816197
0.819618
0.822845
0.825877
0.828713
0.831354
0.833799
0.836049
0.838102
0.839958
0.841618
0.843082
0.844352
0.845428
0.846245
0.846729
0.849048
0.844402
0.849698
47.6662
-20.6557
5.60869
-0.403347
-0.0606738
0.0974823
0.102748
0.112387
0.12713
0.142156
0.156998
0.17176
0.186472
0.201129
0.215728
0.230262
0.244729
0.259124
0.273443
0.287681
0.301835
0.315901
0.329875
0.343753
0.357531
0.371205
0.384773
0.398229
0.411572
0.424796
0.4379
0.450878
0.463729
0.476448
0.489033
0.501481
0.513787
0.525951
0.537967
0.549835
0.56155
0.573111
0.584514
0.595758
0.606839
0.617755
0.628504
0.639083
0.649491
0.659726
0.669784
0.679665
0.689366
0.698885
0.708222
0.717373
0.726337
0.735113
0.7437
0.752095
0.760297
0.768306
0.776119
0.783735
0.791154
0.798374
0.805394
0.812214
0.818831
0.825245
0.831456
0.837463
0.843264
0.848859
0.854248
0.859429
0.864402
0.869166
0.873722
0.878068
0.882204
0.886129
0.889844
0.893347
0.896638
0.899718
0.902585
0.90524
0.907682
0.909911
0.911927
0.913729
0.915318
0.916697
0.917867
0.918757
0.919235
0.921884
0.916666
0.922535
47.6668
-20.654
5.61164
-0.399213
-0.0553597
0.103974
0.110416
0.121228
0.137142
0.153336
0.169342
0.185265
0.201133
0.216944
0.23269
0.248367
0.263972
0.279498
0.294943
0.310301
0.325568
0.340739
0.355812
0.370781
0.385643
0.400392
0.415027
0.429542
0.443933
0.458197
0.472331
0.48633
0.500191
0.51391
0.527485
0.540911
0.554186
0.567305
0.580267
0.593067
0.605704
0.618174
0.630474
0.642601
0.654553
0.666328
0.677922
0.689333
0.70056
0.711599
0.722448
0.733106
0.74357
0.753838
0.763908
0.773778
0.783448
0.792914
0.802175
0.811231
0.820078
0.828716
0.837144
0.845359
0.853361
0.861149
0.868721
0.876077
0.883214
0.890133
0.896832
0.903311
0.909568
0.915604
0.921416
0.927004
0.932369
0.937508
0.942422
0.947109
0.95157
0.955804
0.959811
0.96359
0.96714
0.970462
0.973555
0.976418
0.979052
0.981457
0.983631
0.985575
0.987289
0.988775
0.990039
0.991005
0.991489
0.994391
0.988759
0.995066
47.6674
-20.6522
5.61458
-0.395095
-0.0500667
0.11044
0.118053
0.130033
0.147114
0.164471
0.181637
0.198716
0.215737
0.232695
0.249585
0.2664
0.283138
0.299792
0.316357
0.33283
0.349206
0.365479
0.381646
0.397702
0.413642
0.429463
0.44516
0.460729
0.476165
0.491465
0.506625
0.52164
0.536508
0.551223
0.565783
0.580184
0.594423
0.608495
0.622398
0.636128
0.649682
0.663057
0.67625
0.689258
0.702078
0.714707
0.727143
0.739383
0.751424
0.763265
0.774902
0.786333
0.797557
0.80857
0.819372
0.829959
0.840331
0.850484
0.860418
0.870131
0.87962
0.888886
0.897925
0.906737
0.91532
0.923673
0.931795
0.939685
0.947341
0.954762
0.961948
0.968897
0.975608
0.982082
0.988316
0.99431
1.00006
1.00558
1.01085
1.01588
1.02066
1.0252
1.0295
1.03355
1.03736
1.04092
1.04424
1.04731
1.05014
1.05272
1.05505
1.05713
1.05897
1.06057
1.06192
1.06296
1.06347
1.06655
1.06065
1.06727
47.6679
-20.6505
5.61752
-0.390994
-0.0447963
0.116878
0.125657
0.138801
0.157043
0.175559
0.193879
0.21211
0.230278
0.248379
0.266407
0.284356
0.302221
0.319998
0.33768
0.355263
0.372742
0.390113
0.407369
0.424507
0.441522
0.458409
0.475164
0.491782
0.508259
0.52459
0.540772
0.556799
0.572669
0.588376
0.603918
0.619289
0.634487
0.649508
0.664347
0.679003
0.693471
0.707747
0.721829
0.735714
0.749398
0.762879
0.776153
0.789218
0.802071
0.814709
0.827131
0.839332
0.851312
0.863068
0.874598
0.885899
0.896969
0.907807
0.91841
0.928778
0.938907
0.948797
0.958445
0.967851
0.977013
0.985929
0.994598
1.00302
1.01119
1.01911
1.02678
1.0342
1.04136
1.04827
1.05493
1.06133
1.06747
1.07335
1.07898
1.08435
1.08945
1.0943
1.09889
1.10321
1.10728
1.11108
1.11462
1.1179
1.12092
1.12367
1.12616
1.12839
1.13035
1.13205
1.1335
1.13462
1.13516
1.13835
1.13231
1.13914
47.6685
-20.6487
5.62043
-0.386913
-0.0395502
0.123287
0.133227
0.147529
0.166927
0.186595
0.206065
0.225442
0.244752
0.26399
0.283151
0.302229
0.321217
0.340111
0.358904
0.377593
0.396171
0.414633
0.432974
0.451189
0.469274
0.487222
0.50503
0.522693
0.540205
0.557563
0.574761
0.591796
0.608663
0.625358
0.641876
0.658214
0.674367
0.690332
0.706104
0.721681
0.737058
0.752232
0.767199
0.781956
0.796501
0.810829
0.824937
0.838823
0.852484
0.865917
0.879119
0.892088
0.904821
0.917316
0.92957
0.941581
0.953347
0.964866
0.976136
0.987155
0.997921
1.00843
1.01869
1.02868
1.03842
1.0479
1.05711
1.06606
1.07475
1.08317
1.09132
1.0992
1.10682
1.11416
1.12124
1.12804
1.13456
1.14082
1.1468
1.1525
1.15793
1.16308
1.16796
1.17256
1.17688
1.18092
1.18468
1.18817
1.19137
1.1943
1.19695
1.19931
1.2014
1.20321
1.20474
1.20594
1.20653
1.20977
1.20371
1.21066
47.6691
-20.647
5.62334
-0.382852
-0.0343298
0.129664
0.140759
0.156214
0.176762
0.197577
0.218191
0.238708
0.259155
0.279526
0.299814
0.320014
0.34012
0.360125
0.380025
0.399813
0.419484
0.439033
0.458453
0.47774
0.496889
0.515894
0.53475
0.553452
0.571995
0.590374
0.608585
0.626622
0.644481
0.662159
0.679649
0.696948
0.714052
0.730956
0.747657
0.76415
0.780432
0.796499
0.812347
0.827972
0.843372
0.858543
0.873482
0.888185
0.90265
0.916874
0.930853
0.944585
0.958067
0.971297
0.984272
0.99699
1.00945
1.02165
1.03358
1.04525
1.05665
1.06778
1.07863
1.08922
1.09953
1.10956
1.11932
1.1288
1.138
1.14691
1.15554
1.16389
1.17195
1.17973
1.18722
1.19442
1.20133
1.20795
1.21428
1.22032
1.22607
1.23153
1.23669
1.24156
1.24613
1.25041
1.2544
1.25809
1.26148
1.26458
1.26738
1.26989
1.2721
1.27401
1.27564
1.27691
1.27756
1.28082
1.27482
1.2818
47.6697
-20.6452
5.62622
-0.378811
-0.0291366
0.136008
0.148252
0.164854
0.186545
0.208502
0.230254
0.251906
0.273483
0.29498
0.31639
0.337707
0.358924
0.380036
0.401035
0.421918
0.442676
0.463305
0.4838
0.504153
0.524361
0.544416
0.564315
0.58405
0.603619
0.623014
0.642232
0.661266
0.680113
0.698768
0.717225
0.73548
0.75353
0.771369
0.788993
0.806398
0.82358
0.840535
0.857259
0.873749
0.89
0.90601
0.921774
0.937291
0.952555
0.967565
0.982317
0.996808
1.01104
1.025
1.03869
1.05211
1.06526
1.07813
1.09072
1.10303
1.11506
1.12681
1.13827
1.14944
1.16032
1.17091
1.18121
1.19121
1.20091
1.21032
1.21943
1.22824
1.23675
1.24495
1.25286
1.26045
1.26775
1.27474
1.28142
1.28779
1.29386
1.29962
1.30506
1.3102
1.31503
1.31955
1.32375
1.32765
1.33123
1.3345
1.33746
1.3401
1.34243
1.34445
1.34617
1.34751
1.34823
1.35146
1.34559
1.35255
47.6703
-20.6435
5.6291
-0.374794
-0.0239721
0.142317
0.155703
0.173446
0.196275
0.219367
0.242251
0.26503
0.287731
0.310349
0.332874
0.355302
0.377625
0.399836
0.42193
0.4439
0.46574
0.487444
0.509007
0.530421
0.551681
0.572781
0.593716
0.614481
0.635068
0.655474
0.675693
0.695719
0.715548
0.735175
0.754593
0.7738
0.79279
0.811558
0.8301
0.848412
0.86649
0.884328
0.901924
0.919272
0.936371
0.953214
0.9698
0.986125
1.00218
1.01798
1.0335
1.04874
1.06371
1.0784
1.09281
1.10693
1.12076
1.1343
1.14755
1.1605
1.17316
1.18552
1.19757
1.20933
1.22077
1.23192
1.24275
1.25327
1.26348
1.27338
1.28296
1.29223
1.30118
1.30982
1.31813
1.32613
1.3338
1.34115
1.34818
1.35489
1.36127
1.36733
1.37306
1.37847
1.38355
1.3883
1.39272
1.39682
1.40059
1.40403
1.40714
1.40992
1.41238
1.4145
1.41631
1.41772
1.41851
1.42169
1.41601
1.42291
47.6708
-20.6418
5.63195
-0.370799
-0.0188377
0.148589
0.163111
0.181987
0.205948
0.230168
0.254177
0.278078
0.301897
0.325628
0.349263
0.372794
0.396216
0.419521
0.442703
0.465755
0.48867
0.511443
0.534066
0.556535
0.578842
0.600981
0.622947
0.644733
0.666335
0.687745
0.708959
0.729972
0.750777
0.77137
0.791745
0.811897
0.831822
0.851514
0.870969
0.890182
0.90915
0.927866
0.946328
0.964531
0.982471
1.00014
1.01755
1.03467
1.05153
1.06809
1.08438
1.10038
1.11608
1.13149
1.14661
1.16142
1.17594
1.19015
1.20405
1.21764
1.23092
1.24389
1.25653
1.26887
1.28088
1.29257
1.30393
1.31497
1.32569
1.33607
1.34613
1.35585
1.36524
1.3743
1.38303
1.39142
1.39947
1.40718
1.41456
1.4216
1.42829
1.43465
1.44066
1.44633
1.45166
1.45665
1.46129
1.46559
1.46955
1.47316
1.47642
1.47934
1.48191
1.48414
1.48604
1.48753
1.48839
1.4915
1.48604
1.49284
47.6714
-20.6401
5.63479
-0.366829
-0.0137348
0.154823
0.170474
0.190477
0.215562
0.240903
0.266031
0.291046
0.315976
0.340814
0.365551
0.39018
0.414694
0.439085
0.463348
0.487475
0.511459
0.535294
0.558973
0.582489
0.605836
0.629008
0.651998
0.674801
0.697409
0.719818
0.742022
0.764014
0.78579
0.807343
0.828668
0.84976
0.870614
0.891224
0.911587
0.931696
0.951548
0.971137
0.99046
1.00951
1.02829
1.04679
1.065
1.08293
1.10056
1.11791
1.13495
1.15169
1.16813
1.18426
1.20008
1.21559
1.23078
1.24565
1.2602
1.27442
1.28832
1.30189
1.31513
1.32804
1.34061
1.35285
1.36474
1.3763
1.38751
1.39838
1.4089
1.41908
1.42891
1.43839
1.44753
1.45631
1.46473
1.47281
1.48053
1.48789
1.4949
1.50155
1.50785
1.51379
1.51936
1.52458
1.52944
1.53394
1.53808
1.54186
1.54528
1.54833
1.55102
1.55336
1.55534
1.55691
1.55785
1.56088
1.55566
1.56234
47.672
-20.6384
5.63761
-0.362885
-0.00866489
0.161016
0.177789
0.198912
0.225114
0.251569
0.277807
0.303931
0.329964
0.355901
0.381733
0.407453
0.433052
0.458524
0.483861
0.509056
0.534101
0.558991
0.583718
0.608276
0.632656
0.656854
0.680862
0.704674
0.728284
0.751685
0.774871
0.797837
0.820576
0.843084
0.865353
0.887379
0.909156
0.930679
0.951943
0.972942
0.993673
1.01413
1.03431
1.0542
1.07381
1.09313
1.11215
1.13087
1.14929
1.16739
1.18519
1.20268
1.21984
1.23669
1.25321
1.2694
1.28526
1.30079
1.31599
1.33084
1.34536
1.35953
1.37335
1.38683
1.39996
1.41274
1.42516
1.43723
1.44893
1.46029
1.47128
1.48191
1.49217
1.50207
1.51161
1.52078
1.52958
1.53801
1.54607
1.55376
1.56108
1.56803
1.5746
1.5808
1.58663
1.59208
1.59715
1.60185
1.60617
1.61012
1.61369
1.61688
1.61969
1.62213
1.62419
1.62583
1.62685
1.62979
1.62484
1.63139
47.6725
-20.6367
5.64041
-0.358967
-0.00362925
0.167168
0.185055
0.207289
0.234601
0.262163
0.289505
0.316728
0.343858
0.370887
0.397807
0.424609
0.451286
0.47783
0.504234
0.53049
0.556591
0.582529
0.608297
0.633888
0.659295
0.684512
0.709531
0.734345
0.758949
0.783336
0.807498
0.831431
0.855128
0.878583
0.90179
0.924743
0.947437
0.969866
0.992026
1.01391
1.03551
1.05683
1.07786
1.09859
1.11903
1.13915
1.15898
1.17848
1.19768
1.21655
1.2351
1.25332
1.27121
1.28876
1.30598
1.32285
1.33938
1.35557
1.3714
1.38688
1.40201
1.41677
1.43118
1.44523
1.45891
1.47222
1.48517
1.49774
1.50994
1.52177
1.53323
1.5443
1.555
1.56532
1.57526
1.58481
1.59398
1.60277
1.61117
1.61919
1.62681
1.63405
1.6409
1.64736
1.65344
1.65912
1.6644
1.6693
1.67381
1.67792
1.68164
1.68496
1.68789
1.69043
1.69258
1.6943
1.6954
1.69825
1.69356
1.69997
47.6731
-20.6351
5.64319
-0.355077
0.00137073
0.173276
0.192269
0.215607
0.244021
0.272682
0.301119
0.329435
0.357653
0.385767
0.413766
0.441644
0.469391
0.497
0.524464
0.551773
0.57892
0.605899
0.632701
0.659319
0.685746
0.711974
0.737997
0.763807
0.789398
0.814762
0.839895
0.864788
0.889435
0.913831
0.937969
0.961843
0.985447
1.00878
1.03182
1.05459
1.07706
1.09923
1.1211
1.14267
1.16392
1.18486
1.20547
1.22576
1.24573
1.26536
1.28465
1.3036
1.32221
1.34046
1.35837
1.37592
1.39312
1.40995
1.42642
1.44252
1.45825
1.47361
1.4886
1.50321
1.51744
1.53129
1.54475
1.55783
1.57052
1.58283
1.59474
1.60626
1.61739
1.62812
1.63846
1.64839
1.65793
1.66707
1.67581
1.68415
1.69208
1.69961
1.70674
1.71346
1.71977
1.72568
1.73118
1.73627
1.74096
1.74524
1.7491
1.75256
1.75561
1.75825
1.76049
1.76228
1.76346
1.76622
1.76179
1.76807
47.6736
-20.6334
5.64595
-0.351216
0.0063337
0.179339
0.19943
0.223864
0.253371
0.283123
0.312648
0.342048
0.371346
0.400536
0.429608
0.458553
0.487363
0.516029
0.544543
0.572898
0.601085
0.629097
0.656925
0.684562
0.712
0.739233
0.766252
0.79305
0.819621
0.845957
0.872051
0.897897
0.923488
0.948818
0.97388
0.998668
1.02318
1.0474
1.07133
1.09496
1.11829
1.14132
1.16402
1.18641
1.20848
1.23022
1.25163
1.27269
1.29342
1.3138
1.33383
1.35351
1.37283
1.39179
1.41038
1.4286
1.44645
1.46393
1.48103
1.49775
1.51408
1.53003
1.54559
1.56076
1.57553
1.58991
1.60389
1.61747
1.63065
1.64343
1.6558
1.66776
1.67931
1.69045
1.70119
1.7115
1.72141
1.7309
1.73997
1.74863
1.75687
1.76468
1.77208
1.77906
1.78562
1.79175
1.79746
1.80275
1.80762
1.81206
1.81607
1.81967
1.82283
1.82557
1.8279
1.82975
1.83101
1.83368
1.82951
1.83566
47.6742
-20.6318
5.64869
-0.347384
0.0112583
0.185354
0.206535
0.232057
0.262649
0.293483
0.324087
0.354563
0.384934
0.415192
0.445327
0.475331
0.505195
0.53491
0.564468
0.59386
0.623079
0.652115
0.680961
0.70961
0.738052
0.766281
0.794289
0.822068
0.84961
0.87691
0.903959
0.930751
0.957279
0.983535
1.00951
1.03521
1.06061
1.08572
1.11053
1.13503
1.15921
1.18308
1.20662
1.22982
1.2527
1.27523
1.29742
1.31926
1.34075
1.36187
1.38264
1.40303
1.42306
1.44271
1.46198
1.48087
1.49938
1.5175
1.53522
1.55255
1.56948
1.58601
1.60214
1.61787
1.63318
1.64809
1.66258
1.67666
1.69032
1.70356
1.71638
1.72878
1.74076
1.75231
1.76343
1.77413
1.7844
1.79423
1.80364
1.81261
1.82115
1.82925
1.83692
1.84416
1.85095
1.85731
1.86323
1.86872
1.87376
1.87836
1.88253
1.88625
1.88953
1.89237
1.89478
1.89671
1.89804
1.90064
1.8967
1.90274
47.6747
-20.6301
5.6514
-0.343583
0.0161434
0.191322
0.213584
0.240184
0.271852
0.30376
0.335435
0.366978
0.398412
0.429729
0.46092
0.491974
0.522884
0.553639
0.584232
0.614654
0.644895
0.674948
0.704805
0.734456
0.763894
0.793112
0.8221
0.850852
0.879359
0.907614
0.935611
0.96334
0.990797
1.01797
1.04486
1.07146
1.09775
1.12374
1.14941
1.17477
1.1998
1.2245
1.24886
1.27289
1.29656
1.31988
1.34285
1.36545
1.38769
1.40956
1.43105
1.45216
1.47289
1.49322
1.51317
1.53272
1.55188
1.57063
1.58897
1.60691
1.62444
1.64155
1.65824
1.67451
1.69037
1.70579
1.72079
1.73536
1.7495
1.76321
1.77648
1.78931
1.80171
1.81366
1.82518
1.83625
1.84688
1.85706
1.86679
1.87608
1.88492
1.89331
1.90124
1.90873
1.91576
1.92235
1.92848
1.93415
1.93937
1.94413
1.94844
1.9523
1.9557
1.95864
1.96113
1.96313
1.96454
1.96706
1.96334
1.96928
47.6753
-20.6285
5.65409
-0.339815
0.0209875
0.19724
0.220573
0.248243
0.280979
0.313951
0.346687
0.379288
0.411777
0.444145
0.476382
0.508478
0.540425
0.572212
0.603831
0.635273
0.666529
0.69759
0.728448
0.759094
0.78952
0.819718
0.849678
0.879394
0.908858
0.938061
0.966997
0.995657
1.02403
1.05212
1.07991
1.1074
1.13458
1.16144
1.18797
1.21418
1.24005
1.26558
1.29076
1.31559
1.34006
1.36416
1.3879
1.41126
1.43424
1.45684
1.47905
1.50087
1.5223
1.54332
1.56393
1.58414
1.60394
1.62332
1.64228
1.66082
1.67893
1.69661
1.71387
1.73069
1.74707
1.76301
1.77852
1.79358
1.80819
1.82236
1.83607
1.84934
1.86215
1.87451
1.88641
1.89785
1.90883
1.91935
1.92942
1.93901
1.94815
1.95682
1.96502
1.97276
1.98003
1.98684
1.99317
1.99904
2.00443
2.00936
2.01381
2.01779
2.02131
2.02435
2.02692
2.02899
2.03047
2.03293
2.02941
2.03526
47.6758
-20.6269
5.65676
-0.336078
0.0257894
0.203106
0.227501
0.256232
0.290026
0.324053
0.357842
0.391492
0.425026
0.458435
0.491709
0.524838
0.557813
0.590623
0.623259
0.655713
0.687974
0.720035
0.751886
0.783518
0.814923
0.846092
0.877017
0.907689
0.9381
0.968243
0.99811
1.02769
1.05698
1.08597
1.11466
1.14303
1.17108
1.1988
1.22619
1.25324
1.27995
1.3063
1.33229
1.35791
1.38317
1.40805
1.43255
1.45667
1.48039
1.50372
1.52664
1.54916
1.57127
1.59297
1.61425
1.63511
1.65554
1.67555
1.69512
1.71425
1.73295
1.7512
1.76901
1.78637
1.80328
1.81974
1.83574
1.85128
1.86637
1.88099
1.89515
1.90884
1.92206
1.93482
1.9471
1.95891
1.97025
1.98111
1.9915
2.0014
2.01083
2.01978
2.02825
2.03624
2.04374
2.05076
2.0573
2.06336
2.06893
2.07401
2.07861
2.08272
2.08634
2.08948
2.09214
2.09428
2.09583
2.09823
2.09491
2.10068
47.6763
-20.6253
5.65941
-0.332376
0.0305479
0.208919
0.234367
0.264149
0.298991
0.334064
0.368895
0.403585
0.438155
0.472596
0.506898
0.541051
0.575043
0.608867
0.642511
0.675968
0.709226
0.742277
0.775112
0.807721
0.840096
0.872228
0.904108
0.935727
0.967078
0.998152
1.02894
1.05944
1.08963
1.11952
1.14909
1.17834
1.20725
1.23583
1.26407
1.29196
1.31948
1.34665
1.37344
1.39986
1.4259
1.45155
1.4768
1.50166
1.52612
1.55016
1.5738
1.59702
1.61981
1.64218
1.66412
1.68562
1.70668
1.7273
1.74748
1.7672
1.78648
1.8053
1.82365
1.84155
1.85898
1.87595
1.89245
1.90847
1.92402
1.93909
1.95369
1.9678
1.98144
1.99458
2.00725
2.01942
2.03111
2.04231
2.05301
2.06323
2.07295
2.08217
2.0909
2.09914
2.10688
2.11411
2.12086
2.1271
2.13284
2.13808
2.14282
2.14706
2.1508
2.15403
2.15677
2.15897
2.16059
2.16295
2.1598
2.16551
47.6769
-20.6238
5.66203
-0.328708
0.0352617
0.214677
0.241169
0.271991
0.307871
0.343981
0.379845
0.415564
0.45116
0.486624
0.521944
0.557111
0.592112
0.62694
0.661583
0.696032
0.730278
0.76431
0.798119
0.831696
0.865032
0.898118
0.930944
0.963502
0.995784
1.02778
1.05948
1.09088
1.12198
1.15275
1.1832
1.21331
1.24309
1.27252
1.30159
1.3303
1.35865
1.38662
1.41421
1.44141
1.46822
1.49463
1.52064
1.54624
1.57142
1.59618
1.62051
1.64442
1.66789
1.69092
1.71351
1.73565
1.75734
1.77857
1.79935
1.81966
1.83951
1.85888
1.87779
1.89621
1.91416
1.93163
1.94862
1.96512
1.98113
1.99665
2.01168
2.02621
2.04025
2.05379
2.06683
2.07937
2.0914
2.10293
2.11395
2.12447
2.13448
2.14398
2.15297
2.16145
2.16942
2.17687
2.18381
2.19024
2.19615
2.20155
2.20643
2.21079
2.21464
2.21798
2.22079
2.22307
2.22475
2.22707
2.22407
2.22973
47.6774
-20.6222
5.66463
-0.325076
0.0399297
0.22038
0.247904
0.279757
0.316666
0.353801
0.390688
0.427427
0.46404
0.500516
0.536844
0.573014
0.609015
0.644837
0.680469
0.715902
0.751125
0.786129
0.820903
0.855439
0.889726
0.923757
0.95752
0.991008
1.02421
1.05712
1.08973
1.12203
1.154
1.18566
1.21697
1.24795
1.27858
1.30884
1.33875
1.36828
1.39743
1.4262
1.45458
1.48256
1.51013
1.5373
1.56405
1.59038
1.61628
1.64174
1.66677
1.69136
1.7155
1.73919
1.76243
1.7852
1.80751
1.82935
1.85071
1.87161
1.89202
1.91195
1.93139
1.95035
1.96881
1.98678
2.00425
2.02122
2.03769
2.05365
2.06911
2.08406
2.09849
2.11242
2.12583
2.13873
2.1511
2.16296
2.1743
2.18512
2.19541
2.20519
2.21443
2.22315
2.23135
2.23902
2.24616
2.25277
2.25885
2.2644
2.26942
2.27391
2.27787
2.2813
2.28419
2.28653
2.28828
2.29058
2.28771
2.29333
47.6779
-20.6207
5.66719
-0.321481
0.0445507
0.226025
0.254571
0.287445
0.325372
0.363523
0.401422
0.439171
0.476789
0.514268
0.551594
0.588758
0.625748
0.662554
0.699165
0.735572
0.771762
0.807728
0.843458
0.878942
0.914172
0.949137
0.983828
1.01824
1.05235
1.08616
1.11967
1.15285
1.18571
1.21823
1.25041
1.28224
1.3137
1.3448
1.37553
1.40587
1.43583
1.46539
1.49454
1.52329
1.55162
1.57954
1.60702
1.63407
1.66068
1.68685
1.71257
1.73783
1.76264
1.78698
1.81085
1.83425
1.85717
1.87961
1.90156
1.92303
1.944
1.96448
1.98445
2.00393
2.0229
2.04136
2.05931
2.07675
2.09367
2.11007
2.12596
2.14132
2.15615
2.17046
2.18424
2.19749
2.21021
2.22239
2.23404
2.24516
2.25574
2.26578
2.27528
2.28424
2.29266
2.30054
2.30787
2.31466
2.32091
2.32662
2.33178
2.33639
2.34046
2.34398
2.34696
2.34936
2.35118
2.35344
2.35071
2.35629
47.6784
-20.6191
5.66974
-0.317923
0.0491234
0.231611
0.261169
0.295053
0.333987
0.373143
0.412045
0.450792
0.489406
0.527876
0.56619
0.604337
0.642306
0.680086
0.717666
0.755036
0.792184
0.829101
0.865777
0.9022