/*--------------------------------*- C++ -*----------------------------------*\
  =========                 |
  \\      /  F ield         | OpenFOAM: The Open Source CFD Toolbox
   \\    /   O peration     | Website:  https://openfoam.org
    \\  /    A nd           | Version:  10
     \\/     M anipulation  |
\*---------------------------------------------------------------------------*/
FoamFile
{
    format      ascii;
    class       volScalarField;
    location    "31.5";
    object      ddt0(T);
}
// * * * * * * * * * * * * * * * * * * * * * * * * * * * * * * * * * * * * * //

dimensions      [0 0 -1 1 0 0 0];

internalField   nonuniform List<scalar> 
10000
(
789.748
101.894
186.666
186.248
185.478
185.55
185.588
185.594
185.595
185.596
185.597
185.599
185.6
185.601
185.602
185.603
185.604
185.605
185.606
185.607
185.608
185.609
185.61
185.611
185.612
185.613
185.614
185.615
185.616
185.617
185.618
185.619
185.62
185.62
185.621
185.622
185.623
185.624
185.624
185.625
185.626
185.627
185.627
185.628
185.629
185.63
185.63
185.631
185.631
185.632
185.633
185.633
185.634
185.634
185.635
185.635
185.636
185.637
185.637
185.637
185.638
185.638
185.639
185.639
185.64
185.64
185.64
185.641
185.641
185.641
185.642
185.642
185.642
185.643
185.643
185.643
185.643
185.644
185.644
185.644
185.644
185.644
185.645
185.645
185.645
185.645
185.645
185.645
185.645
185.645
185.646
185.646
185.646
185.646
185.645
185.653
185.766
186.051
176.781
155.88
140.936
-161.745
-58.6366
-67.7223
-69.5686
-69.4167
-69.3537
-69.3491
-69.3477
-69.3448
-69.3416
-69.3383
-69.3351
-69.3319
-69.3287
-69.3255
-69.3224
-69.3193
-69.3162
-69.3131
-69.3101
-69.3071
-69.3041
-69.3012
-69.2983
-69.2954
-69.2925
-69.2897
-69.287
-69.2842
-69.2815
-69.2789
-69.2763
-69.2737
-69.2712
-69.2687
-69.2662
-69.2638
-69.2615
-69.2592
-69.2569
-69.2547
-69.2525
-69.2503
-69.2482
-69.2462
-69.2442
-69.2423
-69.2403
-69.2385
-69.2367
-69.2349
-69.2332
-69.2315
-69.2299
-69.2283
-69.2267
-69.2253
-69.2238
-69.2224
-69.221
-69.2197
-69.2184
-69.2172
-69.216
-69.2148
-69.2137
-69.2127
-69.2116
-69.2106
-69.2097
-69.2088
-69.2079
-69.2071
-69.2063
-69.2055
-69.2048
-69.2041
-69.2034
-69.2028
-69.2022
-69.2017
-69.2012
-69.2007
-69.2002
-69.1998
-69.1994
-69.199
-69.1987
-69.1984
-69.1982
-69.1979
-69.1977
-69.1979
-69.2005
-69.2047
-69.1119
-68.4722
-70.6051
-56.5238
212.647
-70.1286
23.534
12.3381
10.5628
10.8081
10.8889
10.8962
10.8994
10.9045
10.9099
10.9153
10.9207
10.9261
10.9314
10.9367
10.942
10.9472
10.9524
10.9575
10.9626
10.9676
10.9726
10.9775
10.9823
10.9871
10.9919
10.9965
11.0012
11.0057
11.0102
11.0146
11.019
11.0233
11.0275
11.0317
11.0357
11.0397
11.0437
11.0475
11.0513
11.055
11.0587
11.0622
11.0657
11.0691
11.0724
11.0757
11.0789
11.082
11.085
11.0879
11.0908
11.0936
11.0963
11.099
11.1015
11.104
11.1065
11.1088
11.1111
11.1133
11.1154
11.1175
11.1195
11.1214
11.1232
11.125
11.1267
11.1284
11.13
11.1315
11.133
11.1344
11.1357
11.137
11.1382
11.1393
11.1404
11.1414
11.1424
11.1433
11.1442
11.145
11.1458
11.1465
11.1471
11.1477
11.1483
11.1488
11.1492
11.1496
11.15
11.1499
11.1459
11.1276
11.1329
11.4353
9.48467
10.6856
212.625
-77.8364
13.7239
2.47346
0.810951
1.08794
1.17324
1.18214
1.18738
1.19457
1.2022
1.20981
1.21736
1.22485
1.2323
1.2397
1.24704
1.25432
1.26154
1.26869
1.27578
1.2828
1.28974
1.29661
1.3034
1.31011
1.31674
1.32328
1.32974
1.33611
1.3424
1.34858
1.35468
1.36068
1.36658
1.37239
1.37809
1.3837
1.3892
1.3946
1.3999
1.40509
1.41017
1.41515
1.42003
1.42479
1.42945
1.43401
1.43845
1.44279
1.44702
1.45114
1.45516
1.45907
1.46288
1.46658
1.47017
1.47366
1.47705
1.48033
1.48351
1.48659
1.48958
1.49246
1.49524
1.49793
1.50052
1.50302
1.50542
1.50773
1.50995
1.51208
1.51412
1.51607
1.51793
1.51971
1.5214
1.52302
1.52454
1.52599
1.52736
1.52865
1.52986
1.53099
1.53205
1.53304
1.53394
1.53478
1.53554
1.53623
1.53686
1.53744
1.5381
1.53893
1.53821
1.52721
1.52052
1.75857
1.67001
1.28277
212.005
-79.4481
12.156
1.01459
-0.607974
-0.323529
-0.236558
-0.225884
-0.218567
-0.20921
-0.199413
-0.189648
-0.17995
-0.170315
-0.160742
-0.151236
-0.141801
-0.132441
-0.123162
-0.113965
-0.104856
-0.0958373
-0.086912
-0.0780835
-0.0693547
-0.0607285
-0.0522078
-0.0437954
-0.0354938
-0.0273057
-0.0192335
-0.0112795
-0.00344598
0.00426492
0.0118513
0.0193112
0.026643
0.0338451
0.0409161
0.0478547
0.0546598
0.0613303
0.0678653
0.0742642
0.0805263
0.0866512
0.0926385
0.0984881
0.1042
0.109773
0.11521
0.120508
0.12567
0.130694
0.135583
0.140337
0.144955
0.14944
0.153792
0.158012
0.162101
0.16606
0.169891
0.173594
0.177171
0.180624
0.183953
0.18716
0.190247
0.193215
0.196066
0.1988
0.20142
0.203927
0.206322
0.208608
0.210785
0.212855
0.214819
0.21668
0.218437
0.220094
0.22165
0.223107
0.224467
0.22573
0.226899
0.227973
0.228953
0.22984
0.230632
0.231344
0.232069
0.233088
0.233932
0.227935
0.204881
0.247011
0.303034
0.232547
212.069
-79.3196
12.368
1.25739
-0.357695
-0.0713886
0.01726
0.0299575
0.0394296
0.050961
0.0629247
0.0748459
0.0866872
0.0984542
0.110145
0.121755
0.133277
0.144708
0.156042
0.167273
0.178399
0.189415
0.200316
0.211099
0.22176
0.232296
0.242703
0.252978
0.263117
0.273117
0.282976
0.292691
0.302258
0.311676
0.320941
0.330052
0.339006
0.347802
0.356438
0.364912
0.373223
0.381369
0.38935
0.397165
0.404813
0.412293
0.419605
0.426749
0.433724
0.440531
0.44717
0.453641
0.459945
0.466081
0.472052
0.477857
0.483497
0.488974
0.494289
0.499442
0.504436
0.509271
0.513949
0.518471
0.52284
0.527056
0.531122
0.535039
0.538809
0.542433
0.545914
0.549253
0.552453
0.555514
0.55844
0.561231
0.563889
0.566417
0.568816
0.571088
0.573234
0.575257
0.577157
0.578937
0.580598
0.582141
0.583567
0.584879
0.586077
0.587161
0.588128
0.588975
0.589746
0.590705
0.592296
0.592526
0.583006
0.578295
0.580287
0.59274
212.101
-79.2649
12.439
1.33308
-0.280264
0.00772985
0.0983781
0.113219
0.124866
0.138569
0.152694
0.166766
0.180746
0.194638
0.208442
0.222149
0.235754
0.24925
0.262632
0.275894
0.28903
0.302037
0.314909
0.327641
0.34023
0.35267
0.364958
0.37709
0.389063
0.400871
0.412512
0.423982
0.435279
0.446398
0.457338
0.468096
0.478669
0.489054
0.49925
0.509256
0.519069
0.528687
0.538111
0.547338
0.556367
0.565199
0.573832
0.582267
0.590503
0.59854
0.606378
0.614018
0.62146
0.628706
0.635755
0.642609
0.649268
0.655734
0.662009
0.668094
0.673989
0.679698
0.685221
0.690561
0.695719
0.700697
0.705497
0.710121
0.714572
0.718851
0.722961
0.726903
0.73068
0.734295
0.737749
0.741044
0.744183
0.747167
0.749999
0.752681
0.755215
0.757603
0.759847
0.761948
0.763909
0.76573
0.767415
0.768963
0.770377
0.771659
0.772804
0.773806
0.774658
0.775461
0.77663
0.778234
0.777455
0.774223
0.766232
0.780577
212.106
-79.2604
12.4462
1.34189
-0.269659
0.0203636
0.113156
0.130172
0.143992
0.15986
0.176139
0.192355
0.208466
0.224479
0.240388
0.256187
0.271868
0.287423
0.302847
0.318133
0.333275
0.348267
0.363103
0.377779
0.39229
0.406629
0.420793
0.434777
0.448577
0.462187
0.475605
0.488826
0.501847
0.514663
0.527273
0.539672
0.551858
0.563828
0.57558
0.587112
0.598422
0.609509
0.62037
0.631004
0.641412
0.651591
0.661541
0.671263
0.680755
0.690018
0.699052
0.707858
0.716435
0.724786
0.73291
0.740809
0.748485
0.755937
0.763169
0.770182
0.776977
0.783556
0.789921
0.796075
0.80202
0.807757
0.813289
0.818619
0.823748
0.82868
0.833416
0.83796
0.842313
0.846479
0.850459
0.854256
0.857874
0.861313
0.864578
0.867669
0.870589
0.873341
0.875927
0.878348
0.880608
0.882707
0.884648
0.886433
0.888063
0.88954
0.890865
0.892032
0.893025
0.893846
0.894653
0.895775
0.896931
0.896977
0.888155
0.902054
212.107
-79.2588
12.4497
1.34745
-0.262012
0.0301665
0.125135
0.144324
0.16031
0.178334
0.196761
0.215113
0.23335
0.251474
0.269482
0.287365
0.305115
0.322723
0.340182
0.357485
0.374625
0.391595
0.40839
0.425003
0.441428
0.45766
0.473693
0.489523
0.505143
0.52055
0.535738
0.550704
0.565442
0.57995
0.594223
0.608258
0.622052
0.635601
0.648904
0.661957
0.674759
0.687308
0.699602
0.711639
0.723419
0.734941
0.746204
0.757207
0.767951
0.778436
0.788661
0.798628
0.808337
0.817789
0.826984
0.835925
0.844612
0.853048
0.861233
0.86917
0.876861
0.884307
0.891512
0.898477
0.905205
0.911699
0.91796
0.923992
0.929798
0.93538
0.94074
0.945883
0.95081
0.955525
0.96003
0.964328
0.968422
0.972315
0.976009
0.979508
0.982813
0.985927
0.988854
0.991595
0.994152
0.996528
0.998725
1.00074
1.00259
1.00426
1.00576
1.00709
1.00824
1.00919
1.00996
1.01072
1.01197
1.01357
1.0018
1.01911
212.109
-79.2559
12.4548
1.35471
-0.252586
0.0417671
0.138907
0.160262
0.178405
0.198578
0.219144
0.239624
0.259977
0.280206
0.300304
0.320264
0.340074
0.359726
0.379212
0.398525
0.417655
0.436596
0.455341
0.473883
0.492216
0.510333
0.528228
0.545896
0.56333
0.580526
0.597478
0.614181
0.630631
0.646823
0.662753
0.678417
0.693812
0.708934
0.723781
0.73835
0.752638
0.766643
0.780363
0.793798
0.806945
0.819804
0.832374
0.844654
0.856645
0.868346
0.879758
0.890881
0.901717
0.912265
0.922527
0.932505
0.9422
0.951614
0.960749
0.969607
0.97819
0.9865
0.994541
1.00231
1.00982
1.01707
1.02406
1.03079
1.03727
1.0435
1.04948
1.05522
1.06071
1.06598
1.071
1.0758
1.08037
1.08471
1.08884
1.09274
1.09643
1.0999
1.10317
1.10623
1.10908
1.11173
1.11419
1.11644
1.1185
1.12036
1.12204
1.12352
1.12482
1.12591
1.12677
1.12744
1.12865
1.13158
1.11553
1.13756
212.11
-79.2526
12.4603
1.36235
-0.24278
0.0537418
0.153045
0.176555
0.196846
0.219158
0.241853
0.264452
0.286914
0.309237
0.331417
0.353443
0.375305
0.396993
0.418498
0.43981
0.460922
0.481825
0.502512
0.522975
0.543207
0.563201
0.58295
0.602447
0.621688
0.640665
0.659372
0.677806
0.695959
0.713828
0.731408
0.748694
0.765683
0.782371
0.798755
0.814832
0.830599
0.846054
0.861195
0.876021
0.890529
0.904719
0.91859
0.932141
0.945373
0.958285
0.970878
0.983152
0.995109
1.00675
1.01807
1.02908
1.03978
1.05017
1.06025
1.07002
1.07949
1.08866
1.09754
1.10611
1.1144
1.12239
1.1301
1.13753
1.14468
1.15155
1.15816
1.16449
1.17055
1.17636
1.18191
1.1872
1.19224
1.19703
1.20158
1.20589
1.20996
1.2138
1.2174
1.22077
1.22392
1.22685
1.22955
1.23204
1.23431
1.23637
1.23822
1.23985
1.24129
1.2425
1.24347
1.24415
1.24535
1.24967
1.22932
1.256
212.111
-79.2493
12.4657
1.36996
-0.233005
0.0656747
0.16713
0.192786
0.215215
0.239656
0.26447
0.289178
0.313737
0.338146
0.362397
0.38648
0.410384
0.434097
0.45761
0.480913
0.503997
0.526853
0.549472
0.571847
0.593969
0.61583
0.637424
0.658743
0.67978
0.70053
0.720985
0.741139
0.760988
0.780526
0.799747
0.818647
0.837223
0.855469
0.873383
0.89096
0.908199
0.925097
0.941652
0.957861
0.973723
0.989237
1.0044
1.01922
1.03369
1.0478
1.06157
1.07499
1.08806
1.10079
1.11317
1.12521
1.1369
1.14826
1.15928
1.16996
1.18032
1.19034
1.20004
1.20942
1.21848
1.22722
1.23565
1.24377
1.25158
1.2591
1.26631
1.27324
1.27987
1.28622
1.29228
1.29806
1.30358
1.30882
1.31379
1.3185
1.32295
1.32714
1.33108
1.33477
1.33821
1.34141
1.34437
1.34709
1.34957
1.35182
1.35384
1.35563
1.35719
1.35853
1.3596
1.36031
1.3615
1.3671
1.34302
1.37373
212.112
-79.2461
12.4711
1.37752
-0.223294
0.0775324
0.181129
0.208919
0.233474
0.260033
0.286957
0.313763
0.340408
0.36689
0.393202
0.419332
0.445266
0.470994
0.496505
0.521789
0.546834
0.571632
0.596174
0.620449
0.644451
0.66817
0.691599
0.71473
0.737555
0.760067
0.78226
0.804127
0.825662
0.846859
0.867713
0.888219
0.908372
0.928168
0.947603
0.966674
0.985376
1.00371
1.02167
1.03925
1.05646
1.07329
1.08975
1.10582
1.12152
1.13683
1.15177
1.16633
1.18051
1.19431
1.20774
1.2208
1.23349
1.24581
1.25777
1.26936
1.28059
1.29147
1.30199
1.31216
1.32199
1.33147
1.34061
1.34942
1.3579
1.36605
1.37388
1.38139
1.38858
1.39547
1.40204
1.40832
1.4143
1.41998
1.42538
1.43048
1.43531
1.43986
1.44413
1.44813
1.45187
1.45534
1.45855
1.4615
1.46419
1.46663
1.46882
1.47076
1.47246
1.47391
1.47507
1.47582
1.47699
1.48366
1.45663
1.49059
212.113
-79.2429
12.4765
1.38504
-0.213641
0.0893196
0.195045
0.224957
0.251627
0.280293
0.309312
0.338204
0.366924
0.395469
0.423829
0.451993
0.479947
0.507678
0.535176
0.562428
0.589424
0.616153
0.642605
0.668772
0.694642
0.720209
0.745462
0.770393
0.794996
0.819261
0.843182
0.866751
0.889962
0.91281
0.935287
0.957389
0.97911
1.00045
1.02139
1.04195
1.06211
1.08187
1.10122
1.12018
1.13872
1.15686
1.1746
1.19192
1.20883
1.22534
1.24144
1.25713
1.27241
1.28729
1.30177
1.31584
1.32952
1.34279
1.35568
1.36817
1.38028
1.392
1.40334
1.4143
1.42489
1.43511
1.44496
1.45445
1.46359
1.47237
1.48081
1.4889
1.49665
1.50407
1.51116
1.51792
1.52437
1.53049
1.53631
1.54181
1.54701
1.55191
1.55652
1.56083
1.56485
1.56859
1.57205
1.57523
1.57813
1.58076
1.58312
1.58521
1.58704
1.58861
1.58987
1.59067
1.59182
1.59927
1.57012
1.60652
212.114
-79.2397
12.4818
1.3925
-0.204048
0.101034
0.208875
0.240897
0.269669
0.300427
0.331531
0.362496
0.393277
0.423871
0.454268
0.484453
0.514414
0.544136
0.573608
0.602816
0.63175
0.660398
0.68875
0.716795
0.744523
0.771925
0.798991
0.825713
0.852081
0.878088
0.903726
0.928987
0.953864
0.978351
1.00244
1.02613
1.04941
1.07228
1.09473
1.11675
1.13836
1.15953
1.18028
1.20059
1.22047
1.23991
1.25892
1.27748
1.29561
1.3133
1.33055
1.34736
1.36374
1.37969
1.3952
1.41028
1.42494
1.43917
1.45297
1.46636
1.47933
1.49189
1.50404
1.51579
1.52714
1.53809
1.54865
1.55882
1.56861
1.57802
1.58706
1.59573
1.60404
1.61199
1.61959
1.62683
1.63374
1.6403
1.64653
1.65243
1.658
1.66325
1.66819
1.67281
1.67712
1.68113
1.68483
1.68824
1.69135
1.69417
1.6967
1.69894
1.7009
1.70258
1.70394
1.7048
1.70594
1.71391
1.68339
1.7215
212.115
-79.2365
12.4871
1.39992
-0.194519
0.112671
0.222614
0.256731
0.287591
0.320429
0.353602
0.386626
0.419455
0.452085
0.484504
0.516698
0.548652
0.580352
0.611785
0.642937
0.673796
0.704351
0.734589
0.7645
0.794073
0.823298
0.852165
0.880665
0.908787
0.936524
0.963867
0.990809
1.01734
1.04346
1.06915
1.09441
1.11924
1.14363
1.16757
1.19106
1.2141
1.23668
1.25881
1.28047
1.30167
1.3224
1.34267
1.36247
1.3818
1.40066
1.41906
1.43699
1.45446
1.47146
1.48801
1.50409
1.51972
1.53489
1.54961
1.56389
1.57772
1.59111
1.60407
1.6166
1.6287
1.64037
1.65163
1.66248
1.67292
1.68296
1.69259
1.70184
1.7107
1.71918
1.72728
1.735
1.74236
1.74936
1.756
1.76229
1.76824
1.77384
1.7791
1.78402
1.78862
1.7929
1.79685
1.80048
1.80379
1.8068
1.8095
1.81189
1.81398
1.81577
1.81722
1.81815
1.8193
1.82755
1.79634
1.83549
212.116
-79.2333
12.4924
1.40728
-0.185058
0.124225
0.236255
0.272453
0.305386
0.340288
0.375516
0.410585
0.445448
0.480099
0.514526
0.548714
0.582647
0.616311
0.64969
0.682772
0.715543
0.74799
0.780102
0.811865
0.843271
0.874306
0.904961
0.935225
0.965089
0.994544
1.02358
1.05219
1.08036
1.1081
1.13538
1.1622
1.18857
1.21447
1.23989
1.26484
1.2893
1.31328
1.33677
1.35978
1.38229
1.4043
1.42582
1.44684
1.46737
1.4874
1.50694
1.52597
1.54452
1.56258
1.58014
1.59722
1.61381
1.62992
1.64555
1.66071
1.6754
1.68962
1.70337
1.71667
1.72952
1.74192
1.75387
1.76539
1.77647
1.78712
1.79736
1.80717
1.81658
1.82558
1.83418
1.84238
1.8502
1.85763
1.86468
1.87136
1.87766
1.88361
1.88919
1.89443
1.89931
1.90384
1.90804
1.91189
1.91542
1.91861
1.92147
1.92401
1.92623
1.92813
1.92968
1.93068
1.93186
1.94018
1.90884
1.94848
212.117
-79.2302
12.4976
1.41458
-0.175669
0.135691
0.249792
0.288055
0.323045
0.359996
0.397264
0.434363
0.471244
0.5079
0.544321
0.580487
0.616385
0.651997
0.687309
0.722306
0.756973
0.791299
0.825269
0.858872
0.892095
0.924926
0.957356
0.989372
1.02096
1.05212
1.08284
1.1131
1.14291
1.17224
1.2011
1.22948
1.25737
1.28477
1.31166
1.33805
1.36393
1.3893
1.41415
1.43848
1.46229
1.48557
1.50834
1.53057
1.55229
1.57347
1.59414
1.61427
1.63389
1.65299
1.67157
1.68963
1.70718
1.72422
1.74075
1.75678
1.77232
1.78736
1.80191
1.81597
1.82956
1.84267
1.85532
1.8675
1.87922
1.89049
1.90131
1.91169
1.92164
1.93116
1.94025
1.94893
1.95719
1.96505
1.97251
1.97957
1.98624
1.99253
1.99844
2.00397
2.00913
2.01393
2.01836
2.02244
2.02617
2.02954
2.03257
2.03526
2.0376
2.03962
2.04126
2.04234
2.04355
2.05179
2.02079
2.06045
212.119
-79.2271
12.5028
1.42183
-0.166357
0.147064
0.26322
0.303531
0.340562
0.379546
0.418837
0.457949
0.496831
0.535478
0.573875
0.612005
0.649851
0.687396
0.724625
0.761521
0.798071
0.834259
0.870073
0.9055
0.940526
0.97514
1.00933
1.04308
1.07639
1.10924
1.14162
1.17353
1.20495
1.23588
1.2663
1.29622
1.32562
1.3545
1.38285
1.41067
1.43795
1.46469
1.49089
1.51654
1.54164
1.56619
1.59018
1.61362
1.63651
1.65885
1.68063
1.70186
1.72253
1.74266
1.76225
1.78129
1.79978
1.81775
1.83517
1.85207
1.86845
1.8843
1.89963
1.91446
1.92878
1.9426
1.95593
1.96877
1.98112
1.993
2.00441
2.01535
2.02583
2.03586
2.04545
2.05459
2.0633
2.07159
2.07945
2.08689
2.09392
2.10055
2.10677
2.11261
2.11805
2.1231
2.12778
2.13208
2.136
2.13956
2.14275
2.14558
2.14806
2.15018
2.15191
2.15308
2.15433
2.16237
2.13206
2.17139
212.12
-79.224
12.5079
1.42901
-0.157124
0.15834
0.276533
0.318875
0.35793
0.398929
0.440227
0.481334
0.522202
0.562821
0.603178
0.643255
0.683033
0.722494
0.761623
0.800403
0.838818
0.876854
0.914497
0.951731
0.988545
1.02493
1.06086
1.09634
1.13134
1.16587
1.1999
1.23344
1.26646
1.29896
1.33094
1.36238
1.39328
1.42363
1.45343
1.48267
1.51134
1.53944
1.56698
1.59393
1.62031
1.64611
1.67132
1.69596
1.72001
1.74348
1.76637
1.78868
1.81041
1.83157
1.85214
1.87215
1.89159
1.91047
1.92878
1.94654
1.96374
1.9804
1.99652
2.01209
2.02714
2.04167
2.05567
2.06916
2.08214
2.09462
2.10661
2.1181
2.12912
2.13966
2.14973
2.15934
2.16849
2.17719
2.18545
2.19327
2.20066
2.20762
2.21417
2.22029
2.22601
2.23132
2.23624
2.24075
2.24488
2.24862
2.25197
2.25495
2.25755
2.25977
2.2616
2.26285
2.26415
2.27188
2.24256
2.28126
212.121
-79.221
12.513
1.43613
-0.147974
0.169514
0.289727
0.334081
0.375142
0.418139
0.461424
0.50451
0.547344
0.589919
0.632219
0.674225
0.715917
0.757278
0.79829
0.838936
0.879201
0.919068
0.958522
0.997548
1.03613
1.07426
1.11193
1.14911
1.1858
1.22199
1.25766
1.29281
1.32742
1.36148
1.395
1.42795
1.46034
1.49215
1.52338
1.55402
1.58407
1.61352
1.64237
1.67062
1.69827
1.72531
1.75173
1.77755
1.80276
1.82735
1.85134
1.87472
1.89749
1.91966
1.94122
1.96219
1.98256
2.00234
2.02153
2.04014
2.05817
2.07562
2.09251
2.10884
2.1246
2.13982
2.15449
2.16863
2.18223
2.19531
2.20787
2.21992
2.23146
2.2425
2.25305
2.26312
2.27271
2.28183
2.29048
2.29868
2.30642
2.31371
2.32057
2.32699
2.33298
2.33855
2.34369
2.34843
2.35275
2.35667
2.36018
2.3633
2.36602
2.36836
2.37028
2.37162
2.37297
2.38033
2.35218
2.39006
212.122
-79.2179
12.5181
1.44318
-0.138911
0.180583
0.302796
0.349144
0.392192
0.437167
0.482422
0.527467
0.57225
0.616762
0.660986
0.704903
0.748492
0.791734
0.834612
0.877107
0.919203
0.960883
1.00213
1.04293
1.08327
1.12314
1.16251
1.20139
1.23975
1.27758
1.31487
1.35161
1.3878
1.42341
1.45845
1.4929
1.52676
1.56001
1.59266
1.62469
1.6561
1.68689
1.71706
1.74659
1.77549
1.80375
1.83138
1.85836
1.88471
1.91042
1.9355
1.95994
1.98374
2.00691
2.02945
2.05137
2.07266
2.09334
2.1134
2.13285
2.15169
2.16993
2.18759
2.20465
2.22113
2.23703
2.25237
2.26714
2.28136
2.29503
2.30815
2.32074
2.33281
2.34435
2.35538
2.3659
2.37592
2.38545
2.3945
2.40306
2.41115
2.41878
2.42594
2.43265
2.43891
2.44473
2.45011
2.45506
2.45958
2.46367
2.46735
2.4706
2.47345
2.47589
2.4779
2.47933
2.48073
2.48769
2.46084
2.49776
212.123
-79.215
12.5231
1.45016
-0.129938
0.191542
0.315735
0.364058
0.409073
0.456007
0.503212
0.550198
0.59691
0.64334
0.689469
0.735278
0.780745
0.82585
0.870575
0.914901
0.95881
1.00229
1.04531
1.08787
1.12995
1.17153
1.2126
1.25315
1.29316
1.33262
1.37152
1.40984
1.44758
1.48473
1.52127
1.55721
1.59252
1.6272
1.66125
1.69466
1.72743
1.75954
1.791
1.8218
1.85194
1.88141
1.91022
1.93837
1.96585
1.99267
2.01881
2.0443
2.06913
2.09329
2.1168
2.13965
2.16186
2.18342
2.20434
2.22462
2.24427
2.2633
2.2817
2.29949
2.31668
2.33327
2.34926
2.36466
2.37949
2.39374
2.40743
2.42055
2.43313
2.44517
2.45667
2.46764
2.47809
2.48803
2.49745
2.50638
2.51482
2.52277
2.53024
2.53724
2.54377
2.54983
2.55544
2.5606
2.56532
2.56959
2.57342
2.57682
2.57979
2.58233
2.58443
2.58594
2.58741
2.59393
2.56845
2.60433
212.124
-79.212
12.528
1.45707
-0.121057
0.202388
0.328541
0.378818
0.42578
0.474653
0.523788
0.572694
0.621316
0.669644
0.717659
0.76534
0.812665
0.859614
0.906167
0.952305
0.998009
1.04326
1.08804
1.13234
1.17614
1.21942
1.26217
1.30437
1.34602
1.38709
1.42758
1.46746
1.50675
1.54541
1.58345
1.62084
1.6576
1.69369
1.72913
1.7639
1.798
1.83142
1.86417
1.89622
1.92759
1.95826
1.98825
2.01754
2.04614
2.07405
2.10126
2.12778
2.15362
2.17876
2.20323
2.22701
2.25012
2.27255
2.29432
2.31543
2.33587
2.35567
2.37483
2.39334
2.41122
2.42848
2.44512
2.46115
2.47657
2.4914
2.50565
2.51931
2.53239
2.54492
2.55688
2.5683
2.57917
2.58951
2.59932
2.60861
2.61739
2.62566
2.63343
2.64071
2.64751
2.65382
2.65966
2.66503
2.66993
2.67437
2.67836
2.6819
2.68499
2.68764
2.68982
2.69142
2.69294
2.69903
2.67493
2.70976
212.125
-79.2091
12.5329
1.46391
-0.112272
0.213117
0.341209
0.393419
0.442307
0.493098
0.544142
0.594947
0.645459
0.695664
0.745544
0.795078
0.844241
0.893014
0.941375
0.989305
1.03678
1.08379
1.13032
1.17634
1.22183
1.26679
1.3112
1.35504
1.3983
1.44097
1.48303
1.52446
1.56527
1.60543
1.64494
1.68379
1.72197
1.75946
1.79628
1.83239
1.86781
1.90253
1.93654
1.96983
2.00241
2.03428
2.06542
2.09585
2.12555
2.15454
2.1828
2.21035
2.23718
2.2633
2.28871
2.31341
2.33741
2.36071
2.38332
2.40523
2.42647
2.44703
2.46692
2.48615
2.50472
2.52265
2.53993
2.55657
2.57259
2.58799
2.60278
2.61697
2.63056
2.64356
2.65599
2.66784
2.67913
2.68987
2.70006
2.7097
2.71882
2.72741
2.73548
2.74304
2.7501
2.75665
2.76271
2.76829
2.77338
2.778
2.78214
2.78581
2.78902
2.79177
2.79404
2.79573
2.79731
2.80297
2.78024
2.81401
212.126
-79.2062
12.5377
1.47067
-0.103586
0.223726
0.353735
0.407856
0.458648
0.511336
0.564268
0.616951
0.66933
0.721392
0.773117
0.824482
0.875463
0.926039
0.976188
1.02589
1.07512
1.12387
1.17211
1.21983
1.26701
1.31363
1.35968
1.40514
1.45
1.49424
1.53785
1.58082
1.62313
1.66478
1.70574
1.74602
1.78561
1.82449
1.86266
1.90011
1.93683
1.97283
2.00809
2.04261
2.07639
2.10943
2.14172
2.17326
2.20406
2.23411
2.26341
2.29197
2.31979
2.34687
2.37321
2.39882
2.4237
2.44785
2.47129
2.49401
2.51603
2.53734
2.55796
2.5779
2.59715
2.61573
2.63364
2.65089
2.6675
2.68346
2.69879
2.7135
2.72759
2.74107
2.75395
2.76623
2.77794
2.78907
2.79963
2.80963
2.81907
2.82798
2.83635
2.84418
2.85149
2.85829
2.86457
2.87035
2.87563
2.88042
2.88471
2.88852
2.89185
2.8947
2.89706
2.89883
2.90047
2.90572
2.8843
2.91706
212.126
-79.2033
12.5425
1.47735
-0.0950011
0.234211
0.366115
0.422125
0.474799
0.529361
0.584159
0.638698
0.692923
0.74682
0.800368
0.853542
0.90632
0.958678
1.01059
1.06205
1.11301
1.16348
1.21342
1.26282
1.31166
1.35993
1.4076
1.45466
1.50109
1.54689
1.59204
1.63651
1.68031
1.72342
1.76583
1.80753
1.8485
1.88875
1.92826
1.96702
2.00504
2.04229
2.07879
2.11452
2.14949
2.18368
2.21711
2.24976
2.28163
2.31274
2.34307
2.37263
2.40142
2.42944
2.45671
2.48321
2.50896
2.53396
2.55821
2.58173
2.60452
2.62658
2.64792
2.66854
2.68847
2.70769
2.72623
2.74409
2.76127
2.77779
2.79365
2.80887
2.82345
2.8374
2.85073
2.86344
2.87555
2.88707
2.898
2.90834
2.91812
2.92734
2.93599
2.9441
2.95167
2.9587
2.9652
2.97118
2.97665
2.9816
2.98604
2.98999
2.99343
2.99638
2.99883
3.00068
3.00238
3.00724
2.98706
3.01887
212.127
-79.2005
12.5472
1.48395
-0.0865202
0.244569
0.378345
0.436221
0.490754
0.547167
0.603808
0.660182
0.71623
0.771939
0.827287
0.882249
0.936802
0.99092
1.04458
1.09776
1.15044
1.20261
1.25423
1.30529
1.35577
1.40565
1.45492
1.50357
1.55156
1.5989
1.64556
1.69153
1.7368
1.78135
1.82518
1.86828
1.91062
1.95222
1.99305
2.03312
2.0724
2.11091
2.14863
2.18556
2.22169
2.25703
2.29157
2.32531
2.35825
2.39039
2.42174
2.45228
2.48204
2.511
2.53917
2.56656
2.59316
2.619
2.64406
2.66836
2.69191
2.7147
2.73675
2.75806
2.77865
2.79851
2.81767
2.83612
2.85387
2.87094
2.88733
2.90305
2.91811
2.93253
2.9463
2.95943
2.97195
2.98384
2.99513
3.00582
3.01593
3.02545
3.03439
3.04277
3.05059
3.05785
3.06457
3.07075
3.0764
3.08151
3.0861
3.09018
3.09374
3.09679
3.09932
3.10125
3.103
3.10751
3.0885
3.11942
212.128
-79.1977
12.5519
1.49046
-0.078146
0.254796
0.390421
0.450139
0.506508
0.564749
0.62321
0.681394
0.739243
0.796741
0.853867
0.910595
0.966899
1.02275
1.07814
1.13303
1.1874
1.24124
1.29451
1.34721
1.39931
1.4508
1.50165
1.55185
1.60139
1.65024
1.6984
1.74584
1.79256
1.83854
1.88378
1.92825
1.97196
2.01488
2.05702
2.09837
2.13891
2.17865
2.21757
2.25568
2.29297
2.32944
2.36508
2.3999
2.43389
2.46706
2.4994
2.53092
2.56162
2.5915
2.62057
2.64883
2.67629
2.70294
2.7288
2.75387
2.77817
2.80168
2.82443
2.84642
2.86766
2.88816
2.90792
2.92695
2.94527
2.96288
2.97979
2.99601
3.01155
3.02642
3.04062
3.05418
3.06709
3.07936
3.09101
3.10204
3.11246
3.12228
3.13151
3.14015
3.14821
3.15571
3.16264
3.16902
3.17484
3.18012
3.18486
3.18906
3.19274
3.19589
3.1985
3.20051
3.20232
3.2065
3.18856
3.21867
212.129
-79.1949
12.5565
1.49689
-0.0698809
0.26489
0.402339
0.463876
0.522056
0.582102
0.642359
0.702329
0.761955
0.821219
0.8801
0.938569
0.996602
1.05417
1.11126
1.16783
1.22388
1.27936
1.33428
1.38859
1.44229
1.49536
1.54777
1.59951
1.65056
1.70091
1.75054
1.79944
1.84759
1.89498
1.9416
1.98744
2.03248
2.07672
2.12015
2.16275
2.20454
2.24549
2.2856
2.32487
2.3633
2.40088
2.43761
2.47349
2.50852
2.5427
2.57603
2.60851
2.64014
2.67093
2.70089
2.73001
2.7583
2.78576
2.81241
2.83824
2.86327
2.8875
2.91094
2.9336
2.95548
2.9766
2.99696
3.01657
3.03544
3.05359
3.07101
3.08772
3.10373
3.11905
3.13368
3.14764
3.16094
3.17359
3.18559
3.19695
3.20769
3.2178
3.22731
3.23621
3.24452
3.25225
3.25939
3.26596
3.27196
3.2774
3.28228
3.28661
3.2904
3.29364
3.29633
3.29842
3.30029
3.30418
3.28722
3.3166
212.13
-79.1922
12.561
1.50324
-0.0617274
0.274848
0.414096
0.477426
0.537394
0.59922
0.661248
0.722981
0.78436
0.845366
0.905977
0.966165
1.0259
1.08517
1.14393
1.20217
1.25985
1.31697
1.3735
1.42941
1.48468
1.53931
1.59326
1.64652
1.69907
1.75089
1.80198
1.85231
1.90187
1.95065
1.99864
2.04581
2.09217
2.13771
2.18241
2.22626
2.26927
2.31141
2.3527
2.39312
2.43267
2.47135
2.50915
2.54607
2.58212
2.6173
2.6516
2.68503
2.71758
2.74927
2.7801
2.81006
2.83917
2.86744
2.89486
2.92144
2.9472
2.97213
2.99625
3.01957
3.04208
3.06381
3.08476
3.10494
3.12436
3.14303
3.16095
3.17815
3.19462
3.21038
3.22544
3.2398
3.25349
3.2665
3.27884
3.29053
3.30158
3.31199
3.32177
3.33093
3.33948
3.34743
3.35478
3.36154
3.36771
3.37331
3.37834
3.38279
3.38669
3.39003
3.3928
3.39497
3.39688
3.40051
3.38444
3.41317
212.131
-79.1895
12.5655
1.50949
-0.053688
0.284667
0.425689
0.490788
0.552517
0.616098
0.679873
0.743344
0.80645
0.869175
0.931492
0.993374
1.05479
1.11572
1.17614
1.23602
1.29533
1.35405
1.41217
1.46965
1.52648
1.58264
1.6381
1.69286
1.74689
1.80017
1.85269
1.90443
1.95539
2.00553
2.05486
2.10336
2.15102
2.19783
2.24379
2.28887
2.33308
2.3764
2.41885
2.4604
2.50105
2.54081
2.57967
2.61762
2.65468
2.69084
2.72609
2.76045
2.79391
2.82649
2.85817
2.88897
2.91889
2.94794
2.97613
3.00345
3.02992
3.05555
3.08034
3.1043
3.12744
3.14977
3.1713
3.19204
3.212
3.23118
3.2496
3.26727
3.2842
3.3004
3.31587
3.33063
3.34469
3.35806
3.37075
3.38277
3.39412
3.40481
3.41487
3.42428
3.43307
3.44123
3.44879
3.45573
3.46208
3.46783
3.473
3.47758
3.48159
3.48502
3.48787
3.49011
3.49207
3.49548
3.48021
3.50836
212.132
-79.1869
12.5699
1.51566
-0.0457646
0.294343
0.437114
0.503956
0.567422
0.632732
0.698229
0.763412
0.828221
0.892638
0.956636
1.02019
1.08326
1.14584
1.20788
1.26937
1.33028
1.39059
1.45027
1.50931
1.56767
1.62534
1.6823
1.73853
1.79401
1.84873
1.90266
1.9558
2.00812
2.05962
2.11027
2.16007
2.20901
2.25708
2.30427
2.35056
2.39595
2.44044
2.48402
2.52668
2.56843
2.60925
2.64915
2.68812
2.72617
2.76329
2.79949
2.83476
2.86912
2.90256
2.93509
2.96671
2.99743
3.02726
3.05619
3.08424
3.11142
3.13772
3.16317
3.18777
3.21153
3.23445
3.25655
3.27784
3.29833
3.31802
3.33693
3.35507
3.37244
3.38907
3.40495
3.42011
3.43454
3.44826
3.46128
3.47362
3.48527
3.49625
3.50657
3.51623
3.52525
3.53363
3.54139
3.54852
3.55503
3.56094
3.56624
3.57095
3.57506
3.57859
3.58151
3.58382
3.58584
3.58904
3.5745
3.60214
212.133
-79.1843
12.5742
1.52173
-0.0379596
0.303875
0.448368
0.516927
0.582104
0.649117
0.716309
0.78318
0.849666
0.91575
0.981405
1.0466
1.11131
1.1755
1.23915
1.30223
1.36472
1.42658
1.48781
1.54837
1.60824
1.6674
1.72583
1.78351
1.84043
1.89655
1.95188
2.00639
2.06006
2.11288
2.16484
2.21593
2.26613
2.31543
2.36383
2.41131
2.45788
2.50351
2.54821
2.59197
2.63478
2.67665
2.71757
2.75755
2.79657
2.83464
2.87177
2.90795
2.94318
2.97748
3.01084
3.04327
3.07477
3.10536
3.13503
3.16379
3.19166
3.21864
3.24474
3.26996
3.29432
3.31783
3.34049
3.36232
3.38333
3.40352
3.42291
3.44151
3.45933
3.47637
3.49266
3.5082
3.523
3.53707
3.55042
3.56306
3.57501
3.58627
3.59685
3.60676
3.61601
3.6246
3.63255
3.63986
3.64655
3.6526
3.65804
3.66287
3.66709
3.6707
3.67371
3.67608
3.67815
3.68118
3.66729
3.69447
212.134
-79.1817
12.5785
1.52771
-0.0302749
0.31326
0.459449
0.529698
0.596559
0.66525
0.734111
0.802642
0.87078
0.938506
1.00579
1.07261
1.13892
1.20471
1.26994
1.33458
1.39862
1.46202
1.52476
1.58682
1.64818
1.7088
1.76868
1.8278
1.88612
1.94364
2.00033
2.05619
2.11119
2.16532
2.21856
2.27091
2.32235
2.37287
2.42247
2.47112
2.51883
2.56559
2.61139
2.65623
2.7001
2.743
2.78493
2.82588
2.86586
2.90487
2.94291
2.97998
3.01608
3.05121
3.08539
3.11862
3.15089
3.18222
3.21262
3.24209
3.27064
3.29828
3.32501
3.35085
3.37581
3.39989
3.4231
3.44546
3.46698
3.48766
3.50753
3.52658
3.54483
3.56229
3.57897
3.59489
3.61004
3.62446
3.63813
3.65108
3.66332
3.67485
3.68569
3.69584
3.70531
3.71412
3.72226
3.72975
3.7366
3.7428
3.74837
3.75332
3.75764
3.76135
3.76443
3.76687
3.76898
3.77186
3.75856
3.78535
212.134
-79.1792
12.5827
1.5336
-0.0227123
0.322496
0.470353
0.542266
0.610784
0.681126
0.75163
0.821795
0.891558
0.960898
1.02979
1.0982
1.16609
1.23345
1.30023
1.36642
1.43198
1.49689
1.56113
1.62466
1.68748
1.74955
1.81085
1.87137
1.93108
1.98997
2.04801
2.10519
2.1615
2.21691
2.27142
2.32501
2.37767
2.42939
2.48016
2.52997
2.57881
2.62667
2.67355
2.71945
2.76436
2.80827
2.85119
2.89311
2.93404
2.97396
3.0129
3.05084