/*--------------------------------*- C++ -*----------------------------------*\
  =========                 |
  \\      /  F ield         | OpenFOAM: The Open Source CFD Toolbox
   \\    /   O peration     | Website:  https://openfoam.org
    \\  /    A nd           | Version:  10
     \\/     M anipulation  |
\*---------------------------------------------------------------------------*/
FoamFile
{
    format      ascii;
    class       volScalarField;
    location    "0.4";
    object      T;
}
// * * * * * * * * * * * * * * * * * * * * * * * * * * * * * * * * * * * * * //

dimensions      [0 0 0 1 0 0 0];

internalField   nonuniform List<scalar> 
100
(
1
1
1
1
1
1
1
1
1
1
1
1
1
1
1
1
1
1
1
1
1
1
1
1
1
1
1
1
0.999998
0.999992
0.999966
0.999861
0.999444
0.997796
0.991354
0.969315
0.921048
0.83991
0.725174
0.584218
0.431613
0.285358
0.161815
0.0715652
0.0185956
0.0025663
0.000353747
4.87345e-05
6.71249e-06
9.24491e-07
1.27327e-07
1.75365e-08
2.41525e-09
3.32643e-10
4.58107e-11
6.3092e-12
8.68743e-13
1.19678e-13
1.63687e-14
2.09295e-15
4.12542e-17
-3.04569e-16
-3.29869e-16
-2.2959e-16
-1.17032e-16
-3.87293e-17
4.8085e-19
1.25409e-17
1.13059e-17
6.35769e-18
2.24999e-18
9.63709e-20
-5.60492e-19
-4.93978e-19
-2.4991e-19
-6.73607e-20
1.31149e-20
2.77162e-20
1.77765e-20
6.36349e-21
3.06001e-22
-1.31968e-21
-1.01412e-21
-4.03278e-22
-4.55971e-23
6.00948e-23
5.04121e-23
2.01613e-23
2.28601e-24
-2.79683e-24
-2.24465e-24
-8.27263e-25
-5.64151e-26
1.29975e-25
8.88815e-26
2.75207e-26
-7.96698e-28
-5.60245e-27
-3.05782e-27
-4.12729e-28
)
;

boundaryField
{
    top
    {
        type            zeroGradient;
    }
    bottom
    {
        type            zeroGradient;
    }
    in
    {
        type            fixedValue;
        value           uniform 1;
    }
    out
    {
        type            zeroGradient;
    }
    frontAndBack
    {
        type            empty;
    }
}


// ************************************************************************* //
