/*--------------------------------*- C++ -*----------------------------------*\
| =========                 |                                                 |
| \\      /  F ield         | OpenFOAM: The Open Source CFD Toolbox           |
|  \\    /   O peration     | Version:  2406                                  |
|   \\  /    A nd           | Website:  www.openfoam.com                      |
|    \\/     M anipulation  |                                                 |
\*---------------------------------------------------------------------------*/
FoamFile
{
    version     2.0;
    format      ascii;
    arch        "LSB;label=32;scalar=64";
    class       volScalarField;
    location    "17.75";
    object      p;
}
// * * * * * * * * * * * * * * * * * * * * * * * * * * * * * * * * * * * * * //

dimensions      [0 2 -2 0 0 0 0];

internalField   nonuniform List<scalar> 
34560
(
36.822778
36.809966
36.793725
36.775306
36.755107
36.735035
36.716669
36.70055
36.688655
36.89962
36.884138
36.863998
36.840308
36.813475
36.785871
36.759652
36.73701
36.719958
36.970685
36.952868
36.929577
36.902016
36.870464
36.837271
36.804904
36.776461
36.754473
37.040521
37.020504
36.994158
36.962789
36.926669
36.888199
36.850221
36.816179
36.788896
37.107815
37.085721
37.056472
37.021454
36.980917
36.937344
36.893829
36.854206
36.821537
37.169742
37.145992
37.114324
37.07614
37.031624
36.983323
36.934542
36.88953
36.851627
37.226441
37.201105
37.167137
37.125952
37.077687
37.024949
36.971177
36.921121
36.878354
37.276846
37.250009
37.213885
37.169896
37.118118
37.061234
37.002913
36.94821
36.901137
37.320014
37.291732
37.253579
37.207015
37.152053
37.091447
37.029063
36.9703
36.919617
37.354492
37.324896
37.28496
37.236221
37.178663
37.115012
37.049211
36.98707
36.93352
37.378954
37.34823
37.306881
37.256543
37.197167
37.131401
37.063066
36.998278
36.942701
37.391978
37.36058
37.318417
37.267189
37.206822
37.139907
37.070082
37.003813
36.947201
37.391978
37.36058
37.318417
37.267189
37.206822
37.139907
37.070082
37.003813
36.947201
37.378954
37.34823
37.306882
37.256543
37.197167
37.131401
37.063066
36.998278
36.942701
37.354492
37.324896
37.284961
37.236221
37.178663
37.115012
37.049211
36.98707
36.933521
37.320013
37.291732
37.253578
37.207014
37.152052
37.091446
37.029062
36.970299
36.919617
37.276844
37.250007
37.213883
37.169894
37.118117
37.061232
37.002911
36.948208
36.901137
37.22644
37.201103
37.167135
37.12595
37.077685
37.024947
36.971175
36.921119
36.878353
37.169741
37.145991
37.114323
37.076137
37.031622
36.983321
36.934539
36.889527
36.851624
37.107814
37.08572
37.056471
37.021453
36.980916
36.937342
36.893826
36.854203
36.821534
37.040522
37.020505
36.994158
36.962788
36.926668
36.888198
36.850219
36.816176
36.788893
36.970686
36.952868
36.929578
36.902016
36.870463
36.83727
36.804903
36.776459
36.75447
36.899622
36.884139
36.863999
36.840309
36.813476
36.785871
36.759652
36.73701
36.719954
36.822779
36.809968
36.793727
36.775307
36.755108
36.735036
36.71667
36.70055
36.688653
34.03142
34.03191
34.032637
34.034023
34.03607
34.037862
34.038216
34.036827
34.035662
34.030538
34.031346
34.032547
34.034593
34.037383
34.039723
34.040289
34.03918
34.03817
34.028589
34.029754
34.031488
34.034364
34.038216
34.041526
34.042683
34.04184
34.04073
34.027623
34.029165
34.03142
34.035065
34.039888
34.044091
34.045819
34.045211
34.043924
34.027623
34.029535
34.03232
34.036754
34.042564
34.047633
34.049847
34.049347
34.047744
34.028242
34.030573
34.033961
34.039276
34.046149
34.052085
34.054703
34.054174
34.052135
34.030186
34.032895
34.036848
34.043005
34.050862
34.057523
34.060374
34.059639
34.057025
34.032938
34.036063
34.040762
34.047945
34.056732
34.063888
34.066702
34.06562
34.062315
34.036028
34.039305
34.044609
34.053193
34.063422
34.070901
34.07346
34.071919
34.067948
34.040418
34.043598
34.049067
34.05837
34.069821
34.077877
34.080275
34.078299
34.073759
34.045109
34.048088
34.053645
34.063575
34.075916
34.084229
34.086517
34.084112
34.07846
34.048407
34.051178
34.056718
34.067005
34.079953
34.088725
34.090488
34.087376
34.081494
34.048407
34.051178
34.056718
34.067005
34.079953
34.088725
34.090488
34.087376
34.081494
34.045108
34.048087
34.053645
34.063575
34.075916
34.084229
34.086516
34.084112
34.078459
34.040417
34.043598
34.049067
34.058369
34.06982
34.077875
34.080273
34.078298
34.073758
34.036027
34.039303
34.044608
34.053192
34.06342
34.070898
34.073458
34.071917
34.067947
34.032936
34.036061
34.04076
34.047942
34.05673
34.063885
34.066699
34.065617
34.062312
34.030183
34.032893
34.036846
34.043003
34.050859
34.05752
34.06037
34.059635
34.057022
34.028239
34.030571
34.033958
34.039274
34.046147
34.052082
34.054699
34.05417
34.05213
34.027622
34.029533
34.032318
34.036753
34.042562
34.04763
34.049843
34.049343
34.047739
34.027622
34.029163
34.031419
34.035063
34.039886
34.044088
34.045816
34.045206
34.043918
34.028588
34.029753
34.031487
34.034363
34.038215
34.041525
34.042681
34.041837
34.040725
34.030538
34.031346
34.032547
34.034593
34.037383
34.039723
34.040288
34.039177
34.038165
34.031421
34.03191
34.032637
34.034023
34.03607
34.037862
34.038215
34.036825
34.035658
33.134119
33.134014
33.133783
33.13333
33.13284
33.132717
33.133336
33.134501
33.13539
33.133722
33.133729
33.133598
33.133176
33.132691
33.132594
33.133249
33.134503
33.135709
33.131939
33.132053
33.132035
33.131719
33.131383
33.131517
33.132462
33.134019
33.135627
33.129792
33.130011
33.130086
33.12984
33.129623
33.12999
33.131281
33.133235
33.135308
33.127308
33.127624
33.127787
33.127614
33.127524
33.128136
33.129792
33.132165
33.134699
33.124506
33.124922
33.125172
33.125075
33.125122
33.125989
33.128018
33.130805
33.133792
33.121684
33.122157
33.122446
33.12239
33.122557
33.123648
33.12601
33.129194
33.132626
33.119419
33.119803
33.119857
33.119597
33.119854
33.121181
33.123821
33.127373
33.131268
33.118314
33.118719
33.118536
33.117573
33.11726
33.118736
33.121553
33.125408
33.129751
33.117031
33.117554
33.117455
33.116389
33.115528
33.116597
33.119335
33.12339
33.128169
33.115644
33.116292
33.116259
33.115102
33.113938
33.114739
33.1173
33.121607
33.127414
33.114798
33.115512
33.115505
33.114258
33.112815
33.11318
33.116093
33.120952
33.126924
33.114798
33.115512
33.115505
33.114258
33.112815
33.11318
33.116093
33.120951
33.126924
33.115644
33.116291
33.116259
33.115101
33.113938
33.114738
33.1173
33.121607
33.127413
33.117031
33.117554
33.117455
33.116388
33.115527
33.116596
33.119334
33.123389
33.128168
33.118314
33.118718
33.118535
33.117572
33.117258
33.118735
33.121551
33.125406
33.129749
33.119418
33.119801
33.119855
33.119595
33.119852
33.121179
33.123819
33.127371
33.131266
33.121682
33.122155
33.122444
33.122388
33.122555
33.123646
33.126007
33.129191
33.132624
33.124504
33.12492
33.125171
33.125074
33.12512
33.125987
33.128015
33.130802
33.133789
33.127307
33.127623
33.127786
33.127612
33.127522
33.128134
33.129789
33.132162
33.134696
33.129792
33.13001
33.130085
33.129839
33.129622
33.129988
33.131278
33.133232
33.135304
33.131938
33.132053
33.132035
33.131718
33.131382
33.131515
33.13246
33.134016
33.135622
33.133722
33.133729
33.133598
33.133176
33.13269
33.132593
33.133247
33.1345
33.135704
33.134119
33.134014
33.133783
33.13333
33.13284
33.132717
33.133334
33.134498
33.135386
31.312648
31.312586
31.312549
31.31261
31.312692
31.312558
31.311943
31.310809
31.30967
31.314112
31.314046
31.314022
31.314117
31.314227
31.314048
31.313261
31.311849
31.310292
31.315323
31.315264
31.315268
31.315427
31.315617
31.315464
31.314583
31.312966
31.311098
31.316584
31.316541
31.316575
31.316787
31.317035
31.316894
31.315931
31.314139
31.312008
31.317788
31.317766
31.317838
31.31811
31.318422
31.318301
31.317269
31.315315
31.312944
31.318795
31.318811
31.31894
31.319291
31.319688
31.319608
31.31853
31.316436
31.313849
31.319669
31.31972
31.319901
31.320328
31.32081
31.320779
31.319671
31.317454
31.314677
31.320345
31.320428
31.320659
31.321161
31.321737
31.321773
31.320651
31.318333
31.315391
31.320822
31.320931
31.321204
31.321772
31.322438
31.322559
31.321441
31.319038
31.315956
31.32102
31.321162
31.321478
31.322113
31.32289
31.32312
31.322022
31.319536
31.316325
31.321
31.321177
31.321531
31.322207
31.323055
31.32341
31.322362
31.319795
31.316495
31.320955
31.321151
31.321522
31.322215
31.323085
31.323473
31.322467
31.319894
31.316544
31.320955
31.321151
31.321522
31.322215
31.323085
31.323473
31.322467
31.319894
31.316544
31.320999
31.321177
31.32153
31.322207
31.323055
31.323409
31.322362
31.319794
31.316495
31.321019
31.321161
31.321478
31.322112
31.32289
31.323119
31.322021
31.319535
31.316324
31.320821
31.32093
31.321202
31.32177
31.322436
31.322558
31.321439
31.319037
31.315955
31.320344
31.320426
31.320658
31.32116
31.321735
31.321771
31.320649
31.318331
31.315389
31.319667
31.319718
31.319899
31.320326
31.320808
31.320777
31.319668
31.317452
31.314674
31.318793
31.31881
31.318938
31.319289
31.319686
31.319605
31.318528
31.316433
31.313846
31.317786
31.317764
31.317836
31.318108
31.31842
31.318299
31.317266
31.315312
31.312941
31.316582
31.316539
31.316573
31.316785
31.317032
31.316891
31.315928
31.314136
31.312005
31.315321
31.315262
31.315265
31.315425
31.315614
31.315461
31.31458
31.312963
31.311094
31.314109
31.314044
31.314019
31.314114
31.314224
31.314045
31.313258
31.311845
31.310288
31.312645
31.312583
31.312546
31.312607
31.312689
31.312554
31.311939
31.310804
31.309665
29.934085
29.934071
29.934027
29.933921
29.933791
29.93376
29.933985
29.934475
29.934957
29.933973
29.933973
29.933941
29.933834
29.933697
29.933687
29.933962
29.934535
29.935165
29.933596
29.933609
29.93359
29.933491
29.933375
29.933417
29.933786
29.934475
29.935245
29.933143
29.933167
29.933157
29.933061
29.932962
29.933057
29.93353
29.934351
29.935272
29.932639
29.932671
29.932668
29.932575
29.932497
29.932651
29.93323
29.934183
29.935245
29.932102
29.932141
29.932144
29.932059
29.932005
29.93222
29.932905
29.933984
29.935173
29.931586
29.93163
29.931637
29.931559
29.931527
29.9318
29.93258
29.93377
29.935067
29.931109
29.931156
29.931166
29.931095
29.931084
29.93141
29.932273
29.933557
29.934943
29.930696
29.930746
29.930758
29.930692
29.930699
29.931071
29.932002
29.933362
29.934819
29.930357
29.930409
29.930425
29.930367
29.930388
29.930799
29.931784
29.933201
29.93471
29.930108
29.930164
29.930183
29.930131
29.930167
29.930609
29.931632
29.933085
29.934628
29.929975
29.930034
29.930055
29.930006
29.93005
29.930506
29.931549
29.933023
29.934583
29.929975
29.930034
29.930055
29.930006
29.93005
29.930506
29.931549
29.933023
29.934583
29.930107
29.930163
29.930183
29.930131
29.930166
29.930608
29.931632
29.933085
29.934628
29.930356
29.930409
29.930424
29.930366
29.930388
29.930799
29.931783
29.9332
29.934709
29.930695
29.930745
29.930757
29.930691
29.930698
29.93107
29.932001
29.933361
29.934818
29.931108
29.931155
29.931165
29.931093
29.931083
29.931409
29.932271
29.933555
29.934941
29.931584
29.931628
29.931635
29.931557
29.931525
29.931798
29.932578
29.933768
29.935065
29.9321
29.932139
29.932142
29.932057
29.932003
29.932218
29.932903
29.933982
29.93517
29.932637
29.932669
29.932665
29.932573
29.932495
29.932648
29.933227
29.934181
29.935242
29.933141
29.933165
29.933154
29.933058
29.93296
29.933055
29.933527
29.934348
29.935269
29.933593
29.933606
29.933587
29.933488
29.933372
29.933414
29.933783
29.934472
29.935242
29.93397
29.93397
29.933938
29.933831
29.933694
29.933684
29.933959
29.934532
29.935161
29.934082
29.934067
29.934024
29.933918
29.933787
29.933756
29.933982
29.934472
29.934954
28.324144
28.324129
28.324121
28.32414
28.324166
28.324128
28.323947
28.323606
28.32325
28.324386
28.324369
28.324364
28.324393
28.324427
28.32438
28.324156
28.323746
28.323287
28.324615
28.324597
28.324596
28.324638
28.324686
28.324637
28.324379
28.323909
28.323364
28.324878
28.324861
28.324864
28.324915
28.324971
28.324914
28.324623
28.324099
28.323481
28.325145
28.32513
28.325139
28.325199
28.325263
28.3252
28.32488
28.324307
28.323627
28.325383
28.325374
28.325391
28.325463
28.325538
28.325473
28.325131
28.324519
28.323786
28.325602
28.325597
28.325621
28.325704
28.325789
28.325724
28.325367
28.324723
28.323947
28.325788
28.325787
28.325819
28.325911
28.326005
28.325944
28.325576
28.324909
28.324098
28.325939
28.325943
28.32598
28.32608
28.326183
28.326125
28.325753
28.325068
28.324231
28.326051
28.326058
28.3261
28.326207
28.326317
28.326264
28.325889
28.325193
28.324338
28.326122
28.326132
28.326178
28.326291
28.326407
28.326358
28.325982
28.325279
28.324413
28.32616
28.32617
28.326218
28.326333
28.326452
28.326405
28.326029
28.325323
28.324451
28.32616
28.32617
28.326218
28.326333
28.326452
28.326405
28.326029
28.325323
28.324451
28.326121
28.326131
28.326178
28.32629
28.326406
28.326357
28.325981
28.325278
28.324412
28.32605
28.326057
28.326099
28.326207
28.326317
28.326264
28.325888
28.325192
28.324338
28.325938
28.325942
28.325979
28.326079
28.326182
28.326124
28.325751
28.325067
28.324231
28.325787
28.325786
28.325817
28.32591
28.326004
28.325942
28.325575
28.324907
28.324097
28.3256
28.325595
28.325619
28.325702
28.325786
28.325722
28.325365
28.324721
28.323945
28.325381
28.325372
28.325389
28.325461
28.325535
28.325471
28.325129
28.324517
28.323784
28.325142
28.325128
28.325136
28.325196
28.32526
28.325197
28.324877
28.324305
28.323625
28.324874
28.324858
28.324861
28.324911
28.324967
28.32491
28.32462
28.324096
28.323478
28.324611
28.324593
28.324592
28.324634
28.324682
28.324633
28.324376
28.323905
28.323361
28.324381
28.324364
28.32436
28.324388
28.324422
28.324375
28.324151
28.323741
28.323283
28.324139
28.324124
28.324116
28.324135
28.32416
28.324123
28.323942
28.323601
28.323245
26.829066
26.829069
26.829064
26.829039
26.829001
26.828982
26.829025
26.829141
26.829275
26.829011
26.829018
26.829015
26.828989
26.82895
26.828937
26.828999
26.829145
26.829326
26.828893
26.828903
26.828902
26.828877
26.828841
26.828841
26.828929
26.829112
26.829333
26.828758
26.82877
26.828771
26.828745
26.828711
26.828723
26.828838
26.829059
26.829322
26.828614
26.828628
26.828629
26.828603
26.828571
26.828596
26.828738
26.828994
26.829297
26.828468
26.828483
26.828485
26.828458
26.828429
26.828466
26.828634
26.828924
26.829261
26.828332
26.828347
26.828349
26.828322
26.828296
26.828344
26.828534
26.828852
26.829218
26.82821
26.828226
26.828227
26.8282
26.828177
26.828235
26.828442
26.828783
26.829173
26.828107
26.828123
26.828125
26.828098
26.828076
26.828142
26.828363
26.828722
26.829131
26.828027
26.828044
26.828045
26.828017
26.827998
26.828069
26.828302
26.828674
26.829095
26.827973
26.827989
26.82799
26.827963
26.827945
26.82802
26.828259
26.82864
26.829069
26.827945
26.827961
26.827963
26.827935
26.827917
26.827994
26.828237
26.828623
26.829056
26.827945
26.827961
26.827963
26.827935
26.827917
26.827994
26.828237
26.828623
26.829056
26.827973
26.827989
26.82799
26.827962
26.827944
26.828019
26.828259
26.82864
26.829069
26.828027
26.828043
26.828045
26.828017
26.827997
26.828069
26.828301
26.828673
26.829095
26.828107
26.828123
26.828124
26.828097
26.828075
26.828141
26.828363
26.828722
26.829131
26.828209
26.828225
26.828226
26.828199
26.828175
26.828233
26.828441
26.828782
26.829173
26.82833
26.828346
26.828347
26.82832
26.828294
26.828342
26.828532
26.828851
26.829218
26.828466
26.82848
26.828482
26.828456
26.828426
26.828464
26.828632
26.828922
26.82926
26.828611
26.828625
26.828626
26.8286
26.828567
26.828592
26.828735
26.828992
26.829296
26.828755
26.828766
26.828767
26.828741
26.828706
26.828718
26.828834
26.829056
26.82932
26.828888
26.828898
26.828897
26.828871
26.828835
26.828835
26.828924
26.829108
26.82933
26.829005
26.829011
26.829008
26.828982
26.828943
26.828931
26.828993
26.82914
26.829322
26.829059
26.829062
26.829057
26.829032
26.828994
26.828975
26.829018
26.829135
26.829269
25.2805
25.280496
25.280493
25.280498
25.280506
25.280503
25.280469
25.280398
25.280317
25.280538
25.280533
25.280532
25.280539
25.280551
25.280547
25.280504
25.280418
25.280316
25.280577
25.280571
25.280571
25.280582
25.280597
25.280594
25.280544
25.280443
25.280321
25.280626
25.28062
25.280621
25.280634
25.280652
25.280647
25.28059
25.280476
25.280336
25.280678
25.280673
25.280675
25.280691
25.280711
25.280704
25.28064
25.280515
25.28036
25.280727
25.280723
25.280726
25.280745
25.280767
25.28076
25.280691
25.280556
25.280388
25.280772
25.280769
25.280774
25.280795
25.280819
25.280812
25.280739
25.280596
25.280417
25.280811
25.280809
25.280816
25.280839
25.280864
25.280858
25.280782
25.280633
25.280446
25.280844
25.280842
25.28085
25.280875
25.280902
25.280896
25.280818
25.280665
25.280472
25.280868
25.280867
25.280876
25.280902
25.280931
25.280925
25.280846
25.28069
25.280493
25.280884
25.280884
25.280894
25.28092
25.28095
25.280944
25.280865
25.280707
25.280507
25.280893
25.280893
25.280903
25.28093
25.280959
25.280954
25.280875
25.280716
25.280515
25.280893
25.280893
25.280903
25.28093
25.280959
25.280954
25.280874
25.280716
25.280515
25.280884
25.280884
25.280893
25.28092
25.280949
25.280944
25.280865
25.280707
25.280508
25.280868
25.280867
25.280876
25.280902
25.28093
25.280924
25.280845
25.28069
25.280493
25.280843
25.280842
25.28085
25.280874
25.280901
25.280895
25.280817
25.280665
25.280472
25.280811
25.280808
25.280815
25.280837
25.280863
25.280856
25.280781
25.280633
25.280446
25.280771
25.280768
25.280772
25.280793
25.280817
25.28081
25.280737
25.280595
25.280417
25.280725
25.28072
25.280724
25.280742
25.280764
25.280757
25.280689
25.280555
25.280387
25.280675
25.28067
25.280671
25.280687
25.280706
25.2807
25.280637
25.280513
25.280359
25.280621
25.280616
25.280616
25.280629
25.280647
25.280642
25.280585
25.280473
25.280335
25.28057
25.280565
25.280564
25.280575
25.28059
25.280587
25.280538
25.280439
25.280319
25.280531
25.280525
25.280524
25.280531
25.280543
25.280539
25.280497
25.280412
25.280312
25.280492
25.280487
25.280484
25.280489
25.280497
25.280495
25.280461
25.28039
25.280311
23.754143
23.754144
23.754144
23.754139
23.754131
23.754125
23.754129
23.754147
23.754172
23.754124
23.754126
23.754126
23.754122
23.754114
23.754109
23.754118
23.754143
23.754177
23.75409
23.754093
23.754094
23.75409
23.754083
23.754081
23.754096
23.754129
23.754173
23.754053
23.754057
23.754058
23.754054
23.754047
23.754049
23.754069
23.754112
23.754165
23.754015
23.754019
23.75402
23.754016
23.75401
23.754014
23.754041
23.754092
23.754154
23.753977
23.753981
23.753983
23.753979
23.753973
23.75398
23.754013
23.754071
23.754141
23.753941
23.753946
23.753947
23.753943
23.753939
23.753948
23.753986
23.754051
23.754127
23.75391
23.753914
23.753916
23.753912
23.753908
23.753919
23.753961
23.754031
23.754114
23.753883
23.753888
23.75389
23.753885
23.753882
23.753895
23.75394
23.754015
23.754101
23.753863
23.753867
23.753869
23.753865
23.753861
23.753876
23.753923
23.754001
23.754091
23.753849
23.753853
23.753855
23.753851
23.753847
23.753863
23.753912
23.753992
23.754083
23.753842
23.753846
23.753848
23.753843
23.75384
23.753856
23.753906
23.753987
23.75408
23.753842
23.753846
23.753848
23.753843
23.75384
23.753856
23.753906
23.753987
23.75408
23.753849
23.753853
23.753855
23.75385
23.753847
23.753862
23.753912
23.753992
23.754084
23.753863
23.753867
23.753869
23.753864
23.753861
23.753875
23.753923
23.754001
23.754091
23.753883
23.753888
23.753889
23.753885
23.753881
23.753894
23.753939
23.754015
23.754102
23.753909
23.753914
23.753915
23.753911
23.753906
23.753918
23.75396
23.754031
23.754115
23.75394
23.753945
23.753946
23.753941
23.753937
23.753946
23.753984
23.75405
23.754128
23.753975
23.753979
23.75398
23.753976
23.75397
23.753977
23.754011
23.75407
23.754142
23.754012
23.754016
23.754017
23.754012
23.754006
23.754011
23.754038
23.75409
23.754154
23.754049
23.754052
23.754053
23.754049
23.754042
23.754043
23.754065
23.754109
23.754164
23.754084
23.754087
23.754087
23.754083
23.754076
23.754075
23.75409
23.754125
23.75417
23.754116
23.754118
23.754118
23.754114
23.754106
23.754102
23.754111
23.754137
23.754173
23.754135
23.754136
23.754136
23.754131
23.754123
23.754116
23.754121
23.754139
23.754166
22.219823
22.219821
22.21982
22.219821
22.219823
22.219823
22.219819
22.219808
22.219795
22.219833
22.219831
22.219831
22.219832
22.219834
22.219835
22.219829
22.219816
22.219799
22.219842
22.219841
22.21984
22.219842
22.219846
22.219847
22.219839
22.219823
22.219803
22.219855
22.219854
22.219854
22.219856
22.21986
22.21986
22.219852
22.219833
22.219809
22.219871
22.21987
22.219869
22.219872
22.219877
22.219878
22.219869
22.219848
22.21982
22.219887
22.219886
22.219886
22.21989
22.219896
22.219898
22.219889
22.219865
22.219834
22.219904
22.219902
22.219903
22.219908
22.219915
22.219917
22.219908
22.219883
22.21985
22.219918
22.219917
22.219919
22.219924
22.219932
22.219935
22.219925
22.219899
22.219864
22.219931
22.21993
22.219932
22.219938
22.219946
22.21995
22.21994
22.219913
22.219877
22.219941
22.21994
22.219942
22.219948
22.219957
22.219962
22.219952
22.219925
22.219888
22.219948
22.219947
22.219949
22.219956
22.219965
22.21997
22.21996
22.219933
22.219895
22.219951
22.219951
22.219953
22.21996
22.219969
22.219974
22.219965
22.219937
22.219899
22.219952
22.219951
22.219953
22.21996
22.219969
22.219974
22.219965
22.219937
22.219899
22.219948
22.219947
22.219949
22.219956
22.219965
22.21997
22.21996
22.219933
22.219896
22.219941
22.21994
22.219942
22.219948
22.219957
22.219961
22.219952
22.219925
22.219888
22.219931
22.21993
22.219931
22.219937
22.219945
22.219949
22.219939
22.219914
22.219878
22.219918
22.219917
22.219918
22.219923
22.21993
22.219934
22.219924
22.219899
22.219866
22.219903
22.219901
22.219902
22.219906
22.219913
22.219916
22.219906
22.219883
22.219851
22.219886
22.219884
22.219884
22.219888
22.219893
22.219895
22.219887
22.219865
22.219835
22.219868
22.219867
22.219866
22.219869
22.219873
22.219874
22.219866
22.219846
22.21982
22.219851
22.21985
22.219849
22.219851
22.219855
22.219855
22.219848
22.219831
22.219808
22.219837
22.219835
22.219834
22.219836
22.219839
22.21984
22.219834
22.219819
22.2198
22.219825
22.219824
22.219823
22.219824
22.219826
22.219827
22.219822
22.21981
22.219794
22.219814
22.219813
22.219812
22.219813
22.219814
22.219815
22.219811
22.219801
22.219789
20.687515
20.687515
20.687516
20.687515
20.687513
20.687511
20.687509
20.687509
20.687511
20.68752
20.687521
20.687521
20.68752
20.687518
20.687516
20.687515
20.687515
20.687519
20.687521
20.687522
20.687522
20.687521
20.68752
20.687518
20.687518
20.68752
20.687524
20.687519
20.68752
20.68752
20.68752
20.68752
20.687519
20.68752
20.687523
20.687528
20.687514
20.687515
20.687516
20.687515
20.687515
20.687515
20.687517
20.687521
20.687527
20.687507
20.687508
20.687508
20.687508
20.687507
20.687506
20.687508
20.687514
20.687522
20.687499
20.6875
20.687501
20.6875
20.687499
20.687498
20.6875
20.687506
20.687515
20.687491
20.687492
20.687493
20.687493
20.687491
20.68749
20.687493
20.6875
20.687509
20.687485
20.687486
20.687487
20.687486
20.687485
20.687484
20.687487
20.687494
20.687504
20.68748
20.687481
20.687482
20.687481
20.687479
20.687479
20.687482
20.68749
20.6875
20.687476
20.687478
20.687478
20.687478
20.687476
20.687475
20.687479
20.687487
20.687498
20.687475
20.687476
20.687477
20.687476
20.687474
20.687474
20.687477
20.687485
20.687497
20.687475
20.687476
20.687477
20.687476
20.687474
20.687474
20.687477
20.687485
20.687497
20.687477
20.687478
20.687478
20.687478
20.687476
20.687475
20.687479
20.687487
20.687498
20.68748
20.687481
20.687482
20.687481
20.687479
20.687479
20.687482
20.68749
20.687501
20.687485
20.687486
20.687487
20.687486
20.687484
20.687483
20.687487
20.687495
20.687505
20.687491
20.687492
20.687493
20.687492
20.68749
20.687489
20.687492
20.6875
20.68751
20.687498
20.687499
20.687499
20.687499
20.687497
20.687496
20.687499
20.687506
20.687516
20.687505
20.687506
20.687506
20.687506
20.687504
20.687504
20.687506
20.687513
20.687522
20.687511
20.687512
20.687512
20.687512
20.687511
20.687512
20.687514
20.68752
20.687527
20.687515
20.687516
20.687516
20.687515
20.687515
20.687515
20.687516
20.687521
20.687527
20.687515
20.687516
20.687516
20.687515
20.687514
20.687512
20.687513
20.687516
20.687522
20.687513
20.687514
20.687513
20.687513
20.687511
20.687509
20.687508
20.68751
20.687515
20.687507
20.687507
20.687508
20.687507
20.687505
20.687503
20.687501
20.687502
20.687505
19.155379
19.155379
19.155379
19.155379
19.155379
19.155379
19.15538
19.15538
19.15538
19.155377
19.155377
19.155377
19.155377
19.155378
19.155378
19.155378
19.155379
19.155378
19.155375
19.155375
19.155375
19.155375
19.155376
19.155376
19.155377
19.155377
19.155377
19.155374
19.155374
19.155374
19.155374
19.155374
19.155375
19.155375
19.155376
19.155376
19.155375
19.155375
19.155375
19.155375
19.155375
19.155376
19.155376
19.155377
19.155377
19.155376
19.155376
19.155376
19.155376
19.155377
19.155378
19.155379
19.15538
19.155379
19.155377
19.155377
19.155377
19.155378
19.155379
19.15538
19.155382
19.155382
19.155382
19.155379
19.155379
19.155379
19.15538
19.155381
19.155383
19.155384
19.155385
19.155385
19.15538
19.15538
19.15538
19.155381
19.155382
19.155384
19.155386
19.155387
19.155387
19.155381
19.155381
19.155381
19.155382
19.155384
19.155386
19.155388
19.155389
19.155389
19.155382
19.155382
19.155382
19.155383
19.155385
19.155387
19.155389
19.155391
19.15539
19.155382
19.155382
19.155383
19.155384
19.155385
19.155388
19.15539
19.155391
19.155391
19.155382
19.155382
19.155383
19.155384
19.155385
19.155388
19.15539
19.155391
19.155391
19.155382
19.155382
19.155382
19.155383
19.155385
19.155387
19.155389
19.155391
19.155391
19.155381
19.155381
19.155381
19.155382
19.155383
19.155386
19.155388
19.15539
19.15539
19.15538
19.15538
19.15538
19.155381
19.155382
19.155384
19.155386
19.155388
19.155388
19.155378
19.155378
19.155378
19.155379
19.15538
19.155382
19.155384
19.155385
19.155386
19.155376
19.155376
19.155376
19.155377
19.155377
19.155379
19.155381
19.155382
19.155383
19.155374
19.155374
19.155374
19.155374
19.155375
19.155376
19.155377
19.155379
19.15538
19.155372
19.155372
19.155372
19.155372
19.155372
19.155372
19.155374
19.155375
19.155377
19.15537
19.15537
19.15537
19.15537
19.15537
19.155371
19.155372
19.155373
19.155375
19.15537
19.15537
19.15537
19.15537
19.15537
19.155371
19.155372
19.155373
19.155375
19.155371
19.155371
19.15537
19.15537
19.155371
19.155371
19.155372
19.155374
19.155375
19.155372
19.155372
19.155372
19.155372
19.155372
19.155372
19.155373
19.155373
19.155374
17.622693
17.622693
17.622693
17.622693
17.622693
17.622693
17.622692
17.62269
17.622689
17.622692
17.622692
17.622693
17.622693
17.622693
17.622692
17.622691
17.622689
17.622688
17.622691
17.622691
17.622691
17.622691
17.622692
17.622691
17.62269
17.622688
17.622686
17.622689
17.62269
17.62269
17.62269
17.62269
17.62269
17.622689
17.622687
17.622685
17.622688
17.622688
17.622689
17.622689
17.622689
17.622689
17.622688
17.622686
17.622684
17.622687
17.622687
17.622687
17.622688
17.622688
17.622688
17.622687
17.622685
17.622683
17.622686
17.622686
17.622686
17.622687
17.622687
17.622687
17.622686
17.622684
17.622682
17.622685
17.622685
17.622685
17.622686
17.622686
17.622686
17.622685
17.622683
17.622681
17.622684
17.622684
17.622685
17.622685
17.622685
17.622685
17.622684
17.622683
17.622681
17.622683
17.622684
17.622684
17.622684
17.622685
17.622685
17.622684
17.622682
17.62268
17.622683
17.622683
17.622684
17.622684
17.622684
17.622684
17.622683
17.622682
17.62268
17.622683
17.622683
17.622683
17.622684
17.622684
17.622684
17.622683
17.622681
17.62268
17.622683
17.622683
17.622683
17.622684
17.622684
17.622684
17.622683
17.622681
17.62268
17.622683
17.622683
17.622684
17.622684
17.622684
17.622684
17.622683
17.622682
17.62268
17.622683
17.622684
17.622684
17.622684
17.622684
17.622684
17.622683
17.622682
17.622681
17.622684
17.622684
17.622684
17.622684
17.622685
17.622685
17.622684
17.622682
17.622681
17.622684
17.622684
17.622685
17.622685
17.622685
17.622685
17.622684
17.622683
17.622682
17.622685
17.622685
17.622685
17.622685
17.622686
17.622685
17.622685
17.622684
17.622683
17.622685
17.622685
17.622686
17.622686
17.622686
17.622686
17.622685
17.622684
17.622683
17.622686
17.622686
17.622686
17.622686
17.622686
17.622686
17.622685
17.622685
17.622684
17.622686
17.622686
17.622686
17.622686
17.622686
17.622686
17.622686
17.622685
17.622684
17.622686
17.622686
17.622686
17.622687
17.622687
17.622686
17.622686
17.622685
17.622684
17.622687
17.622687
17.622687
17.622687
17.622687
17.622687
17.622686
17.622685
17.622684
17.622687
17.622687
17.622687
17.622687
17.622687
17.622686
17.622686
17.622684
17.622684
16.090462
16.090462
16.090462
16.090462
16.090461
16.090462
16.090462
16.090463
16.090463
16.090461
16.090461
16.090461
16.090461
16.090461
16.090461
16.090461
16.090462
16.090463
16.09046
16.09046
16.09046
16.09046
16.09046
16.09046
16.090461
16.090461
16.090462
16.090459
16.090459
16.090459
16.090459
16.090459
16.090459
16.09046
16.090461
16.090462
16.090458
16.090458
16.090458
16.090458
16.090458
16.090458
16.090459
16.09046
16.090461
16.090457
16.090457
16.090457
16.090457
16.090457
16.090457
16.090458
16.09046
16.090461
16.090456
16.090456
16.090456
16.090456
16.090456
16.090457
16.090458
16.090459
16.090461
16.090455
16.090455
16.090455
16.090455
16.090455
16.090456
16.090457
16.090459
16.09046
16.090454
16.090455
16.090455
16.090455
16.090455
16.090455
16.090457
16.090458
16.09046
16.090454
16.090454
16.090454
16.090454
16.090454
16.090455
16.090456
16.090458
16.09046
16.090454
16.090454
16.090454
16.090454
16.090454
16.090455
16.090456
16.090458
16.09046
16.090453
16.090454
16.090454
16.090454
16.090454
16.090454
16.090456
16.090458
16.09046
16.090453
16.090453
16.090453
16.090453
16.090454
16.090454
16.090456
16.090458
16.09046
16.090453
16.090453
16.090453
16.090453
16.090454
16.090454
16.090456
16.090458
16.09046
16.090454
16.090454
16.090454
16.090454
16.090454
16.090454
16.090456
16.090458