/*--------------------------------*- C++ -*----------------------------------*\
| =========                 |                                                 |
| \\      /  F ield         | OpenFOAM: The Open Source CFD Toolbox           |
|  \\    /   O peration     | Version:  2406                                  |
|   \\  /    A nd           | Website:  www.openfoam.com                      |
|    \\/     M anipulation  |                                                 |
\*---------------------------------------------------------------------------*/
FoamFile
{
    version     2.0;
    format      ascii;
    arch        "LSB;label=32;scalar=64";
    class       surfaceScalarField;
    location    "17.75";
    object      phi;
}
// * * * * * * * * * * * * * * * * * * * * * * * * * * * * * * * * * * * * * //

dimensions      [0 3 -1 0 0 0 0];

oriented        oriented;

internalField   nonuniform List<scalar> 
101088
(
0.00011568631
-2.1539507e-05
1.6886278e-05
1.8822738e-05
0.00023648297
-9.1918665e-05
7.1551258e-05
8.1289975e-05
0.00033939878
-0.00021836574
0.00016783735
0.00019477014
0.00039721152
-0.00040601765
0.00030567084
0.00036545292
0.00039621734
-0.00062710047
0.00045618402
0.00057131553
0.00035433612
-0.00081957767
0.00056518738
0.00075638119
0.00031424441
-0.00092697722
0.00058951484
0.000863798
0.00030627528
-0.00093282727
0.0005312118
0.00087628206
-0.00085269657
0.00042690877
0.00080438158
0.00033399185
0.00014067704
-2.3779817e-05
2.0858071e-05
0.0002839501
-0.0001001432
8.7573046e-05
0.00039914817
-0.00023480935
0.00020364022
0.00045089353
-0.00043021681
0.00036722015
0.00042429859
-0.00065421597
0.00054223025
0.00034625851
-0.00084325288
0.00066620543
0.00026910662
-0.00094249434
0.00069344556
0.00022847729
-0.00093852156
0.00063015994
-0.00084816178
0.00051613042
0.00022562662
0.00016562714
-2.5294138e-05
2.4893517e-05
0.0003307121
-0.00010519643
0.00010367276
0.00045798291
-0.00024373715
0.00023915811
0.00050651246
-0.00044021846
0.00042725228
0.00046128594
-0.00065784835
0.00062438306
0.00035579242
-0.00083331303
0.00076039695
0.00024973409
-0.0009158806
0.00078838464
0.00018194525
-0.00089761348
0.0007192348
-0.00079760878
0.00059619649
0.00015438285
0.00018985489
-2.602316e-05
2.8879819e-05
0.00037591983
-0.000107025
0.00011940146
0.0005147519
-0.00024527744
0.00027346324
0.0005607843
-0.00043686939
0.00048447706
0.00050030916
-0.00064089029
0.00070156297
0.00037260404
-0.00079443051
0.00084757095
0.00024360158
-0.00085356784
0.00087523961
0.00015434292
-0.00081765561
0.00079986699
-0.00071061173
0.00066790983
0.00010879405
0.00021264955
-2.5829495e-05
3.2674862e-05
0.00041817189
-0.00010546229
0.00013431217
0.00056762913
-0.00023973059
0.0003058648
0.00061159029
-0.00042165315
0.00053831628
0.00053790011
-0.00060655056
0.00077383789
0.00039106489
-0.00073159081
0.00092873439
0.0002419334
-0.00076153199
0.00095558997
0.00013452389
-0.00070621888
0.00087384818
-0.00059544652
0.00073306387
7.4548122e-05
0.00023392429
-2.5005565e-05
3.6273629e-05
0.00045780018
-0.00010146608
0.00014842445
0.00061742253
-0.00022887719
0.00033651686
0.00065937422
-0.00039717648
0.00058928918
0.00057244795
-0.00055807506
0.00084231446
0.00040625947
-0.00064897282
0.001005516
0.00023718505
-0.00064552057
0.0010312473
0.00011321462
-0.00057117751
0.00094298539
-0.00046127509
0.00079340309
4.1633686e-05
0.00025249196
-2.343798e-05
3.9625742e-05
0.00049139015
-9.4734788e-05
0.00016160363
0.00065736622
-0.00021239956
0.00036528035
0.00069323638
-0.00036362011
0.00063746505
0.00058922919
-0.00049711754
0.00090748198
0.00040145167
-0.00055121478
0.0010787777
0.00021350513
-0.00051447163
0.0011032955
7.6696478e-05
-0.00042440793
0.0010084877
-0.00032100553
0.00085047322
-1.5536423e-06
0.00026804429
-2.1035433e-05
4.2702097e-05
0.00051807795
-8.4865922e-05
0.00017384737
0.00068523887
-0.00018939173
0.00039238767
0.00070828013
-0.0003198413
0.0006836364
0.00057997561
-0.00042393349
0.00097082876
0.00036666859
-0.00044323641
0.0011502301
0.00016059359
-0.00037869468
0.0011734817
1.5739e-05
-0.00028061314
0.0010725237
-0.00018984018
0.00090604815
-6.302033e-05
0.0002801835
-1.7598128e-05
4.5479563e-05
0.00053663318
-7.0987753e-05
0.00018512043
0.00069818744
-0.00015786751
0.00041790901
0.00069935419
-0.00026307343
0.0007279785
0.0005376732
-0.00033754209
0.0010325447
0.00029442353
-0.0003300545
0.0012201866
7.3046208e-05
-0.00025113503
0.0012423834
-7.31786e-05
-0.00015662615
0.0011356798
-8.4176583e-05
0.0009609751
-0.00014534215
0.00028876688
-1.2937812e-05
4.7861983e-05
0.00054693468
-5.2158863e-05
0.00019501133
0.00069642809
-0.00011557523
0.00044086032
0.00066755566
-0.00019024464
0.00076889782
0.00046552863
-0.00023685839
0.0010900542
0.00019098554
-0.00021661814
0.0012852954
-4.1428841e-05
-0.00014358973
0.0013074124
-0.00018212661
-6.766666e-05
0.0011963667
-1.7727339e-05
0.0010137876
-0.00024136093
0.00029375286
-6.9175282e-06
4.9697244e-05
0.00054985741
-2.7858003e-05
0.00020270788
0.00068407427
-6.1578539e-05
0.00045893878
0.00062370071
-0.00010055205
0.00080154498
0.00038256222
-0.00012261805
0.0011365803
8.1151851e-05
-0.00010633628
0.0013379511
-0.00015645053
-6.2008177e-05
0.0013610336
-0.00028717469
-1.945318e-05
0.0012476486
5.5250209e-06
0.0010588812
-0.00033096922
0.00029603039
-7.4018615e-11
5.0655166e-05
0.0005500403
-2.8803705e-10
0.00020685293
0.00067396894
-7.1321661e-10
0.0004689669
0.0005932174
-1.4514858e-09
0.00082014728
0.00032721759
-2.1014035e-09
0.0011636289
9.8722997e-06
-2.6961518e-09
0.0013692164
-0.00022944116
-3.1806347e-09
0.0013935968
-0.00035234002
-3.6594579e-09
0.0012788524
-3.9425368e-09
0.0010858855
-0.0003857068
0.0002960305
6.9174067e-06
5.0655156e-05
0.00055004028
2.7857477e-05
0.00020685289
0.00067396884
6.1577177e-05
0.00046896682
0.00059321773
0.00010054935
0.00082014711
0.00032721773
0.00012261426
0.0011636287
9.8722916e-06
0.00010633137
0.0013692161
-0.00022944126
6.2002345e-05
0.0013935965
-0.00035234021
1.944633e-05
0.0012788522
-5.5325511e-06
0.0010858853
-0.00038570684
0.00029375298
1.2937704e-05
4.9697239e-05
0.0005498572
5.2158378e-05
0.00020270786
0.00068407414
0.00011557404
0.00045893871
0.00062370165
0.00019024254
0.00080154476
0.00038256241
0.00023685555
0.0011365801
8.1151711e-05
0.00021661429
0.0013379507
-0.00015645095
0.00014358513
0.0013610331
-0.00028717532
6.7660957e-05
0.0012476482
1.7720671e-05
0.0010588807
-0.00033096937
0.0002887668
1.7598075e-05
4.786197e-05
0.00054693437
7.0987449e-05
0.00019501127
0.00069642804
0.0001578668
0.00044086014
0.00066755656
0.00026307218
0.00076889739
0.00046552831
0.00033753998
0.0010900537
0.00019098506
0.00033005146
0.0012852947
-4.1429746e-05
0.00025113156
0.0013074117
-0.00018212774
0.00015662164
0.0011963661
8.4170927e-05
0.0010137869
-0.00024136128
0.00028018354
2.1035408e-05
4.5479554e-05
0.00053663332
8.4865639e-05
0.00018512039
0.00069818736
0.00018939111
0.00041790888
0.00069935452
0.00031984016
0.0007279782
0.00053767247
0.00042393122
0.0010325443
0.00029442278
0.00044323355
0.001220186
7.3044766e-05
0.00037869154
0.0012423828
-7.3180252e-05
0.0002806092
0.0011356792
0.00018983526
0.0009609744
-0.00014534269
0.0002680443
2.3437896e-05
4.2702097e-05
0.00051807811
9.4734427e-05
0.00017384737
0.00068523856
0.00021239896
0.00039238767
0.00070828026
0.00036361933
0.00068363633
0.00057997531
0.00049711572
0.00097082854
0.00036666781
0.00055121233
0.0011502295
0.00016059184
0.00051446832
0.0011734812
1.5737042e-05
0.00042440414
0.0010725232
0.00032100105
0.00090604753
-6.302117e-05
0.00025249216
2.500554e-05
3.962575e-05
0.00049139054
0.00010146594
0.00016160367
0.00065736591
0.00022887676
0.00036528041
0.00069323595
0.00039717598
0.00063746506
0.00058922893
0.00055807359
0.00090748172
0.00040145052
0.00064897044
0.0010787772
0.00021350342
0.00064551727
0.0011032951
7.6694472e-05
0.00057117437
0.0010084872
0.00046127096
0.00085047269
-1.5551453e-06
0.00023392495
2.5829505e-05
3.6273634e-05
0.0004578015
0.00010546221
0.00014842446
0.00061742307
0.00023972996
0.0003365169
0.00065937345
0.00042165184
0.00058928931
0.0005724478
0.00060654852
0.00084231441
0.00040625848
0.00073158817
0.0010055159
0.00023718388
0.00076152961
0.0010312471
0.00011321258
0.00070621669
0.00094298502
0.00059544268
0.00079340267
4.1631603e-05
0.00021264988
2.6023046e-05
3.2674866e-05
0.00041817262
0.00010702461
0.00013431218
0.00056762945
0.00024527664
0.00030586485
0.00061158998
0.00043686849
0.00053831637
0.00053790064
0.00064088986
0.00077383782
0.00039106494
0.00079442899
0.00092873434
0.00024193283
0.00085356582
0.00095558979
0.00013452169
0.00081765299
0.0008738479
0.000710609
0.0007330635
7.4545723e-05
0.000189855
2.5294125e-05
2.8879813e-05
0.00037592043
0.00010519631
0.00011940142
0.00051475281
0.00024373678
0.00027346315
0.00056078466
0.00044021774
0.00048447696
0.0005003086
0.00065784749
0.0007015629
0.00037260398
0.00083331157
0.00084757076
0.00024360092
0.00091587773
0.00087523944
0.00015434085
0.00089761111
0.00079986676
0.00079760759
0.00066790948
0.00010879062
0.0001656271
2.3779797e-05
2.4893506e-05
0.00033071223
0.00010014309
0.00010367271
0.00045798341
0.00023480908
0.00023915798
0.000506513
0.00043021627
0.0004272521
0.00046128535
0.00065421522
0.00062438291
0.00035579078
0.00084325189
0.00076039675
0.0002497325
0.0009424923
0.00078838432
0.00018194403
0.00093852116
0.00071923454
0.00084816071
0.00059619629
0.00015437959
0.00014067694
2.1539509e-05
2.0858069e-05
0.00028395
9.1918675e-05
8.7573039e-05
0.00039914841
0.00021836578
0.00020364021
0.00045089416
0.00040601771
0.00036722015
0.00042429822
0.00062710048
0.00054223037
0.00034625613
0.0008195774
0.00066620559
0.00026910431
0.00092697653
0.00069344545
0.00022847305
0.00093282702
0.00063016
0.00085269486
0.00051613012
0.00022562303
0.00011568629
1.6886279e-05
1.8822774e-05
0.00023648302
7.1551259e-05
8.12901e-05
0.00033939894
0.00016783734
0.00019477044
0.00039721164
0.00030567082
0.00036545355
0.00039621674
0.000456184
0.00057131651
0.00035433424
0.00056518738
0.00075638225
0.00031424188
0.00058951481
0.00086379867
0.00030627102
0.00053121185
0.00087628273
0.00042690844
0.00080438063
0.000333992
1.9251707e-06
-4.2581285e-06
1.6213769e-05
3.005465e-06
8.3154313e-06
-2.0346585e-05
7.0743322e-05
1.4764339e-05
2.1189711e-05
-5.4751584e-05
0.00016911945
4.0595415e-05
4.2775499e-05
-0.00011750644
0.0003126798
8.891186e-05
7.1882372e-05
-0.0002113938
0.00047520351
0.0001632673
0.00010322511
-0.00032039076
0.00060246885
0.00025176656
0.00013368022
-0.00041429643
0.00064417275
0.00032918377
0.0001654994
-0.00046918067
0.00059327136
0.00037530235
-0.00047425395
0.00048351665
0.00038519239
0.0001979527
2.547093e-06
-5.4460646e-06
1.9498924e-05
1.0967295e-05
-2.5897322e-05
8.4703517e-05
2.7412509e-05
-6.9005883e-05
0.000201449
5.3182173e-05
-0.00014592965
0.00036987313
8.4427513e-05
-0.00025795105
0.00055754162
0.00011335121
-0.00038452947
0.0007014199
0.00013653226
-0.00049097414
0.00074694141
0.00015807255
-0.00055085584
0.00069029404
-0.00055081409
0.00057081632
0.00017994753
3.3909739e-06
-6.628018e-06
2.268453e-05
1.43277e-05
-3.1355821e-05
9.8194608e-05
3.4926399e-05
-8.2910716e-05
0.00023246448
6.5489234e-05
-0.00017325137
0.00042401158
9.9425458e-05
-0.00030135317
0.00063384955
0.00012644295
-0.00044162564
0.00079047693
0.0001430389
-0.0005555117
0.0008363267
0.00015495832
-0.00061549595
0.00077195569
-0.00060866655
0.00064297072
0.00016603708
4.3889936e-06
-7.8250883e-06
2.5687802e-05
1.8378423e-05
-3.6781933e-05
0.00011083788
4.4024615e-05
-9.6398892e-05
0.00026130534
8.0307039e-05
-0.00019886701
0.00047381087
0.00011763798
-0.0003401419
0.00070302052
0.00014316592
-0.00048930403
0.00086972116
0.00015359419
-0.00060495986
0.00091425952
0.00015667823
-0.00066031146
0.00084159898
-0.00064513775
0.00070325711
0.0001578033
5.4114834e-06
-8.9456698e-06
2.8383846e-05
2.2584227e-05
-4.1842431e-05
0.00012219962
5.362522e-05
-0.00010877814
0.00028720311
9.6244922e-05
-0.00022156058
0.00051839077
0.00013772404
-0.00037233391
0.00076455161
0.00016227223
-0.00052463212
0.00093951456
0.00016668459
-0.00063589623
0.00098211493
0.00016125174
-0.00068244499
0.00090141533
-0.00065825594
0.00075412104
0.00015331314
6.5553678e-06
-1.0025956e-05
3.0798441e-05
2.7307394e-05
-4.653734e-05
0.0001323672
6.4459169e-05
-0.00011975655
0.0003103439
0.00011427626
-0.00024020908
0.00055812067
0.00016043089
-0.00039528502
0.00081911114
0.00018378426
-0.00054332079
0.0010008525
0.00018151247
-0.00064345402
0.0010410783
0.00016711134
-0.00067780366
0.00095274614
-0.00064531102
0.00079707694
0.00015049282
7.5109309e-06
-1.0841806e-05
3.293057e-05
3.1293573e-05
-5.0043803e-05
0.00014132744
7.3584716e-05
-0.00012747945
0.00033071286
0.0001291851
-0.00025139534
0.00059305131
0.0001782353
-0.00040374687
0.00086689345
0.00019890326
-0.0005392676
0.0010540572
0.00018974884
-0.00062249956
0.0010914971
0.00016752916
-0.00064320302
0.00099610806
-0.00060461947
0.00083299708
0.00014431424
8.2093529e-06
-1.1120422e-05
3.4771096e-05
3.3909967e-05
-5.1012921e-05
0.00014911585
7.9016213e-05
-0.00012876022
0.00034856304
0.0001373885
-0.0002500491
0.00062391845
0.00018572588
-0.00039048365
0.00090922912
0.00020128855
-0.0005054474
0.0011008483
0.00018522568
-0.00056802145
0.0011350681
0.00015726913
-0.0005757324
0.0010330109
-0.00053474934
0.00086331396
0.00013013362
8.5849564e-06
-1.0559819e-05
3.6333766e-05
3.4824746e-05
-4.7934827e-05
0.00015580253
7.9510183e-05
-0.00011962958
0.00036409352
0.00013446309
-0.00022819205
0.00065116867
0.00017658948
-0.0003469488
0.00094688466
0.00018412043
-0.00043500565
0.0011422152
0.00016181332
-0.0004762365
0.0011729067
0.00013111825
-0.00047387451
0.0010645177
-0.00043509867
0.00088895181
0.00010349101
8.2343695e-06
-8.5494729e-06
3.7617391e-05
3.2334179e-05
-3.8384851e-05
0.00016136193
7.1125718e-05
-9.4737432e-05
0.00037717718
0.00011573114
-0.00017832061
0.00067442096
0.00014651685
-0.00026694333
0.00097926378
0.00014423758
-0.00032504079
0.0011776108
0.00011727148
-0.00034673062
0.001204873
8.6863233e-05
-0.00033786897
0.0010907696
-0.00030519494
0.00091008769
6.0659216e-05
7.4194795e-06
-4.8839678e-06
3.8612431e-05
2.7848404e-05
-2.1721932e-05
0.00016561628
5.804849e-05
-5.3119345e-05
0.00038712072
8.8190593e-05
-9.8941582e-05
0.00069202383
0.00010060265
-0.00014646887
0.001003694
8.5987806e-05
-0.00017660011
0.0012041257
5.5035162e-05
-0.00018334063
0.0012285959
2.8921856e-05
-0.000174274
0.0011101668
-0.00015773513
0.00092550227
1.484074e-05
6.6687592e-06
1.5875951e-11
3.9102507e-05
2.4004868e-05
4.2596706e-11
0.0001677949
4.7481908e-05
9.0002713e-11
0.00039237024
6.7166182e-05
1.089035e-10
0.00070152143
6.7295459e-05
2.9540362e-10
0.0010170304
4.121459e-05
7.2100318e-10
0.0012186966
9.8784221e-06
1.2192963e-09
0.0012415908
-6.3168643e-06
1.3980527e-09
0.0011207724
1.1588628e-09
0.0009339462
-1.2113935e-05
6.6687531e-06
4.8839924e-06
3.91025e-05
2.4004894e-05
2.172201e-05
0.00016779487
4.7481903e-05
5.3119556e-05
0.00039237018
6.7166361e-05
9.8941879e-05
0.0007015213
6.7295554e-05
0.00014646961
0.0010170302
4.1214589e-05
0.00017660178
0.0012186965
9.8783985e-06
0.00018334339
0.0012415906
-6.3169235e-06
0.00017427698
0.0011207723
0.00015773745
0.0009339461
-1.2113926e-05
7.4194689e-06
8.5494774e-06
3.8612427e-05
2.784841e-05
3.8384895e-05
0.00016561626
5.804834e-05
9.4737642e-05
0.00038712067
8.8191009e-05
0.000178321
0.0006920237
0.00010060286
0.0002669443
0.0010036939
8.5987871e-05
0.0003250428
0.0012041255
5.5035219e-05
0.00034673396
0.0012285957
2.8921648e-05
0.00033787246
0.0011101667
0.00030519733
0.00092550205
1.4840677e-05
8.2344537e-06
1.0559804e-05
3.761738e-05
3.2334231e-05
4.7934836e-05
0.00016136188
7.1125372e-05
0.00011962972
0.00037717705
0.00011573155
0.00022819245
0.00067442067
0.00014651682
0.00034694988
0.00097926344
0.00014423714
0.0004350078
0.0011776103
0.00011727099
0.00047623992
0.0012048725
8.6862769e-05
0.00047387788
0.0010907693
0.00043510103
0.00091008736
6.0659116e-05
8.5852971e-06
1.1120474e-05
3.633376e-05
3.4825228e-05
5.10131e-05
0.0001558025
7.9510046e-05
0.00012876051
0.00036409344
0.00013446345
0.00025004959
0.00065116847
0.00017658921
0.00039048451
0.00094688445
0.00018411978
0.00050544909
0.0011422148
0.00016181235
0.00056802424
0.0011729064
0.00013111723
0.00057573529
0.0010645174
0.00053475144
0.00088895146
0.00010349068
8.2097075e-06
1.084188e-05
3.4771096e-05
3.3910505e-05
5.0044027e-05
0.00014911585
7.901603e-05
0.00012747972
0.00034856303
0.00013738846
0.00025139562
0.0006239184
0.00018572553
0.00040374724
0.00090922901
0.00020128796
0.00053926871
0.001100848
0.0001852246
0.00062250157
0.0011350678
0.00015726808
0.00064320525
0.0010330106
0.00060462106
0.00086331363
0.00013013336
7.5110919e-06
1.0026001e-05
3.2930576e-05
3.1293894e-05
4.6537473e-05
0.00014132747
7.3584434e-05
0.00011975666
0.00033071291
0.00012918483
0.00024020918
0.00059305134
0.00017823525
0.00039528542
0.00086689334
0.00019890295
0.00054332185
0.0010540569
0.00018974798
0.00064345569
0.0010914968
0.00016752832
0.00067780533
0.00099610775
0.00064531174
0.00083299676
0.0001443137
6.5555228e-06
8.9456654e-06
3.0798445e-05
2.7307813e-05
4.1842459e-05
0.00013236722
6.4459313e-05
0.00010877823
0.00031034396
0.00011427653
0.0002215609
0.00055812078
0.00016043127
0.00037233448
0.00081911114
0.00018378424
0.00052463296
0.0010008525
0.00018151202
0.00063589757
0.0010410782
0.00016711066
0.00068244607
0.00095274588
0.00065825592
0.00079707665
0.00015049191
5.4115733e-06
7.8251037e-06
2.8383846e-05
2.2584668e-05
3.6782014e-05
0.00012219961
5.3625824e-05
9.6399108e-05
0.00028720313
9.6245385e-05
0.00019886743
0.0005183908
0.0001377243
0.00034014244
0.00076455153
0.00016227263
0.0004893049
0.00093951448
0.00016668456
0.00060496077
0.00098211478
0.00016125107
0.0006603119
0.00090141508
0.00064513792
0.00075412074
0.00015331217
4.3891092e-06
6.6280505e-06
2.5687794e-05
1.837895e-05
3.1355952e-05
0.00011083784
4.4025339e-05
8.2910989e-05
0.00026130526
8.0307437e-05
0.00017325182
0.00047381079
0.00011763847
0.00030135394
0.00070302043
0.00014316636
0.00044162662
0.00086972096
0.00015359435
0.00055551247
0.00091425932
0.00015667797
0.00061549625
0.00084159871
0.0006086664
0.0007032568
0.00015780236
3.3910135e-06
5.4460782e-06
2.2684519e-05
1.4327942e-05
2.5897398e-05
9.8194556e-05
3.4926821e-05
6.9006055e-05
0.00023246436
6.5489661e-05
0.0001459299
0.00042401141
9.9425921e-05
0.0002579514
0.00063384938
0.00012644308
0.00038452995
0.00079047669
0.00014303911
0.00049097495
0.00083632634
0.00015495863
0.00055085738
0.0007719554
0.00055081428
0.00064297052
0.00016603637
2.5471038e-06
4.2581541e-06
1.9498921e-05
1.0967372e-05
2.0346699e-05
8.4703502e-05
2.7412642e-05
5.4751872e-05
0.00020144897
5.3182413e-05
0.00011750695
0.00036987309
8.4427803e-05
0.00021139458
0.00055754164
0.00011335112
0.00032039202
0.00070141993
0.00013653195
0.0004142977
0.00074694124
0.00015807155
0.00046918322
0.00069029403
0.00047425479
0.00057081607
0.00017994658
1.9252017e-06
1.6213769e-05
3.0055145e-06
8.3154905e-06
7.0743322e-05
1.4764529e-05
2.1189666e-05
0.00016911944
4.0595863e-05
4.2775549e-05
0.00031267978
8.8912711e-05
7.1882509e-05
0.0004752035
0.00016326855
0.00010322469
0.00060246885
0.00025176782
0.00013368004
0.0006441727
0.00032918489
0.00016549758
0.00059327137
0.00037530397
0.00048351638
0.00038519155
0.0001979519
7.7883487e-08
-1.7808631e-06
1.6289159e-05
1.6275871e-06
9.2520269e-07
-8.6450196e-06
7.070019e-05
7.8408587e-06
3.1456049e-06
-2.3616185e-05
0.00016938404
2.1131275e-05
6.5561835e-06
-5.1516634e-05
0.00031535078
4.5435131e-05
1.1054922e-05
-9.4682658e-05
0.00048254828
8.2839034e-05
1.7998841e-05
-0.00014705234
0.00061362911
0.00012894811
3.0472415e-05
-0.00019282785
0.00065367721
0.00017085009
5.0825732e-05
-0.00021724718
0.00059537081
0.00019479495
-0.0002151144
0.00047823462
0.00019476525
7.6456433e-05
8.900765e-08
-1.8849261e-06
1.951398e-05
1.1778207e-06
-9.3330034e-06
8.4302594e-05
3.8669518e-06
-2.5897271e-05
0.00020104063
7.3153982e-06
-5.7148848e-05
0.00037205636
1.0479797e-05
-0.00010549279
0.00056518675
1.408664e-05
-0.00016284527
0.00071360521
2.134896e-05
-0.00021039622
0.00075724674
3.4983842e-05
-0.00023264473
0.00069205578
-0.0002270217
0.00056368641
5.4021382e-05
1.4877607e-07
-1.964318e-06
2.2615174e-05
1.5935113e-06
-9.9161048e-06
9.733304e-05
4.9822291e-06
-2.7972779e-05
0.00023115149
9.0002093e-06
-6.2432841e-05
0.00042527801
1.1695198e-05
-0.00011541024
0.00064107255
1.2961809e-05
-0.00017623698
0.00080260342
1.59242e-05
-0.00022314659
0.00084611529
2.3916248e-05
-0.00024085364
0.00077217255
-0.00023045248
0.00063346301
3.6855108e-05
2.576473e-07
-2.0330128e-06
2.5498789e-05
2.2449189e-06
-1.0443214e-05
0.00010937754
6.6795068e-06
-2.987635e-05
0.00025877445
1.1735427e-05
-6.7241382e-05
0.00047356386
1.4514306e-05
-0.00012401633
0.00070884709
1.4057464e-05
-0.00018654355
0.00088048431
1.3543985e-05
-0.00023049394
0.00092212041
1.7067422e-05
-0.0002420268
0.00083924882
-0.00022642136
0.0006909654
2.5328979e-05
3.8481746e-07
-2.0728471e-06
2.8038811e-05
2.9914508e-06
-1.0843697e-05
0.00011999327
8.6638415e-06
-3.1442586e-05
0.00028309701
1.5130018e-05
-7.1236411e-05
0.00051592018
1.8514562e-05
-0.0001307058
0.00076785763
1.6878215e-05
-0.00019296432
0.00094757183
1.3504513e-05
-0.00023185412
0.00098684973
1.3403707e-05
-0.00023631192
0.00089580156
-0.00021592393
0.00073890977
1.8117781e-05
5.8156395e-07
-2.1131789e-06
3.0257185e-05
4.0275003e-06
-1.1169079e-05
0.00012924662
1.1319355e-05
-3.2627005e-05
0.0003042367
1.9711793e-05
-7.4069552e-05
0.00055256093
2.4196705e-05
-0.0001346294
0.00081855007
2.1673748e-05
-0.00019428881
0.0010047006
1.561103e-05
-0.00022623805
0.001041526
1.2198667e-05
-0.00022343731
0.0009432843
-0.00019952571
0.0007788641
1.4013389e-05
8.1385268e-07
-2.1347405e-06
3.2138209e-05
5.1032643e-06
-1.1194808e-05
0.0001370639
1.388806e-05
-3.2723645e-05
0.00032202553
2.3949023e-05
-7.432455e-05
0.00058324548
2.9342367e-05
-0.00013386775
0.00086073846
2.5875721e-05
-0.00018864471
0.0010518798
1.7338203e-05
-0.00021258303
0.0010863806
1.1310315e-05
-0.00020346498
0.00098216441
-0.00017795042
0.00081153244
1.1200002e-05
1.0188741e-06
-2.0522079e-06
3.3669339e-05
6.1480497e-06
-1.0652048e-05
0.00014344382
1.6359967e-05
-3.0969461e-05
0.00033659762
2.7367604e-05
-6.9874162e-05
0.00060846043
3.3074826e-05
-0.00012580284
0.00089545773
2.8427615e-05
-0.00017374146
0.0010905926
1.765213e-05
-0.00018969871
0.0011229602
9.821204e-06
-0.00017637329
0.001013751
-0.00015176793
0.00083800143
8.951607e-06
1.081281e-06
-1.6620022e-06
3.4861999e-05
6.6283763e-06
-8.8291865e-06
0.00014843255
1.7737937e-05
-2.6034497e-05
0.00034804958
3.0048309e-05
-5.9549774e-05
0.00062853361
3.5531959e-05
-0.00010779065
0.00092338962
2.9385064e-05
-0.00014720846
0.0011218297
1.6686552e-05
-0.00015640146
0.0011523086
8.3488095e-06
-0.0001424024
0.001038885
-0.00012170331
0.00085890319
8.3329626e-06
1.3529556e-06
-1.1337845e-06
3.5736284e-05
8.0278845e-06
-6.2507393e-06
0.00015210874
2.1481105e-05
-1.8829736e-05
0.00035651956
3.6315511e-05
-4.3366751e-05
0.00064340323
4.0872531e-05
-7.762079e-05
0.00094453726
3.2042544e-05
-0.00010653765
0.0011457703
1.7843575e-05
-0.00011205978
0.0011747302
1.0971785e-05
-0.00010254988
0.0010577888
-8.9977711e-05
0.00087433769
1.499611e-05
1.7025625e-06
-5.7769825e-07
3.635395e-05
9.6819394e-06
-3.2569496e-06
0.00015464314
2.5679803e-05
-9.9407103e-06
0.00036223369
4.4106706e-05
-2.2996149e-05
0.00065322611
5.2887613e-05
-4.082483e-05
0.00095811702
4.3894979e-05
-5.4753919e-05
0.0011613346
3.0252026e-05
-5.9154769e-05
0.0011893334
2.4386741e-05
-5.6131802e-05
0.0010696139
-4.7996531e-05
0.00088364242
2.4265264e-05
1.904557e-06
2.7134166e-12
3.6620326e-05
1.0646195e-05
1.7991679e-11
0.00015579619
2.8123194e-05
9.2225751e-11
0.00036495205
4.8579756e-05
2.8501003e-10
0.00065806839
5.9865282e-05
7.3191092e-10
0.00096491893
5.4883364e-05
1.2510312e-09
0.0011689233
4.1035964e-05
1.5406676e-09
0.0011962814
3.0273297e-05
1.4219084e-09
0.0010754017
7.3171662e-10
0.00088828185
2.7940243e-05
1.9044981e-06
5.7771308e-07
3.6620321e-05
1.0646154e-05
3.2570263e-06
0.00015579617
2.8123137e-05
9.9410011e-06
0.000364952
4.8579774e-05
2.2996877e-05
0.00065806829
5.9865163e-05
4.0826493e-05
0.0009649188
5.4883159e-05
5.4756647e-05
0.0011689231
4.1035835e-05
5.9158079e-05
0.0011962813
3.027315e-05
5.613477e-05
0.0010754016
4.7997927e-05
0.00088828179
2.7940141e-05
1.7024558e-06
1.1338079e-06
3.6353949e-05
9.6818387e-06
6.2508764e-06
0.00015464314
2.5679559e-05
1.8830198e-05
0.00036223367
4.4106756e-05
4.3367766e-05
0.00065322607
5.2887295e-05
7.7622877e-05
0.00095811696
4.3894291e-05
0.00010654095
0.0011613345
3.0251381e-05
0.00011206359
0.0011893333
2.4386204e-05
0.00010255289
0.0010696137
8.9978913e-05
0.0008836423
2.426492e-05
1.3530047e-06
1.662026e-06
3.5736276e-05
8.0279104e-06
8.8293547e-06
0.0001521087
2.1480689e-05
2.6035045e-05
0.00035651947
3.6315616e-05
5.9550966e-05
0.00064340306
4.0872203e-05
0.0001077929
0.00094453703
3.2041918e-05
0.00014721187
0.00114577
1.7842777e-05
0.0001564055
0.0011747299
1.0970779e-05
0.00014240555
0.0010577886
0.00012170437
0.00087433749
1.4995451e-05
1.08162e-06
2.0522816e-06
3.4861995e-05
6.6287769e-06
1.0652351e-05
0.00014843253
1.7737615e-05
3.0970167e-05
0.00034804953
3.0048464e-05
6.9875436e-05
0.00062853351
3.5531555e-05
0.00012580488
0.00092338947
2.9384365e-05
0.00017374451
0.0011218295
1.6685537e-05
0.00018970242
0.0011523084
8.3477891e-06
0.00017637622
0.0010388847
0.00015176893
0.00085890297
8.332517e-06
1.0192524e-06
2.1348431e-06
3.366934e-05
6.1485222e-06
1.1195181e-05
0.00014344382
1.6359689e-05
3.2724363e-05
0.00033659761
2.7367565e-05
7.432565e-05
0.0006084604
3.307434e-05
0.00013386944
0.00089545766
2.842701e-05
0.00018864746
0.0010905925
1.7651106e-05
0.00021258644
0.00112296
9.820257e-06
0.00020346771
0.0010137507
0.00017795118
0.00083800122
8.9513043e-06
8.1397462e-07
2.113227e-06
3.2138213e-05
5.1033654e-06
1.1169297e-05
0.00013706391
1.3887533e-05
3.2627404e-05
0.00032202557
2.3948691e-05
7.4070316e-05
0.00058324552
2.9342023e-05
0.00013463112
0.00086073846
2.5875382e-05
0.00019429173
0.0010518797
1.7337457e-05
0.00022624151
0.0010863804
1.1309611e-05
0.00022343985
0.00098216421
0.00019952591
0.00081153225
1.1199422e-05
5.8156434e-07
2.0728803e-06
3.0257195e-05
4.0275052e-06
1.084387e-05
0.00012924666
1.1319109e-05
3.1443031e-05
0.00030423679
1.9711966e-05
7.1237495e-05
0.00055256106
2.4196763e-05
0.00013070778
0.00081855018
2.1673737e-05
0.00019296714
0.0010047007
1.5610661e-05
0.0002318573
0.0010415259
1.2198222e-05
0.0002363139
0.00094328418
0.00021592378
0.00077886392
1.4012485e-05
3.8484673e-07
2.033054e-06
2.8038812e-05
2.9917057e-06
1.0443421e-05
0.00011999327
8.664246e-06
2.9876935e-05
0.00028309701
1.5130418e-05
6.7242529e-05
0.00051592018
1.8514667e-05
0.00012401805
0.00076785758
1.6878688e-05
0.00018654617
0.00094757174
1.3504668e-05
0.0002304965
0.00098684958
1.3403526e-05
0.00024202822
0.00089580137
0.0002264218
0.00073890958
1.8117054e-05
2.5771971e-07
1.964383e-06
2.5498787e-05
2.2452463e-06
9.9163756e-06
0.00010937753
6.6799416e-06
2.7973427e-05
0.00025877441
1.17357e-05
6.2434055e-05
0.00047356379
1.4514926e-05
0.00011541227
0.00070884695
1.4058126e-05
0.00017623966
0.00088048412
1.3544409e-05
0.00022314905
0.00092212018
1.7067731e-05
0.00024085495
0.0008392486
0.00023045279
0.00069096523
2.5328678e-05
1.4882189e-07
1.8849745e-06
2.2615169e-05
1.5937346e-06
9.3332143e-06
9.7333016e-05
4.9826286e-06
2.5897764e-05
0.00023115143
9.0006977e-06
5.714973e-05
0.00042527791
1.1695983e-05
0.00010549416
0.00064107239
1.2962478e-05
0.00016284715
0.0008026032
1.592479e-05
0.00021039854
0.00084611502
2.3917062e-05
0.00023264695
0.00077217233
0.00022702255
0.00063346288
3.685501e-05
8.9030823e-08
1.7809089e-06
1.9513981e-05
1.1779452e-06
8.645222e-06
8.4302595e-05
3.8671988e-06
2.3616694e-05
0.00020104063
7.3158669e-06
5.151761e-05
0.00037205634
1.0480639e-05
9.4684229e-05
0.00056518672
1.4087585e-05
0.00014705474
0.00071360515
2.1349683e-05
0.00019283045
0.00075724663
3.4984444e-05
0.0002172504
0.00069205573
0.00021511625
0.00056368635
5.4021931e-05
7.7899072e-08
1.6289164e-05
1.6276496e-06
9.2525399e-07
7.0700208e-05
7.8411138e-06
3.1456518e-06
0.00016938408
2.1131897e-05
6.5564624e-06
0.00031535084
4.5436343e-05
1.1055406e-05
0.00048254834
8.2840867e-05
1.7998965e-05
0.00061362917
0.00012895017
3.0473255e-05
0.00065367723
0.00017085208
5.082582e-05
0.00059537086
0.00019479675
0.00047823461
0.0001947651
7.6457205e-05
1.8847701e-07
-9.7865505e-07
1.6399373e-05
6.7996197e-07
7.8586303e-07
-4.5169973e-06
7.1397217e-05
3.2225951e-06
2.3731338e-06
-1.1846913e-05
0.00017100546
8.6382789e-06
6.4730396e-06
-2.5064656e-05
0.00031765496
1.8660677e-05
1.4633076e-05
-4.5319707e-05
0.00048523083
3.4477199e-05
2.6607558e-05
-7.0129106e-05
0.00061722877
5.4554949e-05
3.9712578e-05
-9.1955262e-05
0.00065938579
7.314163e-05
5.0676828e-05
-0.00010285918
0.00060364813
8.3617994e-05
-0.00010012259
0.00048768496
8.3661074e-05
5.7687746e-05
1.878438e-07
-1.2263296e-06
1.9573809e-05
7.8120369e-07
-5.6348446e-06
8.4827045e-05
2.4563635e-06
-1.4665663e-05
0.00020218414
6.9583806e-06
-3.0688906e-05
0.00037317848
1.5855658e-05
-5.4723349e-05
0.00056569291
2.8357616e-05
-8.3205238e-05
0.00071417883
4.0949006e-05
-0.00010694293
0.00075964274
5.0001047e-05
-0.00011733112
0.00069747508
-0.00011245384
0.00057140524
5.4613507e-05
1.938147e-07
-1.4118384e-06
2.2606875e-05
7.675266e-07
-6.4789767e-06
9.7603488e-05
2.472904e-06
-1.6834474e-05
0.00023161504
7.3149317e-06
-3.5100461e-05
0.00042484773
1.6912871e-05
-6.2100999e-05
0.00063885237
2.99789e-05
-9.3100099e-05
0.00079943287
4.2316034e-05
-0.00011745994
0.0008442955
5.008036e-05
-0.00012660494
0.00077368191
-0.0001199129
0.00063819473
5.2807845e-05
2.1101658e-07
-1.5346149e-06
2.541054e-05
8.2004266e-07
-7.0436589e-06
0.00010933321
2.6606796e-06
-1.8306136e-05
0.00025840567
7.9463077e-06
-3.8139468e-05
0.00047131744
1.8292009e-05
-6.7150582e-05
0.00070355044
3.1957304e-05