/*--------------------------------*- C++ -*----------------------------------*\
| =========                 |                                                 |
| \\      /  F ield         | OpenFOAM: The Open Source CFD Toolbox           |
|  \\    /   O peration     | Version:  2406                                  |
|   \\  /    A nd           | Website:  www.openfoam.com                      |
|    \\/     M anipulation  |                                                 |
\*---------------------------------------------------------------------------*/
FoamFile
{
    version     2.0;
    format      ascii;
    arch        "LSB;label=32;scalar=64";
    class       volVectorField;
    location    "17.75";
    object      U;
}
// * * * * * * * * * * * * * * * * * * * * * * * * * * * * * * * * * * * * * //

dimensions      [0 1 -1 0 0 0 0];

internalField   nonuniform List<vector> 
34560
(
(0.079070404 -0.0075072058 -0.018659985)
(0.24241588 -0.022913993 -0.057590877)
(0.42303592 -0.043140478 -0.097767471)
(0.59684324 -0.068349201 -0.13146632)
(0.73030805 -0.096252308 -0.15031611)
(0.79563479 -0.1231005 -0.14936595)
(0.79406639 -0.14548251 -0.13247545)
(0.75660469 -0.16094988 -0.10997126)
(0.71400153 -0.16806064 -0.09194254)
(0.089941147 -0.0086262028 -0.0206318)
(0.27169181 -0.025445209 -0.063104635)
(0.46657958 -0.046453818 -0.10524341)
(0.64533775 -0.071388692 -0.13791162)
(0.77075917 -0.09745684 -0.15247452)
(0.81829663 -0.1210091 -0.1454315)
(0.79832282 -0.13935075 -0.12338391)
(0.7507797 -0.15064691 -0.098372262)
(0.7068852 -0.15427869 -0.079032236)
(0.10112981 -0.0091712418 -0.021752381)
(0.30172389 -0.026524763 -0.06632282)
(0.51133961 -0.047551677 -0.10927193)
(0.6959694 -0.071571916 -0.14057225)
(0.81540387 -0.095310744 -0.15181272)
(0.84856514 -0.11569819 -0.14066485)
(0.81474194 -0.13006638 -0.11539933)
(0.76081146 -0.13768099 -0.088727792)
(0.71827461 -0.13839961 -0.068518776)
(0.11251911 -0.0096623074 -0.022739092)
(0.33220927 -0.027406306 -0.069114664)
(0.55696815 -0.048128183 -0.11256578)
(0.74854291 -0.070697047 -0.14230542)
(0.86417077 -0.09146128 -0.15032499)
(0.88597334 -0.1078465 -0.13547503)
(0.84140088 -0.11803542 -0.10761213)
(0.78305184 -0.12193326 -0.079510999)
(0.74187914 -0.11992318 -0.058578092)
(0.1237886 -0.0098129807 -0.023428764)
(0.36257939 -0.027491864 -0.071154125)
(0.60311901 -0.047566483 -0.11484625)
(0.80334788 -0.068420234 -0.14306683)
(0.91790107 -0.08597159 -0.14815243)
(0.93134833 -0.097945574 -0.12989782)
(0.87823311 -0.10362882 -0.09939884)
(0.81636976 -0.10390037 -0.069689468)
(0.77633997 -0.099672561 -0.047768406)
(0.13497289 -0.0098244116 -0.023826098)
(0.39305493 -0.027335709 -0.072399487)
(0.65036908 -0.04665621 -0.11601904)
(0.86141723 -0.065622846 -0.14266606)
(0.97786927 -0.07974 -0.14489266)
(0.98571039 -0.086967429 -0.12318224)
(0.92584614 -0.087958155 -0.089799857)
(0.86109576 -0.084809955 -0.058227456)
(0.82206678 -0.078922393 -0.035167317)
(0.14607123 -0.0096485262 -0.024057359)
(0.42382641 -0.026767959 -0.073128231)
(0.69932067 -0.045199087 -0.11628434)
(0.92385304 -0.06221221 -0.14094874)
(1.0454279 -0.072881563 -0.13980958)
(1.0502304 -0.075331213 -0.11404497)
(0.98523815 -0.071773566 -0.07734302)
(0.91827965 -0.065611237 -0.043782467)
(0.88031212 -0.058642242 -0.019724679)
(0.15688454 -0.0091932374 -0.024080741)
(0.45459814 -0.025553004 -0.073208959)
(0.74989162 -0.042859478 -0.11534283)
(0.99096261 -0.057865605 -0.1373006)
(1.1211179 -0.065281673 -0.13179969)
(1.1254888 -0.063377478 -0.1010154)
(1.0568382 -0.055835563 -0.060576506)
(0.98887512 -0.047360046 -0.025203818)
(0.95193234 -0.039952255 -0.00075457309)
(0.1671401 -0.00832165 -0.02389487)
(0.48465584 -0.023254808 -0.072579772)
(0.80096074 -0.03888117 -0.11294053)
(1.0611517 -0.051647375 -0.13113673)
(1.2028702 -0.056208041 -0.11992298)
(1.2091439 -0.051041929 -0.083122236)
(1.1390166 -0.040799389 -0.038823983)
(1.0715756 -0.031149062 -0.0023010885)
(1.0355392 -0.024050369 0.021579456)
(0.17626435 -0.0068729916 -0.023529776)
(0.51215254 -0.019328975 -0.071304706)
(0.84902604 -0.032260709 -0.10919402)
(1.1290197 -0.042279794 -0.12265566)
(1.2840194 -0.044567266 -0.10467287)
(1.2936899 -0.037937085 -0.061339725)
(1.2250256 -0.02721593 -0.013607402)
(1.1599316 -0.018038681 0.023155932)
(1.1245497 -0.012080788 0.045392698)
(0.18348552 -0.0046631386 -0.023135786)
(0.53422132 -0.013158074 -0.069858532)
(0.88815556 -0.021893674 -0.10513749)
(1.1848455 -0.028372686 -0.11380833)
(1.3519466 -0.029199888 -0.089301097)
(1.3654959 -0.0235513 -0.040036395)
(1.3006999 -0.015272145 0.01016776)
(1.2389531 -0.0086068094 0.046396519)
(1.2036463 -0.0046441779 0.066405333)
(0.18732064 -0.0016138404 -0.022859061)
(0.54625204 -0.0045626013 -0.068868977)
(0.90995591 -0.007620846 -0.10247809)
(1.2165013 -0.009877253 -0.10813677)
(1.391163 -0.010083189 -0.079506719)
(1.4078103 -0.0078984746 -0.026606936)
(1.3462868 -0.0048002589 0.024898586)
(1.2865837 -0.0023953403 0.060473309)
(1.2509326 -0.0010345102 0.078867615)
(0.18732062 0.0016137549 -0.022859059)
(0.54625198 0.0045623544 -0.068868988)
(0.9099558 0.0076203942 -0.10247806)
(1.216501 0.0098765654 -0.10813676)
(1.3911628 0.010082407 -0.079506735)
(1.40781 0.0078976271 -0.02660692)
(1.3462866 0.0047993613 0.024898624)
(1.2865835 0.0023943335 0.060473369)
(1.2509323 0.001033365 0.078867667)
(0.18348548 0.0046630639 -0.02313579)
(0.5342212 0.013157839 -0.069858518)
(0.88815528 0.021893262 -0.10513742)
(1.1848449 0.028372099 -0.11380832)
(1.351946 0.029199231 -0.089301129)
(1.3654952 0.023550572 -0.040036334)
(1.3006992 0.01527137 0.01016787)
(1.2389525 0.0086059149 0.046396693)
(1.2036454 0.0046431215 0.066405483)
(0.17626432 0.0068729299 -0.023529784)
(0.5121524 0.019328773 -0.071304666)
(0.84902568 0.032260374 -0.10919398)
(1.129019 0.042279343 -0.12265568)
(1.2840187 0.044566749 -0.10467287)
(1.2936889 0.037936513 -0.06133958)
(1.2250247 0.027215337 -0.013607202)
(1.1599307 0.018037964 0.023156225)
(1.1245484 0.012079874 0.045392939)
(0.16714006 0.0083216231 -0.023894869)
(0.48465571 0.023254684 -0.072579768)
(0.80096043 0.038880938 -0.11294053)
(1.0611512 0.051647014 -0.13113671)
(1.2028696 0.056207572 -0.11992287)
(1.2091429 0.051041459 -0.083122003)
(1.1390156 0.040798923 -0.038823699)
(1.0715746 0.031148497 -0.0023006714)
(1.0355378 0.024049601 0.02157977)
(0.15688453 0.0091932297 -0.02408073)
(0.4545981 0.025552949 -0.073208936)
(0.74989153 0.042859343 -0.11534275)
(0.99096231 0.05786534 -0.13730046)
(1.1211172 0.065281253 -0.13179952)
(1.1254877 0.063377074 -0.10101517)
(1.0568372 0.055835136 -0.06057616)
(0.98887408 0.047359561 -0.0252033)
(0.95193098 0.039951626 -0.00075418791)
(0.14607122 0.0096485001 -0.024057332)
(0.4238264 0.026767871 -0.073128198)
(0.69932058 0.045198949 -0.11628423)
(0.92385269 0.062212044 -0.14094855)
(1.045427 0.072881228 -0.13980937)
(1.0502294 0.075330851 -0.11404471)
(0.9852372 0.071773129 -0.07734261)
(0.91827859 0.065610789 -0.043781937)
(0.88031089 0.058641717 -0.019724191)
(0.13497285 0.0098244049 -0.023826068)
(0.39305479 0.027335621 -0.072399534)
(0.6503689 0.04665607 -0.11601905)
(0.86141706 0.065622701 -0.14266593)
(0.97786874 0.079739717 -0.14489242)
(0.98570981 0.086967072 -0.12318198)
(0.92584532 0.087957747 -0.089799493)
(0.8610948 0.08480955 -0.058227011)
(0.82206573 0.078921878 -0.035166764)
(0.1237886 0.0098129622 -0.023428732)
(0.36257942 0.027491798 -0.07115411)
(0.6031191 0.047566376 -0.1148462)
(0.80334793 0.068420101 -0.1430667)
(0.9179008 0.085971405 -0.14815233)
(0.93134802 0.097945195 -0.12989773)
(0.87823258 0.10362841 -0.099398658)
(0.81636909 0.10389991 -0.069689068)
(0.77633907 0.099672084 -0.04776782)
(0.11251909 0.0096622649 -0.022739063)
(0.33220919 0.027406175 -0.069114657)
(0.55696798 0.048127963 -0.11256579)
(0.74854271 0.070696796 -0.14230543)
(0.86417061 0.091461136 -0.15032491)
(0.88597304 0.1078462 -0.13547486)
(0.84140057 0.11803487 -0.10761197)
(0.78305138 0.12193257 -0.07951068)
(0.7418783 0.1199228 -0.05857753)
(0.10112979 0.009171238 -0.021752388)
(0.30172379 0.026524734 -0.066322848)
(0.51133941 0.047551592 -0.10927194)
(0.69596918 0.071571724 -0.14057226)
(0.8154038 0.095310526 -0.15181268)
(0.84856503 0.11569796 -0.14066473)
(0.81474159 0.13006575 -0.11539909)
(0.76081105 0.13768016 -0.088727791)
(0.71827406 0.1383991 -0.068518675)
(0.089941144 0.0086262014 -0.020631805)
(0.27169179 0.025445216 -0.06310463)
(0.46657954 0.046453822 -0.10524339)
(0.64533775 0.071388624 -0.13791166)
(0.77075936 0.097456721 -0.1524746)
(0.81829686 0.12100898 -0.1454314)
(0.79832267 0.13935035 -0.12338379)
(0.75077958 0.1506462 -0.098372596)
(0.70688449 0.15427773 -0.07903219)
(0.079070394 0.0075072149 -0.01865999)
(0.24241583 0.022913999 -0.057590901)
(0.42303582 0.043140501 -0.097767501)
(0.59684308 0.068349226 -0.13146641)
(0.73030788 0.096252337 -0.1503162)
(0.79563467 0.12310048 -0.14936597)
(0.79406623 0.14548238 -0.13247558)
(0.75660456 0.16094955 -0.10997164)
(0.71400073 0.16805987 -0.091943024)
(0.10832257 -0.0022878599 -0.002224661)
(0.34168358 -0.0078248069 -0.0077714377)
(0.61370098 -0.015451662 -0.01562908)
(0.89523214 -0.025340067 -0.025858394)
(1.141987 -0.037060926 -0.037069705)
(1.3140323 -0.049332885 -0.046363169)
(1.3991922 -0.061004693 -0.051313685)
(1.4169693 -0.071784092 -0.05182284)
(1.3964024 -0.081240631 -0.050233744)
(0.12009356 -0.0030993989 -0.0026942424)
(0.37561006 -0.010392664 -0.0092923957)
(0.6677862 -0.020035385 -0.018526234)
(0.96104348 -0.031924243 -0.030284202)
(1.2056897 -0.04518529 -0.042612839)
(1.3622866 -0.058190875 -0.052141915)
(1.425689 -0.069893837 -0.056599589)
(1.4233234 -0.080382874 -0.056523973)
(1.3890881 -0.088805991 -0.053952302)
(0.13102635 -0.0037123012 -0.0028558372)
(0.40709327 -0.012412214 -0.0099361895)
(0.71779754 -0.023719735 -0.020014072)
(1.0215038 -0.037264593 -0.032862409)
(1.2638733 -0.051715068 -0.046070869)
(1.4067308 -0.065120393 -0.055885336)
(1.4518673 -0.076454686 -0.060109956)
(1.4334497 -0.085967844 -0.059611198)
(1.3902743 -0.092996638 -0.056513852)
(0.14115853 -0.0044049515 -0.0029986645)
(0.43610818 -0.014606421 -0.010489123)
(0.76362206 -0.027571121 -0.021319741)
(1.0766567 -0.042598362 -0.035120638)
(1.3171033 -0.057858377 -0.049024464)
(1.4483943 -0.071121689 -0.058940831)
(1.4786995 -0.081542185 -0.062795859)
(1.4473629 -0.089658357 -0.061789988)
(1.3965563 -0.095161752 -0.058267736)
(0.15009022 -0.0050744548 -0.003052985)
(0.46178292 -0.01673374 -0.010774957)
(0.80433248 -0.03129222 -0.022184194)
(1.1259624 -0.047654105 -0.03678903)
(1.365315 -0.063410539 -0.051283167)
(1.4872372 -0.076040727 -0.06119866)
(1.505503 -0.085049943 -0.06452754)
(1.463555 -0.091437625 -0.062819967)
(1.4059471 -0.095302001 -0.05871723)
(0.1580738 -0.0057474817 -0.0029896093)
(0.4847884 -0.018841903 -0.010686876)
(0.84096167 -0.034909107 -0.022404133)
(1.1706941 -0.052375664 -0.037555848)
(1.4097217 -0.068184596 -0.052411819)
(1.5239217 -0.079581328 -0.062097281)
(1.5319469 -0.086660787 -0.064672417)
(1.4809043 -0.091054982 -0.062071006)
(1.4172574 -0.093275943 -0.057267399)
(0.16535884 -0.0063703208 -0.0028343574)
(0.50586201 -0.020751317 -0.010265753)
(0.8747708 -0.038106235 -0.021943698)
(1.2125556 -0.056297492 -0.037193208)
(1.4520955 -0.071575645 -0.051888523)
(1.5597025 -0.081080967 -0.060830101)
(1.5583379 -0.085791875 -0.062316938)
(1.4990714 -0.088079842 -0.058734481)
(1.4301403 -0.08878529 -0.053303911)
(0.17194432 -0.0067839626 -0.0025258235)
(0.52525321 -0.022016491 -0.0093782681)
(0.90651726 -0.040078093 -0.020441907)
(1.2529454 -0.058269744 -0.035009635)
(1.4940982 -0.072292472 -0.048756312)
(1.5959792 -0.079365245 -0.056298781)
(1.5854628 -0.081619262 -0.056465067)
(1.5183859 -0.081952952 -0.051993924)
(1.4449394 -0.081362304 -0.046219297)
(0.17797784 -0.0068135732 -0.0020713072)
(0.54349737 -0.021983667 -0.0078996759)
(0.93736226 -0.039823169 -0.017816961)
(1.2932047 -0.057167217 -0.030933455)
(1.5368831 -0.068730738 -0.042129557)
(1.6335257 -0.073102387 -0.047678386)
(1.6139033 -0.073093109 -0.046381128)
(1.5392819 -0.07187879 -0.041263154)
(1.4618998 -0.070326228 -0.035632079)
(0.18335276 -0.006111325 -0.0014564203)
(0.56019625 -0.019536439 -0.0058123104)
(0.96653033 -0.035070233 -0.013595225)
(1.3329104 -0.049741007 -0.023868722)
(1.5795912 -0.059035402 -0.032036521)
(1.6710883 -0.060795586 -0.034860199)
(1.6428251 -0.059144736 -0.032317802)
(1.561407 -0.056974501 -0.026773577)
(1.4807744 -0.054835978 -0.021720142)
(0.18786152 -0.0043752455 -0.00081426092)
(0.57415069 -0.01386143 -0.0035996608)
(0.99100128 -0.024677764 -0.0090310479)
(1.3666696 -0.034641983 -0.016127011)
(1.6172785 -0.040608158 -0.020576009)
(1.7042895 -0.041205167 -0.019442775)
(1.6687571 -0.038994252 -0.016494314)
(1.5828892 -0.036657905 -0.0097710433)
(1.5000388 -0.034850049 -0.0067012193)
(0.19015659 -0.0016067038 -0.00040806997)
(0.581592 -0.0050655531 -0.0021843304)
(1.0045723 -0.0089740819 -0.0060368543)
(1.386031 -0.01252031 -0.010982337)
(1.6395956 -0.014573227 -0.012966752)
(1.7251858 -0.01467249 -0.0096576837)
(1.6860417 -0.013637227 -0.0043096645)
(1.5971001 -0.012624059 0.000268661)
(1.5123681 -0.011975146 0.0018413309)
(0.19015658 0.0016067246 -0.0004080718)
(0.58159198 0.0050655985 -0.0021843338)
(1.0045723 0.0089741557 -0.0060368639)
(1.386031 0.012520384 -0.010982356)
(1.6395954 0.014573366 -0.01296678)
(1.7251857 0.014672757 -0.0096576959)
(1.6860415 0.013637617 -0.004309677)
(1.5971 0.012624489 0.00026866374)
(1.512368 0.011975508 0.0018413208)
(0.18786151 0.0043752553 -0.00081426238)
(0.57415065 0.01386146 -0.0035996672)
(0.99100121 0.024677833 -0.0090310543)
(1.3666693 0.03464206 -0.016127034)
(1.6172782 0.040608311 -0.02057607)
(1.7042892 0.041205459 -0.019442801)
(1.6687567 0.038994713 -0.016494408)
(1.582889 0.03665838 -0.0097710347)
(1.5000385 0.03485041 -0.0067012365)
(0.18335275 0.006111321 -0.0014564178)
(0.56019622 0.019536439 -0.005812324)
(0.96653023 0.035070272 -0.013595215)
(1.3329101 0.049741076 -0.02386872)
(1.5795909 0.059035567 -0.032036577)
(1.6710878 0.060795918 -0.034860204)
(1.6428247 0.059145237 -0.03231779)
(1.5614067 0.056975014 -0.026773517)
(1.4807739 0.054836349 -0.021720182)
(0.17797784 0.0068135775 -0.0020713001)
(0.54349734 0.021983665 -0.0078997168)
(0.93736215 0.039823195 -0.017816978)
(1.2932045 0.057167302 -0.030933465)
(1.536883 0.068730917 -0.042129603)
(1.6335253 0.073102699 -0.047678367)
(1.6139029 0.073093582 -0.046381067)
(1.5392816 0.071879267 -0.041263027)
(1.4618993 0.070326569 -0.035632007)
(0.17194433 0.0067839972 -0.0025258239)
(0.52525324 0.02201654 -0.0093783243)
(0.90651728 0.040078158 -0.020441937)
(1.2529454 0.058269868 -0.035009631)
(1.4940981 0.072292622 -0.048756305)
(1.5959788 0.079365495 -0.056298746)
(1.5854625 0.081619649 -0.056464991)
(1.5183856 0.081953359 -0.051993775)
(1.4449389 0.0813626 -0.04621922)
(0.16535886 0.0063703532 -0.0028343648)
(0.50586209 0.02075138 -0.010265793)
(0.87477094 0.038106302 -0.021943719)
(1.2125557 0.056297593 -0.037193171)
(1.4520952 0.071575759 -0.051888495)
(1.5597021 0.081081169 -0.060830102)
(1.5583376 0.085792172 -0.062316895)
(1.499071 0.088080157 -0.058734368)
(1.4301399 0.088785493 -0.053303817)
(0.15807377 0.0057474913 -0.0029896258)
(0.48478831 0.018841924 -0.010686945)
(0.84096159 0.034909136 -0.022404183)
(1.1706941 0.052375731 -0.037555901)
(1.4097214 0.068184706 -0.05241189)
(1.5239215 0.079581492 -0.062097349)
(1.5319467 0.086660997 -0.064672433)
(1.4809039 0.091055168 -0.06207094)
(1.4172569 0.093276007 -0.057267235)
(0.15009023 0.0050744666 -0.0030529962)
(0.46178295 0.016733766 -0.010775024)
(0.80433261 0.031292261 -0.022184285)
(1.1259626 0.047654178 -0.036789161)
(1.365315 0.063410644 -0.051283269)
(1.4872373 0.07604085 -0.061198773)
(1.5055029 0.085050036 -0.064527641)
(1.4635548 0.091437667 -0.062819962)
(1.4059468 0.095302002 -0.05871708)
(0.14115852 0.0044049566 -0.0029986681)
(0.43610813 0.014606431 -0.010489172)
(0.763622 0.027571146 -0.021319824)
(1.0766567 0.042598419 -0.035120757)
(1.3171035 0.057858473 -0.049024602)
(1.4483943 0.071121774 -0.058941005)
(1.4786996 0.081542175 -0.062796037)
(1.4473628 0.08965827 -0.06179017)
(1.3965559 0.095161693 -0.058267739)
(0.13102633 0.0037123158 -0.0028558447)
(0.40709318 0.01241225 -0.0099362384)
(0.71779738 0.0237198 -0.020014136)
(1.0215037 0.037264649 -0.032862516)
(1.2638733 0.051715136 -0.046071019)
(1.4067307 0.06512042 -0.055885519)
(1.4518671 0.076454593 -0.060110239)
(1.4334494 0.085967683 -0.059611605)
(1.3902741 0.09299652 -0.056514034)
(0.12009356 0.0030994248 -0.0026942558)
(0.37561006 0.010392728 -0.0092924597)
(0.66778621 0.020035506 -0.018526318)
(0.9610436 0.031924358 -0.030284333)
(1.20569 0.04518539 -0.042613044)
(1.362287 0.058190927 -0.052142259)
(1.4256888 0.069893706 -0.056600103)
(1.4233237 0.080382626 -0.056524624)
(1.3890875 0.088805663 -0.053952603)
(0.10832257 0.0022878802 -0.0022246759)
(0.34168357 0.0078248472 -0.0077715075)
(0.61370093 0.015451764 -0.015629179)
(0.89523205 0.025340195 -0.025858568)
(1.141987 0.037061036 -0.037070011)
(1.3140323 0.049332941 -0.046363571)
(1.3991921 0.061004621 -0.051314236)
(1.4169694 0.071784 -0.051823679)
(1.3964013 0.081240357 -0.050234228)
(0.088336907 -0.0011048343 -0.0010049832)
(0.28100841 -0.0038323904 -0.0034681077)
(0.51037209 -0.0077257271 -0.0068185541)
(0.75490683 -0.013020358 -0.010934042)
(0.97593733 -0.01974619 -0.015140411)
(1.1301922 -0.02733446 -0.018325811)
(1.1951013 -0.034520571 -0.01968922)
(1.1855973 -0.040108183 -0.019542498)
(1.1369674 -0.04323208 -0.018982612)
(0.096516487 -0.0012032329 -0.00097585392)
(0.30488977 -0.004187475 -0.0034071887)
(0.54914102 -0.0084432536 -0.0067963303)
(0.80280861 -0.014179321 -0.011017386)
(1.021496 -0.021286345 -0.015231826)
(1.1598567 -0.028880632 -0.018128303)
(1.2007163 -0.035489214 -0.018892431)
(1.1686459 -0.040079614 -0.018208912)
(1.1060377 -0.042460128 -0.017252414)
(0.10410886 -0.0012099779 -0.00086051798)
(0.32719141 -0.0043032376 -0.0031036251)
(0.58552893 -0.0088062615 -0.0063940411)
(0.84795536 -0.014909987 -0.01063777)
(1.0647596 -0.022324636 -0.01486699)
(1.1891005 -0.029817934 -0.017561591)
(1.2094322 -0.035738833 -0.017876624)
(1.1592334 -0.039240222 -0.016680837)
(1.0874689 -0.040671844 -0.015366593)
(0.11106007 -0.0012445135 -0.00077934636)
(0.34759736 -0.0044886758 -0.0028862794)
(0.61883793 -0.0092673822 -0.0061209675)
(0.88939867 -0.015735914 -0.010406193)
(1.1049448 -0.023375102 -0.014633547)
(1.2176837 -0.03058343 -0.017086377)
(1.2213407 -0.035608037 -0.016912089)
(1.1569865 -0.037909325 -0.015226775)
(1.0782897 -0.038355467 -0.013617159)
(0.11701986 -0.0012627126 -0.00069691725)
(0.36524283 -0.0046342911 -0.0026635537)
(0.6479041 -0.0096776349 -0.0058412623)
(0.92597713 -0.01649823 -0.010171491)
(1.1411097 -0.024289444 -0.014404462)
(1.2447909 -0.031051648 -0.016619888)
(1.2354081 -0.035015848 -0.015965188)
(1.1601928 -0.036079315 -0.013818344)
(1.0761586 -0.035567321 -0.011936175)
(0.12217127 -0.0012822524 -0.00061209735)
(0.38055154 -0.0047723362 -0.0024214148)
(0.67325212 -0.010053868 -0.0055118594)
(0.95814647 -0.017166758 -0.0098417694)
(1.1734509 -0.024979046 -0.014036016)
(1.270105 -0.031101328 -0.015989963)
(1.2505565 -0.033868681 -0.014867318)
(1.1670643 -0.03372262 -0.012303758)
(1.0789517 -0.03241536 -0.010222483)
(0.12666829 -0.0013153877 -0.00053828073)
(0.39392559 -0.0049032617 -0.0021941996)
(0.69547827 -0.010332409 -0.0051461286)
(0.98659609 -0.01758291 -0.0093606008)
(1.2025485 -0.025219406 -0.013387154)
(1.2937465 -0.030523203 -0.015003561)
(1.2661262 -0.032033433 -0.013421448)
(1.1762455 -0.030804407 -0.010522241)
(1.0850167 -0.028905612 -0.0083530091)
(0.13041035 -0.0013100646 -0.00046089548)
(0.40518199 -0.0048268821 -0.0018741288)
(0.71453784 -0.010200721 -0.004624865)
(1.0115713 -0.017369293 -0.0086267377)
(1.2288958 -0.024576699 -0.012292852)
(1.3160682 -0.028941579 -0.013458593)
(1.2818928 -0.029285674 -0.011470908)
(1.1868301 -0.027231702 -0.0083871422)
(1.0930704 -0.025002546 -0.0063248293)
(0.13336576 -0.0011639301 -0.00034655503)
(0.41416384 -0.004303215 -0.0014832558)
(0.72998434 -0.0090547385 -0.0037706845)
(1.032768 -0.015453293 -0.0072171938)
(1.2523952 -0.022329202 -0.010925164)
(1.3369447 -0.025820578 -0.011484211)
(1.2974292 -0.025290637 -0.0091302114)
(1.1979151 -0.022836014 -0.006120759)
(1.1018523 -0.020643611 -0.0044707969)
(0.13558873 -0.00087253338 -0.00023708577)
(0.42097623 -0.0033428753 -0.0011330359)
(0.74176374 -0.0072014707 -0.0032370911)
(1.0489377 -0.012399458 -0.0065585286)
(1.2716201 -0.017566206 -0.0097956716)
(1.3551153 -0.02047556 -0.0099009665)
(1.3115585 -0.019688505 -0.0071296136)
(1.2081022 -0.017508356 -0.0046325428)
(1.1096681 -0.015886917 -0.0038547373)
(0.13732615 -0.00053388398 -0.00016703276)
(0.42612169 -0.0021105519 -0.00091282677)
(0.7504029 -0.0046306289 -0.0029200701)
(1.0604384 -0.0080318977 -0.0062386967)
(1.2845156 -0.01130286 -0.0095960568)
(1.3680132 -0.012923681 -0.010590046)
(1.3219889 -0.012552337 -0.0069377754)
(1.2148063 -0.011369019 -0.0063039655)
(1.1138955 -0.010378014 -0.0053937999)
(0.1380551 -0.00018191354 -0.00013574648)
(0.42844247 -0.00072805342 -0.00081273806)
(0.7545408 -0.0016068884 -0.0027851472)
(1.0662081 -0.0027894512 -0.0061252628)
(1.2910528 -0.0039034932 -0.0095710159)
(1.3739902 -0.0044097371 -0.010847379)
(1.3262987 -0.0043444939 -0.0088947416)
(1.2176675 -0.0039967222 -0.0068165052)
(1.1158789 -0.0036080245 -0.0057261601)
(0.13805509 0.0001819198 -0.00013574597)
(0.42844245 0.00072808147 -0.00081273107)
(0.75454076 0.0016069714 -0.0027851445)
(1.0662081 0.00278962 -0.0061252671)
(1.2910527 0.0039038094 -0.0095710195)
(1.3739902 0.0044101798 -0.010847369)
(1.3262986 0.0043449877 -0.00889472)
(1.2176674 0.0039971517 -0.0068164925)
(1.1158788 0.0036082499 -0.005726146)
(0.13732614 0.00053389553 -0.00016703458)
(0.42612165 0.0021106007 -0.00091281912)
(0.75040281 0.0046307517 -0.0029200599)
(1.0604383 0.0080321108 -0.0062386977)
(1.2845155 0.011303224 -0.0095960672)
(1.3680131 0.012924179 -0.010590022)
(1.3219887 0.012552865 -0.0069376515)
(1.2148061 0.011369462 -0.0063039096)
(1.1138953 0.010378231 -0.0053937287)
(0.13558872 0.00087254712 -0.00023709046)
(0.42097619 0.0033429318 -0.0011330612)
(0.74176364 0.0072016213 -0.0032370892)
(1.0489375 0.012399716 -0.0065585357)
(1.2716199 0.017566614 -0.0097957121)
(1.355115 0.02047609 -0.0099009658)
(1.3115582 0.019689089 -0.0071295605)
(1.2081019 0.017508807 -0.00463245)
(1.1096678 0.015887104 -0.0038545417)
(0.13336575 0.0011639548 -0.00034655724)
(0.41416381 0.004303277 -0.0014833345)
(0.72998427 0.0090549025 -0.0037707211)
(1.0327679 0.015453577 -0.0072172321)
(1.252395 0.022329601 -0.010925227)
(1.3369444 0.025821105 -0.011484226)
(1.2974289 0.025291229 -0.009130167)
(1.1979148 0.022836479 -0.0061206428)
(1.101852 0.020643797 -0.0044706603)
(0.13041034 0.0013101107 -0.0004609024)
(0.40518197 0.0048269767 -0.0018742254)
(0.7145378 0.010200916 -0.004624929)
(1.0115712 0.017369591 -0.0086267843)
(1.2288956 0.024577081 -0.012292909)
(1.3160679 0.02894208 -0.013458621)
(1.2818924 0.029286237 -0.011470884)
(1.1868297 0.027232157 -0.0083870364)
(1.09307 0.025002721 -0.0063247285)
(0.12666829 0.0013154295 -0.00053829095)
(0.39392558 0.0049033635 -0.0021942467)
(0.69547825 0.010332585 -0.0051461585)
(0.986596 0.017583185 -0.0093606181)
(1.2025483 0.025219778 -0.013387214)
(1.2937462 0.030523698 -0.015003642)
(1.2661259 0.032033975 -0.01342149)
(1.1762451 0.030804841 -0.010522193)
(1.0850163 0.028905738 -0.0083528951)
(0.12217126 0.001282279 -0.00061210591)
(0.38055151 0.0047724229 -0.0024214525)
(0.67325207 0.010054017 -0.005511917)
(0.95814639 0.01716701 -0.0098418747)
(1.1734507 0.024979418 -0.014036184)
(1.2701047 0.03110181 -0.015990132)
(1.2505562 0.033869195 -0.014867448)
(1.1670639 0.033722992 -0.012303756)
(1.0789513 0.032415408 -0.010222301)
(0.11701985 0.0012627417 -0.00069693581)
(0.36524279 0.0046343834 -0.002663635)
(0.64790404 0.0096777928 -0.0058414089)
(0.92597705 0.016498486 -0.010171705)
(1.1411095 0.024289802 -0.014404676)
(1.2447907 0.031052097 -0.016620127)
(1.2354078 0.035016273 -0.015965398)
(1.1601924 0.036079587 -0.013818375)
(1.0761582 0.035567398 -0.011936032)
(0.11106007 0.0012445503 -0.00077937033)
(0.34759733 0.0044887796 -0.0028863789)
(0.61883787 0.0092675626 -0.0061211359)
(0.88939859 0.015736183 -0.010406409)
(1.1049447 0.023375454 -0.014633813)
(1.2176835 0.030583848 -0.017086713)
(1.2213404 0.035608384 -0.016912374)
(1.1569861 0.037909521 -0.015226984)
(1.0782893 0.038355569 -0.013617221)
(0.10410885 0.0012100126 -0.00086054157)
(0.32719137 0.0043033376 -0.0031037174)
(0.58552886 0.0088064392 -0.006394199)
(0.84795528 0.014910227 -0.010637999)
(1.0647595 0.022324951 -0.014867297)
(1.1891003 0.029818291 -0.017561948)
(1.2094318 0.035739162 -0.017877023)
(1.159233 0.039240447 -0.016681264)
(1.0874686 0.040671869 -0.01536673)
(0.096516484 0.001203269 -0.0009758808)
(0.30488975 0.0041875816 -0.0034072827)
(0.54914097 0.0084434414 -0.0067964908)
(0.80280853 0.014179555 -0.01101763)
(1.0214959 0.021286614 -0.015232183)
(1.1598566 0.028880925 -0.018128818)
(1.200716 0.035489469 -0.018893043)
(1.1686457 0.0400798 -0.018209387)
(1.1060373 0.042460083 -0.017252598)
(0.08833691 0.001104871 -0.0010050155)
(0.28100841 0.0038324888 -0.0034682161)
(0.51037206 0.007725908 -0.0068187379)
(0.75490677 0.01302059 -0.010934344)
(0.97593723 0.019746428 -0.015140886)
(1.1301921 0.027334718 -0.018326381)
(1.1951011 0.034520841 -0.019689811)
(1.1855971 0.040108432 -0.01954301)
(1.1369671 0.043232093 -0.018982876)
(0.099613792 -0.00053735187 -0.00050055598)
(0.31567423 -0.0017979433 -0.0016618551)
(0.57045099 -0.003512359 -0.0031965688)
(0.8386897 -0.0057035205 -0.0051725319)
(1.078801 -0.0082157124 -0.0076096675)
(1.2480357 -0.010694938 -0.010256292)
(1.3263298 -0.012695624 -0.012507564)
(1.3296104 -0.014065908 -0.013753695)
(1.2913997 -0.014837287 -0.014023547)
(0.1085943 -0.00072662765 -0.00059709873)
(0.3415403 -0.0023827007 -0.0019499247)
(0.611627 -0.0045596393 -0.0036848827)
(0.88825062 -0.0072233099 -0.0058764515)
(1.1246045 -0.010116169 -0.0085384844)
(1.2769954 -0.012742246 -0.011363778)
(1.3312235 -0.014582749 -0.013661031)
(1.3124308 -0.015557787 -0.014804964)
(1.2606259 -0.015893886 -0.014718644)
(0.11672081 -0.00083814454 -0.00059863478)
(0.36499755 -0.0027462542 -0.0019605243)
(0.64896999 -0.0052387861 -0.0037118467)
(0.93306615 -0.0082421 -0.0059598453)
(1.1658356 -0.011405531 -0.008747829)
(1.3032109 -0.014091533 -0.011733722)
(1.3369777 -0.015713633 -0.014149835)
(1.3005617 -0.016303561 -0.015354619)
(1.2400122 -0.016295839 -0.015275075)
(0.12399495 -0.00092667457 -0.00057613651)
(0.38590217 -0.0030276861 -0.0018898604)
(0.68210828 -0.0057510753 -0.003592017)
(0.97271416 -0.0089943058 -0.0058293969)
(1.2024467 -0.012325886 -0.0086813327)
(1.3273248 -0.014975762 -0.01178205)
(1.3446184 -0.016315765 -0.014315868)
(1.2946529 -0.016510622 -0.015635929)
(1.2275946 -0.016191228 -0.015662949)
(0.1300431 -0.00096915165 -0.0005237788)
(0.4033672 -0.003172769 -0.0017292703)
(0.70991686 -0.006030267 -0.0033232003)
(1.0061663 -0.0094230597 -0.0055025554)
(1.2336907 -0.012844599 -0.0083884425)
(1.3487412 -0.015392255 -0.011589995)
(1.3533235 -0.01641502 -0.014249073)
(1.293241 -0.016228821 -0.01571101)
(1.2213731 -0.015639746 -0.015882899)
(0.13508606 -0.00097454058 -0.00044787258)
(0.41791153 -0.0032011363 -0.0014950337)
(0.73305076 -0.0060968141 -0.0029317897)
(1.0340034 -0.0095393949 -0.0050112133)
(1.2598489 -0.012959711 -0.0079005537)
(1.3672129 -0.015335452 -0.011186963)
(1.3621169 -0.016021674 -0.013983539)
(1.2946726 -0.015494124 -0.015603407)
(1.219416 -0.014684936 -0.01593754)
(0.13928626 -0.00094150309 -0.00036405541)
(0.42995443 -0.0031041183 -0.0012309885)
(0.75211222 -0.0059309995 -0.0024791229)
(1.0568753 -0.0093079326 -0.0044162004)
(1.2814079 -0.012623358 -0.0072636431)
(1.3827787 -0.014763578 -0.010607692)
(1.3703541 -0.01511304 -0.013537321)
(1.2976505 -0.014304318 -0.015336269)
(1.220116 -0.013347407 -0.015846956)
(0.14257413 -0.00085512979 -0.0002730172)
(0.43942036 -0.0028371467 -0.00094104207)
(0.76717335 -0.0054561658 -0.0019737116)
(1.0750987 -0.0086230272 -0.0037283258)
(1.2988364 -0.01171736 -0.0064882878)
(1.3957391 -0.013583116 -0.0098653895)
(1.3778275 -0.013644658 -0.012939977)
(1.301355 -0.012649155 -0.01494952)
(1.2223112 -0.011624627 -0.015659899)
(0.14503485 -0.00070679636 -0.00018199018)
(0.44655485 -0.0023699274 -0.00064838978)
(0.77862931 -0.0046051154 -0.0014530863)
(1.0891615 -0.0073623851 -0.0029971626)
(1.3125911 -0.010101489 -0.0056561334)
(1.4063337 -0.011674181 -0.0090447199)
(1.3843728 -0.01155311 -0.012281519)
(1.3051575 -0.010509272 -0.014540949)
(1.2250805 -0.0095198774 -0.01547317)
(0.1467656 -0.00051274893 -0.00010579312)
(0.4516301 -0.0017475478 -0.00040498587)
(0.78687264 -0.0034465486 -0.0010265436)
(1.0994219 -0.0055857976 -0.0024003731)
(1.3228602 -0.0077224518 -0.004952868)
(1.4145107 -0.0089587606 -0.0083579175)
(1.3896796 -0.0087980176 -0.011750528)
(1.3084808 -0.0078924795 -0.014289733)
(1.227677 -0.0070744137 -0.015427893)
(0.14809098 -0.00030731562 -5.5858785e-05)
(0.45534583 -0.0010619026 -0.00024693183)
(0.7926794 -0.0021190817 -0.00075896499)
(1.1064182 -0.0034675123 -0.0020386293)
(1.3296918 -0.0048148514 -0.0045490655)
(1.4199516 -0.0055818476 -0.0080650252)
(1.3932768 -0.0054834472 -0.01156808)
(1.3107745 -0.0049031141 -0.014357703)
(1.2295352 -0.0043642217 -0.015558494)
(0.14854636 -0.00010292484 -3.3182358e-05)
(0.45676784 -0.00035795721 -0.00017502894)
(0.79511307 -0.00071785227 -0.00063925164)
(1.1095848 -0.0011783437 -0.0018829272)
(1.3329551 -0.0016341623 -0.0043863858)
(1.4226071 -0.0018843546 -0.0079621595)
(1.3950564 -0.0018544943 -0.011636246)
(1.3119532 -0.0016619378 -0.014427643)
(1.2305076 -0.0014718539 -0.015635164)
(0.14854636 0.00010295704 -3.3182658e-05)
(0.45676784 0.00035803811 -0.00017502622)
(0.79511307 0.00071799651 -0.00063925611)
(1.1095847 0.0011785705 -0.0018829321)
(1.3329551 0.0016345018 -0.0043863854)