/*--------------------------------*- C++ -*----------------------------------*\
| =========                 |                                                 |
| \\      /  F ield         | OpenFOAM: The Open Source CFD Toolbox           |
|  \\    /   O peration     | Version:  2406                                  |
|   \\  /    A nd           | Website:  www.openfoam.com                      |
|    \\/     M anipulation  |                                                 |
\*---------------------------------------------------------------------------*/
FoamFile
{
    version     2.0;
    format      ascii;
    arch        "LSB;label=32;scalar=64";
    class       volScalarField;
    location    "19.75";
    object      p;
}
// * * * * * * * * * * * * * * * * * * * * * * * * * * * * * * * * * * * * * //

dimensions      [0 2 -2 0 0 0 0];

internalField   nonuniform List<scalar> 
34560
(
-18.955456
-18.946101
-18.934989
-18.921756
-18.904473
-18.882521
-18.858854
-18.838478
-18.825125
-19.015415
-19.005036
-18.992383
-18.97599
-18.953271
-18.924359
-18.894444
-18.870599
-18.856909
-19.052763
-19.042193
-19.029761
-19.013531
-18.989879
-18.958472
-18.925439
-18.898888
-18.882772
-19.083057
-19.07263
-19.060661
-19.044679
-19.02044
-18.987407
-18.95181
-18.922414
-18.903127
-19.105953
-19.09587
-19.084768
-19.069651
-19.045439
-19.011107
-18.973268
-18.941368
-18.91873
-19.118389
-19.109295
-19.099915
-19.08665
-19.063563
-19.028977
-18.989533
-18.955533
-18.929601
-19.124417
-19.11635
-19.108737
-19.097496
-19.075933
-19.041333
-19.000812
-18.965004
-18.935908
-19.124673
-19.117728
-19.112
-19.10294
-19.083075
-19.048823
-19.007812
-18.970233
-18.938294
-19.120946
-19.115111
-19.111196
-19.10424
-19.086106
-19.052544
-19.011318
-18.972099
-18.937734
-19.115118
-19.11032
-19.108034
-19.102947
-19.086404
-19.053685
-19.012319
-18.971692
-18.93537
-19.109499
-19.105563
-19.104549
-19.100842
-19.08548
-19.053446
-19.011915
-18.970211
-18.932482
-19.106515
-19.102947
-19.102496
-19.09942
-19.084615
-19.052895
-19.0112
-18.968852
-18.93033
-19.106515
-19.102947
-19.102496
-19.09942
-19.084615
-19.052895
-19.0112
-18.968852
-18.93033
-19.109499
-19.105563
-19.104548
-19.100842
-19.08548
-19.053446
-19.011915
-18.97021
-18.932481
-19.115119
-19.11032
-19.108035
-19.102947
-19.086405
-19.053685
-19.012319
-18.971691
-18.935368
-19.120948
-19.115113
-19.111197
-19.104241
-19.086107
-19.052545
-19.011319
-18.972098
-18.937733
-19.124675
-19.11773
-19.112002
-19.102942
-19.083077
-19.048825
-19.007813
-18.970233
-18.938293
-19.12442
-19.116352
-19.108739
-19.097499
-19.075935
-19.041335
-19.000814
-18.965005
-18.935907
-19.118391
-19.109297
-19.099917
-19.086652
-19.063565
-19.028979
-18.989535
-18.955534
-18.929601
-19.105955
-19.095872
-19.08477
-19.069653
-19.045441
-19.011109
-18.97327
-18.941369
-18.918731
-19.083059
-19.072633
-19.060664
-19.044682
-19.020443
-18.98741
-18.951813
-18.922416
-18.903128
-19.052766
-19.042196
-19.029765
-19.013535
-18.989882
-18.958477
-18.925443
-18.898891
-18.882774
-19.01542
-19.00504
-18.992388
-18.975995
-18.953276
-18.924365
-18.894449
-18.870604
-18.856913
-18.955461
-18.946107
-18.934995
-18.921763
-18.904481
-18.882528
-18.858861
-18.838484
-18.825132
-17.585998
-17.585772
-17.585818
-17.586086
-17.585984
-17.584852
-17.582644
-17.579934
-17.576806
-17.587194
-17.586894
-17.586952
-17.587261
-17.587
-17.585299
-17.582058
-17.577675
-17.572143
-17.584501
-17.584156
-17.584315
-17.584809
-17.584542
-17.582403
-17.578267
-17.572486
-17.565246
-17.577766
-17.577372
-17.57766
-17.578413
-17.57825
-17.575785
-17.570842
-17.563812
-17.555023
-17.56727
-17.56681
-17.567221
-17.568257
-17.568241
-17.565482
-17.559687
-17.551435
-17.541237
-17.554041
-17.553415
-17.553841
-17.555059
-17.555096
-17.551929
-17.545227
-17.535782
-17.524377
-17.538517
-17.537694
-17.538077
-17.539407
-17.539419
-17.535784
-17.528187
-17.517621
-17.50527
-17.521956
-17.520894
-17.521153
-17.522485
-17.522367
-17.518193
-17.50973
-17.498146
-17.485128
-17.505809
-17.504488
-17.504558
-17.505794
-17.505457
-17.500697
-17.49141
-17.478952
-17.465528
-17.491747
-17.490163
-17.490002
-17.491064
-17.490446
-17.485125
-17.475096
-17.461937
-17.44831
-17.481276
-17.479473
-17.479103
-17.479983
-17.479105
-17.473345
-17.462746
-17.449097
-17.435395
-17.475558
-17.473663
-17.473199
-17.473994
-17.472984
-17.466998
-17.456101
-17.442199
-17.428479
-17.475558
-17.473663
-17.4732
-17.473994
-17.472984
-17.466998
-17.456101
-17.4422
-17.428479
-17.481277
-17.479474
-17.479104
-17.479984
-17.479105
-17.473346
-17.462746
-17.449097
-17.435396
-17.491749
-17.490164
-17.490003
-17.491065
-17.490447
-17.485126
-17.475096
-17.461938
-17.44831
-17.505811
-17.504489
-17.50456
-17.505795
-17.505459
-17.500698
-17.491411
-17.478953
-17.465528
-17.521957
-17.520896
-17.521154
-17.522486
-17.522368
-17.518194
-17.509732
-17.498148
-17.485129
-17.538518
-17.537695
-17.538078
-17.539408
-17.53942
-17.535785
-17.528188
-17.517623
-17.505272
-17.554042
-17.553416
-17.553841
-17.55506
-17.555097
-17.551931
-17.545229
-17.535784
-17.524379
-17.567271
-17.56681
-17.567222
-17.568257
-17.568242
-17.565483
-17.559689
-17.551437
-17.541239
-17.577767
-17.577373
-17.577661
-17.578414
-17.578252
-17.575786
-17.570844
-17.563814
-17.555026
-17.584503
-17.584158
-17.584316
-17.584811
-17.584544
-17.582405
-17.57827
-17.572489
-17.56525
-17.587196
-17.586895
-17.586954
-17.587263
-17.587001
-17.585301
-17.58206
-17.577678
-17.572147
-17.586
-17.585774
-17.58582
-17.586088
-17.585986
-17.584854
-17.582646
-17.579937
-17.576811
-17.114708
-17.114712
-17.114695
-17.114577
-17.114383
-17.114207
-17.11419
-17.114392
-17.114371
-17.119554
-17.11957
-17.119503
-17.119207
-17.118686
-17.118052
-17.117469
-17.117044
-17.116557
-17.123459
-17.123501
-17.123453
-17.123131
-17.122504
-17.121662
-17.120757
-17.11995
-17.119202
-17.126927
-17.12699
-17.126954
-17.126609
-17.125902
-17.124922
-17.123794
-17.122702
-17.121698
-17.129867
-17.129949
-17.129929
-17.129571
-17.128826
-17.127748
-17.126452
-17.125129
-17.123899
-17.132229
-17.132337
-17.132346
-17.131999
-17.131243
-17.130111
-17.128706
-17.127212
-17.125802
-17.134112
-17.134237
-17.134267
-17.133925
-17.133167
-17.132006
-17.130539
-17.128934
-17.127387
-17.135534
-17.13567
-17.135713
-17.135385
-17.13463
-17.133459
-17.131958
-17.130287
-17.128643
-17.136555
-17.136697
-17.136749
-17.13643
-17.135682
-17.134512
-17.132997
-17.131286
-17.129576
-17.137236
-17.137382
-17.137439
-17.137126
-17.136385
-17.135219
-17.133699
-17.131963
-17.130217
-17.137649
-17.137797
-17.137855
-17.137544
-17.136805
-17.135642
-17.134118
-17.132367
-17.130607
-17.137838
-17.137986
-17.138044
-17.137732
-17.136994
-17.135832
-17.134306
-17.13255
-17.130785
-17.137838
-17.137986
-17.138044
-17.137732
-17.136995
-17.135832
-17.134306
-17.13255
-17.130785
-17.137649
-17.137798
-17.137856
-17.137544
-17.136805
-17.135642
-17.134118
-17.132367
-17.130607
-17.137236
-17.137383
-17.13744
-17.137126
-17.136385
-17.135219
-17.133699
-17.131963
-17.130217
-17.136555
-17.136697
-17.13675
-17.13643
-17.135682
-17.134512
-17.132997
-17.131287
-17.129577
-17.135535
-17.135671
-17.135714
-17.135385
-17.134631
-17.13346
-17.131959
-17.130288
-17.128644
-17.134113
-17.134238
-17.134267
-17.133926
-17.133167
-17.132007
-17.13054
-17.128935
-17.127388
-17.132229
-17.132338
-17.132346
-17.131999
-17.131244
-17.130111
-17.128706
-17.127213
-17.125804
-17.129868
-17.12995
-17.129929
-17.129572
-17.128826
-17.127748
-17.126452
-17.12513
-17.123901
-17.126927
-17.126991
-17.126955
-17.126609
-17.125902
-17.124923
-17.123794
-17.122702
-17.121699
-17.12346
-17.123502
-17.123454
-17.123131
-17.122505
-17.121662
-17.120757
-17.119951
-17.119204
-17.119555
-17.11957
-17.119504
-17.119207
-17.118686
-17.118053
-17.11747
-17.117046
-17.116559
-17.114709
-17.114714
-17.114696
-17.114578
-17.114384
-17.114209
-17.114192
-17.114394
-17.114375
-16.085529
-16.085579
-16.085652
-16.085782
-16.085933
-16.085994
-16.085848
-16.085449
-16.084819
-16.085579
-16.085623
-16.085686
-16.0858
-16.085913
-16.085889
-16.085582
-16.084914
-16.083959
-16.085691
-16.085724
-16.085774
-16.085874
-16.085964
-16.085887
-16.085485
-16.084686
-16.083598
-16.085662
-16.085684
-16.085721
-16.085812
-16.085886
-16.085772
-16.085299
-16.084399
-16.083175
-16.085493
-16.085506
-16.08553
-16.085611
-16.085666
-16.085512
-16.084968
-16.083974
-16.082633
-16.08522
-16.085221
-16.085231
-16.085296
-16.085331
-16.085141
-16.084532
-16.083458
-16.082027
-16.084841
-16.08483
-16.084826
-16.084879
-16.084897
-16.084676
-16.084018
-16.082884
-16.081392
-16.084407
-16.084385
-16.084367
-16.084408
-16.08441
-16.084164
-16.083466
-16.082291
-16.080747
-16.08397
-16.083936
-16.083906
-16.083935
-16.083922
-16.083653
-16.082925
-16.08172
-16.080091
-16.083585
-16.08354
-16.083497
-16.083515
-16.083489
-16.0832
-16.082438
-16.081186
-16.079496
-16.083295
-16.083241
-16.083189
-16.083198
-16.083162
-16.082856
-16.08207
-16.080766
-16.079076
-16.083135
-16.083078
-16.083021
-16.083026
-16.082984
-16.082665
-16.081867
-16.080555
-16.078865
-16.083135
-16.083078
-16.083022
-16.083026
-16.082984
-16.082665
-16.081867
-16.080555
-16.078865
-16.083295
-16.083242
-16.083189
-16.083198
-16.083162
-16.082856
-16.08207
-16.080766
-16.079077
-16.083586
-16.083541
-16.083498
-16.083515
-16.083489
-16.0832
-16.082438
-16.081186
-16.079497
-16.083971
-16.083937
-16.083906
-16.083935
-16.083923
-16.083654
-16.082925
-16.08172
-16.080092
-16.084408
-16.084386
-16.084368
-16.084409
-16.084411
-16.084164
-16.083467
-16.082292
-16.080748
-16.084841
-16.084831
-16.084827
-16.08488
-16.084898
-16.084676
-16.084018
-16.082885
-16.081393
-16.085221
-16.085222
-16.085231
-16.085296
-16.085332
-16.085141
-16.084533
-16.083459
-16.082028
-16.085494
-16.085506
-16.08553
-16.085611
-16.085666
-16.085512
-16.084968
-16.083974
-16.082634
-16.085662
-16.085685
-16.085721
-16.085812
-16.085886
-16.085772
-16.085299
-16.084399
-16.083176
-16.085691
-16.085725
-16.085774
-16.085875
-16.085964
-16.085887
-16.085485
-16.084686
-16.083598
-16.08558
-16.085624
-16.085687
-16.085801
-16.085914
-16.085889
-16.085582
-16.084914
-16.083959
-16.08553
-16.08558
-16.085653
-16.085783
-16.085934
-16.085995
-16.085849
-16.08545
-16.084819
-15.431147
-15.431196
-15.431252
-15.431288
-15.431318
-15.431382
-15.431528
-15.431761
-15.431886
-15.431512
-15.431566
-15.431614
-15.431618
-15.431589
-15.431572
-15.431616
-15.431731
-15.43181
-15.431886
-15.431938
-15.431981
-15.431966
-15.431907
-15.431857
-15.43187
-15.431968
-15.432104
-15.432197
-15.432245
-15.432279
-15.432249
-15.432172
-15.432108
-15.432118
-15.432223
-15.432388
-15.432453
-15.432495
-15.43252
-15.432475
-15.432379
-15.432303
-15.432313
-15.432426
-15.432612
-15.432668
-15.432704
-15.43272
-15.432659
-15.432547
-15.432461
-15.432473
-15.432594
-15.432791
-15.432838
-15.432868
-15.432876
-15.432801
-15.432677
-15.432584
-15.432599
-15.432727
-15.432924
-15.432971
-15.432995
-15.432994
-15.43291
-15.432775
-15.432677
-15.432697
-15.432828
-15.433044
-15.433071
-15.433089
-15.433082
-15.43299
-15.432847
-15.432749
-15.432773
-15.432922
-15.433225
-15.433143
-15.433157
-15.433144
-15.433046
-15.4329
-15.432806
-15.432851
-15.433057
-15.433429
-15.433193
-15.433204
-15.433186
-15.433084
-15.432937
-15.432848
-15.432916
-15.43319
-15.43357
-15.433215
-15.433224
-15.433206
-15.433103
-15.432956
-15.432876
-15.432958
-15.433248
-15.433636
-15.433215
-15.433225
-15.433206
-15.433103
-15.432956
-15.432876
-15.432958
-15.433249
-15.433636
-15.433193
-15.433204
-15.433187
-15.433084
-15.432937
-15.432848
-15.432917
-15.43319
-15.433571
-15.433144
-15.433158
-15.433144
-15.433046
-15.432901
-15.432806
-15.432852
-15.433058
-15.43343
-15.433071
-15.43309
-15.433082
-15.43299
-15.432848
-15.432749
-15.432774
-15.432923
-15.433226
-15.432972
-15.432996
-15.432995
-15.432911
-15.432775
-15.432678
-15.432697
-15.432829
-15.433045
-15.432839
-15.432869
-15.432876
-15.432802
-15.432677
-15.432584
-15.432599
-15.432727
-15.432925
-15.432668
-15.432704
-15.43272
-15.432659
-15.432547
-15.432461
-15.432473
-15.432595
-15.432792
-15.432453
-15.432495
-15.43252
-15.432475
-15.432379
-15.432303
-15.432313
-15.432426
-15.432612
-15.432197
-15.432244
-15.432278
-15.432248
-15.432171
-15.432107
-15.432117
-15.432223
-15.432388
-15.431885
-15.431938
-15.43198
-15.431965
-15.431906
-15.431856
-15.431869
-15.431967
-15.432103
-15.431511
-15.431564
-15.431613
-15.431616
-15.431587
-15.431571
-15.431615
-15.431729
-15.431808
-15.431145
-15.431195
-15.43125
-15.431286
-15.431316
-15.43138
-15.431525
-15.431758
-15.431883
-14.564326
-14.564339
-14.564367
-14.564432
-14.564525
-14.564611
-14.564651
-14.564624
-14.564527
-14.564515
-14.564524
-14.564548
-14.564604
-14.564678
-14.564725
-14.564692
-14.564555
-14.564351
-14.564762
-14.564768
-14.564787
-14.564838
-14.564903
-14.564932
-14.564868
-14.564692
-14.564457
-14.564994
-14.564995
-14.56501
-14.565057
-14.565118
-14.565137
-14.565055
-14.564854
-14.564585
-14.565207
-14.565204
-14.565213
-14.565255
-14.56531
-14.565318
-14.56522
-14.565002
-14.564706
-14.565396
-14.565389
-14.565393
-14.56543
-14.565478
-14.565477
-14.565368
-14.56514
-14.564823
-14.565548
-14.565539
-14.565539
-14.565572
-14.565613
-14.565604
-14.565485
-14.565231
-14.56483
-14.565665
-14.565654
-14.565651
-14.56568
-14.565715
-14.565694
-14.565553
-14.565223
-14.564719
-14.565747
-14.565735
-14.565729
-14.565753
-14.565783
-14.565747
-14.565553
-14.565151
-14.564609
-14.565799
-14.565786
-14.565779
-14.565799
-14.565817
-14.565756
-14.565517
-14.565086
-14.564523
-14.565827
-14.565814
-14.565805
-14.565821
-14.565828
-14.565744
-14.565489
-14.565042
-14.564467
-14.565839
-14.565826
-14.565816
-14.565831
-14.565833
-14.565738
-14.565475
-14.565019
-14.564442
-14.565839
-14.565826
-14.565817
-14.565831
-14.565833
-14.565739
-14.565476
-14.56502
-14.564442
-14.565828
-14.565814
-14.565806
-14.565822
-14.565829
-14.565745
-14.565489
-14.565042
-14.564468
-14.5658
-14.565787
-14.565779
-14.565799
-14.565818
-14.565756
-14.565518
-14.565087
-14.564524
-14.565748
-14.565736
-14.56573
-14.565754
-14.565783
-14.565748
-14.565554
-14.565152
-14.564611
-14.565666
-14.565655
-14.565651
-14.56568
-14.565715
-14.565695
-14.565554
-14.565224
-14.564721
-14.565549
-14.56554
-14.56554
-14.565572
-14.565613
-14.565604
-14.565486
-14.565232
-14.564832
-14.565396
-14.56539
-14.565394
-14.56543
-14.565478
-14.565477
-14.565368
-14.565142
-14.564826
-14.565207
-14.565204
-14.565213
-14.565255
-14.565309
-14.565318
-14.56522
-14.565003
-14.564709
-14.564993
-14.564995
-14.565009
-14.565056
-14.565117
-14.565136
-14.565054
-14.564855
-14.564588
-14.56476
-14.564766
-14.564785
-14.564836
-14.564901
-14.564931
-14.564867
-14.564692
-14.564459
-14.564512
-14.564522
-14.564545
-14.564601
-14.564675
-14.564722
-14.564689
-14.564554
-14.564352
-14.564323
-14.564335
-14.564364
-14.564428
-14.564521
-14.564608
-14.564648
-14.564621
-14.564527
-13.815407
-13.815425
-13.815446
-13.815461
-13.815473
-13.815489
-13.815522
-13.815582
-13.815618
-13.815406
-13.815426
-13.815446
-13.815454
-13.815454
-13.815454
-13.815465
-13.815493
-13.815514
-13.81544
-13.815459
-13.815476
-13.815479
-13.815471
-13.815464
-13.815473
-13.815505
-13.815554
-13.815469
-13.815486
-13.8155
-13.815498
-13.815485
-13.815476
-13.815488
-13.815529
-13.815594
-13.815499
-13.815513
-13.815523
-13.815515
-13.815496
-13.815483
-13.815496
-13.81554
-13.815613
-13.815537
-13.815548
-13.815553
-13.815539
-13.815513
-13.815496
-13.815506
-13.815548
-13.815627
-13.81558
-13.815588
-13.815589
-13.81557
-13.815538
-13.815518
-13.815529
-13.815596
-13.815756
-13.815631
-13.815635
-13.815632
-13.815608
-13.815574
-13.815556
-13.815588
-13.815739
-13.815992
-13.815685
-13.815685
-13.815679
-13.815652
-13.815617
-13.81561
-13.815701
-13.815923
-13.816199
-13.815738
-13.815736
-13.815726
-13.815698
-13.815669
-13.815686
-13.815826
-13.816068
-13.816349
-13.815781
-13.815777
-13.815766
-13.815738
-13.815716
-13.815758
-13.815914
-13.816164
-13.81644
-13.815804
-13.815799
-13.815787
-13.81576
-13.815741
-13.815793
-13.815956
-13.816211
-13.816481
-13.815805
-13.815799
-13.815787
-13.81576
-13.815741
-13.815793
-13.815957
-13.816211
-13.816482
-13.815782
-13.815778
-13.815767
-13.815739
-13.815717
-13.815758
-13.815914
-13.816165
-13.816441
-13.815739
-13.815737
-13.815727
-13.815699
-13.815669
-13.815686
-13.815827
-13.81607
-13.816351
-13.815686
-13.815687
-13.81568
-13.815653
-13.815618
-13.815611
-13.815703
-13.815924
-13.816202
-13.815632
-13.815636
-13.815633
-13.815609
-13.815575
-13.815557
-13.81559
-13.815741
-13.815995
-13.815582
-13.815589
-13.81559
-13.81557
-13.815539
-13.815519
-13.81553
-13.815598
-13.81576
-13.815538
-13.815549
-13.815554
-13.815539
-13.815514
-13.815496
-13.815507
-13.81555
-13.815632
-13.815499
-13.815513
-13.815523
-13.815515
-13.815495
-13.815483
-13.815496
-13.815542
-13.815617
-13.815468
-13.815484
-13.815498
-13.815496
-13.815483
-13.815474
-13.815487
-13.815531
-13.815599
-13.815437
-13.815456
-13.815474
-13.815477
-13.815468
-13.815462
-13.815471
-13.815506
-13.815558
-13.815402
-13.815422
-13.815442
-13.815451
-13.81545
-13.81545
-13.815462
-13.815492
-13.815517
-13.815403
-13.815421
-13.815442
-13.815457
-13.815469
-13.815485
-13.815518
-13.81558
-13.815618
-13.006326
-13.006327
-13.006334
-13.00635
-13.006375
-13.006402
-13.006418
-13.00641
-13.006363
-13.006397
-13.006397
-13.006402
-13.006415
-13.006434
-13.006445
-13.006431
-13.00638
-13.006294
-13.00648
-13.00648
-13.006482
-13.006494
-13.006508
-13.00651
-13.006481
-13.006413
-13.006313
-13.00656
-13.006557
-13.006558
-13.006567
-13.006578
-13.006574
-13.006536
-13.006454
-13.006337
-13.006632
-13.006628
-13.006627
-13.006634
-13.006641
-13.006632
-13.006585
-13.006489
-13.006354
-13.006695
-13.00669
-13.006687
-13.006692
-13.006696
-13.006682
-13.006627
-13.006516
-13.00636
-13.006746
-13.00674
-13.006735
-13.006738
-13.00674
-13.006721
-13.006653
-13.006524
-13.006351
-13.006783
-13.006776
-13.006771
-13.006772
-13.00677
-13.006742
-13.006659
-13.006516
-13.006334
-13.006809
-13.006801
-13.006795
-13.006793
-13.006786
-13.006749
-13.006657
-13.006506
-13.006319
-13.006825
-13.006818
-13.00681
-13.006806
-13.006795
-13.006753
-13.006654
-13.006498
-13.006307
-13.006836
-13.006828
-13.00682
-13.006814
-13.006801
-13.006756
-13.006652
-13.006492
-13.0063
-13.006841
-13.006833
-13.006824
-13.006818
-13.006804
-13.006757
-13.006651
-13.006489
-13.006297
-13.006842
-13.006833
-13.006825
-13.006818
-13.006804
-13.006757
-13.006652
-13.006489
-13.006297
-13.006837
-13.006829
-13.00682
-13.006815
-13.006801
-13.006756
-13.006653
-13.006493
-13.006301
-13.006827
-13.006819
-13.006811
-13.006807
-13.006796
-13.006754
-13.006656
-13.0065
-13.006309
-13.00681
-13.006803
-13.006796
-13.006794
-13.006787
-13.00675
-13.006658
-13.006508
-13.006322
-13.006785
-13.006778
-13.006772
-13.006773
-13.00677
-13.006743
-13.006661
-13.006519
-13.006338
-13.006747
-13.006741
-13.006737
-13.006739
-13.00674
-13.006722
-13.006654
-13.006526
-13.006355
-13.006696
-13.006691
-13.006688
-13.006692
-13.006696
-13.006682
-13.006628
-13.006518
-13.006365
-13.006633
-13.006628
-13.006627
-13.006633
-13.00664
-13.006631
-13.006585
-13.006491
-13.006358
-13.006559
-13.006556
-13.006556
-13.006565
-13.006576
-13.006572
-13.006535
-13.006455
-13.00634
-13.006478
-13.006477
-13.006479
-13.00649
-13.006504
-13.006506
-13.006479
-13.006412
-13.006315
-13.006393
-13.006393
-13.006397
-13.006411
-13.006429
-13.00644
-13.006427
-13.006377
-13.006293
-13.006321
-13.006323
-13.006329
-13.006345
-13.00637
-13.006397
-13.006413
-13.006404
-13.00636
-12.226634
-12.226639
-12.226645
-12.22665
-12.226654
-12.226661
-12.226673
-12.22669
-12.226698
-12.226614
-12.22662
-12.226625
-12.226628
-12.226629
-12.226631
-12.226635
-12.226641
-12.226642
-12.226603
-12.226608
-12.226613
-12.226615
-12.226614
-12.226613
-12.226616
-12.226623
-12.226633
-12.226592
-12.226597
-12.226601
-12.2266
-12.226598
-12.226596
-12.226599
-12.226611
-12.226627
-12.226582
-12.226586
-12.226588
-12.226586
-12.226581
-12.226578
-12.226581
-12.226596
-12.226619
-12.226576
-12.226579
-12.22658
-12.226575
-12.226568
-12.226562
-12.226564
-12.226585
-12.226616
-12.226573
-12.226575
-12.226574
-12.226568
-12.226558
-12.22655
-12.226558
-12.226584
-12.226619
-12.226574
-12.226575
-12.226574
-12.226566
-12.226555
-12.22655
-12.226563
-12.226589
-12.226623
-12.22658
-12.22658
-12.226577
-12.226569
-12.226559
-12.226557
-12.226567
-12.226591
-12.226624
-12.226585
-12.226585
-12.226582
-12.226574
-12.226564
-12.226561
-12.226568
-12.22659
-12.226624
-12.226589
-12.226588
-12.226585
-12.226576
-12.226566
-12.226561
-12.226566
-12.226588
-12.226624
-12.226591
-12.22659
-12.226586
-12.226577
-12.226567
-12.22656
-12.226565
-12.226587
-12.226624
-12.226591
-12.22659
-12.226586
-12.226578
-12.226567
-12.22656
-12.226565
-12.226588
-12.226625
-12.22659
-12.226589
-12.226585
-12.226577
-12.226567
-12.226561
-12.226567
-12.226589
-12.226626
-12.226587
-12.226586
-12.226583
-12.226575
-12.226565
-12.226562
-12.226569
-12.226592
-12.226627
-12.226581
-12.226581
-12.226579
-12.226571
-12.22656
-12.226558
-12.226569
-12.226593
-12.226628
-12.226576
-12.226577
-12.226575
-12.226567
-12.226556
-12.22655
-12.226564
-12.226591
-12.226627
-12.226574
-12.226576
-12.226575
-12.226569
-12.226558
-12.22655
-12.226559
-12.226586
-12.226623
-12.226577
-12.226579
-12.22658
-12.226575
-12.226567
-12.226561
-12.226565
-12.226587
-12.22662
-12.226582
-12.226586
-12.226588
-12.226585
-12.22658
-12.226577
-12.226581
-12.226598
-12.226623
-12.226591
-12.226595
-12.226599
-12.226598
-12.226595
-12.226594
-12.226598
-12.226611
-12.22663
-12.2266
-12.226605
-12.22661
-12.226611
-12.22661
-12.22661
-12.226613
-12.226622
-12.226635
-12.22661
-12.226615
-12.226621
-12.226624
-12.226625
-12.226626
-12.226631
-12.226638
-12.226642
-12.226629
-12.226634
-12.22664
-12.226644
-12.226649
-12.226655
-12.226667
-12.226685
-12.226695
-11.434224
-11.434224
-11.434225
-11.434229
-11.434235
-11.434241
-11.434244
-11.434242
-11.434231
-11.434237
-11.434238
-11.434239
-11.434242
-11.434246
-11.434248
-11.434245
-11.434234
-11.434215
-11.434256
-11.434256
-11.434257
-11.434259
-11.434262
-11.434263
-11.434257
-11.434244
-11.434224
-11.434274
-11.434274
-11.434274
-11.434276
-11.434278
-11.434278
-11.434272
-11.434257
-11.434236
-11.434291
-11.43429
-11.434289
-11.434291
-11.434293
-11.434292
-11.434285
-11.434269
-11.434246
-11.434307
-11.434305
-11.434304
-11.434304
-11.434305
-11.434304
-11.434296
-11.43428
-11.434256
-11.43432
-11.434317
-11.434316
-11.434316
-11.434316
-11.434314
-11.434306
-11.43429
-11.434265
-11.434331
-11.434328
-11.434326
-11.434325
-11.434325
-11.434322
-11.434314
-11.434298
-11.434274
-11.434339
-11.434336
-11.434334
-11.434333
-11.434332
-11.434328
-11.43432
-11.434305
-11.434282
-11.434346
-11.434343
-11.43434
-11.434339
-11.434337
-11.434333
-11.434326
-11.434312
-11.434288
-11.43435
-11.434347
-11.434344
-11.434343
-11.434341
-11.434337
-11.43433
-11.434316
-11.434292
-11.434352
-11.434349
-11.434346
-11.434345
-11.434343
-11.434339
-11.434332
-11.434318
-11.434295
-11.434353
-11.43435
-11.434347
-11.434345
-11.434343
-11.434339
-11.434332
-11.434319
-11.434295
-11.434351
-11.434348
-11.434345
-11.434343
-11.434341
-11.434337
-11.43433
-11.434317
-11.434294
-11.434347
-11.434344
-11.434341
-11.43434
-11.434338
-11.434334
-11.434327
-11.434313
-11.43429
-11.434341
-11.434338
-11.434335
-11.434334
-11.434333
-11.434329
-11.434321
-11.434307
-11.434285
-11.434332
-11.43433
-11.434327
-11.434326
-11.434326
-11.434323
-11.434315
-11.4343
-11.434278
-11.434321
-11.434319
-11.434317
-11.434316
-11.434317
-11.434314
-11.434307
-11.434292
-11.43427
-11.434307
-11.434305
-11.434304
-11.434304
-11.434305
-11.434304
-11.434297
-11.434282
-11.43426
-11.434291
-11.43429
-11.434289
-11.434289
-11.434291
-11.434291
-11.434284
-11.434271
-11.43425
-11.434273
-11.434272
-11.434271
-11.434273
-11.434275
-11.434276
-11.43427
-11.434258
-11.434239
-11.434253
-11.434253
-11.434253
-11.434255
-11.434258
-11.434259
-11.434255
-11.434243
-11.434226
-11.434233
-11.434233
-11.434234
-11.434237
-11.434241
-11.434243
-11.43424
-11.434231
-11.434214
-11.434219
-11.434219
-11.43422
-11.434224
-11.43423
-11.434235
-11.434238
-11.434237
-11.434228
-10.646726
-10.646727
-10.646728
-10.646729
-10.64673
-10.646732
-10.646733
-10.646736
-10.646735
-10.646727
-10.646728
-10.646729
-10.64673
-10.64673
-10.64673
-10.646729
-10.646727
-10.646723
-10.646729
-10.64673
-10.646731
-10.646731
-10.646731
-10.64673
-10.646729
-10.646727
-10.646725
-10.646731
-10.646731
-10.646732
-10.646732
-10.646731
-10.64673
-10.646729
-10.646728
-10.646727
-10.646732
-10.646732
-10.646732
-10.646732
-10.646731
-10.64673
-10.646729
-10.646728
-10.646728
-10.646733
-10.646733
-10.646733
-10.646732
-10.64673
-10.646728
-10.646728
-10.646728
-10.646729
-10.646733
-10.646733
-10.646732
-10.64673
-10.646728
-10.646727
-10.646726
-10.646728
-10.646729
-10.646733
-10.646733
-10.646732
-10.64673
-10.646727
-10.646725
-10.646726
-10.646728
-10.64673
-10.646733
-10.646733
-10.646732
-10.646729
-10.646727
-10.646725
-10.646725
-10.646727
-10.646731
-10.646734
-10.646733
-10.646732
-10.646729
-10.646726
-10.646724
-10.646724
-10.646727
-10.646731
-10.646734
-10.646733
-10.646732
-10.646729
-10.646726
-10.646724
-10.646724
-10.646728
-10.646732
-10.646734
-10.646734
-10.646732
-10.646729
-10.646726
-10.646724
-10.646724
-10.646728
-10.646732
-10.646735
-10.646734
-10.646732
-10.646729
-10.646726
-10.646724
-10.646724
-10.646728
-10.646733
-10.646735
-10.646734
-10.646733
-10.64673
-10.646726
-10.646724
-10.646725
-10.646728
-10.646733
-10.646735
-10.646734
-10.646733
-10.64673
-10.646727
-10.646725
-10.646725
-10.646729
-10.646733
-10.646735
-10.646734
-10.646733
-10.64673
-10.646727
-10.646725
-10.646726
-10.646729
-10.646734
-10.646734
-10.646734
-10.646733
-10.646731
-10.646728
-10.646726
-10.646727
-10.64673
-10.646734
-10.646734
-10.646734
-10.646733
-10.646731
-10.646729
-10.646727
-10.646727
-10.64673
-10.646733
-10.646733
-10.646733
-10.646733
-10.646731
-10.64673
-10.646728
-10.646728
-10.64673
-10.646733
-10.646732
-10.646732
-10.646732
-10.646731
-10.64673
-10.646728
-10.646728
-10.64673
-10.646732
-10.646729
-10.64673
-10.64673
-10.646729
-10.646728
-10.646728
-10.646728
-10.646729
-10.64673
-10.646726
-10.646727
-10.646728
-10.646727
-10.646727
-10.646726
-10.646726
-10.646726
-10.646726
-10.646723
-10.646724
-10.646725
-10.646725
-10.646725
-10.646725
-10.646724
-10.646724
-10.646723
-10.646721
-10.646722
-10.646723
-10.646724
-10.646725
-10.646726
-10.646727
-10.64673
-10.646731
-9.8577787
-9.8577788
-9.8577793
-9.8577801
-9.8577812
-9.8577823
-9.8577829
-9.8577832
-9.8577813
-9.8577813
-9.8577816
-9.857782
-9.8577826
-9.8577832
-9.8577833
-9.8577826
-9.8577806
-9.8577766
-9.857785
-9.8577851
-9.8577854
-9.8577859
-9.8577863
-9.8577861
-9.8577852
-9.857783
-9.857779
-9.8577888
-9.8577888
-9.8577889
-9.8577892
-9.8577894
-9.8577893
-9.8577884
-9.8577862
-9.8577822
-9.8577926
-9.8577924
-9.8577924
-9.8577924
-9.8577924
-9.8577921
-9.8577913
-9.8577891
-9.8577851
-9.8577966
-9.8577964
-9.8577962
-9.857796
-9.8577958
-9.8577954
-9.8577944
-9.8577921
-9.8577881
-9.8578006
-9.8578002
-9.8577999
-9.8577997
-9.8577994
-9.8577988
-9.8577974
-9.8577949
-9.8577909
-9.8578039
-9.8578034
-9.8578029
-9.8578026
-9.8578021
-9.8578013
-9.8577998
-9.8577973
-9.8577934
-9.8578065
-9.8578059
-9.8578053
-9.8578048
-9.8578042
-9.8578032
-9.8578017
-9.8577994
-9.8577955
-9.8578084
-9.8578078
-9.8578071
-9.8578064
-9.8578056
-9.8578046
-9.8578032
-9.857801
-9.8577972
-9.8578097
-9.8578091
-9.8578083
-9.8578076
-9.8578067
-9.8578056
-9.8578042
-9.8578022
-9.8577985
-9.8578105
-9.8578098
-9.8578091
-9.8578082
-9.8578073
-9.8578062
-9.8578049
-9.8578029
-9.8577994
-9.8578108
-9.8578101
-9.8578093
-9.8578084
-9.8578074
-9.8578063
-9.857805
-9.8578032
-9.8577998
-9.8578105
-9.8578097
-9.8578089
-9.8578081
-9.8578071
-9.857806
-9.8578048
-9.857803
-9.8577998
-9.8578095
-9.8578088
-9.857808
-9.8578072
-9.8578063
-9.8578052
-9.857804
-9.8578023
-9.8577992
-9.8578079
-9.8578072
-9.8578064
-9.8578057
-9.8578049
-9.8578039
-9.8578027
-9.857801
-9.8577982
-9.8578054
-9.8578047
-9.857804
-9.8578034
-9.8578028
-9.8578019
-9.8578008
-9.8577992
-9.8577965
-9.8578019
-9.8578013
-9.8578007
-9.8578002
-9.8577997
-9.8577991
-9.8577983
-9.8577969
-9.8577944
-9.8577975
-9.857797
-9.8577964
-9.857796
-9.8577956
-9.8577953
-9.8577949
-9.8577939
-9.8577916
-9.8577926
-9.8577922
-9.8577918
-9.8577915
-9.8577913
-9.8577912
-9.8577912
-9.8577905
-9.8577885
-9.8577876
-9.8577874
-9.8577872
-9.8577872
-9.8577873
-9.8577874
-9.8577874
-9.8577867
-9.8577848
-9.8577825
-9.8577824
-9.8577825
-9.8577827
-9.857783
-9.8577832
-9.857783
-9.8577822
-9.8577804
-9.8577776
-9.8577777
-9.8577779
-9.8577784
-9.857779
-9.8577792
-9.8577789
-9.8577779
-9.8577761
-9.8577742
-9.8577744
-9.8577747
-9.8577755
-9.8577765
-9.8577773
-9.8577779
-9.8577784
-9.8577785
-9.0691468
-9.069147
-9.0691472
-9.0691475
-9.0691479
-9.0691484
-9.0691489
-9.0691493
-9.0691481
-9.0691481
-9.0691483
-9.0691485
-9.0691487
-9.0691489
-9.069149
-9.0691488
-9.0691478
-9.0691455
-9.0691493
-9.0691495
-9.0691497
-9.0691498
-9.06915
-9.06915
-9.0691493
-9.069148
-9.0691459
-9.0691501
-9.0691502
-9.0691504
-9.0691505
-9.0691506
-9.0691504
-9.0691497
-9.0691485
-9.0691465
-9.0691506
-9.0691507
-9.0691507
-9.0691507
-9.0691507
-9.0691506
-9.0691501
-9.069149
-9.0691472
-9.069151
-9.069151
-9.0691509
-9.0691508
-9.0691507
-9.0691506
-9.0691503
-9.0691494
-9.0691479
-9.0691513
-9.0691512
-9.0691511
-9.0691508
-9.0691506
-9.0691505
-9.0691503
-9.0691498
-9.0691486
-9.0691516
-9.0691515
-9.0691512
-9.0691509
-9.0691506
-9.0691505
-9.0691505
-9.0691502
-9.0691493
-9.069152
-9.0691518
-9.0691515
-9.0691511
-9.0691508
-9.0691506
-9.0691507
-9.0691506