/*--------------------------------*- C++ -*----------------------------------*\
| =========                 |                                                 |
| \\      /  F ield         | OpenFOAM: The Open Source CFD Toolbox           |
|  \\    /   O peration     | Version:  2406                                  |
|   \\  /    A nd           | Website:  www.openfoam.com                      |
|    \\/     M anipulation  |                                                 |
\*---------------------------------------------------------------------------*/
FoamFile
{
    version     2.0;
    format      ascii;
    arch        "LSB;label=32;scalar=64";
    class       volVectorField;
    location    "19.75";
    object      U;
}
// * * * * * * * * * * * * * * * * * * * * * * * * * * * * * * * * * * * * * //

dimensions      [0 1 -1 0 0 0 0];

internalField   nonuniform List<vector> 
34560
(
(-0.081915107 0.0143329 0.030129897)
(-0.27962999 0.046559792 0.097425615)
(-0.54403044 0.088739543 0.17469767)
(-0.86454531 0.13800857 0.25065631)
(-1.2024604 0.19014877 0.3089373)
(-1.5014374 0.24329365 0.33784014)
(-1.7162536 0.29818776 0.3380828)
(-1.8358952 0.35313235 0.32016587)
(-1.8763255 0.40174334 0.29692266)
(-0.084376225 0.016864026 0.033433099)
(-0.29152404 0.054186695 0.10765016)
(-0.57111939 0.10164181 0.19088438)
(-0.9078296 0.15472965 0.2692644)
(-1.253275 0.20846359 0.32481623)
(-1.543871 0.26178213 0.34748827)
(-1.7359413 0.31631016 0.34121879)
(-1.8283357 0.3713341 0.31866528)
(-1.8455982 0.41878334 0.29160192)
(-0.084130674 0.017573071 0.034645158)
(-0.29607737 0.056992982 0.11206721)
(-0.58695092 0.10722728 0.19823799)
(-0.93646939 0.16243489 0.2777613)
(-1.2856013 0.21677074 0.3314209)
(-1.5637944 0.26971479 0.34999525)
(-1.7319396 0.32419486 0.33962311)
(-1.7963351 0.37851853 0.31374122)
(-1.7920415 0.42441087 0.28499662)
(-0.081435482 0.018063424 0.035680146)
(-0.29363537 0.058732226 0.11554683)
(-0.59149609 0.11017115 0.20342103)
(-0.95013672 0.16545403 0.28275243)
(-1.3000315 0.2184947 0.33395155)
(-1.563989 0.26972352 0.34939319)
(-1.7071613 0.32266479 0.33590553)
(-1.7448376 0.37478788 0.30878103)
(-1.7206263 0.41868492 0.28024139)
(-0.07606229 0.017579912 0.036106914)
(-0.28343156 0.057708402 0.1172185)
(-0.5834982 0.10862169 0.20578409)
(-0.94765277 0.16257239 0.2845939)
(-1.2963619 0.21336785 0.33385918)
(-1.5462955 0.26157729 0.34680763)
(-1.6642467 0.31145334 0.33201976)
(-1.6765513 0.36075515 0.30504611)
(-1.6338605 0.40218915 0.27784767)
(-0.068616635 0.0164464 0.036025196)
(-0.26700213 0.054617022 0.11731773)
(-0.5652145 0.10326659 0.20573066)
(-0.9315377 0.15424449 0.28382321)
(-1.2768699 0.20119088 0.33170813)
(-1.5110503 0.24554186 0.34365464)
(-1.6050473 0.29130147 0.32906768)
(-1.5935454 0.33705876 0.30326285)
(-1.5340229 0.37544303 0.27802076)
(-0.059655227 0.014786721 0.035825823)
(-0.24550298 0.049632344 0.11686834)
(-0.53772644 0.094251684 0.20466158)
(-0.9024732 0.14054217 0.28194801)
(-1.2419066 0.18264464 0.32909376)
(-1.4600718 0.22238964 0.34095485)
(-1.5321053 0.26253569 0.32796269)
(-1.4985204 0.30405796 0.30387674)
(-1.4240688 0.33878038 0.28075924)
(-0.049710898 0.012559111 0.035508394)
(-0.22038712 0.042708922 0.11601927)
(-0.50325034 0.081649336 0.20307196)
(-0.86320917 0.12182652 0.27984691)
(-1.1949466 0.15802113 0.32696087)
(-1.3972004 0.19224836 0.33963406)
(-1.4494404 0.22628654 0.32884635)
(-1.3958351 0.2623737 0.30698677)
(-1.3084934 0.29270443 0.2858486)
(-0.03969855 0.0099348931 0.035181836)
(-0.19419713 0.034273454 0.11510389)
(-0.46570115 0.066064563 0.20149586)
(-0.81866085 0.09880866 0.27810938)
(-1.1416313 0.12813774 0.32577667)
(-1.3287709 0.15592948 0.33995269)
(-1.3632334 0.18342755 0.33157684)
(-1.2922849 0.21295684 0.31219038)
(-1.1943086 0.23809145 0.29269036)
(-0.03074985 0.0071235602 0.03490512)
(-0.17018122 0.024924908 0.1143052)
(-0.43024091 0.04844266 0.20021854)
(-0.77536789 0.072676466 0.27696125)
(-1.0894811 0.094289082 0.32552543)
(-1.2631951 0.11470811 0.34160601)
(-1.2823927 0.13512671 0.33555463)
(-1.1972663 0.15712986 0.31850437)
(-1.0908795 0.17608845 0.30020375)
(-0.02409148 0.0043066217 0.034748547)
(-0.15190984 0.015188429 0.11381751)
(-0.40253781 0.02963679 0.1994602)
(-0.74056202 0.044518287 0.2764432)
(-1.0469699 0.057738799 0.32587583)
(-1.2102305 0.070144117 0.34376729)
(-1.2176424 0.082803716 0.33961482)
(-1.1220628 0.096419945 0.3244022)
(-1.0097467 0.10827852 0.30686519)
(-0.020323286 0.0014469395 0.034680912)
(-0.14145663 0.0051092832 0.113619)
(-0.38648286 0.0099849 0.19915402)
(-0.72018659 0.01498417 0.27632592)
(-1.0220899 0.01942127 0.3263116)
(-1.1795156 0.023603517 0.3452588)
(-1.1803519 0.027928111 0.34227039)
(-1.0790575 0.032599102 0.3280917)
(-0.96361538 0.036689538 0.31091288)
(-0.0203233 -0.0014469766 0.034680907)
(-0.14145668 -0.0051093977 0.11361903)
(-0.38648296 -0.0099851176 0.19915402)
(-0.72018669 -0.014984513 0.27632591)
(-1.0220899 -0.019421748 0.3263116)
(-1.1795157 -0.023604096 0.34525883)
(-1.180352 -0.027928666 0.34227041)
(-1.0790576 -0.032599373 0.32809166)
(-0.96361534 -0.036689357 0.31091279)
(-0.024091511 -0.0043066616 0.03474853)
(-0.15190995 -0.015188554 0.11381752)
(-0.40253801 -0.029637043 0.19946019)
(-0.74056225 -0.044518705 0.27644321)
(-1.0469701 -0.057739395 0.32587587)
(-1.2102307 -0.070144816 0.34376736)
(-1.2176426 -0.082804356 0.33961484)
(-1.122063 -0.096420257 0.32440211)
(-1.0097467 -0.10827839 0.306865)
(-0.03074988 -0.0071235966 0.034905131)
(-0.17018132 -0.024925067 0.11430524)
(-0.43024112 -0.048442977 0.20021865)
(-0.77536818 -0.072676945 0.27696142)
(-1.0894813 -0.094289753 0.32552556)
(-1.2631954 -0.11470889 0.34160607)
(-1.2823931 -0.13512741 0.33555461)
(-1.1972667 -0.15713025 0.31850428)
(-1.0908796 -0.17608843 0.30020359)
(-0.039698582 -0.0099349242 0.035181881)
(-0.19419723 -0.034273589 0.11510407)
(-0.46570134 -0.066064851 0.20149603)
(-0.81866118 -0.098809076 0.27810959)
(-1.1416316 -0.12813831 0.32577683)
(-1.3287713 -0.1559302 0.33995275)
(-1.363234 -0.18342824 0.33157685)
(-1.2922855 -0.21295732 0.31219041)
(-1.1943089 -0.2380915 0.29269033)
(-0.049710926 -0.012559138 0.035508386)
(-0.2203872 -0.04270897 0.11601941)
(-0.50325051 -0.081649511 0.20307205)
(-0.86320952 -0.12182681 0.2798471)
(-1.194947 -0.15802153 0.32696107)
(-1.3972011 -0.19224897 0.33963422)
(-1.4494413 -0.22628723 0.32884653)
(-1.3958359 -0.26237423 0.30698699)
(-1.3084939 -0.29270444 0.28584868)
(-0.059655254 -0.014786759 0.035825833)
(-0.24550307 -0.049632404 0.11686846)
(-0.53772658 -0.094251823 0.20466171)
(-0.90247347 -0.14054241 0.28194819)
(-1.241907 -0.18264494 0.32909404)
(-1.4600724 -0.22239015 0.34095521)
(-1.5321062 -0.26253635 0.32796308)
(-1.4985212 -0.30405841 0.30387705)
(-1.4240694 -0.33878029 0.28075935)
(-0.068616649 -0.016446408 0.036025192)
(-0.26700217 -0.05461704 0.11731773)
(-0.56521458 -0.10326668 0.20573061)
(-0.93153792 -0.15424469 0.28382325)
(-1.2768701 -0.20119114 0.33170841)
(-1.5110507 -0.24554226 0.34365514)
(-1.605048 -0.291302 0.32906819)
(-1.593546 -0.33705906 0.30326319)
(-1.5340236 -0.37544298 0.27802097)
(-0.076062316 -0.017579908 0.036106892)
(-0.28343163 -0.05770841 0.11721845)
(-0.58349833 -0.10862176 0.20578406)
(-0.94765293 -0.16257255 0.28459403)
(-1.2963619 -0.21336806 0.33385957)
(-1.5462956 -0.26157759 0.3468082)
(-1.664247 -0.31145372 0.33202029)
(-1.6765517 -0.3607554 0.30504657)
(-1.6338613 -0.40218926 0.27784805)
(-0.081435483 -0.018063408 0.035680143)
(-0.29363536 -0.05873224 0.11554677)
(-0.59149603 -0.11017116 0.20342105)
(-0.95013655 -0.16545405 0.28275256)
(-1.3000312 -0.21849477 0.3339519)
(-1.5639889 -0.26972364 0.34939372)
(-1.7071614 -0.32266502 0.33590612)
(-1.7448382 -0.37478806 0.30878165)
(-1.7206268 -0.41868498 0.28024167)
(-0.084130675 -0.017573029 0.034645126)
(-0.29607736 -0.056992915 0.11206713)
(-0.5869509 -0.1072272 0.19823796)
(-0.93646935 -0.16243484 0.27776139)
(-1.2856012 -0.21677071 0.33142119)
(-1.5637942 -0.26971473 0.3499957)
(-1.7319396 -0.32419481 0.33962363)
(-1.7963357 -0.37851854 0.31374181)
(-1.7920417 -0.42441077 0.28499689)
(-0.084376224 -0.01686401 0.033433074)
(-0.29152402 -0.054186673 0.10765014)
(-0.57111934 -0.1016418 0.19088442)
(-0.9078295 -0.15472969 0.26926452)
(-1.2532747 -0.20846357 0.32481641)
(-1.5438707 -0.261782 0.34748856)
(-1.7359412 -0.31630998 0.34121929)
(-1.8283362 -0.37133394 0.31866591)
(-1.8455986 -0.41878306 0.29160211)
(-0.0819151 -0.014332907 0.030129905)
(-0.27962996 -0.046559845 0.09742565)
(-0.54403037 -0.088739636 0.17469778)
(-0.86454517 -0.13800873 0.2506564)
(-1.2024602 -0.19014892 0.3089374)
(-1.5014371 -0.24329379 0.33784055)
(-1.7162538 -0.2981879 0.33808339)
(-1.8358959 -0.35313253 0.32016629)
(-1.8763259 -0.40174334 0.29692313)
(-0.1040122 -4.1440241e-06 -6.9982233e-05)
(-0.33860722 -0.00018998528 -0.00049926312)
(-0.63070119 -0.00082465304 -0.0015934482)
(-0.96283242 -0.0027323025 -0.0035276375)
(-1.2974208 -0.0070015925 -0.0061489106)
(-1.5859556 -0.014118865 -0.0089364277)
(-1.7898338 -0.023481055 -0.011398474)
(-1.9016242 -0.033867542 -0.013356866)
(-1.9377767 -0.043795233 -0.014890393)
(-0.11363406 -0.00066439778 -0.00064619172)
(-0.36788147 -0.0021549359 -0.0022508841)
(-0.68046977 -0.0042050257 -0.0046788846)
(-1.0284198 -0.0076664021 -0.0078444353)
(-1.3672836 -0.013607218 -0.011168852)
(-1.644512 -0.022315767 -0.013839019)
(-1.8243063 -0.032952391 -0.01544078)
(-1.908452 -0.044181599 -0.016228863)
(-1.9248392 -0.054510833 -0.017022472)
(-0.1218428 -0.001461035 -0.0011826903)
(-0.3928287 -0.0044825968 -0.0038921831)
(-0.72258994 -0.0081008617 -0.0075491345)
(-1.0828604 -0.013114959 -0.011726442)
(-1.4229335 -0.020525205 -0.015388036)
(-1.6872423 -0.030468859 -0.017538971)
(-1.843803 -0.041982069 -0.01797791)
(-1.9040138 -0.053609851 -0.017361046)
(-1.905791 -0.063862248 -0.016934321)
(-0.12907924 -0.0023623312 -0.0016467517)
(-0.41460035 -0.007068652 -0.0053139135)
(-0.75887167 -0.012327714 -0.010034814)
(-1.1288112 -0.018827769 -0.015004423)
(-1.4683806 -0.027472731 -0.018717327)
(-1.7199642 -0.038304976 -0.020072977)
(-1.8557727 -0.050320394 -0.019202064)
(-1.8960017 -0.06199553 -0.01714942)
(-1.8860985 -0.071825629 -0.015538957)
(-0.1349103 -0.0032449254 -0.0019698737)
(-0.43221404 -0.0095762749 -0.0063225246)
(-0.78822398 -0.016358278 -0.01183219)
(-1.1656983 -0.024133341 -0.017318692)
(-1.5040857 -0.033704331 -0.020824472)
(-1.7443034 -0.045065049 -0.021201686)
(-1.862541 -0.057205658 -0.018999127)
(-1.8865125 -0.068593638 -0.015640072)
(-1.8672382 -0.077644153 -0.013040835)
(-0.13959005 -0.0040158721 -0.0020975998)
(-0.44632827 -0.011739892 -0.006761194)
(-0.81162924 -0.019760417 -0.012710615)
(-1.1947411 -0.028449532 -0.018417989)
(-1.5314423 -0.038511361 -0.021494786)
(-1.76173 -0.049932077 -0.020810702)
(-1.8654402 -0.061737873 -0.017344794)
(-1.8764627 -0.07245832 -0.0128833)
(-1.8497887 -0.080457552 -0.0095538362)
(-0.14338792 -0.0045538696 -0.0020445237)
(-0.4576474 -0.013213609 -0.006663723)
(-0.83013761 -0.021993532 -0.012703041)
(-1.2172204 -0.03109896 -0.018341761)
(-1.5518284 -0.041133778 -0.020815873)
(-1.7735186 -0.052096088 -0.019050722)
(-1.8654324 -0.063104434 -0.014436079)
(-1.8663581 -0.072795202 -0.0091003058)
(-1.833999 -0.079565763 -0.0053028606)
(-0.14616875 -0.0047159691 -0.0018158928)
(-0.46596144 -0.013613446 -0.0060530964)
(-0.84371741 -0.022479148 -0.011863037)
(-1.2335238 -0.031376798 -0.017201745)
(-1.5660924 -0.04080768 -0.018982834)
(-1.7807592 -0.050792497 -0.016196812)
(-1.8634307 -0.060574695 -0.010609779)
(-1.8566973 -0.06893274 -0.0046350138)
(-1.8200821 -0.074397419 -0.0006056986)
(-0.14805561 -0.0044115333 -0.0014644037)
(-0.4716489 -0.012691018 -0.0050804295)
(-0.8530443 -0.020841426 -0.010431508)
(-1.2446328 -0.028829191 -0.015322523)
(-1.57544 -0.037050007 -0.016400533)
(-1.7846588 -0.045545245 -0.012718795)
(-1.8603693 -0.053694085 -0.0063540366)
(-1.847995 -0.060469272 3.6773424e-05)
(-1.8082863 -0.064627349 0.0041188255)
(-0.14925343 -0.0036178718 -0.0010684079)
(-0.47531908 -0.010385524 -0.0039708018)
(-0.85911217 -0.016993942 -0.0087660139)
(-1.2518041 -0.02336169 -0.013171105)
(-1.5811953 -0.029772039 -0.013624894)
(-1.7863988 -0.03626381 -0.0092247765)
(-1.8571016 -0.042415737 -0.0022783477)
(-1.8407632 -0.047407824 0.0043450532)
(-1.7989047 -0.050312377 0.0083690446)
(-0.15025652 -0.0023905458 -0.00072990775)
(-0.478147 -0.0068464541 -0.0030163066)
(-0.86345714 -0.011169521 -0.007319933)
(-1.2565861 -0.015282455 -0.011313705)
(-1.5846905 -0.019358796 -0.011296135)
(-1.786998 -0.02342296 -0.0063939662)
(-1.8543481 -0.027258571 0.00094564478)
(-1.8354604 -0.030321416 0.0076791909)
(-1.7922568 -0.032038201 0.011611113)
(-0.15047219 -0.00083843265 -0.00054344332)
(-0.47890887 -0.0023961224 -0.0024882533)
(-0.86483019 -0.0038984892 -0.0065090458)
(-1.2582619 -0.0053231685 -0.010265871)
(-1.5859341 -0.0067311223 -0.0099922007)
(-1.7869901 -0.0081250197 -0.0048224113)
(-1.8527761 -0.0094319981 0.002718326)
(-1.8326579 -0.010462894 0.0094984196)
(-1.7887847 -0.011027189 0.013371979)
(-0.15047219 0.00083847606 -0.00054344969)
(-0.47890889 0.0023962317 -0.0024882532)
(-0.86483021 0.0038986393 -0.0065090585)
(-1.258262 0.0053233444 -0.010265876)
(-1.5859341 0.0067312837 -0.0099921839)
(-1.7869901 0.0081251216 -0.0048223905)
(-1.8527761 0.0094320677 0.0027183429)
(-1.8326579 0.010462995 0.0094984341)
(-1.7887847 0.011027365 0.013371984)
(-0.15025653 0.0023905785 -0.00072992313)
(-0.47814702 0.0068465397 -0.0030163019)
(-0.86345716 0.011169631 -0.0073199406)
(-1.2565861 0.015282572 -0.011313707)
(-1.5846905 0.019358897 -0.011296099)
(-1.786998 0.023423019 -0.0063939232)
(-1.8543482 0.027258616 0.00094567677)
(-1.8354605 0.030321524 0.0076792188)
(-1.7922568 0.032038397 0.01161113)
(-0.14925342 0.0036178927 -0.0010684222)
(-0.47531906 0.010385585 -0.0039708036)
(-0.85911214 0.016994027 -0.0087660047)
(-1.2518042 0.023361776 -0.013171099)
(-1.5811953 0.029772098 -0.01362486)
(-1.7863987 0.036263833 -0.0092247351)
(-1.8571016 0.042415757 -0.0022783241)
(-1.8407633 0.047407922 0.0043450764)
(-1.7989048 0.050312583 0.0083690825)
(-0.14805561 0.0044115539 -0.0014643988)
(-0.47164888 0.012691074 -0.005080407)
(-0.85304425 0.020841505 -0.010431483)
(-1.2446328 0.028829278 -0.015322493)
(-1.57544 0.03705006 -0.016400485)
(-1.7846588 0.045545251 -0.012718755)
(-1.8603694 0.053694087 -0.0063540165)
(-1.8479953 0.060469347 3.6801277e-05)
(-1.8082864 0.064627567 0.0041188752)
(-0.14616874 0.0047159854 -0.0018158887)
(-0.46596141 0.013613503 -0.0060530573)
(-0.84371736 0.022479198 -0.011863045)
(-1.2335238 0.03137686 -0.017201725)
(-1.5660923 0.040807716 -0.018982774)
(-1.7807593 0.050792474 -0.016196758)
(-1.8634309 0.06057467 -0.01060974)
(-1.8566976 0.068932802 -0.004634978)
(-1.8200824 0.074397686 -0.00060569339)
(-0.14338791 0.0045538754 -0.0020445428)
(-0.45764738 0.013213654 -0.0066637181)
(-0.83013757 0.021993551 -0.012703073)
(-1.2172204 0.031098962 -0.018341749)
(-1.5518283 0.041133759 -0.020815787)
(-1.7735187 0.052096015 -0.019050628)
(-1.8654327 0.063104364 -0.014436015)
(-1.8663584 0.072795269 -0.0091002961)
(-1.8339993 0.079566075 -0.0053029395)
(-0.13959005 0.00401587 -0.0020975914)
(-0.44632827 0.011739896 -0.0067611606)
(-0.81162923 0.019760391 -0.01271058)
(-1.1947411 0.028449455 -0.018417932)
(-1.5314422 0.038511275 -0.021494664)
(-1.7617301 0.049931952 -0.020810575)
(-1.8654404 0.061737769 -0.017344726)
(-1.876463 0.072458383 -0.012883331)
(-1.849789 0.080457836 -0.0095539647)
(-0.13491028 0.0032449252 -0.0019698776)
(-0.43221399 0.0095762769 -0.0063225174)
(-0.7882239 0.016358252 -0.011832183)
(-1.1656983 0.024133254 -0.017318677)
(-1.5040855 0.033704218 -0.020824383)
(-1.7443033 0.045064907 -0.021201558)
(-1.862541 0.057205547 -0.018999074)
(-1.8865127 0.068593682 -0.0156401)
(-1.8672386 0.077644375 -0.013041001)
(-0.12907925 0.0023623403 -0.0016467596)
(-0.41460037 0.0070686734 -0.0053139076)
(-0.7588717 0.012327726 -0.010034779)
(-1.1288112 0.018827737 -0.015004372)
(-1.4683804 0.027472641 -0.018717212)
(-1.7199641 0.038304854 -0.020072858)
(-1.8557727 0.050320295 -0.019202008)
(-1.8960018 0.061995569 -0.017149416)
(-1.8860988 0.07182582 -0.01553911)
(-0.12184279 0.0014610466 -0.0011827046)
(-0.39282862 0.0044826197 -0.0038922045)
(-0.72258979 0.0081008789 -0.0075491333)
(-1.0828602 0.013114935 -0.011726422)
(-1.4229333 0.020525132 -0.015387972)
(-1.6872421 0.030468775 -0.01753889)
(-1.8438028 0.041981999 -0.017977844)
(-1.9040138 0.05360987 -0.017360975)
(-1.905791 0.063862506 -0.016934504)
(-0.11363406 0.0006644098 -0.0006462085)
(-0.36788147 0.0021549573 -0.0022509171)
(-0.68046977 0.0042050468 -0.0046788866)
(-1.0284199 0.0076663767 -0.0078444249)
(-1.3672836 0.013607164 -0.011168824)
(-1.6445119 0.022315708 -0.013838954)
(-1.8243062 0.032952375 -0.015440663)
(-1.9084523 0.044181744 -0.016228932)
(-1.9248393 0.054511126 -0.017022732)
(-0.1040122 4.1338311e-06 -6.9971618e-05)
(-0.3386072 0.00018993977 -0.00049923503)
(-0.63070111 0.00082457707 -0.0015933828)
(-0.9628323 0.0027321698 -0.0035275917)
(-1.2974206 0.0070014314 -0.0061488582)
(-1.5859553 0.014118665 -0.0089362922)
(-1.7898338 0.023480898 -0.011398462)
(-1.9016245 0.033867705 -0.013357072)
(-1.9377768 0.04379555 -0.014890487)
(-0.089018002 0.0011263653 0.0010365043)
(-0.29145476 0.0034849737 0.0032218334)
(-0.54725673 0.0060896399 0.0056206127)
(-0.8442888 0.0084958416 0.0077601807)
(-1.1510563 0.010191749 0.0089101703)
(-1.422052 0.010816991 0.0085169765)
(-1.6162282 0.010338228 0.0066450444)
(-1.721021 0.0090234048 0.0040495194)
(-1.7493353 0.0072021807 0.0016801618)
(-0.09594775 0.0011476096 0.00093681999)
(-0.31286468 0.0034893005 0.0028975013)
(-0.58442535 0.0059599917 0.0050125689)
(-0.89439243 0.0080575843 0.0067752632)
(-1.2051858 0.0092686327 0.0074055223)
(-1.4665251 0.0092985257 0.0063757126)
(-1.6384037 0.0082284744 0.0038744245)
(-1.7162767 0.0064767516 0.00083754975)
(-1.7245469 0.0046049999 -0.0017509608)
(-0.10176046 0.0010980455 0.00077841104)
(-0.33082623 0.0033060664 0.002410944)
(-0.61543753 0.0055633471 0.0041708744)
(-0.93538759 0.0073452076 0.0055774086)
(-1.2473882 0.0081615868 0.0058401134)
(-1.4970937 0.0077932656 0.0044224382)
(-1.6467614 0.0064123371 0.0015495967)
(-1.7007046 0.0045121415 -0.0017629639)
(-1.6938003 0.0026651693 -0.0043551256)
(-0.10677618 0.0010241731 0.00062897589)
(-0.34619269 0.003050127 0.001947738)
(-0.64166622 0.0050541039 0.0033653121)
(-0.96936976 0.0065115125 0.0044317188)
(-1.2810253 0.0069753176 0.0043603847)
(-1.5190671 0.0063006807 0.002621619)
(-1.6485371 0.0047279787 -0.00051874732)
(-1.6820516 0.0027803594 -0.0039688303)
(-1.6626844 0.00097902092 -0.0064478696)
(-0.11065234 0.00090779233 0.00048040576)
(-0.35817282 0.0026851781 0.0014954839)
(-0.66220075 0.0043996921 0.0025946734)
(-0.99580208 0.0055480821 0.003362791)
(-1.3064066 0.0057259511 0.0030201093)
(-1.5338757 0.0048414674 0.0010404196)
(-1.645977 0.0031820471 -0.0022759905)
(-1.6625608 0.0012684853 -0.0057704)
(-1.6329418 -0.00041878416 -0.008080614)
(-0.11366276 0.0007712372 0.00034174972)
(-0.36746783 0.0022690851 0.0010761686)
(-0.67805338 0.0036807819 0.0018929614)
(-1.0158769 0.0045424281 0.0024153239)
(-1.3248355 0.0044976436 0.0018675676)
(-1.5428807 0.0034987268 -0.00027739816)
(-1.6403757 0.0018523785 -0.0036915377)
(-1.6432489 5.4969183e-05 -0.0071628183)
(-1.6053678 -0.0014642648 -0.0092859158)
(-0.11602987 0.00062548486 0.00022725843)
(-0.37467427 0.0018307677 0.00072926831)
(-0.69012804 0.0029414313 0.0013133534)
(-1.0307002 0.0035491348 0.0016396878)
(-1.3375133 0.0033495629 0.0009387113)
(-1.5472475 0.002327548 -0.0013161574)
(-1.6327 0.00078707301 -0.0047662415)
(-1.6247106 -0.00083023828 -0.0081911736)
(-1.580427 -0.0021434659 -0.010123894)
(-0.11766098 0.00047868863 0.00013686679)
(-0.37966508 0.0013963999 0.00045635834)
(-0.69846623 0.0022260914 0.00085948623)
(-1.0406867 0.0026253626 0.001040503)
(-1.3452975 0.0023416443 0.00023831297)
(-1.5480856 0.0013802535 -0.0020807313)
(-1.6239707 1.9004307e-05 -0.005538777)
(-1.6076277 -0.0013626091 -0.008891656)
(-1.5585689 -0.0024476782 -0.010659487)
(-0.1186738 0.00034276547 7.10814e-05)
(-0.38280366 0.0009977374 0.00025784047)
(-0.70372445 0.0015797436 0.00053085906)
(-1.0468116 0.0018188151 0.00061171426)
(-1.3494199 0.0015167301 -0.00025184781)
(-1.5466894 0.00068744042 -0.0026011745)
(-1.6152607 -0.00043400607 -0.0060486969)
(-1.5927384 -0.0015398715 -0.0093300432)
(-1.5402498 -0.0023863764 -0.010973114)
(-0.11925414 0.00022497794 2.7265758e-05)
(-0.38465024 0.00065387163 0.000125433)
(-0.70684098 0.0010289795 0.00031257775)
(-1.050307 0.0011560821 0.00033002337)
(-1.3512434 0.0008922963 -0.00056647631)
(-1.5443574 0.00025295484 -0.002924993)
(-1.6076154 -0.00058109566 -0.006351508)
(-1.5807442 -0.0013865292 -0.0095829737)
(-1.5259121 -0.0019933202 -0.011140779)
(-0.11981278 0.00012578391 1.7837394e-06)
(-0.38620923 0.00036480773 4.8100056e-05)
(-0.7091835 0.00057081748 0.00018497614)
(-1.05263 0.00062707987 0.00016572225)
(-1.3521079 0.00044734038 -0.00074767554)
(-1.5422209 4.2985392e-05 -0.0031071672)
(-1.6019049 -0.00047210598 -0.0065165518)
(-1.5722516 -0.00096156324 -0.009716207)
(-1.5159882 -0.0013241587 -0.011218538)
(-0.11985398 3.9905685e-05 -9.2175396e-06)
(-0.38643811 0.00011559827 1.4599256e-05)
(-0.70966889 0.00017981908 0.00012954221)
(-1.0531657 0.00019375657 9.5140621e-05)
(-1.3520857 0.00012949881 -0.00082322611)
(-1.5408664 -8.5406869e-06 -0.0031808663)
(-1.5988706 -0.00018143586 -0.0065816001)
(-1.5678771 -0.00034518114 -0.0097693614)
(-1.510921 -0.00046523204 -0.011246134)
(-0.11985398 -3.9895978e-05 -9.2188825e-06)
(-0.38643812 -0.00011557366 1.460248e-05)
(-0.7096689 -0.00017979468 0.00012953987)
(-1.0531657 -0.00019373078 9.5140522e-05)
(-1.3520857 -0.00012948661 -0.00082321748)
(-1.5408664 8.5157205e-06 -0.0031808546)
(-1.5988706 0.00018140599 -0.0065815902)
(-1.5678772 0.00034523086 -0.0097693575)
(-1.510921 0.0004654318 -0.011246137)
(-0.11981279 -0.00012577872 1.7806527e-06)
(-0.38620924 -0.00036479309 4.8106125e-05)
(-0.70918352 -0.00057080949 0.00018497763)
(-1.05263 -0.00062707933 0.00016572811)
(-1.3521079 -0.00044735696 -0.0007476509)
(-1.542221 -4.3034551e-05 -0.0031071364)
(-1.601905 0.00047205992 -0.0065165294)
(-1.5722517 0.00096161537 -0.0097162021)
(-1.5159883 0.0013243689 -0.011218549)
(-0.11925415 -0.00022497637 2.7264782e-05)
(-0.38465025 -0.00065386739 0.00012544053)
(-0.706841 -0.0010289846 0.0003125915)
(-1.050307 -0.0011561022 0.00033004276)
(-1.3512434 -0.00089233997 -0.00056643699)
(-1.5443575 -0.00025302909 -0.0029249491)
(-1.6076155 0.0005810326 -0.0063514827)
(-1.5807443 0.0013865762 -0.0095829764)
(-1.5259123 0.0019935316 -0.011140808)
(-0.11867381 -0.00034276413 7.1085044e-05)
(-0.38280368 -0.00099773459 0.00025786278)
(-0.70372446 -0.0015797527 0.00053088329)
(-1.0468116 -0.0018188422 0.00061175083)
(-1.3494199 -0.0015167863 -0.00025179119)
(-1.5466894 -0.00068753144 -0.0026011194)
(-1.6152608 0.00043393056 -0.0060486682)
(-1.5927386 0.0015399033 -0.0093300472)
(-1.54025 0.0023865742 -0.010973162)
(-0.11766099 -0.0004786881 0.00013686649)
(-0.3796651 -0.0013963923 0.00045638714)
(-0.69846626 -0.0022261057 0.00085950782)
(-1.0406867 -0.0026253972 0.0010405523)
(-1.3452975 -0.0023417096 0.00023838874)
(-1.5480856 -0.0013803609 -0.0020806607)
(-1.6239708 -1.9096383e-05 -0.005538735)
(-1.6076279 0.0013626261 -0.0088916518)
(-1.5585691 0.0024478677 -0.010659551)
(-0.11602988 -0.000625488 0.00022725567)
(-0.37467429 -0.0018307657 0.00072929453)
(-0.69012807 -0.0029414571 0.0013133895)
(-1.0307002 -0.0035491877 0.0016397568)
(-1.3375133 -0.0033496465 0.00093881313)
(-1.5472475 -0.0023276739 -0.0013160616)
(-1.6327001 -0.00078718749 -0.0047661795)
(-1.6247107 0.00083024557 -0.0081911676)
(-1.5804272 0.0021436587 -0.010123961)
(-0.11366277 -0.0007712425 0.00034175404)
(-0.36746785 -0.0022690943 0.0010762005)
(-0.67805341 -0.0036808189 0.0018930136)
(-1.0158769 -0.0045425026 0.0024154034)
(-1.3248355 -0.004497744 0.0018676849)
(-1.5428807 -0.0034988676 -0.00027727667)
(-1.6403757 -0.0018525105 -0.0036914539)
(-1.643249 -5.4974879e-05 -0.0071628168)
(-1.605368 0.0014644547 -0.009285971)
(-0.11065234 -0.00090779658 0.00048040842)
(-0.35817283 -0.0026851845 0.0014955114)
(-0.66220078 -0.0043997241 0.0025947196)
(-0.99580212 -0.0055481537 0.0033628645)
(-1.3064066 -0.0057260507 0.0030202336)
(-1.5338757 -0.0048416057 0.0010405699)
(-1.645977 -0.0031821765 -0.0022758857)
(-1.6625609 -0.0012685073 -0.0057703978)
(-1.632942 0.00041896664 -0.0080806905)
(-0.10677619 -0.0010241719 0.00062897681)
(-0.34619273 -0.0030501214 0.0019477567)
(-0.64166627 -0.0050541095 0.0033653582)
(-0.9693698 -0.0065115492 0.0044317964)
(-1.2810253 -0.0069753938 0.0043605236)
(-1.5190671 -0.0063007861 0.0026217803)
(-1.6485372 -0.0047280607 -0.00051863307)
(-1.6820517 -0.002780345 -0.0039688484)
(-1.6626845 -0.00097884051 -0.0064480012)
(-0.10176047 -0.0010980379 0.00077840558)
(-0.33082625 -0.0033060474 0.0024109432)
(-0.61543756 -0.0055633308 0.0041708979)
(-0.93538762 -0.0073452179 0.0055774714)
(-1.2473882 -0.0081616323 0.0058402291)
(-1.4970938 -0.0077933213 0.0044225582)
(-1.6467614 -0.0064123497 0.0015496777)
(-1.7007047 -0.0045120284 -0.0017630049)
(-1.6938004 -0.0026649702 -0.0043552712)
(-0.095947764 -0.0011476008 0.00093681162)
(-0.31286472 -0.0034892828 0.0028974908)
(-0.58442541 -0.0059599755 0.0050125836)
(-0.89439251 -0.0080575975 0.0067753032)
(-1.2051859 -0.0092686665 0.0074055775)
(-1.4665252 -0.0092985445 0.0063757549)
(-1.6384037 -0.0082284119 0.0038744087)
(-1.7162769 -0.0064765043 0.0008374486)
(-1.724547 -0.0046046573 -0.0017511013)
(-0.089018016 -0.0011263662 0.0010365043)
(-0.29145479 -0.0034849873 0.0032218398)
(-0.54725678 -0.0060896663 0.0056206409)
(-0.84428887 -0.008495897 0.0077602053)
(-1.1510563 -0.010191826 0.0089101863)
(-1.422052 -0.010817087 0.0085169883)
(-1.6162283 -0.010338268 0.0066449899)
(-1.7210212 -0.0090232275 0.0040494659)
(-1.7493354 -0.0072019475 0.0016802659)
(-0.096589192 -6.3674296e-05 -4.7149833e-05)
(-0.3152929 -0.00025549064 -0.00017749612)
(-0.58955584 -0.00062425686 -0.00038056286)
(-0.90454719 -0.0013506034 -0.00067944122)
(-1.225634 -0.0026956179 -0.0010689774)
(-1.5058117 -0.0048742323 -0.0015341942)
(-1.7052901 -0.0078660197 -0.0021176735)
(-1.8140949 -0.011336028 -0.0029202338)
(-1.8463146 -0.014802196 -0.0039794006)
(-0.10445141 -6.8795115e-05 -4.3082875e-05)
(-0.33947022 -0.00027607184 -0.00016180974)
(-0.63124809 -0.00068235387 -0.00035765813)
(-0.96036804 -0.0015063349 -0.00066305282)
(-1.2858349 -0.0030524279 -0.0010774638)
(-1.5561413 -0.0055505885 -0.0015889236)
(-1.7332328 -0.0089414451 -0.0022560092)
(-1.8154516 -0.012790821 -0.0032084513)
(-1.8282857 -0.016467054 -0.0045523279)
(-0.11114157 -7.5349967e-05 -3.9764298e-05)
(-0.36002166 -0.00030160811 -0.00015269974)
(-0.66645655 -0.00074477915 -0.0003517803)
(-1.0066263 -0.001648156 -0.00067250777)
(-1.3337105 -0.0033393367 -0.0011077171)
(-1.5925782 -0.0060445952 -0.0016383463)
(-1.7479086 -0.0096554678 -0.0023213821)
(-1.8069078 -0.013644506 -0.0032686072)
(-1.8055189 -0.017316143 -0.0045228356)
(-0.11705342 -0.00010244789 -4.9192142e-05)
(-0.37802028 -0.00038314692 -0.00018052636)
(-0.69694951 -0.00089003968 -0.00040658359)
(-1.0460117 -0.0018755122 -0.00075904324)
(-1.373338 -0.0036735119 -0.0012150896)
(-1.6210339 -0.0064971499 -0.0017417827)
(-1.7568821 -0.010196477 -0.0023849344)
(-1.7962609 -0.014183504 -0.0032196669)
(-1.7832626 -0.017721662 -0.0042626355)
(-0.12181581 -0.00013576518 -5.8041241e-05)
(-0.39261531 -0.00048223751 -0.00020666936)
(-0.72175528 -0.0010593028 -0.00045627896)
(-1.0779569 -0.0021152276 -0.00083098456)
(-1.4050376 -0.0039733017 -0.0012885589)
(-1.6428869 -0.0068242149 -0.0017803325)
(-1.7622367 -0.010484417 -0.0023393322)
(-1.785441 -0.014327039 -0.0030101938)
(-1.7628326 -0.017589354 -0.0038074541)
(-0.12570621 -0.00016854825 -6.1390201e-05)
(-0.40450842 -0.00057723523 -0.0002154411)
(-0.74187397 -0.0012129236 -0.0004722966)
(-1.1036093 -0.0023069211 -0.00084656337)
(-1.4299953 -0.0041572226 -0.0012759724)
(-1.659297 -0.0069269853 -0.0016958523)
(-1.7649646 -0.01040934 -0.0021325593)
(-1.7751049 -0.013967445 -0.0026166996)
(-1.7446615 -0.016854245 -0.0031803708)
(-0.12894419 -0.00019293105 -5.7807272e-05)
(-0.41427456 -0.00064403308 -0.00020258078)
(-0.75815292 -0.0013086732 -0.00044840346)
(-1.1239717 -0.0023919925 -0.00079841633)
(-1.4492356 -0.0041566078 -0.0011702949)
(-1.6711505 -0.0067340944 -0.0014879492)
(-1.765659 -0.0099069019 -0.0017774879)
(-1.7654889 -0.013063508 -0.0020715941)
(-1.7288634 -0.015517161 -0.0024296914)
(-0.13138521 -0.00020001842 -4.6478527e-05)
(-0.4216479 -0.00065682602 -0.00016609483)
(-0.77042109 -0.0013044374 -0.00038259171)
(-1.1391862 -0.002315888 -0.00068842498)
(-1.4632825 -0.0039112068 -0.00098307148)
(-1.6791749 -0.0061900583 -0.0011823457)
(-1.7649026 -0.0089395138 -0.0013168954)
(-1.756852 -0.01160696 -0.0014293526)
(-1.7155266 -0.013591349 -0.0016032274)
(-0.13310767 -0.00018624614 -3.0001409e-05)
(-0.42687701 -0.00060501276 -0.00011390052)
(-0.77914133 -0.0011827996 -0.00028930765)
(-1.1499506 -0.0020567444 -0.00053979518)
(-1.4730063 -0.003400316 -0.00074931142)
(-1.6842342 -0.0052842688 -0.00082807041)
(-1.7633334 -0.0075158948 -0.00081571645)
(-1.7494922 -0.0096239262 -0.0007579227)
(-1.7047797 -0.011094773 -0.00079753517)
(-0.13426149 -0.0001517567 -1.2127504e-05)
(-0.43041676 -0.00048940062 -5.7753801e-05)
(-0.78507087 -0.0009464817 -0.00018993015)
(-1.1572337 -0.0016218501 -0.00038542597)
(-1.4794217 -0.0026402316 -0.0005155256)
(-1.6872057 -0.0040468654 -0.00048640821)
(-1.7615501 -0.0056818649 -0.00033910954)
(-1.743704 -0.0071590582 -0.00015274336)
(-1.6965888 -0.008243564 -0.00014723642)
(-0.13525411 -9.9774545e-05 2.6554903e-06)
(-0.4332331 -0.00031991561 -1.1653877e-05)
(-0.78947041 -0.00061393793 -0.00010903173)
(-1.1622941 -0.0010412694 -0.00026101814)
(-1.4835802 -0.0016770001 -0.00033016626)
(-1.6888527 -0.0025463862 -0.00022096166)