/*--------------------------------*- C++ -*----------------------------------*\
| =========                 |                                                 |
| \\      /  F ield         | OpenFOAM: The Open Source CFD Toolbox           |
|  \\    /   O peration     | Version:  2406                                  |
|   \\  /    A nd           | Website:  www.openfoam.com                      |
|    \\/     M anipulation  |                                                 |
\*---------------------------------------------------------------------------*/
FoamFile
{
    version     2.0;
    format      ascii;
    arch        "LSB;label=32;scalar=64";
    class       volScalarField;
    location    "13.5";
    object      p;
}
// * * * * * * * * * * * * * * * * * * * * * * * * * * * * * * * * * * * * * //

dimensions      [0 2 -2 0 0 0 0];

internalField   nonuniform List<scalar> 
34560
(
-12.321875
-12.313842
-12.304558
-12.293564
-12.278577
-12.257891
-12.233422
-12.209778
-12.192285
-12.373638
-12.364855
-12.354532
-12.341054
-12.321283
-12.294013
-12.263195
-12.236731
-12.21988
-12.401181
-12.392483
-12.382905
-12.370406
-12.350607
-12.321568
-12.288586
-12.260411
-12.242035
-12.421572
-12.413306
-12.404731
-12.393349
-12.374065
-12.344521
-12.310134
-12.279828
-12.259321
-12.434277
-12.426691
-12.419579
-12.40992
-12.391779
-12.362198
-12.326621
-12.294834
-12.27219
-12.435797
-12.42953
-12.42481
-12.418111
-12.402449
-12.373973
-12.338027
-12.305259
-12.280403
-12.430973
-12.42609
-12.423808
-12.420212
-12.407431
-12.380528
-12.344456
-12.311031
-12.28392
-12.420585
-12.417207
-12.417503
-12.417212
-12.40759
-12.382319
-12.346506
-12.312677
-12.283303
-12.40677
-12.4049
-12.407687
-12.410572
-12.40401
-12.380411
-12.345603
-12.311185
-12.27965
-12.392026
-12.391577
-12.39661
-12.402303
-12.398454
-12.376651
-12.343065
-12.307757
-12.274337
-12.379588
-12.380336
-12.387147
-12.394958
-12.393142
-12.37284
-12.340024
-12.30383
-12.268969
-12.372885
-12.374181
-12.38183
-12.390665
-12.389863
-12.370353
-12.337806
-12.301016
-12.2653
-12.372885
-12.374181
-12.381829
-12.390665
-12.389862
-12.370353
-12.337806
-12.301016
-12.265299
-12.379587
-12.380335
-12.387146
-12.394957
-12.393141
-12.37284
-12.340024
-12.303829
-12.268968
-12.392025
-12.391576
-12.39661
-12.402302
-12.398454
-12.376651
-12.343064
-12.307756
-12.274335
-12.40677
-12.4049
-12.407687
-12.410572
-12.40401
-12.380411
-12.345603
-12.311184
-12.279647
-12.420587
-12.417208
-12.417504
-12.417213
-12.407591
-12.382319
-12.346505
-12.312676
-12.283301
-12.430974
-12.426091
-12.423809
-12.420213
-12.407431
-12.380528
-12.344456
-12.31103
-12.283918
-12.435797
-12.42953
-12.42481
-12.418111
-12.40245
-12.373973
-12.338027
-12.305258
-12.280401
-12.434276
-12.42669
-12.419579
-12.40992
-12.391779
-12.362198
-12.326621
-12.294833
-12.272189
-12.42157
-12.413305
-12.40473
-12.393349
-12.374065
-12.344521
-12.310134
-12.279828
-12.259321
-12.40118
-12.392483
-12.382905
-12.370406
-12.350607
-12.32157
-12.288588
-12.260412
-12.242037
-12.373638
-12.364855
-12.354532
-12.341055
-12.321285
-12.294016
-12.2632
-12.236735
-12.219884
-12.321876
-12.313844
-12.30456
-12.293567
-12.278581
-12.257897
-12.233428
-12.209784
-12.192293
-11.468264
-11.467914
-11.467904
-11.468208
-11.46818
-11.467151
-11.465139
-11.462915
-11.460611
-11.471282
-11.470797
-11.470758
-11.471099
-11.470944
-11.469352
-11.46627
-11.462387
-11.457831
-11.46969
-11.469113
-11.469173
-11.469759
-11.469692
-11.467737
-11.46384
-11.458724
-11.452642
-11.46298
-11.462308
-11.462515
-11.463477
-11.463687
-11.461579
-11.457071
-11.450894
-11.443466
-11.451391
-11.450613
-11.450973
-11.452353
-11.452923
-11.450747
-11.445605
-11.438419
-11.429741
-11.436051
-11.435045
-11.435433
-11.437127
-11.437954
-11.435579
-11.429718
-11.421533
-11.411768
-11.417371
-11.416103
-11.416451
-11.418373
-11.419363
-11.416705
-11.410055
-11.400901
-11.390276
-11.396851
-11.395271
-11.395472
-11.397468
-11.398457
-11.395375
-11.3879
-11.377797
-11.366551
-11.376321
-11.3744
-11.374361
-11.376278
-11.377094
-11.373452
-11.365166
-11.354147
-11.342499
-11.358053
-11.355782
-11.355433
-11.357138
-11.357644
-11.353386
-11.344326
-11.332491
-11.320618
-11.344235
-11.34167
-11.341029
-11.342488
-11.342666
-11.337868
-11.328169
-11.315713
-11.303738
-11.336588
-11.333898
-11.333124
-11.33446
-11.334463
-11.32937
-11.319315
-11.306526
-11.294517
-11.336588
-11.333898
-11.333124
-11.33446
-11.334463
-11.32937
-11.319315
-11.306526
-11.294517
-11.344235
-11.341669
-11.341028
-11.342488
-11.342666
-11.337868
-11.328169
-11.315713
-11.303739
-11.358053
-11.355781
-11.355432
-11.357138
-11.357644
-11.353386
-11.344327
-11.332491
-11.320619
-11.376321
-11.374399
-11.37436
-11.376277
-11.377093
-11.373452
-11.365167
-11.354147
-11.3425
-11.39685
-11.39527
-11.395471
-11.397467
-11.398457
-11.395374
-11.3879
-11.377798
-11.366552
-11.41737
-11.416102
-11.41645
-11.418372
-11.419363
-11.416704
-11.410055
-11.400901
-11.390277
-11.43605
-11.435044
-11.435431
-11.437126
-11.437953
-11.435579
-11.429718
-11.421534
-11.411769
-11.45139
-11.450611
-11.450972
-11.452351
-11.452922
-11.450746
-11.445606
-11.43842
-11.429742
-11.462978
-11.462307
-11.462514
-11.463476
-11.463686
-11.461578
-11.457072
-11.450895
-11.443468
-11.469689
-11.469112
-11.469172
-11.469758
-11.469691
-11.467736
-11.46384
-11.458725
-11.452644
-11.471281
-11.470796
-11.470758
-11.471098
-11.470944
-11.469352
-11.466271
-11.462388
-11.457834
-11.468264
-11.467913
-11.467904
-11.468208
-11.46818
-11.467152
-11.46514
-11.462918
-11.460615
-11.162524
-11.162543
-11.162554
-11.162499
-11.162378
-11.162222
-11.16208
-11.161967
-11.16161
-11.166605
-11.16664
-11.16662
-11.166422
-11.166025
-11.16546
-11.164792
-11.164092
-11.163263
-11.16979
-11.169851
-11.169858
-11.16966
-11.169202
-11.168477
-11.167532
-11.166475
-11.165375
-11.172561
-11.172645
-11.172669
-11.172468
-11.171974
-11.171157
-11.170038
-11.168727
-11.167367
-11.174817
-11.174918
-11.174963
-11.174773
-11.174272
-11.17341
-11.172175
-11.170675
-11.169104
-11.176508
-11.176632
-11.176706
-11.176545
-11.176065
-11.175204
-11.173914
-11.172293
-11.170566
-11.177742
-11.177878
-11.177971
-11.177832
-11.17738
-11.176543
-11.175243
-11.173562
-11.171733
-11.178555
-11.178698
-11.178802
-11.178681
-11.178264
-11.177462
-11.176183
-11.174485
-11.172599
-11.17903
-11.179173
-11.179284
-11.179175
-11.178787
-11.178026
-11.176781
-11.17509
-11.173176
-11.17926
-11.179401
-11.179514
-11.179412
-11.179045
-11.178319
-11.177109
-11.175431
-11.173509
-11.179345
-11.179483
-11.179596
-11.179494
-11.179139
-11.178436
-11.177251
-11.175583
-11.173669
-11.179359
-11.179495
-11.179606
-11.179504
-11.179154
-11.178462
-11.177289
-11.175629
-11.173722
-11.179359
-11.179495
-11.179606
-11.179504
-11.179154
-11.178462
-11.177289
-11.175629
-11.173723
-11.179345
-11.179483
-11.179596
-11.179494
-11.179139
-11.178435
-11.177251
-11.175583
-11.17367
-11.179259
-11.1794
-11.179513
-11.179411
-11.179045
-11.178319
-11.177109
-11.175431
-11.17351
-11.17903
-11.179173
-11.179284
-11.179175
-11.178787
-11.178025
-11.176781
-11.175091
-11.173176
-11.178555
-11.178697
-11.178802
-11.17868
-11.178263
-11.177462
-11.176182
-11.174485
-11.1726
-11.177741
-11.177877
-11.17797
-11.17783
-11.177379
-11.176541
-11.175242
-11.173561
-11.171734
-11.176506
-11.17663
-11.176705
-11.176543
-11.176063
-11.175203
-11.173912
-11.172293
-11.170566
-11.174815
-11.174916
-11.174961
-11.17477
-11.174269
-11.173408
-11.172173
-11.170674
-11.169104
-11.172559
-11.172642
-11.172667
-11.172466
-11.171971
-11.171155
-11.170036
-11.168725
-11.167368
-11.169787
-11.169849
-11.169856
-11.169658
-11.169199
-11.168474
-11.16753
-11.166474
-11.165375
-11.166603
-11.166638
-11.166618
-11.16642
-11.166022
-11.165458
-11.16479
-11.164092
-11.163264
-11.162522
-11.16254
-11.162552
-11.162497
-11.162376
-11.16222
-11.162079
-11.161967
-11.161612
-10.452853
-10.452917
-10.453003
-10.453133
-10.453275
-10.453329
-10.453191
-10.452825
-10.45226
-10.45274
-10.452801
-10.45288
-10.453
-10.453114
-10.4531
-10.452832
-10.452239
-10.451386
-10.452652
-10.452705
-10.452775
-10.452884
-10.452979
-10.452926
-10.452585
-10.451892
-10.450927
-10.452382
-10.452428
-10.452488
-10.452592
-10.452679
-10.452602
-10.452211
-10.451445
-10.45039
-10.451946
-10.451983
-10.452034
-10.45213
-10.452206
-10.452105
-10.451669
-10.450839
-10.449707
-10.451391
-10.451415
-10.45145
-10.451536
-10.4516
-10.451476
-10.451002
-10.450124
-10.448943
-10.450723
-10.450734
-10.450754
-10.450828
-10.450887
-10.450746
-10.450245
-10.449344
-10.448141
-10.450013
-10.45001
-10.450014
-10.450076
-10.450121
-10.449971
-10.449456
-10.44855
-10.447348
-10.449322
-10.449304
-10.449293
-10.449343
-10.449378
-10.449217
-10.448692
-10.447786
-10.446521
-10.448725
-10.448694
-10.448668
-10.448706
-10.448729
-10.448557
-10.448011
-10.44706
-10.44573
-10.448282
-10.44824
-10.448203
-10.448232
-10.448247
-10.448064
-10.447493
-10.446485
-10.445164
-10.448041
-10.447995
-10.447953
-10.447978
-10.447989
-10.4478
-10.447219
-10.44619
-10.444876
-10.448041
-10.447995
-10.447953
-10.447977
-10.447989
-10.4478
-10.447219
-10.44619
-10.444876
-10.448282
-10.44824
-10.448203
-10.448231
-10.448246
-10.448063
-10.447493
-10.446485
-10.445165
-10.448724
-10.448693
-10.448667
-10.448705
-10.448729
-10.448557
-10.44801
-10.44706
-10.44573
-10.449321
-10.449304
-10.449293
-10.449343
-10.449377
-10.449217
-10.448691
-10.447785
-10.446521
-10.450012
-10.450009
-10.450013
-10.450075
-10.45012
-10.44997
-10.449455
-10.448549
-10.447348
-10.450722
-10.450733
-10.450753
-10.450827
-10.450885
-10.450744
-10.450244
-10.449343
-10.448141
-10.451389
-10.451414
-10.451449
-10.451534
-10.451599
-10.451474
-10.451
-10.450123
-10.448942
-10.451944
-10.451981
-10.452031
-10.452128
-10.452204
-10.452103
-10.451667
-10.450837
-10.449706
-10.45238
-10.452426
-10.452486
-10.452589
-10.452676
-10.452599
-10.452209
-10.451442
-10.450388
-10.452649
-10.452703
-10.452772
-10.452881
-10.452977
-10.452923
-10.452582
-10.451889
-10.450925
-10.452738
-10.452798
-10.452877
-10.452997
-10.453111
-10.453097
-10.452829
-10.452237
-10.451383
-10.452851
-10.452914
-10.453
-10.453131
-10.453273
-10.453327
-10.453189
-10.452823
-10.452257
-10.056598
-10.056643
-10.056696
-10.056733
-10.056766
-10.056823
-10.056934
-10.057108
-10.057181
-10.056889
-10.056939
-10.056987
-10.056997
-10.056977
-10.056958
-10.056975
-10.057039
-10.05707
-10.057186
-10.057237
-10.057281
-10.057276
-10.057229
-10.057176
-10.057159
-10.057201
-10.057274
-10.057432
-10.057478
-10.057516
-10.057499
-10.057435
-10.057367
-10.057342
-10.057383
-10.057477
-10.057629
-10.057671
-10.057702
-10.057672
-10.057591
-10.057509
-10.05748
-10.057525
-10.057635
-10.057789
-10.057826
-10.057849
-10.057807
-10.057709
-10.057617
-10.057587
-10.057639
-10.05776
-10.057907
-10.057939
-10.057955
-10.0579
-10.057792
-10.057693
-10.057665
-10.057719
-10.057839
-10.057993
-10.058021
-10.05803
-10.057965
-10.057847
-10.057743
-10.057716
-10.057764
-10.057877
-10.058054
-10.058077
-10.058079
-10.058007
-10.057882
-10.057777
-10.057755
-10.05781
-10.058012
-10.058097
-10.058115
-10.058112
-10.058035
-10.057907
-10.057807
-10.057805
-10.057929
-10.058233
-10.058127
-10.058141
-10.058134
-10.058053
-10.057924
-10.05783
-10.057857
-10.058067
-10.058388
-10.058138
-10.058151
-10.058143
-10.05806
-10.057931
-10.057842
-10.057884
-10.058131
-10.058459
-10.058138
-10.058151
-10.058143
-10.05806
-10.057931
-10.057842
-10.057884
-10.058131
-10.058459
-10.058126
-10.058141
-10.058134
-10.058053
-10.057924
-10.05783
-10.057857
-10.058067
-10.058388
-10.058097
-10.058115
-10.058112
-10.058034
-10.057906
-10.057806
-10.057804
-10.057929
-10.058233
-10.058054
-10.058076
-10.058079
-10.058006
-10.057881
-10.057777
-10.057754
-10.05781
-10.058012
-10.057993
-10.05802
-10.058029
-10.057964
-10.057846
-10.057742
-10.057715
-10.057764
-10.057877
-10.057906
-10.057938
-10.057954
-10.057899
-10.057791
-10.057691
-10.057663
-10.057718
-10.057838
-10.057788
-10.057825
-10.057848
-10.057805
-10.057707
-10.057615
-10.057585
-10.057637
-10.057759
-10.057627
-10.057669
-10.0577
-10.057669
-10.057588
-10.057507
-10.057477
-10.057523
-10.057633
-10.057429
-10.057476
-10.057513
-10.057496
-10.057432
-10.057364
-10.057339
-10.057381
-10.057474
-10.057183
-10.057233
-10.057277
-10.057272
-10.057225
-10.057172
-10.057156
-10.057197
-10.05727
-10.056885
-10.056935
-10.056983
-10.056993
-10.056973
-10.056954
-10.05697
-10.057034
-10.057064
-10.056594
-10.056639
-10.056691
-10.056729
-10.056761
-10.056817
-10.056928
-10.0571
-10.057173
-9.4729827
-9.472993
-9.4730167
-9.4730718
-9.4731519
-9.4732272
-9.4732624
-9.4732387
-9.4731521
-9.4730923
-9.4731011
-9.4731219
-9.4731721
-9.47324
-9.4732862
-9.4732643
-9.47315
-9.4729727
-9.4732517
-9.473257
-9.473274
-9.4733211
-9.473384
-9.4734183
-9.4733732
-9.4732286
-9.4730305
-9.4733995
-9.4734004
-9.4734129
-9.473457
-9.473517
-9.4735448
-9.4734866
-9.4733244
-9.4730993
-9.4735332
-9.4735302
-9.4735377
-9.4735773
-9.473632
-9.4736515
-9.4735811
-9.4734047
-9.4731606
-9.4736492
-9.4736426
-9.4736455
-9.4736806
-9.4737296
-9.4737414
-9.4736623
-9.4734788
-9.4732225
-9.4737382
-9.4737287
-9.4737279
-9.4737592
-9.473803
-9.4738082
-9.4737235
-9.473532
-9.473212
-9.4738012
-9.4737897
-9.4737858
-9.4738138
-9.4738517
-9.473849
-9.4737542
-9.4735016
-9.4730969
-9.4738399
-9.4738273
-9.4738211
-9.4738449
-9.4738761
-9.4738578
-9.4737244
-9.4734029
-9.4729606
-9.4738607
-9.4738473
-9.4738392
-9.4738587
-9.4738831
-9.4738446
-9.4736661
-9.4733187
-9.4728519
-9.4738698
-9.473856
-9.4738469
-9.4738637
-9.4738821
-9.4738305
-9.473627
-9.4732586
-9.4727775
-9.4738728
-9.473859
-9.4738495
-9.4738652
-9.4738798
-9.4738219
-9.4736077
-9.4732274
-9.4727388
-9.4738729
-9.4738591
-9.4738495
-9.4738652
-9.4738798
-9.4738219
-9.4736077
-9.4732275
-9.472739
-9.47387
-9.4738561
-9.473847
-9.4738637
-9.473882
-9.4738304
-9.473627
-9.4732588
-9.4727781
-9.4738609
-9.4738474
-9.4738393
-9.4738586
-9.4738829
-9.4738444
-9.4736661
-9.473319
-9.4728528
-9.4738401
-9.4738274
-9.473821
-9.4738446
-9.4738757
-9.4738574
-9.4737242
-9.4734032
-9.4729617
-9.4738012
-9.4737895
-9.4737854
-9.4738132
-9.473851
-9.4738483
-9.4737537
-9.4735019
-9.4730981
-9.4737378
-9.4737281
-9.4737271
-9.4737581
-9.4738018
-9.473807
-9.4737227
-9.473532
-9.4732132
-9.4736482
-9.4736413
-9.473644
-9.4736789
-9.4737277
-9.4737396
-9.4736611
-9.4734786
-9.4732235
-9.4735312
-9.4735281
-9.4735353
-9.4735747
-9.4736292
-9.4736489
-9.4735792
-9.473404
-9.4731613
-9.4733963
-9.4733971
-9.4734093
-9.4734532
-9.4735131
-9.4735412
-9.4734838
-9.473323
-9.4730995
-9.4732472
-9.4732523
-9.4732691
-9.473316
-9.4733789
-9.4734134
-9.4733691
-9.4732259
-9.4730297
-9.4730864
-9.4730951
-9.4731157
-9.4731658
-9.4732337
-9.47328
-9.4732586
-9.4731456
-9.4729706
-9.4729759
-9.4729862
-9.4730099
-9.4730649
-9.4731448
-9.4732201
-9.4732554
-9.4732324
-9.473148
-8.9975104
-8.9975272
-8.9975461
-8.9975592
-8.9975685
-8.9975819
-8.9976061
-8.9976455
-8.9976528
-8.9974807
-8.9974993
-8.9975181
-8.9975261
-8.9975247
-8.9975218
-8.9975247
-8.9975359
-8.9975324
-8.9974844
-8.9975022
-8.9975188
-8.9975214
-8.9975124
-8.9975019
-8.9975009
-8.997515
-8.9975367
-8.9974863
-8.997502
-8.9975154
-8.9975134
-8.9974993
-8.9974859
-8.9974874
-8.9975101
-8.9975476
-8.997491
-8.9975043
-8.997514
-8.9975065
-8.9974864
-8.9974692
-8.9974716
-8.9974991
-8.9975441
-8.9975039
-8.9975141
-8.9975196
-8.9975062
-8.9974797
-8.9974585
-8.997459
-8.9974858
-8.9975357
-8.9975227
-8.9975297
-8.9975311
-8.9975124
-8.9974807
-8.9974559
-8.9974546
-8.9974885
-8.9976045
-8.9975506
-8.9975541
-8.9975512
-8.9975279
-8.997493
-8.9974677
-8.9974732
-8.9975765
-8.9977824
-8.9975843
-8.9975845
-8.9975779
-8.9975516
-8.9975164
-8.9975005
-8.9975471
-8.9977283
-8.9979694
-8.997618
-8.9976154
-8.9976059
-8.9975779
-8.9975452
-8.9975456
-8.9976424
-8.997853
-8.9981131
-8.9976451
-8.9976404
-8.9976286
-8.9975995
-8.9975691
-8.9975805
-8.9977059
-8.9979367
-8.9982112
-8.9976584
-8.9976528
-8.9976401
-8.9976105
-8.9975813
-8.9975984
-8.9977366
-8.997979
-8.9982614
-8.9976586
-8.9976529
-8.9976402
-8.9976106
-8.9975814
-8.9975985
-8.9977367
-8.9979792
-8.9982618
-8.9976456
-8.9976408
-8.997629
-8.9975998
-8.9975693
-8.9975807
-8.9977062
-8.9979373
-8.9982123
-8.9976188
-8.9976161
-8.9976064
-8.9975783
-8.9975455
-8.9975458
-8.9976429
-8.997854
-8.9981148
-8.9975852
-8.9975852
-8.9975785
-8.9975519
-8.9975166
-8.9975007
-8.9975476
-8.9977296
-8.9979716
-8.9975513
-8.9975547
-8.9975516
-8.997528
-8.9974929
-8.9974677
-8.9974736
-8.9975779
-8.9977851
-8.997523
-8.9975298
-8.9975309
-8.9975119
-8.9974801
-8.9974554
-8.9974547
-8.9974899
-8.9976075
-8.9975035
-8.9975135
-8.9975187
-8.9975049
-8.9974783
-8.9974572
-8.9974586
-8.9974869
-8.9975388
-8.9974895
-8.9975025
-8.997512
-8.9975041
-8.9974838
-8.997467
-8.9974703
-8.9974997
-8.9975471
-8.9974833
-8.9974988
-8.9975119
-8.9975096
-8.9974953
-8.9974823
-8.9974849
-8.9975098
-8.9975501
-8.9974797
-8.9974973
-8.9975136
-8.997516
-8.9975069
-8.9974967
-8.9974968
-8.9975132
-8.9975383
-8.9974743
-8.9974928
-8.9975114
-8.9975192
-8.9975177
-8.9975151
-8.9975189
-8.9975322
-8.9975324
-8.9975029
-8.9975197
-8.9975386
-8.9975516
-8.9975609
-8.9975743
-8.997599
-8.9976397
-8.9976501
-8.4638717
-8.4638721
-8.4638767
-8.4638911
-8.4639139
-8.4639369
-8.4639505
-8.463948
-8.4639229
-8.4639333
-8.463933
-8.4639362
-8.4639486
-8.4639668
-8.463979
-8.4639718
-8.4639364
-8.4638766
-8.4640072
-8.4640059
-8.4640079
-8.4640189
-8.4640344
-8.464041
-8.4640236
-8.4639742
-8.4639019
-8.4640755
-8.4640729
-8.4640736
-8.4640833
-8.4640968
-8.4640997
-8.4640755
-8.4640163
-8.4639292
-8.4641362
-8.4641325
-8.4641316
-8.4641397
-8.464151
-8.4641501
-8.4641199
-8.4640523
-8.4639513
-8.4641881
-8.4641834
-8.4641812
-8.4641875
-8.4641966
-8.4641924
-8.4641578
-8.4640829
-8.4639629
-8.4642287
-8.4642232
-8.46422
-8.4642248
-8.4642315
-8.4642243
-8.4641849
-8.4640912
-8.4639485
-8.4642578
-8.4642518
-8.4642477
-8.4642509
-8.4642548
-8.4642429
-8.4641891
-8.4640725
-8.4639148
-8.4642765
-8.4642703
-8.4642653
-8.4642666
-8.4642665
-8.4642463
-8.4641765
-8.4640481
-8.4638832
-8.4642878
-8.4642813
-8.4642757
-8.4642752
-8.464271
-8.4642425
-8.4641647
-8.4640298
-8.4638594
-8.464294
-8.4642874
-8.4642812
-8.4642795
-8.4642728
-8.4642396
-8.4641564
-8.4640177
-8.4638434
-8.4642965
-8.4642898
-8.4642833
-8.4642809
-8.4642731
-8.4642384
-8.4641522
-8.4640117
-8.4638355
-8.4642968
-8.4642901
-8.4642835
-8.4642811
-8.4642732
-8.4642385
-8.4641524
-8.464012
-8.463836
-8.4642948
-8.4642881
-8.4642818
-8.46428
-8.4642732
-8.46424
-8.4641569
-8.4640186
-8.4638449
-8.4642889
-8.4642824
-8.4642766
-8.4642759
-8.4642716
-8.4642431
-8.4641655
-8.4640312
-8.4638618
-8.4642779
-8.4642715
-8.4642664
-8.4642674
-8.4642671
-8.464247
-8.4641775
-8.46405
-8.4638863
-8.4642591
-8.464253
-8.4642487
-8.4642515
-8.4642552
-8.4642434
-8.4641901
-8.4640745
-8.4639184
-8.4642297
-8.464224
-8.4642205
-8.464225
-8.4642314
-8.4642243
-8.4641856
-8.4640933
-8.4639524
-8.4641885
-8.4641835
-8.464181
-8.4641869
-8.4641958
-8.4641917
-8.4641579
-8.4640847
-8.4639667
-8.4641355
-8.4641314
-8.4641302
-8.4641379
-8.4641489
-8.4641483
-8.4641191
-8.4640534
-8.4639547
-8.4640732
-8.4640703
-8.4640706
-8.4640799
-8.4640933
-8.4640966
-8.4640734
-8.4640162
-8.4639315
-8.464003
-8.4640015
-8.4640032
-8.4640139
-8.4640293
-8.4640362
-8.4640197
-8.4639722
-8.4639025
-8.4639274
-8.4639269
-8.4639299
-8.4639421
-8.4639602
-8.4639725
-8.4639658
-8.4639317
-8.4638746
-8.4638646
-8.4638651
-8.4638695
-8.4638838
-8.4639064
-8.4639292
-8.4639425
-8.4639402
-8.4639176
-7.9601868
-7.9601913
-7.9601963
-7.9601996
-7.9602019
-7.9602059
-7.9602153
-7.9602332
-7.9602442
-7.960168
-7.960173
-7.960178
-7.9601801
-7.9601799
-7.9601801
-7.9601838
-7.960193
-7.9601986
-7.9601576
-7.9601623
-7.9601666
-7.9601672
-7.9601651
-7.9601636
-7.9601666
-7.9601761
-7.9601882
-7.9601469
-7.960151
-7.9601543
-7.9601535
-7.9601498
-7.9601472
-7.9601506
-7.9601618
-7.9601783
-7.960138
-7.9601414
-7.9601435
-7.9601409
-7.9601352
-7.9601311
-7.9601338
-7.9601453
-7.9601658
-7.9601333
-7.9601357
-7.9601365
-7.960132
-7.960124
-7.960118
-7.960119
-7.9601307
-7.9601613
-7.9601324
-7.960134
-7.9601336
-7.9601273
-7.9601175
-7.96011
-7.9601109
-7.960135
-7.9601785
-7.9601363
-7.9601369
-7.9601353
-7.9601279
-7.9601174
-7.9601106
-7.9601219
-7.9601607
-7.960208
-7.9601439
-7.9601437
-7.9601412
-7.9601333
-7.9601239
-7.9601223
-7.9601444
-7.9601856
-7.9602309
-7.9601523
-7.9601515
-7.9601484
-7.9601405
-7.9601328
-7.9601369
-7.9601611
-7.9602003
-7.960244
-7.960159
-7.9601578
-7.9601544
-7.9601464
-7.9601395
-7.9601462
-7.960171
-7.9602076
-7.9602506
-7.9601629
-7.9601616
-7.9601581
-7.9601501
-7.9601435
-7.9601504
-7.9601755
-7.9602106
-7.9602534
-7.9601632
-7.9601619
-7.9601583
-7.9601503
-7.9601436
-7.9601506
-7.9601757
-7.960211
-7.9602539
-7.9601599
-7.9601587
-7.9601551
-7.960147
-7.96014
-7.9601466
-7.9601716
-7.9602086
-7.9602521
-7.9601536
-7.9601527
-7.9601495
-7.9601414
-7.9601336
-7.9601376
-7.960162
-7.9602018
-7.9602465
-7.9601455
-7.9601452
-7.9601424
-7.9601343
-7.9601247
-7.960123
-7.9601455
-7.9601875
-7.9602341
-7.960138
-7.9601384
-7.9601365
-7.9601287
-7.960118
-7.9601112
-7.9601229
-7.9601629
-7.9602118
-7.9601338
-7.9601352
-7.9601344
-7.9601277
-7.9601177
-7.9601101
-7.9601117
-7.9601371
-7.9601826
-7.960134
-7.9601362
-7.9601365
-7.9601316
-7.9601233
-7.9601174
-7.9601193
-7.9601325
-7.9601653
-7.9601376
-7.9601407
-7.9601424
-7.9601394
-7.9601334
-7.9601295
-7.9601331
-7.9601465
-7.9601693
-7.960145
-7.9601489
-7.9601518
-7.9601506
-7.9601467
-7.9601445
-7.9601488
-7.9601618
-7.9601807
-7.960154
-7.9601586
-7.9601626
-7.960163
-7.9601607
-7.9601595
-7.9601633
-7.9601744
-7.960189
-7.960163
-7.9601679
-7.9601726
-7.9601746
-7.9601743
-7.9601746
-7.9601789
-7.9601892
-7.9601971
-7.9601809
-7.9601854
-7.9601903
-7.9601935
-7.9601957
-7.9601995
-7.9602087
-7.960227
-7.9602399
-7.4424541
-7.442454
-7.4424549
-7.4424583
-7.4424641
-7.4424703
-7.4424732
-7.4424696
-7.4424565
-7.4424621
-7.4424619
-7.4424626
-7.4424655
-7.4424698
-7.4424725
-7.4424697
-7.4424576
-7.4424366
-7.4424743
-7.4424737
-7.4424741
-7.4424765
-7.4424799
-7.4424809
-7.4424754
-7.4424605
-7.4424381
-7.4424863
-7.4424853
-7.4424851
-7.4424871
-7.4424899
-7.4424898
-7.4424827
-7.442466
-7.4424412
-7.4424975
-7.4424961
-7.4424954
-7.4424968
-7.4424988
-7.4424978
-7.4424891
-7.4424704
-7.4424432
-7.4425076
-7.4425058
-7.4425046
-7.4425054
-7.4425067
-7.4425045
-7.4424943
-7.4424736
-7.4424444
-7.4425158
-7.4425137
-7.4425121
-7.4425124
-7.4425128
-7.4425094
-7.4424975
-7.4424749
-7.4424443
-7.4425221
-7.4425197
-7.4425178
-7.4425175
-7.4425171
-7.4425124
-7.4424986
-7.4424748
-7.442444
-7.4425268
-7.4425242
-7.4425219
-7.4425211
-7.4425199
-7.4425139
-7.4424986
-7.4424746
-7.442444
-7.4425301
-7.4425274
-7.4425249
-7.4425237
-7.4425218
-7.4425146
-7.4424982
-7.4424746
-7.4424444
-7.4425324
-7.4425296
-7.4425269
-7.4425253
-7.4425229
-7.4425147
-7.4424978
-7.4424747
-7.4424451
-7.4425336
-7.4425307
-7.4425279
-7.4425262
-7.4425234
-7.4425148
-7.4424977
-7.442475
-7.4424457
-7.4425339
-7.442531
-7.4425282
-7.4425264
-7.4425236
-7.442515
-7.4424979
-7.4424753
-7.4424462
-7.4425333
-7.4425304
-7.4425276
-7.442526
-7.4425234
-7.4425152
-7.4424984
-7.4424757
-7.4424466
-7.4425315
-7.4425287
-7.442526
-7.4425246
-7.4425225
-7.4425153
-7.4424991
-7.4424761
-7.4424469
-7.4425285
-7.4425258
-7.4425232
-7.4425221
-7.4425207
-7.4425147
-7.4424997
-7.4424765
-7.4424472
-7.4425238
-7.4425212
-7.442519
-7.4425184
-7.4425177
-7.442513
-7.4424996
-7.442477
-7.4424477
-7.4425172
-7.4425149
-7.442513
-7.4425128
-7.4425129
-7.4425096
-7.4424982
-7.442477
-7.4424484
-7.4425083
-7.4425062
-7.4425047
-7.4425051
-7.4425061
-7.4425039
-7.4424945
-7.4424754
-7.4424484
-7.4424972
-7.4424955
-7.4424944
-7.4424954
-7.4424971
-7.4424962
-7.4424885
-7.4424716
-7.4424469
-7.4424844
-7.4424832
-7.4424827
-7.4424843
-7.4424869
-7.4424871
-7.442481
-7.4424661
-7.4424439
-7.4424708
-7.4424701
-7.4424701
-7.4424723
-7.4424756
-7.4424768
-7.4424722
-7.4424591
-7.4424393
-7.4424572
-7.4424568
-7.4424574
-7.4424602
-7.4424644
-7.4424673
-7.442465
-7.4424542
-7.4424357
-7.4424484
-7.4424483
-7.4424491
-7.4424525
-7.4424582
-7.4424642
-7.4424671
-7.4424639
-7.4424529
-6.9307635
-6.9307646
-6.9307658
-6.9307668
-6.9307676
-6.9307685
-6.9307701
-6.9307725
-6.9307723
-6.9307591
-6.9307603
-6.9307615
-6.9307621
-6.9307622
-6.930762
-6.9307617
-6.9307612
-6.9307587
-6.9307559
-6.930757
-6.930758
-6.9307582
-6.9307578
-6.9307571
-6.9307568
-6.9307567
-6.9307559
-6.930752
-6.9307529
-6.9307536
-6.9307535
-6.9307528
-6.930752
-6.9307521
-6.930753
-6.9307538
-6.9307479
-6.9307486
-6.930749
-6.9307485
-6.9307474
-6.9307466
-6.930747
-6.9307489
-6.9307513
-6.9307443
-6.9307447
-6.9307447
-6.9307438
-6.9307422
-6.9307413
-6.9307423
-6.9307452
-6.930749
-6.9307413
-6.9307415
-6.9307412
-6.9307397
-6.9307378
-6.9307368
-6.9307381
-6.9307419
-6.9307471
-6.9307391
-6.9307391
-6.9307385
-6.9307367
-6.9307343
-6.9307331
-6.9307346
-6.9307393
-6.9307455
-6.9307374
-6.9307372
-6.9307364
-6.9307343
-6.9307316
-6.9307301
-6.9307319
-6.9307372
-6.9307444
-6.9307362
-6.9307359
-6.9307348
-6.9307324
-6.9307295
-6.930728
-6.9307299
-6.9307357
-6.9307436
-6.9307355
-6.9307351
-6.9307339
-6.9307313
-6.9307282
-6.9307266
-6.9307287
-6.9307348
-6.9307432
-6.9307353
-6.9307348
-6.9307335
-6.9307308
-6.9307276
-6.930726
-6.9307281
-6.9307345
-6.9307433
-6.9307356
-6.9307351
-6.9307337
-6.930731
-6.9307278
-6.9307262
-6.9307283
-6.9307349
-6.9307438
-6.9307364
-6.9307359
-6.9307346
-6.9307319
-6.9307287
-6.9307271
-6.9307293
-6.9307358
-6.9307447
-6.9307375
-6.9307371
-6.9307359
-6.9307333
-6.9307302
-6.9307287
-6.9307308
-6.9307372
-6.9307459
-6.930739
-6.9307387
-6.9307376
-6.9307353
-6.9307323
-6.9307309
-6.930733
-6.9307391
-6.9307474
-6.9307407
-6.9307405
-6.9307397
-6.9307375
-6.9307349
-6.9307337
-6.9307357
-6.9307414
-6.9307491
-6.9307426
-6.9307426
-6.930742
-6.9307402
-6.930738
-6.930737
-6.9307389
-6.9307441
-6.930751
-6.930745
-6.9307452
-6.9307449
-6.9307435
-6.9307417
-6.9307409
-6.9307426
-6.9307471
-6.930753
-6.9307476
-6.930748
-6.930748
-6.9307471
-6.9307458
-6.9307452
-6.9307465
-6.9307502
-6.9307549
-6.9307502
-6.9307509
-6.9307512
-6.9307508
-6.9307499
-6.9307494
-6.9307504
-6.9307532
-6.9307565
-6.9307525
-6.9307533
-6.9307541
-6.930754
-6.9307535
-6.9307531
-6.9307536
-6.9307552
-6.930757
-6.9307542
-6.9307553
-6.9307563
-6.9307567
-6.9307567
-6.9307566
-6.9307568
-6.9307574
-6.9307574
-6.9307577
-6.9307588
-6.93076
-6.9307608
-6.9307614
-6.9307621
-6.9307635
-6.930766
-6.9307681
-6.4168815
-6.4168816
-6.4168819
-6.4168827
-6.4168838
-6.4168848
-6.4168852
-6.416885
-6.4168828
-6.4168832
-6.4168833
-6.4168836
-6.4168843
-6.416885
-6.4168854
-6.4168846
-6.4168825
-6.4168784
-6.4168858
-6.4168858
-6.416886
-6.4168866
-6.4168872
-6.4168873
-6.4168865
-6.4168841
-6.4168799
-6.4168885
-6.4168884
-6.4168885
-6.4168889
-6.4168894
-6.4168896
-6.4168888
-6.4168863
-6.4168819
-6.4168915
-6.4168913
-6.4168912
-6.4168915
-6.4168918
-6.4168919
-6.4168909
-6.4168883
-6.4168838
-6.4168944
-6.416894
-6.4168938
-6.4168939
-6.4168941
-6.4168939
-6.4168929
-6.4168902
-6.4168857
-6.4168968
-6.4168964
-6.416896
-6.4168959
-6.416896
-6.4168957
-6.4168946
-6.416892
-6.4168876
-6.4168988
-6.4168983
-6.4168978
-6.4168976
-6.4168975
-6.4168971
-6.4168961
-6.4168936
-6.4168893
-6.4169005
-6.4168999
-6.4168993
-6.416899
-6.4168988
-6.4168984
-6.4168973
-6.4168949
-6.4168908
-6.4169018
-6.4169012
-6.4169005
-6.4169001
-6.4168998
-6.4168993
-6.4168983
-6.4168961
-6.4168921
-6.4169028
-6.4169021
-6.4169014
-6.4169009
-6.4169005
-6.4169001
-6.4168991
-6.4168969
-6.4168931
-6.4169034
-6.4169027
-6.4169019
-6.4169014
-6.416901
-6.4169005
-6.4168996
-6.4168975
-6.4168938
-6.4169037
-6.4169029
-6.4169021
-6.4169016
-6.4169011
-6.4169006
-6.4168997
-6.4168978
-6.4168942
-6.4169035
-6.4169027
-6.416902
-6.4169014
-6.4169009
-6.4169004
-6.4168996
-6.4168977
-6.4168943
-6.4169029
-6.4169021
-6.4169014
-6.4169008
-6.4169003
-6.4168999
-6.4168991
-6.4168973
-6.416894
-6.4169018
-6.4169011
-6.4169003
-6.4168998
-6.4168994
-6.4168989
-6.4168982
-6.4168965
-6.4168934
-6.4169002
-6.4168995
-6.4168988
-6.4168983
-6.416898
-6.4168976
-6.4168969
-6.4168953
-6.4168923
-6.4168979
-6.4168973
-6.4168967
-6.4168963
-6.4168961
-6.4168959
-6.4168952
-6.4168937
-6.4168909
-6.4168949
-6.4168944
-6.4168939
-6.4168936
-6.4168936
-6.4168935
-6.4168931
-6.4168918
-6.416889
-6.4168912
-6.4168907
-6.4168904
-6.4168903
-6.4168904
-6.4168906
-6.4168905
-6.4168894
-6.4168868
-6.416887
-6.4168867
-6.4168864
-6.4168865
-6.4168869
-6.4168873
-6.4168874
-6.4168865
-6.4168841
-6.4168828
-6.4168826
-6.4168826
-6.4168829
-6.4168835
-6.4168838
-6.4168837
-6.4168827
-6.4168807
-6.4168789
-6.4168789
-6.416879
-6.4168795
-6.4168802
-6.4168806
-6.4168803
-6.4168791
-6.4168772
-6.4168764
-6.4168765
-6.4168767
-6.4168774
-6.4168783
-6.4168791
-6.4168794
-6.4168794
-6.4168793
-5.9036812
-5.9036814
-5.9036816
-5.9036818
-5.9036821
-5.9036824
-5.9036828
-5.9036834
-5.9036823
-5.9036814
-5.9036816
-5.9036818
-5.9036819
-5.903682
-5.9036821
-5.903682
-5.9036813
-5.9036795
-5.9036816
-5.9036817
-5.9036819
-5.9036821
-5.9036821
-5.9036821
-5.9036816
-5.9036806
-5.903679
-5.9036814
-5.9036815
-5.9036817
-5.9036818
-5.9036818
-5.9036817
-5.9036812
-5.9036802
-5.9036787
-5.903681
-5.9036811
-5.9036812
-5.9036812
-5.9036811
-5.903681
-5.9036806
-5.9036798
-5.9036785
-5.9036806
-5.9036806
-5.9036806
-5.9036805
-5.9036803
-5.9036802
-5.9036799
-5.9036794
-5.9036784
-5.9036802
-5.9036801
-5.90368
-5.9036798
-5.9036795
-5.9036793
-5.9036792
-5.903679
-5.9036784
-5.9036799
-5.9036798
-5.9036797
-5.9036793
-5.903679
-5.9036787
-5.9036787
-5.9036787
-5.9036784
-5.9036799
-5.9036797
-5.9036794
-5.903679
-5.9036786
-5.9036783
-5.9036784
-5.9036786
-5.9036785
-5.9036799
-5.9036797