/*--------------------------------*- C++ -*----------------------------------*\
| =========                 |                                                 |
| \\      /  F ield         | OpenFOAM: The Open Source CFD Toolbox           |
|  \\    /   O peration     | Version:  2406                                  |
|   \\  /    A nd           | Website:  www.openfoam.com                      |
|    \\/     M anipulation  |                                                 |
\*---------------------------------------------------------------------------*/
FoamFile
{
    version     2.0;
    format      ascii;
    arch        "LSB;label=32;scalar=64";
    class       surfaceScalarField;
    location    "13.5";
    object      phi;
}
// * * * * * * * * * * * * * * * * * * * * * * * * * * * * * * * * * * * * * //

dimensions      [0 3 -1 0 0 0 0];

oriented        oriented;

internalField   nonuniform List<scalar> 
101088
(
-0.00017425935
3.7910281e-05
-1.5065627e-05
-3.2048068e-05
-0.00038750461
0.00017241056
-6.9388055e-05
-0.00014651369
-0.00062333789
0.00043170164
-0.00017678391
-0.00036827348
-0.00084543084
0.00083822661
-0.00035239525
-0.0007199649
-0.0010069907
0.0013473723
-0.0005806824
-0.0011694182
-0.001087882
0.0018544175
-0.0007993812
-0.0016241968
-0.0011252919
0.0022534129
-0.0009246569
-0.0019783196
-0.0011855537
0.0024709778
-0.00091116876
-0.0021589083
0.0024612641
-0.00078133248
-0.0021483457
-0.0012911841
-0.00021154518
4.1938543e-05
-1.7537795e-05
-0.00046401761
0.00019166647
-8.1307936e-05
-0.00073080756
0.00047955974
-0.00020829828
-0.0009593499
0.0009253828
-0.00041634881
-0.0010925829
0.0014760048
-0.0006855897
-0.0011165509
0.0020224172
-0.00094155235
-0.0010836385
0.0024601523
-0.0010884425
-0.0010689201
0.0027096434
-0.0010782401
0.0027063509
-0.00093799362
-0.00110759
-0.00024981015
4.4197478e-05
-1.9480625e-05
-0.00054266893
0.00020308505
-9.1126968e-05
-0.00084203746
0.00050895846
-0.00023511503
-0.0010817405
0.00097848854
-0.00047146619
-0.00119481
0.0015509665
-0.00077500333
-0.0011708304
0.0021181714
-0.0010590377
-0.0010749951
0.0025812731
-0.0012185608
-0.0009942584
0.0028565857
-0.0012058501
0.0028682516
-0.0010547654
-0.00097619393
-0.00028753376
4.4605499e-05
-2.0877318e-05
-0.00062091902
0.00020614763
-9.866407e-05
-0.00095331199
0.0005176413
-0.00025661366
-0.0012052094
0.00099266826
-0.00051652737
-0.00130329
0.0015669489
-0.00084760015
-0.0012422161
0.002136721
-0.0011515996
-0.001099825
0.0026132991
-0.0013167502
-0.00097028737
0.0029075373
-0.0012974148
0.0029375977
-0.0011357411
-0.00090608683
-0.00032328576
4.2625989e-05
-2.1607731e-05
-0.00069523005
0.0001991965
-0.00010343729
-0.001060136
0.00050322233
-0.00027179876
-0.0013275086
0.00096602761
-0.00055013699
-0.0014191905
0.0015233978
-0.00090246846
-0.0013350032
0.0020792898
-0.0012202196
-0.001160939
0.0025549162
-0.0013850913
-0.00099712313
0.0028603913
-0.0013569477
0.0029086811
-0.0011855029
-0.00089636339
-0.00035768761
3.9146005e-05
-2.1738098e-05
-0.00076930951
0.00018482854
-0.00010565014
-0.0011711385
0.00046981763
-0.00028105354
-0.0014617368
0.00090324972
-0.00057303128
-0.0015575324
0.0014241232
-0.00094064408
-0.0014630114
0.0019480133
-0.0012657839
-0.0012689964
0.0024053
-0.0014263958
-0.0010801651
0.0027118644
-0.0013882126
0.0027753139
-0.0012081879
-0.00094797473
-0.00038857899
3.4144218e-05
-2.134351e-05
-0.0008367838
0.00016315844
-0.00010547237
-0.001274353
0.00041799015
-0.0002844515
-0.0015912532
0.00080632076
-0.00058488123
-0.0017003154
0.0012735987
-0.00096170123
-0.0016087822
0.0017485805
-0.0012890348
-0.0014071833
0.0021679412
-0.0014426096
-0.0012041136
0.0024640584
-0.0013941462
0.0025373122
-0.0012074357
-0.0010478631
-0.00041574474
2.7965186e-05
-2.0498915e-05
-0.00089769126
0.00013550859
-0.00010321312
-0.0013705809
0.00035051704
-0.00028268294
-0.0017171776
0.00067965546
-0.00058699755
-0.0018467238
0.0010773038
-0.00096788915
-0.0017684904
0.0014874052
-0.0012933141
-0.0015702737
0.0018494616
-0.001438334
-0.0013600068
0.0021198679
-0.0013798592
0.0021958891
-0.0011883773
-0.0011843282
-0.00043869275
2.1073492e-05
-1.9374986e-05
-0.00095080045
0.00010369317
-9.9542326e-05
-0.0014574763
0.00027113378
-0.00027715561
-0.0018355656
0.0005291017
-0.00058170998
-0.0019906397
0.00084258199
-0.0009626305
-0.0019310063
0.0011707751
-0.0012831433
-0.0017447031
0.0014597925
-0.0014193477
-0.0015323145
0.0016858172
-0.0013514289
0.001755925
-0.0011569375
-0.0013404264
-0.00045689419
1.3992923e-05
-1.8204681e-05
-0.00099447314
6.9821984e-05
-9.5410968e-05
-0.0015315547
0.00018431752
-0.00026991751
-0.0019402106
0.00036173721
-0.00057239614
-0.0021222546
0.0005784985
-0.00095074037
-0.0020828498
0.00080798915
-0.0012648928
-0.0019117542
0.0010105895
-0.0013926115
-0.0017004021
0.0011738619
-0.0013165499
0.0012283074
-0.0011204147
-0.0014948625
-0.00046948641
7.0222741e-06
-1.7281425e-05
-0.0010254728
3.523462e-05
-9.1976991e-05
-0.0015854697
9.3395999e-05
-0.000263391
-0.0020183515
0.0001836954
-0.0005629374
-0.0022230477
0.00029434459
-0.00093764773
-0.0022020536
0.00041237651
-0.0012456333
-0.0020449629
0.00051713397
-0.0013661005
-0.0018362584
0.00060292662
-0.001283899
0.00063287204
-0.0010871329
-0.0016206761
-0.00047585271
-6.1264449e-11
-1.6702374e-05
-0.0010412956
-2.3516388e-10
-8.9795249e-05
-0.0016134082
-5.7743764e-10
-0.00025914293
-0.0020597633
-1.0933468e-09
-0.0005566402
-0.0022778402
-1.660561e-09
-0.00092899878
-0.0022683849
-1.9389013e-09
-0.0012334101
-0.0021199082
-1.9243577e-09
-0.001349737
-0.0019134355
-7.8522281e-10
-0.0012641773
7.1514588e-10
-0.0010671791
-0.0016925926
-0.00047585253
-7.0224157e-06
-1.6702372e-05
-0.0010412955
-3.5235167e-05
-8.9795239e-05
-0.001613408
-9.3397183e-05
-0.0002591429
-0.0020597631
-0.00018369745
-0.00055664015
-0.0022778398
-0.00029434774
-0.00092899871
-0.0022683847
-0.00041238031
-0.00123341
-0.0021199077
-0.0005171375
-0.0013497369
-0.001913435
-0.00060292792
-0.0012641772
-0.00063287076
-0.001067179
-0.0016925923
-0.00046948624
-1.3993027e-05
-1.7281427e-05
-0.0010254727
-6.9822442e-05
-9.1977004e-05
-0.0015854694
-0.00018431862
-0.00026339104
-0.0020183514
-0.00036173927
-0.00056293745
-0.0022230473
-0.00057850179
-0.00093764782
-0.0022020532
-0.00080799322
-0.0012456333
-0.0020449621
-0.001010593
-0.0013661004
-0.0018362574
-0.0011738631
-0.0012838989
-0.0012283066
-0.0010871329
-0.0016206753
-0.00045689418
-2.1073535e-05
-1.8204682e-05
-0.00099447324
-0.00010369339
-9.5410973e-05
-0.0015315544
-0.00027113466
-0.00026991752
-0.0019402101
-0.00052910378
-0.00057239611
-0.0021222536
-0.00084258527
-0.00095074037
-0.0020828486
-0.0011707792
-0.0012648928
-0.001911753
-0.0014597964
-0.0013926115
-0.001700401
-0.0016858191
-0.0013165499
-0.0017559242
-0.0011204147
-0.0014948616
-0.00043869244
-2.7965141e-05
-1.937499e-05
-0.00095080044
-0.00013550858
-9.9542344e-05
-0.0014574761
-0.00035051753
-0.00027715565
-0.001835565
-0.00067965695
-0.00058171001
-0.0019906386
-0.0010773065
-0.00096263064
-0.0019310049
-0.0014874088
-0.0012831434
-0.001744702
-0.0018494661
-0.001419348
-0.0015323135
-0.0021198707
-0.0013514291
-0.0021958882
-0.0011569376
-0.0013404255
-0.00041574442
-3.4144293e-05
-2.0498921e-05
-0.00089769102
-0.0001631587
-0.00010321314
-0.0013705807
-0.00041799082
-0.000282683
-0.0017171772
-0.00080632225
-0.00058699762
-0.0018467231
-0.0012736012
-0.00096788938
-0.00176849
-0.0017485838
-0.0012933144
-0.0015702732
-0.0021679455
-0.0014383345
-0.0013600061
-0.0024640615
-0.0013798595
-0.0025373111
-0.0011883774
-0.0011843278
-0.00038857915
-3.9146085e-05
-2.1343518e-05
-0.00083678391
-0.00018482877
-0.0001054724
-0.0012743534
-0.00046981824
-0.00028445159
-0.0015912534
-0.00090325105
-0.00058488136
-0.0017003152
-0.0014241255
-0.00096170151
-0.0016087828
-0.0019480162
-0.0012890352
-0.0014071837
-0.0024053036
-0.0014426101
-0.0012041134
-0.0027118672
-0.0013941467
-0.002775313
-0.0012074358
-0.0010478627
-0.00035768773
-4.2626043e-05
-2.1738108e-05
-0.00076930962
-0.00019919669
-0.00010565019
-0.001171139
-0.0005032229
-0.00028105366
-0.0014617376
-0.00096602883
-0.00057303149
-0.0015575332
-0.0015234
-0.00094064446
-0.0014630129
-0.0020792928
-0.0012657843
-0.0012689979
-0.0025549197
-0.0014263963
-0.001080166
-0.0028603943
-0.0013882131
-0.0029086808
-0.0012081882
-0.00094797467
-0.00032328568
-4.4605566e-05
-2.1607733e-05
-0.00069522993
-0.00020614788
-0.0001034373
-0.0010601361
-0.00051764177
-0.00027179878
-0.0013275092
-0.00099266926
-0.00055013705
-0.0014191911
-0.0015669509
-0.00090246856
-0.0013350045
-0.0021367239
-0.0012202196
-0.0011609408
-0.002613302
-0.0013850914
-0.00099712491
-0.0029075402
-0.0013569479
-0.002937599
-0.0011855031
-0.00089636342
-0.00028753372
-4.4197445e-05
-2.0877316e-05
-0.00062091904
-0.000203085
-9.8664062e-05
-0.00095331238
-0.00050895849
-0.00025661365
-0.0012052102
-0.00097848913
-0.00051652737
-0.0013032909
-0.0015509681
-0.00084760011
-0.0012422173
-0.0021181737
-0.0011515995
-0.0010998276
-0.0025812755
-0.0013167501
-0.00097028995
-0.0028565886
-0.0012974148
-0.0028682557
-0.0011357412
-0.0009060869
-0.00024981004
-4.193851e-05
-1.9480621e-05
-0.00054266875
-0.00019166643
-9.1126949e-05
-0.00084203744
-0.00047955984
-0.00023511499
-0.0010817404
-0.00092538331
-0.00047146611
-0.0011948101
-0.0014760059
-0.00077500319
-0.0011708311
-0.0020224188
-0.0010590374
-0.0010749973
-0.0024601542
-0.0012185606
-0.00099426078
-0.0027096465
-0.0012058499
-0.0027063565
-0.0010547656
-0.00097619425
-0.00021154513
-3.7910236e-05
-1.7537794e-05
-0.00046401728
-0.00017241045
-8.1307927e-05
-0.00073080674
-0.00043170154
-0.00020829825
-0.00095934884
-0.00083822665
-0.00041634875
-0.0010925824
-0.0013473731
-0.0006855896
-0.0011165513
-0.001854419
-0.00094155224
-0.0010836397
-0.0022534139
-0.0010884424
-0.0010689197
-0.0024709807
-0.00107824
-0.0024612701
-0.00093799364
-0.0011075903
-0.00017425927
-1.5065631e-05
-3.2048107e-05
-0.00038750421
-6.938807e-05
-0.00014651386
-0.00062333706
-0.00017678395
-0.00036827388
-0.00084542986
-0.0003523953
-0.00071996559
-0.0010069898
-0.00058068247
-0.0011694193
-0.0010878816
-0.00079938133
-0.0016241983
-0.0011252917
-0.000924657
-0.0019783213
-0.0011855535
-0.00091116876
-0.00215891
-0.00078133258
-0.0021483491
-0.0012911872
1.0979413e-06
-9.7827388e-07
-1.49944e-05
-1.9089491e-07
4.5938227e-06
-4.9797051e-06
-6.7886517e-05
-1.7759448e-08
9.7563927e-06
-1.4557753e-05
-0.00016981105
2.4222181e-06
1.3779156e-05
-3.5358221e-05
-0.00033266077
1.1600828e-05
1.5315365e-05
-7.4431066e-05
-0.00054212574
3.4338032e-05
1.8004116e-05
-0.00013385911
-0.00074355914
7.5348176e-05
2.9034215e-05
-0.00020444966
-0.00086082266
0.00012958532
5.2954302e-05
-0.00026775683
-0.00085022227
0.00018289011
-0.00030378097
-0.00072988909
0.00021982613
8.5465695e-05
1.8053308e-06
-2.5466457e-06
-1.7774765e-05
7.6009313e-06
-1.164785e-05
-8.0435418e-05
1.6174329e-05
-3.0371446e-05
-0.00020105794
2.2750367e-05
-6.519914e-05
-0.0003930838
2.3796197e-05
-0.00012246771
-0.00063859857
2.2611748e-05
-0.00020109933
-0.00087312723
2.7105543e-05
-0.0002873881
-0.0010099976
4.2542226e-05
-0.0003589891
-0.0010024447
-0.00039489581
-0.0008736738
6.9337479e-05
2.703228e-06
-4.4359559e-06
-2.0294586e-05
1.1239204e-05
-1.9501944e-05
-9.1808965e-05
2.3546467e-05
-4.8534106e-05
-0.00022925977
3.2277569e-05
-9.8429036e-05
-0.00044696759
3.1630431e-05
-0.00017407517
-0.00072274882
2.4863879e-05
-0.00027095081
-0.00098241967
2.0986103e-05
-0.00037136735
-0.0011307036
2.6843716e-05
-0.00044958559
-0.0011211111
-0.0004832827
-0.00098385953
4.4324522e-05
3.705213e-06
-6.4595002e-06
-2.2558987e-05
1.5262497e-05
-2.7749327e-05
-0.00010197395
3.1519554e-05
-6.7146227e-05
-0.00025425856
4.2110704e-05
-0.00013146704
-0.00049408035
3.8915851e-05
-0.00022368991
-0.00079479026
2.5640084e-05
-0.00033607353
-0.001073201
1.2824884e-05
-0.00044802728
-0.0012272747
9.1187179e-06
-0.00053056668
-0.0012127274
-0.00056009567
-0.0010670381
1.7228614e-05
4.7071675e-06
-8.3224108e-06
-2.4452017e-05
1.9291968e-05
-3.5248718e-05
-0.00011052282
3.9403174e-05
-8.3734872e-05
-0.00027532142
5.1517038e-05
-0.00016010779
-0.0005336101
4.5263788e-05
-0.00026539976
-0.00085450545
2.5088384e-05
-0.00038932413
-0.0011467933
4.0630937e-06
-0.00050892836
-0.0013031646
-7.8787141e-06
-0.00059316557
-0.0012824069
-0.00061711882
-0.0011287782
-7.5802463e-06
5.7940047e-06
-9.8376568e-06
-2.601686e-05
2.3670575e-05
-4.1169902e-05
-0.00011760566
4.8012652e-05
-9.637644e-05
-0.00029275391
6.1946719e-05
-0.00018094969
-0.00056612352
5.2915051e-05
-0.00029403062
-0.0009029816
2.6579828e-05
-0.00042353111
-0.0012052414
-1.6231852e-06
-0.00054549383
-0.0013616272
-2.0509206e-05
-0.00062817382
-0.0013343184
-0.00064584755
-0.0011734846
-2.6483875e-05
6.7612975e-06
-1.0668268e-05
-2.7274263e-05
2.7636441e-05
-4.4243811e-05
-0.00012327367
5.5850493e-05
-0.00010242603
-0.00030661585
7.1421864e-05
-0.00018969907
-0.00059170313
5.9936354e-05
-0.00030374983
-0.00094049668
2.847597e-05
-0.00043171173
-0.0012493935
-5.2864301e-06
-0.00054992842
-0.0014044126
-2.9053929e-05
-0.00062750272
-0.0013710498
-0.00063910588
-0.0012042854
-3.8945859e-05
7.5916338e-06
-1.0551957e-05
-2.8207005e-05
3.1116356e-05
-4.3465309e-05
-0.00012751616
6.2842962e-05
-9.9798859e-05
-0.00031703687
8.0054109e-05
-0.00018300544
-0.00061090236
6.6756539e-05
-0.00028995593
-0.00096838575
3.1505304e-05
-0.00040820198
-0.0012815726
-6.277564e-06
-0.00051581159
-0.0014346681
-3.2921167e-05
-0.00058459664
-0.0013961213
-0.00059104614
-0.0012246976
-4.466041e-05
8.2482366e-06
-9.3230597e-06
-2.8852205e-05
3.3963134e-05
-3.8225695e-05
-0.00013049673
6.8716936e-05
-8.7275924e-05
-0.00032443244
8.7542107e-05
-0.00015896236
-0.00062457827
7.3173984e-05
-0.00025006736
-0.00098815117
3.5595788e-05
-0.00034978453
-0.0013039825
-4.8727959e-06
-0.00043959351
-0.0014550971
-3.2690287e-05
-0.00049580833
-0.0014123995
-0.00049853365
-0.0012375022
-4.4637834e-05
8.7444454e-06
-7.0019725e-06
-2.9270257e-05
3.6190418e-05
-2.8613008e-05
-0.00013246965
7.346252e-05
-6.5076669e-05
-0.000329389
9.3869452e-05
-0.00011798619
-0.00063377934
7.914479e-05
-0.00018471855
-0.0010013647
4.0391713e-05
-0.00025726135
-0.0013186628
-1.5925672e-06
-0.00032222411
-0.0014679965
-2.9506795e-05
-0.00036226182
-0.0014221823
-0.00036287762
-0.001244861
-4.0716522e-05
9.0781186e-06
-3.7850243e-06
-2.9576519e-05
3.7718746e-05
-1.5406965e-05
-0.00013382363
7.6781394e-05
-3.4913597e-05
-0.00033261678
9.8429698e-05
-6.3074625e-05
-0.00063949735
8.3701818e-05
-9.8421057e-05
-0.0010092175
4.4443599e-05
-0.00013668425
-0.0013269522
1.7755826e-06
-0.00017086222
-0.0014747945
-2.5746186e-05
-0.00019173255
-0.0014269066
-0.00019164542
-0.0012481632
-3.5948223e-05
9.1749872e-06
8.384629e-12
-2.9662411e-05
3.8255185e-05
3.2981774e-11
-0.00013428237
7.8054531e-05
5.9431551e-11
-0.00033385586
0.00010023208
6.4593793e-11
-0.0006418923
8.550212e-05
6.3207954e-11
-0.0010126901
4.611358e-05
1.6226682e-11
-0.001330706
3.3677231e-06
2.0222403e-12
-0.0014778537
-2.3577789e-05
2.7412426e-10
-0.0014289647
6.7734042e-10
-0.0012495514
-3.2851512e-05
9.1749908e-06
3.7850291e-06
-2.9662406e-05
3.8255209e-05
1.5406995e-05
-0.00013428236
7.8054567e-05
3.491366e-05
-0.00033385582
0.00010023208
6.3074691e-05
-0.00064189223
8.5502111e-05
9.8421143e-05
-0.00101269
4.6113551e-05
0.00013668434
-0.0013307059
3.3677926e-06
0.00017086242
-0.0014778536
-2.3577659e-05
0.00019173323
-0.0014289646
0.00019164673
-0.0012495514
-3.2851322e-05
9.0781405e-06
7.0019801e-06
-2.957652e-05
3.7718867e-05
2.8613058e-05
-0.00013382363
7.6781591e-05
6.5076766e-05
-0.00033261679
9.8429858e-05
0.00011798629
-0.00063949735
8.3701965e-05
0.00018471869
-0.0010092176
4.4443647e-05
0.00025726158
-0.0013269522
1.7757578e-06
0.00032222457
-0.0014747945
-2.5745923e-05
0.00036226271
-0.0014269066
0.00036287883
-0.0012481632
-3.5947901e-05
8.7444866e-06
9.3230788e-06
-2.9270252e-05
3.619056e-05
3.8225801e-05
-0.00013246962
7.3462773e-05
8.7276079e-05
-0.00032938895
9.3869755e-05
0.00015896248
-0.00063377921
7.9145216e-05
0.00025006753
-0.0010013645
4.0392052e-05
0.00034978476
-0.0013186626
-1.5922535e-06
0.00043959389
-0.0014679964
-2.9506561e-05
0.00049580921
-0.0014221822
0.0004985349
-0.0012448611
-4.0716505e-05
8.248345e-06
1.055198e-05
-2.8852202e-05
3.3963198e-05
4.3465438e-05
-0.00013049672
6.8717142e-05
9.9799014e-05
-0.00032443242
8.7542458e-05
0.00018300552
-0.00062457818
7.3174597e-05
0.00028995608
-0.00098815111
3.559636e-05
0.00040820213
-0.0013039825
-4.8723636e-06
0.00051581169
-0.0014550972
-3.2690141e-05
0.00058459732
-0.0014123996
0.00059104768
-0.0012375023
-4.4638202e-05
7.5918262e-06
1.0668286e-05
-2.8207004e-05
3.1116437e-05
4.4243923e-05
-0.00012751616
6.2843254e-05
0.0001024262
-0.00031703688
8.0054501e-05
0.00018969913
-0.00061090233
6.6757168e-05
0.00030374989
-0.00096838578
3.1505846e-05
0.00043171169
-0.0012815727
-6.2770822e-06
0.00054992829
-0.0014346682
-3.2920946e-05
0.00062750315
-0.0013961215
0.00063910766
-0.0012246977
-4.4660612e-05
6.7614158e-06
9.8376642e-06
-2.7274265e-05
2.7636704e-05
4.1169967e-05
-0.00012327368
5.5850817e-05
9.6376542e-05
-0.00030661588
7.14222e-05
0.00018094965
-0.00059170316
5.9936895e-05
0.00029403051
-0.00094049678
2.8476306e-05
0.00042353077
-0.0012493937
-5.2860847e-06
0.00054549349
-0.0014044128
-2.9053674e-05
0.00062817397
-0.00137105
0.00064584921
-0.0012042856
-3.8945688e-05
5.7940403e-06
8.3224112e-06
-2.6016867e-05
2.3670813e-05
3.5248733e-05
-0.00011760569
4.8012912e-05
8.3734907e-05
-0.00029275399
6.1947048e-05
0.00016010775
-0.00056612365
5.2915478e-05
0.00026539951
-0.00090298184
2.6579993e-05
0.00038932356
-0.0012052416
-1.6230967e-06
0.00050892779
-0.0013616275
-2.050913e-05
0.00059316544
-0.0013343187
0.00061712009
-0.0011734848
-2.6483428e-05
4.7072125e-06
6.4595049e-06
-2.4452018e-05
1.9292184e-05
2.7749345e-05
-0.00011052282
3.9403521e-05
6.7146287e-05
-0.00027532142
5.1517283e-05
0.00013146704
-0.00053361012
4.5264044e-05
0.00022368964
-0.00085450551
2.5088392e-05
0.00033607287
-0.0011467933
4.0629622e-06
0.00044802653
-0.0013031647
-7.8788335e-06
0.00053056617
-0.0012824071
0.00056009609
-0.0011287784
-7.579562e-06
3.7052383e-06
4.4359465e-06
-2.2558984e-05
1.5262589e-05
1.9501906e-05
-0.00010197394
3.1519665e-05
4.8534038e-05
-0.00025425853
4.21107e-05
9.8428838e-05
-0.00049408029
3.8915703e-05
0.00017407473
-0.00079479017
2.5639869e-05
0.0002709502
-0.0010732009
1.2824473e-05
0.00037136653
-0.0012272746
9.1185904e-06
0.00044958442
-0.0012127274
0.00048328202
-0.0010670382
1.7229467e-05
2.7032544e-06
2.5466522e-06
-2.0294583e-05
1.1239284e-05
1.1647868e-05
-9.1808947e-05
2.354651e-05
3.0371459e-05
-0.00022925973
3.2277639e-05
6.5199132e-05
-0.00044696751
3.1630381e-05
0.00012246766
-0.00072274869
2.4863533e-05
0.00020109899
-0.00098241949
2.0985535e-05
0.0002873873
-0.0011307034
2.684342e-05
0.00035898747
-0.0011211109
0.0003948946
-0.00098385957
4.432524e-05
1.8053542e-06
9.7826818e-07
-1.7774765e-05
7.6010298e-06
4.9796722e-06
-8.0435417e-05
1.6174526e-05
1.4557644e-05
-0.00020105793
2.2750723e-05
3.5358071e-05
-0.00039308377
2.3796464e-05
7.4430776e-05
-0.0006385985
2.2611618e-05
0.00013385851
-0.00087312714
2.710528e-05
0.00020444909
-0.0010099976
4.2542098e-05
0.00026775552
-0.0010024446
0.0003037796
-0.00087367379
6.9337235e-05
1.0979587e-06
-1.4994403e-05
-1.9090453e-07
4.5939167e-06
-6.788653e-05
-1.7805401e-08
9.7566201e-06
-0.00016981108
2.4221015e-06
1.3779489e-05
-0.0003326608
1.1600659e-05
1.5315839e-05
-0.00054212576
3.4337531e-05
1.8005041e-05
-0.00074355918
7.5347345e-05
2.9035487e-05
-0.00086082269
0.00012958415
5.295486e-05
-0.00085022225
0.00018288961
-0.00072988915
0.00021982627
8.5465122e-05
-2.6717116e-07
1.6814446e-06
-1.4804925e-05
-1.6037481e-06
-1.5983844e-06
7.3044177e-06
-6.6850259e-05
-7.0094595e-06
-4.6341743e-06
1.7398421e-05
-0.00016737498
-1.679866e-05
-9.1437248e-06
3.1744209e-05
-0.00032890236
-3.0992963e-05
-1.3745244e-05
4.6719612e-05
-0.0005376259
-4.6617773e-05
-1.6578425e-05
5.5861721e-05
-0.00073870491
-5.7882642e-05
-1.6666373e-05
5.4242049e-05
-0.0008552964
-5.9680242e-05
-1.4727814e-05
4.3001156e-05
-0.00084354163
-5.1620346e-05
2.7999213e-05
-0.00072245745
-3.7244537e-05
-1.2914142e-05
-2.7663402e-07
1.6925219e-06
-1.7509208e-05
-1.679775e-06
7.2991812e-06
-7.9027029e-05
-4.6938388e-06
1.7193224e-05
-0.00019783859
-8.5274379e-06
3.0825185e-05
-0.00038833101
-1.126718e-05
4.4189653e-05
-0.00063332865
-1.1118251e-05
5.0678591e-05
-0.00086809279
-7.8359963e-06
4.5812025e-05
-0.0010048498
-2.937969e-06
3.1905771e-05
-0.00099624739
1.6252439e-05
-0.000866159
1.2941623e-06
-2.4827161e-07
1.6162289e-06
-1.9970023e-05
-1.5927553e-06
6.9247066e-06
-9.0089967e-05
-4.4396177e-06
1.6165915e-05
-0.00022538547
-7.6692686e-06
2.8522397e-05
-0.00044143501
-8.9780482e-06
3.9769716e-05
-0.00071701995
-6.5570029e-06
4.3436951e-05
-0.00097759897
-7.9410237e-07
3.5739386e-05
-0.0011263937
5.8729347e-06
2.0051553e-05
-0.0011159238
4.5455084e-06
-0.00097690295
1.0623304e-05
-2.0739069e-07
1.4601943e-06
-2.2195557e-05
-1.452947e-06
6.2246821e-06
-0.00010002833
-4.0475422e-06
1.4425105e-05
-0.00024992309
-6.5739859e-06
2.5073005e-05
-0.00048810441
-6.4885108e-06
3.3959945e-05
-0.00078906583
-2.1502975e-06
3.5012333e-05
-0.0010691145
5.3889538e-06
2.5212657e-05
-0.001224287
1.2856108e-05
8.7969032e-06
-0.0012089397
-5.7221305e-06
-0.0010610003
1.7085906e-05
-1.4941982e-07
1.236737e-06
-2.4079127e-05
-1.2464427e-06
5.2671524e-06
-0.00010846824
-3.5273177e-06
1.2163984e-05
-0.00027077935
-5.3425482e-06
2.0882076e-05
-0.00052760386
-3.9925771e-06
2.7428918e-05
-0.00084932434
1.9449902e-06
2.6308207e-05
-0.0011440265
1.0754362e-05
1.5270711e-05
-0.0013020319
1.8464826e-05
-9.179082e-07
-0.0012804025
-1.3891763e-05
-0.0011239569
2.1813073e-05
-1.0097208e-07
9.8790388e-07
-2.5667053e-05
-1.0746567e-06
4.2078165e-06
-0.00011557266
-3.0839763e-06
9.7006167e-06
-0.00028828114
-4.2583122e-06
1.6448463e-05
-0.00056051559
-1.7720783e-06
2.0839616e-05
-0.0008988785
5.5520583e-06
1.8091103e-05
-0.0012043482
1.5351572e-05
6.6738543e-06
-0.0013628297
2.3044801e-05
-8.4768137e-06
-0.0013344527
-1.9562079e-05
-0.0011701557
2.5386198e-05
-4.7132028e-08
7.3469172e-07
-2.6973932e-05
-8.8028395e-07
3.1404227e-06
-0.00012137311
-2.5991044e-06
7.2523307e-06
-0.00030244871
-3.1579911e-06
1.2155276e-05
-0.00058685102
3.3258467e-07
1.4746043e-05
-0.00093789368
8.7991521e-06
1.1020007e-05
-0.0012507889
1.9304566e-05
4.8253257e-08
-0.0014082924
2.680364e-05
-1.341592e-05
-0.0013736097
-2.2493486e-05
-0.001202692
2.8141616e-05
3.2189804e-09
5.0293864e-07
-2.7978524e-05
-6.9866454e-07
2.1671425e-06
-0.00012584093
-2.1524151e-06
5.0353341e-06
-0.00031336617
-2.1730097e-06
8.3472213e-06
-0.00060707371
2.1759034e-06
9.5770191e-06
-0.00096756567
1.1578059e-05
5.5455364e-06
-0.0012855003
2.2605445e-05
-4.2391283e-06
-0.0014414081
2.9876024e-05
-1.5528737e-05
-0.0014012791
-2.262108e-05
-0.0012250237
3.0329784e-05
4.6592161e-08
3.1212463e-07
-2.8708019e-05
-5.4353229e-07
1.3627164e-06
-0.00012910216
-1.772717e-06
3.2004507e-06
-0.00032136841
-1.3433378e-06
5.2466443e-06
-0.00062190708
3.6996715e-06
5.5959109e-06
-0.00098921312
1.3842987e-05
1.8908322e-06
-0.0013104711
2.5270847e-05
-6.078714e-06
-0.0014646854
3.2358976e-05
-1.4846537e-05
-0.0014201698
-2.0038352e-05
-0.0012398457
3.211972e-05
8.0122664e-08
1.7082062e-07
-2.9209098e-05
-4.2517106e-07
7.5828588e-07
-0.00013135996
-1.4826685e-06
1.8051272e-06
-0.00032693625
-7.0591819e-07
2.9221934e-06
-0.0006322317
4.8750042e-06
2.8372154e-06
-0.001004187
1.5591241e-05
-1.4326988e-09
-0.0013274868
2.7334502e-05
-5.6408723e-06
-0.0014801777
3.432243e-05
-1.1636968e-05
-0.0014323799
-1.5018245e-05
-0.0012491356
3.3576856e-05
1.0070292e-07
7.1918358e-08
-2.9578346e-05
-3.516813e-07
3.2503542e-07
-0.00013293801
-1.292194e-06
7.83449e-07
-0.00033065465
-2.6922749e-07
1.2524832e-06
-0.00063885068
5.689133e-06
1.0986748e-06
-0.0010134375
1.6797041e-05
-4.4543479e-07
-0.0013376163
2.8764105e-05
-3.3723552e-06
-0.0014890303
3.5719316e-05
-6.4184176e-06
-0.0014390805
-8.0739953e-06
-0.001254022
3.4633727e-05
1.1209198e-07
-5.7974761e-12
-2.9702601e-05
-3.1174981e-07
-2.0950558e-11
-0.00013353348
-1.1932334e-06
-5.9721312e-11
-0.00033219096
-4.9479288e-08
-1.1749661e-10
-0.00064178355
6.0938913e-06
-1.8006257e-10
-0.0010177348
1.7396914e-05
-2.526918e-10
-0.0013424545
2.9486275e-05
-2.2226229e-10
-0.0014933155
3.6438265e-05
1.2228341e-10
-0.0014423354
6.3195521e-10
-0.0012563827
3.5194823e-05
1.1210157e-07
-7.1936021e-08
-2.9702596e-05
-3.1173398e-07
-3.2509566e-07
-0.00013353347
-1.1932154e-06
-7.8359549e-07
-0.00033219092
-4.9483573e-08
-1.25275e-06
-0.00064178347
6.0938777e-06
-1.0990618e-06
-0.0010177347
1.7396922e-05
4.4493374e-07
-0.0013424543
2.948634e-05
3.3719663e-06
-0.0014933153
3.6438347e-05
6.4187099e-06
-0.0014423353
8.0752769e-06
-0.0012563827
3.5194894e-05
1.00717e-07
-1.7084401e-07
-2.9578346e-05
-3.5165367e-07
-7.5836295e-07
-0.00013293801
-1.2921702e-06
-1.8052981e-06
-0.00033065465
-2.6924271e-07
-2.9224895e-06
-0.00063885067
5.6891177e-06
-2.8376277e-06
-0.0010134375
1.6797077e-05
9.3147457e-10
-0.0013376163
2.876426e-05
5.640545e-06
-0.0014890303
3.5719524e-05
1.1637338e-05
-0.0014390805
1.5019543e-05
-0.001254022
3.4633893e-05
8.0131227e-08
-3.1214507e-07
-2.9209092e-05
-4.2514852e-07
-1.3627813e-06
-0.00013135993
-1.4826469e-06
-3.2006149e-06
-0.00032693618
-7.0590043e-07
-5.2469593e-06
-0.00063223156
4.8750792e-06
-5.5963746e-06
-0.0010041868
1.5591395e-05
-1.8914228e-06
-0.0013274866
2.7334759e-05
6.07829e-06
-0.0014801775
3.4322741e-05
1.4846875e-05
-0.0014323798
2.0039613e-05
-0.0012491356
3.3577092e-05
4.6629813e-08
-5.0295672e-07
-2.8708016e-05
-5.4352052e-07
-2.1671991e-06
-0.00012910215
-1.7726835e-06
-5.0355119e-06
-0.00032136837
-1.3432564e-06
-8.3475965e-06
-0.000621907
3.6998549e-06
-9.577594e-06
-0.00098921302
1.3843258e-05
-5.5462836e-06
-0.001310471
2.52712e-05
4.2384942e-06
-0.0014646854
3.2359378e-05
1.5528896e-05
-0.0014201698
2.2622194e-05
-0.0012398457
3.2120128e-05
3.2888932e-09
-7.3471539e-07
-2.7978524e-05
-6.986501e-07
-3.14049e-06
-0.00012584093
-2.1523354e-06
-7.2525242e-06
-0.00031336617
-2.1728622e-06
-1.2155717e-05
-0.00060707369
2.1761607e-06
-1.4746737e-05
-0.00096756565
1.1578374e-05
-1.1020915e-05
-0.0012855002
2.2605845e-05
-4.9096214e-08
-0.0014414081
2.9876505e-05
1.3415821e-05
-0.0014012791
2.249431e-05
-0.0012250238
3.0330432e-05
-4.7102234e-08
-9.8793564e-07
-2.6973936e-05
-8.8025502e-07
-4.2078988e-06
-0.00012137312
-2.5990399e-06
-9.7008413e-06
-0.00030244874
-3.1578356e-06
-1.6448959e-05
-0.00058685106
3.3286964e-07
-2.0840391e-05
-0.00093789373
8.7994329e-06
-1.8092162e-05
-0.0012507889
1.930492e-05
-6.6749114e-06
-0.0014082925
2.6804148e-05
8.4764047e-06
-0.0013736098
1.9562575e-05
-0.0012026921
2.8142282e-05
-1.0097556e-07
-1.2367592e-06
-2.5667062e-05
-1.0746311e-06
-5.2672153e-06
-0.00011557269
-3.0839594e-06
-1.2164182e-05
-0.00028828122
-4.2581959e-06
-2.0882522e-05
-0.00056051572
-1.7718844e-06
-2.7429708e-05
-0.0008988787
5.5522073e-06
-2.6309373e-05
-0.0012043484
1.5351781e-05
-1.5272019e-05
-0.0013628299
2.3045238e-05
9.1712687e-07
-0.0013344529
1.3892124e-05
-0.0011701558
2.5386641e-05
-1.494142e-07
-1.4602213e-06
-2.4079128e-05
-1.2463922e-06
-6.2247601e-06
-0.00010846824
-3.5272414e-06
-1.4425283e-05
-0.00027077935
-5.3425004e-06
-2.5073386e-05
-0.00052760386
-3.9925606e-06
-3.3960684e-05
-0.00084932435
1.9449293e-06
-3.5013524e-05
-0.0011440265
1.0754362e-05
-2.5214165e-05
-0.0013020319
1.8465088e-05
-8.7981522e-06
-0.0012804025
5.7223698e-06
-0.0011239569
2.1813311e-05
-2.0739112e-07
-1.6162422e-06
-2.2195554e-05
-1.4529554e-06
-6.9247526e-06
-0.00010002832
-4.0475998e-06
-1.6166028e-05
-0.00024992305
-6.574157e-06
-2.8522671e-05
-0.00048810434
-6.4887954e-06
-3.9770311e-05
-0.00078906572
-2.150656e-06
-4.3437971e-05
-0.0010691144
5.3885308e-06
-3.5740931e-05
-0.0012242869
1.2855907e-05
-2.0053263e-05
-0.0012089396
-4.5456485e-06
-0.0010610003
1.7086002e-05
-2.4826774e-07
-1.6925249e-06
-1.9970018e-05
-1.5927769e-06
-7.2991967e-06
-9.0089946e-05
-4.4397681e-06
-1.719327e-05
-0.00022538542
-7.6695605e-06
-3.082532e-05
-0.0004414349
-8.9785146e-06
-4.4189973e-05
-0.00071701979
-6.5578004e-06
-5.0679263e-05
-0.00097759876
-7.951791e-07
-4.5813347e-05
-0.0011263935
5.8720251e-06
-3.1907732e-05
-0.0011159236
-1.6253131e-05
-0.00097690296
1.0623001e-05
-2.7663048e-07
-1.6814424e-06
-1.7509208e-05
-1.6797671e-06
-7.3044159e-06
-7.9027028e-05
-4.6938709e-06
-1.7398432e-05
-0.00019783859
-8.5275681e-06
-3.1744223e-05
-0.000388331
-1.1267616e-05
-4.6719678e-05
-0.00063332861
-1.1119123e-05
-5.5862094e-05
-0.00086809274
-7.8371253e-06
-5.4243039e-05
-0.0010048497
-2.9391911e-06
-4.3002798e-05
-0.00099624735
-2.8000261e-05
-0.00086615903
1.2931693e-06
-2.6716511e-07
-1.4804928e-05
-1.6037406e-06
-1.5983559e-06
-6.6850271e-05
-7.0094411e-06
-4.6341227e-06
-0.00016737501
-1.6798631e-05
-9.1436696e-06
-0.0003289024
-3.0992941e-05
-1.3745156e-05
-0.00053762595
-4.6617925e-05
-1.6578023e-05
-0.00073870497
-5.7883241e-05
-1.6665785e-05
-0.00085529647
-5.96815e-05
-1.4727775e-05
-0.00084354168
-5.1621364e-05
-0.0007224575
-3.7244447e-05
-1.291517e-05
-1.1835141e-07
-1.649895e-07
-1.4664174e-05
1.4258958e-07
-4.6051971e-07
-8.2163405e-07
-6.6404791e-05
7.183376e-07
-1.179893e-06
-2.3830229e-06
-0.00016633483
2.062266e-06
-2.6267895e-06
-5.8134306e-06
-0.00032655592
4.9139616e-06
-4.7046463e-06
-1.25715e-05
-0.00053334384
1.0367396e-05
-6.0422328e-06
-2.3951244e-05
-0.00073279557
1.9379597e-05
-4.1114603e-06
-3.9616984e-05
-0.0008492832
3.1673106e-05
3.0750484e-06
-5.6379794e-05
-0.00083922558
4.4877288e-05
-6.8944712e-05
-0.00072040262
5.5442147e-05
1.4522818e-05
-1.4860169e-07
-1.9879643e-07
-1.73268e-05
-5.5040966e-07
-9.8274636e-07
-7.8464097e-05
-1.3762675e-06
-2.8417282e-06
-0.00019655397
-3.0929401e-06
-6.9525733e-06
-0.0003854751
-5.6871006e-06
-1.5132209e-05
-0.00062817365
-7.7465706e-06
-2.8984385e-05
-0.00086100003
-6.6284996e-06