/*--------------------------------*- C++ -*----------------------------------*\
| =========                 |                                                 |
| \\      /  F ield         | OpenFOAM: The Open Source CFD Toolbox           |
|  \\    /   O peration     | Version:  2406                                  |
|   \\  /    A nd           | Website:  www.openfoam.com                      |
|    \\/     M anipulation  |                                                 |
\*---------------------------------------------------------------------------*/
FoamFile
{
    version     2.0;
    format      ascii;
    arch        "LSB;label=32;scalar=64";
    class       volVectorField;
    location    "13.5";
    object      U;
}
// * * * * * * * * * * * * * * * * * * * * * * * * * * * * * * * * * * * * * //

dimensions      [0 1 -1 0 0 0 0];

internalField   nonuniform List<vector> 
34560
(
(-0.078315997 0.014382069 0.030673568)
(-0.27217921 0.046991859 0.099891326)
(-0.53897362 0.089643434 0.18066225)
(-0.87228767 0.13874857 0.26170765)
(-1.2346599 0.18934141 0.32546385)
(-1.566671 0.23949717 0.35883175)
(-1.8171009 0.29130401 0.36172153)
(-1.9684685 0.34460358 0.34443342)
(-2.0319792 0.39330427 0.3204383)
(-0.079731431 0.017080008 0.034187646)
(-0.28208292 0.055315239 0.11090926)
(-0.56517031 0.10394126 0.19848097)
(-0.91842348 0.15746275 0.28279568)
(-1.2935391 0.2099017 0.34427751)
(-1.6212868 0.26027754 0.37134847)
(-1.8505934 0.31215833 0.36721312)
(-1.9741796 0.36547802 0.34488109)
(-2.0132405 0.41356023 0.31641989)
(-0.077909531 0.017782766 0.035450172)
(-0.28303345 0.058343368 0.11565877)
(-0.57745017 0.11021833 0.20677482)
(-0.94634562 0.1663802 0.29299045)
(-1.3293805 0.21974501 0.35307459)
(-1.6480313 0.26995412 0.3761209)
(-1.8544669 0.32141054 0.36775508)
(-1.9505487 0.37542467 0.3418495)
(-1.9673226 0.42252893 0.31143122)
(-0.073216254 0.018267525 0.036539493)
(-0.27567348 0.060250053 0.11941215)
(-0.57622622 0.11368654 0.21272423)
(-0.95632338 0.17031135 0.29930947)
(-1.3435034 0.22266898 0.35729769)
(-1.6503251 0.27154676 0.37728573)
(-1.8334531 0.32248524 0.36613148)
(-1.9021032 0.37472675 0.33890266)
(-1.8981324 0.42041426 0.30872605)
(-0.065446581 0.017699332 0.03696922)
(-0.25928201 0.059160044 0.12120568)
(-0.56030158 0.11228144 0.21550265)
(-0.94703183 0.16794097 0.30202814)
(-1.3358911 0.2183967 0.3585343)
(-1.6309381 0.26476487 0.3765876)
(-1.7888661 0.31348809 0.36424562)
(-1.8312855 0.3633578 0.33752905)
(-1.8075842 0.40737403 0.30879824)
(-0.055202426 0.016402669 0.036867011)
(-0.2352988 0.055727302 0.12131565)
(-0.53179309 0.10660337 0.21578335)
(-0.92135589 0.15942131 0.30211693)
(-1.3088803 0.20646135 0.35781429)
(-1.5892381 0.24952769 0.37539793)
(-1.7223631 0.29502653 0.36362692)
(-1.739663 0.34198684 0.33859614)
(-1.6972364 0.38365129 0.31208909)
(-0.043089529 0.014579385 0.036670956)
(-0.20494802 0.050317036 0.12090753)
(-0.49169343 0.097042581 0.21505607)
(-0.87915495 0.14524833 0.30113756)
(-1.2620045 0.18765232 0.35679966)
(-1.526761 0.2263796 0.37524981)
(-1.6359734 0.2674931 0.36542566)
(-1.629236 0.31079002 0.34279251)
(-1.569336 0.34928355 0.31880927)
(-0.029704566 0.012179694 0.036374781)
(-0.16985778 0.042875419 0.12013767)
(-0.44238576 0.083662563 0.21387498)
(-0.82337451 0.12570472 0.30008378)
(-1.1986491 0.162459 0.35660751)
(-1.4470209 0.19633451 0.3768415)
(-1.533892 0.2311875 0.3704246)
(-1.5041844 0.27009861 0.35045166)
(-1.4282272 0.30446943 0.32889349)
(-0.016144412 0.009422051 0.036100421)
(-0.13311377 0.033946706 0.11938851)
(-0.38857424 0.067211851 0.21286633)
(-0.75974226 0.10163554 0.29966966)
(-1.1251798 0.13172297 0.35779157)
(-1.3566682 0.1598785 0.38053698)
(-1.4238281 0.18758338 0.37815492)
(-1.3722814 0.22056808 0.36115226)
(-1.2819919 0.24968148 0.34161407)
(-0.003872801 0.0065780431 0.035905994)
(-0.099044706 0.024292883 0.11885275)
(-0.33717462 0.048840214 0.2123145)
(-0.69700312 0.074396784 0.30007782)
(-1.0516096 0.096780203 0.3602005)
(-1.2671155 0.11793057 0.38590924)
(-1.3169888 0.13837162 0.38725303)
(-1.2463185 0.16356346 0.37337864)
(-1.1438056 0.18599344 0.35530086)
(0.0054298622 0.0038888413 0.035837666)
(-0.072705757 0.014603935 0.11864703)
(-0.29642467 0.029643434 0.21227158)
(-0.64581481 0.045344239 0.30103724)
(-0.99049087 0.059127944 0.36301562)
(-1.1928459 0.072260095 0.39143062)
(-1.2286533 0.084936893 0.39575908)
(-1.1431774 0.10075677 0.38454214)
(-1.0314093 0.11502695 0.36738336)
(0.010695215 0.0013048723 0.035827912)
(-0.057610982 0.0049159791 0.11863098)
(-0.27271131 0.010000935 0.21239902)
(-0.61560663 0.015281122 0.30179898)
(-0.9542163 0.019913626 0.36492844)
(-1.14893 0.024373448 0.39502781)
(-1.1764785 0.028720924 0.40112537)
(-1.082648 0.034190332 0.39147154)
(-0.96575707 0.039158661 0.37475048)
(0.010695209 -0.0013049471 0.035827895)
(-0.057611003 -0.0049161688 0.11863096)
(-0.27271135 -0.01000125 0.21239902)
(-0.61560669 -0.015281562 0.30179898)
(-0.95421638 -0.019914175 0.36492846)
(-1.14893 -0.024374004 0.39502782)
(-1.1764785 -0.028721399 0.40112535)
(-1.082648 -0.034190466 0.39147145)
(-0.96575711 -0.039158377 0.37475038)
(0.0054298381 -0.0038889089 0.035837645)
(-0.072705839 -0.014604133 0.11864699)
(-0.29642483 -0.029643793 0.21227157)
(-0.645815 -0.045344756 0.30103726)
(-0.9904911 -0.059128596 0.36301568)
(-1.192846 -0.072260763 0.39143063)
(-1.2286534 -0.084937404 0.395759)
(-1.1431774 -0.10075693 0.38454191)
(-1.0314094 -0.11502676 0.36738312)
(-0.0038728425 -0.0065780918 0.035906024)
(-0.099044849 -0.02429308 0.1188528)
(-0.33717488 -0.048840599 0.21231463)
(-0.69700343 -0.074397358 0.30007793)
(-1.0516101 -0.096780932 0.36020062)
(-1.2671159 -0.11793133 0.38590923)
(-1.3169892 -0.13837221 0.38725291)
(-1.2463188 -0.16356371 0.37337842)
(-1.1438058 -0.18599338 0.35530062)
(-0.016144459 -0.0094220828 0.036100447)
(-0.13311393 -0.033946873 0.11938858)
(-0.38857454 -0.067212165 0.2128665)
(-0.75974262 -0.10163601 0.29966982)
(-1.1251804 -0.13172361 0.35779171)
(-1.3566689 -0.15987922 0.38053695)
(-1.4238289 -0.18758405 0.37815484)
(-1.3722819 -0.22056848 0.36115215)
(-1.2819922 -0.24968148 0.3416139)
(-0.029704599 -0.012179725 0.036374758)
(-0.16985788 -0.042875518 0.12013776)
(-0.44238596 -0.083662763 0.21387513)
(-0.82337478 -0.12570503 0.30008395)
(-1.1986497 -0.16245949 0.35660767)
(-1.4470216 -0.19633511 0.37684155)
(-1.533893 -0.23118818 0.37042467)
(-1.5041853 -0.27009911 0.35045169)
(-1.4282275 -0.30446939 0.32889336)
(-0.043089558 -0.01457943 0.036670974)
(-0.20494811 -0.050317137 0.12090764)
(-0.49169362 -0.097042752 0.21505622)
(-0.87915523 -0.14524858 0.30113776)
(-1.2620051 -0.18765271 0.35679986)
(-1.5267616 -0.22638008 0.37524999)
(-1.6359742 -0.2674937 0.3654259)
(-1.6292369 -0.31079049 0.34279263)
(-1.5693364 -0.34928345 0.31880919)
(-0.055202456 -0.016402712 0.036867024)
(-0.2352989 -0.055727403 0.12131567)
(-0.53179327 -0.10660355 0.2157834)
(-0.92135615 -0.15942156 0.30211707)
(-1.3088807 -0.2064617 0.35781452)
(-1.5892384 -0.24952812 0.37539824)
(-1.7223637 -0.29502697 0.36362727)
(-1.7396639 -0.34198719 0.33859631)
(-1.697237 -0.38365128 0.31208916)
(-0.065446592 -0.017699361 0.036969214)
(-0.25928204 -0.059160118 0.12120565)
(-0.56030165 -0.11228159 0.21550266)
(-0.94703198 -0.16794119 0.30202826)
(-1.3358913 -0.21839701 0.35853456)
(-1.6309382 -0.26476525 0.37658795)
(-1.7888665 -0.3134884 0.36424599)
(-1.8312862 -0.36335802 0.33752934)
(-1.8075848 -0.40737417 0.30879846)
(-0.073216283 -0.018267529 0.036539494)
(-0.27567358 -0.060250134 0.11941207)
(-0.57622645 -0.11368667 0.21272423)
(-0.95632375 -0.17031155 0.29930962)
(-1.3435037 -0.22266925 0.35729801)
(-1.6503252 -0.27154707 0.37728607)
(-1.8334533 -0.32248546 0.36613186)
(-1.9021036 -0.37472684 0.33890312)
(-1.898133 -0.42041428 0.30872617)
(-0.077909548 -0.017782749 0.035450159)
(-0.28303351 -0.058343388 0.11565871)
(-0.57745027 -0.11021838 0.20677481)
(-0.94634577 -0.16638032 0.29299055)
(-1.3293807 -0.21974518 0.35307481)
(-1.6480314 -0.26995431 0.37612116)
(-1.8544668 -0.32141065 0.36775537)
(-1.9505485 -0.37542457 0.34184975)
(-1.9673232 -0.42252882 0.31143129)
(-0.079731434 -0.017079986 0.034187616)
(-0.28208292 -0.055315218 0.11090921)
(-0.56517031 -0.10394132 0.19848089)
(-0.91842345 -0.15746291 0.2827956)
(-1.2935391 -0.20990186 0.3442775)
(-1.6212867 -0.26027758 0.37134849)
(-1.8505933 -0.31215836 0.36721328)
(-1.9741794 -0.36547787 0.3448813)
(-2.0132407 -0.41355985 0.31641982)
(-0.078316014 -0.014382071 0.030673561)
(-0.27217926 -0.046991914 0.099891312)
(-0.53897371 -0.089643572 0.18066226)
(-0.87228778 -0.13874881 0.26170765)
(-1.23466 -0.18934169 0.3254638)
(-1.5666712 -0.23949739 0.35883187)
(-1.8171009 -0.29130412 0.3617218)
(-1.9684684 -0.34460377 0.34443337)
(-2.0319794 -0.39330445 0.3204386)
(-0.095164951 -0.00014004546 -0.00022902778)
(-0.31294705 -0.00072706241 -0.0011443151)
(-0.58924427 -0.0019751287 -0.0030580867)
(-0.9108796 -0.0048129991 -0.0061638033)
(-1.2448604 -0.01042363 -0.010190684)
(-1.5448593 -0.019290522 -0.014325365)
(-1.7692985 -0.030708479 -0.017769019)
(-1.9037991 -0.043318984 -0.020194955)
(-1.9579599 -0.055373775 -0.021617191)
(-0.10379776 -0.0010407425 -0.0010026938)
(-0.3398604 -0.0034338355 -0.0035118973)
(-0.63625379 -0.0066361577 -0.0072530149)
(-0.97485452 -0.011537187 -0.012067867)
(-1.3158108 -0.019249547 -0.017100325)
(-1.607843 -0.030035627 -0.021133619)
(-1.8107664 -0.042936275 -0.023513152)
(-1.9184803 -0.056482229 -0.024473308)
(-1.9526807 -0.068920768 -0.024873198)
(-0.11098999 -0.0020961617 -0.0016998274)
(-0.36232657 -0.0065489494 -0.0056624798)
(-0.67532607 -0.011869088 -0.011055205)
(-1.0271187 -0.018810282 -0.017278972)
(-1.3715699 -0.028351784 -0.022868019)
(-1.6534436 -0.040577472 -0.026346005)
(-1.8350505 -0.054434605 -0.027367367)
(-1.919233 -0.068377165 -0.026707134)
(-1.9385299 -0.080753588 -0.025761657)
(-0.11729478 -0.0033031125 -0.002310901)
(-0.38184135 -0.01003349 -0.0075431573)
(-0.70886773 -0.017568751 -0.014374569)
(-1.0711479 -0.026453869 -0.021726481)
(-1.4171228 -0.037511765 -0.027516537)
(-1.6886207 -0.050739763 -0.030127709)
(-1.850944 -0.06511882 -0.02965014)
(-1.9152447 -0.079093296 -0.027401141)
(-1.9224871 -0.091031633 -0.025209036)
(-0.12230065 -0.0044914938 -0.0027365906)
(-0.39747198 -0.0134268 -0.0088759542)
(-0.73585358 -0.023026499 -0.016778989)
(-1.1064552 -0.033590187 -0.024905612)
(-1.4530832 -0.045793201 -0.03059002)
(-1.7152426 -0.059616311 -0.032136429)
(-1.861156 -0.074121921 -0.030174048)
(-1.9092043 -0.087742531 -0.02652325)
(-1.9066327 -0.098853711 -0.023326047)
(-0.12624649 -0.0055474497 -0.002905349)
(-0.40983889 -0.01639784 -0.0094541147)
(-0.75721634 -0.02769582 -0.017964755)
(-1.1342269 -0.039481624 -0.026479417)
(-1.480857 -0.052304061 -0.03178475)
(-1.734892 -0.06619151 -0.032180255)
(-1.8672308 -0.08030671 -0.028844896)
(-1.9022778 -0.093180848 -0.024049972)
(-1.8918038 -0.10312946 -0.020143587)
(-0.12941636 -0.0063089056 -0.0028349325)
(-0.41967832 -0.018481786 -0.0093173791)
(-0.77403746 -0.030848401 -0.017963062)
(-1.1557578 -0.043216583 -0.026478345)
(-1.5018285 -0.056027914 -0.031179209)
(-1.748866 -0.069382949 -0.030396491)
(-1.870203 -0.082578693 -0.025848201)
(-1.8950388 -0.094307849 -0.020163286)
(-1.8783457 -0.10285991 -0.015838463)
(-0.13166102 -0.0065717471 -0.0025243438)
(-0.42672791 -0.019129084 -0.008475347)
(-0.78618287 -0.031656808 -0.01681249)
(-1.1712887 -0.04379195 -0.02500452)
(-1.5166783 -0.055882215 -0.028972331)
(-1.7580829 -0.068086661 -0.027085259)
(-1.8708693 -0.079878592 -0.021508199)
(-1.887923 -0.090091118 -0.015205328)
(-1.8664491 -0.097121639 -0.01072484)
(-0.13309704 -0.0061924644 -0.0020386496)
(-0.43134208 -0.017945744 -0.0071156528)
(-0.79427682 -0.029522048 -0.014810792)
(-1.1817137 -0.040478735 -0.022453371)
(-1.5264885 -0.051079223 -0.025649987)
(-1.7636108 -0.061516052 -0.022815325)
(-1.8700404 -0.071402759 -0.016409795)
(-1.8813464 -0.079779411 -0.0097250924)
(-1.8562862 -0.085230271 -0.0052842099)
(-0.13393689 -0.00511364 -0.0014822516)
(-0.43415031 -0.014777476 -0.0055404414)
(-0.7993371 -0.024215458 -0.012440402)
(-1.1882949 -0.033004042 -0.019451976)
(-1.5325497 -0.041324966 -0.021942816)
(-1.7665734 -0.049363424 -0.018348749)
(-1.86848 -0.056875099 -0.011340587)
(-1.8757074 -0.063123042 -0.0044575466)
(-1.8480846 -0.066997161 -0.00016984112)
(-0.13468885 -0.0033993346 -0.0010003631)
(-0.43637819 -0.0097955576 -0.0041677419)
(-0.80298238 -0.016000575 -0.010351865)
(-1.1926625 -0.02170878 -0.016809877)
(-1.536237 -0.027031892 -0.018751598)
(-1.767988 -0.032106115 -0.014615891)
(-1.8668426 -0.036817823 -0.0072152531)
(-1.8714008 -0.040686951 -0.00025493498)
(-1.8421202 -0.043005442 0.0038615201)
(-0.13477427 -0.00119682 -0.00073235276)
(-0.4368113 -0.0034409237 -0.0034007172)
(-0.80394093 -0.0056049872 -0.0091667289)
(-1.1940408 -0.0075886247 -0.015296185)
(-1.5374857 -0.0094330366 -0.016928817)
(-1.7683177 -0.011181712 -0.012502162)
(-1.8657766 -0.012795977 -0.0049008709)
(-1.8690458 -0.014107839 0.0020839872)
(-1.8389281 -0.014877303 0.0060963976)
(-0.13477427 0.0011968291 -0.00073235395)
(-0.4368113 0.003440951 -0.0034007221)
(-0.80394095 0.0056050245 -0.0091667352)
(-1.1940408 0.0075886556 -0.01529619)
(-1.5374857 0.0094330598 -0.016928815)
(-1.7683176 0.011181722 -0.012502159)
(-1.8657765 0.012795994 -0.0049008764)
(-1.8690457 0.014107928 0.0020839708)
(-1.8389281 0.014877498 0.0060963764)
(-0.13468884 0.0033993369 -0.0010003679)
(-0.43637819 0.0097955724 -0.0041677563)
(-0.80298241 0.016000596 -0.010351889)
(-1.1926626 0.021708795 -0.016809901)
(-1.5362371 0.027031903 -0.018751613)
(-1.7679879 0.032106129 -0.014615906)
(-1.8668425 0.036817866 -0.0072152811)
(-1.8714007 0.040687062 -0.00025497758)
(-1.8421203 0.043005637 0.0038614781)
(-0.1339369 0.0051136453 -0.0014822595)
(-0.43415032 0.0147775 -0.0055404587)
(-0.79933713 0.024215482 -0.012440429)
(-1.1882949 0.033004057 -0.019452007)
(-1.5325497 0.04132497 -0.021942855)
(-1.7665733 0.049363431 -0.018348805)
(-1.8684799 0.056875147 -0.011340649)
(-1.8757074 0.063123163 -0.0044576023)
(-1.8480848 0.066997361 -0.00016986096)
(-0.13309704 0.0061924734 -0.0020386572)
(-0.43134208 0.017945776 -0.0071156732)
(-0.79427684 0.02952208 -0.014810802)
(-1.1817136 0.040478762 -0.022453397)
(-1.5264886 0.051079233 -0.025650041)
(-1.7636108 0.06151605 -0.022815412)
(-1.8700405 0.071402777 -0.016409884)
(-1.8813465 0.079779512 -0.0097251568)
(-1.8562864 0.08523049 -0.0052842068)
(-0.13166101 0.0065717529 -0.0025243587)
(-0.4267279 0.019129107 -0.0084753805)
(-0.78618288 0.031656846 -0.016812516)
(-1.1712886 0.043791981 -0.025004561)
(-1.5166784 0.055882227 -0.028972387)
(-1.758083 0.068086645 -0.027085342)
(-1.8708695 0.079878575 -0.021508284)
(-1.8879233 0.090091181 -0.015205404)
(-1.8664493 0.097121877 -0.010724866)
(-0.12941636 0.0063089059 -0.0028349462)
(-0.4196783 0.0184818 -0.0093173973)
(-0.77403745 0.03084842 -0.017963104)
(-1.1557577 0.043216586 -0.026478369)
(-1.5018285 0.056027899 -0.031179242)
(-1.748866 0.0693829 -0.030396541)
(-1.8702031 0.082578648 -0.025848255)
(-1.895039 0.094307874 -0.020163374)
(-1.8783459 0.10286014 -0.015838545)
(-0.12624648 0.0055474489 -0.0029053507)
(-0.40983885 0.016397842 -0.0094541194)
(-0.75721628 0.02769581 -0.01796477)
(-1.1342268 0.039481588 -0.026479418)
(-1.4808571 0.05230401 -0.031784764)
(-1.7348919 0.066191418 -0.032180267)
(-1.8672309 0.080306642 -0.028844915)
(-1.902278 0.093180852 -0.02405006)
(-1.8918042 0.10312963 -0.020143707)
(-0.12230065 0.004491495 -0.0027365967)
(-0.39747196 0.013426804 -0.0088759625)
(-0.73585356 0.023026486 -0.016779003)
(-1.1064552 0.033590152 -0.024905624)
(-1.4530832 0.045793139 -0.030590012)
(-1.7152426 0.059616198 -0.032136403)
(-1.8611561 0.074121839 -0.030174044)
(-1.9092045 0.087742526 -0.026523315)
(-1.9066329 0.098853785 -0.023326171)
(-0.11729477 0.0033031099 -0.0023109061)
(-0.38184132 0.010033484 -0.0075431568)
(-0.70886769 0.017568728 -0.014374567)
(-1.0711478 0.026453829 -0.021726459)
(-1.4171227 0.037511699 -0.027516479)
(-1.6886206 0.050739661 -0.030127655)
(-1.850944 0.065118721 -0.029650116)
(-1.9152448 0.07909328 -0.027401141)
(-1.9224872 0.091031668 -0.025209148)
(-0.11099 0.0020961572 -0.0016998317)
(-0.36232658 0.0065489305 -0.0056624869)
(-0.67532608 0.011869054 -0.011055204)
(-1.0271187 0.018810238 -0.017278959)
(-1.3715699 0.028351741 -0.022868)
(-1.6534435 0.040577427 -0.026345969)
(-1.8350504 0.054434518 -0.02736731)
(-1.919233 0.068377077 -0.026707059)
(-1.9385301 0.080753747 -0.025761846)
(-0.10379776 0.001040742 -0.0010026979)
(-0.33986039 0.0034338242 -0.0035119035)
(-0.63625376 0.0066361266 -0.0072530181)
(-0.97485442 0.011537138 -0.012067878)
(-1.3158106 0.019249502 -0.017100319)
(-1.6078427 0.030035622 -0.021133534)
(-1.8107663 0.042936299 -0.023513037)
(-1.91848 0.056482235 -0.024473442)
(-1.9526806 0.068920911 -0.024873521)
(-0.09516496 0.00014003815 -0.00022902168)
(-0.31294707 0.00072702968 -0.0011442986)
(-0.58924428 0.0019750669 -0.0030580571)
(-0.91087955 0.0048129159 -0.0061637705)
(-1.2448603 0.010423525 -0.010190634)
(-1.5448592 0.019290382 -0.014325287)
(-1.7692985 0.030708369 -0.017769025)
(-1.9037989 0.043319074 -0.020195258)
(-1.9579601 0.055373832 -0.02161741)
(-0.082943165 0.0010766949 0.00099427869)
(-0.27408293 0.0033471102 0.0031112723)
(-0.51992458 0.0058651156 0.0054763415)
(-0.81196621 0.008193761 0.0076729099)
(-1.1228293 0.0098192878 0.0090564774)
(-1.409152 0.010385927 0.0091196888)
(-1.6272755 0.0098876072 0.0078700455)
(-1.757993 0.0086225914 0.0058832192)
(-1.8071659 0.0068989593 0.0038962351)
(-0.089234252 0.0011034443 0.00090502069)
(-0.29401823 0.0033770522 0.0028214488)
(-0.55554238 0.0057966978 0.0049402342)
(-0.86171629 0.0078714416 0.0068242278)
(-1.1791892 0.0090824336 0.0077899628)
(-1.4591468 0.0091296163 0.0073411307)
(-1.6577258 0.0081022401 0.0055699261)
(-1.7626554 0.006417871 0.0031854754)
(-1.7918372 0.00459112 0.00093966229)
(-0.094379772 0.0010492511 0.00074832869)
(-0.31036197 0.0031890698 0.0023426195)
(-0.58464144 0.0054120518 0.004121969)
(-0.90162215 0.0072120842 0.0056881459)
(-1.2223474 0.0080912623 0.0063599778)
(-1.4932903 0.0078076067 0.0056200413)
(-1.6715871 0.0065149133 0.0035616653)
(-1.7532074 0.0046873995 0.00094222247)
(-1.7671274 0.0028774373 -0.0013109323)
(-0.098786093 0.00096621703 0.00059811862)
(-0.32424881 0.0029134632 0.0018779145)
(-0.60910605 0.0048884308 0.0033207986)
(-0.93453201 0.0063943132 0.0045690636)
(-1.2566153 0.0069727428 0.0049572025)
(-1.5179847 0.0064383817 0.0039682645)
(-1.6774378 0.0049906318 0.0017078679)
(-1.738859 0.0031215644 -0.0010131295)
(-1.7400805 0.0013521003 -0.0031679378)
(-0.10212599 0.00083716796 0.00044744124)
(-0.33492882 0.0025171735 0.0014186052)
(-0.62809273 0.0041980114 0.0025410633)
(-0.96002767 0.0054138483 0.0035024831)
(-1.2825385 0.0057459124 0.0036498113)
(-1.5350196 0.0050470031 0.0024646596)
(-1.6780927 0.003536445 7.0084607e-05)
(-1.7225213 0.0017105967 -0.0026659123)
(-1.7130582 5.4903856e-05 -0.004656984)
(-0.10467148 0.00068678853 0.00030808342)
(-0.34310656 0.0020642616 0.0009949521)
(-0.64263841 0.0034308068 0.0018286254)
(-0.97935755 0.0043690061 0.0025431811)
(-1.3015178 0.0045054657 0.0024978595)
(-1.545967 0.0037215437 0.0011697384)
(-1.6751377 0.0022395836 -0.0012952767)
(-1.7056132 0.00053283846 -0.0039927901)
(-1.6872933 -0.00095487644 -0.0057938871)
(-0.10664761 0.00053010709 0.00019537033)
(-0.34938489 0.0015954547 0.00065011741)
(-0.65365402 0.0026487718 0.0012444559)
(-0.99363434 0.0033330912 0.0017531217)
(-1.3147614 0.0033260245 0.0015512437)
(-1.552048 0.0025292429 0.00011746677)
(-1.6696565 0.001153141 -0.0023789382)
(-1.6889598 -0.00037046909 -0.0050023724)
(-1.6635338 -0.0016561905 -0.0066156834)
(-0.10794724 0.00037854466 0.00010952218)
(-0.35358742 0.0011457704 0.00038666067)
(-0.6610921 0.0019084566 0.00079615451)
(-1.0031537 0.0023766473 0.0011453678)
(-1.3229991 0.002280264 0.00082565832)
(-1.5542838 0.0015359975 -0.00067956222)
(-1.6626658 0.0003296294 -0.0031807431)
(-1.6733081 -0.00096460129 -0.0057202484)
(-1.642401 -0.0020279459 -0.0071690485)
(-0.10868221 0.00024698564 5.0804008e-05)
(-0.35605854 0.00075527696 0.0002044549)
(-0.66557153 0.0012676996 0.00048252038)
(-1.0088324 0.0015630444 0.00071683731)
(-1.3274053 0.0014264003 0.0003136398)
(-1.5539237 0.00078887385 -0.0012365024)
(-1.6552531 -0.00019833157 -0.003729189)
(-1.6594307 -0.0012305224 -0.0061930868)
(-1.6244758 -0.0020609364 -0.0075138958)
(-0.10904401 0.00014447408 1.5313794e-05)
(-0.35737489 0.00044837867 9.2060968e-05)
(-0.6680565 0.0007611887 0.00028537656)
(-1.0119333 0.00092838629 0.00044353939)
(-1.329375 0.00079341786 -1.5118968e-05)
(-1.5522927 0.00030386613 -0.0015921367)
(-1.6484962 -0.00042898503 -0.0040747243)
(-1.6480948 -0.0011777735 -0.0064830381)
(-1.6103065 -0.0017754875 -0.0077123213)
(-0.1094541 7.1446621e-05 -2.6343642e-06)
(-0.35858116 0.00022542738 3.3478875e-05)
(-0.66998927 0.00038747131 0.00017950877)
(-1.0140131 0.00046692461 0.00029237735)
(-1.3303537 0.00036873036 -0.00020120334)
(-1.5506201 6.0048382e-05 -0.0017940417)
(-1.6433483 -0.00039054931 -0.0042672534)
(-1.6399887 -0.00084710782 -0.0066442364)
(-1.6004193 -0.0012046877 -0.0078144294)
(-0.10941689 2.0738261e-05 -9.2976896e-06)
(-0.35861433 6.6440011e-05 1.0986228e-05)
(-0.67022989 0.00011511711 0.00013730321)
(-1.0143701 0.00013692797 0.00023016453)
(-1.3303263 0.0001005593 -0.00027932447)
(-1.5494437 -5.1973726e-06 -0.0018801377)
(-1.6405524 -0.00015732817 -0.0043502974)
(-1.6357733 -0.00030987278 -0.0067135081)
(-1.5953378 -0.00042812294 -0.0078554904)
(-0.10941689 -2.0746436e-05 -9.2986746e-06)
(-0.35861433 -6.6459661e-05 1.0986211e-05)
(-0.6702299 -0.00011515629 0.00013730429)
(-1.0143701 -0.00013698598 0.0002301685)
(-1.3303263 -0.00010063013 -0.00027931669)
(-1.5494437 5.1154085e-06 -0.0018801312)
(-1.6405524 0.00015726611 -0.0043502994)
(-1.6357732 0.00030990896 -0.0067135206)
(-1.5953378 0.00042831148 -0.0078555015)
(-0.1094541 -7.1459484e-05 -2.6354507e-06)
(-0.35858117 -0.00022545735 3.3478361e-05)
(-0.66998929 -0.00038752355 0.00017951186)
(-1.014013 -0.00046699717 0.00029238759)
(-1.3303537 -0.00036881443 -0.0002011861)
(-1.55062 -6.0136772e-05 -0.0017940307)
(-1.6433483 0.00039049182 -0.0042672638)
(-1.6399887 0.00084715004 -0.006644273)
(-1.6004193 0.0012048792 -0.0078144647)
(-0.10904402 -0.00014448797 1.5316254e-05)
(-0.35737489 -0.00044841262 9.2063055e-05)
(-0.66805652 -0.00076124973 0.00028538655)
(-1.0119333 -0.00092847295 0.00044355737)
(-1.329375 -0.00079351905 -1.5098126e-05)
(-1.5522926 -0.00030396983 -0.0015921308)
(-1.6484962 0.00042892017 -0.0040747481)
(-1.6480948 0.0011778142 -0.006483096)
(-1.6103065 0.001775674 -0.0077123814)
(-0.10868221 -0.00024699969 5.0807431e-05)
(-0.35605854 -0.00075531257 0.0002044621)
(-0.66557155 -0.0012677665 0.0004825458)
(-1.0088324 -0.0015631429 0.00071686873)
(-1.3274054 -0.0014265202 0.00031366561)
(-1.5539237 -0.00078900133 -0.0012365014)
(-1.6552532 0.00019824103 -0.0037292256)
(-1.6594308 0.0012305413 -0.0061931615)
(-1.6244759 0.0020611011 -0.0075139831)
(-0.10794725 -0.00037856185 0.00010952)
(-0.35358743 -0.00114581 0.00038667396)
(-0.66109212 -0.00190853 0.0007961889)
(-1.0031537 -0.0023767584 0.0011454097)
(-1.3229991 -0.0022804045 0.00082569277)
(-1.5542838 -0.0015361516 -0.0006795577)
(-1.6626659 -0.00032975461 -0.0031807821)
(-1.6733082 0.0009645795 -0.0057203331)
(-1.6424011 0.0020280754 -0.0071691605)
(-0.10664762 -0.000530129 0.00019537126)
(-0.34938491 -0.0015954999 0.00065015064)
(-0.65365404 -0.0026488539 0.001244507)
(-0.99363434 -0.0033332155 0.0017531882)
(-1.3147615 -0.0033261827 0.0015512963)
(-1.552048 -0.0025294222 0.00011748466)
(-1.6696566 -0.0011533017 -0.0023789656)
(-1.6889599 0.00037039849 -0.0050024622)
(-1.663534 0.0016562853 -0.0066158014)
(-0.10467149 -0.00068681057 0.00030809176)
(-0.34310658 -0.0020643087 0.00099499305)
(-0.64263844 -0.0034308941 0.0018286853)
(-0.97935756 -0.0043691347 0.0025432602)
(-1.3015179 -0.0045056288 0.0024979248)
(-1.545967 -0.0037217405 0.0011697799)
(-1.6751377 -0.0022397731 -0.0012952806)
(-1.7056134 -0.00053294933 -0.0039928924)
(-1.6872935 0.00095495606 -0.005794008)
(-0.102126 -0.00083718706 0.00044744917)
(-0.33492884 -0.0025172099 0.0014186489)
(-0.62809276 -0.004198086 0.0025411256)
(-0.96002771 -0.0054139595 0.0035025598)
(-1.2825386 -0.0057460615 0.0036498937)
(-1.5350197 -0.0050471986 0.0024647339)
(-1.6780927 -0.0035366442 7.0099804e-05)
(-1.7225214 -0.0017107257 -0.0026660495)
(-1.7130584 -5.48292e-05 -0.0046571464)
(-0.098786105 -0.00096622968 0.00059812527)
(-0.32424884 -0.0029134848 0.0018779478)
(-0.6091061 -0.0048884755 0.0033208488)
(-0.93453208 -0.0063943837 0.0045691371)
(-1.2566153 -0.0069728528 0.0049573039)
(-1.5179847 -0.0064385375 0.0039683538)
(-1.6774379 -0.0049907895 0.0017078678)
(-1.7388591 -0.0031216478 -0.0010133422)
(-1.7400806 -0.0013520255 -0.0031682077)
(-0.094379786 -0.0010492566 0.00074833028)
(-0.31036201 -0.0031890772 0.0023426339)
(-0.5846415 -0.0054120682 0.0041219994)
(-0.90162223 -0.0072121126 0.005688207)
(-1.2223475 -0.0080913138 0.0063600556)
(-1.4932904 -0.0078076907 0.0056200799)
(-1.6715872 -0.0065150062 0.0035615902)
(-1.7532075 -0.0046874075 0.00094193222)
(-1.7671276 -0.0028773297 -0.0013112808)
(-0.089234265 -0.0011034409 0.0009050167)
(-0.29401826 -0.003377042 0.0028214468)
(-0.55554243 -0.0057966953 0.0049402372)
(-0.86171636 -0.0078714557 0.0068242341)
(-1.1791892 -0.0090824536 0.0077899577)
(-1.4591468 -0.0091296205 0.0073410706)
(-1.6577259 -0.0081022107 0.0055697003)
(-1.7626553 -0.0064177773 0.0031850457)
(-1.7918373 -0.0045910069 0.00093935189)
(-0.082943178 -0.0010766925 0.0009942734)
(-0.27408297 -0.003347111 0.0031112626)
(-0.51992464 -0.0058651285 0.0054763288)
(-0.81196627 -0.0081937967 0.0076728761)
(-1.1228293 -0.009819357 0.0090564102)
(-1.409152 -0.01038604 0.0091195567)
(-1.6272756 -0.0098877049 0.0078698054)
(-1.757993 -0.0086225251 0.0058829269)
(-1.8071661 -0.0068988854 0.0038961233)
(-0.089080955 -0.00010004594 -8.046763e-05)
(-0.29360943 -0.00037202776 -0.00028004668)
(-0.55484262 -0.00083713795 -0.00055196521)
(-0.86197408 -0.0016534681 -0.00089915572)
(-1.1848544 -0.0030361408 -0.0012932729)
(-1.4787525 -0.0051531539 -0.0016962515)
(-1.7011265 -0.0079697319 -0.0021370871)
(-1.8351369 -0.011192672 -0.002722373)
(-1.8878202 -0.014410008 -0.0035194573)
(-0.096153759 -0.00012343206 -8.7352231e-05)
(-0.31592319 -0.00044572868 -0.00029517727)
(-0.59443099 -0.00098151042 -0.00057360611)
(-0.916838 -0.0019152388 -0.00092808567)
(-1.2467403 -0.0034946021 -0.0013308883)
(-1.534146 -0.0059002226 -0.0017489197)
(-1.7368603 -0.0090701009 -0.0022321609)
(-1.8454303 -0.012632396 -0.0029263598)
(-1.8788697 -0.016049805 -0.0039775433)
(-0.10205358 -0.00014555288 -8.9062657e-05)
(-0.33455006 -0.00051597892 -0.00029917714)
(-0.62730966 -0.0011149401 -0.00058246849)
(-0.96158122 -0.0021412953 -0.00094406081)
(-1.2951955 -0.0038582848 -0.0013496682)
(-1.5737858 -0.0064459079 -0.0017628482)
(-1.7566713 -0.0098084633 -0.002240036)
(-1.8426786 -0.013501811 -0.0029226876)
(-1.8618528 -0.0169194 -0.0039085653)
(-0.10727016 -0.00018605224 -0.00010010618)
(-0.35086925 -0.00063455731 -0.00032951699)
(-0.65579061 -0.0013159177 -0.00063392551)
(-0.99966994 -0.0024298621 -0.0010131754)
(-1.3352767 -0.0042421517 -0.0014201352)
(-1.6047622 -0.0069263409 -0.00180996)
(-1.7695299 -0.010360669 -0.0022370603)
(-1.8362192 -0.014053295 -0.0028227952)
(-1.8436118 -0.017357711 -0.0036406541)
(-0.1114526 -0.00022841533 -0.00010692894)
(-0.36408136 -0.00075779381 -0.0003479066)
(-0.67898262 -0.0015190175 -0.00066483256)
(-1.0306631 -0.0027015077 -0.0010508315)
(-1.3675244 -0.0045603641 -0.0014437015)
(-1.6288361 -0.007256275 -0.0017881817)
(-1.7780765 -0.0106471 -0.0021330437)
(-1.8286547 -0.014207816 -0.0025796254)
(-1.8261253 -0.017272593 -0.0032001133)
(-0.11487118 -0.00026616263 -0.00010492491)
(-0.37487528 -0.00086462076 -0.00033980052)
(-0.69787954 -0.001685122 -0.00065069635)
(-1.0557333 -0.0028976304 -0.0010230856)
(-1.3932146 -0.0047356696 -0.0013772665)
(-1.6473556 -0.0073426304 -0.0016489819)
(-1.7836173 -0.010562819 -0.0018852747)
(-1.8210296 -0.013865816 -0.0021756335)
(-1.810241 -0.016594595 -0.0026036435)
(-0.11774633 -0.00029043713 -9.4163991e-05)
(-0.38382534 -0.00092847637 -0.00030488357)
(-0.71332059 -0.0017699351 -0.00058949135)
(-1.0758619 -0.0029595698 -0.00092730239)
(-1.4133552 -0.0047022112 -0.001221309)
(-1.6612455 -0.0071185305 -0.0013977203)
(-1.7868618 -0.01004999 -0.0015093436)
(-1.8137638 -0.012984601 -0.0016416628)
(-1.7963024 -0.015316378 -0.0019001721)
(-0.11991264 -0.00029161577 -7.4441686e-05)
(-0.39059765 -0.00092215908 -0.00024347834)
(-0.72501775 -0.0017302336 -0.00048324028)
(-1.0910386 -0.0028329113 -0.00076755983)
(-1.428307 -0.0044011891 -0.00098687544)
(-1.6711026 -0.0065310193 -0.0010594637)
(-1.7883374 -0.0090709323 -0.001041753)
(-1.8071359 -0.011553099 -0.0010242677)
(-1.7844796 -0.013453483 -0.0011469101)
(-0.12143126 -0.00026601056 -4.9305852e-05)
(-0.39538846 -0.00083492127 -0.00016601036)
(-0.73334478 -0.0015488769 -0.00035044118)
(-1.1018491 -0.0024966536 -0.00057282875)
(-1.4388327 -0.0038124174 -0.00071170174)
(-1.6776946 -0.0055700118 -0.000680041)
(-1.7886078 -0.0076328135 -0.00053694117)
(-1.8014044 -0.0095953592 -0.00038089445)
(-1.7749155 -0.010987083 -0.00040446457)
(-0.12244279 -0.00021396059 -2.3491657e-05)
(-0.39862729 -0.00066806321 -8.7013677e-05)
(-0.73902071 -0.0012292993 -0.00021601176)
(-1.1092158 -0.001959288 -0.00037861467)
(-1.4458989 -0.0029541557 -0.000443228)
(-1.681854 -0.0042661279 -0.00031747447)
(-1.7882252 -0.0057839532 -6.2066588e-05)
(-1.7968239 -0.0071424563 0.00019902041)
(-1.7676541 -0.008188743 0.0002227009)
(-0.12334866 -0.00013960869 -2.5789627e-06)
(-0.40127494 -0.00043388865 -2.3280617e-05)
(-0.74331124 -0.00079339796 -0.0001080588)
(-1.114412 -0.0012540531 -0.00022350737)
(-1.4505739 -0.0018735075 -0.00023036867)
(-1.6843596 -0.0026825429 -3.0609974e-05)