/*--------------------------------*- C++ -*----------------------------------*\
  =========                 |
  \\      /  F ield         | OpenFOAM: The Open Source CFD Toolbox
   \\    /   O peration     | Website:  https://openfoam.org
    \\  /    A nd           | Version:  10
     \\/     M anipulation  |
\*---------------------------------------------------------------------------*/
FoamFile
{
    format      ascii;
    class       volScalarField;
    location    "19";
    object      T;
}
// * * * * * * * * * * * * * * * * * * * * * * * * * * * * * * * * * * * * * //

dimensions      [0 0 0 1 0 0 0];

internalField   nonuniform List<scalar> 
10000
(
374.977
361.259
356.557
354.484
353.35
352.627
352.117
351.731
351.425
351.173
350.96
350.775
350.611
350.464
350.331
350.209
350.096
349.99
349.891
349.797
349.708
349.624
349.542
349.465
349.39
349.318
349.248
349.181
349.116
349.053
348.992
348.932
348.874
348.818
348.763
348.71
348.658
348.607
348.558
348.51
348.463
348.418
348.373
348.33
348.288
348.247
348.207
348.168
348.13
348.093
348.057
348.022
347.989
347.956
347.924
347.893
347.862
347.833
347.805
347.777
347.751
347.725
347.7
347.676
347.653
347.63
347.609
347.588
347.568
347.548
347.53
347.512
347.495
347.478
347.463
347.448
347.433
347.42
347.407
347.395
347.383
347.372
347.362
347.352
347.343
347.335
347.327
347.32
347.313
347.307
347.302
347.297
347.293
347.289
347.286
347.284
347.282
347.281
347.28
347.28
388.583
374.757
367.037
362.509
359.635
357.663
356.22
355.109
354.216
353.476
352.845
352.297
351.811
351.375
350.978
350.613
350.275
349.96
349.663
349.382
349.116
348.862
348.62
348.387
348.163
347.947
347.739
347.537
347.342
347.152
346.969
346.79
346.617
346.448
346.284
346.124
345.968
345.817
345.669
345.525
345.385
345.248
345.115
344.985
344.859
344.736
344.616
344.499
344.386
344.275
344.167
344.063
343.961
343.862
343.766
343.673
343.583
343.495
343.41
343.328
343.248
343.17
343.096
343.023
342.954
342.886
342.821
342.759
342.698
342.64
342.585
342.531
342.48
342.431
342.384
342.339
342.296
342.255
342.216
342.18
342.145
342.112
342.081
342.052
342.025
342
341.977
341.955
341.936
341.918
341.902
341.888
341.875
341.864
341.855
341.848
341.843
341.839
341.837
341.836
393.177
382.154
374.326
368.884
365.019
362.174
359.997
358.27
356.858
355.672
354.653
353.76
352.966
352.25
351.597
350.996
350.437
349.915
349.423
348.959
348.517
348.095
347.692
347.305
346.933
346.574
346.228
345.893
345.568
345.253
344.947
344.65
344.361
344.081
343.807
343.541
343.282
343.029
342.783
342.544
342.31
342.082
341.861
341.644
341.434
341.229
341.029
340.835
340.646
340.461
340.282
340.108
339.939
339.774
339.614
339.459
339.308
339.162
339.02
338.883
338.75
338.621
338.497
338.377
338.26
338.148
338.04
337.935
337.835
337.738
337.645
337.556
337.471
337.389
337.31
337.236
337.164
337.096
337.032
336.971
336.913
336.858
336.807
336.759
336.714
336.672
336.633
336.597
336.564
336.535
336.508
336.484
336.463
336.445
336.43
336.418
336.409
336.403
336.399
336.399
395.142
386.359
379.231
373.681
369.384
366.017
363.323
361.12
359.277
357.704
356.336
355.128
354.046
353.066
352.168
351.339
350.567
349.843
349.162
348.516
347.902
347.315
346.754
346.215
345.696
345.195
344.711
344.243
343.79
343.35
342.923
342.508
342.105
341.712
341.33
340.958
340.596
340.243
339.899
339.563
339.237
338.918
338.608
338.306
338.012
337.725
337.445
337.173
336.909
336.651
336.401
336.157
335.92
335.69
335.466
335.249
335.038
334.834
334.635
334.443
334.257
334.077
333.903
333.734
333.572
333.415
333.263
333.117
332.977
332.841
332.711
332.587
332.467
332.352
332.243
332.138
332.038
331.943
331.853
331.767
331.686
331.61
331.538
331.471
331.408
331.349
331.295
331.245
331.199
331.157
331.12
331.086
331.057
331.032
331.011
330.994
330.981
330.972
330.968
330.967
396.169
388.911
382.559
377.226
372.822
369.188
366.162
363.611
361.428
359.532
357.863
356.373
355.029
353.803
352.675
351.63
350.653
349.736
348.869
348.048
347.265
346.517
345.8
345.111
344.447
343.807
343.187
342.588
342.007
341.443
340.896
340.364
339.846
339.343
338.853
338.375
337.91
337.457
337.016
336.585
336.166
335.757
335.359
334.971
334.593
334.225
333.866
333.517
333.177
332.846
332.524
332.211
331.907
331.611
331.324
331.045
330.774
330.511
330.256
330.01
329.771
329.539
329.315
329.099
328.89
328.688
328.494
328.306
328.126
327.952
327.785
327.625
327.471
327.324
327.183
327.048
326.92
326.798
326.682
326.572
326.468
326.37
326.277
326.191
326.11
326.034
325.965
325.9
325.841
325.788
325.74
325.697
325.66
325.627
325.601
325.579
325.562
325.551
325.545
325.543
396.785
390.561
384.868
379.843
375.493
371.752
368.53
365.738
363.296
361.139
359.214
357.478
355.898
354.448
353.107
351.858
350.687
349.584
348.541
347.549
346.602
345.696
344.827
343.991
343.185
342.407
341.654
340.925
340.218
339.532
338.865
338.217
337.587
336.973
336.375
335.793
335.226
334.674
334.135
333.61
333.099
332.6
332.114
331.641
331.179
330.73
330.292
329.866
329.451
329.047
328.654
328.272
327.901
327.539
327.189
326.848
326.518
326.197
325.886
325.585
325.293
325.01
324.737
324.473
324.218
323.971
323.734
323.505
323.284
323.072
322.868
322.672
322.485
322.305
322.133
321.969
321.812
321.663
321.522
321.387
321.26
321.14
321.027
320.922
320.823
320.731
320.645
320.567
320.495
320.43
320.371
320.319
320.273
320.234
320.201
320.174
320.154
320.14
320.132
320.131
397.188
391.682
386.51
381.789
377.557
373.799
370.471
367.518
364.884
362.52
360.381
358.433
356.645
354.992
353.454
352.015
350.662
349.383
348.17
347.014
345.909
344.85
343.833
342.853
341.908
340.994
340.11
339.253
338.422
337.615
336.83
336.067
335.325
334.602
333.898
333.212
332.544
331.892
331.258
330.639
330.036
329.448
328.874
328.316
327.772
327.242
326.725
326.222
325.733
325.256
324.792
324.342
323.903
323.477
323.063
322.661
322.271
321.893
321.526
321.17
320.826
320.492
320.17
319.858
319.557
319.266
318.985
318.715
318.455
318.204
317.963
317.732
317.511
317.299
317.096
316.902
316.717
316.541
316.374
316.215
316.065
315.924
315.79
315.665
315.549
315.44
315.339
315.247
315.162
315.085
315.015
314.954
314.9
314.853
314.814
314.783
314.759
314.743
314.734
314.732
397.467
392.474
387.703
383.246
379.149
375.421
372.042
368.984
366.208
363.68
361.365
359.235
357.263
355.428
353.711
352.097
350.573
349.127
347.752
346.439
345.182
343.975
342.814
341.694
340.613
339.567
338.554
337.572
336.618
335.691
334.791
333.914
333.061
332.23
331.421
330.632
329.864
329.114
328.384
327.672
326.977
326.301
325.641
324.998
324.371
323.761
323.166
322.587
322.023
321.474
320.94
320.421
319.916
319.425
318.948
318.485
318.036
317.6
317.177
316.767
316.371
315.986
315.615
315.256
314.908
314.573
314.25
313.939
313.639
313.35
313.073
312.807
312.551
312.307
312.073
311.849
311.636
311.433
311.241
311.058
310.885
310.722
310.569
310.425
310.29
310.165
310.049
309.942
309.844
309.755
309.675
309.604
309.542
309.488
309.444
309.407
309.38
309.361
309.351
309.349
397.667
393.048
388.584
384.346
380.377
376.696
373.299
370.171
367.291
364.633
362.173
359.887
357.754
355.755
353.875
352.099
350.415
348.814
347.285
345.822
344.419
343.069
341.769
340.513
339.299
338.124
336.985
335.879
334.805
333.761
332.746
331.758
330.795
329.858
328.944
328.054
327.186
326.339
325.514
324.71
323.925
323.16
322.415
321.688
320.979
320.289
319.617
318.962
318.324
317.704
317.1
316.512
315.941
315.386
314.846
314.323
313.814
313.321
312.843
312.379
311.93
311.495
311.075
310.668
310.276
309.896
309.531
309.178
308.839
308.512
308.198
307.897
307.608
307.331
307.067
306.814
306.573
306.343
306.125
305.918
305.723
305.538
305.364
305.201
305.049
304.907
304.776
304.655
304.544
304.444
304.353
304.273
304.202
304.142
304.091
304.05
304.019
303.997
303.986
303.983
397.813
393.471
389.241
385.178
381.321
377.69
374.291
371.118
368.158
365.397
362.815
360.395
358.12
355.976
353.947
352.022
350.19
348.441
346.767
345.161
343.618
342.131
340.695
339.308
337.965
336.664
335.401
334.175
332.983
331.824
330.696
329.598
328.527
327.485
326.468
325.477
324.511
323.569
322.65
321.754
320.88
320.027
319.197
318.387
317.597
316.828
316.078
315.348
314.637
313.945
313.271
312.616
311.979
311.36
310.759
310.174
309.607
309.057
308.523
308.006
307.505
307.021
306.551
306.098
305.66
305.237
304.829
304.435
304.057
303.692
303.342
303.006
302.684
302.375
302.079
301.797
301.528
301.272
301.029
300.798
300.58
300.374
300.18
299.998
299.828
299.67
299.523
299.388
299.265
299.152
299.051
298.962
298.883
298.815
298.759
298.713
298.678
298.654
298.641
298.639
397.921
393.785
389.733
385.809
382.043
378.458
375.063
371.857
368.836
365.989
363.304
360.768
358.368
356.092
353.928
351.865
349.895
348.008
346.197
344.455
342.778
341.158
339.593
338.079
336.611
335.186
333.803
332.459
331.152
329.88
328.641
327.434
326.258
325.112
323.994
322.903
321.84
320.803
319.791
318.804
317.842
316.903
315.988
315.095
314.225
313.377
312.551
311.746
310.963
310.2
309.457
308.735
308.033
307.35
306.687
306.042
305.417
304.81
304.222
303.651
303.099
302.564
302.047
301.546
301.063
300.596
300.146
299.712
299.295
298.893
298.506
298.135
297.78
297.439
297.113
296.802
296.505
296.222
295.954
295.699
295.458
295.231
295.017
294.817
294.629
294.454
294.293
294.144
294.007
293.884
293.772
293.673
293.586
293.512
293.449
293.399
293.36
293.334
293.319
293.317
398.001
394.018
390.101
386.283
382.59
379.043
375.652
372.42
369.348
366.428
363.654
361.016
358.505
356.11
353.822
351.632
349.533
347.516
345.575
343.705
341.899
340.153
338.462
336.824
335.235
333.691
332.191
330.732
329.311
327.928
326.581
325.268
323.987
322.739
321.521
320.332
319.173
318.042
316.939
315.863
314.812
313.788
312.789
311.815
310.865
309.94
309.038
308.159
307.303
306.47
305.659
304.87
304.103
303.357
302.632
301.928
301.245
300.582
299.939
299.316
298.712
298.128
297.562
297.015
296.487
295.977
295.485
295.011
294.554
294.115
293.693
293.287
292.899
292.526
292.17
291.83
291.505
291.196
290.903
290.625
290.361
290.113
289.879
289.66
289.455
289.264
289.087
288.924
288.775
288.64
288.518
288.41
288.315
288.233
288.165
288.11
288.068
288.039
288.023
288.02
398.06
394.191
390.374
386.634
382.996
379.477
376.087
372.833
369.716
366.733
363.88
361.151
358.538
356.035
353.633
351.325
349.105
346.967
344.903
342.909
340.981
339.113
337.302
335.545
333.838
332.178
330.564
328.992
327.462
325.97
324.516
323.098
321.715
320.366
319.05
317.765
316.512
315.288
314.094
312.929
311.793
310.684
309.602
308.547
307.518
306.516
305.538
304.586
303.659
302.756
301.877
301.022
300.191
299.382
298.597
297.834
297.093
296.374
295.677
295.001
294.347
293.713
293.1
292.507
291.934
291.381
290.848
290.334
289.838
289.362
288.904
288.464
288.043
287.639
287.252
286.883
286.531
286.196
285.878
285.576
285.29
285.021
284.767
284.529
284.307
284.1
283.908
283.731
283.57
283.423
283.291
283.173
283.07
282.982
282.908
282.848
282.802
282.771
282.753
282.75
398.103
394.316
390.571
386.889
383.289
379.788
376.395
373.118
369.96
366.919
363.995
361.183
358.477
355.874
353.367
350.949
348.616
346.362
344.182
342.071
340.026
338.041
336.114
334.241
332.42
330.648
328.923
327.241
325.603
324.005
322.447
320.927
319.443
317.995
316.582
315.202
313.856
312.541
311.258
310.006
308.783
307.591
306.427
305.293
304.186
303.107
302.055
301.031
300.032
299.061
298.114
297.194
296.299
295.428
294.582
293.76
292.963
292.189
291.438
290.71
290.005
289.322
288.662
288.023
287.406
286.81
286.236
285.682
285.148
284.635
284.141
283.668
283.213
282.778
282.362
281.964
281.585
281.224
280.881
280.556
280.248
279.957
279.684
279.428
279.188
278.965
278.758
278.568
278.393
278.235
278.093
277.966
277.855
277.76
277.68
277.615
277.566
277.532
277.514
277.51
398.133
394.403
390.708
387.065
383.49
379.997
376.596
373.294
370.096
367.001
364.011
361.121
358.331
355.634
353.028
350.508
348.068
345.705
343.414
341.192
339.034
336.937
334.898
332.914
330.983
329.101
327.268
325.48
323.736
322.035
320.374
318.753
317.171
315.626
314.118
312.645
311.207
309.802
308.431
307.092
305.786
304.511
303.266
302.052
300.869
299.714
298.589
297.493
296.424
295.384
294.371
293.386
292.428
291.496
290.59
289.71
288.856
288.027
287.223
286.443
285.688
284.957
284.25
283.566
282.905
282.266
281.651
281.057
280.486
279.936
279.407
278.9
278.413
277.947
277.501
277.075
276.668
276.282
275.914
275.565
275.236
274.924
274.631
274.357
274.1
273.861
273.639
273.435
273.249
273.079
272.926
272.791
272.672
272.569
272.484
272.415
272.362
272.326
272.306
272.302
398.153
394.46
390.798
387.178
383.615
380.122
376.707
373.378
370.139
366.992
363.939
360.978
358.106
355.323
352.624
350.006
347.465
344.999
342.603
340.273
338.008
335.803
333.656
331.565
329.526
327.539
325.6
323.708
321.861
320.059
318.298
316.579
314.9
313.26
311.658
310.093
308.565
307.072
305.614
304.19
302.801
301.444
300.12
298.828
297.568
296.339
295.141
293.974
292.836
291.728
290.65
289.6
288.579
287.586
286.621
285.684
284.774
283.89
283.034
282.203
281.398
280.619
279.865
279.136
278.432
277.751
277.095
276.463
275.853
275.267
274.704
274.162
273.644
273.146
272.671
272.217
271.784
271.371
270.979
270.608
270.256
269.924
269.612
269.319
269.045
268.79
268.554
268.336
268.137
267.956
267.794
267.649
267.522
267.413
267.321
267.248
267.191
267.153
267.131
267.127
398.164
394.493
390.848
387.238
383.677
380.175
376.742
373.382
370.102
366.905
363.79
360.76
357.812
354.946
352.159
349.449
346.812
344.247
341.75
339.318
336.949
334.64
332.389
330.194
328.052
325.961
323.92
321.927
319.98
318.078
316.22
314.405
312.631
310.898
309.204
307.549
305.932
304.352
302.808
301.301
299.829
298.392
296.99
295.621
294.285
292.983
291.713
290.475
289.269
288.095
286.951
285.838
284.755
283.702
282.678
281.684
280.718
279.781
278.872
277.991
277.137
276.31
275.51
274.736
273.989
273.267
272.57
271.899
271.252
270.63
270.032
269.458
268.907
268.379
267.875
267.392
266.933
266.495
266.079
265.684
265.311
264.958
264.627
264.316
264.025
263.754
263.504
263.273
263.061
262.869
262.696
262.543
262.408
262.292
262.195
262.117
262.057
262.016
261.993
261.989
398.169
394.506
390.865
387.255
383.687
380.17
376.712
373.319
369.997
366.748
363.574
360.477
357.456
354.511
351.639
348.841
346.112
343.453
340.859
338.329
335.86
333.451
331.1
328.804
326.561
324.37
322.23
320.138
318.093
316.095
314.141
312.232
310.365
308.54
306.756
305.012
303.308
301.642
300.015
298.425
296.873
295.356
293.876
292.432
291.022
289.647
288.306
286.999
285.725
284.485
283.276
282.1
280.956
279.844
278.762
277.711
276.691
275.701
274.74
273.808
272.906
272.032
271.186
270.368
269.578
268.815
268.078
267.369
266.685
266.027
265.395
264.787
264.205
263.647
263.113
262.603
262.117
261.654
261.214
260.797
260.402
260.029
259.679
259.35
259.042
258.756
258.491
258.247
258.023
257.82
257.637
257.474
257.332
257.209
257.107
257.024
256.961
256.917
256.893
256.888
398.168
394.502
390.856
387.236
383.653
380.114
376.627
373.198
369.831
366.531
363.299
360.136
357.044
354.023
351.071
348.187
345.371
342.62
339.933
337.308
334.744
332.238
329.789
327.395
325.055
322.767
320.53
318.342
316.202
314.109
312.062
310.06
308.102
306.187
304.315
302.484
300.694
298.945
297.235
295.564
293.932
292.338
290.781
289.262
287.779
286.332
284.921
283.546
282.205
280.899
279.627
278.389
277.185
276.013
274.874
273.768
272.693
271.65
270.638
269.657
268.706
267.786
266.895
266.033
265.201
264.397
263.621
262.873
262.153
261.459
260.793
260.153
259.539
258.951
258.389
257.852
257.339
256.851
256.388
255.948
255.532
255.139
254.769
254.423
254.099
253.797
253.517
253.26
253.024
252.81
252.617
252.446
252.296
252.166
252.058
251.971
251.904
251.858
251.833
251.828
398.162
394.485
390.825
387.188
383.582
380.016
376.496
373.027
369.615
366.262
362.971
359.745
356.584
353.488
350.457
347.492
344.59
341.752
338.975
336.259
333.602
331.002
328.459
325.971
323.536
321.153
318.822
316.54
314.307
312.122
309.984
307.892
305.845
303.842
301.883
299.966
298.093
296.26
294.469
292.719
291.008
289.337
287.705
286.112
284.557
283.04
281.56
280.117
278.71
277.34
276.005
274.706
273.442
272.212
271.017
269.855
268.727
267.632
266.569
265.539
264.541
263.574
262.638
261.733
260.859
260.014
259.199
258.414
257.657
256.929
256.229
255.557
254.912
254.295
253.704
253.139
252.601
252.088
251.601
251.139
250.702
250.289
249.901
249.536
249.196
248.879
248.585
248.315
248.067
247.842
247.639
247.459
247.301
247.165
247.052
246.96
246.89
246.841
246.815
246.809
398.153
394.456
390.774
387.113
383.48
379.882
376.325
372.814
369.353
365.948
362.599
359.309
356.079
352.911
349.805
346.76
343.776
340.853
337.989
335.184
332.437
329.747
327.112
324.532
322.005
319.53
317.107
314.734
312.41
310.135
307.908
305.727
303.593
301.504
299.46
297.46
295.503
293.59
291.719
289.89
288.103
286.356
284.65
282.984
281.358
279.771
278.223
276.714
275.242
273.808
272.412
271.052
269.729
268.442
267.19
265.974
264.793
263.646
262.534
261.455
260.41
259.397
258.417
257.47
256.554
255.669
254.816
253.993
253.201
252.438
251.705
251.001
250.325
249.678
249.059
248.468
247.904
247.367
246.856
246.372
245.914
245.482
245.075
244.693
244.336
244.004
243.696
243.413
243.153
242.917
242.705
242.516
242.351
242.208
242.089
241.993
241.919
241.868
241.84
241.835
398.14
394.417
390.708
387.017
383.351
379.717
376.119
372.564
369.054
365.594
362.186
358.834
355.537
352.298
349.117
345.995
342.931
339.925
336.977
334.087
331.252
328.474
325.75
323.08
320.464
317.9
315.387
312.925
310.513
308.15
305.835
303.568
301.348
299.175
297.048
294.966
292.928
290.935
288.986
287.08
285.217
283.396
281.617
279.88
278.183
276.528
274.913
273.338
271.802
270.306
268.848
267.428
266.047
264.703
263.397
262.127
260.893
259.696
258.534
257.407
256.315
255.258
254.234
253.244
252.288
251.364
250.472
249.612
248.784
247.987
247.221
246.486
245.78
245.104
244.457
243.839
243.249
242.688
242.155
241.649
241.17
240.718
240.293
239.894
239.521
239.174
238.852
238.556
238.284
238.038
237.816
237.618
237.445
237.297
237.172
237.071
236.994
236.941
236.912
236.906
398.124
394.37
390.629
386.903
383.2
379.526
375.885
372.282
368.721
365.206
361.74
358.324
354.962
351.653
348.399
345.201
342.059
338.973
335.943
332.969
330.05
327.185
324.375
321.619
318.915
316.263
313.663
311.114
308.616
306.167
303.767
301.416
299.112
296.856
294.647
292.485
290.368
288.296
286.27
284.288
282.351
280.457
278.606
276.799
275.034
273.311
271.63
269.99
268.391
266.833
265.315
263.837
262.398
260.998
259.637
258.314
257.029
255.782
254.571
253.397
252.259
251.157
250.091
249.059
248.062
247.099
246.169
245.273
244.41
243.579
242.781
242.014
241.278
240.573
239.899
239.254
238.64
238.055
237.499
236.971
236.472
236.001
235.557
235.141
234.752
234.39
234.055
233.745
233.462
233.205
232.974
232.768
232.588
232.432
232.302
232.197
232.117
232.061
232.031
232.025
398.106
394.316
390.538
386.774
383.03
379.313
375.626
371.974
368.361
364.79
361.264
357.786
354.357
350.98
347.654
344.382
341.164
338
334.89
331.834
328.832
325.884
322.99
320.148
317.36
314.623
311.938
309.304
306.721
304.188
301.705
299.271
296.886
294.549
292.26
290.018
287.823
285.675
283.574
281.517
279.507
277.541
275.62
273.743
271.911
270.121
268.375
266.672
265.011
263.392
261.814
260.278
258.783
257.328
255.913
254.538
253.202
251.905
250.646
249.426
248.242
247.096
245.987
244.914
243.877
242.876
241.909
240.977
240.079
239.215
238.384
237.587
236.821
236.088
235.386
234.716
234.077
233.468
232.889
232.34
231.821
231.331
230.869
230.436
230.032
229.655
229.306
228.984
228.689
228.422
228.181
227.967
227.779
227.617
227.482
227.372
227.289
227.231
227.199
227.193
398.087
394.256
390.437
386.631
382.844
379.081
375.345
371.642
367.975
364.348
360.762
357.222
353.728
350.282
346.886
343.541
340.248
337.008
333.819
330.684
327.602
324.572
321.596
318.672
315.8
312.98
310.212
307.496
304.83
302.215
299.65
297.136
294.67
292.254
289.887
287.568
285.296
283.073
280.897
278.768
276.686
274.649
272.659
270.714
268.815
266.96
265.15
263.384
261.662
259.983
258.347
256.754
255.203
253.694
252.226
250.799
249.413
248.067
246.761
245.494
244.267
243.077
241.926
240.812
239.736
238.696
237.693
236.726
235.794
234.896
234.034
233.206
232.411
231.65
230.921
230.225
229.561
228.929
228.328
227.758
227.219
226.71
226.231
225.781
225.361
224.969
224.607
224.273
223.967
223.689
223.439
223.216
223.021
222.853
222.712
222.599
222.512
222.452
222.418
222.412
398.065
394.192
390.329
386.478
382.644
378.833
375.047
371.291
367.569
363.884
360.239
356.636
353.077
349.564
346.098
342.682
339.315
336
332.735
329.522
326.361
323.252
320.195
317.19
314.238
311.337
308.488
305.69
302.944
300.249
297.605
295.011
292.467
289.973
287.529
285.134
282.788
280.491
278.242
276.041
273.888
271.783
269.725
267.713
265.748
263.829
261.956
260.128
258.346
256.608
254.915
253.265
251.659
250.097
248.577
247.099
245.664
244.27
242.917
241.605
240.333
239.101
237.908
236.755
235.639
234.562
233.523
232.52
231.554
230.625
229.731
228.872
228.049
227.26
226.505
225.784
225.095
224.44
223.817
223.227
222.668
222.14
221.643
221.177
220.741
220.336
219.96
219.613
219.296
219.008
218.749
218.518
218.316
218.141
217.995
217.877
217.787
217.725
217.69
217.683
398.042
394.123
390.213
386.315
382.433
378.571
374.733
370.924
367.146
363.403
359.697
356.031
352.407
348.828
345.294
341.807
338.368
334.979
331.639
328.35
325.112
321.925
318.79
315.707
312.675
309.695
306.766
303.89
301.065
298.291
295.569
292.897
290.277
287.707
285.188
282.718
280.299
277.929
275.609
273.338
271.116
268.943
266.818
264.74
262.711
260.729
258.794
256.906
255.064
253.268
251.518
249.814
248.154
246.538
244.967
243.44
241.955
240.514
239.115
237.758
236.443
235.169
233.935
232.742
231.589
230.474
229.399
228.362
227.363
226.401
225.477
224.588
223.736
222.92
222.139
221.393
220.681
220.003
219.358
218.747
218.168
217.622
217.108
216.626
216.175
215.755
215.366
215.007
214.679
214.381
214.112
213.873
213.664
213.484
213.333
213.21
213.117
213.052
213.017
213.009
398.018
394.05
390.092
386.144
382.212
378.298
374.407
370.542
366.708
362.906
359.139
355.411
351.723
348.077
344.475
340.919
337.409
333.947
330.534
327.171
323.857
320.594
317.382
314.222
311.113
308.055
305.049
302.096
299.193
296.343
293.544
290.797
288.101
285.457
282.864
280.322
277.831
275.39
273
270.66
268.37
266.13
263.939
261.798
259.705
257.661
255.665
253.718
251.818
249.965
248.159
246.4
244.687
243.02
241.398
239.821
238.289
236.801
235.357
233.956
232.598
231.282
230.009
228.776
227.585
226.434
225.324
224.253
223.221
222.227
221.272
220.355
219.475
218.631
217.825
217.054
216.318
215.617
214.952
214.32
213.722
213.158
212.627
212.129
211.663
211.229
210.827
210.456
210.117
209.809
209.531
209.284
209.068
208.882
208.725
208.599
208.502
208.436
208.398
208.39
397.993
393.975
389.966
385.967
381.982
378.015
374.07
370.149
366.257
362.396
358.569
354.778
351.026
347.314
343.645
340.02
336.44
332.907
329.422
325.986
322.598
319.261
315.974
312.738
309.553
306.42
303.338
300.309
297.331
294.406
291.533
288.711
285.942
283.225
280.56
277.946
275.385
272.874
270.416
268.008
265.652
263.346
261.091
258.886
256.731
254.626
252.571
250.565
248.607
246.699
244.838
243.025
241.26
239.542
237.871
236.245
234.666
233.132
231.644
230.199
228.799
227.443
226.129
224.859
223.63
222.443
221.298
220.193
219.129
218.105
217.12
216.173
215.266
214.396
213.563
212.768
212.009
211.287
210.6
209.948
209.331
208.749
208.201
207.687
207.206
206.759
206.344
205.961
205.611
205.293
205.007
204.752
204.529
204.336
204.175
204.045
203.945
203.876
203.837
203.829
397.967
393.898
389.836
385.785
381.746
377.725
373.724
369.747
365.796
361.876
357.987
354.134
350.318
346.542
342.806
339.113
335.465
331.862
328.306
324.797
321.337
317.927
314.567
311.257
307.998
304.791
301.635
298.532
295.48
292.481
289.535
286.641
283.8
281.011
278.275
275.592
272.961
270.383
267.857
265.383
262.961
260.591
258.273
256.006
253.791
251.626
249.512
247.448
245.435
243.471
241.557
239.691
237.875
236.106
234.386
232.713
231.088
229.509
227.976
226.489
225.047
223.651
222.298
220.99
219.725
218.503
217.323
216.186
215.089
214.034
213.02
212.045
211.11
210.214
209.356
208.537
207.755
207.011
206.303
205.632
204.997
204.397
203.832
203.302
202.807
202.346
201.918
201.524
201.164
200.836
200.541
200.278
200.048
199.849
199.683
199.549
199.446
199.374
199.335
199.326
397.941
393.818
389.703
385.598
381.505
377.428
373.371
369.336
365.327
361.347
357.398
353.482
349.603
345.762
341.96
338.201
334.484
330.812
327.186
323.607
320.077
316.595
313.162
309.78
306.449
303.169
299.941
296.765
293.641
290.57
287.552
284.588
281.676
278.817
276.012
273.261
270.562
267.917
265.325
262.786
260.301
257.868
255.487
253.16
250.884
248.661
246.489
244.369
242.3
240.283
238.315
236.398
234.531
232.714
230.946
229.226
227.555
225.931
224.355
222.826
221.344
219.908
218.517
217.171
215.87
214.614
213.4
212.23
211.103
210.017
208.974
207.971
207.009
206.087
205.205
204.362
203.558
202.792
202.064
201.373
200.719
200.102
199.521
198.976
198.466
197.991
197.552
197.146
196.775
196.437
196.134
195.863
195.626
195.422
195.251
195.112
195.006
194.933
194.892
194.883
397.914
393.737
389.568
385.407
381.259
377.126
373.012
368.919
364.852
360.812
356.802
352.824
348.882
344.976
341.11
337.284
333.5
329.761
326.066
322.418
318.817
315.265
311.762
308.309
304.907
301.556
298.257
295.01
291.816
288.674
285.587
282.552
279.571
276.645
273.772
270.953
268.188
265.478
262.821
260.219
257.67
255.176
252.735
250.347
248.013
245.732
243.504
241.329
239.206
237.135
235.116
233.148
231.231
229.365
227.55
225.784
224.068
222.401
220.783
219.213
217.69
216.215
214.787
213.404
212.068
210.777
209.53
208.328
207.17
206.055
204.983
203.952
202.964
202.017
201.11
200.244
199.418
198.631
197.882
197.172
196.501
195.866
195.269
194.709
194.185
193.697
193.245
192.828
192.446
192.1
191.787
191.509
191.266
191.056
190.88
190.737
190.628
190.553
190.51
190.501
397.886
393.654
389.43
385.214
381.01
376.82
372.648
368.498
364.371
360.271
356.201
352.162
348.156
344.187
340.256
336.365
332.516
328.709
324.947
321.231
317.562
313.94
310.368
306.846
303.374
299.953
296.585
293.268
290.005
286.795
283.638
280.536
277.488
274.494
271.555
268.67
265.841
263.066
260.346
257.681
255.071
252.516
250.016
247.57
245.178
242.841
240.557
238.327
236.151
234.028
231.958
229.941
227.976
226.062
224.2
222.39
220.629
218.92
217.26
215.649
214.087
212.574
211.108
209.69
208.319
206.994
205.715
204.481
203.293
202.148
201.048
199.99
198.976
198.004
197.073
196.184
195.336
194.528
193.76
193.031
192.342
191.691
191.078
190.502
189.965
189.464
188.999
188.571
188.18
187.823
187.503
187.217
186.967
186.751
186.57
186.424
186.312
186.234
186.191
186.181
397.858
393.571
389.291
385.019
380.758
376.511
372.282
368.073
363.888
359.728
355.597
351.496
347.429
343.397
339.402
335.446
331.531
327.659
323.83
320.047
316.311
312.622
308.982
305.391
301.851
298.362
294.926
291.541
288.21
284.933
281.709
278.54
275.426
272.366
269.362
266.414
263.521
260.683
257.901
255.175
252.505
249.891
247.332
244.828
242.38
239.987
237.65
235.367
233.138
230.964
228.844
226.778
224.765
222.805
220.898
219.042
217.239
215.487
213.786
212.136
210.535
208.984
207.482
206.029
204.623
203.265
201.954
200.69
199.471
198.298
197.17
196.086
195.046
194.049
193.096
192.184
191.314
190.486
189.698
188.951
188.244
187.576
186.948
186.358
185.806
185.292
184.816
184.377
183.975
183.61
183.281
182.988
182.731
182.51
182.324
182.174
182.059
181.979
181.935
181.924
397.83
393.487
389.15
384.822
380.504
376.2
371.913
367.646
363.402
359.182
354.991
350.829
346.7
342.605
338.547
334.528
330.549
326.612
322.718
318.869
315.066
311.311
307.604
303.947
300.34
296.784
293.281
289.83
286.433
283.089
279.8
276.566
273.387
270.263
267.195
264.184
261.229
258.33
255.487
252.701
249.972
247.299
244.683
242.124
239.62
237.173
234.782
232.447
230.168
227.944
225.775
223.66
221.6
219.595
217.643
215.744
213.898
212.105
210.364
208.674
207.036
205.448
203.91
202.422
200.983
199.593
198.25
196.955
195.707
194.506
193.351
192.241
191.175
190.155
189.178
188.244
187.353
186.504
185.698
184.932
184.208
183.524
182.88
182.275
181.71
181.184
180.696
180.246
179.834
179.46
179.123
178.823
178.56
178.333
178.143
177.989
177.871
177.789
177.743
177.732
397.802
393.402
389.009
384.624
380.249
375.888
371.544
367.218
362.915
358.636
354.384
350.162
345.972
341.815
337.695
333.613
329.57
325.569
321.611
317.697
313.83
310.009
306.237
302.514
298.842
295.221
291.652
288.136
284.673
281.265
277.912
274.614
271.371
268.185
265.055
261.982
258.966
256.007
253.105
250.26
247.473
244.744
242.072
239.457
236.9
234.399
231.956
229.57
227.24
224.967
222.75
220.589
218.483
216.432
214.437
212.495
210.608
208.774
206.993
205.265
203.59
201.966
200.393
198.871
197.398
195.976
194.603
193.278
192.002
190.772
189.59
188.455
187.365
186.32
185.32
184.365
183.453
182.585
181.759
180.976
180.235
179.535
178.875
178.257
177.678
177.14
176.64
176.18
175.758
175.375
175.03
174.723
174.453
174.221
174.026
173.868
173.748
173.664
173.616
173.605
397.774
393.317
388.868
384.426
379.994
375.576
371.173
366.79
362.428
358.09
353.779
349.496
345.245
341.028
336.846
332.701
328.596
324.532
320.511
316.534
312.602
308.718
304.881
301.094
297.358
293.672
290.04
286.46
282.934
279.462
276.046
272.685
269.381
266.133
262.942
259.809
256.733
253.715
250.755
247.853
245.01
242.224
239.497
236.829
234.218
231.666
229.172
226.736
224.357
222.035
219.771
217.564
215.413
213.319
211.28
209.297
207.368
205.495
203.676
201.91
200.198
198.538
196.931
195.375
193.871
192.417
191.013
189.66
188.355
187.098
185.89
184.729
183.615
182.547
181.525
180.548
179.616
178.728
177.884
177.083
176.325
175.609
174.935
174.303
173.711
173.16
172.65
172.179
171.748
171.356
171.003
170.689
170.413
170.175
169.976
169.814
169.691
169.605
169.556
169.545
397.746
393.233
388.727
384.228
379.739
375.264
370.804
366.362
361.942
357.545
353.175
348.833
344.522
340.244
336.001
331.795
327.629
323.502