/*--------------------------------*- C++ -*----------------------------------*\
| =========                 |                                                 |
| \\      /  F ield         | OpenFOAM: The Open Source CFD Toolbox           |
|  \\    /   O peration     | Version:  2406                                  |
|   \\  /    A nd           | Website:  www.openfoam.com                      |
|    \\/     M anipulation  |                                                 |
\*---------------------------------------------------------------------------*/
FoamFile
{
    version     2.0;
    format      ascii;
    arch        "LSB;label=32;scalar=64";
    class       volScalarField;
    location    "13";
    object      p;
}
// * * * * * * * * * * * * * * * * * * * * * * * * * * * * * * * * * * * * * //

dimensions      [0 2 -2 0 0 0 0];

internalField   nonuniform List<scalar> 
34560
(
-14.476709
-14.482966
-14.492856
-14.507649
-14.527656
-14.552209
-14.579746
-14.60955
-14.639049
-14.450577
-14.458919
-14.472143
-14.491817
-14.518125
-14.549838
-14.584515
-14.620753
-14.656024
-14.425224
-14.435827
-14.452552
-14.477063
-14.509289
-14.547334
-14.587759
-14.628628
-14.667418
-14.398113
-14.410993
-14.431343
-14.460943
-14.499273
-14.543545
-14.589356
-14.634211
-14.675999
-14.37028
-14.385489
-14.409507
-14.444209
-14.488579
-14.538893
-14.589933
-14.638534
-14.682933
-14.34359
-14.360903
-14.388322
-14.427818
-14.477854
-14.533739
-14.589641
-14.641737
-14.688396
-14.318744
-14.337968
-14.368505
-14.412408
-14.467606
-14.528478
-14.588713
-14.643971
-14.692611
-14.296433
-14.317353
-14.350657
-14.398462
-14.458195
-14.523396
-14.587375
-14.64538
-14.695745
-14.277363
-14.299718
-14.335362
-14.386458
-14.449991
-14.518787
-14.585861
-14.646142
-14.697958
-14.262445
-14.285898
-14.323352
-14.376996
-14.44346
-14.515013
-14.584449
-14.646473
-14.699421
-14.252341
-14.276542
-14.315225
-14.370583
-14.439
-14.512388
-14.583391
-14.646577
-14.700299
-14.246889
-14.271514
-14.310869
-14.367141
-14.436584
-14.51093
-14.582748
-14.646539
-14.700671
-14.246889
-14.271514
-14.310869
-14.367141
-14.436584
-14.51093
-14.582749
-14.646539
-14.700671
-14.252341
-14.276542
-14.315225
-14.370583
-14.439001
-14.512388
-14.583392
-14.646578
-14.7003
-14.262446
-14.285899
-14.323352
-14.376996
-14.44346
-14.515014
-14.58445
-14.646474
-14.699422
-14.277364
-14.299718
-14.335362
-14.386458
-14.449991
-14.518788
-14.585862
-14.646143
-14.697958
-14.296434
-14.317354
-14.350657
-14.398463
-14.458195
-14.523396
-14.587375
-14.645381
-14.695745
-14.318744
-14.337969
-14.368506
-14.412409
-14.467606
-14.528479
-14.588714
-14.643971
-14.69261
-14.343592
-14.360905
-14.388324
-14.42782
-14.477855
-14.53374
-14.589642
-14.641737
-14.688394
-14.370282
-14.385491
-14.40951
-14.444212
-14.488582
-14.538895
-14.589934
-14.638534
-14.682931
-14.398117
-14.410997
-14.431346
-14.460947
-14.499276
-14.543548
-14.589357
-14.634211
-14.675996
-14.425229
-14.435832
-14.452557
-14.477068
-14.509294
-14.547338
-14.587762
-14.628628
-14.667416
-14.450582
-14.458924
-14.472148
-14.491822
-14.51813
-14.549842
-14.584518
-14.620754
-14.656025
-14.476715
-14.482972
-14.492862
-14.507656
-14.527662
-14.552213
-14.579749
-14.609554
-14.639053
-14.079437
-14.077395
-14.07495
-14.071462
-14.065519
-14.056281
-14.043755
-14.028331
-14.012847
-14.101332
-14.098566
-14.094902
-14.089253
-14.07972
-14.065621
-14.048233
-14.029222
-14.011663
-14.125772
-14.122307
-14.117614
-14.110117
-14.097311
-14.078445
-14.056111
-14.033366
-14.013306
-14.149956
-14.145749
-14.140016
-14.130748
-14.114956
-14.091743
-14.064732
-14.03833
-14.015463
-14.173502
-14.168596
-14.161835
-14.15078
-14.132138
-14.104908
-14.073382
-14.043423
-14.017818
-14.195553
-14.190057
-14.182378
-14.169664
-14.148401
-14.117628
-14.081984
-14.0486
-14.020453
-14.215568
-14.209539
-14.20101
-14.186737
-14.163064
-14.129276
-14.090161
-14.053631
-14.023157
-14.233111
-14.226641
-14.217376
-14.201704
-14.175877
-14.139491
-14.097479
-14.058179
-14.02554
-14.247708
-14.240897
-14.231041
-14.214195
-14.186535
-14.147956
-14.103592
-14.061948
-14.027316
-14.258974
-14.251922
-14.241622
-14.223863
-14.194744
-14.154392
-14.108208
-14.064757
-14.028579
-14.266658
-14.259435
-14.248821
-14.23042
-14.200274
-14.158668
-14.11121
-14.066579
-14.029419
-14.270531
-14.263235
-14.252473
-14.233752
-14.203079
-14.160823
-14.112702
-14.067477
-14.029836
-14.270531
-14.263235
-14.252474
-14.233752
-14.203079
-14.160823
-14.112702
-14.067477
-14.029836
-14.266658
-14.259435
-14.248821
-14.230421
-14.200274
-14.158668
-14.11121
-14.066579
-14.029419
-14.258975
-14.251922
-14.241623
-14.223864
-14.194745
-14.154393
-14.108209
-14.064757
-14.028579
-14.24771
-14.240899
-14.231042
-14.214196
-14.186536
-14.147957
-14.103593
-14.061948
-14.027316
-14.233112
-14.226642
-14.217378
-14.201706
-14.175878
-14.139492
-14.09748
-14.058179
-14.025539
-14.21557
-14.209542
-14.201013
-14.186739
-14.163066
-14.129278
-14.090162
-14.053631
-14.023156
-14.195556
-14.19006
-14.182381
-14.169667
-14.148404
-14.11763
-14.081986
-14.0486
-14.020452
-14.173506
-14.1686
-14.161839
-14.150784
-14.132141
-14.104911
-14.073384
-14.043423
-14.017817
-14.14996
-14.145753
-14.14002
-14.130753
-14.114961
-14.091748
-14.064735
-14.038332
-14.015463
-14.125778
-14.122313
-14.11762
-14.110123
-14.097317
-14.07845
-14.056115
-14.033369
-14.013307
-14.101339
-14.098573
-14.094909
-14.08926
-14.079727
-14.065628
-14.04824
-14.029228
-14.011665
-14.079445
-14.077403
-14.074958
-14.071471
-14.065526
-14.056289
-14.043762
-14.028339
-14.012852
-13.204666
-13.204116
-13.20373
-13.203946
-13.205001
-13.206402
-13.206329
-13.20366
-13.199837
-13.208406
-13.207693
-13.207077
-13.207083
-13.20803
-13.209395
-13.209208
-13.206147
-13.202081
-13.21181
-13.210957
-13.210201
-13.210186
-13.211375
-13.213222
-13.213455
-13.210461
-13.206215
-13.214232
-13.213235
-13.212341
-13.212327
-13.21381
-13.216261
-13.217065
-13.214223
-13.209683
-13.216259
-13.215134
-13.214111
-13.214071
-13.215703
-13.218552
-13.219829
-13.217143
-13.212452
-13.218257
-13.217005
-13.215872
-13.215806
-13.217496
-13.220509
-13.222051
-13.219503
-13.214768
-13.220143
-13.218779
-13.21757
-13.21753
-13.219301
-13.222302
-13.223861
-13.221432
-13.216719
-13.221899
-13.220441
-13.219181
-13.219194
-13.221062
-13.224005
-13.225437
-13.223093
-13.218491
-13.223449
-13.221916
-13.220627
-13.220707
-13.222688
-13.225604
-13.226869
-13.224606
-13.220212
-13.224719
-13.223129
-13.221829
-13.221984
-13.22409
-13.227042
-13.228174
-13.225954
-13.221684
-13.225625
-13.223995
-13.222691
-13.222911
-13.225124
-13.228131
-13.229206
-13.226975
-13.222713
-13.226083
-13.224436
-13.223134
-13.223392
-13.225669
-13.228715
-13.229774
-13.22753
-13.223244
-13.226083
-13.224436
-13.223134
-13.223392
-13.225669
-13.228715
-13.229774
-13.22753
-13.223244
-13.225626
-13.223995
-13.222691
-13.222911
-13.225124
-13.228131
-13.229206
-13.226975
-13.222713
-13.224719
-13.22313
-13.221829
-13.221984
-13.224091
-13.227043
-13.228175
-13.225954
-13.221684
-13.22345
-13.221917
-13.220628
-13.220708
-13.222689
-13.225605
-13.22687
-13.224606
-13.220212
-13.2219
-13.220442
-13.219183
-13.219196
-13.221064
-13.224007
-13.225438
-13.223093
-13.21849
-13.220145
-13.218782
-13.217573
-13.217533
-13.219303
-13.222304
-13.223863
-13.221433
-13.216718
-13.218259
-13.217008
-13.215876
-13.215809
-13.2175
-13.220512
-13.222054
-13.219504
-13.214768
-13.216263
-13.215138
-13.214115
-13.214075
-13.215708
-13.218556
-13.219833
-13.217145
-13.212452
-13.214237
-13.21324
-13.212347
-13.212333
-13.213815
-13.216267
-13.21707
-13.214226
-13.209683
-13.211816
-13.210964
-13.210208
-13.210192
-13.211382
-13.213229
-13.213461
-13.210465
-13.206217
-13.208413
-13.2077
-13.207085
-13.207091
-13.208038
-13.209402
-13.209215
-13.206151
-13.202083
-13.204674
-13.204124
-13.203738
-13.203954
-13.205009
-13.20641
-13.206336
-13.203665
-13.199839
-12.613798
-12.613995
-12.614212
-12.614324
-12.614115
-12.613295
-12.612218
-12.61141
-12.610224
-12.618232
-12.618376
-12.618466
-12.618322
-12.617642
-12.616014
-12.613686
-12.611581
-12.609798
-12.623238
-12.62333
-12.623325
-12.62299
-12.621956
-12.619767
-12.616621
-12.613572
-12.61125
-12.628011
-12.628038
-12.627944
-12.627457
-12.626125
-12.62354
-12.619897
-12.616248
-12.613462
-12.63249
-12.632455
-12.632279
-12.631655
-12.630033
-12.627056
-12.623044
-12.619005
-12.615866
-12.636495
-12.636421
-12.636189
-12.635416
-12.633524
-12.630172
-12.62581
-12.621443
-12.617982
-12.63977
-12.639683
-12.639413
-12.638517
-12.636355
-12.632657
-12.627975
-12.62331
-12.619561
-12.642338
-12.64226
-12.641961
-12.640949
-12.638543
-12.634535
-12.629579
-12.624685
-12.620711
-12.644206
-12.64415
-12.643849
-12.642754
-12.640159
-12.635895
-12.630717
-12.625668
-12.621537
-12.645496
-12.645459
-12.645158
-12.644004
-12.64127
-12.636816
-12.631477
-12.626331
-12.622084
-12.646303
-12.646281
-12.64598
-12.644782
-12.641949
-12.637365
-12.631927
-12.626727
-12.622404
-12.646676
-12.646664
-12.646367
-12.645149
-12.642267
-12.637619
-12.632134
-12.626909
-12.622549
-12.646676
-12.646664
-12.646367
-12.645149
-12.642267
-12.63762
-12.632134
-12.626909
-12.622549
-12.646303
-12.646281
-12.645981
-12.644783
-12.641949
-12.637366
-12.631927
-12.626727
-12.622404
-12.645496
-12.645459
-12.645159
-12.644005
-12.641271
-12.636817
-12.631477
-12.626332
-12.622084
-12.644207
-12.644151
-12.64385
-12.642756
-12.640161
-12.635896
-12.630719
-12.625669
-12.621537
-12.64234
-12.642261
-12.641963
-12.64095
-12.638545
-12.634537
-12.629581
-12.624686
-12.620711
-12.639772
-12.639685
-12.639416
-12.638519
-12.636358
-12.632659
-12.627978
-12.623312
-12.619561
-12.636498
-12.636423
-12.636192
-12.635419
-12.633528
-12.630175
-12.625813
-12.621445
-12.617982
-12.632494
-12.632459
-12.632283
-12.631659
-12.630038
-12.62706
-12.623048
-12.619007
-12.615867
-12.628016
-12.628043
-12.62795
-12.627462
-12.626131
-12.623546
-12.619901
-12.616252
-12.613464
-12.623244
-12.623336
-12.623332
-12.622997
-12.621963
-12.619773
-12.616627
-12.613577
-12.611253
-12.618239
-12.618383
-12.618474
-12.618329
-12.617649
-12.616021
-12.613693
-12.611586
-12.609802
-12.613806
-12.614003
-12.61422
-12.614332
-12.614123
-12.613302
-12.612225
-12.611416
-12.61023
-11.953508
-11.953514
-11.95356
-11.953689
-11.953953
-11.95439
-11.954984
-11.95558
-11.955872
-11.955698
-11.955662
-11.95564
-11.955671
-11.9558
-11.956084
-11.956472
-11.956796
-11.956896
-11.957962
-11.957894
-11.957836
-11.957833
-11.957926
-11.958154
-11.958428
-11.95859
-11.958571
-11.959785
-11.959697
-11.959621
-11.959613
-11.95972
-11.959925
-11.96013
-11.96014
-11.959906
-11.961058
-11.960975
-11.960894
-11.960863
-11.960943
-11.961123
-11.961251
-11.961103
-11.960664
-11.961952
-11.961878
-11.961795
-11.961754
-11.961795
-11.961926
-11.961977
-11.961693
-11.961096
-11.962622
-11.962554
-11.962469
-11.962418
-11.962454
-11.962553
-11.962545
-11.962175
-11.961456
-11.963131
-11.963064
-11.962987
-11.962942
-11.962982
-11.96307
-11.963025
-11.962585
-11.961762
-11.963526
-11.963455
-11.963373
-11.963331
-11.963381
-11.963474
-11.96341
-11.962914
-11.962
-11.963813
-11.96374
-11.963654
-11.963611
-11.963666
-11.963768
-11.963696
-11.963156
-11.962174
-11.964002
-11.963925
-11.963835
-11.963791
-11.963851
-11.963961
-11.963885
-11.963316
-11.96229
-11.964087
-11.964009
-11.963918
-11.963875
-11.963938
-11.964055
-11.963979
-11.963398
-11.96235
-11.964087
-11.964009
-11.963918
-11.963875
-11.963938
-11.964056
-11.963979
-11.963398
-11.96235
-11.964002
-11.963925
-11.963835
-11.963792
-11.963851
-11.963962
-11.963885
-11.963316
-11.962289
-11.963813
-11.96374
-11.963654
-11.963612
-11.963667
-11.963769
-11.963696
-11.963156
-11.962173
-11.963526
-11.963455
-11.963373
-11.963332
-11.963382
-11.963475
-11.963411
-11.962914
-11.962
-11.963132
-11.963065
-11.962989
-11.962943
-11.962984
-11.963072
-11.963026
-11.962586
-11.961762
-11.962624
-11.962556
-11.962471
-11.962421
-11.962456
-11.962555
-11.962547
-11.962176
-11.961456
-11.961954
-11.96188
-11.961798
-11.961758
-11.961798
-11.961929
-11.961979
-11.961695
-11.961096
-11.961062
-11.960978
-11.960898
-11.960867
-11.960947
-11.961128
-11.961255
-11.961105
-11.960665
-11.95979
-11.959702
-11.959627
-11.959619
-11.959726
-11.959931
-11.960135
-11.960144
-11.959908
-11.957969
-11.9579
-11.957843
-11.957841
-11.957933
-11.958161
-11.958435
-11.958596
-11.958574
-11.955706
-11.955671
-11.955649
-11.955679
-11.955808
-11.956092
-11.95648
-11.956803
-11.956902
-11.953517
-11.953523
-11.953569
-11.953698
-11.953962
-11.954399
-11.954994
-11.95559
-11.955882
-11.341463
-11.34151
-11.341571
-11.341634
-11.341686
-11.341709
-11.341682
-11.34162
-11.341422
-11.341987
-11.342033
-11.342078
-11.342095
-11.34205
-11.341914
-11.341709
-11.341471
-11.34119
-11.342671
-11.342714
-11.342741
-11.342713
-11.342586
-11.342344
-11.342047
-11.341746
-11.341481
-11.343436
-11.343467
-11.343475
-11.343408
-11.343223
-11.342927
-11.342578
-11.342237
-11.341961
-11.344339
-11.344353
-11.344339
-11.344244
-11.344025
-11.343691
-11.343288
-11.342893
-11.342585
-11.345319
-11.345316
-11.345284
-11.345177
-11.344958
-11.344609
-11.34416
-11.343703
-11.343345
-11.346294
-11.346276
-11.346231
-11.346126
-11.34592
-11.34557
-11.345092
-11.34458
-11.344159
-11.3472
-11.347172
-11.34712
-11.347019
-11.346824
-11.346482
-11.345985
-11.345424
-11.344931
-11.347981
-11.347946
-11.347889
-11.347789
-11.347606
-11.347275
-11.346767
-11.346162
-11.345597
-11.348598
-11.348559
-11.348499
-11.348402
-11.34823
-11.347909
-11.347392
-11.346749
-11.346123
-11.349027
-11.348984
-11.348924
-11.348829
-11.348665
-11.348352
-11.347828
-11.347157
-11.346487
-11.349244
-11.3492
-11.349139
-11.349046
-11.348887
-11.348579
-11.348051
-11.347366
-11.346674
-11.349244
-11.3492
-11.349139
-11.349046
-11.348887
-11.348579
-11.348051
-11.347366
-11.346673
-11.349027
-11.348984
-11.348924
-11.348829
-11.348665
-11.348352
-11.347828
-11.347156
-11.346486
-11.348598
-11.348558
-11.348499
-11.348402
-11.34823
-11.34791
-11.347393
-11.346749
-11.346122
-11.34798
-11.347945
-11.347889
-11.34779
-11.347607
-11.347276
-11.346768
-11.346161
-11.345595
-11.3472
-11.347172
-11.34712
-11.34702
-11.346826
-11.346483
-11.345986
-11.345424
-11.344929
-11.346294
-11.346277
-11.346232
-11.346128
-11.345922
-11.345573
-11.345094
-11.344581
-11.344157
-11.345321
-11.345319
-11.345286
-11.34518
-11.344962
-11.344613
-11.344163
-11.343704
-11.343344
-11.344342
-11.344357
-11.344343
-11.344248
-11.344029
-11.343695
-11.343292
-11.342895
-11.342585
-11.343442
-11.343473
-11.34348
-11.343414
-11.34323
-11.342933
-11.342583
-11.34224
-11.341962
-11.342678
-11.342721
-11.342749
-11.342721
-11.342594
-11.342352
-11.342054
-11.341751
-11.341484
-11.341996
-11.342043
-11.342088
-11.342105
-11.34206
-11.341924
-11.341718
-11.341478
-11.341194
-11.341474
-11.341521
-11.341582
-11.341644
-11.341697
-11.34172
-11.341692
-11.34163
-11.341431
-10.719952
-10.719958
-10.719973
-10.720006
-10.720071
-10.720183
-10.720335
-10.720508
-10.72062
-10.720497
-10.720493
-10.720492
-10.720502
-10.720538
-10.720609
-10.720701
-10.720787
-10.720829
-10.721053
-10.721044
-10.721036
-10.721038
-10.721064
-10.721115
-10.721167
-10.7212
-10.721213
-10.72152
-10.721508
-10.721497
-10.721499
-10.721524
-10.721559
-10.721576
-10.721561
-10.721526
-10.721878
-10.721865
-10.721855
-10.721858
-10.721875
-10.721883
-10.721859
-10.721795
-10.721707
-10.722127
-10.722118
-10.72211
-10.722109
-10.722106
-10.72208
-10.722016
-10.721904
-10.721764
-10.722276
-10.72227
-10.722261
-10.722249
-10.722223
-10.722169
-10.722069
-10.721915
-10.721729
-10.722363
-10.722358
-10.722346
-10.722322
-10.722277
-10.722196
-10.722062
-10.72187
-10.721649
-10.722416
-10.72241
-10.722395
-10.722363
-10.722302
-10.722195
-10.72203
-10.721807
-10.721559
-10.722451
-10.722443
-10.722424
-10.722386
-10.722311
-10.722184
-10.721994
-10.721748
-10.72148
-10.722472
-10.722463
-10.722441
-10.722397
-10.722313
-10.722171
-10.721966
-10.721705
-10.721424
-10.72248
-10.72247
-10.722447
-10.722401
-10.722311
-10.722163
-10.72195
-10.721682
-10.721394
-10.722479
-10.72247
-10.722447
-10.722401
-10.722311
-10.722163
-10.72195
-10.721682
-10.721394
-10.722471
-10.722462
-10.722441
-10.722397
-10.722312
-10.722171
-10.721965
-10.721704
-10.721422
-10.72245
-10.722442
-10.722424
-10.722386
-10.722311
-10.722184
-10.721994
-10.721747
-10.721478
-10.722415
-10.722409
-10.722394
-10.722363
-10.722302
-10.722196
-10.72203
-10.721806
-10.721556
-10.722362
-10.722357
-10.722346
-10.722322
-10.722278
-10.722197
-10.722062
-10.721869
-10.721646
-10.722276
-10.72227
-10.722262
-10.72225
-10.722225
-10.722171
-10.72207
-10.721914
-10.721726
-10.722129
-10.722119
-10.722112
-10.722112
-10.722109
-10.722083
-10.722018
-10.721904
-10.721761
-10.721881
-10.721869
-10.721859
-10.721863
-10.72188
-10.721888
-10.721862
-10.721796
-10.721705
-10.721526
-10.721513
-10.721503
-10.721506
-10.721531
-10.721566
-10.721581
-10.721564
-10.721525
-10.721061
-10.721053
-10.721045
-10.721047
-10.721073
-10.721123
-10.721174
-10.721204
-10.721213
-10.720507
-10.720504
-10.720503
-10.720514
-10.720549
-10.72062
-10.720711
-10.720794
-10.720831
-10.719963
-10.719969
-10.719985
-10.720018
-10.720083
-10.720195
-10.720346
-10.720518
-10.720627
-10.108801
-10.108811
-10.108824
-10.108841
-10.108859
-10.108876
-10.108894
-10.108917
-10.108917
-10.108948
-10.108956
-10.108965
-10.10897
-10.108965
-10.108949
-10.108929
-10.108913
-10.108894
-10.109132
-10.109139
-10.109144
-10.109139
-10.109118
-10.109083
-10.109046
-10.109019
-10.109009
-10.109324
-10.109328
-10.109328
-10.109317
-10.109288
-10.109247
-10.109204
-10.109172
-10.109161
-10.109542
-10.109542
-10.109537
-10.109519
-10.109485
-10.10944
-10.109391
-10.109352
-10.109335
-10.109781
-10.109778
-10.109769
-10.109749
-10.109714
-10.109666
-10.109612
-10.109564
-10.109538
-10.11002
-10.110014
-10.110003
-10.109984
-10.109952
-10.109905
-10.109848
-10.109794
-10.109755
-10.110245
-10.110237
-10.110225
-10.110207
-10.110178
-10.110136
-10.110079
-10.110018
-10.109964
-10.11044
-10.110431
-10.110419
-10.110402
-10.110377
-10.110339
-10.110284
-10.110216
-10.110149
-10.110596
-10.110586
-10.110574
-10.110558
-10.110536
-10.110503
-10.110448
-10.110375
-10.110296
-10.110704
-10.110694
-10.110682
-10.110667
-10.110648
-10.110617
-10.110563
-10.110486
-10.110398
-10.110759
-10.110749
-10.110737
-10.110723
-10.110705
-10.110675
-10.110622
-10.110543
-10.11045
-10.110759
-10.110749
-10.110736
-10.110722
-10.110705
-10.110675
-10.110622
-10.110542
-10.110449
-10.110703
-10.110693
-10.110681
-10.110667
-10.110648
-10.110617
-10.110563
-10.110485
-10.110396
-10.110594
-10.110585
-10.110573
-10.110557
-10.110536
-10.110502
-10.110448
-10.110374
-10.110293
-10.110439
-10.11043
-10.110418
-10.110401
-10.110377
-10.110339
-10.110283
-10.110214
-10.110145
-10.110243
-10.110236
-10.110225
-10.110207
-10.110179
-10.110136
-10.110079
-10.110016
-10.10996
-10.110019
-10.110014
-10.110004
-10.109985
-10.109953
-10.109906
-10.109849
-10.109792
-10.10975
-10.109782
-10.109779
-10.109771
-10.109751
-10.109717
-10.109669
-10.109613
-10.109563
-10.109533
-10.109544
-10.109545
-10.109541
-10.109523
-10.10949
-10.109444
-10.109394
-10.109352
-10.109332
-10.109329
-10.109334
-10.109334
-10.109323
-10.109295
-10.109253
-10.109208
-10.109173
-10.109159
-10.109139
-10.109147
-10.109152
-10.109148
-10.109127
-10.109092
-10.109053
-10.109023
-10.109009
-10.108958
-10.108966
-10.108976
-10.108981
-10.108976
-10.108959
-10.108938
-10.10892
-10.108896
-10.108812
-10.108822
-10.108836
-10.108853
-10.108871
-10.108888
-10.108905
-10.108928
-10.108923
-9.4944369
-9.494438
-9.4944416
-9.49445
-9.4944671
-9.4944957
-9.494535
-9.4945802
-9.4946097
-9.4945664
-9.4945653
-9.4945649
-9.4945676
-9.4945767
-9.4945939
-9.4946159
-9.4946366
-9.4946467
-9.4946985
-9.4946962
-9.4946942
-9.4946946
-9.4947002
-9.4947104
-9.4947203
-9.4947272
-9.4947323
-9.4948082
-9.4948051
-9.4948026
-9.494803
-9.4948076
-9.4948131
-9.4948143
-9.4948109
-9.4948076
-9.4948939
-9.4948908
-9.4948882
-9.4948884
-9.4948904
-9.4948898
-9.4948828
-9.4948701
-9.4948573
-9.494958
-9.4949553
-9.4949526
-9.4949509
-9.4949486
-9.4949418
-9.4949271
-9.494905
-9.4948819
-9.4950015
-9.494999
-9.4949958
-9.4949916
-9.494985
-9.4949728
-9.4949507
-9.4949192
-9.4948859
-9.4950318
-9.4950291
-9.495025
-9.4950188
-9.4950086
-9.4949908
-9.4949611
-9.4949204
-9.4948776
-9.4950536
-9.4950505
-9.4950456
-9.4950379
-9.4950244
-9.495001
-9.4949641
-9.4949152
-9.4948644
-9.4950689
-9.4950654
-9.4950598
-9.4950508
-9.4950346
-9.4950067
-9.494964
-9.4949086
-9.4948513
-9.4950786
-9.4950748
-9.4950686
-9.4950586
-9.4950406
-9.4950097
-9.494963
-9.494903
-9.4948413
-9.4950828
-9.4950789
-9.4950725
-9.495062
-9.4950431
-9.4950108
-9.4949621
-9.4948998
-9.4948357
-9.4950824
-9.4950785
-9.4950722
-9.4950618
-9.4950429
-9.4950106
-9.4949619
-9.4948994
-9.4948351
-9.4950776
-9.4950739
-9.4950679
-9.495058
-9.4950402
-9.4950093
-9.4949625
-9.4949019
-9.4948394
-9.4950674
-9.4950641
-9.4950587
-9.49505
-9.495034
-9.4950063
-9.4949632
-9.4949069
-9.4948483
-9.4950518
-9.495049
-9.4950444
-9.4950371
-9.495024
-9.4950007
-9.4949633
-9.4949132
-9.4948605
-9.4950302
-9.4950278
-9.4950241
-9.4950184
-9.4950086
-9.4949908
-9.4949605
-9.4949182
-9.4948731
-9.4950004
-9.4949983
-9.4949956
-9.494992
-9.4949858
-9.4949736
-9.4949507
-9.4949172
-9.4948811
-9.4949581
-9.4949558
-9.4949537
-9.4949526
-9.4949506
-9.4949437
-9.4949279
-9.4949035
-9.4948773
-9.4948957
-9.494893
-9.494891
-9.4948918
-9.4948941
-9.4948932
-9.4948849
-9.4948697
-9.4948533
-9.4948123
-9.4948096
-9.4948076
-9.4948085
-9.4948134
-9.4948184
-9.4948181
-9.494812
-9.494805
-9.4947051
-9.4947031
-9.4947015
-9.4947024
-9.494708
-9.4947178
-9.4947263
-9.4947305
-9.4947319
-9.4945753
-9.4945744
-9.4945743
-9.4945772
-9.4945864
-9.4946033
-9.4946243
-9.4946428
-9.4946494
-9.4944471
-9.4944483
-9.494452
-9.4944605
-9.4944777
-9.4945064
-9.4945456
-9.4945899
-9.4946163
-8.8822454
-8.8822474
-8.8822503
-8.8822539
-8.8822585
-8.8822646
-8.8822737
-8.8822867
-8.8822942
-8.8822867
-8.8822879
-8.8822891
-8.8822895
-8.8822889
-8.8822881
-8.8822892
-8.8822932
-8.882296
-8.882338
-8.8823386
-8.8823386
-8.8823368
-8.8823329
-8.8823283
-8.8823256
-8.8823267
-8.8823316
-8.8823907
-8.8823905
-8.8823895
-8.8823863
-8.8823808
-8.8823744
-8.8823695
-8.8823681
-8.8823718
-8.8824446
-8.8824437
-8.8824419
-8.8824378
-8.8824311
-8.8824228
-8.8824147
-8.8824099
-8.8824105
-8.8824979
-8.8824966
-8.8824942
-8.8824898
-8.8824825
-8.8824724
-8.8824614
-8.8824529
-8.8824498
-8.8825472
-8.8825456
-8.882543
-8.8825385
-8.8825309
-8.88252
-8.8825069
-8.8824954
-8.8824888
-8.8825911
-8.8825894
-8.8825866
-8.882582
-8.8825746
-8.8825633
-8.8825489
-8.882535
-8.8825251
-8.8826281
-8.8826263
-8.8826235
-8.8826189
-8.8826116
-8.8826002
-8.8825849
-8.882569
-8.8825563
-8.8826569
-8.8826551
-8.8826522
-8.8826478
-8.8826406
-8.8826292
-8.8826133
-8.8825959
-8.8825808
-8.8826766
-8.8826747
-8.8826719
-8.8826676
-8.8826605
-8.8826492
-8.8826328
-8.8826143
-8.8825974
-8.8826864
-8.8826845
-8.8826817
-8.8826774
-8.8826705
-8.8826592
-8.8826426
-8.8826235
-8.8826056
-8.882686
-8.8826841
-8.8826814
-8.8826772
-8.8826703
-8.8826591
-8.8826424
-8.8826231
-8.882605
-8.8826756
-8.8826738
-8.8826711
-8.8826669
-8.8826601
-8.8826488
-8.8826322
-8.8826132
-8.8825955
-8.8826553
-8.8826536
-8.8826511
-8.8826469
-8.88264
-8.8826287
-8.8826124
-8.8825942
-8.8825778
-8.8826262
-8.8826247
-8.8826222
-8.8826181
-8.882611
-8.8825998
-8.882584
-8.8825669
-8.8825524
-8.8825894
-8.8825879
-8.8825856
-8.8825815
-8.8825744
-8.8825632
-8.8825482
-8.8825327
-8.8825206
-8.882546
-8.8825448
-8.8825426
-8.8825387
-8.8825316
-8.8825206
-8.8825067
-8.8824934
-8.882484
-8.8824978
-8.8824969
-8.882495
-8.8824912
-8.8824843
-8.8824741
-8.8824621
-8.8824514
-8.8824451
-8.882446
-8.8824456
-8.8824442
-8.8824408
-8.8824344
-8.8824258
-8.8824166
-8.8824093
-8.8824064
-8.8823942
-8.8823945
-8.8823939
-8.8823912
-8.882386
-8.8823792
-8.8823729
-8.8823689
-8.8823689
-8.8823438
-8.8823448
-8.8823451
-8.8823437
-8.8823399
-8.8823349
-8.8823308
-8.8823294
-8.8823307
-8.8822946
-8.882296
-8.8822974
-8.8822981
-8.8822975
-8.8822964
-8.8822964
-8.8822984
-8.8822976
-8.8822544
-8.8822564
-8.8822594
-8.8822631
-8.8822678
-8.8822739
-8.8822827
-8.8822947
-8.8822994
-8.2694186
-8.269419
-8.26942
-8.2694221
-8.269426
-8.2694324
-8.2694408
-8.2694504
-8.2694559
-8.2694487
-8.2694485
-8.2694485
-8.2694491
-8.2694509
-8.269454
-8.2694577
-8.2694611
-8.2694621
-8.2694809
-8.2694804
-8.2694799
-8.2694798
-8.2694804
-8.2694811
-8.2694813
-8.2694814
-8.2694819
-8.269509
-8.2695083
-8.2695076
-8.2695072
-8.269507
-8.2695062
-8.2695046
-8.2695027
-8.2695018
-8.2695328
-8.2695319
-8.269531
-8.26953
-8.269529
-8.2695272
-8.2695243
-8.2695209
-8.2695184
-8.269553
-8.2695519
-8.2695506
-8.2695492
-8.2695475
-8.2695451
-8.2695412
-8.2695362
-8.2695318
-8.2695698
-8.2695686
-8.2695671
-8.2695653
-8.2695631
-8.2695601
-8.2695554
-8.2695489
-8.2695423
-8.2695841
-8.2695828
-8.269581
-8.2695789
-8.2695763
-8.2695729
-8.2695673
-8.2695592
-8.2695505
-8.2695957
-8.2695942
-8.2695922
-8.2695899
-8.2695871
-8.2695834
-8.2695771
-8.2695675
-8.2695567
-8.2696045
-8.2696028
-8.2696007
-8.2695983
-8.2695954
-8.2695915
-8.2695846
-8.2695738
-8.2695613
-8.2696103
-8.2696086
-8.2696064
-8.2696039
-8.269601
-8.269597
-8.2695897
-8.269578
-8.2695643
-8.269613
-8.2696113
-8.2696091
-8.2696066
-8.2696037
-8.2695997
-8.2695921
-8.26958
-8.2695654
-8.2696126
-8.2696109
-8.2696088
-8.2696064
-8.2696036
-8.2695995
-8.2695919
-8.2695796
-8.2695649
-8.2696093
-8.2696077
-8.2696056
-8.2696033
-8.2696006
-8.2695966
-8.2695891
-8.269577
-8.2695625
-8.269603
-8.2696015
-8.2695996
-8.2695975
-8.2695949
-8.269591
-8.2695838
-8.2695723
-8.2695586
-8.269594
-8.2695927
-8.269591
-8.2695891
-8.2695866
-8.269583
-8.2695762
-8.2695656
-8.2695531
-8.2695825
-8.2695814
-8.26958
-8.2695784
-8.2695762
-8.2695728
-8.2695666
-8.2695572
-8.2695463
-8.2695688
-8.2695679
-8.2695667
-8.2695655
-8.2695637
-8.2695607
-8.2695552
-8.2695469
-8.2695378
-8.2695528
-8.2695522
-8.2695514
-8.2695505
-8.2695492
-8.2695466
-8.2695418
-8.2695348
-8.2695274
-8.2695341
-8.2695336
-8.2695332
-8.2695328
-8.2695321
-8.2695301
-8.269526
-8.2695203
-8.2695145
-8.2695123
-8.2695119
-8.2695116
-8.2695117
-8.2695117
-8.2695106
-8.2695077
-8.2695033
-8.2694991
-8.2694863
-8.2694861
-8.269486
-8.2694862
-8.2694869
-8.2694872
-8.2694861
-8.2694838
-8.2694809
-8.2694559
-8.2694559
-8.2694562
-8.269457
-8.2694589
-8.2694616
-8.2694643
-8.2694657
-8.2694634
-8.2694269
-8.2694273
-8.2694283
-8.2694305
-8.2694345
-8.2694409
-8.269449
-8.2694577
-8.2694605
-7.6568904
-7.6568906
-7.656891
-7.6568918
-7.6568932
-7.6568956
-7.6568993
-7.6569042
-7.6569074
-7.6569038
-7.6569037
-7.6569036
-7.6569035
-7.6569037
-7.6569045
-7.6569064
-7.6569091
-7.6569112
-7.6569186
-7.6569184
-7.6569181
-7.6569175
-7.656917
-7.6569169
-7.6569175
-7.6569191
-7.6569215
-7.6569324
-7.6569321
-7.6569316
-7.6569309
-7.6569301
-7.6569293
-7.6569291
-7.6569297
-7.6569314
-7.6569451
-7.6569447
-7.6569442
-7.6569433
-7.6569421
-7.6569406
-7.6569393
-7.6569387
-7.6569393
-7.6569567
-7.6569563
-7.6569557
-7.6569547
-7.6569531
-7.6569508
-7.6569483
-7.6569463
-7.6569456
-7.6569668
-7.6569664
-7.6569658
-7.6569647
-7.6569628
-7.6569598
-7.656956
-7.6569526
-7.6569505
-7.6569755
-7.6569751
-7.6569744
-7.6569732
-7.6569711
-7.6569674
-7.6569626
-7.6569578
-7.6569544
-7.6569824
-7.6569821
-7.6569814
-7.6569802
-7.6569778
-7.6569736
-7.6569678
-7.6569618
-7.6569573
-7.6569877
-7.6569873
-7.6569867
-7.6569854
-7.6569829
-7.6569783
-7.6569718
-7.6569649
-7.6569594
-7.6569911
-7.6569908
-7.6569901
-7.6569888
-7.6569862
-7.6569813
-7.6569743
-7.6569668
-7.6569606
-7.6569927
-7.6569924
-7.6569917
-7.6569905
-7.6569878
-7.6569828
-7.6569755
-7.6569676
-7.6569609
-7.6569924
-7.6569921
-7.6569915
-7.6569903
-7.6569877
-7.6569827
-7.6569754
-7.6569673
-7.6569605
-7.6569904
-7.6569901
-7.6569896
-7.6569884
-7.6569859
-7.6569811
-7.6569739
-7.656966
-7.6569592
-7.6569866
-7.6569863
-7.6569859
-7.6569848
-7.6569825
-7.6569779
-7.6569712
-7.6569636
-7.6569572
-7.6569812
-7.656981
-7.6569806
-7.6569796
-7.6569775
-7.6569734
-7.6569672
-7.6569604
-7.6569545
-7.6569743
-7.6569742
-7.6569738
-7.656973
-7.6569711
-7.6569675
-7.6569621
-7.6569562
-7.6569511
-7.6569661
-7.656966
-7.6569657
-7.6569651
-7.6569635
-7.6569605
-7.656956
-7.6569511
-7.656947
-7.6569568
-7.6569568
-7.6569565
-7.656956
-7.6569547
-7.6569523
-7.656949
-7.6569453
-7.6569422
-7.6569464
-7.6569464
-7.6569463
-7.6569459
-7.6569449
-7.6569432
-7.6569409
-7.6569384
-7.6569365
-7.6569354
-7.6569354
-7.6569353
-7.656935
-7.6569343
-7.6569333
-7.656932
-7.6569306
-7.6569296
-7.6569235
-7.6569235
-7.6569235
-7.6569233
-7.6569228
-7.6569223
-7.6569219
-7.6569216
-7.6569212
-7.6569103
-7.6569104
-7.6569105
-7.6569105
-7.6569108
-7.6569113
-7.6569124
-7.6569136
-7.656913
-7.6568978
-7.656898
-7.6568985
-7.6568994
-7.6569009
-7.6569034
-7.6569069
-7.6569112
-7.656912
-7.0443583
-7.0443584
-7.0443586
-7.0443591
-7.0443598
-7.0443611
-7.044363
-7.0443653
-7.0443668
-7.0443655
-7.0443654
-7.0443654
-7.0443654
-7.0443655
-7.0443658
-7.0443665
-7.0443676
-7.0443685
-7.0443735
-7.0443734
-7.0443732
-7.044373
-7.0443726
-7.0443723
-7.0443723
-7.0443727
-7.0443738
-7.0443815
-7.0443813
-7.044381
-7.0443805
-7.04438
-7.0443794
-7.0443789
-7.044379
-7.0443798
-7.0443894
-7.0443891
-7.0443887
-7.0443881
-7.0443874
-7.0443867
-7.0443861
-7.0443857
-7.044386
-7.0443972
-7.0443968
-7.0443963
-7.0443956
-7.044395
-7.0443943
-7.0443935
-7.0443928
-7.0443927
-7.0444045
-7.044404
-7.0444034
-7.0444027
-7.0444021
-7.0444015
-7.0444008
-7.0443999
-7.0443993
-7.0444109
-7.0444104
-7.0444098
-7.0444091
-7.0444086
-7.0444082
-7.0444075
-7.0444065
-7.0444054
-7.0444163
-7.0444158
-7.0444151
-7.0444145
-7.0444141
-7.0444138
-7.0444132