/*--------------------------------*- C++ -*----------------------------------*\
| =========                 |                                                 |
| \\      /  F ield         | OpenFOAM: The Open Source CFD Toolbox           |
|  \\    /   O peration     | Version:  2406                                  |
|   \\  /    A nd           | Website:  www.openfoam.com                      |
|    \\/     M anipulation  |                                                 |
\*---------------------------------------------------------------------------*/
FoamFile
{
    version     2.0;
    format      ascii;
    arch        "LSB;label=32;scalar=64";
    class       surfaceScalarField;
    location    "13";
    object      phi;
}
// * * * * * * * * * * * * * * * * * * * * * * * * * * * * * * * * * * * * * //

dimensions      [0 3 -1 0 0 0 0];

oriented        oriented;

internalField   nonuniform List<scalar> 
101088
(
0.00014438953
-1.2986489e-05
9.1656406e-06
1.1272187e-05
0.00032152884
-5.6611013e-05
4.1950962e-05
5.0005769e-05
0.00051841238
-0.00013783684
0.00010654966
0.00012340622
0.00070701467
-0.00026357177
0.00021322941
0.00023933112
0.00084989516
-0.00042162617
0.00035680774
0.0003889647
0.00091891236
-0.00057284649
0.00050445056
0.00053738664
0.00091427177
-0.00066090141
0.00060365709
0.00063045122
0.00086088326
-0.00066066158
0.00061725427
0.00064250847
-0.00058266709
0.00054905809
0.00058454525
0.00078504833
0.00017563649
-1.4320717e-05
1.1961693e-05
0.00038653806
-6.1491185e-05
5.4291129e-05
0.00061301635
-0.00014761616
0.0001368931
0.00081710543
-0.00027774838
0.00027169035
0.00095342265
-0.00043700523
0.00045029001
0.00099413338
-0.00058418426
0.00063068641
0.00094926789
-0.00066406342
0.00075051886
0.00085400542
-0.00065170587
0.00076898949
-0.00056521232
0.00069303779
0.0007489946
0.00020682198
-1.507312e-05
1.4936252e-05
0.00045026468
-6.3785097e-05
6.7202206e-05
0.0007037703
-0.00015121561
0.00016812175
0.00092057932
-0.0002805688
0.00033065035
0.0010495284
-0.00043515846
0.00054216697
0.0010651001
-0.00057334985
0.00075099791
0.00098744689
-0.00064361305
0.00088617
0.00086183872
-0.00062201844
0.00090549306
-0.000532754
0.00082036369
0.00073303471
0.00023702168
-1.5260341e-05
1.8080697e-05
0.00051132018
-6.3623064e-05
8.0585191e-05
0.00078946179
-0.00014894247
0.00019988312
0.0010164787
-0.00027269565
0.00038935188
0.0011371193
-0.00041777596
0.00063143031
0.0011298838
-0.00054366733
0.00086476122
0.0010246817
-0.00060397123
0.0010110006
0.00087553928
-0.00057655865
0.001028094
-0.00048886539
0.00093234819
0.00072875679
0.00026533798
-1.4737303e-05
2.122442e-05
0.00056785519
-6.0745299e-05
9.3802104e-05
0.00086775022
-0.00014082095
0.00023087859
0.0011030065
-0.00025513616
0.00044583636
0.0012154678
-0.00038724613
0.00071584988
0.0011882285
-0.00049899496
0.00097032361
0.0010597413
-0.00054933802
0.0011244666
0.00089158748
-0.00051917299
0.0011372703
-0.0004363637
0.0010300647
0.00073072925
0.00029156611
-1.3688253e-05
2.4292314e-05
0.00062010821
-5.5828122e-05
0.00010654635
0.00093992521
-0.00012823086
0.00026042022
0.0011826702
-0.00023010745
0.00049895624
0.0012877578
-0.00034644582
0.00079407327
0.0012427471
-0.00044257003
0.0010666184
0.0010939907
-0.00048302584
0.0012262385
0.00090958578
-0.00045263135
0.0012334444
-0.00037718113
0.0011144581
0.00073686213
0.00031470278
-1.2174742e-05
2.7190905e-05
0.00066579195
-4.916764e-05
0.00011842968
0.001002391
-0.00011198374
0.00028762128
0.0012508846
-0.00019923865
0.00054720772
0.0013490302
-0.00029792665
0.00086411951
0.0012887346
-0.00037774094
0.0011516237
0.0011233621
-0.00040899864
0.0013149011
0.00092588521
-0.00038035425
0.0013160743
-0.00031416212
0.0011858518
0.00074399521
0.00033446715
-1.0247915e-05
2.9771782e-05
0.00070458387
-4.1036648e-05
0.00012893751
0.0010550692
-9.2802526e-05
0.00031151861
0.0013079919
-0.00016394713
0.00058929715
0.0013999199
-0.00024383185
0.00092471803
0.0013266711
-0.00030721255
0.0012245264
0.0011476487
-0.00033027391
0.0013902523
0.00093952105
-0.00030494734
0.0013855861
-0.00024962375
0.0012451592
0.00075054729
0.00035060006
-7.968474e-06
3.1938538e-05
0.00073611976
-3.1721833e-05
0.00013772239
0.0010976911
-7.1371623e-05
0.00033142767
0.0013539224
-0.00012543892
0.00062423087
0.001440454
-0.00018583335
0.00097479023
0.0013564586
-0.00023298
0.0012844415
0.0011663675
-0.00024897282
0.0014518106
0.0009497634
-0.00022835146
0.0014419593
-0.00018535732
0.0012927512
0.00075558934
0.00036293082
-5.4574447e-06
3.3628675e-05
0.00076020946
-2.1641015e-05
0.00014456031
0.0011301829
-4.8481484e-05
0.00034689228
0.0013887701
-8.4845427e-05
0.00065129281
0.0014708871
-0.00012528949
0.0010134409
0.0013783859
-0.00015644651
0.0013304847
0.001179689
-0.00016637777
0.0014988538
0.00095670211
-0.00015173649
0.0014847902
-0.00012231129
0.0013285522
0.00075896629
0.00037113457
-2.7968135e-06
3.4841843e-05
0.00077602279
-1.1016732e-05
0.00014939271
0.0011511695
-2.4572431e-05
0.00035766212
0.0014108293
-4.2847319e-05
0.00066987484
0.0014896089
-6.3101672e-05
0.0010396569
0.001391309
-7.856496e-05
0.0013614016
0.0011870466
-8.3274698e-05
0.0015301856
0.00096025752
-7.5648976e-05
0.0015131019
-6.0694898e-05
0.0013520297
0.00076074548
0.00037526472
-1.6705786e-11
3.540802e-05
0.00078401518
-6.8674821e-11
0.00015169529
0.0011618269
-1.4511278e-10
0.00036289409
0.0014220638
-2.6968331e-10
0.00067906832
0.0014991212
-5.2144278e-10
0.0010528177
0.0013977854
-7.3287932e-10
0.0013770642
0.0011906027
-9.4658962e-10
0.0015461198
0.00096185687
-1.2375093e-09
0.0015275012
-1.3191645e-09
0.00136395
0.00076146252
0.00037526466
2.7968008e-06
3.5408015e-05
0.00078401513
1.1016609e-05
0.00015169527
0.0011618266
2.457211e-05
0.00036289404
0.0014220634
4.2846787e-05
0.00067906822
0.001499121
6.3100714e-05
0.0010528176
0.0013977852
7.8563468e-05
0.0013770641
0.0011906026
8.3272582e-05
0.0015461196
0.00096185681
7.5646312e-05
0.0015275012
6.0692199e-05
0.0013639499
0.00076146261
0.00037113442
5.457448e-06
3.4841843e-05
0.00077602289
2.1640888e-05
0.00014939271
0.0011511694
4.8481196e-05
0.00035766212
0.0014108292
8.4845122e-05
0.00066987482
0.0014896089
0.00012528882
0.0010396569
0.001391309
0.00015644498
0.0013614016
0.0011870464
0.00016637532
0.0015301855
0.00096025742
0.00015173362
0.0015131018
0.00012230857
0.0013520296
0.00076074569
0.00036293059
7.9684717e-06
3.3628667e-05
0.00076020967
3.17217e-05
0.00014456028
0.0011301829
7.1371582e-05
0.0003468922
0.0013887702
0.00012543907
0.00065129266
0.0014708869
0.00018583288
0.0010134407
0.0013783856
0.00023297836
0.0013304844
0.0011796886
0.00024897034
0.0014988535
0.00095670184
0.00022834872
0.00148479
0.00018535456
0.001328552
0.00075896643
0.00035060014
1.0247859e-05
3.1938532e-05
0.00073612016
4.1036369e-05
0.00013772236
0.0010976911
9.2802423e-05
0.0003314276
0.0013539226
0.00016394714
0.00062423074
0.0014404537
0.00024383119
0.00097479003
0.0013564583
0.00030721103
0.0012844413
0.001166367
0.000330272
0.0014518104
0.00094976289
0.00030494517
0.0014419591
0.00024962089
0.001292751
0.00075558897
0.00033446736
1.2174683e-05
2.977178e-05
0.00070458403
4.9167397e-05
0.0001289375
0.001055069
0.00011198355
0.00031151858
0.0013079922
0.00019923851
0.00058929709
0.00139992
0.00029792607
0.00092471793
0.001326671
0.00037773987
0.0012245262
0.0011476482
0.00040899725
0.0013902522
0.0009395202
0.00038035259
0.0013855859
0.00031415929
0.0012451589
0.00075054601
0.00031470293
1.3688347e-05
2.7190906e-05
0.00066579202
5.5828289e-05
0.00011842968
0.0010023905
0.00012823082
0.00028762128
0.0012508852
0.00023010743
0.00054720772
0.0013490309
0.00034644546
0.0008641195
0.0012887349
0.00044256939
0.0011516237
0.0011233616
0.00048302459
0.001314901
0.00092588393
0.0004526301
0.0013160742
0.00037717901
0.0011858517
0.00074399306
0.00029156632
1.473732e-05
2.429232e-05
0.00062010872
6.0745371e-05
0.00010654637
0.00093992586
0.00014082082
0.00026042027
0.0011826716
0.00025513614
0.00049895633
0.0012877587
0.00038724579
0.0007940734
0.0012427474
0.00049899467
0.0010666185
0.0010939902
0.0005493371
0.0012262386
0.0009095843
0.00051917226
0.0012334444
0.00043636263
0.001114458
0.00073685987
0.00026533799
1.5260368e-05
2.122442e-05
0.00056785548
6.3623112e-05
9.3802102e-05
0.00086775055
0.00014894246
0.00023087859
0.0011030063
0.0002726955
0.00044583636
0.0012154679
0.00041777592
0.00071584986
0.0011882284
0.00054366733
0.00097032356
0.0010597406
0.00060397087
0.0011244666
0.00089158652
0.00057655808
0.0011372702
0.00048886517
0.0010300646
0.00073072765
0.00023702159
1.5073145e-05
1.8080695e-05
0.00051132015
6.3785126e-05
8.0585178e-05
0.00078946183
0.00015121578
0.00019988308
0.0010164787
0.00028056899
0.00038935181
0.0011371197
0.00043515883
0.00063143021
0.0011298841
0.00057335033
0.0008647611
0.0010246813
0.00064361295
0.0010110004
0.0008755389
0.00062201727
0.0010280939
0.00053275368
0.00093234812
0.00072875603
0.0002068219
1.4320716e-05
1.4936249e-05
0.00045026453
6.1491164e-05
6.7202192e-05
0.00070377021
0.00014761619
0.00016812171
0.00092057927
0.00027774825
0.00033065028
0.0010495281
0.00043700482
0.00054216687
0.0010650995
0.00058418451
0.0007509978
0.00098744539
0.00066406399
0.0008861699
0.00086183703
0.00065170471
0.00090549301
0.00056521167
0.00082036363
0.00073303439
0.00017563643
1.2986491e-05
1.1961696e-05
0.00038653786
5.6611014e-05
5.4291139e-05
0.00061301604
0.00013783684
0.00013689313
0.00081710507
0.00026357161
0.00027169039
0.000953422
0.00042162585
0.00045029008
0.00099413258
0.00057284693
0.00063068651
0.00094926704
0.00066090293
0.00075051895
0.00085400402
0.00066065989
0.00076898959
0.0005826657
0.00069303779
0.00074899395
0.00014438956
9.1656467e-06
1.1272186e-05
0.0003215289
4.1950987e-05
5.0005733e-05
0.00051841229
0.00010654972
0.00012340609
0.00070701412
0.00021322953
0.00023933078
0.00084989472
0.00035680792
0.00038896418
0.00091891262
0.00050445079
0.00053738663
0.00091427143
0.0006036573
0.0006304516
0.00086088348
0.00061725442
0.00064250618
0.00054905814
0.00058454352
0.00078504948
3.1684376e-06
1.7972925e-06
6.2004515e-06
-2.0005384e-06
1.5904537e-05
3.9231451e-06
3.0744893e-05
-5.453156e-06
4.4529191e-05
-3.2647146e-06
8.3901973e-05
-2.7121859e-06
9.4752704e-05
-3.9610907e-05
0.00018003971
2.2577202e-05
0.00016658771
-0.00012885715
0.00032158534
9.2244555e-05
0.00024850715
-0.0002709826
0.00048100658
0.0002125071
0.00032136455
-0.00042409583
0.00060121144
0.00035368421
0.00037510476
-0.00052174349
0.00063238742
0.00045287029
-0.0005288026
0.00056955809
0.00047430229
0.00040910519
4.3246416e-06
1.9095e-06
7.5248598e-06
2.1696469e-05
3.1743629e-06
3.7668163e-05
6.0002538e-05
-8.2137931e-06
0.00010353626
0.00012410546
-5.5097338e-05
0.000223074
0.00020816979
-0.00016101403
0.00039838267
0.00029178339
-0.00031778753
0.00059387788
0.00035147594
-0.00047337298
0.00074010343
0.00038162653
-0.00056359717
0.00078069291
-0.00055772187
0.00071295657
0.0003906271
5.9837294e-06
2.0904669e-06
8.7715669e-06
2.9177274e-05
2.8898892e-06
4.4293146e-05
7.8253913e-05
-1.1652317e-05
0.0001224836
0.00015589654
-6.6674725e-05
0.00026458512
0.00024949304
-0.0001839946
0.00047155125
0.00033135259
-0.00034743916
0.00069879007
0.00037683498
-0.00049777164
0.00086508644
0.00038614458
-0.00057792867
0.00091051499
-0.00056298511
0.00083667478
0.00037509678
7.9714196e-06
2.1817655e-06
1.0017999e-05
3.8006918e-05
2.5683457e-06
5.0871279e-05
9.9217156e-05
-1.4123944e-05
0.00014114454
0.00019085014
-7.3945589e-05
0.00030498983
0.00029245524
-0.00019576969
0.00054160003
0.0003708473
-0.00035790529
0.0007968352
0.00040322797
-0.00049767892
0.00097852735
0.00039509395
-0.00056683368
0.0010251333
-0.00054641445
0.00094357524
0.00036729622
1.0015525e-05
2.1979812e-06
1.1192637e-05
4.6962092e-05
2.3110642e-06
5.7112651e-05
0.00012017692
-1.5345519e-05
0.00015888524
0.00022514913
-7.6373566e-05
0.00034329236
0.00033406003
-0.00019620709
0.00060737624
0.00040926844
-0.00035022989
0.00088743975
0.0004310432
-0.00047613354
0.0010811466
0.00040940206
-0.00053428574
0.0011263635
-0.00051162088
0.0010358232
0.00036885019
1.2063822e-05
2.1182169e-06
1.2308239e-05
5.5863105e-05
2.0322819e-06
6.3025832e-05
0.00014083602
-1.5526206e-05
0.00017562802
0.00025871639
-7.4518218e-05
0.00037922013
0.00037501502
-0.00018689512
0.00066846293
0.00044811568
-0.00032701282
0.00097030069
0.00046162557
-0.00043679555
0.0011733908
0.00042977785
-0.00048439441
0.0012154009
-0.00046220652
0.0011150729
0.00037974885
1.4000497e-05
1.9338451e-06
1.3374631e-05
6.4177082e-05
1.7052005e-06
6.8580071e-05
0.00015987134
-1.4739188e-05
0.00019114023
0.00028918693
-6.872735e-05
0.00041210073
0.00041170223
-0.00016896162
0.00072367076
0.00048319811
-0.00029090727
0.0010440224
0.0004907057
-0.00038360069
0.0012541988
0.00045220651
-0.00042190841
0.0012920875
-0.00040240702
0.0011820181
0.00039624077
1.5729406e-05
1.6552554e-06
1.4320866e-05
7.1534251e-05
1.3417925e-06
7.3496049e-05
0.00017656196
-1.3076006e-05
0.00020482798
0.00031564288
-5.9512348e-05
0.0004410011
0.00044342329
-0.00014394915
0.00077192537
0.00051390988
-0.00024472183
0.0011078543
0.00051682957
-0.00031966285
0.0013233948
0.00047363167
-0.00035009289
0.0013569684
-0.00033423702
0.0012377595
0.00041286138
1.7177246e-05
1.3026335e-06
1.5113918e-05
7.7642389e-05
9.7806104e-07
7.7620828e-05
0.00019028336
-1.0609648e-05
0.00021632046
0.00033710348
-4.7376997e-05
0.00046527537
0.00046884946
-0.00011318537
0.00081228072
0.00053842006
-0.00019073841
0.0011608875
0.00053782412
-0.00024766281
0.0013804065
0.0004903975
-0.00027068121
0.0014099742
-0.00025765288
0.0012827446
0.00042382006
1.8293105e-05
9.0100152e-07
1.5737284e-05
8.2322606e-05
6.4044053e-07
8.0868253e-05
0.00020072085
-7.4836853e-06
0.0002253681
0.00035324509
-3.296828e-05
0.00048435969
0.00048770901
-7.805537e-05
0.00084384691
0.00055606972
-0.00013070127
0.0012020868
0.00055209768
-0.00016918329
0.0014243463
0.00050012995
-0.0001844709
0.0014505476
-0.00017471402
0.0013168169
0.00042892642
1.9066152e-05
4.4385489e-07
1.6232877e-05
8.5522151e-05
2.5558817e-07
8.3321468e-05
0.0002077247
-3.9755138e-06
0.00023195149
0.00036382982
-1.7041126e-05
0.00049784244
0.00049975946
-3.9949653e-05
0.00086562131
0.00056697686
-6.6529789e-05
0.0012300126
0.00056012011
-8.589574e-05
0.0014537548
0.00050468636
-9.3414865e-05
0.0014774795
-8.8118001e-05
0.0013392323
0.00043088771
1.9415671e-05
1.0631022e-11
1.6436184e-05
8.6957522e-05
9.7087026e-12
8.4408934e-05
0.00021085108
-2.6474535e-11
0.00023502498
0.00036850644
-2.0136174e-10
0.0005043719
0.00050497204
-5.6412888e-10
0.00087640289
0.00057150065
-9.6955416e-10
0.0012440068
0.00056314033
-1.2789798e-09
0.0014685856
0.00050611504
-1.4886713e-09
0.001491113
-1.2945204e-09
0.0013505914
0.00043135663
1.9415665e-05
-4.4382775e-07
1.6436181e-05
8.6957529e-05
-2.555658e-07
8.4408921e-05
0.00021085099
3.9754614e-06
0.00023502495
0.00036850633
1.7040772e-05
0.00050437183
0.00050497197
3.9948626e-05
0.00087640277
0.00057150056
6.6527893e-05
0.0012440066
0.00056314021
8.5893138e-05
0.0014685854
0.00050611495
9.3411829e-05
0.0014911129
8.8115378e-05
0.0013505914
0.00043135663
1.9066104e-05
-9.0097694e-07
1.6232875e-05
8.5522204e-05
-6.4044107e-07
8.332146e-05
0.00020772463
7.483635e-06
0.00023195147
0.00036382979
3.2968071e-05
0.0004978424
0.00049975946
7.8054586e-05
0.00086562123
0.00056697677
0.00013069951
0.0012300125
0.00056011986
0.0001691807
0.0014537546
0.00050468611
0.00018446788
0.0014774793
0.00017471141
0.0013392321
0.00043088765
1.8293009e-05
-1.3026096e-06
1.5737278e-05
8.2322695e-05
-9.7806608e-07
8.0868223e-05
0.00020072083
1.0609672e-05
0.00022536803
0.00035324508
4.7376968e-05
0.00048435953
0.00048770881
0.00011318473
0.00084384666
0.00055606935
0.00019073673
0.0012020864
0.00055209713
0.00024766034
0.0014243459
0.00050012941
0.00027067838
0.0014505472
0.00025765026
0.0013168166
0.00042892618
1.7177251e-05
-1.6552415e-06
1.5113912e-05
7.7642573e-05
-1.3418168e-06
7.7620801e-05
0.00019028338
1.3076051e-05
0.00021632038
0.00033710348
5.9512316e-05
0.00046527523
0.0004688491
0.00014394849
0.0008122805
0.00053841953
0.00024472033
0.0011608872
0.0005378234
0.00031966075
0.0013804062
0.00049039668
0.00035009044
0.0014099739
0.0003342343
0.0012827443
0.00042381937
1.5729507e-05
-1.9338349e-06
1.4320861e-05
7.1534357e-05
-1.7052163e-06
7.3496031e-05
0.00017656176
1.4739211e-05
0.00020482794
0.00031564284
6.8727234e-05
0.00044100101
0.00044342296
0.000168961
0.00077192524
0.00051390938
0.0002909061
0.0011078541
0.00051682875
0.00038359897
0.0013233946
0.00047363057
0.00042190629
0.0013569682
0.00040240431
0.0012377592
0.00041286002
1.4000593e-05
-2.118163e-06
1.3374629e-05
6.4177147e-05
-2.0321614e-06
6.8580061e-05
0.00015987112
1.5526321e-05
0.00019114021
0.00028918716
7.4518255e-05
0.0004121007
0.0004117022
0.0001868948
0.00072367071
0.0004831977
0.00032701205
0.0010440223
0.00049070474
0.00043679407
0.0012541988
0.00045220509
0.00048439252
0.0012920874
0.00046220416
0.0011820179
0.00039623887
1.206384e-05
-2.1979343e-06
1.230824e-05
5.5863155e-05
-2.3109335e-06
6.3025839e-05
0.00014083608
1.5345662e-05
0.00017562804
0.00025871676
7.6373754e-05
0.00037922019
0.00037501496
0.00019620699
0.00066846303
0.00044811516
0.00035022951
0.00097030078
0.00046162441
0.00047613239
0.0011733909
0.00042977625
0.00053428412
0.0012154008
0.000511619
0.0011150727
0.0003797469
1.0015565e-05
-2.1817163e-06
1.1192637e-05
4.6962315e-05
-2.5682065e-06
5.711265e-05
0.00012017715
1.4124186e-05
0.00015888523
0.00022514902
7.3945876e-05
0.00034329235
0.00033405974
0.00019576991
0.00060737623
0.00040926774
0.00035790536
0.00088743971
0.00043104189
0.00049767824
0.0010811465
0.00040940068
0.00056683216
0.0011263634
0.00054641291
0.001035823
0.00036884851
7.9714085e-06
-2.0904328e-06
1.0017999e-05
3.800694e-05
-2.8898129e-06
5.0871274e-05
9.921716e-05
1.1652557e-05
0.00014114452
0.00019085001
6.6675139e-05
0.0003049898
0.00029245517
0.00018399518
0.00054159996
0.00037084691
0.00034743972
0.0007968351
0.00040322692
0.00049777143
0.00097852724
0.00039509289
0.00057792707
0.0010251331
0.00056298355
0.00094357512
0.000367295
5.9837147e-06
-1.9094762e-06
8.7715668e-06
2.9177251e-05
-3.1742968e-06
4.4293143e-05
7.8253955e-05
8.2140031e-06
0.00012248359
0.00015589668
5.509769e-05
0.00026458509
0.00024949307
0.00016101444
0.00047155117
0.00033135233
0.00031778812
0.00069878997
0.00037683385
0.00047337353
0.00086508633
0.00038614291
0.00056359625
0.00091051489
0.00055772009
0.00083667467
0.00037509576
4.3246375e-06
-1.7972729e-06
7.5248628e-06
2.1696459e-05
-3.9230825e-06
3.7668174e-05
6.0002591e-05
3.264858e-06
0.00010353629
0.00012410568
3.9611105e-05
0.00022307405
0.00020817013
0.00012885733
0.00039838272
0.00029178406
0.00027098301
0.00059387794
0.00035147676
0.00042409672
0.00074010347
0.00038162705
0.00052174258
0.00078069292
0.00052880097
0.00071295655
0.00039062755
3.168481e-06
6.200457e-06
-2.0005558e-06
1.5904691e-05
3.0744916e-05
-5.4532135e-06
4.4529497e-05
8.3902025e-05
-2.7123274e-06
9.4753225e-05
0.00018003979
2.2576903e-05
0.00016658892
0.00032158546
9.2244083e-05
0.00024850954
0.00048100671
0.00021250672
0.00032136751
0.00060121154
0.00035368397
0.00037510771
0.00063238749
0.00045286946
0.00056955813
0.00047430227
0.0004091067
7.1982931e-07
2.1619389e-07
5.9727602e-06
-7.083316e-07
3.9875674e-06
-2.1548697e-09
2.9585716e-05
-2.1063969e-06
1.2018668e-05
-3.6105043e-06
8.116321e-05
-1.6818004e-06
2.7686282e-05
-1.8721379e-05
0.00017575858
7.334947e-06
5.4185944e-05
-6.1238772e-05
0.0003173802
3.8944271e-05
9.3427119e-05
-0.0001464368
0.00048002011
0.00010818211
0.00014347195
-0.0002626751
0.00060522499
0.00020861673
0.00019548098
-0.0003548276
0.00063996537
0.00029524064
-0.00038058264
0.00057727805
0.00032977538
0.0002385683
9.3939977e-07
-2.2837166e-07
7.0300274e-06
5.422652e-06
-2.0724382e-06
3.5255207e-05
1.6591192e-05
-9.0005174e-06
9.7757766e-05
3.7760925e-05
-3.0211153e-05
0.00021339408
7.0777561e-05
-8.290336e-05
0.00038703066
0.00011352254
-0.00018135712
0.00058605328
0.00015859465
-0.00030692763
0.00073928388
0.00019784804
-0.0003986211
0.00078523311
-0.00041583524
0.00071877847
0.00022727877
1.2234777e-06
-6.2797136e-07
7.9476909e-06
7.0277888e-06
-3.9031988e-06
4.0319601e-05
2.1370181e-05
-1.3725802e-05
0.00011286648
4.7950296e-05
-4.0159636e-05
0.00024795346
8.6877735e-05
-0.0001010747
0.00045079513
0.00013149265
-0.00020877903
0.00068159706
0.00017007575
-0.00033742942
0.00085700517
0.00019599677
-0.00042371231
0.00090968521
-0.00043189375
0.00083850014
0.00021022993
1.521873e-06
-9.5399576e-07
8.8221528e-06
8.7421271e-06
-5.3818294e-06
4.5129674e-05
2.6439276e-05
-1.7442187e-05
0.00012716381
5.8511072e-05
-4.7672873e-05
0.00028043136
0.00010310183
-0.00011408081
0.0005100154
0.00014877747
-0.00022632559
0.00076870613
0.00018067322
-0.00035249619
0.0009616984
0.00019447548
-0.00042996843
0.0010175872
-0.00042964211
0.00094022169
0.00019557739
1.7808728e-06
-1.1481999e-06
9.6059569e-06
1.0303613e-05
-6.2961952e-06
4.9504234e-05
3.1206256e-05
-1.9741106e-05
0.00014028146
6.863389e-05
-5.2142674e-05
0.00031033452
0.00011850583
-0.00012099328
0.00056441675
0.00016466119
-0.00023282896
0.00084778779
0.00019031824
-0.0003519711
0.0010549645
0.00019408331
-0.00041891449
0.0011115446
-0.00041151573
0.0010267628
0.0001850173
2.0795463e-06
-1.2493825e-06
1.0329874e-05
1.2024744e-05
-6.7580161e-06
5.3542463e-05
3.6328478e-05
-2.0795446e-05
0.00015237866
7.9229753e-05
-5.3692272e-05
0.00033786839
0.00013405715
-0.00012160967
0.00061425198
0.00018028387
-0.00022807876
0.00091932382
0.0001999229
-0.00033608055
0.0011378614
0.00019467061
-0.00039149101
0.0011932298
-0.00037876136
0.0011001052
0.000176884
2.3616835e-06
-1.2535759e-06
1.1017117e-05
1.3631756e-05
-6.7379969e-06
5.7289964e-05
4.1036987e-05
-2.0494485e-05
0.00016343411
8.8746789e-05
-5.2065927e-05
0.00036276453
0.00014764619
-0.00011565272
0.00065881445
0.00019316509
-0.00021206763
0.00098249244
0.00020680362
-0.00030536907
0.001209849
0.00019358197
-0.00034898196
0.0012628003
-0.00033281884
0.0011611169
0.00016854069
2.6075769e-06
-1.1567006e-06
1.1616395e-05
1.5020442e-05
-6.2082828e-06
6.0553456e-05
4.5059329e-05
-1.8757436e-05
0.00017305211
9.6695107e-05
-4.710902e-05
0.00038440844
0.00015843553
-0.00010292542
0.00069745777
0.00020241815
-0.0001850838
0.0010368879
0.00021061437
-0.00026127733
0.001271107
0.0001909752
-0.00029342011
0.0013210458
-0.00027628361
0.0012110755
0.00016112406
2.8126362e-06
-9.6400215e-07
1.2108579e-05
1.6161611e-05
-5.1803849e-06
6.3243956e-05
4.8313236e-05
-1.5599735e-05
0.00018101119
0.00010297109
-3.8868555e-05
0.00040237709
0.00016655201
-8.3794979e-05
0.00072956954
0.00020863386
-0.00014819943
0.0010819214
0.0002121376
-0.00020572264
0.0013213481
0.00018830106
-0.00022775858
0.0013681493
-0.00021309379
0.0012507088
0.00015714706
2.9743558e-06
-6.9167714e-07
1.2490608e-05
1.7048013e-05
-3.7242176e-06
6.5338422e-05
5.0797949e-05
-1.1198097e-05
0.00018721659
0.00010763623
-2.7749587e-05
0.00041640245
0.00017231773
-5.9229295e-05
0.00075459983
0.00021281809
-0.00010344776
0.0011168348
0.00021315391
-0.00014165923
0.0013599472
0.0001874659
-0.00015539039
0.0014038675
-0.00014503555
0.0012803163
0.00015590831
3.0993474e-06
-3.6522782e-07
1.2807084e-05
1.7702238e-05
-1.9603833e-06
6.6954734e-05
5.2559071e-05
-5.8729057e-06
0.00019176953
0.00011079998
-1.4478851e-05
0.0004263308
0.00017598782
-3.0675102e-05
0.00077187935
0.00021517685
-5.3117071e-05
0.001140493
0.00021369424
-7.2117175e-05
0.0013856954
0.00018711365
-7.8722426e-05
0.0014273922
-7.3409644e-05
0.0012995683
0.00015515186
3.1467567e-06
1.1822816e-11
1.2924189e-05
1.7968299e-05
2.034034e-11
6.7626968e-05
5.3302792e-05
8.7338588e-12
0.00019381761
0.00011214324
-1.1169612e-10
0.00043105273
0.00017748037
-4.2364844e-10
0.00078039115
0.00021600371
-8.4909495e-10
0.0011523673
0.00021375119
-1.2139958e-09
0.0013987222
0.00018681802
-1.341707e-09
0.0014393252
-1.099179e-09
0.0013093267
0.00015467428
3.146751e-06
3.6525654e-07
1.2924187e-05
1.7968282e-05
1.9604371e-06
6.7626959e-05
5.3302732e-05
5.8729488e-06
0.00019381758
0.00011214315
1.447867e-05
0.00043105267
0.00017748024
3.0674307e-05
0.00078039106
0.00021600353
5.3115408e-05
0.0011523672
0.00021375098
7.2114752e-05
0.0013987221
0.00018681783
7.8719715e-05
0.0014393251
7.3407419e-05
0.0013093267
0.0001546741
3.0993457e-06
6.9170383e-07
1.2807083e-05
1.7702245e-05
3.7242717e-06
6.695473e-05
5.2559017e-05
1.1198168e-05
0.00019176952
0.00011079989
2.7749491e-05
0.00042633078
0.0001759876
5.922863e-05
0.0007718793
0.00021517648
0.00010344623
0.0011404929
0.00021369374
0.00014165689
0.0013856953
0.00018711311
0.00015538769
0.0014273921
0.0001450333
0.0012995681
0.00015515133
2.9743482e-06
9.6403448e-07
1.2490604e-05
1.7047993e-05
5.1804668e-06
6.5338403e-05
5.0797827e-05
1.5599873e-05
0.00018721654
0.00010763602
3.8868565e-05
0.00041640234
0.00017231729
8.3794449e-05
0.00075459965
0.00021281739
0.00014819805
0.0011168346
0.000213153
0.00020572044
0.0013599469
0.00018746491
0.00022775595
0.0014038672
0.00021309148
0.0012803161
0.0001559074
2.812629e-06
1.1567481e-06
1.2108576e-05
1.6161561e-05
6.2084148e-06
6.3243943e-05
4.831305e-05
1.8757655e-05
0.00018101116
0.00010297078
4.710912e-05
0.00040237701
0.00016655137
0.00010292502
0.00072956941
0.00020863288
0.00018508264
0.0010819212
0.00021213629
0.00026127538
0.0013213479
0.00018829957
0.00029341765
0.001368149
0.00027628126
0.0012507086
0.0001571456
2.6075806e-06
1.2536396e-06
1.1616394e-05
1.5020405e-05
6.7381845e-06
6.0553451e-05
4.5059129e-05
2.0494805e-05
0.00017305209
9.6694742e-05
5.2066168e-05
0.00038440841
0.00015843482
0.00011565253
0.00069745773
0.00020241703
0.00021206677
0.0010368879
0.00021061278
0.00030536746
0.0012711069
0.00019097325
0.00034897979
0.0013210456
0.00033281657
0.0012110752
0.00016112196
2.3616987e-06
1.2494549e-06
1.1017117e-05
1.3631755e-05
6.7582356e-06
5.7289966e-05
4.1036828e-05
2.0795844e-05
0.00016343412
8.8746486e-05
5.3692701e-05
0.00036276455
0.00014764551
0.00012160978
0.00065881449
0.00019316393
0.00022807824
0.00098249247
0.00020680191
0.00033607932
0.001209849
0.00019357974
0.00039148923
0.0012628001
0.00037875935
0.0011611167
0.00016853813
2.0795391e-06
1.1482797e-06
1.0329877e-05
1.2024713e-05
6.2964333e-06
5.3542478e-05
3.6328351e-05
1.9741567e-05
0.0001523787
7.9229492e-05
5.2143296e-05
0.00033786848
0.00013405652
0.00012099367
0.00061425214
0.0001802828
0.0002328288
0.00091932399
0.00019992133
0.00035197024
0.0011378615
0.00019466846
0.00041891316
0.0011932298
0.00041151411
0.001100105
0.00017688145
1.7808758e-06
9.5408014e-07
9.6059579e-06
1.0303627e-05
5.3820936e-06
4.9504239e-05
3.1206214e-05
1.7442734e-05
0.00014028147
6.8633652e-05
4.7673654e-05
0.00031033455
0.00011850533
0.00011408145
0.00056441679
0.00016466033
0.00022632574
0.00084778781
0.00019031699
0.00035249564
0.0010549645
0.00019408158
0.0004299675
0.0011115445
0.0004296409
0.0010267627
0.00018501518
1.5218727e-06
6.2804948e-07
8.8221524e-06
8.7421318e-06
3.9034386e-06
4.5129671e-05
2.6439275e-05
1.3726319e-05
0.0001271638
5.8511024e-05
4.0160407e-05
0.00028043134
0.00010310171
0.00010107545
0.00051001535
0.00014877711
0.00020877942
0.00076870605
0.00018067259
0.00033742908
0.0009616983
0.00019447457
0.00042371164
0.0010175871
0.00043189302
0.00094022159
0.00019557601
1.2234846e-06
2.2843772e-07
7.9476898e-06
7.0278286e-06
2.0726479e-06
4.0319595e-05
2.137034e-05
9.0009583e-06
0.00011286646
4.7950677e-05
3.021179e-05
0.00024795341
8.6878322e-05
8.2903945e-05
0.00045079504
0.00013149331
0.00018135743
0.00068159692
0.00017007616
0.00030692755
0.00085700503
0.00019599666
0.00039862098
0.0009096851
0.00041583506
0.00083850007
0.0002102293
9.3942995e-07
-2.1615469e-07
7.0300285e-06
5.4227884e-06
2.2759145e-09
3.5255211e-05
1.6591589e-05
3.6107179e-06
9.7757772e-05
3.7761803e-05
1.8721579e-05
0.00021339408
7.0779074e-05
6.1238742e-05
0.00038703064
0.00011352464
0.00014643659
0.00058605325
0.0001585968
0.00026267511
0.00073928384
0.0001978498
0.00035482782
0.00078523311
0.00038058316
0.0007187785
0.00022727973
7.1988916e-07
5.9727634e-06
-7.0834553e-07
3.9878103e-06
2.9585729e-05
-2.1064468e-06
1.2019225e-05
8.1163239e-05
-1.6819121e-06
2.7687246e-05
0.00017575862
7.3347034e-06
5.4187412e-05
0.00031738025
3.894379e-05
9.342929e-05
0.00048002015
0.00010818138
0.00014347498
0.00060522502
0.00020861585
0.00019548505
0.00063996543
0.00029523986
0.00057727812
0.00032977676
0.00023857147
-2.8033869e-07
1.263736e-08
6.313391e-06
-7.2929426e-08
-1.3655459e-06
-6.5969628e-07
3.1072392e-05
2.582295e-07
-3.2002513e-06
-3.9589222e-06
8.455928e-05
2.3975666e-06
-4.0292282e-06
-1.4604012e-05
0.00018147446
9.7171159e-06
7.1467389e-07
-4.1203407e-05
0.00032517462
2.8665096e-05
1.716266e-05
-9.2168906e-05
0.00048945928
6.6281744e-05
4.6342489e-05
-0.00015916251
0.00061611641
0.00011909126
8.2230797e-05
-0.0002178909
0.00065164079
0.00017032717
-0.00024251861
0.00058777957
0.00019811445
0.00011613341
-3.4425448e-07
7.2356607e-09
7.3796832e-06
-1.5515375e-06
-9.4399611e-07
3.6746791e-05
-3.3193549e-06
-5.4283978e-06
0.00010099506
-3.352652e-06
-1.9503724e-05
0.00021832708
3.353489e-06
-5.3694926e-05
0.00039281603
2.2007157e-05
-0.00011699637
0.00059222708
5.1656965e-05
-0.00019603785
0.00074650938
8.4059111e-05
-0.0002587975
0.00079373754
-0.00027956745
0.00072700789
0.00011287848
-3.1952844e-07
-5.2954616e-09
8.27975e-06
-1.3969272e-06
-1.2324558e-06
4.1685455e-05
-2.662571e-06
-6.871612e-06
0.00011557532
-1.2483035e-06
-2.4241071e-05
0.00025127649
8.2169609e-06
-6.5452261e-05
0.00045308713
2.9384847e-05
-0.00013895148
0.00068238423
5.8442157e-05
-0.0002261638
0.00085807376
8.6436285e-05
-0.00028954882
0.00091244234
-0.00030473501
0.00084204065
0.00010806326
-2.2389542e-07
-7.2955948e-08
9.1137081e-06
-8.881709e-07
-1.6968783e-06
4.625837e-05
-1.0814307e-06
-8.5501201e-06
0.00012903557
2.5706441e-06
-2.893806e-05
0.00028147626
1.5649615e-05
-7.6170334e-05
0.00050765446
3.9393177e-05
-0.00015641191
0.00076242292
6.7237665e-05
-0.00024699638
0.00095468643
9.018502e-05
-0.00030761424
0.0010127052